/*--------------------------------*- C++ -*----------------------------------*\
| =========                 |                                                 |
| \\      /  F ield         | OpenFOAM: The Open Source CFD Toolbox           |
|  \\    /   O peration     | Version:  2.3.0                                 |
|   \\  /    A nd           | Web:      www.OpenFOAM.org                      |
|    \\/     M anipulation  |                                                 |
\*---------------------------------------------------------------------------*/
FoamFile
{
    version     2.0;
    format      ascii;
    class       volScalarField;
    location    "10000";
    object      nut;
}
// * * * * * * * * * * * * * * * * * * * * * * * * * * * * * * * * * * * * * //

dimensions      [0 2 -1 0 0 0 0];

internalField   nonuniform List<scalar> 
42305
(
0.0612234
0.0595096
0.0578016
0.0561001
0.0544059
0.05272
0.0510433
0.0493778
0.0477238
0.046083
0.0444559
0.042844
0.0412471
0.0396672
0.0381042
0.03656
0.0350353
0.033531
0.0320496
0.0305923
0.0291619
0.0277604
0.0263917
0.0250619
0.0237759
0.022539
0.0213543
0.0202297
0.0191744
0.0181877
0.0172377
0.0162945
0.0153526
0.0144144
0.0134825
0.0125559
0.0116314
0.0107018
0.00975723
0.00878612
0.0077734
0.00673324
0.0058873
0.0627538
0.0612437
0.0597403
0.0582429
0.0567518
0.055267
0.05379
0.0523207
0.0508612
0.0494114
0.0479726
0.046545
0.0451293
0.0437255
0.0423346
0.0409574
0.0395932
0.0382436
0.03691
0.0355923
0.0342923
0.0330108
0.0317486
0.030508
0.0292901
0.0280973
0.0269314
0.0257947
0.0246902
0.0236216
0.0225905
0.0215988
0.0206507
0.0197519
0.0189109
0.018138
0.0174451
0.016845
0.0163514
0.0159807
0.0157467
0.015665
0.0157499
0.0641545
0.0628153
0.0614845
0.0601589
0.058838
0.0575217
0.0562104
0.0549043
0.0536044
0.0523116
0.0510264
0.0497497
0.0484817
0.0472226
0.0459729
0.0447322
0.0435015
0.0422813
0.0410721
0.0398757
0.0386917
0.0375223
0.0363689
0.0352328
0.0341152
0.0330183
0.0319444
0.0308956
0.0298759
0.0288882
0.0279368
0.027027
0.0261639
0.0253556
0.0246083
0.0239319
0.0233365
0.022833
0.022433
0.0221461
0.0219813
0.0219461
0.0220426
0.0654173
0.0642357
0.0630547
0.061876
0.0606997
0.0595257
0.058354
0.057185
0.0560188
0.0548565
0.0536989
0.0525467
0.0514007
0.0502608
0.0491272
0.0480001
0.046879
0.045765
0.0446592
0.0435618
0.0424739
0.041397
0.0403328
0.0392832
0.0382491
0.037233
0.0362373
0.0352644
0.0343176
0.0334012
0.0325186
0.0316767
0.0308803
0.0301361
0.0294525
0.0288368
0.0282982
0.0278467
0.0274908
0.0272391
0.027098
0.0270726
0.0271642
0.0665745
0.0655226
0.0644691
0.0634157
0.0623624
0.0613092
0.0602565
0.0592031
0.0581498
0.057097
0.0560455
0.0549966
0.0539509
0.0529095
0.0518724
0.050839
0.0498095
0.048784
0.0477629
0.0467471
0.0457379
0.0447367
0.0437456
0.0427661
0.0418
0.0408494
0.0399169
0.0390056
0.0381181
0.0372579
0.0364301
0.0356394
0.0348928
0.0341961
0.0335567
0.0329821
0.0324812
0.0320624
0.031733
0.0315006
0.0313717
0.0313494
0.0314351
0.067631
0.0666876
0.0657428
0.064796
0.0638474
0.0628978
0.0619462
0.0609917
0.0600343
0.0590739
0.0581116
0.0571483
0.0561859
0.0552256
0.0542677
0.0533123
0.052359
0.0514074
0.0504573
0.0495095
0.0485653
0.0476267
0.0466953
0.0457731
0.044862
0.0439643
0.0430835
0.0422217
0.0413819
0.0405676
0.0397832
0.0390336
0.0383244
0.0376631
0.0370565
0.0365118
0.036037
0.0356403
0.0353281
0.035108
0.034985
0.0349627
0.0350428
0.0685842
0.0677393
0.0668891
0.0660337
0.0651745
0.0643129
0.0634479
0.0625787
0.0617038
0.0608228
0.0599357
0.0590443
0.0581504
0.0572567
0.0563643
0.0554732
0.0545831
0.0536941
0.0528048
0.0519143
0.0510241
0.050137
0.0492552
0.0483801
0.0475141
0.0466595
0.0458201
0.0449986
0.0441976
0.0434213
0.0426731
0.0419566
0.0412774
0.0406426
0.0400606
0.0395382
0.0390832
0.0387023
0.0384024
0.0381904
0.0380716
0.0380483
0.0381228
0.0694518
0.06869
0.0679212
0.067145
0.066361
0.0655735
0.0647829
0.0639875
0.0631841
0.0623724
0.0615503
0.0607204
0.0598823
0.0590432
0.0582041
0.0573655
0.0565277
0.0556905
0.0548532
0.0540134
0.0531695
0.0523246
0.0514832
0.0506483
0.0498198
0.0490001
0.0481942
0.0474056
0.0466365
0.0458909
0.0451744
0.0444867
0.0438324
0.043219
0.0426536
0.0421499
0.0417105
0.0413418
0.0410507
0.0408442
0.0407282
0.0407049
0.0407756
0.0702439
0.0695511
0.0688514
0.0681465
0.0674246
0.0666972
0.0659674
0.0652368
0.0644941
0.0637466
0.0629764
0.0622045
0.0614102
0.0606132
0.0598143
0.0590153
0.0582165
0.0574188
0.0566239
0.0558296
0.055028
0.0542183
0.05341
0.0526079
0.0518149
0.0510234
0.050244
0.0494827
0.0487424
0.0480192
0.0473291
0.0466746
0.0460399
0.0454492
0.0448944
0.0444106
0.0439855
0.0436281
0.0433439
0.0431417
0.0430289
0.0430081
0.0430781
0.00664507
0.00842653
0.00954951
0.0106488
0.0118105
0.0130348
0.0143107
0.015627
0.0169727
0.0183405
0.0197258
0.0211249
0.0225358
0.0239567
0.0253863
0.0268239
0.0282688
0.0297207
0.0311796
0.0326447
0.0341164
0.0355942
0.0370778
0.0385673
0.0400628
0.0415635
0.0430698
0.0445813
0.0460979
0.047619
0.0491447
0.0506746
0.0522083
0.0537453
0.0552851
0.0568274
0.0583715
0.0599169
0.0614629
0.0630088
0.0645539
0.0660976
0.0676465
0.0160058
0.0164352
0.0170233
0.0177561
0.0186147
0.019578
0.0206265
0.0217433
0.0229127
0.0241244
0.0253687
0.0266383
0.0279275
0.0292318
0.0305484
0.0318746
0.0332084
0.0345483
0.0358931
0.0372428
0.0385955
0.039951
0.0413094
0.0426705
0.0440335
0.0453984
0.0467655
0.0481341
0.0495044
0.050876
0.0522491
0.0536237
0.0549994
0.0563759
0.0577529
0.0591307
0.0605086
0.0618863
0.0632636
0.0646396
0.0660135
0.0673833
0.0687478
0.0222683
0.0226256
0.0231154
0.0237298
0.0244563
0.0252808
0.02619
0.0271692
0.0282058
0.0292903
0.0304127
0.0315654
0.0327416
0.033936
0.0351451
0.0363652
0.0375938
0.038828
0.040067
0.0413094
0.0425538
0.0437994
0.0450458
0.0462924
0.0475386
0.0487845
0.0500297
0.0512744
0.0525182
0.0537609
0.0550027
0.0562437
0.0574837
0.0587224
0.0599598
0.0611962
0.0624312
0.0636647
0.0648967
0.0661268
0.0673544
0.0685783
0.0697989
0.027371
0.0276939
0.0281331
0.0286824
0.0293327
0.0300737
0.0308947
0.0317834
0.0327292
0.0337224
0.0347544
0.0358179
0.0369053
0.0380123
0.0391345
0.0402678
0.0414089
0.0425557
0.0437061
0.0448585
0.0460118
0.0471645
0.0483161
0.0494659
0.0506133
0.051758
0.0529003
0.0540396
0.0551762
0.0563098
0.0574403
0.058568
0.0596924
0.0608138
0.061932
0.0630474
0.0641599
0.0652697
0.0663767
0.0674811
0.0685826
0.0696807
0.0707766
0.0316279
0.0319282
0.0323346
0.0328422
0.0334433
0.0341291
0.0348897
0.0357146
0.0365948
0.0375205
0.0384842
0.0394787
0.040497
0.0415343
0.0425869
0.0436497
0.0447195
0.0457943
0.0468714
0.0479494
0.0490263
0.0501015
0.0511737
0.0522421
0.0533065
0.0543667
0.0554222
0.0564729
0.0575192
0.0585608
0.0595973
0.0606289
0.0616552
0.0626764
0.0636928
0.0647049
0.0657127
0.0667161
0.0677157
0.0687116
0.0697038
0.070692
0.0716777
0.0352247
0.0355078
0.035891
0.0363697
0.036936
0.0375821
0.0382984
0.0390764
0.0399072
0.0407818
0.0416922
0.0426327
0.0435968
0.044579
0.0455752
0.0465808
0.0475926
0.048608
0.049625
0.0506412
0.0516552
0.0526657
0.0536711
0.0546713
0.0556665
0.0566556
0.0576381
0.0586144
0.0595849
0.0605492
0.0615064
0.0624562
0.0633989
0.0643348
0.0652646
0.0661884
0.0671061
0.0680182
0.0689252
0.0698273
0.0707246
0.0716167
0.072505
0.0382952
0.038565
0.0389311
0.0393878
0.0399281
0.040544
0.0412271
0.0419691
0.0427608
0.0435946
0.0444634
0.0453608
0.0462811
0.0472189
0.0481696
0.0491286
0.0500922
0.0510583
0.0520253
0.0529911
0.053953
0.0549084
0.0558571
0.0568004
0.0577376
0.0586667
0.0595876
0.0605013
0.0614086
0.0623086
0.0631978
0.0640774
0.0649483
0.0658115
0.0666678
0.067516
0.068356
0.0691891
0.0700164
0.0708377
0.0716526
0.0724605
0.0732628
0.0409377
0.0411966
0.0415488
0.0419889
0.0425106
0.0431013
0.0437584
0.0444733
0.0452326
0.0460324
0.046868
0.0477303
0.0486142
0.0495158
0.0504305
0.0513502
0.0522724
0.0531977
0.0541242
0.0550483
0.0559673
0.0568733
0.0577729
0.0586709
0.0595595
0.0604371
0.0613048
0.0621668
0.0630224
0.0638694
0.0646971
0.0655167
0.0663255
0.067127
0.0679218
0.0687041
0.069476
0.0702414
0.0710007
0.0717519
0.0724957
0.0732297
0.0739553
0.0432259
0.0434788
0.0438206
0.0442471
0.0447544
0.0453172
0.0459569
0.0466547
0.0473809
0.0481513
0.0489611
0.0497919
0.0506445
0.0515177
0.0524037
0.0532862
0.0541739
0.055068
0.0559639
0.0568502
0.0577307
0.0585847
0.0594493
0.0603179
0.0611609
0.0619942
0.0628158
0.0636406
0.0644548
0.0652599
0.0660191
0.0667951
0.0675477
0.0682985
0.0690402
0.0697613
0.0704748
0.0711858
0.071891
0.0725798
0.0732611
0.0739312
0.0745896
0.0727578
0.0701007
0.0674855
0.0649099
0.0623724
0.0598724
0.0574101
0.0549849
0.052598
0.0502499
0.0479416
0.0456743
0.0434494
0.0412684
0.039133
0.0370433
0.0350017
0.0330092
0.0310659
0.029173
0.0273314
0.0255415
0.023804
0.0221196
0.0204878
0.0189093
0.0173847
0.0159148
0.0145004
0.0131398
0.0118356
0.0105887
0.0093984
0.00826768
0.00719807
0.00619135
0.00525094
0.00437991
0.00358239
0.00287575
0.00232687
0.00175633
0.00106775
0.0740543
0.0716692
0.0693147
0.0669882
0.0646873
0.0624116
0.0601599
0.0579317
0.0557281
0.0535488
0.0513946
0.0492663
0.047166
0.0450939
0.0430513
0.0410396
0.0390601
0.037113
0.0352004
0.0333228
0.0314821
0.0296784
0.0279135
0.0261883
0.0245035
0.0228606
0.0212613
0.0197072
0.0181988
0.0167388
0.0153283
0.0139701
0.0126667
0.0114227
0.0102419
0.00912931
0.00809686
0.0071831
0.00632327
0.00543564
0.00449364
0.00344674
0.00219561
0.075351
0.0732125
0.0710932
0.0689912
0.0669051
0.064834
0.0627762
0.0607313
0.0586993
0.0566805
0.0546747
0.0526831
0.0507066
0.0487462
0.0468032
0.0448786
0.0429727
0.0410883
0.0392252
0.0373858
0.0355704
0.0337802
0.032017
0.030283
0.0285781
0.0269062
0.0252685
0.0236673
0.0221058
0.0205866
0.0191136
0.0176907
0.0163228
0.0150174
0.0137915
0.0126524
0.0115382
0.0104085
0.00923823
0.00799326
0.00663396
0.00510543
0.0033328
0.0766307
0.0747123
0.0728036
0.0709041
0.0690121
0.0671268
0.0652459
0.063369
0.0614963
0.0596267
0.0577608
0.0558988
0.0540419
0.0521913
0.0503473
0.0485107
0.0466838
0.0448671
0.0430623
0.0412711
0.0394937
0.0377319
0.0359874
0.0342623
0.0325585
0.0308785
0.0292257
0.0276029
0.0260158
0.0244674
0.0229648
0.0215151
0.020129
0.0187923
0.0174751
0.0161544
0.0148067
0.0134068
0.0119285
0.0103386
0.00859685
0.00664742
0.00442968
0.0778742
0.076152
0.074432
0.0727141
0.0709972
0.0692795
0.067559
0.065836
0.0641085
0.0623769
0.0606412
0.0589008
0.0571571
0.0554106
0.0536621
0.0519126
0.0501637
0.0484168
0.046674
0.0449361
0.0432046
0.0414802
0.0397661
0.0380629
0.0363732
0.0347008
0.033048
0.0314224
0.0298287
0.0282732
0.0267555
0.0252681
0.0237985
0.0223309
0.0208465
0.0193272
0.0177528
0.0161002
0.0143424
0.0124448
0.0103675
0.00805623
0.00545675
0.0790701
0.0775206
0.0759681
0.0744128
0.0728531
0.0712863
0.0697111
0.0681264
0.0665316
0.0649266
0.06331
0.0616826
0.0600442
0.0583958
0.0567379
0.0550718
0.0533992
0.0517212
0.0500402
0.0483575
0.0466747
0.0449946
0.0433178
0.0416459
0.0399801
0.0383234
0.0366796
0.0350513
0.033442
0.0318502
0.0302722
0.028698
0.0271152
0.0255076
0.0238608
0.0221582
0.0203792
0.0185006
0.0164948
0.0143269
0.0119553
0.00932776
0.00639455
0.0802079
0.0788076
0.0774042
0.0759941
0.0745752
0.0731444
0.0716994
0.0702392
0.0687645
0.0672742
0.0657673
0.0642432
0.0627027
0.0611455
0.059572
0.0579845
0.0563845
0.0547723
0.05315
0.0515196
0.049885
0.0482485
0.0466101
0.044968
0.0433217
0.0416709
0.0400179
0.0383662
0.0367168
0.0350706
0.0334209
0.0317586
0.0300684
0.0283343
0.0265414
0.0246743
0.0227138
0.0206359
0.0184119
0.0160053
0.0133739
0.0104675
0.00723891
0.0812549
0.0800005
0.0787337
0.0774533
0.0761609
0.0748534
0.0735257
0.0721756
0.0708078
0.0694219
0.0680141
0.0665833
0.0651321
0.0636587
0.0621623
0.060645
0.0591109
0.0575604
0.0559905
0.0544041
0.0528081
0.0512061
0.0495994
0.0479791
0.046339
0.0446791
0.0430011
0.0413139
0.0396211
0.0379211
0.0362094
0.0344713
0.0326902
0.0308454
0.0289234
0.0269084
0.0247897
0.0225357
0.0201188
0.0175009
0.0146397
0.0114831
0.00798994
0.0822153
0.0810999
0.0799578
0.0787894
0.0776097
0.0764134
0.0751949
0.0739385
0.0726615
0.0713682
0.0700519
0.0687001
0.0673274
0.0659321
0.0645059
0.0630425
0.0615654
0.0600729
0.0585542
0.0570005
0.0554297
0.0538432
0.0522644
0.0506749
0.0490364
0.0473576
0.0456383
0.0439031
0.0421725
0.0404181
0.0386623
0.0368751
0.0350197
0.0330794
0.0310467
0.0288897
0.0266371
0.0242242
0.0216375
0.0188342
0.0157703
0.0123861
0.00862044
0.000519615
0.000522688
0.000712674
0.000890675
0.00105976
0.00122553
0.00139502
0.00157804
0.00178713
0.00203231
0.00231129
0.00262137
0.00295917
0.00332332
0.00371291
0.00412774
0.00456799
0.00503388
0.00552578
0.00604454
0.00659049
0.00716433
0.00776666
0.00839801
0.00905918
0.00975064
0.0104734
0.0112282
0.0120158
0.0128371
0.013693
0.0145846
0.0155129
0.0164787
0.0174832
0.018527
0.019611
0.020736
0.0219028
0.023112
0.0243634
0.0256567
0.0269864
0.000972852
0.000701682
0.000876009
0.00106404
0.0012501
0.00144272
0.00165234
0.00188841
0.00215794
0.00246528
0.00280474
0.00317032
0.00356008
0.00397322
0.00440911
0.00486735
0.00534837
0.00585213
0.00637902
0.00692918
0.00750306
0.00810085
0.00872321
0.00937034
0.0100425
0.0107406
0.0114651
0.0122168
0.0129964
0.0138042
0.0146414
0.0155085
0.0164062
0.0173356
0.0182972
0.0192917
0.0203197
0.0213819
0.0224789
0.0236109
0.0247781
0.0259804
0.0272186
0.00155318
0.000891952
0.00103113
0.00123647
0.0014506
0.00168368
0.00194448
0.00223766
0.00256495
0.00292857
0.00332075
0.00373615
0.004173
0.00463073
0.00510897
0.00560731
0.00612559
0.00666383
0.00722214
0.00780073
0.00839946
0.00901864
0.0096581
0.0103185
0.0110001
0.0117032
0.0124281
0.0131756
0.013946
0.0147399
0.0155578
0.0164004
0.0172681
0.0181614
0.0190809
0.020027
0.0210005
0.0220016
0.0230306
0.024088
0.0251741
0.026289
0.0274313
0.00217407
0.00109531
0.00117712
0.00140749
0.00165869
0.0019387
0.00225197
0.00259862
0.00297782
0.00339183
0.00383028
0.00428969
0.00476856
0.00526621
0.00578223
0.00631595
0.00686744
0.00743621
0.00802227
0.00862539
0.00924567
0.00988272
0.0105368
0.0112081
0.0118967
0.0126031
0.0133273
0.0140697
0.0148308
0.0156107
0.0164098
0.0172287
0.0180675
0.0189269
0.0198069
0.0207079
0.0216304
0.0225747
0.023541
0.0245296
0.0255413
0.0265761
0.027632
0.00278736
0.00130928
0.00131767
0.00157882
0.00187143
0.00219907
0.00256157
0.0029561
0.00338273
0.003841
0.00432076
0.00481948
0.00533593
0.00586923
0.00641901
0.00698434
0.00756509
0.00816077
0.00877109
0.00939553
0.0100339
0.0106865
0.0113529
0.0120331
0.0127274
0.0134358
0.0141583
0.014895
0.0156466
0.0164129
0.0171943
0.0179908
0.0188026
0.0196301
0.0204735
0.0213329
0.0222086
0.0231008
0.0240099
0.0249361
0.0258801
0.0268432
0.0278295
0.0033636
0.00152746
0.00145475
0.00175002
0.00208507
0.0024576
0.00286421
0.00330144
0.00377198
0.00426938
0.00478602
0.00532015
0.00587029
0.00643574
0.00701553
0.00760908
0.00821586
0.00883524
0.00946668
0.0101098
0.0107643
0.01143
0.0121066
0.0127942
0.0134929
0.0142024
0.0149228
0.0156541
0.0163963
0.0171496
0.0179139
0.0186895
0.0194762
0.0202742
0.0210838
0.0219051
0.022738
0.0235827
0.0244397
0.0253092
0.0261915
0.0270873
0.0279969
0.00389233
0.00174162
0.00158906
0.00191912
0.00229483
0.00270861
0.00315504
0.00363142
0.00414098
0.0046733
0.00522321
0.00578914
0.00636977
0.00696404
0.00757108
0.0081898
0.00881975
0.00946012
0.0101103
0.0107699
0.0114385
0.0121158
0.0128015
0.0134954
0.0141972
0.0149071
0.0156251
0.0163509
0.0170845
0.0178253
0.0185735
0.0193293
0.0200926
0.0208634
0.0216419
0.0224281
0.0232222
0.0240241
0.0248335
0.0256511
0.0264766
0.0273102
0.0281514
0.00437462
0.00196353
0.00172065
0.00208407
0.00249872
0.00294979
0.00343129
0.00394277
0.00448645
0.00505044
0.00563076
0.00622601
0.00683466
0.00745546
0.00808685
0.00872817
0.00937911
0.0100393
0.0107071
0.0113813
0.0120617
0.0127492
0.0134431
0.0141421
0.0148458
0.0155553
0.0162712
0.0169928
0.0177183
0.0184467
0.0191789
0.0199156
0.0206564
0.0214017
0.0221515
0.022906
0.0236651
0.0244282
0.0251942
0.0259641
0.0267378
0.0275149
0.0282947
0.00468287
0.00205624
0.00184593
0.00224677
0.00268904
0.0031686
0.00368571
0.00423945
0.00481871
0.0054149
0.00602774
0.00665329
0.00728824
0.00793018
0.0085802
0.0092403
0.00991322
0.0105982
0.0112811
0.0119614
0.0126486
0.0133456
0.0140492
0.014747
0.015446
0.0161571
0.0168729
0.0175952
0.0183107
0.0190217
0.019736
0.0204531
0.0211716
0.0218924
0.0226157
0.0233423
0.0240715
0.0248008
0.0255252
0.0262512
0.0269785
0.0277043
0.028427
0.000300762
0.00115355
0.00245035
0.00374645
0.00499621
0.00620648
0.007379
0.00851702
0.00962454
0.0107055
0.0117643
0.0128042
0.0138292
0.0148461
0.015868
0.0169095
0.0179765
0.0190636
0.0201628
0.0213272
0.0226026
0.0239688
0.0254031
0.0268898
0.0284207
0.0299886
0.031589
0.0332174
0.0348708
0.0365467
0.0382438
0.0399593
0.041692
0.0434409
0.0452049
0.0469826
0.0487727
0.050574
0.0523851
0.0542045
0.0560304
0.0578609
0.0596905
0.000261422
0.000843528
0.00191534
0.00306433
0.00413277
0.00514504
0.00613101
0.00710887
0.00808371
0.00905792
0.0100327
0.011009
0.0119878
0.0129717
0.0139643
0.0149709
0.0159963
0.0170438
0.0181192
0.0192412
0.0204294
0.0216817
0.0229803
0.0243344
0.025802
0.0273583
0.0289781
0.030647
0.0323547
0.0340947
0.0358616
0.0376512
0.0394599
0.0412857
0.0431273
0.0449822
0.0468488
0.0487261
0.050612
0.0525047
0.0544031
0.0563045
0.0582068
0.000151513
0.000566091
0.00132026
0.00230116
0.00349633
0.00466561
0.00574564
0.00675007
0.00770018
0.00861262
0.00950047
0.010375
0.0112454
0.0121201
0.0130062
0.0139101
0.0148381
0.0157969
0.016794
0.017838
0.0189379
0.0200987
0.0213194
0.0226037
0.0239617
0.0253812
0.0268663
0.0284666
0.0301538
0.0319032
0.0336994
0.0355312
0.0373909
0.0392732
0.0411746
0.043091
0.0450204
0.0469601
0.0489084
0.0508639
0.0528243
0.0547881
0.0567576
0.000169802
0.000498072
0.00114984
0.00199125
0.00302725
0.00420783
0.00536899
0.00646684
0.00750046
0.00847481
0.00939622
0.0102725
0.0111134
0.0119299
0.0127339
0.0135377
0.0143537
0.0151938
0.01607
0.0169929
0.0179728
0.0190176
0.0201329
0.021322
0.0225854
0.0239199
0.0253246
0.0268034
0.0283463
0.0300016
0.0317564
0.0335817
0.0354579
0.037372
0.0393143
0.0412777
0.043258
0.0452514
0.0472549
0.0492659
0.0512824
0.0533031
0.0553283
0.000156203
0.000454286
0.00104667
0.00180855
0.00274135
0.00384353
0.00502931
0.00619067
0.00729654
0.00834387
0.00933475
0.0102715
0.0111572
0.0119965
0.0127968
0.0135684
0.0143238
0.0150778
0.0158464
0.0166459
0.017492
0.0183989
0.0193782
0.0204383
0.0215829
0.0228127
0.0241255
0.0255168
0.0269816
0.0285247
0.0301391
0.0318691
0.0337012
0.0356054
0.0375598
0.0395503
0.0415668
0.0436025
0.0456518
0.0477114
0.0497782
0.0518494
0.0539221
0.000158997
0.000431908
0.000990133
0.00170412
0.00257449
0.00360288
0.0047622
0.00595075
0.00710781
0.00821468
0.00926823
0.0102685
0.0112155
0.0121101
0.0129539
0.0137512
0.0145091
0.0152383
0.0159529
0.0166699
0.0174082
0.0181876
0.0190266
0.0199411
0.0209428
0.0220389
0.0232313
0.0245178
0.0258932
0.027352
0.0288879
0.0305044
0.032202
0.0340259
0.0359448
0.0379296
0.03996
0.0420219
0.0441056
0.0462051
0.048315
0.0504328
0.0525576
0.000158058
0.000414775
0.000948084
0.00162886
0.00245571
0.00343028
0.00454703
0.00574129
0.00693495
0.00809182
0.00920028
0.0102577
0.0112631
0.0122158
0.0131154
0.0139622
0.0147583
0.0155088
0.016222
0.0169104
0.0175905
0.0182822
0.0190074
0.0197883
0.0206446
0.0215922
0.0226415
0.0237967
0.0250567
0.0264164
0.0278686
0.0294053
0.031021
0.0327208
0.034527
0.0364521
0.0384603
0.0405239
0.0426255
0.044753
0.0468979
0.0490577
0.0512381
0.000159499
0.000403265
0.000919382
0.00157647
0.002372
0.00330738
0.00438294
0.0055654
0.00677998
0.00797614
0.00913241
0.0102412
0.0113003
0.012308
0.0132629
0.0141638
0.0150103
0.0158034
0.0165466
0.0172468
0.017915
0.0185667
0.0192219
0.0199037
0.0206365
0.0214437
0.0223444
0.0233526
0.0244748
0.0257115
0.0270578
0.0285051
0.0300439
0.031667
0.0333738
0.0351722
0.0371027
0.0391312
0.0412258
0.0433635
0.0455309
0.0477197
0.0499233
0.000160347
0.000393999
0.00089667
0.00153539
0.00230691
0.00321204
0.0042528
0.00541456
0.0066383
0.00786509
0.0090631
0.0102189
0.0113274
0.0123864
0.0133939
0.0143479
0.0152468
0.0160895
0.0168765
0.0176105
0.0182973
0.0189471
0.0195746
0.0201995
0.0208457
0.0215393
0.0223061
0.0231685
0.0241431
0.0252387
0.0264574
0.0277943
0.0292404
0.0307848
0.032418
0.0341336
0.0359408
0.0378786
0.0399273
0.0420502
0.0442228
0.0464292
0.0486605
0.00016143
0.000386725
0.000878827
0.00150307
0.00225555
0.00313669
0.00414883
0.00528677
0.0065098
0.00775817
0.00899155
0.0101897
0.0113442
0.0124512
0.0135082
0.014513
0.0154632
0.0163567
0.0171922
0.0179697
0.0186916
0.0193633
0.0199943
0.020599
0.0211973
0.0218134
0.022475
0.0232096
0.0240422
0.0249914
0.0260684
0.0272759
0.0286091
0.0300585
0.0316119
0.0332579
0.0349889
0.0368134
0.0387631
0.0408336
0.0429861
0.0451922
0.0474316
0.000162299
0.000380603
0.000863907
0.00147614
0.00221293
0.0030743
0.00406256
0.00517694
0.00639211
0.00765418
0.00891672
0.0101529
0.0113499
0.012502
0.0136059
0.0146589
0.0156584
0.0166018
0.0174866
0.0183114
0.0190761
0.0197828
0.0204368
0.0210477
0.0216298
0.0222035
0.0227936
0.023429
0.024139
0.0249502
0.0258829
0.0269494
0.028153
0.0294888
0.0309468
0.0325135
0.0341766
0.0359283
0.0377732
0.0397423
0.0418388
0.0440216
0.0462599
0.000162997
0.000375306
0.000851112
0.00145313
0.00217659
0.00302128
0.00398923
0.00508175
0.00628445
0.00755301
0.00883845
0.0101081
0.0113444
0.0125387
0.0136869
0.0147858
0.0158325
0.0168239
0.0177574
0.0186303
0.019441
0.0201893
0.0208777
0.0215114
0.0221004
0.0226596
0.0232099
0.0237772
0.0243916
0.0250839
0.0258816
0.0268065
0.0278712
0.0290789
0.0304245
0.0318966
0.0334818
0.0351664
0.0369411
0.0388102
0.0408067
0.0429335
0.0451467
0.000163392
0.000370545
0.000839753
0.00143289
0.00214469
0.00297484
0.00392515
0.00499786
0.00618558
0.00745453
0.00875699
0.0100553
0.0113274
0.0125614
0.0137513
0.0148937
0.0159855
0.0170233
0.0180038
0.0189242
0.0197817
0.0205749
0.0213036
0.0219704
0.0225813
0.0231466
0.0236824
0.0242104
0.0247579
0.0253564
0.0260374
0.0268299
0.0277556
0.0288272
0.0300473
0.0314098
0.0329026
0.0345105
0.0362196
0.0380206
0.0399186
0.0419514
0.0441212
0.000163579
0.00036622
0.000829565
0.00141466
0.00211611
0.00293335
0.00386805
0.00492268
0.00609442
0.00735906
0.00867273
0.00999504
0.0112991
0.0125699
0.0137995
0.0149832
0.0161179
0.0172
0.0182262
0.0191929
0.0200969
0.0209357
0.0217078
0.0224135
0.0230558
0.0236412
0.0241814
0.0246935
0.0252006
0.0257316
0.0263191
0.0269958
0.027791
0.0287263
0.0298135
0.0310542
0.0324405
0.0339591
0.0355946
0.037332
0.0391624
0.0410953
0.0431722
0.000163577
0.000362213
0.000820103
0.00139791
0.00208998
0.00289554
0.00381613
0.00485433
0.00600985
0.00726659
0.00858646
0.00992786
0.0112603
0.012565
0.0138317
0.0150549
0.0162304
0.0173549
0.0184248
0.0194364
0.0203861
0.0212705
0.0220871
0.0228347
0.0235141
0.0241289
0.0246869
0.0252008
0.0256893
0.0261774
0.0266956
0.0272777
0.0279573
0.0287636
0.0297173
0.0308287
0.0320972
0.0335139
0.0350641
0.0367314
0.0385015
0.0403702
0.0423632
0.000163338
0.000358424
0.00081124
0.00138226
0.00206564
0.0028605
0.0037681
0.00479123
0.00593093
0.00717714
0.00849868
0.00985467
0.0112115
0.0125472
0.0138488
0.0151091
0.0163237
0.0174887
0.0186005
0.0196554
0.0206494
0.0215786
0.02244
0.023231
0.0239508
0.0246008
0.0251857
0.0257144
0.0262014
0.0266672
0.0271388
0.0276487
0.0282317
0.0289219
0.0297479
0.0307285
0.0318722
0.0331762
0.0346294
0.0362164
0.037921
0.0397314
0.0416496
0.000162854
0.000354803
0.000802821
0.00136746
0.00204265
0.00282748
0.00372309
0.00473215
0.00585665
0.00709073
0.00841001
0.00977625
0.0111537
0.0125172
0.0138512
0.0151467
0.0163984
0.0176021
0.0187541
0.0198506
0.0208874
0.0218604
0.0227659
0.0236007
0.0243626
0.0250514
0.0256692
0.026222
0.0267203
0.0271804
0.0276252
0.028084
0.0285909
0.0291821
0.0298911
0.0307453
0.0317616
0.0329454
0.0342916
0.0357875
0.0374168
0.0391642
0.0410195
0.000162142
0.000351302
0.000794706
0.00135323
0.00202072
0.0027961
0.00368045
0.00467628
0.00578612
0.00700718
0.0083212
0.00969358
0.0110879
0.012476
0.0138399
0.0151685
0.0164554
0.0176961
0.0188865
0.0200229
0.0211009
0.0221165
0.0230653
0.0239435
0.0247482
0.0254777
0.0261324
0.0267155
0.0272345
0.0277018
0.028136
0.0285627
0.0290134
0.0295238
0.0301308
0.0308675
0.031759
0.0328194
0.0340507
0.0354454
0.0369887
0.0386624
0.0404442
0.000161182
0.000347929
0.000786841
0.00133953
0.00199963
0.002766
0.00363962
0.00462294
0.00571877
0.00692641
0.00823256
0.00960746
0.0110149
0.0124245
0.0138157
0.0151753
0.0164956
0.0177714
0.0189987
0.0201733
0.021291
0.0223476
0.0233385
0.0242595
0.025107
0.0258782
0.0265721
0.0271899
0.0277362
0.0282203
0.028657
0.0290675
0.02948
0.0299283
0.0304499
0.0310816
0.0318551
0.0327928
0.0339052
0.0351907
0.0366385
0.0382312
0.0399478
0.000160084
0.000344611
0.000779146
0.00132617
0.0019791
0.00273688
0.0036003
0.00457166
0.00565407
0.00684803
0.00814466
0.00951869
0.0109357
0.0123638
0.0137795
0.015168
0.0165199
0.0178291
0.0190915
0.0203027
0.0214587
0.0225548
0.0235866
0.0245494
0.0254391
0.0262523
0.0269866
0.0276418
0.0282203
0.0287285
0.0291775
0.0295848
0.0299748
0.0303783
0.0308315
0.031373
0.0320389
0.0328586
0.0338511
0.0350225
0.0363674
0.0378719
0.0395175
0.000158789
0.000341383
0.000771596
0.00131304
0.00195912
0.00270856
0.0035621
0.00452205
0.00559146
0.00677183
0.00805748
0.00942812
0.0108514
0.0122947
0.0137324
0.0151475
0.016529
0.0178702
0.019166
0.0204123
0.0216048
0.0227391
0.0238103
0.0248138
0.025745
0.0265998
0.0273752
0.0280695
0.0286833
0.0292207
0.0296898
0.0301045
0.0304852
0.0308593
0.0312605
0.0317271
0.0322981
0.033008
0.0338834
0.0349385
0.0361751
0.037584
0.0391489
0.000157283
0.000338078
0.000764136
0.00130018
0.00193944
0.00268081
0.00352486
0.00447375
0.0055306
0.00669754
0.0079714
0.0093362
0.0107627
0.0122181
0.0136752
0.0151147
0.016524
0.0178953
0.0192231
0.020503
0.0217306
0.0229014
0.0240107
0.0250536
0.0260253
0.0269213
0.0277377
0.028472
0.0291232
0.0296934
0.0301884
0.0306187
0.0310009
0.0313588
0.0317231
0.0321304
0.0326202
0.0332309
0.0339952
0.034935
0.0360599
0.0373667
0.0388425
0.000155629
0.000334809
0.000756703
0.00128744
0.00192015
0.00265355
0.0034884
0.00442666
0.00547132
0.00662508
0.00788651
0.00924365
0.0106705
0.0121352
0.0136089
0.0150706
0.0165058
0.0179056
0.0192638
0.0205757
0.0218369
0.0230429
0.0241888
0.0252699
0.026281
0.0272173
0.0280744
0.0288488
0.0295388
0.0301444
0.0306694
0.0311215
0.0315141
0.0318671
0.0322078
0.0325702
0.032993
0.0335166
0.0341783
0.0350068
0.0360194
0.0372202
0.0386018
0.000153851
0.00033156
0.00074942
0.00127492
0.00190118
0.0026269
0.00345262
0.00438052
0.0054134
0.00655418
0.00780293
0.00915076
0.0105756
0.0120466
0.0135345
0.015016
0.0164753
0.0179019
0.019289
0.0206316
0.0219249
0.0231646
0.0243459
0.0254637
0.026513
0.0274886
0.0283858
0.0292004
0.0299296
0.0305724
0.0311304
0.0316091
0.0320189
0.0323763
0.032705
0.0330356
0.0334053
0.0338547
0.0344239
0.0351474
0.0360497
0.0371423
0.0384238
0.000151923
0.000328302
0.000742125
0.00126248
0.00188235
0.00260053
0.00341752
0.00433519
0.00535658
0.0064847
0.00772053
0.00905798
0.0104785
0.0119534
0.0134528
0.0149519
0.0164333
0.0178851
0.0192997
0.0206713
0.0219955
0.0232675
0.0244827
0.025636
0.0267223
0.0277361
0.0286725
0.0295269
0.0302956
0.0309765
0.0315697
0.0320785
0.032511
0.0328804
0.0332067
0.0335174
0.033847
0.0342349
0.0347229
0.0353496
0.0361458
0.0371305
0.0383098
0.000149851
0.000325062
0.000734942
0.00125018
0.0018638
0.0025745
0.00338279
0.00429063
0.00530083
0.00641649
0.00763937
0.00896558
0.01038
0.0118563
0.0133646
0.0148792
0.0163808
0.0178562
0.0192966
0.0206961
0.0220496
0.0233526
0.0246004
0.0257879
0.0269098
0.0279608
0.0289355
0.029829
0.030637
0.0313564
0.0319862
0.032528
0.0329873
0.0333747
0.0337068
0.0340078
0.0343089
0.034648
0.0350665
0.035606
0.036302
0.0371808
0.038254
0.000147671
0.000321808
0.00072781
0.00123802
0.00184545
0.00254881
0.00334864
0.00424676
0.00524596
0.0063494
0.00755944
0.00887382
0.0102805
0.0117558
0.0132708
0.0147987
0.0163185
0.0178158
0.0192807
0.0207066
0.0220883
0.0234209
0.0247
0.0259203
0.0270767
0.0281636
0.0291757
0.0301076
0.0309544
0.0317126
0.0323797
0.0329562
0.0334456
0.0338556
0.0342003
0.0345003
0.0347835
0.0350852
0.0354461
0.0359086
0.0365124
0.0372895
0.0382594
0.000145416
0.00031857
0.000720704
0.00122591
0.0018272
0.00252338
0.0033149
0.00420344
0.00519189
0.00628341
0.00748061
0.0087828
0.0101805
0.0116529
0.0131723
0.0147112
0.0162474
0.0177648
0.0192527
0.0207037
0.0221123
0.0234733
0.0247823
0.0260343
0.0272239
0.0283456
0.0293939
0.0303632
0.0312484
0.032045
0.03275
0.0333625
0.0338841
0.0343208
0.0346835
0.0349897
0.0352643
0.0355393
0.0358536
0.0362499
0.0367703
0.0374512
0.0383182
0.000143036
0.000315364
0.000713617
0.00121389
0.0018092
0.00249825
0.00328148
0.00416072
0.0051386
0.00621832
0.00740292
0.00869258
0.0100803
0.0115481
0.0130697
0.0146175
0.0161681
0.0177041
0.0192136
0.0206884
0.0221224
0.0235107
0.0248485
0.0261308
0.0273523
0.0285077
0.0295911
0.0305969
0.0315196
0.0323544
0.0330974
0.0337465
0.0343022
0.0347682
0.0351534
0.0354721
0.0357458
0.0360038
0.0362822
0.0366228
0.0370691
0.0376607
0.0384282
0.000140512
0.000312109
0.000706577
0.00120195
0.00179122
0.00247326
0.00324845
0.0041184
0.00508589
0.00615416
0.00732624
0.00860322
0.00998015
0.0114417
0.0129636
0.0145182
0.0160814
0.0176344
0.019164
0.0206613
0.0221196
0.0235339
0.0248993
0.0262107
0.0274631
0.0286508
0.0297682
0.0308095
0.0317689
0.0326413
0.0334221
0.0341083
0.0346992
0.0351969
0.0356079
0.0359441
0.0362239
0.0364731
0.0367254
0.0370208
0.037403
0.0379153
0.0385981
0.000137903
0.000308849
0.00069957
0.00119006
0.00177345
0.00244852
0.00321573
0.00407667
0.00503392
0.00609086
0.00725055
0.00851485
0.00988033
0.0113344
0.0128547
0.0144142
0.0159881
0.0175564
0.0191048
0.0206232
0.0221047
0.0235438
0.0249355
0.026275
0.0275569
0.028776
0.0299263
0.031002
0.0319972
0.0329064
0.0337247
0.0344481
0.0350749
0.0356059
0.0360456
0.0364033
0.0366948
0.0369428