/*--------------------------------*- C++ -*----------------------------------*\
| =========                 |                                                 |
| \\      /  F ield         | OpenFOAM: The Open Source CFD Toolbox           |
|  \\    /   O peration     | Version:  2.3.0                                 |
|   \\  /    A nd           | Web:      www.OpenFOAM.org                      |
|    \\/     M anipulation  |                                                 |
\*---------------------------------------------------------------------------*/
FoamFile
{
    version     2.0;
    format      ascii;
    class       volScalarField;
    location    "10000";
    object      p;
}
// * * * * * * * * * * * * * * * * * * * * * * * * * * * * * * * * * * * * * //

dimensions      [0 2 -2 0 0 0 0];

internalField   nonuniform List<scalar> 
42305
(
-0.0419684
-1.39059
-2.84885
-4.30244
-5.74737
-7.1916
-8.63194
-10.0692
-11.5092
-12.9528
-14.3941
-15.8383
-17.2877
-18.7276
-20.1611
-21.5924
-23.0079
-24.4027
-25.7843
-27.1281
-28.4404
-29.7169
-30.9378
-32.1053
-33.2019
-34.2248
-35.1631
-35.9863
-36.6575
-37.1631
-37.4213
-37.3539
-36.8891
-35.9041
-34.1977
-31.5943
-27.9279
-22.8955
-15.1292
-3.3872
7.57705
10.0525
27.9439
5.70404
5.08289
4.21304
3.35766
2.53577
1.74844
1.00334
0.301479
-0.353051
-0.96089
-1.51361
-2.01974
-2.47691
-2.87279
-3.21957
-3.51044
-3.74403
-3.919
-4.03147
-4.07812
-4.04499
-3.92824
-3.68806
-3.31803
-2.77547
-2.01809
-0.995635
0.373384
2.15922
4.45088
7.38309
11.0985
15.7939
21.6379
28.8925
37.8281
48.706
61.8621
77.7555
96.78
119.087
145.076
174.907
11.5521
11.0373
10.4243
9.88599
9.40068
8.9606
8.56878
8.22437
7.93022
7.68906
7.50949
7.38644
7.33219
7.35381
7.45733
7.64767
7.93736
8.33458
8.85262
9.49014
10.2698
11.1937
12.3016
13.5837
15.0841
16.8323
18.8475
21.1783
23.8819
26.9923
30.6106
34.787
39.6304
45.2359
51.7273
59.2103
67.8038
77.6375
88.7929
101.265
115.073
130.305
146.787
16.7485
16.3048
15.923
15.6566
15.456
15.311
15.2216
15.1891
15.2221
15.3153
15.479
15.7084
16.0213
16.4141
16.8993
17.4819
18.1728
18.976
19.9123
20.9809
22.1984
23.5879
25.1776
26.9708
29.0195
31.3418
33.9821
36.9887
40.4118
44.2966
48.7199
53.7465
59.4432
65.901
73.164
81.3167
90.4125
100.473
111.47
123.323
135.859
148.836
161.873
20.7404
20.7972
20.7028
20.6707
20.686
20.7453
20.8583
21.0308
21.2669
21.5667
21.93
22.3633
22.8793
23.4782
24.1777
24.9815
25.897
26.945
28.1237
29.4418
30.9133
32.5505
34.3801
36.4178
38.687
41.2157
44.0422
47.2005
50.7213
54.6598
59.06
63.9756
69.4585
75.559
82.3195
89.7734
97.9673
106.882
116.49
126.72
137.418
148.397
159.38
24.975
24.9732
24.9999
25.1126
25.2775
25.4876
25.7457
26.0655
26.4536
26.9035
27.4202
27.9983
28.6529
29.3899
30.2255
31.1665
32.2276
33.4258
34.7538
36.2239
37.8487
39.6358
41.6135
43.8129
46.227
48.9
51.8664
55.1509
58.7851
62.8055
67.2666
72.1994
77.6511
83.6498
90.2298
97.3716
105.135
113.466
122.335
131.666
141.324
151.145
160.927
28.5485
28.6347
28.7905
29.0275
29.3181
29.6319
29.9949
30.4142
30.9189
31.4751
32.1112
32.7871
33.5413
34.3586
35.2881
36.3311
37.5004
38.8166
40.3029
41.8987
43.6255
45.4806
47.5244
49.7948
52.2996
55.0023
57.9967
61.313
64.9795
68.9614
73.3748
78.199
83.471
89.2341
95.5361
102.269
109.611
117.419
125.692
134.329
143.226
152.203
161.144
31.7474
31.956
32.1841
32.5147
32.9048
33.2629
33.6936
34.1628
34.7703
35.3988
36.119
36.844
37.6774
38.474
39.3907
40.4236
41.5971
42.9196
44.5111
46.2421
48.1217
50.0408
52.0928
54.3319
56.9224
59.6292
62.5844
65.8119
69.4936
73.4027
77.7384
82.4542
87.6008
93.297
99.4685
105.734
112.717
120.097
127.929
136.011
144.394
152.859
161.266
34.8725
35.0743
35.2748
35.652
36.1364
36.4346
36.7669
37.1262
37.7598
38.4083
39.1699
39.8126
40.7186
41.31
41.9063
42.5247
43.2388
43.9999
45.2295
46.8062
48.6854
50.6357
52.5979
54.4965
57.0818
59.7712
62.5778
65.3946
69.0062
72.7049
76.6262
81.1522
86.9598
92.3811
99.9912
105.698
112.348
119.361
126.755
134.16
142.162
150.619
159.956
122.138
173.673
202.257
221.295
235.236
245.707
253.787
260.008
264.796
268.445
271.204
273.241
274.698
275.69
276.305
276.6
276.636
276.46
276.097
275.593
274.962
274.228
273.417
272.536
271.598
270.62
269.605
268.563
267.5
266.424
265.333
264.232
263.123
262.008
260.886
259.758
258.625
257.488
256.346
255.186
254
252.92
252.525
202.453
221.156
235.197
246.155
254.738
261.406
266.493
270.278
273.017
274.908
276.128
276.817
277.092
277.044
276.747
276.261
275.631
274.893
274.077
273.2
272.28
271.332
270.361
269.372
268.372
267.365
266.35
265.329
264.303
263.273
262.239
261.202
260.162
259.122
258.081
257.04
256
254.96
253.918
252.866
251.792
250.779
250.295
163.415
178.921
192.808
204.9
215.246
224.01
231.354
237.458
242.505
246.64
250.012
252.737
254.925
256.663
258.02
259.06
259.832
260.379
260.734
260.926
260.978
260.911
260.74
260.479
260.14
259.734
259.268
258.752
258.192
257.593
256.961
256.3
255.612
254.903
254.172
253.422
252.655
251.873
251.077
250.264
249.426
248.616
248.143
174.501
186.315
197.095
206.721
215.168
222.488
228.751
234.058
238.523
242.239
245.318
247.838
249.891
251.544
252.855
253.876
254.657
255.232
255.63
255.883
256.005
256.023
255.948
255.792
255.568
255.286
254.951
254.571
254.152
253.699
253.217
252.709
252.177
251.623
251.05
250.46
249.853
249.231
248.596
247.947
247.279
246.627
246.21
170.12
180.369
189.949
198.708
206.583
213.564
219.669
224.97
229.532
233.426
236.736
239.53
241.876
243.839
245.465
246.8
247.894
248.771
249.464
249.997
250.393
250.671
250.842
250.923
250.922
250.85
250.717
250.528
250.294
250.018
249.709
249.367
248.997
248.602
248.182
247.742
247.281
246.803
246.311
245.805
245.28
244.765
244.462
170.447
179.572
188.169
196.101
203.322
209.788
215.509
220.537
224.917
228.699
231.955
234.742
237.113
239.124
240.82
242.243
243.429
244.404
245.195
245.831
246.337
246.73
247.01
247.197
247.301
247.334
247.306
247.22
247.09
246.926
246.731
246.503
246.248
245.967
245.658
245.335
244.987
244.617
244.235
243.843
243.432
243.033
242.881
169.799
178.17
186.103
193.469
200.234
206.331
211.753
216.591
220.846
224.545
227.766
230.556
232.954
235.008
236.772
238.278
239.538
240.595
241.467
242.209
242.833
243.324
243.681
243.95
244.136
244.259
244.309
244.296
244.261
244.209
244.115
243.979
243.818
243.632
243.422
243.198
242.924
242.627
242.332
242.041
241.728
241.426
241.428
169.281
177.067
184.493
191.505
198.005
203.843
208.939
213.596
217.755
221.363
224.541
227.305
229.698
231.761
233.568
235.121
236.397
237.505
238.429
239.302
240.016
240.498
240.865
241.207
241.452
241.628
241.705
241.75
241.846
241.928
241.874
241.79
241.696
241.601
241.451
241.264
241.01
240.78
240.6
240.431
240.198
239.962
240.134
167.666
175.049
182.136
189.115
195.988
201.924
206.692
211.235
215.392
218.883
221.961
224.647
227.016
229.07
230.873
232.412
233.653
234.82
235.704
236.584
237.008
237.712
238.226
238.671
238.963
239.158
239.3
239.435
239.654
239.682
239.623
239.47
239.659
239.579
239.21
239.183
239.1
239.098
239.15
239.063
238.622
238.367
238.598
-9.26293
-9.48517
-9.68376
-9.86703
-10.0345
-10.184
-10.3131
-10.4216
-10.5088
-10.5736
-10.6145
-10.6317
-10.6261
-10.5978
-10.5459
-10.4713
-10.3768
-10.2629
-10.13
-9.9796
-9.81266
-9.63136
-9.43679
-9.23061
-9.01543
-8.79373
-8.56753
-8.34026
-8.11311
-7.88891
-7.67035
-7.45739
-7.25238
-7.05624
-6.86568
-6.67671
-6.47779
-6.24012
-5.91284
-5.43467
-4.70043
-3.28716
-0.00552853
-9.27332
-9.42613
-9.5521
-9.65392
-9.73251
-9.78788
-9.82244
-9.83746
-9.83297
-9.81273
-9.77886
-9.73312
-9.67672
-9.6106
-9.5383
-9.46226
-9.38176
-9.29791
-9.21203
-9.12387
-9.03403
-8.94253
-8.84977
-8.75591
-8.66046
-8.56241
-8.46242
-8.35952
-8.2523
-8.13986
-8.01855
-7.88458
-7.73256
-7.55306
-7.33031
-7.0395
-6.64817
-6.10926
-5.31763
-4.0346
-1.80891
1.86872
6.92261
-9.29009
-9.49094
-9.65966
-9.80983
-9.94645
-10.0699
-10.1798
-10.2764
-10.3604
-10.4316
-10.4895
-10.5349
-10.5681
-10.5905
-10.6012
-10.5996
-10.5863
-10.562
-10.5267
-10.4811
-10.4249
-10.3576
-10.2793
-10.1894
-10.0883
-9.97572
-9.84966
-9.70908
-9.5519
-9.37524
-9.17398
-8.93986
-8.65914
-8.3137
-7.88014
-7.32365
-6.581
-5.55415
-4.08497
-1.89782
1.40388
6.16879
12.2788
-9.24561
-9.48729
-9.6685
-9.83244
-9.98309
-10.1196
-10.242
-10.3527
-10.4498
-10.5332
-10.6042
-10.6629
-10.7107
-10.7466
-10.7717
-10.788
-10.795
-10.7922
-10.7812
-10.7604
-10.7299
-10.6881
-10.6342
-10.5659
-10.4807
-10.376
-10.2486
-10.096
-9.91401
-9.69572
-9.43224
-9.11173
-8.71937
-8.22773
-7.60074
-6.79022
-5.72185
-4.27869
-2.28796
0.498196
4.32313
9.31074
15.2057
-9.21132
-9.46193
-9.64612
-9.81598
-9.97775
-10.1272
-10.2657
-10.3953
-10.5132
-10.6185
-10.7116
-10.793
-10.8624
-10.9191
-10.9654
-11.0013
-11.0254
-11.0375
-11.0409
-11.0338
-11.0149
-10.9823
-10.9355
-10.8716
-10.7886
-10.6772
-10.5302
-10.3426
-10.1083
-9.82422
-9.47811
-9.05746
-8.55078
-7.91849
-7.11234
-6.0796
-4.73777
-2.96887
-0.60897
2.53466
6.61093
11.6239
17.2483
-9.15338
-9.41044
-9.59
-9.75795
-9.92351
-10.076
-10.2148
-10.3501
-10.4804
-10.5956
-10.6982
-10.7922
-10.8743
-10.9411
-10.9953
-11.0408
-11.0745
-11.0904
-11.0968
-11.0935
-11.0788
-11.049
-11.0017
-10.9352
-10.8568
-10.7536
-10.5983
-10.3867
-10.1091
-9.76743
-9.34029
-8.81115
-8.21258
-7.48499
-6.54689
-5.34534
-3.80404
-1.80424
0.790155
4.14073
8.34806
13.3682
18.8552
-8.95657
-9.33583
-9.50848
-9.66276
-9.83181
-9.98669
-10.1208
-10.2542
-10.3936
-10.5165
-10.6228
-10.7264
-10.8242
-10.8975
-10.9545
-11.0101
-11.0589
-11.0712
-11.0733
-11.0682
-11.0502
-11.0082
-10.9534
-10.8674
-10.796
-10.7298
-10.5853
-10.3627
-10.0373
-9.65558
-9.18443
-8.51596
-7.85015
-7.11842
-6.08657
-4.71999
-2.99061
-0.792881
1.96983
5.46856
9.77426
14.842
20.3652
-8.76523
-9.23623
-9.41825
-9.55071
-9.73294
-9.88715
-9.98994
-10.1053
-10.2722
-10.3975
-10.4762
-10.5636
-10.6838
-10.7564
-10.7861
-10.8285
-10.918
-10.9156
-10.8719
-10.8435
-10.8498
-10.8263
-10.7753
-10.5562
-10.3725
-10.4145
-10.4426
-10.337
-9.90647
-9.36351
-8.8861
-7.86073
-6.92394
-6.32925
-5.40811
-3.99274
-2.25266
-0.0311187
2.77097
6.28628
10.4872
15.3853
20.8049
-8.49036
-8.92467
-9.16899
-9.36306
-9.67886
-9.9374
-9.96105
-10.0425
-10.3979
-10.7327
-10.7854
-10.8506
-11.1064
-11.2835
-11.2714
-11.2426
-11.5249
-11.6721
-11.5574
-11.3643
-11.3358
-11.3886
-11.8461
-11.3475
-10.6009
-10.4373
-10.6674
-11.7667
-11.7604
-11.5885
-12.1485
-10.3423
-8.498
-7.63141
-5.86226
-3.02653
-0.674571
1.37492
4.24221
7.9386
12.3311
17.6373
24.4827
9.0682
15.0602
20.476
25.1906
29.4683
33.3259
36.8376
40.0531
43.0253
45.7906
48.386
50.844
53.1848
55.4291
57.5954
59.6931
61.7356
63.7283
65.6788
67.5927
69.4751
71.3268
73.1535
74.9566
76.7372
78.497
80.2391
81.963
83.6712
85.3627
87.0383
88.7009
90.3497
91.9838
93.6064
95.2157
96.8134
98.3985
99.9737
101.539
103.094
104.626
106.166
13.3301
16.7856
20.4899
24.2387
28.0281
31.7046
35.2362
38.5963
41.7868
44.8136
47.6835
50.4124
53.0112
55.4937
57.8686
60.1471
62.3403
64.4548
66.4971
68.475
70.3932
72.2582
74.0745
75.8444
77.5736
79.2659
80.9236
82.5495
84.1472
85.7177
87.2649
88.7894
90.2946
91.7826
93.2547
94.7115
96.1559
97.5879
99.0088
100.419
101.828
103.209
104.408
18.3833
21.9639
25.205
28.3471
31.519
34.6418
37.7002
40.6708
43.5422
46.3081
48.9678
51.5212
53.9719
56.3268
58.5928
60.7744
62.8775
64.91
66.8773
68.783
70.6325
72.4302
74.1808
75.8891
77.5562
79.1865
80.7833
82.3476
83.8839
85.3922
86.8753
88.3352
89.7717
91.1884
92.5869
93.9677
95.3313
96.6799
98.0134
99.3362
100.662
101.952
103.108
20.7585
24.3722
27.3664
30.3081
33.2654
36.1753
39.0281
41.8054
44.4987
47.1042
49.6201
52.0476
54.3877
56.6441
58.8231
60.926
62.9607
64.9278
66.8356
68.6858
70.4834
72.2324
73.9363
75.5984
77.2201
78.8067
80.3592
81.8795
83.3695
84.8317
86.2679
87.6801
89.0692
90.4383
91.787
93.1173
94.4303
95.7267
97.0073
98.2751
99.543
100.756
101.818
22.4697
25.9832
28.7286
31.5082
34.3171
37.1073
39.86
42.5501
45.1689
47.7088
50.1667
52.5444
54.8391
57.0547
59.1952
61.2616
63.2611
65.1952
67.0675
68.8813
70.6417
72.353
74.0168
75.6367
77.2155
78.756
80.261
81.7315
83.17
84.5778
85.9559
87.3092
88.6381
89.945
91.2324
92.4997
93.7485
94.9772
96.1899
97.3853
98.5687
99.7458
100.893
23.9414
27.4222
30.046
32.7195
35.4126
38.1041
40.7687
43.3822
45.936
48.4212
50.831
53.1634
55.4154
57.5903
59.6914
61.723
63.6876
65.5856
67.4181
69.1909
70.9097
72.5824
74.2079
75.7872
77.3243
78.8205
80.2803
81.7019
83.089
84.442
85.7649
87.063
88.3363
89.587
90.816
92.0232
93.2093
94.3711
95.5161
96.6411
97.7399
98.8323
100
25.4562
28.8468
31.2687
33.8084
36.3947
39.0091
41.6028
44.153
46.6512
49.0893
51.4552
53.7432
55.9529
58.088
60.1503
62.1462
64.0814
65.9433
67.7324
69.4629
71.1476
72.7956
74.3872
75.9276
77.4274
78.8819
80.3042
81.6857
83.0274
84.3332
85.6097
86.8612
88.0885
89.2923
90.4693
91.6227
92.7542
93.8512
94.9397
96.0043
97.0394
98.0669
99.1623
25.9417
29.4129
31.9262
34.5094
37.1098
39.7187
42.2784
44.7931
47.2616
49.6823
52.0305
54.2864
56.4612
58.5628
60.5951
62.5757
64.513
66.342
68.0803
69.7623
71.429
73.0817
74.63
76.1234
77.5917
79.0123
80.4213
81.7651
83.0517
84.3012
85.526
86.7269
87.9085
89.0631
90.1907
91.2949
92.3832
93.4038
94.4489
95.4482
96.421
97.3993
98.3842
30.4555
32.3048
32.9735
35.2078
37.7126
40.3246
42.8488
45.3242
47.7608
50.1834
52.5098
54.6993
56.8268
58.9051
60.9241
62.9054
64.8721
66.5604
68.1882
69.8528
71.5628
73.2794
74.6747
76.1512
77.684
79.0316
80.4509
81.6629
82.8537
84.0924
85.3142
86.509
87.7016
88.8515
89.9719
91.0487
92.1086
92.9609
94.0374
95.0113
95.9502
96.9719
97.8196
-241.434
-231.119
-220.515
-211.112
-200.161
-187.646
-174.773
-162.22
-150.09
-138.481
-127.52
-117.304
-107.868
-99.2086
-91.3172
-84.1624
-77.7067
-71.8946
-66.6646
-61.958
-57.729
-53.9165
-50.4465
-47.2614
-44.3176
-41.569
-38.9864
-36.5357
-34.1971
-31.9547
-29.7806
-27.6683
-25.6068
-23.5842
-21.5925
-19.6287
-17.6884
-15.7662
-13.8574
-11.958
-10.064
-8.18213
-6.43253
-176.759
-176.237
-174.457
-172.218
-170.361
-168.927
-167.308
-164.985
-161.811
-157.845
-153.166
-147.872
-142.025
-135.76
-129.177
-122.416
-115.594
-108.825
-102.195
-95.8002
-89.6808
-83.8838
-78.4218
-73.288
-68.476
-63.9667
-59.7331
-55.7441
-51.9762
-48.4039
-45.0082
-41.7701
-38.6746
-35.7032
-32.8419
-30.0793
-27.4054
-24.807
-22.279
-19.8092
-17.3914
-15.021
-12.7886
-187.666
-187.332
-187.245
-187.021
-186.282
-184.874
-182.931
-180.651
-178.079
-175.08
-171.492
-167.342
-162.606
-157.367
-151.642
-145.523
-139.092
-132.447
-125.676
-118.91
-112.2
-105.653
-99.3196
-93.2425
-87.4428
-81.9265
-76.6954
-71.7417
-67.0457
-62.5875
-58.3468
-54.3079
-50.4534
-46.7672
-43.2333
-39.8391
-36.5712
-33.419
-30.3723
-27.4198
-24.5589
-21.7858
-19.2379
-180.359
-180.165
-179.817
-179.369
-178.843
-178.217
-177.459
-176.521
-175.346
-173.97
-172.369
-170.434
-168.039
-165.121
-161.627
-157.538
-152.866
-147.658
-141.989
-135.95
-129.649
-123.21
-116.725
-110.297
-103.999
-97.8818
-91.9861
-86.3305
-80.9192
-75.7501
-70.821
-66.1132
-61.615
-57.3096
-53.1867
-49.2337
-45.4356
-41.7802
-38.2573
-34.8553
-31.5675
-28.3815
-25.4885
-181.182
-181.067
-180.958
-180.809
-180.599
-180.304
-179.893
-179.331
-178.581
-177.604
-176.379
-174.9
-173.127
-170.999
-168.466
-165.48
-161.999
-157.993
-153.472
-148.435
-142.966
-137.125
-131.008
-124.724
-118.372
-112.035
-105.792
-99.698
-93.7881
-88.0826
-82.5959
-77.3272
-72.2752
-67.4264
-62.7755
-58.312
-54.0232
-49.8983
-45.927
-42.0946
-38.3906
-34.7967
-31.5789
-179.512
-179.417
-179.281
-179.105
-178.889
-178.625
-178.306
-177.916
-177.441
-176.855
-176.128
-175.223
-174.109
-172.747
-171.078
-169.052
-166.615
-163.712
-160.321
-156.405
-151.972
-147.043
-141.678
-135.956
-129.964
-123.806
-117.572
-111.347
-105.203
-99.1835
-93.3285
-87.6568
-82.1787
-76.8988
-71.8131
-66.9179
-62.2061
-57.6707
-53.3041
-49.0956
-45.0431
-41.1593
-37.6834
-178.932
-178.853
-178.761
-178.646
-178.505
-178.33
-178.113
-177.841
-177.503
-177.08
-176.552
-175.891
-175.067
-174.053
-172.811
-171.297
-169.464
-167.261
-164.648
-161.583
-158.026
-153.972
-149.427
-144.425
-139.016
-133.296
-127.341
-121.245
-115.104
-108.975
-102.929
-97.0062
-91.2367
-85.6368
-80.2139
-74.9738
-69.9115
-65.0286
-60.3158
-55.7722
-51.381
-47.1103
-42.4873
-177.899
-177.828
-177.741
-177.634
-177.506
-177.353
-177.17
-176.951
-176.687
-176.367
-175.977
-175.496
-174.901
-174.164
-173.256
-172.142
-170.778
-169.119
-167.115
-164.726
-161.902
-158.617
-154.843
-150.586
-145.859
-140.718
-135.222
-129.452
-123.504
-117.455
-111.387
-105.358
-99.4226
-93.61
-87.9446
-82.441
-77.103
-71.9353
-66.9334
-62.1031
-57.4265
-52.9301
-47.8434
-176.934
-176.868
-176.793
-176.704
-176.601
-176.479
-176.334
-176.16
-175.952
-175.7
-175.393
-175.016
-174.552
-173.979
-173.271
-172.402
-171.337
-170.037
-168.459
-166.561
-164.296
-161.624
-158.502
-154.917
-150.855
-146.334
-141.384
-136.074
-130.466
-124.647
-118.702
-112.702
-106.718
-100.799
-94.9814
-89.2934
-83.7515
-78.362
-73.1301
-68.0657
-63.1455
-58.4277
-53.083
-175.786
-175.724
-175.656
-175.576
-175.485
-175.38
-175.256
-175.111
-174.939
-174.733
-174.485
-174.182
-173.813
-173.359
-172.798
-172.109
-171.265
-170.231
-168.973
-167.447
-165.612
-163.425
-160.842
-157.831
-154.365
-150.437
-146.052
-141.25
-136.075
-130.598
-124.895
-119.042
-113.121
-107.193
-101.311
-95.5157
-89.836
-84.2885
-78.8828
-73.6367
-68.5384
-63.6733
-58.3259
-174.541
-174.482
-174.421
-174.351
-174.272
-174.182
-174.077
-173.956
-173.812
-173.641
-173.436
-173.187
-172.883
-172.511
-172.053
-171.491
-170.801
-169.956
-168.927
-167.675
-166.167
-164.356
-162.203
-159.666
-156.71
-153.317
-149.465
-145.175
-140.467
-135.39
-130.015
-124.408
-118.649
-112.804
-106.94
-101.11
-95.3518
-89.7006
-84.1695
-78.7797
-73.5256
-68.4854
-63.1738
-173.163
-173.106
-173.05
-172.985
-172.915
-172.835
-172.745
-172.64
-172.518
-172.374
-172.201
-171.993
-171.739
-171.428
-171.048
-170.58
-170.007
-169.304
-168.45
-167.41
-166.151
-164.634
-162.822
-160.673
-158.145
-155.214
-151.846
-148.041
-143.805
-139.165
-134.161
-128.857
-123.33
-117.643
-111.873
-106.077
-100.304
-94.6005
-88.9885
-83.4972
-78.1264
-72.9496
-67.717
-171.668
-171.611
-171.558
-171.499
-171.436
-171.366
-171.287
-171.198
-171.093
-170.971
-170.824
-170.647
-170.432
-170.169
-169.847
-169.452
-168.967
-168.373
-167.649
-166.769
-165.704
-164.418
-162.877
-161.04
-158.869
-156.329
-153.387
-150.023
-146.227
-142.015
-137.407
-132.451
-127.209
-121.747
-116.131
-110.427
-104.7
-98.994
-93.3456
-87.7887
-82.3285
-77.0147
-71.5315
-170.045
-169.991
-169.942
-169.889
-169.832
-169.77
-169.702
-169.624
-169.534
-169.429
-169.304
-169.153
-168.969
-168.743
-168.467
-168.129
-167.714
-167.206
-166.586
-165.833
-164.919
-163.816
-162.492
-160.91
-159.031
-156.821
-154.243
-151.27
-147.882
-144.079
-139.864
-135.275
-130.35
-125.15
-119.742
-114.188
-108.555
-102.894
-97.2533
-91.6686
-86.1556
-80.7687
-74.8807
-168.316
-168.263
-168.218
-168.169
-168.118
-168.063
-168.002
-167.935
-167.857
-167.767
-167.659
-167.529
-167.371
-167.176
-166.938
-166.645
-166.285
-165.845
-165.307
-164.654
-163.862
-162.906
-161.756
-160.38
-158.743
-156.809
-154.542
-151.91
-148.885
-145.459
-141.625
-137.398
-132.81
-127.904
-122.737
-117.375
-111.884
-106.314
-100.725
-95.1555
-89.6252
-84.2247
-78.0486
-166.486
-166.433
-166.391
-166.345
-166.299
-166.249
-166.196
-166.137
-166.069
-165.992
-165.899
-165.787
-165.65
-165.48
-165.273
-165.017
-164.703
-164.319
-163.849
-163.277
-162.584
-161.747
-160.741
-159.535
-158.098
-156.395
-154.392
-152.057
-149.359
-146.272
-142.785
-138.912
-134.657
-130.061
-125.167
-120.03
-114.714
-109.276
-103.776
-98.2622
-92.7541
-87.3823
-81.1536
-164.559
-164.507
-164.468
-164.426
-164.383
-164.339
-164.292
-164.24
-164.182
-164.115
-164.035
-163.938
-163.819
-163.672
-163.49
-163.265
-162.989
-162.65
-162.236
-161.731
-161.119
-160.38
-159.492
-158.426
-157.155
-155.648
-153.869
-151.787
-149.369
-146.592
-143.435
-139.891
-135.961
-131.672
-127.061
-122.175
-117.067
-111.795
-106.42
-100.998
-95.5491
-90.2275
-83.9366
-162.549
-162.497
-162.46
-162.421
-162.382
-162.342
-162.3
-162.255
-162.204
-162.146
-162.077
-161.993
-161.89
-161.761
-161.601
-161.403
-161.159
-160.858
-160.49
-160.042
-159.498
-158.842
-158.051
-157.103
-155.973
-154.63
-153.043
-151.181
-149.012
-146.507
-143.639
-140.4
-136.782
-132.801
-128.476
-123.851
-118.968
-113.889
-108.668
-103.366
-98.0169
-92.8029
-86.7018
-160.464
-160.41
-160.375
-160.338
-160.302
-160.267
-160.23
-160.19
-160.146
-160.095
-160.036
-159.963
-159.873
-159.761
-159.62
-159.444
-159.227
-158.959
-158.631
-158.231
-157.744
-157.156
-156.449
-155.601
-154.588
-153.385
-151.961
-150.289
-148.336
-146.074
-143.469
-140.51
-137.186
-133.494
-129.452
-125.093
-120.45
-115.581
-110.53
-105.363
-100.116
-94.9528
-89.0807
-158.304
-158.252
-158.219
-158.185
-158.153
-158.121
-158.088
-158.054
-158.015
-157.971
-157.92
-157.857
-157.779
-157.681
-157.557
-157.401
-157.207
-156.968
-156.674
-156.314
-155.876
-155.347
-154.71
-153.947
-153.036
-151.953
-150.67
-149.16
-147.389
-145.334
-142.971
-140.272
-137.215
-133.803
-130.04
-125.943
-121.545
-116.895
-112.034
-107.02
-101.89
-96.7879
-91.0973
-156.09
-156.038
-156.007
-155.976
-155.946
-155.916
-155.887
-155.857
-155.823
-155.786
-155.741
-155.687
-155.619
-155.533
-155.423
-155.285
-155.112
-154.896
-154.631
-154.306
-153.911
-153.433
-152.857
-152.167
-151.342
-150.362
-149.201
-147.834
-146.235
-144.37
-142.208
-139.732
-136.924
-133.767
-130.268
-126.434
-122.283
-117.857
-113.196
-108.357
-103.368
-98.361
-92.8
-153.827
-153.775
-153.744
-153.714
-153.686
-153.659
-153.633
-153.606
-153.577
-153.544
-153.506
-153.459
-153.4
-153.324
-153.228
-153.105
-152.949
-152.755
-152.516
-152.222
-151.864
-151.43
-150.906
-150.279
-149.529
-148.639
-147.583
-146.339
-144.88
-143.18
-141.212
-138.946
-136.366
-133.454
-130.197
-126.604
-122.698
-118.504
-114.053
-109.397
-104.569
-99.6924
-94.2754
-151.51
-151.46
-151.432
-151.405
-151.379
-151.355
-151.332
-151.309
-151.284
-151.256
-151.223
-151.182
-151.131
-151.066
-150.98
-150.87
-150.731
-150.556
-150.339
-150.072
-149.746
-149.35
-148.873
-148.301
-147.617
-146.805
-145.843
-144.708
-143.376
-141.823
-140.018
-137.941
-135.562
-132.862
-129.843
-126.494
-122.825
-118.856
-114.616
-110.152
-105.493
-100.756
-95.4671
-149.164
-149.114
-149.088
-149.062
-149.038
-149.016
-148.995
-148.974
-148.952
-148.928
-148.9
-148.866
-148.822
-148.764
-148.689
-148.591
-148.465
-148.307
-148.11
-147.867
-147.569
-147.207
-146.771
-146.247
-145.621
-144.876
-143.995
-142.955
-141.734
-140.307
-138.65
-136.74
-134.549
-132.059
-129.258
-126.134
-122.691
-118.941
-114.915
-110.643
-106.163
-101.577
-96.4252
-146.787
-146.738
-146.712
-146.688
-146.666
-146.646
-146.627
-146.608
-146.59
-146.569
-146.545
-146.515
-146.477
-146.427
-146.361
-146.273
-146.161
-146.018
-145.839
-145.616
-145.344
-145.012
-144.611
-144.13
-143.555
-142.871
-142.062
-141.107
-139.987
-138.679
-137.154
-135.393
-133.373
-131.068
-128.462
-125.542
-122.316
-118.787
-114.975
-110.902
-106.597
-102.164
-97.149
-144.384
-144.336
-144.312
-144.289
-144.269
-144.251
-144.234
-144.218
-144.202
-144.184
-144.164
-144.139
-144.106
-144.063
-144.004
-143.926
-143.825
-143.695
-143.532
-143.328
-143.079
-142.774
-142.404
-141.961
-141.431
-140.801
-140.056
-139.176
-138.143
-136.937
-135.531
-133.905
-132.033
-129.893
-127.476
-124.761
-121.744
-118.42
-114.808
-110.935
-106.814
-102.544
-97.7044
-141.968
-141.92
-141.897
-141.875
-141.856
-141.839
-141.824
-141.81
-141.796
-141.781
-141.763
-141.742
-141.714
-141.676
-141.625
-141.556
-141.465
-141.347
-141.198
-141.011
-140.781
-140.5
-140.16
-139.75
-139.261
-138.679
-137.99
-137.176
-136.221
-135.103
-133.804
-132.303
-130.571
-128.593
-126.348
-123.811
-120.983
-117.861
-114.451
-110.772
-106.835
-102.725
-97.8389
-139.532
-139.486
-139.465
-139.445
-139.427
-139.412
-139.399
-139.387
-139.376
-139.363
-139.349
-139.331
-139.307
-139.275
-139.23
-139.168
-139.087
-138.98
-138.843
-138.672
-138.46
-138.2
-137.886
-137.507
-137.053
-136.514
-135.876
-135.123
-134.24
-133.209
-132.007
-130.613
-129.006
-127.164
-125.065
-122.703
-120.061
-117.132
-113.921
-110.438
-106.688
-102.769
-97.9013
-137.1
-137.054
-137.033
-137.013
-136.996
-136.982
-136.97
-136.96
-136.95
-136.939
-136.927
-136.912
-136.892
-136.864
-136.825
-136.77
-136.696
-136.599
-136.475
-136.317
-136.121
-135.881
-135.589
-135.237
-134.816
-134.316
-133.723
-133.024
-132.203
-131.241
-130.121
-128.83
-127.339
-125.63
-123.684
-121.48
-119.007
-116.256
-113.227
-109.941
-106.407
-102.742
-98.3524
-134.662
-134.616
-134.596
-134.577
-134.562
-134.548
-134.538
-134.529
-134.52
-134.511
-134.502
-134.489
-134.472
-134.448
-134.414
-134.365
-134.299
-134.211
-134.096
-133.951
-133.771
-133.548
-133.277
-132.95
-132.558
-132.092
-131.541
-130.891
-130.128
-129.237
-128.199
-126.994
-125.603
-124.011
-122.194
-120.133
-117.815
-115.239
-112.394
-109.287
-105.931
-102.416
-98.1339
-132.225
-132.18
-132.161
-132.143
-132.129
-132.117
-132.108
-132.099
-132.092
-132.085
-132.077
-132.067
-132.053
-132.032
-132.002
-131.959
-131.9
-131.82
-131.715
-131.582
-131.414
-131.207
-130.955
-130.65
-130.285
-129.851
-129.337
-128.73
-128.018
-127.186
-126.217
-125.096
-123.804
-122.316
-120.617
-118.698
-116.532
-114.11
-111.428
-108.491
-105.304
-101.921
-98.654
-129.794
-129.75
-129.732
-129.716
-129.703
-129.692
-129.683
-129.677
-129.671
-129.665
-129.659
-129.65
-129.639
-129.621
-129.595
-129.558
-129.504
-129.431
-129.335
-129.212
-129.056
-128.864
-128.63
-128.345
-128.004
-127.599
-127.118
-126.551
-125.886
-125.11
-124.207
-123.159
-121.949
-120.562
-118.976
-117.173
-115.141
-112.868
-110.341
-107.563
-104.537
-101.252
-98.0972
-127.382
-127.338
-127.32
-127.303
-127.29
-127.279
-127.271
-127.265
-127.26
-127.255
-127.25
-127.243
-127.234
-127.219
-127.196
-127.163
-127.115
-127.049
-126.96
-126.846
-126.702
-126.523
-126.304
-126.039
-125.72
-125.339
-124.89
-124.359
-123.737
-123.01
-122.162
-121.182
-120.051
-118.75
-117.266
-115.582
-113.674
-111.54
-109.172
-106.561
-103.712
-100.6
-98.5705
-124.974
-124.931
-124.915
-124.899
-124.887
-124.877
-124.87
-124.865
-124.861
-124.858
-124.854
-124.849
-124.841
-124.828
-124.809
-124.779
-124.736
-124.676
-124.595
-124.489
-124.356
-124.189
-123.984
-123.735
-123.436
-123.08
-122.659
-122.161
-121.578
-120.897
-120.106
-119.188
-118.13
-116.914
-115.519
-113.934
-112.145
-110.135
-107.889
-105.405
-102.694
-99.6842
-96.2181
-122.585
-122.543
-122.528
-122.513
-122.502
-122.493
-122.486
-122.482
-122.479
-122.476
-122.474
-122.47
-122.463
-122.452
-122.436
-122.41
-122.371
-122.316
-122.242
-122.144
-122.02
-121.864
-121.672
-121.439
-121.159
-120.824
-120.428
-119.961
-119.413
-118.774
-118.03
-117.168
-116.173
-115.032
-113.727
-112.24
-110.554
-108.657
-106.54
-104.193
-101.623
-98.8264
-95.6764
-120.22
-120.178
-120.162
-120.148
-120.137
-120.128
-120.122
-120.119
-120.116
-120.114
-120.112
-120.11
-120.105
-120.096
-120.081
-120.059
-120.024
-119.974
-119.905
-119.815
-119.699
-119.553
-119.374
-119.155
-118.892
-118.577
-118.205
-117.766
-117.251
-116.649
-115.95
-115.14
-114.203
-113.127
-111.9
-110.502
-108.919
-107.135
-105.139
-102.918
-100.47
-97.8113
-95.0558
-117.873
-117.832
-117.817
-117.804
-117.793
-117.785
-117.78
-117.776
-117.775
-117.774
-117.773
-117.77
-117.766
-117.759
-117.747
-117.726
-117.695
-117.65
-117.587
-117.503
-117.395
-117.26
-117.091
-116.885
-116.637
-116.341
-115.99
-115.576
-115.09
-114.524
-113.864
-113.102
-112.227
-111.218
-110.059
-108.739
-107.246
-105.563
-103.675
-101.574
-99.2547
-96.6985
-94.2407
-115.552
-115.511
-115.497
-115.484
-115.474
-115.466
-115.461
-115.458
-115.457
-115.456
-115.456
-115.455
-115.452
-115.446
-115.435
-115.418
-115.389
-115.348
-115.29
-115.212
-115.111
-114.984
-114.826
-114.633
-114.399
-114.12
-113.789
-113.399
-112.941
-112.407
-111.787
-111.068
-110.237
-109.286
-108.198
-106.957
-105.55
-103.958
-102.175
-100.186
-97.9826
-95.5272
-93.2261
-113.256
-113.215
-113.202
-113.189
-113.18
-113.173
-113.169
-113.166
-113.165
-113.165
-113.165
-113.164
-113.162
-113.158
-113.149
-113.133
-113.107
-113.069
-113.016
-112.944
-112.851
-112.731
-112.582
-112.4
-112.18
-111.916
-111.603
-111.234
-110.802
-110.297
-109.711
-109.033
-108.25
-107.35
-106.321
-105.15
-103.817
-102.313
-100.622
-98.7269
-96.6152
-94.2326
-91.8331
-110.989
-110.95
-110.936
-110.924
-110.915
-110.908
-110.904
-110.901
-110.901
-110.901
-110.901
-110.901
-110.9
-110.896
-110.888
-110.874
-110.852
-110.817
-110.768
-110.701
-110.613
-110.501
-110.361
-110.189
-109.981
-109.732
-109.436
-109.088
-108.679
-108.202
-107.648
-107.006
-106.267
-105.42
-104.449
-103.339
-102.083
-100.665
-99.0667
-97.2731
-95.2794
-93.0436
-90.9221
-108.751
-108.712
-108.699
-108.687
-108.678
-108.671
-108.668
-108.666
-108.665
-108.666
-108.666
-108.667
-108.666
-108.664
-108.657
-108.644
-108.624
-108.593
-108.547
-108.485
-108.402
-108.297
-108.165
-108.003
-107.806
-107.57
-107.29
-106.96
-106.573
-106.121
-105.597
-104.99
-104.293
-103.488
-102.569
-101.525
-100.338
-98.9925
-97.484
-95.7965
-93.9225
-91.8426
-89.9166
-106.54
-106.502
-106.491
-106.479
-106.471
-106.465
-106.461
-106.459
-106.459
-106.46
-106.461
-106.462
-106.462
-106.46
-106.454
-106.443
-106.425
-106.396
-106.354
-106.296
-106.219
-106.12
-105.995
-105.842
-105.656
-105.433
-105.167
-104.854
-104.487
-104.059
-103.562
-102.987
-102.324
-101.565
-100.696
-99.7029
-98.5798
-97.3109
-95.8802
-94.2835
-92.5173
-90.5486
-88.6959
-104.365
-104.327
-104.316
-104.304
-104.296
-104.29
-104.287
-104.285
-104.285
-104.286
-104.288
-104.289
-104.289
-104.288
-104.283
-104.273
-104.256
-104.23
-104.191
-104.137
-104.065
-103.971
-103.854
-103.708
-103.532
-103.32
-103.069
-102.772
-102.423
-102.017
-101.546
-101
-100.373
-99.6531
-98.83
-97.892
-96.8244
-95.6179
-94.267
-92.7532
-91.067
-89.1866
-87.4983
-102.22
-102.183
-102.172
-102.161
-102.153
-102.147
-102.144
-102.143
-102.143
-102.144
-102.146
-102.147