/*--------------------------------*- C++ -*----------------------------------*\
| =========                 |                                                 |
| \\      /  F ield         | OpenFOAM: The Open Source CFD Toolbox           |
|  \\    /   O peration     | Version:  2.3.0                                 |
|   \\  /    A nd           | Web:      www.OpenFOAM.org                      |
|    \\/     M anipulation  |                                                 |
\*---------------------------------------------------------------------------*/
FoamFile
{
    version     2.0;
    format      ascii;
    class       surfaceScalarField;
    location    "10000";
    object      phi;
}
// * * * * * * * * * * * * * * * * * * * * * * * * * * * * * * * * * * * * * //

dimensions      [0 3 -1 0 0 0 0];

internalField   nonuniform List<scalar> 
84258
(
-0.00428916
-0.00686892
0.00754617
0.00361225
-0.00491529
-0.00661223
0.00723836
-0.00549756
-0.0063603
0.0069426
-0.00603842
-0.00611902
0.00665988
-0.00653574
-0.00588804
0.00638537
-0.00699182
-0.00566623
0.0061223
-0.00741241
-0.00544791
0.00586851
-0.00779213
-0.00524312
0.00562283
-0.00814117
-0.00503963
0.00538868
-0.00845304
-0.00484968
0.00516154
-0.00873578
-0.00465967
0.00494242
-0.00898277
-0.00448324
0.00473023
-0.00920429
-0.00430698
0.0045285
-0.00939674
-0.00413914
0.00433159
-0.00956099
-0.00397693
0.00414119
-0.00970075
-0.00381831
0.00395807
-0.00981667
-0.00366827
0.00378419
-0.00991062
-0.00351896
0.00361291
-0.00998338
-0.00337779
0.00345055
-0.010036
-0.00323813
0.00329076
-0.010072
-0.00310379
0.00313978
-0.0100884
-0.00297541
0.00299182
-0.0100885
-0.00284701
0.00284711
-0.0100742
-0.00272384
0.00270951
-0.0100441
-0.00260193
0.00257187
-0.0100001
-0.00248427
0.0024403
-0.00993899
-0.00236865
0.0023075
-0.0098616
-0.00225494
0.00217755
-0.00976841
-0.00214101
0.00204781
-0.00965566
-0.00202923
0.00191648
-0.00952373
-0.00191795
0.00178602
-0.00937338
-0.00180439
0.00165404
-0.00920188
-0.00169168
0.00152018
-0.00900914
-0.00157525
0.0013825
-0.00879518
-0.00145827
0.00124432
-0.00856128
-0.00133603
0.00110214
-0.0083112
-0.00120971
0.000959629
-0.00804359
-0.00108294
0.000815332
-0.00776733
-0.000944516
0.000668255
-0.00748269
-0.000804257
0.000519624
-0.00719561
-0.000660443
0.00037337
-0.0069275
-0.000513252
0.000245144
-0.000370008
-0.00677388
0.000216387
-0.00387844
-0.00627103
0.00328053
-0.00444118
-0.00604949
-0.00495712
-0.00584436
-0.0054341
-0.00564203
-0.00587207
-0.00545007
-0.00627786
-0.00526043
-0.0066427
-0.00508307
-0.00697895
-0.00490686
-0.00727907
-0.00473951
-0.00755216
-0.00457659
-0.00779154
-0.00442029
-0.00800638
-0.0042684
-0.00819125
-0.00412211
-0.00835063
-0.00397975
-0.00848689
-0.00384067
-0.00859736
-0.00370784
-0.00868661
-0.00357903
-0.00875304
-0.00345252
-0.00880144
-0.00332939
-0.00882755
-0.00321202
-0.00883637
-0.00309497
-0.00882967
-0.00298211
-0.00880648
-0.0028702
-0.0087683
-0.00276202
-0.00871429
-0.00265594
-0.0086486
-0.00254996
-0.00857047
-0.00244678
-0.00848242
-0.00234299
-0.00838208
-0.00224135
-0.0082713
-0.00214001
-0.00815243
-0.00203681
-0.00802181
-0.00193501
-0.00788481
-0.00182868
-0.00773336
-0.0017267
-0.00757162
-0.00162002
-0.00739548
-0.00151217
-0.00720042
-0.00140477
-0.0069884
-0.00129496
-0.00674744
-0.00118548
-0.00647249
-0.0010792
-0.00615841
-0.000974524
-0.00579707
-0.0008746
-0.000783983
-0.00538309
-0.00351009
-0.00573223
0.00297128
-0.00400747
-0.00555212
-0.00446665
-0.00538518
-0.00489217
-0.00521652
-0.00528111
-0.00506113
-0.00563685
-0.0049047
-0.00596179
-0.00475814
-0.00625496
-0.00461369
-0.00651984
-0.00447463
-0.00675445
-0.00434199
-0.0069645
-0.00421024
-0.0071478
-0.0040851
-0.00730811
-0.0039618
-0.00744405
-0.00384382
-0.00755486
-0.00372985
-0.00764502
-0.00361768
-0.00771604
-0.00350801
-0.00776528
-0.00340328
-0.00779794
-0.00329673
-0.00781285
-0.00319711
-0.00780989
-0.00309793
-0.00779067
-0.00300133
-0.00775735
-0.00290352
-0.00770791
-0.00281145
-0.007646
-0.00271785
-0.00757064
-0.00262533
-0.00748258
-0.00253484
-0.00738069
-0.00244489
-0.00727026
-0.00235177
-0.00714705
-0.00226322
-0.00701424
-0.00216963
-0.00687092
-0.00207834
-0.00671337
-0.00198623
-0.00655016
-0.00188991
-0.00637472
-0.00179546
-0.0061865
-0.00170038
-0.00598869
-0.00160257
-0.00577895
-0.00150471
-0.00555676
-0.00140767
-0.00532204
-0.00131391
-0.00507419
-0.00122238
-0.00481219
-0.0011366
-0.00105924
-0.00453693
-0.00317592
-0.00524969
0.00269337
-0.00361949
-0.00510856
-0.00403176
-0.00497291
-0.0044086
-0.00483968
-0.00475573
-0.004714
-0.00507005
-0.00459039
-0.00535933
-0.00446886
-0.00561713
-0.00435589
-0.00585021
-0.00424155
-0.00605981
-0.00413238
-0.00624067
-0.00402938
-0.00640174
-0.00392403
-0.00653774
-0.0038258
-0.00665303
-0.00372852
-0.00675103
-0.00363186
-0.00682644
-0.00354227
-0.00688232
-0.00345213
-0.00692348
-0.00336212
-0.0069448
-0.00327541
-0.0069507
-0.00319121
-0.0069404
-0.00310822
-0.00691731
-0.00302443
-0.00687879
-0.00294204
-0.00682832
-0.00286193
-0.00676517
-0.002781
-0.00668861
-0.00270189
-0.00660185
-0.0026216
-0.00650561
-0.00254113
-0.00639559
-0.00246179
-0.00627836
-0.00238045
-0.00614841
-0.00229958
-0.00601189
-0.00221485
-0.005866
-0.00213211
-0.00570931
-0.0020466
-0.00554324
-0.00196153
-0.00536944
-0.00187419
-0.0051858
-0.00178621
-0.00499215
-0.00169836
-0.00478693
-0.00161289
-0.00457454
-0.0015263
-0.00435074
-0.00144617
-0.00411772
-0.00136963
-0.00130104
-0.00387592
-0.00287278
-0.00482321
0.00244629
-0.00327008
-0.00471126
-0.00363793
-0.00460506
-0.00397429
-0.00450332
-0.00428247
-0.00440582
-0.00456583
-0.00430703
-0.00481908
-0.00421561
-0.00505208
-0.00412289
-0.00525622
-0.00403741
-0.00544036
-0.00394824
-0.0056036
-0.00386614
-0.00574192
-0.00378571
-0.00586188
-0.00370584
-0.0059648
-0.0036256
-0.00604418
-0.00355248
-0.0061108
-0.00347565
-0.00615934
-0.00340358
-0.00618992
-0.00333154
-0.00620354
-0.00326179
-0.00620506
-0.0031897
-0.00619277
-0.00312051
-0.00616627
-0.00305093
-0.0061266
-0.0029817
-0.0060763
-0.00291222
-0.00601281
-0.00284449
-0.00593977
-0.00277493
-0.00585623
-0.00270514
-0.00576244
-0.00263492
-0.00565907
-0.00256516
-0.00554649
-0.00249303
-0.00542624
-0.00241983
-0.00529439
-0.00234671
-0.00515727
-0.00226923
-0.0050104
-0.00219347
-0.00485725
-0.00211468
-0.00469486
-0.00203658
-0.00452615
-0.00195492
-0.00434833
-0.00187618
-0.00416438
-0.00179684
-0.00397175
-0.00171893
-0.00377372
-0.0016442
-0.00356992
-0.00157343
-0.00150961
-0.00336136
-0.00259979
-0.00443511
0.0022117
-0.00295636
-0.00435469
-0.00328481
-0.0042766
-0.0035863
-0.00420184
-0.00386427
-0.00412784
-0.00411562
-0.00405568
-0.00434273
-0.0039885
-0.00454882
-0.00391681
-0.00473285
-0.00385337
-0.00489488
-0.00378622
-0.00503729
-0.00372373
-0.0051625
-0.0036605
-0.00526843
-0.00359991
-0.00535437
-0.00353967
-0.00542787
-0.00347897
-0.00548244
-0.00342108
-0.00552248
-0.00336353
-0.0055488
-0.00330523
-0.00556149
-0.0032491
-0.0055588
-0.00319239
-0.00554306
-0.00313625
-0.00551724
-0.00307675
-0.00547811
-0.00302083
-0.00542935
-0.00296098
-0.00536894
-0.0029049
-0.00529988
-0.00284399
-0.00522146
-0.00278356
-0.0051325
-0.00272388
-0.00503603
-0.00266163
-0.00493125
-0.00259781
-0.00481834
-0.00253274
-0.00469914
-0.0024659
-0.00456935
-0.00239902
-0.00443551
-0.00232732
-0.004293
-0.00225719
-0.00414558
-0.002184
-0.00399025
-0.00211025
-0.00382993
-0.0020365
-0.00366216
-0.00196461
-0.00348967
-0.00189142
-0.0033107
-0.00182318
-0.00312703
-0.00175709
-0.00169416
-0.00294248
-0.00235261
-0.00408976
0.00200726
-0.00267308
-0.00403422
-0.00296586
-0.00398382
-0.00323754
-0.00393017
-0.00348698
-0.0038784
-0.00371131
-0.00383135
-0.00391703
-0.00378277
-0.00410001
-0.00373383
-0.00426658
-0.0036868
-0.0044104
-0.0036424
-0.00453788
-0.00359624
-0.00464717
-0.00355122
-0.00474051
-0.00350657
-0.00481937
-0.0034608
-0.00488166
-0.00341668
-0.00492984
-0.00337291
-0.0049668
-0.00332657
-0.00498709
-0.00328494
-0.00499417
-0.00324202
-0.00499067
-0.00319589
-0.00497609
-0.00315083
-0.00494887
-0.00310397
-0.00491246
-0.00305724
-0.00486357
-0.00300987
-0.00480932
-0.00295915
-0.00474343
-0.00290987
-0.00466896
-0.00285803
-0.0045876
-0.00280524
-0.0044985
-0.00275073
-0.00440175
-0.00269456
-0.00429788
-0.00263662
-0.00418678
-0.00257701
-0.00406906
-0.00251673
-0.00394478
-0.0024516
-0.00381436
-0.00238761
-0.00367855
-0.00231981
-0.00353857
-0.00225023
-0.00339186
-0.00218322
-0.00324144
-0.00211503
-0.00308465
-0.00204821
-0.00292472
-0.00198311
-0.00275956
-0.00192225
-0.00186224
-0.00259148
-0.00213033
-0.00377863
0.0018192
-0.0024172
-0.00374736
-0.00268551
-0.0037155
-0.00292659
-0.00368909
-0.00314894
-0.00365606
-0.00335168
-0.0036286
-0.00353612
-0.00359834
-0.00369931
-0.00357064
-0.00384743
-0.00353869
-0.00397737
-0.00351246
-0.00409111
-0.0034825
-0.00418898
-0.00345335
-0.00427201
-0.00342354
-0.00434044
-0.00339237
-0.00439677
-0.00336036
-0.00443893
-0.00333075
-0.00446738
-0.00329812
-0.00448704
-0.00326529
-0.0044952
-0.00323386
-0.00448993
-0.00320116
-0.00447462
-0.00316614
-0.00444749
-0.0031311
-0.00441364
-0.00309109
-0.00437049
-0.00305302
-0.00431708
-0.00301256
-0.00425688
-0.00297007
-0.00418931
-0.0029256
-0.00411329
-0.00288126
-0.0040311
-0.00283292
-0.00394248
-0.00278317
-0.00384586
-0.00273323
-0.00374413
-0.00267874
-0.00363794
-0.00262293
-0.00352324
-0.0025663
-0.00340373
-0.00250711
-0.00328098
-0.00244256
-0.00315105
-0.00238016
-0.00301944
-0.00231483
-0.00288192
-0.00225254
-0.00274064
-0.00218949
-0.00259508
-0.00212867
-0.00244729
-0.00207004
-0.00201302
-0.00229652
-0.00193032
-0.00349718
0.00164887
-0.00218819
-0.00348949
-0.00242762
-0.00347607
-0.00264785
-0.00346886
-0.00284633
-0.00345758
-0.00302974
-0.00344518
-0.00319279
-0.00343529
-0.00334238
-0.00342105
-0.00347392
-0.00340714
-0.00359202
-0.00339436
-0.00369296
-0.00338157
-0.00378256
-0.00336374
-0.00385741
-0.00334869
-0.00391774
-0.00333204
-0.0039681
-0.00331
-0.00400549
-0.00329336
-0.00403108
-0.00327252
-0.00404897
-0.0032474
-0.00405326
-0.00322957
-0.00404847
-0.00320595
-0.0040338
-0.00318081
-0.00401049
-0.00315441
-0.00397587
-0.00312571
-0.00393717
-0.00309172
-0.0038885
-0.00306123
-0.00383141
-0.00302716
-0.00376895
-0.00298805
-0.0037006
-0.00294962
-0.00362363
-0.00290989
-0.00354204
-0.00286476
-0.00345541
-0.00281986
-0.00336317
-0.00277098
-0.00326157
-0.00272453
-0.00315952
-0.00266835
-0.00305021
-0.00261643
-0.00293545
-0.00255732
-0.00281917
-0.00249644
-0.00269662
-0.00243738
-0.00257294
-0.00237622
-0.00244488
-0.00231755
-0.00231378
-0.00225977
-0.0021805
-0.00220331
-0.00204069
-0.00215282
-0.00589579
-0.000276562
-0.000601525
-0.00529078
-0.000280575
-0.000324446
-0.00479839
-0.000305925
-0.000186465
-0.00437529
-0.000336721
-8.63764e-05
-0.00400124
-0.000372624
-1.4275e-06
-0.00366219
-0.000414369
7.53227e-05
-0.00335269
-0.000455617
0.000146112
-0.0030648
-0.000501623
0.000213734
-0.00279523
-0.000549771
0.000280201
-0.00254142
-0.000598633
0.000344823
-0.00230114
-0.000650049
0.000409772
-0.00207322
-0.000702002
0.000474077
-0.00185581
-0.00075627
0.000538866
-0.00164908
-0.00081117
0.000604432
-0.00145343
-0.000867455
0.000671808
-0.00126708
-0.000926117
0.000739772
-0.00109084
-0.000985655
0.000809414
-0.000925235
-0.00104702
0.000881417
-0.000768633
-0.0011109
0.000954296
-0.000623693
-0.00117542
0.00103048
-0.000488792
-0.00124354
0.00110864
-0.000363807
-0.00131383
0.00118884
-0.000251436
-0.00138538
0.00127301
-0.000151079
-0.00146006
0.0013597
-6.2017e-05
-0.00153827
0.00144921
1.33892e-05
-0.00161867
0.00154327
7.50554e-05
-0.00170159
0.00163992
0.000122941
-0.00178906
0.00174117
0.000155535
-0.00187865
0.00184605
0.000172395
-0.00197312
0.00195626
0.000172426
-0.00207035
0.00207032
0.000155385
-0.00217197
0.00218901
0.000119365
-0.00227754
0.00231355
6.42699e-05
-0.00238834
0.00244344
-1.12764e-05
-0.00250286
0.00257841
-0.000108451
-0.00262221
0.00271939
-0.000227296
-0.00274762
0.00286647
-0.000370902
-0.0028769
0.00302051
-0.000538999
-0.00301247
0.00318057
-0.000733003
-0.00315335
0.00334735
-0.000954496
-0.00330059
0.00352209
-0.00120503
-0.00345346
0.00370399
-0.00361306
0.00389361
-0.00148558
-0.00494021
-0.000719445
-0.00452933
-0.000691452
-0.004158
-0.000677259
-0.00381711
-0.000677611
-0.00350303
-0.000686698
-0.00321239
-0.000705007
-0.00293983
-0.000728181
-0.00268292
-0.000758535
-0.00244203
-0.000790662
-0.00221443
-0.000826233
-0.001999
-0.000865476
-0.00179468
-0.000906316
-0.00160086
-0.000950097
-0.00141616
-0.000995868
-0.00124103
-0.00104258
-0.00107604
-0.00109111
-0.000919635
-0.00114206
-0.000771754
-0.00119491
-0.000634638
-0.00124801
-0.000505781
-0.00130427
-0.000386793
-0.00136253
-0.000278567
-0.00142205
-0.000180344
-0.0014836
-9.31097e-05
-0.0015473
-1.74724e-05
-0.00161391
4.55621e-05
-0.00168171
9.72134e-05
-0.00175324
0.000134969
-0.00182681
0.000159436
-0.00190312
0.000169408
-0.00198309
0.000163973
-0.00206492
0.000142678
-0.00215068
0.000104893
-0.00223975
4.95906e-05
-0.00233304
-2.42253e-05
-0.00242905
-0.000117538
-0.0025289
-0.000231211
-0.00263395
-0.000365835
-0.00274228
-0.000522898
-0.00285541
-0.000702964
-0.00297328
-0.000908136
-0.00309542
-0.00113866
-0.00322294
-0.00335508
-0.00139663
-0.00424854
-0.00100784
-0.00396194
-0.000978052
-0.00367938
-0.000959816
-0.00340721
-0.000949784
-0.00314336
-0.00095055
-0.00289236
-0.00095601
-0.00265271
-0.00096783
-0.0024243
-0.000986942
-0.00220666
-0.0010083
-0.0019983
-0.0010346
-0.00180081
-0.00106296
-0.001612
-0.00109513
-0.00143238
-0.00112972
-0.00126265
-0.0011656
-0.00110103
-0.0012042
-0.000948328
-0.00124381
-0.000804315
-0.00128607
-0.000669297
-0.00132992
-0.000542753
-0.00137456
-0.000426098
-0.00142093
-0.000318924
-0.0014697
-0.000221553
-0.00151942
-0.000133664
-0.00157149
-5.62227e-05
-0.00162474
1.02971e-05
-0.00168043
6.60795e-05
-0.00173749
0.000109362
-0.00179652
0.000140331
-0.00185778
0.000159223
-0.00192201
0.000163868
-0.00198774
0.000155793
-0.00205684
0.000132347
-0.00212723
9.43245e-05
-0.00220173
3.90138e-05
-0.00227773
-3.20636e-05
-0.00235797
-0.00012018
-0.00244079
-0.000227393
-0.00252674
-0.000353458
-0.00261621
-0.000500302
-0.00270856
-0.000667874
-0.00280571
-0.00085766
-0.00290563
-0.00107026
-0.00301033
-0.00311813
-0.00130721
-0.00363412
-0.00124963
-0.00339293
-0.00121924
-0.00315641
-0.00119634
-0.00292489
-0.0011813
-0.00270216
-0.00117329
-0.0024875
-0.00117067
-0.00228006
-0.00117527
-0.00208207
-0.00118493
-0.00189244
-0.00119793
-0.0017101
-0.00121694
-0.0015368
-0.00123626
-0.00137059
-0.00126134
-0.00121238
-0.00128794
-0.00106202
-0.00131596
-0.000920317
-0.0013459
-0.000784803
-0.00137933
-0.000658129
-0.00141275
-0.000540326
-0.00144773
-0.000429135
-0.00148575
-0.000327119
-0.00152295
-0.000233087
-0.00156373
-0.000148014
-0.0016045
-7.29128e-05
-0.00164659
-6.68099e-06
-0.00169097
4.9616e-05
-0.00173673
9.53674e-05
-0.00178324
0.000131108
-0.00183226
0.000155563
-0.00188224
0.000167631
-0.00193408
0.000168277
-0.00198838
0.00015556
-0.00204412
0.00013022
-0.00210189
9.07346e-05
-0.00216224
3.7432e-05
-0.00222443
-3.11004e-05
-0.00228944
-0.00011616
-0.00235573
-0.000217389
-0.00242551
-0.00033623
-0.00249737
-0.000472175
-0.00257262
-0.000628308
-0.00264958
-0.000803971
-0.00272997
-0.00100052
-0.00281378
-0.00289978
-0.00121887
-0.00315177
-0.00145922
-0.00294351
-0.00142751
-0.00274012
-0.00139973
-0.00254166
-0.00137976
-0.00234848
-0.00136646
-0.00216134
-0.00135781
-0.00197962
-0.00135699
-0.0018057
-0.00135885
-0.0016374
-0.00136624
-0.0014771
-0.00137723
-0.00132173
-0.00139163
-0.00117509
-0.00140798
-0.00103439
-0.00142864
-0.000900722
-0.00144963
-0.000773966
-0.00147265
-0.00065421
-0.00149908
-0.000541692
-0.00152526
-0.000435693
-0.00155373
-0.000338676
-0.00158277
-0.000247189
-0.00161443
-0.000165155
-0.00164577
-9.14272e-05
-0.00167822
-2.47007e-05
-0.00171332
3.23807e-05
-0.00174805
7.96077e-05
-0.00178395
0.000118125
-0.00182176
0.000146676
-0.00186081
0.00016558
-0.00190114
0.000173232
-0.00194173
0.000170439
-0.00198559
0.000156019
-0.0020297
0.000129482
-0.00207536
9.03509e-05
-0.00212311
3.8436e-05
-0.00217251
-2.78481e-05
-0.00222315
-0.000108064
-0.00227551
-0.000203377
-0.0023302
-0.000314448
-0.0023863
-0.000442617
-0.00244445
-0.000587003
-0.00250519
-0.000749441
-0.00256753
-0.000930686
-0.00263253
-0.00269894
-0.00113153
-0.00275525
-0.00164645
-0.0025724
-0.00161036
-0.00239316
-0.00157897
-0.00221665
-0.00155627
-0.00204623
-0.00153688
-0.00187864
-0.0015254
-0.00171895
-0.00151667
-0.00156381
-0.001514
-0.00141552
-0.00151453
-0.00127216
-0.00152059
-0.00113488
-0.00152891
-0.00100356
-0.00153929
-0.000879309
-0.00155289
-0.000760333
-0.0015686
-0.000646717
-0.00158627
-0.000540395
-0.0016054
-0.000440585
-0.00162507
-0.000347346
-0.00164697
-0.000260247
-0.00166986
-0.000180994
-0.00169368
-0.000108251
-0.00171851
-4.30241e-05
-0.00174345
1.35455e-05
-0.00176989
6.2723e-05
-0.00179723
0.000103673
-0.0018249
0.000136441
-0.00185453
0.000159481
-0.00188385
0.000173311
-0.00191497
0.00017795
-0.00194637
0.000171922
-0.00197956
0.00015602
-0.0020138
0.000129032
-0.00204837
9.05261e-05
-0.0020846
4.00387e-05
-0.00212202
-2.3153e-05
-0.00215996
-9.88525e-05
-0.00219981
-0.000188862
-0.00224019
-0.000292631
-0.00228253
-0.000410841
-0.00232624
-0.000545114
-0.00237092
-0.000695656
-0.00241699
-0.000863148
-0.00246504
-0.00251469
-0.00104739
-0.00242525
-0.00181267
-0.00226231
-0.0017733
-0.00210122
-0.00174006
-0.00194403
-0.00171346
-0.00179095
-0.00168996
-0.00164475
-0.0016716
-0.00150139
-0.00166003
-0.00136286
-0.00165253
-0.0012287
-0.00164869
-0.00110164
-0.00164764
-0.000978896
-0.00165165
-0.000861701
-0.00165649
-0.000749885
-0.00166471
-0.000643595
-0.00167489
-0.000543052
-0.00168681
-0.000448227
-0.00170023
-0.000358459
-0.00171484
-0.000274812
-0.00173061
-0.00019818
-0.0017465
-0.000127966
-0.0017639
-6.37638e-05
-0.00178271
-6.52884e-06
-0.00180069
4.34665e-05
-0.00181988
8.54247e-05
-0.00183919
0.000121007
-0.00186049
0.000147348
-0.00188087
0.000166767
-0.00190327
0.00017692
-0.00192513
0.000178516
-0.00194796
0.00017157
-0.00197262
0.000154161
-0.00199639
0.000127938
-0.00202214
9.04415e-05
-0.00204711
4.1494e-05
-0.00207308
-1.772e-05
-0.00210075
-8.9484e-05
-0.00212805
-0.000173141
-0.00215653
-0.000269825
-0.00218585
-0.000380467
-0.0022156
-0.000504688
-0.0022467
-0.000643132
-0.00227855
-0.000797407
-0.00231077
-0.00234457
-0.000967533
-0.00214602
-0.00196317
-0.00199846
-0.00192087
-0.00185405
-0.00188446
-0.0017139
-0.00185362
-0.00157746
-0.00182639
-0.00144346
-0.0018056
-0.00131504
-0.00178846
-0.001192
-0.00177557
-0.00107235
-0.00176834
-0.000957694
-0.0017623
-0.00084769
-0.00176166
-0.000742622
-0.00176156
-0.000641656
-0.00176567
-0.000546599
-0.00176995
-0.000456564
-0.00177685
-0.00037091
-0.00178588
-0.00029158
-0.00179417
-0.000217528
-0.00180467
-0.000148623
-0.0018154
-8.54942e-05
-0.00182703
-2.93385e-05
-0.00183887
2.00255e-05
-0.00185005
6.38271e-05
-0.00186368
0.000101793
-0.00187715
0.000131123
-0.00188982
0.000154576
-0.00190432
0.000169234
-0.00191793
0.000177489
-0.00193338
0.000177737
-0.00194821
0.00016919
-0.00196407
0.000152015
-0.00197922
0.000124914
-0.00199504
8.91145e-05
-0.00201131
4.36926e-05
-0.00202766
-1.32364e-05
-0.00204382
-7.99837e-05
-0.0020613
-0.000158455
-0.00207806
-0.000248713
-0.00209559
-0.00035066
-0.00211365
-0.000465355
-0.002132
-0.000593445
-0.00215046
-0.000735461
-0.00216875
-0.00218883
-0.000891198
-0.00190607
-0.00209779
-0.00177263
-0.00205431
-0.00164268
-0.00201442
-0.00151669
-0.00197961
-0.00139193
-0.00195115
-0.00127393
-0.0019236
-0.00115829
-0.0019041
-0.00104525
-0.0018886
-0.000938931
-0.00187466
-0.000835213
-0.00186601
-0.00073728
-0.00185959
-0.000641971
-0.00185687
-0.000552983
-0.00185466
-0.000466626
-0.00185631
-0.000385129
-0.00185834
-0.000310062
-0.00186095
-0.000237946
-0.00186629
-0.000171391
-0.00187122
-0.00010962
-0.00187717
-5.33075e-05
-0.00188334
-4.53951e-06
-0.00188764
4.04924e-05
-0.00189508
7.88325e-05
-0.00190202
0.000111497
-0.00190982
0.000137833
-0.00191615
0.000156514
-0.001923
0.000169778
-0.00193119
0.000174819
-0.00193842
0.000174411
-0.0019478
0.000164706
-0.00195437
0.000147584
-0.0019621
0.000121866
-0.00196933
8.71587e-05
-0.0019766
4.40007e-05
-0.0019845
-9.30639e-06
-0.00199051
-7.18963e-05
-0.00199871
-0.000144396
-0.00200556
-0.000227919
-0.00201207
-0.000322036
-0.00201953
-0.000428231
-0.00202581
-0.000546278
-0.00203241
-0.000676377
-0.00203865
-0.00204551
-0.000819699
0.00123954
-0.000633254
0.000696896
-0.00130318
0.00118361
-0.000581915
0.000637848
0.00113606
-0.000531226
0.000578774
0.00109642
-0.000481953
0.000521588
0.00106391
-0.000433308
0.000465826
0.0010383
-0.000386537
0.000412142
0.00101957
-0.000341735
0.00036047
0.00100602
-0.000297742
0.000311293
0.000997902
-0.000256598
0.000264711
0.000994663
-0.000216799
0.000220039
0.000995457
-0.000178878
0.000178084
0.000999457
-0.000143081
0.00013908
0.00100609
-0.0001087
0.000102071
0.00101481
-7.64613e-05
6.77335e-05
0.00102543
-4.62044e-05
3.55857e-05
0.00103685
-1.75466e-05
6.13298e-06
0.00104851
9.50362e-06
-2.11682e-05
0.00106029
3.48187e-05
-4.6596e-05
0.00107126
5.86571e-05
-6.96298e-05
0.0010811
8.10299e-05
-9.08684e-05
0.00108938
0.000101538
-0.000109821
0.00109593
0.00012098
-0.000127533
0.00110005
0.000139123
-0.000143239
0.00110141
0.000155957
-0.000157317
0.00109989
0.000171675
-0.000170156
0.00109543
0.000186058
-0.0001816
0.00108749
0.000199457
-0.00019151
0.00107575
0.000211922
-0.000200191
0.00105991
0.000223634
-0.000207788
0.00104011
0.000234573
-0.000214778
0.00101567
0.000244855
-0.000220415
0.000986433
0.000254232
-0.000224993
0.00095244
0.000263301
-0.000229308
0.000913152
0.00027198
-0.000232691
0.000867466
0.000280722
-0.000235037
0.000815065
0.000289704
-0.000237303
0.000753969
0.000300109
-0.000239013
0.000681387
0.000313049
-0.000240467
0.000591027
0.000332157
-0.000241797
0.00047185
0.0003643
-0.000245123
0.000299623
0.000426229
-0.000254003
1.95539e-05
0.000560389
-0.00028032
0.000886091
-0.000521957
-0.000344581
0.00112819
-0.000576428
-0.00118502
0.00107811
-0.000531831
0.00103528
-0.000488399
0.000998745
-0.000445416
0.000969392
-0.000403956
0.000946355
-0.0003635
0.00092813
-0.00032351
0.000915904
-0.000285516
0.000908194
-0.000248887
0.000904253
-0.000212858
0.000904387
-0.000179012
0.000907156
-0.00014585
0.000913258
-0.000114802
0.000921252
-8.44559e-05
0.00093079
-5.57422e-05
0.000941351
-2.81083e-05
0.000952602
-1.74711e-06
0.000964136
2.32847e-05
0.000975772
4.70205e-05
0.00098654
7.0262e-05
0.000996115
9.19631e-05
0.00100396
0.000113136
0.00101019
0.00013289
0.00101411
0.000152036
0.00101537
0.000170416
0.00101384
0.000187592
0.00100859
0.000204702
0.000999755
0.00022076
0.000987004
0.000236385
0.000969784
0.000251793
0.000947893
0.000266746
0.000920103
0.000282022
0.000886
0.000297404
0.000844642
0.000313338
0.000794335
0.000331029
0.000732837
0.000351202
0.000656797
0.000376149
0.000561284
0.000408561
0.000437722
0.000455719
0.000271591
0.000530431
4.16968e-05
0.000656122
-0.000279313
0.000881398
0.00128453
-0.000677749
0.00102359
-0.000524664
-0.00107535
0.000978597
-0.000486841
0.000940277
-0.000450079
0.00090799
-0.000413129
0.000881198
-0.000377164
0.000859872
-0.000342175
0.000843701
-0.000307339
0.000832548
-0.000274364
0.000824731
-0.00024107
0.000821388
-0.000209515
0.000820857
-0.000178481
0.000823688
-0.000148681
0.000828536
-0.000119651
0.000835715
-9.16349e-05
0.000843873
-6.39001e-05
0.000853707
-3.79427e-05
0.000864112
-1.2152e-05
0.000874651
1.27453e-05
0.000884992
3.66801e-05
0.000894963
6.02909e-05
0.000903926
8.29999e-05
0.000911555
0.000105507
0.000917334
0.00012711
0.00092117
0.0001482
0.000922541
0.000169045
0.000920565
0.000189569
0.000915624
0.000209643
0.000906987
0.000229397
0.000893859
0.000249512
0.000876184
0.000269468
0.000853028
0.000289902
0.000823487
0.000311563
0.000786867
0.000334024
0.000740918
0.000359287
0.000684231
0.000387715
0.000614296
0.000421137
0.000526984
0.000463461
0.00041678
0.000518765
0.000275898
0.000596601
9.37726e-05
0.000712557
-0.000141608
0.000891503
-0.00043627
0.00117606
0.00160791
-0.000759653
0.000926214
-0.000477932
-0.000972946
0.000886068
-0.000446695
0.000850833
-0.000414844
0.000821408
-0.000383705
0.00079746
-0.000353216
0.000777674
-0.000322389
0.000762852
-0.000292516
0.000751497
-0.000263009
0.000744448
-0.000234022
0.000740259
-0.000205325
0.000739599
-0.000177822
0.000740906
-0.000149988
0.000744567
-0.000123312
0.000749965
-9.70327e-05
0.000757252
-7.11868e-05
0.000764978
-4.56695e-05
0.000773807
-2.09807e-05
0.000783145
3.40751e-06
0.000792134
2.76903e-05
0.000800893
5.1532e-05
0.000808917
7.49757e-05
0.00081566
9.87644e-05
0.000820929
0.000121841
0.000823956
0.000145173
0.000824586
0.000168415
0.000822599
0.000191555
0.000817029
0.000215213
0.000807717
0.000238709
0.000794583
0.000262646
0.000776299
0.000287751
0.000752358
0.000313844
0.000721868
0.000342052
0.000683443
0.000372449
0.000635778
0.000406952
0.000576388
0.000447105
0.000503061
0.000494464
0.000412441
0.000554081
0.000299053
0.000632153
0.000156882
0.000738772
-2.13522e-05
0.000890791
-0.000241256
0.00111141
-0.000502884
0.00143769
0.00188963
-0.000784603
0.000836768
-0.000436132
-0.000878569
0.000799912
-0.000409838
0.000768594
-0.000383526
0.000741858
-0.000356969
0.000719322
-0.00033068
0.000701331
-0.000304398
0.000687193
-0.000278378
0.000676641
-0.000252457
0.000669422
-0.000226803
0.000665314
-0.000201217
0.000663533
-0.000176041
0.000664242
-0.000150697
0.000666893
-0.000125963
0.000671207
-0.000101347
0.000676638
-7.66178e-05
0.000683357
-5.23887e-05
0.000690807
-2.84311e-05
0.000698132
-3.91745e-06
0.000706069
1.97532e-05
0.000713513
4.40881e-05
0.000720057
6.84322e-05
0.000726039
9.27821e-05
0.000730445
0.000117435
0.000732947
0.00014267
0.000733085
0.000168277
0.000730334
0.000194305
0.000724513
0.000221035
0.000715091
0.00024813
0.000701218
0.000276519
0.000682934
0.000306036
0.000658827
0.00033795
0.000628878
0.000372001
0.000590704
0.000410623
0.000543245
0.000454411
0.00048477
0.000505579
0.00041231
0.000566924
0.000322957
0.000643434
0.000212892
0.000742217
7.66393e-05
0.000875025
-8.93314e-05
0.00105676
-0.000290005
0.00131208
-0.000521107
0.00166879
0.00214181
-0.000773284
0.000754393
-0.000398715
-0.00079181
0.000721417
-0.000376863
0.00069279
-0.000354899
0.000668609
-0.000332789
0.000647941
-0.000310012
0.000631381
-0.000287838
0.000618224
-0.000265222
0.000608389
-0.000242621
0.000601124
-0.000219539
0.000596781
-0.000196873
0.000594494
-0.000173755
0.000594554
-0.000150756
0.000596181
-0.00012759
0.000599367
-0.000104534
0.000603833
-8.10835e-05
0.00060931
-5.78654e-05
0.000615109
-3.423e-05
0.000621434
-1.02432e-05
0.000627522
1.36655e-05
0.000633677
3.79328e-05
0.000639244
6.28651e-05
0.000644164
8.78627e-05
0.000647716
0.000113883
0.000649962
0.000140424
0.000649921
0.000168318
0.00064701
0.000197217
0.000641214
0.00022683
0.00063145
0.000257894
0.000617687
0.000290282
0.000599645
0.000324079
0.000576671
0.000360924
0.000547899
0.000400773
0.000511636
0.000446885
0.000466218
0.00049983
0.000410061
0.000561736
0.00034083
0.000636155
0.000255261
0.000729003
0.00015107
0.000846408
2.4443e-05
0.00100165
-0.000129322
0.00121053
-0.000312076
0.00149483
-0.000521558
0.00187827
0.00236949
-0.00074924
0.000679777
-0.0003651
-0.000713392
0.000649919
-0.000347005
0.000623917
-0.000328898
0.000601737
-0.000310609
0.000583171
-0.000291445
0.000567469
-0.000272136
0.000555164
-0.000252917
0.000545755
-0.000233212
0.000538897
-0.000212681
0.000534624
-0.000192601
0.00053209
-0.00017122
0.000531493
-0.00015016
0.000532556
-0.000128652
0.000534843
-0.000106821
0.000538632
-8.48724e-05
0.000542561
-6.17945e-05
0.000547058
-3.87273e-05
0.000552315
-1.55006e-05
0.000557441
8.53964e-06
0.000562435
3.29392e-05
0.000567139
5.81604e-05
0.000571064
8.39376e-05
0.000573886
0.000111061
0.000575575
0.000138736
0.00057536
0.000168533
0.000572869
0.000199707
0.000566832
0.000232867
0.000557367
0.00026736
0.000544182
0.000303467
0.000526695
0.000341565
0.000504619
0.000383
0.000477673
0.000427719
0.000444541
0.000480017
0.000401904
0.000542467
0.00034864
0.000615
0.000283325
0.00070147
0.000203713
0.000808615
0.000107013
0.000943109
-1.0291e-05
0.00111896
-0.000151863
0.0013521
-0.000318531
0.0016615
-0.000509578
0.00206932
0.00257608
-0.00071617
0.000611967
-0.000334516
-0.000642552
0.00058511
-0.000320148
0.000561459
-0.000305246
0.000541193
-0.000290343
0.000524361
-0.000274613
0.000510196
-0.000257971
0.000498807
-0.000241528
0.000489816
-0.000224222
0.000483469
-0.000206333
0.000478543
-0.000187674
0.00047637
-0.000169047
0.000475582
-0.000149373
0.000476089
-0.000129159
0.000477504
-0.000108236
0.000479955
-8.73237e-05
0.000483634
-6.5474e-05
0.000487725
-4.28175e-05
0.0004917
-1.94756e-05
0.000495698
4.54097e-06
0.00049985
2.87875e-05
0.000503572
5.44383e-05
0.000506844
8.06658e-05
0.000508924
0.000108981
0.000509802
0.000137857
0.000510056
0.000168279
0.000507367
0.000202396
0.000501993
0.000238242
0.000493082
0.00027627
0.000480775
0.000315774
0.000464698
0.000357643
0.000443028
0.00040467
0.000418274
0.000452474
0.000388324
0.000509967
0.000349957
0.000580834
0.000300107
0.00066485
0.000239239
0.000762337
0.000164887
0.000882967
7.54002e-05
0.0010326
-3.30633e-05
0.00122742
-0.000162024
0.00148106
-0.000314673
0.00181415
-0.00048882
0.00224347
0.00276513
-0.000677874
0.000550559
-0.000578055
-0.000307019
0.00052666
-0.000296249
0.000505454
-0.00028404
0.000487145
-0.000272034
0.000471381
-0.000258849
0.00045824
-0.00024483
0.000447772
-0.00023106
0.000439329
-0.000215778
0.000432931
-0.000199935
0.000428493
-0.000183237
0.000425566
-0.00016612
0.000424216
-0.000148023
0.000424459
-0.000129402
0.000425656
-0.000109433
0.000427633
-8.9301e-05
0.000430809
-6.86505e-05
0.000433645
-4.56527e-05
0.000436942
-2.27729e-05
0.000440243
1.23942e-06
0.000443664
2.53675e-05
0.000446247
5.18548e-05
0.000448796
7.81169e-05
0.000450145
0.000107632