/*--------------------------------*- C++ -*----------------------------------*\
| =========                 |                                                 |
| \\      /  F ield         | OpenFOAM: The Open Source CFD Toolbox           |
|  \\    /   O peration     | Version:  2.3.0                                 |
|   \\  /    A nd           | Web:      www.OpenFOAM.org                      |
|    \\/     M anipulation  |                                                 |
\*---------------------------------------------------------------------------*/
FoamFile
{
    version     2.0;
    format      ascii;
    class       volVectorField;
    location    "10000";
    object      U;
}
// * * * * * * * * * * * * * * * * * * * * * * * * * * * * * * * * * * * * * //

dimensions      [0 1 -1 0 0 0 0];

internalField   nonuniform List<vector> 
42305
(
(22.896 10.0573 1.44196e-21)
(22.842 10.2753 3.37949e-21)
(22.7859 10.4964 -1.26028e-20)
(22.7264 10.7221 -1.9317e-21)
(22.6626 10.9523 1.02822e-20)
(22.5941 11.1869 0)
(22.5205 11.4261 -3.75461e-20)
(22.4416 11.6701 3.72547e-20)
(22.3572 11.9191 1.38156e-21)
(22.2669 12.1731 -5.43296e-20)
(22.1703 12.4324 1.1451e-19)
(22.0669 12.6972 -5.8431e-20)
(21.9563 12.9678 0)
(21.8379 13.2446 1.57017e-21)
(21.7113 13.528 0)
(21.5762 13.8187 0)
(21.4322 14.1171 1.91424e-19)
(21.2786 14.424 -1.95038e-19)
(21.1149 14.7398 -2.17711e-19)
(20.9405 15.0652 2.20574e-19)
(20.7543 15.4004 2.49471e-19)
(20.5555 15.7458 1.28663e-20)
(20.3424 16.1011 -4.12683e-19)
(20.113 16.4659 -5.16704e-21)
(19.865 16.8388 1.5158e-19)
(19.5951 17.2183 0)
(19.2993 17.6016 1.76546e-19)
(18.9728 17.9854 -1.80794e-19)
(18.6095 18.3653 0)
(18.2019 18.7361 -1.79889e-21)
(17.7407 19.0926 1.61783e-21)
(17.214 19.4285 -2.17165e-19)
(16.6079 19.7374 2.25867e-19)
(15.9059 20.0126 0)
(15.0884 20.2474 -2.18505e-19)
(14.1325 20.434 2.30799e-19)
(13.0124 20.5674 -9.21706e-20)
(11.6992 20.6386 2.50062e-20)
(10.1575 20.6235 1.14784e-19)
(8.35366 20.4854 -3.98916e-20)
(6.28134 20.2773 2.12143e-20)
(3.96806 20.1698 -2.34659e-20)
(1.4749 19.8124 0)
(22.6759 10.0397 -3.89986e-22)
(22.6168 10.2324 -4.60269e-21)
(22.5542 10.429 3.87597e-21)
(22.4888 10.6298 0)
(22.4196 10.834 0)
(22.346 11.0416 0)
(22.2677 11.2527 2.41196e-21)
(22.1842 11.4675 -2.45359e-21)
(22.0953 11.686 -2.63545e-21)
(22.001 11.9084 -2.09144e-21)
(21.9007 12.1348 4.46512e-21)
(21.7939 12.365 0)
(21.6803 12.5993 -1.66053e-22)
(21.559 12.8376 -1.20677e-20)
(21.4293 13.08 1.2096e-20)
(21.2905 13.3269 -7.31317e-23)
(21.1422 13.5784 7.47708e-23)
(20.9833 13.8347 4.3202e-22)
(20.8131 14.0962 0)
(20.6308 14.363 4.88181e-22)
(20.435 14.6355 1.71991e-20)
(20.2245 14.9139 -1.76429e-20)
(19.9976 15.1985 -1.53224e-20)
(19.7525 15.4895 1.56671e-20)
(19.4871 15.7872 1.15905e-20)
(19.199 16.0913 -1.09753e-20)
(18.8856 16.4019 0)
(18.5438 16.7182 2.18009e-22)
(18.1703 17.0388 0)
(17.7614 17.362 3.19184e-20)
(17.3131 17.6849 -3.26884e-20)
(16.8212 18.003 -7.68657e-20)
(16.2814 18.3102 -3.12027e-20)
(15.6898 18.5984 1.14185e-19)
(15.0433 18.857 4.38136e-23)
(14.3393 19.0715 0)
(13.5777 19.2248 1.89528e-19)
(12.7603 19.2957 -1.95741e-19)
(11.8918 19.2562 0)
(10.9858 19.0738 2.20727e-21)
(10.0675 18.7155 2.54589e-19)
(9.15517 18.1463 -2.54298e-19)
(8.23831 17.3283 0)
(22.4859 10.0022 1.52212e-21)
(22.4181 10.1785 1.22853e-20)
(22.3506 10.3562 -2.10617e-20)
(22.2809 10.5362 -1.04398e-20)
(22.2074 10.7183 4.0061e-20)
(22.1297 10.9029 -1.89876e-20)
(22.0471 11.0901 1.72164e-20)
(21.9594 11.28 -1.63185e-20)
(21.8663 11.4729 -9.96543e-22)
(21.7675 11.6689 -9.59614e-22)
(21.6629 11.8681 -7.29925e-22)
(21.5523 12.0705 -2.92439e-20)
(21.4352 12.2761 2.93465e-20)
(21.311 12.4848 0)
(21.1788 12.6965 2.99957e-20)
(21.0381 12.9115 1.0324e-21)
(20.8879 13.1297 -3.13357e-20)
(20.7277 13.3513 3.52031e-20)
(20.5569 13.5763 -7.26293e-20)
(20.3747 13.8046 3.79645e-20)
(20.1803 14.0363 1.12833e-22)
(19.9725 14.271 -5.89665e-22)
(19.7498 14.5082 -6.47172e-22)
(19.5108 14.7477 -6.3773e-20)
(19.2536 14.9888 -6.60187e-21)
(18.9761 15.2306 7.51061e-20)
(18.6758 15.4721 9.59571e-20)
(18.3505 15.7119 -9.78113e-20)
(17.9969 15.9481 1.28012e-19)
(17.6125 16.1785 -1.33367e-19)
(17.1938 16.3998 0)
(16.7377 16.6081 0)
(16.2412 16.7987 1.12748e-21)
(15.7014 16.9651 7.90682e-22)
(15.1165 17.1006 1.71705e-19)
(14.4859 17.1961 -1.77451e-19)
(13.811 17.2418 -2.42174e-19)
(13.0957 17.2266 2.47368e-19)
(12.3479 17.1383 -2.74207e-21)
(11.5812 16.9662 -5.91461e-21)
(10.8162 16.7007 0)
(10.08 16.3326 6.71562e-23)
(9.40912 15.8562 4.51223e-21)
(22.3072 9.96864 0)
(22.2412 10.1258 3.24492e-22)
(22.1739 10.2855 0)
(22.1035 10.4466 -3.55141e-22)
(22.0293 10.6095 -8.27067e-22)
(21.9509 10.7744 0)
(21.8681 10.9415 1.17373e-21)
(21.7803 11.1107 3.03511e-20)
(21.6873 11.2822 -2.89589e-20)
(21.5886 11.4563 7.37947e-22)
(21.4843 11.6331 7.33844e-22)
(21.3743 11.8126 6.34027e-20)
(21.2584 11.9949 -6.38808e-20)
(21.1361 12.1797 0)
(21.0066 12.3668 -6.86748e-20)
(20.8691 12.5561 -2.55491e-21)
(20.7225 12.7477 7.19205e-20)
(20.566 12.9417 -1.17752e-21)
(20.399 13.1379 -8.4029e-20)
(20.2209 13.3366 1.74085e-19)
(20.0311 13.5377 -9.11519e-20)
(19.829 13.7408 1.05272e-19)
(19.6134 13.9453 -1.07041e-19)
(19.3831 14.1507 1.23896e-19)
(19.1369 14.3565 9.18552e-21)
(18.8731 14.5615 -1.42108e-19)
(18.5901 14.7647 -1.70399e-19)
(18.286 14.9645 1.72345e-19)
(17.9589 15.159 3.10354e-21)
(17.6069 15.346 -1.21678e-19)
(17.2282 15.5227 2.66029e-19)
(16.8209 15.6852 -2.9775e-19)
(16.384 15.8295 1.61582e-19)
(15.9164 15.9502 -2.06405e-19)
(15.4181 16.0412 2.13055e-19)
(14.8903 16.0956 -2.11496e-21)
(14.3354 16.1052 -1.50925e-19)
(13.7581 16.0617 3.37094e-19)
(13.1655 15.957 -1.79263e-19)
(12.5681 15.7839 -3.41475e-22)
(11.979 15.5376 0)
(11.4146 15.2168 6.23175e-20)
(10.8936 14.8256 -3.254e-20)
(22.1528 9.94069 1.23759e-20)
(22.0886 10.0766 -1.26896e-21)
(22.0213 10.2182 -1.26682e-20)
(21.9511 10.3622 1.21935e-21)
(21.8772 10.5081 0)
(21.7993 10.656 0)
(21.7172 10.8058 3.40024e-22)
(21.6307 10.9576 -4.5079e-20)
(21.5391 11.1112 4.20444e-20)
(21.4419 11.2669 4.41665e-20)
(21.3389 11.4248 -4.31406e-20)
(21.2302 11.5853 0)
(21.1158 11.7483 -4.596e-20)
(20.9956 11.9138 4.6583e-20)
(20.8694 12.0813 0)
(20.7361 12.2506 5.14538e-20)
(20.5947 12.4214 -5.26916e-20)
(20.4438 12.5936 7.42228e-22)
(20.2826 12.7672 -5.86708e-20)
(20.1103 12.9426 6.12921e-20)
(19.9266 13.1196 6.76268e-20)
(19.7312 13.298 -6.87631e-20)
(19.5233 13.477 7.91907e-20)
(19.3018 13.656 -7.72283e-20)
(19.0657 13.8345 1.53403e-21)
(18.8139 14.0113 0)
(18.5449 14.1852 0)
(18.2571 14.3546 1.21372e-19)
(17.9489 14.5176 -1.24799e-19)
(17.6188 14.6723 0)
(17.2653 14.8158 -1.69087e-19)
(16.8872 14.9451 1.69398e-19)
(16.4838 15.0563 0)
(16.0548 15.1452 -2.38416e-19)
(15.6012 15.2071 2.41955e-19)
(15.1246 15.2366 -1.50701e-19)
(14.6283 15.2273 -1.62904e-20)
(14.1166 15.173 3.57303e-19)
(13.5961 15.0683 -4.05411e-19)
(13.0754 14.9086 3.31509e-19)
(12.5655 14.6914 -1.17632e-19)
(12.0787 14.4173 -4.26468e-21)
(11.6282 14.0909 1.42329e-20)
(22.0227 9.89843 6.83316e-21)
(21.9562 10.0246 -4.94791e-21)
(21.8892 10.1531 1.55042e-21)
(21.8201 10.2832 1.82136e-21)
(21.7475 10.4148 0)
(21.6709 10.5481 -1.82304e-21)
(21.5905 10.6835 -1.53e-21)
(21.5063 10.8208 -5.28873e-20)
(21.4176 10.9596 5.49285e-20)
(21.3234 11.1 0)
(21.2233 11.2422 -7.8908e-22)
(21.117 11.3867 0)
(21.0049 11.5337 9.88177e-22)
(20.8871 11.6832 0)
(20.764 11.8349 0)
(20.6352 11.9883 0)
(20.4996 12.1429 9.38382e-22)
(20.3556 12.2982 0)
(20.2015 12.4541 -7.54031e-20)
(20.0362 12.611 7.53286e-20)
(19.8594 12.7692 0)
(19.671 12.9284 0)
(19.471 13.0881 1.55848e-21)
(19.2584 13.2473 2.36932e-22)
(19.0323 13.4055 1.0916e-19)
(18.7919 13.5619 6.72044e-21)
(18.5364 13.715 -1.25202e-19)
(18.2645 13.8632 -2.75093e-22)
(17.9748 14.0048 1.56966e-19)
(17.6658 14.1379 -1.58432e-19)
(17.3368 14.2597 0)
(16.9863 14.3673 -3.30677e-21)
(16.6141 14.4577 0)
(16.22 14.5271 -1.25932e-19)
(15.8051 14.5714 1.33488e-19)
(15.3712 14.5867 -1.55331e-19)
(14.9229 14.568 1.64412e-19)
(14.4634 14.5098 -2.02452e-19)
(13.9985 14.4081 3.15864e-19)
(13.5346 14.2594 8.27292e-21)
(13.0803 14.0623 -2.50893e-19)
(12.6446 13.8179 2.10409e-19)
(12.2375 13.5302 -8.02286e-20)
(21.9013 9.86284 -1.90679e-21)
(21.8385 9.9768 -1.83577e-21)
(21.7735 10.0931 0)
(21.7066 10.2111 -1.83126e-21)
(21.6363 10.3301 0)
(21.5615 10.4508 1.83272e-21)
(21.4829 10.5738 3.17237e-20)
(21.401 10.699 -3.14737e-20)
(21.3156 10.8257 -9.31183e-22)
(21.2252 10.9536 0)
(21.1289 11.0829 6.64643e-20)
(21.0259 11.2142 1.46139e-21)
(20.9168 11.3477 -6.98476e-20)
(20.8011 11.4836 0)
(20.6803 11.6221 -7.34192e-20)
(20.5544 11.7626 7.37823e-20)
(20.4234 11.9046 7.78822e-20)
(20.2859 12.0471 -1.61327e-19)
(20.1395 12.1892 8.37195e-20)
(19.9816 12.3312 0)
(19.8116 12.4741 -9.69296e-20)
(19.6296 12.618 2.01439e-19)
(19.4365 12.7627 -1.04584e-19)
(19.2319 12.9066 1.87753e-22)
(19.0144 13.0487 2.0077e-21)
(18.7826 13.1889 -1.35766e-19)
(18.5373 13.3264 2.90445e-19)
(18.2776 13.459 -1.48348e-19)
(18.0021 13.5847 -2.51197e-21)
(17.7089 13.702 -5.71441e-21)
(17.3984 13.8086 0)
(17.069 13.9011 6.85586e-21)
(16.7204 13.977 3.87759e-21)
(16.3525 14.0332 4.25672e-21)
(15.9663 14.0655 -1.51659e-19)
(15.5609 14.072 1.60982e-19)
(15.1453 14.0488 1.83616e-19)
(14.7214 13.9902 -1.88332e-19)
(14.2944 13.8933 0)
(13.8693 13.7549 0)
(13.4534 13.5736 0)
(13.0528 13.3505 0)
(12.6756 13.0891 -4.90678e-22)
(21.7964 9.83057 -7.57774e-21)
(21.7357 9.93292 8.73244e-21)
(21.6724 10.0382 -1.64843e-20)
(21.6077 10.1457 1.86596e-20)
(21.5406 10.2542 3.55186e-20)
(21.4682 10.3639 -3.51993e-20)
(21.3914 10.476 0)
(21.3112 10.5909 0)
(21.229 10.7076 0)
(21.1424 10.8253 3.57707e-20)
(21.0509 10.9442 -3.68278e-20)
(20.9516 11.0647 -1.23328e-21)
(20.8469 11.1873 1.14659e-21)
(20.7341 11.3115 0)
(20.6155 11.4385 -1.31353e-21)
(20.4916 11.5678 -1.3466e-21)
(20.3631 11.6993 1.29532e-21)
(20.2305 11.8321 -1.35049e-21)
(20.0921 11.964 -1.49554e-21)
(19.942 12.0945 1.57034e-21)
(19.7793 12.2252 1.65771e-21)
(19.6027 12.3564 0)
(19.4152 12.4891 -1.22452e-19)
(19.2179 12.6217 1.19169e-19)
(19.0096 12.7512 8.45415e-23)
(18.7847 12.8779 0)
(18.5475 13.0029 -8.40504e-20)
(18.298 13.1236 -4.37215e-21)
(18.0351 13.2369 8.78199e-20)
(17.7538 13.3424 -7.33834e-23)
(17.4587 13.4387 1.0955e-19)
(17.1465 13.521 -1.16068e-19)
(16.8184 13.5865 -3.86109e-21)
(16.4692 13.6341 -1.47093e-19)
(16.1106 13.6583 -4.71953e-21)
(15.7251 13.6564 3.30853e-19)
(15.3339 13.6308 -1.69178e-19)
(14.936 13.5728 -4.62276e-23)
(14.537 13.4803 0)
(14.1401 13.3513 -6.69488e-20)
(13.7534 13.1841 6.84994e-20)
(13.3787 12.9778 0)
(13.0252 12.7335 -3.45043e-23)
(21.7031 9.7994 1.34406e-21)
(21.6446 9.89205 -1.28361e-21)
(21.5829 9.98812 -1.18041e-21)
(21.5199 10.0864 1.83869e-20)
(21.4573 10.1868 2.11458e-22)
(21.3889 10.2872 -1.96444e-20)
(21.3155 10.3898 0)
(21.2362 10.4955 0)
(21.1577 10.6042 -4.03951e-20)
(21.0738 10.7128 4.14034e-20)
(20.9894 10.8246 0)
(20.8935 10.9352 -1.04593e-22)
(20.7953 11.0508 0)
(20.6878 11.1656 4.22515e-20)
(20.5749 11.2835 -8.92147e-20)
(20.4565 11.403 6.74887e-22)
(20.3327 11.5248 9.10003e-20)
(20.2054 11.6498 -9.60008e-20)
(20.0797 11.7743 4.9546e-20)
(19.9405 11.8947 4.86656e-20)
(19.7893 12.0167 -5.42469e-20)
(19.6189 12.1372 0)
(19.4362 12.2601 -6.12646e-20)
(19.2453 12.3849 6.63111e-20)
(19.0516 12.5049 -2.10543e-21)
(18.8335 12.6198 -7.19265e-20)
(18.6033 12.7344 8.09012e-20)
(18.3631 12.8464 2.79018e-21)
(18.1174 12.9484 3.03338e-21)
(17.8443 13.0427 3.03946e-21)
(17.5662 13.1313 0)
(17.2682 13.2087 1.1841e-19)
(16.9591 13.2646 1.23304e-20)
(16.6104 13.3043 -1.32663e-19)
(16.2754 13.3295 7.11533e-20)
(15.9 13.3161 -8.42652e-20)
(15.5283 13.2874 9.19915e-20)
(15.1496 13.2291 1.81644e-20)
(14.774 13.1388 -1.01546e-19)
(14.4002 13.0161 7.03677e-21)
(14.0388 12.8604 -7.52215e-21)
(13.6754 12.6743 4.01584e-20)
(13.3333 12.4398 -3.33118e-20)
(-0.7187 17.9384 3.42318e-21)
(-0.0752457 15.977 3.03018e-21)
(0.674387 14.4483 -4.35279e-21)
(1.389 13.2539 4.52666e-21)
(2.05157 12.288 -1.1464e-18)
(2.66417 11.4763 1.10894e-18)
(3.23937 10.7932 0)
(3.78112 10.2112 -1.09676e-18)
(4.28961 9.70934 3.19487e-18)
(4.76568 9.27256 -2.04106e-18)
(5.21064 8.88863 0)
(5.62616 8.54813 -8.33667e-21)
(6.01428 8.24372 -7.94602e-21)
(6.37694 7.96911 -7.00633e-21)
(6.71619 7.71926 0)
(7.03422 7.49047 0)
(7.33288 7.27948 1.62775e-18)
(7.61408 7.08357 -1.575e-18)
(7.8796 6.90083 -6.26859e-21)
(8.13086 6.72919 1.1606e-20)
(8.36938 6.56728 -1.44398e-18)
(8.5964 6.41386 1.42825e-18)
(8.81297 6.26767 2.78224e-18)
(9.02017 6.12793 -5.49962e-18)
(9.21888 5.9939 5.41797e-18)
(9.40982 5.86476 -5.33537e-18)
(9.59372 5.7401 2.6315e-18)
(9.77121 5.61943 -1.01072e-20)
(9.94277 5.50234 0)
(10.1089 5.38839 1.25743e-18)
(10.27 5.27732 -1.29624e-18)
(10.4266 5.16893 1.97172e-20)
(10.5788 5.06289 3.978e-20)
(10.727 4.95895 0)
(10.8715 4.85691 1.97253e-20)
(11.0123 4.75667 -1.24466e-18)
(11.1496 4.658 1.26358e-18)
(11.2835 4.56073 0)
(11.4141 4.46474 3.8979e-20)
(11.5413 4.37 -6.08959e-19)
(11.6651 4.27675 6.37711e-19)
(11.7856 4.18522 1.46143e-19)
(11.9039 4.07277 -6.78838e-20)
(7.35511 16.2984 -2.58488e-21)
(6.78391 15.2218 0)
(6.47334 14.242 5.00958e-19)
(6.34134 13.3657 -4.98694e-19)
(6.32813 12.5854 0)
(6.39421 11.8902 -3.94333e-21)
(6.51359 11.2704 -1.03344e-18)
(6.66886 10.7175 1.0036e-18)
(6.84723 10.2232 -3.35147e-22)
(7.04038 9.78051 0)
(7.24174 9.38245 7.00902e-21)
(7.44679 9.02315 0)
(7.65237 8.69725 0)
(7.85624 8.40015 6.67626e-21)
(8.05699 8.12801 0)
(8.25369 7.87736 0)
(8.44576 7.6453 -6.10178e-21)
(8.63283 7.42934 -1.15133e-20)
(8.81475 7.22739 -1.47249e-18)
(8.99166 7.03774 1.41824e-18)
(9.16343 6.85876 1.40307e-18)
(9.33019 6.68915 -1.3792e-18)
(9.4922 6.52796 -1.34858e-18)
(9.64962 6.37424 1.33137e-18)
(9.80257 6.22715 -1.30774e-18)
(9.95129 6.08607 2.58434e-18)
(10.0961 5.95049 -1.27749e-18)
(10.237 5.81984 -1.24889e-18)
(10.3744 5.69377 1.26294e-18)
(10.5085 5.57182 1.95448e-20)
(10.6395 5.45371 0)
(10.7675 5.33909 -1.94483e-20)
(10.8929 5.22767 -2.82587e-22)
(11.0156 5.11908 1.23912e-18)
(11.1357 5.01311 -1.24755e-18)
(11.2535 4.90959 0)
(11.3688 4.8082 0)
(11.4818 4.70879 0)
(11.5924 4.61119 6.12509e-19)
(11.7007 4.51526 -6.0868e-19)
(11.8065 4.42107 -3.73433e-19)
(11.9097 4.3288 2.94051e-19)
(12.01 4.22566 -6.98009e-20)
(8.84877 15.2804 0)
(8.4309 14.6374 1.76854e-19)
(8.1388 13.9707 -1.7754e-19)
(7.95262 13.3116 0)
(7.85177 12.6791 0)
(7.81813 12.0829 8.47288e-19)
(7.83711 11.5275 -1.68764e-18)
(7.8961 11.0139 8.36621e-19)
(7.98511 10.5413 8.37448e-19)
(8.09645 10.1072 -8.27977e-19)
(8.22357 9.7089 8.2657e-19)
(8.36153 9.34322 -8.03044e-19)
(8.50644 9.00688 1.58105e-18)
(8.65537 8.69684 -1.54152e-18)
(8.80626 8.41035 -1.52593e-18)
(8.95748 8.1448 -5.16755e-21)
(9.1078 7.8978 1.45162e-18)
(9.25626 7.66725 1.13148e-20)
(9.40241 7.45143 0)
(9.54584 7.24867 1.35319e-18)
(9.6862 7.05756 -1.34812e-18)
(9.82339 6.87689 1.31416e-18)
(9.95738 6.70564 -1.28465e-18)
(10.0881 6.54288 0)
(10.2157 6.38778 -9.68392e-21)
(10.3402 6.23972 -9.56724e-21)
(10.4618 6.09804 0)
(10.5807 5.96221 -9.37878e-21)
(10.697 5.83175 -9.50464e-21)
(10.811 5.70613 0)
(10.9228 5.58498 -1.19457e-18)
(11.0325 5.46785 3.14707e-21)
(11.1403 5.35438 1.18158e-18)
(11.246 5.2442 0)
(11.3499 5.1371 -3.77472e-20)
(11.4519 5.03279 6.03838e-19)
(11.552 4.93105 -1.85188e-21)
(11.6502 4.8317 -6.03995e-19)
(11.7466 4.73455 0)
(11.8412 4.63946 -2.97306e-19)
(11.9337 4.54643 3.31776e-19)
(12.024 4.45564 -1.44643e-19)
(12.1116 4.35989 1.75029e-19)
(10.4338 14.375 -3.89306e-20)
(10.0467 13.8804 0)
(9.73554 13.3614 -1.8852e-19)
(9.49754 12.8363 1.87907e-19)
(9.32569 12.3189 0)
(9.21138 11.8184 -6.1996e-21)
(9.14588 11.3409 -1.66661e-22)
(9.1205 10.8896 8.28567e-19)
(9.12775 10.4663 2.67129e-20)
(9.1611 10.0707 -7.96625e-19)
(9.21496 9.70221 -6.28976e-21)
(9.28476 9.35935 0)
(9.36642 9.04042 -7.77198e-19)
(9.45712 8.74357 -4.43871e-21)
(9.55443 8.4669 7.45903e-19)
(9.6563 8.20864 0)
(9.7611 7.96697 1.40926e-18)
(9.86771 7.74032 -1.36505e-18)
(9.97514 7.52727 -1.34903e-18)
(10.0827 7.3265 1.33126e-18)
(10.1898 7.13683 2.02434e-20)
(10.296 6.95723 -1.00502e-20)
(10.401 6.78678 1.25449e-18)
(10.5046 6.62471 -9.16349e-22)
(10.6067 6.47027 -1.21139e-18)
(10.7073 6.32286 9.48473e-21)
(10.8064 6.18193 0)
(10.904 6.04697 9.29463e-21)
(11.0003 5.91746 0)
(11.0953 5.79293 0)
(11.1892 5.67288 -1.17463e-18)
(11.2818 5.55693 5.85319e-19)
(11.3732 5.44471 5.8548e-19)
(11.4632 5.33596 0)
(11.5519 5.23037 1.85339e-20)
(11.6391 5.12774 5.90228e-19)
(11.7251 5.02787 -5.91864e-19)
(11.8096 4.93057 0)
(11.8927 4.83569 1.83138e-20)
(11.9745 4.74301 -2.924e-19)
(12.0546 4.65252 4.53306e-19)
(12.1328 4.56431 -1.96879e-19)
(12.2089 4.47363 1.04771e-19)
(11.2244 13.7197 -1.40705e-20)
(10.874 13.3127 8.04898e-20)
(10.5802 12.8813 -8.57675e-20)
(10.3431 12.4383 0)
(10.1594 11.9943 0)
(10.0239 11.5577 6.14345e-21)
(9.93087 11.1348 -6.2134e-21)
(9.87425 10.7295 0)
(9.84853 10.3443 -1.83009e-20)
(9.84819 9.98019 5.82248e-21)
(9.86866 9.63755 0)
(9.90594 9.31571 7.59549e-19)
(9.95645 9.01396 -1.47371e-18)
(10.0174 8.7311 1.45784e-18)
(10.0866 8.46584 -7.12363e-19)
(10.1618 8.21681 7.01815e-19)
(10.2413 7.98273 -6.95222e-19)
(10.3241 7.76234 -2.10354e-20)
(10.4089 7.55444 -6.59484e-19)
(10.4949 7.35806 1.29259e-18)
(10.5815 7.1721 -6.44482e-19)
(10.6681 6.99575 6.14875e-19)
(10.7544 6.82826 -6.14736e-19)
(10.8399 6.66892 -9.39492e-21)
(10.9248 6.51712 0)
(11.0089 6.3723 -9.14037e-21)
(11.0921 6.2339 0)
(11.1746 6.10147 8.97128e-21)
(11.2565 5.97454 0)
(11.3378 5.85254 0)
(11.4184 5.73493 -5.70995e-19)
(11.4981 5.62139 1.14333e-18)
(11.5768 5.51164 8.02167e-21)
(11.6545 5.40541 -1.15052e-18)
(11.731 5.30244 5.78276e-19)
(11.8065 5.20258 1.8012e-20)
(11.8809 5.10556 1.80376e-20)
(11.9541 5.01124 0)
(12.0262 4.91944 -1.59728e-22)
(12.0972 4.82992 -1.79427e-20)
(12.1668 4.74258 -1.39937e-22)
(12.2348 4.65757 -7.0818e-20)
(12.3012 4.57067 5.22534e-20)
(11.8667 13.2057 -5.47852e-20)
(11.5386 12.8513 4.54713e-20)
(11.2565 12.4746 -1.76859e-19)
(11.021 12.0848 1.87151e-19)
(10.8304 11.6904 0)
(10.681 11.299 0)
(10.5689 10.9166 0)
(10.4905 10.547 0)
(10.4412 10.1925 2.38274e-20)
(10.4164 9.85488 -1.19521e-20)
(10.4119 9.53492 1.16037e-20)
(10.4247 9.2325 7.54815e-19)
(10.4514 8.94723 -7.13045e-19)
(10.4894 8.67849 7.06617e-19)
(10.5365 8.42529 4.5457e-21)
(10.5906 8.18652 -6.86389e-19)
(10.65 7.96126 0)
(10.7135 7.7485 2.06806e-20)
(10.7799 7.54732 1.00608e-20)
(10.8483 7.35678 0)
(10.9181 7.17605 -9.70886e-21)
(10.9885 7.00444 9.6947e-21)
(11.059 6.84141 0)
(11.1296 6.68633 6.0614e-19)
(11.2002 6.53856 -1.17512e-18)
(11.2707 6.3976 5.98229e-19)
(11.3408 6.26296 0)
(11.4109 6.13425 -8.94889e-21)
(11.4811 6.01097 0)
(11.5514 5.8923 0)
(11.6211 5.7778 5.70731e-19)
(11.69 5.66737 -9.28738e-21)
(11.7581 5.56083 -5.6368e-19)
(11.8254 5.45783 0)
(11.8918 5.35821 0)
(11.9573 5.26172 -9.02174e-21)
(12.0218 5.16808 -1.58012e-22)
(12.0854 5.07729 0)
(12.1482 4.98908 -1.448e-22)
(12.2101 4.90308 1.36808e-22)
(12.2707 4.81927 -1.77331e-20)
(12.3299 4.73793 5.24183e-20)
(12.3878 4.65459 -5.17035e-20)
(12.3271 12.7966 -9.33598e-22)
(12.0163 12.4784 9.70582e-21)
(11.7462 12.1392 -1.05439e-20)
(11.5167 11.7863 -1.29473e-22)
(11.326 11.4267 0)
(11.1707 11.0679 -1.13632e-20)
(11.0485 10.716 -3.85375e-19)
(10.9581 10.3739 3.6721e-19)
(10.8952 10.0434 -1.17006e-20)
(10.855 9.72705 3.71785e-19)
(10.8349 9.42588 -3.74709e-19)
(10.8318 9.13986 -1.13903e-20)
(10.8429 8.86894 -2.22727e-20)
(10.8655 8.61277 3.73602e-19)
(10.8976 8.37054 -1.03379e-18)
(10.9373 8.14133 -3.92602e-21)
(10.9825 7.92456 -3.21003e-21)
(11.0323 7.71927 6.39646e-19)
(11.0854 7.52465 -6.40479e-19)
(11.1412 7.33998 -1.77223e-21)
(11.1983 7.16435 -1.29269e-21)
(11.2561 6.99776 6.16467e-19)
(11.3146 6.83985 5.88784e-19)
(11.3741 6.68938 -1.17567e-18)
(11.4339 6.54588 5.79077e-19)
(11.4938 6.40907 5.63105e-19)
(11.554 6.27856 -1.13191e-18)
(11.6146 6.15395 5.61149e-19)
(11.6762 6.0345 -8.66471e-21)
(11.7381 5.919 0)
(11.7989 5.80758 8.61373e-21)
(11.8587 5.70051 8.69647e-21)
(11.9182 5.5975 -8.71005e-21)
(11.977 5.49804 -8.65895e-21)
(12.0348 5.40197 -2.79381e-19)
(12.0921 5.30906 2.71739e-19)
(12.1485 5.21905 -2.98349e-19)
(12.2041 5.13202 2.72678e-19)
(12.2592 5.04754 -2.63999e-20)
(12.3136 4.96517 1.76078e-20)
(12.3664 4.88495 1.4838e-19)
(12.4181 4.80747 -1.38761e-19)
(12.4688 4.72733 0)
(12.6896 12.464 9.4589e-21)
(12.392 12.1722 8.83398e-23)
(12.1326 11.8602 1.03473e-20)
(11.9094 11.5344 1.51852e-19)
(11.7205 11.1989 -1.71574e-19)
(11.5612 10.8651 1.11579e-20)
(11.4317 10.5371 1.92592e-19)
(11.335 10.2159 -5.53239e-19)
(11.2628 9.9041 3.56924e-19)
(11.2112 9.60539 -1.11472e-20)
(11.1801 9.31962 0)
(11.1656 9.04731 -3.54066e-19)
(11.1652 8.78873 7.56592e-21)
(11.1764 8.54359 6.74106e-19)
(11.1977 8.31092 -3.35745e-19)
(11.2265 8.09047 0)
(11.2606 7.88177 0)
(11.3005 7.68321 3.10615e-19)
(11.343 7.49423 -3.23624e-19)
(11.3886 7.31472 -6.19271e-19)
(11.4349 7.14358 6.17144e-19)
(11.4829 6.98324 -9.4035e-21)
(11.5325 6.83094 -5.79639e-19)
(11.5836 6.68431 5.69769e-19)
(11.6345 6.54483 8.87332e-21)
(11.6861 6.41235 0)
(11.7383 6.28609 0)
(11.7917 6.16548 8.60256e-21)
(11.8469 6.04941 5.50089e-19)
(11.9017 5.93601 -5.47602e-19)
(11.9547 5.82804 -7.92757e-23)
(12.0067 5.72444 0)
(12.0595 5.62531 0)
(12.111 5.52926 8.607e-21)
(12.1614 5.43668 -2.75357e-19)
(12.2127 5.34775 2.85071e-19)
(12.2623 5.26147 0)
(12.3114 5.17816 1.73299e-20)
(12.3603 5.09719 8.70285e-21)
(12.4082 5.0183 0)
(12.4538 4.94152 -6.91637e-20)
(12.499 4.8682 6.87322e-20)
(12.5441 4.79165 -8.93717e-24)
(12.9926 12.1893 -1.90513e-20)
(12.7069 11.9159 2.86518e-20)
(12.4575 11.6223 -8.05586e-20)
(12.2352 11.3201 9.7517e-20)
(12.0415 11.0008 0)
(11.8723 10.691 0)
(11.739 10.3824 0)
(11.6425 10.0741 -1.77961e-19)
(11.5611 9.77766 1.77213e-19)
(11.4999 9.49535 -3.47519e-19)
(11.4631 9.22183 3.39876e-19)
(11.4403 8.96153 0)
(11.4318 8.71344 -3.49261e-19)
(11.435 8.47788 3.39184e-19)
(11.4489 8.25314 -3.45309e-19)
(11.4695 8.04193 6.6114e-19)
(11.4957 7.84039 -3.23929e-19)
(11.5293 7.64596 9.94931e-21)
(11.5633 7.46014 0)
(11.6019 7.28603 0)
(11.6394 7.12079 -9.16192e-21)
(11.6787 6.97063 0)
(11.7215 6.82065 2.9798e-19)
(11.7664 6.67487 -5.69526e-19)
(11.8082 6.54053 2.78606e-19)
(11.8536 6.41227 0)
(11.8992 6.28974 -8.84448e-21)
(11.9469 6.17131 -2.85768e-19)
(11.9981 6.05769 -5.55403e-23)
(12.047 5.945 1.74545e-23)
(12.0925 5.84343 2.57148e-19)
(12.1387 5.74224 0)
(12.1863 5.64746 0)
(12.2315 5.55381 -8.11494e-21)
(12.2774 5.46585 -2.60384e-19)
(12.3243 5.3823 2.70161e-19)
(12.3663 5.29862 0)
(12.4083 5.21769 -1.72939e-20)
(12.4507 5.13877 0)
(12.4932 5.06347 0)
(12.5338 4.9904 -8.35033e-21)
(12.5745 4.92119 4.37435e-20)
(12.6176 4.84705 -4.89863e-20)
(-3.71339 -2.10988 9.57115e-22)
(-3.6102 -2.1376 -4.53238e-20)
(-3.49755 -2.16604 2.37969e-20)
(-3.37672 -2.19513 0)
(-3.2486 -2.22465 0)
(-3.11407 -2.25436 2.46961e-20)
(-2.97392 -2.28409 0)
(-2.82889 -2.31369 2.51328e-20)
(-2.67966 -2.34304 2.52525e-20)
(-2.52684 -2.37201 0)
(-2.37101 -2.4005 -2.77829e-20)
(-2.21262 -2.42843 -2.17309e-20)
(-2.05215 -2.45575 -4.65991e-21)
(-1.88999 -2.48235 9.46693e-22)
(-1.72649 -2.50819 -3.82405e-21)
(-1.56186 -2.5332 1.87124e-20)
(-1.39648 -2.55731 -6.0856e-21)
(-1.23063 -2.58042 4.0418e-21)
(-1.06446 -2.60248 0)
(-0.898206 -2.62342 1.10275e-20)
(-0.732048 -2.64325 3.52027e-21)
(-0.566129 -2.66194 8.50752e-23)
(-0.400624 -2.67948 4.51375e-21)
(-0.23561 -2.69592 -2.83836e-22)
(-0.0710818 -2.7113 7.24672e-21)
(0.092878 -2.72565 -1.4642e-20)
(0.256292 -2.73902 1.78314e-20)
(0.419121 -2.75145 0)
(0.581397 -2.76296 -4.15577e-20)
(0.74334 -2.77355 2.37562e-20)
(0.904937 -2.78316 -4.18334e-20)
(1.06639 -2.79171 -3.89313e-20)
(1.22813 -2.79903 1.13491e-19)
(1.39059 -2.80476 -6.22028e-20)
(1.55477 -2.80821 -8.65686e-21)
(1.72273 -2.80834 9.46295e-21)
(1.89878 -2.80342 0)
(2.09279 -2.79131 0)
(2.32848 -2.7711 -1.06382e-20)
(2.66814 -2.74732 0)
(3.28441 -2.75174 -9.97684e-21)
(4.68226 -2.94889 1.06773e-19)
(8.60636 -4.08856 -4.53333e-19)
(-3.69374 -2.12533 2.14439e-20)
(-3.59558 -2.15041 -2.28248e-20)
(-3.48979 -2.17632 -1.19815e-23)
(-3.37711 -2.2029 0)
(-3.25814 -2.22997 2.15122e-22)
(-3.13352 -2.25739 -2.54764e-20)
(-3.00381 -2.28503 2.52172e-20)
(-2.86953 -2.31278 -1.3343e-20)
(-2.73121 -2.34055 2.63538e-20)
(-2.58928 -2.3683 7.30347e-21)
(-2.44415 -2.39595 3.34623e-20)
(-2.29618 -2.42348 0)
(-2.14569 -2.45084 0)
(-1.99296 -2.47802 -1.31129e-20)
(-1.83816 -2.50499 -8.38128e-22)
(-1.68147 -2.53171 -1.7578e-20)
(-1.52305 -2.55812 3.2517e-20)
(-1.36297 -2.58416 -3.47136e-21)
(-1.20133 -2.60976 3.57081e-21)
(-1.03831 -2.6348 -1.1569e-20)
(-0.874013 -2.65919 -1.55641e-20)
(-0.70844 -2.68286 1.6586e-20)
(-0.54173 -2.7057 -3.98745e-21)
(-0.373885 -2.72763 2.55745e-22)
(-0.20478 -2.74861 -1.11366e-20)
(-0.0343546 -2.76855 1.59805e-21)
(0.137532 -2.78739 -1.13972e-22)
(0.311191 -2.80498 -9.95366e-21)
(0.487065 -2.82115 3.20745e-20)
(0.665821 -2.83563 -1.11717e-20)
(0.848341 -2.84802 -1.12947e-21)
(1.03611 -2.85782 -2.61825e-20)
(1.23129 -2.86432 -4.0433e-20)
(1.43725 -2.86655 4.32991e-20)
(1.66001 -2.8634 7.49411e-21)
(1.90973 -2.8538 -2.4812e-20)
(2.20457 -2.83711 1.71852e-20)
(2.57714 -2.81495 0)
(3.08981 -2.79617 6.0954e-20)
(3.86772 -2.81142 -1.1377e-19)
(5.16617 -2.95664 5.93319e-20)
(7.51544 -3.50071 -1.87524e-19)
(11.9967 -5.07071 6.79915e-19)
(-3.66721 -2.13064 -3.60678e-23)
(-3.57273 -2.15491 -2.76277e-22)
(-3.47129 -2.17951 2.34867e-20)
(-3.36361 -2.20482 -2.38647e-20)
(-3.2502 -2.23072 2.9717e-22)
(-3.13152 -2.25708 3.73868e-20)
(-3.008 -2.28379 -2.55108e-20)
(-2.88 -2.31076 3.82636e-20)
(-2.74793 -2.33786 -2.56185e-20)
(-2.61218 -2.36503 -2.58505e-20)
(-2.47303 -2.3922 3.37519e-21)
(-2.33076 -2.41935 -1.69728e-21)
(-2.18562 -2.44643 -1.72953e-21)
(-2.03776 -2.47342 2.7648e-20)
(-1.88742 -2.50027 1.44449e-20)
(-1.73459 -2.52698 0)
(-1.57935 -2.55349 -1.41081e-20)
(-1.42176 -2.57976 0)
(-1.2617 -2.6057 0)
(-1.09921 -2.6312 -1.62507e-20)
(-0.93423 -2.65612 1.67462e-20)
(-0.766614 -2.68029 1.39362e-21)
(-0.596359 -2.70355 1.57234e-20)
(-0.423299 -2.7257 2.29057e-21)
(-0.247176 -2.74659 0)
(-0.0677372 -2.76602 2.42003e-20)
(0.115547 -2.78382 5.34326e-21)
(0.303481 -2.79978 0)
(0.497169 -2.81361 -1.05777e-20)
(0.698229 -2.82489 1.20924e-20)
(0.908885 -2.83302 -9.39867e-22)
(1.13246 -2.83725 2.55841e-20)
(1.37379 -2.83669 1.30022e-20)
(1.63989 -2.83047 -5.54718e-22)
(1.94194 -2.81796 -5.66446e-20)
(2.29685 -2.7994 7.62493e-20)
(2.73268 -2.77729 3.91627e-20)
(3.29656 -2.75927 -5.95037e-20)
(4.06947 -2.76542 0)
(5.19179 -2.84539 0)
(6.90379 -3.11499 1.05534e-20)
(9.6084 -3.82713 1.50232e-19)
(13.7475 -5.41465 -1.23692e-19)
(-3.63693 -2.12833 -2.35758e-22)
(-3.54593 -2.15056 -2.25027e-20)
(-3.44888 -2.1729 2.28277e-20)
(-3.3463 -2.196 0)
(-3.23845 -2.21966 -2.41768e-20)
(-3.12571 -2.24378 0)
(-3.00832 -2.2683 5.3251e-23)
(-2.88653 -2.29312 -2.54344e-20)
(-2.76062 -2.3181 0)
(-2.63088 -2.34318 0)
(-2.49749 -2.36832 0)
(-2.36066 -2.39346 1.35367e-20)
(-2.22058 -2.41857 0)
(-2.07735 -2.44364 2.12776e-22)
(-1.93103 -2.46866 -2.83064e-20)
(-1.78162 -2.49362 1.63812e-20)
(-1.62907 -2.51849 -5.53357e-21)
(-1.47329 -2.54325 -1.15172e-20)
(-1.3141 -2.56786 0)
(-1.15128 -2.59217 3.58675e-20)
(-0.984586 -2.61604 -2.03166e-20)
(-0.813732 -2.63923 4.9448e-22)
(-0.638427 -2.66149 -1.72807e-20)
(-0.458288 -2.68247 0)
(-0.272876 -2.70184 0)
(-0.0818132 -2.71927 -9.66453e-21)
(0.115749 -2.73449 -1.0063e-20)
(0.321006 -2.74729 0)
(0.535751 -2.75738 1.10128e-20)
(0.762566 -2.76441 -3.47917e-20)
(1.00508 -2.76785 1.18718e-20)
(1.26817 -2.76712 -1.23157e-20)
(1.55886 -2.76145 -2.47755e-20)
(1.88667 -2.75037 3.96142e-20)
(2.26591 -2.73436 0)
(2.71841 -2.71561 0)
(3.27818 -2.69993 0)
(3.99906 -2.7005 -7.9728e-21)
(4.96573 -2.74572 0)
(6.3114 -2.89493 0)
(8.23754 -3.26506 -9.58643e-20)
(11.0263 -4.07198 -7.5913e-20)
(14.8435 -5.6095 1.35149e-19)
(-3.60192 -2.11947 4.21379e-20)
(-3.51502 -2.13984 -2.16559e-20)
(-3.4222 -2.16002 0)
(-3.32423 -2.18094 1.15862e-20)
(-3.22125 -2.20239 0)
(-3.11357 -2.22425 -1.20842e-20)
(-3.00138 -2.24655 2.47073e-20)
(-2.88475 -2.2692 5.29873e-23)
(-2.76379 -2.29206 0)
(-2.6388 -2.31501 3.23902e-21)
(-2.5099 -2.33802 -3.25936e-21)
(-2.37717 -2.36104 -1.32277e-20)
(-2.24079 -2.38401 0)
(-2.10078 -2.4069 5.49314e-22)
(-1.95714 -2.42973 2.58146e-20)
(-1.80983 -2.45245 3.74937e-21)
(-1.65875 -2.47501 -1.83646e-21)
(-1.50379 -2.49748 1.49258e-20)
(-1.34465 -2.51986 3.87037e-21)
(-1.18088 -2.54208 -3.569e-20)
(-1.012 -2.56398 -1.64677e-20)
(-0.837566 -2.58537 2.70572e-22)
(-0.65699 -2.60593 -1.75927e-20)
(-0.469534 -2.6253 0)
(-0.274424 -2.64291 1.89102e-20)
(-0.0710586 -2.65809 0)
(0.141285 -2.67046 0)
(0.364034 -2.67983 5.19319e-21)
(0.599324 -2.68619 -2.70494e-20)
(0.850586 -2.68945 3.34356e-20)
(1.12236 -2.68948 -1.18346e-20)
(1.42108 -2.68613 -1.20903e-20)
(1.7557 -2.67902 -2.36087e-20)
(2.138 -2.66766 0)
(2.58411 -2.65342 0)
(3.1185 -2.64053 0)
(3.77794 -2.63763 0)
(4.61754 -2.66193 7.43198e-21)
(5.72002 -2.7468 -8.93746e-21)
(7.20529 -2.95487 5.73877e-20)
(9.24046 -3.39796 5.20785e-20)
(12.0229 -4.25735 -1.14992e-19)
(15.6091 -5.74249 0)
(-3.56535 -2.10552 -2.06552e-20)
(-3.48183 -2.12456 0)
(-3.39284 -2.14271 0)
(-3.29906 -2.16152 -1.14058e-20)
(-3.20045 -2.1808 1.15632e-20)
(-3.09729 -2.20038 1.18654e-20)
(-2.98978 -2.22039 -1.19757e-20)
(-2.87772 -2.24089 -1.21671e-20)
(-2.7611 -2.26163 0)
(-2.64021 -2.2824 0)
(-2.51516 -2.30325 -1.27732e-20)
(-2.38589 -2.32415 1.63579e-21)
(-2.25247 -2.34494 -1.86121e-21)
(-2.11501 -2.36558 1.95308e-22)
(-1.97341 -2.38616 -2.75712e-20)
(-1.82743 -2.40659 -2.99679e-20)
(-1.67704 -2.42668 1.44516e-20)
(-1.52232 -2.44651 1.85293e-21)
(-1.36281 -2.46629 0)
(-1.1978 -2.48601 1.56252e-20)
(-1.02672 -2.50555 1.60907e-20)
(-0.848904 -2.52473 -3.32171e-20)
(-0.6635 -2.54335 -9.92094e-24)
(-0.469417 -2.56114 0)
(-0.265109 -2.57762 -1.83667e-20)
(-0.0496098 -2.59154 1.90679e-20)
(0.17746 -2.60193 -2.44248e-21)
(0.417073 -2.60867 2.56872e-21)
(0.671424 -2.61196 1.0437e-20)
(0.944455 -2.61235 3.16228e-20)
(1.24159 -2.6101 1.03222e-20)
(1.56992 -2.60622 -1.06346e-20)