# Forces     
# CofR       : (0.000000e+00 0.000000e+00 0.000000e+00)
# Time       forces(pressure viscous porous) moment(pressure viscous porous)
5.000000e+00	((-4.213907e+01 -4.009263e+02 -9.201938e-19) (4.590243e-01 -4.883072e-02 1.716909e-20) (0.000000e+00 0.000000e+00 0.000000e+00)) ((2.004632e+01 -2.106953e+00 -1.066230e+02) (2.441536e-03 2.295122e-02 -1.258357e-04) (0.000000e+00 0.000000e+00 0.000000e+00))
1.000000e+01	((-1.005865e+01 -9.570168e+01 -3.131245e-19) (4.327329e-01 -7.755384e-02 2.807735e-20) (0.000000e+00 0.000000e+00 0.000000e+00)) ((4.785084e+00 -5.029325e-01 -2.984774e+01) (3.877692e-03 2.163664e-02 -8.394754e-03) (0.000000e+00 0.000000e+00 0.000000e+00))
1.500000e+01	((3.613919e+00 3.438414e+01 -1.618021e-20) (4.097621e-01 -5.671246e-02 1.196649e-20) (0.000000e+00 0.000000e+00 0.000000e+00)) ((-1.719207e+00 1.806960e-01 9.466921e+00) (2.835623e-03 2.048811e-02 -3.609608e-03) (0.000000e+00 0.000000e+00 0.000000e+00))
2.000000e+01	((5.279504e-01 5.023118e+00 2.145084e-20) (3.864991e-01 -4.189566e-02 4.123821e-21) (0.000000e+00 0.000000e+00 0.000000e+00)) ((-2.511559e-01 2.639752e-02 1.840808e-01) (2.094783e-03 1.932495e-02 -4.072111e-04) (0.000000e+00 0.000000e+00 0.000000e+00))
2.500000e+01	((7.437561e-02 7.076364e-01 -3.435809e-20) (3.640557e-01 -3.749632e-02 1.172274e-20) (0.000000e+00 0.000000e+00 0.000000e+00)) ((-3.538182e-02 3.718780e-03 -2.928290e+00) (1.874816e-03 1.820279e-02 -6.724294e-06) (0.000000e+00 0.000000e+00 0.000000e+00))
3.000000e+01	((1.421976e+00 1.352920e+01 -4.356331e-20) (3.416978e-01 -3.511457e-02 8.802236e-21) (0.000000e+00 0.000000e+00 0.000000e+00)) ((-6.764601e-01 7.109879e-02 1.740384e+00) (1.755729e-03 1.708489e-02 1.690761e-05) (0.000000e+00 0.000000e+00 0.000000e+00))
3.500000e+01	((1.161473e+00 1.105069e+01 -1.900449e-21) (3.209812e-01 -3.313891e-02 7.220212e-21) (0.000000e+00 0.000000e+00 0.000000e+00)) ((-5.525343e-01 5.807367e-02 1.200276e+00) (1.656946e-03 1.604906e-02 -1.864887e-05) (0.000000e+00 0.000000e+00 0.000000e+00))
4.000000e+01	((9.273126e-01 8.822795e+00 -6.971931e-22) (3.035646e-01 -3.144877e-02 1.118167e-20) (0.000000e+00 0.000000e+00 0.000000e+00)) ((-4.411397e-01 4.636563e-02 -2.093922e-01) (1.572439e-03 1.517823e-02 -9.596526e-05) (0.000000e+00 0.000000e+00 0.000000e+00))
4.500000e+01	((1.115633e+00 1.061454e+01 -1.486296e-20) (2.897002e-01 -3.002243e-02 1.091805e-20) (0.000000e+00 0.000000e+00 0.000000e+00)) ((-5.307270e-01 5.578163e-02 3.939802e-01) (1.501122e-03 1.448501e-02 -1.255066e-04) (0.000000e+00 0.000000e+00 0.000000e+00))
5.000000e+01	((1.142211e+00 1.086742e+01 2.209557e-21) (2.775781e-01 -2.871527e-02 9.672648e-21) (0.000000e+00 0.000000e+00 0.000000e+00)) ((-5.433711e-01 5.711057e-02 5.482579e-01) (1.435764e-03 1.387890e-02 -1.182852e-04) (0.000000e+00 0.000000e+00 0.000000e+00))
5.500000e+01	((1.167199e+00 1.110516e+01 1.012138e-20) (2.672420e-01 -2.761856e-02 1.028855e-20) (0.000000e+00 0.000000e+00 0.000000e+00)) ((-5.552581e-01 5.835995e-02 3.693569e-01) (1.380928e-03 1.336210e-02 -1.260116e-04) (0.000000e+00 0.000000e+00 0.000000e+00))
6.000000e+01	((1.231939e+00 1.172112e+01 9.539319e-21) (2.578014e-01 -2.662491e-02 1.027029e-20) (0.000000e+00 0.000000e+00 0.000000e+00)) ((-5.860561e-01 6.159695e-02 4.937515e-01) (1.331246e-03 1.289007e-02 -1.298238e-04) (0.000000e+00 0.000000e+00 0.000000e+00))
6.500000e+01	((1.273867e+00 1.212004e+01 2.025183e-20) (2.491409e-01 -2.572391e-02 1.040666e-20) (0.000000e+00 0.000000e+00 0.000000e+00)) ((-6.060021e-01 6.369336e-02 5.514682e-01) (1.286195e-03 1.245705e-02 -1.247770e-04) (0.000000e+00 0.000000e+00 0.000000e+00))
7.000000e+01	((1.318710e+00 1.254669e+01 2.439021e-20) (2.411700e-01 -2.490192e-02 1.023371e-20) (0.000000e+00 0.000000e+00 0.000000e+00)) ((-6.273345e-01 6.593549e-02 5.455510e-01) (1.245096e-03 1.205850e-02 -1.225597e-04) (0.000000e+00 0.000000e+00 0.000000e+00))
7.500000e+01	((1.362191e+00 1.296039e+01 3.048037e-20) (2.336588e-01 -2.416365e-02 1.004277e-20) (0.000000e+00 0.000000e+00 0.000000e+00)) ((-6.480193e-01 6.810956e-02 5.870174e-01) (1.208182e-03 1.168294e-02 -1.106724e-04) (0.000000e+00 0.000000e+00 0.000000e+00))
8.000000e+01	((1.394389e+00 1.326673e+01 3.928319e-20) (2.266673e-01 -2.347514e-02 9.887888e-21) (0.000000e+00 0.000000e+00 0.000000e+00)) ((-6.633365e-01 6.971947e-02 5.634557e-01) (1.173757e-03 1.133336e-02 -9.988829e-05) (0.000000e+00 0.000000e+00 0.000000e+00))
8.500000e+01	((1.419569e+00 1.350630e+01 4.329031e-20) (2.201430e-01 -2.283101e-02 1.019512e-20) (0.000000e+00 0.000000e+00 0.000000e+00)) ((-6.753149e-01 7.097846e-02 5.573677e-01) (1.141551e-03 1.100715e-02 -9.069532e-05) (0.000000e+00 0.000000e+00 0.000000e+00))
9.000000e+01	((1.442479e+00 1.372427e+01 4.778095e-20) (2.140220e-01 -2.223062e-02 1.053435e-20) (0.000000e+00 0.000000e+00 0.000000e+00)) ((-6.862137e-01 7.212397e-02 5.100900e-01) (1.111531e-03 1.070110e-02 -8.090462e-05) (0.000000e+00 0.000000e+00 0.000000e+00))
9.500000e+01	((1.453089e+00 1.382521e+01 4.937326e-20) (2.082824e-01 -2.166621e-02 1.066119e-20) (0.000000e+00 0.000000e+00 0.000000e+00)) ((-6.912605e-01 7.265443e-02 4.769242e-01) (1.083310e-03 1.041412e-02 -7.220541e-05) (0.000000e+00 0.000000e+00 0.000000e+00))
1.000000e+02	((1.460788e+00 1.389846e+01 5.095828e-20) (2.029148e-01 -2.113200e-02 1.093484e-20) (0.000000e+00 0.000000e+00 0.000000e+00)) ((-6.949231e-01 7.303939e-02 4.356398e-01) (1.056600e-03 1.014574e-02 -6.528549e-05) (0.000000e+00 0.000000e+00 0.000000e+00))
1.050000e+02	((1.463373e+00 1.392305e+01 5.071237e-20) (1.978992e-01 -2.062414e-02 1.134301e-20) (0.000000e+00 0.000000e+00 0.000000e+00)) ((-6.961527e-01 7.316864e-02 4.022163e-01) (1.031207e-03 9.894961e-03 -6.095772e-05) (0.000000e+00 0.000000e+00 0.000000e+00))
1.100000e+02	((1.463564e+00 1.392487e+01 5.082412e-20) (1.932445e-01 -2.014085e-02 1.143948e-20) (0.000000e+00 0.000000e+00 0.000000e+00)) ((-6.962436e-01 7.317820e-02 3.585483e-01) (1.007042e-03 9.662226e-03 -5.958436e-05) (0.000000e+00 0.000000e+00 0.000000e+00))
1.150000e+02	((1.461356e+00 1.390386e+01 4.912418e-20) (1.889041e-01 -1.969123e-02 1.174456e-20) (0.000000e+00 0.000000e+00 0.000000e+00)) ((-6.951930e-01 7.306778e-02 3.235637e-01) (9.845617e-04 9.445205e-03 -5.804133e-05) (0.000000e+00 0.000000e+00 0.000000e+00))
1.200000e+02	((1.457148e+00 1.386382e+01 4.805434e-20) (1.848665e-01 -1.927128e-02 1.181828e-20) (0.000000e+00 0.000000e+00 0.000000e+00)) ((-6.931912e-01 7.285738e-02 2.906061e-01) (9.635639e-04 9.243323e-03 -5.674982e-05) (0.000000e+00 0.000000e+00 0.000000e+00))
1.250000e+02	((1.451778e+00 1.381273e+01 4.705726e-20) (1.811012e-01 -1.887878e-02 1.191275e-20) (0.000000e+00 0.000000e+00 0.000000e+00)) ((-6.906365e-01 7.258888e-02 2.503461e-01) (9.439392e-04 9.055058e-03 -5.578783e-05) (0.000000e+00 0.000000e+00 0.000000e+00))
1.300000e+02	((1.446028e+00 1.375802e+01 4.592941e-20) (1.775887e-01 -1.851072e-02 1.197837e-20) (0.000000e+00 0.000000e+00 0.000000e+00)) ((-6.879011e-01 7.230138e-02 2.162661e-01) (9.255361e-04 8.879435e-03 -5.506928e-05) (0.000000e+00 0.000000e+00 0.000000e+00))
1.350000e+02	((1.440782e+00 1.370811e+01 4.470801e-20) (1.743102e-01 -1.816510e-02 1.208955e-20) (0.000000e+00 0.000000e+00 0.000000e+00)) ((-6.854056e-01 7.203909e-02 1.876520e-01) (9.082551e-04 8.715510e-03 -5.487166e-05) (0.000000e+00 0.000000e+00 0.000000e+00))
1.400000e+02	((1.435262e+00 1.365560e+01 4.345703e-20) (1.712232e-01 -1.784428e-02 1.207321e-20) (0.000000e+00 0.000000e+00 0.000000e+00)) ((-6.827800e-01 7.176312e-02 1.601852e-01) (8.922139e-04 8.561162e-03 -5.350818e-05) (0.000000e+00 0.000000e+00 0.000000e+00))
1.450000e+02	((1.428993e+00 1.359595e+01 4.242373e-20) (1.683758e-01 -1.753882e-02 1.228319e-20) (0.000000e+00 0.000000e+00 0.000000e+00)) ((-6.797973e-01 7.144963e-02 1.280046e-01) (8.769409e-04 8.418792e-03 -5.458595e-05) (0.000000e+00 0.000000e+00 0.000000e+00))
1.500000e+02	((1.424878e+00 1.355680e+01 4.127796e-20) (1.656670e-01 -1.726103e-02 1.224907e-20) (0.000000e+00 0.000000e+00 0.000000e+00)) ((-6.778400e-01 7.124391e-02 1.082433e-01) (8.630514e-04 8.283348e-03 -5.256544e-05) (0.000000e+00 0.000000e+00 0.000000e+00))
1.550000e+02	((1.420020e+00 1.351058e+01 4.066982e-20) (1.632042e-01 -1.699483e-02 1.239577e-20) (0.000000e+00 0.000000e+00 0.000000e+00)) ((-6.755290e-01 7.100102e-02 8.781960e-02) (8.497413e-04 8.160208e-03 -5.401214e-05) (0.000000e+00 0.000000e+00 0.000000e+00))
1.600000e+02	((1.416706e+00 1.347904e+01 3.977523e-20) (1.608451e-01 -1.675450e-02 1.221948e-20) (0.000000e+00 0.000000e+00 0.000000e+00)) ((-6.739521e-01 7.083528e-02 7.423548e-02) (8.377251e-04 8.042254e-03 -5.225954e-05) (0.000000e+00 0.000000e+00 0.000000e+00))
1.650000e+02	((1.413699e+00 1.345043e+01 3.902956e-20) (1.587430e-01 -1.652608e-02 1.245731e-20) (0.000000e+00 0.000000e+00 0.000000e+00)) ((-6.725216e-01 7.068493e-02 6.086125e-02) (8.263042e-04 7.937151e-03 -5.407909e-05) (0.000000e+00 0.000000e+00 0.000000e+00))
1.700000e+02	((1.411724e+00 1.343165e+01 3.802830e-20) (1.567235e-01 -1.632155e-02 1.225287e-20) (0.000000e+00 0.000000e+00 0.000000e+00)) ((-6.715823e-01 7.058620e-02 5.324166e-02) (8.160776e-04 7.836174e-03 -5.270616e-05) (0.000000e+00 0.000000e+00 0.000000e+00))
1.750000e+02	((1.410560e+00 1.342057e+01 3.752509e-20) (1.549496e-01 -1.612770e-02 1.240059e-20) (0.000000e+00 0.000000e+00 0.000000e+00)) ((-6.710286e-01 7.052800e-02 4.864431e-02) (8.063850e-04 7.747482e-03 -5.476149e-05) (0.000000e+00 0.000000e+00 0.000000e+00))
1.800000e+02	((1.410834e+00 1.342318e+01 3.669608e-20) (1.532365e-01 -1.595509e-02 1.220351e-20) (0.000000e+00 0.000000e+00 0.000000e+00)) ((-6.711589e-01 7.054170e-02 4.809758e-02) (7.977547e-04 7.661827e-03 -5.355066e-05) (0.000000e+00 0.000000e+00 0.000000e+00))
1.850000e+02	((1.411534e+00 1.342984e+01 3.619135e-20) (1.517553e-01 -1.579231e-02 1.234999e-20) (0.000000e+00 0.000000e+00 0.000000e+00)) ((-6.714921e-01 7.057671e-02 4.973319e-02) (7.896155e-04 7.587764e-03 -5.562845e-05) (0.000000e+00 0.000000e+00 0.000000e+00))
1.900000e+02	((1.413392e+00 1.344751e+01 3.542178e-20) (1.503109e-01 -1.564743e-02 1.218960e-20) (0.000000e+00 0.000000e+00 0.000000e+00)) ((-6.723756e-01 7.066958e-02 5.366709e-02) (7.823714e-04 7.515547e-03 -5.458904e-05) (0.000000e+00 0.000000e+00 0.000000e+00))
1.950000e+02	((1.415281e+00 1.346549e+01 3.502610e-20) (1.490769e-01 -1.551090e-02 1.235062e-20) (0.000000e+00 0.000000e+00 0.000000e+00)) ((-6.732744e-01 7.076404e-02 5.922703e-02) (7.755450e-04 7.453844e-03 -5.661918e-05) (0.000000e+00 0.000000e+00 0.000000e+00))
2.000000e+02	((1.418620e+00 1.349726e+01 3.436199e-20) (1.478595e-01 -1.538981e-02 1.218799e-20) (0.000000e+00 0.000000e+00 0.000000e+00)) ((-6.748631e-01 7.093102e-02 6.673067e-02) (7.694904e-04 7.392974e-03 -5.558882e-05) (0.000000e+00 0.000000e+00 0.000000e+00))
2.050000e+02	((1.421369e+00 1.352342e+01 3.394348e-20) (1.468304e-01 -1.527472e-02 1.242003e-20) (0.000000e+00 0.000000e+00 0.000000e+00)) ((-6.761708e-01 7.106847e-02 7.344222e-02) (7.637360e-04 7.341519e-03 -5.762209e-05) (0.000000e+00 0.000000e+00 0.000000e+00))
2.100000e+02	((1.424590e+00 1.355406e+01 3.346588e-20) (1.457997e-01 -1.517318e-02 1.225224e-20) (0.000000e+00 0.000000e+00 0.000000e+00)) ((-6.777028e-01 7.122948e-02 8.080314e-02) (7.586592e-04 7.289985e-03 -5.653532e-05) (0.000000e+00 0.000000e+00 0.000000e+00))
2.150000e+02	((1.428091e+00 1.358737e+01 3.331861e-20) (1.449365e-01 -1.507543e-02 1.241354e-20) (0.000000e+00 0.000000e+00 0.000000e+00)) ((-6.793683e-01 7.140453e-02 8.901724e-02) (7.537714e-04 7.246825e-03 -5.848280e-05) (0.000000e+00 0.000000e+00 0.000000e+00))
2.200000e+02	((1.431782e+00 1.362249e+01 3.297688e-20) (1.440535e-01 -1.498928e-02 1.224878e-20) (0.000000e+00 0.000000e+00 0.000000e+00)) ((-6.811244e-01 7.158910e-02 9.683852e-02) (7.494642e-04 7.202676e-03 -5.740170e-05) (0.000000e+00 0.000000e+00 0.000000e+00))
2.250000e+02	((1.435498e+00 1.365784e+01 3.279496e-20) (1.433190e-01 -1.490526e-02 1.246472e-20) (0.000000e+00 0.000000e+00 0.000000e+00)) ((-6.828922e-01 7.177491e-02 1.052666e-01) (7.452632e-04 7.165952e-03 -5.920975e-05) (0.000000e+00 0.000000e+00 0.000000e+00))
2.300000e+02	((1.439072e+00 1.369185e+01 3.251396e-20) (1.425502e-01 -1.483107e-02 1.230116e-20) (0.000000e+00 0.000000e+00 0.000000e+00)) ((-6.845925e-01 7.195362e-02 1.129371e-01) (7.415536e-04 7.127511e-03 -5.802531e-05) (0.000000e+00 0.000000e+00 0.000000e+00))
2.350000e+02	((1.442495e+00 1.372442e+01 3.248396e-20) (1.419127e-01 -1.475733e-02 1.251289e-20) (0.000000e+00 0.000000e+00 0.000000e+00)) ((-6.862209e-01 7.212476e-02 1.205394e-01) (7.378663e-04 7.095633e-03 -5.975552e-05) (0.000000e+00 0.000000e+00 0.000000e+00))
2.400000e+02	((1.445920e+00 1.375701e+01 3.227069e-20) (1.412295e-01 -1.469214e-02 1.235083e-20) (0.000000e+00 0.000000e+00 0.000000e+00)) ((-6.878503e-01 7.229602e-02 1.277754e-01) (7.346070e-04 7.061474e-03 -5.850437e-05) (0.000000e+00 0.000000e+00 0.000000e+00))
2.450000e+02	((1.449188e+00 1.378809e+01 3.234550e-20) (1.406658e-01 -1.462621e-02 1.256094e-20) (0.000000e+00 0.000000e+00 0.000000e+00)) ((-6.894046e-01 7.245939e-02 1.350416e-01) (7.313105e-04 7.033290e-03 -6.015262e-05) (0.000000e+00 0.000000e+00 0.000000e+00))
2.500000e+02	((1.452295e+00 1.381766e+01 3.218028e-20) (1.400475e-01 -1.456789e-02 1.240010e-20) (0.000000e+00 0.000000e+00 0.000000e+00)) ((-6.908828e-01 7.261476e-02 1.417260e-01) (7.283946e-04 7.002376e-03 -5.882831e-05) (0.000000e+00 0.000000e+00 0.000000e+00))
2.550000e+02	((1.455167e+00 1.384498e+01 3.231807e-20) (1.395418e-01 -1.450808e-02 1.261056e-20) (0.000000e+00 0.000000e+00 0.000000e+00)) ((-6.922489e-01 7.275834e-02 1.482396e-01) (7.254039e-04 6.977088e-03 -6.042880e-05) (0.000000e+00 0.000000e+00 0.000000e+00))
2.600000e+02	((1.457857e+00 1.387057e+01 3.218951e-20) (1.389751e-01 -1.445527e-02 1.244796e-20) (0.000000e+00 0.000000e+00 0.000000e+00)) ((-6.935287e-01 7.289285e-02 1.542619e-01) (7.227634e-04 6.948753e-03 -5.904579e-05) (0.000000e+00 0.000000e+00 0.000000e+00))
2.650000e+02	((1.460306e+00 1.389388e+01 3.235304e-20) (1.385175e-01 -1.440049e-02 1.265918e-20) (0.000000e+00 0.000000e+00 0.000000e+00)) ((-6.946940e-01 7.301532e-02 1.601104e-01) (7.200243e-04 6.925875e-03 -6.061239e-05) (0.000000e+00 0.000000e+00 0.000000e+00))
2.700000e+02	((1.462354e+00 1.391336e+01 3.229451e-20) (1.379944e-01 -1.435233e-02 1.247267e-20) (0.000000e+00 0.000000e+00 0.000000e+00)) ((-6.956681e-01 7.311771e-02 1.651192e-01) (7.176165e-04 6.899721e-03 -5.917561e-05) (0.000000e+00 0.000000e+00 0.000000e+00))
2.750000e+02	((1.464534e+00 1.393411e+01 3.245042e-20) (1.375796e-01 -1.430198e-02 1.268799e-20) (0.000000e+00 0.000000e+00 0.000000e+00)) ((-6.967053e-01 7.322672e-02 1.706041e-01) (7.150989e-04 6.878982e-03 -6.072710e-05) (0.000000e+00 0.000000e+00 0.000000e+00))
2.800000e+02	((1.466173e+00 1.394969e+01 3.235322e-20) (1.370955e-01 -1.425796e-02 1.250405e-20) (0.000000e+00 0.000000e+00 0.000000e+00)) ((-6.974846e-01 7.330863e-02 1.752831e-01) (7.128978e-04 6.854774e-03 -5.923127e-05) (0.000000e+00 0.000000e+00 0.000000e+00))
2.850000e+02	((1.467758e+00 1.396478e+01 3.247598e-20) (1.367197e-01 -1.421160e-02 1.272424e-20) (0.000000e+00 0.000000e+00 0.000000e+00)) ((-6.982389e-01 7.338791e-02 1.797479e-01) (7.105798e-04 6.835986e-03 -6.077700e-05) (0.000000e+00 0.000000e+00 0.000000e+00))
2.900000e+02	((1.468961e+00 1.397623e+01 3.232781e-20) (1.362723e-01 -1.417148e-02 1.253879e-20) (0.000000e+00 0.000000e+00 0.000000e+00)) ((-6.988113e-01 7.344807e-02 1.839706e-01) (7.085742e-04 6.813614e-03 -5.924848e-05) (0.000000e+00 0.000000e+00 0.000000e+00))
2.950000e+02	((1.469952e+00 1.398565e+01 3.240639e-20) (1.359330e-01 -1.412879e-02 1.276320e-20) (0.000000e+00 0.000000e+00 0.000000e+00)) ((-6.992827e-01 7.349762e-02 1.873388e-01) (7.064394e-04 6.796650e-03 -6.078962e-05) (0.000000e+00 0.000000e+00 0.000000e+00))
3.000000e+02	((1.470654e+00 1.399233e+01 3.223272e-20) (1.355214e-01 -1.409250e-02 1.257294e-20) (0.000000e+00 0.000000e+00 0.000000e+00)) ((-6.996163e-01 7.353268e-02 1.907709e-01) (7.046249e-04 6.776071e-03 -5.923084e-05) (0.000000e+00 0.000000e+00 0.000000e+00))
3.050000e+02	((1.471157e+00 1.399711e+01 3.230566e-20) (1.352172e-01 -1.405349e-02 1.278198e-20) (0.000000e+00 0.000000e+00 0.000000e+00)) ((-6.998557e-01 7.355784e-02 1.938555e-01) (7.026744e-04 6.760860e-03 -6.074228e-05) (0.000000e+00 0.000000e+00 0.000000e+00))
3.100000e+02	((1.471412e+00 1.399954e+01 3.209953e-20) (1.348389e-01 -1.402067e-02 1.258843e-20) (0.000000e+00 0.000000e+00 0.000000e+00)) ((-6.999771e-01 7.357061e-02 1.964382e-01) (7.010333e-04 6.741945e-03 -5.917691e-05) (0.000000e+00 0.000000e+00 0.000000e+00))
3.150000e+02	((1.471476e+00 1.400015e+01 3.211974e-20) (1.345700e-01 -1.398527e-02 1.279870e-20) (0.000000e+00 0.000000e+00 0.000000e+00)) ((-7.000075e-01 7.357380e-02 1.986993e-01) (6.992635e-04 6.728502e-03 -6.069200e-05) (0.000000e+00 0.000000e+00 0.000000e+00))
3.200000e+02	((1.471325e+00 1.399871e+01 3.186344e-20) (1.342249e-01 -1.395594e-02 1.260391e-20) (0.000000e+00 0.000000e+00 0.000000e+00)) ((-6.999357e-01 7.356625e-02 2.003324e-01) (6.977971e-04 6.711243e-03 -5.911481e-05) (0.000000e+00 0.000000e+00 0.000000e+00))
3.250000e+02	((1.470992e+00 1.399554e+01 3.180946e-20) (1.339887e-01 -1.392385e-02 1.283404e-20) (0.000000e+00 0.000000e+00 0.000000e+00)) ((-6.997772e-01 7.354960e-02 2.018542e-01) (6.961927e-04 6.699437e-03 -6.063873e-05) (0.000000e+00 0.000000e+00 0.000000e+00))
3.300000e+02	((1.470386e+00 1.398978e+01 3.153554e-20) (1.336758e-01 -1.389795e-02 1.263065e-20) (0.000000e+00 0.000000e+00 0.000000e+00)) ((-6.994889e-01 7.351929e-02 2.031027e-01) (6.948974e-04 6.683791e-03 -5.904345e-05) (0.000000e+00 0.000000e+00 0.000000e+00))
3.350000e+02	((1.469757e+00 1.398380e+01 3.155063e-20) (1.334718e-01 -1.386924e-02 1.282724e-20) (0.000000e+00 0.000000e+00 0.000000e+00)) ((-6.991899e-01 7.348787e-02 2.040027e-01) (6.934618e-04 6.673589e-03 -6.055956e-05) (0.000000e+00 0.000000e+00 0.000000e+00))
3.400000e+02	((1.468966e+00 1.397627e+01 3.128505e-20) (1.331899e-01 -1.384649e-02 1.262142e-20) (0.000000e+00 0.000000e+00 0.000000e+00)) ((-6.988136e-01 7.344832e-02 2.045753e-01) (6.923244e-04 6.659497e-03 -5.898460e-05) (0.000000e+00 0.000000e+00 0.000000e+00))
3.450000e+02	((1.467946e+00 1.396656e+01 3.116407e-20) (1.330171e-01 -1.382109e-02 1.285177e-20) (0.000000e+00 0.000000e+00 0.000000e+00)) ((-6.983281e-01 7.339729e-02 2.049693e-01) (6.910544e-04 6.650855e-03 -6.048888e-05) (0.000000e+00 0.000000e+00 0.000000e+00))
3.500000e+02	((1.466890e+00 1.395652e+01 3.088177e-20) (1.327647e-01 -1.380147e-02 1.264480e-20) (0.000000e+00 0.000000e+00 0.000000e+00)) ((-6.978258e-01 7.334450e-02 2.051334e-01) (6.900733e-04 6.638235e-03 -5.890282e-05) (0.000000e+00 0.000000e+00 0.000000e+00))
3.550000e+02	((1.465623e+00 1.394446e+01 3.084266e-20) (1.326206e-01 -1.377904e-02 1.284409e-20) (0.000000e+00 0.000000e+00 0.000000e+00)) ((-6.972232e-01 7.328116e-02 2.050529e-01) (6.889519e-04 6.631032e-03 -6.041206e-05) (0.000000e+00 0.000000e+00 0.000000e+00))
3.600000e+02	((1.464453e+00 1.393333e+01 3.055248e-20) (1.323961e-01 -1.376227e-02 1.263980e-20) (0.000000e+00 0.000000e+00 0.000000e+00)) ((-6.966665e-01 7.322265e-02 2.049077e-01) (6.881137e-04 6.619803e-03 -5.883351e-05) (0.000000e+00 0.000000e+00 0.000000e+00))
3.650000e+02	((1.462984e+00 1.391935e+01 3.051680e-20) (1.322791e-01 -1.374270e-02 1.283557e-20) (0.000000e+00 0.000000e+00 0.000000e+00)) ((-6.959677e-01 7.314920e-02 2.044531e-01) (6.871348e-04 6.613953e-03 -6.033411e-05) (0.000000e+00 0.000000e+00 0.000000e+00))
3.700000e+02	((1.461696e+00 1.390710e+01 3.022698e-20) (1.320804e-01 -1.372866e-02 1.263106e-20) (0.000000e+00 0.000000e+00 0.000000e+00)) ((-6.953548e-01 7.308478e-02 2.041291e-01) (6.864329e-04 6.604020e-03 -5.877756e-05) (0.000000e+00 0.000000e+00 0.000000e+00))
3.750000e+02	((1.460118e+00 1.389209e+01 3.020099e-20) (1.319879e-01 -1.371170e-02 1.282353e-20) (0.000000e+00 0.000000e+00 0.000000e+00)) ((-6.946043e-01 7.300589e-02 2.034837e-01) (6.855852e-04 6.599397e-03 -6.029985e-05) (0.000000e+00 0.000000e+00 0.000000e+00))
3.800000e+02	((1.458756e+00 1.387913e+01 2.991906e-20) (1.318131e-01 -1.370014e-02 1.261844e-20) (0.000000e+00 0.000000e+00 0.000000e+00)) ((-6.939564e-01 7.293781e-02 2.030695e-01) (6.850069e-04 6.590655e-03 -5.876982e-05) (0.000000e+00 0.000000e+00 0.000000e+00))
3.850000e+02	((1.457121e+00 1.386357e+01 2.990595e-20) (1.317427e-01 -1.368553e-02 1.280763e-20) (0.000000e+00 0.000000e+00 0.000000e+00)) ((-6.931785e-01 7.285604e-02 2.023397e-01) (6.842767e-04 6.587133e-03 -6.029337e-05) (0.000000e+00 0.000000e+00 0.000000e+00))
3.900000e+02	((1.455734e+00 1.385037e+01 2.963670e-20) (1.315893e-01 -1.367618e-02 1.260244e-20) (0.000000e+00 0.000000e+00 0.000000e+00)) ((-6.925186e-01 7.278668e-02 2.019250e-01) (6.838090e-04 6.579466e-03 -5.878159e-05) (0.000000e+00 0.000000e+00 0.000000e+00))
3.950000e+02	((1.454089e+00 1.383473e+01 2.963830e-20) (1.315384e-01 -1.366367e-02 1.278840e-20) (0.000000e+00 0.000000e+00 0.000000e+00)) ((-6.917363e-01 7.270446e-02 2.012201e-01) (6.831834e-04 6.576919e-03 -6.030431e-05) (0.000000e+00 0.000000e+00 0.000000e+00))
4.000000e+02	((1.452716e+00 1.382166e+01 2.938403e-20) (1.314042e-01 -1.365628e-02 1.258375e-20) (0.000000e+00 0.000000e+00 0.000000e+00)) ((-6.910831e-01 7.263580e-02 2.008841e-01) (6.828138e-04 6.570210e-03 -5.881122e-05) (0.000000e+00 0.000000e+00 0.000000e+00))
4.050000e+02	((1.451105e+00 1.380634e+01 2.940148e-20) (1.313703e-01 -1.364561e-02 1.276664e-20) (0.000000e+00 0.000000e+00 0.000000e+00)) ((-6.903168e-01 7.255527e-02 2.002910e-01) (6.822803e-04 6.568515e-03 -6.033062e-05) (0.000000e+00 0.000000e+00 0.000000e+00))
4.100000e+02	((1.449690e+00 1.379287e+01 2.917215e-20) (1.312531e-01 -1.363997e-02 1.255733e-20) (0.000000e+00 0.000000e+00 0.000000e+00)) ((-6.896433e-01 7.248448e-02 2.000900e-01) (6.819987e-04 6.562656e-03 -5.884979e-05) (0.000000e+00 0.000000e+00 0.000000e+00))
4.150000e+02	((1.448288e+00 1.377953e+01 2.920204e-20) (1.312337e-01 -1.363084e-02 1.274146e-20) (0.000000e+00 0.000000e+00 0.000000e+00)) ((-6.889765e-01 7.241439e-02 1.997442e-01) (6.815420e-04 6.561683e-03 -6.036790e-05) (0.000000e+00 0.000000e+00 0.000000e+00))
4.200000e+02	((1.446931e+00 1.376662e+01 2.899171e-20) (1.311314e-01 -1.362666e-02 1.253392e-20) (0.000000e+00 0.000000e+00 0.000000e+00)) ((-6.883309e-01 7.234654e-02 1.995934e-01) (6.813331e-04 6.556570e-03 -5.891319e-05) (0.000000e+00 0.000000e+00 0.000000e+00))
4.250000e+02	((1.445542e+00 1.375340e+01 2.904943e-20) (1.311246e-01 -1.361897e-02 1.270975e-20) (0.000000e+00 0.000000e+00 0.000000e+00)) ((-6.876701e-01 7.227708e-02 1.994662e-01) (6.809487e-04 6.556231e-03 -6.042173e-05) (0.000000e+00 0.000000e+00 0.000000e+00))
4.300000e+02	((1.444389e+00 1.374243e+01 2.887191e-20) (1.310354e-01 -1.361609e-02 1.250378e-20) (0.000000e+00 0.000000e+00 0.000000e+00)) ((-6.871216e-01 7.221944e-02 1.994923e-01) (6.808047e-04 6.551771e-03 -5.897782e-05) (0.000000e+00 0.000000e+00 0.000000e+00))
4.350000e+02	((1.443046e+00 1.372966e+01 2.885610e-20) (1.310400e-01 -1.360969e-02 1.270535e-20) (0.000000e+00 0.000000e+00 0.000000e+00)) ((-6.864829e-01 7.215230e-02 1.995323e-01) (6.804847e-04 6.552002e-03 -6.046951e-05) (0.000000e+00 0.000000e+00 0.000000e+00))
4.400000e+02	((1.441876e+00 1.371853e+01 2.867996e-20) (1.309622e-01 -1.360800e-02 1.250217e-20) (0.000000e+00 0.000000e+00 0.000000e+00)) ((-6.859264e-01 7.209381e-02 1.997448e-01) (6.803999e-04 6.548112e-03 -5.903270e-05) (0.000000e+00 0.000000e+00 0.000000e+00))
4.450000e+02	((1.440650e+00 1.370686e+01 2.875485e-20) (1.309763e-01 -1.360263e-02 1.267403e-20) (0.000000e+00 0.000000e+00 0.000000e+00)) ((-6.853431e-01 7.203250e-02 2.000168e-01) (6.801313e-04 6.548813e-03 -6.051355e-05) (0.000000e+00 0.000000e+00 0.000000e+00))
4.500000e+02	((1.439674e+00 1.369757e+01 2.862138e-20) (1.309082e-01 -1.360183e-02 1.246803e-20) (0.000000e+00 0.000000e+00 0.000000e+00)) ((-6.848786e-01 7.198369e-02 2.003301e-01) (6.800916e-04 6.545409e-03 -5.909968e-05) (0.000000e+00 0.000000e+00 0.000000e+00))
4.550000e+02	((1.438596e+00 1.368731e+01 2.865018e-20) (1.309311e-01 -1.359744e-02 1.266148e-20) (0.000000e+00 0.000000e+00 0.000000e+00)) ((-6.843657e-01 7.192978e-02 2.006833e-01) (6.798721e-04 6.546556e-03 -6.057184e-05) (0.000000e+00 0.000000e+00 0.000000e+00))
4.600000e+02	((1.437520e+00 1.367708e+01 2.850281e-20) (1.308725e-01 -1.359768e-02 1.245834e-20) (0.000000e+00 0.000000e+00 0.000000e+00)) ((-6.838542e-01 7.187602e-02 2.011457e-01) (6.798841e-04 6.543624e-03 -5.914738e-05) (0.000000e+00 0.000000e+00 0.000000e+00))
4.650000e+02	((1.436598e+00 1.366831e+01 2.856311e-20) (1.309022e-01 -1.359405e-02 1.264731e-20) (0.000000e+00 0.000000e+00 0.000000e+00)) ((-6.834155e-01 7.182990e-02 2.016056e-01) (6.797024e-04 6.545108e-03 -6.060753e-05) (0.000000e+00 0.000000e+00 0.000000e+00))
4.700000e+02	((1.435720e+00 1.365996e+01 2.843883e-20) (1.308524e-01 -1.359510e-02 1.244687e-20) (0.000000e+00 0.000000e+00 0.000000e+00)) ((-6.829979e-01 7.178602e-02 2.020349e-01) (6.797550e-04 6.542621e-03 -5.920323e-05) (0.000000e+00 0.000000e+00 0.000000e+00))
4.750000e+02	((1.434703e+00 1.365028e+01 2.855382e-20) (1.308886e-01 -1.359230e-02 1.260917e-20) (0.000000e+00 0.000000e+00 0.000000e+00)) ((-6.825140e-01 7.173515e-02 2.026014e-01) (6.796152e-04 6.544430e-03 -6.063436e-05) (0.000000e+00 0.000000e+00 0.000000e+00))
4.800000e+02	((1.434024e+00 1.364382e+01 2.839373e-20) (1.308459e-01 -1.359401e-02 1.243522e-20) (0.000000e+00 0.000000e+00 0.000000e+00)) ((-6.821908e-01 7.170119e-02 2.030156e-01) (6.797004e-04 6.542295e-03 -5.924366e-05) (0.000000e+00 0.000000e+00 0.000000e+00))
4.850000e+02	((1.433068e+00 1.363472e+01 2.850408e-20) (1.308890e-01 -1.359198e-02 1.259723e-20) (0.000000e+00 0.000000e+00 0.000000e+00)) ((-6.817359e-01 7.165338e-02 2.035225e-01) (6.795991e-04 6.544448e-03 -6.066009e-05) (0.000000e+00 0.000000e+00 0.000000e+00))
4.900000e+02	((1.432345e+00 1.362785e+01 2.840710e-20) (1.308523e-01 -1.359434e-02 1.240417e-20) (0.000000e+00 0.000000e+00 0.000000e+00)) ((-6.813924e-01 7.161727e-02 2.039761e-01) (6.797172e-04 6.542615e-03 -5.926704e-05) (0.000000e+00 0.000000e+00 0.000000e+00))
4.950000e+02	((1.431577e+00 1.362054e+01 2.848314e-20) (1.309010e-01 -1.359290e-02 1.258503e-20) (0.000000e+00 0.000000e+00 0.000000e+00)) ((-6.810268e-01 7.157884e-02 2.043717e-01) (6.796451e-04 6.545051e-03 -6.068038e-05) (0.000000e+00 0.000000e+00 0.000000e+00))
5.000000e+02	((1.430783e+00 1.361298e+01 2.837335e-20) (1.308707e-01 -1.359592e-02 1.239441e-20) (0.000000e+00 0.000000e+00 0.000000e+00)) ((-6.806491e-01 7.153915e-02 2.047701e-01) (6.797961e-04 6.543534e-03 -5.928652e-05) (0.000000e+00 0.000000e+00 0.000000e+00))
5.050000e+02	((1.430060e+00 1.360610e+01 2.846546e-20) (1.309240e-01 -1.359505e-02 1.257217e-20) (0.000000e+00 0.000000e+00 0.000000e+00)) ((-6.803052e-01 7.150300e-02 2.051030e-01) (6.797527e-04 6.546202e-03 -6.068444e-05) (0.000000e+00 0.000000e+00 0.000000e+00))
5.100000e+02	((1.429303e+00 1.359890e+01 2.835240e-20) (1.308995e-01 -1.359863e-02 1.238475e-20) (0.000000e+00 0.000000e+00 0.000000e+00)) ((-6.799452e-01 7.146516e-02 2.054047e-01) (6.799314e-04 6.544974e-03 -5.929590e-05) (0.000000e+00 0.000000e+00 0.000000e+00))
5.150000e+02	((1.428612e+00 1.359233e+01 2.845539e-20) (1.309568e-01 -1.359822e-02 1.255981e-20) (0.000000e+00 0.000000e+00 0.000000e+00)) ((-6.796163e-01 7.143059e-02 2.056258e-01) (6.799112e-04 6.547840e-03 -6.068603e-05) (0.000000e+00 0.000000e+00 0.000000e+00))
5.200000e+02	((1.427927e+00 1.358581e+01 2.834714e-20) (1.309375e-01 -1.360231e-02 1.237442e-20) (0.000000e+00 0.000000e+00 0.000000e+00)) ((-6.792903e-01 7.139633e-02 2.058244e-01) (6.801157e-04 6.546874e-03 -5.930184e-05) (0.000000e+00 0.000000e+00 0.000000e+00))
5.250000e+02	((1.427213e+00 1.357902e+01 2.845013e-20) (1.309986e-01 -1.360237e-02 1.254738e-20) (0.000000e+00 0.000000e+00 0.000000e+00)) ((-6.789508e-01 7.136065e-02 2.059225e-01) (6.801187e-04 6.549929e-03 -6.067795e-05) (0.000000e+00 0.000000e+00 0.000000e+00))
5.300000e+02	((1.426566e+00 1.357286e+01 2.834670e-20) (1.309836e-01 -1.360690e-02 1.236385e-20) (0.000000e+00 0.000000e+00 0.000000e+00)) ((-6.786432e-01 7.132832e-02 2.060336e-01) (6.803449e-04 6.549180e-03 -5.929814e-05) (0.000000e+00 0.000000e+00 0.000000e+00))
5.350000e+02	((1.425870e+00 1.356624e+01 2.845110e-20) (1.310481e-01 -1.360735e-02 1.253504e-20) (0.000000e+00 0.000000e+00 0.000000e+00)) ((-6.783118e-01 7.129349e-02 2.059999e-01) (6.803674e-04 6.552405e-03 -6.066700e-05) (0.000000e+00 0.000000e+00 0.000000e+00))
5.400000e+02	((1.425235e+00 1.356020e+01 2.834902e-20) (1.310369e-01 -1.361225e-02 1.235343e-20) (0.000000e+00 0.000000e+00 0.000000e+00)) ((-6.780100e-01 7.126176e-02 2.060155e-01) (6.806125e-04 6.551845e-03 -5.929109e-05) (0.000000e+00 0.000000e+00 0.000000e+00))
5.450000e+02	((1.424558e+00 1.355376e+01 2.845460e-20) (1.311043e-01 -1.361305e-02 1.252283e-20) (0.000000e+00 0.000000e+00 0.000000e+00)) ((-6.776880e-01 7.122792e-02 2.058672e-01) (6.806526e-04 6.555217e-03 -6.065207e-05) (0.000000e+00 0.000000e+00 0.000000e+00))
5.500000e+02	((1.423938e+00 1.354786e+01 2.835236e-20) (1.310964e-01 -1.361828e-02 1.234315e-20) (0.000000e+00 0.000000e+00 0.000000e+00)) ((-6.773929e-01 7.119690e-02 2.057890e-01) (6.809139e-04 6.554821e-03 -5.928008e-05) (0.000000e+00 0.000000e+00 0.000000e+00))
5.550000e+02	((1.423279e+00 1.354159e+01 2.845863e-20) (1.311663e-01 -1.361938e-02 1.251092e-20) (0.000000e+00 0.000000e+00 0.000000e+00)) ((-6.770794e-01 7.116396e-02 2.055391e-01) (6.809688e-04 6.558315e-03 -6.063497e-05) (0.000000e+00 0.000000e+00 0.000000e+00))
5.600000e+02	((1.422674e+00 1.353583e+01 2.835577e-20) (1.311612e-01 -1.362487e-02 1.233308e-20) (0.000000e+00 0.000000e+00 0.000000e+00)) ((-6.767915e-01 7.113369e-02 2.053757e-01) (6.812437e-04 6.558058e-03 -5.926699e-05) (0.000000e+00 0.000000e+00 0.000000e+00))