/*--------------------------------*- C++ -*----------------------------------*\
| =========                 |                                                 |
| \\      /  F ield         | OpenFOAM: The Open Source CFD Toolbox           |
|  \\    /   O peration     | Version:  2.3.0                                 |
|   \\  /    A nd           | Web:      www.OpenFOAM.org                      |
|    \\/     M anipulation  |                                                 |
\*---------------------------------------------------------------------------*/
FoamFile
{
    version     2.0;
    format      ascii;
    class       surfaceScalarField;
    location    "10000";
    object      phi;
}
// * * * * * * * * * * * * * * * * * * * * * * * * * * * * * * * * * * * * * //

dimensions      [0 3 -1 0 0 0 0];

internalField   nonuniform List<scalar> 
28744
(
-0.00307323
-0.0132781
0.0145669
0.00178454
-0.00419802
-0.0122924
0.0134172
-0.00517301
-0.0113882
0.0123632
-0.00601176
-0.0105563
0.011395
-0.00672753
-0.00979086
0.0105066
-0.00733305
-0.00908622
0.00969174
-0.00784005
-0.00843751
0.00894453
-0.00826032
-0.0078406
0.00826088
-0.00860418
-0.00729059
0.00763447
-0.00888158
-0.00678427
0.00706167
-0.00910052
-0.00631754
0.00653651
-0.0092665
-0.00588802
0.006054
-0.00938482
-0.00549069
0.00560902
-0.00945646
-0.00512354
0.00519519
-0.00948292
-0.00478164
0.00480811
-0.00946258
-0.00446239
0.00444207
-0.00939409
-0.00416196
0.00409349
-0.00927525
-0.00387591
0.00375709
-0.0091062
-0.0036007
0.00343166
-0.00888697
-0.0033337
0.00311451
-0.00862394
-0.00306867
0.00280565
-0.0083267
-0.00280611
0.00250892
-0.00801035
-0.00254019
0.00222385
-0.00226521
-0.00763526
0.00189015
-0.00283331
-0.0121171
0.00167228
-0.00384179
-0.011284
-0.00471129
-0.0105187
-0.00545224
-0.00981533
-0.00607561
-0.00916748
-0.00659076
-0.00857107
-0.00700669
-0.00802158
-0.00733192
-0.00751536
-0.00757495
-0.00704755
-0.00774333
-0.00661589
-0.00784431
-0.00621655
-0.00788632
-0.005846
-0.00787476
-0.00550224
-0.00781669
-0.0051816
-0.00771517
-0.00488316
-0.00757472
-0.00460284
-0.00739624
-0.00434043
-0.00717992
-0.00409223
-0.00692272
-0.00385789
-0.00662054
-0.00363588
-0.00626436
-0.00342486
-0.00584474
-0.00322573
-0.00534877
-0.00303617
-0.00285848
-0.00475549
-0.00259758
-0.011072
0.00155253
-0.00350237
-0.0103792
-0.00427928
-0.00974177
-0.00493876
-0.00915585
-0.00549061
-0.00861563
-0.00594318
-0.0081185
-0.00630473
-0.00766002
-0.00658308
-0.00723701
-0.00678336
-0.00684727
-0.00691284
-0.00648641
-0.00697656
-0.00615282
-0.00697913
-0.00584343
-0.0069252
-0.00555617
-0.00681822
-0.00528858
-0.00666257
-0.00503881
-0.00646115
-0.00480426
-0.00621763
-0.00458395
-0.00593327
-0.00437659
-0.00561015
-0.00418102
-0.00525102
-0.00399501
-0.00485581
-0.00382006
-0.00442747
-0.00365407
-0.00396435
-0.00349928
-0.00335481
-0.00346802
-0.0023696
-0.0101328
0.0014304
-0.00318071
-0.00956806
-0.00387403
-0.00904844
-0.00445989
-0.00856999
-0.00494566
-0.00812985
-0.00534051
-0.00772365
-0.00565113
-0.0073494
-0.00588449
-0.00700364
-0.00604738
-0.00668438
-0.00614458
-0.00638921
-0.00618203
-0.00611538
-0.00616388
-0.00586158
-0.00609493
-0.00562512
-0.00597861
-0.0054049
-0.00581817
-0.00519925
-0.0056173
-0.00500513
-0.00537744
-0.00482381
-0.00510212
-0.00465191
-0.00479299
-0.00449015
-0.00445131
-0.00433669
-0.00407981
-0.00419156
-0.00367911
-0.00405477
-0.00325124
-0.00392715
-0.00380736
-0.00279869
-0.00215538
-0.0092877
0.00131025
-0.00288362
-0.00883982
-0.00350415
-0.00842791
-0.00402599
-0.00804815
-0.00445728
-0.00769857
-0.00480481
-0.00737612
-0.00507593
-0.00707828
-0.00527634
-0.00680323
-0.00541198
-0.00654874
-0.00548814
-0.00631305
-0.00550917
-0.00609435
-0.00548016
-0.00589059
-0.00540403
-0.00570125
-0.00528493
-0.005524
-0.00512662
-0.00535756
-0.00493047
-0.00520128
-0.00470064
-0.00505365
-0.00443866
-0.00491389
-0.00414761
-0.00478119
-0.00382921
-0.0046551
-0.00348514
-0.00453563
-0.00311749
-0.00442242
-0.00272861
-0.00431603
-0.00421612
-0.00231985
-0.00195661
-0.00852653
0.00119544
-0.00261107
-0.00818536
-0.00316739
-0.00787159
-0.00363359
-0.00758194
-0.0040175
-0.00731466
-0.0043253
-0.00706832
-0.00456311
-0.00684046
-0.00473712
-0.00662922
-0.00485202
-0.00643384
-0.00491296
-0.00625211
-0.00492447
-0.00608285
-0.00488992
-0.00592514
-0.00481377
-0.00577741
-0.00469882
-0.00563895
-0.00454787
-0.00550851
-0.00436396
-0.00538519
-0.00414929
-0.00526831
-0.00390637
-0.00515682
-0.0036375
-0.00505006
-0.00334417
-0.00494843
-0.00302887
-0.00485093
-0.00269342
-0.00475788
-0.002339
-0.00467045
-0.00458717
-0.00196795
-0.00177419
-0.00784045
0.00108811
-0.00236317
-0.00759638
-0.00286303
-0.00737174
-0.00328109
-0.00716387
-0.00362387
-0.00697188
-0.00389767
-0.00679452
-0.00410846
-0.00662968
-0.00426058
-0.0064771
-0.00435972
-0.0063347
-0.00440959
-0.00620224
-0.0044145
-0.00607794
-0.00437818
-0.00596146
-0.00430383
-0.00585175
-0.00419505
-0.00574773
-0.00405417
-0.00564939
-0.00388319
-0.00555617
-0.00368472
-0.00546678
-0.00346133
-0.00538021
-0.00321396
-0.00529743
-0.00294591
-0.00521648
-0.00265789
-0.00513894
-0.00235194
-0.00506383
-0.00203039
-0.004992
-0.00492423
-0.00169333
-0.00160775
-0.00722137
0.000988671
-0.00213844
-0.00706569
-0.00258825
-0.00692193
-0.00296373
-0.00678839
-0.00327091
-0.0066647
-0.00351574
-0.00654969
-0.00370296
-0.00644246
-0.00383761
-0.00634246
-0.0039234
-0.00624891
-0.00396539
-0.00616024
-0.00396598
-0.00607735
-0.0039296
-0.00599784
-0.00385937
-0.00592198
-0.00375741
-0.00584969
-0.00362664
-0.00578016
-0.00346919
-0.00571362
-0.00328741
-0.00564857
-0.0030824
-0.00558522
-0.00285642
-0.00552341
-0.00261134
-0.00546156
-0.00234908
-0.0054012
-0.002071
-0.00534192
-0.00177809
-0.0052849
-0.00522987
-0.00147246
-0.0014563
-0.00666166
0.000896597
-0.00193513
-0.00658686
-0.00234046
-0.0065166
-0.00267854
-0.00645032
-0.00295497
-0.00638827
-0.00317417
-0.00633048
-0.00334147
-0.00627515
-0.00346091
-0.00622302
-0.0035368
-0.00617302
-0.00357193
-0.00612511
-0.00357057
-0.00607871
-0.00353504
-0.00603337
-0.00346857
-0.00598846
-0.00337386
-0.0059444
-0.00325329
-0.00590074
-0.00310921
-0.00585769
-0.00294267
-0.00581511
-0.00275539
-0.0057725
-0.00254957
-0.00572924
-0.00232586
-0.00568527
-0.00208677
-0.00564028
-0.00183402
-0.00559468
-0.00156791
-0.00555101
-0.00550819
-0.00128958
-0.00131911
0.000814227
-0.00615678
-0.00175167
-0.0061543
-0.00211763
-0.00615064
-0.0024226
-0.00614535
-0.0026711
-0.00613977
-0.00286849
-0.00613309
-0.00301836
-0.00612528
-0.0031255
-0.00611587
-0.00319239
-0.00610613
-0.00322345
-0.00609405
-0.00322016
-0.006082
-0.00318593
-0.00606759
-0.00312404
-0.00605035
-0.00303638
-0.00603205
-0.0029257
-0.00601142
-0.00279352
-0.00598987
-0.00264144
-0.00596718
-0.00247109
-0.00594285
-0.0022836
-0.00591673
-0.0020793
-0.00588956
-0.00186086
-0.00585873
-0.00163173
-0.0058238
-0.00138933
-0.00579341
-0.0011364
-0.00576113
-0.0065062
-0.00214197
0.00101291
-0.00553026
-0.00218019
0.00120426
-0.00461882
-0.00226029
0.00134884
-0.00375308
-0.00237142
0.00150568
-0.00293232
-0.00250627
0.00168551
-0.00215968
-0.00266266
0.00189003
-0.00143672
-0.00284191
0.00211894
-0.000768501
-0.0030431
0.00237488
-0.000159293
-0.00326714
0.00265793
0.000385648
-0.00351512
0.00297018
0.00086197
-0.00378887
0.00331255
0.00126477
-0.00408979
0.00368699
0.00159
-0.00442025
0.00409502
0.00183361
-0.00478281
0.0045392
0.00199095
-0.00517957
0.00502223
0.0020577
-0.00561372
0.00554697
0.00202854
-0.00608858
0.00611774
0.00189808
-0.00660809
0.00673855
0.00165945
-0.00717572
0.00741435
0.00130574
-0.0077969
0.00815061
0.000827689
-0.00847548
0.00895353
0.000215107
-0.00921727
0.00982986
-0.000543583
-0.0100278
0.0107865
-0.010914
0.0118318
-0.00146136
-0.00409792
-0.00279955
-0.00342369
-0.00285441
-0.00276117
-0.00292282
-0.00212594
-0.00300664
-0.0015248
-0.00310742
-0.000961356
-0.0032261
-0.000439961
-0.0033633
3.72541e-05
-0.00352031
0.000467253
-0.00369714
0.00084874
-0.00389661
0.00117819
-0.00411832
0.00145339
-0.00436499
0.00167053
-0.0046374
0.00182566
-0.00493793
0.00191424
-0.00526815
0.00193136
-0.00563083
0.00187111
-0.00602833
0.00172673
-0.00646371
0.00149084
-0.00693983
0.0011544
-0.00746046
0.000708938
-0.00803001
0.000143433
-0.00865177
-0.000552585
-0.00933178
-0.0100729
-0.00139365
-0.0029597
-0.00330787
-0.00245678
-0.00335733
-0.00196418
-0.00341543
-0.00148479
-0.00348602
-0.00102342
-0.00356878
-0.000583613
-0.00366591
-0.000169452
-0.00377747
0.000215414
-0.00390517
0.000568479
-0.0040502
0.000884281
-0.00421241
0.00116017
-0.0043942
0.00139134
-0.00459617
0.00157363
-0.00481969
0.00170229
-0.00506659
0.00177225
-0.00533811
0.0017781
-0.00563668
0.00171392
-0.00596415
0.0015733
-0.00632309
0.00134942
-0.00671595
0.00103509
-0.00714613
0.000621425
-0.00761635
0.000100214
-0.00813056
-0.000538922
-0.00869265
-0.00930655
-0.00130532
-0.00233909
-0.00376748
-0.00189081
-0.0038056
-0.00145597
-0.00385027
-0.00103744
-0.00390456
-0.00063713
-0.00396909
-0.000258546
-0.0040445
9.59495e-05
-0.00413196
0.00042372
-0.00423294
0.000721197
-0.00434768
0.000985859
-0.00447707
0.00121403
-0.00462237
0.00140243
-0.00478457
0.00154705
-0.0049643
0.00164401
-0.00516355
0.00168873
-0.00538283
0.00167648
-0.00562443
0.00160222
-0.00588989
0.00145978
-0.00618065
0.00124326
-0.00649943
0.000945632
-0.0068485
0.000559257
-0.00722997
7.60645e-05
-0.00764736
-0.000513114
-0.00810347
-0.00860165
-0.00121801
-0.00190782
-0.00417951
-0.00150901
-0.00420441
-0.00112364
-0.00423564
-0.000754503
-0.00427369
-0.000403432
-0.00432016
-7.20186e-05
-0.00437591
0.000237357
-0.00444134
0.000522286
-0.00451787
0.000780153
-0.00460555
0.00100852
-0.00470544
0.00120411
-0.00481795
0.00136352
-0.00494398
0.00148396
-0.00508475
0.0015613
-0.00524089
0.00159158
-0.00541311
0.0015707
-0.00560355
0.00149325
-0.00581244
0.00135453
-0.00604193
0.00114857
-0.00629347
0.000869277
-0.00656921
0.000509925
-0.00687062
6.28358e-05
-0.00720028
-0.00047976
-0.00756087
-0.00795443
-0.00112698
-0.00159501
-0.00455245
-0.00123524
-0.00456418
-0.000889251
-0.00458163
-0.000558391
-0.00460455
-0.00024453
-0.00463403
5.09468e-05
-0.00467139
0.000325951
-0.00471634
0.000577819
-0.00476974
0.000805127
-0.00483286
0.00100512
-0.00490544
0.00117524
-0.00498807
0.00131285
-0.00508159
0.00141453
-0.00518643
0.00147687
-0.00530323
0.00149683
-0.00543306
0.00146983
-0.00557655
0.00139181
-0.00573443
0.00125828
-0.0059084
0.0010637
-0.00609889
0.000802715
-0.00630823
0.000468918
-0.00653682
5.62202e-05
-0.00678758
-0.000443508
-0.00706114
-0.00736044
-0.0010375
-0.00135599
-0.0048898
-0.00103001
-0.00489017
-0.000717554
-0.00489408
-0.000419468
-0.00490264
-0.000137169
-0.00491633
0.000127345
-0.0049359
0.000373256
-0.00496226
0.000598393
-0.00499488
0.000800692
-0.00503515
0.000977816
-0.00508256
0.00112781
-0.00513807
0.00124768
-0.00520147
0.00133509
-0.00527383
0.00138682
-0.00535497
0.00139964
-0.00544587
0.00136993
-0.00554685
0.00129382
-0.00565831
0.00116682
-0.0057814
0.00098462
-0.00591669
0.000741715
-0.00606532
0.000433414
-0.00622852
5.26869e-05
-0.00640685
-0.000406402
-0.00660205
-0.00681554
-0.000951296
-0.00116566
-0.00519659
-0.000870666
-0.00518516
-0.00058777
-0.00517698
-0.000318691
-0.00517172
-6.38784e-05
-0.00517114
0.000174699
-0.00517448
0.000395971
-0.00518353
0.00059816
-0.00519707
0.000778906
-0.0052159
0.000937106
-0.00524076
0.00107023
-0.00527119
0.00117629
-0.00530753
0.00125201
-0.00534955
0.00129553
-0.00539849
0.00130337
-0.00545371
0.00127259
-0.00551606
0.0011995
-0.00558522
0.00108014
-0.00566204
0.000910411
-0.00574697
0.000685779
-0.00584069
0.00040092
-0.00594366
5.09474e-05
-0.00605688
-0.000370489
-0.00618062
-0.00631622
-0.000869814
-0.00101145
-0.00547472
-0.000743784
-0.00545283
-0.0004876
-0.00543316
-0.000243418
-0.0054159
-1.34135e-05
-0.00540114
0.000202126
-0.00539002
0.00040167
-0.00538307
0.000583706
-0.0053791
0.000746413
-0.00537861
0.00088844
-0.00538279
0.00100722
-0.00538998
0.00110117
-0.00540147
0.00116782
-0.0054162
0.00120495
-0.00543563
0.00120951
-0.00545827
0.00117914
-0.00548569
0.00110955
-0.00551563
0.000997782
-0.00555027
0.00084057
-0.00558975
0.000633334
-0.00563345
0.00037139
-0.00568172
4.9988e-05
-0.00573548
-0.000336563
-0.00579407
-0.00585923
-0.000793552
-0.000882754
-0.00572836
-0.000641192
-0.0056944
-0.000407755
-0.0056666
-0.000187114
-0.00563654
2.16289e-05
-0.00560989
0.000216337
-0.00558473
0.000396995
-0.00556373
0.000561104
-0.00554321
0.000707858
-0.00552536
0.000835551
-0.00551048
0.000941939
-0.00549637
0.00102583
-0.00548536
0.0010848
-0.00547517
0.00111686
-0.00546768
0.00111891
-0.00546033
0.00108943
-0.00545621
0.00102404
-0.00545025
0.000920241
-0.00544647
0.000774734
-0.00544425
0.000583811
-0.00544253
0.00034364
-0.00544155
4.91073e-05
-0.00544094
-0.000304511
-0.00544045
-0.00544127
-0.000722471
0.000974824
0.0118168
-0.012886
9.43361e-05
0.00187076
0.0108305
-0.0117265
0.00260818
0.00992414
-0.0106616
0.00320112
0.00909212
-0.00968506
0.00366244
0.0083293
-0.00879063
0.00400467
0.00763026
-0.00797249
0.00424006
0.00699001
-0.0072254
0.00437908
0.00640437
-0.00654339
0.00443263
0.00586844
-0.00592199
0.00440933
0.00537852
-0.00535522
0.00431818
0.00493051
-0.00483935
0.00416742
0.00452027
-0.00436952
0.00396411
0.00414507
-0.00394176
0.00371512
0.00380076
-0.00355177
0.00342664
0.00348505
-0.00319658
0.00310425
0.00319441
-0.00287202
0.00275393
0.00292575
-0.00257542
0.00238038
0.00267661
-0.00230306
0.00198897
0.00244357
-0.00205216
0.00158557
0.00222232
-0.00181892
0.00117652
0.00200821
-0.00159916
0.000768718
0.00179352
-0.00138572
0.000367736
0.00156702
-0.00116604
0.00137199
-6.79423e-05
-0.000936313
0.000883137
0.0108453
8.83964e-05
0.00169885
0.0100148
0.00237167
0.00925132
0.00291438
0.00854941
0.00333886
0.00790482
0.00365598
0.00731314
0.00387621
0.00676978
0.00400925
0.00627133
0.00406387
0.00581381
0.0040485
0.0053939
0.00397082
0.00500819
0.00383752
0.00465357
0.00365546
0.00432712
0.00343027
0.00402596
0.00316789
0.00374744
0.0028732
0.0034891
0.00255129
0.00324766
0.00220692
0.00302098
0.00184496
0.00280553
0.00147027
0.00259701
0.00108895
0.00238954
0.000707641
0.00217483
0.000328606
0.00194606
0.00177387
-7.32758e-05
0.000801459
0.00996221
8.16292e-05
0.00154386
0.00927241
0.00215774
0.00863744
0.00265418
0.00805297
0.0030437
0.0075153
0.00333635
0.00702048
0.00354091
0.00656522
0.00366602
0.00614622
0.00371977
0.00576006
0.00370939
0.00540429
0.00364161
0.00507596
0.00352279
0.00477239
0.00335866
0.00449125
0.00315445
0.00423017
0.00291534
0.00398655
0.00264612
0.00375832
0.0023508
0.00354297
0.00203402
0.00333776
0.00170067
0.00313888
0.00135483
0.00294285
0.00100205
0.00274232
0.000648315
0.00252856
0.00029513
0.00229924
0.00214395
-7.49513e-05
0.000727266
0.00915987
7.50727e-05
0.0014027
0.00859697
0.00196202
0.00807813
0.00241512
0.00759987
0.00277171
0.00715871
0.00304034
0.00675185
0.00322925
0.00637632
0.00334615
0.00602932
0.00339793
0.00570827
0.00339097
0.00541126
0.00333177
0.00513516
0.0032252
0.00487896
0.00307704
0.00463941
0.00289192
0.00441529
0.0026743
0.00420417
0.00242843
0.00400419
0.00215859
0.00381281
0.00186842
0.00362794
0.00156212
0.00344518
0.00124419
0.00326078
0.000919176
0.00306733
0.00059234
0.0028554
0.0002655
0.00262608
0.00248403
-7.45755e-05
0.000659424
0.0084309
6.95452e-05
0.00127396
0.00798243
0.00178332
0.00756876
0.00219697
0.00718623
0.00252316
0.00683251
0.00276962
0.00650539
0.00294389
0.00620205
0.00305269
0.00592053
0.00310187
0.00565909
0.00309778
0.00541534
0.00304547
0.00518747
0.0029502
0.00497422
0.00281618
0.00477343
0.00264815
0.00458332
0.00245019
0.00440213
0.00222588
0.0042285
0.00197893
0.00405976
0.00171322
0.00389365
0.00143236
0.00372604
0.00114006
0.00355308
0.000841229
0.00336616
0.000540425
0.0031562
0.000239111
0.0029274
0.00279634
-7.32008e-05
0.000598593
0.0077684
6.39071e-05
0.00115729
0.00742374
0.00162124
0.00710481
0.00199847
0.006809
0.00229652
0.00653446
0.00252247
0.00627943
0.0026828
0.00604172
0.0027833
0.00582004
0.00283019
0.00561219
0.00282797
0.00541756
0.00278152
0.00523393
0.00269584
0.00505991
0.00257484
0.00489443
0.00242233
0.00473583
0.00224197
0.00458249
0.0020375
0.00443298
0.00181202
0.00428524
0.00156911
0.00413656
0.00131185
0.0039833
0.00104401
0.00382092
0.000769561
0.0036406
0.000492669
0.0034331
0.000215504
0.00320456
0.00308303
-7.11883e-05
0.000542957
0.00716628
5.91677e-05
0.00105119
0.00691551
0.00147369
0.00668231
0.00181764
0.00646505
0.00208983
0.00626227
0.00229664
0.00607263
0.00244383
0.00589453
0.00253677
0.0057271
0.00258048
0.00556848
0.00257995
0.0054181
0.00253907
0.0052748
0.00246188
0.0051371
0.00235222
0.00500409
0.00221381
0.00487424
0.00204968
0.00474662
0.00186328
0.00461937
0.00165761
0.00449091
0.00143577
0.00435839
0.00120032
0.00421875
0.000955254
0.00406599
0.000703658
0.0038922
0.000449713
0.00368704
0.000195367
0.00345891
0.00334664
-6.82354e-05
0.00049272
0.00661935
5.42036e-05
0.000954966
0.00645326
0.00133949
0.00629779
0.00165282
0.00615172
0.00190135
0.00601374
0.00209061
0.00588336
0.00222559
0.00575955
0.00231133
0.00564136
0.00235229
0.00552752
0.00235258
0.0054178
0.00231619
0.00531119
0.00224651
0.00520678
0.0021471
0.00510351
0.0020215
0.00499984
0.00187258
0.00489554
0.00170262
0.00478933
0.00151527
0.00467826
0.0013126
0.00456106
0.00109767
0.00443368
0.000873662
0.00428999
0.000643583
0.00412228
0.000410267
0.00392036
0.000174829
0.00369434
0.00358932
-6.78502e-05
0.000447189
0.00612207
5.00957e-05
0.000867488
0.00603297
0.00121753
0.00594774
0.00150307
0.00586618
0.00172962
0.0057872
0.00190245
0.00571052
0.00202614
0.00563586
0.00210464
0.00556286
0.00214258
0.00548958
0.00214404
0.00541634
0.00211185
0.00534338
0.00204952
0.00526911
0.00195928
0.00519375
0.0018446
0.00511452
0.00170949
0.00503065
0.00155499
0.00494383
0.00138406
0.0048492
0.00119948
0.00474564
0.0010037
0.00462947
0.000799206
0.00449449
0.00058945
0.00433204
0.000377053
0.00413275
0.000163024
0.00390837
0.00381471
-6.2369e-05
0.0004057
4.53624e-05
0.00567101
0.000788079
0.00565059
0.00110659
0.00562922
0.00136637
0.00560641
0.00157312
0.00558044
0.00173129
0.00555235
0.00184479
0.00552236
0.00191634
0.00549131
0.00195128
0.00545464
0.00195298
0.00541465
0.00192447
0.00537189
0.001868
0.00532559
0.00178546
0.00527629
0.0016817
0.00521828
0.00155917
0.00515318
0.00141842
0.00508458
0.00126284
0.00500477
0.00109431
0.00491417
0.000915167
0.00480862
0.000729699
0.00467996
0.000540125
0.00452161
0.000344986
0.00432789
0.000139878
0.00411348
-7.98443e-05
0.00403443
-0.000511601
0.00160057
-0.00115691
-0.000999213
0.0019423
-0.00145469
-0.00150472
0.0022273
-0.0017218
-0.00201084
0.0024856
-0.00197947
-0.00250643
0.00273969
-0.00224411
-0.0029827
0.00299982
-0.00252355
-0.00343175
0.00327095
-0.0028219
-0.00384586
0.00355583
-0.00314172
-0.00421804
0.00385798
-0.0034858
-0.00454061
0.00417862
-0.00385606
-0.00480663
0.00451996
-0.00425394
-0.00500991
0.00488461
-0.00468133
-0.00514309
0.00527373
-0.00514055
-0.00520091
0.00569124
-0.00563342
-0.00517669
0.00613929
-0.00616351
-0.00506533
0.0066222
-0.00673356
-0.00486016
0.00714349
-0.00734866
-0.0045543
0.00770803
-0.00801389
-0.00414025
0.00831984
-0.00873389
-0.00360825
0.00898299
-0.00951499
-0.00295054
0.00970527
-0.010363
-0.00215737
0.0104896
-0.0112828
-0.00121591
0.0113422
-0.0122837
0.0122689
-0.013372
-0.000112834
-0.000495486
0.00202278
-0.000953787
0.0024006
-0.00142533
0.00269884
-0.00189457
0.00295484
-0.00235081
0.00319593
-0.00278629
0.0034353
-0.00319354
0.0036782
-0.00356674
0.00392904
-0.00389893
0.00419016
-0.00418464
0.00446433
-0.00441857
0.00475388
-0.00459425
0.0050603
-0.00470773
0.0053872
-0.00475317
0.00573668
-0.00472594
0.00611206
-0.00462061
0.00651688
-0.00443128
0.00695416
-0.00415117
0.00742792
-0.00377336
0.00794204
-0.00329071
0.00850034
-0.00269274
0.0091073
-0.00196804
0.00976491
-0.00111088
0.0104851
0.0112661
-0.000108089
-0.000469684
0.00241751
-0.000895128
0.00282604
-0.00133196
0.00313567
-0.00176446
0.00338735
-0.00218362
0.00361509
-0.00258114
0.00383282
-0.00295164
0.0040487
-0.00328865
0.00426604
-0.00358735
0.00448886
-0.00384239
0.00471937
-0.00404941
0.00496091
-0.0042043
0.00521519
-0.00430238
0.00548528
-0.00433967
0.00577397
-0.00431155
0.00608394
-0.00421293
0.00641825
-0.00403884
0.00678007
-0.00378286
0.00717194
-0.00343778
0.00759696
-0.0029975
0.00806005
-0.00245186
0.00856167
-0.00179755
0.0091106
-0.0010169
0.00970443
0.0103518
-0.000102526
-0.000441444
0.00278438
-0.000834842
0.00321944
-0.00123694
0.00353777
-0.00163419
0.0037846
-0.00201694
0.00399783
-0.00237897
0.00419486
-0.00271433
0.00438406
-0.00301849
0.0045702
-0.00328682
0.00475719
-0.00351521
0.00494776
-0.00369987
0.00514557
-0.00383734
0.00535266
-0.00392364
0.00557158
-0.00395539
0.00580572
-0.00392799
0.00605654
-0.00383749
0.00632775
-0.00367818
0.00662077
-0.00344495
0.0069387
-0.00313195
0.00728397
-0.00273192
0.00766001
-0.00223708
0.00806683
-0.00163737
0.00851088
-0.000927393
0.00899445
0.00952351
-9.91437e-05
-0.000412026
0.0031232
-0.000774689
0.00358211
-0.00114406
0.00390714
-0.00150749
0.00414803
-0.00185681
0.00434715
-0.00218602
0.00452407
-0.00248981
0.00468786
-0.00276429
0.00484468
-0.00300559
0.00499849
-0.0032105
0.00515268
-0.00337595
0.00531101
-0.00349845
0.00547515
-0.00357532
0.00564845
-0.00360241
0.00583281
-0.00357689
0.00603103
-0.00349377
0.00624462
-0.00334867
0.00647567
-0.00313628
0.00672632
-0.00285055
0.00699823
-0.00248523
0.00729469
-0.00203696
0.00761857
-0.00149406
0.00796798
-0.000848788
0.00834918
0.00876599
-9.12615e-05
-0.000383006
0.00343502
-0.000716201
0.0039153
-0.00105486
0.00424579
-0.00138682
0.00448
-0.0017048
0.00466512
-0.00200378
0.00482305
-0.00227905
0.00496313
-0.00252688
0.00509251
-0.0027446
0.00521621
-0.0029292
0.00533728
-0.00307755
0.00545936
-0.00318749
0.0055851
-0.00325595
0.0057169
-0.00328
0.00585686
-0.00325585
0.00600689
-0.00317992
0.00616869
-0.00304779
0.00634355
-0.00285483
0.00653335
-0.002595
0.0067384
-0.00226432
0.00696401
-0.0018528
0.00720705
-0.00135869
0.00747387
-0.000774167
0.00776466
0.00807907
-8.72451e-05
-0.000355767
0.00372255
-0.00066143
0.00422096
-0.000970517
0.00455488
-0.00127321
0.00478269
-0.00156284
0.00495475
-0.00183389
0.0050941
-0.0020832
0.00521244
-0.00230739
0.0053167
-0.00250358
0.00541241
-0.00266985
0.00550354
-0.00280367
0.00559319
-0.00290252
0.00568394
-0.00296405
0.00577843
-0.00298538
0.00587818
-0.00296304
0.00598455
-0.00289358
0.00609923
-0.00277255
0.00622252
-0.00259751
0.00635831
-0.00236222
0.00650311
-0.00206002
0.00666181
-0.00168932
0.00683635
-0.00123985
0.0070244
-0.000705986
0.00723079
0.00745481
-8.17331e-05
-0.000329694
0.0039844
-0.00061069
0.00450196
-0.000891734
0.00483592
-0.00116639
0.00505734
-0.00142967
0.00521803
-0.00167582
0.00534026
-0.00190182
0.00543844
-0.00210468
0.00551956
-0.0022821
0.00558983
-0.00243209
0.00565354
-0.00255278
0.00571387
-0.00264224
0.0057734
-0.00269761
0.0058338
-0.00271634
0.00589692
-0.00269591
0.00596412
-0.00263254
0.00603585
-0.00252353
0.00611352
-0.00236346
0.00619823
-0.00214868
0.00628834
-0.00187522
0.00638835
-0.00153689
0.00649803
-0.00112828
0.00661579
-0.000642993
0.00674551
0.00688708
-7.52574e-05
-0.000307092
0.00422912
-0.000564279
0.00475915
-0.000813895
0.00508554
-0.00106728
0.00531073
-0.00130667
0.00545742
-0.00153016
0.00556375
-0.00173464
0.00564292
-0.00191827
0.00570319
-0.00207896
0.00575053
-0.0022148
0.00578937
-0.00232368
0.00582276
-0.0024043
0.00585402
-0.00245414
0.00588364
-0.0024713
0.00591408
-0.00245223
0.00594505
-0.00239564
0.00597927
-0.00229501
0.00601289
-0.00214935
0.00605257
-0.00195496
0.00609394
-0.00170809
0.00614148
-0.00139857
0.00618851
-0.00102843
0.00624566
-0.000587737
0.00630481
0.00637009
-7.0752e-05
-0.000283395
0.00443267
-0.00053559
0.00501134
-0.000743535
0.00529348
-0.000973765
0.00554096
-0.00119217
0.00567583
-0.00139568
0.00576725
-0.00158152
0.00582876
-0.00174785
0.00586952
-0.00189327
0.00589594
-0.00201587
0.00591197
-0.00211478
0.00592167
-0.00218774
0.00592698
-0.00223288
0.00592878
-0.00224791
0.00592911
-0.00223091
0.00592805
-0.0021776
0.00592597
-0.00208699
0.00592227
-0.0019556
0.00592119
-0.00177979
0.00591813
-0.00155121
0.00591291
-0.00127432
0.00591161
-0.000934695
0.00590603
-0.00053477
0.00590488
0.00589935
-6.40237e-05
0.00117675
0.000713425
0.00169893
0.00170176
0.00204583
0.00216199
0.00231319
0.00253834
0.00252616
0.00290151
0.00268947
0.00326838
0.00280433
0.00364221
0.00287402
0.00402383
0.00290019
0.00441589
0.00288926
0.00481907
0.00284661
0.00523785
0.00277925
0.0056764
0.00269323
0.00614003
0.00259484
0.00663491
0.00249001
0.00716651
0.00238289
0.00774161
0.00227711
0.00836667
0.00217435
0.00904729
0.00207631
0.00978979
0.00198349
0.0105995
0.00189582
0.0114827
0.00181336
0.0124456
0.00173629
0.0134943
0.014637
0.00166617
9.02013e-06
0.000704507
0.00032913
0.00138186
0.000635693
0.00185539
0.00091262
0.00226149
0.00116389
0.00265021
0.00139126
0.00304105
0.0015918
0.00344166
0.00176218
0.00385348
0.00190118
0.00427689
0.00200645
0.00471383
0.00207947
0.00516484
0.00212191
0.00563399
0.00213729
0.00612466
0.00213013
0.00664209
0.00210437
0.00719228
0.00206393
0.00778207
0.00201381
0.00841679
0.00195661
0.0091045
0.00189571
0.00985069
0.00183256
0.0106626
0.00176862
0.0115467
0.00170544
0.0125088
0.00164307
0.0135567
0.0146966
0.00158343
2.12409e-05
0.000683169
0.000207066
0.00119625
0.000412044
0.00165027
0.00060741
0.0020662
0.000789312
0.00246819
0.000959034
0.00287137
0.00111729
0.00328333
0.001263
0.00370781
0.00139302
0.00414683
0.00150606
0.00460083
0.00159913
0.00507175
0.00167199
0.00556116
0.00172408
0.00607257
0.00175694
0.00660925
0.0017722
0.00717702
0.00177281
0.00778147
0.00176019
0.00842942
0.00173817
0.00912652
0.00170773
0.00988114
0.00167175
0.0106986
0.00163181
0.0115866
0.0015885
0.0125521
0.0015432
0.013602
0.0147418
0.00149806
-2.54462e-05
0.000708735
4.25561e-05
0.00112846
0.000160371
0.00153245
0.000298923
0.00192773
0.000443195
0.00232391
0.00058683
0.00272778
0.000726936
0.00314322
0.000860905
0.00357387
0.000987413
0.00402032
0.0011036
0.00448466
0.00120797
0.00496739
0.00129844
0.00547071
0.00137389
0.00599713
0.00143335
0.0065498
0.00147718
0.0071332
0.00150665
0.007752
0.00152346
0.00841263
0.00152831
0.00912168
0.00152417
0.00988528
0.00151172
0.0107111
0.00149246
0.0116059
0.0014684
0.0125762
0.00144055
0.0136298
0.014772
0.0014103
-4.61609e-05
0.000754846
-3.2756e-05
0.00111512
2.44495e-05
0.00147518
0.0001126
0.00183963
0.00021863
0.00221782
0.000334851
0.00261159
0.000454477
0.00302355
0.000574711
0.00345366
0.000691621
0.00390339
0.000803874
0.00437243
0.000908787
0.00486247
0.00100487
0.00537463
0.00109015
0.00591184
0.00116387
0.00647609
0.00122533
0.00707175
0.00127409
0.00770325
0.00131053
0.00837618
0.00133634
0.00909587
0.00135165
0.00986998
0.00135836
0.0107044
0.0013577
0.0116065
0.00135031
0.0125836
0.00133755
0.0136426
0.0147888
0.00132073
-3.08032e-05
0.000785658
-3.1021e-05
0.00111528
-2.3227e-06
0.0014465
5.14692e-05
0.00178584
0.000125308
0.00214398
0.000212499
0.00252442
0.00030847
0.00292757
0.000408778
0.00335337
0.000510093
0.00380206
0.000609573
0.00427295
0.000705532
0.0047665
0.000796307
0.00528386
0.000880725
0.00582742
0.000957005
0.00639981
0.00102408
0.00700468
0.00108179
0.00764553
0.00112993
0.00832804
0.001168
0.0090578
0.0011974
0.00984058
0.00121785
0.0106839
0.00123081
0.0115936
0.00123696
0.0125774
0.00123725
0.0136423
0.0147944
0.00123171
-1.81394e-05
0.000803854
-2.16239e-05
0.00111866
-6.54977e-06
0.0014315
2.69961e-05
0.00175227
7.76491e-05
0.00209338
0.00014276
0.0024593
0.000218433
0.00285192
0.000300943
0.00327085
0.000387543
0.00371547
0.000474984
0.00418551
0.00056093
0.00468055
0.000643874
0.00520091
0.000723063
0.00574822
0.000797028
0.00632584
0.000865007
0.00693669
0.000925717
0.00758482
0.000978676
0.00827508
0.00102407
0.0090124
0.00106173
0.00980292
0.00109213
0.0106535
0.00111518
0.0115705
0.00113155
0.0125611
0.00114149
0.0136324
0.0147904
0.00114549
-1.50154e-05
0.000818846
-2.02121e-05
0.00112368
-1.23173e-05
0.00142366
9.49029e-06
0.00173039
4.5512e-05
0.00205741
9.424e-05
0.00241054
0.000154343
0.00279185
0.000222793
0.00320238
0.000296692
0.00364158
0.000373528
0.00410866
0.000450831
0.00460325
0.000527049
0.00512468
0.000600558
0.00567471
0.00067054
0.00625585
0.000736519
0.0068707
0.000797354
0.00752398
0.000852714
0.00821971
0.000901686
0.00896342
0.000944137
0.00976047
0.00098046
0.0106172
0.00101053
0.0115404
0.00103449
0.0125371
0.00105249
0.0136144
0.0147784
0.00106441
-1.40824e-05
0.000832908
-2.01564e-05
0.0011296
-1.58469e-05
0.0014194
-8.17049e-07
0.00171529
2.55727e-05
0.00203106
6.33095e-05
0.00237276
0.000111162
0.00274403
0.000167669
0.00314584
0.000230927
0.00357833
0.000298054
0.0040415
0.000367599
0.0045337
0.000436555
0.00505571
0.000504429
0.00560683
0.000570374
0.00618989
0.000633141
0.00680793
0.000692192
0.00746492
0.000747126
0.00816477
0.000797433
0.00891311
0.000842885
0.00971501
0.000882884
0.0105772
0.000917348
0.011506
0.000946661
0.0125078
0.000970795
0.0135902
0.0147602
0.000989007
-1.24959e-05
0.000845357
-1.84755e-05
0.00113545
-1.65951e-05
0.00141755
-5.93515e-06
0.00170457
1.402e-05
0.00201114
4.32235e-05
0.00234352
8.20459e-05
0.00270522
0.000129245
0.00309861
0.000182966
0.00352462
0.000242032
0.00398241
0.00030355
0.00447218
0.000366579
0.00499266
0.000428765
0.00554463
0.000489871
0.00612877
0.000549121
0.00674867
0.000605915
0.00740812
0.000659303
0.00811138
0.000709518
0.00886289
0.000755354
0.00966917
0.000797219
0.0105353
0.00083488
0.0114683
0.000867802
0.0124749
0.000895639
0.0135624
0.0147373
0.000918592
-1.08862e-05
0.000856203
-1.68962e-05
0.00114135
-1.62575e-05
0.00141693
-8.84566e-06
0.0016971
6.47558e-06
0.00199584
2.9867e-05
0.00232009
6.15781e-05
0.00267353
0.000100781
0.00305938
0.000147194
0.00347821
0.000198552
0.00393103
0.000253882
0.00441685
0.00031092
0.0049356
0.000368503
0.00548704
0.000425219
0.00607204
0.000480385
0.0066935