/*--------------------------------*- C++ -*----------------------------------*\
| =========                 |                                                 |
| \\      /  F ield         | OpenFOAM: The Open Source CFD Toolbox           |
|  \\    /   O peration     | Version:  2.3.0                                 |
|   \\  /    A nd           | Web:      www.OpenFOAM.org                      |
|    \\/     M anipulation  |                                                 |
\*---------------------------------------------------------------------------*/
FoamFile
{
    version     2.0;
    format      ascii;
    class       volScalarField;
    location    "5000";
    object      nuTilda;
}
// * * * * * * * * * * * * * * * * * * * * * * * * * * * * * * * * * * * * * //

dimensions      [0 2 -1 0 0 0 0];

internalField   nonuniform List<scalar> 
37724
(
0.0699331
0.0684337
0.0669287
0.0654199
0.0639083
0.0623947
0.0608797
0.0593639
0.057848
0.0563324
0.0548178
0.0533047
0.0517936
0.0502849
0.0487792
0.0472766
0.0457776
0.0442825
0.0427915
0.0413051
0.0398234
0.0383469
0.0368759
0.0354108
0.0339518
0.0324995
0.0310546
0.0296173
0.0281888
0.0267698
0.025362
0.0239672
0.0225878
0.0212273
0.0198907
0.0185845
0.0173171
0.0160985
0.0149369
0.0138273
0.0127167
0.011405
0.0093391
0.0710774
0.0697487
0.0684164
0.0670815
0.0657446
0.064406
0.0630661
0.0617252
0.0603834
0.0590412
0.0576989
0.0563567
0.055015
0.053674
0.0523342
0.0509956
0.0496585
0.0483231
0.0469898
0.0456587
0.0443303
0.0430051
0.0416838
0.0403669
0.0390556
0.0377508
0.0364539
0.0351665
0.0338911
0.0326302
0.0313874
0.0301671
0.0289751
0.0278187
0.0267076
0.0256533
0.0246708
0.0237779
0.0229949
0.0223437
0.0218446
0.0215122
0.0213507
0.0721379
0.0709552
0.0697704
0.0685835
0.0673947
0.0662041
0.0650119
0.0638178
0.0626221
0.0614247
0.0602259
0.0590258
0.0578247
0.0566227
0.0554201
0.0542171
0.053014
0.0518108
0.0506078
0.0494054
0.0482037
0.0470038
0.0458061
0.0446118
0.043422
0.0422384
0.0410627
0.0398973
0.0387448
0.0376089
0.0364937
0.0354045
0.0343476
0.0333306
0.0323626
0.0314544
0.0306182
0.0298677
0.0292172
0.0286807
0.0282708
0.0279967
0.027863
0.0731142
0.072059
0.0710016
0.0699418
0.0688795
0.0678149
0.0667479
0.0656781
0.0646055
0.0635298
0.0624513
0.06137
0.060286
0.0591996
0.0581108
0.05702
0.0559275
0.0548334
0.0537381
0.0526417
0.0515446
0.0504474
0.0493511
0.0482567
0.0471657
0.0460798
0.0450012
0.0439323
0.0428764
0.0418371
0.0408189
0.0398271
0.0388681
0.0379491
0.0370788
0.0362666
0.0355231
0.0348596
0.0342874
0.0338176
0.0334595
0.0332202
0.0331034
0.0740098
0.0730661
0.0721191
0.0711686
0.0702146
0.0692575
0.0682969
0.0673327
0.0663642
0.0653911
0.0644136
0.0634317
0.0624456
0.0614553
0.0604611
0.059463
0.0584616
0.0574573
0.0564506
0.0554416
0.0544305
0.0534176
0.0524039
0.0513906
0.0503794
0.049372
0.0483709
0.0473784
0.046398
0.0454333
0.0444889
0.0435702
0.0426831
0.041835
0.0410336
0.0402877
0.0396067
0.0390004
0.0384786
0.0380507
0.0377247
0.0375068
0.0374003
0.0748283
0.0739833
0.073132
0.0722756
0.0714144
0.0705489
0.0696791
0.0688048
0.0679248
0.0670386
0.0661461
0.0652478
0.0643435
0.0634337
0.0625183
0.0615975
0.0606712
0.0597405
0.0588066
0.0578698
0.0569299
0.0559869
0.0550412
0.0540941
0.0531477
0.0522039
0.0512649
0.0503335
0.0494128
0.0485069
0.0476198
0.0467571
0.0459244
0.0451291
0.0443785
0.0436809
0.0430447
0.042479
0.0419924
0.0415932
0.0412891
0.0410857
0.0409863
0.0755803
0.074819
0.0740495
0.0732741
0.0724922
0.0717052
0.0709122
0.0701148
0.0693109
0.0684987
0.067678
0.0668502
0.0660147
0.0651724
0.0643228
0.0634677
0.0626044
0.0617335
0.0608589
0.0599813
0.059101
0.058217
0.0573284
0.0564356
0.0555422
0.0546504
0.0537621
0.0528805
0.0520076
0.0511488
0.0503072
0.0494886
0.0486983
0.047943
0.0472312
0.0465702
0.0459679
0.0454326
0.0449725
0.0445938
0.0443056
0.0441131
0.0440192
0.0762705
0.0755799
0.0748793
0.0741744
0.0734594
0.0727409
0.0720117
0.0712801
0.0705423
0.0697953
0.0690336
0.0682671
0.0674878
0.0667047
0.0659074
0.0651088
0.0643025
0.0634791
0.0626521
0.0618217
0.0609904
0.060157
0.0593186
0.0584714
0.0576204
0.0567731
0.0559244
0.055087
0.0542503
0.0534318
0.0526264
0.0518435
0.0510879
0.0503625
0.0496806
0.0490488
0.0484732
0.0479604
0.0475249
0.0471588
0.0468821
0.0466991
0.0466099
0.0769135
0.076278
0.0756289
0.0749871
0.0743225
0.0736705
0.0729901
0.0723149
0.0716313
0.0709519
0.0702288
0.0695233
0.06878
0.0680598
0.0672986
0.0665418
0.0657985
0.0650105
0.0642228
0.0634244
0.0626278
0.0618332
0.0610404
0.0602403
0.0594179
0.0586208
0.0577921
0.0570076
0.0561895
0.0554132
0.0546354
0.05388
0.0531605
0.0524542
0.0517953
0.0511868
0.0506365
0.0501361
0.0497359
0.0493693
0.0490996
0.0489264
0.0488417
0.00940378
0.0115476
0.0128052
0.0138956
0.0150039
0.0161729
0.0174025
0.0186817
0.0199995
0.0213469
0.0227171
0.0241054
0.0255081
0.0269231
0.0283483
0.0297825
0.0312248
0.0326741
0.0341303
0.0355927
0.0370608
0.0385346
0.0400135
0.0414975
0.042986
0.0444791
0.045976
0.0474767
0.0489806
0.0504875
0.051997
0.0535085
0.0550218
0.0565363
0.0580514
0.0595668
0.0610818
0.0625956
0.0641077
0.0656171
0.0671231
0.0686252
0.0701234
0.021349
0.0215115
0.0218503
0.02236
0.023024
0.0238204
0.0247266
0.0257218
0.0267879
0.0279101
0.0290766
0.0302778
0.0315064
0.0327567
0.0340243
0.0353057
0.0365983
0.0379
0.0392091
0.0405242
0.0418447
0.0431693
0.0444977
0.0458292
0.0471634
0.0484997
0.0498378
0.0511773
0.0525179
0.0538595
0.0552016
0.0565443
0.0578871
0.0592298
0.0605722
0.061914
0.0632548
0.0645943
0.0659319
0.0672671
0.0685991
0.0699272
0.0712492
0.0278664
0.0280074
0.0282899
0.0287091
0.0292556
0.0299165
0.0306773
0.0315236
0.0324414
0.0334184
0.0344437
0.0355083
0.0366045
0.0377258
0.0388673
0.0400247
0.0411946
0.0423743
0.0435615
0.0447548
0.0459524
0.0471535
0.048357
0.0495622
0.0507682
0.0519746
0.0531808
0.0543866
0.0555916
0.0567959
0.057999
0.0592011
0.0604018
0.0616012
0.0627991
0.0639953
0.0651899
0.0663824
0.0675724
0.0687597
0.0699437
0.0711242
0.0723007
0.0331075
0.0332329
0.0334811
0.0338483
0.0343275
0.0349089
0.0355816
0.036334
0.0371546
0.0380328
0.038959
0.0399246
0.0409223
0.0419457
0.0429896
0.0440496
0.0451221
0.0462041
0.0472931
0.0483874
0.0494853
0.0505856
0.051687
0.0527884
0.0538889
0.0549879
0.056085
0.0571799
0.0582725
0.0593626
0.0604501
0.0615349
0.0626169
0.0636961
0.0647725
0.0658463
0.0669173
0.0679851
0.0690496
0.0701104
0.0711675
0.0722205
0.0732689
0.0374047
0.0375203
0.0377472
0.0380821
0.0385188
0.0390492
0.039664
0.0403531
0.0411068
0.0419152
0.0427698
0.0436624
0.044586
0.0455346
0.046503
0.0474867
0.048482
0.0494859
0.0504961
0.0515107
0.0525282
0.0535468
0.054565
0.0555813
0.0565948
0.0576051
0.0586118
0.0596149
0.0606142
0.0616096
0.0626009
0.0635877
0.0645701
0.0655483
0.0665227
0.0674932
0.0684596
0.0694214
0.0703787
0.0713312
0.072279
0.0732223
0.0741617
0.040991
0.0410997
0.0413121
0.0416246
0.0420319
0.0425266
0.0431005
0.0437445
0.0444494
0.0452064
0.0460073
0.0468444
0.0477111
0.0486015
0.0495104
0.0504335
0.0513667
0.0523076
0.0532541
0.0542049
0.0551577
0.05611
0.0570597
0.0580054
0.0589465
0.059883
0.0608148
0.0617418
0.0626638
0.0635806
0.0644913
0.0653956
0.0662941
0.0671875
0.068076
0.0689595
0.069837
0.0707084
0.0715739
0.0724333
0.0732866
0.0741343
0.0749774
0.0440242
0.0441279
0.0443294
0.0446251
0.0450105
0.0454788
0.0460223
0.0466324
0.0473003
0.0480182
0.0487776
0.0495712
0.050393
0.0512371
0.0520987
0.0529724
0.0538543
0.0547435
0.055639
0.0565389
0.05744
0.0583374
0.0592294
0.0601155
0.0609957
0.0618708
0.0627405
0.0636042
0.0644623
0.0653134
0.0661558
0.0669899
0.0678175
0.0686397
0.0694563
0.0702662
0.0710677
0.0718616
0.0726484
0.0734276
0.0741991
0.0749633
0.0757203
0.0466153
0.0467153
0.0469083
0.0471898
0.0475585
0.0480056
0.0485264
0.0491102
0.0497488
0.0504366
0.0511625
0.051921
0.0527076
0.053513
0.0543378
0.0551685
0.0560065
0.0568542
0.05771
0.0585701
0.0594303
0.0602779
0.0611213
0.0619555
0.0627848
0.0636098
0.0644276
0.0652387
0.0660447
0.0668403
0.0676228
0.0683964
0.0691648
0.0699283
0.0706843
0.0714321
0.0721666
0.0728949
0.0736141
0.0743244
0.0750246
0.075717
0.0764
0.0488475
0.0489451
0.0491327
0.0493989
0.0497551
0.0501819
0.0506868
0.0512491
0.0518634
0.0525291
0.0532226
0.0539533
0.0547152
0.0554812
0.0562796
0.0570633
0.0578671
0.058688
0.0595167
0.0603437
0.0611667
0.0619575
0.0627672
0.06355
0.064344
0.0651286
0.0659026
0.0666712
0.0674379
0.068181
0.0689087
0.069634
0.0703574
0.0710751
0.0717776
0.0724707
0.0731428
0.0738229
0.0744823
0.0751365
0.0757731
0.0764057
0.0770253
0.0179594
0.0169699
0.016022
0.015114
0.0142449
0.013414
0.0126201
0.0118626
0.0111407
0.0104537
0.00980115
0.00918306
0.00859965
0.00805177
0.00754111
0.0070705
0.00664403
0.00626424
0.00592622
0.00562061
0.00533908
0.00507556
0.00482577
0.00458659
0.00435564
0.00413101
0.00391111
0.00369452
0.00348001
0.00326645
0.00305281
0.00283814
0.00262158
0.00240235
0.00217981
0.00195341
0.00172279
0.00148778
0.00124844
0.00100519
0.000759058
0.000510202
0.00030049
0.0179664
0.0170498
0.0161686
0.0153213
0.0145072
0.0137253
0.0129748
0.0122551
0.0115655
0.0109055
0.0102746
0.00967265
0.00909966
0.00855608
0.00804284
0.00756165
0.00711527
0.00670743
0.00634032
0.00600967
0.00570813
0.005429
0.00516703
0.00491814
0.00467926
0.00444791
0.00422213
0.00400023
0.00378077
0.00356239
0.00334387
0.00312408
0.00290191
0.00267637
0.00244654
0.0022116
0.00197085
0.0017238
0.00147019
0.00121023
0.00094483
0.000674531
0.000418471
0.0179728
0.017129
0.0163125
0.0155239
0.0147626
0.014028
0.0133194
0.0126364
0.0119783
0.0113448
0.0107354
0.01015
0.00958845
0.00905107
0.00853833
0.00805134
0.00759189
0.00716306
0.00676906
0.00641143
0.00608571
0.00578599
0.00550686
0.00524386
0.00499329
0.00475216
0.00451797
0.00428867
0.00406247
0.0038378
0.00361322
0.00338736
0.00315892
0.00292665
0.00268933
0.00244583
0.00219512
0.00193631
0.00166884
0.00139276
0.00110889
0.00081724
0.00053054
0.0179877
0.0172042
0.0164462
0.0157113
0.0149988
0.0143079
0.0136382
0.0129892
0.0123607
0.0117521
0.0111633
0.0105941
0.0100444
0.00951445
0.00900452
0.00851535
0.00804819
0.00760526
0.00719033
0.00680784
0.0064576
0.00613521
0.00583591
0.00555542
0.00528996
0.00503619
0.00479123
0.00455259
0.00431813
0.00408595
0.00385434
0.00362172
0.00338654
0.00314732
0.00290259
0.00265091
0.00239089
0.00212134
0.0018414
0.0015509
0.00125054
0.000939546
0.000630504
0.0179965
0.0172732
0.0165689
0.0158831
0.0152149
0.014564
0.0139299
0.0133124
0.0127111
0.0121258
0.0115563
0.0110027
0.0104648
0.00994274
0.00943692
0.00894784
0.00847643
0.00802429
0.00759431
0.00719112
0.00681819
0.00647344
0.00615302
0.00585323
0.00557063
0.00530194
0.00504412
0.00479438
0.00455023
0.00430945
0.00407002
0.00383008
0.00358785
0.00334159
0.0030896
0.00283014
0.00256156
0.00228233
0.0019913
0.00168811
0.00137319
0.00104502
0.000718041
0.0180037
0.0173359
0.0166811
0.0160399
0.0154123
0.0147978
0.0141963
0.0136075
0.0130313
0.0124675
0.0119161
0.0113771
0.0108505
0.0103366
0.00983552
0.00934783
0.00887427
0.00841609
0.00797546
0.00755622
0.00716347
0.00679805
0.00645714
0.00613772
0.0058369
0.00555182
0.00527958
0.00501729
0.00476224
0.00451191
0.00426395
0.00401624
0.00376671
0.0035134
0.00325432
0.00298751
0.00271104
0.00242308
0.0021222
0.00180783
0.00148011
0.00113688
0.000794779
0.0180122
0.0173934
0.0167834
0.016183
0.0155923
0.0150112
0.0144394
0.013877
0.0133238
0.0127799
0.0122453
0.0117201
0.0112042
0.0106981
0.010202
0.00971641
0.00924196
0.00877971
0.00833139
0.00790001
0.00749061
0.00710673
0.00674684
0.00640852
0.00608951
0.00578747
0.00549986
0.005224
0.00495713
0.00469649
0.00443945
0.00418359
0.0039266
0.00366626
0.00340035
0.00312662
0.00284284
0.00254692
0.00223727
0.00191298
0.00157379
0.00121666
0.000860997
0.0180255
0.0174477
0.016877
0.0163135
0.0157565
0.0152059
0.0146617
0.0141237
0.0135916
0.0130659
0.0125471
0.0120352
0.0115298
0.0110312
0.01054
0.0100568
0.00958206
0.00911676
0.00866253
0.00822188
0.00779897
0.00739871
0.00702139
0.00666523
0.00632861
0.00600989
0.00570665
0.00541623
0.00513651
0.00486505
0.00459878
0.00433464
0.00406998
0.00380245
0.00352957
0.00324927
0.00295912
0.00265647
0.00233882
0.00200613
0.00165801
0.00129133
0.000923888
0.0180414
0.0175001
0.0169613
0.0164317
0.0159062
0.0153833
0.0148654
0.014352
0.0138395
0.0133298
0.0128264
0.0123296
0.0118372
0.0113462
0.01086
0.0103812
0.00990696
0.00943903
0.00897912
0.00853165
0.00809909
0.00768606
0.0072927
0.00691913
0.00656414
0.00622849
0.00591428
0.00560978
0.00531223
0.00502436
0.00474735
0.00447642
0.00420612
0.00393316
0.00365497
0.00336436
0.00306296
0.00275145
0.00242976
0.00208491
0.00172096
0.00133119
0.000956225
0.000307223
0.000511668
0.000757697
0.000998712
0.00123447
0.00146421
0.00168776
0.00190533
0.00211738
0.00232454
0.00252759
0.00272745
0.0029251
0.00312166
0.00331832
0.00351636
0.00371722
0.00392248
0.00413407
0.00435431
0.00458626
0.00483419
0.00510422
0.00540489
0.00574605
0.00613233
0.00656074
0.0070271
0.00752861
0.00806365
0.00863143
0.00923171
0.00986468
0.0105308
0.0112307
0.0119652
0.0127351
0.0135415
0.0143854
0.015268
0.0161911
0.0171571
0.0181672
0.000424809
0.000673354
0.000937746
0.00119545
0.00144547
0.00168709
0.00192044
0.0021461
0.00236491
0.00257787
0.00278609
0.00299078
0.0031932
0.00339472
0.00359678
0.00380095
0.00400901
0.00422301
0.00444552
0.00467976
0.00492994
0.00520158
0.00550171
0.00583808
0.00621435
0.00662737
0.00707334
0.00754956
0.00805443
0.00858705
0.00914708
0.00973453
0.0103496
0.0109929
0.0116648
0.0123661
0.0130975
0.0138599
0.0146542
0.0154817
0.0163437
0.0172414
0.0181741
0.000536416
0.000813241
0.00109601
0.0013697
0.00163349
0.00188672
0.00212976
0.00236356
0.0025894
0.00280866
0.00302281
0.00323338
0.00344194
0.00365013
0.00385973
0.00407271
0.00429132
0.00451827
0.00475681
0.00501093
0.00528539
0.0055859
0.00591884
0.00628836
0.00669138
0.00712339
0.00758144
0.00806382
0.00856957
0.00909823
0.00964961
0.0102238
0.0108211
0.0114418
0.0120864
0.0127555
0.0134497
0.0141696
0.0149162
0.0156904
0.0164929
0.017324
0.0181829
0.000635944
0.000932702
0.00123209
0.00151999
0.00179607
0.0020598
0.00231178
0.00255336
0.00278617
0.00301199
0.00323265
0.00344997
0.00366585
0.00388231
0.0041015
0.00432589
0.00455828
0.00480193
0.00506051
0.00533815
0.00563945
0.00596951
0.00633296
0.00672834
0.00715031
0.00759524
0.00806109
0.00854671
0.00905147
0.00957504
0.0101174
0.0106785
0.0112586
0.0118579
0.0124769
0.013116
0.0137756
0.0144563
0.0151586
0.0158833
0.0166304
0.0173994
0.0181875
0.000723269
0.00103555
0.00134955
0.00164991
0.00193679
0.00220986
0.00247001
0.00271891
0.00295858
0.00319113
0.00341874
0.00364357
0.00386787
0.00409407
0.00432479
0.00456297
0.00481183
0.00507485
0.00535568
0.00565805
0.00598595
0.00634361
0.00673235
0.00714684
0.00758236
0.00803628
0.00850716
0.00899413
0.00949673
0.0100147
0.0105479
0.0110964
0.0116602
0.0122397
0.0128349
0.0134462
0.014074
0.0147186
0.0153803
0.0160595
0.0167561
0.0174699
0.0182021
0.000799381
0.00112457
0.00145151
0.00176283
0.00205924
0.00234067
0.00260828
0.0028641
0.00311049
0.00334991
0.00358484
0.00381783
0.00405155
0.00428883
0.00453273
0.00478654
0.00505363
0.00533735
0.00564087
0.00596731
0.00631998
0.00670194
0.0071103
0.00753905
0.00798459
0.008445
0.00891914
0.00940634
0.00990615
0.0104183
0.0109426
0.0114791
0.0120278
0.0125888
0.0131621
0.0137479
0.0143465
0.014958
0.0155825
0.0162202
0.0168709
0.0175346
0.0182107
0.000866895
0.0012036
0.00154159
0.00186235
0.00216706
0.00245594
0.00273036
0.00299264
0.00324549
0.00349171
0.0037342
0.00397592
0.00421992
0.00446939
0.00472768
0.00499821
0.00528427
0.00558875
0.00591416
0.00626296
0.00663801
0.00704025
0.0074638
0.00790357
0.00835683
0.0088221
0.00929848
0.00978527
0.010282
0.0107884
0.0113042
0.0118295
0.012364
0.0129078
0.0134609
0.0140234
0.0145952
0.0151763
0.0157668
0.0163667
0.016976
0.0175947
0.0182238
0.000923628
0.00126793
0.00161634
0.00194606
0.00225881
0.0025546
0.00283533
0.00310398
0.00336353
0.00361732
0.00386858
0.0041201
0.00437507
0.00463716
0.00491024
0.00519807
0.00550332
0.00582792
0.00617387
0.00654335
0.00693871
0.00735756
0.00779319
0.00824168
0.00870109
0.00917042
0.00964875
0.0101349
0.0106281
0.0111285
0.0116361
0.0121506
0.0126719
0.0131998
0.0137342
0.0142752
0.0148224
0.0153755
0.0159345
0.0164999
0.0170718
0.01765
0.0182345
0.000985089
0.00135349
0.00171027
0.00204698
0.00236355
0.00266503
0.0029539
0.00322951
0.00349604
0.00375719
0.00401135
0.00426415
0.00452476
0.00479759
0.00508954
0.00539993
0.00572474
0.00606837
0.00643432
0.0068248
0.0072385
0.00766831
0.00811148
0.00856517
0.00902915
0.00950349
0.00998462
0.0104674
0.010953
0.0114454
0.0119445
0.0124476
0.0129557
0.0134686
0.0139853
0.0145068
0.0150309
0.0155567
0.0160856
0.016619
0.0171582
0.0177006
0.0182434
0.001003
0.00302231
0.00489686
0.00664716
0.0083184
0.00994199
0.0115368
0.0131141
0.0146804
0.0162401
0.017796
0.01935
0.0209037
0.0224582
0.0240144
0.025573
0.0271348
0.0287
0.0302691
0.0318424
0.03342
0.0350021
0.0365887
0.0381798
0.0397752
0.0413749
0.0429787
0.0445862
0.0461972
0.0478115
0.0494285
0.0510479
0.0526691
0.0542917
0.055915
0.0575383
0.059161
0.0607823
0.0624016
0.0640179
0.0656306
0.0672388
0.068842
8.53812e-05
0.00113995
0.00253421
0.00399566
0.00550204
0.0070348
0.00858478
0.0101472
0.0117194
0.0132998
0.0148874
0.0164816
0.0180819
0.0196881
0.0212999
0.0229173
0.02454
0.0261681
0.0278014
0.0294397
0.031083
0.0327311
0.0343838
0.036041
0.0377023
0.0393675
0.0410363
0.0427083
0.0443831
0.0460603
0.0477395
0.0494202
0.0511018
0.0527837
0.0544653
0.0561458
0.0578247
0.0595011
0.0611743
0.0628435
0.0645081
0.0661677
0.0678212
0.000111673
0.000793577
0.00181127
0.00297373
0.00423847
0.00557721
0.00697233
0.00841215
0.00988849
0.0113953
0.0129281
0.0144834
0.0160582
0.0176504
0.0192579
0.0208794
0.0225135
0.0241589
0.0258147
0.02748
0.029154
0.0308359
0.0325251
0.0342209
0.0359226
0.0376297
0.0393415
0.0410575
0.042777
0.0444993
0.0462239
0.04795
0.0496771
0.0514043
0.053131
0.0548564
0.0565796
0.0582999
0.0600165
0.0617286
0.0634355
0.0651365
0.0668309
0.000289925
0.000694682
0.00151447
0.00248576
0.00357076
0.00474582
0.00599471
0.00730566
0.00866974
0.0100799
0.0115305
0.0130168
0.0145349
0.0160815
0.0176535
0.0192485
0.0208643
0.0224988
0.0241504
0.0258174
0.0274982
0.0291916
0.0308965
0.0326116
0.0343358
0.0360682
0.0378076
0.0395533
0.0413043
0.0430596
0.0448183
0.0465797
0.0483428
0.0501067
0.0518705
0.0536333
0.0553942
0.0571523
0.0589067
0.0606564
0.0624007
0.0641387
0.0658696
0.000362467
0.000637167
0.00134152
0.00218974
0.00314973
0.00420237
0.00533429
0.00653547
0.00779801
0.00911542
0.0104823
0.0118939
0.0133461
0.0148354
0.0163584
0.0179123
0.0194944
0.0211022
0.0227335
0.0243863
0.0260584
0.0277484
0.0294544
0.0311749
0.0329083
0.0346534
0.0364088
0.0381731
0.0399451
0.0417237
0.0435077
0.045296
0.0470874
0.0488808
0.0506752
0.0524694
0.0542624
0.0560531
0.0578405
0.0596236
0.0614013
0.0631723
0.0649347
0.000359236
0.000584523
0.00121529
0.00197822
0.00284765
0.00380793
0.00484802
0.00595961
0.00713604
0.00837177
0.00966203
0.0110026
0.0123897
0.0138199
0.01529
0.0167972
0.0183385
0.0199114
0.0215136
0.0231426
0.0247963
0.0264727
0.0281699
0.0298858
0.0316188
0.0333672
0.0351292
0.0369034
0.0386883
0.0404822
0.0422839
0.044092
0.0459051
0.0477218
0.049541
0.0513612
0.0531814
0.0550001
0.0568163
0.0586288
0.0604364
0.062238
0.0640329
0.000346412
0.000538978
0.00111499
0.00181393
0.00261392
0.00350182
0.00446828
0.0055063
0.0066103
0.00777559
0.00899809
0.0102742
0.0116005
0.012974
0.0143918
0.0158511
0.0173493
0.0188838
0.0204523
0.0220523
0.0236816
0.0253381
0.0270196
0.0287241
0.0304495
0.0321941
0.0339558
0.035733
0.0375239
0.0393267
0.0411399
0.0429618
0.0447908
0.0466255
0.0484644
0.0503059
0.0521487
0.0539913
0.0558325
0.0576709
0.0595052
0.0613343
0.0631568
0.00033583
0.000504991
0.00103337
0.00168129
0.00242549
0.00325449
0.00416023
0.00513668
0.00617907
0.00728342
0.00844627
0.00966452
0.0109353
0.0122559
0.0136238
0.0150366
0.0164917
0.0179869
0.0195198
0.0210881
0.0226897
0.0243222
0.0259837
0.0276719
0.0293848
0.0311203
0.0328764
0.0346512
0.0364427
0.0382491
0.0400686
0.0418993
0.0437395
0.0455875
0.0474416
0.0493001
0.0511616
0.0530243
0.0548869
0.056748
0.0586062
0.0604606
0.0623112
0.000328471
0.000485127
0.000966205
0.00157171
0.00226959
0.00304932
0.00390378
0.0048277
0.00581696
0.00686812
0.00797826
0.00914471
0.010365
0.0116369
0.0129582
0.0143266
0.01574
0.0171962
0.0186933
0.0202289
0.0218009
0.0234073
0.025046
0.0267148
0.0284115
0.0301342
0.0318806
0.0336489
0.0354369
0.0372426
0.0390641
0.0408994
0.0427466
0.0446039
0.0464693
0.0483412
0.0502178
0.0520973
0.0539781
0.0558588
0.057738
0.0596145
0.0614882
0.000323397
0.000473656
0.000910201
0.00147949
0.00213802
0.00287566
0.00368603
0.00456444
0.00550729
0.0065116
0.00757485
0.00869478
0.00986929
0.0110964
0.0123743
0.013701
0.0150746
0.0164932
0.0179549
0.0194577
0.0209997
0.0225788
0.024193
0.0258403
0.0275185
0.0292256
0.0309595
0.0327181
0.0344992
0.0363008
0.0381208
0.0399572
0.041808
0.0436711
0.0455446
0.0474265
0.049315
0.0512082
0.0531043
0.0550018
0.056899
0.0587942
0.0606842
0.00031942
0.000465284
0.000862754
0.00140064
0.00202513
0.00272624
0.00349813
0.00433661
0.00523846
0.0062011
0.00722235
0.00830027
0.00943308
0.0106191
0.0118567
0.0131443
0.0144803
0.0158628
0.0172903
0.0187609
0.0202728
0.0218242
0.0234132
0.0250377
0.0266959
0.0283856
0.0301046
0.0318511
0.0336228
0.0354176
0.0372334
0.0390681
0.0409195
0.0427855
0.044664
0.0465531
0.0484508
0.0503549
0.0522637
0.0541754
0.0560885
0.0580017
0.0599169
0.000315891
0.00045787
0.000821962
0.00133233
0.001927
0.00259601
0.00333393
0.00413698
0.00500229
0.00592757
0.00691095
0.00795076
0.00904548
0.0101937
0.011394
0.0126451
0.0139455
0.0152937
0.0166882
0.0181276
0.0196099
0.0211337
0.0226972
0.0242984
0.0259355
0.0276064
0.0293092
0.0310419
0.0328022
0.034588
0.0363973
0.0382278
0.0400773
0.0419438
0.0438249
0.0457187
0.0476229
0.0495356
0.0514546
0.0533781
0.0553042
0.0572305
0.0591526
0.000312569
0.000450856
0.000786466
0.0012725
0.00184077
0.00248127
0.00318892
0.00396027
0.00479273
0.0056843
0.00663332
0.00763837
0.00869816
0.00981152
0.0109772
0.0121942
0.0134611
0.0147767
0.0161398
0.0175489
0.0190025
0.0204991
0.0220372
0.0236148
0.0252303
0.0268817
0.0285672
0.0302847
0.0320321
0.0338073
0.0356082
0.0374326
0.0392783
0.0411431
0.0430247
0.0449209
0.0468296
0.0487485
0.0506756
0.0526088
0.0545459
0.0564851
0.0584257
0.000309392
0.000444174
0.000755517
0.00121959
0.00176426
0.0023792
0.00305965
0.0038024
0.00460514
0.00546606
0.00638374
0.00735694
0.00838457
0.00946565
0.0105992
0.0117842
0.0130196
0.0143044
0.0156375
0.0170175
0.0184433
0.0199133
0.0214262
0.0229803
0.024574
0.0262055
0.0278729
0.0295744
0.0313078
0.0330711
0.0348622
0.0366789
0.0385191
0.0403804
0.0422606
0.0441574
0.0460686
0.0479918
0.049925
0.0518658
0.0538119
0.0557611
0.0577102
0.000306391
0.000438135
0.000730178
0.00117258
0.00169585
0.00228771
0.00294352
0.00366031
0.00443598
0.0052689
0.00615783
0.00710172
0.00809963
0.00915076
0.0102543
0.0114094
0.0126152
0.0138708
0.0151752
0.0165275
0.0179263
0.0193705
0.0208588
0.0223897
0.0239616
0.025573
0.0272219
0.0289067
0.0306252
0.0323757
0.0341558
0.0359636
0.0377968
0.0396531
0.0415303
0.0434261
0.0453381
0.047264
0.0492014
0.0511482
0.0531016
0.055059
0.0570162
0.000303686
0.00043347
0.000712791
0.00113092
0.00163431
0.00220514
0.00283851
0.0035316
0.00428248
0.00508969
0.00595215
0.00686895
0.00783931
0.00886257
0.00993803
0.0110651
0.0122429
0.0134709
0.0147482
0.0160738
0.0174467
0.0188659
0.0203302
0.0218383
0.0233886
0.0249798
0.0266101
0.0282777
0.0299809
0.0317177
0.0334861
0.0352838
0.0371089
0.038959
0.0408319
0.0427252
0.0446365
0.0465635
0.0485038
0.050455
0.0524147
0.0543807
0.0563528
0.000301362
0.000430423
0.000702146
0.00109406
0.00157868
0.00213019
0.00274297
0.0034143
0.00414236
0.00492585
0.00576382
0.00665549
0.00760021
0.00859746
0.00964666
0.0107473
0.0118988
0.0131006
0.014352
0.0156521
0.0170002
0.0183952
0.0198362
0.0213218
0.0228509
0.0244221
0.0260336
0.027684
0.0293714
0.031094
0.0328498
0.0346368
0.0364528
0.0382957
0.040163
0.0420526
0.043962
0.0458888
0.0478306
0.0497849
0.0517493
0.0537212
0.0556973
0.000299375
0.000428509
0.000694965
0.00106127
0.00152818
0.0020618
0.00265562
0.00330686
0.00401383
0.00477535
0.00559058
0.00645886
0.00737966
0.00835255
0.0093771
0.0104529
0.0115795
0.0127565
0.0139832
0.015259
0.0165831
0.0179548
0.0193732
0.020837
0.0223452
0.0238965
0.0254894
0.0271224
0.0287939
0.0305019
0.0322447
0.0340202
0.0358264
0.0376611
0.039522
0.0414069
0.0433132
0.0452386
0.0471807
0.0491369
0.0511047
0.0530819
0.0550672
0.000297606
0.000427072
0.000688958
0.00103177
0.00148209
0.00199914
0.00257538
0.00320802
0.00389542
0.00463652
0.00543057
0.00627701
0.00717541
0.00812547
0.00912682
0.0101792
0.0112823
0.0124356
0.0136388
0.0148914
0.0161926
0.0175418
0.0189382
0.0203808
0.0218686
0.0234004
0.0249748
0.0265905
0.0282458
0.029939
0.0316684
0.033432
0.0352278
0.0370536
0.0389072
0.0407864
0.0426888
0.0446118
0.046553
0.04851
0.0504799
0.0524601
0.0544464
0.000295943
0.000425664
0.00068311
0.00100498
0.00143983
0.00194145
0.00250137
0.0031167
0.00378588
0.00450792
0.00528216
0.00610815
0.00698554
0.0079141
0.00889359
0.00992383
0.0110046
0.0121355
0.0133163
0.0145466
0.0158257
0.0171533
0.0185285
0.0199505
0.0214183
0.0229309
0.0244871
0.0260855
0.0277247
0.029403
0.0311186
0.0328699
0.0346548
0.0364712
0.0383169
0.0401896
0.0420871
0.0440069
0.0459464
0.0479032
0.0498745
0.0518572
0.0538475
0.000294322
0.000424102
0.000677148
0.000980717
0.00140092
0.00188814
0.00243284
0.00303201
0.00368417
0.00438837
0.00514406
0.00595084
0.00680846
0.00771677
0.0086756
0.00968487
0.0107444
0.011854
0.0130134
0.0142224
0.0154804
0.016787
0.0181417
0.0195437
0.0209921
0.022486
0.0240241
0.0256055
0.0272285
0.0288918
0.0305937
0.0323323
0.0341059
0.0359123
0.0377495
0.0396153
0.0415072
0.043423
0.0453601
0.0473161
0.0492884
0.0512749
0.0532736
0.000292723
0.000422392
0.000671255
0.000959541
0.00136508
0.00183873
0.00236918
0.00295324
0.00358944
0.00427691
0.00501516
0.00580387
0.00664285
0.00753202
0.00847131
0.00946068
0.0105001
0.0115893
0.0127284
0.0139169
0.0151546
0.0164411
0.017776
0.0191585
0.020588
0.0220635
0.023584
0.0251485
0.0267556
0.0284038
0.0300918
0.0318176
0.0335796
0.0353758
0.037204
0.0390622
0.040948
0.0428591
0.0447931
0.0467478
0.048721
0.0507119
0.0527238
0.00029116
0.000420689
0.00066599
0.000942678
0.00133224
0.00179283
0.00230986
0.00287972
0.00350092
0.00417266
0.00489447
0.00566612
0.00648749
0.00735855
0.00827929
0.00924976
0.01027
0.0113398
0.0124593
0.0136283
0.0148465
0.0161136
0.0174294
0.018793
0.020204
0.0216616
0.0231648
0.0247127
0.026304
0.0279373
0.0296112
0.0313241
0.0330744
0.0348599
0.0366788
0.038529
0.0404081
0.042314
0.0442443
0.0461968
0.0481691
0.0501591
0.0521623
0.000289669
0.000419194
0.00066187
0.000930416
0.00130236
0.00175015
0.00225446
0.00281093
0.003418
0.00407489
0.00478119
0.00553671
0.00634139
0.00719528
0.00809841
0.0090509
0.0100528
0.0111042
0.012205
0.0133552
0.0145546
0.0158031
0.0171003
0.0184456
0.0198387
0.0212788
0.0227651
0.0242966
0.0258722
0.0274907
0.0291507
0.0308506
0.0325889
0.0343636
0.0361729
0.0380146
0.0398867
0.0417868
0.0437126
0.0456619
0.0476322
0.0496209
0.051626
0.000288278
0.000418022
0.000658942
0.000921527
0.00127521
0.00171043
0.00220261
0.00274642
0.00334014
0.00398299
0.00467461
0.00541486
0.00620371
0.00704128
0.00792766
0.00886302
0.00984747
0.0108811
0.0119641
0.0130963
0.0142776
0.0155081
0.0167873
0.018115
0.0194907
0.0209137
0.0223834
0.0238988
0.025459
0.0270628
0.0287089
0.0303958
0.0321221
0.0338858
0.0356851
0.0375181
0.0393827
0.0412765
0.0431972
0.0451425
0.0471094
0.0490943
0.0510906
0.000286991
0.000417147
0.000656864
0.000914468
0.00125041
0.00167338
0.00215397
0.00268578
0.00326684
0.00389639
0.00457409
0.00529983
0.00607365
0.00689569
0.00776611
0.00868511
0.00965288
0.0106696
0.0117354
0.0128502
0.0140142
0.0152273
0.0164892
0.0177997
0.0191585
0.0205649
0.0220183
0.023518
0.025063
0.0266523
0.0282846
0.0299585
0.0316726
0.0334252
0.0352145
0.0370384
0.0388951
0.0407821
0.0426973
0.0446379
0.0466013
0.0485841
0.0505838
0.000285791
0.000416457
0.000655204
0.000908193
0.00122759
0.00163873
0.00210826
0.00262865
0.00319771
0.00381463
0.0044791
0.00519106
0.00595056
0.0067578
0.00761298
0.00851636
0.00946817
0.0104686
0.0115179
0.0126162
0.0137634
0.0149597
0.0162049
0.0174987
0.018841
0.0202312
0.0216688
0.023153
0.0246831
0.026258
0.0278766
0.0295376
0.0312396
0.032981
0.03476
0.0365747
0.0384231
0.040303
0.0422121
0.0441479
0.0461075
0.048088
0.050086
0.000284651
0.000415827
0.00065364
0.000902197
0.00120659
0.00160626
0.00206522
0.00257474
0.00313238
0.0037373
0.00438919
0.005088
0.00583386
0.00662698
0.0074676
0.00835604
0.00929255
0.0102774
0.0113109
0.0123931
0.0135242
0.0147043
0.0159333
0.017211
0.0185373
0.0199117
0.0213338
0.0228029
0.0243183
0.0258791
0.0274841
0.0291323
0.0308222
0.0325523
0.0343208
0.0361261
0.0379661
0.0398386
0.0417414
0.043672
0.0456277
0.0476064
0.0496068
0.000283549
0.000415172
0.000652012
0.000896377
0.00118761
0.00157582
0.0020246
0.00252375
0.00307053
0.003664
0.00430389
0.00499018
0.005723
0.00650262
0.00732931
0.00820343
0.00912527
0.0100952
0.0111134
0.0121802
0.0132958
0.0144601
0.0156735
0.0169355
0.0182462
0.0196053
0.0210122
0.0224666
0.0239676
0.0255144
0.0271061
0.0287414
0.0304193
0.032138
0.0338961
0.0356918
0.0375232
0.0393881
0.0412843
0.0432094
0.0451609
0.0471361
0.049131
0.000282471
0.000414467
0.00065033
0.000890938
0.00117125
0.00154739
0.00198625
0.00247547
0.00301186
0.00359442
0.00422286
0.00489717
0.00561753
0.00638423
0.00719758
0.00805796
0.00896573
0.00992123
0.0109248
0.0119768
0.0130773
0.0142265
0.0154246
0.0166715
0.0179671
0.0193112
0.0207034
0.0221432
0.0236301
0.0251632
0.0267416
0.0283643
0.0300301
0.0317376
0.0334852
0.0352712
0.0370938
0.0389509
0.0408403
0.0427599
0.0447072
0.0466797