/*--------------------------------*- C++ -*----------------------------------*\
| =========                 |                                                 |
| \\      /  F ield         | OpenFOAM: The Open Source CFD Toolbox           |
|  \\    /   O peration     | Version:  2.3.0                                 |
|   \\  /    A nd           | Web:      www.OpenFOAM.org                      |
|    \\/     M anipulation  |                                                 |
\*---------------------------------------------------------------------------*/
FoamFile
{
    version     2.0;
    format      ascii;
    class       volVectorField;
    location    "5000";
    object      U;
}
// * * * * * * * * * * * * * * * * * * * * * * * * * * * * * * * * * * * * * //

dimensions      [0 1 -1 0 0 0 0];

internalField   nonuniform List<vector> 
37724
(
(20.2694 0.334638 0)
(20.2739 0.3417 1.42427e-22)
(20.2785 0.348556 -6.42399e-22)
(20.2833 0.355675 4.97549e-22)
(20.2882 0.363025 1.87984e-21)
(20.2932 0.370618 -1.86218e-21)
(20.2983 0.378467 0)
(20.3037 0.386589 3.22275e-21)
(20.3091 0.395002 -3.18951e-21)
(20.3148 0.403729 0)
(20.3207 0.412793 0)
(20.3267 0.422222 0)
(20.333 0.432046 0)
(20.3395 0.442304 6.17272e-21)
(20.3462 0.453039 -6.16381e-21)
(20.3532 0.464302 0)
(20.3604 0.476157 0)
(20.368 0.488678 0)
(20.3759 0.501952 0)
(20.3842 0.516083 0)
(20.393 0.531195 0)
(20.4022 0.547434 -1.18335e-20)
(20.412 0.56497 1.20649e-20)
(20.4224 0.584007 -1.37768e-20)
(20.4335 0.60478 2.89746e-20)
(20.4454 0.627567 -1.52697e-20)
(20.4581 0.65269 -1.71844e-20)
(20.4719 0.680527 1.77823e-20)
(20.4867 0.711514 0)
(20.5027 0.746158 0)
(20.5198 0.785046 0)
(20.5381 0.828851 0)
(20.5575 0.878349 2.53336e-20)
(20.5776 0.934418 -2.67065e-20)
(20.5978 0.998053 2.76938e-20)
(20.6172 1.07037 -1.51382e-20)
(20.6338 1.15263 -1.51201e-20)
(20.6445 1.2461 0)
(20.6434 1.35189 1.28437e-20)
(20.6207 1.47122 -1.37377e-20)
(20.5596 1.60897 0)
(20.4278 1.77417 -3.21807e-22)
(20.157 1.9702 3.6077e-22)
(20.2621 0.339506 0)
(20.2657 0.346193 0)
(20.2693 0.35276 1.02234e-22)
(20.2731 0.359582 1.88963e-22)
(20.2768 0.366627 1.92125e-22)
(20.2807 0.373905 -4.7456e-22)
(20.2846 0.381429 0)
(20.2886 0.389213 0)
(20.2927 0.397275 2.48691e-21)
(20.2969 0.405637 -2.46022e-21)
(20.3011 0.414322 0)
(20.3054 0.423352 3.68177e-21)
(20.3098 0.432754 4.45461e-22)
(20.3143 0.442556 -4.08547e-21)
(20.3189 0.452788 5.00684e-21)
(20.3235 0.463485 -5.00638e-21)
(20.3282 0.47469 0)
(20.3329 0.486448 6.587e-21)
(20.3376 0.498814 -1.3833e-20)
(20.3424 0.511848 7.26896e-21)
(20.3471 0.525624 -8.59444e-21)
(20.3518 0.540227 -6.72013e-22)
(20.3564 0.555754 9.56124e-21)
(20.3609 0.572323 1.12479e-20)
(20.3652 0.590073 8.09961e-22)
(20.3691 0.609163 8.5677e-22)
(20.3727 0.629784 -2.86318e-20)
(20.3757 0.652157 1.52172e-20)
(20.378 0.676537 1.76262e-20)
(20.3793 0.70322 9.29629e-22)
(20.3793 0.732538 -1.98966e-20)
(20.3776 0.764867 0)
(20.3736 0.80061 0)
(20.3668 0.840191 -1.24605e-20)
(20.3563 0.884018 1.29961e-20)
(20.341 0.932438 0)
(20.3196 0.985642 -1.20973e-20)
(20.2907 1.04351 2.31709e-20)
(20.2523 1.10535 -1.49154e-20)
(20.2024 1.16958 4.06502e-21)
(20.1392 1.23307 -8.08854e-22)
(20.0607 1.2886 2.51235e-21)
(19.9668 1.3205 -1.71452e-21)
(20.2553 0.343308 0)
(20.2582 0.349686 0)
(20.2611 0.355948 -1.52801e-22)
(20.2641 0.362439 1.51595e-22)
(20.2671 0.369137 0)
(20.2702 0.376052 0)
(20.2732 0.383197 2.92034e-22)
(20.2764 0.390586 -2.88531e-22)
(20.2795 0.398237 0)
(20.2827 0.40617 0)
(20.2858 0.41441 -1.7327e-21)
(20.2891 0.422982 1.71898e-21)
(20.2923 0.431912 0)
(20.2955 0.441228 -2.5843e-21)
(20.2988 0.450961 2.57885e-21)
(20.302 0.461145 0)
(20.3053 0.47182 0)
(20.3085 0.483031 0)
(20.3116 0.49483 0)
(20.3147 0.50727 0)
(20.3178 0.520414 0)
(20.3206 0.53433 0)
(20.3234 0.549094 0)
(20.3259 0.56479 -5.52448e-21)
(20.3281 0.58151 5.64586e-21)
(20.3299 0.599356 0)
(20.3313 0.618433 0)
(20.3319 0.638858 0)
(20.3318 0.660748 0)
(20.3306 0.684221 0)
(20.3281 0.709384 0)
(20.3238 0.736326 -2.77255e-21)
(20.3173 0.765102 2.87379e-21)
(20.308 0.7957 0)
(20.2953 0.828016 0)
(20.2784 0.8618 -3.00015e-22)
(20.2562 0.896599 3.10751e-22)
(20.2279 0.931674 0)
(20.1922 0.965915 3.41864e-21)
(20.1484 0.997745 -3.51207e-21)
(20.0955 1.02501 0)
(20.0333 1.04483 2.40107e-21)
(19.9633 1.05379 -2.43398e-21)
(20.249 0.346387 0)
(20.2513 0.352366 0)
(20.2536 0.358267 0)
(20.2559 0.364384 0)
(20.2583 0.37069 0)
(20.2606 0.377195 0)
(20.263 0.383909 0)
(20.2653 0.390847 0)
(20.2677 0.398025 0)
(20.27 0.405457 0)
(20.2723 0.413167 2.87288e-22)
(20.2746 0.421179 -2.8518e-22)
(20.2768 0.429518 1.01921e-21)
(20.279 0.438206 2.24313e-22)
(20.2812 0.447269 -1.23808e-21)
(20.2832 0.456732 0)
(20.2852 0.466625 0)
(20.2871 0.476987 0)
(20.2888 0.487858 2.35037e-21)
(20.2903 0.499284 -2.37409e-21)
(20.2916 0.511311 0)
(20.2926 0.523993 0)
(20.2933 0.53739 0)
(20.2937 0.551563 0)
(20.2935 0.566581 3.56023e-21)
(20.2928 0.582512 -7.32794e-21)
(20.2914 0.59943 5.65376e-21)
(20.2892 0.617405 -3.79878e-21)
(20.286 0.636504 1.92633e-21)
(20.2816 0.65678 0)
(20.2757 0.678272 0)
(20.2682 0.700984 0)
(20.2585 0.724879 0)
(20.2464 0.749856 1.09041e-22)
(20.2314 0.775721 -1.12794e-22)
(20.2131 0.802153 0)
(20.1908 0.828673 0)
(20.1642 0.854596 -3.06866e-21)
(20.1329 0.878995 3.15608e-21)
(20.0967 0.900684 0)
(20.0556 0.918217 0)
(20.0105 0.929962 -2.41787e-21)
(19.9626 0.934318 2.45103e-21)
(20.243 0.348594 1.49149e-22)
(20.2449 0.354328 -4.23131e-22)
(20.2467 0.359904 -2.25242e-22)
(20.2485 0.365654 9.41472e-22)
(20.2504 0.371568 -4.42284e-22)
(20.2522 0.377661 6.89783e-22)
(20.254 0.383944 -1.27273e-21)
(20.2558 0.390436 5.84238e-22)
(20.2576 0.39715 0)
(20.2593 0.404094 0)
(20.261 0.411289 -2.27578e-22)
(20.2626 0.418764 2.26093e-22)
(20.2642 0.426543 -6.58051e-23)
(20.2656 0.434647 7.56618e-23)
(20.2671 0.443099 7.22983e-23)
(20.2684 0.451919 -8.24549e-23)
(20.2696 0.461126 2.1472e-22)
(20.2707 0.470748 -4.90014e-22)
(20.2715 0.480824 2.76276e-22)
(20.2722 0.491392 0)
(20.2727 0.502486 0)
(20.2728 0.514148 0)
(20.2726 0.52642 4.45626e-22)
(20.2719 0.539349 -4.54287e-22)
(20.2708 0.552983 0)
(20.269 0.567367 0)
(20.2666 0.582544 2.46136e-22)
(20.2633 0.598556 -3.50775e-22)
(20.259 0.615435 1.00788e-22)
(20.2536 0.633196 3.99819e-22)
(20.2468 0.651828 3.73679e-22)
(20.2384 0.671291 -8.10903e-22)
(20.2281 0.691499 0)
(20.2156 0.712308 0)
(20.2005 0.7335 0)
(20.1826 0.754757 2.5899e-21)
(20.1616 0.77563 -2.66944e-21)
(20.1371 0.795533 0)
(20.1091 0.813731 0)
(20.0774 0.829349 0)
(20.0425 0.841429 -4.13989e-21)
(20.0049 0.849005 4.20907e-21)
(19.9658 0.851248 -5.09356e-36)
(20.2376 0.350741 0)
(20.2391 0.355931 0)
(20.2405 0.361095 0)
(20.2419 0.366449 0)
(20.2434 0.371965 0)
(20.2448 0.377651 0)
(20.2461 0.383515 9.51447e-22)
(20.2475 0.389575 -6.93701e-23)
(20.2488 0.395847 -8.63145e-22)
(20.2501 0.402331 -7.2598e-22)
(20.2513 0.409035 7.20656e-22)
(20.2524 0.415995 0)
(20.2534 0.42324 0)
(20.2543 0.43079 0)
(20.2552 0.438666 0)
(20.2559 0.446888 0)
(20.2565 0.455467 0)
(20.257 0.464409 0)
(20.2572 0.473756 2.97014e-22)
(20.2572 0.483544 -3.003e-22)
(20.257 0.493799 0)
(20.2564 0.504553 0)
(20.2554 0.515838 -3.28081e-22)
(20.254 0.527691 3.34435e-22)
(20.2521 0.540149 0)
(20.2496 0.553243 0)
(20.2463 0.566991 -7.3753e-22)
(20.2422 0.581426 7.56854e-22)
(20.2372 0.596559 0)
(20.231 0.612388 0)
(20.2236 0.628882 2.02625e-21)
(20.2147 0.645972 -2.08779e-21)
(20.2041 0.663562 -1.65352e-21)
(20.1916 0.681476 1.7046e-21)
(20.1768 0.699515 -2.63127e-21)
(20.1597 0.717391 2.71012e-21)
(20.14 0.734701 0)
(20.1175 0.750948 -4.96611e-21)
(20.0923 0.765536 5.09175e-21)
(20.0644 0.777764 0)
(20.034 0.786944 0)
(20.0018 0.792447 0)
(19.9686 0.79372 0)
(20.2327 0.352276 0)
(20.2338 0.357097 0)
(20.235 0.361895 3.87806e-22)
(20.2361 0.366874 -1.12391e-21)
(20.2371 0.372018 2.87296e-23)
(20.2382 0.37732 2.77773e-23)
(20.2393 0.382799 2.73638e-23)
(20.2402 0.388449 6.27059e-22)
(20.2412 0.394317 1.13696e-21)
(20.2421 0.400389 -1.12774e-21)
(20.243 0.406645 1.0306e-21)
(20.2437 0.413131 -1.02554e-21)
(20.2444 0.419895 -9.43893e-22)
(20.2449 0.426945 9.42877e-22)
(20.2453 0.434304 0)
(20.2456 0.441988 0)
(20.2458 0.450037 0)
(20.2458 0.458404 0)
(20.2456 0.467118 0)
(20.2452 0.47624 0)
(20.2445 0.485783 0)
(20.2435 0.495769 9.34586e-22)
(20.2421 0.506221 -9.50692e-22)
(20.2402 0.517175 0)
(20.2378 0.528656 1.21774e-21)
(20.2348 0.540701 1.33841e-22)
(20.2312 0.553293 -2.99622e-21)
(20.2267 0.566452 -2.19436e-22)
(20.2213 0.580202 1.89248e-21)
(20.2147 0.594516 0)
(20.2071 0.609371 0)
(20.198 0.624655 -1.82786e-21)
(20.1874 0.640307 1.88092e-21)
(20.1751 0.656098 0)
(20.1608 0.671848 0)
(20.1445 0.687336 3.78889e-21)
(20.1259 0.702183 6.25133e-22)
(20.105 0.715969 -4.63109e-21)
(20.0819 0.728224 0)
(20.0566 0.738307 0)
(20.0293 0.745677 0)
(20.0006 0.749977 1.21435e-21)
(19.9712 0.75071 -1.22923e-21)
(20.2281 0.353313 2.38395e-22)
(20.2291 0.357932 -2.35469e-22)
(20.23 0.3624 0)
(20.2308 0.367014 4.29205e-22)
(20.2317 0.371834 4.02358e-22)
(20.2324 0.376757 -8.18688e-22)
(20.2332 0.381915 -7.70349e-22)
(20.2339 0.387182 7.62814e-22)
(20.2346 0.392685 0)
(20.2353 0.39839 6.90008e-22)
(20.236 0.404261 -1.35563e-21)
(20.2364 0.410276 6.66855e-22)
(20.2368 0.416634 0)
(20.2369 0.423222 1.26024e-21)
(20.2371 0.430158 -1.26214e-21)
(20.2369 0.437325 0)
(20.2367 0.444901 1.23912e-21)
(20.2365 0.452825 -2.50608e-21)
(20.236 0.460988 1.26956e-21)
(20.2353 0.469553 0)
(20.2343 0.478494 0)
(20.2329 0.487841 1.43604e-21)
(20.2312 0.497596 -1.46005e-21)
(20.229 0.507805 0)
(20.2264 0.518483 8.94353e-22)
(20.2231 0.529632 -9.13516e-22)
(20.2192 0.541333 0)
(20.2144 0.553386 0)
(20.2089 0.566081 1.4261e-21)
(20.202 0.579167 1.76443e-22)
(20.1943 0.592795 -1.68283e-21)
(20.1852 0.60666 2.20081e-21)
(20.1746 0.620859 -2.2605e-21)
(20.1628 0.635097 3.00404e-21)
(20.1489 0.649119 -3.08403e-21)
(20.1332 0.662916 -2.05707e-21)
(20.1155 0.676049 2.10819e-21)
(20.0961 0.688046 0)
(20.0744 0.698641 0)
(20.0514 0.707282 0)
(20.0264 0.713341 0)
(20.0002 0.716921 -1.18572e-21)
(19.9735 0.71735 1.1989e-21)
(20.2235 0.353752 1.32911e-22)
(20.2247 0.358541 -1.31417e-22)
(20.2255 0.36274 0)
(20.2261 0.366939 0)
(20.2268 0.37155 0)
(20.2273 0.376007 0)
(20.2279 0.38095 0)
(20.2284 0.385843 8.96087e-22)
(20.2288 0.39109 -8.82589e-22)
(20.2291 0.396431 0)
(20.2298 0.402094 0)
(20.23 0.407502 8.17868e-22)
(20.2303 0.413606 -8.10393e-22)
(20.2301 0.419659 0)
(20.2301 0.426376 0)
(20.2298 0.433076 -8.05567e-22)
(20.2291 0.44011 7.99437e-22)
(20.2287 0.447755 0)
(20.2281 0.455414 0)
(20.2271 0.463599 0)
(20.2259 0.472095 0)
(20.2244 0.48096 0)
(20.2225 0.49016 0)
(20.2201 0.499693 -1.02045e-21)
(20.2174 0.50981 2.17631e-21)
(20.2136 0.519953 -1.13927e-21)
(20.2099 0.5312 0)
(20.2048 0.542039 1.49941e-21)
(20.1994 0.553991 -1.52764e-21)
(20.1922 0.565881 0)
(20.1845 0.578752 0)
(20.1756 0.591452 0)
(20.1649 0.604433 0)
(20.1537 0.617669 0)
(20.1403 0.630183 0)
(20.1251 0.642676 2.16103e-21)
(20.1077 0.654821 -4.60524e-21)
(20.0891 0.665323 2.54711e-21)
(20.0679 0.674475 0)
(20.0472 0.682475 0)
(20.0242 0.687386 -1.03524e-21)
(20.0001 0.690579 1.04634e-21)
(19.9762 0.690843 0)
(19.5771 1.83228 2.15137e-20)
(19.3139 1.66505 -1.99515e-20)
(19.2015 1.48695 0)
(19.1604 1.34529 8.4123e-20)
(19.1559 1.22492 -7.803e-20)
(19.1707 1.11968 0)
(19.1953 1.02743 6.98725e-20)
(19.2242 0.946801 6.52379e-20)
(19.2546 0.876316 -1.22605e-19)
(19.2847 0.814596 1.14212e-19)
(19.3138 0.760427 -1.07973e-19)
(19.3413 0.712758 0)
(19.3673 0.670678 0)
(19.3915 0.633401 0)
(19.4141 0.600251 0)
(19.4352 0.570644 -8.00209e-20)
(19.4548 0.544086 7.72286e-20)
(19.4731 0.52015 7.25598e-20)
(19.4902 0.498472 -1.39866e-19)
(19.5063 0.47874 6.76038e-20)
(19.5215 0.460691 -6.39954e-20)
(19.5358 0.444097 6.27283e-20)
(19.5494 0.428766 0)
(19.5623 0.414534 0)
(19.5746 0.40126 0)
(19.5864 0.388828 0)
(19.5978 0.377135 0)
(19.6087 0.366097 0)
(19.6192 0.355642 5.19027e-20)
(19.6294 0.345711 -5.19662e-20)
(19.6393 0.336251 0)
(19.6489 0.327219 0)
(19.6582 0.318578 0)
(19.6672 0.310295 0)
(19.676 0.302341 4.91653e-20)
(19.6845 0.294691 -4.96696e-20)
(19.6928 0.287323 0)
(19.7009 0.280218 4.86148e-20)
(19.7087 0.27336 -4.90651e-20)
(19.7164 0.266731 -2.40556e-20)
(19.7238 0.260325 3.61109e-20)
(19.731 0.254028 -1.19529e-20)
(19.738 0.24888 0)
(19.8568 1.31279 -5.10809e-21)
(19.7591 1.2657 1.80626e-20)
(19.6838 1.19603 -1.27454e-20)
(19.6269 1.12102 -3.03922e-20)
(19.5851 1.0475 9.09497e-20)
(19.5553 0.978281 -1.20183e-19)
(19.5351 0.914544 5.84356e-20)
(19.5223 0.856665 0)
(19.5152 0.804519 -5.45652e-20)
(19.5125 0.757718 5.2207e-20)
(19.513 0.715764 0)
(19.5159 0.67813 0)
(19.5207 0.644304 8.81149e-20)
(19.5268 0.613808 -1.34907e-21)
(19.5338 0.586211 -8.05331e-20)
(19.5415 0.561134 -7.52761e-20)
(19.5497 0.538247 1.44694e-19)
(19.5581 0.517265 -1.19652e-21)
(19.5666 0.497941 -1.13417e-21)
(19.5753 0.480068 -6.41058e-20)
(19.5839 0.463468 -6.07308e-20)
(19.5926 0.447992 9.58115e-22)
(19.6011 0.43351 5.77963e-20)
(19.6096 0.419914 -5.53082e-20)
(19.6179 0.407109 1.08685e-19)
(19.6261 0.395017 -5.35293e-20)
(19.6342 0.383568 0)
(19.6422 0.372705 5.0867e-20)
(19.65 0.362378 -5.08608e-20)
(19.6577 0.352542 4.9575e-20)
(19.6652 0.34316 -6.70931e-22)
(19.6726 0.334194 -4.9426e-20)
(19.6798 0.325614 0)
(19.687 0.317389 4.83445e-20)
(19.6939 0.309494 -4.88631e-20)
(19.7008 0.301905 0)
(19.7075 0.294599 0)
(19.7141 0.287558 2.40505e-20)
(19.7205 0.280764 -2.97721e-22)
(19.7268 0.2742 -2.93792e-22)
(19.7329 0.267853 -2.41169e-20)
(19.739 0.261633 0)
(19.7449 0.256431 0)
(19.8897 1.04912 -3.73322e-21)
(19.821 1.03049 3.73862e-21)
(19.7618 1.0009 0)
(19.7131 0.964495 -2.02058e-20)
(19.6742 0.924469 1.9646e-20)
(19.6441 0.883074 0)
(19.6215 0.841857 4.24005e-20)
(19.6052 0.80184 -4.08784e-20)
(19.594 0.763653 0)
(19.587 0.727639 0)
(19.5832 0.693944 -3.88145e-20)
(19.5821 0.662581 3.74039e-20)
(19.5829 0.63348 0)
(19.5853 0.606519 0)
(19.5888 0.581552 0)
(19.5932 0.558423 0)
(19.5983 0.536975 0)
(19.6038 0.517055 0)
(19.6097 0.498524 -5.89203e-20)
(19.6157 0.481253 5.76228e-20)
(19.622 0.465123 0)
(19.6283 0.450026 0)
(19.6347 0.435864 0)
(19.6411 0.422548 0)
(19.6474 0.41 0)
(19.6538 0.398149 0)
(19.6601 0.386936 0)
(19.6664 0.376305 0)
(19.6726 0.366209 -4.78906e-20)
(19.6787 0.356603 4.79838e-20)
(19.6848 0.347447 0)
(19.6908 0.338703 -4.69825e-20)
(19.6967 0.330338 4.73519e-20)
(19.7026 0.322322 0)
(19.7083 0.314629 0)
(19.714 0.307236 2.34376e-20)
(19.7197 0.30012 -2.37193e-20)
(19.7252 0.293262 0)
(19.7306 0.286646 0)
(19.7359 0.280258 1.17623e-20)
(19.7411 0.274082 -1.18535e-20)
(19.7463 0.268053 0)
(19.7513 0.262873 0)
(19.9139 0.930232 3.46953e-21)
(19.8668 0.917736 -3.46324e-21)
(19.8235 0.898071 0)
(19.7851 0.873068 0)
(19.7522 0.84451 1.88264e-20)
(19.7247 0.813914 -1.829e-20)
(19.7024 0.782482 0)
(19.6845 0.75111 0)
(19.6707 0.720436 -3.79758e-20)
(19.6603 0.690881 3.66783e-20)
(19.6527 0.662702 0)
(19.6476 0.636037 0)
(19.6444 0.610933 0)
(19.6428 0.587377 0)
(19.6425 0.56532 -3.21308e-20)
(19.6433 0.544687 6.2293e-20)
(19.6449 0.525389 -9.04775e-20)
(19.6472 0.507334 1.1706e-19)
(19.6501 0.49043 -5.69914e-20)
(19.6534 0.474586 0)
(19.6571 0.459714 0)
(19.661 0.445731 0)
(19.6652 0.432557 0)
(19.6696 0.42012 4.99894e-20)
(19.6741 0.408357 -4.94754e-20)
(19.6787 0.397213 0)
(19.6834 0.386641 0)
(19.6881 0.376597 0)
(19.6929 0.367039 4.65477e-20)
(19.6977 0.357927 -4.10817e-22)
(19.7025 0.349226 -4.63575e-20)
(19.7073 0.3409 2.28943e-20)
(19.7121 0.332923 -2.30611e-20)
(19.7168 0.325271 0)
(19.7215 0.317922 0)
(19.7262 0.310852 0)
(19.7309 0.304041 0)
(19.7355 0.297475 0)
(19.74 0.29114 0)
(19.7444 0.285027 0)
(19.7488 0.279126 0)
(19.7532 0.273402 0)
(19.7575 0.26823 0)
(19.9263 0.847719 5.14352e-36)
(19.8878 0.83846 7.23086e-21)
(19.8516 0.824035 -7.11071e-21)
(19.8188 0.805418 0)
(19.7898 0.783688 0)
(19.7647 0.759874 0)
(19.7436 0.734882 -1.74653e-20)
(19.7262 0.709439 1.69338e-20)
(19.712 0.684109 0)
(19.7008 0.659304 0)
(19.6922 0.635301 0)
(19.6857 0.612282 -3.27603e-20)
(19.681 0.59035 -2.21155e-22)
(19.6779 0.569551 3.09733e-20)
(19.6761 0.54989 -3.02617e-20)
(19.6754 0.531343 5.88325e-20)
(19.6755 0.513864 -2.86377e-20)
(19.6764 0.497405 0)
(19.6779 0.481906 0)
(19.6798 0.467305 2.64242e-20)
(19.6822 0.453537 -2.59107e-20)
(19.685 0.440534 0)
(19.688 0.428234 0)
(19.6913 0.416582 0)
(19.6947 0.405532 -2.38243e-20)
(19.6983 0.395046 4.70908e-20)
(19.7019 0.385085 -2.33226e-20)
(19.7056 0.375609 2.29178e-20)
(19.7094 0.366583 -1.59955e-22)
(19.7133 0.357966 -1.61476e-22)
(19.7172 0.349725 -2.26266e-20)
(19.7212 0.341832 2.24033e-20)
(19.7251 0.334266 -2.25484e-20)
(19.729 0.327006 0)
(19.733 0.32003 0)
(19.7369 0.313316 2.25147e-20)
(19.7408 0.306845 -4.53696e-20)
(19.7446 0.300605 2.28617e-20)
(19.7484 0.29459 -1.13868e-20)
(19.7522 0.288791 2.29198e-20)
(19.7558 0.283206 -5.79914e-21)
(19.7595 0.277839 -8.59762e-21)
(19.7631 0.272812 2.86699e-21)
(19.9352 0.790519 0)
(19.9025 0.7829 0)
(19.8714 0.771209 0)
(19.8427 0.756092 0)
(19.8169 0.738279 1.58896e-20)
(19.7942 0.718525 -1.54917e-20)
(19.7745 0.697551 0)
(19.7578 0.675937 1.64538e-20)
(19.7439 0.654176 -1.59669e-20)
(19.7325 0.632647 1.6195e-20)
(19.7233 0.611603 -1.57017e-20)
(19.7161 0.59124 -3.12904e-20)
(19.7105 0.571683 3.03535e-20)
(19.7064 0.553003 0)
(19.7035 0.535237 0)
(19.7017 0.518378 2.84449e-20)
(19.7007 0.50241 -2.77081e-20)
(19.7005 0.487306 0)
(19.7009 0.473026 0)
(19.7018 0.459524 2.57508e-20)
(19.7033 0.446741 -2.52525e-20)
(19.7051 0.434624 0)
(19.7072 0.423126 0)
(19.7095 0.412208 -2.37308e-20)
(19.7121 0.401845 2.34653e-20)
(19.7148 0.392004 0)
(19.7176 0.382646 0)
(19.7205 0.373737 0)
(19.7236 0.365239 0)
(19.7267 0.357111 0)
(19.7299 0.349327 0)
(19.7332 0.341868 0)
(19.7364 0.334721 2.20029e-20)
(19.7397 0.327863 -2.21634e-20)
(19.743 0.32127 -2.20763e-20)
(19.7463 0.314916 1.41494e-22)
(19.7496 0.308793 2.23926e-20)
(19.7528 0.302892 0)
(19.756 0.297203 0)
(19.7591 0.291718 0)
(19.7622 0.286427 0)
(19.7653 0.281335 0)
(19.7684 0.276255 0)
(19.9416 0.747714 -1.51418e-21)
(19.9125 0.741083 1.50619e-21)
(19.8848 0.731046 0)
(19.859 0.718142 0)
(19.8355 0.702876 0)
(19.8145 0.685833 -1.53418e-20)
(19.7961 0.667616 -5.74307e-22)
(19.7801 0.648661 1.51174e-20)
(19.7666 0.629455 0)
(19.7553 0.610326 0)
(19.746 0.591468 1.52346e-20)
(19.7384 0.573117 -1.47992e-20)
(19.7324 0.555391 0)
(19.7277 0.538374 0)
(19.7242 0.522125 2.81947e-20)
(19.7217 0.506643 9.76943e-23)
(19.7201 0.491928 -5.37966e-20)
(19.7191 0.477957 -1.55285e-23)
(19.7189 0.4647 2.57185e-20)
(19.7192 0.452119 0)
(19.7201 0.440147 -2.4621e-20)
(19.7212 0.428774 2.41957e-20)
(19.7227 0.41796 0)
(19.7244 0.407692 0)
(19.7263 0.39796 0)
(19.7283 0.388709 0)
(19.7306 0.379898 0)
(19.733 0.371501 0)
(19.7355 0.363474 0)
(19.7381 0.355781 2.18296e-20)
(19.7408 0.348417 -2.1851e-20)
(19.7435 0.341372 -2.16882e-20)
(19.7462 0.334627 2.17933e-20)
(19.749 0.328152 -2.16991e-20)
(19.7518 0.321917 2.18736e-20)
(19.7546 0.315898 1.09194e-20)
(19.7573 0.310117 -6.07385e-23)
(19.7601 0.304553 -6.17778e-23)
(19.7628 0.299191 -6.24945e-23)
(19.7654 0.29402 -1.67558e-20)
(19.7681 0.289038 5.61175e-21)
(19.7707 0.284259 0)
(19.7734 0.279403 0)
(19.9466 0.714483 1.44954e-21)
(19.9203 0.708503 -1.44202e-21)
(19.895 0.699515 0)
(19.871 0.688218 0)
(19.8496 0.674783 0)
(19.8298 0.65963 0)
(19.8124 0.643339 7.37829e-21)
(19.7972 0.626235 -7.19735e-21)
(19.7839 0.608944 -1.48351e-20)
(19.7729 0.591618 1.44461e-20)
(19.7636 0.574386 -1.46077e-20)
(19.7559 0.557594 1.42177e-20)
(19.7496 0.541266 -1.41867e-20)
(19.7445 0.525592 -1.1744e-22)
(19.7407 0.510561 1.3579e-20)
(19.7378 0.496244 0)
(19.7356 0.482574 0)
(19.7343 0.469528 -1.28194e-20)
(19.7336 0.457094 1.2546e-20)
(19.7336 0.445244 0)
(19.7339 0.433877 -2.4135e-20)
(19.7346 0.423177 2.37307e-20)
(19.7356 0.412942 0)
(19.7368 0.403306 0)
(19.7382 0.394161 2.25683e-20)
(19.7398 0.38542 -4.46259e-20)
(19.7416 0.377077 2.21039e-20)
(19.7436 0.369124 0)
(19.7458 0.361483 -2.16484e-20)
(19.7479 0.354175 2.16142e-20)
(19.7502 0.347219 0)
(19.7524 0.340573 1.06936e-20)
(19.7547 0.334198 -2.1427e-20)
(19.7571 0.328057 1.07514e-20)
(19.7595 0.322136 0)
(19.7619 0.316415 1.07774e-20)
(19.7642 0.311 -1.08827e-20)
(19.7665 0.305753 -1.08882e-20)
(19.7688 0.300707 5.52759e-21)
(19.7711 0.295834 5.52861e-21)
(19.7733 0.291168 0)
(19.7756 0.286704 -2.76867e-21)
(19.7778 0.282111 2.75759e-21)
(19.9513 0.687974 0)
(19.9271 0.682372 1.51623e-21)
(19.9036 0.673834 -1.51712e-21)
(19.8808 0.663972 0)
(19.8605 0.652021 0)
(19.841 0.638248 6.90811e-21)
(19.8247 0.623403 -1.38817e-20)
(19.8101 0.607552 6.96754e-21)
(19.7971 0.59187 0)
(19.7866 0.575888 0)
(19.7773 0.55993 0)
(19.7695 0.544379 0)
(19.7633 0.528971 0)
(19.7577 0.514603 0)
(19.7537 0.500649 -1.33111e-20)
(19.7505 0.487445 1.32513e-20)
(19.7482 0.474535 0)
(19.7468 0.462107 -1.27027e-20)
(19.7459 0.450213 2.4504e-20)
(19.7455 0.438924 -1.16732e-20)
(19.7456 0.428054 0)
(19.7458 0.418218 0)
(19.7465 0.40838 0)
(19.7471 0.399529 0)
(19.7483 0.390757 0)
(19.7497 0.382381 0)
(19.7512 0.374389 1.10246e-20)
(19.7528 0.366794 -1.08662e-20)
(19.7547 0.359421 0)
(19.7564 0.352544 0)
(19.7583 0.346015 -1.08946e-20)
(19.7602 0.339693 1.08806e-20)
(19.7622 0.333577 0)
(19.7642 0.327655 0)
(19.7663 0.322026 -1.03004e-20)
(19.7683 0.316623 1.06168e-20)
(19.7703 0.31167 0)
(19.7722 0.306597 0)
(19.7742 0.301861 0)
(19.7761 0.297217 0)
(19.778 0.292878 0)
(19.7799 0.28864 -1.41977e-21)
(19.7819 0.284074 1.38767e-21)
(20.0963 0.0294338 0)
(20.0904 0.0282634 6.7278e-21)
(20.0836 0.0270558 -2.01952e-20)
(20.0757 0.0258206 1.34744e-20)
(20.0666 0.0245612 2.68651e-20)
(20.056 0.0232744 -2.69197e-20)
(20.0437 0.0219568 0)
(20.0294 0.0206046 2.71259e-20)
(20.0129 0.0192123 9.71102e-23)
(19.9938 0.0177721 -2.75569e-20)
(19.9715 0.0162737 0)
(19.9458 0.0147029 0)
(19.916 0.013042 0)
(19.8816 0.0112696 3.04659e-20)
(19.8419 0.00936266 -3.09633e-20)
(19.7964 0.00730008 0)
(19.7442 0.00506832 0)
(19.6848 0.00266284 0)
(19.6177 8.44764e-05 0)
(19.5425 -0.00266354 0)
(19.4585 -0.00557774 0)
(19.3654 -0.00865113 -4.38275e-20)
(19.2626 -0.011873 4.51161e-20)
(19.1497 -0.015229 -4.89159e-20)
(19.026 -0.0187016 1.0238e-19)
(18.8911 -0.0222707 -5.37273e-20)
(18.7443 -0.0259136 -5.79915e-20)
(18.5848 -0.0296095 6.06351e-20)
(18.4117 -0.0333383 0)
(18.2241 -0.0370857 0)
(18.0206 -0.0408439 0)
(17.7995 -0.0446139 0)
(17.5586 -0.0484091 8.18624e-20)
(17.295 -0.0522591 -8.83881e-20)
(17.0045 -0.0562136 9.20443e-20)
(16.6816 -0.0603474 -5.23285e-20)
(16.3179 -0.0647669 -5.44363e-20)
(15.9009 -0.0696048 5.57308e-20)
(15.4101 -0.0752291 -4.22348e-21)
(14.8093 -0.081929 -7.12393e-20)
(14.0251 -0.0930559 0)
(12.8834 -0.0685455 2.21271e-20)
(11.175 -0.133997 -3.151e-20)
(20.0953 0.0287963 0)
(20.0899 0.0276791 0)
(20.0838 0.0265228 0)
(20.0769 0.0253355 1.40588e-20)
(20.0689 0.0241183 -2.80363e-20)
(20.0598 0.0228677 2.78755e-20)
(20.0493 0.0215802 1.37101e-20)
(20.0374 0.0202517 -2.22179e-22)
(20.0237 0.0188777 -2.75841e-20)
(20.0081 0.0174528 0)
(19.9901 0.0159703 0)
(19.9694 0.0144222 -2.70346e-20)
(19.9457 0.0127982 3.87583e-22)
(19.9185 0.0110854 4.29591e-22)
(19.8872 0.00926888 4.72289e-22)
(19.8513 0.00733244 5.41734e-20)
(19.8102 0.00526185 -5.54057e-22)
(19.7631 0.00304714 -2.73623e-20)
(19.7096 0.000683243 2.67453e-20)
(19.6491 -0.00183108 -2.73757e-20)
(19.5808 -0.00449576 -2.67324e-20)
(19.5044 -0.00730981 2.7455e-20)
(19.4191 -0.0102714 0)
(19.3242 -0.0133787 0)
(19.2192 -0.0166288 2.73086e-20)
(19.1033 -0.0200162 -2.83296e-20)
(18.9755 -0.0235346 2.8176e-20)
(18.835 -0.0271793 -2.94187e-20)
(18.6807 -0.0309466 0)
(18.5114 -0.0348342 -3.06725e-20)
(18.3255 -0.0388411 3.24197e-20)
(18.1211 -0.0429717 3.35113e-20)
(17.8958 -0.0472375 -3.5796e-20)
(17.6464 -0.0516578 -1.89031e-20)
(17.3688 -0.0562626 2.04735e-20)
(17.0571 -0.061092 0)
(16.7027 -0.0662095 2.45632e-20)
(16.2929 -0.0716723 1.23051e-22)
(15.8067 -0.0777749 -1.56013e-20)
(15.2069 -0.0840528 -1.84398e-20)
(14.4196 -0.0975367 0)
(13.291 -0.0847261 0)
(11.7622 -0.0951892 0)
(20.0943 0.0282242 0)
(20.0894 0.0271197 0)
(20.0839 0.0259869 -7.3737e-21)
(20.0776 0.0248209 7.36878e-21)
(20.0705 0.0236176 0)
(20.0625 0.0223714 0)
(20.0533 0.0210766 -1.43522e-20)
(20.043 0.0197278 1.43799e-20)
(20.0312 0.0183194 0)
(20.0178 0.0168452 -2.82326e-20)
(20.0025 0.0152995 2.84355e-20)
(19.9851 0.013676 0)
(19.9652 0.0119682 0)
(19.9425 0.0101691 0)
(19.9164 0.00827079 0)
(19.8866 0.0062648 0)
(19.8525 0.00414211 0)
(19.8135 0.00189475 0)
(19.7689 -0.000482381 0)
(19.7181 -0.00299178 0)
(19.6606 -0.00563331 0)
(19.5956 -0.0084057 0)
(19.5225 -0.0113076 0)
(19.4406 -0.0143379 0)
(19.349 -0.0174948 0)
(19.2469 -0.0207765 0)
(19.1334 -0.0241803 0)
(19.0074 -0.0277026 0)
(18.8676 -0.031339 2.98208e-20)
(18.7127 -0.0350853 -3.13131e-20)
(18.541 -0.038938 0)
(18.3503 -0.0428913 -1.61829e-20)
(18.1382 -0.0469406 3.81036e-22)
(17.9014 -0.0510869 1.80333e-20)
(17.6354 -0.0553374 0)
(17.3343 -0.0597094 0)
(16.9895 -0.064257 0)
(16.5878 -0.0690402 0)
(16.1082 -0.0745119 0)
(15.5125 -0.0798336 0)
(14.7271 -0.091262 0)
(13.6135 -0.0871872 0)
(12.1961 -0.0678331 0)
(20.0934 0.0277072 0)
(20.0888 0.0266723 0)
(20.0837 0.0255957 -7.69966e-21)
(20.078 0.0244826 1.53431e-20)
(20.0715 0.0233335 -7.6437e-21)
(20.0643 0.0221426 0)
(20.0561 0.0209039 0)
(20.0468 0.0196117 -1.50201e-20)
(20.0364 0.0182602 3.00557e-20)
(20.0245 0.0168427 -1.5064e-20)
(20.0111 0.0153525 1.50103e-20)
(19.9959 0.0137834 -1.51445e-20)
(19.9786 0.0121287 -3.02805e-20)
(19.9589 0.0103808 6.1183e-20)
(19.9364 0.00853128 -2.02278e-22)
(19.9107 0.00657164 -3.13202e-20)
(19.8814 0.00449305 0)
(19.8479 0.00228642 3.19135e-20)
(19.8096 -5.55902e-05 -6.50506e-20)
(19.7658 -0.00253702 3.31945e-20)
(19.716 -0.00515845 0)
(19.6595 -0.00791876 -3.39623e-20)
(19.5954 -0.0108168 3.49669e-20)
(19.5231 -0.013852 0)
(19.4416 -0.0170229 0)
(19.3502 -0.0203269 0)
(19.2476 -0.0237617 0)
(19.1328 -0.0273264 0)
(19.0044 -0.0310204 1.97987e-20)
(18.8608 -0.0348405 -2.07468e-20)
(18.7003 -0.0387792 2.1115e-20)
(18.5207 -0.0428262 -2.22966e-20)
(18.3193 -0.0469674 0)
(18.0925 -0.0511884 0)
(17.836 -0.0554802 0)
(17.5436 -0.0598455 0)
(17.2064 -0.0643321 -1.43456e-20)
(16.8114 -0.0689887 1.57904e-20)
(16.3368 -0.074354 0)
(15.744 -0.0797144 9.45085e-21)
(14.9594 -0.0890149 -1.10065e-20)
(13.8559 -0.088735 0)
(12.5067 -0.0548246 0)
(20.0925 0.0273211 0)
(20.0883 0.0263314 0)
(20.0836 0.0253103 0)
(20.0783 0.0242589 0)
(20.0724 0.0231739 0)
(20.0659 0.0220496 0)
(20.0585 0.0208794 0)
(20.0502 0.0196579 1.56503e-20)
(20.0409 0.0183795 -6.10003e-23)
(20.0304 0.0170369 -1.57008e-20)
(20.0186 0.0156225 0)
(20.0052 0.014131 0)
(19.9901 0.0125571 0)
(19.9729 0.0108929 0)
(19.9534 0.00912897 0)
(19.9311 0.00725544 1.63323e-20)
(19.9057 0.00526169 -1.66577e-20)
(19.8767 0.00313524 0)
(19.8435 0.000864931 0)
(19.8055 -0.00155574 0)
(19.762 -0.00412718 0)
(19.7124 -0.00684623 0)
(19.6558 -0.00971143 0)
(19.5915 -0.0127246 0)
(19.5185 -0.0158873 -1.93085e-20)
(19.4359 -0.0191937 1.99873e-20)
(19.3426 -0.0226331 0)
(19.2373 -0.0262018 -2.08877e-20)
(19.1185 -0.0299127 2.37474e-22)
(18.9846 -0.0337846 2.2525e-20)
(18.8337 -0.0378165 0)
(18.6635 -0.0419855 0)
(18.4712 -0.0462639 0)
(18.2532 -0.0506258 0)
(18.0048 -0.0550619 -1.38798e-20)
(17.7197 -0.0595745 1.88059e-22)
(17.389 -0.0642014 2.04383e-22)
(16.9991 -0.0689495 1.72108e-20)
(16.5284 -0.0743288 0)
(15.9374 -0.0799359 0)
(15.1524 -0.0876682 0)
(14.0548 -0.0880946 0)
(12.7503 -0.0466647 0)
(20.0916 0.0269897 0)
(20.0877 0.0260532 0)
(20.0834 0.0250873 0)
(20.0786 0.0240956 0)
(20.0732 0.0230721 0)
(20.0673 0.0220126 0)
(20.0606 0.020908 -1.62592e-20)
(20.0531 0.0197532 5.48553e-23)
(20.0448 0.018546 1.62512e-20)
(20.0354 0.0172775 1.62049e-20)
(20.0249 0.0159356 -1.63084e-20)
(20.013 0.0145154 0)
(19.9996 0.0130165 0)
(19.9844 0.0114339 0)
(19.9672 0.00975649 0)
(19.9476 0.00797372 0)
(19.9252 0.00607586 0)
(19.8997 0.00404662 0)
(19.8705 0.00186511 -1.78039e-20)
(19.837 -0.000484286 1.82594e-20)
(19.7985 -0.00300475 0)
(19.7545 -0.00568575 0)
(19.704 -0.0085162 0)
(19.6463 -0.0115018 0)
(19.5803 -0.0146537 0)
(19.5052 -0.0179798 0)
(19.4196 -0.0214597 0)
(19.3224 -0.0250368 0)
(19.2119 -0.028694 0)
(19.0864 -0.0325072 0)
(18.9439 -0.0365653 -2.40752e-20)
(18.782 -0.0408738 2.52783e-20)
(18.5977 -0.0453628 1.30269e-20)
(18.3874 -0.0499464 -1.37865e-20)
(18.1463 -0.0545256 1.43055e-20)
(17.868 -0.059077 -1.53014e-20)
(17.5433 -0.0637402 0)
(17.1587 -0.0686748 1.72642e-20)
(16.692 -0.0742183 -1.896e-20)
(16.1041 -0.0801021 0)
(15.3211 -0.0867656 0)
(14.2311 -0.0870803 0)
(12.9575 -0.0434918 0)
(20.0909 0.026686 -2.17122e-21)
(20.0872 0.0258174 2.16616e-21)
(20.0832 0.0249125 0)
(20.0788 0.0239823 8.5351e-21)
(20.0739 0.0230201 -8.50452e-21)
(20.0684 0.0220292 8.4375e-21)
(20.0623 0.0209937 -8.42576e-21)
(20.0556 0.0199048 0)
(20.048 0.01877 0)
(20.0395 0.0175833 0)
(20.03 0.0163215 0)
(20.0193 0.0149756 0)
(20.0073 0.013553 0)
(19.9937 0.012053 0)
(19.9782 0.0104627 0)
(19.9607 0.00877222 0)
(19.9408 0.00697905 0)
(19.918 0.00506311 -1.82591e-20)
(19.8918 0.00299175 1.86925e-20)
(19.8618 0.000735229 0)
(19.8273 -0.00172858 0)
(19.7878 -0.00437961 0)
(19.7423 -0.0071783 0)
(19.6899 -0.0101292 0)
(19.6297 -0.0132779 0)
(19.5607 -0.01662 2.1901e-20)
(19.4818 -0.0201588 -2.02003e-22)
(19.3918 -0.0238264 -2.33032e-20)
(19.2886 -0.0274996 0)
(19.1702 -0.0312649 0)
(19.0346 -0.0352608 0)
(18.8799 -0.0395685 1.31969e-20)
(18.7028 -0.0442246 -1.38647e-20)
(18.4998 -0.0490967 0)
(18.2657 -0.0541488 0)
(17.9933 -0.0592078 -1.5669e-20)
(17.6736 -0.0641411 1.67932e-20)
(17.2924 -0.069322 0)
(16.829 -0.0759046 0)
(16.2421 -0.0836841 0)
(15.4591 -0.0909738 0)
(14.3696 -0.0881597 0)
(13.1216 -0.0340347 0)
(20.0902 0.02644 0)
(20.0868 0.0256271 0)
(20.0831 0.0247807 -4.4307e-21)
(20.079 0.0239076 4.40987e-21)
(20.0745 0.0229954 -8.74293e-21)
(20.0694 0.0220723 8.71419e-21)
(20.0638 0.0211041 8.65928e-21)
(20.0575 0.0200724 -8.65717e-21)
(20.0506 0.0190094 0)
(20.0429 0.0179156 0)
(20.0342 0.0167323 0)
(20.0244 0.0154379 0)