/*--------------------------------*- C++ -*----------------------------------*\
| =========                 |                                                 |
| \\      /  F ield         | OpenFOAM: The Open Source CFD Toolbox           |
|  \\    /   O peration     | Version:  2.3.0                                 |
|   \\  /    A nd           | Web:      www.OpenFOAM.org                      |
|    \\/     M anipulation  |                                                 |
\*---------------------------------------------------------------------------*/
FoamFile
{
    version     2.0;
    format      ascii;
    class       volScalarField;
    location    "4000";
    object      p;
}
// * * * * * * * * * * * * * * * * * * * * * * * * * * * * * * * * * * * * * //

dimensions      [0 2 -2 0 0 0 0];

internalField   nonuniform List<scalar> 
37496
(
-9.05973e-05
-2.48408
-5.06225
-7.69868
-10.4092
-13.1972
-16.0656
-19.0162
-22.0513
-25.1761
-28.3933
-31.7029
-35.1086
-38.6095
-42.2114
-45.9083
-49.6977
-53.5822
-57.5458
-61.5906
-65.7038
-69.871
-74.085
-78.3345
-82.6106
-86.9047
-91.2152
-95.5313
-99.8692
-104.21
-108.532
-112.817
-117.019
-120.974
-124.561
-127.47
-129.467
-129.744
-126.331
-117.49
-107.369
-100.92
-64.4113
4.5673
2.75823
0.719165
-1.39168
-3.54734
-5.73855
-7.9694
-10.2366
-12.5391
-14.8798
-17.2534
-19.6643
-22.1044
-24.5788
-27.0847
-29.6212
-32.1889
-34.7871
-37.4113
-40.0602
-42.73
-45.3993
-48.062
-50.6882
-53.2521
-55.6935
-57.9677
-59.9896
-61.6667
-62.8636
-63.4113
-63.1334
-61.7594
-58.983
-54.4526
-47.7148
-38.3479
-25.717
-9.22509
11.7985
38.1722
71.7496
113.258
9.07742
7.74028
6.13365
4.49859
2.84796
1.18767
-0.484016
-2.16234
-3.84424
-5.53385
-7.21681
-8.90151
-10.5696
-12.229
-13.8558
-15.4542
-17.0114
-18.5124
-19.9468
-21.2964
-22.5541
-23.6908
-24.6932
-25.5316
-26.1793
-26.6099
-26.7597
-26.6051
-26.0681
-25.087
-23.5644
-21.3896
-18.4324
-14.5423
-9.52417
-3.19171
4.68864
14.3311
25.9183
39.5471
55.3102
73.3371
93.2968
13.1977
12.1727
10.9274
9.64353
8.35774
7.07952
5.80715
4.54167
3.28907
2.04756
0.826043
-0.379985
-1.55416
-2.70491
-3.80876
-4.87057
-5.87578
-6.81871
-7.67897
-8.43885
-9.08843
-9.60812
-9.95799
-10.1156
-10.0472
-9.70994
-9.04146
-8.00723
-6.51856
-4.49308
-1.86262
1.49867
5.67614
10.8183
17.0403
24.4582
33.2086
43.3503
54.9497
67.9165
82.1364
97.2612
112.798
16.8904
16.1661
15.1731
14.175
13.1891
12.2146
11.2549
10.3091
9.38661
8.48813
7.61916
6.78301
5.9871
5.23093
4.53499
3.89666
3.33226
2.84865
2.46122
2.18751
2.04568
2.04768
2.23077
2.61232
3.21595
4.09081
5.26607
6.78773
8.714
11.1203
14.0501
17.6006
21.8391
26.8645
32.7652
39.6014
47.4669
56.3689
66.3145
77.2182
88.9578
101.255
113.794
20.1986
19.6735
18.918
18.1592
17.412
16.6674
15.9453
15.2359
14.5579
13.9081
13.2916
12.7196
12.1871
11.7008
11.2708
10.9139
10.6297
10.4326
10.3277
10.3382
10.4874
10.7855
11.2711
11.9587
12.8746
14.0694
15.5568
17.3737
19.5862
22.254
25.4205
29.1442
33.5008
38.5131
44.3084
50.8828
58.3282
66.6068
75.6881
85.5023
95.9012
106.682
117.59
23.2115
22.8321
22.2475
21.6701
21.1134
20.5499
20.0171
19.4816
18.9976
18.5394
18.1134
17.7432
17.4161
17.129
16.8946
16.7541
16.6931
16.7144
16.8178
17.0448
17.3963
17.898
18.5711
19.4654
20.5775
21.9811
23.6541
25.5918
27.9275
30.699
33.955
37.696
42.0228
46.8668
52.4452
58.6379
65.5706
73.2347
81.5572
90.5178
99.9356
109.664
119.439
25.9179
25.7038
25.2071
24.7296
24.3163
23.9222
23.5644
23.1283
22.7872
22.4711
22.1664
21.9554
21.8058
21.6722
21.5263
21.5185
21.6483
21.8474
22.075
22.4539
22.9574
23.5998
24.3549
25.347
26.4663
28.0435
29.9529
31.9725
34.3607
37.1733
40.3718
44.1262
48.4976
53.1346
58.5427
64.496
71.1414
78.3923
86.0839
94.4181
103.059
111.968
120.958
28.437
28.3863
27.8955
27.491
27.2782
26.8915
26.6741
26.2124
25.9204
25.648
25.3648
25.2623
25.2759
25.3188
25.1433
25.0624
25.2775
25.6528
25.9112
26.3481
26.9317
27.6749
28.4543
29.5355
30.3502
31.9584
34.5643
36.5872
38.8828
41.6961
44.6768
48.1269
53.2162
57.2319
62.1855
68.0899
75.0821
82.4834
89.7903
97.6133
105.385
113.281
121.684
66.8652
126.807
158.845
181.137
198.344
211.41
221.274
228.685
234.243
238.379
241.384
243.543
245.022
245.944
246.454
246.602
246.474
246.122
245.593
244.925
244.148
243.287
242.358
241.385
240.374
239.341
238.295
237.241
236.188
235.137
234.093
233.058
232.033
231.02
230.019
229.03
228.053
227.089
226.139
225.198
224.261
223.36
222.84
151.927
178.228
197.372
211.92
222.99
231.245
237.253
241.503
244.375
246.185
247.183
247.57
247.493
247.09
246.444
245.637
244.725
243.74
242.707
241.651
240.585
239.521
238.468
237.426
236.402
235.394
234.405
233.431
232.473
231.532
230.604
229.689
228.79
227.903
227.028
226.167
225.318
224.483
223.661
222.848
222.039
221.27
220.89
113.575
132.538
149.463
164.113
176.56
187.002
195.667
202.798
208.612
213.325
217.125
220.163
222.57
224.458
225.917
227.021
227.833
228.405
228.778
228.989
229.059
229.014
228.87
228.644
228.352
228.001
227.6
227.158
226.682
226.179
225.65
225.104
224.54
223.965
223.378
222.785
222.187
221.584
220.978
220.366
219.745
219.134
218.709
128.012
142.314
155.35
166.96
177.082
185.79
193.184
199.389
204.553
208.816
212.306
215.138
217.419
219.239
220.679
221.797
222.651
223.283
223.728
224.021
224.186
224.244
224.212
224.108
223.945
223.732
223.474
223.179
222.855
222.503
222.129
221.735
221.324
220.9
220.464
220.021
219.571
219.115
218.655
218.191
217.728
217.284
217.065
126.196
138.123
149.294
159.527
168.699
176.806
183.884
189.993
195.215
199.653
203.398
206.539
209.164
211.343
213.152
214.631
215.844
216.823
217.604
218.219
218.688
219.033
219.279
219.437
219.521
219.543
219.504
219.414
219.28
219.107
218.903
218.67
218.411
218.132
217.837
217.529
217.213
216.884
216.545
216.198
215.847
215.511
215.344
128.37
138.781
148.629
157.751
166.037
173.467
180.049
185.811
190.803
195.105
198.776
201.897
204.547
206.786
208.675
210.254
211.579
212.672
213.567
214.297
214.878
215.338
215.701
215.986
216.193
216.337
216.409
216.426
216.394
216.327
216.231
216.101
215.939
215.756
215.561
215.355
215.144
214.91
214.661
214.403
214.142
213.882
213.749
129.033
138.354
147.292
155.662
163.357
170.322
176.563
182.117
186.975
191.175
194.768
197.866
200.532
202.818
204.782
206.456
207.885
209.083
210.08
210.905
211.582
212.153
212.634
213.034
213.354
213.6
213.753
213.854
213.909
213.929
213.931
213.876
213.778
213.675
213.572
213.458
213.337
213.16
212.971
212.784
212.604
212.427
212.391
129.836
138.6
147.187
154.965
162.247
168.783
174.669
180.061
184.774
188.661
192.029
195.045
197.674
199.962
201.967
203.707
205.18
206.38
207.418
208.266
208.969
209.623
210.194
210.665
211.065
211.366
211.546
211.694
211.796
211.89
211.979
211.939
211.869
211.855
211.858
211.818
211.743
211.561
211.424
211.304
211.203
211.105
211.195
130.734
140.59
148.977
156.548
162.777
169.11
175.392
180.341
183.956
187.74
190.909
193.814
196.421
198.654
200.577
202.236
203.571
204.517
205.547
206.212
206.723
207.259
207.961
208.625
209.157
209.49
209.548
209.697
209.784
209.977
210.215
210.077
209.991
210.086
210.137
210.033
210.175
210.033
210.009
209.995
209.986
209.94
210.149
103.802
104.093
104.329
104.571
104.807
105.034
105.25
105.456
105.651
105.834
106.004
106.16
106.301
106.428
106.539
106.633
106.71
106.769
106.81
106.831
106.834
106.817
106.78
106.724
106.647
106.551
106.436
106.302
106.149
105.98
105.794
105.593
105.378
105.151
104.914
104.669
104.42
104.17
103.929
103.714
103.561
103.576
104.05
104.662
104.659
104.744
104.828
104.902
104.968
105.025
105.071
105.109
105.139
105.161
105.177
105.189
105.197
105.202
105.205
105.208
105.212
105.216
105.222
105.229
105.239
105.251
105.265
105.28
105.298
105.317
105.338
105.36
105.382
105.406
105.429
105.454
105.478
105.504
105.53
105.559
105.594
105.644
105.746
106.002
106.606
107.442
105.264
105.285
105.343
105.398
105.454
105.512
105.57
105.626
105.682
105.736
105.789
105.84
105.89
105.938
105.984
106.03
106.074
106.117
106.159
106.199
106.238
106.276
106.312
106.348
106.382
106.415
106.447
106.478
106.507
106.536
106.564
106.591
106.619
106.647
106.675
106.704
106.738
106.783
106.858
107.009
107.356
108.105
109.309
105.785
105.911
106.003
106.091
106.179
106.266
106.351
106.435
106.515
106.593
106.666
106.736
106.803
106.865
106.924
106.979
107.033
107.085
107.135
107.183
107.229
107.273
107.316
107.358
107.4
107.442
107.482
107.521
107.557
107.593
107.626
107.659
107.69
107.72
107.749
107.78
107.815
107.867
107.96
108.15
108.562
109.309
110.488
106.327
106.446
106.547
106.644
106.739
106.831
106.918
107.003
107.086
107.165
107.238
107.308
107.377
107.443
107.503
107.559
107.615
107.671
107.727
107.781
107.834
107.886
107.937
107.988
108.041
108.096
108.153
108.207
108.259
108.309
108.356
108.402
108.447
108.491
108.534
108.58
108.633
108.708
108.834
109.071
109.541
110.301
111.452
106.843
106.931
107.018
107.113
107.21
107.303
107.389
107.476
107.565
107.65
107.727
107.798
107.874
107.949
108.014
108.07
108.125
108.185
108.246
108.305
108.362
108.419
108.474
108.523
108.575
108.637
108.706
108.773
108.835
108.894
108.948
109.001
109.053
109.103
109.154
109.209
109.277
109.372
109.526
109.801
110.317
111.109
112.283
107.268
107.348
107.43
107.526
107.633
107.733
107.822
107.907
108.003
108.104
108.188
108.258
108.343
108.447
108.526
108.581
108.63
108.695
108.775
108.847
108.914
108.982
109.046
109.089
109.124
109.187
109.276
109.363
109.436
109.497
109.548
109.597
109.649
109.696
109.741
109.792
109.858
109.945
110.082
110.34
110.826
111.576
112.77
107.685
107.723
107.807
107.904
108.023
108.124
108.194
108.26
108.362
108.494
108.568
108.577
108.605
108.748
108.863
108.91
108.902
108.913
108.98
109.051
109.111
109.189
109.299
109.343
109.31
109.313
109.418
109.555
109.672
109.768
109.833
109.883
109.952
110.016
110.071
110.138
110.255
110.395
110.574
110.897
111.45
112.267
113.642
107.771
107.726
107.884
108.102
108.382
108.613
108.693
108.666
108.775
109.102
109.485
109.549
109.417
109.632
109.926
110.151
110.224
110.268
110.373
110.485
110.515
110.515
110.696
110.974
110.886
110.757
110.78
110.895
110.983
111.048
111.079
111.055
111.072
111.086
111.076
111.007
111
111.005
110.906
110.852
110.865
111.02
112.54
107.366
110.118
112.847
115.203
117.348
119.29
121.061
122.687
124.19
125.59
126.905
128.145
129.324
130.45
131.532
132.579
133.596
134.588
135.561
136.518
137.459
138.389
139.307
140.215
141.114
142.004
142.885
143.758
144.621
145.476
146.322
147.158
147.985
148.803
149.61
150.408
151.195
151.971
152.738
153.492
154.229
154.968
155.774
109.362
110.701
112.418
114.158
115.966
117.75
119.485
121.158
122.761
124.295
125.762
127.164
128.508
129.798
131.037
132.232
133.383
134.496
135.571
136.613
137.622
138.602
139.553
140.479
141.379
142.257
143.114
143.95
144.768
145.568
146.353
147.121
147.876
148.617
149.346
150.063
150.77
151.466
152.154
152.831
153.492
154.154
154.911
111.193
112.628
114.234
115.781
117.368
118.943
120.5
122.025
123.51
124.948
126.338
127.679
128.969
130.213
131.41
132.564
133.677
134.75
135.787
136.79
137.76
138.7
139.613
140.5
141.361
142.2
143.018
143.816
144.596
145.358
146.104
146.834
147.549
148.25
148.938
149.613
150.276
150.928
151.57
152.201
152.814
153.427
154.132
112.151
113.612
115.183
116.705
118.253
119.776
121.272
122.731
124.147
125.518
126.841
128.116
129.345
130.528
131.669
132.767
133.828
134.852
135.842
136.8
137.728
138.628
139.503
140.353
141.18
141.986
142.771
143.539
144.288
145.021
145.738
146.44
147.127
147.801
148.461
149.109
149.746
150.371
150.986
151.591
152.177
152.77
153.467
112.99
114.411
115.897
117.373
118.873
120.352
121.805
123.222
124.597
125.927
127.211
128.449
129.643
130.794
131.903
132.973
134.006
135.004
135.968
136.901
137.805
138.679
139.528
140.35
141.15
141.928
142.684
143.423
144.142
144.844
145.529
146.198
146.852
147.492
148.119
148.733
149.335
149.928
150.51
151.08
151.631
152.186
152.846
113.823
115.252
116.694
118.126
119.57
120.992
122.392
123.757
125.086
126.374
127.619
128.823
129.985
131.107
132.19
133.235
134.244
135.216
136.157
137.067
137.946
138.794
139.616
140.412
141.185
141.935
142.665
143.376
144.068
144.739
145.393
146.032
146.655
147.262
147.855
148.437
149.006
149.567
150.116
150.653
151.169
151.681
152.273
114.427
115.969
117.44
118.857
120.255
121.624
122.969
124.284
125.565
126.81
128.018
129.187
130.317
131.411
132.468
133.488
134.472
135.419
136.336
137.226
138.081
138.902
139.699
140.472
141.221
141.947
142.653
143.342
144.01
144.654
145.28
145.892
146.488
147.066
147.629
148.182
148.725
149.257
149.779
150.287
150.772
151.256
151.798
115.45
116.975
118.311
119.607
120.894
122.184
123.472
124.741
125.981
127.192
128.369
129.512
130.617
131.689
132.732
133.734
134.701
135.627
136.528
137.413
138.24
139.032
139.809
140.567
141.291
141.99
142.673
143.349
143.996
144.607
145.203
145.795
146.367
146.911
147.442
147.968
148.485
148.991
149.486
149.968
150.415
150.876
151.376
115.33
117.448
118.888
120.146
121.393
122.653
123.894
125.129
126.333
127.518
128.663
129.787
130.859
131.918
132.967
133.93
134.877
135.758
136.65
137.557
138.308
139.052
139.848
140.577
141.263
141.952
142.648
143.343
143.941
144.494
145.078
145.686
146.228
146.725
147.241
147.76
148.271
148.775
149.262
149.738
150.126
150.595
151.087
-634.094
-591.882
-545.53
-508.847
-472.587
-434.602
-397.409
-362.363
-329.82
-299.91
-272.764
-248.361
-226.595
-207.223
-189.929
-174.485
-160.654
-148.226
-136.987
-126.774
-117.434
-108.846
-100.893
-93.4843
-86.5444
-80.014
-73.8457
-67.9965
-62.4344
-57.1325
-52.0715
-47.2295
-42.5913
-38.1461
-33.8802
-29.783
-25.8457
-22.0598
-18.4181
-14.916
-11.5451
-8.29981
-5.20414
-447.504
-444.724
-438.036
-429.485
-418.436
-404.347
-387.742
-369.176
-349.212
-328.373
-307.224
-286.237
-265.838
-246.329
-227.88
-210.62
-194.58
-179.734
-166.018
-153.374
-141.71
-130.942
-120.977
-111.742
-103.159
-95.1522
-87.6683
-80.6519
-74.054
-67.8331
-61.9579
-56.3907
-51.1088
-46.088
-41.307
-36.7474
-32.3948
-28.2325
-24.2498
-20.4358
-16.7783
-13.2707
-10.0362
-419.199
-419.214
-418.267
-414.37
-407.522
-398.131
-386.552
-372.978
-357.686
-341.014
-323.397
-305.242
-286.938
-268.832
-251.189
-234.19
-217.967
-202.596
-188.115
-174.522
-161.801
-149.913
-138.809
-128.439
-118.749
-109.679
-101.188
-93.2199
-85.7325
-78.6858
-72.0455
-65.7714
-59.8425
-54.2249
-48.8955
-43.8337
-39.02
-34.4337
-30.0613
-25.8839
-21.8908
-18.0717
-14.5886
-367.61
-367.641
-367.311
-366.15
-363.718
-359.867
-354.462
-347.403
-338.661
-328.279
-316.432
-303.369
-289.376
-274.783
-259.896
-244.994
-230.281
-215.937
-202.067
-188.742
-176.029
-163.948
-152.505
-141.696
-131.491
-121.864
-112.794
-104.231
-96.1549
-88.5285
-81.324
-74.5076
-68.0568
-61.9433
-56.1446
-50.6367
-45.4031
-40.4218
-35.6767
-31.1488
-26.8249
-22.6842
-18.9717
-335.838
-336.156
-336.516
-336.411
-335.424
-333.234
-329.751
-324.958
-318.858
-311.464
-302.836
-293.072
-282.306
-270.736
-258.579
-246.039
-233.334
-220.633
-208.09
-195.798
-183.842
-172.275
-161.148
-150.494
-140.319
-130.622
-121.402
-112.63
-104.305
-96.3968
-88.89
-81.7606
-74.9881
-68.554
-62.4365
-56.6171
-51.0796
-45.8037
-40.7755
-35.978
-31.3957
-27.0074
-23.03
-304.102
-304.421
-304.788
-304.923
-304.618
-303.628
-301.786
-298.989
-295.172
-290.288
-284.337
-277.351
-269.384
-260.553
-250.987
-240.832
-230.271
-219.45
-208.52
-197.608
-186.802
-176.178
-165.783
-155.682
-145.912
-136.493
-127.444
-118.76
-110.449
-102.498
-94.9002
-87.6476
-80.7228
-74.1162
-67.8112
-61.7962
-56.0563
-50.5752
-45.3434
-40.3438
-35.5646
-30.9843
-26.7964
-277.935
-278.286
-278.753
-279.097
-279.147
-278.719
-277.653
-275.861
-273.286
-269.883
-265.624
-260.504
-254.537
-247.775
-240.287
-232.169
-223.539
-214.507
-205.201
-195.734
-186.203
-176.697
-167.255
-157.949
-148.823
-139.919
-131.27
-122.893
-114.803
-106.998
-99.4877
-92.2714
-85.338
-78.6899
-72.3156
-66.2063
-60.357
-54.7535
-49.3886
-44.2491
-39.3272
-34.6013
-30.2903
-254.452
-254.791
-255.256
-255.657
-255.884
-255.803
-255.276
-254.204
-252.526
-250.199
-247.184
-243.454
-239.004
-233.851
-228.031
-221.594
-214.618
-207.18
-199.376
-191.301
-183.036
-174.675
-166.265
-157.865
-149.519
-141.276
-133.18
-125.258
-117.537
-110.027
-102.744
-95.6926
-88.8762
-82.2994
-75.9606
-69.8529
-63.9797
-58.3312
-52.904
-47.6876
-42.6791
-37.8612
-33.4964
-234.039
-234.364
-234.828
-235.264
-235.585
-235.699
-235.489
-234.861
-233.756
-232.134
-229.961
-227.209
-223.861
-219.91
-215.371
-210.268
-204.647
-198.557
-192.067
-185.245
-178.161
-170.892
-163.489
-156.012
-148.495
-140.983
-133.521
-126.147
-118.891
-111.774
-104.818
-98.0301
-91.4266
-85.0122
-78.7933
-72.7695
-66.9476
-61.3235
-55.8952
-50.6593
-45.6133
-40.7383
-36.353
-216.007
-216.314
-216.757
-217.194
-217.56
-217.789
-217.789
-217.471
-216.77
-215.655
-214.095
-212.059
-209.527
-206.485
-202.936
-198.881
-194.349
-189.372
-183.994
-178.26
-172.23
-165.959
-159.497
-152.901
-146.199
-139.432
-132.634
-125.851
-119.113
-112.447
-105.881
-99.4273
-93.1025
-86.9192
-80.8871
-75.0123
-69.3025
-63.76
-58.3869
-53.1813
-48.1453
-43.2578
-38.9037
-200.144
-200.431
-200.852
-201.28
-201.662
-201.951
-202.078
-201.961
-201.54
-200.781
-199.657
-198.142
-196.216
-193.859
-191.067
-187.837
-184.177
-180.105
-175.648
-170.841
-165.724
-160.338
-154.728
-148.936
-143.001
-136.951
-130.814
-124.629
-118.429
-112.244
-106.104
-100.023
-94.024
-88.1194
-82.3234
-76.6459
-71.0976
-65.6837
-60.412
-55.2822
-50.3035
-45.4537
-41.2099
-186.114
-186.379
-186.775
-187.186
-187.568
-187.889
-188.095
-188.115
-187.892
-187.394
-186.591
-185.464
-183.992
-182.156
-179.946
-177.358
-174.388
-171.048
-167.352
-163.319
-158.978
-154.363
-149.505
-144.44
-139.202
-133.817
-128.31
-122.708
-117.042
-111.343
-105.641
-99.9551
-94.3055
-88.7105
-83.1831
-77.7385
-72.3871
-67.1383
-62.0024
-56.9801
-52.0847
-47.2939
-43.1606
-173.691
-173.936
-174.305
-174.696
-175.069
-175.4
-175.65
-175.759
-175.676
-175.365
-174.799
-173.962
-172.833
-171.397
-169.641
-167.555
-165.133
-162.381
-159.304
-155.915
-152.23
-148.274
-144.072
-139.649
-135.035
-130.254
-125.328
-120.278
-115.126
-109.902
-104.635
-99.3487
-94.0597
-88.7888
-83.5501
-78.3604
-73.2312
-68.174
-63.2015
-58.3178
-53.5381
-48.8364
-44.827
-162.653
-162.879
-163.223
-163.592
-163.95
-164.281
-164.553
-164.719
-164.733
-164.558
-164.17
-163.552
-162.685
-161.556
-160.152
-158.462
-156.479
-154.2
-151.627
-148.769
-145.633
-142.238
-138.6
-134.739
-130.677
-126.437
-122.037
-117.494
-112.827
-108.056
-103.211
-98.3151
-93.3861
-88.4432
-83.5022
-78.5798
-73.6872
-68.8402
-64.0484
-59.32
-54.6685
-50.0677
-46.0936
-152.822
-153.027
-153.349
-153.695
-154.035
-154.358
-154.639
-154.84
-154.919
-154.843
-154.587
-154.134
-153.469
-152.579
-151.452
-150.075
-148.441
-146.545
-144.385
-141.965
-139.288
-136.364
-133.208
-129.834
-126.256
-122.495
-118.567
-114.485
-110.263
-105.918
-101.474
-96.9519
-92.3733
-87.7541
-83.111
-78.46
-73.8124
-69.1848
-64.5894
-60.0318
-55.5329
-51.0612
-47.1562
-144.039
-144.223
-144.525
-144.848
-145.169
-145.48
-145.762
-145.982
-146.104
-146.1
-145.944
-145.618
-145.109
-144.406
-143.495
-142.367
-141.012
-139.425
-137.602
-135.543
-133.248
-130.724
-127.979
-125.023
-121.867
-118.527
-115.018
-111.349
-107.532
-103.58
-99.5105
-95.3429
-91.0993
-86.7932
-82.4412
-78.0597
-73.6595
-69.2543
-64.8595
-60.4782
-56.1295
-51.7761
-47.8065
-136.169
-136.335
-136.617
-136.919
-137.22
-137.516
-137.791
-138.019
-138.171
-138.216
-138.133
-137.905
-137.518
-136.96
-136.222
-135.294
-134.166
-132.83
-131.284
-129.522
-127.546
-125.357
-122.96
-120.363
-117.574
-114.604
-111.463
-108.163
-104.711
-101.117
-97.3933
-93.5567
-89.629
-85.6214
-81.5513
-77.431
-73.2751
-69.0942
-64.9024
-60.7058
-56.5195
-52.3168
-48.3974
-129.098
-129.248
-129.511
-129.792
-130.073
-130.353
-130.619
-130.849
-131.017
-131.098
-131.07
-130.916
-130.624
-130.183
-129.582
-128.812
-127.867
-126.736
-125.416
-123.901
-122.192
-120.285
-118.185
-115.897
-113.423
-110.775
-107.958
-104.983
-101.857
-98.5872
-95.1804
-91.6513
-88.0173
-84.2916
-80.4892
-76.6219
-72.703
-68.7438
-64.7568
-60.7509
-56.7392
-52.7119
-48.9729
-122.724
-122.865
-123.107
-123.367
-123.63
-123.893
-124.148
-124.375
-124.552
-124.656
-124.668
-124.572
-124.352
-124.002
-123.512
-122.873
-122.075
-121.113
-119.98
-118.67
-117.183
-115.515
-113.667
-111.641
-109.441
-107.072
-104.541
-101.854
-99.0178
-96.0376
-92.9188
-89.6716
-86.3097
-82.8476
-79.2976
-75.6712
-71.9805
-68.2365
-64.4515
-60.6356
-56.8026
-52.947
-49.4065
-116.974
-117.108
-117.331
-117.569
-117.814
-118.062
-118.303
-118.523
-118.703
-118.822
-118.863
-118.808
-118.647
-118.37
-117.967
-117.43
-116.754
-115.93
-114.951
-113.812
-112.51
-111.042
-109.408
-107.609
-105.644
-103.519
-101.237
-98.804
-96.2247
-93.5044
-90.6454
-87.6547
-84.544
-81.3257
-78.0111
-74.612
-71.1377
-67.6
-64.0079
-60.3718
-56.6995
-52.9782
-49.5258
-111.768
-111.895
-112.098
-112.318
-112.545
-112.777
-113.004
-113.215
-113.393
-113.521
-113.582
-113.559
-113.442
-113.222
-112.891
-112.44
-111.861
-111.15
-110.3
-109.305
-108.16
-106.862
-105.41
-103.802
-102.041
-100.127
-98.0639
-95.8542
-93.502
-91.0129
-88.3874
-85.6296
-82.749
-79.7554
-76.6604
-73.4729
-70.204
-66.8614
-63.4567
-59.9983
-56.4957
-52.9372
-49.6599
-107.045
-107.164
-107.351
-107.553
-107.764
-107.98
-108.194
-108.394
-108.568
-108.7
-108.773
-108.773
-108.69
-108.516
-108.241
-107.859
-107.362
-106.745
-106.001
-105.125
-104.112
-102.958
-101.662
-100.22
-98.6336
-96.9033
-95.0306
-93.0174
-90.8672
-88.5833
-86.1664
-83.6196
-80.9483
-78.1611
-75.2685
-72.2789
-69.2016
-66.0448
-62.818
-59.5285
-56.1868
-52.7812
-49.6661
-102.747
-102.859
-103.03
-103.217
-103.412
-103.613
-103.813
-104.003
-104.17
-104.302
-104.383
-104.4
-104.344
-104.205
-103.976
-103.65
-103.221
-102.681
-102.026
-101.25
-100.349
-99.3169
-98.1526
-96.8546
-95.4203
-93.8496
-92.143
-90.3024
-88.3306
-86.2289
-83.9988
-81.6415
-79.1605
-76.562
-73.8557
-71.0498
-68.1504
-65.1689
-62.1103
-58.9856
-55.8039
-52.553
-49.6138
-98.8297
-98.9339
-99.0915
-99.2633
-99.4439
-99.6307
-99.8171
-99.9953
-100.155
-100.284
-100.369
-100.399
-100.362
-100.252
-100.06
-99.7794
-99.4049
-98.9305
-98.3496
-97.6573
-96.8499
-95.923
-94.8725
-93.6968
-92.3931
-90.9618
-89.401
-87.7132
-85.8984
-83.9586
-81.8952
-79.7083
-77.3996
-74.9735
-72.4381
-69.8007
-67.0676
-64.2472
-61.3459
-58.3712
-55.3314
-52.2111
-49.3627
-95.2507
-95.3477
-95.4922
-95.6503
-95.8174
-95.9907
-96.1642
-96.3312
-96.4822
-96.6064
-96.6929
-96.7305
-96.709
-96.6201
-96.457
-96.2138
-95.8847
-95.4634
-94.9457
-94.3259
-93.5983
-92.7599
-91.8069
-90.737
-89.547
-88.2366
-86.8035
-85.2495
-83.5742
-81.7785
-79.8641
-77.8298
-75.6763
-73.407
-71.0283
-68.5452
-65.9665
-63.2959
-60.5419
-57.7092
-54.8087
-51.8209
-49.1201
-91.9724
-92.0627
-92.1953
-92.341
-92.4954
-92.6557
-92.8166
-92.9718
-93.1138
-93.2331
-93.319
-93.3601
-93.349
-93.2777
-93.1381
-92.9251
-92.6337
-92.2576
-91.7918
-91.2324
-90.574
-89.8119
-88.9428
-87.9642
-86.873
-85.6682
-84.3478
-82.9115
-81.3594
-79.6916
-77.9097
-76.0123
-73.9995
-71.8724
-69.6363
-67.2957
-64.8581
-62.3266
-59.709
-57.007
-54.2303
-51.3531
-48.7017
-88.9664
-89.0493
-89.1706
-89.3045
-89.4468
-89.5949
-89.744
-89.8879
-90.0198
-90.132
-90.215
-90.2592
-90.2559
-90.197
-90.0764
-89.8888
-89.6283
-89.2899
-88.8682
-88.3594
-87.7586
-87.0622
-86.2663
-85.367
-84.3624
-83.2496
-82.0276
-80.6952
-79.2529
-77.6988
-76.0352
-74.2602
-72.3739
-70.3763
-68.2702
-66.0606
-63.753
-61.351
-58.8599
-56.2824
-53.6254
-50.8622
-48.2942
-86.203
-86.278
-86.3892
-86.5122
-86.643
-86.7794
-86.9166
-87.0499
-87.1733
-87.2784
-87.3573
-87.4015
-87.4028
-87.3536
-87.2479
-87.0801
-86.8447
-86.5374
-86.1541
-85.6893
-85.1386
-84.498
-83.7641
-82.9338
-82.0043
-80.9727
-79.8374
-78.5969
-77.2515
-75.7995
-74.2414
-72.5764
-70.8043
-68.9237
-66.9365
-64.8467
-62.6596
-60.3776
-58.0063
-55.5482
-53.0101
-50.3704
-47.8893
-83.6562
-83.7219
-83.824
-83.9372
-84.0578
-84.1836
-84.3105
-84.4333
-84.5467
-84.6448
-84.7196
-84.7628
-84.7666
-84.7242
-84.6298
-84.4786
-84.2652
-83.9845
-83.632
-83.2042
-82.6964
-82.105
-81.4255
-80.6546
-79.7903
-78.83
-77.7712
-76.6127
-75.353
-73.9916
-72.5281
-70.962
-69.2925
-67.5179
-65.6398
-63.6596
-61.5832
-59.4126
-57.153
-54.8073
-52.3823
-49.8616
-47.4663
-81.3096
-81.3645
-81.4577
-81.5615
-81.6722
-81.7873
-81.9035
-82.0163
-82.1207
-82.211
-82.2803
-82.321
-82.3261
-82.2894
-82.2043
-82.0656
-81.8691
-81.6109
-81.286
-80.8897
-80.4182
-79.8683
-79.2364
-78.5187
-77.7122
-76.8144
-75.8226
-74.7361
-73.5533
-72.2732
-70.8945
-69.417
-67.8398
-66.1614
-64.3819
-62.5027
-60.5277
-58.4593
-56.3022
-54.0581
-51.7326
-49.3079
-46.9544
-79.1346
-79.1806
-79.266
-79.3614
-79.4632
-79.5691
-79.6759
-79.7797
-79.8757
-79.9583
-80.022
-80.0598
-80.0648
-80.0306
-79.9522
-79.8244
-79.6426
-79.4026
-79.1001
-78.7316
-78.2928
-77.7797
-77.1884
-76.5159
-75.7597
-74.9173
-73.9853
-72.963
-71.8483
-70.6406
-69.3379
-67.9406
-66.4467
-64.8554
-63.1657
-61.3784
-59.4966
-57.5228
-55.4602
-53.3113
-51.0804
-48.7549
-46.4662
-77.1182
-77.1576
-77.2359
-77.3233
-77.4165
-77.5134
-77.611
-77.7054
-77.7926
-77.8679
-77.9259
-77.9603
-77.9647
-77.9333
-77.8602
-77.7411
-77.5711
-77.3468
-77.0637
-76.7178
-76.3057
-75.8238
-75.2686
-74.6369
-73.9252
-73.1313
-72.2528
-71.2879
-70.2338
-69.0909
-67.8567
-66.5311
-65.1126
-63.6003
-61.9921
-60.2892
-58.493
-56.6062
-54.631
-52.57
-50.4258
-48.1884
-45.9697
-75.2474
-75.2813
-75.3529
-75.433
-75.5182
-75.6066
-75.6955
-75.7816
-75.861
-75.9292
-75.981
-76.011
-76.0133
-75.9819
-75.9123
-75.7996
-75.6397
-75.4283
-75.1618
-74.8366
-74.4486
-73.9941
-73.4701
-72.8736
-72.2013
-71.4505
-70.6185
-69.7041
-68.7048
-67.6197
-66.447
-65.1865
-63.8363
-62.3952
-60.8619
-59.2359
-57.5182
-55.712
-53.8184
-51.8391
-49.7776
-47.6273
-45.5502
-73.5084
-73.538
-73.603
-73.676
-73.7537
-73.8341
-73.9147
-73.9927
-74.0642
-74.1251
-74.1712
-74.1969
-74.1967
-74.1657
-74.0988
-73.9913
-73.839
-73.6383
-73.3855
-73.0771
-72.7097
-72.2795
-71.7828
-71.217
-70.5791
-69.8666
-69.077
-68.208
-67.2577
-66.2249
-65.1076
-63.9054
-62.6167
-61.2406
-59.775
-58.2194
-56.574
-54.8422
-53.0245
-51.1236
-49.1432
-47.076
-45.1484
-71.8917
-71.9174
-71.976
-72.0423
-72.1127
-72.1855
-72.2583
-72.328
-72.3919
-72.4458
-72.4857
-72.5068
-72.5037
-72.4715
-72.4056
-72.3018
-72.1558
-71.9642
-71.7234
-71.4298
-71.0797
-70.6702
-70.198
-69.66
-69.0531
-68.3742
-67.6216
-66.7933
-65.8868
-64.9005
-63.8332
-62.6843
-61.4515
-60.1343
-58.7306
-57.2393
-55.6603
-53.9962
-52.2475
-50.4161
-48.5028
-46.4906
-44.5818
-70.384
-70.4058
-70.4587
-70.5186
-70.5824
-70.6481
-70.7137
-70.7761
-70.8324
-70.8796
-70.9136
-70.9296
-70.9234
-70.8902
-70.8248
-70.7235
-70.5828
-70.3987
-70.168
-69.8867
-69.5519
-69.1607
-68.7092
-68.1952
-67.6156
-66.9671
-66.2479
-65.4557
-64.5883
-63.6446
-62.6226
-61.5212
-60.3393
-59.0755
-57.728
-56.2957
-54.7774
-53.1756
-51.4905
-49.7231
-47.8748
-45.9263
-44.056
-68.9788
-68.9971
-69.0446
-69.0986
-69.1559
-69.2148
-69.2732
-69.3283
-69.3777
-69.4184
-69.4463
-69.4574
-69.4473
-69.4117
-69.3465
-69.2469
-69.1099
-68.9317
-68.7089
-68.4389
-68.1176
-67.7421
-67.3094
-66.8166
-66.2609
-65.6395
-64.9501
-64.1905
-63.3588
-62.4528
-61.4717
-60.4138
-59.2779
-58.0627
-56.7667
-55.3881
-53.9261
-52.3819
-50.7564
-49.0499
-47.2657
-45.3868
-43.5778
-67.665
-67.6796
-67.7215
-67.7699
-67.8211
-67.8735
-67.9252
-67.9737
-68.0165
-68.0505
-68.0725
-68.0789
-68.0653
-68.0272
-67.9607
-67.8621
-67.728
-67.5551
-67.3397
-67.0786
-66.7687
-66.4071
-65.9907
-65.517
-64.9828
-64.3853
-63.7227
-62.9926
-62.1928
-61.3218
-60.3776
-59.3592
-58.2651
-57.0942
-55.8451
-54.5159
-53.1056
-51.6149
-50.0442
-48.3948
-46.6692
-44.8537
-43.1036
-66.4354
-66.4472
-66.4844
-66.5274
-66.5729
-66.6192
-66.6642
-66.706
-66.7424
-66.7703
-66.7869
-66.7884
-66.7709
-66.7303
-66.6633
-66.5657
-66.4337
-66.2642
-66.0542
-65.8009
-65.501
-65.1516
-64.7497
-64.2928
-63.7778
-63.2019
-62.5631
-61.8591
-61.0878
-60.2475
-59.3369
-58.3545
-57.2987
-56.1684
-54.9622
-53.6781
-52.3153
-50.8733
-49.3532
-47.7549
-46.08
-44.3129
-42.5944
-65.2809
-65.2899
-65.3226
-65.361
-65.4014
-65.4421
-65.4817
-65.5176
-65.5476
-65.5697
-65.5808
-65.5773
-65.5556
-65.5124
-65.4432
-65.3447
-65.2144
-65.0485
-64.8438
-64.5973
-64.3062
-63.9676
-63.5784
-63.1359
-62.6376
-62.081
-61.464
-60.784
-60.0392
-59.2276
-58.3473
-57.3975
-56.3764
-55.2834
-54.1162
-52.8739
-51.5546
-50.1577
-48.6845
-47.1344
-45.5096
-43.796
-42.1223
-64.1996
-64.2059
-64.2343
-64.2679
-64.3032
-64.3384
-64.3719
-64.4021
-64.4267
-64.4431
-64.4487
-64.4406
-64.4151
-64.3687
-64.2981
-64.1997
-64.0699
-63.906
-63.7052
-63.4644
-63.1805
-62.8511
-62.4733
-62.0444
-61.5618
-61.0226
-60.4246
-59.7656
-59.0443
-58.2583
-57.4057
-56.4855
-55.4963
-54.4372
-53.3061
-52.1019
-50.8228
-49.4679
-48.0383
-46.5329
-44.9537
-43.2879
-41.656
-63.1872
-63.1903
-63.2143
-63.2429
-63.2728
-63.3026
-63.3306
-63.3549
-63.3734
-63.3842
-63.3845
-63.3714
-63.3418
-63.2922
-63.2194
-63.1201
-62.9911
-62.8292
-62.6315
-62.3957
-62.1187
-61.797
-61.4287
-61.0113
-60.542
-60.0184
-59.438
-58.799
-58.0988
-57.336
-56.509
-55.6165
-54.6564
-53.6282
-52.5302
-51.3609
-50.119
-48.8032
-47.4139
-45.9503
-44.4139
-42.794
-41.2316
-62.229
-62.23
-62.2506
-62.2754
-62.301
-62.326
-62.3489
-62.3681
-62.3816
-62.3874
-62.383
-62.3654
-62.3318
-62.279
-62.2039
-62.1033
-61.9741
-61.8137
-61.6189
-61.3866
-61.1146
-60.8005
-60.4412
-60.0343
-59.5774
-59.0681
-58.5034
-57.8816
-57.2012
-56.4599
-55.6555
-54.7875
-53.8543
-52.8545
-51.787
-50.65
-49.4424
-48.1628
-46.8115
-45.3884
-43.896
-42.3245
-40.8436
-61.3278
-61.3267
-61.3439
-61.3647
-61.3862
-61.4067
-61.4249
-61.4391
-61.4475
-61.4478
-61.4381
-61.4162
-61.3789
-61.3231
-61.2456
-61.1437
-61.0141
-60.8542
-60.6612
-60.433
-60.1662
-59.8583
-59.5068
-59.1093
-58.663
-58.1658
-57.6154
-57.0095
-56.3464
-55.6244
-54.8417
-53.9966
-53.0878
-52.1142
-51.0748
-49.9673
-48.7914
-47.5447
-46.2281
-44.84
-43.3824