/*--------------------------------*- C++ -*----------------------------------*\
| =========                 |                                                 |
| \\      /  F ield         | OpenFOAM: The Open Source CFD Toolbox           |
|  \\    /   O peration     | Version:  2.3.0                                 |
|   \\  /    A nd           | Web:      www.OpenFOAM.org                      |
|    \\/     M anipulation  |                                                 |
\*---------------------------------------------------------------------------*/
FoamFile
{
    version     2.0;
    format      ascii;
    class       surfaceScalarField;
    location    "4000";
    object      phi;
}
// * * * * * * * * * * * * * * * * * * * * * * * * * * * * * * * * * * * * * //

dimensions      [0 3 -1 0 0 0 0];

internalField   nonuniform List<scalar> 
74652
(
-0.00197152
-0.00766916
0.00840454
0.00123614
-0.00266
-0.00741675
0.00810524
-0.00330458
-0.00717156
0.00781613
-0.00390513
-0.0069365
0.00753705
-0.00446589
-0.006708
0.00726876
-0.00498694
-0.00648846
0.00700951
-0.00547062
-0.0062763
0.00675998
-0.00591591
-0.00607218
0.00651748
-0.00632753
-0.00587451
0.00628612
-0.00670421
-0.00568471
0.00606139
-0.0070475
-0.00550137
0.00584465
-0.00736047
-0.00532354
0.00563651
-0.00764336
-0.00515193
0.00543482
-0.00789789
-0.00498556
0.0052401
-0.00812436
-0.00482682
0.00505328
-0.00832457
-0.00467183
0.00487205
-0.00850106
-0.00452111
0.00469759
-0.00865251
-0.00437742
0.00452887
-0.00878226
-0.00423686
0.00436661
-0.00889251
-0.00410097
0.00421123
-0.0089828
-0.00396926
0.00405955
-0.00905464
-0.0038409
0.00391275
-0.00911128
-0.00371664
0.00377327
-0.00915405
-0.00359583
0.0036386
-0.00918454
-0.00347738
0.00350787
-0.00920485
-0.00336112
0.00338143
-0.00921448
-0.00324857
0.0032582
-0.00921623
-0.00313761
0.00313936
-0.00921141
-0.0030293
0.00302448
-0.00920031
-0.00292003
0.00290893
-0.00918263
-0.00281095
0.00279327
-0.00915751
-0.00270236
0.00267724
-0.009121
-0.00259351
0.002557
-0.00907591
-0.0024778
0.00243271
-0.00901275
-0.00236063
0.00229748
-0.00893084
-0.00223478
0.00215286
-0.00882163
-0.00210386
0.00199466
-0.00868489
-0.0019574
0.00182066
-0.0085158
-0.00179901
0.00162992
-0.00830605
-0.00162582
0.00141607
-0.00805062
-0.00143328
0.00117785
-0.00775115
-0.00122282
0.000923349
-0.000993566
-0.00746246
0.000704871
-0.00180754
-0.00701129
0.00114967
-0.00242389
-0.00680041
-0.00299852
-0.00659693
-0.00353553
-0.00639948
-0.00403308
-0.00621046
-0.00449498
-0.00602656
-0.00491996
-0.00585132
-0.00531238
-0.00567976
-0.00567196
-0.00551494
-0.00599932
-0.00535735
-0.00629812
-0.00520257
-0.00656589
-0.00505576
-0.0068064
-0.00491142
-0.00701853
-0.00477343
-0.00720656
-0.00463878
-0.00736963
-0.00450877
-0.00750682
-0.00438392
-0.00762316
-0.00426108
-0.00771717
-0.00414285
-0.00779054
-0.00402761
-0.00784337
-0.00391644
-0.00787768
-0.00380659
-0.00789422
-0.0037001
-0.00789447
-0.00359558
-0.00787793
-0.00349392
-0.0078468
-0.00339225
-0.00780261
-0.00329275
-0.00774644
-0.00319378
-0.0076812
-0.00309454
-0.00760442
-0.00299681
-0.00751938
-0.00289599
-0.00742665
-0.0027951
-0.00732958
-0.00269058
-0.0072213
-0.00258608
-0.00710588
-0.00247605
-0.00697896
-0.0023617
-0.00683872
-0.0022441
-0.00667673
-0.00211939
-0.00648479
-0.00199094
-0.00625259
-0.00185803
-0.00596359
-0.00172227
-0.00560088
-0.00158553
-0.00145367
-0.00514078
-0.00165247
-0.00641971
0.00106088
-0.00220395
-0.00624893
-0.00271939
-0.00608148
-0.00319745
-0.00592142
-0.00364134
-0.00576657
-0.00405009
-0.00561781
-0.00442865
-0.00547276
-0.0047748
-0.00533361
-0.00509119
-0.00519854
-0.00537845
-0.00507009
-0.00563739
-0.00494363
-0.00587058
-0.00482257
-0.00607724
-0.00470476
-0.00625877
-0.0045919
-0.00641707
-0.00448048
-0.00655187
-0.00437396
-0.00666545
-0.00427034
-0.00675723
-0.0041693
-0.00682929
-0.00407079
-0.00688239
-0.00397451
-0.00691756
-0.00388127
-0.00693382
-0.00379033
-0.00693354
-0.00370038
-0.00691721
-0.00361192
-0.00688663
-0.0035245
-0.00683885
-0.00344003
-0.00677937
-0.00335224
-0.00670493
-0.00326822
-0.00661708
-0.0031824
-0.0065186
-0.00309529
-0.006406
-0.00300859
-0.00628272
-0.00291838
-0.00614596
-0.00282734
-0.00600039
-0.00273164
-0.0058421
-0.00263435
-0.00566896
-0.00253483
-0.00548471
-0.00242836
-0.00528321
-0.00232088
-0.00506551
-0.00220864
-0.0048278
-0.00209574
-0.00456975
-0.00198032
-0.00428675
-0.00186854
-0.00176069
-0.00397973
-0.00150597
-0.00588995
0.000976221
-0.00200228
-0.00575262
-0.00246192
-0.00562184
-0.00289028
-0.00549307
-0.00328601
-0.00537084
-0.00365163
-0.00525218
-0.00398681
-0.00513759
-0.00429346
-0.00502696
-0.00457196
-0.00492004
-0.00482597
-0.00481608
-0.00505316
-0.00471645
-0.00525504
-0.00462068
-0.00543416
-0.00452564
-0.005591
-0.00443507
-0.00572522
-0.00434627
-0.00583876
-0.00426042
-0.00593262
-0.00417648
-0.00600626
-0.00409566
-0.00606171
-0.00401534
-0.00609951
-0.00393671
-0.00612046
-0.00386032
-0.00612437
-0.00378641
-0.0061138
-0.00371095
-0.00608854
-0.00363718
-0.00604759
-0.00356544
-0.00599521
-0.00349241
-0.00592718
-0.00342026
-0.00584786
-0.00334754
-0.00575612
-0.00327414
-0.0056537
-0.00319771
-0.0055397
-0.00312259
-0.00541428
-0.00304379
-0.00527786
-0.00296375
-0.00512993
-0.00287958
-0.00497183
-0.00279244
-0.00480337
-0.0027033
-0.00462076
-0.00261097
-0.0044259
-0.00251574
-0.00421818
-0.00241637
-0.00399511
-0.00231881
-0.00375705
-0.00221838
-0.00350252
-0.00212307
-0.00203056
-0.00323265
-0.00137121
-0.0054132
0.000894458
-0.0018158
-0.00530803
-0.00222988
-0.00520777
-0.00261187
-0.00511107
-0.00296632
-0.00501639
-0.00329189
-0.00492661
-0.00359089
-0.00483859
-0.00386362
-0.00475423
-0.00411117
-0.00467248
-0.00433396
-0.00459329
-0.00453423
-0.00451618
-0.00471336
-0.00444155
-0.00486946
-0.00436955
-0.00500507
-0.00429946
-0.00512133
-0.00423
-0.00521747
-0.00416428
-0.00529538
-0.00409856
-0.00535688
-0.00403415
-0.00540043
-0.0039718
-0.00542671
-0.00391042
-0.00543865
-0.00384839
-0.00543709
-0.00378797
-0.00542027
-0.00372778
-0.0053893
-0.00366814
-0.00534534
-0.0036094
-0.00528874
-0.00354901
-0.00522097
-0.00348804
-0.00514104
-0.00342747
-0.00504974
-0.00336544
-0.00494692
-0.00330052
-0.0048348
-0.00323472
-0.00471191
-0.00316668
-0.00457974
-0.00309592
-0.0044371
-0.00302223
-0.0042842
-0.00294533
-0.00412074
-0.00286677
-0.00394943
-0.00278228
-0.00376717
-0.00269799
-0.00357215
-0.00261139
-0.00336871
-0.00252225
-0.00315364
-0.00243345
-0.00292916
-0.00234755
-0.00226543
-0.00269428
-0.00124774
-0.00498367
0.000818212
-0.00164725
-0.00490851
-0.00201738
-0.00483764
-0.00236159
-0.00476687
-0.00267809
-0.00469989
-0.0029688
-0.0046359
-0.00323542
-0.00457197
-0.00347891
-0.00451074
-0.00369907
-0.00445233
-0.00389791
-0.00439445
-0.00407477
-0.00433932
-0.0042321
-0.00428422
-0.00436987
-0.00423177
-0.00448905
-0.00418028
-0.0045884
-0.00413066
-0.0046724
-0.00408028
-0.00473881
-0.00403215
-0.00478907
-0.00398389
-0.00482396
-0.00393691
-0.00484422
-0.00389017
-0.00485011
-0.00384249
-0.0048422
-0.00379588
-0.00482235
-0.00374763
-0.00478932
-0.00370117
-0.00474519
-0.00365353
-0.00468914
-0.00360507
-0.00462202
-0.00355515
-0.00454513
-0.00350436
-0.0044578
-0.00345277
-0.00436007
-0.00339825
-0.00425339
-0.00334139
-0.0041369
-0.00328318
-0.00401217
-0.00322065
-0.003877
-0.0031574
-0.00373483
-0.0030875
-0.00358328
-0.00301831
-0.00342252
-0.00294305
-0.00325358
-0.00286692
-0.00307691
-0.00278806
-0.00289076
-0.0027084
-0.00269585
-0.00262835
-0.00249355
-0.00254985
-0.00247388
-0.0022851
-0.00113297
-0.00459656
0.000745854
-0.00149235
-0.00454914
-0.00182644
-0.00450354
-0.00213396
-0.00445935
-0.00241824
-0.00441561
-0.00268013
-0.00437401
-0.00291832
-0.00433378
-0.003135
-0.00429406
-0.00333238
-0.00425495
-0.00350855
-0.00421828
-0.00366666
-0.00418121
-0.00380558
-0.00414529
-0.00392682
-0.00411053
-0.00403035
-0.00407675
-0.00411933
-0.00404168
-0.00419107
-0.00400853
-0.00424812
-0.00397511
-0.0042906
-0.00394141
-0.00431908
-0.00390842
-0.00433485
-0.0038744
-0.00433679
-0.00384056
-0.00432725
-0.00380542
-0.00430445
-0.00377043
-0.00427128
-0.00373434
-0.00422849
-0.00369632
-0.00417389
-0.00365967
-0.00411001
-0.00361903
-0.0040364
-0.00357797
-0.00395432
-0.00353485
-0.00386278
-0.00348979
-0.00376314
-0.00344103
-0.00365452
-0.00339179
-0.00353722
-0.00333795
-0.00341249
-0.00328213
-0.00327961
-0.00322038
-0.00313987
-0.00315805
-0.0029928
-0.00309012
-0.00283776
-0.00302196
-0.00267479
-0.00295104
-0.00250689
-0.0028763
-0.00233126
-0.00280399
-0.00215004
-0.00273107
-0.0026616
-0.00196231
-0.00102864
-0.00424814
0.000680224
-0.00135263
-0.00422515
-0.00165191
-0.00420426
-0.00193019
-0.00418107
-0.00218485
-0.00416095
-0.00241932
-0.00413954
-0.00263381
-0.0041193
-0.00282834
-0.00409952
-0.00300326
-0.00408003
-0.00316174
-0.00405981
-0.00330167
-0.00404128
-0.0034257
-0.00402126
-0.0035331
-0.00400313
-0.00362595
-0.0039839
-0.00370285
-0.00396478
-0.00376643
-0.00394495
-0.00381635
-0.00392519
-0.00385285
-0.00390491
-0.00387628
-0.00388499
-0.00388758
-0.00386311
-0.00388757
-0.00384057
-0.00387527
-0.00381772
-0.00385318
-0.00379252
-0.00382085
-0.00376667
-0.00377796
-0.0037392
-0.00372803
-0.0037096
-0.00366687
-0.0036802
-0.00359826
-0.00364658
-0.003521
-0.00361211
-0.00343614
-0.00357465
-0.00334265
-0.00353452
-0.00324151
-0.00349294
-0.00313427
-0.0034452
-0.00301967
-0.00339672
-0.00289756
-0.00334249
-0.00277074
-0.00328487
-0.00263499
-0.00322586
-0.00249292
-0.00316403
-0.00234553
-0.00309843
-0.00219145
-0.00303038
-0.00203243
-0.002963
-0.00186884
-0.00289466
-0.00282978
-0.00170067
-0.000932937
-0.00393325
0.00061804
-0.00122519
-0.0039329
-0.00149602
-0.00393343
-0.00174487
-0.00393222
-0.00197534
-0.00393047
-0.002186
-0.00392888
-0.00237783
-0.00392747
-0.00255317
-0.00392417
-0.00271111
-0.0039221
-0.00285137
-0.00391955
-0.00297754
-0.00391511
-0.00308727
-0.00391154
-0.00318336
-0.00390704
-0.00326589
-0.00390137
-0.00333446
-0.00389621
-0.00338967
-0.00388974
-0.00343355
-0.00388131
-0.00346432
-0.00387414
-0.00348408
-0.00386523
-0.00349333
-0.00385386
-0.00349122
-0.00384268
-0.00347896
-0.00382998
-0.00345816
-0.00381332
-0.00342595
-0.00379888
-0.00338518
-0.00377996
-0.00333783
-0.00375696
-0.00328091
-0.00373711
-0.00321586
-0.00371163
-0.00314611
-0.00368185
-0.00306734
-0.00365342
-0.00298005
-0.00362182
-0.00289001
-0.00358297
-0.00278855
-0.00354666
-0.00268372
-0.00350155
-0.00257365
-0.00345257
-0.00245523
-0.00340329
-0.00233105
-0.00335004
-0.0022024
-0.00329268
-0.002068
-0.00323283
-0.00192811
-0.00317027
-0.00178537
-0.00310574
-0.00163587
-0.00304416
-0.00148333
-0.00298232
-0.00629239
-0.000841055
-0.00032901
-0.00545817
-0.000813793
-2.04245e-05
-0.00477298
-0.000818786
0.000133595
-0.00418136
-0.000839409
0.000247791
-0.00365864
-0.000868185
0.000345459
-0.00318675
-0.000905666
0.000433777
-0.00275659
-0.000948186
0.000518027
-0.00235964
-0.000996129
0.00059918
-0.00199212
-0.00104598
0.000678466
-0.00165093
-0.00109865
0.000757456
-0.00133046
-0.0011556
0.000835137
-0.00103164
-0.00121235
0.000913531
-0.000752449
-0.00127218
0.000992988
-0.000489388
-0.00133455
0.00107148
-0.000244911
-0.00139771
0.00115323
-1.51527e-05
-0.00146432
0.00123456
0.000197879
-0.00153117
0.00131814
0.000394553
-0.00160075
0.00140408
0.000575933
-0.00167317
0.0014918
0.00074195
-0.00174775
0.00158174
0.000892565
-0.00182463
0.00167402
0.00102698
-0.00190397
0.00176956
0.00114633
-0.00198664
0.00186728
0.00124837
-0.00207204
0.00197
0.00133403
-0.00216038
0.00207472
0.00140286
-0.00225245
0.00218362
0.0014531
-0.00234714
0.0022969
0.00148545
-0.00244652
0.00241417
0.00149867
-0.00254946
0.00253624
0.00149208
-0.00265559
0.00266218
0.00146486
-0.00276682
0.00279404
0.00141634
-0.00288209
0.00293061
0.00134615
-0.00300246
0.00307265
0.00125218
-0.00312658
0.00322055
0.00113387
-0.00325622
0.00337452
0.000990234
-0.00339113
0.00353477
0.000820897
-0.00353167
0.00370101
0.000623772
-0.00367787
0.003875
0.000397807
-0.00382995
0.00405591
0.000142563
-0.0039883
0.00424354
-0.000144104
-0.00415333
0.00444
-0.000462977
-0.00432494
0.00464381
-0.0045028
0.00485668
-0.000816855
-0.00462287
-0.00135896
-0.00412525
-0.00131141
-0.00366178
-0.00128226
-0.00323267
-0.00126852
-0.00283344
-0.00126742
-0.00246283
-0.00127627
-0.00211647
-0.00129455
-0.00179434
-0.00131825
-0.001492
-0.00134833
-0.00120764
-0.00138301
-0.000941979
-0.00142126
-0.000692335
-0.00146199
-0.000456268
-0.00150825
-0.000236603
-0.00155421
-2.98766e-05
-0.00160444
0.000162528
-0.00165673
0.000342516
-0.00171116
0.000509423
-0.00176766
0.000663271
-0.00182702
0.000803228
-0.00188771
0.000929928
-0.00195133
0.00104383
-0.00201787
0.00114248
-0.00208529
0.00122699
-0.00215655
0.00129691
-0.00223031
0.00135179
-0.00230732
0.00139041
-0.00238577
0.00141231
-0.00246841
0.00141747
-0.00255463
0.00140448
-0.0026426
0.00137285
-0.00273519
0.00132254
-0.00283178
0.00125131
-0.00293123
0.00115921
-0.00303448
0.00104585
-0.00314285
0.000909553
-0.00325484
0.000749352
-0.00337147
0.000564272
-0.00349279
0.000354195
-0.00361987
0.000117191
-0.00375129
-0.000148522
-0.00388762
-0.000443236
-0.00403022
-0.00417818
-0.000767855
-0.00365101
-0.00168768
-0.00331728
-0.00164514
-0.00298635
-0.00161319
-0.00266376
-0.00159111
-0.00235101
-0.00158016
-0.00205
-0.00157728
-0.00176265
-0.00158191
-0.00148912
-0.00159178
-0.00122915
-0.0016083
-0.00098158
-0.00163058
-0.000747248
-0.00165559
-0.000524889
-0.00168435
-0.000316912
-0.00171623
-0.000119462
-0.00175166
6.57279e-05
-0.00178963
0.00023887
-0.00182987
0.000399956
-0.00187225
0.000549026
-0.00191673
0.000686004
-0.001964
0.000810765
-0.00201247
0.000923122
-0.00206369
0.00102142
-0.00211617
0.0011083
-0.00217217
0.00118199
-0.00223024
0.00124142
-0.00228974
0.00128562
-0.00235152
0.00131678
-0.00241694
0.00133238
-0.00248401
0.00133195
-0.00255419
0.00131559
-0.00262624
0.00128256
-0.00270216
0.00123061
-0.00277983
0.00116151
-0.00286213
0.00107315
-0.00294612
0.000965051
-0.00303475
0.000836268
-0.00312606
0.000686143
-0.00322135
0.000513701
-0.00332035
0.000317726
-0.00342389
9.74674e-05
-0.00353103
-0.00014728
-0.00364287
-0.000418968
-0.00375854
-0.0038798
-0.000717354
-0.00295655
-0.00196378
-0.00268111
-0.00192058
-0.00240687
-0.00188743
-0.00213877
-0.00185921
-0.0018777
-0.00184123
-0.00162566
-0.00182933
-0.00138476
-0.0018228
-0.00115194
-0.0018246
-0.000928679
-0.00183156
-0.00071737
-0.00184189
-0.000516456
-0.00185651
-0.000325443
-0.00187537
-0.000144146
-0.00189752
2.66044e-05
-0.00192241
0.000185958
-0.00194898
0.000335695
-0.0019796
0.000474893
-0.00201144
0.000603477
-0.00204531
0.000721307
-0.00208183
0.000828987
-0.00212015
0.000924785
-0.00215949
0.00100998
-0.00220137
0.00108286
-0.00224504
0.00114382
-0.0022912
0.0011926
-0.00233851
0.00122868
-0.00238761
0.00125119
-0.00243944
0.00126079
-0.00249361
0.00125497
-0.00254838
0.00123547
-0.00260674
0.00119972
-0.00266641
0.0011488
-0.00272892
0.0010806
-0.00279393
0.00099624
-0.00286176
0.000893231
-0.00293174
0.000771387
-0.00300421
0.000630891
-0.00308085
0.000470074
-0.00315953
0.000287954
-0.00324177
8.42544e-05
-0.00332733
-0.000142816
-0.0034158
-0.000393286
-0.00350807
-0.00360332
-0.000669757
-0.00245735
-0.00220071
-0.00222003
-0.00215789
-0.00198664
-0.00212082
-0.00175725
-0.0020886
-0.00153519
-0.00206329
-0.00131936
-0.00204516
-0.00110875
-0.0020334
-0.000907667
-0.00202568
-0.000715267
-0.00202396
-0.000530724
-0.00202644
-0.000354328
-0.0020329
-0.000186978
-0.00204272
-2.88469e-05
-0.00205565
0.000121006
-0.00207226
0.000261634
-0.00208961
0.000392948
-0.00211092
0.000514885
-0.00213338
0.000628065
-0.00215849
0.000731527
-0.00218529
0.000824354
-0.00221298
0.000907848
-0.00224298
0.000981742
-0.00227526
0.00104433
-0.00230764
0.00109545
-0.00234232
0.00113612
-0.00237918
0.00116526
-0.00241675
0.00118245
-0.00245662
0.00118648
-0.00249764
0.00117863
-0.00254053
0.00115593
-0.00258403
0.00112037
-0.00263085
0.00107073
-0.00267928
0.0010055
-0.0027287
0.000923951
-0.00278021
0.000826941
-0.00283473
0.000713536
-0.00289081
0.000581715
-0.00294903
0.000432183
-0.00301
0.000263573
-0.00307316
7.4141e-05
-0.0031379
-0.000135132
-0.00320653
-0.000365861
-0.00327734
-0.00335014
-0.000619045
-0.00207436
-0.00241146
-0.00186605
-0.0023662
-0.00166198
-0.00232489
-0.00146138
-0.0022892
-0.00126551
-0.00225916
-0.00107577
-0.0022349
-0.000892819
-0.00221636
-0.000714865
-0.00220364
-0.000544536
-0.00219429
-0.000382029
-0.00218894
-0.000227624
-0.00218731
-8.03175e-05
-0.00219002
5.98477e-05
-0.00219582
0.000191001
-0.00220342
0.000314842
-0.00221345
0.000431151
-0.00222723
0.000538954
-0.00224118
0.000637324
-0.00225686
0.000727699
-0.00227567
0.000809848
-0.00229513
0.000882804
-0.00231594
0.000944937
-0.0023374
0.000999679
-0.00236238
0.00104381
-0.00238645
0.00107774
-0.00241311
0.00110115
-0.00244016
0.00111354
-0.002469
0.00111397
-0.00249807
0.00110322
-0.00252978
0.00108068
-0.00256149
0.00104491
-0.00259509
0.000996171
-0.00263054
0.000933368
-0.0026659
0.000857108
-0.00270395
0.00076594
-0.00274356
0.000659266
-0.00278413
0.000537431
-0.00282719
0.000398067
-0.00287064
0.000241385
-0.00291648
6.76765e-05
-0.00296419
-0.000125545
-0.0030133
-0.000338747
-0.00306413
-0.00311784
-0.000571051
-0.0017725
-0.00260127
-0.0015876
-0.0025511
-0.00140575
-0.00250674
-0.00122773
-0.00246722
-0.00105509
-0.0024318
-0.000886676
-0.00240331
-0.00072319
-0.00237984
-0.000567207
-0.00235962
-0.000417169
-0.00234433
-0.000272193
-0.00233392
-0.000134521
-0.00232498
-3.99575e-06
-0.00232055
0.00011944
-0.00231925
0.00023653
-0.00232051
0.000346183
-0.0023231
0.000448257
-0.0023293
0.000544218
-0.00233715
0.000632282
-0.00234493
0.000711601
-0.00235499
0.000783499
-0.00236703
0.00084701
-0.00237945
0.000902714
-0.0023931
0.000949106
-0.00240877
0.000987021
-0.00242437
0.00101557
-0.00244166
0.00103445
-0.00245904
0.00104316
-0.00247771
0.00104226
-0.00249718
0.00102925
-0.00251678
0.00100657
-0.0025388
0.000972044
-0.00256056
0.000924816
-0.00258331
0.000866039
-0.00260712
0.000794475
-0.00263239
0.000708978
-0.00265807
0.000609925
-0.00268508
0.000495461
-0.00271273
0.000366928
-0.0027421
0.000222592
-0.00277215
6.12337e-05
-0.00280284
-0.000116549
-0.00283552
-0.000311885
-0.0028688
-0.00290365
-0.000526072
-0.00153071
-0.00277123
-0.00136463
-0.00271717
-0.00120088
-0.00267049
-0.00104239
-0.00262572
-0.000887252
-0.00258694
-0.000737923
-0.00255264
-0.000591605
-0.00252616
-0.000451751
-0.00249948
-0.000317273
-0.00247881
-0.000189151
-0.00246204
-6.76119e-05
-0.00244652
4.87047e-05
-0.00243687
0.000159639
-0.00243019
0.000263944
-0.00242481
0.000363017
-0.00242217
0.000454209
-0.00242049
0.000538382
-0.00242132
0.000616172
-0.00242272
0.000687569
-0.00242638
0.000750764
-0.00243022
0.000806888
-0.00243557
0.000855396
-0.00244161
0.000896711
-0.00245008
0.000929532
-0.00245719
0.000953065
-0.00246519
0.000968877
-0.00247486
0.000974693
-0.00248352
0.000971006
-0.00249349
0.000958407
-0.00250418
0.000935219
-0.00251561
0.000901589
-0.00252693
0.000857693
-0.00253941
0.000802277
-0.0025517
0.000734201
-0.00256431
0.000654724
-0.00257859
0.000562601
-0.00259296
0.000457693
-0.00260782
0.000338369
-0.00262278
0.00020514
-0.00263892
5.68495e-05
-0.00265454
-0.000106865
-0.00267181
-0.000285997
-0.00268967
-0.00270763
-0.000482021
-0.00133234
-0.00292222
-0.00118102
-0.00286849
-0.00103394
-0.00281757
-0.000891376
-0.00276829
-0.00075503
-0.00272329
-0.000618885
-0.00268878
-0.0004885
-0.00265655
-0.000363132
-0.00262484
-0.000244179
-0.00259776
-0.000130022
-0.0025762
-1.97159e-05
-0.00255682
8.44084e-05
-0.00254099
0.000184006
-0.00252979
0.000278056
-0.00251886
0.000364715
-0.00250883
0.000446518
-0.0025023
0.000522163
-0.00249696
0.000591227
-0.00249178
0.000654869
-0.00249003
0.000712411
-0.00248776
0.000761776
-0.00248494
0.000805676
-0.00248551
0.000841152
-0.00248556
0.000868777
-0.00248481
0.00089004
-0.00248645
0.00090245
-0.00248727
0.000906118
-0.00248719
0.000902057
-0.00248943
0.000889122
-0.00249124
0.000866281
-0.00249277
0.000835249
-0.0024959
0.000793333
-0.0024975
0.000740737
-0.00249911
0.000678571
-0.00250215
0.000604909
-0.00250493
0.000518814
-0.00250686
0.000421644
-0.00251065
0.000312174
-0.00251331
0.000188837
-0.00251558
5.31383e-05
-0.00251885
-9.66035e-05
-0.00252206
-0.000261993
-0.00252428
-0.0025282
-0.000441416
-0.000357803
0.00491146
-0.0053658
0.00081214
5.02708e-05
0.00466678
-0.00507486
0.000415714
0.00443346
-0.0047989
0.000740402
0.00421116
-0.00453585
0.00102742
0.00399871
-0.00428573
0.00127835
0.00379709
-0.00404803
0.00149627
0.00360426
-0.00382218
0.00168293
0.00342103
-0.00360769
0.00184042
0.00324638
-0.00340387
0.00197131
0.00307949
-0.00321038
0.00207684
0.00292134
-0.00302687
0.002159
0.00277052
-0.00285268
0.00221984
0.00262666
-0.0026875
0.00226067
0.00248995
-0.00253077
0.00228342
0.00235955
-0.0023823
0.00228918
0.00223553
-0.00224129
0.00227999
0.00211725
-0.00210806
0.00225673
0.00200483
-0.00198156
0.0022209
0.00189787
-0.00186204
0.00217383
0.00179546
-0.00174839
0.00211639
0.00169828
-0.00164084
0.00205003
0.00160573
-0.00153937
0.00197545
0.00151723
-0.00144265
0.00189443
0.00143274
-0.00135172
0.00180716
0.00135241
-0.00126515
0.00171438
0.00127596
-0.00118318
0.00161793
0.00120206
-0.00110561
0.00151806
0.00113205
-0.00103218
0.00141552
0.00106496
-0.000962411
0.00131104
0.00100045
-0.000895963
0.00120604
0.000938275
-0.000833283
0.00110055
0.000878964
-0.000773471
0.000995977
0.000821175
-0.000716602
0.000892275
0.000765651
-0.000661949
0.000790847
0.000711338
-0.00060991
0.000692903
0.000658028
-0.000560083
0.000597933
0.000606277
-0.000511307
0.000507916
0.00055426
-0.000464243
0.000421634
0.000503603
-0.000417321
0.000337299
0.000455261
-0.000370925
0.00024213
0.000419009
-0.000323839
8.84761e-05
0.000438157
-0.000284505
0.000677774
-0.000307832
-0.000281464
-0.00032691
0.00450446
0.000733908
4.1075e-05
0.0042988
0.000371938
0.0041026
0.000666797
0.0039163
0.000927686
0.00373782
0.00115774
0.00356704
0.00135737
0.00340463
0.00152969
0.0032487
0.0016757
0.00310037
0.00179727
0.00295793
0.0018967
0.00282191
0.00197465
0.00269257
0.00203341
0.0025679
0.00207376
0.00244959
0.00209757
0.00233574
0.00210576
0.00222734
0.00209948
0.00212353
0.00208067
0.00202363
0.00204972
0.00192882
0.00200808
0.0018371
0.00195673
0.00174964
0.00189672
0.00166574
0.00182888
0.00158508
0.0017538
0.00150782
0.00167319
0.00143303
0.00158777
0.00136138
0.00149759
0.00129224
0.00140399
0.00122566
0.00130775
0.00116119
0.00120968
0.00109852
0.0011101
0.00103785
0.00101036
0.000978702
0.000910742
0.000920796
0.000812189
0.000864204
0.000715265
0.000808262
0.000620586
0.000752707
0.000529035
0.000697829
0.000440181
0.000643115
0.000352539
0.000591245
0.000259244
0.000548556
0.000139063
0.00053919
-5.77579e-05
0.000634978
0.00099823
-0.000378214
-0.000298204
0.00413697
0.000665693
3.42741e-05
0.00396632
0.00033318
0.00380369
0.000600287
0.0036492
0.000837525
0.00350058
0.00104663
0.00335794
0.00122918
0.00322208
0.0013866
0.00309129
0.00152091
0.00296606
0.00163346
0.00284537
0.00172489
0.00273048
0.00179786
0.0026196
0.0018526
0.00251316
0.00189127
0.00241093
0.00191431
0.00231269
0.00192304
0.00221861
0.00191911
0.00212746
0.00190283
0.0020399
0.00187583
0.00195582
0.00183861
0.00187433
0.00179217
0.00179608
0.00173739
0.00172051
0.00167577
0.0016467
0.00160761
0.00157598
0.00153314
0.00150749
0.0014542
0.00144032
0.00137116
0.00137528
0.00128441
0.0013124
0.00119522
0.00125039
0.00110376
0.00118998
0.0010111
0.00113051
0.000917884
0.00107192
0.000824353
0.00101433
0.000731827
0.000956731
0.000640386
0.000899703
0.00055098
0.000842114
0.000463642
0.000785166
0.000377374
0.000729383
0.000288994
0.000679625
0.000189341
0.00064821
5.65637e-05
0.000671968
-0.000147477
0.000839019
0.0012757
-0.000424943
-0.00027244
0.0038042
0.00060521
2.79429e-05
0.00366594
0.000298072
0.00353356
0.000540509
0.00340676
0.000755632
0.00328546
0.000945804
0.00316777
0.00111217
0.00305571
0.0012561
0.00294736
0.00137939
0.00284277
0.00148243
0.00274233
0.00156738
0.00264553
0.00163506
0.00255192
0.0016867
0.00246153
0.00172293
0.00237469
0.00174497
0.00229065
0.00175474
0.00220885
0.00175182
0.00213037
0.00173801
0.00205372
0.00171408
0.00197975
0.00168066
0.00190775
0.00163889
0.00183784
0.0015896
0.0017698
0.00153327
0.00170304
0.00147067
0.00163857
0.00140282
0.00157534
0.00132999
0.00151315
0.00125317
0.0014521
0.00117328
0.00139229
0.00109076
0.00133291
0.00100607
0.00127467
0.000920019
0.00121656
0.000833098
0.00115884
0.000746215
0.00110121
0.000659804
0.00104314
0.000574534
0.000984972
0.000490468
0.000926181
0.000407824
0.000867809
0.000325271
0.000811937
0.000238703
0.000766192
0.000137974
0.00074894
3.24093e-06
0.0008067
-0.00019286
0.00103512
0.00152395
-0.000441114
-0.000249709
0.00350345
0.000550462
2.21401e-05
0.00339409
0.00026693
0.00328877
0.00048627
0.00318742
0.000682316
0.00308942
0.000854913
0.00299517
0.00100721
0.00290341
0.00113889
0.00281568
0.00125146
0.0027302
0.00134653
0.00264727
0.00142514
0.00256691
0.00148762
0.00248943
0.0015352
0.00241396
0.00156957
0.00234031
0.00159112
0.00226911
0.00160078
0.00219919
0.00159915
0.002132
0.00158753
0.00206534
0.00156631
0.00200098
0.00153649
0.00193757
0.00149876
0.00187557
0.00145417
0.0018144
0.00140241
0.0017548
0.00134524
0.00169574
0.00128299
0.00163759
0.00121604
0.0015801
0.00114538
0.00152277
0.0010718
0.00146586
0.000995348
0.00140936
0.00091699
0.00135303
0.000837232
0.00129631
0.000756784
0.00123929
0.000676333
0.00118166
0.000596038
0.00112344
0.000516652
0.00106436
0.000438371
0.00100446
0.00036069
0.00094549
0.000281964
0.000890664
0.000198455
0.0008497
0.000100136
0.00084726
-3.01668e-05
0.000937002
-0.000213728
0.00121868
0.00175103
-0.000440811
-0.000228381
0.00323179
0.000500036
1.73145e-05
0.00314839
0.000239153
0.00306693
0.000438444
0.00298813
0.000616103
0.00291176
0.000774019
0.00283725
0.000912089
0.00276534
0.00103237
0.0026954
0.0011358
0.00262676
0.00122296
0.0025601
0.00129486
0.00249502
0.00135269
0.0024316
0.00139743
0.00236922
0.00142934
0.00230841
0.00144996
0.00224848
0.00145926
0.00218988
0.00145902
0.00213225
0.00144835
0.002076
0.00142986
0.00201947
0.00140287
0.00196456
0.00136884
0.0019096
0.00132831
0.00185492
0.00128165
0.00180146
0.00122913
0.00174826
0.0011721
0.00169463
0.00111055
0.00164165
0.00104564
0.00158768
0.000977714
0.00153379
0.000907251
0.00147983
0.000835244
0.00142504
0.000761853
0.00136971
0.000687551
0.00131359
0.000613039
0.00125617
0.00053884
0.00119763
0.000465052
0.00113815
0.00039213
0.00107738
0.000319811
0.00101781
0.000245934
0.000964541
0.000166364
0.00092927
7.19792e-05
0.000941645
-5.19075e-05
0.00106089
-0.000222565
0.00138934
0.00195903
-0.00043056
-0.000209124
0.00298609
0.000454824
1.38055e-05
0.00292546
0.00021459
0.00286615
0.000395489
0.00280723
0.000557083
0.00275016
0.000700272
0.00269406
0.000826298
0.00263931
0.000936278
0.00258542
0.00103059
0.00253245
0.00111055
0.00248014
0.00117688
0.00242869
0.00123033
0.00237814
0.00127151
0.00232804
0.00130124
0.00227868
0.00132107
0.00222866
0.00133052
0.00218042
0.00133028
0.00213249
0.00132192
0.00208436
0.00130478
0.00203661
0.00128111
0.00198823
0.00125023
0.00194048
0.00121311
0.00189205
0.00117065
0.00184392
0.00112361
0.0017953
0.00107095
0.00174729
0.00101452
0.00169807
0.00095459
0.00164761
0.000891927
0.00159645
0.000827642
0.00154411
0.000761424
0.00149125
0.000693967
0.00143716
0.000625495
0.00138206
0.000556757
0.00132491
0.000487976
0.00126642
0.000420171
0.00120595
0.000352523
0.00114503
0.000285313
0.00108502
0.000216626
0.00103323
0.000141721
0.00100418
5.27041e-05
0.00103066
-6.45417e-05
0.00117813
-0.000224565
0.00154936
0.00215098
-0.000416521
-0.000190732
0.00276344
0.000413385
1.03363e-05
0.0027244
0.000192854
0.00268363
0.000356514
0.00264357
0.000503253
0.00260342
0.000633848
0.00256347
0.000749234
0.00252393
0.000849207
0.00248545
0.000935269
0.00244639
0.00100846
0.00240696
0.00106942
0.00236773
0.00111849
0.00232907
0.00115586
0.00229067
0.00118361
0.00225093
0.00120173
0.00221055
0.00121111
0.00217104
0.00121184
0.00213176
0.00120389
0.00209231
0.00118873
0.00205178
0.00116675
0.00201021
0.00113897
0.00196826
0.00110502
0.00192599
0.00106666
0.00188228
0.00102371
0.00183825
0.000976538
0.00179446
0.000924587
0.00175002
0.000868999
0.0017032
0.000811316
0.00165413
0.000752116
0.00160331
0.000691424
0.00155195
0.00062965
0.00149894
0.000566987
0.00144473
0.000503701
0.0013882
0.000440999
0.00132912
0.000378379
0.00126857
0.000315898
0.00120751
0.000253665
0.00114725
0.000190466
0.00109643
0.00012091
0.00107373
3.72669e-05
0.00111431
-7.29363e-05
0.00128834
-0.000222272
0.0016987
0.00232686
-0.000398145
-0.000174774
0.000375851
0.00256236
7.81068e-06
0.00254181
0.000172979
0.00251846
0.000321554
0.00249499
0.000455269
0.00246971
0.000574601
0.00244414
0.000679254
0.00241928
0.000770969
0.00239374
0.000849703
0.00236766
0.000916548
0.00234011
0.000973315
0.00231096
0.00101909
0.0022833
0.00105386
0.0022559
0.00107907
0.00222571
0.00109568
0.00219394
0.00110559
0.00216113
0.00110768
0.00212968
0.00110167
0.00209831
0.00108831
0.00206513
0.00106868
0.00202985
0.0010435
0.00199343
0.00101216
0.00195734
0.000976856
0.00191759
0.000938723
0.00187638
0.000896383
0.0018368
0.000849778
0.00179663
0.000798428
0.00175455
0.000744644
0.00170792
0.000689314
0.00165864
0.000633415
0.00160785
0.000577022
0.00155533
0.000519163
0.00150259
0.000460828
0.00144653
0.000403115
0.00138683
0.000345501
0.00132619
0.000287679
0.00126534
0.000230401
0.00120453
0.000173064
0.00115376
0.000110603
0.00113619
3.46758e-05
0.00119023
-6.94338e-05
0.00139245
-0.00021753
0.0018468
-0.00038538
0.00249471
-0.000576307
0.00123605
-0.000967573
-0.000889985
0.00145498
-0.0011413
-0.00120858
0.0015731
-0.0012545
-0.00152337
0.00166135
-0.00134655
-0.00183213
0.00173793
-0.00142917
-0.00213358
0.00180929
-0.00150784
-0.00242461
0.00187719
-0.00158616
-0.00270543
0.00194391
-0.00166308
-0.00297468
0.0020101
-0.00174086
-0.00323093