/*--------------------------------*- C++ -*----------------------------------*\
| =========                 |                                                 |
| \\      /  F ield         | OpenFOAM: The Open Source CFD Toolbox           |
|  \\    /   O peration     | Version:  2.3.0                                 |
|   \\  /    A nd           | Web:      www.OpenFOAM.org                      |
|    \\/     M anipulation  |                                                 |
\*---------------------------------------------------------------------------*/
FoamFile
{
    version     2.0;
    format      ascii;
    class       volScalarField;
    location    "2000";
    object      nuTilda;
}
// * * * * * * * * * * * * * * * * * * * * * * * * * * * * * * * * * * * * * //

dimensions      [0 2 -1 0 0 0 0];

internalField   nonuniform List<scalar> 
38227
(
0.073154
0.0715517
0.069946
0.0683351
0.0667192
0.0650989
0.0634749
0.0618482
0.0602191
0.0585884
0.0569569
0.0553253
0.0536944
0.0520647
0.0504366
0.0488108
0.0471877
0.0455681
0.0439523
0.0423409
0.0407339
0.0391319
0.0375351
0.0359437
0.0343585
0.03278
0.0312082
0.0296441
0.0280883
0.0265413
0.0250052
0.0234811
0.021971
0.0204782
0.0190075
0.017565
0.0161604
0.0148058
0.0135171
0.0123084
0.0111696
0.00996864
0.00794361
0.0741399
0.0727112
0.071284
0.069853
0.0684176
0.0669779
0.0655343
0.0640874
0.0626374
0.0611847
0.0597295
0.0582725
0.056814
0.055354
0.0538929
0.052431
0.0509689
0.0495069
0.0480454
0.0465848
0.045125
0.0436673
0.0422118
0.0407587
0.0393095
0.037865
0.0364256
0.0349935
0.0335704
0.0321585
0.0307612
0.0293822
0.0280271
0.0267017
0.0254147
0.0241775
0.0230038
0.021909
0.0209128
0.0200375
0.0193056
0.0187356
0.0183387
0.07505
0.0737776
0.0725067
0.0712311
0.0699507
0.0686653
0.0673756
0.0660817
0.0647839
0.0634819
0.0621761
0.0608669
0.0595543
0.0582382
0.0569188
0.0555965
0.0542716
0.0529441
0.0516146
0.0502836
0.0489511
0.0476184
0.0462859
0.0449542
0.043625
0.0422993
0.0409778
0.0396636
0.0383588
0.0370662
0.0357901
0.0345353
0.0333075
0.0321133
0.0309619
0.029864
0.0288316
0.027878
0.027017
0.0262644
0.0256341
0.0251358
0.0247781
0.0758835
0.0747575
0.0736234
0.0724825
0.0713351
0.0701821
0.0690237
0.0678599
0.0666908
0.0655165
0.064337
0.0631523
0.0619626
0.0607675
0.0595671
0.058362
0.0571519
0.0559371
0.0547181
0.0534953
0.0522689
0.05104
0.0498095
0.0485784
0.0473483
0.0461203
0.0448959
0.0436774
0.0424676
0.0412701
0.040089
0.0389288
0.0377956
0.0366963
0.0356395
0.0346344
0.033692
0.032824
0.0320409
0.0313553
0.0307779
0.030316
0.0299762
0.0766768
0.0756628
0.0746435
0.0736175
0.0725846
0.0715449
0.0704984
0.0694452
0.0683856
0.0673194
0.0662466
0.0651669
0.0640805
0.0629872
0.0618868
0.0607797
0.0596657
0.0585449
0.0574178
0.056285
0.0551465
0.0540033
0.052857
0.0517085
0.0505594
0.0494113
0.0482659
0.047125
0.0459915
0.0448694
0.0437624
0.0426752
0.0416139
0.0405848
0.0395965
0.0386566
0.0377754
0.0369635
0.0362301
0.0355865
0.0350408
0.0346008
0.0342709
0.0774057
0.0764916
0.0755719
0.0746455
0.0737112
0.0727683
0.0718172
0.0708586
0.0698922
0.0689178
0.0679352
0.0669442
0.065945
0.0649371
0.063921
0.0628962
0.0618624
0.0608202
0.0597702
0.0587125
0.0576468
0.0565744
0.0554972
0.0544165
0.0533335
0.0522505
0.0511696
0.0500922
0.0490208
0.0479588
0.0469102
0.0458807
0.0448754
0.0439001
0.0429632
0.0420714
0.0412347
0.0404625
0.0397639
0.0391487
0.0386246
0.0381988
0.0378756
0.0780738
0.0772471
0.0764147
0.0755749
0.0747262
0.0738667
0.0729972
0.0721191
0.0712323
0.0703363
0.06943
0.068514
0.0675884
0.0666528
0.0657073
0.0647523
0.0637867
0.06281
0.0618244
0.06083
0.0598258
0.0588122
0.0577916
0.0567664
0.0557378
0.0547081
0.05368
0.0526554
0.0516357
0.0506227
0.0496208
0.0486376
0.0476773
0.0467448
0.0458477
0.0449932
0.0441907
0.0434477
0.0427749
0.0421798
0.0416708
0.041255
0.0409372
0.0786807
0.0779341
0.077178
0.0764137
0.0756411
0.0748537
0.0740536
0.0732433
0.0724246
0.0715959
0.070755
0.0699022
0.0690395
0.0681653
0.0672788
0.0663827
0.0654772
0.0645544
0.0636221
0.0626816
0.0617311
0.0607677
0.0597931
0.058813
0.0578291
0.0568426
0.0558573
0.0548765
0.0539024
0.0529312
0.0519656
0.0510188
0.0500972
0.0491997
0.0483339
0.0475093
0.0467344
0.0460138
0.0453608
0.0447801
0.0442816
0.0438742
0.043562
0.0792459
0.0785654
0.0778715
0.0771673
0.0764646
0.0757417
0.0750002
0.074245
0.073482
0.0727108
0.071928
0.0711264
0.0703161
0.0694952
0.0686596
0.0678054
0.0669598
0.0660833
0.0651945
0.064297
0.0633939
0.0624779
0.0615395
0.0605952
0.0596478
0.0586945
0.0577407
0.0567903
0.055855
0.0549283
0.0539912
0.0530684
0.0521794
0.051316
0.0504759
0.0496767
0.0489271
0.0482229
0.0475895
0.0470213
0.0465323
0.0461307
0.0458263
0.00722413
0.00841822
0.00940094
0.0101878
0.0109798
0.0118268
0.012732
0.0136884
0.0146895
0.0157278
0.0168009
0.0179063
0.0190414
0.0202019
0.0213858
0.0225912
0.0238164
0.0250605
0.0263234
0.0276023
0.0288986
0.0302108
0.0315385
0.0328814
0.0342384
0.0356096
0.0369938
0.0383912
0.0398011
0.0412228
0.0426558
0.0440997
0.0455538
0.0470176
0.0484905
0.049972
0.0514614
0.0529579
0.0544612
0.0559708
0.0574867
0.0590092
0.0605383
0.0181203
0.0180704
0.0181828
0.018446
0.0188467
0.0193696
0.0199985
0.0207158
0.0215075
0.0223624
0.0232697
0.024222
0.0252117
0.0262335
0.0272833
0.0283571
0.029453
0.0305679
0.0316995
0.0328478
0.0340107
0.0351873
0.0363767
0.0375776
0.0387902
0.0400134
0.0412465
0.0424897
0.0437418
0.0450027
0.0462721
0.0475494
0.0488343
0.0501265
0.0514254
0.0527308
0.0540426
0.0553599
0.0566827
0.0580109
0.0593449
0.0606863
0.0620413
0.0245577
0.024469
0.0245151
0.0246909
0.0249888
0.0253987
0.0259078
0.0265043
0.0271763
0.0279133
0.0287062
0.0295465
0.0304263
0.0313412
0.0322845
0.0332533
0.0342436
0.035253
0.0362791
0.0373199
0.0383738
0.0394394
0.0405154
0.0416008
0.0426954
0.0437977
0.0449078
0.0460246
0.0471477
0.0482772
0.0494122
0.0505526
0.0516982
0.0528486
0.0540038
0.0551634
0.0563271
0.0574948
0.0586664
0.0598418
0.0610211
0.0622044
0.0633922
0.0297554
0.0296523
0.0296681
0.0297999
0.0300413
0.0303852
0.0308214
0.0313402
0.0319323
0.032588
0.0332983
0.034056
0.034854
0.0356857
0.0365465
0.0374322
0.0383391
0.0392637
0.0402038
0.0411578
0.0421229
0.0430979
0.0440814
0.0450727
0.0460701
0.0470736
0.0480819
0.0490945
0.0501115
0.0511319
0.0521556
0.0531825
0.0542122
0.0552448
0.0562798
0.0573171
0.0583565
0.0593981
0.0604417
0.0614873
0.0625348
0.0635838
0.0646319
0.0340506
0.0339391
0.0339369
0.0340412
0.0342473
0.0345485
0.0349366
0.0354036
0.0359401
0.0365376
0.0371891
0.0378859
0.0386216
0.0393905
0.0401874
0.0410081
0.041848
0.0427054
0.0435772
0.0444607
0.0453541
0.0462555
0.0471637
0.0480774
0.0489954
0.049917
0.0508417
0.0517686
0.0526972
0.0536273
0.0545587
0.0554911
0.0564244
0.0573581
0.0582924
0.0592269
0.0601614
0.061096
0.0620309
0.0629662
0.0639019
0.0648379
0.0657744
0.0376564
0.0375395
0.0375254
0.0376114
0.0377927
0.0380641
0.0384183
0.0388475
0.0393438
0.0398998
0.0405069
0.0411578
0.0418461
0.0425656
0.0433118
0.04408
0.0448674
0.0456706
0.0464869
0.0473137
0.0481485
0.0489897
0.0498356
0.0506857
0.0515383
0.0523927
0.0532477
0.0541032
0.0549585
0.0558136
0.056668
0.0575217
0.058374
0.059225
0.0600745
0.0609221
0.0617678
0.0626114
0.0634536
0.0642949
0.0651352
0.0659739
0.0668123
0.040719
0.0405989
0.0405765
0.0406485
0.0408118
0.0410611
0.0413893
0.0417905
0.0422573
0.0427817
0.0433553
0.0439707
0.0446207
0.0453006
0.0460055
0.0467315
0.0474766
0.0482364
0.0490079
0.049788
0.0505742
0.0513651
0.0521603
0.0529583
0.0537566
0.0545538
0.055351
0.0561472
0.0569416
0.0577337
0.0585238
0.0593114
0.0600956
0.0608767
0.0616545
0.0624287
0.0631983
0.0639639
0.0647273
0.0654889
0.0662474
0.0670013
0.0677515
0.0433458
0.0432232
0.043195
0.0432545
0.0434037
0.0436348
0.0439431
0.0443234
0.0447684
0.0452691
0.0458174
0.0464021
0.0470207
0.0476681
0.0483388
0.04903
0.0497425
0.0504673
0.0512017
0.0519419
0.0526864
0.0534357
0.0541902
0.054945
0.0556961
0.056445
0.0571948
0.0579416
0.0586841
0.0594233
0.0601603
0.0608919
0.0616177
0.0623408
0.0630569
0.0637694
0.0644724
0.0651707
0.0658681
0.0665624
0.0672512
0.0679306
0.0686034
0.0456161
0.0454904
0.0454616
0.0455039
0.0456454
0.0458585
0.0461512
0.0465176
0.0469478
0.0474304
0.0479588
0.0485101
0.0491041
0.049722
0.0503627
0.0510262
0.051721
0.0524104
0.0531139
0.0538164
0.0545251
0.0552403
0.0559629
0.0566768
0.0573856
0.0580954
0.0588116
0.0595128
0.0602126
0.0609082
0.061603
0.0622833
0.0629602
0.06364
0.0642983
0.0649622
0.0656015
0.0662457
0.066892
0.0675308
0.0681614
0.0687746
0.0693764
0.0167739
0.0158093
0.014884
0.0139984
0.0131515
0.0123426
0.011571
0.0108362
0.0101376
0.00947461
0.00884693
0.00825449
0.00769798
0.00717908
0.00670099
0.00626942
0.00589277
0.00556479
0.00527342
0.00500977
0.0047681
0.00454439
0.0043355
0.00413879
0.00395185
0.0037724
0.00359832
0.00342759
0.00325829
0.00308863
0.00291689
0.00274149
0.0025609
0.00237373
0.00217868
0.0019745
0.00176017
0.00153488
0.00129814
0.00105029
0.000794139
0.000539715
0.000286087
0.0166954
0.0158002
0.0149414
0.0141165
0.0133245
0.0125647
0.0118368
0.01114
0.0104738
0.00983799
0.00923207
0.00865602
0.00811009
0.00759531
0.00711363
0.00666884
0.00626725
0.00591314
0.00559904
0.00531623
0.00505829
0.00482055
0.00459944
0.00439199
0.00419578
0.0040085
0.00382803
0.00365229
0.00347927
0.003307
0.00313354
0.00295704
0.00277563
0.00258758
0.00239115
0.00218477
0.00196707
0.00173686
0.00149356
0.0012375
0.000971059
0.000698327
0.000412289
0.0166214
0.015798
0.0150031
0.0142365
0.0134971
0.0127845
0.0120983
0.0114379
0.0108032
0.0101936
0.00960898
0.00904928
0.00851454
0.00800544
0.00752319
0.00707021
0.00665078
0.00627129
0.00593328
0.00562909
0.00535207
0.00509743
0.00486137
0.00464075
0.00443293
0.00423552
0.00404632
0.00386327
0.00368427
0.00350724
0.00333009
0.00315072
0.00296701
0.00277684
0.00257808
0.00236875
0.00214695
0.00191114
0.00166036
0.00139486
0.00111622
0.000824273
0.000526837
0.0165592
0.0157979
0.0150613
0.014348
0.0136569
0.0129876
0.0123398
0.0117132
0.0111076
0.0105226
0.00995819
0.00941427
0.00889093
0.00838863
0.00790821
0.0074513
0.00702083
0.0066219
0.00626079
0.00593503
0.00563809
0.00536517
0.00511252
0.00487704
0.00465597
0.00444683
0.00424737
0.00405541
0.00386881
0.00368545
0.00350313
0.00331954
0.00313235
0.00293911
0.00273735
0.00252464
0.00229864
0.00205735
0.00179949
0.00152498
0.00123445
0.000925133
0.000636933
0.0165014
0.0157983
0.0151148
0.0144498
0.0138026
0.0131727
0.0125601
0.0119643
0.0113854
0.0108232
0.0102777
0.00974886
0.00923677
0.0087418
0.00826467
0.0078065
0.00736947
0.0069573
0.00657612
0.0062299
0.00591349
0.00562203
0.00535211
0.00510076
0.00486534
0.00464338
0.00443254
0.00423058
0.00403531
0.00384454
0.00365598
0.00346721
0.00327569
0.00307873
0.00287356
0.00265729
0.0024272
0.00218085
0.0019166
0.00163402
0.0013328
0.00100973
0.000747688
0.0164479
0.0157987
0.0151635
0.0145424
0.0139351
0.0133411
0.0127604
0.0121929
0.0116386
0.0110974
0.0105693
0.0100546
0.00955324
0.00906574
0.00859263
0.00813487
0.00769403
0.00727297
0.00687656
0.00651153
0.00617671
0.00586738
0.00558024
0.00531268
0.00506232
0.00482685
0.0046039
0.0043912
0.00418655
0.00398766
0.00379216
0.00359754
0.00340112
0.00320001
0.00299112
0.00277126
0.00253727
0.00228632
0.00201643
0.00172677
0.00141628
0.00108392
0.000860306
0.0164001
0.0157989
0.0152076
0.0146265
0.0140554
0.0134942
0.0129426
0.0124008
0.0118689
0.011347
0.0108353
0.0103337
0.00984256
0.00936219
0.00889342
0.00843692
0.00799411
0.00756703
0.00715959
0.00677812
0.00642641
0.00610036
0.00579667
0.00551315
0.0052478
0.00499851
0.00476308
0.00453925
0.00432479
0.00411732
0.00391445
0.00371358
0.0035119
0.00330634
0.00309359
0.00287011
0.00263241
0.00237734
0.00210265
0.00180685
0.00148832
0.00115072
0.000974872
0.0163555
0.015799
0.0152475
0.0147026
0.0141643
0.0136329
0.0131085
0.0125906
0.0120793
0.0115752
0.0110788
0.0105902
0.0101088
0.00963484
0.0091697
0.0087148
0.008271
0.00783984
0.00742426
0.00702938
0.00666188
0.00632048
0.00600142
0.00570238
0.00542199
0.00515885
0.00491081
0.00467551
0.00445085
0.00423472
0.00402445
0.0038172
0.00361002
0.00339994
0.00318333
0.00295644
0.00271542
0.00245652
0.00217699
0.0018765
0.00155313
0.00121473
0.00108655
0.0163226
0.015801
0.0152819
0.0147701
0.0142611
0.0137572
0.0132593
0.0127656
0.0122739
0.0117859
0.011305
0.010833
0.0103666
0.00989889
0.00943357
0.00897804
0.00853445
0.00810121
0.00768089
0.00727734
0.00689351
0.00653672
0.00620587
0.00589483
0.00559825
0.00531981
0.00505948
0.00481327
0.00457589
0.00434722
0.00412781
0.00391421
0.00370139
0.00348516
0.00326371
0.00303226
0.0027871
0.00252723
0.00224722
0.00193589
0.00159631
0.00126019
0.00121524
0.000206581
0.000379002
0.00059117
0.000850041
0.00114962
0.00148826
0.0018788
0.00231039
0.00277901
0.00328437
0.00382669
0.00440598
0.0050229
0.00567778
0.00637131
0.00710421
0.00787744
0.00869165
0.00954807
0.0104476
0.011391
0.0123798
0.0134148
0.0144973
0.0156283
0.0168091
0.0180406
0.0193237
0.0206597
0.0220489
0.0234918
0.0249881
0.0265368
0.0281359
0.0297814
0.0314675
0.0331854
0.0349236
0.0366681
0.0384039
0.0401174
0.0417973
0.0434369
0.000360023
0.000596005
0.000889329
0.00122824
0.00160519
0.00201914
0.00247133
0.00296264
0.00349929
0.00407685
0.0046914
0.00534193
0.00602822
0.00675004
0.00750749
0.00830092
0.00913066
0.00999708
0.0109006
0.0118419
0.0128217
0.0138404
0.0148988
0.0159977
0.0171376
0.0183194
0.0195438
0.0208111
0.0221219
0.0234764
0.0248745
0.0263153
0.0277974
0.0293181
0.0308731
0.0324561
0.0340587
0.035671
0.0372816
0.0388795
0.0404546
0.0419984
0.0435029
0.000536684
0.000847111
0.00122039
0.0016387
0.0020948
0.00258585
0.00311061
0.00367018
0.00426722
0.00490361
0.00558051
0.00629509
0.0070445
0.00782755
0.0086436
0.00949215
0.0103733
0.0112869
0.0122331
0.0132119
0.0142238
0.0152689
0.0163475
0.0174601
0.0186068
0.0197882
0.0210044
0.0222556
0.0235419
0.0248628
0.0262177
0.027605
0.0290227
0.030467
0.0319333
0.0334151
0.0349052
0.0363955
0.0378775
0.0393434
0.0407864
0.0422002
0.04358
0.00072787
0.00111417
0.0015631
0.00205651
0.00258727
0.0031517
0.00374802
0.00437618
0.00503694
0.00573193
0.00646253
0.00722919
0.008031
0.0088661
0.00973256
0.0106292
0.0115551
0.0125099
0.0134931
0.0145045
0.0155441
0.0166118
0.0177075
0.0188313
0.0199833
0.0211634
0.0223713
0.0236068
0.0248693
0.0261578
0.027471
0.0288065
0.0301615
0.0315319
0.032913
0.0342991
0.0356843
0.0370625
0.0384276
0.0397741
0.0410972
0.0423926
0.0436562
0.000926203
0.0013853
0.00190496
0.00246832
0.00306841
0.00370128
0.00436464
0.00505785
0.00578079
0.00653405
0.00731843
0.00813461
0.00898261
0.00986179
0.0107707
0.0117081
0.0126725
0.0136629
0.0146783
0.0157182
0.0167821
0.0178696
0.0189802
0.0201136
0.0212694
0.022447
0.0236458
0.0248651
0.0261033
0.027359
0.0286302
0.0299142
0.0312077
0.0325069
0.0338075
0.0351048
0.0363941
0.0376709
0.0389311
0.0401706
0.0413864
0.0425752
0.0437347
0.00112552
0.00165286
0.00223834
0.00286651
0.00353073
0.00422681
0.00495231
0.00570601
0.00648737
0.0072963
0.00813315
0.00899806
0.0098911
0.0108119
0.0117597
0.0127333
0.0137313
0.0147528
0.0157963
0.0168611
0.017946
0.0190504
0.0201732
0.0213137
0.0224709
0.023644
0.0248316
0.0260323
0.0272442
0.0284656
0.0296939
0.0309267
0.0321608
0.0333927
0.0346187
0.035835
0.0370378
0.038224
0.0393905
0.0405348
0.0416546
0.0427482
0.0438136
0.00132256
0.00191257
0.00255858
0.00324665
0.00397006
0.00472463
0.00550756
0.00631738
0.00715325
0.00801465
0.00890133
0.00981312
0.0107499
0.0117111
0.0126961
0.0137035
0.0147325
0.015782
0.0168505
0.0179371
0.0190398
0.0201577
0.0212893
0.0224335
0.0235889
0.0247542
0.0259274
0.0271066
0.0282902
0.0294757
0.0306606
0.0318434
0.0330217
0.034192
0.0353506
0.0364941
0.03762
0.0387255
0.0398089
0.0408686
0.0419032
0.0429118
0.0438936
0.00150895
0.00215934
0.00286391
0.00360889
0.00438818
0.00519699
0.00603277
0.0068946
0.00778175
0.00869308
0.00962644
0.0105816
0.0115606
0.0125606
0.0135803
0.0146188
0.0156759
0.0167508
0.0178414
0.0189464
0.0200625
0.0211897
0.0223264
0.0234705
0.0246206
0.0257752
0.0269313
0.0280874
0.0292416
0.0303893
0.0315291
0.0326647
0.0337929
0.0349089
0.0360082
0.0370877
0.0381455
0.0391796
0.0401891
0.0411734
0.0421324
0.0430657
0.0439728
0.00173191
0.00244463
0.00319762
0.00398836
0.00481747
0.0056661
0.00654419
0.0074519
0.00838899
0.00935062
0.0103219
0.0113125
0.0123372
0.0133697
0.0144191
0.0154818
0.0165636
0.0176621
0.01877
0.0198882
0.0210081
0.0221419
0.0232812
0.0244206
0.0255635
0.0267062
0.0278435
0.0289785
0.0301051
0.0312053
0.0322934
0.0333907
0.0344782
0.0355489
0.036598
0.0376219
0.0386204
0.0395905
0.0405333
0.04145
0.0423416
0.0432076
0.0440476
0.000612497
0.00223081
0.00390246
0.00558695
0.00727538
0.00896446
0.0106506
0.0123329
0.0140108
0.0156859
0.0173593
0.019031
0.0207024
0.0223751
0.0240501
0.0257279
0.0274092
0.0290949
0.0307848
0.0324795
0.0341796
0.0358849
0.0375952
0.0393102
0.0410305
0.0427554
0.0444844
0.0462172
0.0479534
0.0496921
0.0514329
0.0531754
0.0549184
0.0566614
0.0584033
0.0601435
0.0618809
0.0636146
0.0653441
0.0670681
0.068786
0.0704974
0.0722058
0.000244363
0.00101774
0.00224415
0.00362689
0.00510887
0.00665418
0.00824303
0.00986331
0.0115063
0.0131671
0.0148425
0.0165292
0.0182259
0.019932
0.021646
0.0233678
0.025097
0.0268336
0.028577
0.0303267
0.0320832
0.033846
0.0356141
0.0373877
0.0391665
0.0409499
0.0427372
0.0445284
0.0463223
0.0481185
0.0499163
0.0517148
0.0535132
0.055311
0.0571069
0.0589002
0.0606898
0.0624751
0.0642547
0.066028
0.067794
0.0695516
0.0713013
0.000256582
0.000867289
0.00185381
0.00299964
0.00426174
0.00561239
0.0070342
0.00851342
0.0100401
0.0116074
0.0132093
0.0148401
0.0164964
0.0181749
0.0198732
0.0215889
0.0233204
0.025066
0.0268241
0.0285938
0.0303745
0.0321647
0.0339635
0.0357702
0.0375837
0.0394037
0.0412293
0.0430593
0.0448931
0.0467299
0.0485685
0.0504081
0.0522479
0.0540869
0.0559242
0.0577585
0.059589
0.0614146
0.0632342
0.065047
0.0668517
0.0686474
0.0704356
0.000295048
0.000785327
0.00163974
0.00263962
0.00375398
0.0049627
0.00625186
0.00761011
0.00902863
0.0105004
0.0120195
0.0135801
0.0151774
0.016808
0.0184684
0.0201554
0.0218659
0.023598
0.0253495
0.0271188
0.0289036
0.0307028
0.0325148
0.0343381
0.0361718
0.0380142
0.0398646
0.0417215
0.0435838
0.0454503
0.0473202
0.0491922
0.0510651
0.0529379
0.0548093
0.0566784
0.0585435
0.060404
0.0622585
0.064106
0.0659453
0.0677757
0.0696001
0.000296478
0.000697771
0.00146056
0.00236118
0.00337345
0.00448024
0.00566999
0.00693339
0.00826248
0.00965144
0.0110944
0.0125864
0.014123
0.0157003
0.0173149
0.0189632
0.0206422
0.0223495
0.0240823
0.0258383
0.0276153
0.0294115
0.0312248
0.0330536
0.0348963
0.036751
0.0386165
0.040491
0.0423734
0.0442619
0.0461555
0.0480527
0.0499523
0.0518528
0.0537529
0.0556511
0.0575465
0.0594374
0.0613226
0.0632011
0.0650713
0.0669318
0.068785
0.000294734
0.000627889
0.00132248
0.0021489
0.00308299
0.00411007
0.00522007
0.00640493
0.00765833
0.00897473
0.0103492
0.0117774
0.0132555
0.0147794
0.0163462
0.017952
0.0195948
0.021271
0.0229782
0.0247134
0.0264752
0.0282603
0.0300666
0.0318929
0.0337365
0.035596
0.0374691
0.0393542
0.0412497
0.0431541
0.0450652
0.046982
0.0489027
0.0508257
0.0527494
0.0546727
0.0565939
0.0585111
0.0604235
0.0623293
0.0642267
0.0661145
0.0679936
0.000292916
0.000575863
0.00121681
0.00198387
0.00285489
0.00381669
0.00486019
0.00597861
0.00716669
0.00841949
0.00973256
0.0111025
0.0125254
0.0139984
0.0155181
0.0170814
0.0186857
0.0203281
0.0220057
0.0237164
0.0254574
0.0272261
0.0290203
0.0308381
0.0326772
0.0345353
0.0364103
0.0383001
0.0402036
0.042118
0.0440418
0.0459731
0.0479103
0.0498514
0.0517947
0.0537391
0.0556821
0.0576224
0.0595584
0.0614882
0.0634101
0.0653222
0.0672247
0.00029081
0.000534969
0.00113197
0.0018497
0.00266831
0.00357551
0.00456289
0.00562463
0.00675614
0.0079528
0.00921124
0.0105284
0.0119008
0.0133257
0.0148004
0.0163219
0.0178878
0.0194952
0.0211419
0.0228252
0.0245425
0.0262917
0.0280699
0.0298751
0.0317049
0.0335574
0.0354297
0.0373202
0.0392266
0.0411468
0.0430786
0.0450204
0.0469701
0.0489256
0.0508851
0.0528467
0.0548084
0.0567686
0.0587251
0.0606763
0.06262
0.0645542
0.0664785
0.000288969
0.000501637
0.00106161
0.0017376
0.00251202
0.00337254
0.0043118
0.0053244
0.00640611
0.00755321
0.00876293
0.0100321
0.0113582
0.0127383
0.0141705
0.0156521
0.0171804
0.0187532
0.0203683
0.022023
0.0237152
0.0254424
0.027202
0.0289915
0.0308092
0.0326525
0.0345188
0.036406
0.038312
0.0402342
0.0421706
0.0441193
0.046078
0.0480446
0.0500168
0.0519926
0.0539701
0.0559472
0.0579219
0.059892
0.0618553
0.0638095
0.0657543
0.000287294
0.00047387
0.00100223
0.00164254
0.00237895
0.0031991
0.00409631
0.00506568
0.00610332
0.00720645
0.00837207
0.00959782
0.0108813
0.0122201
0.0136124
0.0150559
0.0165481
0.0180871
0.0196706
0.0212967
0.0229629
0.0246668
0.026406
0.0281782
0.0299812
0.0318126
0.0336701
0.0355514
0.0374539
0.0393751
0.0413132
0.0432658
0.0452305
0.047205
0.049187
0.0511744
0.053165
0.0551567
0.0571472
0.0591338
0.0611149
0.0630877
0.0650519
0.000285774
0.000450534
0.0009515
0.00156076
0.00226387
0.00304856
0.00390881
0.00483995
0.00583856
0.00690206
0.00802788
0.00921404
0.0104583
0.0117587
0.0131135
0.0145209
0.0159787
0.0174851
0.0190379
0.0206355
0.0222753
0.0239551
0.0256729
0.0274262
0.0292131
0.031031
0.0328776
0.0347504
0.036647
0.0385651
0.0405022
0.042456
0.0444241
0.0464042
0.0483935
0.0503901
0.0523915
0.0543953
0.0563992
0.0584008
0.0603979
0.0623884
0.0643728
0.000284417
0.000430383
0.000907314
0.00148917
0.00216303
0.00291648
0.00374381
0.00464069
0.00560419
0.0066318
0.00772153
0.00887134
0.0100795
0.0113444
0.0126644
0.0140376
0.0154628
0.0169376
0.0184608
0.0200302
0.0216437
0.0232994
0.0249952
0.026729
0.0284987
0.0303015
0.0321355
0.0339981
0.0358871
0.0377997
0.0397339
0.0416867
0.0436561
0.0456393
0.0476339
0.0496375
0.0516474
0.0536615
0.055677
0.0576915
0.0597028
0.0617086
0.0637096
0.000283142
0.000412993
0.000868605
0.00142615
0.00207378
0.00279934
0.00359707
0.00446308
0.00539484
0.00638993
0.00744648
0.0085629
0.00973789
0.0109698
0.012257
0.0135984
0.0149923
0.0164374
0.0179317
0.0194736
0.0210613
0.022693
0.0243667
0.0260804
0.0278319
0.0296189
0.0314391
0.0332902
0.0351698
0.0370754
0.0390046
0.0409548
0.0429234
0.044908
0.0469059
0.0489145
0.0509312
0.0529536
0.0549789
0.0570045
0.0590282
0.0610472
0.0630601
0.000282064
0.000397804
0.000834472
0.00137036
0.00199404
0.00269445
0.0034655
0.00430354
0.00520626
0.00617154
0.00719783
0.00828367
0.00942774
0.0106288
0.0118857
0.0131968
0.0145613
0.0159777
0.0174442
0.0189596
0.0205223
0.0221303
0.023782
0.0254753
0.0272082
0.0289785
0.0307841
0.0326226
0.0344917
0.0363889
0.0383117
0.0402575
0.0422239
0.0442082
0.0462076
0.0482195
0.0502413
0.0522704
0.0543038
0.0563391
0.0583735
0.0604043
0.06243
0.000281
0.000384287
0.000803969
0.00132038
0.00192232
0.00259985
0.00334661
0.00415923
0.00503547
0.00597348
0.0069718
0.00802923
0.00914467
0.010317
0.0115452
0.0128279
0.0141644
0.0155535
0.0169935
0.0184833
0.0200214
0.0216064
0.0232361
0.024909
0.0266231
0.0283764
0.0301667
0.0319919
0.0338494
0.0357372
0.0376524
0.0395926
0.0415554
0.0435378
0.0455372
0.047551
0.0495764
0.0516105
0.0536508
0.0556941
0.057738
0.0597792
0.0618163
0.000279964
0.000372347
0.000776529
0.00127522
0.00185733
0.00251389
0.00323838
0.00402767
0.00487955
0.00579246
0.00676491
0.00779596
0.00888471
0.0100302
0.0112314
0.0124874
0.0137975
0.0151605
0.0165751
0.0180401
0.0195546
0.0211167
0.022725
0.0243778
0.026073
0.0278089
0.0295838
0.0313949
0.0332403
0.0351176
0.0370243
0.0389579
0.0409156
0.0428949
0.0448931
0.0469074
0.0489349
0.050973
0.0530187
0.0550691
0.0571216
0.0591735
0.0612246
0.000279168
0.000362719
0.000751721
0.0012341
0.00179801
0.0024354
0.00313947
0.00390716
0.00473657
0.00562619
0.00657474
0.00758125
0.00864504
0.00976531
0.0109412
0.0121721
0.0134569
0.0147951
0.0161853
0.0176268
0.0191181
0.0206582
0.0222453
0.0238781
0.0255546
0.0272734
0.0290321
0.030829
0.0326617
0.0345279
0.0364252
0.0383511
0.0403029
0.0422781
0.0442739
0.0462876
0.0483163
0.0503569
0.052407
0.0544634
0.0565237
0.0585856
0.0606489
0.000278964
0.000357564
0.000729253
0.00119658
0.00174363
0.00236332
0.00304858
0.00379637
0.00460485
0.00547283
0.00639899
0.00738256
0.008423
0.00951949
0.0106716
0.0118785
0.0131397
0.0144542
0.0158212
0.0172398
0.018709
0.0202275
0.0217941
0.0234071
0.0250651
0.0267665
0.0285092
0.0302915
0.032111
0.0339657
0.0358529
0.0377704
0.0397156
0.0416857
0.0436783
0.0456903
0.0477188
0.0497613
0.0518145
0.0538758
0.0559425
0.0580121
0.0600828
0.000279508
0.000356782
0.000708873
0.00116217
0.00169367
0.00229681
0.00296468
0.003694
0.0044831
0.00533076
0.00623595
0.00719813
0.00821663
0.00929088
0.0104204
0.0116047
0.0128433
0.0141352
0.0154799
0.0168766
0.0183243
0.019822
0.0213685
0.0229622
0.0246021
0.0262862
0.0280128
0.0297803
0.0315865
0.033429
0.0353057
0.0372142
0.0391519
0.0411163
0.0431047
0.045114
0.0471416
0.0491846
0.0512401
0.0533049
0.0553769
0.0574529
0.0595318
0.000280529
0.000358121
0.000690371
0.00113059
0.00164779
0.00223534
0.00288686
0.00359904
0.00437001
0.00519867
0.00608435
0.00702632
0.00802427
0.00907745
0.0101856
0.0113484
0.0125654
0.0138358
0.0151592
0.0165348
0.0179619
0.0194395
0.0209663
0.0225413
0.0241631
0.0258301
0.0275409
0.0292935
0.0310859
0.0329162
0.0347819
0.0366809
0.0386107
0.0405686
0.0425519
0.0445577
0.0465835
0.0486262
0.0506826
0.05275
0.0548252
0.0569051
0.0589858
0.000281691
0.000359885
0.000673489
0.00110158
0.00160541
0.00217823
0.00281448
0.00351053
0.00426458
0.00507554
0.00594276
0.00686579
0.00784416
0.00887756
0.00996555
0.0111079
0.0123043
0.0135543
0.0148572
0.0162126
0.0176196
0.0190777
0.0205854
0.0221419
0.023746
0.0253964
0.0270913
0.0288289
0.0306078
0.0324254
0.0342799
0.0361691
0.0380904
0.0400411
0.0420188
0.0440206
0.0460436
0.0480849
0.0501414
0.0522098
0.0542871
0.0563689
0.0584512
0.000282804
0.000361459
0.00065796
0.00107455
0.00156585
0.00212494
0.00274689
0.00342781
0.00416588
0.00496011
0.00581005
0.00671517
0.00767524
0.00868973
0.00975859
0.0108816
0.0120584
0.0132886
0.0145721
0.0159078
0.0172958
0.0187348
0.0202241
0.0217627
0.0233495
0.0249833
0.0266624
0.0283853
0.0301503
0.0319553
0.0337985
0.0356774
0.0375898
0.0395329
0.0415044
0.0435012
0.0455209
0.0475601
0.0496158
0.0516847
0.0537631
0.0558462
0.0579278
0.000283732
0.000362553
0.000643663
0.0010494
0.00152894
0.00207508
0.00268357
0.00335027
0.00407333
0.00485198
0.00568544
0.00657363
0.00751621
0.00851283
0.0095635
0.010668
0.0118261
0.0130377
0.0143021
0.0156192
0.0169885
0.0184093
0.0198807
0.0214019
0.0229717
0.0245892
0.0262528
0.0279611
0.0297123
0.0315046
0.033336
0.0352044
0.0371075
0.0390428
0.0410074
0.0429989
0.0450147
0.0470513
0.0491059
0.0511751
0.053256
0.055346
0.0574478
0.000284525
0.000363433
0.000630422
0.00102599
0.00149437
0.0020283
0.00262414
0.00327737
0.00398633
0.00475014
0.00556818
0.00644031
0.00736631
0.00834588
0.00937914
0.010466
0.0116062
0.0127998
0.0140462
0.0153452
0.0166967
0.0180998
0.0195537
0.021058
0.0226113
0.0242128
0.025861
0.0275547
0.0292922
0.0310717
0.0328914
0.0347492
0.0366428
0.0385697
0.0405273
0.0425132
0.0445243
0.046558
0.048611
0.0506805
0.0527636
0.0548584
0.0569655
0.000285291
0.000363956
0.000618091
0.00100407
0.00146206
0.00198453
0.00256826
0.00320877
0.00390428
0.00465407
0.00545742
0.00631428
0.00722457
0.00818796
0.00920472
0.0102747
0.0113978
0.0125741
0.0138032
0.0150849
0.0164191
0.0178049
0.0192419
0.0207296
0.0222668
0.0238525
0.0254858
0.0271651
0.028889
0.0306559
0.0324639
0.0343107
0.0361945
0.0381128
0.0400632
0.0420428
0.0440491
0.0460794
0.0481305
0.0501998
0.0522843
0.0543818
0.0564923
0.000285897
0.000364192
0.000606665
0.000983484
0.00143158
0.0019433
0.00251545
0.0031439
0.00382684
0.00456321
0.00535257
0.00619503
0.00709025
0.00803826
0.00903929
0.0100931
0.0111998
0.0123596
0.013572
0.014837
0.0161543
0.0175235
0.0189442
0.0204157
0.0219371
0.0235076
0.0251261
0.0267912
0.0285017
0.0302559
0.032052
0.033888
0.0357619
0.0376714
0.0396141
0.0415872
0.0435885
0.0456147
0.0476635
0.0497317
0.0518164
0.0539151
0.0560264
0.000286396
0.000364251
0.000596444
0.000964236
0.00140295
0.00190455
0.00246566
0.00308271
0.00375351
0.00447711
0.00525329
0.00608193
0.00696271
0.00789612
0.00888202
0.00992034
0.0110115
0.0121552
0.0133516
0.0146004
0.0159016
0.0172547
0.0186595
0.0201154
0.0216214
0.0231768
0.0247809
0.0264321
0.0281292
0.0298707
0.0316549
0.03348
0.035344
0.0372445
0.0391793
0.0411458
0.0431415
0.0451635
0.0472092
0.0492755
0.0513592
0.0534575
0.0555673
0.000286858
0.000364443
0.000588539
0.000946222
0.00137607
0.00186795
0.00241843
0.00302452
0.00368387
0.00439544
0.00515896
0.00597433
0.00684161
0.00776096
0.00873226
0.00975589
0.0108318
0.0119602
0.0131412
0.0143744
0.0156599
0.0169976
0.018387
0.0198274
0.0213184
0.0228594
0.024449
0.0260865
0.0277704
0.0294995
0.0312719
0.0330861
0.03494
0.0368315
0.0387581
0.0407177
0.0427075
0.0447248
0.0467669
0.0488305
0.0509128
0.0530098
0.0551185
0.000287353
0.000365184
0.000584187
0.00092957
0.00135064
0.00183316
0.00237357
0.00296926
0.00361765
0.00431777
0.00506922
0.00587203
0.0067263
0.007632
0.00858955
0.00959889
0.0106603
0.0117741
0.01294
0.0141583
0.0154288
0.0167513
0.0181257
0.0195513
0.0210277
0.0225541
0.0241298
0.0257538
0.0274248
0.0291414
0.0309022
0.0327054
0.0345491
0.0364313
0.0383499
0.0403022
0.0422859
0.0442981
0.046336
0.0483968
0.050477
0.052573
0.0546815
0.000287951
0.000366649
0.000583015
0.000914287
0.00132659
0.00180014
0.00233087
0.00291666
0.00355462
0.00424374
0.00498369
0.00577444
0.00661612
0.00750895
0.00845316
0.00944887
0.0104964
0.0115959
0.0127475
0.0139512
0.0152071
0.0165151
0.0178748
0.019286
0.0207482
0.0222605
0.0238226
0.0254332
0.0270914
0.0287959
0.030545
0.0323371
0.0341708
0.0360437
0.0379539
0.0398988
0.041876
0.0438829
0.0459165
0.0479741
0.0500521
0.0521478
0.0542591
0.000288655
0.000368676
0.000583535
0.000900084
0.00130378
0.00176873
0.00229029
0.00286656
0.00349449
0.00417314
0.00490203
0.00568125
0.006511