/*--------------------------------*- C++ -*----------------------------------*\
| =========                 |                                                 |
| \\      /  F ield         | OpenFOAM: The Open Source CFD Toolbox           |
|  \\    /   O peration     | Version:  2.3.0                                 |
|   \\  /    A nd           | Web:      www.OpenFOAM.org                      |
|    \\/     M anipulation  |                                                 |
\*---------------------------------------------------------------------------*/
FoamFile
{
    version     2.0;
    format      ascii;
    class       volVectorField;
    location    "2000";
    object      U;
}
// * * * * * * * * * * * * * * * * * * * * * * * * * * * * * * * * * * * * * //

dimensions      [0 1 -1 0 0 0 0];

internalField   nonuniform List<vector> 
38227
(
(16.9132 0.221793 -7.24478e-22)
(16.817 0.167865 1.47382e-21)
(16.7172 0.119467 1.36622e-20)
(16.6162 0.0680647 -4.03646e-21)
(16.5136 0.0139352 2.05245e-21)
(16.4092 -0.0428171 4.89788e-22)
(16.303 -0.10227 -2.5387e-21)
(16.1947 -0.164521 1.18442e-20)
(16.0844 -0.229664 0)
(15.9719 -0.297851 0)
(15.857 -0.369242 3.89821e-20)
(15.7397 -0.444017 0)
(15.6198 -0.522395 0)
(15.4972 -0.604599 -5.0804e-20)
(15.3715 -0.690908 -4.10708e-21)
(15.2427 -0.781653 1.73937e-19)
(15.1104 -0.877217 -1.70989e-19)
(14.9744 -0.97801 0)
(14.8343 -1.08465 0)
(14.6899 -1.1977 -2.34895e-20)
(14.5406 -1.31795 0)
(14.3859 -1.44625 -1.14026e-19)
(14.2253 -1.58365 1.18232e-19)
(14.0582 -1.73136 -1.32699e-19)
(13.8839 -1.89087 7.49981e-20)
(13.7018 -2.064 1.55071e-19)
(13.511 -2.25254 -1.08716e-19)
(13.3107 -2.45909 1.45559e-19)
(13.1003 -2.68623 -1.50712e-19)
(12.8789 -2.93722 2.89598e-20)
(12.6462 -3.21607 8.77355e-20)
(12.4018 -3.52748 -1.03656e-19)
(12.1457 -3.87664 0)
(11.8787 -4.2702 5.58058e-20)
(11.6025 -4.71619 -6.42739e-20)
(11.3203 -5.22397 -5.44469e-20)
(11.0375 -5.80393 0)
(10.763 -6.46942 0)
(10.5121 -7.23541 -3.51493e-20)
(10.3123 -8.11933 1.23866e-20)
(10.2206 -9.15232 -1.13195e-19)
(10.356 -10.3585 1.84164e-19)
(11.048 -11.8586 1.79648e-19)
(16.9687 0.116957 -7.02899e-22)
(16.887 0.0648924 -9.00519e-22)
(16.8024 0.0166642 -2.36533e-21)
(16.7171 -0.0351387 -1.17529e-20)
(16.6307 -0.0897744 0)
(16.5431 -0.147004 -6.00717e-21)
(16.4543 -0.206839 -5.01035e-21)
(16.3643 -0.269446 -6.86088e-21)
(16.2731 -0.334931 0)
(16.1806 -0.403447 0)
(16.0869 -0.475211 1.66677e-20)
(15.9918 -0.550405 -1.82008e-20)
(15.8953 -0.629247 -4.08918e-20)
(15.7973 -0.711975 4.08074e-20)
(15.6979 -0.798831 0)
(15.5968 -0.890128 0)
(15.4941 -0.9862 1.4437e-20)
(15.3898 -1.08742 -1.28575e-20)
(15.2838 -1.19419 -7.99896e-20)
(15.1761 -1.30703 -1.9227e-20)
(15.0667 -1.42644 8.86943e-20)
(14.9558 -1.55313 3.84595e-20)
(14.8434 -1.68787 -2.27818e-20)
(14.7296 -1.83151 8.15342e-20)
(14.6149 -1.98513 -1.0017e-19)
(14.4994 -2.14997 -5.21448e-20)
(14.3838 -2.32736 1.23741e-19)
(14.2687 -2.51896 5.50049e-21)
(14.1551 -2.7268 -1.66689e-19)
(14.0444 -2.95303 1.52795e-20)
(13.9383 -3.20026 -1.61445e-20)
(13.8395 -3.47122 4.91306e-21)
(13.751 -3.76915 -4.49498e-20)
(13.677 -4.09737 1.8308e-20)
(13.6232 -4.45954 3.701e-20)
(13.5968 -4.85922 1.22777e-20)
(13.6075 -5.29972 -3.22656e-20)
(13.667 -5.78351 -4.63299e-20)
(13.7913 -6.31142 1.00169e-19)
(14.0008 -6.88088 -1.0201e-20)
(14.3227 -7.48367 -9.45921e-21)
(14.7919 -8.09734 0)
(15.4363 -8.6729 4.91773e-21)
(17.0218 0.0401827 2.84161e-21)
(16.9526 -0.0189778 9.01341e-22)
(16.8794 -0.0697392 4.8446e-22)
(16.8054 -0.122645 0)
(16.7305 -0.177785 2.30575e-21)
(16.6546 -0.235259 1.10643e-20)
(16.5778 -0.295172 3.69496e-21)
(16.5003 -0.357711 0)
(16.4219 -0.423078 9.83855e-21)
(16.3428 -0.491416 -2.99765e-20)
(16.2629 -0.562953 -1.45446e-21)
(16.1821 -0.63794 1.35506e-20)
(16.1006 -0.716578 2.87453e-21)
(16.0182 -0.799131 -3.06135e-20)
(15.9349 -0.885892 1.55278e-20)
(15.8508 -0.977183 0)
(15.7659 -1.07337 0)
(15.6802 -1.17485 5.82766e-20)
(15.5937 -1.28206 5.9112e-21)
(15.5065 -1.39551 -3.46643e-20)
(15.4187 -1.51569 -1.5976e-20)
(15.3305 -1.64324 -3.04101e-20)
(15.2422 -1.7789 6.3816e-20)
(15.1539 -1.92341 4.24164e-20)
(15.0663 -2.07767 -8.62067e-20)
(14.9797 -2.24274 -3.68296e-20)
(14.8948 -2.41964 3.88693e-20)
(14.8126 -2.60958 -8.77388e-22)
(14.7342 -2.81386 7.26114e-20)
(14.6612 -3.03376 -1.4905e-20)
(14.5957 -3.27084 1.56987e-20)
(14.54 -3.52636 4.10017e-20)
(14.4974 -3.80177 -3.7678e-20)
(14.4715 -4.09811 -7.90256e-21)
(14.4674 -4.41602 3.14576e-21)
(14.4907 -4.75535 -1.03484e-20)
(14.5484 -5.11489 1.17166e-20)
(14.6483 -5.4916 -2.00756e-20)
(14.799 -5.88023 0)
(15.0103 -6.27183 0)
(15.2911 -6.65271 9.38203e-21)
(15.6484 -7.00291 0)
(16.0834 -7.29434 -8.09014e-21)
(17.08 -0.0417298 -3.46406e-21)
(17.0182 -0.0941559 -2.73985e-21)
(16.9541 -0.14298 -4.83811e-22)
(16.8897 -0.194429 3.05763e-22)
(16.8247 -0.248122 -1.90444e-21)
(16.7592 -0.304045 -3.68619e-21)
(16.6931 -0.362256 -5.05033e-21)
(16.6266 -0.422867 0)
(16.5597 -0.486093 -7.10653e-21)
(16.4924 -0.552123 1.60164e-20)
(16.4247 -0.621125 0)
(16.3567 -0.693334 1.15442e-20)
(16.2883 -0.768995 0)
(16.2196 -0.848292 -1.54722e-20)
(16.1507 -0.931512 1.0807e-20)
(16.0816 -1.01895 0)
(16.0124 -1.11093 -7.15333e-21)
(15.9431 -1.2078 0)
(15.8741 -1.30996 1.06651e-20)
(15.8052 -1.41785 0)
(15.7368 -1.53189 4.56496e-20)
(15.6692 -1.65255 5.08352e-21)
(15.6026 -1.78041 -4.99974e-20)
(15.5377 -1.9161 5.58121e-20)
(15.475 -2.0603 -4.12432e-20)
(15.415 -2.21379 -6.23478e-20)
(15.3586 -2.37735 4.70175e-20)
(15.3068 -2.55176 0)
(15.2608 -2.73793 0)
(15.2223 -2.93663 0)
(15.1931 -3.14867 0)
(15.1754 -3.37474 -1.67944e-20)
(15.172 -3.61529 -9.8189e-21)
(15.1861 -3.87044 1.00926e-20)
(15.2215 -4.13972 0)
(15.2823 -4.42203 1.78916e-21)
(15.3733 -4.71509 -6.33648e-22)
(15.4994 -5.01534 1.14816e-20)
(15.6653 -5.31777 -8.68255e-21)
(15.8752 -5.61492 4.49738e-21)
(16.1316 -5.8972 2.59939e-22)
(16.4341 -6.15297 -6.1577e-21)
(16.7777 -6.36843 -5.94297e-20)
(17.1321 -0.106186 3.72841e-21)
(17.0784 -0.156806 3.03942e-21)
(17.0226 -0.204329 9.14987e-23)
(16.9664 -0.253979 -6.91743e-22)
(16.9099 -0.305678 -1.65432e-23)
(16.8528 -0.359535 -9.10588e-23)
(16.7953 -0.415557 1.71906e-22)
(16.7375 -0.473801 -1.78273e-21)
(16.6795 -0.534481 -1.2264e-21)
(16.6213 -0.597798 9.64949e-21)
(16.563 -0.663946 -6.768e-22)
(16.5045 -0.733095 5.9214e-21)
(16.4458 -0.805499 0)
(16.3872 -0.881388 -1.08056e-20)
(16.3284 -0.960953 -4.4131e-21)
(16.2698 -1.04449 0)
(16.2114 -1.1323 -5.79067e-21)
(16.1534 -1.2247 2.71428e-20)
(16.0959 -1.32205 -7.78962e-21)
(16.0391 -1.4248 0)
(15.983 -1.53332 1.75483e-20)
(15.928 -1.64796 1.13867e-20)
(15.8745 -1.76914 -1.05306e-20)
(15.8231 -1.89736 -2.12706e-20)
(15.7744 -2.03319 -1.04874e-20)
(15.7291 -2.17726 -1.07514e-20)
(15.688 -2.33017 5.96443e-20)
(15.6518 -2.49255 -2.57824e-20)
(15.6219 -2.66492 2.68217e-20)
(15.5996 -2.84771 -2.75676e-20)
(15.5868 -3.04134 1.64461e-21)
(15.5854 -3.2461 2.67118e-21)
(15.5978 -3.46201 -1.15464e-20)
(15.6265 -3.68871 0)
(15.6747 -3.92516 0)
(15.7454 -4.17 8.24059e-21)
(15.8422 -4.42061 0)
(15.9684 -4.67339 -3.5579e-21)
(16.127 -4.92383 -3.26238e-21)
(16.3203 -5.16581 -7.28652e-21)
(16.5488 -5.39235 2.61894e-20)
(16.8107 -5.59513 -5.21387e-21)
(17.1013 -5.76586 4.02382e-20)
(17.1819 -0.167677 -8.91271e-22)
(17.1344 -0.212064 -4.93428e-21)
(17.0855 -0.256599 -3.16142e-21)
(17.0363 -0.303618 -3.44879e-21)
(16.9868 -0.352758 2.54829e-21)
(16.937 -0.404133 -6.49441e-23)
(16.8866 -0.45767 0)
(16.836 -0.513224 -7.80217e-22)
(16.7853 -0.571077 3.75945e-21)
(16.7346 -0.631374 -3.73146e-21)
(16.6838 -0.694345 -3.2489e-21)
(16.633 -0.760143 -5.92078e-21)
(16.5823 -0.828974 3.8768e-21)
(16.5317 -0.90113 8.99023e-22)
(16.4812 -0.976759 -2.63404e-21)
(16.4309 -1.05606 -5.3146e-21)
(16.3812 -1.13938 1.87002e-20)
(16.3319 -1.227 -2.49964e-20)
(16.2836 -1.31917 9.21981e-21)
(16.2363 -1.41637 -5.29479e-21)
(16.1901 -1.5191 0)
(16.1451 -1.62755 0)
(16.1017 -1.74197 -8.69544e-21)
(16.0607 -1.86272 -7.09403e-21)
(16.0227 -1.99028 -7.6737e-21)
(15.9885 -2.12513 -3.97193e-22)
(15.9589 -2.26785 1.06548e-20)
(15.9346 -2.41889 0)
(15.9166 -2.57872 8.8537e-21)
(15.906 -2.74746 -1.31823e-21)
(15.9047 -2.92524 3.26391e-20)
(15.9146 -3.11199 -1.03676e-20)
(15.9377 -3.30788 1.25795e-21)
(15.9758 -3.51224 2.34627e-21)
(16.0316 -3.72358 5.96457e-21)
(16.1077 -3.94085 -3.79346e-21)
(16.2063 -4.16137 0)
(16.33 -4.38161 3.53383e-21)
(16.4813 -4.59748 -2.85829e-21)
(16.6614 -4.8044 6.69223e-21)
(16.8699 -4.99713 3.38728e-20)
(17.1045 -5.16935 -3.60108e-20)
(17.3611 -5.31532 0)
(17.2269 -0.211694 5.71529e-21)
(17.1856 -0.256891 0)
(17.1426 -0.299861 2.22282e-21)
(17.0994 -0.344639 -3.42166e-21)
(17.0559 -0.391188 -2.54018e-21)
(17.0124 -0.44006 1.19452e-22)
(16.9678 -0.49124 -1.18884e-22)
(16.9231 -0.544148 0)
(16.8782 -0.599203 0)
(16.8334 -0.656534 -2.03407e-21)
(16.7887 -0.716423 0)
(16.744 -0.778988 3.94284e-21)
(16.6994 -0.844355 -8.17753e-22)
(16.6551 -0.912926 0)
(16.6109 -0.984895 0)
(16.567 -1.06021 -1.1841e-21)
(16.5238 -1.13929 0)
(16.4813 -1.22261 4.41772e-21)
(16.4394 -1.31008 -1.34876e-20)
(16.3993 -1.40201 1.40698e-20)
(16.3606 -1.49941 4.23928e-21)
(16.323 -1.60239 0)
(16.2869 -1.71096 -1.17703e-20)
(16.253 -1.82531 1.1934e-20)
(16.2222 -1.94579 1.28257e-20)
(16.1954 -2.07281 5.89436e-21)
(16.1734 -2.20686 -5.02056e-21)
(16.1569 -2.34833 7.40998e-21)
(16.1467 -2.49765 -1.5274e-20)
(16.1436 -2.65516 -2.25942e-20)
(16.1491 -2.82043 7.5272e-21)
(16.1655 -2.99278 3.29616e-21)
(16.1951 -3.17299 3.07462e-21)
(16.2378 -3.36048 1.50336e-21)
(16.297 -3.553 -5.91362e-21)
(16.3749 -3.74983 -4.35931e-21)
(16.4725 -3.94921 0)
(16.5911 -4.14667 -2.98256e-21)
(16.7346 -4.33822 8.9492e-21)
(16.9037 -4.52095 -6.6159e-21)
(17.0971 -4.6914 -1.05584e-20)
(17.3124 -4.84386 -1.66565e-20)
(17.5455 -4.97347 -4.51529e-20)
(17.2696 -0.25618 0)
(17.233 -0.296982 -3.08621e-21)
(17.1948 -0.337038 1.73081e-21)
(17.1563 -0.379211 5.99767e-21)
(17.1175 -0.422806 0)
(17.08 -0.468906 0)
(17.0403 -0.518058 0)
(17.0003 -0.568553 4.44913e-22)
(16.9601 -0.62104 -4.41706e-22)
(16.92 -0.67549 2.08612e-22)
(16.8801 -0.732445 2.99835e-22)
(16.8402 -0.792099 -8.56352e-22)
(16.8005 -0.854162 -7.21472e-22)
(16.7614 -0.919302 3.83897e-22)
(16.7222 -0.98808 -9.11452e-22)
(16.6831 -1.0598 -6.40846e-21)
(16.6445 -1.1346 1.03352e-20)
(16.6078 -1.21402 -4.78837e-21)
(16.5707 -1.29768 -6.03558e-21)
(16.536 -1.3847 1.03656e-20)
(16.5033 -1.47698 -1.10943e-20)
(16.4717 -1.57495 8.02293e-21)
(16.4415 -1.67852 -8.18914e-21)
(16.413 -1.7874 -9.83369e-21)
(16.3875 -1.90189 3.73691e-21)
(16.366 -2.0224 -9.43813e-22)
(16.3494 -2.1493 6.12035e-21)
(16.3381 -2.28271 -4.25828e-21)
(16.3334 -2.42275 1.16619e-20)
(16.3353 -2.57064 9.22918e-22)
(16.3449 -2.7265 0)
(16.3648 -2.88682 0)
(16.3999 -3.05449 2.86169e-21)
(16.4445 -3.22904 -1.86978e-21)
(16.5043 -3.40747 0)
(16.5832 -3.58721 0)
(16.6797 -3.77255 2.60528e-21)
(16.7918 -3.95287 6.50387e-22)
(16.9279 -4.12735 -8.40657e-21)
(17.089 -4.29061 1.15398e-20)
(17.2718 -4.44653 -1.16189e-20)
(17.4724 -4.58543 3.38687e-20)
(17.6883 -4.70303 2.11256e-20)
(17.304 -0.288713 4.71762e-22)
(17.2731 -0.329768 3.74006e-21)
(17.2406 -0.368313 3.78918e-21)
(17.2077 -0.408745 3.43108e-21)
(17.1725 -0.448792 0)
(17.1406 -0.491311 0)
(17.1051 -0.539086 1.89864e-21)
(17.07 -0.587575 4.99151e-22)
(17.0344 -0.638053 0)
(16.9987 -0.689789 -1.07057e-21)
(16.9629 -0.74348 -9.81879e-23)
(16.9272 -0.800648 7.15651e-22)
(16.8913 -0.859757 -2.41668e-22)
(16.8573 -0.921238 5.82345e-22)
(16.8223 -0.987164 9.11845e-22)
(16.7878 -1.05709 0)
(16.752 -1.12666 -1.15766e-21)
(16.7201 -1.20133 0)
(16.6859 -1.2828 -4.63507e-22)
(16.6551 -1.36622 7.72023e-21)
(16.6276 -1.45401 -2.02997e-21)
(16.6005 -1.54676 5.23756e-22)
(16.5749 -1.64597 -4.95886e-21)
(16.5509 -1.7503 -2.52006e-21)
(16.5296 -1.85985 -3.4263e-21)
(16.5127 -1.97525 -3.16691e-21)
(16.501 -2.09713 2.81214e-21)
(16.4939 -2.22505 -1.76213e-21)
(16.4941 -2.35802 3.23645e-21)
(16.4998 -2.49532 0)
(16.5112 -2.64492 -1.67868e-21)
(16.5285 -2.79468 -1.67089e-21)
(16.5693 -2.95578 -3.50235e-21)
(16.6131 -3.11908 2.12886e-21)
(16.6697 -3.28906 -1.34285e-23)
(16.7483 -3.45001 -2.63563e-21)
(16.8444 -3.6307 -5.41217e-21)
(16.9455 -3.79507 -4.02239e-22)
(17.0728 -3.96104 4.74388e-21)
(17.2284 -4.10173 -4.76976e-21)
(17.407 -4.25067 1.55826e-20)
(17.5935 -4.38106 2.10511e-21)
(17.7896 -4.48865 -6.40973e-20)
(13.6169 -12.4796 -1.02029e-18)
(15.7335 -12.1582 7.6918e-19)
(17.3644 -11.668 0)
(18.6439 -11.2215 7.30082e-20)
(19.6194 -10.7724 -4.69655e-20)
(20.3435 -10.3074 4.35022e-20)
(20.8778 -9.84267 4.02378e-20)
(21.2713 -9.38773 -8.60012e-19)
(21.5592 -8.94668 1.63989e-18)
(21.7681 -8.52094 -8.70547e-19)
(21.9187 -8.1127 -7.83871e-19)
(22.0267 -7.72358 7.52268e-19)
(22.1042 -7.35456 6.74248e-19)
(22.1603 -7.00543 6.60558e-19)
(22.2013 -6.67595 -1.36175e-18)
(22.2318 -6.36556 0)
(22.2548 -6.0734 1.33798e-18)
(22.2725 -5.79843 -1.26861e-18)
(22.2861 -5.5396 -1.25627e-18)
(22.2968 -5.2956 -6.29804e-20)
(22.3046 -5.06524 1.11922e-18)
(22.3102 -4.84738 9.54538e-19)
(22.3136 -4.64086 -2.13928e-18)
(22.3148 -4.44464 2.15626e-18)
(22.3141 -4.25773 -7.40794e-20)
(22.3112 -4.07924 -1.01252e-18)
(22.3064 -3.90842 1.28262e-19)
(22.2995 -3.74459 -1.18305e-19)
(22.2905 -3.58717 1.24593e-19)
(22.2796 -3.43561 -8.39357e-19)
(22.2667 -3.28949 9.56276e-19)
(22.252 -3.14841 -8.21473e-19)
(22.2353 -3.01204 8.26022e-19)
(22.217 -2.8801 2.34658e-19)
(22.197 -2.75236 -4.66768e-19)
(22.1754 -2.62862 6.9779e-19)
(22.1524 -2.50869 -4.69698e-19)
(22.128 -2.39242 -2.29437e-19)
(22.1025 -2.27969 -4.64115e-19)
(22.0758 -2.1704 4.17658e-21)
(22.0481 -2.06448 4.64279e-19)
(22.0195 -1.96218 2.26273e-19)
(21.9892 -1.86375 -4.47075e-19)
(16.2398 -9.0934 -3.59842e-21)
(17.0104 -9.31007 0)
(17.7019 -9.3243 -3.97759e-19)
(18.3214 -9.1957 3.9283e-19)
(18.8701 -8.97432 0)
(19.3469 -8.69476 -3.31306e-20)
(19.7569 -8.38265 -6.34107e-19)
(20.1081 -8.05605 -4.15617e-20)
(20.408 -7.72704 1.23936e-18)
(20.6636 -7.40357 -6.28288e-19)
(20.8815 -7.09068 -6.74157e-19)
(21.0672 -6.79117 1.24219e-18)
(21.2259 -6.50643 6.49746e-21)
(21.3617 -6.23677 -1.14961e-18)
(21.478 -5.98167 1.1216e-18)
(21.5778 -5.74051 -4.97898e-19)
(21.6631 -5.51219 -7.44301e-21)
(21.7361 -5.29569 0)
(21.7984 -5.09002 6.32282e-21)
(21.8512 -4.89411 5.79816e-19)
(21.8958 -4.7071 -6.28678e-19)
(21.9331 -4.52817 6.43568e-20)
(21.964 -4.35655 -5.84537e-20)
(21.9894 -4.19167 -4.3327e-21)
(22.0096 -4.03295 0)
(22.0253 -3.87992 0)
(22.0371 -3.73222 0)
(22.0451 -3.58948 1.17825e-19)
(22.0499 -3.4514 1.10722e-19)
(22.0516 -3.31772 -5.81088e-21)
(22.0505 -3.1882 -4.49635e-19)
(22.0469 -3.06261 2.21634e-21)
(22.0409 -2.94076 4.51818e-19)
(22.0329 -2.82249 -1.15337e-19)
(22.0229 -2.70762 0)
(22.0111 -2.59605 0)
(21.9977 -2.48765 -1.12143e-19)
(21.9827 -2.38227 3.45e-19)
(21.9664 -2.27983 0)
(21.9488 -2.18022 0)
(21.9301 -2.08335 6.83531e-19)
(21.9106 -1.98908 -1.14295e-18)
(21.8921 -1.89784 2.32183e-19)
(16.5882 -7.49843 -1.10262e-20)
(17.1272 -7.60708 0)
(17.6626 -7.62859 -2.11858e-20)
(18.1713 -7.5798 -2.04442e-19)
(18.6413 -7.47629 2.00163e-19)
(19.0662 -7.33125 3.1859e-20)
(19.4446 -7.15667 -2.85819e-20)
(19.778 -6.96233 -5.22124e-19)
(20.0696 -6.75598 5.37035e-19)
(20.3232 -6.54351 -5.296e-19)
(20.5431 -6.32927 1.07834e-18)
(20.7335 -6.11636 -5.13362e-19)
(20.8982 -5.907 0)
(21.0407 -5.70247 -5.15898e-19)
(21.164 -5.50373 4.40326e-19)
(21.2709 -5.31114 -1.26233e-19)
(21.3634 -5.12491 -6.47016e-20)
(21.4437 -4.94504 -5.44121e-19)
(21.5134 -4.77145 4.79148e-19)
(21.5738 -4.6039 0)
(21.6262 -4.44217 5.80235e-19)
(21.6716 -4.28603 1.39021e-21)
(21.7109 -4.13521 -3.92811e-19)
(21.7448 -3.9895 -5.7561e-20)
(21.7738 -3.84863 0)
(21.7985 -3.7124 4.92814e-19)
(21.819 -3.58057 -4.36659e-19)
(21.836 -3.45293 0)
(21.8495 -3.32927 -4.65813e-21)
(21.8599 -3.20936 -6.48401e-19)
(21.8674 -3.09302 3.27014e-19)
(21.8722 -2.98006 -1.06338e-19)
(21.8746 -2.87031 0)
(21.8748 -2.76363 1.07239e-19)
(21.8728 -2.65989 0)
(21.869 -2.55898 0)
(21.8633 -2.46078 1.12457e-19)
(21.8559 -2.36516 -4.4783e-19)
(21.8471 -2.27205 4.4904e-19)
(21.8368 -2.18134 1.11039e-19)
(21.8252 -2.09301 -2.27702e-19)
(21.8123 -2.00681 4.49687e-19)
(21.7991 -1.92414 -4.36776e-19)
(17.1526 -6.53246 -2.91901e-20)
(17.5457 -6.63888 -1.52114e-20)
(17.9418 -6.68724 1.21882e-19)
(18.3274 -6.68246 -1.73008e-19)
(18.6936 -6.63215 1.91766e-19)
(19.0346 -6.54451 -2.08567e-19)
(19.3474 -6.42797 4.52609e-19)
(19.631 -6.28992 -2.44528e-19)
(19.8861 -6.13669 -1.80783e-19)
(20.1142 -5.97355 2.29657e-19)
(20.3172 -5.80464 0)
(20.4974 -5.63309 4.28029e-19)
(20.6571 -5.46135 -9.56524e-19)
(20.7984 -5.29111 9.52355e-19)
(20.9233 -5.12355 -3.49811e-19)
(21.0336 -4.95949 3.5952e-21)
(21.1311 -4.79944 0)
(21.2173 -4.64373 1.14572e-19)
(21.2935 -4.4925 5.81074e-20)
(21.3607 -4.34576 0)
(21.4202 -4.20353 -2.76163e-21)
(21.4727 -4.06572 3.83989e-19)
(21.519 -3.93223 -4.83848e-19)
(21.5596 -3.80293 0)
(21.5951 -3.67769 0)
(21.626 -3.55633 -5.39307e-20)
(21.6524 -3.43867 0)
(21.675 -3.32453 -5.14231e-20)
(21.694 -3.21375 -1.06555e-19)
(21.7097 -3.10613 2.09279e-19)
(21.7224 -3.00153 -3.11967e-19)
(21.7325 -2.8998 1.07326e-19)
(21.7401 -2.80081 5.25959e-19)
(21.7454 -2.70446 -3.11102e-21)
(21.7486 -2.61066 0)
(21.75 -2.5193 0)
(21.7495 -2.4303 0)
(21.7474 -2.34352 1.07329e-19)
(21.7438 -2.25889 -4.38983e-19)
(21.7388 -2.17633 3.29831e-19)
(21.7326 -2.09586 -4.42949e-19)
(21.7249 -2.01722 -1.68946e-21)
(21.716 -1.94236 2.21776e-19)
(17.4142 -5.89826 -2.92316e-20)
(17.7415 -5.98891 -4.26374e-20)
(18.0741 -6.03687 0)
(18.4022 -6.04426 -1.66335e-19)
(18.7186 -6.01531 3.66167e-19)
(19.0178 -5.95535 -1.32783e-19)
(19.2965 -5.87016 2.55871e-19)
(19.5531 -5.76517 -2.52745e-19)
(19.7873 -5.64536 -5.5806e-20)
(19.9995 -5.51502 0)
(20.1906 -5.37759 -2.27913e-19)
(20.3622 -5.23595 3.34829e-19)
(20.5156 -5.09225 0)
(20.6525 -4.94813 1.73031e-19)
(20.7744 -4.80483 -2.79968e-19)
(20.8831 -4.66323 5.73573e-20)
(20.9799 -4.52406 2.22796e-19)
(21.0662 -4.38771 -2.73876e-19)
(21.1432 -4.25453 0)
(21.2118 -4.12469 0)
(21.2731 -3.99831 -1.0666e-19)
(21.3277 -3.87542 -3.69184e-19)
(21.3764 -3.75606 4.70265e-19)
(21.4195 -3.64017 0)
(21.4577 -3.52769 -5.07369e-20)
(21.4912 -3.41848 5.04984e-20)
(21.5204 -3.3124 -5.03317e-20)
(21.5459 -3.20933 5.18372e-20)
(21.5679 -3.10915 -4.58051e-19)
(21.5868 -3.01173 3.54456e-19)
(21.6028 -2.91694 0)
(21.6163 -2.82468 -1.0123e-19)
(21.6274 -2.73484 1.01607e-19)
(21.6364 -2.64737 -5.19857e-19)
(21.6434 -2.56218 2.08997e-19)
(21.6485 -2.47922 -1.04081e-19)
(21.6518 -2.39834 0)
(21.6536 -2.3194 -3.19735e-19)
(21.6539 -2.24237 2.15962e-19)
(21.6529 -2.16719 0)
(21.6506 -2.09378 -1.08097e-19)
(21.6469 -2.0217 0)
(21.6424 -1.95212 1.08123e-19)
(17.6344 -5.43027 -2.82727e-20)
(17.9189 -5.51193 1.09782e-19)
(18.208 -5.55925 7.17232e-20)
(18.4947 -5.57333 -7.06052e-20)
(18.7732 -5.55696 -4.24133e-20)
(19.039 -5.51378 -4.59026e-20)
(19.289 -5.44807 -9.57631e-20)
(19.5216 -5.36419 3.05773e-19)
(19.736 -5.26616 -2.00321e-19)
(19.9323 -5.15753 2.15917e-19)
(20.1107 -5.04147 -2.10122e-19)
(20.272 -4.92036 -5.54202e-20)
(20.4173 -4.79613 0)
(20.548 -4.67042 1.09162e-19)
(20.6653 -4.54436 5.34052e-20)
(20.7708 -4.41896 -5.31622e-20)
(20.8657 -4.295 -2.16533e-19)
(20.951 -4.17304 2.11664e-19)
(21.0278 -4.05349 -2.1269e-19)
(21.0968 -3.93658 1.56877e-19)
(21.1588 -3.82249 5.28501e-20)
(21.2145 -3.71131 0)
(21.2644 -3.60319 -2.05242e-19)
(21.3089 -3.4981 2.52688e-19)
(21.3483 -3.39597 -1.01394e-19)
(21.3832 -3.29664 1.49663e-19)
(21.4141 -3.20005 5.08203e-20)
(21.4413 -3.10611 4.93875e-20)
(21.4652 -3.0148 1.00043e-19)
(21.4861 -2.92594 -5.06802e-20)
(21.5043 -2.83947 0)
(21.52 -2.75527 5.21244e-20)
(21.5335 -2.67326 0)
(21.545 -2.59344 0)
(21.5545 -2.51572 1.01568e-19)
(21.5621 -2.44009 1.04547e-19)
(21.568 -2.36635 0)
(21.5726 -2.29437 1.97395e-21)
(21.5758 -2.22418 -2.12293e-19)
(21.5777 -2.15571 2.14249e-19)
(21.578 -2.08881 1.08553e-19)
(21.577 -2.02305 1.07179e-19)
(21.5748 -1.95913 -1.57173e-21)
(17.792 -5.07639 2.07789e-20)
(18.0481 -5.15083 5.42361e-22)
(18.3082 -5.1962 7.10475e-20)
(18.567 -5.21318 -7.00004e-20)
(18.8192 -5.20381 0)
(19.0613 -5.17073 0)
(19.2908 -5.11735 -1.44326e-19)
(19.506 -5.04721 1.37723e-19)
(19.7056 -4.96368 0)
(19.8899 -4.87003 5.04048e-20)
(20.0577 -4.76918 0)
(20.2101 -4.66272 0)
(20.3481 -4.55271 0)
(20.4729 -4.44057 -1.06049e-19)
(20.5857 -4.32729 -1.57475e-21)
(20.6882 -4.21395 2.66391e-19)
(20.7809 -4.1017 -2.07922e-19)
(20.8648 -3.99102 0)
(20.9406 -3.88235 0)
(21.0091 -3.77583 2.5863e-19)
(21.0708 -3.67161 -2.02832e-19)
(21.1264 -3.56993 4.99747e-20)
(21.1763 -3.47103 -4.96433e-20)
(21.2208 -3.3748 -5.05906e-20)
(21.2603 -3.28105 -9.94371e-20)
(21.2957 -3.1897 0)
(21.3273 -3.10088 0)
(21.3555 -3.01453 -2.47077e-19)
(21.3804 -2.93066 1.46811e-19)
(21.4025 -2.84897 0)
(21.4221 -2.76951 0)
(21.4391 -2.69209 2.48559e-19)
(21.4543 -2.61671 -1.99278e-19)
(21.4674 -2.54339 0)
(21.4787 -2.47206 -1.02039e-19)
(21.4881 -2.40283 1.0111e-19)
(21.4958 -2.33533 2.0578e-19)
(21.5025 -2.26951 -4.13729e-19)
(21.5079 -2.20544 -1.03783e-19)
(21.5118 -2.14302 2.11409e-19)
(21.5141 -2.082 1.06293e-19)
(21.5152 -2.02199 -2.14511e-19)
(21.5157 -1.96349 -1.038e-19)
(17.9152 -4.79728 0)
(18.1511 -4.86599 -9.10475e-20)
(18.3904 -4.90993 1.31237e-19)
(18.6288 -4.92853 -6.87434e-20)
(18.8615 -4.92408 -4.34982e-20)
(19.0857 -4.89759 8.12321e-20)
(19.2994 -4.85214 4.44419e-20)
(19.501 -4.79137 -9.61921e-20)
(19.6887 -4.71812 9.39982e-20)
(19.8631 -4.63577 -9.90811e-20)
(20.0209 -4.54659 0)
(20.1652 -4.45087 -2.07269e-19)
(20.2963 -4.35152 2.02266e-19)
(20.416 -4.24925 -1.56624e-19)
(20.5247 -4.14506 -5.70004e-20)
(20.6251 -4.04077 -5.52165e-20)
(20.7154 -3.93817 2.03429e-19)
(20.7979 -3.8367 2.05788e-19)
(20.8724 -3.73696 -2.52064e-19)
(20.9397 -3.63881 -2.52913e-19)
(21.0004 -3.54248 2.49045e-19)
(21.0555 -3.44855 -2.50169e-19)
(21.1047 -3.35713 2.46977e-19)
(21.1485 -3.26787 1.97444e-19)
(21.1877 -3.18062 5.06804e-20)
(21.2236 -3.09576 -4.38745e-19)
(21.2554 -3.01343 -8.802e-22)
(21.2844 -2.93343 1.93938e-19)
(21.3098 -2.85586 4.82751e-20)
(21.3327 -2.78021 0)
(21.353 -2.70671 0)
(21.3709 -2.6349 0)
(21.3874 -2.56512 4.88231e-20)
(21.4013 -2.49721 -4.91505e-20)
(21.4142 -2.43131 1.99656e-19)
(21.4244 -2.36773 -3.52701e-19)
(21.4337 -2.3058 -5.04899e-20)
(21.4422 -2.24547 1.03318e-19)
(21.4489 -2.18689 1.04255e-19)
(21.4541 -2.12984 -5.18349e-20)
(21.4574 -2.074 0)
(21.46 -2.01901 5.24858e-20)
(21.4616 -1.96507 1.02753e-19)
(18.0006 -4.57695 5.00479e-20)
(18.2224 -4.64041 -2.6459e-20)
(18.4461 -4.68383 6.71249e-20)
(18.6724 -4.70142 -1.39683e-19)
(18.8932 -4.69999 -4.54829e-20)
(19.1072 -4.67559 3.46232e-20)
(19.3099 -4.63494 4.04162e-20)
(19.5007 -4.58137 1.39421e-19)
(19.6788 -4.51625 -1.40921e-19)
(19.8462 -4.44315 2.40046e-19)
(19.9944 -4.36234 -1.46295e-19)
(20.1352 -4.27299 9.70952e-20)
(20.2612 -4.18158 4.96419e-20)
(20.3781 -4.08557 0)
(20.4831 -3.98789 5.0832e-20)
(20.582 -3.89189 1.01844e-19)
(20.668 -3.79837 0)
(20.7507 -3.70424 0)
(20.8233 -3.61209 9.93777e-20)
(20.8892 -3.52047 9.95871e-20)
(20.9489 -3.43026 7.78879e-22)
(21.0037 -3.34269 -4.94871e-20)
(21.0517 -3.25699 -5.00517e-20)
(21.095 -3.173 9.8582e-20)
(21.1333 -3.09113 4.91263e-20)
(21.1693 -3.01246 9.19519e-22)
(21.1998 -2.93539 -4.85968e-20)
(21.2298 -2.86094 -9.84012e-20)
(21.2537 -2.78921 4.22789e-23)
(21.277 -2.7188 4.79872e-20)
(21.2966 -2.65026 -9.70296e-20)
(21.315 -2.58309 4.97365e-20)
(21.3319 -2.51837 2.23278e-22)
(21.3453 -2.45435 -5.04025e-20)
(21.3605 -2.39343 -4.96757e-20)
(21.3708 -2.33507 1.51584e-19)
(21.3818 -2.2783 -1.02849e-19)
(21.3909 -2.22288 -5.18247e-20)
(21.3975 -2.16909 -5.23755e-20)
(21.4031 -2.11682 2.59684e-19)
(21.4061 -2.06549 -1.04118e-19)
(21.4093 -2.01488 -2.09969e-19)
(21.4106 -1.96482 1.43712e-19)
(20.417 -2.01771 0)
(20.4038 -2.04325 -3.06295e-19)
(20.3892 -2.07184 3.10814e-19)
(20.3739 -2.09947 3.09329e-19)
(20.3575 -2.12681 -3.07046e-19)
(20.3398 -2.15376 4.0805e-19)
(20.3205 -2.18027 6.1096e-19)
(20.299 -2.20631 -2.14878e-21)
(20.2752 -2.23183 -6.12344e-19)
(20.2482 -2.25677 -1.0154e-19)
(20.2176 -2.28108 -1.01908e-19)
(20.1825 -2.30469 -7.15582e-19)
(20.142 -2.32753 -9.87092e-20)
(20.0949 -2.34952 9.39802e-19)
(20.0399 -2.37055 -1.05272e-19)
(19.9757 -2.39052 0)
(19.9008 -2.4093 0)
(19.8138 -2.42674 0)
(19.7133 -2.44268 0)
(19.598 -2.45696 5.6948e-20)
(19.4666 -2.4694 -5.80023e-20)
(19.3177 -2.47981 5.92118e-20)
(19.1501 -2.48801 6.06056e-20)
(18.9629 -2.49379 6.1263e-20)
(18.755 -2.49687 0)
(18.5257 -2.49711 -6.61677e-20)
(18.2741 -2.49435 -1.04681e-18)
(17.9997 -2.48825 1.23751e-18)
(17.7016 -2.47869 0)
(17.379 -2.46541 5.17837e-19)
(17.031 -2.44813 -6.72571e-19)
(16.6563 -2.42661 -6.22486e-19)
(16.2531 -2.40053 7.15493e-19)
(15.819 -2.36922 1.77743e-21)
(15.3505 -2.33228 -4.19726e-19)
(14.8428 -2.2887 9.22137e-19)
(14.2886 -2.23712 -4.47841e-19)
(13.6769 -2.17566 -3.43506e-20)
(12.9897 -2.10082 -8.49219e-20)
(12.1949 -2.00735 2.05598e-19)
(11.2262 -1.88388 -1.03639e-18)
(9.92887 -1.68347 1.60311e-18)
(7.95322 -1.37373 -1.28943e-19)
(20.389 -1.99686 2.00391e-19)
(20.3763 -2.01984 1.06745e-19)
(20.3624 -2.04535 -3.21032e-19)
(20.3479 -2.06997 0)
(20.3326 -2.09431 2.7894e-22)
(20.3161 -2.11831 -4.24251e-19)
(20.2984 -2.14195 0)
(20.2791 -2.16521 0)
(20.258 -2.18805 0)
(20.2345 -2.21044 1.05537e-19)
(20.2083 -2.23235 1.05833e-19)
(20.1788 -2.25372 7.41326e-19)
(20.1452 -2.2745 -9.64905e-19)
(20.1067 -2.29463 -1.07974e-19)
(20.0623 -2.31403 6.16298e-23)
(20.0109 -2.3326 0)
(19.9511 -2.35023 7.83924e-19)
(19.8817 -2.3668 -9.14605e-19)
(19.8013 -2.38214 -1.15753e-19)
(19.7084 -2.39609 0)
(19.6017 -2.40846 0)
(19.4795 -2.41908 9.81079e-19)
(19.3405 -2.42771 -1.01055e-18)
(19.183 -2.43417 -6.36039e-20)
(19.0058 -2.43815 -6.6509e-20)
(18.8072 -2.43941 0)
(18.5859 -2.43774 -1.13393e-18)
(18.3407 -2.43278 1.70293e-18)
(18.0699 -2.42426 -4.44729e-21)
(17.7722 -2.41183 -6.66042e-21)
(17.4458 -2.39515 -5.23933e-21)
(17.089 -2.37374 -8.5509e-19)
(16.6992 -2.34717 -7.61386e-19)
(16.2734 -2.31468 4.65106e-19)
(15.8077 -2.27553 3.90406e-19)
(15.2963 -2.22863 0)
(14.7313 -2.17243 0)
(14.1005 -2.10489 -7.47126e-20)
(13.3838 -2.02267 8.64477e-20)
(12.545 -1.92034 0)
(11.5113 -1.78854 -9.97044e-19)
(10.1523 -1.5942 2.64837e-18)
(8.45944 -1.30044 -1.61934e-18)
(20.3645 -1.97795 -2.09048e-19)
(20.3524 -1.99837 -1.64356e-19)
(20.3393 -2.02105 -5.38718e-20)
(20.3256 -2.04299 0)
(20.3112 -2.06468 2.19482e-19)
(20.2959 -2.08612 0)
(20.2795 -2.10727 1.08131e-19)
(20.2619 -2.12813 0)
(20.2426 -2.14867 0)
(20.2215 -2.16889 0)
(20.1982 -2.18875 0)
(20.1722 -2.20821 -1.08826e-19)
(20.143 -2.22724 6.58728e-19)
(20.1099 -2.24577 -3.34516e-19)
(20.0721 -2.26374 2.24466e-19)
(20.0286 -2.28106 1.13431e-19)
(19.9783 -2.29762 6.4739e-22)
(19.9201 -2.31331 0)
(19.8527 -2.32796 1.19737e-19)
(19.7746 -2.34142 -6.06288e-20)
(19.6845 -2.35349 0)
(19.5808 -2.36398 -1.01405e-18)
(19.4619 -2.37266 1.56388e-18)
(19.3261 -2.37929 -3.06393e-21)
(19.1716 -2.38358 -4.83028e-19)
(18.9966 -2.38526 -5.65986e-19)
(18.7993 -2.38403 5.8934e-19)
(18.5778 -2.37952 0)
(18.3302 -2.37138 7.88722e-20)
(18.0545 -2.35923 8.30108e-20)
(17.7484 -2.34261 6.95084e-19)
(17.4094 -2.32099 -6.47175e-19)
(17.0345 -2.29379 -3.89345e-19)
(16.6203 -2.26025 5.23107e-19)
(16.1619 -2.21949 -1.11779e-19)
(15.6532 -2.17034 -2.43486e-19)
(15.0853 -2.11123 2.70053e-19)
(14.4447 -2.04001 0)
(13.7089 -1.95343 0)
(12.8376 -1.84555 0)
(11.7556 -1.70549 4.82665e-19)
(10.3617 -1.51065 -7.77688e-19)
(8.86645 -1.22461 -1.31299e-18)
(20.3429 -1.96013 -2.15843e-19)
(20.3315 -1.9784 2.2749e-19)
(20.319 -1.99867 1.39467e-21)
(20.3061 -2.01825 2.25744e-19)
(20.2924 -2.03761 -1.12658e-19)
(20.278 -2.05676 0)
(20.2626 -2.07569 -1.11719e-19)
(20.2461 -2.09437 -3.32542e-19)
(20.2283 -2.11281 2.22403e-19)
(20.2089 -2.131 5.53939e-19)
(20.1875 -2.14889 -4.46412e-19)
(20.1639 -2.16648 1.12206e-19)
(20.1375 -2.18372 -5.77145e-22)
(20.1079 -2.20056 -5.86082e-22)
(20.0743 -2.21696 -2.30101e-19)
(20.0361 -2.23285 -1.16898e-19)
(19.9921 -2.24815 1.18702e-19)
(19.9414 -2.26273 0)
(19.8828 -2.27649 0)
(19.815 -2.28927 -5.59156e-19)
(19.7366 -2.30088 4.46853e-19)
(19.6462 -2.31114 5.18432e-19)
(19.5419 -2.31981 -6.00391e-19)
(19.4221 -2.32665 0)
(19.2848 -2.33137 0)
(19.1281 -2.33366 0)
(18.9496 -2.33318 7.45703e-20)
(18.7473 -2.32955 7.72732e-20)
(18.5187 -2.32236 6.41001e-19)
(18.2614 -2.31117 -6.74354e-19)
(17.9725 -2.29547 2.62953e-19)
(17.6489 -2.27468 -2.79489e-19)
(17.2874 -2.24815 9.78445e-20)
(16.8836 -2.21506 -5.21266e-19)
(16.4322 -2.17443 5.62659e-19)
(15.9265 -2.12504 0)
(15.3564 -2.06525 0)
(14.7072 -1.99278 -7.34078e-20)
(13.9541 -1.90425 8.35177e-20)
(13.0531 -1.79342 0)
(11.9285 -1.64751 0)
(10.5055 -1.45103 0)
(9.15544 -1.17679 -5.0145e-19)
(20.3239 -1.94386 -1.11522e-19)
(20.3131 -1.96017 1.16893e-19)
(20.3015 -1.97829 2.49197e-19)
(20.2893 -1.99581 -1.31105e-19)
(20.2765 -2.01317 -1.15229e-19)
(20.2629 -2.03037 1.15042e-19)
(20.2486 -2.04741 0)
(20.2332 -2.06426 2.27928e-19)
(20.2167 -2.08093 0)
(20.1988 -2.0974 4.53954e-19)
(20.1793 -2.11367 -4.57612e-19)
(20.1578 -2.1297 4.57697e-19)
(20.1341 -2.14546 -1.0395e-18)
(20.1076 -2.16091 3.5046e-19)
(20.0777 -2.17601 1.18057e-19)
(20.0438 -2.1907 -1.19266e-19)
(20.0051 -2.20494 3.62557e-19)
(19.9607 -2.21862 -4.94559e-19)
(19.9094 -2.23164 0)
(19.85 -2.24386 2.56083e-19)
(19.7813 -2.25512 6.54168e-20)
(19.7017 -2.26524 -6.66917e-20)
(19.6095 -2.27398 6.84278e-20)
(19.503 -2.2811 0)
(19.38 -2.28631 0)
(19.2385 -2.28931 5.90587e-19)
(19.0761 -2.28971 -7.6645e-19)
(18.8902 -2.28711 -7.92202e-20)
(18.678 -2.28106 1.62822e-19)
(18.4366 -2.27106 -4.28272e-19)
(18.1629 -2.25657 8.94365e-20)
(17.8531 -2.237 -9.38688e-20)
(17.5034 -2.21163 2.94754e-19)
(17.1089 -2.1796 -4.2089e-19)
(16.6638 -2.13988 -1.11946e-19)
(16.1604 -2.09118 0)
(15.5881 -2.03183 2.62145e-19)
(14.9307 -1.95949 -5.36514e-22)
(14.1614 -1.8706 0)
(13.2329 -1.75863 0)
(12.0699 -1.60885 0)
(10.6213 -1.41038 -2.70509e-19)
(9.38068 -1.14882 2.1314e-18)
(20.3073 -1.9292 3.32503e-22)
(20.2972 -1.94361 1.20103e-19)
(20.2863 -1.95986 -1.19794e-19)