/*--------------------------------*- C++ -*----------------------------------*\
| =========                 |                                                 |
| \\      /  F ield         | OpenFOAM: The Open Source CFD Toolbox           |
|  \\    /   O peration     | Version:  2.3.0                                 |
|   \\  /    A nd           | Web:      www.OpenFOAM.org                      |
|    \\/     M anipulation  |                                                 |
\*---------------------------------------------------------------------------*/
FoamFile
{
    version     2.0;
    format      ascii;
    class       volScalarField;
    location    "500";
    object      nut;
}
// * * * * * * * * * * * * * * * * * * * * * * * * * * * * * * * * * * * * * //

dimensions      [0 2 -1 0 0 0 0];

internalField   nonuniform List<scalar> 
7994
(
0.0670379
0.061977
0.057238
0.0528796
0.0489554
0.0455087
0.0425652
0.0401249
0.0381516
0.0365699
0.0352722
0.0341341
0.0330297
0.0318421
0.0304715
0.072961
0.0693848
0.0661877
0.0634011
0.0610352
0.0590803
0.05751
0.0562853
0.0553597
0.0546848
0.0542137
0.0539045
0.0537215
0.0536355
0.0536243
0.078276
0.0757227
0.0735152
0.0716437
0.0700881
0.0688198
0.0678051
0.0670087
0.0663962
0.0659362
0.0656015
0.0653685
0.0652182
0.0651349
0.0651063
0.0828064
0.0809557
0.0793806
0.0780586
0.0769642
0.0760698
0.075348
0.0747733
0.0743223
0.0739752
0.0737147
0.0735269
0.0734003
0.0733255
0.073295
0.0866035
0.085229
0.0840623
0.0830823
0.0822664
0.0815931
0.0810421
0.0805957
0.0802384
0.0799572
0.0797412
0.0795813
0.0794704
0.0794023
0.0793724
0.0897846
0.0887262
0.0878306
0.0870736
0.0864369
0.0859043
0.0854617
0.085097
0.0847998
0.0845614
0.0843747
0.0842338
0.084134
0.0840713
0.0840426
0.0924245
0.0916034
0.0908982
0.090294
0.0897787
0.0893412
0.088972
0.0886627
0.0884067
0.088198
0.088032
0.0879049
0.0878134
0.087755
0.0877275
0.0946468
0.0939985
0.0934275
0.0929306
0.0925006
0.0921301
0.0918128
0.0915432
0.0913169
0.0911299
0.0909793
0.0908626
0.0907776
0.0907226
0.0906962
0.09656
0.0960151
0.0955368
0.0951167
0.0947486
0.0944271
0.094148
0.0939078
0.0937037
0.0935332
0.0933944
0.0932858
0.0932059
0.0931538
0.0931285
0.0981746
0.0977166
0.0973099
0.0969483
0.096627
0.0963425
0.0960923
0.0958745
0.0956875
0.0955299
0.0954005
0.0952984
0.0952228
0.095173
0.0951486
0.0995519
0.0991633
0.0988134
0.0984974
0.0982125
0.0979566
0.0977288
0.0975285
0.0973549
0.0972076
0.0970859
0.0969892
0.096917
0.0968693
0.0968456
0.100733
0.100403
0.100099
0.099819
0.0995632
0.0993297
0.0991192
0.0989326
0.0987697
0.0986309
0.0985158
0.0984237
0.0983541
0.0983081
0.0982853
0.101757
0.101475
0.101206
0.100955
0.100723
0.100507
0.10031
0.100135
0.0999798
0.0998476
0.0997389
0.0996519
0.0995826
0.0995385
0.0995165
0.102651
0.102412
0.102167
0.101939
0.101727
0.101523
0.101336
0.101173
0.101023
0.100895
0.100792
0.100714
0.100639
0.100598
0.100576
0.0304849
0.0318785
0.0330681
0.0341675
0.0352988
0.0365912
0.0381711
0.0401464
0.0425915
0.0455412
0.0489944
0.0529246
0.0572887
0.0620333
0.0670995
0.0536234
0.053633
0.0537177
0.0539001
0.0542096
0.054682
0.0553595
0.0562888
0.0575184
0.0590945
0.061056
0.0634291
0.0662232
0.0694282
0.073013
0.0651066
0.0651359
0.06522
0.0653714
0.0656056
0.0659419
0.0664038
0.0670186
0.0678179
0.068836
0.0701082
0.0716685
0.0735455
0.0757594
0.0783202
0.0732954
0.0733268
0.0734027
0.0735304
0.0737194
0.0739812
0.07433
0.0747828
0.0753597
0.076084
0.0769816
0.0780798
0.0794065
0.0809876
0.0828455
0.0793728
0.0794035
0.0794725
0.0795844
0.0797453
0.0799624
0.0802449
0.0806037
0.0810519
0.081605
0.0822811
0.0831003
0.0840847
0.0852571
0.0866387
0.0840429
0.0840722
0.0841356
0.0842361
0.0843778
0.0845654
0.0848048
0.0851033
0.0854695
0.0859139
0.0864488
0.0870886
0.0878498
0.0887512
0.0898168
0.0877277
0.0877556
0.0878145
0.0879064
0.0880341
0.0882008
0.0884102
0.0886672
0.0889776
0.0893484
0.089788
0.0903061
0.0909143
0.0916253
0.0924556
0.0906963
0.0907229
0.090778
0.0908633
0.0909804
0.0911314
0.0913189
0.0915459
0.0918164
0.092135
0.0925072
0.0929398
0.0934404
0.0940164
0.0946715
0.0931284
0.0931537
0.0932058
0.0932856
0.0933944
0.0935334
0.0937042
0.0939088
0.0941497
0.0944297
0.0947527
0.0951232
0.0955467
0.0960299
0.0965812
0.0951484
0.0951726
0.095222
0.0952974
0.0953995
0.095529
0.0956868
0.095874
0.0960921
0.0963429
0.0966285
0.096952
0.0973171
0.0977286
0.0981925
0.0968454
0.0968685
0.0969157
0.0969873
0.0970839
0.0972057
0.0973532
0.0975267
0.0977269
0.0979548
0.0982114
0.0984983
0.0988178
0.0991732
0.0995698
0.0982852
0.0983073
0.0983522
0.0984205
0.0985127
0.0986283
0.0987674
0.0989299
0.0991157
0.0993254
0.099559
0.0998168
0.1001
0.10041
0.100749
0.0995169
0.0995381
0.0995803
0.0996456
0.0997345
0.099845
0.0999776
0.100131
0.100305
0.1005
0.100715
0.100949
0.101204
0.101478
0.101769
0.100578
0.100599
0.100637
0.100698
0.100786
0.100892
0.101021
0.101166
0.101329
0.101516
0.101715
0.101929
0.102162
0.10241
0.102662
0.0137199
0.0108385
0.00853427
0.00675437
0.00557502
0.00473171
0.00406442
0.00349496
0.00298443
0.00251298
0.00207131
0.00165696
0.00127196
0.000917924
0.00065768
0.0137843
0.0111041
0.00893922
0.00725292
0.00604719
0.00516321
0.0044762
0.00390442
0.00340041
0.00293781
0.00250277
0.00208945
0.00169624
0.00132289
0.00101794
0.0138738
0.0113955
0.00936482
0.00777234
0.00655027
0.00561951
0.00489341
0.00429832
0.00378276
0.00331443
0.00287466
0.00245382
0.00204632
0.00164856
0.00131449
0.0139817
0.0116879
0.00978113
0.0082659
0.00704475
0.00607507
0.00530307
0.004671
0.00413001
0.00364473
0.00319223
0.00275892
0.00233511
0.001914
0.0015557
0.0140959
0.0119698
0.01018
0.00872464
0.00751379
0.00651665
0.00570086
0.0050258
0.00445033
0.00393968
0.00346831
0.00301898
0.00257802
0.00213528
0.00175484
0.0142256
0.0122391
0.0105566
0.00914986
0.00795198
0.00693656
0.00608291
0.00536445
0.0047498
0.004208
0.00371301
0.00324486
0.00278619
0.00232324
0.00192216
0.0143302
0.0124902
0.0109056
0.0095431
0.00835872
0.00733102
0.00644584
0.00568667
0.00503158
0.0044553
0.00393329
0.00344415
0.00296727
0.00248524
0.00206485
0.0144615
0.0127267
0.0112257
0.00990525
0.00873484
0.00769874
0.00678744
0.00599148
0.00529695
0.0046849
0.00413381
0.0036221
0.00312666
0.00262644
0.00218801
0.014539
0.0129414
0.011518
0.0102376
0.00908154
0.00803973
0.00710668
0.00627801
0.0055463
0.00489871
0.00431763
0.00378238
0.0032682
0.00275058
0.0022953
0.0146471
0.0131387
0.0117838
0.0105416
0.00940029
0.00835483
0.0074035
0.00654593
0.00577985
0.00509796
0.00448689
0.00392777
0.00339484
0.00286054
0.00238947
0.0147199
0.0133174
0.0120253
0.010819
0.0096925
0.00864504
0.00767824
0.00679512
0.00599762
0.00528325
0.00464287
0.00405996
0.00350854
0.00295835
0.00247257
0.0148167
0.0134827
0.0122449
0.0110717
0.00995993
0.00891192
0.0079324
0.00702704
0.00620107
0.00545629
0.00478797
0.00418188
0.00361198
0.00304614
0.00254641
0.0148834
0.0136332
0.0124441
0.0113012
0.0102027
0.00915315
0.00815994
0.00723413
0.00638339
0.00561149
0.00491535
0.00428743
0.00370271
0.0031244
0.00261189
0.0149775
0.0137986
0.0126465
0.0115256
0.0104538
0.00942583
0.00844101
0.00748551
0.00659545
0.00578896
0.00507708
0.00441872
0.00379823
0.00319587
0.00267262
0.000658947
0.00091563
0.00126594
0.0016459
0.0020531
0.00248524
0.00294485
0.00344177
0.00399767
0.004657
0.00551167
0.00674073
0.00854714
0.0108723
0.0137742
0.00101847
0.00131707
0.00168349
0.00206935
0.00247389
0.00289846
0.0033494
0.00384209
0.00440636
0.00509576
0.00599791
0.00723267
0.0089574
0.011141
0.0138304
0.00131439
0.00163942
0.00202746
0.00242555
0.00283638
0.00326549
0.00372364
0.00423185
0.00482606
0.00556128
0.00651089
0.00775647
0.0093871
0.0114342
0.0139237
0.00155508
0.00190187
0.00231088
0.00272366
0.00314637
0.00358896
0.00406661
0.00460474
0.00524131
0.00602607
0.00701472
0.00825909
0.0098069
0.0117292
0.0140347
0.00175378
0.00212048
0.00254913
0.00297795
0.00341674
0.00387971
0.0043858
0.0049626
0.00564607
0.0064767
0.00749297
0.00872564
0.0102045
0.0120119
0.0141416
0.00192074
0.0023061
0.00275334
0.00319925
0.00365745
0.00414603
0.00468641
0.00530592
0.00603556
0.00690521
0.00793904
0.00915482
0.0105759
0.0122828
0.0142884
0.00206315
0.00246607
0.00293112
0.00339499
0.00387521
0.00439298
0.00497079
0.0056336
0.00640581
0.00730726
0.00835155
0.00954951
0.0109219
0.0125376
0.0144011
0.00218608
0.00260553
0.00308779
0.00357032
0.00407437
0.00462344
0.00523965
0.00594411
0.00675419
0.00768121
0.00873169
0.00991271
0.0112427
0.0127762
0.0145316
0.0022932
0.00272821
0.00322713
0.00372874
0.00425771
0.00483892
0.0054929
0.00623617
0.00707938
0.00802718
0.00908142
0.0102469
0.0115389
0.0129978
0.0146392
0.00238719
0.00283687
0.00335198
0.00387285
0.00442715
0.00504032
0.00573047
0.00650921
0.00738128
0.00834631
0.00940296
0.010554
0.0118107
0.0132006
0.0147358
0.00247036
0.00293381
0.00346445
0.00400442
0.00458392
0.00522818
0.00595233
0.00676319
0.00766046
0.00864001
0.00969818
0.0108355
0.0120585
0.0133837
0.0148168
0.00254337
0.00301995
0.00356601
0.00412507
0.00472929
0.00540316
0.00615861
0.0069981
0.00791759
0.00890976
0.00996879
0.0110928
0.0122838
0.0135514
0.0149087
0.00261236
0.00310113
0.00365983
0.00423559
0.00486252
0.00556452
0.00634988
0.00721795
0.00815702
0.0091588
0.0102179
0.0113281
0.0124892
0.0137049
0.014984
0.00265373
0.00315355
0.00373471
0.004336
0.00499336
0.00572206
0.00653386
0.00739875
0.00834503
0.00936884
0.0104197
0.0115295
0.0126596
0.0138216
0.0150056
0.00128743
0.00387663
0.00672997
0.0098029
0.013098
0.0166213
0.0203898
0.0244298
0.0287715
0.0334413
0.0384535
0.0438054
0.0494755
0.0554255
0.0616051
9.27292e-08
0.000424467
0.00172193
0.00385
0.00634147
0.00931459
0.0127796
0.0167403
0.0211956
0.0261372
0.0315469
0.0373935
0.0436299
0.0501937
0.0570073
0
0.000210644
0.00108587
0.00254507
0.00436745
0.00668775
0.00955082
0.0129923
0.0170373
0.0216957
0.0269592
0.0327975
0.0391565
0.045959
0.0531081
2.74959e-06
0.000182297
0.00109152
0.00216502
0.00361983
0.00552514
0.00794269
0.010932
0.0145454
0.0188213
0.0237781
0.029408
0.0356717
0.0424977
0.0497846
6.1926e-05
0.000513998
0.00105104
0.00194802
0.0031938
0.00484249
0.00696016
0.00961674
0.0128803
0.0168103
0.0214495
0.0268157
0.0328935
0.0396292
0.0469291
0.000346132
0.000619669
0.000982888
0.00177371
0.00288112
0.0043552
0.00626121
0.00867177
0.0116622
0.015304
0.0196575
0.0247617
0.0306245
0.0372133
0.0444464
0.000397373
0.000598693
0.000968781
0.00163118
0.00263184
0.00397467
0.00572023
0.00794054
0.0107134
0.0141168
0.0182222
0.0230846
0.0287317
0.0351522
0.0422867
0.000390304
0.000566166
0.000957328
0.00151523
0.00242898
0.00366671
0.00528365
0.00735016
0.0099443
0.0131474
0.0170375
0.0216808
0.0271191
0.0333544
0.0403204
0.00038196
0.000547516
0.000932352
0.00141867
0.00226181
0.00341274
0.00492285
0.00686087
0.00930429
0.0123357
0.0160375
0.0204835
0.0257277
0.0317917
0.0386619
0.000376042
0.0005371
0.000904901
0.00134083
0.00212219
0.00319992
0.00461935
0.00644761
0.00876132
0.0116435
0.015179
0.0194476
0.0245134
0.0304148
0.037156
0.000371313
0.000531393
0.000887944
0.00130073
0.00200647
0.00301921
0.00436024
0.00609322
0.00829362
0.0110443
0.0144319
0.0185402
0.0234417
0.0291855
0.0357819
0.000367413
0.000528951
0.000881756
0.00128349
0.0019105
0.00286406
0.00413622
0.00578546
0.00788574
0.0105195
0.0137742
0.0177368
0.022485
0.0280745
0.0345167
0.000364061
0.000527917
0.000879893
0.00127093
0.00182934
0.00272942
0.00394042
0.0055153
0.00752629
0.0100552
0.0131898
0.0170193
0.0216262
0.0270765
0.0334152
0.000360948
0.000526741
0.000877621
0.00125681
0.0017596
0.00261128
0.00376762
0.00527591
0.00720664
0.00964076
0.0126663
0.016374
0.0208506
0.0261702
0.0323842
0.000357936
0.000525054
0.000874396
0.00124376
0.00170992
0.00250785
0.00361393
0.00506209
0.00692017
0.00926816
0.012194
0.0157895
0.0201443
0.0253356
0.0314069
0.000355097
0.000523482
0.000872372
0.00123698
0.00168598
0.00241866
0.00347658
0.00486981
0.0066617
0.00893095
0.0117651
0.0152566
0.0194967
0.0245645
0.0305083
0.00035252
0.000522497
0.000872491
0.00123571
0.00167435
0.00234165
0.00335331
0.00469591
0.00642712
0.00862398
0.0113734
0.0147682
0.0189013
0.0238573
0.0297079
0.000350189
0.000521963
0.000873857
0.00123636
0.00166473
0.00227402
0.0032421
0.00453781
0.00621308
0.00834309
0.011014
0.0143189
0.0183523
0.0232039
0.0289516
0.000348017
0.000521453
0.000875083
0.00123623
0.00165356
0.00221425
0.00314118
0.0043934
0.00601688
0.00808492
0.0106829
0.0139039
0.0178442
0.0225966
0.028241
0.000345924
0.000520684
0.000875455
0.00123475
0.00164218
0.00216744
0.00304984
0.00426097
0.00583629
0.00784665
0.0103766
0.013519
0.0173707
0.0220254
0.0275587
0.000343894
0.000519711
0.000875321
0.00123338
0.00163457
0.00213992
0.00296841
0.00413928
0.00566946
0.007626
0.0100923
0.0131613
0.0169316
0.0215047
0.0269969
0.000341957
0.000518774
0.000875432
0.00123349
0.00163189
0.00212577
0.00289633
0.00402731
0.0055149
0.007421
0.00982772
0.0128277
0.0165199
0.0210032
0.0263479
0.000340142
0.000518034
0.000876162
0.00123518
0.00163232
0.00211657
0.00283206
0.0039241
0.00537131
0.00723002
0.00958068
0.0125155
0.0161337
0.0205359
0.0258221
0.000338447
0.00051747
0.000877344
0.00123764
0.00163355
0.00210769
0.00277396
0.00382865
0.00523759
0.00705161
0.00934943
0.0122227
0.0157711
0.0200978
0.025307
0.000336845
0.000516952
0.000878542
0.00123992
0.00163404
0.00209766
0.00272171
0.00374014
0.00511274
0.00688454
0.00913244
0.0119475
0.0154294
0.0196819
0.024801
0.000335304
0.000516355
0.000879392
0.00124148
0.00163346
0.00208741
0.00267874
0.00365828
0.00499594
0.00672774
0.00892835
0.011688
0.0151062
0.0192851
0.0243138
0.000333803
0.000515637
0.000879814
0.00124243
0.00163262
0.0020795
0.00264974
0.00358347
0.00488657
0.00658025
0.00873589
0.0114426
0.0147988
0.0189046
0.0238447
0.000332343
0.000514851
0.000880002
0.00124326
0.00163265
0.00207545
0.00263287
0.00351578
0.00478412
0.00644124
0.00855398
0.0112101
0.0145072
0.0185471
0.0234344
0.000330935
0.000514085
0.000880233
0.00124448
0.00163405
0.00207474
0.00262256
0.0034545
0.00468811
0.00630999
0.0083817
0.0109893
0.0142301
0.0182066
0.023021
0.000329591
0.000513399
0.000880671
0.00124624
0.0016366
0.00207586
0.00261444
0.00339852
0.00459799
0.00618586
0.00821829
0.0107797
0.0139669
0.0178837
0.0226359
0.000328311
0.000512799
0.00088131
0.00124837
0.00163969
0.00207738
0.00260627
0.00334695
0.00451322
0.00606829
0.00806305
0.01058
0.0137152
0.0175702
0.0222346
0.000327087
0.000512247
0.000882019
0.00125057
0.0016427
0.00207838
0.00259732
0.00329971
0.00443335
0.00595676
0.00791534
0.0103897
0.0134751
0.017274
0.0218946
0.000325908
0.000511691
0.000882641
0.00125252
0.0016452
0.00207857
0.00258801
0.00325875
0.00435819
0.00585083
0.00777462
0.0102081
0.0132455
0.0169889
0.0215359
0.000324762
0.000511095
0.000883065
0.00125409
0.00164711
0.00207828
0.00257983
0.0032274
0.00428801
0.00575014
0.00764036
0.0100343
0.0130252
0.0167132
0.0211935
0.000323641
0.00051045
0.000883276
0.0012553
0.00164869
0.00207825
0.00257424
0.00320645
0.0042231
0.00565444
0.00751213
0.00986805
0.0128144
0.0164529
0.0208944
0.000322546
0.000509774
0.000883345
0.00125633
0.0016503
0.0020791
0.00257167
0.00319319
0.00416335
0.00556349
0.00738952
0.00970868
0.0126117
0.0161982
0.0205609
0.00032148
0.000509101
0.000883377
0.00125738
0.00165225
0.00208107
0.00257151
0.00318407
0.00410824
0.00547705
0.00727218
0.00955583
0.0124173
0.0159581
0.0202957
0.000320447
0.000508458
0.000883461
0.0012586
0.00165465
0.00208395
0.00257276
0.00317652
0.00405705
0.00539482
0.00715984
0.00940928
0.0122315
0.01573
0.0200259
0.00031945
0.000507858
0.000883635
0.00126
0.0016574
0.00208737
0.00257447
0.00316911
0.00400919
0.00531652
0.00705224
0.00926872
0.0120531
0.0155089
0.0197475
0.000318489
0.000507297
0.00088388
0.00126153
0.00166031
0.00209089
0.00257599
0.0031612
0.00396448
0.00524189
0.00694913
0.00913383
0.0118819
0.0152974
0.0195
0.000317559
0.000506759
0.000884147
0.00126305
0.00166315
0.00209417
0.00257696
0.00315279
0.00392359
0.00517077
0.0068503
0.0090044
0.0117178
0.0150956
0.0192592
0.000316656
0.000506225
0.000884374
0.00126446
0.00166576
0.00209702
0.00257735
0.00314445
0.00388835
0.00510322
0.00675553
0.00888005
0.0115597
0.0148973
0.0189983
0.000315775
0.000505679
0.000884514
0.00126568
0.00166804
0.00209943
0.00257747
0.00313722
0.00386078
0.0050395
0.00666467
0.00876044
0.0114071
0.0147069
0.0187746
0.000314912
0.000505115
0.000884546
0.00126669
0.00167001
0.00210156
0.00257781
0.00313203
0.00384115
0.00497983
0.00657756
0.00864532
0.0112602
0.0145236
0.01855
0.000314066
0.000504533
0.00088448
0.00126752
0.00167178
0.00210367
0.00257879
0.00312922
0.00382777
0.00492421
0.00649409
0.00853441
0.011118
0.0143444
0.0183188
0.000313237
0.000503945
0.000884351
0.00126825
0.0016735
0.00210599
0.00258064
0.00312852
0.00381835
0.00487235
0.00641412
0.00842747
0.0109805
0.0141705
0.0181013
0.000312425
0.000503362
0.000884202
0.00126896
0.00167529
0.00210864
0.00258334
0.00312933
0.00381097
0.00482381
0.00633743
0.00832413
0.0108468
0.0139986
0.0178735
0.000311634
0.000502795
0.000884071
0.00126971
0.00167722
0.00211165
0.0025867
0.00313099
0.00380434
0.00477812
0.00626381
0.00822425
0.0107173
0.0138356
0.0176914
0.000310865
0.000502251
0.000883977
0.00127054
0.00167931
0.00211493
0.00259045
0.00313296
0.00379773
0.00473494
0.00619307
0.00812764
0.0105915
0.0136747
0.0174718
0.000310116
0.000501731
0.000883924
0.00127144
0.0016815
0.00211837
0.00259431
0.00313482
0.00379078
0.00469416
0.00612499
0.00803405
0.0104692
0.0135178
0.017278
0.000309389
0.00050123
0.000883899
0.00127237
0.00168374
0.00212181
0.00259807
0.00313633
0.00378346
0.00465614
0.00605947
0.00794339
0.0103506
0.0133678
0.0171045
0.00030868
0.000500742
0.00088388
0.00127329
0.00168592
0.00212513
0.00260156
0.00313741
0.00377602
0.00462185
0.0059965
0.00785562
0.0102358
0.0132227
0.0169203
0.000307989
0.000500259
0.000883843
0.00127416
0.00168799
0.00212823
0.00260471
0.00313815
0.00376901
0.00459269
0.00593618
0.00777052
0.0101237
0.0130765
0.0167148
0.000307312
0.000499776
0.00088377
0.00127493
0.00168989
0.00213108
0.00260757
0.00313881
0.00376311
0.00456961
0.00587872
0.00768811
0.0100153
0.0129412
0.0165839
0.000306649
0.000499288
0.000883649
0.0012756
0.00169161
0.00213369
0.00261024
0.00313968
0.00375886
0.00455244
0.00582427
0.0076083
0.00990965
0.0128035
0.0163709
0.000305998
0.000498795
0.000883478
0.00127616
0.00169317
0.00213614
0.00261288
0.00314106
0.00375643
0.00454001
0.0057728
0.00753102
0.00980677
0.012671
0.0162179
0.000305359
0.000498299
0.000883267
0.00127663
0.00169461
0.0021385
0.00261565
0.00314309
0.00375568
0.00453082
0.00572416
0.00745614
0.00970622
0.0125388
0.0160312
0.000304732
0.000497803
0.000883028
0.00127705
0.001696
0.00214088
0.00261865
0.00314581
0.00375626
0.00452357
0.00567805
0.00738352
0.00960784
0.0124095
0.015869
0.000304119
0.000497313
0.00088278
0.00127744
0.00169738
0.00214334
0.00262193
0.00314912
0.00375775
0.00451728
0.00563418
0.00731304
0.00951183
0.0122846
0.0157188
0.000303519
0.000496832
0.000882539
0.00127785
0.00169879
0.0021459
0.00262546
0.00315288
0.00375974
0.00451128
0.00559227
0.00724465
0.00941838
0.0121639
0.015572
0.000302935
0.000496364
0.000882313
0.00127827
0.00170025
0.00214858
0.00262921
0.00315691
0.00376189
0.00450519
0.00555214
0.00717831
0.00932751
0.0120465
0.0154234
0.000302366
0.000495909
0.000882107
0.00127873
0.00170177
0.00215135
0.00263307
0.00316104
0.00376396
0.0044988
0.00551377
0.00711395
0.00923904
0.0119317
0.0152778
0.000301814
0.000495467
0.000881921
0.00127921
0.00170331
0.00215416
0.00263696
0.00316511
0.00376577
0.00449207
0.00547736
0.00705158
0.00915313
0.0118215
0.0151496
0.000301279
0.000495037
0.000881748
0.0012797
0.00170487
0.00215696
0.0026408
0.00316902
0.00376724
0.00448511
0.00544344
0.00699122
0.00906977
0.0117144
0.0150153
0.000300761
0.000494615
0.00088158
0.00128019
0.00170639
0.00215969
0.0026445
0.00317268
0.00376839
0.0044782
0.00541289
0.00693297
0.00898884
0.01161
0.0148826
0.000300261
0.0004942
0.00088141
0.00128065
0.00170787
0.00216232
0.00264802
0.00317608
0.00376931
0.00447176
0.0053866
0.00687696
0.00891026
0.0115081
0.0147527
0.000299779
0.000493788
0.000881231
0.00128108
0.00170926
0.00216482
0.00265135
0.00317926
0.00377019
0.00446625
0.00536511
0.00682335
0.00883386
0.0114081
0.0146226
0.00029932
0.000493377
0.000881036
0.00128145
0.00171056
0.00216717
0.00265449
0.00318229
0.00377123
0.00446201
0.00534829
0.00677224
0.0087597
0.0113111
0.0145046
0.00029888
0.000492969
0.00088084
0.00128179
0.00171178
0.0021694
0.00265751
0.00318531
0.00377267
0.00445926
0.00533546
0.0067237
0.00868788
0.0112173
0.014389
0.000298486
0.000492549
0.000880603
0.00128206
0.00171289
0.00217151
0.00266044
0.00318839
0.00377461
0.00445795
0.0053257
0.00667773
0.00861849
0.0111263
0.0142729
0.000298086
0.000492158
0.000880475
0.00128241
0.00171407
0.00217367
0.00266346
0.00319174
0.00377723
0.00445801
0.00531818
0.00663424
0.00855137
0.011037
0.0141569
0.000297901
0.000491664
0.000880125
0.00128258
0.00171516
0.00217588
0.0026667
0.00319557
0.00378071
0.00445939
0.00531229
0.00659355
0.00848731
0.0109529
0.0140625
0.00029728
0.00049141
0.000880166
0.00128258
0.00171553
0.00217698
0.00266868
0.00319819
0.00378327
0.00446023
0.00530619
0.00655306
0.00842375
0.0108676
0.0139361
0.00029925
0.000492029
0.000883449
0.0012898
0.00172605
0.00218998
0.00268337
0.0032138
0.00379875
0.00447354
0.00531157
0.00652953
0.0083758
0.0107962
0.0138576
0.000280349
0.000468078
0.000839416
0.0012345
0.00166613
0.00212985
0.00262552
0.003159
0.00374602
0.00441971
0.00524945
0.00642576
0.00825508
0.0106731
0.0137225
0.00128459
0.00386694
0.00671315
0.00977932
0.0130711
0.0165945
0.0203674
0.0244164
0.0287711
0.033456
0.0384836
0.0438493
0.0495307
0.0554888
0.0616731
9.19198e-08
0.000422936
0.00171572
0.00384039
0.00633021
0.00930354
0.0127711
0.0167373
0.0212016
0.0261551
0.0315788
0.0374396
0.043689
0.0502631
0.0570851
0
0.000212609
0.00109287
0.0025519
0.00437495
0.0066973
0.00956342
0.0130094
0.0170605
0.0217273
0.027001
0.0328507
0.039221
0.0460333
0.0531888
3.40001e-06
0.000196726
0.0010979
0.00217626
0.00363357
0.00554198
0.00796353
0.0109578
0.0145773
0.0188607
0.0238265
0.0294663
0.0357405
0.0425759
0.04987
6.21611e-05
0.000514798
0.00105395
0.00195497
0.00320534
0.00485854
0.00698098
0.00964318
0.0129134
0.0168512
0.0214993
0.0268754
0.0329636
0.039709
0.0470167
0.000347274
0.000614065
0.000983133
0.001777
0.00288849
0.00436803
0.00627996
0.00869672
0.0116941
0.0153441
0.0197067
0.0248209
0.0306942
0.037293
0.044534
0.000399651
0.000589282
0.000949515
0.00163086
0.00263615
0.00398401
0.00573628
0.00796358
0.0107438
0.0141555
0.0182701
0.0231426
0.0288002
0.0352309
0.0423741
0.000392582
0.000558209
0.000937913
0.00151265
0.00243106
0.00367331
0.00529631
0.00737075
0.00997283
0.0131843
0.0170837
0.021737
0.0271857
0.033431
0.0404042
0.000384417
0.000542181
0.000917781
0.00141548
0.00226237
0.00341728
0.00493293
0.0068786
0.0093306
0.0123707
0.0160818
0.0205377
0.0257922
0.0318662
0.038745
0.000378707
0.000533551
0.000893548
0.00133365
0.00212144
0.00320287
0.00462731
0.00646247
0.00878514
0.0116764
0.0152213
0.0194997
0.024576
0.0304879
0.0372401
0.000373901
0.000527826
0.00087444
0.00127913
0.00200328
0.0030207
0.00436641
0.00610577
0.00831477
0.0110751
0.0144722
0.0185906
0.0235026
0.0292576
0.0358669
0.000369807
0.000524968
0.000866546
0.00125791
0.00190522
0.00286421
0.00414083
0.00579597
0.00790414
0.0105479
0.0138126
0.0177854
0.0225444
0.0281458
0.034602
0.000366363
0.000524166
0.000865536
0.00124814
0.00182304
0.00272844
0.00394367
0.00552405
0.00754247
0.0100811
0.0132262
0.0170662
0.0216843
0.0271472
0.0335009
0.000363291
0.000523806
0.000865612
0.00123817
0.00175246
0.00260947
0.00376971
0.00528315
0.00722089
0.00966426
0.0127006
0.0164193
0.0209076
0.0262402
0.0324693
0.000360338
0.000522823
0.000863938
0.00122576
0.00169272
0.0025043
0.00361493
0.00506799
0.00693271
0.00928944
0.0122263
0.0158333
0.0202001
0.0254046
0.0314907
0.000357466
0.000521383
0.000861667
0.00121616
0.00165653
0.00241239
0.00347641
0.0048745
0.00667273
0.00895039
0.0117954
0.0152988
0.0195513
0.0246331
0.030595
0.000354787
0.000520233
0.000861031
0.001213
0.00164168
0.00233314
0.00335197
0.00469949
0.0064368
0.00864178
0.0114018
0.0148089
0.018955
0.0239257
0.0297948
0.00035237
0.000519681
0.000862373
0.00121415
0.00163436
0.00226432
0.00323975
0.00454039
0.00622156
0.0083594
0.0110405
0.0143581
0.018405
0.0232715
0.0290358
0.000350172
0.000519459
0.000864522
0.00121612
0.00162693
0.00220338
0.00313804
0.00439508
0.00602427
0.00809989
0.0107078
0.0139415
0.0178954
0.0226619
0.0283182
0.0003481
0.000519136
0.000866182
0.00121674
0.00161734
0.00214939
0.00304534
0.0042618
0.0058427
0.00786044
0.0104001
0.0135551
0.0174212
0.0220916
0.0276451
0.000346085
0.000518494
0.000866855
0.00121594
0.00160773
0.0021086
0.00296129
0.00413915
0.00567497
0.0076387
0.0101145
0.0131953
0.0169782
0.0215568
0.0270117
0.000344123
0.000517645
0.000867042
0.00121534
0.00160207
0.00208642
0.00288635
0.0040261
0.00551953
0.00743265
0.00984839
0.0128594
0.0165632
0.0210541
0.0264137
0.000342251
0.000516848
0.000867523
0.00121628
0.00160116
0.00207611
0.00281999
0.0039218
0.00537506
0.00724057
0.00959976
0.0125445
0.0161723
0.0205761
0.0258304
0.000340498
0.000516256
0.000868639
0.00121875
0.00160307
0.00206969
0.00276068
0.0038254
0.00524044
0.00706102
0.00936678
0.0122489
0.0158052
0.0201331
0.0253361
0.000338863
0.000515838
0.000870196
0.00122193
0.00160555
0.00206305
0.00270688
0.00373601
0.00511469
0.00689274
0.00914793
0.0119707
0.0154586
0.0197089
0.0248014
0.000337316
0.000515459
0.00087175
0.00122487
0.00160716
0.00205492
0.00265808
0.00365286
0.00499695
0.00673466
0.00894187
0.0117081
0.0151304
0.0193062
0.0243199
0.000335825
0.000514988
0.000872926
0.00122702
0.00160751
0.00204608
0.00261717
0.00357565
0.00488646
0.00658582
0.00874738
0.0114597
0.014819
0.0189227
0.0238569
0.000334369
0.000514379
0.000873623
0.00122842
0.00160735
0.00203907
0.00258939
0.00350479
0.00478267
0.00644539
0.00856345
0.0112243
0.0145241
0.0185637
0.0234503
0.000332947
0.00051368
0.000874022
0.00122961
0.00160786
0.00203573
0.00257399
0.00344053
0.00468518
0.00631268
0.00838924
0.0110011
0.0142446
0.0182226
0.0230395
0.000331572
0.000512982
0.000874414
0.0012311
0.00160969
0.00203583
0.00256559
0.00338235
0.00459358
0.00618712
0.00822405
0.0107893
0.0139796
0.0178993
0.0226558
0.000330256
0.000512358
0.000875
0.00123312
0.00161274
0.00203796
0.0025596
0.00332923
0.00450746
0.00606818
0.00806721
0.010588
0.0137267
0.0175856
0.0222564
0.000329003
0.000511824
0.000875806
0.00123558
0.00161644
0.00204064
0.00255356
0.00328019
0.00442632
0.00595538
0.0079181
0.0103963
0.0134856
0.0172894
0.0219177
0.000327808
0.000511349
0.000876721
0.00123817
0.00162016
0.00204287
0.00254655
0.00323483
0.00434975
0.00584827
0.00777616
0.0102135
0.0132554
0.0170046
0.0215624
0.000326658
0.00051088
0.000877581
0.00124058
0.00162341
0.00204418
0.00253866
0.00319418
0.00427747
0.00574645
0.00764086
0.0100389
0.0130346
0.0167296
0.021222
0.000325541
0.000510373
0.000878253
0.00124259
0.00162599
0.00204472
0.00253107
0.00316144
0.00420963
0.00564957
0.00751172
0.00987196
0.0128238
0.0164705
0.0209276
0.000324449
0.000509809
0.000878686
0.00124417
0.00162805
0.00204512
0.00252546
0.00313905
0.00414662
0.00555739
0.00738832
0.00971211
0.0126211
0.0162169
0.0205955
0.000323378
0.000509198
0.000878926
0.00124546
0.00162996
0.00204616
0.00252277
0.00312551
0.00408858
0.00546971
0.00727031
0.00955895
0.0124271
0.0159787
0.0203377
0.000322333
0.000508572
0.000879075
0.00124669
0.00163209
0.00204824
0.0025228
0.00311731
0.00403517
0.00538635
0.00715739
0.00941228
0.012242
0.0157531
0.0200733
0.000321317
0.000507964
0.000879241
0.00124803
0.00163463
0.00205136
0.00252465
0.00311145
0.00398577
0.00530707
0.00704933
0.00927175
0.0120644
0.0155335
0.0197929
0.000320335
0.000507395
0.000879489
0.00124956
0.0016376
0.00205521
0.00252734
0.00310606
0.0039397
0.00523163
0.00694589
0.00913702
0.0118941
0.0153239
0.0195504
0.000319388
0.00050687
0.000879829
0.00125126
0.00164084
0.00205936
0.00253008
0.00310025
0.00389653
0.00515975
0.00684681
0.00900785
0.0117309
0.0151237
0.0193111
0.000318474
0.000506378
0.000880224
0.00125303
0.00164413
0.00206343
0.00253236
0.00309371
0.00385628
0.00509123
0.00675188
0.00888382
0.0115736
0.0149268
0.0190516
0.000317589
0.0005059
0.000880613
0.00125476
0.00164727
0.00206713
0.00253397
0.00308667
0.00381996
0.00502597
0.00666085
0.00876458
0.011422
0.0147378
0.018829
0.000316728
0.000505417
0.000880939
0.00125632
0.00165011
0.00207034
0.00253502
0.00307989
0.0037897
0.00496409
0.00657351
0.00864984
0.0112758
0.0145554
0.0186044
0.000315886
0.000504917
0.000881161
0.00125767
0.0016526
0.00207312
0.00253589
0.00307446
0.00376723
0.00490587
0.00648971
0.00853928
0.0111344
0.0143769
0.0183725
0.00031506
0.000504395
0.00088127
0.00125881
0.00165479
0.00207567
0.00253709
0.00307119
0.00375221
0.00485149
0.0064093
0.00843263
0.0109974
0.0142032
0.0181535
0.000314249
0.000503856
0.000881284
0.00125978
0.00165681
0.00207825
0.002539
0.00307024
0.00374264
0.00480087
0.00633215
0.00832951
0.010864
0.0140313
0.0179249
0.000313454
0.000503312
0.000881244
0.00126066
0.00165881
0.00208108
0.00254179
0.00307124
0.00373629
0.00475366
0.00625809
0.0082298
0.0107349
0.0138691
0.0177463
0.000312678
0.000502775
0.000881194
0.00126155
0.00166091
0.00208427
0.0025454
0.00307355
0.00373142
0.00470942
0.00618694
0.00813322
0.010609
0.0137055
0.0175105
0.000311921
0.000502257
0.00088117
0.0012625
0.00166316
0.0020878
0.00254962
0.00307655
0.00372694
0.00466768
0.0061185
0.00803966
0.0104872
0.013554
0.0173711
0.000311186
0.000501762
0.000881187
0.00126352
0.00166557
0.0020916
0.00255416
0.00307972
0.00372224
0.00462814
0.00605263
0.00794923
0.0103702
0.0134116
0.0172094
0.000310471
0.000501291
0.000881247
0.00126461
0.00166809
0.00209552
0.00255876
0.00308268
0.00371705
0.0045907
0.00598924
0.00786196
0.0102575
0.0132705
0.017009