/*--------------------------------*- C++ -*----------------------------------*\
| =========                 |                                                 |
| \\      /  F ield         | OpenFOAM: The Open Source CFD Toolbox           |
|  \\    /   O peration     | Version:  2.3.0                                 |
|   \\  /    A nd           | Web:      www.OpenFOAM.org                      |
|    \\/     M anipulation  |                                                 |
\*---------------------------------------------------------------------------*/
FoamFile
{
    version     2.0;
    format      ascii;
    class       volScalarField;
    location    "500";
    object      p;
}
// * * * * * * * * * * * * * * * * * * * * * * * * * * * * * * * * * * * * * //

dimensions      [0 2 -2 0 0 0 0];

internalField   nonuniform List<scalar> 
7994
(
-0.000642374
0.0123427
0.0598904
0.153986
0.295993
0.479568
0.694722
0.931794
1.1842
1.44934
1.72685
2.02024
2.35898
2.86423
3.5086
0.23541
0.253078
0.272239
0.295313
0.328472
0.378631
0.452093
0.55313
0.683299
0.84164
1.02521
1.22991
1.45144
1.68677
1.93418
0.469343
0.546395
0.64163
0.752812
0.877909
1.01276
1.15288
1.29433
1.4341
1.57
1.70056
1.82473
1.94165
2.05069
2.15205
0.616235
0.686176
0.764665
0.847141
0.933685
1.02381
1.11684
1.21198
1.30834
1.405
1.50103
1.59559
1.6879
1.77733
1.86376
0.733391
0.803296
0.882814
0.965144
1.04947
1.13463
1.21959
1.30347
1.3856
1.46552
1.54288
1.61744
1.68899
1.75743
1.82277
0.81289
0.873961
0.942485
1.01198
1.08183
1.15152
1.22071
1.2891
1.35643
1.42251
1.48714
1.55017
1.61142
1.67076
1.72815
0.867013
0.923555
0.985291
1.0474
1.10932
1.17074
1.23149
1.29141
1.35036
1.40822
1.46489
1.52024
1.57417
1.62656
1.67733
0.903116
0.957261
1.01213
1.06683
1.12119
1.17511
1.22853
1.2814
1.33365
1.3852
1.43596
1.48583
1.5347
1.58242
1.6289
0.933617
0.98309
1.0313
1.0798
1.12827
1.17656
1.2246
1.27235
1.31976
1.36674
1.41321
1.45906
1.50416
1.54838
1.59157
0.951713
1.00019
1.04364
1.08732
1.13112
1.17496
1.21876
1.26251
1.30615
1.34959
1.39277
1.43555
1.47781
1.51937
1.56008
0.968363
1.01268
1.05211
1.0918
1.1318
1.17205
1.21245
1.25299
1.29369
1.33432
1.37487
1.4152
1.4552
1.49469
1.53351
0.981265
1.02075
1.05706
1.09358
1.13093
1.16833
1.20566
1.24336
1.28176
1.32012
1.35844
1.39667
1.43486
1.47264
1.50997
0.992205
1.02863
1.0622
1.09579
1.13074
1.16581
1.20094
1.23682
1.27313
1.30927
1.34613
1.38359
1.421
1.4582
1.49395
1.00965
1.03836
1.07398
1.10413
1.12948
1.16272
1.20121
1.23636
1.26974
1.30281
1.33928
1.37756
1.41246
1.45043
1.48832
4.30211
4.4238
4.3118
4.31871
4.35921
4.38399
4.38556
4.36752
4.33108
4.27391
4.19111
4.07686
3.92738
3.74471
3.54708
2.19933
2.47945
2.74609
2.99473
3.21914
3.41124
3.56329
3.66944
3.72653
3.73462
3.6973
3.62122
3.51508
3.38842
3.25471
2.24797
2.34128
2.43279
2.52282
2.61053
2.69474
2.77405
2.84685
2.91109
2.96421
3.00293
3.02347
3.02232
2.99862
2.95987
1.94873
2.03439
2.1212
2.20844
2.29488
2.37898
2.45898
2.5329
2.59866
2.6541
2.69719
2.72609
2.73955
2.73805
2.72577
1.88595
1.94848
2.01098
2.07328
2.13494
2.1954
2.25401
2.31001
2.36249
2.41034
2.4522
2.48644
2.51142
2.52649
2.53263
1.78418
1.83983
1.89539
1.95062
2.00515
2.05855
2.11034
2.15997
2.20679
2.25008
2.28897
2.32247
2.34955
2.37034
2.38915
1.72683
1.77571
1.82419
1.87207
1.9191
1.96499
2.00945
2.05214
2.09269
2.13064
2.16545
2.19645
2.22291
2.24451
2.26124
1.67433
1.71912
1.76336
1.80687
1.84943
1.89082
1.9308
1.96912
2.00552
2.03971
2.07136
2.10003
2.1252
2.14646
2.16505
1.63383
1.67538
1.71627
1.75631
1.79532
1.83311
1.86949
1.90427
1.93729
1.96834
1.99724
2.02371
2.0473
2.06758
2.08824
1.59991
1.63899
1.67733
1.71474
1.75108
1.78615
1.81978
1.85187
1.88225
1.91083
1.93747
1.96201
1.98419
2.00368
2.02255
1.57145
1.60856
1.64488
1.68011
1.7144
1.74736
1.77885
1.80883
1.83712
1.86371
1.88848
1.91133
1.93217
1.95057
1.9678
1.54657
1.58216
1.61701
1.65033
1.68316
1.71474
1.74464
1.77306
1.79961
1.8246
1.84777
1.86906
1.8886
1.90576
1.9206
1.52888
1.56182
1.59504
1.62709
1.65896
1.68863
1.71586
1.74256
1.76734
1.79079
1.8128
1.83304
1.85138
1.86813
1.88357
1.5195
1.5482
1.57831
1.609
1.64267
1.66674
1.69049
1.71569
1.7387
1.76052
1.78214
1.80192
1.81775
1.83293
1.84661
-0.83542
-0.829032
-0.766842
-0.642676
-0.469087
-0.271452
-0.0804791
0.0768363
0.184472
0.238086
0.242268
0.202971
0.124834
-0.00184565
-0.0044261
-0.795286
-0.832695
-0.876854
-0.93891
-1.02554
-1.13224
-1.24775
-1.35952
-1.45711
-1.53479
-1.59158
-1.63181
-1.65726
-1.69105
-1.69171
-0.797045
-0.87463
-0.969179
-1.07565
-1.18399
-1.28178
-1.36079
-1.4188
-1.45803
-1.48317
-1.49979
-1.51498
-1.52881
-1.54286
-1.54507
-0.741097
-0.786907
-0.827752
-0.8603
-0.883614
-0.898331
-0.906619
-0.911097
-0.913926
-0.916835
-0.921289
-0.930188
-0.943315
-0.954687
-0.957194
-0.657851
-0.676648
-0.689739
-0.698829
-0.705846
-0.711908
-0.7173
-0.721875
-0.725548
-0.728742
-0.732481
-0.738908
-0.749087
-0.757064
-0.756841
-0.593998
-0.609528
-0.624002
-0.638233
-0.65161
-0.663519
-0.673425
-0.681151
-0.686972
-0.691701
-0.696698
-0.703829
-0.714239
-0.722307
-0.721241
-0.550456
-0.560404
-0.572955
-0.585605
-0.597157
-0.60751
-0.616733
-0.624997
-0.632572
-0.639967
-0.648112
-0.658254
-0.670971
-0.680801
-0.679938
-0.502901
-0.507671
-0.515192
-0.523425
-0.531868
-0.540947
-0.550795
-0.561416
-0.572701
-0.584667
-0.597678
-0.612374
-0.628679
-0.641124
-0.640948
-0.460621
-0.456834
-0.460413
-0.465719
-0.472827
-0.482402
-0.494608
-0.509366
-0.526337
-0.545166
-0.5658
-0.588091
-0.610729
-0.627693
-0.629107
-0.411414
-0.40908
-0.410123
-0.412656
-0.41779
-0.426769
-0.440312
-0.458823
-0.481839
-0.508801
-0.539519
-0.57401
-0.60955
-0.637587
-0.645034
-0.377867
-0.367437
-0.363958
-0.362073
-0.363396
-0.370067
-0.384134
-0.407135
-0.438301
-0.475322
-0.52003
-0.573
-0.628089
-0.670662
-0.686013
-0.337891
-0.32691
-0.319119
-0.311288
-0.30463
-0.302965
-0.308999
-0.331369
-0.367407
-0.408193
-0.454785
-0.528599
-0.632716
-0.719144
-0.760708
-0.310628
-0.291876
-0.283378
-0.27009
-0.257484
-0.251553
-0.254004
-0.283819
-0.347298
-0.398034
-0.462747
-0.552973
-0.714707
-0.812988
-0.850038
-0.272006
-0.244842
-0.239569
-0.221034
-0.178503
-0.140031
-0.0684083
-0.0745459
-0.16304
-0.183112
-0.121811
-0.155957
-0.621462
-0.910499
-0.939359
0.0021011
0.0124481
0.146576
0.231928
0.279107
0.283281
0.238207
0.13935
-0.00848853
-0.188218
-0.371549
-0.527674
-0.630609
-0.668619
-0.650129
-1.68844
-1.68321
-1.64464
-1.61447
-1.56816
-1.50359
-1.41626
-1.30714
-1.18221
-1.05227
-0.930391
-0.828526
-0.750347
-0.688491
-0.631339
-1.54155
-1.53297
-1.51286
-1.49342
-1.47185
-1.44772
-1.41373
-1.36422
-1.29447
-1.20246
-1.09089
-0.968595
-0.847816
-0.738329
-0.644049
-0.9539
-0.944928
-0.927418
-0.908563
-0.893391
-0.881878
-0.870974
-0.859222
-0.844845
-0.825688
-0.799136
-0.763012
-0.716575
-0.660881
-0.598923
-0.753683
-0.747515
-0.733468
-0.717601
-0.705055
-0.694531
-0.683763
-0.671794
-0.658179
-0.643014
-0.626357
-0.607781
-0.586041
-0.559302
-0.526107
-0.718153
-0.712842
-0.698687
-0.682544
-0.669287
-0.657554
-0.645384
-0.631501
-0.615078
-0.595856
-0.573958
-0.549862
-0.524129
-0.497374
-0.469455
-0.67693
-0.671462
-0.655568
-0.637129
-0.620885
-0.606052
-0.591319
-0.575816
-0.55903
-0.54068
-0.520546
-0.498554
-0.474806
-0.450303
-0.427751
-0.638256
-0.632535
-0.614386
-0.592574
-0.571887
-0.552223
-0.532914
-0.513655
-0.49442
-0.475292
-0.456278
-0.437325
-0.418201
-0.399224
-0.382782
-0.626525
-0.619485
-0.597047
-0.569199
-0.54128
-0.514221
-0.488114
-0.4631
-0.439518
-0.417604
-0.397503
-0.379261
-0.362568
-0.347218
-0.335343
-0.644695
-0.634262
-0.602045
-0.561827
-0.521618
-0.483634
-0.448512
-0.41685
-0.388471
-0.363675
-0.342669
-0.325237
-0.3108
-0.298719
-0.290521
-0.685294
-0.664908
-0.61302
-0.555112
-0.500137
-0.448525
-0.403721
-0.364911
-0.332085
-0.305725
-0.285509
-0.270996
-0.260497
-0.253092
-0.250257
-0.791443
-0.752335
-0.646092
-0.552109
-0.472899
-0.403105
-0.348736
-0.309332
-0.272514
-0.244554
-0.227214
-0.21689
-0.211841
-0.210108
-0.211131
-0.903015
-0.80033
-0.574718
-0.499543
-0.434734
-0.334168
-0.287817
-0.240167
-0.19109
-0.171145
-0.159222
-0.160615
-0.161691
-0.168329
-0.175661
-1.39853
-1.2025
-0.587102
-0.534962
-0.388052
-0.229049
-0.189389
-0.210307
-0.143336
-0.113277
-0.115658
-0.116917
-0.12448
-0.13892
-0.157469
-8.82768
-8.1774
-7.58701
-6.96043
-6.27992
-5.53714
-4.75161
-3.95008
-3.16579
-2.43586
-1.79523
-1.26861
-0.863734
-0.570436
-0.372802
-0.260441
-1.17894
-1.32521
-1.36692
-1.44218
-1.52664
-1.58803
-1.61328
-1.59256
-1.51692
-1.3835
-1.20002
-0.985145
-0.763702
-0.567785
-0.815285
-1.18687
-1.02956
-0.998159
-1.02789
-1.05437
-1.06655
-1.06903
-1.06176
-1.04123
-1.00246
-0.939892
-0.849506
-0.732015
-0.604455
-2.17204
-2.1761
-1.92301
-1.8551
-1.797
-1.7164
-1.61958
-1.51268
-1.39638
-1.27202
-1.14266
-1.01171
-0.881386
-0.751505
-0.628613
-2.07658
-1.78942
-1.63026
-1.61008
-1.56747
-1.50986
-1.44521
-1.37372
-1.293
-1.20213
-1.10122
-0.991412
-0.875048
-0.754706
-0.63841
-1.16294
-0.867265
-0.877233
-0.899736
-0.899358
-0.900778
-0.904148
-0.904174
-0.897287
-0.881212
-0.85365
-0.812445
-0.756307
-0.684966
-0.603684
-0.610057
-0.519374
-0.571776
-0.576847
-0.582138
-0.5974
-0.617052
-0.636107
-0.652103
-0.662829
-0.665729
-0.658123
-0.637519
-0.60159
-0.550753
-0.559175
-0.554465
-0.571397
-0.559425
-0.55869
-0.563331
-0.570622
-0.578634
-0.585997
-0.591008
-0.591781
-0.586304
-0.572479
-0.547998
-0.510284
-0.582541
-0.589287
-0.584914
-0.574412
-0.570833
-0.567501
-0.565979
-0.565689
-0.565464
-0.563967
-0.559888
-0.551801
-0.53814
-0.517295
-0.486534
-0.583522
-0.584524
-0.575189
-0.567186
-0.561285
-0.5549
-0.550188
-0.546638
-0.543302
-0.539196
-0.533341
-0.524625
-0.51177
-0.493521
-0.466992
-0.579167
-0.575838
-0.566115
-0.557237
-0.549442
-0.542312
-0.536185
-0.530754
-0.525455
-0.51959
-0.512392
-0.502989
-0.490341
-0.473402
-0.449584
-0.57082
-0.565923
-0.556446
-0.546584
-0.538519
-0.531704
-0.524999
-0.518631
-0.512278
-0.505369
-0.497254
-0.487237
-0.474505
-0.458273
-0.436605
-0.556187
-0.551238
-0.542344
-0.532757
-0.525506
-0.519287
-0.51258
-0.506095
-0.499573
-0.492492
-0.484276
-0.474323
-0.461962
-0.446583
-0.426623
-0.539619
-0.535189
-0.527055
-0.518299
-0.511727
-0.505807
-0.499331
-0.493072
-0.486735
-0.479855
-0.471917
-0.462365
-0.450576
-0.435969
-0.417047
-0.525882
-0.521949
-0.51439
-0.506139
-0.499347
-0.493192
-0.487029
-0.481028
-0.474892
-0.468236
-0.460602
-0.451466
-0.44023
-0.426326
-0.408398
-0.515151
-0.51146
-0.504174
-0.495971
-0.488531
-0.482091
-0.476304
-0.470484
-0.464497
-0.458043
-0.450706
-0.442004
-0.4314
-0.418394
-0.401811
-0.505092
-0.501493
-0.494386
-0.486216
-0.478554
-0.472244
-0.46682
-0.461104
-0.455247
-0.448991
-0.441946
-0.433668
-0.423669
-0.411504
-0.39599
-0.494356
-0.490892
-0.484081
-0.476203
-0.46888
-0.463023
-0.457916
-0.452326
-0.446653
-0.440632
-0.433892
-0.426015
-0.416537
-0.405024
-0.390189
-0.483604
-0.480384
-0.473999
-0.466624
-0.459868
-0.454404
-0.449467
-0.444052
-0.438613
-0.43286
-0.426444
-0.418975
-0.410011
-0.399164
-0.385074
-0.474154
-0.471217
-0.465273
-0.458403
-0.452069
-0.446581
-0.441563
-0.436401
-0.431237
-0.425777
-0.419713
-0.412691
-0.404303
-0.394262
-0.381719
-0.466721
-0.464008
-0.458397
-0.451853
-0.445636
-0.439764
-0.43454
-0.429661
-0.424708
-0.419474
-0.413696
-0.407038
-0.399099
-0.389536
-0.377483
-0.460516
-0.457934
-0.452537
-0.446153
-0.439907
-0.433736
-0.428469
-0.423849
-0.419013
-0.413932
-0.408362
-0.401975
-0.394382
-0.385216
-0.373623
-0.454716
-0.452216
-0.446987
-0.440727
-0.43451
-0.428342
-0.423242
-0.418825
-0.414056
-0.409098
-0.403705
-0.397559
-0.39029
-0.381543
-0.370205
-0.448853
-0.446442
-0.441408
-0.435336
-0.429297
-0.423391
-0.418578
-0.414331
-0.409651
-0.404844
-0.39965
-0.393767
-0.386859
-0.378648
-0.368119
-0.443203
-0.440917
-0.436119
-0.430319
-0.424568
-0.419015
-0.414429
-0.410268
-0.405705
-0.401065
-0.396072
-0.390447
-0.383862
-0.376065
-0.36604
-0.438204
-0.436066
-0.431524
-0.426033
-0.420596
-0.415333
-0.410753
-0.406548
-0.402153
-0.397697
-0.392907
-0.387526
-0.381232
-0.373777
-0.364223
-0.434304
-0.432308
-0.428
-0.422788
-0.417588
-0.412455
-0.407653
-0.403317
-0.399129
-0.394844
-0.390244
-0.385101
-0.3791
-0.372008
-0.362974
-0.431429
-0.429541
-0.425416
-0.420406
-0.415336
-0.410206
-0.405155
-0.400743
-0.39676
-0.392595
-0.388148
-0.383203
-0.377452
-0.370655
-0.361942
-0.42927
-0.427454
-0.423467
-0.418592
-0.41358
-0.408423
-0.403255
-0.398881
-0.395056
-0.390957
-0.386623
-0.381836
-0.376294
-0.369773
-0.361493
-0.427446
-0.425683
-0.421812
-0.417044
-0.412088
-0.406956
-0.401841
-0.397599
-0.393888
-0.38983
-0.385587
-0.380922
-0.375542
-0.369221
-0.361158
-0.425817
-0.424106
-0.420352
-0.415701
-0.410837
-0.405805
-0.400855
-0.39678
-0.393151
-0.389139
-0.384991
-0.380459
-0.375274
-0.369253
-0.362092
-0.424336
-0.422687
-0.419064
-0.414558
-0.409839
-0.404975
-0.400244
-0.396308
-0.392725
-0.388779
-0.384729
-0.380322
-0.375303
-0.369444
-0.362633
-0.423218
-0.421644
-0.418164
-0.413828
-0.409288
-0.404616
-0.40008
-0.396167
-0.392553
-0.388692
-0.384737
-0.380434
-0.37554
-0.369748
-0.363321
-0.422629
-0.421134
-0.417797
-0.413641
-0.409287
-0.404793
-0.400384
-0.396357
-0.392654
-0.388919
-0.385064
-0.380867
-0.376098
-0.370363
-0.363742
-0.422775
-0.421353
-0.418147
-0.414153
-0.409953
-0.405579
-0.401206
-0.396984
-0.393187
-0.389596
-0.385827
-0.381729
-0.377089
-0.371507
-0.364752
-0.42352
-0.422158
-0.419063
-0.415206
-0.411122
-0.40682
-0.402439
-0.398073
-0.394259
-0.390822
-0.387146
-0.383188
-0.378755
-0.37356
-0.367661
-0.424809
-0.423495
-0.420495
-0.416746
-0.412743
-0.408479
-0.404082
-0.399661
-0.395893
-0.392569
-0.388942
-0.385067
-0.380714
-0.375558
-0.369399
-0.426484
-0.425207
-0.422288
-0.418627
-0.414689
-0.41046
-0.406079
-0.401698
-0.398025
-0.394784
-0.391192
-0.387383
-0.383099
-0.37803
-0.372523
-0.428518
-0.427276
-0.424434
-0.420857
-0.416984
-0.41281
-0.408487
-0.404215
-0.400663
-0.397495
-0.393957
-0.390249
-0.386113
-0.381212
-0.376159
-0.430875
-0.429668
-0.426904
-0.423414
-0.419622
-0.41553
-0.411306
-0.407181
-0.403745
-0.400628
-0.397139
-0.3935
-0.389443
-0.384551
-0.379163
-0.433575
-0.432409
-0.42973
-0.426341
-0.422649
-0.418671
-0.414575
-0.410606
-0.407241
-0.404141
-0.400706
-0.397127
-0.393148
-0.388389
-0.382991
-0.436844
-0.435719
-0.433126
-0.429838
-0.426257
-0.422398
-0.418433
-0.41459
-0.411215
-0.408087
-0.404742
-0.401263
-0.397428
-0.392978
-0.388423
-0.440661
-0.439581
-0.437072
-0.433894
-0.430431
-0.4267
-0.422856
-0.419099
-0.41563
-0.412434
-0.409177
-0.405743
-0.401917
-0.397344
-0.392442
-0.44524
-0.444202
-0.441773
-0.438696
-0.435339
-0.431709
-0.427942
-0.424203
-0.420581
-0.417296
-0.414111
-0.410681
-0.406841
-0.402161
-0.397343
-0.450464
-0.449464
-0.44711
-0.444131
-0.440875
-0.43734
-0.433634
-0.429897
-0.426158
-0.422841
-0.419748
-0.416356
-0.412597
-0.408014
-0.403131
-0.456691
-0.45572
-0.453428
-0.45052
-0.447332
-0.443839
-0.44014
-0.436359
-0.432525
-0.429193
-0.426157
-0.422768
-0.419048
-0.414532
-0.409412
-0.463454
-0.462509
-0.460273
-0.457437
-0.454313
-0.450874
-0.447198
-0.443415
-0.439571
-0.436282
-0.433301
-0.429926
-0.426254
-0.421867
-0.417127
-0.471134
-0.47021
-0.468025
-0.465243
-0.462163
-0.458742
-0.455063
-0.451256
-0.447413
-0.444143
-0.441156
-0.437731
-0.433994
-0.429464
-0.424085
-0.479341
-0.478435
-0.476299
-0.473571
-0.470541
-0.467163
-0.463516
-0.459741
-0.455959
-0.452744
-0.449764
-0.446333
-0.442632
-0.438279
-0.433851
-0.488525
-0.487636
-0.485543
-0.482856
-0.47986
-0.476497
-0.472859
-0.469088
-0.465339
-0.462119
-0.459073
-0.455544
-0.451681
-0.446941
-0.441047
-0.498212
-0.497342
-0.495296
-0.492662
-0.489717
-0.486404
-0.482818
-0.4791
-0.475415
-0.472185
-0.469057
-0.465417
-0.461373
-0.456349
-0.449675
-0.508878
-0.508029
-0.506031
-0.503449
-0.500554
-0.497286
-0.493747
-0.490073
-0.486438
-0.483165
-0.479972
-0.476335
-0.472332
-0.467581
-0.461057
-0.52037
-0.51954
-0.517588
-0.515059
-0.512223
-0.509016
-0.505546
-0.501938
-0.498361
-0.495029
-0.49179
-0.488235
-0.484351
-0.479992
-0.474156
-0.532732
-0.531924
-0.530019
-0.527547
-0.524768
-0.521617
-0.518201
-0.514628
-0.511045
-0.507554
-0.504159
-0.500514
-0.496356
-0.491471
-0.483841
-0.545958
-0.545172
-0.543311
-0.540894
-0.538173
-0.535076
-0.531706
-0.52815
-0.524534
-0.520873
-0.517347
-0.513691
-0.509484
-0.504777
-0.498967
-0.560048
-0.559284
-0.55747
-0.555114
-0.552453
-0.54942
-0.546097
-0.542557
-0.5389
-0.535091
-0.531454
-0.527748
-0.523367
-0.518242
-0.510446
-0.575314
-0.574572
-0.572801
-0.570497
-0.567886
-0.564894
-0.561591
-0.558034
-0.554309
-0.550364
-0.546623
-0.542836
-0.538297
-0.533123
-0.526373
-0.59155
-0.590832
-0.589105
-0.586865
-0.584312
-0.581384
-0.578118
-0.574571
-0.570804
-0.566777
-0.562954
-0.559047
-0.554257
-0.548603
-0.540314
-0.609348
-0.608654
-0.606972
-0.604787
-0.602281
-0.599394
-0.596141
-0.592575
-0.588748
-0.584638
-0.580705
-0.576603
-0.571462
-0.565297
-0.556272
-0.628696
-0.628026
-0.626389
-0.624264
-0.621814
-0.618985
-0.615767
-0.612221
-0.608378
-0.604241
-0.600238
-0.595974
-0.590557
-0.58403
-0.574445
-0.650241
-0.649597
-0.648007
-0.645941
-0.643542
-0.640765
-0.637576
-0.634041
-0.630178
-0.626013
-0.621919
-0.617456
-0.611715
-0.604728
-0.594261
-0.674376
-0.673753
-0.672207
-0.67019
-0.667836
-0.665094
-0.661924
-0.658387
-0.654492
-0.650269
-0.646022
-0.641261
-0.635058
-0.627425
-0.615613
-0.701511
-0.70091
-0.699407
-0.697442
-0.695133
-0.692431
-0.689278
-0.685731
-0.681778
-0.677444
-0.672943
-0.667749
-0.66091
-0.652463
-0.639255
-0.732662
-0.732079
-0.730615
-0.728679
-0.72639
-0.723674
-0.720481
-0.716839
-0.712736
-0.708163
-0.703245
-0.697438
-0.689787
-0.680374
-0.666244
-0.768105
-0.767532
-0.766102
-0.764194
-0.761921
-0.75919
-0.755946
-0.752181
-0.747858
-0.742913
-0.737344
-0.730605
-0.721689
-0.710515
-0.693712
-0.809387
-0.808822
-0.807413
-0.805498
-0.803189
-0.800349
-0.796935
-0.792872
-0.788118
-0.782514
-0.775926
-0.767804
-0.75709
-0.743484
-0.723544
-0.856994
-0.85643
-0.855042
-0.853118
-0.850767
-0.847807
-0.844185
-0.839753
-0.834421
-0.827918
-0.819951
-0.809995
-0.796958
-0.780356
-0.756638
-0.912599
-0.912039
-0.910663
-0.908709
-0.906267
-0.903103
-0.899142
-0.894141
-0.887947
-0.880152
-0.870291
-0.857842
-0.841654
-0.821085
-0.792236
-0.979838
-0.979272
-0.977903
-0.975882
-0.973265
-0.969745
-0.965195
-0.959245
-0.95163
-0.941762
-0.928991
-0.912773
-0.891906
-0.865755
-0.830605
-1.05661
-1.05605
-1.05466
-1.05256
-1.04974
-1.04585
-1.04063
-1.03357
-1.02419
-1.01168
-0.995105
-0.973829
-0.946553
-0.912682
-0.868384
-1.16655
-1.16599
-1.16462
-1.16229
-1.15881
-1.15363
-1.14627
-1.13595
-1.12188
-1.10298
-1.07819
-1.04698
-1.0084
-0.962568
-0.905801
-1.26722
-1.26664
-1.26503
-1.26241
-1.25853
-1.25272
-1.24418
-1.2318
-1.21427
-1.19004
-1.15758
-1.11635
-1.06581
-1.00726
-0.937972
-1.54886
-1.54863
-1.54671
-1.54202
-1.53283
-1.5177
-1.49483
-1.46236
-1.41863
-1.36279
-1.29525
-1.21859
-1.13591
-1.05175
-0.967177
-1.53034
-1.5289
-1.52942
-1.52354
-1.51331
-1.49825
-1.47672
-1.44665
-1.40591
-1.35307
-1.28789
-1.21265
-1.13048
-1.04587
-0.961492
-3.01606
-3.09297
-3.03298
-2.9508
-2.84732
-2.71263
-2.53986
-2.32987
-2.09015
-1.83571
-1.58678
-1.36531
-1.18553
-1.04829
-0.944835
15.7043
15.0433
14.2049
13.3902
12.5156
11.551
10.5169
9.44717
8.3793
7.35489
6.41513
5.59238
4.90205
4.33978
3.89948
6.75346
5.91972
5.95844
6.07402
6.12043
6.12115
6.09297
6.02351
5.89591
5.69844
5.42797
5.09287
4.7135
4.31712
3.94375
4.61447
4.30225
4.52068
4.5854
4.59241
4.59908
4.60724
4.60482
4.5851
4.54287
4.47122
4.36182
4.20772
4.00677
3.77654
4.00242
3.9973
4.21679
4.23769
4.24518
4.26003
4.27089
4.26769
4.24644
4.20395
4.13759
4.04564
3.92667
3.77823
3.60649
3.3726
3.65372
3.79108
3.79403
3.81593
3.84422
3.86897
3.88638
3.89352
3.88517
3.85547
3.7995
3.71435
3.59862
3.45751
3.4558
3.75635
3.74427
3.72316
3.72319
3.71861
3.70789
3.69376
3.67625
3.65299
3.62039
3.57391
3.5086
3.41957
3.30634
3.61447
3.70995
3.65582
3.65029
3.6436
3.6248
3.59844
3.56777
3.533
3.49347
3.44812
3.3951
3.33161
3.25361
3.15668
3.39455
3.40163
3.38364
3.39488
3.39342
3.38446
3.37023
3.35136
3.32741
3.29777
3.26147
3.2171
3.16289
3.09676
3.0146
3.10969
3.10444
3.10893
3.11927
3.12131
3.12171
3.11849
3.11127
3.09982
3.08364
3.06162
3.03219
2.99353
2.9443
2.88423
2.88418
2.88382
2.89306
2.9002
2.90446
2.90863
2.90975
2.90761
2.90217
2.89303
2.87932
2.85971
2.83247
2.79601
2.75062
2.69948
2.70281
2.71203
2.71954
2.72575
2.73108
2.73408
2.73463
2.73255
2.72743
2.71855
2.70482
2.68469
2.65641
2.62078
2.53882
2.54364
2.5528
2.56189
2.56903
2.57444
2.57852
2.58083
2.58106
2.57885
2.57361
2.56436
2.54975
2.528
2.50052
2.40097
2.40605
2.415
2.42447
2.43129
2.43641
2.44102
2.44425
2.44583
2.44549
2.44279
2.43696
2.42691
2.41105
2.39148
2.28192
2.28663
2.29494
2.30374
2.30978
2.31459
2.31936
2.32296
2.32519
2.3259
2.32472
2.32107
2.31402
2.30201
2.28633
2.17457
2.1787
2.1863
2.19431
2.20009
2.20497
2.20972
2.21343
2.21602
2.21733
2.2171
2.21479
2.20963
2.20016
2.18711
2.07433
2.07807
2.08523
2.09297
2.09933
2.10467
2.10931
2.1131
2.11598
2.1178
2.11834
2.11718
2.11372
2.10691
2.09829
1.98101
1.98459
1.99158
1.99941
2.00643
2.01207
2.01653
2.02046
2.02364
2.0259
2.02709
2.02687
2.02475
2.01977
2.01384
1.89561
1.89913
1.90596
1.91375
1.92088
1.92636
1.93062
1.93469
1.93805
1.94061
1.94223
1.94264
1.94137
1.93741
1.93244
1.81778
1.82115
1.82768
1.83514
1.84188
1.84696
1.85105
1.85516
1.85861
1.86134
1.86325
1.86413
1.8636
1.86076
1.85748
1.74585
1.74896
1.75506
1.76203
1.76824
1.77303
1.77709
1.78117
1.78462
1.78744
1.78957
1.79083
1.79093
1.78908
1.78724
1.67771
1.68054
1.68623
1.69274
1.69861
1.70356
1.70782
1.7118
1.71521
1.71808
1.72036
1.72191
1.72251
1.72142
1.72059
1.61232
1.61494
1.62034
1.62658
1.63241
1.63781
1.64234
1.64616
1.64956
1.65248
1.65488
1.65665
1.65762
1.65711
1.65684
1.54988
1.5524
1.55762
1.56374
1.56966
1.57539
1.58001
1.58369
1.58712
1.59013
1.59264
1.59458
1.59583
1.59575
1.59575
1.49093
1.49338
1.49845
1.50449
1.5104
1.51615
1.52065
1.52421
1.52771
1.53078
1.53339
1.53548
1.53695
1.53729
1.53799
1.43546
1.43783
1.44273
1.44861
1.45437
1.45989
1.46416
1.46765
1.47119
1.47429
1.47698
1.47922
1.48092
1.48162
1.48386
1.38301
1.38526
1.38994
1.39556
1.40106
1.40625
1.41032
1.41378
1.41731
1.42042
1.42317
1.42553
1.42745
1.42847
1.4313
1.33268
1.33478
1.33921
1.34454
1.34974
1.35465
1.35873
1.36227
1.36573
1.3688
1.37154
1.37393
1.37594
1.37703
1.37996
1.28377
1.28573
1.28993
1.29498
1.29995
1.30475
1.30906
1.31277
1.31611
1.31913
1.32185
1.32427
1.3264
1.32769
1.3311
1.23603
1.23789
1.24191
1.24676
1.25161
1.25643
1.26104
1.26489
1.26811
1.27111
1.27385
1.27633
1.27859
1.28009
1.28365
1.18962
1.19141
1.1953
1.20002
1.20483
1.2097
1.21448
1.21836
1.22147
1.2245
1.22726
1.22977
1.2321
1.23372
1.23699
1.14468
1.14642
1.1502
1.15484
1.15961
1.1645
1.16928
1.17307
1.17611
1.17916
1.18192
1.18441
1.1867
1.18814
1.19016
1.10133
1.10302
1.1067
1.11124
1.11594
1.12076
1.12542
1.12907
1.13207
1.13514
1.13791
1.14045
1.14283
1.14457
1.14568
1.05947
1.0611
1.06466
1.06908
1.07366
1.07834
1.08281
1.08634
1.08933
1.09243
1.09526
1.09789
1.10046
1.10272
1.104
1.01879
1.02036
1.02378
1.02804
1.03246
1.03696
1.04123
1.0447
1.04772
1.05081
1.05363
1.0563
1.0589
1.06142
1.06153
0.978872
0.980358
0.983642
0.98772
0.99196
0.996273
1.00039
1.00394
1.00705
1.01005
1.01281
1.01541
1.01789
1.0205
1.02043
0.939481
0.940891
0.944043
0.947953
0.952026
0.956197
0.960258
0.96399
0.967215
0.970113
0.972831
0.975416
0.977871
0.980641
0.981826
0.900541
0.901888
0.904925
0.908695
0.912643
0.916739
0.920815
0.924748
0.928058
0.930857
0.93356
0.93614
0.938577
0.941281
0.942146
0.862084
0.863382
0.866326
0.869987
0.873854
0.87792
0.882035
0.886093
0.889415
0.89213
0.894828
0.89738
0.899757
0.902287
0.903105
0.824154
0.825416
0.828283
0.831863
0.835678
0.839735
0.843881
0.847974
0.851262
0.853943
0.85668
0.859275
0.861755
0.864458
0.865198
0.786821
0.788053
0.790852
0.794363
0.798133
0.802172
0.80631
0.810363
0.81359
0.816266
0.819058
0.82171
0.824293
0.827268
0.8279
0.75004
0.751243
0.753973
0.757414
0.761129
0.765122
0.769208
0.773165
0.776315
0.778991
0.781817
0.7845
0.787111
0.790191
0.791091
0.713729
0.714899
0.717555
0.720916
0.724556
0.728472
0.732467
0.736299
0.739382
0.742066
0.744906
0.747607
0.750225
0.753288
0.754286
0.677744
0.678876
0.681454
0.684724
0.688271
0.692086
0.69597
0.699682
0.702753
0.705483
0.70833
0.711061
0.713746
0.716919
0.717684
0.641939
0.643029
0.645525
0.648694
0.652134
0.655835
0.659604
0.663224
0.666366
0.669188
0.672025
0.674792
0.67757
0.680991
0.68211
0.606118
0.607166
0.609581
0.612647
0.615978
0.619567
0.623239
0.626812
0.630093
0.633018
0.635804
0.638568
0.641333
0.644802
0.646332
0.570194
0.571202
0.573541
0.576508
0.579736
0.583226
0.586829
0.590395
0.593828
0.596829
0.599534
0.602273
0.604965
0.608235
0.609853
0.534083
0.535056
0.537327
0.540209
0.543354
0.546775
0.550349
0.553946
0.557516
0.560571
0.563235
0.566012
0.56876
0.572069
0.573829
0.497807
0.498751
0.500963
0.503773
0.506854
0.510231
0.513801
0.517444
0.52111
0.524202
0.526878
0.529755
0.53266
0.536235
0.538476
0.461269
0.462189
0.46435
0.467102
0.470135
0.473486
0.477065
0.480748
0.484459
0.487565
0.490276
0.493259
0.496307
0.500134
0.502649
0.424425
0.425325
0.427439
0.430138
0.433129
0.436456
0.440034
0.44373
0.447435
0.450528
0.453274
0.456339
0.459504
0.463809
0.468287
0.387169
0.38805
0.390118
0.392768
0.395719
0.399016
0.402578
0.406255
0.409912
0.412964
0.415719
0.418806
0.421893
0.425693
0.432949
0.34948
0.350341
0.352362
0.354961
0.357868
0.361126
0.364651
0.368287
0.371876
0.374892
0.37767
0.380813
0.384016
0.387372
0.395377
0.311277
0.312117
0.314091
0.316635
0.319491
0.3227
0.326176
0.329759
0.333282
0.336295
0.339129
0.342332
0.345729
0.348924
0.356567
0.272452
0.273268
0.275192
0.277678
0.280476
0.283627
0.287043
0.290568
0.29404
0.297105
0.300048
0.30334
0.307006
0.310554
0.31861
0.232814
0.233605
0.235477
0.237901
0.240636
0.24372
0.24707
0.250536
0.253975
0.257141
0.260213
0.263557
0.267354
0.270991
0.278821
0.192177
0.192942
0.194763
0.197123
0.19979
0.202804
0.206087
0.209504
0.212937
0.21625
0.219468
0.222863
0.226808
0.230663
0.237942
0.150357
0.151097
0.152868
0.155165
0.157767
0.160717
0.163948
0.167344
0.170815
0.174321
0.177723
0.181232
0.185423
0.189782
0.197592
0.10715
0.107868
0.109591
0.111831
0.114376
0.117276
0.120475
0.123885
0.127439
0.131164
0.13478
0.138493
0.143053
0.148058
0.156838
0.0622969
0.0629927
0.064673
0.0668605
0.0693565
0.0722176
0.0754055
0.0788538
0.0825164
0.0864489
0.0902747
0.0942282
0.0991802
0.104755
0.114138
0.0154903
0.0161671
0.0178071
0.0199482
0.0224033
0.0252388
0.0284309
0.0319351
0.0357158
0.0398357
0.0438682
0.0480991
0.0534869
0.0597303
0.0701979
-0.0335831
-0.0329238
-0.0313213
-0.0292216
-0.0267986
-0.0239769
-0.0207656
-0.0171911
-0.013282
-0.00898006
-0.00471619
-0.000139433
0.00576008
0.0127118
0.0247578
-0.0852736
-0.0846305
-0.0830641
-0.0810019
-0.0786046
-0.0757879
-0.0725461
-0.0688906
-0.0648425
-0.0603496
-0.0558125
-0.0508119
-0.0443052
-0.0366458
-0.023009
-0.140057
-0.13943
-0.137898
-0.13587
-0.133491
-0.130668
-0.12738
-0.123624
-0.119411
-0.114685
-0.10979
-0.104233
-0.0969204
-0.088322
-0.0727768
-0.198498
-0.197887
-0.196391
-0.194394
-0.192028
-0.189188
-0.185838
-0.181958
-0.177537
-0.172507
-0.167131
-0.160841
-0.152474
-0.142644
-0.125654
-0.261443
-0.260848
-0.259387
-0.257417
-0.255052
-0.252176
-0.248732
-0.244675
-0.239967
-0.234503
-0.228437
-0.22112
-0.211267
-0.199373
-0.179524
-0.329853
-0.329275
-0.32785
-0.325905
-0.323531
-0.320599
-0.317025
-0.312732
-0.307634
-0.301572
-0.294559
-0.285872
-0.274136
-0.259724
-0.23668
-0.40541
-0.404851
-0.403463
-0.401535
-0.399133
-0.396103
-0.392328
-0.387684
-0.38202
-0.375093
-0.366746
-0.356197
-0.341995
-0.324375
-0.297371
-0.48952
-0.48898
-0.487625
-0.485702
-0.483245
-0.480069
-0.476007
-0.470867
-0.464403
-0.456247
-0.446024
-0.432884
-0.415284
-0.39326
-0.360778
-0.586819
-0.586295
-0.584974
-0.583024
-0.580427
-0.576941
-0.572322
-0.566271
-0.558398
-0.548161
-0.534926
-0.517795
-0.495167
-0.466898
-0.427143
-0.696156
-0.695646
-0.694322
-0.6923
-0.68951
-0.685635
-0.680318
-0.673102
-0.663384
-0.650357
-0.633035
-0.610417
-0.580813
-0.54387
-0.491812
-0.841264
-0.840766
-0.839473
-0.837226
-0.833761
-0.828579
-0.821082
-0.810517
-0.795956
-0.776295
-0.75032
-0.717221
-0.675777
-0.626782
-0.561445
-0.982089
-0.981579
-0.980044
-0.977459
-0.973532
-0.967556
-0.958646
-0.945661
-0.927162
-0.901499
-0.866986
-0.822842
-0.768286
-0.705788
-0.628223
-1.30762
-1.30737
-1.30544
-1.30065
-1.29122
-1.2756
-1.25193
-1.21821
-1.17265
-1.11421
-1.04315
-0.961887
-0.873187
-0.782658
-0.687758
-1.34301
-1.34171
-1.34235
-1.3363
-1.3256
-1.30957
-1.28641
-1.25382
-1.2095
-1.15181
-1.08036
-0.997381
-0.905709
-0.810564
-0.715366
-2.89024
-2.96671
-2.90614
-2.82298
-2.7175
-2.57932
-2.40146
-2.18462
-1.93657
-1.67268
-1.41375
-1.1824
-0.992135
-0.84228
-0.72381
0.339688
1.28619
-0.3768
0.0162978
0.106597
-0.536539
0.125086
1.92829
0.560648
0.337256
0.0829622
1.26729
0.472555
-0.100192
0.0219168
1.49089
-0.152469
-2.21196
-0.300341
0.268337
1.21469
0.498893
1.552
2.43316
1.87409
0.0417752
1.18034
-0.157151
-6.76911
0.369177
-0.557184
-0.259591
1.74334
0.797623
1.45383
0.462514
-0.890109
0.916716
1.93477
0.888141
-0.340819
0.716957
1.02872
0.759786
0.17893
0.740544
0.610464
1.78478
1.00618
0.166169
0.0182574
2.70773
0.906281
3.43635
0.680533
1.2178
0.696868
0.751277
1.69214
-1.24227
0.27123
1.48016
1.39967
0.185186
4.72208
0.422728
2.00156
1.20302
0.532122
0.335154
-0.353703
1.02451
0.388913
0.475699
1.05553
-0.313784
1.76709
1.41979
0.687559
0.706017
-0.192952
3.48513
0.329673
0.862536
0.465316
-0.335552
2.17798
0.464274
0.493839
-0.120381
1.07932
1.00565
0.521743
1.55597
0.0831156
0.692364
1.95746
1.21129
1.15069
-0.305525
-0.143711
0.920249
0.220324
0.57174
0.712842