/*--------------------------------*- C++ -*----------------------------------*\
| =========                 |                                                 |
| \\      /  F ield         | OpenFOAM: The Open Source CFD Toolbox           |
|  \\    /   O peration     | Version:  2.3.0                                 |
|   \\  /    A nd           | Web:      www.OpenFOAM.org                      |
|    \\/     M anipulation  |                                                 |
\*---------------------------------------------------------------------------*/
FoamFile
{
    version     2.0;
    format      ascii;
    class       volVectorField;
    location    "500";
    object      U;
}
// * * * * * * * * * * * * * * * * * * * * * * * * * * * * * * * * * * * * * //

dimensions      [0 1 -1 0 0 0 0];

internalField   nonuniform List<vector> 
7994
(
(20.0799 0.144108 -3.80784e-23)
(20.0824 0.157764 -4.34948e-22)
(20.0856 0.17375 1.90889e-21)
(20.0898 0.192647 -1.43864e-21)
(20.0946 0.214028 -1.02352e-20)
(20.0994 0.237002 2.52704e-20)
(20.103 0.260487 -1.47597e-20)
(20.1043 0.283453 0)
(20.1022 0.305048 0)
(20.0961 0.324627 -1.67875e-20)
(20.0855 0.341753 1.55521e-20)
(20.0702 0.35615 -1.9727e-20)
(20.0502 0.367562 1.81435e-20)
(20.0252 0.373129 0)
(19.9961 0.375712 0)
(20.0658 0.142201 0)
(20.0634 0.150844 0)
(20.0597 0.159166 0)
(20.0545 0.16751 -3.76899e-21)
(20.0481 0.176051 7.8314e-21)
(20.0408 0.184859 7.04126e-22)
(20.0327 0.193841 -9.86508e-21)
(20.0242 0.202758 5.07998e-21)
(20.0154 0.211285 -7.1905e-21)
(20.0064 0.219082 -1.49144e-21)
(19.9973 0.225856 1.66901e-20)
(19.9881 0.23138 -1.34523e-20)
(19.9789 0.235504 4.63639e-21)
(19.97 0.238116 0)
(19.9616 0.239109 1.10972e-35)
(20.0562 0.1405 0)
(20.0532 0.147765 0)
(20.0498 0.154767 8.24109e-21)
(20.0459 0.16132 -8.0661e-21)
(20.0414 0.167246 -1.05588e-20)
(20.0364 0.172398 -1.46202e-21)
(20.0309 0.176706 -1.42108e-21)
(20.0249 0.180161 1.1741e-20)
(20.0186 0.182791 0)
(20.0121 0.184642 0)
(20.0056 0.185765 0)
(19.9991 0.186216 0)
(19.9927 0.186051 0)
(19.9865 0.185329 0)
(19.9806 0.184103 0)
(20.0483 0.135972 0)
(20.0445 0.140878 -4.24142e-21)
(20.0402 0.145443 4.19244e-21)
(20.0356 0.149516 0)
(20.0308 0.153112 -1.06644e-20)
(20.0258 0.156209 1.02447e-20)
(20.0208 0.1588 -1.16564e-20)
(20.0158 0.160882 2.31854e-20)
(20.0109 0.162465 -5.31691e-21)
(20.0061 0.163569 -5.92708e-21)
(20.0014 0.164217 0)
(19.9969 0.164438 0)
(19.9925 0.164267 0)
(19.9884 0.163736 -1.70782e-21)
(19.9845 0.162876 1.67238e-21)
(20.043 0.131757 0)
(20.0394 0.135269 0)
(20.0357 0.138557 5.28276e-21)
(20.0318 0.141365 4.63526e-22)
(20.0278 0.143731 -5.45679e-21)
(20.0238 0.145662 -6.16042e-21)
(20.0198 0.147178 5.94606e-21)
(20.0158 0.1483 0)
(20.0118 0.149057 0)
(20.008 0.149474 0)
(20.0042 0.149579 0)
(20.0005 0.149397 0)
(19.997 0.14895 -3.63395e-21)
(19.9936 0.148264 3.5585e-21)
(19.9903 0.147356 -6.71899e-36)
(20.0391 0.127607 0)
(20.0357 0.130061 -2.62451e-21)
(20.0322 0.132387 2.58879e-21)
(20.0288 0.134321 0)
(20.0253 0.135919 0)
(20.0218 0.137196 6.27949e-21)
(20.0184 0.138172 -1.25781e-20)
(20.015 0.138865 -3.39686e-22)
(20.0117 0.139293 -3.26125e-22)
(20.0084 0.139472 -3.12879e-22)
(20.0053 0.139419 6.85491e-21)
(20.0022 0.139147 0)
(19.9992 0.138672 0)
(19.9963 0.138007 -1.91948e-21)
(19.9935 0.137165 1.90914e-21)
(20.0361 0.123957 0)
(20.0332 0.125682 0)
(20.0302 0.127355 0)
(20.0272 0.128737 0)
(20.0242 0.12986 0)
(20.0212 0.130736 0)
(20.0182 0.131382 0)
(20.0153 0.131809 0)
(20.0124 0.132031 0)
(20.0096 0.132057 0)
(20.0069 0.131897 0)
(20.0042 0.131561 0)
(20.0015 0.131057 0)
(19.999 0.130393 0)
(19.9965 0.129578 0)
(20.0342 0.120506 -1.3463e-21)
(20.0315 0.121866 1.34909e-21)
(20.0289 0.123102 0)
(20.0262 0.124122 0)
(20.0235 0.124939 0)
(20.0209 0.125563 0)
(20.0183 0.126006 -6.80628e-21)
(20.0157 0.126276 6.73455e-21)
(20.0131 0.126379 0)
(20.0106 0.126322 0)
(20.0081 0.12611 -3.8463e-21)
(20.0057 0.125746 3.83645e-21)
(20.0033 0.125236 0)
(20.001 0.124585 0)
(19.9987 0.123799 3.85396e-36)
(20.0327 0.117379 1.3751e-21)
(20.0303 0.118574 -1.39584e-21)
(20.0279 0.119528 0)
(20.0256 0.120309 0)
(20.0232 0.120923 0)
(20.0208 0.121381 -3.36199e-21)
(20.0185 0.121689 6.80817e-21)
(20.0161 0.121856 -7.03671e-21)
(20.0138 0.121883 -1.29908e-22)
(20.0115 0.121773 3.69847e-21)
(20.0093 0.121528 3.95538e-21)
(20.007 0.12115 -3.96159e-21)
(20.0049 0.120639 2.11001e-21)
(20.0027 0.12 -1.02769e-21)
(20.0006 0.119235 -1.09337e-21)
(20.0315 0.114847 0)
(20.0294 0.115814 0)
(20.0273 0.116535 0)
(20.0252 0.117136 3.1991e-21)
(20.023 0.117602 -3.17783e-21)
(20.0209 0.117941 0)
(20.0188 0.118156 0)
(20.0166 0.11825 3.64499e-21)
(20.0145 0.118225 -3.64774e-21)
(20.0123 0.118082 -3.90315e-21)
(20.0103 0.117818 5.93677e-21)
(20.0082 0.117434 -2.02865e-21)
(20.0061 0.116927 0)
(20.0041 0.116298 1.11522e-21)
(20.0022 0.11555 -1.12196e-21)
(20.0307 0.11258 -7.31244e-22)
(20.0288 0.113419 2.2469e-21)
(20.0269 0.113987 -1.50965e-21)
(20.025 0.114459 3.23386e-21)
(20.023 0.114821 -3.22123e-21)
(20.021 0.115074 3.44684e-21)
(20.0191 0.115221 -3.4464e-21)
(20.0171 0.115265 0)
(20.0151 0.115203 0)
(20.0131 0.115034 -1.97646e-21)
(20.0111 0.11476 1.98732e-21)
(20.0092 0.114375 0)
(20.0072 0.113875 0)
(20.0054 0.113255 0)
(20.0035 0.11252 0)
(20.03 0.110673 0)
(20.0283 0.111351 0)
(20.0266 0.111806 -1.58017e-21)
(20.0248 0.112181 3.20192e-21)
(20.0231 0.11247 -1.62441e-21)
(20.0212 0.11266 0)
(20.0194 0.112756 0)
(20.0175 0.112763 0)
(20.0156 0.112671 1.91776e-21)
(20.0137 0.112483 -1.92878e-21)
(20.0119 0.112202 -2.05548e-21)
(20.01 0.111822 2.06948e-21)
(20.0082 0.11133 0)
(20.0064 0.110719 0)
(20.0047 0.109989 0)
(20.0295 0.109073 0)
(20.0279 0.109555 0)
(20.0264 0.109922 1.59031e-21)
(20.0248 0.110215 -1.58476e-21)
(20.0231 0.110456 -1.6839e-21)
(20.0214 0.110614 3.42097e-21)
(20.0197 0.11067 -1.74029e-21)
(20.0179 0.110649 1.8527e-21)
(20.0161 0.11053 -1.86217e-21)
(20.0143 0.110322 0)
(20.0125 0.110039 2.05064e-21)
(20.0107 0.109667 -2.06455e-21)
(20.009 0.109186 1.09621e-21)
(20.0073 0.108584 -1.10336e-21)
(20.0056 0.107844 0)
(20.0291 0.107527 0)
(20.0276 0.107951 0)
(20.0262 0.108291 0)
(20.0247 0.108497 -1.68411e-21)
(20.0232 0.108712 3.38793e-21)
(20.0216 0.108875 -1.63067e-21)
(20.0199 0.108891 0)
(20.0182 0.108849 0)
(20.0165 0.108712 0)
(20.0148 0.108474 0)
(20.013 0.108182 0)
(20.0112 0.107817 1.04522e-21)
(20.0096 0.107349 -1.04769e-21)
(20.008 0.106783 -2.73358e-22)
(20.0064 0.106026 2.80543e-22)
(19.9517 0.341598 0)
(19.9083 0.326645 0)
(19.8721 0.308064 3.59997e-20)
(19.8433 0.291874 -3.91854e-20)
(19.8226 0.274509 4.31422e-20)
(19.8101 0.255351 -4.66132e-20)
(19.8058 0.234407 0)
(19.8087 0.211941 0)
(19.8176 0.188391 -1.08288e-19)
(19.8309 0.164462 2.20948e-19)
(19.8465 0.141119 -1.11154e-19)
(19.8628 0.119459 -5.2611e-20)
(19.8783 0.100448 1.01612e-19)
(19.8927 0.084689 -2.53279e-20)
(19.9058 0.0711327 -2.18725e-20)
(19.9537 0.238542 -1.11315e-35)
(19.9463 0.235957 0)
(19.9393 0.230909 9.92883e-21)
(19.9328 0.223539 -3.39988e-20)
(19.9268 0.213947 5.20303e-20)
(19.9215 0.202351 1.51807e-21)
(19.917 0.189104 -3.29081e-20)
(19.9133 0.174692 3.74293e-20)
(19.9106 0.159701 -8.0004e-20)
(19.909 0.144743 1.46238e-22)
(19.9085 0.130356 8.72531e-20)
(19.9094 0.116899 -4.4486e-20)
(19.9119 0.104499 0)
(19.916 0.0931233 0)
(19.9217 0.0818408 0)
(19.9748 0.182432 0)
(19.9689 0.18023 0)
(19.963 0.177373 0)
(19.957 0.173842 0)
(19.9513 0.169599 0)
(19.9458 0.164614 0)
(19.9407 0.158868 0)
(19.9363 0.152353 2.7695e-20)
(19.9327 0.14507 5.99876e-22)
(19.9301 0.137041 4.96418e-22)
(19.9286 0.128318 -3.34005e-20)
(19.9284 0.119014 -3.50346e-20)
(19.9293 0.109316 3.57933e-20)
(19.9314 0.0995086 0)
(19.9345 0.0892982 0)
(19.9807 0.161703 1.8313e-21)
(19.9769 0.160154 -1.87421e-21)
(19.9731 0.158151 0)
(19.9692 0.15566 0)
(19.9655 0.15264 0)
(19.9618 0.149057 -1.05971e-20)
(19.9583 0.144884 -1.17842e-20)
(19.955 0.140103 4.85397e-20)
(19.9521 0.134714 -2.57597e-20)
(19.9495 0.128734 2.80814e-20)
(19.9474 0.122204 -2.92374e-20)
(19.9459 0.115194 0)
(19.9451 0.107792 1.58685e-20)
(19.9451 0.100103 -1.60531e-20)
(19.946 0.091817 0)
(19.9871 0.146235 6.73185e-36)
(19.9839 0.144864 4.10101e-21)
(19.9807 0.143198 -4.18836e-21)
(19.9776 0.141218 0)
(19.9744 0.138898 0)
(19.9713 0.136216 0)
(19.9683 0.133146 0)
(19.9655 0.129667 0)
(19.9628 0.125757 1.20863e-20)
(19.9605 0.121401 -1.25241e-20)
(19.9584 0.11659 -1.34091e-20)
(19.9568 0.111329 -1.66985e-22)
(19.9556 0.105639 1.43213e-20)
(19.955 0.0995556 0)
(19.955 0.0928321 0)
(19.9908 0.136147 2.03828e-21)
(19.9882 0.134928 -2.05304e-21)
(19.9855 0.133479 0)
(19.9828 0.131787 0)
(19.9802 0.129838 9.60164e-21)
(19.9777 0.127616 2.52976e-22)
(19.9752 0.125104 2.49153e-22)
(19.9728 0.122288 2.4269e-22)
(19.9706 0.11915 -2.27955e-20)
(19.9685 0.115675 1.18302e-20)
(19.9666 0.111852 0)
(19.965 0.107674 0)
(19.9637 0.103146 6.74159e-21)
(19.9628 0.0982836 -6.83469e-21)
(19.9622 0.0929459 0)
(19.9941 0.128613 0)
(19.9917 0.12748 0)
(19.9893 0.126161 0)
(19.987 0.12465 0)
(19.9847 0.122937 0)
(19.9824 0.121014 0)
(19.9803 0.11887 0)
(19.9782 0.116495 0)
(19.9762 0.113877 0)
(19.9744 0.111003 0)
(19.9727 0.107861 0)
(19.9712 0.104439 0)
(19.9699 0.100725 0)
(19.9689 0.0967095 0)
(19.9682 0.0922593 0)
(19.9965 0.122879 -3.85998e-36)
(19.9944 0.121812 0)
(19.9922 0.120588 0)
(19.9901 0.119202 4.81431e-21)
(19.988 0.117652 -4.82682e-21)
(19.986 0.115931 0)
(19.9841 0.114034 0)
(19.9822 0.111956 1.06923e-20)
(19.9805 0.10969 -1.08067e-20)
(19.9788 0.107227 0)
(19.9773 0.104559 0)
(19.9759 0.101676 0)
(19.9747 0.0985686 0)
(19.9737 0.0952336 3.13275e-21)
(19.9729 0.0916184 -3.16023e-21)
(19.9986 0.118346 -1.15379e-21)
(19.9966 0.117328 -1.20731e-21)
(19.9946 0.116173 2.35081e-21)
(19.9926 0.11488 -4.91164e-21)
(19.9907 0.113448 4.90403e-21)
(19.9889 0.111873 5.11053e-21)
(19.9871 0.110155 9.82761e-23)
(19.9854 0.108291 -1.05566e-20)
(19.9839 0.106278 1.07951e-20)
(19.9824 0.104114 -5.48207e-21)
(19.981 0.101793 0)
(19.9797 0.0993067 0)
(19.9786 0.0966491 0)
(19.9776 0.0938218 -3.03228e-21)
(19.9767 0.0907966 3.04278e-21)
(20.0003 0.114686 -1.18149e-21)
(19.9984 0.113705 1.17597e-21)
(19.9965 0.112604 0)
(19.9947 0.111383 -2.49215e-21)
(19.9929 0.110041 7.54621e-21)
(19.9912 0.108576 -5.04708e-21)
(19.9896 0.10699 -5.22676e-21)
(19.988 0.105285 5.22291e-21)
(19.9866 0.103462 0)
(19.9852 0.10152 0)
(19.9839 0.0994578 -5.59837e-21)
(19.9828 0.0972701 5.63592e-21)
(19.9817 0.0949518 0)
(19.9808 0.0925027 0)
(19.98 0.0898874 0)
(20.0017 0.111674 0)
(19.9999 0.110723 0)
(19.9981 0.109666 0)
(19.9964 0.108503 0)
(19.9947 0.107233 2.5453e-21)
(19.9931 0.105853 -2.53141e-21)
(19.9916 0.104368 0)
(19.9902 0.102783 0)
(19.9888 0.101104 -5.36094e-21)
(19.9875 0.0993342 5.36171e-21)
(19.9863 0.0974707 -5.51653e-21)
(19.9853 0.0955132 5.53819e-21)
(19.9843 0.0934584 -2.84459e-21)
(19.9834 0.0913081 4.30457e-21)
(19.9826 0.0890476 -1.449e-21)
(20.0029 0.109157 0)
(20.0011 0.108233 0)
(19.9994 0.107213 0)
(19.9978 0.106101 2.5094e-21)
(19.9962 0.104889 -2.49245e-21)
(19.9947 0.103572 -2.57e-21)
(19.9933 0.102165 2.55535e-21)
(19.9919 0.100674 0)
(19.9906 0.0991088 0)
(19.9895 0.0974747 0)
(19.9884 0.0957671 -2.71981e-21)
(19.9874 0.0939911 5.48144e-21)
(19.9865 0.0921446 -2.76651e-21)
(19.9857 0.0902222 0)
(19.9849 0.0882162 0)
(20.0039 0.107025 0)
(20.0022 0.106129 -1.21215e-21)
(20.0006 0.105144 1.20433e-21)
(19.999 0.104079 -2.49036e-21)
(19.9975 0.102904 2.47357e-21)
(19.9961 0.101637 0)
(19.9947 0.10029 -2.57099e-21)
(19.9934 0.0988725 2.55797e-21)
(19.9922 0.0974034 -2.62159e-21)
(19.9911 0.0958815 5.26443e-21)
(19.9901 0.0942964 -2.64763e-21)
(19.9891 0.0926698 -2.71109e-21)
(19.9883 0.0909976 2.72053e-21)
(19.9875 0.0892659 0)
(19.9869 0.0875154 0)
(20.0047 0.105238 3.02208e-22)
(20.0031 0.104364 -2.99381e-22)
(20.0015 0.10339 -1.2204e-21)
(19.9999 0.102374 1.17174e-21)
(19.9986 0.101227 0)
(19.9972 0.100014 0)
(19.996 0.0987011 0)
(19.9947 0.0973201 0)
(19.9936 0.095937 0)
(19.9925 0.0945038 -2.61937e-21)
(19.9915 0.0930003 5.33528e-21)
(19.9906 0.0915083 -2.67854e-21)
(19.9899 0.0899793 0)
(19.9892 0.0883538 0)
(19.9885 0.0868115 0)
(20.0678 0.0100026 -9.03317e-21)
(20.027 0.00721196 1.01194e-20)
(19.954 0.00403172 0)
(19.8316 0.000126081 0)
(19.6418 -0.00467304 0)
(19.3752 -0.010348 0)
(19.031 -0.0168365 -3.88645e-22)
(18.613 -0.0241733 4.31608e-22)
(18.1247 -0.0323028 0)
(17.5652 -0.041109 0)
(16.9234 -0.0508539 -1.4542e-20)
(16.168 -0.0616688 1.72028e-20)
(15.229 -0.075365 -2.72545e-21)
(13.9912 -0.0653832 3.44534e-21)
(12.6281 -0.0790663 1.36739e-22)
(20.0658 0.00791347 0)
(20.0301 0.00566391 -2.20538e-20)
(19.9694 0.00273051 2.43193e-20)
(19.8709 -0.00150658 0)
(19.7206 -0.0074057 0)
(19.5083 -0.0147561 0)
(19.2294 -0.0231111 0)
(18.8823 -0.0320146 6.37115e-20)
(18.4656 -0.0410716 -7.0595e-20)
(17.9738 -0.0500335 8.76484e-20)
(17.3923 -0.0591868 3.05249e-21)
(16.6867 -0.0686792 -1.19419e-19)
(15.7938 -0.0805528 7.43863e-20)
(14.6639 -0.0763772 -4.61315e-20)
(13.5878 -0.0484697 -6.05726e-20)
(20.0643 0.00382066 0)
(20.0331 0.000119355 0)
(19.9816 -0.00450385 3.04135e-20)
(19.9 -0.0102007 -3.31424e-20)
(19.7769 -0.016836 -4.34177e-20)
(19.6024 -0.0239494 -3.34616e-21)
(19.3694 -0.0311506 -2.81554e-21)
(19.073 -0.038239 6.32207e-20)
(18.7078 -0.0451836 0)
(18.265 -0.0520984 0)
(17.7264 -0.0595074 0)
(17.0557 -0.0675254 0)
(16.1959 -0.076159 0)
(15.1291 -0.0725708 0)
(14.1668 -0.0346165 0)
(20.0611 0.000549135 0)
(20.032 -0.00344949 -1.15171e-20)
(19.9857 -0.00801892 1.24859e-20)
(19.9147 -0.0132013 0)
(19.8098 -0.0189079 -3.21437e-20)
(19.662 -0.0248993 3.47393e-20)
(19.463 -0.0309932 -3.8359e-20)
(19.2053 -0.0371125 8.35583e-20)
(18.8804 -0.043287 -2.28219e-20)
(18.4763 -0.0496609 -2.53491e-20)
(17.9717 -0.0567182 0)
(17.3286 -0.0645955 0)
(16.4935 -0.0718064 0)
(15.463 -0.0676163 -1.17918e-20)
(14.5497 -0.0288583 1.43237e-20)
(20.0572 -0.00113009 0)
(20.0299 -0.00474554 0)
(19.9882 -0.00876319 1.11534e-20)
(19.9261 -0.0132759 1.37524e-22)
(19.8361 -0.0182716 1.20283e-22)
(19.7098 -0.0236147 -2.8314e-20)
(19.5381 -0.0291624 1.53159e-20)
(19.3117 -0.034831 -1.67782e-20)
(19.0199 -0.0406408 -8.62163e-23)
(18.6478 -0.0467459 2.01258e-20)
(18.1718 -0.0535841 0)
(17.5523 -0.061349 0)
(16.7372 -0.0679251 -1.50279e-20)
(15.7293 -0.0632385 1.77948e-20)
(14.8398 -0.0257378 0)
(20.054 -0.0023767 0)
(20.0288 -0.00555662 0)
(19.9914 -0.0092069 1.05285e-20)
(19.9369 -0.0133028 -2.26992e-20)
(19.8589 -0.0178094 2.47231e-20)
(19.7494 -0.0226441 2.19976e-22)
(19.5994 -0.027712 -2.92902e-20)
(19.3982 -0.0329602 1.58732e-20)
(19.1334 -0.0384275 -1.74915e-20)
(18.7881 -0.044287 3.83002e-20)
(18.3365 -0.0509359 -2.11819e-20)
(17.7376 -0.0585694 0)
(16.9392 -0.0648581 0)
(15.9465 -0.0599161 0)
(15.0693 -0.023712 0)
(20.0513 -0.00313802 0)
(20.0279 -0.00607546 0)
(19.9941 -0.00951453 0)
(19.9457 -0.013292 0)
(19.877 -0.0174022 0)
(19.7806 -0.0218314 0)
(19.6475 -0.0265381 0)
(19.4666 -0.0314972 0)
(19.2241 -0.0367523 0)
(18.9014 -0.0424745 0)
(18.471 -0.049019 0)
(17.8903 -0.056545 0)
(17.1061 -0.0626691 0)
(16.1243 -0.0575782 0)
(15.2534 -0.0223013 0)
(20.0489 -0.00378019 0)
(20.0269 -0.00633497 4.34157e-21)
(19.996 -0.00954864 -4.57205e-21)
(19.9524 -0.0130852 9.94096e-21)
(19.891 -0.0169404 1.74124e-22)
(19.8051 -0.0211359 -2.28043e-20)
(19.6856 -0.0256568 -2.28992e-22)
(19.5213 -0.0304884 -2.61505e-22)
(19.2974 -0.0356665 2.19539e-20)
(18.9941 -0.0413453 1.72629e-22)
(18.5823 -0.0478431 -8.89996e-21)
(18.0177 -0.0552787 1.02878e-20)
(17.2461 -0.0612702 -1.74193e-20)
(16.2724 -0.0560451 6.74094e-21)
(15.4045 -0.0213528 0)
(20.0463 -0.00364236 1.92431e-21)
(20.0259 -0.00618887 -2.0226e-21)
(19.9974 -0.00934046 0)
(19.9578 -0.0127601 0)
(19.9023 -0.0165133 0)
(19.8247 -0.0206448 -5.23466e-21)
(19.7163 -0.0251488 1.12321e-20)
(19.5656 -0.0300091 -1.22889e-20)
(19.3574 -0.0352453 -2.30118e-22)
(19.0709 -0.0409881 7.3995e-21)
(18.6754 -0.0475041 0)
(18.1254 -0.054832 0)
(17.3651 -0.0606023 5.62469e-21)
(16.3983 -0.0551184 -3.14012e-21)
(15.5318 -0.0206498 -3.66317e-21)
(20.044 -0.00371647 0)
(20.0248 -0.00601049 0)
(19.9985 -0.00900185 0)
(19.9621 -0.0123342 4.11535e-21)
(19.9114 -0.0160668 -4.30387e-21)
(19.8405 -0.0202466 0)
(19.7411 -0.024873 0)
(19.6018 -0.0299151 5.70616e-21)
(19.4071 -0.0353642 -6.06415e-21)
(19.1352 -0.0413146 -7.22038e-21)
(18.7546 -0.0480101 1.1896e-20)
(18.218 -0.0554391 -4.48585e-21)
(17.4683 -0.0611304 0)
(16.5072 -0.0552958 3.20557e-21)
(15.6409 -0.0206678 -3.60092e-21)
(20.0419 -0.00306637 0)
(20.0238 -0.00549464 0)
(19.9992 -0.00844707 0)
(19.9653 -0.0117421 3.67627e-21)
(19.9184 -0.015533 4.25731e-23)
(19.8529 -0.0199019 -8.20277e-21)
(19.7607 -0.0248463 4.3639e-21)
(19.6307 -0.03029 0)
(19.4473 -0.0361509 0)
(19.1879 -0.0425677 -3.41438e-21)
(18.82 -0.049713 3.65546e-21)
(18.2956 -0.0572267 0)
(17.5563 -0.0625366 0)
(16.6016 -0.0560029 0)
(15.7361 -0.0204758 0)
(20.0401 -0.00268237 0)
(20.0229 -0.00485166 1.57643e-21)
(19.9997 -0.00764922 -3.19857e-21)
(19.968 -0.0108171 1.62939e-21)
(19.9243 -0.0145699 0)
(19.8632 -0.0190541 0)
(19.7773 -0.0244139 3.73214e-21)
(19.6556 -0.0304846 -3.91616e-21)
(19.4825 -0.0368657 0)
(19.2346 -0.0436013 -2.94447e-21)
(18.8796 -0.0516065 -4.37939e-22)
(18.3673 -0.0609208 1.57488e-21)
(17.6374 -0.0671983 2.47646e-21)
(16.6866 -0.059839 -1.75092e-21)
(15.8202 -0.0234892 1.94151e-21)
(20.0382 -0.00177199 0)
(20.0216 -0.00403866 0)
(19.9998 -0.00673947 0)
(19.9698 -0.00975972 0)
(19.9279 -0.0135945 0)
(19.8695 -0.0184216 1.42166e-21)
(19.7865 -0.0245056 -1.47991e-21)
(19.6705 -0.0318078 0)
(19.5053 -0.0389484 0)
(19.2657 -0.046444 0)
(18.9148 -0.0555412 0)
(18.4102 -0.0657073 -2.44067e-21)
(17.6976 -0.0719714 2.64837e-21)
(16.76 -0.0624744 0)
(15.895 -0.0230029 0)
(20.037 -0.000677947 0)
(20.0216 -0.00288201 0)
(20.0015 -0.00547579 0)
(19.9728 -0.00785962 -1.07777e-21)
(19.9342 -0.0110699 1.99328e-21)
(19.8812 -0.0150101 -9.09843e-22)
(19.8059 -0.0212653 0)
(19.6969 -0.0305193 0)
(19.5453 -0.0382264 0)
(19.316 -0.0435075 0)
(18.9927 -0.0531023 0)
(18.4964 -0.0744144 0)
(17.7839 -0.0853103 0)
(16.8342 -0.0722014 -1.04356e-21)
(15.9623 -0.0410423 1.14946e-21)
(12.686 0.0859629 -2.92474e-22)
(14.0907 0.0699684 4.8471e-21)
(15.3416 0.0796026 -3.56392e-21)
(16.286 0.0659528 1.96872e-20)
(17.0444 0.0553648 -1.66489e-20)
(17.6875 0.0458637 0)
(18.2459 0.0373346 0)
(18.7301 0.029552 6.44082e-21)
(19.1404 0.0226647 -5.80035e-21)
(19.4732 0.0167498 0)
(19.7252 0.0117726 0)
(19.8983 0.00784552 0)
(20.005 0.004899 0)
(20.0647 0.00273995 8.00888e-21)
(20.0944 0.000943641 -7.2067e-21)
(13.6344 0.0581198 -6.02134e-20)
(14.7622 0.0838778 -4.55431e-20)
(15.9101 0.0875629 7.37199e-20)
(16.8086 0.0757201 -1.17648e-19)
(17.5159 0.0665023 3.48297e-21)
(18.0968 0.0576095 8.59957e-20)
(18.5854 0.0488993 -6.81916e-20)
(18.9962 0.0401172 6.15494e-20)
(19.3342 0.0315492 0)
(19.601 0.0236168 0)
(19.799 0.0167947 0)
(19.9343 0.0115744 0)
(20.0188 0.00810407 2.04376e-20)
(20.0676 0.00597248 -1.85363e-20)
(20.0932 0.00443678 0)
(14.2106 0.0464117 0)
(15.2274 0.0825942 0)
(16.3147 0.0855239 0)
(17.1801 0.07688 0)
(17.851 0.0691522 0)
(18.3872 0.0620316 0)
(18.8252 0.0553778 0)
(19.1828 0.0486825 6.04081e-20)
(19.4691 0.0418554 -3.32185e-21)
(19.6898 0.0349467 -3.84798e-21)
(19.8507 0.0281884 -4.03118e-20)
(19.9601 0.0220205 -2.9392e-20)
(20.0293 0.0168883 2.69648e-20)
(20.0701 0.0128882 0)
(20.0921 0.00978174 0)
(14.5933 0.0423449 1.41882e-20)
(15.5623 0.0795907 -1.16614e-20)
(16.6143 0.083052 0)
(17.4546 0.0758082 0)
(18.0966 0.0682138 0)
(18.5972 0.0614483 -2.42332e-20)
(18.9949 0.0553288 -2.13929e-20)
(19.311 0.0493798 7.8671e-20)
(19.558 0.0434792 -3.59051e-20)
(19.7447 0.0376179 3.16218e-20)
(19.8796 0.0319049 -2.92494e-20)
(19.9721 0.0265568 0)
(20.032 0.0218077 1.06307e-20)
(20.0686 0.0177211 -9.80679e-21)
(20.0893 0.0142284 0)
(14.8838 0.0405596 0)
(15.8298 0.0766989 1.74188e-20)
(16.8596 0.0806469 -1.47226e-20)
(17.6793 0.0740312 0)
(18.2964 0.066543 0)
(18.7669 0.0599975 1.90402e-20)
(19.1313 0.05414 -2.85092e-22)
(19.4134 0.0485401 -1.56874e-20)
(19.6285 0.0430685 1.39195e-20)
(19.7882 0.0377302 -2.55138e-20)
(19.9025 0.0326371 3.23454e-22)
(19.9812 0.0279494 3.44227e-22)
(20.0332 0.0237906 9.56703e-21)
(20.0661 0.0201536 0)
(20.0857 0.016975 0)
(15.114 0.0396107 0)
(16.0484 0.0745473 0)
(17.0629 0.0787689 0)
(17.865 0.0724475 0)
(18.4604 0.0650936 -2.01926e-20)
(18.9052 0.0587423 3.63236e-20)
(19.2416 0.0531292 -1.64986e-20)
(19.496 0.0478661 1.45798e-20)
(19.6857 0.0428072 -2.66883e-20)
(19.8241 0.0379392 4.14025e-22)
(19.9222 0.033336 2.17178e-20)
(19.9899 0.0290973 -1.95036e-20)
(20.0351 0.0252893 8.93837e-21)
(20.0645 0.0219259 0)
(20.0826 0.0190658 0)
(15.2987 0.039107 0)
(16.2274 0.0731712 0)
(17.2308 0.0775606 0)
(18.0178 0.0714137 0)
(18.5939 0.0641765 0)
(19.0164 0.0579397 0)
(19.3293 0.0524713 0)
(19.5609 0.0474265 0)
(19.7302 0.0426628 0)
(19.852 0.0381587 0)
(19.9377 0.0339515 0)
(19.9968 0.0300798 0)
(20.0368 0.0265462 0)
(20.0631 0.0233405 0)
(20.08 0.0206124 0)
(15.4505 0.038824 0)
(16.3767 0.072378 6.58635e-21)
(17.3715 0.0769533 -1.69211e-20)
(18.1451 0.0709784 9.96875e-21)
(18.704 0.0638582 -8.43635e-21)
(19.107 0.0576875 2.68475e-22)
(19.3998 0.0522795 2.03195e-20)
(19.6123 0.0473296 -4.58023e-22)
(19.7651 0.04271 -4.27608e-22)
(19.8736 0.0384002 -1.99808e-20)
(19.9495 0.0344175 3.75786e-22)
(20.0019 0.030768 8.39832e-21)
(20.0377 0.0274197 -3.64616e-21)
(20.0616 0.0243387 3.46135e-21)
(20.0773 0.0217067 0)
(15.5785 0.0388004 -3.62117e-21)
(16.5038 0.0721131 -3.03967e-21)
(17.4915 0.0769421 5.49983e-21)
(18.2529 0.0711926 0)
(18.7962 0.0642088 0)
(19.1818 0.0580642 6.90258e-21)
(19.4572 0.0526349 -3.27532e-22)
(19.6537 0.047663 -1.11405e-20)
(19.793 0.0430474 9.95204e-21)
(19.8907 0.0387792 -4.5805e-21)
(19.9588 0.0348631 0)
(20.0058 0.031292 0)
(20.0381 0.0280262 0)
(20.06 0.025018 -1.50116e-21)
(20.0747 0.0224484 1.4441e-21)
(15.6879 0.0387633 -3.58017e-21)
(16.6131 0.0725368 3.17997e-21)
(17.5946 0.0779331 0)
(18.3448 0.0724272 -4.34746e-21)
(18.8739 0.0654325 1.14271e-20)
(19.2441 0.0591453 -6.90322e-21)
(19.5044 0.0535279 -5.56346e-21)
(19.6873 0.0483875 5.23516e-21)
(19.8153 0.0436486 0)
(19.9043 0.0392807 0)
(19.966 0.0352971 -3.4533e-21)
(20.0087 0.031694 3.30223e-21)
(20.0382 0.0284338 0)
(20.0585 0.0254731 0)
(20.0723 0.0230114 0)
(15.7852 0.0396712 0)
(16.7106 0.0740032 0)
(17.6851 0.0798473 0)
(18.4239 0.0744326 0)
(18.9396 0.0674118 3.47205e-21)
(19.2959 0.0608849 -3.24421e-21)
(19.543 0.0549249 0)
(19.7146 0.0494478 0)
(19.8332 0.0443764 3.68074e-21)
(19.915 0.0397619 -6.75949e-21)
(19.9716 0.0355964 1.82933e-22)
(20.0108 0.0318817 2.81337e-21)
(20.038 0.0285853 0)
(20.0569 0.025635 0)
(20.07 0.0231889 0)
(15.8671 0.0389036 2.01932e-21)
(16.7916 0.0772716 -1.81712e-21)
(17.7598 0.0847434 2.54289e-21)
(18.4905 0.0787514 1.65882e-21)
(18.9954 0.070654 -5.39664e-22)
(19.3389 0.0632198 -2.97969e-21)
(19.5748 0.0564335 0)
(19.7361 0.0504507 -3.5484e-21)
(19.8468 0.045187 3.38174e-21)
(19.9231 0.0401866 0)
(19.9755 0.0357028 0)
(20.0121 0.0318191 1.10536e-21)
(20.0375 0.0284496 -2.12584e-21)
(20.0553 0.0255458 1.02631e-21)
(20.0678 0.0232119 0)
(15.9613 0.0442563 0)
(16.8839 0.0855606 0)
(17.8347 0.0902901 2.23364e-21)
(18.5512 0.0808667 -2.05956e-21)
(19.0414 0.0735966 0)
(19.3739 0.0659352 0)
(19.5995 0.0581762 0)
(19.7551 0.0521247 0)
(19.8591 0.0457924 -1.05766e-21)
(19.9297 0.0401145 1.01608e-21)
(19.9791 0.0353184 0)
(20.0131 0.0312839 0)
(20.0371 0.0279588 0)
(20.0541 0.0251074 0)
(20.0662 0.0229406 0)
(16.0003 0.0290398 1.60757e-21)
(16.9117 0.0970116 -1.453e-21)
(17.8517 0.104644 0)
(18.5908 0.0884107 0)
(19.0868 0.0792913 0)
(19.4009 0.0681839 0)
(19.626 0.0582085 0)
(19.7671 0.0517104 0)
(19.861 0.0471874 0)
(19.933 0.0401596 -6.50642e-22)
(19.9785 0.0348513 1.2699e-21)
(20.0132 0.0305681 -6.23261e-22)
(20.0355 0.0271651 0)
(20.0523 0.0244698 0)
(20.0637 0.02287 0)
(19.3998 0.140123 0)
(19.9632 0.0879945 0)
(20.0667 0.102063 0)
(20.1199 0.11164 0)
(20.1499 0.121258 0)
(20.166 0.129996 0)
(20.1723 0.138205 0)
(20.1712 0.145544 0)
(20.1644 0.151459 0)
(20.1534 0.155281 0)
(20.14 0.15642 0)
(20.1262 0.154609 0)
(20.1134 0.150083 0)
(20.1027 0.143608 0)
(20.0945 0.135341 0)
(17.5777 -0.261775 0)
(19.9021 0.196318 0)
(19.957 0.109284 0)
(20.0018 0.10011 0)
(20.042 0.103504 0)
(20.074 0.108528 0)
(20.0982 0.113229 0)
(20.1152 0.117708 0)
(20.1256 0.121829 0)
(20.1301 0.125321 0)
(20.1294 0.127903 0)
(20.1248 0.129292 0)
(20.1178 0.129238 0)
(20.1097 0.127712 0)
(20.1018 0.123866 0)
(15.6917 -0.145244 -1.25347e-37)
(19.8867 0.217298 0)
(19.9827 0.107397 0)
(19.997 0.108733 0)
(20.0258 0.111508 0)
(20.0538 0.112544 0)
(20.0773 0.113325 0)
(20.0954 0.114496 0)
(20.1082 0.115817 0)
(20.116 0.117004 0)
(20.1193 0.117846 0)
(20.1188 0.118194 0)
(20.1155 0.117942 0)
(20.1104 0.117137 0)
(20.1043 0.114861 0)
(14.168 -0.0585626 0)
(19.7478 0.146174 0)
(20.0176 0.0697381 0)
(20.0275 0.0868371 0)
(20.0434 0.0897871 0)
(20.0633 0.0907835 0)
(20.082 0.0921869 0)
(20.0972 0.0943657 0)
(20.1083 0.0969593 0)
(20.1151 0.0997111 0)
(20.118 0.102361 0)
(20.1178 0.104628 0)
(20.115 0.106254 0)
(20.1107 0.107201 0)
(20.1054 0.106729 0)
(14.0825 0.0388746 0)
(19.1299 0.0244549 0)
(19.8707 0.0355352 0)
(19.9964 0.0620108 0)
(20.0304 0.0660523 0)
(20.0514 0.068684 0)
(20.0695 0.0717323 0)
(20.0851 0.0753578 0)
(20.0974 0.0793372 0)
(20.106 0.0835317 0)
(20.111 0.087733 0)
(20.1128 0.0916741 0)
(20.1119 0.0950598 0)
(20.1091 0.0977444 0)
(20.105 0.0990552 0)
(14.7186 0.0719702 0)
(18.3395 -0.039536 0)
(19.5649 0.0331091 0)
(19.8972 0.0553483 0)
(19.9896 0.0606567 0)
(20.0259 0.0642273 0)
(20.0484 0.0672949 0)
(20.066 0.0703673 0)
(20.0804 0.0736695 0)
(20.0915 0.0772406 0)
(20.0993 0.0809605 0)
(20.1039 0.0846417 0)
(20.1057 0.0880542 0)
(20.1052 0.0910499 0)
(20.103 0.0931013 0)
(15.0763 0.0320826 4.74952e-36)
(17.8268 -0.0253791 0)
(19.2435 0.0398722 0)
(19.7644 0.0552668 0)
(19.9379 0.0635894 0)
(20.0022 0.0681571 0)
(20.0332 0.0708285 0)
(20.0534 0.0728232 0)
(20.0689 0.0748215 0)
(20.0811 0.077046 0)
(20.0903 0.079496 0)
(20.0964 0.0820779 0)
(20.0999 0.0846404 0)
(20.1011 0.0870574 0)
(20.1004 0.089027 0)
(15.1221 0.00748686 0)
(17.5317 0.0012365 0)
(18.9711 0.0394468 0)
(19.6213 0.0537743 0)
(19.878 0.06502 0)
(19.9783 0.0706014 0)
(20.0226 0.0734085 0)
(20.047 0.0750087 0)
(20.0635 0.0762946 0)
(20.0759 0.0776385 0)
(20.0853 0.0791628 0)
(20.0919 0.0808617 0)
(20.0961 0.0826503 0)
(20.0981 0.0844136 0)
(20.0984 0.0860278 0)
(14.9898 0.00275831 -9.29161e-36)
(17.3319 0.0153585 0)
(18.7495 0.0363781 0)
(19.4801 0.0516947 0)
(19.8096 0.0639618 0)
(19.9489 0.0703306 0)
(20.0105 0.0737051 0)
(20.0414 0.0754844 0)
(20.0599 0.0766073 0)
(20.0728 0.0775714 0)
(20.0823 0.0786082 0)
(20.0891 0.0797853 0)
(20.0935 0.0810778 0)
(20.096 0.0823944 0)
(20.0969 0.0837727 0)
(14.8048 0.0037963 -9.4251e-36)
(17.1504 0.0191615 0)
(18.561 0.0340209 0)
(19.3466 0.0494852 0)
(19.7364 0.0615882 0)
(19.9137 0.0686468 0)
(19.9948 0.072715 0)
(20.0343 0.0749095 0)
(20.0562 0.0761536 0)
(20.0701 0.0770266 0)
(20.0799 0.0778408 0)
(20.0869 0.0787253 0)
(20.0916 0.0797056 0)
(20.0943 0.0807181 0)
(20.0955 0.081845 0)
(14.621 0.00467052 0)
(16.9708 0.0186381 0)
(18.3922 0.0321085 0)
(19.22 0.0468968 0)
(19.6608 0.0586708 0)
(19.8744 0.0663756 0)
(19.976 0.0710518 0)
(20.0257 0.0737047 0)
(20.0519 0.0751986 0)
(20.0675 0.0761389 0)
(20.0779 0.0768888 0)
(20.0851 0.0776261 0)
(20.09 0.0784157 0)
(20.0929 0.0792201 0)
(20.0944 0.0801198 0)
(14.4533 0.00473134 9.42327e-36)
(16.7968 0.0170066 0)
(18.2352 0.0301085 0)
(19.0977 0.044064 0)
(19.5837 0.0557125 0)
(19.8321 0.0639323 0)
(19.9546 0.0690744 0)
(20.0154 0.0721518 0)
(20.0469 0.0739333 0)
(20.0648 0.075013 0)
(20.0761 0.0757842 0)
(20.0836 0.0764639 0)
(20.0886 0.0771489 0)
(20.0918 0.0778285 0)
(20.0935 0.0785875 0)
(14.3023 0.00441717 0)
(16.6327 0.0154326 0)
(18.0863 0.0280819 0)
(18.9784 0.0413446 0)
(19.5053 0.0529771 0)
(19.7874 0.0615392 0)
(19.9309 0.0670387 0)
(20.0035 0.0704884 0)
(20.0411 0.0725497 0)
(20.0618 0.0737911 0)
(20.0742 0.074622 0)
(20.0822 0.0752905 0)
(20.0875 0.0759224 0)
(20.0908 0.0765339 0)
(20.0927 0.0772299 0)
(14.1645 0.00403662 1.8119e-35)
(16.4795 0.0141962 0)
(17.9441 0.026225 0)
(18.8618 0.0389114 0)
(19.4263 0.0505037 0)
(19.7409 0.0592685 0)
(19.9053 0.0650703 0)
(19.9902 0.0688414 0)
(20.0344 0.0711584 0)
(20.0583 0.0725627 0)
(20.0722 0.0734684 0)
(20.0808 0.074146 0)
(20.0864 0.0747462 0)
(20.09 0.0753071 0)
(20.092 0.0759238 0)
(14.0365 0.00371115 -1.77959e-35)
(16.3363 0.0132253 0)
(17.8086 0.0245619 0)
(18.7487 0.036691 0)
(19.3471 0.0481847 0)
(19.6928 0.0570852 0)
(19.8782 0.0631968 0)
(19.9757 0.0672466 0)
(20.027 0.0697934 0)
(20.0545 0.0713549 0)
(20.07 0.0723418 0)
(20.0794 0.0730388 0)
(20.0854 0.0736164 0)
(20.0891 0.0741312 0)
(20.0913 0.074674 0)
(13.9166 0.00345732 0)
(16.2022 0.0123582 0)
(17.6801 0.0230056 0)
(18.6396 0.0345703 0)
(19.2676 0.0459107 0)
(19.6431 0.0549579 0)
(19.8497 0.0614047 0)
(19.9602 0.0657011 0)
(20.0188 0.0684596 0)
(20.0503 0.0701746 0)
(20.0678 0.0712489 0)
(20.078 0.0719768 0)
(20.0844 0.0725456 0)
(20.0884 0.0730311 0)
(20.0908 0.0735458 0)
(13.8048 0.00324332 0)
(16.0768 0.0115121 0)
(17.5587 0.0215159 0)
(18.5346 0.032543 0)
(19.1879 0.0436886 0)
(19.5917 0.0529057 0)
(19.8198 0.0596719 0)
(19.9436 0.0641954 0)
(20.01 0.0671569 0)
(20.0457 0.0690239 0)
(20.0653 0.0701922 0)
(20.0766 0.0709618 0)
(20.0835 0.0715349 0)
(20.0877 0.0720029 0)
(20.0902 0.0724974 0)
(13.7008 0.00303915 1.70697e-35)
(15.9596 0.0107111 0)
(17.4438 0.0201315 0)
(18.4331 0.0306745 0)
(19.1083 0.0415995 0)
(19.5389 0.0509613 0)
(19.7886 0.0579957 0)
(19.926 0.0627346 0)
(20.0005 0.0658922 0)
(20.0407 0.0679081 0)
(20.0627 0.0691727 0)
(20.0751 0.0699902 0)
(20.0825 0.0705741 0)
(20.087 0.0710273 0)
(20.0897 0.0714972 0)
(13.604 0.00283922 -1.67945e-35)
(15.8498 0.0100114 0)
(17.3346 0.0189049 0)
(18.3348 0.0290118 0)
(19.0293 0.0396884 0)
(19.485 0.0491348 0)
(19.7562 0.0563767 0)
(19.9075 0.0613264 0)
(19.9903 0.0646722 0)
(20.0353 0.0668316 0)