# Forces     
# CofR       : (0.000000e+00 0.000000e+00 0.000000e+00)
# Time       forces(pressure viscous porous) moment(pressure viscous porous)
5.000000e+00	((-1.263750e+03 -2.528858e+03 1.066484e-17) (4.644172e-01 -1.317814e-01 -2.270299e-19) (0.000000e+00 0.000000e+00 0.000000e+00)) ((1.264429e+02 -6.318748e+01 -9.410182e+02) (6.589072e-03 2.322086e-02 -2.084826e-02) (0.000000e+00 0.000000e+00 0.000000e+00))
1.000000e+01	((-7.855144e+02 -1.559255e+03 5.392328e-18) (3.879147e-01 -2.212923e-01 -2.734136e-19) (0.000000e+00 0.000000e+00 0.000000e+00)) ((7.796276e+01 -3.927572e+01 -5.916078e+02) (1.106461e-02 1.939574e-02 -5.495755e-02) (0.000000e+00 0.000000e+00 0.000000e+00))
1.500000e+01	((-2.796830e+02 -5.463238e+02 1.068822e-18) (3.780565e-01 -2.080706e-01 -1.349707e-19) (0.000000e+00 0.000000e+00 0.000000e+00)) ((2.731619e+01 -1.398415e+01 -2.153383e+02) (1.040353e-02 1.890282e-02 -5.098292e-02) (0.000000e+00 0.000000e+00 0.000000e+00))
2.000000e+01	((-4.674890e+01 -8.305762e+01 -8.610975e-19) (3.781544e-01 -1.825300e-01 -3.020729e-20) (0.000000e+00 0.000000e+00 0.000000e+00)) ((4.152881e+00 -2.337445e+00 -4.037647e+01) (9.126499e-03 1.890772e-02 -4.200244e-02) (0.000000e+00 0.000000e+00 0.000000e+00))
2.500000e+01	((2.191918e+01 5.291653e+01 -1.605386e-18) (3.724573e-01 -1.659215e-01 1.074332e-20) (0.000000e+00 0.000000e+00 0.000000e+00)) ((-2.645826e+00 1.095959e+00 1.151727e+01) (8.296075e-03 1.862287e-02 -3.643998e-02) (0.000000e+00 0.000000e+00 0.000000e+00))
3.000000e+01	((2.624640e+01 6.236115e+01 -1.738786e-18) (3.623497e-01 -1.572362e-01 1.613767e-20) (0.000000e+00 0.000000e+00 0.000000e+00)) ((-3.118057e+00 1.312320e+00 1.432263e+01) (7.861811e-03 1.811748e-02 -3.392022e-02) (0.000000e+00 0.000000e+00 0.000000e+00))
3.500000e+01	((1.931572e+01 4.959686e+01 -1.716734e-18) (3.497545e-01 -1.519123e-01 1.328177e-20) (0.000000e+00 0.000000e+00 0.000000e+00)) ((-2.479843e+00 9.657858e-01 8.575808e+00) (7.595616e-03 1.748772e-02 -3.269651e-02) (0.000000e+00 0.000000e+00 0.000000e+00))
4.000000e+01	((1.528672e+01 4.215297e+01 -1.705610e-18) (3.366048e-01 -1.474066e-01 9.732506e-21) (0.000000e+00 0.000000e+00 0.000000e+00)) ((-2.107648e+00 7.643362e-01 5.247597e+00) (7.370332e-03 1.683024e-02 -3.177600e-02) (0.000000e+00 0.000000e+00 0.000000e+00))
4.500000e+01	((1.449599e+01 4.080128e+01 -1.728503e-18) (3.230305e-01 -1.428800e-01 9.511052e-21) (0.000000e+00 0.000000e+00 0.000000e+00)) ((-2.040064e+00 7.247993e-01 4.536423e+00) (7.144002e-03 1.615152e-02 -3.084120e-02) (0.000000e+00 0.000000e+00 0.000000e+00))
5.000000e+01	((1.501510e+01 4.199818e+01 -1.813677e-18) (3.098108e-01 -1.382451e-01 9.605491e-21) (0.000000e+00 0.000000e+00 0.000000e+00)) ((-2.099909e+00 7.507552e-01 4.839081e+00) (6.912255e-03 1.549054e-02 -2.983544e-02) (0.000000e+00 0.000000e+00 0.000000e+00))
5.500000e+01	((1.519338e+01 4.263945e+01 -1.840064e-18) (2.965636e-01 -1.336016e-01 1.024642e-20) (0.000000e+00 0.000000e+00 0.000000e+00)) ((-2.131972e+00 7.596689e-01 4.820862e+00) (6.680081e-03 1.482818e-02 -2.881797e-02) (0.000000e+00 0.000000e+00 0.000000e+00))
6.000000e+01	((1.541609e+01 4.340255e+01 -1.857998e-18) (2.835483e-01 -1.290225e-01 1.051051e-20) (0.000000e+00 0.000000e+00 0.000000e+00)) ((-2.170128e+00 7.708047e-01 4.818274e+00) (6.451126e-03 1.417742e-02 -2.781045e-02) (0.000000e+00 0.000000e+00 0.000000e+00))
6.500000e+01	((1.576313e+01 4.436050e+01 -1.870611e-18) (2.707664e-01 -1.245112e-01 1.098524e-20) (0.000000e+00 0.000000e+00 0.000000e+00)) ((-2.218025e+00 7.881566e-01 4.936881e+00) (6.225562e-03 1.353832e-02 -2.681071e-02) (0.000000e+00 0.000000e+00 0.000000e+00))
7.000000e+01	((1.607093e+01 4.528866e+01 -1.889387e-18) (2.583163e-01 -1.200895e-01 1.142266e-20) (0.000000e+00 0.000000e+00 0.000000e+00)) ((-2.264433e+00 8.035464e-01 5.000405e+00) (6.004473e-03 1.291582e-02 -2.583179e-02) (0.000000e+00 0.000000e+00 0.000000e+00))
7.500000e+01	((1.637717e+01 4.623125e+01 -1.893705e-18) (2.462348e-01 -1.157648e-01 1.188879e-20) (0.000000e+00 0.000000e+00 0.000000e+00)) ((-2.311562e+00 8.188585e-01 5.053460e+00) (5.788240e-03 1.231174e-02 -2.487889e-02) (0.000000e+00 0.000000e+00 0.000000e+00))
8.000000e+01	((1.668072e+01 4.714465e+01 -1.903953e-18) (2.345544e-01 -1.115392e-01 1.233218e-20) (0.000000e+00 0.000000e+00 0.000000e+00)) ((-2.357232e+00 8.340362e-01 5.117152e+00) (5.576961e-03 1.172772e-02 -2.395167e-02) (0.000000e+00 0.000000e+00 0.000000e+00))
8.500000e+01	((1.699531e+01 4.809100e+01 -1.911297e-18) (2.232723e-01 -1.074237e-01 1.282316e-20) (0.000000e+00 0.000000e+00 0.000000e+00)) ((-2.404550e+00 8.497653e-01 5.183282e+00) (5.371185e-03 1.116362e-02 -2.304623e-02) (0.000000e+00 0.000000e+00 0.000000e+00))
9.000000e+01	((1.731037e+01 4.904033e+01 -1.918938e-18) (2.124565e-01 -1.034399e-01 1.309742e-20) (0.000000e+00 0.000000e+00 0.000000e+00)) ((-2.452016e+00 8.655185e-01 5.248698e+00) (5.171993e-03 1.062283e-02 -2.217319e-02) (0.000000e+00 0.000000e+00 0.000000e+00))
9.500000e+01	((1.761751e+01 4.997044e+01 -1.930565e-18) (2.022789e-01 -9.968699e-02 1.361805e-20) (0.000000e+00 0.000000e+00 0.000000e+00)) ((-2.498522e+00 8.808757e-01 5.310008e+00) (4.984350e-03 1.011395e-02 -2.135018e-02) (0.000000e+00 0.000000e+00 0.000000e+00))
1.000000e+02	((1.792066e+01 5.088746e+01 -1.940628e-18) (1.927717e-01 -9.620090e-02 1.405984e-20) (0.000000e+00 0.000000e+00 0.000000e+00)) ((-2.544373e+00 8.960332e-01 5.371041e+00) (4.810045e-03 9.638587e-03 -2.058621e-02) (0.000000e+00 0.000000e+00 0.000000e+00))
1.050000e+02	((1.821359e+01 5.177892e+01 -1.958429e-18) (1.837598e-01 -9.290010e-02 1.383205e-20) (0.000000e+00 0.000000e+00 0.000000e+00)) ((-2.588946e+00 9.106795e-01 5.427172e+00) (4.645005e-03 9.187991e-03 -1.986410e-02) (0.000000e+00 0.000000e+00 0.000000e+00))
1.100000e+02	((1.849648e+01 5.266086e+01 -1.980191e-18) (1.751223e-01 -8.972550e-02 1.393932e-20) (0.000000e+00 0.000000e+00 0.000000e+00)) ((-2.633043e+00 9.248241e-01 5.470225e+00) (4.486275e-03 8.756115e-03 -1.917107e-02) (0.000000e+00 0.000000e+00 0.000000e+00))
1.150000e+02	((1.875920e+01 5.348030e+01 -1.998668e-18) (1.669063e-01 -8.668878e-02 1.422156e-20) (0.000000e+00 0.000000e+00 0.000000e+00)) ((-2.674015e+00 9.379601e-01 5.510005e+00) (4.334439e-03 8.345313e-03 -1.850752e-02) (0.000000e+00 0.000000e+00 0.000000e+00))
1.200000e+02	((1.900067e+01 5.424637e+01 -2.024663e-18) (1.590835e-01 -8.379909e-02 1.433973e-20) (0.000000e+00 0.000000e+00 0.000000e+00)) ((-2.712319e+00 9.500336e-01 5.539713e+00) (4.189954e-03 7.954176e-03 -1.787442e-02) (0.000000e+00 0.000000e+00 0.000000e+00))
1.250000e+02	((1.921844e+01 5.495196e+01 -2.048698e-18) (1.516161e-01 -8.104652e-02 1.440020e-20) (0.000000e+00 0.000000e+00 0.000000e+00)) ((-2.747598e+00 9.609220e-01 5.558698e+00) (4.052326e-03 7.580805e-03 -1.727204e-02) (0.000000e+00 0.000000e+00 0.000000e+00))
1.300000e+02	((1.941250e+01 5.559614e+01 -2.073848e-18) (1.444317e-01 -7.840738e-02 1.437534e-20) (0.000000e+00 0.000000e+00 0.000000e+00)) ((-2.779807e+00 9.706248e-01 5.567439e+00) (3.920369e-03 7.221586e-03 -1.669437e-02) (0.000000e+00 0.000000e+00 0.000000e+00))
1.350000e+02	((1.958221e+01 5.617621e+01 -2.099683e-18) (1.374943e-01 -7.586329e-02 1.471267e-20) (0.000000e+00 0.000000e+00 0.000000e+00)) ((-2.808810e+00 9.791104e-01 5.566216e+00) (3.793164e-03 6.874715e-03 -1.613793e-02) (0.000000e+00 0.000000e+00 0.000000e+00))
1.400000e+02	((1.972788e+01 5.669253e+01 -2.123870e-18) (1.308152e-01 -7.341048e-02 1.673372e-20) (0.000000e+00 0.000000e+00 0.000000e+00)) ((-2.834627e+00 9.863942e-01 5.555397e+00) (3.670524e-03 6.540758e-03 -1.560292e-02) (0.000000e+00 0.000000e+00 0.000000e+00))
1.450000e+02	((1.984887e+01 5.714142e+01 -2.147208e-18) (1.243728e-01 -7.104916e-02 1.735332e-20) (0.000000e+00 0.000000e+00 0.000000e+00)) ((-2.857071e+00 9.924437e-01 5.535776e+00) (3.552458e-03 6.218638e-03 -1.508813e-02) (0.000000e+00 0.000000e+00 0.000000e+00))
1.500000e+02	((1.994866e+01 5.753370e+01 -2.172430e-18) (1.181469e-01 -6.877633e-02 1.924933e-20) (0.000000e+00 0.000000e+00 0.000000e+00)) ((-2.876685e+00 9.974329e-01 5.507876e+00) (3.438816e-03 5.907347e-03 -1.459291e-02) (0.000000e+00 0.000000e+00 0.000000e+00))
1.550000e+02	((2.002926e+01 5.787379e+01 -2.199149e-18) (1.121500e-01 -6.659141e-02 2.102941e-20) (0.000000e+00 0.000000e+00 0.000000e+00)) ((-2.893689e+00 1.001463e+00 5.473023e+00) (3.329570e-03 5.607500e-03 -1.411816e-02) (0.000000e+00 0.000000e+00 0.000000e+00))
1.600000e+02	((2.009034e+01 5.815707e+01 -2.225879e-18) (1.063526e-01 -6.448646e-02 2.531488e-20) (0.000000e+00 0.000000e+00 0.000000e+00)) ((-2.907853e+00 1.004517e+00 5.433045e+00) (3.224323e-03 5.317631e-03 -1.366180e-02) (0.000000e+00 0.000000e+00 0.000000e+00))
1.650000e+02	((2.013287e+01 5.838352e+01 -2.251994e-18) (1.007376e-01 -6.245913e-02 2.922382e-20) (0.000000e+00 0.000000e+00 0.000000e+00)) ((-2.919176e+00 1.006643e+00 5.389712e+00) (3.122957e-03 5.036879e-03 -1.322177e-02) (0.000000e+00 0.000000e+00 0.000000e+00))
1.700000e+02	((2.016123e+01 5.856530e+01 -2.277779e-18) (9.534953e-02 -6.051350e-02 3.218511e-20) (0.000000e+00 0.000000e+00 0.000000e+00)) ((-2.928265e+00 1.008061e+00 5.344481e+00) (3.025675e-03 4.767477e-03 -1.280145e-02) (0.000000e+00 0.000000e+00 0.000000e+00))
1.750000e+02	((2.017534e+01 5.870592e+01 -2.304550e-18) (9.016529e-02 -5.864283e-02 3.364160e-20) (0.000000e+00 0.000000e+00 0.000000e+00)) ((-2.935296e+00 1.008767e+00 5.295367e+00) (2.932142e-03 4.508265e-03 -1.239958e-02) (0.000000e+00 0.000000e+00 0.000000e+00))
1.800000e+02	((2.017926e+01 5.880952e+01 -2.333115e-18) (8.515344e-02 -5.684040e-02 3.655067e-20) (0.000000e+00 0.000000e+00 0.000000e+00)) ((-2.940476e+00 1.008963e+00 5.247469e+00) (2.842020e-03 4.257672e-03 -1.201397e-02) (0.000000e+00 0.000000e+00 0.000000e+00))
1.850000e+02	((2.017299e+01 5.887597e+01 -2.355606e-18) (8.031949e-02 -5.510898e-02 3.993310e-20) (0.000000e+00 0.000000e+00 0.000000e+00)) ((-2.943798e+00 1.008649e+00 5.200886e+00) (2.755449e-03 4.015974e-03 -1.164413e-02) (0.000000e+00 0.000000e+00 0.000000e+00))
1.900000e+02	((2.015794e+01 5.891466e+01 -2.382560e-18) (7.566174e-02 -5.344354e-02 4.439662e-20) (0.000000e+00 0.000000e+00 0.000000e+00)) ((-2.945733e+00 1.007897e+00 5.153180e+00) (2.672177e-03 3.783087e-03 -1.129075e-02) (0.000000e+00 0.000000e+00 0.000000e+00))
1.950000e+02	((2.013673e+01 5.892929e+01 -2.406817e-18) (7.119311e-02 -5.184721e-02 5.060444e-20) (0.000000e+00 0.000000e+00 0.000000e+00)) ((-2.946465e+00 1.006836e+00 5.107093e+00) (2.592360e-03 3.559656e-03 -1.095379e-02) (0.000000e+00 0.000000e+00 0.000000e+00))
2.000000e+02	((2.010972e+01 5.892084e+01 -2.429876e-18) (6.688196e-02 -5.030720e-02 5.715291e-20) (0.000000e+00 0.000000e+00 0.000000e+00)) ((-2.946042e+00 1.005486e+00 5.062792e+00) (2.515360e-03 3.344098e-03 -1.063206e-02) (0.000000e+00 0.000000e+00 0.000000e+00))
2.050000e+02	((2.007792e+01 5.889418e+01 -2.451733e-18) (6.272622e-02 -4.882594e-02 6.438423e-20) (0.000000e+00 0.000000e+00 0.000000e+00)) ((-2.944709e+00 1.003896e+00 5.019505e+00) (2.441297e-03 3.136311e-03 -1.032388e-02) (0.000000e+00 0.000000e+00 0.000000e+00))
2.100000e+02	((2.004318e+01 5.885551e+01 -2.472273e-18) (5.871480e-02 -4.740339e-02 6.362642e-20) (0.000000e+00 0.000000e+00 0.000000e+00)) ((-2.942776e+00 1.002159e+00 4.977262e+00) (2.370169e-03 2.935740e-03 -1.002699e-02) (0.000000e+00 0.000000e+00 0.000000e+00))
2.150000e+02	((2.000509e+01 5.880238e+01 -2.491013e-18) (5.484955e-02 -4.603067e-02 5.972312e-20) (0.000000e+00 0.000000e+00 0.000000e+00)) ((-2.940119e+00 1.000254e+00 4.936643e+00) (2.301533e-03 2.742478e-03 -9.742365e-03) (0.000000e+00 0.000000e+00 0.000000e+00))
2.200000e+02	((1.996559e+01 5.874451e+01 -2.507691e-18) (5.108938e-02 -4.469774e-02 3.637077e-20) (0.000000e+00 0.000000e+00 0.000000e+00)) ((-2.937226e+00 9.982797e-01 4.896005e+00) (2.234887e-03 2.554469e-03 -9.467013e-03) (0.000000e+00 0.000000e+00 0.000000e+00))
2.250000e+02	((1.992289e+01 5.867148e+01 -2.520705e-18) (4.757608e-02 -4.344757e-02 1.427771e-20) (0.000000e+00 0.000000e+00 0.000000e+00)) ((-2.933574e+00 9.961447e-01 4.857627e+00) (2.172378e-03 2.378804e-03 -9.204558e-03) (0.000000e+00 0.000000e+00 0.000000e+00))
2.300000e+02	((1.987981e+01 5.860086e+01 -2.531849e-18) (4.422704e-02 -4.225055e-02 -1.455599e-21) (0.000000e+00 0.000000e+00 0.000000e+00)) ((-2.930043e+00 9.939905e-01 4.817274e+00) (2.112527e-03 2.211352e-03 -8.952646e-03) (0.000000e+00 0.000000e+00 0.000000e+00))
2.350000e+02	((1.983332e+01 5.851274e+01 -2.540211e-18) (4.099919e-02 -4.106929e-02 -2.472156e-20) (0.000000e+00 0.000000e+00 0.000000e+00)) ((-2.925637e+00 9.916661e-01 4.780057e+00) (2.053465e-03 2.049959e-03 -8.714613e-03) (0.000000e+00 0.000000e+00 0.000000e+00))
2.400000e+02	((1.978586e+01 5.841031e+01 -2.547217e-18) (3.784397e-02 -3.990229e-02 -4.477512e-20) (0.000000e+00 0.000000e+00 0.000000e+00)) ((-2.920516e+00 9.892930e-01 4.748672e+00) (1.995115e-03 1.892199e-03 -8.485330e-03) (0.000000e+00 0.000000e+00 0.000000e+00))
2.450000e+02	((1.973367e+01 5.829941e+01 -2.548763e-18) (3.475827e-02 -3.875267e-02 -5.697895e-20) (0.000000e+00 0.000000e+00 0.000000e+00)) ((-2.914971e+00 9.866835e-01 4.713239e+00) (1.937633e-03 1.737913e-03 -8.263572e-03) (0.000000e+00 0.000000e+00 0.000000e+00))
2.500000e+02	((1.968450e+01 5.819508e+01 -2.546571e-18) (3.172401e-02 -3.761698e-02 -5.871686e-20) (0.000000e+00 0.000000e+00 0.000000e+00)) ((-2.909754e+00 9.842248e-01 4.679769e+00) (1.880849e-03 1.586200e-03 -8.047778e-03) (0.000000e+00 0.000000e+00 0.000000e+00))
2.550000e+02	((1.963556e+01 5.808984e+01 -2.541202e-18) (2.876171e-02 -3.650671e-02 -6.672416e-20) (0.000000e+00 0.000000e+00 0.000000e+00)) ((-2.904492e+00 9.817782e-01 4.647220e+00) (1.825336e-03 1.438086e-03 -7.837153e-03) (0.000000e+00 0.000000e+00 0.000000e+00))
2.600000e+02	((1.958792e+01 5.799111e+01 -2.532591e-18) (2.586384e-02 -3.539955e-02 -6.320200e-20) (0.000000e+00 0.000000e+00 0.000000e+00)) ((-2.899555e+00 9.793959e-01 4.613540e+00) (1.769978e-03 1.293192e-03 -7.635671e-03) (0.000000e+00 0.000000e+00 0.000000e+00))
2.650000e+02	((1.954141e+01 5.789493e+01 -2.520698e-18) (2.303564e-02 -3.432751e-02 -6.214994e-20) (0.000000e+00 0.000000e+00 0.000000e+00)) ((-2.894746e+00 9.770703e-01 4.580554e+00) (1.716375e-03 1.151782e-03 -7.436360e-03) (0.000000e+00 0.000000e+00 0.000000e+00))
2.700000e+02	((1.949753e+01 5.780764e+01 -2.506164e-18) (2.027603e-02 -3.325857e-02 -5.490679e-20) (0.000000e+00 0.000000e+00 0.000000e+00)) ((-2.890382e+00 9.748764e-01 4.547605e+00) (1.662928e-03 1.013802e-03 -7.245944e-03) (0.000000e+00 0.000000e+00 0.000000e+00))
2.750000e+02	((1.945522e+01 5.772387e+01 -2.489006e-18) (1.759913e-02 -3.222054e-02 -5.433335e-20) (0.000000e+00 0.000000e+00 0.000000e+00)) ((-2.886193e+00 9.727610e-01 4.515630e+00) (1.611027e-03 8.799563e-04 -7.059203e-03) (0.000000e+00 0.000000e+00 0.000000e+00))
2.800000e+02	((1.941766e+01 5.765638e+01 -2.469900e-18) (1.500189e-02 -3.119726e-02 -6.388938e-20) (0.000000e+00 0.000000e+00 0.000000e+00)) ((-2.882819e+00 9.708832e-01 4.483594e+00) (1.559863e-03 7.500943e-04 -6.879045e-03) (0.000000e+00 0.000000e+00 0.000000e+00))
2.850000e+02	((1.938287e+01 5.759375e+01 -2.453472e-18) (1.246680e-02 -3.017860e-02 -6.567969e-20) (0.000000e+00 0.000000e+00 0.000000e+00)) ((-2.879687e+00 9.691434e-01 4.453976e+00) (1.508930e-03 6.233398e-04 -6.705376e-03) (0.000000e+00 0.000000e+00 0.000000e+00))
2.900000e+02	((1.935250e+01 5.754225e+01 -2.432355e-18) (1.001619e-02 -2.918208e-02 -6.836261e-20) (0.000000e+00 0.000000e+00 0.000000e+00)) ((-2.877113e+00 9.676251e-01 4.426442e+00) (1.459104e-03 5.008097e-04 -6.536090e-03) (0.000000e+00 0.000000e+00 0.000000e+00))
2.950000e+02	((1.932884e+01 5.750961e+01 -2.409137e-18) (7.637394e-03 -2.819903e-02 -7.749635e-20) (0.000000e+00 0.000000e+00 0.000000e+00)) ((-2.875481e+00 9.664422e-01 4.401027e+00) (1.409952e-03 3.818697e-04 -6.371266e-03) (0.000000e+00 0.000000e+00 0.000000e+00))
3.000000e+02	((1.931177e+01 5.749338e+01 -2.385013e-18) (5.331370e-03 -2.721772e-02 -8.330974e-20) (0.000000e+00 0.000000e+00 0.000000e+00)) ((-2.874669e+00 9.655884e-01 4.378792e+00) (1.360886e-03 2.665685e-04 -6.212940e-03) (0.000000e+00 0.000000e+00 0.000000e+00))
3.050000e+02	((1.930089e+01 5.748963e+01 -2.359985e-18) (3.091165e-03 -2.624142e-02 -8.740744e-20) (0.000000e+00 0.000000e+00 0.000000e+00)) ((-2.874481e+00 9.650446e-01 4.361139e+00) (1.312071e-03 1.545582e-04 -6.058858e-03) (0.000000e+00 0.000000e+00 0.000000e+00))
3.100000e+02	((1.929856e+01 5.750578e+01 -2.334194e-18) (9.228223e-04 -2.527421e-02 -9.885772e-20) (0.000000e+00 0.000000e+00 0.000000e+00)) ((-2.875289e+00 9.649282e-01 4.348360e+00) (1.263710e-03 4.614112e-05 -5.908028e-03) (0.000000e+00 0.000000e+00 0.000000e+00))
3.150000e+02	((1.930571e+01 5.754374e+01 -2.307565e-18) (-1.178076e-03 -2.431195e-02 -1.022019e-19) (0.000000e+00 0.000000e+00 0.000000e+00)) ((-2.877187e+00 9.652856e-01 4.341134e+00) (1.215598e-03 -5.890378e-05 -5.760166e-03) (0.000000e+00 0.000000e+00 0.000000e+00))
3.200000e+02	((1.932316e+01 5.760485e+01 -2.279983e-18) (-3.209999e-03 -2.335215e-02 -1.055515e-19) (0.000000e+00 0.000000e+00 0.000000e+00)) ((-2.880242e+00 9.661580e-01 4.340228e+00) (1.167607e-03 -1.605000e-04 -5.615102e-03) (0.000000e+00 0.000000e+00 0.000000e+00))
3.250000e+02	((1.935199e+01 5.769083e+01 -2.251221e-18) (-5.182480e-03 -2.238897e-02 -1.008363e-19) (0.000000e+00 0.000000e+00 0.000000e+00)) ((-2.884541e+00 9.675997e-01 4.346690e+00) (1.119448e-03 -2.591240e-04 -5.472271e-03) (0.000000e+00 0.000000e+00 0.000000e+00))
3.300000e+02	((1.939287e+01 5.780096e+01 -2.220898e-18) (-7.093753e-03 -2.141996e-02 -8.476100e-20) (0.000000e+00 0.000000e+00 0.000000e+00)) ((-2.890048e+00 9.696437e-01 4.362099e+00) (1.070998e-03 -3.546877e-04 -5.331571e-03) (0.000000e+00 0.000000e+00 0.000000e+00))
3.350000e+02	((1.944629e+01 5.793370e+01 -2.188448e-18) (-8.958027e-03 -2.043976e-02 -7.245970e-20) (0.000000e+00 0.000000e+00 0.000000e+00)) ((-2.896685e+00 9.723147e-01 4.388162e+00) (1.021988e-03 -4.479013e-04 -5.191914e-03) (0.000000e+00 0.000000e+00 0.000000e+00))
3.400000e+02	((1.951393e+01 5.809362e+01 -2.153592e-18) (-1.077084e-02 -1.945414e-02 -7.002867e-20) (0.000000e+00 0.000000e+00 0.000000e+00)) ((-2.904681e+00 9.756964e-01 4.425483e+00) (9.727069e-04 -5.385421e-04 -5.051562e-03) (0.000000e+00 0.000000e+00 0.000000e+00))
3.450000e+02	((1.959650e+01 5.828053e+01 -2.115936e-18) (-1.253274e-02 -1.845914e-02 -6.725268e-20) (0.000000e+00 0.000000e+00 0.000000e+00)) ((-2.914027e+00 9.798250e-01 4.475469e+00) (9.229571e-04 -6.266368e-04 -4.910497e-03) (0.000000e+00 0.000000e+00 0.000000e+00))
3.500000e+02	((1.969478e+01 5.849512e+01 -2.075266e-18) (-1.424127e-02 -1.745593e-02 -6.482441e-20) (0.000000e+00 0.000000e+00 0.000000e+00)) ((-2.924756e+00 9.847390e-01 4.539135e+00) (8.727966e-04 -7.120633e-04 -4.767809e-03) (0.000000e+00 0.000000e+00 0.000000e+00))
3.550000e+02	((1.980910e+01 5.873630e+01 -2.031417e-18) (-1.589742e-02 -1.644078e-02 -6.771884e-20) (0.000000e+00 0.000000e+00 0.000000e+00)) ((-2.936815e+00 9.904549e-01 4.617675e+00) (8.220390e-04 -7.948710e-04 -4.623393e-03) (0.000000e+00 0.000000e+00 0.000000e+00))
3.600000e+02	((1.993855e+01 5.899943e+01 -1.980184e-18) (-1.751020e-02 -1.540702e-02 -7.004798e-20) (0.000000e+00 0.000000e+00 0.000000e+00)) ((-2.949971e+00 9.969277e-01 4.711905e+00) (7.703509e-04 -8.755100e-04 -4.476941e-03) (0.000000e+00 0.000000e+00 0.000000e+00))
3.650000e+02	((2.009027e+01 5.929827e+01 -1.929862e-18) (-1.907931e-02 -1.436705e-02 -7.302213e-20) (0.000000e+00 0.000000e+00 0.000000e+00)) ((-2.964914e+00 1.004513e+00 4.827391e+00) (7.183524e-04 -9.539656e-04 -4.325261e-03) (0.000000e+00 0.000000e+00 0.000000e+00))
3.700000e+02	((2.024709e+01 5.959368e+01 -1.880853e-18) (-2.057372e-02 -1.332616e-02 -6.558778e-20) (0.000000e+00 0.000000e+00 0.000000e+00)) ((-2.979684e+00 1.012355e+00 4.953937e+00) (6.663081e-04 -1.028686e-03 -4.170046e-03) (0.000000e+00 0.000000e+00 0.000000e+00))
3.750000e+02	((2.042451e+01 5.991683e+01 -1.823102e-18) (-2.200244e-02 -1.227593e-02 -5.358996e-20) (0.000000e+00 0.000000e+00 0.000000e+00)) ((-2.995842e+00 1.021225e+00 5.102950e+00) (6.137964e-04 -1.100122e-03 -4.011088e-03) (0.000000e+00 0.000000e+00 0.000000e+00))
3.800000e+02	((2.062151e+01 6.026379e+01 -1.763557e-18) (-2.336885e-02 -1.121782e-02 -4.243162e-20) (0.000000e+00 0.000000e+00 0.000000e+00)) ((-3.013190e+00 1.031076e+00 5.274722e+00) (5.608910e-04 -1.168443e-03 -3.847447e-03) (0.000000e+00 0.000000e+00 0.000000e+00))
3.850000e+02	((2.083246e+01 6.061871e+01 -1.701524e-18) (-2.467261e-02 -1.015282e-02 -3.075307e-20) (0.000000e+00 0.000000e+00 0.000000e+00)) ((-3.030936e+00 1.041623e+00 5.467461e+00) (5.076409e-04 -1.233630e-03 -3.679288e-03) (0.000000e+00 0.000000e+00 0.000000e+00))
3.900000e+02	((2.105583e+01 6.097441e+01 -1.638372e-18) (-2.590577e-02 -9.082625e-03 -1.744608e-20) (0.000000e+00 0.000000e+00 0.000000e+00)) ((-3.048720e+00 1.052791e+00 5.682212e+00) (4.541312e-04 -1.295289e-03 -3.506944e-03) (0.000000e+00 0.000000e+00 0.000000e+00))
3.950000e+02	((2.129139e+01 6.132501e+01 -1.573269e-18) (-2.706483e-02 -8.009766e-03 -8.453956e-21) (0.000000e+00 0.000000e+00 0.000000e+00)) ((-3.066251e+00 1.064569e+00 5.921701e+00) (4.004883e-04 -1.353242e-03 -3.330521e-03) (0.000000e+00 0.000000e+00 0.000000e+00))
4.000000e+02	((2.153396e+01 6.166016e+01 -1.507647e-18) (-2.812957e-02 -6.950231e-03 -4.977793e-22) (0.000000e+00 0.000000e+00 0.000000e+00)) ((-3.083008e+00 1.076698e+00 6.182042e+00) (3.475116e-04 -1.406478e-03 -3.149559e-03) (0.000000e+00 0.000000e+00 0.000000e+00))
4.050000e+02	((2.178196e+01 6.197225e+01 -1.444945e-18) (-2.908913e-02 -5.907820e-03 7.653945e-21) (0.000000e+00 0.000000e+00 0.000000e+00)) ((-3.098613e+00 1.089098e+00 6.464430e+00) (2.953910e-04 -1.454457e-03 -2.965468e-03) (0.000000e+00 0.000000e+00 0.000000e+00))
4.100000e+02	((2.203710e+01 6.225964e+01 -1.380860e-18) (-2.992540e-02 -4.892592e-03 1.486325e-20) (0.000000e+00 0.000000e+00 0.000000e+00)) ((-3.112982e+00 1.101855e+00 6.772831e+00) (2.446296e-04 -1.496270e-03 -2.779733e-03) (0.000000e+00 0.000000e+00 0.000000e+00))
4.150000e+02	((2.228349e+01 6.248931e+01 -1.319486e-18) (-3.061640e-02 -3.916059e-03 1.888853e-20) (0.000000e+00 0.000000e+00 0.000000e+00)) ((-3.124465e+00 1.114175e+00 7.096053e+00) (1.958029e-04 -1.530820e-03 -2.595221e-03) (0.000000e+00 0.000000e+00 0.000000e+00))
4.200000e+02	((2.252602e+01 6.266006e+01 -1.255210e-18) (-3.113749e-02 -2.990682e-03 1.745526e-20) (0.000000e+00 0.000000e+00 0.000000e+00)) ((-3.133003e+00 1.126301e+00 7.443545e+00) (1.495341e-04 -1.556874e-03 -2.414819e-03) (0.000000e+00 0.000000e+00 0.000000e+00))
4.250000e+02	((2.274001e+01 6.272812e+01 -1.196444e-18) (-3.146292e-02 -2.135429e-03 1.268551e-20) (0.000000e+00 0.000000e+00 0.000000e+00)) ((-3.136406e+00 1.137001e+00 7.793991e+00) (1.067715e-04 -1.573146e-03 -2.242287e-03) (0.000000e+00 0.000000e+00 0.000000e+00))
4.300000e+02	((2.292732e+01 6.268409e+01 -1.139011e-18) (-3.154834e-02 -1.381864e-03 1.010734e-20) (0.000000e+00 0.000000e+00 0.000000e+00)) ((-3.134205e+00 1.146366e+00 8.155698e+00) (6.909322e-05 -1.577417e-03 -2.081324e-03) (0.000000e+00 0.000000e+00 0.000000e+00))
4.350000e+02	((2.307372e+01 6.249918e+01 -1.080499e-18) (-3.135294e-02 -7.533376e-04 1.097090e-20) (0.000000e+00 0.000000e+00 0.000000e+00)) ((-3.124959e+00 1.153686e+00 8.518270e+00) (3.766688e-05 -1.567647e-03 -1.938523e-03) (0.000000e+00 0.000000e+00 0.000000e+00))
4.400000e+02	((2.316329e+01 6.213592e+01 -1.020765e-18) (-3.083338e-02 -2.700253e-04 1.299724e-20) (0.000000e+00 0.000000e+00 0.000000e+00)) ((-3.106796e+00 1.158164e+00 8.872803e+00) (1.350126e-05 -1.541669e-03 -1.822870e-03) (0.000000e+00 0.000000e+00 0.000000e+00))
4.450000e+02	((2.317683e+01 6.155628e+01 -9.589584e-19) (-2.993005e-02 1.884593e-05 1.590606e-20) (0.000000e+00 0.000000e+00 0.000000e+00)) ((-3.077814e+00 1.158841e+00 9.204815e+00) (-9.422963e-07 -1.496502e-03 -1.740212e-03) (0.000000e+00 0.000000e+00 0.000000e+00))
4.500000e+02	((2.309082e+01 6.070301e+01 -8.933249e-19) (-2.857130e-02 7.054773e-05 1.853151e-20) (0.000000e+00 0.000000e+00 0.000000e+00)) ((-3.035150e+00 1.154541e+00 9.502197e+00) (-3.527387e-06 -1.428565e-03 -1.701289e-03) (0.000000e+00 0.000000e+00 0.000000e+00))
4.550000e+02	((2.288212e+01 5.954277e+01 -8.226593e-19) (-2.670296e-02 -1.468486e-04 2.075134e-20) (0.000000e+00 0.000000e+00 0.000000e+00)) ((-2.977138e+00 1.144106e+00 9.740826e+00) (7.342428e-06 -1.335148e-03 -1.719700e-03) (0.000000e+00 0.000000e+00 0.000000e+00))
4.600000e+02	((2.251518e+01 5.798186e+01 -7.447802e-19) (-2.424571e-02 -6.923351e-04 2.270909e-20) (0.000000e+00 0.000000e+00 0.000000e+00)) ((-2.899093e+00 1.125759e+00 9.906201e+00) (3.461676e-05 -1.212286e-03 -1.804074e-03) (0.000000e+00 0.000000e+00 0.000000e+00))
4.650000e+02	((2.197304e+01 5.601377e+01 -6.590862e-19) (-2.115147e-02 -1.592782e-03 2.437308e-20) (0.000000e+00 0.000000e+00 0.000000e+00)) ((-2.800689e+00 1.098652e+00 9.971143e+00) (7.963909e-05 -1.057573e-03 -1.964739e-03) (0.000000e+00 0.000000e+00 0.000000e+00))
4.700000e+02	((2.123503e+01 5.360219e+01 -5.646435e-19) (-1.737929e-02 -2.874744e-03 2.582003e-20) (0.000000e+00 0.000000e+00 0.000000e+00)) ((-2.680110e+00 1.061751e+00 9.917575e+00) (1.437372e-04 -8.689646e-04 -2.208717e-03) (0.000000e+00 0.000000e+00 0.000000e+00))
4.750000e+02	((2.028530e+01 5.072502e+01 -4.613833e-19) (-1.292540e-02 -4.540885e-03 2.718824e-20) (0.000000e+00 0.000000e+00 0.000000e+00)) ((-2.536251e+00 1.014265e+00 9.728623e+00) (2.270443e-04 -6.462698e-04 -2.538151e-03) (0.000000e+00 0.000000e+00 0.000000e+00))
4.800000e+02	((1.914004e+01 4.743191e+01 -3.502917e-19) (-7.823461e-03 -6.567671e-03 2.687547e-20) (0.000000e+00 0.000000e+00 0.000000e+00)) ((-2.371595e+00 9.570018e-01 9.407138e+00) (3.283836e-04 -3.911730e-04 -2.948453e-03) (0.000000e+00 0.000000e+00 0.000000e+00))
4.850000e+02	((1.783344e+01 4.381403e+01 -2.336478e-19) (-2.182699e-03 -8.883567e-03 2.125462e-20) (0.000000e+00 0.000000e+00 0.000000e+00)) ((-2.190702e+00 8.916719e-01 8.966547e+00) (4.441784e-04 -1.091350e-04 -3.424154e-03) (0.000000e+00 0.000000e+00 0.000000e+00))
4.900000e+02	((1.642566e+01 4.002193e+01 -1.155691e-19) (3.803636e-03 -1.136560e-02 2.084715e-20) (0.000000e+00 0.000000e+00 0.000000e+00)) ((-2.001096e+00 8.212830e-01 8.435631e+00) (5.682800e-04 1.901818e-04 -3.936681e-03) (0.000000e+00 0.000000e+00 0.000000e+00))
4.950000e+02	((1.499187e+01 3.621652e+01 6.316899e-21) (9.888923e-03 -1.385977e-02 2.295217e-20) (0.000000e+00 0.000000e+00 0.000000e+00)) ((-1.810826e+00 7.495935e-01 7.864781e+00) (6.929887e-04 4.944461e-04 -4.449446e-03) (0.000000e+00 0.000000e+00 0.000000e+00))
5.000000e+02	((1.374084e+01 3.290649e+01 1.231280e-19) (1.579918e-02 -1.620073e-02 2.392951e-20) (0.000000e+00 0.000000e+00 0.000000e+00)) ((-1.645325e+00 6.870420e-01 7.361227e+00) (8.100367e-04 7.899588e-04 -4.923790e-03) (0.000000e+00 0.000000e+00 0.000000e+00))
5.050000e+02	((1.265148e+01 3.000887e+01 2.184030e-19) (2.126918e-02 -1.824643e-02 3.038639e-20) (0.000000e+00 0.000000e+00 0.000000e+00)) ((-1.500444e+00 6.325739e-01 6.930884e+00) (9.123214e-04 1.063459e-03 -5.327277e-03) (0.000000e+00 0.000000e+00 0.000000e+00))
5.100000e+02	((1.182345e+01 2.775772e+01 2.875988e-19) (2.612286e-02 -1.991522e-02 3.496698e-20) (0.000000e+00 0.000000e+00 0.000000e+00)) ((-1.387886e+00 5.911724e-01 6.629595e+00) (9.957612e-04 1.306143e-03 -5.643119e-03) (0.000000e+00 0.000000e+00 0.000000e+00))
5.150000e+02	((1.127111e+01 2.619084e+01 3.378516e-19) (3.030926e-02 -2.121451e-02 3.663248e-20) (0.000000e+00 0.000000e+00 0.000000e+00)) ((-1.309542e+00 5.635554e-01 6.463235e+00) (1.060725e-03 1.515463e-03 -5.876418e-03) (0.000000e+00 0.000000e+00 0.000000e+00))
5.200000e+02	((1.096334e+01 2.525323e+01 3.702647e-19) (3.391704e-02 -2.223654e-02 3.615210e-20) (0.000000e+00 0.000000e+00 0.000000e+00)) ((-1.262661e+00 5.481668e-01 6.404770e+00) (1.111827e-03 1.695852e-03 -6.052400e-03) (0.000000e+00 0.000000e+00 0.000000e+00))
5.250000e+02	((1.078108e+01 2.466182e+01 3.823941e-19) (3.710708e-02 -2.310984e-02 3.585667e-20) (0.000000e+00 0.000000e+00 0.000000e+00)) ((-1.233091e+00 5.390541e-01 6.389346e+00) (1.155492e-03 1.855354e-03 -6.203514e-03) (0.000000e+00 0.000000e+00 0.000000e+00))
5.300000e+02	((1.063310e+01 2.419353e+01 3.946402e-19) (4.001525e-02 -2.393098e-02 3.792040e-20) (0.000000e+00 0.000000e+00 0.000000e+00)) ((-1.209677e+00 5.316549e-01 6.370504e+00) (1.196549e-03 2.000762e-03 -6.351906e-03) (0.000000e+00 0.000000e+00 0.000000e+00))
5.350000e+02	((1.056570e+01 2.396802e+01 4.031046e-19) (4.268537e-02 -2.470944e-02 4.079548e-20) (0.000000e+00 0.000000e+00 0.000000e+00)) ((-1.198401e+00 5.282852e-01 6.368419e+00) (1.235472e-03 2.134269e-03 -6.498919e-03) (0.000000e+00 0.000000e+00 0.000000e+00))
5.400000e+02	((1.053008e+01 2.383999e+01 4.082970e-19) (4.508641e-02 -2.540829e-02 4.153410e-20) (0.000000e+00 0.000000e+00 0.000000e+00)) ((-1.192000e+00 5.265039e-01 6.371993e+00) (1.270414e-03 2.254320e-03 -6.632041e-03) (0.000000e+00 0.000000e+00 0.000000e+00))
5.450000e+02	((1.054955e+01 2.386023e+01 4.057231e-19) (4.718127e-02 -2.598593e-02 4.182268e-20) (0.000000e+00 0.000000e+00 0.000000e+00)) ((-1.193012e+00 5.274777e-01 6.396437e+00) (1.299296e-03 2.359063e-03 -6.738924e-03) (0.000000e+00 0.000000e+00 0.000000e+00))
5.500000e+02	((1.061254e+01 2.398748e+01 4.015203e-19) (4.897109e-02 -2.643569e-02 4.213112e-20) (0.000000e+00 0.000000e+00 0.000000e+00)) ((-1.199374e+00 5.306269e-01 6.442693e+00) (1.321784e-03 2.448554e-03 -6.816437e-03) (0.000000e+00 0.000000e+00 0.000000e+00))
5.550000e+02	((1.069075e+01 2.416240e+01 3.928082e-19) (5.050506e-02 -2.678082e-02 4.120267e-20) (0.000000e+00 0.000000e+00 0.000000e+00)) ((-1.208120e+00 5.345373e-01 6.491155e+00) (1.339041e-03 2.525253e-03 -6.871344e-03) (0.000000e+00 0.000000e+00 0.000000e+00))