/*--------------------------------*- C++ -*----------------------------------*\
| =========                 |                                                 |
| \\      /  F ield         | OpenFOAM: The Open Source CFD Toolbox           |
|  \\    /   O peration     | Version:  2.3.0                                 |
|   \\  /    A nd           | Web:      www.OpenFOAM.org                      |
|    \\/     M anipulation  |                                                 |
\*---------------------------------------------------------------------------*/
FoamFile
{
    version     2.0;
    format      ascii;
    class       volScalarField;
    location    "1000";
    object      nuTilda;
}
// * * * * * * * * * * * * * * * * * * * * * * * * * * * * * * * * * * * * * //

dimensions      [0 2 -1 0 0 0 0];

internalField   nonuniform List<scalar> 
38075
(
0.0508579
0.0489204
0.0470591
0.0452565
0.0435025
0.041784
0.0400958
0.0384413
0.0368253
0.0352525
0.0337252
0.0322436
0.0308032
0.0294014
0.0280375
0.0267123
0.0254269
0.024184
0.0229838
0.0218258
0.02071
0.0196339
0.0185962
0.0175934
0.0166237
0.0156822
0.0147654
0.0138699
0.0129921
0.0121283
0.0112763
0.0104354
0.00960525
0.00878988
0.00799603
0.00723456
0.00652083
0.00587185
0.00530456
0.0048284
0.00444439
0.00417587
0.00413363
0.0529046
0.0512189
0.0495682
0.0479476
0.0463544
0.0447869
0.0432453
0.0417316
0.0402485
0.0387999
0.037391
0.0360241
0.0346962
0.0334008
0.0321309
0.0308863
0.0296675
0.0284774
0.027318
0.0261913
0.025099
0.0240412
0.0230199
0.0220359
0.0210879
0.0201779
0.0193057
0.0184719
0.017677
0.016922
0.0162069
0.0155307
0.0148948
0.0143002
0.013747
0.0132372
0.012774
0.0123633
0.0120083
0.0117255
0.011552
0.0115546
0.0118699
0.0547867
0.0533032
0.051844
0.0504034
0.0489816
0.0475778
0.0461939
0.0448299
0.0434871
0.0421669
0.0408696
0.0395964
0.0383473
0.0371214
0.0359175
0.0347357
0.033576
0.0324401
0.0313296
0.0302449
0.0291874
0.0281585
0.02716
0.0261927
0.0252566
0.0243533
0.0234862
0.0226553
0.0218649
0.0211179
0.0204186
0.0197717
0.019181
0.0186519
0.018189
0.0178007
0.0174939
0.0172783
0.0171627
0.0171577
0.0172728
0.0175179
0.0178919
0.0564661
0.0551678
0.0538771
0.0525969
0.0513285
0.0500729
0.0488311
0.0476037
0.046392
0.0451963
0.044017
0.0428541
0.0417086
0.0405811
0.039471
0.0383788
0.0373048
0.0362498
0.035215
0.0342027
0.0332127
0.032247
0.0313074
0.0303949
0.0295114
0.0286594
0.0278401
0.0270576
0.0263136
0.0256133
0.0249591
0.0243567
0.023811
0.023328
0.0229136
0.0225752
0.0223187
0.0221527
0.0220838
0.0221175
0.0222606
0.0225128
0.0228742
0.0579756
0.056829
0.055682
0.0545399
0.0534045
0.0522771
0.0511585
0.0500494
0.0489512
0.0478643
0.0467889
0.0457253
0.0446745
0.043637
0.0426138
0.0416042
0.040609
0.0396283
0.0386643
0.0377184
0.0367919
0.0358857
0.0350022
0.0341426
0.0333092
0.032504
0.0317296
0.030989
0.0302845
0.0296201
0.0290015
0.0284322
0.0279171
0.0274625
0.0270746
0.0267593
0.026525
0.0263759
0.0263198
0.026361
0.0265038
0.026749
0.0270957
0.0593259
0.0583043
0.0572784
0.0562541
0.0552333
0.0542161
0.053203
0.0521956
0.0511944
0.0502002
0.049214
0.0482355
0.0472651
0.0463043
0.0453552
0.0444168
0.0434897
0.0425735
0.0416701
0.0407811
0.0399077
0.0390523
0.0382169
0.0374025
0.0366118
0.0358469
0.0351098
0.034404
0.0337325
0.0330989
0.0325079
0.0319639
0.0314708
0.0310356
0.0306646
0.0303644
0.030141
0.0300004
0.0299481
0.0299893
0.0301271
0.0303636
0.0306972
0.0605305
0.0596117
0.0586868
0.0577627
0.0568405
0.0559189
0.0549966
0.0540752
0.0531571
0.0522418
0.051332
0.0504273
0.0495251
0.0486282
0.0477398
0.0468622
0.0459932
0.0451332
0.0442814
0.0434406
0.0426122
0.0417994
0.0410036
0.0402269
0.0394716
0.0387406
0.0380355
0.0373592
0.0367151
0.0361071
0.0355405
0.0350174
0.0345423
0.0341216
0.0337635
0.0334736
0.0332576
0.0331211
0.0330702
0.0331092
0.0332422
0.0334694
0.0337922
0.0615896
0.0607681
0.0599274
0.0590871
0.0582492
0.0574124
0.0565692
0.05572
0.054875
0.0540261
0.0531781
0.0523409
0.0515007
0.0506553
0.0498165
0.0489865
0.0481681
0.047357
0.0465513
0.0457511
0.0449613
0.0441833
0.0434218
0.0426766
0.0419497
0.0412453
0.0405693
0.0399199
0.0392978
0.0387097
0.0381645
0.0376637
0.037206
0.036794
0.0364481
0.0361645
0.0359542
0.0358211
0.0357709
0.0358082
0.035935
0.0361541
0.0364673
0.0625269
0.0618005
0.0610225
0.0602493
0.0594758
0.0587134
0.0579459
0.0571524
0.0563743
0.055588
0.0547778
0.0539996
0.053225
0.052425
0.0516287
0.0508298
0.050048
0.049281
0.0485186
0.0477545
0.0470006
0.0462492
0.0455166
0.0448001
0.0441002
0.0434105
0.0427587
0.042136
0.0415404
0.0409615
0.0404336
0.0399539
0.0395322
0.0391103
0.0387835
0.0384995
0.0382982
0.0381678
0.0381169
0.0381557
0.0382777
0.0384872
0.0387921
0.0049312
0.00644061
0.00756697
0.00873929
0.00998536
0.0112928
0.0126477
0.0140377
0.0154545
0.0168917
0.0183459
0.0198143
0.0212945
0.0227858
0.0242874
0.0257983
0.0273176
0.0288444
0.0303787
0.0319203
0.033469
0.0350245
0.0365867
0.0381555
0.0397304
0.0413112
0.0428976
0.0444894
0.0460863
0.0476877
0.0492932
0.0509024
0.052515
0.05413
0.0557469
0.0573651
0.0589837
0.0606023
0.0622197
0.0638351
0.0654478
0.0670571
0.068661
0.0124206
0.0131446
0.0139864
0.0149402
0.0159925
0.0171282
0.0183327
0.0195929
0.0208968
0.0222348
0.0235993
0.0249839
0.026384
0.0277957
0.029216
0.0306429
0.0320753
0.0335115
0.0349512
0.0363938
0.0378385
0.039285
0.0407332
0.0421827
0.0436333
0.0450849
0.0465372
0.0479902
0.0494437
0.0508977
0.0523518
0.0538059
0.0552601
0.0567139
0.0581668
0.0596186
0.0610691
0.0625179
0.0639644
0.0654082
0.0668493
0.0682874
0.069719
0.0183874
0.019002
0.0197334
0.0205733
0.0215087
0.0225271
0.0236164
0.0247646
0.0259609
0.0271951
0.0284595
0.0297473
0.031053
0.032372
0.0337003
0.0350351
0.0363744
0.0377167
0.0390605
0.0404047
0.0417482
0.0430907
0.0444318
0.0457709
0.0471078
0.0484425
0.0497748
0.0511045
0.0524314
0.0537559
0.0550777
0.0563968
0.0577131
0.0590269
0.0603378
0.0616456
0.0629503
0.064252
0.0655501
0.0668444
0.0681346
0.0694199
0.0706947
0.0233418
0.0239138
0.0245915
0.0253674
0.0262322
0.0271755
0.0281872
0.0292561
0.0303725
0.0315271
0.0327129
0.0339226
0.0351499
0.0363903
0.0376402
0.0388957
0.0401545
0.0414146
0.0426745
0.0439326
0.0451879
0.0464401
0.0476884
0.0489319
0.0501707
0.0514047
0.0526337
0.0538572
0.0550754
0.0562887
0.0574971
0.0587004
0.059899
0.0610925
0.0622814
0.0634654
0.0646447
0.0658192
0.0669889
0.0681534
0.0693125
0.0704655
0.0716087
0.027541
0.028086
0.0287288
0.029462
0.0302795
0.0311707
0.0321265
0.0331371
0.0341934
0.0352869
0.0364104
0.0375569
0.0387201
0.0398956
0.0410796
0.0422683
0.0434586
0.0446486
0.0458365
0.0470212
0.0482014
0.0493764
0.0505453
0.0517075
0.0528629
0.0540111
0.0551517
0.0562848
0.0574105
0.0585291
0.0596407
0.0607453
0.0618433
0.0629345
0.0640188
0.0650966
0.0661678
0.0672329
0.0682916
0.069344
0.07039
0.0714297
0.0724646
0.0311271
0.0316523
0.0322695
0.032973
0.0337556
0.0346081
0.0355213
0.0364872
0.0374969
0.0385418
0.0396153
0.0407109
0.0418223
0.0429445
0.0440735
0.0452058
0.0463384
0.0474694
0.0485969
0.0497198
0.0508365
0.0519461
0.0530481
0.0541417
0.0552263
0.0563014
0.0573673
0.0584237
0.0594707
0.0605088
0.0615382
0.0625589
0.0635714
0.0645752
0.0655701
0.0665565
0.0675349
0.0685059
0.0694692
0.0704244
0.071372
0.0723127
0.0732524
0.0342097
0.0347193
0.0353181
0.0359992
0.0367546
0.0375764
0.0384562
0.0393867
0.040359
0.0413643
0.0423972
0.0434517
0.0445208
0.0455987
0.0466814
0.047766
0.0488502
0.0499315
0.051008
0.0520784
0.0531417
0.0541965
0.0552421
0.0562775
0.0573019
0.0583149
0.059317
0.0603083
0.0612885
0.0622578
0.0632173
0.0641673
0.0651076
0.0660366
0.066954
0.0678615
0.0687606
0.0696511
0.0705321
0.0714027
0.0722642
0.0731168
0.0739635
0.0368737
0.0373713
0.0379559
0.03862
0.0393544
0.0401501
0.0410025
0.0419043
0.0428464
0.0438179
0.0448175
0.0458393
0.0468743
0.0479143
0.0489568
0.050001
0.051045
0.0520835
0.0531159
0.0541426
0.0551611
0.05617
0.0571677
0.058154
0.0591265
0.0600861
0.0610338
0.0619702
0.0628932
0.0638032
0.0647033
0.0655945
0.0664746
0.0673378
0.0681872
0.069027
0.0698587
0.070681
0.071491
0.0722864
0.0730736
0.0738503
0.0746217
0.0391874
0.039675
0.0402499
0.0409039
0.0416229
0.0423899
0.0432195
0.0440981
0.0450144
0.0459496
0.046927
0.047927
0.0489326
0.0499349
0.0509411
0.0519514
0.0529647
0.0539619
0.0549563
0.0559499
0.0569295
0.0579015
0.0588572
0.0598027
0.060728
0.0616415
0.0625434
0.0634345
0.0643061
0.0651651
0.0660184
0.0668619
0.0676917
0.0684922
0.0692822
0.0700663
0.0708439
0.0716089
0.0723573
0.0730812
0.0738085
0.0745159
0.0752322
0.0715532
0.0688937
0.0662425
0.0636025
0.0609794
0.0583796
0.055809
0.0532727
0.050775
0.048321
0.0459141
0.0435573
0.0412541
0.0390065
0.0368167
0.0346861
0.0326166
0.0306088
0.0286632
0.0267802
0.0249602
0.0232034
0.0215095
0.0198787
0.0183104
0.0168049
0.0153613
0.0139789
0.0126589
0.0113992
0.0102015
0.00906382
0.0079879
0.00697399
0.00602223
0.00513388
0.00431125
0.00355677
0.00287302
0.00227087
0.00180853
0.0013445
0.00079995
0.0731102
0.0706974
0.0682815
0.0658649
0.0634531
0.0610511
0.0586645
0.0562972
0.0539535
0.0516372
0.0493513
0.0471002
0.0448857
0.0427107
0.0405766
0.0384868
0.0364418
0.0344434
0.0324928
0.0305904
0.0287374
0.0269351
0.0251838
0.0234845
0.0218372
0.0202418
0.0187001
0.0172131
0.0157797
0.0144028
0.0130823
0.0118204
0.010618
0.00947776
0.00840196
0.00739491
0.00646153
0.0056181
0.00488786
0.00415399
0.00338944
0.00254491
0.00152757
0.0746564
0.0724644
0.0702599
0.0680453
0.0658257
0.063606
0.0613904
0.0591821
0.0569847
0.0548021
0.0526369
0.0504928
0.0483722
0.0462768
0.0442094
0.0421719
0.0401664
0.0381946
0.0362579
0.0343572
0.0324946
0.0306707
0.0288874
0.0271453
0.0254447
0.0237886
0.0221778
0.0206133
0.0190978
0.0176321
0.0162199
0.0148623
0.0135651
0.0123318
0.0111689
0.0100915
0.00911043
0.00813951
0.00714876
0.00610883
0.00498
0.00369911
0.00220673
0.0761669
0.0741712
0.072155
0.070122
0.0680765
0.0660225
0.0639629
0.0619005
0.0598393
0.0577814
0.0557305
0.0536889
0.0516595
0.0496441
0.0476447
0.0456641
0.0437043
0.0417666
0.0398532
0.0379662
0.0361069
0.0342767
0.0324773
0.0307103
0.0289774
0.0272806
0.0256218
0.0240042
0.0224297
0.0209021
0.0194239
0.0180021
0.0166411
0.0153548
0.01415
0.0129724
0.011791
0.0105787
0.00930808
0.00794871
0.00645739
0.00476451
0.00284071
0.0776225
0.075797
0.0739479
0.0720773
0.0701883
0.0682837
0.0663657
0.0644372
0.0625008
0.0605585
0.0586133
0.056668
0.0547257
0.0527874
0.0508553
0.0489328
0.0470208
0.0451215
0.0432371
0.0413709
0.0395238
0.0376976
0.0358945
0.0341164
0.0323658
0.0306441
0.0289557
0.0273034
0.0256903
0.0241212
0.0226027
0.0211433
0.019748
0.01839
0.0170422
0.0156812
0.0142847
0.0128295
0.0112884
0.0096282
0.00780114
0.00573733
0.00342707
0.0789924
0.0773217
0.0756222
0.0738965
0.0721477
0.0703782
0.0685895
0.0667832
0.0649602
0.0631238
0.0612763
0.0594206
0.0575596
0.0556947
0.0538285
0.0519619
0.0500979
0.0482388
0.0463871
0.0445458
0.0427171
0.0409027
0.0391052
0.0373268
0.0355699
0.033837
0.0321333
0.0304612
0.0288264
0.0272358
0.0256918
0.0241835
0.0226936
0.0212046
0.0196978
0.0181545
0.0165537
0.014872
0.0130805
0.0111437
0.0090119
0.00661669
0.00396159
0.0802734
0.0787344
0.0771659
0.0755689
0.0739463
0.0722998
0.0706293
0.0689336
0.0672146
0.0654751
0.0637162
0.061942
0.0601567
0.0583619
0.0565581
0.0547468
0.052931
0.0511124
0.0492944
0.0474802
0.0456731
0.0438763
0.0420915
0.0403217
0.0385683
0.0368351
0.0351257
0.033446
0.031797
0.0301749
0.0285718
0.0269758
0.0253744
0.0237531
0.0220969
0.0203864
0.0186005
0.0167135
0.0146929
0.0125023
0.0100949
0.00740291
0.0044417
0.0814446
0.0800218
0.0785693
0.077088
0.0755788
0.074044
0.0724821
0.0708893
0.0692649
0.0676165
0.0659366
0.0642347
0.0625182
0.0607904
0.0590478
0.0572895
0.0555209
0.0537437
0.0519597
0.050173
0.0483894
0.0466122
0.0448447
0.0430904
0.0413497
0.0396209
0.037907
0.0362104
0.034528
0.0328526
0.0311767
0.0294903
0.0277804
0.0260372
0.0242462
0.0223876
0.0204381
0.0183689
0.0161421
0.0137177
0.0110547
0.00809367
0.00486876
0.0824916
0.0811739
0.0798252
0.0784492
0.0770406
0.0756072
0.0741484
0.0726573
0.0711112
0.0695566
0.0679485
0.0663065
0.0646472
0.0629845
0.0613058
0.0595945
0.0578728
0.0561387
0.0543898
0.0526298
0.0508676
0.0491121
0.0473603
0.0456233
0.0438978
0.0421728
0.040438
0.0387099
0.036985
0.0352534
0.0335055
0.0317376
0.0299265
0.0280719
0.0261618
0.0241733
0.0220799
0.0198557
0.0174535
0.0148095
0.0118935
0.00865217
0.00514567
0.00048535
0.000530397
0.000714471
0.000887567
0.00105613
0.00122968
0.00142025
0.0016422
0.00190697
0.00220794
0.00253973
0.00289969
0.00328631
0.00369862
0.00413681
0.0046005
0.00509054
0.00560697
0.00615068
0.00672231
0.00732262
0.00795257
0.00861317
0.00930527
0.01003
0.0107885
0.0115821
0.0124122
0.0132803
0.0141873
0.0151348
0.0161245
0.0171577
0.0182359
0.0193605
0.0205327
0.0217536
0.0230246
0.0243466
0.0257205
0.0271467
0.0286257
0.0301604
0.000730717
0.000690032
0.000877209
0.00106864
0.00126901
0.00149082
0.00174434
0.00203602
0.00236896
0.00273483
0.0031273
0.00354448
0.00398544
0.00444951
0.00493653
0.00544671
0.00597995
0.00653668
0.00711738
0.00772243
0.00835243
0.00900796
0.00969006
0.0103994
0.0111369
0.0119034
0.0127001
0.0135279
0.0143879
0.0152812
0.0162092
0.0171731
0.018174
0.019213
0.020291
0.0214093
0.0225688
0.0237701
0.0250143
0.0263017
0.0276324
0.0290059
0.03042
0.00100316
0.000841341
0.00104129
0.00126495
0.00151301
0.00179485
0.00211407
0.00247016
0.00286487
0.00328835
0.00373557
0.00420518
0.00469597
0.00520775
0.00573998
0.00629259
0.00686574
0.00745907
0.00807307
0.00870821
0.00936493
0.0100435
0.0107444
0.0114685
0.0122163
0.0129889
0.0137866
0.0146106
0.0154616
0.0163406
0.0172483
0.0181858
0.0191542
0.020154
0.0211862
0.0222513
0.0233502
0.0244834
0.0256512
0.0268537
0.0280907
0.0293609
0.0306627
0.00127231
0.00098455
0.00120766
0.00147448
0.00177733
0.00211955
0.00249876
0.00291252
0.0033626
0.00383741
0.0043338
0.0048503
0.00538611
0.0059404
0.0065131
0.00710361
0.00771193
0.00833782
0.00898139
0.0096429
0.0103223
0.0110203
0.0117372
0.0124734
0.0132295
0.0140057
0.0148031
0.015622
0.0164632
0.0173273
0.0182151
0.019127
0.020064
0.0210264
0.0220149
0.0230299
0.0240718
0.0251409
0.0262374
0.0273606
0.0285102
0.0296852
0.0308842
0.00152816
0.00112363
0.00137815
0.00169362
0.00205163
0.00244958
0.0028821
0.00334828
0.00384717
0.00436805
0.00490847
0.00546738
0.00604352
0.0066364
0.00724503
0.00786936
0.00850876
0.00916327
0.00983254
0.010517
0.0112164
0.0119309
0.0126612
0.0134073
0.0141697
0.0149484
0.0157441
0.0165572
0.0173881
0.0182375
0.0191058
0.0199933
0.0209005
0.0218277
0.0227752
0.0237434
0.0247321
0.0257417
0.026772
0.0278225
0.0288923
0.0299809
0.0310874
0.00176726
0.00126053
0.0015516
0.00191669
0.0023262
0.00277382
0.00325383
0.00376865
0.00431115
0.00487351
0.00545377
0.00605075
0.00666342
0.00729066
0.00793179
0.00858601
0.00925322
0.00993306
0.0106252
0.0113294
0.0120461
0.0127752
0.0135167
0.0142709
0.0150381
0.0158181
0.0166113
0.0174182
0.0182391
0.0190741
0.0199235
0.0207877
0.0216669
0.0225611
0.0234703
0.0243948
0.0253346
0.0262894
0.0272591
0.028243
0.0292406
0.0302518
0.0312765
0.00198693
0.00139712
0.00172723
0.00213953
0.00259541
0.00308708
0.00361018
0.00416842
0.0047502
0.00535045
0.00596697
0.00659847
0.00724378
0.00790178
0.00857197
0.00925326
0.00994544
0.010648
0.0113604
0.0120826
0.0128143
0.0135556
0.0143068
0.0150675
0.0158382
0.0166187
0.017409
0.0182094
0.0190203
0.0198417
0.0206736
0.0215159
0.0223688
0.0232318
0.0241053
0.0249892
0.0258836
0.0267883
0.0277028
0.0286267
0.0295597
0.030502
0.0314548
0.00219934
0.00152932
0.00189318
0.00234946
0.00284892
0.00338199
0.00394701
0.00454486
0.005163
0.00579732
0.00644647
0.0071095
0.00778484
0.00847093
0.00916784
0.0098745
0.0105895
0.0113124
0.0120429
0.0127802
0.0135249
0.014277
0.0150361
0.0158023
0.0165757
0.0173562
0.0181427
0.0189365
0.0197388
0.0205476
0.0213624
0.0221847
0.0230129
0.0238461
0.0246851
0.0255313
0.0263843
0.0272438
0.0281088
0.0289786
0.0298536
0.0307342
0.0316241
0.00229934
0.00166462
0.00209468
0.00259687
0.00313033
0.00369699
0.00429309
0.00491635
0.00555688
0.00621647
0.00690102
0.00759681
0.00829477
0.00900913
0.00973827
0.0104695
0.0112036
0.0119428
0.0126872
0.0134343
0.0141879
0.0149496
0.0157142
0.0164834
0.0172601
0.0180404
0.018818
0.0196064
0.0204067
0.0212019
0.0219983
0.0228054
0.0236097
0.0244104
0.0252145
0.026025
0.0268417
0.0276624
0.0284836
0.0293045
0.0301271
0.0309498
0.0317765
0.000142854
0.000566725
0.00127016
0.00204669
0.00280604
0.0035529
0.00428767
0.00501144
0.0057352
0.0064666
0.00721116
0.00797256
0.00875528
0.0095593
0.0103829
0.0112267
0.0120908
0.0129764
0.0138855
0.0148219
0.0157888
0.0167902
0.0178295
0.0189115
0.0200397
0.0212164
0.0224448
0.0237255
0.0250584
0.0264434
0.0278784
0.0293625
0.0308961
0.0324798
0.0341136
0.035795
0.0375192
0.0392782
0.0410681
0.0428959
0.0447845
0.0467575
0.0488618
9.99843e-05
0.000349316
0.000696767
0.00113113
0.00166527
0.00232058
0.00309295
0.00386047
0.00463938
0.00543326
0.0062331
0.00703131
0.0078239
0.00861486
0.00940751
0.0102056
0.0110128
0.0118325
0.0126689
0.0135254
0.0144068
0.0153178
0.0162638
0.0172507
0.0182836
0.0193683
0.0205097
0.0217122
0.0229776
0.0243076
0.0257024
0.0271612
0.0286827
0.0302655
0.0319087
0.0336088
0.0353604
0.0371569
0.0389934
0.0408718
0.0428034
0.0448081
0.046915
6.53352e-05
0.000315676
0.00059657
0.000881974
0.00117098
0.00150465
0.00196172
0.00254211
0.00325095
0.00408511
0.00496398
0.00584578
0.00672709
0.00760628
0.00848311
0.0093562
0.0102248
0.011089
0.0119494
0.012809
0.013672
0.0145434
0.0154295
0.0163378
0.0172762
0.0182537
0.0192795
0.0203621
0.021509
0.0227264
0.0240189
0.0253893
0.026838
0.0283649
0.0299681
0.0316445
0.0333881
0.0351927
0.0370517
0.0389631
0.0409303
0.0429653
0.0450803
6.27831e-05
0.000285482
0.000555086
0.0008356
0.00109834
0.00135503
0.0016363
0.0020235
0.00253544
0.00317241
0.00392689
0.00479862
0.00570168
0.00661146
0.00752484
0.00844163
0.00936196
0.0102851
0.0112095
0.0121319
0.01305
0.0139626
0.0148714
0.0157796
0.0166929
0.0176195
0.0185694
0.0195542
0.0205855
0.0216757
0.0228361
0.0240761
0.0254025
0.02682
0.0283302
0.0299324
0.031622
0.0333936
0.0352397
0.0371549
0.039137
0.0411873
0.0432984
6.89685e-05
0.00033285
0.00060523
0.000863059
0.00110452
0.00134465
0.00160175
0.00190807
0.00234366
0.00289172
0.003545
0.0042983
0.00515318
0.00604416
0.00694114
0.00784282
0.00875217
0.00967057
0.0105987
0.0115361
0.0124809
0.0134299
0.0143788
0.0153245
0.0162661
0.0172042
0.0181437
0.0190916
0.0200587
0.0210583
0.0221054
0.0232153
0.0244023
0.0256792
0.0270554
0.0285362
0.0301231
0.031814
0.0336024
0.0354824
0.0374476
0.0394924
0.0416051
7.06365e-05
0.000341063
0.000601793
0.000845314
0.00107814
0.0013165
0.00157902
0.00189988
0.00234405
0.00289164
0.00353122
0.00425732
0.00507189
0.00593069
0.00679759
0.00766758
0.00854299
0.00942661
0.0103216
0.0112296
0.0121509
0.0130853
0.0140313
0.0149858
0.0159442
0.0169024
0.0178579
0.018811
0.0197647
0.0207268
0.0217088
0.0227258
0.0237955
0.0249362
0.0261655
0.0274984
0.028945
0.0305105
0.0321952
0.0339952
0.0359033
0.0379102
0.0399941
7.34139e-05
0.000358536
0.000605282
0.000836024
0.00106357
0.00130463
0.00157952
0.00194176
0.00242189
0.00300038
0.00366357
0.00440709
0.00523052
0.00608676
0.00694672
0.0078049
0.00866269
0.00952257
0.0103881
0.0112619
0.0121466
0.0130438
0.0139543
0.0148788
0.0158161
0.016763
0.0177156
0.01867
0.0196236
0.0205765
0.0215325
0.0225006
0.0234941
0.0245307
0.0256317
0.0268183
0.0281101
0.0295226
0.0310656
0.0327427
0.0345512
0.036484
0.0385278
7.51544e-05
0.000367862
0.000601893
0.000824719
0.00105199
0.00130088
0.00159388
0.00201341
0.0025387
0.00315559
0.00385383
0.00463169
0.00548306
0.00635818
0.00723411
0.00810509
0.00897069
0.00983251
0.0106926
0.0115532
0.0124168
0.0132858
0.0141626
0.0150494
0.0159477
0.0168582
0.0177801
0.018711
0.0196472
0.0205858
0.0215251
0.0224667
0.0234165
0.0243858
0.025392
0.0264568
0.0276045
0.028859
0.0302403
0.0317629
0.033434
0.0352543
0.0372217
7.62217e-05
0.000374172
0.000598178
0.000816695
0.00104726
0.00131012
0.0016487
0.00211182
0.00267665
0.00332923
0.00406356
0.00487965
0.00576318
0.00666818
0.00757382
0.00847394
0.00936625
0.010251
0.0111287
0.012
0.0128665
0.01373
0.0145925
0.0154567
0.0163246
0.0171987
0.0180812
0.018973
0.0198733
0.0207803
0.0216913
0.0226049
0.0235212
0.0244446
0.025385
0.0263588
0.0273882
0.0284995
0.02972
0.0310746
0.0325825
0.0342553
0.0360993
7.70217e-05
0.000376708
0.000594058
0.000811553
0.00104703
0.00132208
0.00171562
0.00221976
0.00282013
0.00350552
0.00427375
0.00512658
0.00604342
0.00698255
0.00792495
0.00886287
0.0097932
0.010714
0.0116247
0.0125247
0.0134142
0.0142938
0.0151644
0.0160275
0.0168852
0.0177399
0.0185942
0.0194508
0.0203119
0.0211785
0.0220499
0.022925
0.023803
0.0246843
0.0255728
0.0264777
0.0274149
0.0284075
0.0294836
0.0306744
0.0320093
0.033516
0.0352283
8.15642e-05
0.00037741
0.000591016
0.000810155
0.00105533
0.00135972
0.00179444
0.00233235
0.00296152
0.00367572
0.00447487
0.005361
0.00631029
0.00728548
0.00826774
0.00924799
0.0102219
0.0111865
0.0121395
0.0130797
0.0140056
0.014917
0.0158138
0.0166955
0.0175635
0.0184194
0.0192651
0.0201032
0.0209367
0.0217683
0.0225999
0.0234324
0.0242664
0.0251019
0.0259403
0.0267863
0.0276492
0.0285454
0.0294993
0.0305421
0.0317086
0.0330359
0.0345584
9.7363e-05
0.000378043
0.000589059
0.000809316
0.00106211
0.00140785
0.00187435
0.00244041
0.00309477
0.00383449
0.00466139
0.00557706
0.00655779
0.00756932
0.00859227
0.00961654
0.0106369
0.0116492
0.0126497
0.0136367
0.0146079
0.0155615
0.0164965
0.0174118
0.0183067
0.0191819
0.0200383
0.0208774
0.0217016
0.0225136
0.0233166
0.0241131
0.024905
0.0256941
0.0264821
0.0272719
0.028069
0.0288841
0.0297355
0.03065
0.0316622
0.0328119
0.0341342
0.000118577
0.000379691
0.000589146
0.000811813
0.00107151
0.00145769
0.00195149
0.00254123
0.00321749
0.00397978
0.00483114
0.00577283
0.00678302
0.00782982
0.00889304
0.00996208
0.0110298
0.0120911
0.0131421
0.0141797
0.015201
0.0162034
0.0171848
0.0181433
0.0190774
0.0199858
0.0208686
0.0217261
0.0225592
0.0233702
0.0241615
0.0249359
0.0256965
0.0264462
0.0271878
0.0279245
0.0286606
0.0294038
0.030167
0.0309714
0.0318473
0.0328346
0.0339803
0.000136334
0.00038127
0.000589856
0.000818131
0.00109671
0.00150962
0.0020251
0.00263361
0.00332858
0.00411088
0.00498374
0.00594846
0.00698566
0.00806562
0.00916799
0.0102807
0.0113956
0.0125065
0.0136092
0.0146992
0.0157735
0.0168283
0.0178611
0.0188692
0.0198502
0.020802
0.0217231
0.0226125
0.0234702
0.0242967
0.0250936
0.0258633
0.0266082
0.0273317
0.0280372
0.0287285
0.0294101
0.0300888
0.0307745
0.0314835
0.0322408
0.033083
0.0340566
0.000151026
0.000382215
0.000589192
0.000822199
0.00112524
0.00155811
0.00209186
0.00271664
0.00342798
0.00422759
0.00511915
0.00610424
0.00716602
0.00827684
0.00941641
0.0105713
0.0117322
0.0128924
0.0140467
0.0151899
0.0163181
0.0174277
0.0185147
0.0195764
0.0206096
0.0216113
0.0225786
0.0235101
0.0244041
0.02526
0.0260778
0.0268588
0.0276049
0.0283181
0.0290021
0.0296604
0.0302983
0.0309219
0.03154
0.0321658
0.0328204
0.033536
0.0343636
0.000163752
0.000383075
0.000587929
0.000823545
0.0011513
0.00160195
0.0021516
0.00279053
0.00351622
0.00433088
0.0052387
0.00624136
0.00732482
0.00846375
0.00963801
0.0108332
0.0120386
0.0132471
0.0144525
0.0156486
0.0168312
0.017996
0.0191389
0.0202566
0.021345
0.0224007
0.02342
0.0244005
0.0253395
0.0262352
0.0270861
0.0278923
0.0286543
0.0293734
0.0300516
0.0306925
0.0313004
0.0318816
0.0324439
0.0329991
0.033565
0.0341701
0.0348598
0.000175148
0.000384285
0.000587247
0.000824034
0.00117554
0.00164161
0.00220493
0.0028561
0.00359411
0.00442175
0.00534345
0.00636151
0.00746405
0.00862829
0.00983435
0.0110673
0.0123155
0.0135708
0.0148258
0.0160739
0.0173104
0.0185307
0.0197301
0.0209045
0.0220498
0.0231618
0.0242366
0.025271
0.0262612
0.0272042
0.0280977
0.0289399
0.0297304
0.0304692
0.0311569
0.031796
0.0323896
0.032943
0.0334638
0.0339622
0.0344538
0.0349629
0.0355256
0.000185581
0.000386009
0.000588169
0.000826781
0.00119889
0.00167786
0.00225249
0.0029141
0.00366267
0.0045016
0.00543515
0.00646617
0.00758519
0.00877187
0.0100069
0.0112746
0.0125635
0.0138633
0.0151662
0.0164653
0.0177548
0.01903
0.0202856
0.0215171
0.0227199
0.0238897
0.0250222
0.026113
0.0271581
0.0281537
0.0290966
0.0299834
0.0308123
0.0315824
0.0322929
0.0329444
0.0335391
0.0340806
0.0345753
0.0350321
0.035465
0.0358949
0.0363527
0.000195102
0.000387946
0.000590624
0.000834507
0.00122154
0.00171118
0.00229496
0.00296528
0.00372293
0.00457131
0.00551488
0.00655669
0.00768945
0.00889564
0.0101567
0.0114572
0.0127839
0.0141259
0.0154748
0.0168232
0.0181644
0.0194932
0.0208043
0.0220923
0.0233528
0.0245809
0.0257719
0.0269211
0.0280237
0.0290754
0.0300719
0.0310095
0.0318846
0.0326949
0.033439
0.0341154
0.0347248
0.0352694
0.0357534
0.0361847
0.0365751
0.0369429
0.0373154
0.000203796
0.000389599
0.000593369
0.000845542
0.00124263
0.00174116
0.00233259
0.00301037
0.00377564
0.00463202
0.00558392
0.00663451
0.0077789
0.00900179
0.010286
0.0116159
0.0129773
0.0143591
0.0157522
0.0171479
0.0185396
0.0199207
0.0212859
0.0226298
0.0239471
0.0252332
0.0264829
0.0276912
0.0288529
0.0299627
0.0310161
0.0320084
0.0329353
0.0337931
0.0345788
0.0352902
0.0359261
0.0364868
0.036975
0.0373961
0.03776
0.0380817
0.0383815
0.000211801
0.000390855
0.000595591
0.000856632
0.00126172
0.00176797
0.0023659
0.00305005
0.00382179
0.00468472
0.00564342
0.00670125
0.0078549
0.00909209
0.0103963
0.0117523
0.0131456
0.0145646
0.0159993
0.0174406
0.0188808
0.0203129
0.0217305
0.0231289
0.0245026
0.0258459
0.0271539
0.0284212
0.0296421
0.0308113
0.0319235
0.0329733
0.0339557
0.0348659
0.0356999
0.0364541
0.037126
0.0377141
0.0382186
0.0386435
0.0389951
0.0392845
0.0395239
0.000219109
0.000391633
0.000596984
0.000866672
0.00127882
0.0017918
0.00239538
0.00308483
0.00386185
0.00473019
0.00569426
0.00675778
0.00791895
0.00916756
0.0104888
0.0118679
0.0132905
0.0147441
0.016218
0.0177024
0.0191889
0.02067
0.0221393
0.0235907
0.0250189
0.0264185
0.0277838
0.0291093
0.0303894
0.0316183
0.0327903
0.0338993
0.0349395
0.0359056
0.0367925
0.0375955
0.0383107
0.0389349
0.0394667
0.039907
0.0402597
0.0405315
0.0407316
0.000225826
0.000392008
0.000597636
0.000875629
0.00129409
0.00181299
0.00242135
0.00311529
0.00389664
0.0047692
0.00573752
0.00680539
0.00797208
0.0092298
0.0105655
0.0119645
0.0134132
0.0148987
0.0164092
0.0179344
0.0194649
0.020993
0.022512
0.0240153
0.0254966
0.0269507
0.0283722
0.0297551
0.0310938
0.0323819
0.0336135
0.0347825
0.0358822
0.0369064
0.0378494
0.0387054
0.0394696
0.0401369
0.0407042
0.0411704
0.041536
0.0418049
0.0419838
0.000232027
0.000391961
0.000597624
0.000883695
0.00130781
0.00183186
0.00244423
0.00314186
0.0039267
0.00480258
0.00577393
0.00684487
0.00801558
0.00928017
0.0106273
0.0120436
0.0135152
0.0150295
0.0165742
0.0181378
0.0197104
0.0212835
0.0228498
0.0244029
0.0259358
0.0274431
0.0289194
0.0303585
0.0317545
0.0331013
0.0343922
0.0356208
0.0367804
0.0378639
0.0388651
0.0397772
0.0405942
0.0413101
0.0419199
0.0424199
0.0428089
0.043087
0.0432578
0.000237768
0.000391593
0.000597074
0.000890878
0.00132009
0.00184866
0.00246447
0.00316503
0.0039525
0.00483072
0.00580421
0.00687701
0.00805034
0.00931982
0.0106761
0.0121066
0.0135988
0.0151387
0.0167143
0.0183136
0.019926
0.0215421
0.0231539
0.0247548
0.0263376
0.0278964
0.0294259
0.0309196
0.0323713
0.0337753
0.0351248
0.0364126
0.0376319
0.0387754
0.0398356
0.0408057
0.0416784
0.0424468
0.0431042
0.043645
0.0440654
0.0443633
0.0445376
0.000243064
0.000390904
0.000596053
0.000897381
0.00133116
0.0018637
0.00248231
0.00318515
0.00397454
0.00485428
0.00582902
0.00690275
0.00807725
0.00934995
0.0107128
0.0121552
0.0136645
0.0152276
0.0168314
0.0184634
0.0201129
0.0217697
0.0234253
0.0250721
0.0267028
0.0283112
0.0298916
0.0314382
0.0329445
0.0344042
0.0358105
0.0371565
0.0384349
0.0396382
0.0407583
0.0417872
0.0427175
0.0435409
0.0442498
0.0448365
0.0452951
0.045621
0.0458106
0.000247936
0.000389956
0.000594679
0.000903341
0.00134119
0.00187707
0.00249794
0.00320242
0.00399311
0.00487376
0.00584878
0.0069225
0.00809721
0.00937137
0.010739
0.0121903
0.0137138
0.0152971
0.0169264
0.0185889
0.020273
0.0219681
0.023665
0.0253552
0.0270316
0.0286878
0.0303177
0.031915
0.0334741
0.034988
0.0364499
0.0378529
0.0391891
0.040451
0.0416306
0.0427189
0.0437076
0.0445879
0.0453509
0.0459878
0.0464901
0.046851
0.0470648
0.000252449
0.000388737
0.000592967
0.000908714
0.00135028
0.00188892
0.00251147
0.00321717
0.00400858
0.00488949
0.00586414
0.00693698
0.00811072
0.00938509
0.0107553
0.0122133
0.0137485
0.0153488
0.0170006
0.0186909
0.0204072
0.0221381
0.0238741
0.0256056
0.0273253
0.0290272
0.0307049
0.0323513
0.0339607
0.035527
0.0370427
0.038501
0.0398939
0.0412134
0.0424513
0.0435988
0.0446462
0.0455845
0.0464035
0.0470935
0.0476442
0.0480461
0.0482887
0.000256598
0.000387266
0.000590996
0.000913652
0.00135855
0.0018994
0.00252325
0.00322956
0.00402115
0.0049017
0.00587533
0.00694654
0.00811859
0.00939171
0.0107629
0.0122253
0.0137696
0.0153841
0.0170555
0.0187705
0.0205163
0.0222807
0.0240531
0.0258243
0.0275858
0.029331
0.0310537
0.0327471
0.0344052
0.0360214
0.0375891
0.0391007
0.0405485
0.0419245
0.0432197
0.0444253
0.0455315
0.0465281
0.0474046
0.04815
0.0487531
0.0492028
0.0494889
0.000260328
0.000385592
0.000588678
0.000918029
0.00136621
0.00190858
0.00253324
0.00323991
0.00403117
0.00491077
0.00588288
0.00695189
0.00812128
0.00939215
0.0107626
0.0122273
0.0137781
0.015404
0.0170924
0.0188292
0.0206018
0.0223971
0.0242035
0.0260119
0.0278131
0.0295998
0.0313653
0.0331036
0.0348083
0.0364724
0.0380897
0.0396527
0.0411535
0.0425842
0.0439354
0.0451979
0.0463618
0.0474165
0.0483509
0.0491533
0.0498115
0.0503136
0.0506477
0.000263744
0.000383772
0.00058618
0.000921894
0.00137294
0.00191651
0.00254158
0.00324821
0.00403883
0.00491702
0.00588699
0.00695325
0.00811928
0.00938691
0.0107553
0.0122204
0.0137752
0.01541
0.0171122
0.0188686
0.0206651
0.0224888
0.0243273