/*--------------------------------*- C++ -*----------------------------------*\
| =========                 |                                                 |
| \\      /  F ield         | OpenFOAM: The Open Source CFD Toolbox           |
|  \\    /   O peration     | Version:  2.3.0                                 |
|   \\  /    A nd           | Web:      www.OpenFOAM.org                      |
|    \\/     M anipulation  |                                                 |
\*---------------------------------------------------------------------------*/
FoamFile
{
    version     2.0;
    format      ascii;
    class       surfaceScalarField;
    location    "1000";
    object      phi;
}
// * * * * * * * * * * * * * * * * * * * * * * * * * * * * * * * * * * * * * //

dimensions      [0 3 -1 0 0 0 0];

internalField   nonuniform List<scalar> 
75810
(
-0.00776752
-0.00643826
0.00709259
0.00711625
-0.0083681
-0.00613226
0.00673283
-0.00890964
-0.00584374
0.00638539
-0.00940303
-0.00556057
0.00605396
-0.00984416
-0.00529384
0.00573501
-0.0102352
-0.00503622
0.00542723
-0.0105839
-0.00478878
0.00513751
-0.0108847
-0.00454957
0.00485037
-0.0111451
-0.00432255
0.00458298
-0.0113656
-0.00410338
0.00432385
-0.0115511
-0.00388972
0.00407523
-0.0116939
-0.00368968
0.00383247
-0.0118027
-0.00349691
0.00360573
-0.0118778
-0.00330906
0.00338411
-0.0119172
-0.00312802
0.00316744
-0.0119251
-0.0029556
0.00296351
-0.0119013
-0.00278961
0.0027658
-0.0118481
-0.00262559
0.00257235
-0.0117611
-0.00247348
0.00238652
-0.0116463
-0.00232121
0.00220643
-0.0114999
-0.00217641
0.00202999
-0.0113255
-0.00203696
0.00186255
-0.0111226
-0.00190043
0.00169747
-0.0108948
-0.00176554
0.00153776
-0.01064
-0.00163876
0.001384
-0.0103615
-0.00151481
0.00123633
-0.0100651
-0.00139131
0.00109489
-0.00975141
-0.00127177
0.000958068
-0.00942321
-0.0011535
0.000825302
-0.00908925
-0.00103796
0.000703994
-0.00874723
-0.000925166
0.000583148
-0.00840917
-0.000811045
0.000472979
-0.00808099
-0.000697171
0.000368991
-0.00776538
-0.000585482
0.000269867
-0.00747709
-0.00046959
0.000181295
-0.00722178
-0.000354892
9.95853e-05
-0.00701287
-0.000235094
2.61807e-05
-0.00685708
-0.000117146
-3.86508e-05
-0.00676623
4.4444e-06
-9.52988e-05
-0.00675705
0.000131076
-0.000140268
-0.00683184
0.000252884
-0.000178094
-0.00698769
0.000366559
-0.000210727
0.000478027
-0.00729489
-0.000170818
-0.00699583
-0.0058534
0.00641096
-0.00752507
-0.00560303
-0.00800937
-0.00535943
-0.00844322
-0.00512673
-0.00883631
-0.00490074
-0.00918732
-0.00468521
-0.00949991
-0.00447619
-0.00977273
-0.00427676
-0.0100109
-0.00408439
-0.0102159
-0.00389837
-0.0103862
-0.00371942
-0.0105271
-0.0035488
-0.0106455
-0.00337846
-0.0107321
-0.00322244
-0.0107959
-0.00306431
-0.0108334
-0.00291805
-0.0108496
-0.00277338
-0.0108453
-0.00262994
-0.0108229
-0.00249589
-0.0107812
-0.00236287
-0.0107194
-0.00223826
-0.0106459
-0.00211049
-0.0105615
-0.00198481
-0.0104577
-0.0018693
-0.0103446
-0.00175193
-0.0102259
-0.00163349
-0.0100959
-0.0015213
-0.00995939
-0.0014083
-0.00981485
-0.00129804
-0.00966533
-0.00118749
-0.00951238
-0.00107812
-0.00935654
-0.000966884
-0.00919507
-0.000858645
-0.00903186
-0.000748689
-0.00886
-0.000641456
-0.00868179
-0.000533105
-0.00849242
-0.000424462
-0.00828946
-0.000320107
-0.00806945
-0.000215575
-0.00782202
-0.000116351
-0.0075425
-2.66396e-05
-0.0072279
5.1956e-05
0.000114818
-0.00686469
-0.00630212
-0.00534253
0.00579121
-0.00677176
-0.0051334
-0.00719866
-0.00493255
-0.00758747
-0.00473793
-0.00793309
-0.00455512
-0.00824412
-0.00437419
-0.0085181
-0.00420222
-0.00876075
-0.00403411
-0.00897281
-0.00387233
-0.00915296
-0.00371822
-0.00930632
-0.00356606
-0.00943183
-0.00342329
-0.00953008
-0.00328021
-0.00960822
-0.00314431
-0.00966279
-0.00300974
-0.00969861
-0.00288223
-0.00971429
-0.0027577
-0.00971039
-0.00263384
-0.00968972
-0.00251656
-0.0096527
-0.00239989
-0.00960379
-0.00228716
-0.00953958
-0.0021747
-0.00946013
-0.00206425
-0.00937042
-0.00195901
-0.00927099
-0.00185135
-0.00915884
-0.00174565
-0.0090365
-0.00164363
-0.00890698
-0.00153782
-0.00876921
-0.00143581
-0.00862517
-0.00133153
-0.00847274
-0.00123055
-0.00831338
-0.00112625
-0.00814965
-0.00102237
-0.00797698
-0.000921365
-0.00780299
-0.000815443
-0.0076204
-0.000715695
-0.00743136
-0.000613502
-0.00723455
-0.000516914
-0.00702587
-0.000424256
-0.00680388
-0.000338345
-0.00657185
-0.000258666
-0.00632899
-0.000190906
-0.000135611
-0.00607856
-0.00568159
-0.00488528
0.00522431
-0.00609931
-0.0047157
-0.00647785
-0.00455402
-0.00682122
-0.00439458
-0.00713112
-0.00424523
-0.00740885
-0.00409646
-0.00765255
-0.00395853
-0.00786818
-0.00381848
-0.00805497
-0.00368554
-0.00821937
-0.00355383
-0.00835217
-0.00343326
-0.00846607
-0.00330938
-0.00855597
-0.00319032
-0.00862626
-0.00307402
-0.00867381
-0.00296219
-0.00870513
-0.00285091
-0.00871893
-0.0027439
-0.00871177
-0.00264101
-0.00869404
-0.00253428
-0.00866253
-0.00243141
-0.00861547
-0.00233422
-0.00855541
-0.00223476
-0.00848283
-0.00213683
-0.00840371
-0.00203813
-0.00830855
-0.00194651
-0.00820809
-0.00184611
-0.00809925
-0.00175247
-0.00797978
-0.00165729
-0.0078523
-0.0015633
-0.00771705
-0.00146677
-0.00757766
-0.00136994
-0.00742902
-0.00127489
-0.00727241
-0.00117897
-0.00711224
-0.00108154
-0.00694032
-0.000987368
-0.0067668
-0.000889209
-0.00658118
-0.000799127
-0.00639133
-0.000706762
-0.00619315
-0.00062243
-0.00599321
-0.000538292
-0.00578617
-0.000465702
-0.00557414
-0.000402935
-0.000346055
-0.0053637
-0.00512352
-0.00447848
0.00471671
-0.00549606
-0.00434317
-0.00583716
-0.00421293
-0.00614118
-0.00409057
-0.00641831
-0.0039681
-0.00666438
-0.0038504
-0.00688513
-0.00373778
-0.00707762
-0.003626
-0.00724457
-0.00351859
-0.00738606
-0.00341234
-0.0075091
-0.00331023
-0.0076099
-0.00320859
-0.0076874
-0.00311282
-0.007748
-0.00301341
-0.00779234
-0.00291785
-0.00781695
-0.00282629
-0.00782628
-0.00273457
-0.00782272
-0.00264457
-0.00780286
-0.00255415
-0.007769
-0.00246527
-0.00772379
-0.00237943
-0.00766953
-0.00228902
-0.00760255
-0.00220381
-0.00752314
-0.00211755
-0.00744132
-0.00202833
-0.0073418
-0.00194562
-0.00724044
-0.00185384
-0.00712789
-0.00176983
-0.00700977
-0.00168143
-0.00688387
-0.00159267
-0.00675334
-0.00150047
-0.00661544
-0.00141278
-0.00647254
-0.00132187
-0.00632255
-0.00123153
-0.00616779
-0.00114213
-0.00600506
-0.00105195
-0.00584215
-0.00096203
-0.0056724
-0.000876512
-0.00549857
-0.000796264
-0.0053193
-0.000717558
-0.00513923
-0.000645777
-0.00495963
-0.000582538
-0.000529866
-0.00477581
-0.00462356
-0.00411533
0.00426039
-0.00495603
-0.00401071
-0.00525817
-0.00391079
-0.00553473
-0.00381402
-0.005781
-0.00372182
-0.00600077
-0.00363063
-0.00619883
-0.00353972
-0.00637136
-0.00345347
-0.0065216
-0.00336836
-0.00665156
-0.00328238
-0.00676025
-0.00320154
-0.00684948
-0.00311936
-0.00692165
-0.00304065
-0.00697567
-0.0029594
-0.00701186
-0.00288166
-0.00703485
-0.0028033
-0.00704282
-0.0027266
-0.00703816
-0.00264922
-0.00701931
-0.002573
-0.00698866
-0.00249592
-0.00694841
-0.00241967
-0.00689516
-0.00234228
-0.00683343
-0.00226553
-0.00676329
-0.00218769
-0.00668294
-0.00210868
-0.00659641
-0.00203215
-0.00649852
-0.00195173
-0.00639855
-0.0018698
-0.00628949
-0.00179049
-0.00617505
-0.00170711
-0.00605317
-0.00162234
-0.00592616
-0.0015398
-0.00579215
-0.00145588
-0.00565487
-0.00136881
-0.00551448
-0.00128252
-0.00537109
-0.00119534
-0.00521956
-0.00111355
-0.00506551
-0.00103057
-0.00491012
-0.000951651
-0.00474992
-0.000877754
-0.00458853
-0.000807176
-0.00442448
-0.000746582
-0.000690267
-0.00426408
-0.00417923
-0.00378498
0.00384888
-0.00447604
-0.00371391
-0.00474793
-0.0036389
-0.00499188
-0.00357007
-0.00521388
-0.00349983
-0.00541312
-0.0034314
-0.00558751
-0.00336533
-0.00574183
-0.00329915
-0.0058782
-0.00323199
-0.00599181
-0.00316876
-0.00609204
-0.00310131
-0.00617251
-0.00303889
-0.00623829
-0.00297487
-0.00628384
-0.00291384
-0.00632028
-0.00284522
-0.00633965
-0.00278393
-0.00634664
-0.00271961
-0.00634114
-0.00265472
-0.00632554
-0.0025886
-0.00629636
-0.0025251
-0.00625756
-0.00245847
-0.00620965
-0.00239019
-0.00615302
-0.00232216
-0.00608806
-0.00225266
-0.00601304
-0.00218369
-0.00593228
-0.00211291
-0.00584526
-0.00203875
-0.00575047
-0.00196458
-0.0056509
-0.00189007
-0.00554583
-0.00181218
-0.00543383
-0.00173435
-0.00531961
-0.00165401
-0.0052004
-0.0015751
-0.00507457
-0.00149463
-0.00494732
-0.00140978
-0.00481215
-0.0013305
-0.00467689
-0.00124882
-0.00453861
-0.00116884
-0.00439642
-0.00109384
-0.00425457
-0.00101961
-0.00410781
-0.000953935
-0.00396302
-0.000891369
-0.000834589
-0.0038187
-0.00377462
-0.00349427
0.00348391
-0.00404549
-0.00344305
-0.00428624
-0.00339816
-0.00450674
-0.00334956
-0.00470666
-0.00329991
-0.00488473
-0.00325334
-0.00504257
-0.00320749
-0.00518282
-0.0031589
-0.00530455
-0.00311026
-0.00540974
-0.00306358
-0.00549655
-0.0030145
-0.00557036
-0.00296508
-0.00562815
-0.00291708
-0.00567366
-0.00286833
-0.00570246
-0.00281642
-0.00572065
-0.00276574
-0.00572656
-0.0027137
-0.00572435
-0.00265693
-0.0057045
-0.00260845
-0.00568079
-0.00254881
-0.00564588
-0.00249339
-0.00560136
-0.0024347
-0.00554837
-0.00237515
-0.00548704
-0.00231399
-0.00542146
-0.00224927
-0.00534798
-0.0021864
-0.00526873
-0.002118
-0.00518171
-0.0020516
-0.00509227
-0.00197951
-0.00499452
-0.00190992
-0.00489363
-0.00183523
-0.00478863
-0.00175901
-0.00467716
-0.00168657
-0.00456585
-0.00160595
-0.00444669
-0.00152893
-0.00432494
-0.00145225
-0.00420183
-0.00137193
-0.0040769
-0.00129377
-0.00395038
-0.00122036
-0.00381955
-0.00115044
-0.00368834
-0.00108515
-0.00355526
-0.00102444
-0.000967193
-0.00342266
-0.00341587
0.00315093
-0.00322934
-0.00365387
-0.00320505
-0.00387312
-0.00317892
-0.00407348
-0.0031492
-0.00425087
-0.00312252
-0.00441257
-0.00309164
-0.00455778
-0.00306229
-0.00468257
-0.00303411
-0.00479229
-0.00300054
-0.00488791
-0.00296796
-0.00496446
-0.00293796
-0.00503151
-0.00289803
-0.00508674
-0.00286185
-0.00512438
-0.00283069
-0.00515367
-0.00278713
-0.00516893
-0.00275048
-0.00517622
-0.00270641
-0.00516991
-0.00266324
-0.00515732
-0.00262104
-0.00513335
-0.00257278
-0.00510246
-0.00252427
-0.00505994
-0.00247722
-0.00501423
-0.00242087
-0.00496042
-0.0023678
-0.00489645
-0.00231324
-0.00483047
-0.00225238
-0.00475707
-0.00219139
-0.00467768
-0.00213099
-0.00459168
-0.0020655
-0.0045052
-0.00199641
-0.00441154
-0.0019289
-0.0043153
-0.00185525
-0.00421697
-0.0017849
-0.0041097
-0.00171323
-0.00400372
-0.00163491
-0.00389574
-0.00156023
-0.00378354
-0.00148414
-0.00366838
-0.00140892
-0.00355268
-0.00133607
-0.00343368
-0.00126943
-0.0033153
-0.00120353
-0.00319773
-0.00114201
-0.00307623
-0.0010887
-0.00670935
0.000548842
-0.00113438
-0.00630798
0.000531478
-0.00093285
-0.00599387
0.000502956
-0.000817064
-0.00572913
0.000467152
-0.000731882
-0.005495
0.000425328
-0.000659461
-0.00528073
0.0003822
-0.000596467
-0.00508218
0.000337057
-0.000535611
-0.00489537
0.000291937
-0.000478742
-0.00471604
0.000244492
-0.000423829
-0.00454236
0.000196499
-0.000370173
-0.00437363
0.00015054
-0.000319275
-0.00420856
0.000101612
-0.000266682
-0.00404696
5.343e-05
-0.000215038
-0.00388878
5.81511e-06
-0.000163989
-0.00373389
-4.36104e-05
-0.000111286
-0.00358266
-9.16602e-05
-5.95673e-05
-0.00343507
-0.000142773
-4.81946e-06
-0.00329071
-0.000193883
4.95218e-05
-0.00315086
-0.000245318
0.000105473
-0.00301667
-0.000298249
0.000164056
-0.00288595
-0.000352786
0.000222069
-0.00276167
-0.000409228
0.000284941
-0.00264265
-0.000466666
0.000347643
-0.00252939
-0.0005263
0.000413046
-0.00242345
-0.0005882
0.000482255
-0.0023253
-0.000651775
0.000553629
-0.00223407
-0.000718866
0.000627637
-0.00215223
-0.000787009
0.000705163
-0.00207961
-0.000858262
0.000785644
-0.00201712
-0.000933462
0.000870976
-0.0019657
-0.00101033
0.000958896
-0.00192615
-0.00109091
0.00105136
-0.00190023
-0.00117438
0.00114846
-0.00188744
-0.00126249
0.00124969
-0.00188895
-0.00135398
0.0013555
-0.00190707
-0.00144916
0.00146728
-0.001941
-0.00154889
0.00158283
-0.00199329
-0.0016526
0.00170489
-0.00206451
-0.00176136
0.00183257
-0.00215645
-0.00187486
0.0019668
-0.00227
-0.00199301
0.00210656
-0.00240653
-0.00211689
0.00225342
-0.00224693
0.00240593
-0.00256553
-0.00647431
0.000158457
-0.00612229
0.000179456
-0.00580558
0.000186247
-0.00551914
0.000180709
-0.00525945
0.000165642
-0.0050206
0.000143345
-0.00480062
0.000117084
-0.00459369
8.49994e-05
-0.0044003
5.11037e-05
-0.00421838
1.4576e-05
-0.00404253
-2.53028e-05
-0.00387668
-6.42405e-05
-0.00371736
-0.000105889
-0.00356399
-0.000147561
-0.00341602
-0.000191582
-0.00327217
-0.000235504
-0.00313429
-0.000280654
-0.00300123
-0.000326952
-0.00287307
-0.000373475
-0.0027491
-0.000422223
-0.00263043
-0.000471457
-0.00251751
-0.000522149
-0.00241071
-0.000573464
-0.00230957
-0.000627436
-0.00221546
-0.000682314
-0.00212805
-0.000739181
-0.00204979
-0.000797129
-0.00197857
-0.00085823
-0.001916
-0.000920835
-0.00186437
-0.000985092
-0.00182197
-0.00105273
-0.00179055
-0.00112233
-0.00177069
-0.00119424
-0.0017641
-0.00126908
-0.00177008
-0.00134801
-0.00179045
-0.00142879
-0.00182605
-0.0015133
-0.0018779
-0.00160075
-0.00194627
-0.00169299
-0.00203321
-0.00178791
-0.00213896
-0.00188726
-0.00226483
-0.00199102
-0.00209802
-0.00241374
-0.00582266
-9.74466e-05
-0.00557307
-7.01361e-05
-0.00533127
-5.55532e-05
-0.00510077
-4.9786e-05
-0.00488068
-5.44505e-05
-0.00467244
-6.49016e-05
-0.00447228
-8.30728e-05
-0.00428402
-0.000103258
-0.00410234
-0.000130578
-0.00392807
-0.000159696
-0.00376313
-0.000190245
-0.00360303
-0.000224343
-0.00344992
-0.000259
-0.00330101
-0.000296471
-0.00315857
-0.000334018
-0.00302005
-0.000374028
-0.00288784
-0.000412862
-0.00276078
-0.000454011
-0.00263915
-0.000495106
-0.00252283
-0.00053855
-0.00241231
-0.000581968
-0.0023078
-0.000626668
-0.00220865
-0.000672614
-0.00211612
-0.000719963
-0.00203066
-0.00076777
-0.00195267
-0.000817178
-0.00188176
-0.000868035
-0.00181921
-0.000920779
-0.00176479
-0.000975261
-0.00171995
-0.00102993
-0.0016843
-0.00108838
-0.00165936
-0.00114726
-0.00164441
-0.00120919
-0.00164067
-0.00127283
-0.00165055
-0.00133812
-0.00167258
-0.00140676
-0.00170826
-0.00147762
-0.00175849
-0.00155052
-0.00182409
-0.00162739
-0.00190525
-0.00170675
-0.00200295
-0.00178956
-0.00211878
-0.0018752
-0.00196374
-0.00225305
-0.00515583
-0.000305319
-0.00495009
-0.000275868
-0.00474825
-0.000257396
-0.00455294
-0.000245099
-0.00436367
-0.000243721
-0.00418221
-0.000246366
-0.00400849
-0.000256793
-0.00383933
-0.000272411
-0.00367756
-0.000292346
-0.00352285
-0.000314406
-0.00337351
-0.000339594
-0.00322939
-0.000368464
-0.00308899
-0.000399397
-0.00295604
-0.000429418
-0.00282778
-0.000462281
-0.00270548
-0.000496328
-0.00258678
-0.000531557
-0.00247299
-0.000567806
-0.00236418
-0.000603919
-0.00226063
-0.000642098
-0.0021625
-0.000680103
-0.0020709
-0.000718269
-0.00198416
-0.000759353
-0.00190361
-0.000800512
-0.00182961
-0.000841769
-0.00176252
-0.00088427
-0.00170162
-0.00092893
-0.00164861
-0.000973794
-0.00160369
-0.00102018
-0.00156656
-0.00106706
-0.00153867
-0.00111627
-0.00152053
-0.00116541
-0.00151171
-0.00121801
-0.00151311
-0.00127143
-0.00152524
-0.00132598
-0.0015496
-0.0013824
-0.00158612
-0.0014411
-0.00163473
-0.00150191
-0.00169774
-0.00156438
-0.00177434
-0.00163016
-0.00186699
-0.0016969
-0.00197564
-0.00176655
-0.0018395
-0.00209988
-0.00459676
-0.000484374
-0.0044192
-0.000453429
-0.00424479
-0.000431802
-0.00407425
-0.000415643
-0.00391065
-0.000407321
-0.0037497
-0.00040731
-0.00359316
-0.000413332
-0.00344423
-0.000421343
-0.00329982
-0.000436761
-0.00315991
-0.000454316
-0.00302448
-0.000475027
-0.00289467
-0.000498267
-0.00277046
-0.000523611
-0.00264917
-0.000550702
-0.00253347
-0.000577991
-0.00242204
-0.000607756
-0.0023151
-0.000638492
-0.00221376
-0.000669146
-0.00211606
-0.000701621
-0.00202525
-0.000732911
-0.00193828
-0.000767071
-0.00185563
-0.000800925
-0.00177945
-0.000835529
-0.00170985
-0.000870108
-0.0016453
-0.000906321
-0.0015862
-0.000943368
-0.00153471
-0.000980419
-0.00149028
-0.00101822
-0.0014525
-0.00105796
-0.00142264
-0.00109692
-0.00140108
-0.00113782
-0.0013866
-0.0011799
-0.00138239
-0.00122222
-0.00138797
-0.00126585
-0.0014033
-0.00131066
-0.0014288
-0.0013569
-0.00146521
-0.00140469
-0.00151369
-0.00145344
-0.00157356
-0.0015045
-0.00164782
-0.0015559
-0.00173492
-0.00160981
-0.00183576
-0.00166571
-0.00172239
-0.00195286
-0.00410346
-0.000644998
-0.00394586
-0.000611023
-0.00379227
-0.00058539
-0.00364149
-0.000566429
-0.00349341
-0.000555395
-0.00335025
-0.000550474
-0.00321222
-0.00055136
-0.0030778
-0.000555766
-0.00294716
-0.000567396
-0.00282174
-0.00057974
-0.00270148
-0.000595285
-0.00258492
-0.000614832
-0.00247201
-0.000636517
-0.00236421
-0.000658506
-0.00226021
-0.000681989
-0.00216023
-0.000707736
-0.00206535
-0.000733374
-0.00197472
-0.000759774
-0.00188931
-0.000787035
-0.0018073
-0.000814919
-0.00172989
-0.000844478
-0.00165829
-0.000872527
-0.00159156
-0.000902262
-0.00153014
-0.000931527
-0.00147321
-0.000963252
-0.00142397
-0.000992606
-0.00137991
-0.00102448
-0.00134139
-0.00105675
-0.00131059
-0.00108875
-0.00128702
-0.0011205
-0.00127017
-0.00115467
-0.00126124
-0.00118882
-0.00126075
-0.00122272
-0.00126846
-0.00125813
-0.0012856
-0.00129352
-0.00131184
-0.00133066
-0.00134853
-0.001368
-0.00139537
-0.0014066
-0.0014544
-0.00144547
-0.00152335
-0.00148696
-0.00160533
-0.00152783
-0.0017008
-0.00157024
-0.00161464
-0.00180855
-0.00367261
-0.000791094
-0.00353221
-0.000751422
-0.00339402
-0.000723572
-0.00325689
-0.000703563
-0.00312602
-0.000686267
-0.00299778
-0.000678714
-0.00287257
-0.000676565
-0.00275178
-0.000676552
-0.00263573
-0.000683449
-0.00252298
-0.000692495
-0.00241345
-0.000704811
-0.00230833
-0.000719955
-0.00220775
-0.000737093
-0.00211067
-0.00075559
-0.00201707
-0.000775585
-0.00192816
-0.000796644
-0.00184289
-0.000818647
-0.00176253
-0.000840131
-0.00168498
-0.000864587
-0.00161253
-0.000887368
-0.00154533
-0.00091168
-0.00148134
-0.000936519
-0.00142284
-0.000960761
-0.00136814
-0.000986228
-0.00132033
-0.00101106
-0.00127596
-0.00103698
-0.0012382
-0.00106223
-0.00120708
-0.00108788
-0.00118139
-0.00111444
-0.00116142
-0.00114047
-0.00114995
-0.00116614
-0.0011448
-0.00119398
-0.00114637
-0.00122114
-0.00115707
-0.00124743
-0.00117485
-0.00127574
-0.00120227
-0.00130323
-0.001239
-0.00133128
-0.0012844
-0.0013612
-0.00133883
-0.00139103
-0.00140582
-0.00141997
-0.00148292
-0.00145073
-0.00157138
-0.00148177
-0.00151323
-0.0016728
-0.00329527
-0.000918475
-0.00316498
-0.000881714
-0.00304045
-0.000848106
-0.00291935
-0.000824661
-0.00279998
-0.00080564
-0.00268462
-0.000794065
-0.00257343
-0.000787758
-0.00246283
-0.000787156
-0.00235817
-0.000788103
-0.00225808
-0.000792588
-0.00215907
-0.000803826
-0.00206383
-0.000815185
-0.00197294
-0.000827984
-0.00188542
-0.000843118
-0.00180221
-0.000858789
-0.00172178
-0.000877077
-0.00164608
-0.000894342
-0.00157271
-0.000913505
-0.00150505
-0.000932251
-0.00143992
-0.000952498
-0.00137962
-0.000971977
-0.00132316
-0.000992981
-0.00127182
-0.0010121
-0.0012246
-0.00103345
-0.00118118
-0.00105448
-0.00114439
-0.00107377
-0.00111171
-0.00109491
-0.00108446
-0.00111513
-0.00106374
-0.00113516
-0.00104907
-0.00115515
-0.00103887
-0.00117634
-0.00103649
-0.00119635
-0.00104141
-0.00121622
-0.0010523
-0.00123655
-0.00107242
-0.00125561
-0.0010998
-0.00127586
-0.00113447
-0.00129661
-0.0011778
-0.00131787
-0.00123143
-0.00133739
-0.00129261
-0.0013588
-0.00136484
-0.00137849
-0.00144773
-0.00139889
-0.00142018
-0.00154078
-0.00295722
-0.00103748
-0.00284417
-0.000994761
-0.00272926
-0.000963019
-0.0026195
-0.000934423
-0.00251151
-0.000913629
-0.00240603
-0.000899547
-0.00230606
-0.000887726
-0.00220844
-0.000884779
-0.00211324
-0.0008833
-0.00202146
-0.000884363
-0.00193359
-0.000891699
-0.00184662
-0.000902158
-0.00176456
-0.000910038
-0.001687
-0.000920686
-0.00161026
-0.000935523
-0.00153827
-0.000949073
-0.00146994
-0.000962669
-0.00140497
-0.000978477
-0.00134373
-0.00099349
-0.00128705
-0.00100918
-0.00123255
-0.00102648
-0.00118366
-0.00104186
-0.00113708
-0.00105869
-0.00109451
-0.00107602
-0.00105836
-0.00109063
-0.00102552
-0.0011066
-0.00099714
-0.00112329
-0.000974754
-0.00113751
-0.000956864
-0.00115305
-0.000945114
-0.0011669
-0.000939316
-0.00118214
-0.00093729
-0.00119838
-0.000944014
-0.00120949
-0.000958059
-0.00122251
-0.000977166
-0.0012365
-0.00100393
-0.0012491
-0.00103795
-0.00126259
-0.00107864
-0.00127718
-0.00112871
-0.00128732
-0.00118779
-0.00129972
-0.00125526
-0.00131103
-0.00133122
-0.00132293
-0.00141766
-0.00133374
0.00113748
-0.000201892
0.000235823
-0.00117141
0.00111084
-0.000154205
0.000180838
0.00109154
-0.000109668
0.000128967
0.00107863
-6.83496e-05
8.12617e-05
0.00107115
-2.90784e-05
3.65564e-05
0.00106857
6.88222e-06
-4.29604e-06
0.00106999
4.00985e-05
-4.15202e-05
0.00107462
7.13516e-05
-7.59816e-05
0.00108218
9.97487e-05
-0.000107307
0.00109164
0.00012587
-0.000135329
0.0011022
0.000149904
-0.000160466
0.00111391
0.000171801
-0.000183514
0.00112604
0.000191612
-0.000203745
0.00113759
0.000210131
-0.000221679
0.00114839
0.000226333
-0.000237136
0.0011584
0.000241164
-0.000251165
0.00116694
0.000254274
-0.000262821
0.0011736
0.000266415
-0.000273075
0.00117796
0.000276876
-0.000281235
0.00117996
0.0002863
-0.0002883
0.00117928
0.000294518
-0.000293841
0.00117566
0.000301613
-0.000297988
0.00116911
0.000307951
-0.000301403
0.00115919
0.000313062
-0.000303145
0.0011463
0.000317591
-0.000304693
0.00112989
0.000321081
-0.000304677
0.00110959
0.000324456
-0.000304152
0.00108606
0.000326478
-0.000302952
0.0010586
0.000328416
-0.000300957
0.00102805
0.000329442
-0.00029889
0.000993643
0.000330163
-0.000295755
0.000955807
0.00033072
-0.000292883
0.00091387
0.000330707
-0.00028877
0.000868248
0.000330557
-0.000284934
0.000818812
0.000330331
-0.000280896
0.000764883
0.000330457
-0.000276527
0.000705575
0.000331369
-0.000272061
0.000638121
0.000334585
-0.000267129
0.000557977
0.000343138
-0.000262995
0.000454058
0.000364195
-0.000260271
0.000299434
0.00041742
-0.000262799
2.99301e-05
0.000553767
-0.000284257
0.000935624
-0.000550135
-0.000355563
0.00103118
-0.000172448
-0.00106062
0.00100892
-0.000131946
0.000992616
-9.33621e-05
0.00098142
-5.71543e-05
0.000975368
-2.30263e-05
0.000973408
8.84225e-06
0.000974998
3.85084e-05
0.000979557
6.67921e-05
0.000986647
9.26587e-05
0.000995388
0.000117129
0.00100564
0.000139653
0.00101687
0.000160569
0.00102817
0.000180309
0.00103973
0.000198578
0.00105104
0.000215022
0.00106133
0.000230869
0.00107059
0.000245022
0.00107872
0.000258276
0.00108485
0.000270755
0.00108886
0.000282285
0.00109104
0.000292339
0.00109021
0.000302441
0.00108725
0.000310913
0.00108101
0.000319298
0.00107148
0.000327123
0.00105859
0.000333971
0.00104298
0.000340061
0.00102303
0.000346436
0.000999789
0.000351653
0.000972098
0.000357133
0.000940659
0.000361602
0.000904553
0.000366826
0.000863929
0.000371329
0.00081761
0.000376877
0.000764708
0.000383232
0.000703757
0.000391409
0.000631789
0.000403336
0.000543996
0.000422377
0.000430944
0.00045619
0.00027705
0.000518089
5.43572e-05
0.000640112
-0.000281551
0.000889676
0.00138367
-0.000729596
0.000932271
-0.000147945
-0.000956774
0.000913373
-0.000113048
0.000899625
-7.96138e-05
0.000890724
-4.82531e-05
0.000885971
-1.8274e-05
0.000885025
9.78849e-06
0.000886743
3.67899e-05
0.000891279
6.22566e-05
0.000898061
8.5876e-05
0.00090651
0.00010868
0.000916266
0.000129897
0.000926508
0.000150326
0.00093745
0.000169367
0.0009486
0.000187429
0.000958946
0.000204675
0.000969311
0.000220505
0.000978159
0.000236173
0.00098599
0.000250446
0.00099276
0.000263984
0.000997841
0.000277205
0.00100033
0.000289845
0.00100111
0.00030167
0.000998962
0.000313056
0.000994494
0.000323766
0.000986955
0.000334662
0.000976454
0.000344472
0.000961945
0.00035457
0.000944375
0.000364006
0.000922577
0.000373451
0.000896774
0.000382935
0.000865484
0.000392892
0.000829583
0.000402728
0.000787161
0.00041375
0.000738028
0.00042601
0.000679986
0.000441274
0.000610724
0.00046067
0.000526759
0.000487301
0.000421053
0.000528084
0.000285301
0.000591942
0.000104945
0.000698446
-0.000139486
0.000884542
-0.00046674
0.00121693
0.00175572
-0.000838795
0.00084095
-0.000126685
-0.00086221
0.0008249
-9.69984e-05
0.000813311
-6.80252e-05
0.000805749
-4.06905e-05
0.000801742
-1.4267e-05
0.000800679
1.08507e-05
0.000802505
3.49644e-05
0.000806934
5.78275e-05
0.000812814
7.99956e-05
0.0008202
0.000101294
0.000828462
0.000121635
0.000837954
0.000140834
0.000847823
0.000159498
0.000857473
0.000177779
0.000867181
0.000194967
0.000876431
0.000211255
0.000885119
0.000227485
0.000892546
0.000243018
0.000898387
0.000258143
0.000903238
0.000272353
0.000906218
0.000286865
0.000907292
0.000300596
0.000906161
0.000314187
0.000902251
0.000327676
0.000895819
0.000341093
0.000885911
0.000354381
0.000873153
0.000367327
0.00085645
0.000380708
0.00083586
0.000394041
0.000810324
0.000408471
0.000780229
0.000422987
0.00074389
0.000439067
0.000700728
0.000456912
0.000649302
0.000477435
0.000588035
0.000502541
0.000514172
0.000534533
0.000423204
0.000578268
0.00031018
0.000641108
0.000166686
0.000735435
-1.89523e-05
0.000884084
-0.000258673
0.00112426
-0.000554791
0.00151305
0.00208241
-0.000881485
0.000757895
-0.000108492
-0.000776088
0.000743669
-8.27727e-05
0.000734076
-5.8432e-05
0.000727361
-3.39758e-05
0.000723959
-1.08651e-05
0.000723052
1.17582e-05
0.00072475
3.32656e-05
0.000728164
5.44142e-05
0.000733285
7.48739e-05
0.000740222
9.43572e-05
0.000747713
0.000114144
0.000755796
0.000132751
0.000764255
0.000151039
0.000773109
0.000168925
0.000781544
0.000186531
0.000789346
0.000203453
0.000797005
0.000219826
0.0008034
0.000236623
0.000809152
0.000252391
0.000813392
0.000268113
0.000816135
0.000284122
0.000817081
0.00029965
0.000815647
0.00031562
0.000812382
0.000330941
0.00080635
0.000347125
0.000797602
0.000363128
0.000785622
0.000379307
0.000769723
0.000396607
0.000749515
0.000414249
0.000725356
0.00043263
0.000695788
0.000452554
0.000660076
0.000474779
0.000617241
0.000499746
0.000565624
0.000529052
0.000503485
0.00056468
0.00042819
0.000609828
0.000335886
0.000670572
0.000221398
0.000755595
7.90199e-05
0.000877813
-9.97967e-05
0.0010629
-0.000322559
0.00134702
-0.000590892
0.00178138
0.00237353
-0.000882008
0.000681789
-9.30356e-05
-0.000697246
0.000670035
-7.10191e-05
0.000661419
-4.98161e-05
0.000655835
-2.83919e-05
0.000652974
-8.00454e-06
0.000652504
1.22283e-05
0.000653697
3.20728e-05
0.000656795
5.13163e-05
0.000661386
7.0283e-05
0.000666683
8.90602e-05
0.00067356
0.000107267
0.000680631
0.000125679
0.000687872
0.000143798
0.000695328
0.000161469
0.000702992
0.000178867
0.000709743
0.000196702
0.000715983
0.000213586
0.000721849
0.000230757
0.000726513
0.000247727
0.00072998
0.000264645
0.000732323
0.000281779
0.000732962
0.000299011
0.00073189
0.000316692
0.000728493
0.000334338
0.000722753
0.000352865
0.000714382
0.000371499
0.000702824
0.000390865
0.000687902
0.00041153
0.000669257
0.000432894
0.000645878
0.000456009
0.000617327
0.000481105
0.00058271
0.000509397
0.000541321
0.000541135
0.000491403
0.000578969
0.000431088
0.000624995
0.000357203
0.000683713
0.000267109
0.000760666
0.000155893
0.000866811
1.80468e-05
0.00101566
-0.000152204
0.00123315
-0.00035838
0.0015532
-0.000599405
0.00202241
0.00263377
-0.000859643
0.000613286
-7.974e-05
-0.000626582
0.000603436
-6.11689e-05
0.000595584
-4.19641e-05
0.000591063
-2.3871e-05
0.000588513
-5.45471e-06
0.000587841
1.28999e-05
0.000589053
3.08608e-05
0.000591285
4.90844e-05
0.000595149
6.64192e-05
0.000600245
8.39642e-05
0.000605708
0.000101804
0.000611851
0.000119536
0.000618474
0.000137175
0.000625076
0.000154867
0.000631488
0.000172455
0.00063756
0.000190631
0.000642833
0.000208312
0.000647594
0.000225996
0.000651458
0.000243863
0.000654433
0.000261671
0.000656041
0.00028017
0.000656294
0.000298758
0.000654975
0.00031801
0.000651409
0.000337905
0.000646212
0.000358062
0.000638064
0.000379646
0.000627151
0.000401778
0.000613268
0.000425413
0.000595477
0.000450684
0.000573529
0.000477956
0.000546476
0.000508158
0.000513973
0.0005419
0.000474214
0.000580893
0.000426845
0.000626338
0.000369452
0.000682388
0.000299211
0.000753954
0.000213347
0.00084653
0.000107237
0.00097292
-2.6001e-05
0.0011489
-0.000186072
0.00139322
-0.000375637
0.00174276
-0.000592492
0.00223926
0.00286714
-0.000825862
0.000552011
-6.8523e-05
-0.000563228
0.000542892
-5.20499e-05
0.000536692
-3.57636e-05
0.000532494
-1.96733e-05
0.000530455
-3.41579e-06
0.000530053
1.33023e-05
0.000530935
2.99782e-05
0.000533137
4.68832e-05
0.000536367
6.31885e-05
0.000540171
8.01603e-05
0.000545451
9.65246e-05
0.000550761
0.000114225
0.00055625
0.000131686
0.000561891
0.000149226
0.000567391
0.000166955
0.000572825
0.000185197
0.000577432
0.000203705
0.000581517
0.000221911
0.000584719
0.00024066
0.000586663
0.000259727
0.000587881
0.000278953
0.000587744
0.000298895
0.00058621
0.000319545
0.000583083
0.000341032
0.000577446
0.000363699
0.000570047
0.000387045
0.000559782
0.000412044
0.000546319
0.000438876
0.000529548
0.000467455
0.000508925
0.00049858
0.000483663
0.00053342
0.000452523
0.000573039
0.000415186
0.000618231
0.000370149
0.000671375
0.000316687
0.00073585
0.000252191
0.00081845
0.000172635
0.000926085
7.41136e-05
0.00107144
-5.18831e-05
0.00127489
-0.000203756
0.00154509
-0.000381581
0.00192059
-0.000578173
0.00243586
0.00307571
-0.000786746
0.000496719
-5.9985e-05
-0.000505257
0.000489184
-4.45148e-05
0.00048362
-3.02003e-05
0.00048003
-1.60829e-05
0.000478187
-1.57292e-06
0.000477837
1.3652e-05
0.00047851
2.93057e-05
0.000479985
4.54086e-05
0.000483033
6.01396e-05
0.000486384
7.68096e-05
0.000490606
9.23025e-05
0.000495455
0.000109376
0.000500005
0.000127136
0.000505005
0.000144226
0.000509715
0.000162245
0.000514393
0.000180519
0.000518154
0.000199944
0.000521144
0.000218921
0.000523852
0.000237953
0.000525733
0.000257846
0.000526386
0.0002783
0.000525841
0.000299439
0.000524044
0.000321342
0.000520812
0.000344264