/*--------------------------------*- C++ -*----------------------------------*\
| =========                 |                                                 |
| \\      /  F ield         | OpenFOAM: The Open Source CFD Toolbox           |
|  \\    /   O peration     | Version:  2.3.0                                 |
|   \\  /    A nd           | Web:      www.OpenFOAM.org                      |
|    \\/     M anipulation  |                                                 |
\*---------------------------------------------------------------------------*/
FoamFile
{
    version     2.0;
    format      ascii;
    class       volScalarField;
    location    "10000";
    object      nut;
}
// * * * * * * * * * * * * * * * * * * * * * * * * * * * * * * * * * * * * * //

dimensions      [0 2 -1 0 0 0 0];

internalField   nonuniform List<scalar> 
42113
(
0.0521506
0.0504266
0.0487195
0.0470307
0.0453622
0.0437146
0.0420894
0.0404878
0.0389108
0.0373611
0.0358407
0.0343515
0.0328976
0.0314836
0.030114
0.0287901
0.0275144
0.0262835
0.0250846
0.0239071
0.0227497
0.0216167
0.0205122
0.0194388
0.0183984
0.0173926
0.0164205
0.0154823
0.0145763
0.0137019
0.0128565
0.012037
0.0112412
0.0104669
0.00971012
0.00896831
0.0082402
0.00752628
0.0068291
0.00615588
0.00551893
0.00495573
0.00463103
0.0540479
0.0525316
0.0510309
0.0495458
0.0480768
0.0466239
0.0451881
0.0437698
0.0423696
0.0409885
0.0396266
0.0382851
0.0369644
0.0356657
0.0343905
0.0331398
0.0319128
0.0307119
0.0295352
0.0283815
0.0272507
0.0261437
0.0250621
0.0240067
0.0229792
0.0219823
0.0210156
0.0200826
0.0191844
0.0183244
0.0175039
0.0167252
0.0159945
0.0153158
0.0146972
0.0141466
0.013673
0.013286
0.0129983
0.0128217
0.0127693
0.0128537
0.0130866
0.0557633
0.0544246
0.0530984
0.0517847
0.0504834
0.0491948
0.0479191
0.0466568
0.0454077
0.0441731
0.0429523
0.0417466
0.0405552
0.0393798
0.0382203
0.0370767
0.0359513
0.0348435
0.0337545
0.0326848
0.031635
0.0306069
0.0296016
0.0286196
0.0276638
0.0267343
0.0258348
0.0249661
0.0241323
0.0233354
0.0225793
0.0218681
0.0212068
0.0206011
0.0200589
0.0195859
0.0191918
0.0188846
0.0186746
0.0185688
0.0185752
0.0186984
0.0189407
0.05731
0.0561255
0.0549486
0.0537803
0.0526214
0.0514717
0.0503313
0.0492007
0.0480797
0.0469686
0.0458678
0.0447776
0.0436981
0.0426295
0.041573
0.0405279
0.0394953
0.0384756
0.0374698
0.0364793
0.0355047
0.0345476
0.03361
0.0326928
0.031799
0.0309296
0.0300868
0.0292736
0.028492
0.0277465
0.02704
0.0263776
0.0257633
0.0252037
0.0247047
0.024275
0.0239207
0.0236498
0.0234705
0.0233882
0.0234094
0.0235376
0.0237736
0.0587084
0.0576545
0.0566046
0.0555605
0.0545227
0.0534906
0.0524648
0.0514454
0.0504322
0.0494255
0.0484256
0.0474328
0.0464471
0.0454696
0.0445
0.0435391
0.0425866
0.0416435
0.0407101
0.0397876
0.0388766
0.0379802
0.0370993
0.0362366
0.0353931
0.0345722
0.0337757
0.0330067
0.0322671
0.0315613
0.0308931
0.0302671
0.0296872
0.0291597
0.0286921
0.028289
0.0279589
0.0277087
0.0275459
0.0274754
0.0275018
0.027629
0.0278574
0.0599723
0.0590283
0.0580865
0.0571484
0.0562139
0.0552824
0.0543539
0.0534287
0.0525068
0.0515882
0.050673
0.0497622
0.0488555
0.0479534
0.0470572
0.0461666
0.0452824
0.0444048
0.0435334
0.0426694
0.0418136
0.0409683
0.0401348
0.0393167
0.0385155
0.0377346
0.0369755
0.0362411
0.0355348
0.0348609
0.0342225
0.0336243
0.0330713
0.0325685
0.0321218
0.0317382
0.0314234
0.0311864
0.0310322
0.0309669
0.0309948
0.0311189
0.03134
0.0611125
0.060262
0.0594121
0.0585644
0.0577189
0.0568738
0.0560281
0.055183
0.0543385
0.0534948
0.0526518
0.0518099
0.0509698
0.0501315
0.0492955
0.0484634
0.0476366
0.0468145
0.0459971
0.0451842
0.0443763
0.0435753
0.042782
0.0419996
0.0412341
0.0404863
0.0397581
0.0390519
0.0383728
0.037724
0.037109
0.0365333
0.0360016
0.035518
0.0350885
0.0347176
0.0344138
0.0341839
0.0340352
0.033972
0.0339995
0.0341201
0.0343353
0.0621419
0.0613711
0.0605981
0.0598268
0.0590583
0.0582885
0.0575132
0.0567375
0.0559575
0.0551787
0.0543973
0.0536127
0.0528302
0.052046
0.0512608
0.0504769
0.0496965
0.0489216
0.04815
0.0473819
0.0466158
0.0458541
0.0451001
0.0443443
0.0436068
0.0428872
0.0421855
0.0415033
0.0408463
0.0402175
0.039621
0.0390628
0.0385478
0.0380808
0.0376666
0.037308
0.0370093
0.0367848
0.0366378
0.0365747
0.0366003
0.0367176
0.0369291
0.0630832
0.0623767
0.0616637
0.0609514
0.0602441
0.0595449
0.0588275
0.0581179
0.0573866
0.0566622
0.0559381
0.0551977
0.0544648
0.0537289
0.052987
0.0522426
0.0514973
0.0507619
0.0500261
0.0492955
0.0485708
0.047832
0.0471359
0.0463961
0.0456801
0.0449831
0.0443074
0.0436426
0.0430048
0.0423913
0.0418085
0.0412626
0.0407595
0.0403059
0.039909
0.0395669
0.0392702
0.0390503
0.0389063
0.0388424
0.0388656
0.0389762
0.0391847
0.00545132
0.00702229
0.00809061
0.00917546
0.0103305
0.0115498
0.0128188
0.0141254
0.0154608
0.0168183
0.0181942
0.0195853
0.0209901
0.022407
0.0238356
0.0252745
0.0267233
0.0281813
0.0296484
0.0311241
0.0326081
0.0341006
0.0356008
0.037109
0.0386246
0.0401477
0.0416777
0.0432147
0.0447579
0.0463075
0.0478628
0.0494233
0.0509888
0.0525588
0.0541327
0.05571
0.05729
0.058872
0.0604551
0.0620389
0.0636223
0.0652052
0.0667963
0.0134778
0.0140281
0.0147177
0.0155333
0.0164585
0.0174759
0.0185685
0.0197226
0.020925
0.0221664
0.023438
0.0247333
0.0260476
0.0273766
0.0287184
0.0300698
0.0314287
0.0327948
0.0341668
0.035543
0.0369239
0.0383087
0.0396967
0.0410879
0.0424821
0.0438791
0.0452787
0.0466807
0.0480851
0.0494916
0.0508999
0.05231
0.0537217
0.0551351
0.0565495
0.0579647
0.0593807
0.0607967
0.0622121
0.0636264
0.0650385
0.0664464
0.0678501
0.0192997
0.0197785
0.0203785
0.0210902
0.021903
0.0228047
0.0237817
0.024823
0.025917
0.0270536
0.0282245
0.0294232
0.0306437
0.0318805
0.0331308
0.0343909
0.0356584
0.0369319
0.0382095
0.0394898
0.040772
0.0420555
0.0433397
0.0446242
0.0459088
0.0471928
0.0484763
0.0497593
0.0510417
0.052323
0.0536034
0.054883
0.0561617
0.0574395
0.0587162
0.0599916
0.0612657
0.0625382
0.0638087
0.0650769
0.066342
0.0676031
0.0688618
0.0241142
0.0245612
0.0251159
0.0257717
0.0265206
0.0273519
0.0282553
0.029221
0.0302386
0.0312985
0.0323932
0.0335161
0.0346607
0.0358217
0.0369955
0.0381786
0.039368
0.0405617
0.0417581
0.0429556
0.044153
0.0453494
0.0465441
0.0477369
0.0489271
0.0501143
0.0512985
0.0524793
0.0536569
0.0548312
0.0560021
0.0571701
0.0583351
0.0594967
0.0606553
0.0618106
0.0629628
0.0641117
0.0652573
0.0663995
0.0675378
0.0686721
0.0698058
0.0281848
0.0286112
0.0291365
0.029756
0.0304621
0.0312458
0.0320981
0.0330095
0.0339706
0.0349731
0.0360089
0.0370715
0.0381549
0.039254
0.0403645
0.041483
0.0426067
0.0437334
0.0448611
0.0459881
0.0471135
0.048236
0.0493547
0.0504694
0.0515795
0.0526845
0.053784
0.0548779
0.0559663
0.0570497
0.0581277
0.0592005
0.0602685
0.0613312
0.0623886
0.0634409
0.0644883
0.0655309
0.0665687
0.0676017
0.0686302
0.0696537
0.070674
0.0316565
0.0320675
0.0325718
0.0331648
0.0338402
0.0345895
0.0354041
0.036275
0.0371934
0.0381515
0.0391413
0.0401561
0.0411903
0.0422383
0.0432966
0.0443615
0.0454307
0.0465012
0.0475711
0.048639
0.0497034
0.0507634
0.0518181
0.052867
0.0539093
0.0549446
0.0559722
0.0569923
0.0580051
0.059011
0.0600103
0.0610024
0.0619877
0.0629659
0.0639366
0.0649005
0.0658578
0.0668088
0.0677535
0.0686922
0.0696248
0.0705514
0.0714717
0.0346428
0.0350408
0.0355282
0.0361012
0.0367531
0.0374758
0.0382614
0.0391014
0.0399873
0.0409105
0.0418632
0.0428391
0.0438324
0.0448384
0.0458532
0.0468732
0.0478961
0.0489194
0.0499413
0.0509591
0.0519721
0.0529791
0.05398
0.054973
0.0559577
0.0569337
0.0578999
0.0588567
0.0598052
0.0607456
0.0616782
0.0626021
0.0635169
0.0644225
0.065319
0.0662063
0.067086
0.0679585
0.0688228
0.0696792
0.0705283
0.0713696
0.0722005
0.0372309
0.0376171
0.0380879
0.0386451
0.0392778
0.0399794
0.0407421
0.0415579
0.0424188
0.0433154
0.0442368
0.04518
0.0461388
0.0471102
0.0480882
0.0490697
0.0500542
0.0510368
0.0520193
0.0529919
0.0539632
0.0549239
0.0558811
0.0568248
0.0577618
0.0586871
0.0595992
0.0605017
0.061396
0.0622814
0.0631578
0.0640234
0.0648783
0.0657206
0.0665539
0.0673738
0.0681867
0.0689924
0.0697865
0.0705711
0.0713482
0.0721152
0.0728662
0.0394901
0.0398675
0.0403148
0.0408604
0.0414755
0.04216
0.0429047
0.0437017
0.0445443
0.0454217
0.0463118
0.0472283
0.0481543
0.0490979
0.0500405
0.0509893
0.051946
0.0528888
0.0538469
0.0547682
0.0557164
0.056626
0.0575585
0.0584458
0.0593498
0.0602255
0.0610898
0.0619482
0.0627992
0.063639
0.0644691
0.0652842
0.0660902
0.0668742
0.0676576
0.0684139
0.0691728
0.0699214
0.0706513
0.0713747
0.0720934
0.0727997
0.0734811
0.0813526
0.0779498
0.0746092
0.0713314
0.0681204
0.0649785
0.0619093
0.0589142
0.0559946
0.0531523
0.0503877
0.047701
0.0450931
0.0425639
0.040113
0.0377411
0.0354463
0.0332285
0.0310877
0.0290228
0.0270319
0.0251148
0.0232708
0.0214985
0.0197963
0.0181641
0.0166011
0.0151056
0.0136775
0.0123165
0.0110216
0.00979228
0.00862931
0.00753265
0.00650305
0.00554223
0.00465191
0.00383395
0.00309221
0.00243756
0.00193245
0.00142644
0.000838001
0.083143
0.0800116
0.0769288
0.073895
0.0709123
0.0679833
0.0651097
0.0622928
0.0595338
0.0568337
0.0541928
0.0516128
0.0490932
0.0466342
0.0442376
0.0419026
0.0396282
0.0374162
0.0352658
0.0331758
0.0311466
0.0291789
0.0272711
0.0254237
0.0236358
0.0219074
0.0202389
0.0186308
0.0170831
0.0155956
0.0141704
0.0128077
0.0115097
0.0102777
0.00911515
0.00802567
0.00701562
0.00610205
0.00530339
0.00450004
0.00366416
0.00274585
0.00164925
0.0849133
0.0820295
0.0791827
0.0763731
0.0736016
0.0708706
0.068181
0.0655336
0.0629296
0.0603694
0.0578538
0.0553833
0.0529585
0.05058
0.0482485
0.0459639
0.0437269
0.0415384
0.0393979
0.0373054
0.0352622
0.0332681
0.0313231
0.0294276
0.0275829
0.0257879
0.0240448
0.0223548
0.0207183
0.0191377
0.0176149
0.0161529
0.0147549
0.0134263
0.0121725
0.0110146
0.00994464
0.00888267
0.00779822
0.00666084
0.0054299
0.00404283
0.0024357
0.0866469
0.0839893
0.0813587
0.0787541
0.0761763
0.0736273
0.071108
0.0686184
0.0661602
0.0637328
0.061337
0.0589732
0.056642
0.054344
0.0520804
0.049851
0.047657
0.0454995
0.0433787
0.0412963
0.0392518
0.037246
0.0352805
0.0333564
0.0314732
0.0296328
0.0278381
0.0260897
0.0243899
0.0227433
0.0211525
0.0196219
0.0181597
0.0167797
0.0154738
0.0141896
0.0128982
0.0115725
0.0101851
0.00870319
0.00708371
0.00525957
0.00319009
0.0883273
0.0858779
0.0834445
0.081027
0.0786261
0.0762437
0.0738804
0.0715372
0.0692136
0.0669107
0.0646277
0.0623648
0.0601234
0.0579039
0.055707
0.0535339
0.0513848
0.0492625
0.0471674
0.0451003
0.0430629
0.0410568
0.0390825
0.0371416
0.0352354
0.0333662
0.0315358
0.0297475
0.028005
0.0263136
0.0246787
0.0231103
0.0216012
0.0201242
0.0186545
0.0171685
0.0156436
0.0140562
0.0123778
0.0105738
0.00859747
0.00638198
0.00390076
0.0899401
0.0876846
0.0854316
0.0831843
0.0809441
0.0787134
0.0764929
0.0742824
0.0720831
0.0698952
0.0677176
0.0655498
0.0633933
0.061248
0.059116
0.0569968
0.0548939
0.0528077
0.05074
0.0486924
0.0466672
0.0446666
0.0426918
0.0407451
0.0388269
0.0369401
0.0350882
0.033275
0.0315052
0.0297846
0.0281116
0.0264721
0.0248483
0.023222
0.0215754
0.01989
0.0181442
0.0163135
0.0143677
0.0122697
0.009971
0.00740568
0.00455741
0.0914883
0.0894051
0.0873151
0.0852212
0.0831263
0.0810323
0.0789405
0.0768517
0.0747665
0.0726848
0.0706051
0.0685267
0.0664489
0.0643742
0.0623031
0.0602369
0.0581772
0.0561264
0.0540868
0.05206
0.0500499
0.0480582
0.0460891
0.0441434
0.0422221
0.0403275
0.0384635
0.0366329
0.034834
0.0330634
0.0313133
0.0295687
0.0278145
0.0260371
0.0242219
0.022351
0.0204036
0.0183529
0.0161667
0.0138042
0.0112152
0.00833516
0.00515571
0.0929591
0.0910328
0.0890903
0.0871352
0.0851702
0.0831983
0.081223
0.0792452
0.0772636
0.0752789
0.0732921
0.0712971
0.069293
0.0672835
0.065271
0.063254
0.0612349
0.0592186
0.0572072
0.0552008
0.053206
0.0512236
0.0492603
0.0473226
0.0454045
0.0435042
0.0416223
0.0397599
0.0379105
0.0360727
0.0342341
0.0323814
0.0304998
0.0285777
0.0266039
0.0245638
0.022437
0.0201921
0.0177924
0.015194
0.0123465
0.00918418
0.00570168
0.094348
0.0925637
0.0907557
0.0889248
0.0870737
0.08521
0.0833393
0.0814629
0.0795761
0.0776775
0.0757782
0.0738665
0.0719305
0.0699789
0.0680223
0.0660531
0.0640712
0.0620854
0.0601033
0.0581138
0.0561348
0.0541606
0.0521923
0.0502635
0.0483537
0.0464428
0.0445265
0.042618
0.0407005
0.0387938
0.0368825
0.0349278
0.0329238
0.0308625
0.0287384
0.0265412
0.0242601
0.0218485
0.0192644
0.0164602
0.0133852
0.00999269
0.00629015
0.000485504
0.000527033
0.000713797
0.000887968
0.00105625
0.00122727
0.00141241
0.00162533
0.00187889
0.00216906
0.00249087
0.00284122
0.00321851
0.0036218
0.00405139
0.00450705
0.00498911
0.00549871
0.00603581
0.006601
0.00719495
0.00781852
0.00847203
0.009156
0.00987157
0.0106192
0.0113998
0.0122141
0.0130629
0.0139473
0.0148682
0.0158262
0.0168221
0.0178568
0.0189312
0.0200461
0.021202
0.0223998
0.02364
0.0249236
0.0262511
0.0276228
0.0290398
0.00076026
0.000690095
0.000877209
0.00106733
0.0012634
0.00147771
0.00172098
0.00200047
0.00231967
0.00267387
0.00305514
0.00346178
0.00389272
0.00434729
0.00482541
0.00532722
0.00585275
0.00640216
0.00697589
0.00757424
0.00819736
0.00884574
0.00951971
0.0102197
0.0109462
0.0117002
0.0124819
0.0132919
0.0141311
0.015
0.0158994
0.0168299
0.0177921
0.0187866
0.019814
0.0208751
0.0219705
0.023101
0.0242669
0.0254688
0.0267073
0.0279825
0.0292947
0.00108029
0.000844627
0.00103901
0.00125746
0.00149645
0.00176631
0.00207201
0.00241393
0.00279294
0.00320393
0.00363926
0.00409747
0.0045777
0.00507933
0.00560222
0.00614624
0.00671107
0.00729706
0.00790389
0.0085317
0.0091807
0.00985087
0.0105426
0.0112561
0.0119917
0.0127499
0.0135312
0.0143358
0.0151643
0.0160171
0.0168946
0.0177975
0.0187262
0.0196812
0.0206628
0.0216717
0.0227083
0.0237732
0.0248668
0.0259895
0.0271416
0.0283235
0.0295339
0.00140974
0.000991177
0.00120008
0.00145704
0.00174635
0.00207334
0.00243655
0.00283396
0.00326815
0.0037295
0.00421286
0.00471726
0.00524179
0.00578575
0.00634864
0.00693007
0.00753005
0.0081478
0.00878355
0.00943696
0.010108
0.0107965
0.0115029
0.0122274
0.0129697
0.0137306
0.0145101
0.0153081
0.0161254
0.0169622
0.0178185
0.0186951
0.0195921
0.0205096
0.0214482
0.0224083
0.0233903
0.0243944
0.0254211
0.0264708
0.0275436
0.0286403
0.029763
0.00173399
0.00113335
0.00136207
0.00166336
0.00200418
0.00238443
0.0027995
0.00324736
0.00373013
0.0042366
0.00476345
0.0053093
0.00587355
0.00645519
0.0070537
0.00766843
0.00829904
0.00894497
0.00960558
0.0102811
0.010971
0.0116753
0.012394
0.0131272
0.0138747
0.0146367
0.0154134
0.0162047
0.0170107
0.0178319
0.0186682
0.0195197
0.0203869
0.0212699
0.0221688
0.0230841
0.0240157
0.0249642
0.0259296
0.0269123
0.0279126
0.0289305
0.0299652
0.00204229
0.00127272
0.00152528
0.00187237
0.00226222
0.0026903
0.00315148
0.00364605
0.00417175
0.00471861
0.00528441
0.00586792
0.00646777
0.00708338
0.00771369
0.00835803
0.00901585
0.0096862
0.0103688
0.0110633
0.0117698
0.0124875
0.0132165
0.0139567
0.0147081
0.0154704
0.0162438
0.0170281
0.0178233
0.0186294
0.0194467
0.0202751
0.0211147
0.0219657
0.0228282
0.023702
0.0245879
0.0254853
0.0263949
0.0273167
0.0282509
0.029198
0.0301603
0.00233144
0.0014103
0.00168772
0.00207924
0.00251375
0.00298471
0.00348719
0.00402477
0.00458876
0.00517235
0.00577344
0.00639076
0.00702286
0.0076688
0.00832753
0.00899795
0.00967972
0.010372
0.011074
0.0117855
0.0125063
0.0132358
0.0139736
0.0147197
0.0154739
0.0162359
0.0170056
0.0177829
0.0185676
0.0193597
0.020159
0.0209658
0.0217801
0.0226017
0.0234304
0.0242665
0.0251103
0.0259616
0.0268203
0.0276867
0.0285606
0.0294423
0.030332
0.00259102
0.00154409
0.00184867
0.00228081
0.00275501
0.00326401
0.00380479
0.00438059
0.00497929
0.00559608
0.00622935
0.00687741
0.00753857
0.008212
0.00889638
0.0095908
0.010294
0.0110056
0.0117254
0.012453
0.0131872
0.0139267
0.0146719
0.0154228
0.016179
0.01694
0.0177061
0.0184765
0.0192505
0.0200285
0.0208108
0.0215977
0.0223886
0.0231829
0.0239805
0.0247816
0.0255869
0.0263965
0.0272094
0.028025
0.0288436
0.0296656
0.0304907
0.00292089
0.00168031
0.00199516
0.00246949
0.00298315
0.00353185
0.00410994
0.00471907
0.00534852
0.00599811
0.00666321
0.00733791
0.00802483
0.00872427
0.009433
0.0101495
0.010872
0.0116004
0.0123391
0.0130866
0.0138323
0.0145756
0.0153259
0.0160805
0.0168363
0.0175948
0.0183576
0.0191202
0.0198802
0.0206423
0.0214086
0.0221783
0.022947
0.0237146
0.0244827
0.0252502
0.0260208
0.0267947
0.0275674
0.0283348
0.0291018
0.0298703
0.0306378
0.000174072
0.000715592
0.00154792
0.00240351
0.00324292
0.00406684
0.00488136
0.00569591
0.00651384
0.00733576
0.00816293
0.00899703
0.0098419
0.0107012
0.0115785
0.0124776
0.0134031
0.0143589
0.0153475
0.016372
0.0174332
0.0185315
0.0196656
0.0208332
0.0220308
0.0232555
0.0245062
0.0257828
0.0270829
0.0284187
0.0298324
0.0313193
0.0328639
0.0344548
0.0360868
0.0377563
0.0394598
0.0411941
0.0429561
0.0447436
0.0465544
0.0483851
0.0502299
0.000111632
0.00045067
0.00101394
0.00175047
0.00259927
0.00341688
0.00421492
0.00498947
0.00574183
0.00648161
0.00721769
0.00795832
0.00870763
0.00947
0.01025
0.0110521
0.0118808
0.0127411
0.0136369
0.0145727
0.0155518
0.0165762
0.0176474
0.0187642
0.019925
0.0211267
0.022366
0.02364
0.0249469
0.0262926
0.0276915
0.029147
0.0306496
0.032192
0.0338035
0.0354842
0.0372175
0.0389941
0.0408079
0.0426544
0.0445291
0.0464273
0.0483461
8.18118e-06
0.000273164
0.000647502
0.00114679
0.00177874
0.00253647
0.00342206
0.00435239
0.00524158
0.00608825
0.00689855
0.00767783
0.00843356
0.00917324
0.00990487
0.0106355
0.011373
0.0121254
0.012901
0.0137081
0.0145539
0.0154451
0.0163871
0.0173836
0.018437
0.0195468
0.0207115
0.0219286
0.0231961
0.0245142
0.0258861
0.0273134
0.0287936
0.0303231
0.0319072
0.0335421
0.0352218
0.0369748
0.0387942
0.0406642
0.0425752
0.0445199
0.0464956
1.10709e-05
0.000238788
0.000552691
0.000960594
0.00147557
0.00209854
0.00283285
0.0036829
0.00462676
0.00556217
0.00646783
0.00734215
0.00818669
0.00900278
0.00979204
0.0105578
0.0113043
0.0120376
0.0127657
0.0134976
0.0142434
0.015014
0.0158201
0.0166718
0.0175778
0.0185445
0.019576
0.0206746
0.0218407
0.0230746
0.0243755
0.0257437
0.0271773
0.0286737
0.0302302
0.0318419
0.0335043
0.0352205
0.0369849
0.0388165
0.0407214
0.042682
0.0446875
7.16314e-06
0.000216367
0.000484127
0.000839735
0.00128609
0.0018289
0.00246843
0.00320833
0.00405299
0.0050028
0.00597648
0.0069286
0.0078521
0.00874684
0.00961352
0.0104524
0.0112644
0.0120502
0.0128123
0.013555
0.0142844
0.0150091
0.0157398
0.0164891
0.0172698
0.0180948
0.0189758
0.0199226
0.0209429
0.0220413
0.0232211
0.0244835
0.0258281
0.0272524
0.0287522
0.0303219
0.0319558
0.0336482
0.0353933
0.0371919
0.0390412
0.0409636
0.0429624
7.17447e-06
0.000208129
0.000445933
0.000768429
0.0011703
0.00165963
0.00223665
0.00290463
0.0036681
0.00453223
0.00549566
0.00648987
0.00747136
0.00842968
0.00936244
0.0102696
0.0111506
0.0120046
0.0128308
0.0136293
0.0144012
0.0151492
0.0158792
0.0165996
0.017321
0.0180569
0.0188223
0.0196326
0.0205027
0.0214454
0.0224715
0.0235883
0.0248002
0.0261085
0.0275109
0.0290025
0.0305771
0.0322262
0.0339424
0.0357185
0.0375486
0.0394352
0.0413906
6.68268e-06
0.000205812
0.000417187
0.000716367
0.0010876
0.00153779
0.00207045
0.00268693
0.00339105
0.00418771
0.00508191
0.00606829
0.00708368
0.00808996
0.00907643
0.0100404
0.0109806
0.011896
0.0127851
0.0136466
0.014479
0.0152814
0.0160546
0.0168015
0.017527
0.01824
0.0189524
0.0196791
0.0204371
0.0212445
0.0221191
0.0230766
0.0241297
0.025287
0.0265524
0.0279258
0.0294024
0.0309753
0.0326348
0.0343714
0.0361758
0.0380422
0.0399704
6.60255e-06
0.00020334
0.000397965
0.000679776
0.00102854
0.00145017
0.00194991
0.00252815
0.00318822
0.00393462
0.00477243
0.00570654
0.00671954
0.00775383
0.00878077
0.00979041
0.0107797
0.0117472
0.0126912
0.01361
0.0145015
0.0153631
0.0161934
0.0169912
0.0177572
0.0184947
0.0192098
0.0199118
0.0206149
0.021336
0.022095
0.0229131
0.0238104
0.0248043
0.0259084
0.0271304
0.0284724
0.0299312
0.0314991
0.0331663
0.0349212
0.0367537
0.0386541
6.55423e-06
0.000202896
0.000385285
0.000652462
0.000984253
0.00138443
0.00185878
0.00240781
0.00303414
0.00374178
0.00453555
0.00542066
0.0063994
0.00743914
0.00849241
0.00953755
0.0105673
0.0115785
0.0125691
0.0135376
0.0144814
0.0153979
0.0162846
0.0171386
0.0179581
0.0187424
0.0194928
0.0202133
0.0209117
0.0216004
0.0222955
0.0230177
0.0237901
0.0246364
0.0255786
0.0266346
0.0278159
0.0291277
0.0305688
0.0321319
0.0338066
0.0355804
0.0374429
6.66161e-06
0.000203869
0.000378871
0.000632349
0.000950869
0.00133483
0.00178907
0.00231539
0.00291544
0.00359288
0.00435207
0.005198
0.00613575
0.00715845
0.00822258
0.00929321
0.0103556
0.0114033
0.0124336
0.0134446
0.0144342
0.0153991
0.0163369
0.0172444
0.0181183
0.0189559
0.0197554
0.020517
0.0212435
0.0219407
0.0226192
0.023295
0.0239884
0.0247239
0.0255279
0.0264259
0.0274399
0.0285859
0.0298722
0.0312987
0.0328594
0.0345436
0.0363369
6.83102e-06
0.000205748
0.000376359
0.000616972
0.000924819
0.00129599
0.00173452
0.00224302
0.00282244
0.00347593
0.00420774
0.00502247
0.00592528
0.0069185
0.00797879
0.00906479
0.0101525
0.0112309
0.0122951
0.0133428
0.0143718
0.0153793
0.0163626
0.0173183
0.0182427
0.0191326
0.0199844
0.0207959
0.0215661
0.0222966
0.0229921
0.0236622
0.0243219
0.0249914
0.0256963
0.026465
0.0273262
0.0283057
0.0294231
0.0306891
0.0321064
0.0336689
0.0353629
7.06183e-06
0.000207827
0.000375633
0.000605096
0.00090432
0.00126529
0.00169131
0.00218573
0.00274872
0.00338312
0.00409279
0.00488232
0.00575657
0.00672008
0.00776538
0.00885661
0.00996235
0.011066
0.0121597
0.0132395
0.014303
0.015348
0.0163715
0.0173702
0.0183407
0.0192791
0.0201814
0.0210436
0.0218632
0.0226385
0.0233702
0.0240622
0.0247232
0.0253677
0.0260161
0.0266948
0.0274339
0.0282652
0.0292173
0.030313
0.0315662
0.0329802
0.0345474
7.33689e-06
0.000209965
0.00037568
0.000595789
0.000887993
0.00124082
0.00165677
0.00213981
0.00268957
0.00330855
0.00400037
0.00476932
0.00562029
0.00655801
0.00758282
0.00867084
0.00978777
0.0109116
0.0120306
0.0131388
0.0142333
0.0153116
0.016371
0.0174083
0.0184202
0.0194028
0.0203517
0.0212628
0.022132
0.022956
0.0237326
0.024462
0.0251476
0.0257977
0.0264266
0.0270551
0.0277102
0.0284244
0.0292315
0.0301633
0.0312454
0.0324932
0.0339104
7.64863e-06
0.000212019
0.000376046
0.000588516
0.000874946
0.00122118
0.00162897
0.00210268
0.00264161
0.00324795
0.00392521
0.00467738
0.00550906
0.00642519
0.00742878
0.00850783
0.00963006
0.0107691
0.0119094
0.0130431
0.0141659
0.0152745
0.0163662
0.0174383
0.0184876
0.0195103
0.020502
0.0214585
0.0223754
0.0232478
0.0240722
0.0248462
0.0255696
0.0262455
0.0268821
0.0274939
0.0281024
0.028736
0.0294289
0.0302175
0.0311362
0.0322124
0.0334613
7.99905e-06
0.000213991
0.00037661
0.000582869
0.000864492
0.00120533
0.00160661
0.00207237
0.00260235
0.00319833
0.00386352
0.0046018
0.00541748
0.00631547
0.00729993
0.00836629
0.00948904
0.010639
0.0117973
0.0129537
0.0141021
0.0152385
0.01636
0.017464
0.0185476
0.0196069
0.0206379
0.0216363
0.0225974
0.0235164
0.0243883
0.0252093
0.0259767
0.0266899
0.0273523
0.0279725
0.0285652
0.0291533
0.0297667
0.030442
0.0312178
0.0321311
0.0332124
8.38514e-06
0.000215871
0.000377288
0.000578528
0.000855969
0.00119233
0.0015882
0.00204736
0.00256987
0.00315721
0.00381238
0.00453901
0.00534141
0.00622411
0.00719185
0.0082443
0.00936349
0.0105208
0.0116943
0.0128708
0.0140425
0.0152046
0.016354
0.0174878
0.018603
0.0196963
0.0207637
0.0218008
0.022803
0.0237658
0.0246835
0.025551
0.0263644
0.0271208
0.0278198
0.0284649
0.0290652
0.0296369
0.030204
0.0307987
0.0314601
0.0322295
0.0331468
8.81195e-06
0.000217694
0.000378088
0.00057526
0.000848965
0.00118152
0.00157288
0.00202653
0.00254277
0.00312288
0.00376956
0.00448643
0.00527753
0.00614746
0.00710072
0.00813956
0.00925251
0.0104138
0.0115998
0.0127943
0.0139874
0.0151736
0.0163492
0.0175111
0.0186558
0.0197807
0.0208821
0.0219553
0.0229962
0.0239998
0.0249607
0.0258734
0.0267326
0.0275342
0.0282753
0.0289556
0.0295794
0.0301567
0.0307052
0.0312509
0.0318289
0.0324809
0.033252
9.28595e-06
0.000219442
0.000378981
0.000572874
0.000843219
0.00117252
0.00156004
0.00200904
0.00252001
0.00309392
0.00373347
0.00444202
0.00522356
0.00608246
0.00702341
0.00804958
0.00915493
0.0103176
0.0115132
0.0127234
0.0139365
0.0151456
0.0163459
0.0175342
0.0187071
0.019862
0.0209951
0.0221023
0.0231794
0.0242216
0.0252231
0.0261788
0.0270828
0.0279297
0.028715
0.0294361
0.0300935
0.0306921
0.0312431
0.0317666
0.0322909
0.0328536
0.0334948
9.807e-06
0.000221122
0.000379925
0.00057118
0.000838454
0.00116498
0.00154923
0.00199421
0.00250064
0.00306931
0.0037027
0.00440412
0.00517745
0.00602693
0.00695713
0.00797201
0.00906903
0.010231
0.0114339
0.0126577
0.0138891
0.0151196
0.0163438
0.0175574
0.0187575
0.0199409
0.0211042
0.0222436
0.023355
0.0244332
0.0254734
0.02647
0.027417
0.0283081
0.0291382
0.0299027
0.0305994
0.0312292
0.0317986
0.0323206
0.0328175
0.0333206
0.0338699
1.03561e-05
0.000222692
0.000380842
0.000569981
0.00083448
0.00115857
0.00154005
0.00198167
0.00248417
0.00304828
0.00367635
0.00437162
0.00513782
0.0059791
0.00690004
0.00790474
0.00899335
0.010153
0.0113612
0.0125967
0.0138446
0.0150954
0.0163423
0.0175806
0.0188068
0.0200177
0.02121
0.0223804
0.0235242
0.0246369
0.0257138
0.0267493
0.0277373
0.0286713
0.0295455
0.0303541
0.0310931
0.0317605
0.0323584
0.0328948
0.0333851
0.0338544
0.0343366
1.09527e-05
0.000224143
0.00038173
0.000569136
0.000831165
0.00115317
0.00153222
0.0019709
0.00247
0.00303014
0.00365359
0.00434345
0.0051034
0.00593752
0.00685026
0.00784604
0.00892634
0.0100825
0.0112941
0.0125399
0.0138033
0.0150729
0.0163415
0.0176037
0.0188551
0.0200926
0.0213132
0.0225132
0.0236883
0.0248342
0.025946
0.0270185
0.0280456
0.0290211
0.0299381
0.0307906
0.0315731
0.0322815
0.0329148
0.0334764
0.0339763
0.0344326
0.0348717
1.16086e-05
0.000225525
0.000382591
0.000568536
0.000828387
0.00114857
0.00152553
0.00196164
0.0024578
0.00301442
0.00363376
0.00431887
0.00507333
0.00590109
0.00680659
0.0077944
0.00886689
0.0100187
0.0112325
0.0124868
0.0137642
0.0150518
0.0163409
0.017626
0.0189022
0.0201656
0.0214134
0.0226422
0.0238477
0.0250255
0.0261711
0.0272792
0.0283438
0.0293589
0.0303176
0.031213
0.0320391
0.0327901
0.0334628
0.0340572
0.0345783
0.0350382
0.0354576
1.23029e-05
0.000226751
0.00038331
0.000568017
0.000825989
0.0011446
0.00151976
0.00195365
0.00244716
0.00300069
0.00361636
0.00429718
0.00504676
0.00586892
0.00676801
0.00774853
0.00881382
0.00996086
0.0111754
0.0124367
0.0137268
0.0150314
0.0163403
0.0176476
0.0189477
0.0202366
0.021511
0.0227678
0.0240028
0.0252115
0.0263898
0.0275322
0.028633
0.0296862
0.0306851
0.0316225
0.0324915
0.0332857
0.034
0.0346316
0.0351817
0.0356569
0.0360701
1.30464e-05
0.000227873
0.000383971
0.000567603
0.000823971
0.0011412
0.00151476
0.00194666
0.00243785
0.00298856
0.003601
0.00427804
0.00502314
0.00584026
0.00673362
0.00770763
0.0087661
0.00990811
0.0111223
0.0123896
0.0136906
0.0150109
0.0163394
0.017668
0.0189914
0.0203051
0.0216059
0.0228901
0.0241536
0.0253927
0.0266025
0.0277783
0.0289142
0.0300042
0.031042
0.0320201
0.0329312
0.0337683
0.0345251
0.0351968
0.0357814
0.036281
0.0367025
1.38471e-05
0.000228883
0.000384543
0.000567229
0.000822228
0.0011383
0.00151045
0.00194061
0.00242967
0.0029779
0.00358734
0.00426094
0.00500205
0.00581455
0.00670266
0.00767077
0.00872297
0.00985978
0.0110728
0.0123445
0.0136557
0.0149905
0.0163372
0.0176867
0.0190331
0.0203713
0.0216978
0.0230088
0.0243004
0.0255688
0.0268098
0.0280179
0.0291879
0.0303139
0.0313893
0.0324068
0.0333592
0.0342388
0.0350384
0.0357519
0.0363752
0.0369076
0.0373539
1.47044e-05
0.000229785
0.00038502
0.000566872
0.000820725
0.00113576
0.00150669
0.00193526
0.00242239
0.0029683
0.00357507
0.00424546
0.00498294
0.00579126
0.00667456
0.00763725
0.0086836
0.00981527
0.0110263
0.0123014
0.0136215
0.0149699
0.0163336
0.0177033
0.0190721
0.0204346
0.0217865
0.023124
0.0244433
0.0257405
0.0270116
0.0282515
0.0294547
0.0306155
0.0317277
0.0327838
0.0337764
0.0346978
0.0355403
0.0362968
0.036962
0.0375343
0.0380203
1.5608e-05
0.000230582
0.000385395
0.00056649
0.000819401
0.00113351
0.00150332
0.00193045
0.00241588
0.00295969
0.00356395
0.00423143
0.00496552
0.00576995
0.00664882
0.00760652
0.00864742
0.00977399
0.0109825
0.0122597
0.0135877
0.0149487
0.0163288
0.017718
0.0191086
0.0204946
0.0218714
0.0232351
0.0245817
0.0259075
0.0272082
0.0284793
0.029715
0.0309098
0.0320577
0.0331515
0.0341835
0.035146
0.036031
0.0368308
0.0375392
0.0381531
0.038674
1.65684e-05
0.000231265
0.000385687
0.000566083
0.000818183
0.00113152
0.00150032
0.00192619
0.00240999
0.00295185
0.00355377
0.00421853
0.00494949
0.00575031
0.00662503
0.00757804
0.0086138
0.00973544
0.0109409
0.0122195
0.0135539
0.0149264
0.0163222
0.0177303
0.0191421
0.0205511
0.0219524
0.0233419
0.0247155
0.0260694
0.0273994
0.028701
0.0299687
0.0311969
0.0323797
0.0335101
0.0345807
0.0355835
0.0365103
0.037353
0.0381045
0.0387591
0.0393136
1.75855e-05
0.000231822
0.000385871
0.000565642
0.000817092
0.0011297
0.00149756
0.00192222
0.00240453
0.00294453
0.00354425
0.00420652
0.00493446
0.00573189
0.00660274
0.00755138
0.00858222
0.00969903
0.0109011
0.0121801
0.0135198
0.0149026
0.0163133
0.0177396
0.019172
0.0206035
0.0220291
0.023444
0.0248443
0.026226
0.0275849
0.0289165
0.0302156
0.0314767
0.0326938
0.0338601
0.0349682
0.0360103
0.0369781
0.0378627
0.0386564
0.0393517
0.0399415
1.86758e-05
0.000232287
0.000386001
0.000565172
0.000816062
0.00112803
0.00149507
0.00191857
0.00239943
0.00293773
0.00353534
0.00419514
0.00492033
0.00571449
0.00658162
0.0075261
0.00855235
0.00966431
0.0108628
0.0121412
0.0134854
0.0148777
0.0163023
0.0177455
0.0191981
0.020652
0.0221012
0.0235412
0.0249678
0.026377
0.0277645
0.0291258
0.0304558
0.0317492
0.0329999
0.0342012
0.0353461
0.0364265
0.037434
0.0383599
0.039195
0.039931
0.04056
1.98257e-05
0.000232685
0.000386056
0.000564622
0.000815029
0.00112641
0.00149262
0.0019151
0.00239457
0.00293119
0.00352687
0.00418432
0.00490674
0.0056978
0.0065614
0.00750184
0.00852365
0.00963099
0.0108256