/*--------------------------------*- C++ -*----------------------------------*\
| =========                 |                                                 |
| \\      /  F ield         | OpenFOAM: The Open Source CFD Toolbox           |
|  \\    /   O peration     | Version:  2.3.0                                 |
|   \\  /    A nd           | Web:      www.OpenFOAM.org                      |
|    \\/     M anipulation  |                                                 |
\*---------------------------------------------------------------------------*/
FoamFile
{
    version     2.0;
    format      ascii;
    class       volScalarField;
    location    "10000";
    object      nuTilda;
}
// * * * * * * * * * * * * * * * * * * * * * * * * * * * * * * * * * * * * * //

dimensions      [0 2 -1 0 0 0 0];

internalField   nonuniform List<scalar> 
42113
(
0.0521506
0.0504266
0.0487195
0.0470307
0.0453622
0.0437146
0.0420894
0.0404878
0.0389108
0.0373611
0.0358407
0.0343515
0.0328976
0.0314836
0.030114
0.0287901
0.0275144
0.0262835
0.0250846
0.0239071
0.0227497
0.0216167
0.0205122
0.0194388
0.0183984
0.0173926
0.0164205
0.0154823
0.0145763
0.0137019
0.0128565
0.012037
0.0112412
0.0104669
0.00971013
0.00896833
0.00824022
0.0075263
0.00682913
0.00615592
0.00551898
0.00495578
0.00463109
0.0540479
0.0525316
0.0510309
0.0495458
0.0480768
0.0466239
0.0451881
0.0437698
0.0423696
0.0409885
0.0396266
0.0382851
0.0369644
0.0356657
0.0343905
0.0331398
0.0319128
0.0307119
0.0295352
0.0283815
0.0272507
0.0261437
0.0250621
0.0240067
0.0229792
0.0219823
0.0210156
0.0200826
0.0191844
0.0183244
0.0175039
0.0167253
0.0159945
0.0153158
0.0146972
0.0141466
0.013673
0.013286
0.0129983
0.0128217
0.0127693
0.0128538
0.0130866
0.0557633
0.0544246
0.0530984
0.0517847
0.0504834
0.0491948
0.0479191
0.0466568
0.0454077
0.0441731
0.0429523
0.0417466
0.0405552
0.0393798
0.0382203
0.0370767
0.0359513
0.0348435
0.0337545
0.0326848
0.031635
0.0306069
0.0296016
0.0286196
0.0276638
0.0267343
0.0258348
0.0249661
0.0241323
0.0233354
0.0225793
0.0218682
0.0212068
0.0206011
0.0200589
0.0195859
0.0191918
0.0188846
0.0186746
0.0185688
0.0185752
0.0186985
0.0189407
0.05731
0.0561255
0.0549486
0.0537803
0.0526214
0.0514717
0.0503313
0.0492007
0.0480797
0.0469686
0.0458678
0.0447776
0.0436981
0.0426295
0.041573
0.0405279
0.0394953
0.0384756
0.0374698
0.0364793
0.0355047
0.0345476
0.03361
0.0326928
0.031799
0.0309296
0.0300868
0.0292736
0.028492
0.0277465
0.02704
0.0263776
0.0257633
0.0252037
0.0247047
0.024275
0.0239207
0.0236498
0.0234705
0.0233882
0.0234094
0.0235377
0.0237736
0.0587084
0.0576545
0.0566046
0.0555605
0.0545227
0.0534906
0.0524648
0.0514454
0.0504322
0.0494255
0.0484256
0.0474328
0.0464471
0.0454696
0.0445
0.0435391
0.0425866
0.0416435
0.0407101
0.0397876
0.0388766
0.0379802
0.0370993
0.0362366
0.0353931
0.0345722
0.0337757
0.0330067
0.0322671
0.0315613
0.0308931
0.0302671
0.0296873
0.0291597
0.0286921
0.028289
0.0279589
0.0277087
0.0275459
0.0274754
0.0275018
0.027629
0.0278574
0.0599723
0.0590283
0.0580865
0.0571484
0.0562139
0.0552824
0.0543539
0.0534287
0.0525068
0.0515882
0.050673
0.0497622
0.0488555
0.0479534
0.0470572
0.0461666
0.0452824
0.0444048
0.0435334
0.0426694
0.0418136
0.0409683
0.0401348
0.0393167
0.0385155
0.0377346
0.0369755
0.0362411
0.0355348
0.0348609
0.0342225
0.0336243
0.0330713
0.0325685
0.0321218
0.0317382
0.0314234
0.0311864
0.0310322
0.0309669
0.0309948
0.0311189
0.03134
0.0611125
0.060262
0.0594121
0.0585644
0.0577189
0.0568738
0.0560281
0.055183
0.0543385
0.0534948
0.0526518
0.0518099
0.0509698
0.0501315
0.0492955
0.0484634
0.0476366
0.0468145
0.0459971
0.0451842
0.0443763
0.0435753
0.042782
0.0419996
0.0412341
0.0404863
0.0397581
0.0390519
0.0383728
0.037724
0.037109
0.0365333
0.0360016
0.035518
0.0350885
0.0347176
0.0344138
0.0341839
0.0340352
0.033972
0.0339995
0.0341201
0.0343353
0.0621419
0.0613711
0.0605981
0.0598268
0.0590583
0.0582885
0.0575132
0.0567375
0.0559575
0.0551787
0.0543973
0.0536127
0.0528302
0.052046
0.0512608
0.0504769
0.0496965
0.0489216
0.04815
0.0473819
0.0466158
0.0458541
0.0451001
0.0443443
0.0436068
0.0428872
0.0421855
0.0415033
0.0408463
0.0402175
0.039621
0.0390628
0.0385478
0.0380808
0.0376666
0.037308
0.0370093
0.0367848
0.0366378
0.0365748
0.0366003
0.0367176
0.0369291
0.0630832
0.0623767
0.0616637
0.0609514
0.0602441
0.0595449
0.0588275
0.0581179
0.0573866
0.0566622
0.0559381
0.0551977
0.0544648
0.0537289
0.052987
0.0522426
0.0514973
0.0507619
0.0500261
0.0492955
0.0485708
0.047832
0.0471359
0.0463961
0.0456801
0.0449831
0.0443074
0.0436426
0.0430048
0.0423913
0.0418085
0.0412626
0.0407595
0.0403059
0.039909
0.0395669
0.0392702
0.0390503
0.0389063
0.0388424
0.0388656
0.0389762
0.0391847
0.00545136
0.00702232
0.00809063
0.00917548
0.0103305
0.0115498
0.0128188
0.0141254
0.0154608
0.0168183
0.0181942
0.0195853
0.0209901
0.022407
0.0238356
0.0252745
0.0267233
0.0281813
0.0296484
0.0311241
0.0326081
0.0341006
0.0356008
0.037109
0.0386246
0.0401477
0.0416777
0.0432147
0.0447579
0.0463075
0.0478628
0.0494233
0.0509888
0.0525588
0.0541327
0.05571
0.05729
0.058872
0.0604551
0.0620389
0.0636223
0.0652052
0.0667963
0.0134778
0.0140281
0.0147177
0.0155334
0.0164585
0.0174759
0.0185685
0.0197226
0.020925
0.0221664
0.023438
0.0247333
0.0260476
0.0273766
0.0287184
0.0300698
0.0314287
0.0327948
0.0341668
0.035543
0.0369239
0.0383087
0.0396967
0.0410879
0.0424821
0.0438791
0.0452787
0.0466807
0.0480851
0.0494916
0.0508999
0.05231
0.0537217
0.0551351
0.0565495
0.0579647
0.0593807
0.0607967
0.0622121
0.0636264
0.0650385
0.0664464
0.0678501
0.0192997
0.0197785
0.0203785
0.0210902
0.021903
0.0228047
0.0237817
0.024823
0.025917
0.0270536
0.0282245
0.0294232
0.0306437
0.0318805
0.0331308
0.0343909
0.0356584
0.0369319
0.0382095
0.0394898
0.040772
0.0420555
0.0433397
0.0446242
0.0459088
0.0471928
0.0484763
0.0497593
0.0510417
0.052323
0.0536034
0.054883
0.0561618
0.0574395
0.0587162
0.0599916
0.0612657
0.0625382
0.0638087
0.0650769
0.066342
0.0676031
0.0688618
0.0241142
0.0245612
0.025116
0.0257717
0.0265206
0.0273519
0.0282553
0.029221
0.0302386
0.0312985
0.0323932
0.0335161
0.0346607
0.0358217
0.0369955
0.0381786
0.039368
0.0405617
0.0417581
0.0429556
0.044153
0.0453494
0.0465441
0.0477369
0.0489271
0.0501143
0.0512985
0.0524793
0.0536569
0.0548312
0.0560021
0.0571701
0.0583351
0.0594967
0.0606553
0.0618106
0.0629628
0.0641117
0.0652573
0.0663995
0.0675378
0.0686721
0.0698058
0.0281848
0.0286112
0.0291365
0.029756
0.0304621
0.0312458
0.0320981
0.0330095
0.0339706
0.0349731
0.0360089
0.0370715
0.0381549
0.039254
0.0403645
0.041483
0.0426067
0.0437334
0.0448611
0.0459881
0.0471135
0.048236
0.0493547
0.0504694
0.0515795
0.0526845
0.053784
0.0548779
0.0559663
0.0570497
0.0581277
0.0592005
0.0602685
0.0613312
0.0623886
0.0634409
0.0644883
0.0655309
0.0665687
0.0676017
0.0686302
0.0696537
0.070674
0.0316565
0.0320675
0.0325718
0.0331648
0.0338402
0.0345895
0.0354041
0.036275
0.0371934
0.0381515
0.0391413
0.0401561
0.0411903
0.0422383
0.0432966
0.0443615
0.0454307
0.0465012
0.0475711
0.048639
0.0497034
0.0507634
0.0518181
0.052867
0.0539093
0.0549446
0.0559722
0.0569923
0.0580051
0.059011
0.0600103
0.0610024
0.0619877
0.0629659
0.0639366
0.0649005
0.0658578
0.0668088
0.0677535
0.0686922
0.0696248
0.0705514
0.0714717
0.0346428
0.0350409
0.0355282
0.0361012
0.0367531
0.0374758
0.0382614
0.0391014
0.0399873
0.0409105
0.0418632
0.0428391
0.0438324
0.0448384
0.0458532
0.0468732
0.0478961
0.0489194
0.0499413
0.0509591
0.0519721
0.0529791
0.05398
0.054973
0.0559577
0.0569337
0.0578999
0.0588567
0.0598052
0.0607456
0.0616782
0.0626021
0.0635169
0.0644225
0.065319
0.0662063
0.067086
0.0679585
0.0688228
0.0696792
0.0705283
0.0713696
0.0722005
0.0372309
0.0376171
0.0380879
0.0386451
0.0392778
0.0399794
0.0407421
0.0415579
0.0424188
0.0433154
0.0442368
0.04518
0.0461388
0.0471102
0.0480882
0.0490697
0.0500542
0.0510368
0.0520193
0.0529919
0.0539632
0.0549239
0.0558811
0.0568248
0.0577618
0.0586871
0.0595992
0.0605017
0.061396
0.0622814
0.0631578
0.0640234
0.0648783
0.0657206
0.0665539
0.0673738
0.0681867
0.0689924
0.0697865
0.0705711
0.0713482
0.0721152
0.0728662
0.0394901
0.0398675
0.0403148
0.0408604
0.0414755
0.04216
0.0429047
0.0437017
0.0445443
0.0454217
0.0463118
0.0472283
0.0481543
0.0490979
0.0500405
0.0509893
0.051946
0.0528888
0.0538469
0.0547682
0.0557164
0.056626
0.0575585
0.0584458
0.0593498
0.0602255
0.0610898
0.0619482
0.0627992
0.063639
0.0644691
0.0652842
0.0660902
0.0668742
0.0676576
0.0684139
0.0691728
0.0699214
0.0706513
0.0713747
0.0720934
0.0727997
0.0734811
0.0813526
0.0779498
0.0746092
0.0713314
0.0681204
0.0649785
0.0619093
0.0589142
0.0559946
0.0531523
0.0503877
0.047701
0.0450931
0.0425639
0.040113
0.0377411
0.0354463
0.0332285
0.0310877
0.0290228
0.0270319
0.0251148
0.0232708
0.0214985
0.0197963
0.0181641
0.0166011
0.0151056
0.0136775
0.0123165
0.0110216
0.00979229
0.00862933
0.00753268
0.00650308
0.00554227
0.00465197
0.00383404
0.00309236
0.00243779
0.00193282
0.00142711
0.000839951
0.083143
0.0800116
0.0769288
0.073895
0.0709123
0.0679833
0.0651097
0.0622928
0.0595338
0.0568337
0.0541928
0.0516128
0.0490932
0.0466342
0.0442376
0.0419026
0.0396282
0.0374162
0.0352658
0.0331758
0.0311466
0.0291789
0.0272711
0.0254237
0.0236358
0.0219074
0.0202389
0.0186308
0.0170831
0.0155956
0.0141704
0.0128078
0.0115097
0.0102777
0.00911517
0.00802569
0.00701565
0.00610209
0.00530344
0.00450011
0.00366426
0.00274603
0.00164975
0.0849133
0.0820295
0.0791827
0.0763731
0.0736016
0.0708706
0.068181
0.0655336
0.0629296
0.0603694
0.0578538
0.0553833
0.0529585
0.05058
0.0482485
0.0459639
0.0437269
0.0415384
0.0393979
0.0373054
0.0352622
0.0332681
0.0313231
0.0294276
0.0275829
0.0257879
0.0240448
0.0223548
0.0207183
0.0191377
0.0176149
0.0161529
0.0147549
0.0134263
0.0121725
0.0110146
0.00994466
0.00888269
0.00779824
0.00666087
0.00542995
0.00404292
0.00243593
0.0866469
0.0839893
0.0813587
0.0787541
0.0761763
0.0736273
0.071108
0.0686184
0.0661602
0.0637328
0.061337
0.0589732
0.056642
0.054344
0.0520804
0.049851
0.047657
0.0454995
0.0433787
0.0412963
0.0392518
0.037246
0.0352805
0.0333564
0.0314732
0.0296328
0.0278381
0.0260897
0.0243899
0.0227433
0.0211525
0.0196219
0.0181597
0.0167797
0.0154738
0.0141896
0.0128982
0.0115726
0.0101852
0.00870321
0.00708374
0.00525962
0.00319023
0.0883273
0.0858779
0.0834445
0.081027
0.0786261
0.0762437
0.0738804
0.0715372
0.0692136
0.0669107
0.0646277
0.0623648
0.0601234
0.0579039
0.055707
0.0535339
0.0513848
0.0492625
0.0471674
0.0451003
0.0430629
0.0410568
0.0390825
0.0371416
0.0352354
0.0333662
0.0315358
0.0297475
0.028005
0.0263136
0.0246787
0.0231103
0.0216012
0.0201242
0.0186545
0.0171685
0.0156436
0.0140562
0.0123778
0.0105738
0.00859749
0.00638202
0.00390085
0.0899401
0.0876846
0.0854316
0.0831843
0.0809441
0.0787134
0.0764929
0.0742824
0.0720831
0.0698952
0.0677176
0.0655498
0.0633933
0.061248
0.059116
0.0569968
0.0548939
0.0528077
0.05074
0.0486924
0.0466672
0.0446666
0.0426918
0.0407451
0.0388269
0.0369401
0.0350882
0.033275
0.0315052
0.0297846
0.0281116
0.0264721
0.0248483
0.023222
0.0215754
0.01989
0.0181442
0.0163136
0.0143677
0.0122697
0.00997101
0.00740571
0.00455748
0.0914883
0.0894051
0.0873151
0.0852212
0.0831263
0.0810323
0.0789405
0.0768517
0.0747665
0.0726848
0.0706051
0.0685267
0.0664489
0.0643742
0.0623031
0.0602369
0.0581772
0.0561264
0.0540868
0.05206
0.0500499
0.0480582
0.0460891
0.0441434
0.0422221
0.0403275
0.0384635
0.0366329
0.034834
0.0330634
0.0313133
0.0295687
0.0278145
0.0260371
0.0242219
0.022351
0.0204036
0.0183529
0.0161667
0.0138042
0.0112152
0.00833518
0.00515576
0.0929591
0.0910328
0.0890903
0.0871352
0.0851702
0.0831983
0.081223
0.0792452
0.0772636
0.0752789
0.0732921
0.0712971
0.069293
0.0672835
0.065271
0.063254
0.0612349
0.0592186
0.0572072
0.0552008
0.053206
0.0512236
0.0492603
0.0473226
0.0454045
0.0435042
0.0416223
0.0397599
0.0379105
0.0360727
0.0342341
0.0323814
0.0304998
0.0285777
0.0266039
0.0245638
0.022437
0.0201921
0.0177924
0.015194
0.0123465
0.00918419
0.00570172
0.094348
0.0925637
0.0907557
0.0889248
0.0870737
0.08521
0.0833393
0.0814629
0.0795761
0.0776775
0.0757782
0.0738665
0.0719305
0.0699789
0.0680223
0.0660531
0.0640712
0.0620854
0.0601033
0.0581138
0.0561348
0.0541606
0.0521923
0.0502635
0.0483537
0.0464428
0.0445265
0.042618
0.0407005
0.0387938
0.0368825
0.0349278
0.0329238
0.0308625
0.0287384
0.0265412
0.0242601
0.0218485
0.0192644
0.0164602
0.0133852
0.0099927
0.00629018
0.000491157
0.000531867
0.000716475
0.000889708
0.00105748
0.00122818
0.0014131
0.00162585
0.00187928
0.00216936
0.00249109
0.00284139
0.00321864
0.00362191
0.00405148
0.00450711
0.00498916
0.00549875
0.00603584
0.00660104
0.00719498
0.00781854
0.00847205
0.00915602
0.00987158
0.0106192
0.0113998
0.0122141
0.0130629
0.0139473
0.0148682
0.0158262
0.0168221
0.0178568
0.0189312
0.0200461
0.0212021
0.0223998
0.0236401
0.0249236
0.0262511
0.0276228
0.0290398
0.000762625
0.000692956
0.000878992
0.00106853
0.00126427
0.00147834
0.00172145
0.00200081
0.00231992
0.00267406
0.00305529
0.00346189
0.00389281
0.00434737
0.00482547
0.00532727
0.00585279
0.0064022
0.00697592
0.00757426
0.00819738
0.00884575
0.00951973
0.0102197
0.0109462
0.0117002
0.0124819
0.0132919
0.0141311
0.015
0.0158994
0.0168299
0.0177921
0.0187866
0.0198141
0.0208751
0.0219705
0.023101
0.0242669
0.0254688
0.0267073
0.0279825
0.0292947
0.00108147
0.000846548
0.00104028
0.00125833
0.00149707
0.00176675
0.00207233
0.00241417
0.00279312
0.00320406
0.00363937
0.00409755
0.00457777
0.00507938
0.00560227
0.00614628
0.0067111
0.00729709
0.00790391
0.00853172
0.00918072
0.00985089
0.0105427
0.0112561
0.0119917
0.0127499
0.0135312
0.0143358
0.0151643
0.0160172
0.0168946
0.0177975
0.0187263
0.0196812
0.0206628
0.0216717
0.0227083
0.0237732
0.0248668
0.0259895
0.0271416
0.0283235
0.0295339
0.00141043
0.000992576
0.00120103
0.00145769
0.0017468
0.00207366
0.00243678
0.00283413
0.00326828
0.0037296
0.00421294
0.00471732
0.00524184
0.00578579
0.00634868
0.0069301
0.00753008
0.00814782
0.00878357
0.00943697
0.010108
0.0107965
0.0115029
0.0122274
0.0129698
0.0137306
0.0145101
0.0153081
0.0161254
0.0169622
0.0178185
0.0186951
0.0195921
0.0205096
0.0214482
0.0224083
0.0233903
0.0243944
0.0254211
0.0264708
0.0275436
0.0286403
0.029763
0.00173445
0.00113443
0.00136281
0.00166386
0.00200452
0.00238467
0.00279967
0.00324749
0.00373023
0.00423668
0.00476351
0.00530935
0.00587359
0.00645522
0.00705373
0.00766845
0.00829906
0.00894499
0.00960559
0.0102811
0.010971
0.0116753
0.012394
0.0131272
0.0138747
0.0146368
0.0154134
0.0162047
0.0170108
0.0178319
0.0186682
0.0195197
0.0203869
0.0212699
0.0221688
0.0230841
0.0240157
0.0249642
0.0259296
0.0269123
0.0279126
0.0289305
0.0299652
0.00204262
0.00127357
0.00152587
0.00187276
0.00226249
0.00269049
0.00315162
0.00364615
0.00417183
0.00471867
0.00528446
0.00586796
0.0064678
0.00708341
0.00771371
0.00835805
0.00901587
0.00968622
0.0103688
0.0110633
0.0117698
0.0124875
0.0132165
0.0139567
0.0147081
0.0154704
0.0162438
0.0170281
0.0178233
0.0186294
0.0194467
0.0202751
0.0211147
0.0219657
0.0228282
0.023702
0.0245879
0.0254853
0.0263949
0.0273167
0.0282509
0.029198
0.0301603
0.00233169
0.00141099
0.00168821
0.00207956
0.00251397
0.00298487
0.0034873
0.00402485
0.00458882
0.00517241
0.00577348
0.0063908
0.00702289
0.00766882
0.00832755
0.00899797
0.00967973
0.010372
0.011074
0.0117855
0.0125063
0.0132358
0.0139736
0.0147197
0.0154739
0.0162359
0.0170056
0.0177829
0.0185676
0.0193597
0.020159
0.0209658
0.0217801
0.0226017
0.0234304
0.0242665
0.0251103
0.0259616
0.0268203
0.0276867
0.0285606
0.0294423
0.030332
0.00259122
0.00154467
0.00184907
0.00228108
0.00275519
0.00326414
0.00380489
0.00438066
0.00497935
0.00559612
0.00622939
0.00687744
0.0075386
0.00821202
0.0088964
0.00959082
0.0102941
0.0110056
0.0117254
0.012453
0.0131872
0.0139267
0.0146719
0.0154228
0.016179
0.01694
0.0177061
0.0184765
0.0192505
0.0200285
0.0208108
0.0215977
0.0223886
0.0231829
0.0239805
0.0247816
0.0255869
0.0263965
0.0272094
0.028025
0.0288436
0.0296656
0.0304907
0.00292105
0.0016808
0.00199551
0.00246972
0.0029833
0.00353196
0.00411003
0.00471913
0.00534857
0.00599815
0.00666324
0.00733793
0.00802485
0.00872429
0.00943302
0.0101496
0.0108721
0.0116004
0.0123391
0.0130866
0.0138323
0.0145756
0.0153259
0.0160805
0.0168363
0.0175948
0.0183576
0.0191202
0.0198802
0.0206423
0.0214086
0.0221783
0.022947
0.0237146
0.0244827
0.0252502
0.0260208
0.0267947
0.0275674
0.0283348
0.0291018
0.0298703
0.0306378
0.000202865
0.000718255
0.0015485
0.00240375
0.00324305
0.00406692
0.00488142
0.00569595
0.00651387
0.00733579
0.00816295
0.00899705
0.00984192
0.0107012
0.0115785
0.0124776
0.0134031
0.0143589
0.0153475
0.016372
0.0174332
0.0185315
0.0196656
0.0208332
0.0220308
0.0232555
0.0245062
0.0257828
0.0270829
0.0284188
0.0298324
0.0313193
0.0328639
0.0344548
0.0360868
0.0377563
0.0394598
0.0411941
0.0429561
0.0447436
0.0465544
0.0483851
0.0502299
0.000153888
0.000457178
0.00101528
0.00175091
0.00259948
0.003417
0.004215
0.00498952
0.00574187
0.00648164
0.00721771
0.00795834
0.00870764
0.00947002
0.01025
0.0110521
0.0118809
0.0127411
0.0136369
0.0145727
0.0155518
0.0165762
0.0176474
0.0187642
0.019925
0.0211267
0.022366
0.02364
0.0249469
0.0262926
0.0276915
0.0291471
0.0306496
0.032192
0.0338035
0.0354842
0.0372175
0.0389941
0.0408079
0.0426544
0.0445291
0.0464273
0.0483461
6.01294e-05
0.000288819
0.000650746
0.00114784
0.00177917
0.00253668
0.00342218
0.00435246
0.00524163
0.00608829
0.00689858
0.00767785
0.00843358
0.00917325
0.00990489
0.0106355
0.011373
0.0121254
0.012901
0.0137081
0.0145539
0.0154451
0.0163871
0.0173836
0.018437
0.0195468
0.0207115
0.0219286
0.0231961
0.0245142
0.0258861
0.0273134
0.0287936
0.0303232
0.0319072
0.0335421
0.0352218
0.0369748
0.0387942
0.0406642
0.0425752
0.0445199
0.0464956
6.54689e-05
0.000257981
0.000557105
0.000962084
0.00147621
0.00209885
0.00283302
0.00368301
0.00462683
0.00556221
0.00646787
0.00734218
0.00818671
0.0090028
0.00979205
0.0105578
0.0113043
0.0120376
0.0127657
0.0134976
0.0142434
0.0150141
0.0158201
0.0166718
0.0175778
0.0185445
0.019576
0.0206746
0.0218407
0.0230746
0.0243755
0.0257437
0.0271773
0.0286737
0.0302302
0.0318419
0.0335043
0.0352205
0.0369849
0.0388165
0.0407214
0.0426821
0.0446875
5.79279e-05
0.000238368
0.000489814
0.000841679
0.00128693
0.00182931
0.00246865
0.00320847
0.00405307
0.00500285
0.00597652
0.00692863
0.00785212
0.00874685
0.00961354
0.0104525
0.0112645
0.0120503
0.0128123
0.013555
0.0142844
0.0150091
0.0157398
0.0164891
0.0172698
0.0180948
0.0189758
0.0199226
0.0209429
0.0220413
0.0232211
0.0244835
0.0258281
0.0272524
0.0287522
0.0303219
0.0319558
0.0336482
0.0353933
0.0371919
0.0390412
0.0409636
0.0429624
5.79453e-05
0.000231284
0.000452571
0.000770745
0.00117131
0.00166013
0.00223693
0.0029048
0.00366821
0.0045323
0.00549571
0.00648991
0.00747138
0.0084297
0.00936246
0.0102696
0.0111506
0.0120046
0.0128308
0.0136293
0.0144012
0.0151492
0.0158792
0.0165996
0.017321
0.0180569
0.0188223
0.0196326
0.0205027
0.0214454
0.0224715
0.0235883
0.0248002
0.0261085
0.0275109
0.0290025
0.0305771
0.0322262
0.0339424
0.0357185
0.0375486
0.0394352
0.0413906
5.68189e-05
0.000229298
0.000424699
0.000719024
0.00108876
0.00153837
0.00207077
0.00268712
0.00339117
0.00418779
0.00508196
0.00606833
0.00708371
0.00808998
0.00907644
0.0100404
0.0109806
0.0118961
0.0127851
0.0136466
0.014479
0.0152814
0.0160546
0.0168015
0.017527
0.0182401
0.0189524
0.0196791
0.0204371
0.0212445
0.0221192
0.0230766
0.0241297
0.025287
0.0265524
0.0279258
0.0294024
0.0309753
0.0326348
0.0343714
0.0361758
0.0380422
0.0399704
5.66226e-05
0.000227187
0.000406153
0.000682721
0.00102983
0.00145082
0.00195027
0.00252837
0.00318836
0.00393471
0.00477249
0.00570658
0.00671957
0.00775385
0.00878079
0.00979043
0.0107797
0.0117472
0.0126912
0.01361
0.0145015
0.0153631
0.0161934
0.0169912
0.0177572
0.0184947
0.0192098
0.0199118
0.0206149
0.021336
0.022095
0.0229131
0.0238104
0.0248043
0.0259084
0.0271304
0.0284724
0.0299312
0.0314991
0.0331663
0.0349212
0.0367537
0.0386541
5.64993e-05
0.000226801
0.000393965
0.000655651
0.000985669
0.00138514
0.00185917
0.00240805
0.00303429
0.00374188
0.00453562
0.00542071
0.00639943
0.00743916
0.00849243
0.00953756
0.0105673
0.0115785
0.0125691
0.0135376
0.0144814
0.0153979
0.0162846
0.0171386
0.0179581
0.0187424
0.0194928
0.0202133
0.0209117
0.0216004
0.0222955
0.0230177
0.0237901
0.0246364
0.0255786
0.0266346
0.0278159
0.0291277
0.0305688
0.0321319
0.0338066
0.0355804
0.0374429
5.6742e-05
0.000227623
0.000387815
0.000635738
0.000952385
0.0013356
0.0017895
0.00231564
0.0029156
0.00359299
0.00435214
0.00519806
0.00613578
0.00715848
0.0082226
0.00929323
0.0103556
0.0114033
0.0124336
0.0134446
0.0144342
0.0153991
0.016337
0.0172444
0.0181183
0.0189559
0.0197554
0.020517
0.0212435
0.0219407
0.0226192
0.023295
0.0239884
0.0247239
0.0255279
0.0264259
0.0274399
0.0285859
0.0298722
0.0312987
0.0328594
0.0345436
0.0363369
5.7126e-05
0.000229222
0.000385409
0.000620526
0.00092642
0.00129681
0.00173498
0.00224329
0.00282261
0.00347605
0.00420781
0.00502252
0.00592532
0.00691853
0.00797881
0.00906481
0.0101525
0.0112309
0.0122951
0.0133428
0.0143718
0.0153793
0.0163626
0.0173183
0.0182428
0.0191326
0.0199844
0.0207959
0.0215661
0.0222966
0.0229921
0.0236622
0.0243219
0.0249914
0.0256963
0.026465
0.0273262
0.0283057
0.0294231
0.0306891
0.0321064
0.0336689
0.0353629
5.76422e-05
0.000230996
0.000384714
0.000608786
0.000905993
0.00126615
0.00169179
0.00218602
0.00274891
0.00338324
0.00409288
0.00488238
0.00575661
0.00672011
0.0077654
0.00885663
0.00996237
0.011066
0.0121597
0.0132395
0.014303
0.015348
0.0163715
0.0173702
0.0183407
0.0192791
0.0201814
0.0210436
0.0218632
0.0226385
0.0233703
0.0240622
0.0247232
0.0253677
0.0260161
0.0266948
0.0274339
0.0282652
0.0292173
0.030313
0.0315662
0.0329802
0.0345474
5.8245e-05
0.000232826
0.000384758
0.000599592
0.000889727
0.00124171
0.00165727
0.00214011
0.00268976
0.00330867
0.00400046
0.00476938
0.00562033
0.00655804
0.00758284
0.00867086
0.00978778
0.0109116
0.0120306
0.0131388
0.0142333
0.0153116
0.016371
0.0174083
0.0184202
0.0194028
0.0203517
0.0212628
0.022132
0.022956
0.0237326
0.024462
0.0251476
0.0257977
0.0264266
0.0270551
0.0277102
0.0284244
0.0292315
0.0301633
0.0312454
0.0324932
0.0339104
5.89119e-05
0.000234589
0.000385109
0.00059241
0.000876731
0.0012221
0.00162949
0.00210299
0.00264181
0.00324808
0.0039253
0.00467745
0.00550911
0.00642522
0.0074288
0.00850785
0.00963008
0.0107691
0.0119094
0.0130431
0.0141659
0.0152745
0.0163662
0.0174383
0.0184876
0.0195103
0.020502
0.0214585
0.0223754
0.0232478
0.0240722
0.0248462
0.0255696
0.0262455
0.0268821
0.0274939
0.0281024
0.028736
0.0294289
0.0302175
0.0311362
0.0322124
0.0334613
5.9642e-05
0.000236287
0.000385648
0.000586836
0.00086632
0.00120627
0.00160714
0.00207269
0.00260255
0.00319846
0.00386361
0.00460187
0.00541753
0.00631551
0.00729995
0.00836631
0.00948906
0.010639
0.0117973
0.0129537
0.0141021
0.0152385
0.01636
0.017464
0.0185476
0.0196069
0.0206379
0.0216363
0.0225974
0.0235164
0.0243883
0.0252093
0.0259767
0.0266899
0.0273523
0.0279725
0.0285652
0.0291533
0.0297667
0.030442
0.0312178
0.0321311
0.0332124
6.04238e-05
0.000237909
0.000386298
0.000582552
0.000857833
0.00119329
0.00158874
0.00204769
0.00257008
0.00315735
0.00381248
0.00453907
0.00534146
0.00622414
0.00719188
0.00824432
0.00936351
0.0105208
0.0116943
0.0128708
0.0140425
0.0152046
0.016354
0.0174878
0.018603
0.0196963
0.0207637
0.0218008
0.022803
0.0237658
0.0246835
0.025551
0.0263644
0.0271208
0.0278198
0.0284649
0.0290652
0.0296369
0.030204
0.0307987
0.0314601
0.0322295
0.0331468
6.12627e-05
0.000239486
0.000387065
0.00057933
0.00085086
0.0011825
0.00157344
0.00202686
0.00254298
0.00312302
0.00376965
0.00448649
0.00527758
0.0061475
0.00710074
0.00813958
0.00925252
0.0104138
0.0115998
0.0127943
0.0139874
0.0151736
0.0163492
0.0175111
0.0186558
0.0197807
0.0208821
0.0219553
0.0229962
0.0239998
0.0249607
0.0258734
0.0267326
0.0275342
0.0282753
0.0289556
0.0295794
0.0301567
0.0307052
0.0312509
0.0318289
0.0324809
0.033252
6.21654e-05
0.000241001
0.000387921
0.000576977
0.000845139
0.00117351
0.0015606
0.00200938
0.00252022
0.00309407
0.00373357
0.00444209
0.00522361
0.00608249
0.00702344
0.0080496
0.00915494
0.0103176
0.0115132
0.0127234
0.0139365
0.0151456
0.0163459
0.0175342
0.0187072
0.019862
0.0209951
0.0221023
0.0231794
0.0242216
0.0252231
0.0261788
0.0270828
0.0279297
0.028715
0.0294361
0.0300935
0.0306921
0.0312431
0.0317666
0.0322909
0.0328536
0.0334948
6.31253e-05
0.000242462
0.000388827
0.000575308
0.000840395
0.00116599
0.0015498
0.00199456
0.00250086
0.00306945
0.0037028
0.00440419
0.0051775
0.00602697
0.00695716
0.00797203
0.00906904
0.010231
0.0114339
0.0126578
0.0138891
0.0151196
0.0163438
0.0175574
0.0187575
0.0199409
0.0211042
0.0222436
0.023355
0.0244332
0.0254734
0.02647
0.027417
0.0283081
0.0291382
0.0299027
0.0305994
0.0312292
0.0317986
0.0323206
0.0328175
0.0333206
0.0338699
6.41035e-05
0.000243829
0.000389708
0.000574128
0.000836439
0.00115959
0.00154063
0.00198202
0.00248439
0.00304843
0.00367646
0.0043717
0.00513787
0.00597914
0.00690006
0.00790477
0.00899337
0.010153
0.0113612
0.0125968
0.0138447
0.0150954
0.0163423
0.0175806
0.0188068
0.0200177
0.02121
0.0223804
0.0235242
0.0246369
0.0257138
0.0267493
0.0277373
0.0286714
0.0295455
0.0303541
0.0310931
0.0317605
0.0323584
0.0328948
0.0333851
0.0338544
0.0343366
6.51308e-05
0.000245094
0.00039056
0.000573295
0.00083314
0.0011542
0.0015328
0.00197125
0.00247022
0.00303029
0.00365369
0.00434352
0.00510345
0.00593756
0.00685029
0.00784606
0.00892636
0.0100825
0.0112941
0.0125399
0.0138033
0.0150729
0.0163415
0.0176037
0.0188551
0.0200926
0.0213132
0.0225132
0.0236883
0.0248342
0.025946
0.0270185
0.0280456
0.0290211
0.0299381
0.0307906
0.0315731
0.0322815
0.0329148
0.0334765
0.0339763
0.0344326
0.0348717
6.62217e-05
0.000246301
0.000391386
0.000572705
0.000830376
0.00114961
0.00152612
0.001962
0.00245803
0.00301457
0.00363387
0.00431894
0.00507339
0.00590113
0.00680662
0.00779443
0.00886691
0.0100188
0.0112325
0.0124868
0.0137642
0.0150518
0.0163409
0.017626
0.0189022
0.0201656
0.0214134
0.0226422
0.0238477
0.0250255
0.0261711
0.0272792
0.0283438
0.0293589
0.0303176
0.031213
0.0320391
0.0327901
0.0334628
0.0340572
0.0345783
0.0350382
0.0354576
6.73367e-05
0.000247374
0.000392078
0.000572194
0.000827988
0.00114565
0.00152035
0.00195401
0.00244739
0.00300084
0.00361646
0.00429725
0.00504682
0.00586896
0.00676804
0.00774856
0.00881384
0.00996087
0.0111754
0.0124367
0.0137268
0.0150314
0.0163403
0.0176476
0.0189477
0.0202366
0.021511
0.0227678
0.0240028
0.0252115
0.0263898
0.0275322
0.028633
0.0296862
0.0306851
0.0316225
0.0324915
0.0332857
0.034
0.0346316
0.0351817
0.0356569
0.0360701
6.84899e-05
0.000248357
0.000392712
0.000571786
0.000825981
0.00114225
0.00151536
0.00194702
0.00243808
0.00298872
0.00360111
0.00427811
0.00502319
0.0058403
0.00673365
0.00770765
0.00876612
0.00990812
0.0111223
0.0123896
0.0136906
0.0150109
0.0163394
0.017668
0.0189914
0.0203051
0.0216059
0.0228902
0.0241536
0.0253927
0.0266025
0.0277783
0.0289142
0.0300042
0.031042
0.0320201
0.0329312
0.0337683
0.0345251
0.0351968
0.0357814
0.036281
0.0367025
6.96892e-05
0.000249243
0.000393262
0.000571419
0.000824246
0.00113936
0.00151105
0.00194098
0.0024299
0.00297806
0.00358745
0.00426102
0.0050021
0.00581459
0.0067027
0.00767079
0.00872298
0.0098598
0.0110728
0.0123446
0.0136557
0.0149905
0.0163372
0.0176867
0.0190331
0.0203713
0.0216978
0.0230088
0.0243004
0.0255688
0.0268098
0.0280179
0.0291879
0.0303139
0.0313893
0.0324068
0.0333592
0.0342388
0.0350384
0.0357519
0.0363752
0.0369076
0.0373539
7.09294e-05
0.000250036
0.000393721
0.000571067
0.000822751
0.00113682
0.00150729
0.00193562
0.00242263
0.00296846
0.00357518
0.00424554
0.00498299
0.0057913
0.00667459
0.00763727
0.00868362
0.00981529
0.0110264
0.0123014
0.0136215
0.0149699
0.0163336
0.0177033
0.0190721
0.0204347
0.0217865
0.023124
0.0244433
0.0257405
0.0270116
0.0282515
0.0294547
0.0306155
0.0317277
0.0327838
0.0337764
0.0346978
0.0355403
0.0362968
0.036962
0.0375343
0.0380203
7.21926e-05
0.000250736
0.000394082
0.000570691
0.000821434
0.00113458
0.00150392
0.00193082
0.00241612
0.00295985
0.00356406
0.00423151
0.00496558
0.00576999
0.00664885
0.00760654
0.00864744
0.00977401
0.0109826
0.0122598
0.0135877
0.0149487
0.0163288
0.017718
0.0191086
0.0204946
0.0218714
0.0232351
0.0245817
0.0259075
0.0272082
0.0284793
0.029715
0.0309098
0.0320577
0.0331515
0.0341835
0.035146
0.036031
0.0368308
0.0375392
0.0381531
0.038674
7.34907e-05
0.000251338
0.000394362
0.000570291
0.000820222
0.00113259
0.00150092
0.00192656
0.00241022
0.00295201
0.00355388
0.00421861
0.00494955
0.00575035
0.00662506
0.00757806
0.00861382
0.00973545
0.0109409
0.0122195
0.0135539
0.0149264
0.0163222
0.0177303
0.0191421
0.0205511
0.0219524
0.0233419
0.0247155
0.0260694
0.0273994
0.028701
0.0299687
0.0311969
0.0323797
0.0335101
0.0345807
0.0355835
0.0365103
0.037353
0.0381045
0.0387591
0.0393136
7.48208e-05
0.000251828
0.000394539
0.000569857
0.000819136
0.00113078
0.00149817
0.00192259
0.00240477
0.00294469
0.00354436
0.00420659
0.00493451
0.00573193
0.00660277
0.0075514
0.00858224
0.00969904
0.0109011
0.0121801
0.0135198
0.0149026
0.0163134
0.0177397
0.019172
0.0206035
0.0220291
0.023444
0.0248443
0.026226
0.0275849
0.0289165
0.0302156
0.0314767
0.0326938
0.0338601
0.0349682
0.0360103
0.0369781
0.0378627
0.0386564
0.0393517
0.0399415
7.62008e-05
0.000252239
0.000394665
0.000569394
0.000818112
0.00112911
0.00149568
0.00191894
0.00239966
0.00293789
0.00353545
0.00419522
0.00492038
0.00571453
0.00658165
0.00752613
0.00855237
0.00966433
0.0108628
0.0121412
0.0134854
0.0148777
0.0163023
0.0177456
0.0191981
0.020652
0.0221012
0.0235412
0.0249678
0.026377
0.0277645
0.0291258
0.0304558
0.0317492
0.0329999
0.0342012
0.0353461
0.0364265
0.037434
0.0383599
0.039195
0.039931
0.0405601
7.76105e-05
0.000252591
0.000394719
0.000568852
0.000817084
0.00112749
0.00149324
0.00191548
0.00239481
0.00293135
0.00352698
0.0041844
0.0049068
0.00569784
0.00656143