/*--------------------------------*- C++ -*----------------------------------*\
| =========                 |                                                 |
| \\      /  F ield         | OpenFOAM: The Open Source CFD Toolbox           |
|  \\    /   O peration     | Version:  2.3.0                                 |
|   \\  /    A nd           | Web:      www.OpenFOAM.org                      |
|    \\/     M anipulation  |                                                 |
\*---------------------------------------------------------------------------*/
FoamFile
{
    version     2.0;
    format      ascii;
    class       volScalarField;
    location    "10000";
    object      p;
}
// * * * * * * * * * * * * * * * * * * * * * * * * * * * * * * * * * * * * * //

dimensions      [0 2 -2 0 0 0 0];

internalField   nonuniform List<scalar> 
42113
(
0.00340047
-0.746178
-1.51187
-2.2936
-3.10785
-3.95781
-4.84463
-5.77389
-6.74601
-7.75969
-8.80707
-9.90057
-11.0271
-12.1901
-13.3832
-14.6181
-15.8729
-17.155
-18.4463
-19.7462
-21.0427
-22.3273
-23.5866
-24.8122
-25.9864
-27.1
-28.1379
-29.0573
-29.8979
-30.5655
-31.0634
-31.3417
-31.3435
-30.9414
-30.0572
-28.5324
-26.2744
-22.9406
-17.586
-9.54045
-4.21457
-8.76857
-0.125282
6.04982
6.06922
5.85428
5.65973
5.46447
5.27493
5.09152
4.91337
4.74963
4.59228
4.45297
4.3259
4.21471
4.12366
4.05047
4.00144
3.9784
3.97774
4.02072
4.10162
4.24784
4.48559
4.83148
5.3283
6.02261
6.95923
8.20537
9.84844
11.9562
14.6482
18.0297
22.2129
27.3662
33.6464
41.2486
50.3651
61.2415
74.0984
89.3045
107.111
127.287
149.709
174.414
11.5285
11.8589
11.8965
11.9546
12.0074
12.0684
12.1379
12.2153
12.3124
12.4226
12.5626
12.727
12.9221
13.1659
13.4497
13.7919
14.1989
14.6787
15.2459
15.9019
16.6632
17.5444
18.554
19.727
21.0813
22.6265
24.4157
26.4816
28.8648
31.6328
34.8477
38.5675
42.8903
47.8969
53.7118
60.4346
68.1801
77.0699
87.1762
98.5409
111.169
125.207
140.54
16.6505
17.0388
17.2724
17.5405
17.8258
18.1342
18.4671
18.8259
19.2223
19.6467
20.1169
20.6184
21.1825
21.8007
22.4713
23.2266
24.0589
24.9837
26.0163
27.1646
28.4576
29.9036
31.5329
33.3602
35.4265
37.7654
40.418
43.4228
46.8241
50.6858
55.0511
59.9775
65.5283
71.7747
78.7593
86.5272
95.1187
104.558
114.791
125.733
137.237
149.107
161.036
21.0783
21.5052
21.8835
22.2822
22.7056
23.1575
23.6451
24.1593
24.7119
25.3008
25.942
26.6213
27.3569
28.1627
29.03
29.979
31.012
32.1431
33.3918
34.7604
36.2622
37.9135
39.7393
41.7455
43.963
46.4214
49.1573
52.1962
55.5914
59.3749
63.5953
68.3073
73.5379
79.3588
85.8004
92.8834
100.628
109.043
118.086
127.682
137.71
147.993
158.309
25.0157
25.4004
25.8808
26.3645
26.8758
27.4323
28.0346
28.6639
29.3409
30.0575
30.8269
31.6434
32.5111
33.4555
34.4719
35.5716
36.7646
38.0528
39.4667
41.0012
42.69
44.5386
46.5646
48.7789
51.1982
53.8628
56.7897
60.0152
63.5817
67.5079
71.859
76.651
81.9132
87.695
94.0167
100.889
108.28
116.204
124.626
133.44
142.537
151.788
161.012
28.2937
28.7087
29.2802
29.8423
30.4226
31.0489
31.7288
32.4291
33.1963
33.9991
34.862
35.771
36.7161
37.7506
38.859
40.0479
41.3443
42.7299
44.2403
45.8722
47.6526
49.5814
51.6824
53.9845
56.437
59.1753
62.1393
65.3951
68.9858
72.934
77.2636
82.0128
87.1964
92.8229
98.9492
105.586
112.574
120.005
127.903
136.139
144.535
153.033
161.522
31.395
31.7498
32.2656
32.7939
33.352
33.9993
34.7451
35.5257
36.3609
37.2029
38.1635
39.1503
40.1266
41.225
42.3891
43.6351
44.9925
46.445
48.0318
49.7158
51.5867
53.5747
55.7979
58.2718
60.6383
63.4374
66.425
69.6386
73.1529
77.0383
81.3038
85.9698
91.0892
96.5993
102.521
109.076
115.903
122.929
130.391
138.186
146.142
154.097
162.084
35.0704
35.0792
35.1503
35.2715
35.4033
35.8867
37.1029
37.7893
38.5984
39.2406
40.2237
41.2905
42.1437
43.2144
44.3459
45.5373
46.8267
48.1652
49.621
50.9968
52.859
55.4169
57.2756
60.9237
63.0018
65.6759
68.5952
71.629
74.6912
78.0622
81.7662
85.7917
90.4622
95.6748
101.104
107.687
114.84
122
129.359
137.032
145.159
154.024
162.319
82.5763
137.015
170.075
193.652
211.562
225.387
236.106
244.435
250.891
255.926
259.853
262.962
265.386
267.248
268.634
269.636
270.297
270.69
270.847
270.805
270.595
270.243
269.773
269.198
268.542
267.809
267.015
266.168
265.277
264.344
263.375
262.377
261.349
260.295
259.217
258.116
256.993
255.854
254.691
253.496
252.248
251.158
250.882
197.054
212.944
225.712
236.227
244.824
251.703
257.083
261.254
264.452
266.867
268.662
269.945
270.813
271.336
271.579
271.596
271.433
271.119
270.684
270.153
269.538
268.856
268.118
267.332
266.503
265.638
264.739
263.813
262.859
261.881
260.883
259.866
258.831
257.782
256.72
255.644
254.557
253.46
252.353
251.222
250.052
248.984
248.611
156.125
170.846
184.278
196.24
206.711
215.766
223.512
230.09
235.635
240.288
244.175
247.397
250.055
252.23
253.992
255.402
256.51
257.357
257.98
258.41
258.672
258.788
258.777
258.655
258.434
258.127
257.745
257.294
256.782
256.217
255.603
254.947
254.252
253.522
252.761
251.971
251.154
250.313
249.45
248.556
247.625
246.752
246.414
172.643
183.611
193.756
202.958
211.161
218.373
224.647
230.046
234.658
238.569
241.866
244.621
246.907
248.789
250.321
251.55
252.519
253.266
253.819
254.207
254.451
254.569
254.58
254.495
254.328
254.088
253.783
253.419
253.004
252.543
252.042
251.503
250.932
250.332
249.704
249.052
248.377
247.679
246.961
246.216
245.439
244.693
244.336
168.433
178.178
187.362
195.849
203.56
210.469
216.595
221.97
226.656
230.711
234.196
237.178
239.708
241.846
243.638
245.127
246.357
247.356
248.155
248.779
249.251
249.589
249.811
249.929
249.954
249.898
249.77
249.576
249.323
249.018
248.668
248.277
247.849
247.392
246.902
246.387
245.848
245.285
244.702
244.1
243.478
242.881
242.741
170.037
178.747
186.976
194.648
201.668
208.018
213.702
218.74
223.174
227.053
230.415
233.32
235.802
237.921
239.717
241.224
242.487
243.529
244.384
245.065
245.603
246.011
246.31
246.506
246.614
246.648
246.607
246.497
246.327
246.111
245.853
245.554
245.224
244.866
244.474
244.059
243.623
243.162
242.677
242.18
241.675
241.154
240.554
169.858
177.969
185.603
192.747
199.302
205.285
210.69
215.516
219.799
223.58
226.883
229.755
232.225
234.354
236.175
237.702
239.011
240.118
241.04
241.778
242.391
242.87
243.263
243.544
243.745
243.86
243.883
243.826
243.722
243.581
243.402
243.174
242.927
242.661
242.347
242.014
241.666
241.289
240.874
240.459
240.059
239.612
238.913
169.844
177.529
184.698
191.428
197.615
203.306
208.475
213.112
217.265
220.983
224.228
227.065
229.492
231.597
233.403
234.892
236.279
237.484
238.462
239.195
239.882
240.405
240.92
241.21
241.428
241.52
241.541
241.498
241.465
241.395
241.276
241.091
240.944
240.782
240.514
240.241
239.985
239.645
239.229
238.873
238.586
238.227
237.601
169.413
176.54
182.753
190.034
196.257
201.782
206.747
211.217
215.294
219.013
222.136
224.849
227.113
229.057
230.8
232.247
233.822
234.971
235.718
236.405
237.141
237.683
238.168
238.194
238.34
238.562
238.778
238.892
239.089
239.16
239.101
238.982
239.04
238.95
238.465
238.504
238.332
237.822
237.484
237.438
237.488
237.336
236.952
-58.7216
-58.7158
-58.7478
-58.7613
-58.7534
-58.7261
-58.6798
-58.617
-58.54
-58.448
-58.3402
-58.2184
-58.0835
-57.9363
-57.777
-57.6074
-57.4277
-57.2396
-57.0441
-56.8417
-56.6334
-56.4218
-56.2083
-55.9937
-55.7793
-55.5675
-55.3593
-55.1565
-54.9624
-54.776
-54.6001
-54.436
-54.285
-54.1467
-54.0206
-53.9041
-53.7882
-53.6539
-53.4594
-53.1375
-52.5656
-51.355
-48.5868
-59.02
-58.9198
-58.8569
-58.7764
-58.6762
-58.5606
-58.4328
-58.2944
-58.1471
-57.9937
-57.8367
-57.678
-57.5173
-57.3578
-57.2
-57.0447
-56.8933
-56.7467
-56.6048
-56.4679
-56.3361
-56.2095
-56.0871
-55.9691
-55.8544
-55.7429
-55.6339
-55.5261
-55.4188
-55.3107
-55.2006
-55.0851
-54.9607
-54.8207
-54.6541
-54.4426
-54.1573
-53.7563
-53.1544
-52.13
-50.2274
-46.9423
-42.4569
-59.3403
-59.2797
-59.2739
-59.2556
-59.2216
-59.1757
-59.1205
-59.0567
-58.9848
-58.9061
-58.8207
-58.7304
-58.6357
-58.536
-58.4318
-58.3239
-58.2125
-58.0979
-57.9807
-57.8619
-57.7419
-57.6202
-57.4964
-57.3717
-57.2453
-57.1155
-56.9824
-56.845
-56.7005
-56.5462
-56.3788
-56.1915
-55.9744
-55.7139
-55.3888
-54.9702
-54.4071
-53.6073
-52.4161
-50.5413
-47.5194
-42.9814
-37.061
-59.604
-59.545
-59.5604
-59.5639
-59.5521
-59.5284
-59.4924
-59.4461
-59.3923
-59.3315
-59.2637
-59.188
-59.107
-59.023
-58.9349
-58.8424
-58.7465
-58.6471
-58.5452
-58.4404
-58.3328
-58.2238
-58.1129
-57.9973
-57.8762
-57.7488
-57.6121
-57.4616
-57.2953
-57.1068
-56.8887
-56.6313
-56.3194
-55.9318
-55.438
-54.7903
-53.9177
-52.7021
-50.9544
-48.3868
-44.6806
-39.6696
-33.6691
-59.6653
-59.7339
-59.7721
-59.7943
-59.8053
-59.8046
-59.7929
-59.7702
-59.7365
-59.6945
-59.6471
-59.5947
-59.5343
-59.4673
-59.397
-59.3211
-59.2383
-59.1496
-59.0549
-58.9538
-58.8471
-58.7354
-58.6184
-58.4961
-58.3659
-58.2247
-58.0684
-57.8907
-57.6851
-57.4432
-57.1584
-56.8192
-56.4027
-55.8782
-55.2105
-54.3395
-53.1813
-51.6021
-49.4115
-46.3568
-42.2211
-36.9768
-31.0978
-59.6479
-59.8401
-59.9094
-59.9474
-59.9732
-59.9901
-59.9921
-59.9807
-59.9604
-59.9338
-59.9021
-59.8622
-59.8089
-59.7524
-59.6942
-59.6311
-59.5586
-59.4758
-59.3869
-59.286
-59.1705
-59.0489
-58.9211
-58.7842
-58.6332
-58.4721
-58.2938
-58.0879
-57.8431
-57.5414
-57.1799
-56.7671
-56.2634
-55.6247
-54.81
-53.7438
-52.3329
-50.446
-47.9059
-44.5107
-40.0806
-34.6866
-28.8335
-59.6873
-59.9229
-59.9849
-60.0261
-60.0614
-60.0934
-60.1101
-60.1123
-60.1018
-60.0814
-60.0643
-60.0556
-60.0158
-59.961
-59.9107
-59.8695
-59.8099
-59.7316
-59.6509
-59.5648
-59.4388
-59.2991
-59.1516
-58.9949
-58.8266
-58.6494
-58.4543
-58.228
-57.9606
-57.6002
-57.1274
-56.6417
-56.0871
-55.3584
-54.423
-53.2064
-51.616
-49.5318
-46.7767
-43.2173
-38.6453
-33.2017
-27.3265
-59.728
-59.9797
-60.03
-60.0809
-60.1166
-60.1578
-60.1743
-60.1613
-60.1271
-60.0717
-60.0079
-60.0012
-59.9605
-59.8779
-59.7935
-59.7627
-59.7271
-59.6429
-59.5377
-59.4814
-59.3499
-59.1852
-59.0037
-58.7998
-58.5482
-58.3191
-58.1157
-57.8877
-57.7013
-57.3921
-56.6908
-56.0244
-55.4823
-54.752
-53.7774
-52.4424
-50.6086
-48.2066
-45.0965
-41.3304
-36.5328
-30.9869
-25.1035
-59.2591
-59.7211
-59.9414
-60.249
-60.5594
-60.9187
-61.2404
-61.4844
-61.6388
-61.6894
-61.7868
-61.8511
-61.8502
-61.7477
-61.6719
-61.6195
-61.6892
-61.7158
-61.6349
-61.6347
-61.6024
-61.436
-61.2967
-61.4767
-60.9916
-60.5249
-60.1187
-59.7284
-59.4906
-59.8078
-58.6031
-57.6283
-56.7576
-55.9577
-55.2308
-54.4939
-53.3348
-51.2436
-48.2202
-44.6057
-39.6429
-34.1841
-27.3267
-39.7641
-33.0541
-26.7751
-21.2886
-16.3069
-11.7992
-7.68701
-3.9124
-0.418535
2.84393
5.91211
8.82703
11.6115
14.2861
16.8683
19.3717
21.8089
24.1879
26.513
28.7935
31.0323
33.2359
35.4038
37.5415
39.6518
41.7342
43.7935
45.8292
47.8436
49.8388
51.814
53.7707
55.7108
57.634
59.5417
61.4333
63.3099
65.1722
67.0203
68.855
70.668
72.4584
74.3155
-36.2089
-32.1639
-27.5817
-22.9891
-18.3797
-13.9265
-9.66558
-5.61861
-1.78823
1.83717
5.27154
8.534
11.6362
14.5916
17.4173
20.1279
22.7289
25.2348
27.6548
29.9954
32.2638
34.4682
36.6126
38.7016
40.7425
42.7365
44.6894
46.6039
48.4841
50.3312
52.151
53.9442
55.7121
57.4588
59.1857
60.8945
62.5857
64.262
65.923
67.572
69.207
70.8196
72.4422
-30.9099
-26.8073
-22.6545
-18.6553
-14.6601
-10.768
-6.98909
-3.34425
0.155101
3.50948
6.71734
9.78637
12.7252
15.5417
18.2439
20.8406
23.342
25.7545
28.0848
30.3413
32.5299
34.656
36.7257
38.7414
40.709
42.6317
44.515
46.3583
48.1664
49.9427
51.6874
53.4046
55.0954
56.76
58.4008
60.0196
61.6162
63.1949
64.7542
66.2991
67.8306
69.334
70.7974
-28.0504
-24.044
-20.1728
-16.41
-12.6618
-9.01566
-5.47642
-2.05762
1.23422
4.40151
7.44404
10.3675
13.1787
15.8815
18.4841
20.992
23.4125
25.7519
28.0172
30.212
32.3429
34.4133
36.4287
38.3923
40.3078
42.1789
44.0087
45.8007
47.5559
49.2792
50.9696
52.6309
54.266
55.8728
57.4556
59.0155
60.5519
62.0685
63.5642
65.0417
66.5025
67.9533
69.3473
-25.8273
-22.0068
-18.4259
-14.858
-11.289
-7.79639
-4.38869
-1.08817
2.10328
5.18158
8.14631
11.0005
13.7504
16.3991
18.953
21.4142
23.7909
26.0867
28.3079
30.46
32.546
34.5688
36.5337
38.4459
40.3073
42.1239
43.8965
45.6281
47.3209
48.978
50.6033
52.1968
53.7609
55.296
56.8038
58.2858
59.7457
61.1846
62.6014
63.9991
65.3757
66.7559
68.2337
-23.6723
-19.9652
-16.5799
-13.1746
-9.77599
-6.43656
-3.1631
0.020911
3.11109
6.10062
8.98882
11.7772
14.4667
17.0613
19.5637
21.9748
24.3015
26.5508
28.7291
30.835
32.8707
34.8424
36.7575
38.618
40.4272
42.19
43.9077
45.5813
47.2146
48.8118
50.3776
51.9089
53.4061
54.8709
56.3069
57.7164
59.1041
60.4681
61.8036
63.1184
64.4082
65.7013
67.1124
-22.0829
-18.2851
-14.9528
-11.6495
-8.38807
-5.17885
-2.02964
1.04797
4.04596
6.95012
9.76267
12.491
15.1274
17.6709
20.125
22.487
24.7628
26.9696
29.1148
31.1751
33.161
35.0883
36.957
38.7724
40.5351
42.254
43.9261
45.5518
47.1346
48.6828
50.1985
51.675
53.1152
54.517
55.8872
57.2327
58.5558
59.8551
61.109
62.3461
63.5638
64.7614
66.0573
-19.9117
-16.4037
-13.4004
-10.3183
-7.21996
-4.13818
-1.09297
1.90435
4.83983
7.67846
10.4381
13.1317
15.7396
18.2464
20.6729
22.9916
25.2148
27.4037
29.5577
31.5668
33.5005
35.3909
37.2238
39.0041
40.7228
42.4114
44.0426
45.6081
47.1297
48.6276
50.1069
51.5271
52.9085
54.236
55.5366
56.8224
58.0939
59.3456
60.5053
61.6672
62.8243
63.9523
65.1627
-20.057
-15.3811
-12.3064
-9.30585
-6.29015
-3.3063
-0.341336
2.59978
5.52023
8.27133
10.977
13.6694
16.2648
18.7153
21.1271
23.3512
25.5031
27.7213
29.9444
31.7534
33.61
35.5195
37.3045
39.0447
40.7174
42.421
43.9664
45.4562
46.9606
48.4819
49.993
51.3296
52.671
53.9365
55.2016
56.4867
57.7598
58.9758
59.926
61.0505
62.2492
63.3586
64.5721
-140.806
-140.671
-140.787
-139.482
-136.155
-131.314
-125.563
-119.225
-112.504
-105.602
-98.7431
-92.0429
-85.5892
-79.4035
-73.5364
-67.9926
-62.8142
-57.9869
-53.531
-49.4009
-45.6286
-42.1642
-38.9952
-36.0973
-33.4365
-30.9833
-28.7229
-26.6276
-24.676
-22.8536
-21.1535
-19.5656
-18.0688
-16.6578
-15.3262
-14.0659
-12.8705
-11.7361
-10.6571
-9.62866
-8.64341
-7.69692
-6.61903
-110.086
-109.866
-109.193
-108.182
-107.042
-106
-105.161
-104.543
-104.077
-103.562
-102.775
-101.547
-99.8268
-97.6333
-95.0109
-91.9891
-88.6115
-84.9359
-81.0463
-77.0101
-72.8749
-68.7344
-64.6334
-60.6308
-56.7563
-53.0427
-49.5011
-46.141
-42.9627
-39.9587
-37.133
-34.4762
-31.9803
-29.6317
-27.4251
-25.3506
-23.3955
-21.5545
-19.8198
-18.1845
-16.647
-15.2185
-13.8276
-117.126
-117.029
-117.072
-117.133
-117.171
-117.107
-116.835
-116.261
-115.365
-114.188
-112.806
-111.286
-109.653
-107.839
-105.769
-103.424
-100.8
-97.8945
-94.7232
-91.3214
-87.6881
-83.8985
-79.9827
-75.9898
-71.9867
-68.0073
-64.0992
-60.2962
-56.623
-53.0872
-49.7077
-46.4906
-43.4355
-40.5389
-37.7949
-35.1995
-32.7467
-30.4302
-28.2419
-26.174
-24.2211
-22.3807
-20.5674
-113.213
-113.169
-113.047
-112.882
-112.685
-112.462
-112.213
-111.928
-111.592
-111.191
-110.709
-110.109
-109.362
-108.465
-107.455
-106.305
-104.937
-103.312
-101.397
-99.1768
-96.6429
-93.8105
-90.6935
-87.3216
-83.7554
-80.0353
-76.222
-72.3694
-68.5327
-64.7447
-61.0424
-57.4537
-53.999
-50.6831
-47.5194
-44.5076
-41.6439
-38.927
-36.3513
-33.9111
-31.5967
-29.4002
-27.2267
-113.76
-113.753
-113.739
-113.703
-113.646
-113.563
-113.449
-113.298
-113.1
-112.84
-112.508
-112.09
-111.577
-110.952
-110.189
-109.292
-108.265
-107.091
-105.737
-104.175
-102.369
-100.318
-97.9943
-95.3939
-92.5159
-89.3885
-86.0372
-82.5109
-78.8532
-75.124
-71.367
-67.629
-63.9532
-60.3587
-56.8793
-53.5293
-50.3139
-47.2426
-44.3131
-41.5234
-38.8686
-36.3483
-33.8316
-113.112
-113.096
-113.059
-112.997
-112.916
-112.816
-112.695
-112.554
-112.39
-112.199
-111.974
-111.709
-111.393
-111.02
-110.576
-110.044
-109.403
-108.639
-107.749
-106.707
-105.487
-104.052
-102.394
-100.483
-98.3126
-95.8651
-93.1591
-90.1926
-87.0031
-83.6156
-80.0898
-76.4692
-72.8047
-69.1405
-65.5175
-61.9693
-58.5159
-55.1786
-51.9674
-48.8872
-45.9365
-43.1262
-40.2558
-113.171
-113.161
-113.137
-113.095
-113.039
-112.966
-112.877
-112.771
-112.644
-112.496
-112.322
-112.118
-111.877
-111.595
-111.262
-110.871
-110.409
-109.863
-109.217
-108.456
-107.569
-106.529
-105.317
-103.9
-102.268
-100.394
-98.2691
-95.8722
-93.2281
-90.321
-87.2052
-83.8958
-80.4408
-76.8948
-73.297
-69.7003
-66.1352
-62.6383
-59.2318
-55.9291
-52.7387
-49.6831
-46.4821
-113.156
-113.143
-113.116
-113.073
-113.016
-112.945
-112.86
-112.762
-112.648
-112.519
-112.372
-112.204
-112.013
-111.794
-111.543
-111.255
-110.919
-110.527
-110.066
-109.522
-108.881
-108.129
-107.242
-106.2
-104.978
-103.557
-101.911
-100.027
-97.8974
-95.4975
-92.8565
-89.9662
-86.8615
-83.5788
-80.1599
-76.6576
-73.1069
-69.5642
-66.0555
-62.6151
-59.2555
-56.0317
-52.5965
-113.314
-113.301
-113.277
-113.238
-113.187
-113.124
-113.049
-112.962
-112.863
-112.75
-112.622
-112.478
-112.316
-112.132
-111.926
-111.692
-111.424
-111.118
-110.763
-110.349
-109.864
-109.294
-108.628
-107.843
-106.917
-105.833
-104.57
-103.097
-101.402
-99.4639
-97.2724
-94.8228
-92.1274
-89.2038
-86.0771
-82.7864
-79.3778
-75.9016
-72.3888
-68.8895
-65.4202
-62.0557
-58.3645
-113.523
-113.508
-113.484
-113.447
-113.399
-113.339
-113.268
-113.187
-113.095
-112.992
-112.877
-112.749
-112.606
-112.447
-112.271
-112.074
-111.855
-111.607
-111.324
-111
-110.624
-110.185
-109.672
-109.071
-108.364
-107.53
-106.551
-105.4
-104.058
-102.504
-100.724
-98.6961
-96.4079
-93.877
-91.0967
-88.1027
-84.9251
-81.6051
-78.1834
-74.7132
-71.2156
-67.7779
-64.0066
-113.81
-113.794
-113.771
-113.735
-113.689
-113.633
-113.567
-113.491
-113.406
-113.311
-113.207
-113.09
-112.962
-112.82
-112.665
-112.493
-112.303
-112.094
-111.859
-111.592
-111.289
-110.939
-110.533
-110.061
-109.508
-108.857
-108.09
-107.184
-106.123
-104.882
-103.435
-101.765
-99.8555
-97.7018
-95.2917
-92.6358
-89.752
-86.6717
-83.4296
-80.071
-76.6242
-73.1899
-69.3813
-114.146
-114.13
-114.106
-114.072
-114.027
-113.973
-113.911
-113.84
-113.76
-113.672
-113.574
-113.468
-113.35
-113.222
-113.081
-112.928
-112.762
-112.579
-112.377
-112.153
-111.9
-111.613
-111.284
-110.901
-110.456
-109.937
-109.328
-108.613
-107.766
-106.771
-105.603
-104.239
-102.664
-100.85
-98.7851
-96.4691
-93.9056
-91.1089
-88.1041
-84.9348
-81.6223
-78.2759
-74.4486
-114.531
-114.515
-114.491
-114.458
-114.415
-114.363
-114.303
-114.236
-114.161
-114.078
-113.987
-113.888
-113.78
-113.662
-113.534
-113.394
-113.244
-113.081
-112.904
-112.709
-112.492
-112.25
-111.976
-111.662
-111.301
-110.88
-110.389
-109.809
-109.126
-108.325
-107.38
-106.266
-104.961
-103.446
-101.704
-99.7166
-97.4706
-94.9808
-92.2469
-89.3054
-86.1725
-82.9628
-79.1124
-114.956
-114.939
-114.914
-114.882
-114.841
-114.791
-114.734
-114.669
-114.598
-114.52
-114.434
-114.342
-114.241
-114.131
-114.013
-113.885
-113.747
-113.599
-113.44
-113.268
-113.079
-112.869
-112.634
-112.369
-112.068
-111.719
-111.316
-110.844
-110.288
-109.632
-108.859
-107.946
-106.873
-105.614
-104.143
-102.449
-100.508
-98.3147
-95.8721
-93.1962
-90.2924
-87.2959
-83.5278
-115.416
-115.399
-115.374
-115.342
-115.302
-115.254
-115.198
-115.137
-115.069
-114.994
-114.913
-114.826
-114.732
-114.629
-114.519
-114.4
-114.273
-114.138
-113.993
-113.838
-113.67
-113.486
-113.283
-113.056
-112.798
-112.505
-112.169
-111.778
-111.322
-110.783
-110.147
-109.393
-108.504
-107.457
-106.224
-104.79
-103.12
-101.211
-99.049
-96.6407
-93.9766
-91.2028
-87.6665
-115.907
-115.889
-115.863
-115.832
-115.792
-115.745
-115.692
-115.632
-115.567
-115.496
-115.419
-115.336
-115.247
-115.152
-115.048
-114.938
-114.819
-114.693
-114.56
-114.419
-114.267
-114.102
-113.922
-113.723
-113.502
-113.251
-112.965
-112.635
-112.252
-111.804
-111.277
-110.654
-109.916
-109.04
-107.999
-106.784
-105.359
-103.709
-101.806
-99.6621
-97.2514
-94.6868
-91.8243
-116.42
-116.401
-116.376
-116.345
-116.306
-116.26
-116.209
-116.151
-116.089
-116.021
-115.947
-115.869
-115.784
-115.694
-115.597
-115.493
-115.382
-115.266
-115.142
-115.011
-114.873
-114.725
-114.564
-114.389
-114.194
-113.977
-113.732
-113.451
-113.127
-112.749
-112.308
-111.784
-111.163
-110.433
-109.564
-108.532
-107.312
-105.889
-104.234
-102.327
-100.145
-97.7223
-94.692
-116.955
-116.936
-116.91
-116.88
-116.842
-116.797
-116.747
-116.691
-116.631
-116.566
-116.495
-116.42
-116.34
-116.255
-116.163
-116.066
-115.962
-115.852
-115.736
-115.615
-115.487
-115.351
-115.205
-115.048
-114.876
-114.685
-114.471
-114.229
-113.953
-113.632
-113.258
-112.82
-112.299
-111.68
-110.943
-110.069
-109.033
-107.802
-106.361
-104.684
-102.727
-100.522
-97.1744
-117.508
-117.489
-117.463
-117.433
-117.395
-117.351
-117.302
-117.248
-117.189
-117.126
-117.059
-116.987
-116.911
-116.83
-116.743
-116.651
-116.553
-116.45
-116.341
-116.228
-116.111
-115.986
-115.853
-115.711
-115.556
-115.387
-115.2
-114.989
-114.749
-114.475
-114.156
-113.78
-113.338
-112.816
-112.191
-111.448
-110.563
-109.51
-108.261
-106.798
-105.086
-103.257
-99.5517
-118.076
-118.056
-118.029
-117.999
-117.962
-117.919
-117.871
-117.818
-117.762
-117.701
-117.636
-117.567
-117.494
-117.417
-117.335
-117.248
-117.155
-117.058
-116.957
-116.85
-116.739
-116.624
-116.502
-116.372
-116.233
-116.081
-115.914
-115.729
-115.522
-115.283
-115.009
-114.69
-114.313
-113.865
-113.334
-112.702
-111.94
-111.032
-109.957
-108.687
-107.183
-105.6
-102.5
-118.652
-118.632
-118.606
-118.576
-118.54
-118.497
-118.45
-118.399
-118.344
-118.285
-118.223
-118.157
-118.087
-118.013
-117.935
-117.852
-117.765
-117.673
-117.576
-117.477
-117.374
-117.266
-117.154
-117.035
-116.909
-116.772
-116.624
-116.459
-116.275
-116.067
-115.829
-115.554
-115.232
-114.851
-114.396
-113.853
-113.202
-112.422
-111.484
-110.367
-109.029
-107.573
-104.792
-119.24
-119.219
-119.193
-119.163
-119.126
-119.084
-119.038
-118.988
-118.934
-118.877
-118.817
-118.754
-118.687
-118.616
-118.542
-118.463
-118.38
-118.293
-118.203
-118.109
-118.012
-117.911
-117.807
-117.698
-117.581
-117.458
-117.325
-117.18
-117.018
-116.836
-116.629
-116.39
-116.11
-115.78
-115.388
-114.921
-114.361
-113.683
-112.865
-111.88
-110.677
-109.315
-106.509
-119.831
-119.81
-119.783
-119.753
-119.717
-119.676
-119.631
-119.582
-119.53
-119.474
-119.416
-119.355
-119.29
-119.223
-119.152
-119.077
-118.999
-118.916
-118.831
-118.742
-118.651
-118.557
-118.46
-118.359
-118.253
-118.141
-118.02
-117.889
-117.745
-117.584
-117.403
-117.195
-116.955
-116.673
-116.335
-115.93
-115.443
-114.853
-114.141
-113.276
-112.214
-110.97
-107.998
-120.426
-120.404
-120.377
-120.347
-120.311
-120.271
-120.226
-120.178
-120.127
-120.073
-120.017
-119.958
-119.896
-119.831
-119.764
-119.692
-119.618
-119.54
-119.459
-119.376
-119.29
-119.202
-119.111
-119.017
-118.92
-118.818
-118.71
-118.593
-118.465
-118.323
-118.164
-117.981
-117.769
-117.522
-117.232
-116.884
-116.466
-115.958
-115.338
-114.585
-113.676
-112.632
-109.681
-121.02
-120.998
-120.971
-120.941
-120.905
-120.865
-120.821
-120.774
-120.724
-120.672
-120.618
-120.56
-120.501
-120.439
-120.374
-120.307
-120.236
-120.162
-120.086
-120.007
-119.926
-119.844
-119.76
-119.673
-119.583
-119.489
-119.39
-119.286
-119.171
-119.045
-118.905
-118.747
-118.565
-118.35
-118.097
-117.795
-117.432
-116.992
-116.462
-115.824
-115.077
-114.306
-112.173
-121.611
-121.59
-121.562
-121.532
-121.497
-121.457
-121.414
-121.368
-121.319
-121.268
-121.215
-121.16
-121.103
-121.044
-120.982
-120.918
-120.851
-120.781
-120.709
-120.634
-120.559
-120.481
-120.403
-120.322
-120.24
-120.155
-120.066
-119.97
-119.868
-119.758
-119.635
-119.494
-119.334
-119.15
-118.93
-118.667
-118.354
-117.976
-117.515
-116.961
-116.32
-115.679
-113.992
-122.199
-122.177
-122.149
-122.119
-122.084
-122.044
-122.002
-121.956
-121.909
-121.859
-121.808
-121.755
-121.7
-121.643
-121.584
-121.523
-121.459
-121.393
-121.325
-121.255
-121.183
-121.111
-121.037
-120.963
-120.887
-120.809
-120.728
-120.644
-120.553
-120.454
-120.345
-120.224
-120.085
-119.922
-119.733
-119.506
-119.232
-118.9
-118.497
-118.005
-117.406
-116.726
-115.833
-122.778
-122.756
-122.728
-122.698
-122.663
-122.624
-122.582
-122.538
-122.491
-122.443
-122.393
-122.342
-122.289
-122.234
-122.178
-122.12
-122.06
-121.997
-121.933
-121.868
-121.801
-121.734
-121.666
-121.597
-121.527
-121.457
-121.383
-121.306
-121.225
-121.139
-121.044
-120.937
-120.816
-120.675
-120.509
-120.311
-120.073
-119.779
-119.418
-118.968
-118.397
-117.68
-116.883
-123.347
-123.325
-123.297
-123.267
-123.233
-123.194
-123.153
-123.109
-123.064
-123.017
-122.968
-122.919
-122.868
-122.815
-122.762
-122.706
-122.65
-122.591
-122.531
-122.469
-122.406
-122.343
-122.28
-122.217
-122.154
-122.089
-122.022
-121.955
-121.883
-121.805
-121.722
-121.63
-121.525
-121.402
-121.259
-121.085
-120.875
-120.619
-120.302
-119.902
-119.395
-118.744
-118.311
-123.905
-123.883
-123.855
-123.825
-123.791
-123.752
-123.711
-123.669
-123.624
-123.579
-123.532
-123.484
-123.435
-123.385
-123.333
-123.281
-123.227
-123.172
-123.116
-123.058
-123
-122.942
-122.883
-122.825
-122.766
-122.708
-122.649
-122.588
-122.525
-122.458
-122.385
-122.303
-122.211
-122.106
-121.98
-121.831
-121.648
-121.421
-121.138
-120.78
-120.329
-119.777
-119.412
-124.449
-124.427
-124.398
-124.368
-124.334
-124.296
-124.256
-124.214
-124.171
-124.126
-124.081
-124.035
-123.987
-123.939
-123.891
-123.841
-123.79
-123.738
-123.686
-123.632
-123.578
-123.524
-123.47
-123.417
-123.364
-123.311
-123.257
-123.203
-123.147
-123.089
-123.026
-122.958
-122.879
-122.787
-122.679
-122.548
-122.386
-122.188
-121.939
-121.625
-121.228
-120.735
-120.502
-124.976
-124.954
-124.926
-124.896
-124.862
-124.824
-124.785
-124.744
-124.701
-124.658
-124.614
-124.569
-124.524
-124.478
-124.431
-124.384
-124.337
-124.288
-124.239
-124.189
-124.139
-124.089
-124.039
-123.99
-123.942
-123.896
-123.85
-123.803
-123.754
-123.703
-123.648
-123.588
-123.522
-123.444
-123.35
-123.237
-123.096
-122.921
-122.7
-122.419
-122.061
-121.606
-121.395
-125.487
-125.465
-125.436
-125.406
-125.373
-125.335
-125.296
-125.256
-125.214
-125.172
-125.129
-125.086
-125.042
-124.998
-124.954
-124.909
-124.864
-124.819
-124.773
-124.727
-124.681
-124.635
-124.59
-124.546
-124.503
-124.46
-124.418
-124.377
-124.336
-124.293
-124.248
-124.198
-124.14
-124.073
-123.993
-123.895
-123.773
-123.619
-123.422
-123.17
-122.844
-122.419
-122.235
-125.978
-125.955
-125.926
-125.896
-125.863
-125.826
-125.787
-125.747
-125.707
-125.665
-125.624
-125.582
-125.54
-125.498
-125.456
-125.414
-125.371
-125.329
-125.286
-125.244
-125.201
-125.16
-125.119
-125.079
-125.041
-125.004
-124.968
-124.932
-124.897
-124.861
-124.822
-124.779
-124.732
-124.676
-124.609
-124.526
-124.419
-124.284
-124.111
-123.884
-123.592
-123.209
-123.069
-126.445
-126.422
-126.394
-126.364
-126.33
-126.294
-126.256
-126.217
-126.177
-126.137
-126.096
-126.056
-126.016
-125.976
-125.936
-125.896
-125.856
-125.817
-125.777
-125.738
-125.699
-125.661
-125.625
-125.589
-125.555
-125.523
-125.492
-125.462
-125.433
-125.403
-125.373
-125.339
-125.3
-125.254
-125.197
-125.125
-125.033
-124.913
-124.755
-124.549
-124.277
-123.891
-123.31
-126.887
-126.865
-126.837
-126.808
-126.774
-126.738
-126.701
-126.663
-126.624
-126.585
-126.545
-126.506
-126.468
-126.429
-126.391
-126.354
-126.316
-126.28
-126.244
-126.208
-126.173
-126.139
-126.106
-126.074
-126.045
-126.017
-125.991
-125.967
-125.943
-125.919
-125.895
-125.868
-125.836
-125.799
-125.753
-125.695
-125.619
-125.519
-125.389
-125.221
-125.018
-124.775
-124.69
-127.309
-127.286
-127.258
-127.228
-127.195
-127.159
-127.122
-127.084
-127.046
-127.008
-126.97
-126.932
-126.895
-126.858
-126.822
-126.786
-126.752
-126.717
-126.684
-126.651
-126.62
-126.589
-126.56
-126.533
-126.507
-126.484
-126.463
-126.443
-126.424
-126.406
-126.387
-126.368
-126.346
-126.319
-126.283
-126.235
-126.171
-126.086
-125.974
-125.829
-125.67
-125.501
-125.05
-127.701
-127.679
-127.65
-127.621
-127.588
-127.553
-127.516
-127.479
-127.442
-127.404
-127.367
-127.331
-127.295
-127.26
-127.225
-127.192
-127.159
-127.128
-127.097
-127.067
-127.039
-127.012
-126.986
-126.962
-126.941
-126.922
-126.904
-126.889
-126.876
-126.865
-126.853
-126.839
-126.823
-126.801
-126.773
-126.735
-126.682
-126.609
-126.509
-126.37
-126.192
-125.977
-126.038
-128.068
-128.046
-128.017
-127.988
-127.955
-127.92
-127.884
-127.847
-127.81
-127.774
-127.738
-127.702
-127.668
-127.634
-127.601
-127.57
-127.539
-127.509
-127.481
-127.454
-127.429
-127.405
-127.383
-127.363
-127.345
-127.33
-127.317
-127.307
-127.297
-127.29
-127.282
-127.274
-127.265
-127.252
-127.232
-127.202
-127.158
-127.094
-127.005
-126.877
-126.712
-126.525
-126.457
-128.405
-128.382
-128.354
-128.325
-128.292
-128.258
-128.222
-128.186
-128.15
-128.114
-128.079
-128.045
-128.011
-127.979
-127.948
-127.918
-127.889
-127.862
-127.836
-127.811
-127.789
-127.768
-127.748
-127.732
-127.717
-127.706
-127.696
-127.689
-127.684
-127.681
-127.68
-127.678
-127.674
-127.666
-127.652
-127.63
-127.595
-127.542
-127.463
-127.349
-127.198
-127.02
-127.274
-128.715
-128.692
-128.664
-128.634
-128.602
-128.568
-128.532
-128.497
-128.461
-128.426
-128.392
-128.358
-128.326
-128.294
-128.264
-128.236
-128.209
-128.183
-128.16
-128.138
-128.117
-128.099
-128.083
-128.069
-128.058
-128.05
-128.044
-128.041
-128.04
-128.041
-128.042
-128.043
-128.043
-128.042
-128.034
-128.017
-127.987
-127.941
-127.872
-127.764
-127.606
-127.386
-127.505
-128.994
-128.971
-128.943
-128.913
-128.881
-128.847
-128.812
-128.777
-128.742
-128.707
-128.673
-128.641
-128.609
-128.579
-128.55
-128.523
-128.498
-128.474
-128.452
-128.432
-128.414
-128.398
-128.384
-128.373
-128.365
-128.359
-128.356
-128.356
-128.358
-128.362
-128.369
-128.375
-128.38
-128.381
-128.378
-128.367
-128.343
-128.301
-128.235
-128.136
-127.989
-127.788
-127.835
-129.242
-129.219
-129.191
-129.162
-129.13
-129.096
-129.061
-129.026
-128.992
-128.958
-128.925
-128.893
-128.862
-128.833
-128.805
-128.779
-128.755
-128.733
-128.713
-128.695
-128.678
-128.665
-128.653
-128.645
-128.639
-128.636
-128.636
-128.638
-128.644
-128.651
-128.659
-128.668
-128.675
-128.68
-128.68
-128.672
-128.654
-128.619
-128.56
-128.468