/*--------------------------------*- C++ -*----------------------------------*\
| =========                 |                                                 |
| \\      /  F ield         | OpenFOAM: The Open Source CFD Toolbox           |
|  \\    /   O peration     | Version:  2.3.0                                 |
|   \\  /    A nd           | Web:      www.OpenFOAM.org                      |
|    \\/     M anipulation  |                                                 |
\*---------------------------------------------------------------------------*/
FoamFile
{
    version     2.0;
    format      ascii;
    class       volVectorField;
    location    "10000";
    object      U;
}
// * * * * * * * * * * * * * * * * * * * * * * * * * * * * * * * * * * * * * //

dimensions      [0 1 -1 0 0 0 0];

internalField   nonuniform List<vector> 
42113
(
(21.3201 12.8316 7.82956e-23)
(21.193 13.0543 0)
(21.0637 13.2786 0)
(20.9305 13.5036 0)
(20.7924 13.7295 -7.78203e-21)
(20.6491 13.9564 2.49172e-20)
(20.5002 14.1844 -1.9934e-20)
(20.3453 14.4135 -2.27126e-20)
(20.1843 14.644 5.48532e-20)
(20.017 14.8758 1.08529e-20)
(19.8429 15.1089 -7.22938e-20)
(19.6618 15.3435 5.08758e-20)
(19.4731 15.5794 -1.06003e-19)
(19.2764 15.8165 1.06683e-19)
(19.0712 16.0546 1.35209e-19)
(18.8568 16.2934 -1.29545e-19)
(18.6324 16.5324 -1.5624e-19)
(18.3973 16.7707 -1.95549e-20)
(18.1504 17.0074 1.73274e-19)
(17.8904 17.2411 2.12952e-19)
(17.6158 17.4704 -2.03693e-19)
(17.3248 17.6933 0)
(17.0153 17.9074 -2.89913e-21)
(16.6849 18.1101 2.76448e-19)
(16.3303 18.2988 -5.822e-19)
(15.9481 18.4707 3.07017e-19)
(15.5337 18.6231 0)
(15.0823 18.7542 0)
(14.5877 18.8617 1.9481e-19)
(14.0431 18.9461 -1.91205e-19)
(13.4402 19.0067 0)
(12.7691 19.0463 -7.14424e-21)
(12.0184 19.068 0)
(11.1754 19.0777 9.32729e-21)
(10.2248 19.0788 0)
(9.15111 19.0794 -2.4678e-19)
(7.93921 19.0847 2.64255e-19)
(6.57531 19.0989 4.23318e-21)
(5.04412 19.1031 -1.32492e-20)
(3.34061 19.0826 -3.91442e-20)
(1.50633 19.1306 4.15023e-20)
(-0.37705 19.4343 0)
(-2.29091 19.5516 0)
(21.0975 12.7292 3.53428e-21)
(20.9783 12.9289 0)
(20.8543 13.1269 1.32258e-20)
(20.727 13.3271 -8.05201e-21)
(20.5956 13.5283 0)
(20.4598 13.7303 -2.41866e-20)
(20.319 13.933 2.3572e-20)
(20.173 14.1368 2.18984e-20)
(20.0215 14.3415 -1.68958e-20)
(19.8642 14.5472 6.9997e-22)
(19.7007 14.7542 1.48673e-20)
(19.5306 14.9624 -1.98015e-20)
(19.3535 15.172 0)
(19.1689 15.3831 2.10811e-20)
(18.9762 15.5958 -1.86738e-20)
(18.7748 15.8102 -1.39291e-21)
(18.5639 16.0266 0)
(18.3428 16.245 -1.88349e-20)
(18.1103 16.4655 -2.97236e-22)
(17.8655 16.6884 1.4395e-20)
(17.6071 16.9138 -2.40127e-20)
(17.3335 17.1418 2.20432e-20)
(17.0434 17.3722 6.69363e-21)
(16.735 17.6053 0)
(16.4067 17.8404 0)
(16.0564 18.0773 4.23875e-20)
(15.6823 18.3152 -4.36646e-20)
(15.2822 18.5525 -3.42876e-21)
(14.8542 18.7875 -3.97146e-21)
(14.3963 19.0174 -4.6468e-21)
(13.906 19.2385 0)
(13.3811 19.4461 0)
(12.8198 19.6339 0)
(12.2198 19.7939 -2.74258e-19)
(11.5797 19.916 6.30286e-19)
(10.8982 19.987 -7.82532e-19)
(10.1758 19.9929 1.75569e-19)
(9.41351 19.9148 2.98754e-19)
(8.6154 19.7312 4.21678e-19)
(7.79178 19.417 8.35226e-20)
(6.96188 18.9525 -5.25676e-19)
(6.1312 18.3245 3.87668e-19)
(5.27249 17.5174 -3.70671e-19)
(20.9064 12.6188 -1.34284e-20)
(20.7871 12.7988 2.20025e-20)
(20.6646 12.9752 -2.76161e-20)
(20.5392 13.154 5.00466e-20)
(20.4103 13.3334 -3.62551e-20)
(20.2773 13.5135 0)
(20.1397 13.694 0)
(19.9971 13.8752 0)
(19.8491 14.057 4.19275e-20)
(19.6954 14.2394 -1.02825e-19)
(19.5357 14.4228 1.17903e-19)
(19.3696 14.6069 -6.15498e-20)
(19.1969 14.7919 5.86808e-20)
(19.0169 14.9778 -5.63632e-20)
(18.8292 15.1647 6.17515e-20)
(18.6332 15.3527 -6.21706e-20)
(18.4283 15.5415 -6.64846e-20)
(18.2139 15.7314 1.36864e-19)
(17.9891 15.9222 2.88674e-21)
(17.7532 16.1137 6.46734e-21)
(17.505 16.3058 -1.62546e-19)
(17.2434 16.4979 1.81883e-19)
(16.9668 16.6896 -1.03262e-19)
(16.6735 16.8803 0)
(16.3617 17.0688 -1.16086e-19)
(16.0294 17.2546 2.47362e-19)
(15.6745 17.4359 1.08036e-20)
(15.2942 17.6115 -1.43502e-19)
(14.8864 17.7792 1.83708e-19)
(14.4488 17.9366 -1.81075e-19)
(13.9786 18.0809 0)
(13.4741 18.2084 -2.76634e-19)
(12.9337 18.315 5.93634e-19)
(12.3563 18.3954 -1.39556e-19)
(11.7418 18.4433 -1.68037e-19)
(11.0914 18.4517 -2.51723e-19)
(10.4089 18.4121 -3.17747e-20)
(9.70039 18.3154 5.88286e-19)
(8.97615 18.1517 -3.29326e-19)
(8.25079 17.9123 -4.28349e-19)
(7.54517 17.5893 1.89516e-19)
(6.88365 17.1751 2.64624e-19)
(6.29555 16.6632 3.10631e-19)
(20.7347 12.5079 1.97713e-20)
(20.6203 12.67 -4.82189e-20)
(20.5026 12.8287 8.50975e-21)
(20.3819 12.9889 0)
(20.2582 13.1496 8.72365e-21)
(20.1311 13.3108 0)
(20 13.4723 1.21213e-20)
(19.8642 13.6341 0)
(19.7235 13.7963 -7.26749e-20)
(19.5774 13.9591 7.8462e-20)
(19.4257 14.1223 0)
(19.2681 14.2861 9.85926e-20)
(19.1042 14.4504 -8.7055e-20)
(18.9334 14.6152 -4.98403e-21)
(18.7554 14.7804 -1.0333e-19)
(18.5695 14.946 2.11619e-19)
(18.375 15.112 -1.08503e-19)
(18.1713 15.2784 1.18245e-19)
(17.9578 15.445 -1.19699e-19)
(17.7338 15.6119 1.23152e-19)
(17.4986 15.7788 1.64705e-20)
(17.2514 15.9454 -1.61729e-19)
(16.9913 16.1112 1.71137e-19)
(16.7173 16.2755 -1.54663e-19)
(16.4281 16.4373 0)
(16.1226 16.5956 0)
(15.7992 16.7488 0)
(15.4561 16.8952 0)
(15.092 17.0328 2.8562e-19)
(14.7053 17.1589 -2.94217e-19)
(14.2945 17.2706 1.78836e-19)
(13.8587 17.3643 -1.74405e-19)
(13.3972 17.4359 -2.5664e-20)
(12.9097 17.4804 0)
(12.3972 17.4925 -1.46181e-20)
(11.8616 17.4658 0)
(11.3061 17.3941 -3.70319e-19)
(10.7362 17.2703 3.79644e-19)
(10.1595 17.0882 2.82876e-20)
(9.58599 16.8432 -2.28867e-19)
(9.02821 16.5322 2.29459e-19)
(8.50065 16.1559 -3.48205e-20)
(8.02001 15.7195 0)
(20.5826 12.4042 -1.30653e-21)
(20.4739 12.547 2.55079e-20)
(20.3612 12.6892 1.202e-20)
(20.2452 12.8327 -2.5801e-20)
(20.1266 12.9771 -5.32984e-20)
(20.0051 13.1219 5.29686e-20)
(19.88 13.2669 -7.44863e-20)
(19.7506 13.4121 5.45341e-20)
(19.6163 13.5577 -6.27446e-21)
(19.477 13.7036 6.57739e-20)
(19.3322 13.85 -4.97265e-20)
(19.1817 13.9968 5.25291e-20)
(19.0253 14.1441 -6.76569e-20)
(18.8624 14.2915 0)
(18.6927 14.4391 0)
(18.5157 14.5868 9.38099e-21)
(18.3305 14.7344 0)
(18.1365 14.8817 0)
(17.933 15.0286 0)
(17.719 15.1749 9.28116e-21)
(17.4941 15.3206 -1.89585e-19)
(17.2575 15.4652 3.72276e-19)
(17.0085 15.6084 -1.95337e-19)
(16.7463 15.7496 8.34253e-20)
(16.4703 15.8879 -1.12682e-19)
(16.1793 16.0221 1.28785e-19)
(15.8722 16.1508 -1.32153e-19)
(15.5476 16.2723 -1.53057e-19)
(15.2044 16.3849 3.25251e-19)
(14.8413 16.4859 -3.57501e-19)
(14.4574 16.5728 1.90277e-19)
(14.0518 16.6423 -2.26068e-19)
(13.6244 16.691 2.63089e-19)
(13.1752 16.7146 -2.79141e-19)
(12.7058 16.7083 2.87245e-19)
(12.2185 16.6679 -3.45942e-19)
(11.7169 16.5883 3.55035e-19)
(11.2067 16.4646 -2.64834e-20)
(10.695 16.2922 2.0795e-19)
(10.1903 16.0685 -2.71157e-19)
(9.70312 15.7923 -6.76105e-22)
(9.2449 15.4649 -1.15899e-19)
(8.82699 15.0915 1.14195e-19)
(20.4493 12.3045 2.82344e-20)
(20.3465 12.4303 0)
(20.2392 12.5579 0)
(20.1281 12.6866 0)
(20.0145 12.8165 8.39104e-21)
(19.8987 12.9472 6.43229e-20)
(19.7799 13.0781 -5.64296e-20)
(19.6571 13.2092 0)
(19.5298 13.3406 -8.93317e-21)
(19.3974 13.4723 -7.88437e-21)
(19.2598 13.6045 -8.06335e-21)
(19.1166 13.7371 8.07675e-20)
(18.9677 13.8703 2.04863e-21)
(18.8128 14.0036 -1.61847e-19)
(18.6512 14.1369 8.77837e-20)
(18.4829 14.2704 6.25745e-20)
(18.3072 14.4036 -1.69953e-19)
(18.1233 14.5362 1.77694e-19)
(17.9304 14.668 -9.15472e-20)
(17.7276 14.7986 0)
(17.5141 14.9279 -1.06126e-19)
(17.2893 15.0558 2.33643e-19)
(17.0524 15.1818 -1.15044e-19)
(16.8029 15.3054 1.6016e-19)
(16.5403 15.4263 -1.14103e-19)
(16.2648 15.5428 0)
(15.9749 15.6537 -2.06353e-20)
(15.67 15.7576 0)
(15.3489 15.8525 0)
(15.0111 15.9361 -2.6417e-20)
(14.6554 16.006 2.29576e-19)
(14.2813 16.0594 1.59962e-20)
(13.8891 16.093 -2.75464e-19)
(13.4788 16.1032 0)
(13.0513 16.0858 0)
(12.6088 16.0369 0)
(12.1542 15.9533 0)
(11.6933 15.8308 2.62877e-20)
(11.232 15.6659 0)
(10.7772 15.4566 6.53732e-20)
(10.337 15.2032 3.24074e-19)
(9.92106 14.9074 -1.74445e-19)
(9.53818 14.5731 -2.82443e-19)
(20.3329 12.2107 -2.56213e-20)
(20.2365 12.3208 -1.75401e-20)
(20.1341 12.4352 -6.72018e-22)
(20.0274 12.5507 4.41388e-20)
(19.9182 12.6679 -8.42731e-21)
(19.8076 12.7862 0)
(19.6948 12.9049 9.6346e-21)
(19.578 13.0241 7.54546e-20)
(19.4574 13.1435 -1.42952e-19)
(19.3315 13.2632 6.63921e-20)
(19.2006 13.3834 8.02467e-20)
(19.064 13.5041 -8.01604e-20)
(18.9219 13.6256 0)
(18.7742 13.7473 -1.09982e-21)
(18.6197 13.8688 7.97648e-20)
(18.4585 13.9906 -9.19998e-20)
(18.2907 14.1124 -9.76146e-20)
(18.1155 14.2337 1.11701e-19)
(17.9323 14.3539 0)
(17.7394 14.4723 -1.44061e-20)
(17.5362 14.5889 1.51953e-20)
(17.3218 14.7036 -1.25999e-19)
(17.0957 14.8163 1.28471e-19)
(16.8574 14.9258 -1.66684e-20)
(16.6046 15.0328 -3.72508e-20)
(16.3404 15.136 -2.08012e-20)
(16.0627 15.2334 1.7545e-19)
(15.7713 15.3241 -1.81669e-19)
(15.4655 15.406 0)
(15.1447 15.477 2.52062e-19)
(14.808 15.5348 -4.77768e-19)
(14.4551 15.577 2.52805e-19)
(14.0867 15.6007 -3.63817e-20)
(13.703 15.6032 2.0038e-19)
(13.3055 15.5803 -2.0836e-19)
(12.8952 15.5277 -1.92545e-19)
(12.4731 15.4435 1.456e-19)
(12.0466 15.3256 0)
(11.6214 15.1691 -6.09124e-20)
(11.2015 14.9722 -6.47012e-20)
(10.794 14.7364 -1.44779e-19)
(10.4076 14.4638 7.08276e-20)
(10.0498 14.1575 0)
(20.2298 12.1192 -9.8865e-21)
(20.1405 12.2172 2.8883e-20)
(20.0435 12.3203 0)
(19.9415 12.4245 -9.29432e-21)
(19.8361 12.5306 1.01247e-20)
(19.7297 12.638 4.01504e-20)
(19.623 12.7459 -4.95404e-20)
(19.5111 12.855 -1.05835e-20)
(19.3971 12.9648 1.07639e-20)
(19.2771 13.074 -7.59169e-20)
(19.1524 13.184 7.47233e-20)
(19.022 13.2945 -1.14677e-20)
(18.8854 13.4064 9.27485e-20)
(18.7448 13.519 2.59788e-20)
(18.5973 13.6305 -9.60477e-20)
(18.4423 13.7419 -9.03486e-20)
(18.2806 13.854 1.16697e-19)
(18.1122 13.9665 9.80939e-20)
(17.9376 14.0781 -2.29071e-19)
(17.7537 14.188 1.17321e-19)
(17.5602 14.2951 -1.60321e-19)
(17.3563 14.399 1.48236e-19)
(17.1384 14.5021 -1.79719e-20)
(16.9138 14.6005 0)
(16.6688 14.6956 1.94237e-20)
(16.4149 14.7889 2.08065e-20)
(16.1477 14.8756 4.5768e-20)
(15.8678 14.9556 0)
(15.5747 15.0274 -1.09544e-19)
(15.2685 15.0887 2.01883e-19)
(14.9473 15.137 -1.52917e-19)
(14.6109 15.1705 1.39596e-19)
(14.2603 15.1865 -7.04676e-20)
(13.8958 15.1831 -7.92477e-20)
(13.5207 15.1581 -4.15252e-22)
(13.1376 15.104 -4.72299e-20)
(12.7381 15.0215 2.12531e-19)
(12.3368 14.9094 -5.04061e-19)
(11.9409 14.7611 3.55315e-19)
(11.5487 14.5746 -6.4917e-20)
(11.1643 14.3532 0)
(10.8005 14.0975 1.48594e-19)
(10.4616 13.8107 0)
(20.1232 12.0298 -2.10125e-20)
(20.0478 12.1205 3.29345e-20)
(19.9608 12.214 -2.17993e-20)
(19.8682 12.3083 0)
(19.7707 12.4046 -1.04803e-20)
(19.6679 12.5024 0)
(19.5667 12.5998 -1.16806e-20)
(19.4561 12.699 1.09895e-20)
(19.3503 12.8026 2.30289e-20)
(19.2382 12.9024 -4.52837e-20)
(19.1188 13.0035 1.12184e-20)
(18.9957 13.105 -8.27613e-22)
(18.8634 13.2081 0)
(18.7298 13.3145 -6.32708e-20)
(18.5914 13.4187 5.09824e-20)
(18.4433 13.5208 0)
(18.2884 13.6225 -6.98879e-20)
(18.1243 13.7274 1.15788e-19)
(17.9587 13.8322 -5.92051e-20)
(17.7871 13.9356 7.82274e-20)
(17.6021 14.0385 1.83817e-20)
(17.4118 14.1311 -1.03725e-19)
(17.1909 14.2266 1.8037e-20)
(16.9811 14.3214 -7.91584e-20)
(16.7405 14.4033 6.10369e-20)
(16.4966 14.4886 2.33864e-20)
(16.2389 14.5677 -4.86316e-20)
(15.9707 14.6397 0)
(15.6924 14.7023 -1.41398e-19)
(15.4047 14.7551 1.13444e-19)
(15.1046 14.7941 -1.64275e-21)
(14.7896 14.8188 -3.57701e-20)
(14.4611 14.826 1.147e-19)
(14.1142 14.8149 -1.15383e-19)
(13.7556 14.7889 -1.8841e-21)
(13.4062 14.7295 -2.75787e-21)
(13.0132 14.653 -5.45584e-20)
(12.6184 14.5536 1.06099e-19)
(12.2463 14.412 1.48347e-21)
(11.8789 14.2297 -1.83077e-21)
(11.4976 14.0285 0)
(11.1319 13.7917 -7.03267e-20)
(10.797 13.5192 7.86179e-20)
(-3.95449 18.0708 0)
(-3.1423 16.3535 0)
(-2.3319 14.8968 0)
(-1.56208 13.7506 -2.70942e-19)
(-0.841863 12.8115 8.66112e-19)
(-0.17197 12.02 -5.352e-19)
(0.44757 11.3448 7.79758e-20)
(1.02042 10.7626 0)
(1.55063 10.2562 3.8416e-20)
(2.04202 9.81113 0)
(2.49927 9.41694 0)
(2.92741 9.06606 0)
(3.32996 8.75133 1.93241e-18)
(3.7092 8.46668 -1.79241e-18)
(4.06734 8.20768 0)
(4.406 7.96984 -1.68428e-18)
(4.72696 7.75019 1.62827e-18)
(5.03168 7.54582 -1.583e-18)
(5.32172 7.35462 1.53843e-18)
(5.59843 7.1746 4.88692e-20)
(5.86303 7.00427 0)
(6.11675 6.84242 0)
(6.36049 6.68761 1.40347e-18)
(6.59526 6.53917 -1.46829e-18)
(6.82181 6.39603 -1.44563e-18)
(7.04091 6.25764 3.82254e-21)
(7.25316 6.12333 2.74023e-18)
(7.45911 5.99261 -1.40199e-18)
(7.65922 5.86492 0)
(7.85398 5.74004 8.07741e-20)
(8.04374 5.61757 1.64458e-19)
(8.22881 5.49717 1.60338e-19)
(8.40956 5.37869 -1.28325e-18)
(8.58628 5.26194 1.44513e-18)
(8.75922 5.14664 1.11803e-18)
(8.92861 5.0327 -1.27848e-18)
(9.09467 4.91997 1.57936e-19)
(9.25754 4.80821 0)
(9.41738 4.69733 3.14868e-19)
(9.5743 4.58734 -1.53417e-19)
(9.72834 4.47876 0)
(9.87984 4.37098 0)
(10.0277 4.2379 1.82117e-21)
(4.43506 16.5537 2.5233e-20)
(3.90376 15.5423 0)
(3.62997 14.616 0)
(3.52524 13.7792 -3.05155e-20)
(3.53335 13.0286 0)
(3.61759 12.3585 0)
(3.75573 11.7594 -5.73225e-19)
(3.93123 11.2232 5.2202e-19)
(4.13127 10.7421 0)
(4.34687 10.3087 5.9077e-20)
(4.57125 9.91627 -9.6777e-19)
(4.79972 9.55923 9.31656e-19)
(5.02922 9.23266 -5.41764e-20)
(5.25735 8.9326 -5.25385e-20)
(5.48281 8.65578 0)
(5.70439 8.39904 -1.6334e-18)
(5.92137 8.15975 1.63245e-18)
(6.13361 7.93588 0)
(6.34091 7.72544 0)
(6.54304 7.52668 0)
(6.7403 7.33837 -1.42164e-18)
(6.93273 7.15919 1.39502e-18)
(7.12042 6.98806 -8.38619e-20)
(7.30359 6.8241 -1.25726e-18)
(7.48245 6.66656 1.24436e-18)
(7.65716 6.5147 0)
(7.82789 6.36798 1.29107e-18)
(7.99482 6.22582 -1.28457e-18)
(8.15813 6.08788 0)
(8.31801 5.95368 1.18555e-18)
(8.47459 5.82288 -4.87589e-21)
(8.62813 5.69517 -1.42106e-18)
(8.77881 5.57031 1.25611e-18)
(8.92682 5.448 -1.57389e-18)
(9.07229 5.32796 -6.25012e-19)
(9.21537 5.20997 2.65467e-21)
(9.35621 5.09387 4.7029e-19)
(9.4949 4.97939 0)
(9.63153 4.8663 3.09176e-19)
(9.76619 4.75456 -3.06525e-19)
(9.89889 4.64445 1.51631e-19)
(10.0295 4.53571 0)
(10.1571 4.41229 -4.26114e-19)
(5.81594 16.061 -3.34699e-19)
(5.46829 15.3985 9.33744e-20)
(5.23543 14.7178 -1.42702e-19)
(5.09912 14.0474 2.80118e-20)
(5.0417 13.4046 5.34435e-20)
(5.04764 12.7978 0)
(5.10304 12.2317 0)
(5.19631 11.7068 4.4266e-19)
(5.31758 11.2224 -4.29421e-19)
(5.45894 10.7763 -5.6534e-20)
(5.6144 10.3652 5.25109e-20)
(5.77948 9.98665 0)
(5.95055 9.63706 8.6552e-19)
(6.12481 9.3137 -1.5782e-18)
(6.30046 9.01383 7.68874e-19)
(6.47595 8.73487 4.66925e-20)
(6.65025 8.47461 -1.51959e-18)
(6.8227 8.23108 1.43342e-18)
(6.99274 8.00234 0)
(7.16 7.78686 1.37522e-18)
(7.32433 7.58322 9.88982e-22)
(7.48562 7.39012 -8.17494e-20)
(7.64384 7.20646 1.76183e-21)
(7.79902 7.03127 -1.28336e-18)
(7.95118 6.86368 1.34652e-18)
(8.10031 6.70287 -2.50667e-18)
(8.24654 6.54822 2.40724e-18)
(8.38995 6.39914 -1.23439e-18)
(8.53064 6.25515 -1.30148e-18)
(8.66872 6.11571 2.44447e-18)
(8.80433 5.98047 -1.221e-18)
(8.93767 5.84903 6.08276e-19)
(9.06885 5.72107 -6.8542e-19)
(9.19802 5.59622 7.62024e-19)
(9.32525 5.47419 -6.08668e-19)
(9.45064 5.35471 6.09016e-19)
(9.57429 5.23758 -6.10724e-19)
(9.69627 5.12252 3.0378e-19)
(9.81661 5.00933 -4.54255e-19)
(9.9354 4.8979 0)
(10.0526 4.78833 1.48046e-19)
(10.168 4.68057 0)
(10.2807 4.56342 2.83364e-19)
(7.60126 15.2333 0)
(7.25388 14.7109 4.82466e-20)
(6.98 14.1696 1.27669e-20)
(6.77643 13.6257 -6.28536e-20)
(6.63667 13.0916 2.13464e-19)
(6.55244 12.5756 -2.10011e-19)
(6.5153 12.0833 0)
(6.51733 11.6178 4.33177e-19)
(6.55094 11.1801 -4.21387e-19)
(6.6096 10.7702 5.16289e-20)
(6.68791 10.3872 -1.027e-19)
(6.78149 10.0298 0)
(6.88647 9.69625 0)
(6.99985 9.3848 4.87566e-20)
(7.11943 9.09367 0)
(7.24336 8.82111 4.45958e-20)
(7.37014 8.56542 7.22261e-19)
(7.49873 8.32506 -7.03572e-19)
(7.62833 8.09852 0)
(7.75817 7.8845 0)
(7.88778 7.68177 5.79474e-19)
(8.01676 7.48925 -1.13593e-18)
(8.14479 7.30593 7.97689e-19)
(8.27169 7.13094 0)
(8.39719 6.96342 0)
(8.52114 6.80273 0)
(8.64345 6.64823 7.65503e-20)
(8.76406 6.4994 6.02902e-19)
(8.88295 6.35579 7.44848e-20)
(9.00023 6.21696 -1.19492e-18)
(9.11592 6.08248 6.70513e-19)
(9.23016 5.95201 0)
(9.34301 5.82517 1.48754e-19)
(9.45448 5.70161 6.68679e-19)
(9.56462 5.58106 -4.4688e-19)
(9.67346 5.46329 0)
(9.78105 5.348 -4.46422e-19)
(9.88742 5.23503 1.49162e-19)
(9.99259 5.12414 1.50267e-19)
(10.0967 5.01521 4.43785e-19)
(10.1997 4.90813 -2.93874e-19)
(10.3014 4.80269 0)
(10.4016 4.68955 -2.83436e-19)
(8.45782 14.6793 -8.76378e-20)
(8.14193 14.2366 1.78947e-19)
(7.8816 13.7741 -3.39515e-20)
(7.67669 13.3036 3.77762e-20)
(7.52386 12.8349 -5.10135e-20)
(7.41825 12.3758 2.06516e-19)
(7.35416 11.9318 -6.17511e-19)
(7.32562 11.5063 3.54629e-19)
(7.3268 11.1016 0)
(7.35249 10.7184 3.05777e-19)
(7.39787 10.3569 -3.44989e-19)
(7.45895 10.0165 0)
(7.5324 9.69663 9.52937e-20)
(7.61545 9.39611 0)
(7.706 9.11377 0)
(7.80222 8.84831 -9.12351e-20)
(7.90283 8.59841 -6.18917e-19)
(8.0067 8.3628 6.88143e-19)
(8.11281 8.14017 0)
(8.22031 7.92946 0)
(8.32871 7.72964 8.1937e-20)
(8.43748 7.53967 -7.18281e-19)
(8.54625 7.35865 -7.95403e-20)
(8.65462 7.18571 6.17834e-19)
(8.76227 7.02019 -7.57021e-20)
(8.86896 6.86144 7.48704e-20)
(8.97447 6.7089 0)
(9.07871 6.56207 -5.92412e-19)
(9.18173 6.4206 5.8936e-19)
(9.28367 6.28403 0)
(9.38451 6.15191 5.10757e-19)
(9.48424 6.02388 -5.11777e-19)
(9.58298 5.89961 -6.56519e-19)
(9.68069 5.77872 4.38573e-19)
(9.77728 5.66097 0)
(9.87282 5.54612 -2.92427e-19)
(9.96737 5.43396 3.6759e-19)
(10.0609 5.32424 -4.39835e-19)
(10.1533 5.21683 2.92869e-19)
(10.245 5.11169 0)
(10.3359 5.00856 1.07937e-19)
(10.4253 4.90768 3.57898e-20)
(10.512 4.80491 2.74841e-19)
(9.19463 14.2063 2.53943e-19)
(8.89419 13.8129 -1.32327e-19)
(8.63871 13.4014 4.65254e-20)
(8.42952 12.9806 0)
(8.26494 12.5586 0)
(8.14206 12.142 0)
(8.05683 11.7358 -2.03406e-19)
(8.00458 11.3434 -1.56852e-19)
(7.98058 10.967 7.99934e-19)
(7.98037 10.6079 -2.44859e-19)
(7.99952 10.2666 0)
(8.03449 9.94344 0)
(8.08222 9.63809 -9.53008e-20)
(8.14027 9.35007 -4.64263e-19)
(8.20685 9.07839 3.61885e-19)
(8.28023 8.82223 0)
(8.35938 8.58048 -8.76432e-20)
(8.44293 8.35189 -7.67052e-19)
(8.5296 8.13542 6.66088e-19)
(8.61857 7.9303 -7.358e-19)
(8.70941 7.73561 6.40922e-19)
(8.80156 7.55032 0)
(8.89453 7.3735 -7.70053e-20)
(8.98756 7.20446 -6.10893e-19)
(9.08032 7.0427 6.78396e-19)
(9.17255 6.88751 -7.49271e-20)
(9.26399 6.73845 0)
(9.35455 6.59514 -7.26901e-20)
(9.44438 6.45722 0)
(9.53358 6.32419 -5.05986e-19)
(9.62212 6.19554 -7.09926e-20)
(9.70979 6.07102 1.07781e-18)
(9.79678 5.95031 -8.05359e-22)
(9.88303 5.83299 -2.15835e-19)
(9.96816 5.71888 -2.87911e-19)
(10.0525 5.60786 7.16907e-20)
(10.136 5.49956 7.23974e-20)
(10.2185 5.39367 3.60081e-19)
(10.3001 5.29036 -2.88545e-19)
(10.3811 5.18941 7.1768e-20)
(10.4617 5.09007 -2.8605e-19)
(10.5409 4.99185 -1.41026e-19)
(10.6178 4.89513 0)
(9.72548 13.8223 -8.43833e-20)
(9.43914 13.4625 -8.81968e-20)
(9.19037 13.0858 -4.59746e-20)
(8.983 12.6995 4.79356e-20)
(8.81455 12.3104 4.84782e-20)
(8.68389 11.925 9.6993e-20)
(8.58797 11.547 -1.98491e-19)
(8.52288 11.18 1.94207e-19)
(8.48463 10.826 0)
(8.46912 10.4861 -9.76609e-20)
(8.47177 10.1614 0)
(8.48959 9.85266 9.38227e-20)
(8.51979 9.55998 9.22594e-20)
(8.56071 9.28313 4.57644e-19)
(8.61076 9.02126 -4.44797e-19)
(8.66811 8.77398 3.51191e-19)
(8.73241 8.54015 -3.42187e-19)
(8.80169 8.31843 8.46067e-20)
(8.8743 8.10807 0)
(8.94954 7.90894 -5.65773e-19)
(9.02775 7.71969 5.54742e-19)
(9.10776 7.53946 7.75064e-20)
(9.18908 7.367 8.44453e-22)
(9.2701 7.20221 0)
(9.35123 7.04459 -5.96515e-19)
(9.43223 6.8934 6.6244e-19)
(9.51272 6.74827 0)
(9.59249 6.60901 5.78826e-19)
(9.6721 6.47506 -5.74247e-19)
(9.75143 6.34589 4.99002e-19)
(9.83021 6.22096 -8.52464e-19)
(9.90815 6.10026 2.83814e-19)
(9.98572 5.98346 7.05244e-20)
(10.0626 5.86998 0)
(10.1381 5.75984 -2.83417e-19)
(10.2132 5.65314 2.12872e-19)
(10.2878 5.54893 -3.5495e-19)
(10.3609 5.44702 3.55579e-19)
(10.433 5.34822 -1.42356e-19)
(10.5054 5.25195 -7.09219e-20)
(10.5777 5.15686 1.23969e-19)
(10.6485 5.06297 1.93145e-19)
(10.7178 4.97512 -3.40161e-20)
(10.1505 13.4984 8.08134e-20)
(9.8759 13.1621 6.28549e-20)
(9.63043 12.8129 2.19235e-20)
(9.42774 12.4515 -1.38174e-19)
(9.25691 12.0867 -4.7943e-20)
(9.1212 11.7246 -1.91337e-19)
(9.01831 11.3683 2.87343e-19)
(8.94454 11.0216 -2.84211e-19)
(8.8969 10.686 -9.73289e-20)
(8.871 10.3611 9.34127e-20)
(8.86101 10.0506 -3.76624e-19)
(8.86561 9.75385 2.74157e-19)
(8.88208 9.47259 -9.14069e-20)
(8.90996 9.20554 -4.47636e-19)
(8.94751 8.9524 4.37779e-19)
(8.99242 8.71364 -2.59649e-19)
(9.04577 8.48677 3.36648e-19)
(9.10346 8.27167 -4.143e-19)
(9.16396 8.06639 2.43625e-19)
(9.22834 7.8743 -2.40194e-19)
(9.29725 7.68977 3.13741e-19)
(9.36786 7.51487 -1.53976e-19)
(9.43965 7.34571 7.61845e-20)
(9.51035 7.18582 -2.99059e-19)
(9.58289 7.0325 2.21541e-19)
(9.65573 6.88562 -3.64499e-19)
(9.72776 6.74479 2.8825e-19)
(9.79898 6.60962 -2.84914e-19)
(9.87074 6.47954 2.83611e-19)
(9.94226 6.35408 0)
(10.013 6.23268 1.40359e-19)
(10.0828 6.11594 6.96819e-20)
(10.1527 6.003 -7.02007e-20)
(10.2217 5.8935 -2.79549e-19)
(10.2884 5.78735 3.14877e-22)
(10.3566 5.68548 2.80327e-19)
(10.4239 5.58523 -6.98259e-20)
(10.4887 5.48696 -6.9736e-20)
(10.5529 5.39314 1.40611e-19)
(10.6188 5.30171 0)
(10.6845 5.21054 1.74694e-20)
(10.7476 5.12067 -1.73803e-20)
(10.8096 5.03726 0)
(10.4967 13.2209 -2.41638e-19)
(10.244 12.8928 1.06495e-19)
(9.99501 12.5769 -2.09651e-20)
(9.79525 12.2355 4.25781e-20)
(9.6137 11.8894 -4.71481e-20)
(9.47445 11.5436 -2.41278e-21)
(9.36759 11.2032 1.87598e-19)
(9.28778 10.873 1.39335e-21)
(9.23455 10.5532 -8.25754e-22)
(9.20172 10.238 9.23223e-20)
(9.18176 9.94221 -9.06236e-20)
(9.17779 9.65414 -1.80381e-19)
(9.18436 9.38502 -1.79209e-19)
(9.20468 9.12543 6.95468e-19)
(9.23316 8.88095 -3.46232e-19)
(9.26771 8.64925 -8.69665e-20)
(9.31299 8.42561 0)
(9.36062 8.21851 -2.48603e-19)
(9.41174 8.01522 1.6938e-22)
(9.46921 7.83467 2.36191e-19)
(9.53297 7.64901 3.12436e-19)
(9.59654 7.48261 -2.28625e-19)
(9.66198 7.31208 0)
(9.72542 7.16267 7.31314e-20)
(9.79512 7.01236 7.1091e-20)
(9.86033 6.87134 -7.15638e-20)
(9.92331 6.73393 0)
(9.98569 6.60149 7.21e-20)
(10.0502 6.47434 -3.57205e-19)
(10.1144 6.35267 2.83405e-19)
(10.1777 6.23412 -3.52424e-19)
(10.2397 6.12142 1.41904e-19)
(10.3026 6.01125 0)
(10.3645 5.90671 -7.0361e-20)
(10.4232 5.80378 1.41643e-19)
(10.4864 5.70799 -2.87424e-19)
(10.5477 5.61075 2.74151e-19)
(10.6061 5.51575 -6.71701e-20)
(10.663 5.42868 6.94822e-20)
(10.7224 5.3416 0)
(10.7805 5.25294 1.76403e-20)
(10.8345 5.16641 -8.78357e-20)
(10.8912 5.08459 0)
(-2.99589 -2.2971 -2.4846e-19)
(-2.82751 -2.34019 2.59536e-19)
(-2.65887 -2.38311 -2.64724e-19)
(-2.49026 -2.4248 2.73742e-19)
(-2.32222 -2.46524 -2.79431e-19)
(-2.15506 -2.50443 0)
(-1.98908 -2.54235 1.44041e-19)
(-1.82446 -2.579 1.45806e-19)
(-1.66137 -2.61437 -1.47373e-19)
(-1.49993 -2.64844 -2.87099e-21)
(-1.34026 -2.68123 0)
(-1.1824 -2.71274 -3.06408e-19)
(-1.02642 -2.74299 1.56349e-19)
(-0.872363 -2.77198 -7.7194e-20)
(-0.720288 -2.79971 0)
(-0.570205 -2.82621 8.04834e-20)
(-0.422054 -2.8515 8.25713e-20)
(-0.275835 -2.87559 1.72658e-19)
(-0.131577 -2.8985 -5.18727e-22)
(0.0107542 -2.92022 -9.09663e-20)
(0.151251 -2.9408 -3.07767e-21)
(0.289916 -2.96024 1.02501e-19)
(0.42676 -2.97858 0)
(0.561823 -2.99584 -5.64972e-20)
(0.695153 -3.01203 5.98222e-20)
(0.826756 -3.02724 1.92121e-19)
(0.956635 -3.04149 -2.71889e-19)
(1.08486 -3.05488 -2.90823e-19)
(1.21142 -3.06747 3.14882e-19)
(1.33632 -3.07927 8.57065e-20)
(1.4596 -3.09039 0)
(1.58135 -3.10084 0)
(1.70166 -3.11066 0)
(1.82069 -3.11965 1.13846e-18)
(1.93894 -3.12759 -1.21104e-18)
(2.05749 -3.13387 8.14353e-20)
(2.17899 -3.13738 -9.34974e-20)
(2.31043 -3.13675 0)
(2.47007 -3.13194 0)
(2.71081 -3.13028 0)
(3.19867 -3.17813 0)
(4.46854 -3.51667 0)
(8.58623 -5.2233 -1.25213e-19)
(-2.93478 -2.31818 0)
(-2.77865 -2.35758 0)
(-2.62274 -2.39737 0)
(-2.46683 -2.4363 0)
(-2.3113 -2.47437 1.36993e-19)
(-2.15639 -2.51158 -1.39014e-19)
(-2.00222 -2.54794 -4.4879e-22)
(-1.84894 -2.58347 -2.83868e-19)
(-1.69668 -2.6182 -6.3075e-22)
(-1.5455 -2.65212 1.44555e-19)
(-1.39544 -2.68527 0)
(-1.24654 -2.71763 1.47768e-19)
(-1.09882 -2.74923 -7.53491e-20)
(-0.952242 -2.78009 0)
(-0.806926 -2.81019 0)
(-0.662789 -2.83957 1.58713e-19)
(-0.519776 -2.86826 8.78907e-22)
(-0.377894 -2.89627 8.4321e-20)
(-0.237062 -2.92359 -8.63021e-20)
(-0.0971599 -2.95025 0)
(0.041889 -2.97621 0)
(0.180144 -3.00146 9.66488e-20)
(0.317708 -3.02595 1.22144e-21)
(0.454717 -3.04964 -5.32551e-20)
(0.591291 -3.07248 -5.81396e-22)
(0.727524 -3.09438 0)
(0.863603 -3.11528 1.27554e-19)
(0.999695 -3.13509 -1.36847e-19)
(1.13607 -3.15368 2.93893e-19)
(1.27314 -3.17088 -7.97496e-20)
(1.41139 -3.18645 -3.45621e-19)
(1.55171 -3.20005 3.7655e-19)
(1.69556 -3.21128 -4.14148e-19)
(1.84529 -3.21955 -2.28428e-19)
(2.00515 -3.22422 0)
(2.18301 -3.22481 -7.01561e-20)
(2.3941 -3.22189 2.36859e-19)
(2.66829 -3.21876 0)
(3.06622 -3.22859 -1.58004e-18)
(3.71714 -3.29414 1.83518e-18)
(4.90478 -3.5504 -2.04206e-18)
(7.27217 -4.39069 2.5192e-18)
(12.2367 -6.74873 0)
(-2.87147 -2.33061 1.22883e-19)
(-2.72498 -2.36848 1.27883e-19)
(-2.57842 -2.40687 1.30991e-19)
(-2.4316 -2.44459 0)
(-2.28483 -2.48168 1.34818e-19)
(-2.13832 -2.51814 -1.16768e-22)
(-1.99223 -2.55396 -1.37953e-19)
(-1.84664 -2.58918 0)
(-1.70161 -2.62381 6.92177e-20)
(-1.55718 -2.65786 -5.44158e-22)
(-1.41339 -2.69133 -1.06696e-22)
(-1.27024 -2.72422 7.24905e-20)
(-1.12769 -2.75652 -1.09412e-21)
(-0.985721 -2.78823 -7.45829e-20)
(-0.844368 -2.81933 0)
(-0.703575 -2.84983 -1.15612e-19)
(-0.56329 -2.87974 -3.89066e-20)
(-0.423495 -2.90909 -2.04138e-19)
(-0.284027 -2.9379 1.27212e-19)
(-0.144751 -2.9662 0)
(-0.00555818 -2.99394 4.53914e-20)
(0.13383 -3.02112 -1.42099e-19)
(0.273628 -3.04767 -1.97549e-19)
(0.414053 -3.07351 1.04294e-19)
(0.555458 -3.0985 5.4283e-20)
(0.698202 -3.12251 0)
(0.842669 -3.14535 6.20943e-20)
(0.989453 -3.1668 0)
(1.13942 -3.18663 -1.40756e-19)
(1.29367 -3.20449 1.51663e-19)
(1.45377 -3.21996 0)
(1.62223 -3.23255 -4.41713e-19)
(1.80283 -3.24171 3.84867e-19)
(2.00153 -3.247 -1.02244e-21)
(2.22779 -3.2484 -5.68761e-19)
(2.49758 -3.24698 5.00377e-19)
(2.83781 -3.24678 4.05176e-19)
(3.29653 -3.25889 -4.5491e-19)
(3.96015 -3.31098 0)
(4.98999 -3.47244 1.80933e-19)
(6.68101 -3.91163 1.95495e-19)
(9.57694 -5.01334 -1.05168e-19)
(14.2826 -7.39682 1.30887e-18)
(-2.80894 -2.33382 0)
(-2.67126 -2.37018 0)
(-2.53355 -2.40652 -1.28397e-19)
(-2.39536 -2.44218 1.30989e-19)
(-2.25692 -2.47728 0)
(-2.11841 -2.51184 -1.34154e-19)
(-1.97993 -2.54589 0)
(-1.84158 -2.57948 6.80436e-20)
(-1.7034 -2.61266 -1.3718e-19)
(-1.56531 -2.64543 2.76275e-19)
(-1.4273 -2.67781 -1.39724e-19)
(-1.28932 -2.70977 -1.41271e-19)
(-1.15135 -2.74133 1.43151e-19)
(-1.01331 -2.77247 0)
(-0.875136 -2.80312 1.11672e-19)
(-0.736799 -2.83327 -7.58852e-20)
(-0.598255 -2.86289 7.82039e-20)
(-0.459398 -2.89202 1.19689e-19)
(-0.320109 -2.92066 -8.21394e-20)
(-0.180206 -2.94884 -4.31237e-20)
(-0.0394306 -2.97659 -8.9146e-20)
(0.102564 -3.00388 -4.62181e-20)
(0.246196 -3.03062 1.44786e-19)
(0.39187 -3.05671 -5.10245e-20)
(0.540229 -3.08199 0)
(0.691879 -3.10622 -1.12982e-19)
(0.847571 -3.12911 5.97438e-20)
(1.00836 -3.15038 1.26793e-19)
(1.17569 -3.16972 -4.18312e-22)
(1.35159 -3.18677 -2.88629e-19)
(1.53896 -3.20114 6.46825e-22)
(1.74194 -3.21237 3.32555e-19)
(1.96658 -3.22006 -3.56284e-19)
(2.22169 -3.22433 2.90252e-21)
(2.52098 -3.22635 1.07941e-19)
(2.88583 -3.22956 6.2167e-21)
(3.35174 -3.24205 -1.10958e-19)
(3.97722 -3.28195 -1.18076e-19)
(4.85982 -3.38861 5.8585e-19)
(6.16171 -3.64612 4.43818e-19)
(8.14792 -4.22767 -2.32317e-19)
(11.228 -5.46959 -6.6815e-19)
(15.6005 -7.76771 5.14652e-19)
(-2.74691 -2.33201 2.36612e-19)
(-2.61758 -2.36669 2.49028e-19)
(-2.48756 -2.4005 -1.26532e-19)
(-2.35694 -2.43391 2.09452e-22)
(-2.22576 -2.46691 0)
(-2.09413 -2.49946 -5.01135e-22)
(-1.9622 -2.53157 0)
(-1.83 -2.56332 0)
(-1.69751 -2.59478 1.3461e-19)
(-1.56465 -2.62602 1.19669e-22)
(-1.4313 -2.65701 6.86755e-20)
(-1.29744 -2.6877 1.03776e-19)
(-1.163 -2.71808 -7.03325e-20)
(-1.02785 -2.74817 7.15019e-20)
(-0.891803 -2.77791 -3.60093e-20)
(-0.754819 -2.80717 0)
(-0.61687 -2.83587 -7.60798e-20)
(-0.47788 -2.86402 -7.87396e-20)
(-0.337681 -2.89162 0)
(-0.196082 -2.91869 -5.94558e-22)
(-0.0527827 -2.94529 8.65305e-20)
(0.0927065 -2.97143 -9.06699e-20)
(0.240951 -2.99709 -9.40103e-20)
(0.392659 -3.02217 4.90813e-20)
(0.548651 -3.04652 -2.53788e-22)
(0.709953 -3.06987 -4.19759e-22)
(0.877756 -3.09184 -5.79127e-20)
(1.05358 -3.11204 2.16051e-22)
(1.23923 -3.13014 -2.59676e-19)
(1.43749 -3.14597 2.76643e-19)
(1.65254 -3.15946 1.47176e-19)
(1.89014 -3.1704 8.72822e-23)
(2.15786 -3.17859 0)
(2.46671 -3.1848 8.95663e-20)
(2.8333 -3.19148 -3.80391e-19)
(3.2834 -3.20419 4.1476e-19)
(3.85669 -3.23463 -3.24596e-19)
(4.61659 -3.30631 1.74389e-20)
(5.66187 -3.46578 5.26283e-19)
(7.14627 -3.80334 -5.21148e-19)
(9.29983 -4.48758 7.10897e-19)
(12.4168 -5.80253 1.26631e-19)
(16.5171 -8.0081 1.12987e-19)
(-2.68483 -2.32651 -2.34422e-19)
(-2.56389 -2.35929 -1.22515e-19)
(-2.44113 -2.39041 -1.24576e-19)
(-2.31744 -2.42146 0)
(-2.1928 -2.45227 1.27753e-19)
(-2.06727 -2.48274 -1.79914e-22)
(-1.94105 -2.51282 -6.85783e-23)
(-1.81422 -2.54261 -6.55233e-20)
(-1.68671 -2.5722 1.01682e-22)
(-1.5584 -2.60169 -1.32974e-19)
(-1.42905 -2.63111 -6.70888e-20)
(-1.29858 -2.66033 0)
(-1.16706 -2.68926 0)
(-1.03424 -2.71807 0)
(-0.899788 -2.74672 -3.54599e-20)
(-0.763513 -2.77497 -3.67126e-20)
(-0.625459 -2.80257 -3.74722e-20)
(-0.485622 -2.82953 3.81893e-20)
(-0.343768 -2.85588 0)
(-0.19967 -2.88154 4.08866e-20)
(-0.0531939 -2.90657 4.26068e-20)
(0.0963559 -2.9311 -4.46169e-20)
(0.249734 -2.95508 9.22492e-20)
(0.407739 -2.9785 -4.82705e-20)
(0.571514 -3.00141 1.5165e-19)
(0.742521 -3.02364 -5.31971e-20)
(0.922472 -3.04467 1.11669e-19)
(1.11325 -3.06397 -5.8898e-20)
(1.31697 -3.08104 -6.24146e-20)
(1.53656 -3.09578 -2.63759e-19)
(1.77682 -3.10893 -1.39519e-19)