# Forces     
# CofR       : (0.000000e+00 0.000000e+00 0.000000e+00)
# Time       forces(pressure viscous porous) moment(pressure viscous porous)
5.000000e+00	((-2.209701e+02 -1.253184e+03 -1.631974e-18) (5.238403e-01 -6.425894e-02 1.647680e-20) (0.000000e+00 0.000000e+00 0.000000e+00)) ((6.265922e+01 -1.104850e+01 -3.207585e+02) (3.212947e-03 2.619202e-02 6.992392e-03) (0.000000e+00 0.000000e+00 0.000000e+00))
1.000000e+01	((-1.361983e+02 -7.724190e+02 -1.136952e-18) (4.959628e-01 -1.115742e-01 2.239294e-20) (0.000000e+00 0.000000e+00 0.000000e+00)) ((3.862095e+01 -6.809913e+00 -2.021983e+02) (5.578712e-03 2.479814e-02 -6.077166e-03) (0.000000e+00 0.000000e+00 0.000000e+00))
1.500000e+01	((-4.792665e+01 -2.718056e+02 -5.237792e-19) (4.820752e-01 -1.041733e-01 1.139781e-20) (0.000000e+00 0.000000e+00 0.000000e+00)) ((1.359028e+01 -2.396333e+00 -7.452484e+01) (5.208666e-03 2.410376e-02 -4.953171e-03) (0.000000e+00 0.000000e+00 0.000000e+00))
2.000000e+01	((-6.678687e+00 -3.787668e+01 -1.841532e-19) (4.692395e-01 -9.060202e-02 2.462804e-21) (0.000000e+00 0.000000e+00 0.000000e+00)) ((1.893834e+00 -3.339344e-01 -1.339319e+01) (4.530101e-03 2.346198e-02 -2.121059e-03) (0.000000e+00 0.000000e+00 0.000000e+00))
2.500000e+01	((4.668469e+00 2.647624e+01 -1.277960e-19) (4.558734e-01 -8.217489e-02 -4.655177e-22) (0.000000e+00 0.000000e+00 0.000000e+00)) ((-1.323812e+00 2.334234e-01 3.801693e+00) (4.108744e-03 2.279367e-02 -5.831051e-04) (0.000000e+00 0.000000e+00 0.000000e+00))
3.000000e+01	((4.866413e+00 2.759883e+01 -1.417475e-19) (4.421852e-01 -7.775256e-02 -4.202617e-22) (0.000000e+00 0.000000e+00 0.000000e+00)) ((-1.379942e+00 2.433206e-01 3.958066e+00) (3.887628e-03 2.210926e-02 -7.935753e-05) (0.000000e+00 0.000000e+00 0.000000e+00))
3.500000e+01	((3.550821e+00 2.013774e+01 -1.729332e-19) (4.281177e-01 -7.494980e-02 -1.621119e-22) (0.000000e+00 0.000000e+00 0.000000e+00)) ((-1.006887e+00 1.775411e-01 1.713695e+00) (3.747490e-03 2.140589e-02 -1.128554e-05) (0.000000e+00 0.000000e+00 0.000000e+00))
4.000000e+01	((2.914465e+00 1.652879e+01 -1.885465e-19) (4.147118e-01 -7.266367e-02 2.063051e-22) (0.000000e+00 0.000000e+00 0.000000e+00)) ((-8.264393e-01 1.457233e-01 5.812640e-01) (3.633184e-03 2.073559e-02 -4.103167e-05) (0.000000e+00 0.000000e+00 0.000000e+00))
4.500000e+01	((2.840981e+00 1.611204e+01 -1.946784e-19) (4.011161e-01 -7.035961e-02 1.678539e-22) (0.000000e+00 0.000000e+00 0.000000e+00)) ((-8.056019e-01 1.420490e-01 4.039011e-01) (3.517980e-03 2.005581e-02 -7.162677e-05) (0.000000e+00 0.000000e+00 0.000000e+00))
5.000000e+01	((2.967472e+00 1.682940e+01 -2.005202e-19) (3.881322e-01 -6.810580e-02 1.775828e-22) (0.000000e+00 0.000000e+00 0.000000e+00)) ((-8.414702e-01 1.483736e-01 5.463303e-01) (3.405290e-03 1.940661e-02 -8.354602e-05) (0.000000e+00 0.000000e+00 0.000000e+00))
5.500000e+01	((3.047267e+00 1.728195e+01 -2.038690e-19) (3.754354e-01 -6.587897e-02 1.294934e-22) (0.000000e+00 0.000000e+00 0.000000e+00)) ((-8.640973e-01 1.523633e-01 5.712911e-01) (3.293948e-03 1.877177e-02 -8.642087e-05) (0.000000e+00 0.000000e+00 0.000000e+00))
6.000000e+01	((3.109489e+00 1.763483e+01 -2.049979e-19) (3.630130e-01 -6.368954e-02 7.214431e-23) (0.000000e+00 0.000000e+00 0.000000e+00)) ((-8.817413e-01 1.554744e-01 5.699526e-01) (3.184477e-03 1.815065e-02 -8.756409e-05) (0.000000e+00 0.000000e+00 0.000000e+00))
6.500000e+01	((3.193043e+00 1.810868e+01 -2.067996e-19) (3.509695e-01 -6.157558e-02 5.291525e-23) (0.000000e+00 0.000000e+00 0.000000e+00)) ((-9.054342e-01 1.596521e-01 6.143447e-01) (3.078779e-03 1.754848e-02 -8.489223e-05) (0.000000e+00 0.000000e+00 0.000000e+00))
7.000000e+01	((3.277581e+00 1.858813e+01 -2.077309e-19) (3.392558e-01 -5.952475e-02 1.340161e-23) (0.000000e+00 0.000000e+00 0.000000e+00)) ((-9.294063e-01 1.638790e-01 6.509374e-01) (2.976238e-03 1.696279e-02 -8.068020e-05) (0.000000e+00 0.000000e+00 0.000000e+00))
7.500000e+01	((3.361684e+00 1.906510e+01 -2.080073e-19) (3.279379e-01 -5.756839e-02 4.704224e-24) (0.000000e+00 0.000000e+00 0.000000e+00)) ((-9.532549e-01 1.680842e-01 6.763085e-01) (2.878419e-03 1.639690e-02 -7.081795e-05) (0.000000e+00 0.000000e+00 0.000000e+00))
8.000000e+01	((3.449686e+00 1.956419e+01 -2.081645e-19) (3.170323e-01 -5.568168e-02 -4.486916e-23) (0.000000e+00 0.000000e+00 0.000000e+00)) ((-9.782094e-01 1.724843e-01 7.068267e-01) (2.784084e-03 1.585162e-02 -6.185779e-05) (0.000000e+00 0.000000e+00 0.000000e+00))
8.500000e+01	((3.539491e+00 2.007350e+01 -2.082788e-19) (3.066659e-01 -5.386599e-02 -5.047478e-23) (0.000000e+00 0.000000e+00 0.000000e+00)) ((-1.003675e+00 1.769745e-01 7.280169e-01) (2.693300e-03 1.533330e-02 -5.879678e-05) (0.000000e+00 0.000000e+00 0.000000e+00))
9.000000e+01	((3.630542e+00 2.058988e+01 -2.079537e-19) (2.970695e-01 -5.219865e-02 -8.192852e-23) (0.000000e+00 0.000000e+00 0.000000e+00)) ((-1.029494e+00 1.815271e-01 7.498081e-01) (2.609933e-03 1.485348e-02 -5.285784e-05) (0.000000e+00 0.000000e+00 0.000000e+00))
9.500000e+01	((3.726400e+00 2.113352e+01 -2.079967e-19) (2.884358e-01 -5.069443e-02 -1.506065e-22) (0.000000e+00 0.000000e+00 0.000000e+00)) ((-1.056676e+00 1.863200e-01 7.742310e-01) (2.534722e-03 1.442179e-02 -4.854079e-05) (0.000000e+00 0.000000e+00 0.000000e+00))
1.000000e+02	((3.821656e+00 2.167374e+01 -2.082934e-19) (2.804224e-01 -4.929962e-02 -2.256801e-22) (0.000000e+00 0.000000e+00 0.000000e+00)) ((-1.083687e+00 1.910828e-01 7.947502e-01) (2.464981e-03 1.402112e-02 -4.446569e-05) (0.000000e+00 0.000000e+00 0.000000e+00))
1.050000e+02	((3.914583e+00 2.220076e+01 -2.088552e-19) (2.728426e-01 -4.797714e-02 -2.316019e-22) (0.000000e+00 0.000000e+00 0.000000e+00)) ((-1.110038e+00 1.957292e-01 8.137515e-01) (2.398857e-03 1.364213e-02 -4.125635e-05) (0.000000e+00 0.000000e+00 0.000000e+00))
1.100000e+02	((4.003957e+00 2.270762e+01 -2.095272e-19) (2.656753e-01 -4.672514e-02 -3.925176e-22) (0.000000e+00 0.000000e+00 0.000000e+00)) ((-1.135381e+00 2.001978e-01 8.286282e-01) (2.336257e-03 1.328376e-02 -3.884743e-05) (0.000000e+00 0.000000e+00 0.000000e+00))
1.150000e+02	((4.089530e+00 2.319293e+01 -2.103606e-19) (2.589975e-01 -4.555075e-02 -4.338567e-22) (0.000000e+00 0.000000e+00 0.000000e+00)) ((-1.159647e+00 2.044765e-01 8.421540e-01) (2.277538e-03 1.294987e-02 -3.853606e-05) (0.000000e+00 0.000000e+00 0.000000e+00))
1.200000e+02	((4.170438e+00 2.365178e+01 -2.115393e-19) (2.527225e-01 -4.444484e-02 -4.311655e-22) (0.000000e+00 0.000000e+00 0.000000e+00)) ((-1.182589e+00 2.085219e-01 8.533867e-01) (2.222242e-03 1.263612e-02 -3.897553e-05) (0.000000e+00 0.000000e+00 0.000000e+00))
1.250000e+02	((4.247562e+00 2.408918e+01 -2.129282e-19) (2.467355e-01 -4.338523e-02 -2.886878e-22) (0.000000e+00 0.000000e+00 0.000000e+00)) ((-1.204459e+00 2.123781e-01 8.614704e-01) (2.169262e-03 1.233677e-02 -4.046411e-05) (0.000000e+00 0.000000e+00 0.000000e+00))
1.300000e+02	((4.318413e+00 2.449099e+01 -2.142799e-19) (2.409944e-01 -4.236873e-02 -3.345675e-22) (0.000000e+00 0.000000e+00 0.000000e+00)) ((-1.224550e+00 2.159207e-01 8.669263e-01) (2.118437e-03 1.204972e-02 -4.210948e-05) (0.000000e+00 0.000000e+00 0.000000e+00))
1.350000e+02	((4.382343e+00 2.485356e+01 -2.160298e-19) (2.355078e-01 -4.139419e-02 -2.702166e-22) (0.000000e+00 0.000000e+00 0.000000e+00)) ((-1.242678e+00 2.191171e-01 8.694153e-01) (2.069710e-03 1.177539e-02 -4.444489e-05) (0.000000e+00 0.000000e+00 0.000000e+00))
1.400000e+02	((4.442212e+00 2.519309e+01 -2.171222e-19) (2.302749e-01 -4.046326e-02 -2.101488e-22) (0.000000e+00 0.000000e+00 0.000000e+00)) ((-1.259654e+00 2.221106e-01 8.699413e-01) (2.023163e-03 1.151374e-02 -4.713018e-05) (0.000000e+00 0.000000e+00 0.000000e+00))
1.450000e+02	((4.495208e+00 2.549364e+01 -2.184624e-19) (2.252524e-01 -3.957497e-02 -8.103060e-23) (0.000000e+00 0.000000e+00 0.000000e+00)) ((-1.274682e+00 2.247604e-01 8.671591e-01) (1.978748e-03 1.126262e-02 -4.847533e-05) (0.000000e+00 0.000000e+00 0.000000e+00))
1.500000e+02	((4.542689e+00 2.576293e+01 -2.197583e-19) (2.204071e-01 -3.871802e-02 -2.024292e-24) (0.000000e+00 0.000000e+00 0.000000e+00)) ((-1.288146e+00 2.271345e-01 8.627436e-01) (1.935901e-03 1.102035e-02 -4.982291e-05) (0.000000e+00 0.000000e+00 0.000000e+00))
1.550000e+02	((4.584501e+00 2.600005e+01 -2.209363e-19) (2.157382e-01 -3.789126e-02 7.068524e-23) (0.000000e+00 0.000000e+00 0.000000e+00)) ((-1.300003e+00 2.292251e-01 8.558202e-01) (1.894563e-03 1.078691e-02 -5.133892e-05) (0.000000e+00 0.000000e+00 0.000000e+00))
1.600000e+02	((4.620837e+00 2.620612e+01 -2.219638e-19) (2.112333e-01 -3.709444e-02 8.642399e-23) (0.000000e+00 0.000000e+00 0.000000e+00)) ((-1.310306e+00 2.310418e-01 8.466857e-01) (1.854722e-03 1.056167e-02 -5.266511e-05) (0.000000e+00 0.000000e+00 0.000000e+00))
1.650000e+02	((4.652297e+00 2.638454e+01 -2.227919e-19) (2.068942e-01 -3.632625e-02 1.275560e-22) (0.000000e+00 0.000000e+00 0.000000e+00)) ((-1.319227e+00 2.326148e-01 8.359298e-01) (1.816313e-03 1.034471e-02 -5.407564e-05) (0.000000e+00 0.000000e+00 0.000000e+00))
1.700000e+02	((4.678953e+00 2.653571e+01 -2.233800e-19) (2.027092e-01 -3.558637e-02 1.666868e-22) (0.000000e+00 0.000000e+00 0.000000e+00)) ((-1.326786e+00 2.339476e-01 8.241854e-01) (1.779318e-03 1.013546e-02 -5.523281e-05) (0.000000e+00 0.000000e+00 0.000000e+00))
1.750000e+02	((4.701901e+00 2.666586e+01 -2.238057e-19) (1.986587e-01 -3.486988e-02 2.628515e-22) (0.000000e+00 0.000000e+00 0.000000e+00)) ((-1.333293e+00 2.350950e-01 8.110519e-01) (1.743494e-03 9.932933e-03 -5.640795e-05) (0.000000e+00 0.000000e+00 0.000000e+00))
1.800000e+02	((4.720301e+00 2.677021e+01 -2.239271e-19) (1.947226e-01 -3.417520e-02 3.245982e-22) (0.000000e+00 0.000000e+00 0.000000e+00)) ((-1.338511e+00 2.360151e-01 7.981888e-01) (1.708760e-03 9.736132e-03 -5.717482e-05) (0.000000e+00 0.000000e+00 0.000000e+00))
1.850000e+02	((4.736271e+00 2.686078e+01 -2.240030e-19) (1.909350e-01 -3.350603e-02 4.020681e-22) (0.000000e+00 0.000000e+00 0.000000e+00)) ((-1.343039e+00 2.368136e-01 7.843315e-01) (1.675301e-03 9.546751e-03 -5.805452e-05) (0.000000e+00 0.000000e+00 0.000000e+00))
1.900000e+02	((4.748585e+00 2.693061e+01 -2.237868e-19) (1.872416e-01 -3.285534e-02 4.284099e-22) (0.000000e+00 0.000000e+00 0.000000e+00)) ((-1.346531e+00 2.374292e-01 7.715471e-01) (1.642767e-03 9.362079e-03 -5.842792e-05) (0.000000e+00 0.000000e+00 0.000000e+00))
1.950000e+02	((4.759345e+00 2.699163e+01 -2.234966e-19) (1.836769e-01 -3.222708e-02 5.261978e-22) (0.000000e+00 0.000000e+00 0.000000e+00)) ((-1.349582e+00 2.379672e-01 7.583605e-01) (1.611354e-03 9.183843e-03 -5.882630e-05) (0.000000e+00 0.000000e+00 0.000000e+00))
2.000000e+02	((4.766661e+00 2.703313e+01 -2.229673e-19) (1.802051e-01 -3.161610e-02 6.978771e-22) (0.000000e+00 0.000000e+00 0.000000e+00)) ((-1.351656e+00 2.383331e-01 7.470790e-01) (1.580805e-03 9.010255e-03 -5.893355e-05) (0.000000e+00 0.000000e+00 0.000000e+00))
2.050000e+02	((4.773354e+00 2.707108e+01 -2.224505e-19) (1.768526e-01 -3.102384e-02 9.267445e-22) (0.000000e+00 0.000000e+00 0.000000e+00)) ((-1.353554e+00 2.386677e-01 7.356534e-01) (1.551192e-03 8.842631e-03 -5.956880e-05) (0.000000e+00 0.000000e+00 0.000000e+00))
2.100000e+02	((4.777693e+00 2.709569e+01 -2.217846e-19) (1.735784e-01 -3.044651e-02 1.327110e-21) (0.000000e+00 0.000000e+00 0.000000e+00)) ((-1.354784e+00 2.388846e-01 7.259215e-01) (1.522325e-03 8.678920e-03 -5.984169e-05) (0.000000e+00 0.000000e+00 0.000000e+00))
2.150000e+02	((4.781728e+00 2.711857e+01 -2.212006e-19) (1.703978e-01 -2.988624e-02 1.789692e-21) (0.000000e+00 0.000000e+00 0.000000e+00)) ((-1.355929e+00 2.390864e-01 7.161216e-01) (1.494312e-03 8.519889e-03 -5.995283e-05) (0.000000e+00 0.000000e+00 0.000000e+00))
2.200000e+02	((4.783784e+00 2.713023e+01 -2.205272e-19) (1.672978e-01 -2.934135e-02 2.288953e-21) (0.000000e+00 0.000000e+00 0.000000e+00)) ((-1.356512e+00 2.391892e-01 7.079756e-01) (1.467068e-03 8.364892e-03 -5.969925e-05) (0.000000e+00 0.000000e+00 0.000000e+00))
2.250000e+02	((4.785647e+00 2.714080e+01 -2.199935e-19) (1.642869e-01 -2.881168e-02 2.836574e-21) (0.000000e+00 0.000000e+00 0.000000e+00)) ((-1.357040e+00 2.392823e-01 6.997470e-01) (1.440584e-03 8.214346e-03 -5.953132e-05) (0.000000e+00 0.000000e+00 0.000000e+00))
2.300000e+02	((4.786101e+00 2.714337e+01 -2.194749e-19) (1.613453e-01 -2.829470e-02 3.435851e-21) (0.000000e+00 0.000000e+00 0.000000e+00)) ((-1.357168e+00 2.393050e-01 6.925140e-01) (1.414735e-03 8.067263e-03 -5.917383e-05) (0.000000e+00 0.000000e+00 0.000000e+00))
2.350000e+02	((4.786301e+00 2.714451e+01 -2.191411e-19) (1.584800e-01 -2.779122e-02 4.096460e-21) (0.000000e+00 0.000000e+00 0.000000e+00)) ((-1.357225e+00 2.393151e-01 6.850345e-01) (1.389561e-03 7.924002e-03 -5.878157e-05) (0.000000e+00 0.000000e+00 0.000000e+00))
2.400000e+02	((4.785355e+00 2.713914e+01 -2.189041e-19) (1.556881e-01 -2.730122e-02 4.818349e-21) (0.000000e+00 0.000000e+00 0.000000e+00)) ((-1.356957e+00 2.392678e-01 6.779869e-01) (1.365061e-03 7.784405e-03 -5.819153e-05) (0.000000e+00 0.000000e+00 0.000000e+00))
2.450000e+02	((4.783988e+00 2.713138e+01 -2.188713e-19) (1.529651e-01 -2.682273e-02 5.582869e-21) (0.000000e+00 0.000000e+00 0.000000e+00)) ((-1.356569e+00 2.391994e-01 6.705030e-01) (1.341137e-03 7.648254e-03 -5.772402e-05) (0.000000e+00 0.000000e+00 0.000000e+00))
2.500000e+02	((4.781731e+00 2.711859e+01 -2.191706e-19) (1.503087e-01 -2.635618e-02 6.381974e-21) (0.000000e+00 0.000000e+00 0.000000e+00)) ((-1.355929e+00 2.390866e-01 6.629480e-01) (1.317809e-03 7.515436e-03 -5.717360e-05) (0.000000e+00 0.000000e+00 0.000000e+00))
2.550000e+02	((4.778975e+00 2.710295e+01 -2.193784e-19) (1.477160e-01 -2.590090e-02 7.174067e-21) (0.000000e+00 0.000000e+00 0.000000e+00)) ((-1.355148e+00 2.389488e-01 6.544018e-01) (1.295045e-03 7.385802e-03 -5.658170e-05) (0.000000e+00 0.000000e+00 0.000000e+00))
2.600000e+02	((4.775514e+00 2.708332e+01 -2.199968e-19) (1.451883e-01 -2.545669e-02 7.773264e-21) (0.000000e+00 0.000000e+00 0.000000e+00)) ((-1.354166e+00 2.387757e-01 6.453464e-01) (1.272834e-03 7.259415e-03 -5.604345e-05) (0.000000e+00 0.000000e+00 0.000000e+00))
2.650000e+02	((4.771270e+00 2.705926e+01 -2.207321e-19) (1.427201e-01 -2.502306e-02 8.120138e-21) (0.000000e+00 0.000000e+00 0.000000e+00)) ((-1.352963e+00 2.385635e-01 6.362119e-01) (1.251153e-03 7.136004e-03 -5.547132e-05) (0.000000e+00 0.000000e+00 0.000000e+00))
2.700000e+02	((4.766359e+00 2.703141e+01 -2.217639e-19) (1.403142e-01 -2.460022e-02 8.331317e-21) (0.000000e+00 0.000000e+00 0.000000e+00)) ((-1.351570e+00 2.383180e-01 6.250138e-01) (1.230011e-03 7.015711e-03 -5.491242e-05) (0.000000e+00 0.000000e+00 0.000000e+00))
2.750000e+02	((4.760724e+00 2.699945e+01 -2.227983e-19) (1.379666e-01 -2.418740e-02 8.561084e-21) (0.000000e+00 0.000000e+00 0.000000e+00)) ((-1.349972e+00 2.380362e-01 6.136588e-01) (1.209370e-03 6.898331e-03 -5.439280e-05) (0.000000e+00 0.000000e+00 0.000000e+00))
2.800000e+02	((4.754677e+00 2.696515e+01 -2.239079e-19) (1.356745e-01 -2.378407e-02 8.745247e-21) (0.000000e+00 0.000000e+00 0.000000e+00)) ((-1.348258e+00 2.377339e-01 6.011538e-01) (1.189203e-03 6.783726e-03 -5.391855e-05) (0.000000e+00 0.000000e+00 0.000000e+00))
2.850000e+02	((4.747970e+00 2.692711e+01 -2.251132e-19) (1.334370e-01 -2.339024e-02 8.816850e-21) (0.000000e+00 0.000000e+00 0.000000e+00)) ((-1.346356e+00 2.373985e-01 5.876611e-01) (1.169512e-03 6.671852e-03 -5.346336e-05) (0.000000e+00 0.000000e+00 0.000000e+00))
2.900000e+02	((4.740650e+00 2.688560e+01 -2.263871e-19) (1.312516e-01 -2.300535e-02 8.844273e-21) (0.000000e+00 0.000000e+00 0.000000e+00)) ((-1.344280e+00 2.370325e-01 5.731725e-01) (1.150267e-03 6.562581e-03 -5.306062e-05) (0.000000e+00 0.000000e+00 0.000000e+00))
2.950000e+02	((4.732725e+00 2.684065e+01 -2.275171e-19) (1.291211e-01 -2.263011e-02 8.937043e-21) (0.000000e+00 0.000000e+00 0.000000e+00)) ((-1.342033e+00 2.366362e-01 5.571997e-01) (1.131505e-03 6.456057e-03 -5.264886e-05) (0.000000e+00 0.000000e+00 0.000000e+00))
3.000000e+02	((4.724604e+00 2.679460e+01 -2.287487e-19) (1.270411e-01 -2.226346e-02 9.058497e-21) (0.000000e+00 0.000000e+00 0.000000e+00)) ((-1.339730e+00 2.362302e-01 5.404275e-01) (1.113173e-03 6.352057e-03 -5.231783e-05) (0.000000e+00 0.000000e+00 0.000000e+00))
3.050000e+02	((4.716020e+00 2.674592e+01 -2.299637e-19) (1.250097e-01 -2.190518e-02 9.143644e-21) (0.000000e+00 0.000000e+00 0.000000e+00)) ((-1.337296e+00 2.358010e-01 5.235668e-01) (1.095259e-03 6.250483e-03 -5.201262e-05) (0.000000e+00 0.000000e+00 0.000000e+00))
3.100000e+02	((4.706666e+00 2.669287e+01 -2.311452e-19) (1.230275e-01 -2.155543e-02 9.205923e-21) (0.000000e+00 0.000000e+00 0.000000e+00)) ((-1.334643e+00 2.353333e-01 5.063368e-01) (1.077771e-03 6.151374e-03 -5.173638e-05) (0.000000e+00 0.000000e+00 0.000000e+00))
3.150000e+02	((4.696991e+00 2.663799e+01 -2.320622e-19) (1.210928e-01 -2.121403e-02 9.259486e-21) (0.000000e+00 0.000000e+00 0.000000e+00)) ((-1.331900e+00 2.348495e-01 4.862486e-01) (1.060702e-03 6.054641e-03 -5.147479e-05) (0.000000e+00 0.000000e+00 0.000000e+00))
3.200000e+02	((4.687490e+00 2.658411e+01 -2.327906e-19) (1.192072e-01 -2.088117e-02 9.220222e-21) (0.000000e+00 0.000000e+00 0.000000e+00)) ((-1.329206e+00 2.343745e-01 4.643781e-01) (1.044059e-03 5.960361e-03 -5.124824e-05) (0.000000e+00 0.000000e+00 0.000000e+00))
3.250000e+02	((4.677913e+00 2.652980e+01 -2.334551e-19) (1.173683e-01 -2.055635e-02 9.027731e-21) (0.000000e+00 0.000000e+00 0.000000e+00)) ((-1.326490e+00 2.338956e-01 4.453284e-01) (1.027817e-03 5.868413e-03 -5.102183e-05) (0.000000e+00 0.000000e+00 0.000000e+00))
3.300000e+02	((4.667441e+00 2.647041e+01 -2.340986e-19) (1.155739e-01 -2.023930e-02 8.859341e-21) (0.000000e+00 0.000000e+00 0.000000e+00)) ((-1.323520e+00 2.333720e-01 4.250329e-01) (1.011965e-03 5.778694e-03 -5.081494e-05) (0.000000e+00 0.000000e+00 0.000000e+00))
3.350000e+02	((4.657191e+00 2.641228e+01 -2.345115e-19) (1.138250e-01 -1.993022e-02 8.841382e-21) (0.000000e+00 0.000000e+00 0.000000e+00)) ((-1.320614e+00 2.328595e-01 4.039561e-01) (9.965108e-04 5.691251e-03 -5.068607e-05) (0.000000e+00 0.000000e+00 0.000000e+00))
3.400000e+02	((4.646815e+00 2.635343e+01 -2.347359e-19) (1.121199e-01 -1.962888e-02 8.738836e-21) (0.000000e+00 0.000000e+00 0.000000e+00)) ((-1.317672e+00 2.323408e-01 3.810587e-01) (9.814438e-04 5.605995e-03 -5.055847e-05) (0.000000e+00 0.000000e+00 0.000000e+00))
3.450000e+02	((4.636942e+00 2.629744e+01 -2.343635e-19) (1.104595e-01 -1.933537e-02 8.372351e-21) (0.000000e+00 0.000000e+00 0.000000e+00)) ((-1.314872e+00 2.318471e-01 3.602844e-01) (9.667684e-04 5.522976e-03 -5.045103e-05) (0.000000e+00 0.000000e+00 0.000000e+00))
3.500000e+02	((4.625924e+00 2.623495e+01 -2.340760e-19) (1.088429e-01 -1.904963e-02 8.039339e-21) (0.000000e+00 0.000000e+00 0.000000e+00)) ((-1.311748e+00 2.312962e-01 3.360508e-01) (9.524813e-04 5.442143e-03 -5.031796e-05) (0.000000e+00 0.000000e+00 0.000000e+00))
3.550000e+02	((4.615910e+00 2.617816e+01 -2.334972e-19) (1.072682e-01 -1.877134e-02 7.777509e-21) (0.000000e+00 0.000000e+00 0.000000e+00)) ((-1.308908e+00 2.307955e-01 3.141474e-01) (9.385671e-04 5.363411e-03 -5.022673e-05) (0.000000e+00 0.000000e+00 0.000000e+00))
3.600000e+02	((4.605943e+00 2.612163e+01 -2.329112e-19) (1.057351e-01 -1.850040e-02 7.544942e-21) (0.000000e+00 0.000000e+00 0.000000e+00)) ((-1.306082e+00 2.302971e-01 2.917925e-01) (9.250202e-04 5.286755e-03 -5.012981e-05) (0.000000e+00 0.000000e+00 0.000000e+00))
3.650000e+02	((4.595800e+00 2.606411e+01 -2.316620e-19) (1.042432e-01 -1.823682e-02 7.314418e-21) (0.000000e+00 0.000000e+00 0.000000e+00)) ((-1.303205e+00 2.297900e-01 2.690691e-01) (9.118409e-04 5.212161e-03 -5.007937e-05) (0.000000e+00 0.000000e+00 0.000000e+00))
3.700000e+02	((4.586051e+00 2.600882e+01 -2.306144e-19) (1.027912e-01 -1.798025e-02 7.133300e-21) (0.000000e+00 0.000000e+00 0.000000e+00)) ((-1.300441e+00 2.293026e-01 2.467608e-01) (8.990123e-04 5.139559e-03 -5.001609e-05) (0.000000e+00 0.000000e+00 0.000000e+00))
3.750000e+02	((4.576596e+00 2.595520e+01 -2.288500e-19) (1.013783e-01 -1.773058e-02 6.953778e-21) (0.000000e+00 0.000000e+00 0.000000e+00)) ((-1.297760e+00 2.288298e-01 2.247413e-01) (8.865290e-04 5.068916e-03 -4.995861e-05) (0.000000e+00 0.000000e+00 0.000000e+00))
3.800000e+02	((4.567383e+00 2.590295e+01 -2.273477e-19) (1.000044e-01 -1.748781e-02 6.815185e-21) (0.000000e+00 0.000000e+00 0.000000e+00)) ((-1.295148e+00 2.283692e-01 2.029849e-01) (8.743907e-04 5.000221e-03 -4.991393e-05) (0.000000e+00 0.000000e+00 0.000000e+00))
3.850000e+02	((4.558538e+00 2.585278e+01 -2.251315e-19) (9.866774e-02 -1.725165e-02 6.689532e-21) (0.000000e+00 0.000000e+00 0.000000e+00)) ((-1.292639e+00 2.279269e-01 1.816961e-01) (8.625825e-04 4.933387e-03 -4.988254e-05) (0.000000e+00 0.000000e+00 0.000000e+00))
3.900000e+02	((4.550110e+00 2.580499e+01 -2.231773e-19) (9.736847e-02 -1.702212e-02 6.612613e-21) (0.000000e+00 0.000000e+00 0.000000e+00)) ((-1.290249e+00 2.275055e-01 1.609631e-01) (8.511060e-04 4.868424e-03 -4.986900e-05) (0.000000e+00 0.000000e+00 0.000000e+00))
3.950000e+02	((4.542110e+00 2.575962e+01 -2.205143e-19) (9.610603e-02 -1.679913e-02 6.555550e-21) (0.000000e+00 0.000000e+00 0.000000e+00)) ((-1.287981e+00 2.271055e-01 1.408623e-01) (8.399564e-04 4.805301e-03 -4.987553e-05) (0.000000e+00 0.000000e+00 0.000000e+00))
4.000000e+02	((4.534580e+00 2.571691e+01 -2.181277e-19) (9.487965e-02 -1.658255e-02 6.556603e-21) (0.000000e+00 0.000000e+00 0.000000e+00)) ((-1.285846e+00 2.267290e-01 1.214329e-01) (8.291273e-04 4.743982e-03 -4.990196e-05) (0.000000e+00 0.000000e+00 0.000000e+00))
4.050000e+02	((4.527574e+00 2.567718e+01 -2.150502e-19) (9.368912e-02 -1.637234e-02 6.529703e-21) (0.000000e+00 0.000000e+00 0.000000e+00)) ((-1.283859e+00 2.263787e-01 1.028226e-01) (8.186172e-04 4.684456e-03 -4.994622e-05) (0.000000e+00 0.000000e+00 0.000000e+00))
4.100000e+02	((4.521100e+00 2.564047e+01 -2.122546e-19) (9.253454e-02 -1.616853e-02 6.439668e-21) (0.000000e+00 0.000000e+00 0.000000e+00)) ((-1.282023e+00 2.260550e-01 8.502436e-02) (8.084263e-04 4.626727e-03 -5.001234e-05) (0.000000e+00 0.000000e+00 0.000000e+00))
4.150000e+02	((4.515206e+00 2.560703e+01 -2.087953e-19) (9.141461e-02 -1.597088e-02 6.212299e-21) (0.000000e+00 0.000000e+00 0.000000e+00)) ((-1.280352e+00 2.257603e-01 6.818471e-02) (7.985438e-04 4.570731e-03 -5.009858e-05) (0.000000e+00 0.000000e+00 0.000000e+00))
4.200000e+02	((4.509907e+00 2.557699e+01 -2.056249e-19) (9.032962e-02 -1.577943e-02 5.792076e-21) (0.000000e+00 0.000000e+00 0.000000e+00)) ((-1.278849e+00 2.254954e-01 5.227485e-02) (7.889713e-04 4.516481e-03 -5.020717e-05) (0.000000e+00 0.000000e+00 0.000000e+00))
4.250000e+02	((4.505232e+00 2.555047e+01 -2.018250e-19) (8.927921e-02 -1.559413e-02 5.239182e-21) (0.000000e+00 0.000000e+00 0.000000e+00)) ((-1.277524e+00 2.252616e-01 3.742734e-02) (7.797065e-04 4.463960e-03 -5.033311e-05) (0.000000e+00 0.000000e+00 0.000000e+00))
4.300000e+02	((4.501199e+00 2.552760e+01 -1.983140e-19) (8.826276e-02 -1.541486e-02 4.614458e-21) (0.000000e+00 0.000000e+00 0.000000e+00)) ((-1.276380e+00 2.250599e-01 2.359635e-02) (7.707430e-04 4.413138e-03 -5.048058e-05) (0.000000e+00 0.000000e+00 0.000000e+00))
4.350000e+02	((4.497827e+00 2.550848e+01 -1.942138e-19) (8.727937e-02 -1.524147e-02 3.828286e-21) (0.000000e+00 0.000000e+00 0.000000e+00)) ((-1.275424e+00 2.248914e-01 1.091454e-02) (7.620736e-04 4.363968e-03 -5.064550e-05) (0.000000e+00 0.000000e+00 0.000000e+00))
4.400000e+02	((4.495140e+00 2.549323e+01 -1.904049e-19) (8.632932e-02 -1.507400e-02 2.932394e-21) (0.000000e+00 0.000000e+00 0.000000e+00)) ((-1.274662e+00 2.247570e-01 -6.731372e-04) (7.537002e-04 4.316466e-03 -5.083068e-05) (0.000000e+00 0.000000e+00 0.000000e+00))
4.450000e+02	((4.493157e+00 2.548199e+01 -1.860609e-19) (8.541206e-02 -1.491239e-02 2.339712e-21) (0.000000e+00 0.000000e+00 0.000000e+00)) ((-1.274100e+00 2.246578e-01 -1.107366e-02) (7.456196e-04 4.270603e-03 -5.102646e-05) (0.000000e+00 0.000000e+00 0.000000e+00))
4.500000e+02	((4.491857e+00 2.547462e+01 -1.820016e-19) (8.452642e-02 -1.475638e-02 1.947221e-21) (0.000000e+00 0.000000e+00 0.000000e+00)) ((-1.273731e+00 2.245928e-01 -2.029960e-02) (7.378191e-04 4.226321e-03 -5.124369e-05) (0.000000e+00 0.000000e+00 0.000000e+00))
4.550000e+02	((4.491250e+00 2.547118e+01 -1.774504e-19) (8.367160e-02 -1.460585e-02 1.769409e-21) (0.000000e+00 0.000000e+00 0.000000e+00)) ((-1.273559e+00 2.245625e-01 -2.826390e-02) (7.302923e-04 4.183580e-03 -5.147572e-05) (0.000000e+00 0.000000e+00 0.000000e+00))
4.600000e+02	((4.491360e+00 2.547180e+01 -1.731831e-19) (8.284708e-02 -1.446068e-02 1.805253e-21) (0.000000e+00 0.000000e+00 0.000000e+00)) ((-1.273590e+00 2.245680e-01 -3.502768e-02) (7.230340e-04 4.142354e-03 -5.172322e-05) (0.000000e+00 0.000000e+00 0.000000e+00))
4.650000e+02	((4.492174e+00 2.547642e+01 -1.684970e-19) (8.205233e-02 -1.432080e-02 1.692194e-21) (0.000000e+00 0.000000e+00 0.000000e+00)) ((-1.273821e+00 2.246087e-01 -4.051923e-02) (7.160400e-04 4.102616e-03 -5.198084e-05) (0.000000e+00 0.000000e+00 0.000000e+00))
4.700000e+02	((4.493702e+00 2.548508e+01 -1.640813e-19) (8.128658e-02 -1.418606e-02 1.327022e-21) (0.000000e+00 0.000000e+00 0.000000e+00)) ((-1.274254e+00 2.246851e-01 -4.476318e-02) (7.093029e-04 4.064329e-03 -5.225076e-05) (0.000000e+00 0.000000e+00 0.000000e+00))
4.750000e+02	((4.495922e+00 2.549767e+01 -1.593281e-19) (8.054838e-02 -1.405620e-02 9.982591e-22) (0.000000e+00 0.000000e+00 0.000000e+00)) ((-1.274883e+00 2.247961e-01 -4.773610e-02) (7.028098e-04 4.027419e-03 -5.253268e-05) (0.000000e+00 0.000000e+00 0.000000e+00))
4.800000e+02	((4.498854e+00 2.551430e+01 -1.546998e-19) (7.983670e-02 -1.393103e-02 8.832525e-22) (0.000000e+00 0.000000e+00 0.000000e+00)) ((-1.275715e+00 2.249427e-01 -4.939762e-02) (6.965517e-04 3.991835e-03 -5.282152e-05) (0.000000e+00 0.000000e+00 0.000000e+00))
4.850000e+02	((4.502431e+00 2.553458e+01 -1.498960e-19) (7.915087e-02 -1.381045e-02 8.987280e-22) (0.000000e+00 0.000000e+00 0.000000e+00)) ((-1.276729e+00 2.251215e-01 -4.979419e-02) (6.905223e-04 3.957544e-03 -5.311869e-05) (0.000000e+00 0.000000e+00 0.000000e+00))
4.900000e+02	((4.506682e+00 2.555869e+01 -1.450844e-19) (7.848961e-02 -1.369421e-02 8.217870e-22) (0.000000e+00 0.000000e+00 0.000000e+00)) ((-1.277935e+00 2.253341e-01 -4.897003e-02) (6.847103e-04 3.924481e-03 -5.342264e-05) (0.000000e+00 0.000000e+00 0.000000e+00))
4.950000e+02	((4.511715e+00 2.558724e+01 -1.403945e-19) (7.785293e-02 -1.358230e-02 7.846961e-22) (0.000000e+00 0.000000e+00 0.000000e+00)) ((-1.279362e+00 2.255858e-01 -4.686354e-02) (6.791152e-04 3.892646e-03 -5.373405e-05) (0.000000e+00 0.000000e+00 0.000000e+00))
5.000000e+02	((4.517288e+00 2.561884e+01 -1.358831e-19) (7.723764e-02 -1.347420e-02 6.991541e-22) (0.000000e+00 0.000000e+00 0.000000e+00)) ((-1.280942e+00 2.258644e-01 -4.344859e-02) (6.737102e-04 3.861882e-03 -5.404372e-05) (0.000000e+00 0.000000e+00 0.000000e+00))
5.050000e+02	((4.523706e+00 2.565524e+01 -1.310542e-19) (7.664618e-02 -1.337028e-02 7.649705e-22) (0.000000e+00 0.000000e+00 0.000000e+00)) ((-1.282762e+00 2.261853e-01 -3.902192e-02) (6.685141e-04 3.832309e-03 -5.436964e-05) (0.000000e+00 0.000000e+00 0.000000e+00))
5.100000e+02	((4.530211e+00 2.569213e+01 -1.262828e-19) (7.607134e-02 -1.326936e-02 6.447160e-22) (0.000000e+00 0.000000e+00 0.000000e+00)) ((-1.284607e+00 2.265106e-01 -3.311344e-02) (6.634679e-04 3.803567e-03 -5.467157e-05) (0.000000e+00 0.000000e+00 0.000000e+00))
5.150000e+02	((4.538124e+00 2.573701e+01 -1.217660e-19) (7.552280e-02 -1.317295e-02 6.327599e-22) (0.000000e+00 0.000000e+00 0.000000e+00)) ((-1.286850e+00 2.269062e-01 -2.644578e-02) (6.586475e-04 3.776140e-03 -5.502155e-05) (0.000000e+00 0.000000e+00 0.000000e+00))
5.200000e+02	((4.545627e+00 2.577956e+01 -1.171426e-19) (7.498480e-02 -1.307858e-02 5.783676e-22) (0.000000e+00 0.000000e+00 0.000000e+00)) ((-1.288978e+00 2.272813e-01 -1.823656e-02) (6.539291e-04 3.749240e-03 -5.530990e-05) (0.000000e+00 0.000000e+00 0.000000e+00))
5.250000e+02	((4.554850e+00 2.583187e+01 -1.127201e-19) (7.447313e-02 -1.298866e-02 2.681889e-22) (0.000000e+00 0.000000e+00 0.000000e+00)) ((-1.291593e+00 2.277425e-01 -9.301552e-03) (6.494330e-04 3.723656e-03 -5.566579e-05) (0.000000e+00 0.000000e+00 0.000000e+00))
5.300000e+02	((4.563448e+00 2.588063e+01 -1.084030e-19) (7.396938e-02 -1.290030e-02 1.108076e-22) (0.000000e+00 0.000000e+00 0.000000e+00)) ((-1.294031e+00 2.281724e-01 1.218586e-03) (6.450151e-04 3.698469e-03 -5.595548e-05) (0.000000e+00 0.000000e+00 0.000000e+00))
5.350000e+02	((4.573411e+00 2.593713e+01 -1.040382e-19) (7.348947e-02 -1.281595e-02 -1.489116e-22) (0.000000e+00 0.000000e+00 0.000000e+00)) ((-1.296857e+00 2.286705e-01 1.204786e-02) (6.407975e-04 3.674474e-03 -5.631507e-05) (0.000000e+00 0.000000e+00 0.000000e+00))
5.400000e+02	((4.583084e+00 2.599199e+01 -9.973345e-20) (7.301481e-02 -1.273271e-02 -4.518430e-22) (0.000000e+00 0.000000e+00 0.000000e+00)) ((-1.299600e+00 2.291542e-01 2.462174e-02) (6.366355e-04 3.650741e-03 -5.660133e-05) (0.000000e+00 0.000000e+00 0.000000e+00))
5.450000e+02	((4.594031e+00 2.605408e+01 -9.550013e-20) (7.256207e-02 -1.265314e-02 -9.023069e-22) (0.000000e+00 0.000000e+00 0.000000e+00)) ((-1.302704e+00 2.297016e-01 3.749775e-02) (6.326572e-04 3.628103e-03 -5.695114e-05) (0.000000e+00 0.000000e+00 0.000000e+00))
5.500000e+02	((4.604567e+00 2.611383e+01 -9.135505e-20) (7.211189e-02 -1.257420e-02 -1.134042e-21) (0.000000e+00 0.000000e+00 0.000000e+00)) ((-1.305691e+00 2.302284e-01 5.204693e-02) (6.287101e-04 3.605595e-03 -5.722760e-05) (0.000000e+00 0.000000e+00 0.000000e+00))
5.550000e+02	((4.616304e+00 2.618039e+01 -8.713549e-20) (7.168110e-02 -1.249849e-02 -1.177236e-21) (0.000000e+00 0.000000e+00 0.000000e+00)) ((-1.309020e+00 2.308152e-01 6.682455e-02) (6.249245e-04 3.584055e-03 -5.756488e-05) (0.000000e+00 0.000000e+00 0.000000e+00))