/*--------------------------------*- C++ -*----------------------------------*\
| =========                 |                                                 |
| \\      /  F ield         | OpenFOAM: The Open Source CFD Toolbox           |
|  \\    /   O peration     | Version:  2.3.0                                 |
|   \\  /    A nd           | Web:      www.OpenFOAM.org                      |
|    \\/     M anipulation  |                                                 |
\*---------------------------------------------------------------------------*/
FoamFile
{
    version     2.0;
    format      ascii;
    class       volVectorField;
    location    "1000";
    object      U;
}
// * * * * * * * * * * * * * * * * * * * * * * * * * * * * * * * * * * * * * //

dimensions      [0 1 -1 0 0 0 0];

internalField   nonuniform List<vector> 
38323
(
(22.2766 5.48201 4.16773e-21)
(22.2786 5.58305 -3.64018e-21)
(22.2828 5.67854 -5.44957e-21)
(22.2869 5.77589 5.83497e-22)
(22.2911 5.87474 -4.95151e-21)
(22.2952 5.9753 0)
(22.2993 6.07775 -9.20945e-21)
(22.3034 6.1823 9.10569e-21)
(22.3075 6.28916 8.00756e-21)
(22.3118 6.39855 -1.39356e-20)
(22.3164 6.51069 1.85362e-20)
(22.3212 6.62581 0)
(22.3262 6.74424 3.38465e-21)
(22.3316 6.86624 -4.48955e-20)
(22.3372 6.99224 -4.05239e-21)
(22.3431 7.12265 4.59828e-20)
(22.3491 7.25799 0)
(22.3554 7.39884 -5.62707e-21)
(22.3617 7.54599 0)
(22.368 7.70024 0)
(22.3744 7.86259 7.39829e-21)
(22.3806 8.03424 8.24421e-20)
(22.3866 8.21656 -8.72869e-20)
(22.3924 8.41105 4.82737e-21)
(22.3978 8.61954 1.04505e-19)
(22.4026 8.84415 -1.17889e-19)
(22.4065 9.0872 -1.16609e-19)
(22.4092 9.35111 1.26099e-19)
(22.41 9.63868 0)
(22.4078 9.95308 0)
(22.4007 10.2974 8.70045e-21)
(22.3862 10.6748 0)
(22.3594 11.0886 -1.00487e-20)
(22.3135 11.541 0)
(22.2374 12.0336 -3.98972e-20)
(22.114 12.5668 8.08841e-20)
(21.9177 13.1367 5.93418e-21)
(21.6078 13.7365 5.82929e-21)
(21.1243 14.3452 -3.76817e-20)
(20.3796 14.9314 3.98453e-20)
(19.2451 15.4932 3.12845e-21)
(17.5286 16.0592 1.20641e-19)
(15.0301 16.2402 -1.62586e-19)
(22.1723 5.49125 0)
(22.1707 5.58147 8.32145e-22)
(22.1694 5.66935 -6.70804e-22)
(22.1675 5.75871 0)
(22.1652 5.84941 -1.25129e-22)
(22.1623 5.9416 8.51328e-22)
(22.1588 6.03542 -1.31588e-21)
(22.1547 6.13109 -3.87279e-21)
(22.15 6.22876 3.82754e-21)
(22.1447 6.32864 -9.33348e-22)
(22.1388 6.43089 5.30553e-21)
(22.1324 6.53574 9.82823e-21)
(22.1253 6.64335 -1.09627e-20)
(22.1174 6.75397 -2.30244e-21)
(22.1087 6.86781 0)
(22.0991 6.98514 2.90286e-20)
(22.0882 7.10622 3.18567e-21)
(22.0759 7.23133 -2.67994e-20)
(22.0619 7.36084 0)
(22.0457 7.49516 0)
(22.0269 7.63471 -7.38705e-21)
(22.005 7.78007 -5.29391e-20)
(21.9793 7.93182 4.94537e-20)
(21.9489 8.09065 5.924e-20)
(21.9129 8.25746 -6.28855e-20)
(21.8702 8.43322 -3.85585e-20)
(21.8193 8.61909 4.57954e-20)
(21.7586 8.81621 4.59944e-20)
(21.686 9.02614 -4.40055e-20)
(21.5992 9.25037 3.62088e-21)
(21.495 9.49042 -8.47995e-21)
(21.37 9.74813 3.82705e-21)
(21.2197 10.0246 9.68114e-21)
(21.039 10.3207 0)
(20.8217 10.6364 3.10453e-20)
(20.5608 10.97 -3.22614e-20)
(20.2485 11.3171 -5.49519e-21)
(19.8765 11.6686 -7.47202e-21)
(19.4365 12.0088 3.22212e-21)
(18.924 12.313 -1.28757e-21)
(18.3403 12.545 -2.6171e-21)
(17.6912 12.6407 0)
(16.9865 12.4922 2.49815e-19)
(22.0822 5.49473 -4.45613e-21)
(22.0761 5.57586 -9.65905e-22)
(22.0705 5.65642 4.51553e-22)
(22.0644 5.73844 -1.23917e-21)
(22.0577 5.82172 -3.40499e-21)
(22.0502 5.90632 3.79427e-21)
(22.0418 5.99239 -9.76851e-22)
(22.0325 6.08012 -4.8367e-21)
(22.0223 6.16965 0)
(22.0111 6.26115 9.36435e-22)
(21.9989 6.35483 0)
(21.9857 6.45082 -9.79593e-22)
(21.9714 6.54934 -1.88885e-21)
(21.9559 6.65063 -3.52779e-21)
(21.9391 6.75486 2.02138e-21)
(21.9209 6.86229 -2.00612e-22)
(21.9011 6.97316 -6.19492e-23)
(21.8793 7.08774 0)
(21.8555 7.20629 -1.92806e-22)
(21.8291 7.32915 -3.06062e-22)
(21.7998 7.45662 0)
(21.7671 7.58909 -4.91805e-22)
(21.7306 7.72687 -5.55969e-22)
(21.6892 7.87031 0)
(21.6423 8.01979 -2.59323e-21)
(21.5888 8.1757 0)
(21.5272 8.33836 0)
(21.4562 8.50803 0)
(21.374 8.68502 -3.45088e-21)
(21.2784 8.86924 -9.52484e-21)
(21.1667 9.06054 1.00579e-20)
(21.0362 9.25844 -7.88076e-21)
(20.8832 9.46169 0)
(20.7037 9.66865 0)
(20.4933 9.87661 3.9002e-21)
(20.247 10.0814 -4.03966e-21)
(19.9601 10.2772 0)
(19.6277 10.4563 -7.61907e-21)
(19.2466 10.6082 0)
(18.8155 10.7204 0)
(18.3378 10.7774 1.65289e-20)
(17.8235 10.7617 0)
(17.297 10.6551 0)
(21.9999 5.49053 -6.49318e-21)
(21.991 5.56542 1.18036e-20)
(21.9822 5.63953 0)
(21.9729 5.71483 6.75241e-21)
(21.9629 5.79119 4.20396e-21)
(21.952 5.86869 -9.94998e-21)
(21.94 5.94748 4.97711e-22)
(21.9269 6.02773 3.03953e-21)
(21.9126 6.10957 -3.86491e-21)
(21.897 6.19316 -7.9106e-22)
(21.8803 6.27866 5.02431e-22)
(21.8621 6.36617 4.87776e-22)
(21.8425 6.45589 6.65328e-21)
(21.8214 6.548 -2.10734e-21)
(21.7985 6.64263 0)
(21.7738 6.73997 2.02422e-22)
(21.747 6.84023 5.82667e-21)
(21.7179 6.94358 -9.26475e-21)
(21.6861 7.0502 3.7361e-21)
(21.6512 7.1603 3.09554e-22)
(21.6128 7.27414 0)
(21.5705 7.39197 4.97871e-22)
(21.5236 7.51399 3.45119e-21)
(21.4715 7.64038 -8.24205e-21)
(21.4134 7.77134 3.17672e-21)
(21.3482 7.90707 0)
(21.2749 8.04759 0)
(21.192 8.19304 0)
(21.0982 8.34335 -1.96756e-21)
(20.9918 8.49814 7.95019e-21)
(20.8709 8.65705 -1.31345e-20)
(20.7336 8.81923 7.5945e-21)
(20.5774 8.98314 -1.26198e-20)
(20.3999 9.14702 9.87081e-21)
(20.1989 9.30828 2.32613e-21)
(19.9719 9.46302 -6.80667e-21)
(19.7173 9.60635 2.13104e-21)
(19.4338 9.73215 3.36281e-21)
(19.1219 9.83282 -1.36109e-20)
(18.784 9.89978 0)
(18.4253 9.92364 -1.63895e-20)
(18.0548 9.89574 -1.18577e-19)
(17.6864 9.81008 -1.42263e-20)
(21.9251 5.48305 -8.88739e-21)
(21.9144 5.55238 2.04074e-21)
(21.9036 5.62051 -2.02781e-21)
(21.8922 5.6897 -5.82028e-21)
(21.8801 5.75982 -5.17259e-21)
(21.867 5.83088 2.05554e-21)
(21.8527 5.90314 9.7932e-21)
(21.8371 5.97671 -1.7289e-20)
(21.8203 6.05174 6.54969e-21)
(21.802 6.12834 -2.53045e-21)
(21.7824 6.20671 -3.62548e-21)
(21.7613 6.2869 0)
(21.7386 6.36908 1.14941e-20)
(21.7142 6.4534 -9.33715e-21)
(21.6879 6.54002 7.70504e-21)
(21.6597 6.62909 -2.23349e-20)
(21.6292 6.72075 9.22844e-21)
(21.5964 6.81516 1.91381e-21)
(21.5608 6.91242 -1.14753e-20)
(21.5221 7.01266 2.3395e-20)
(21.4799 7.11608 -1.19503e-20)
(21.4337 7.22279 0)
(21.383 7.33296 -1.36495e-20)
(21.3273 7.44667 2.07123e-20)
(21.2658 7.56393 0)
(21.1977 7.68473 0)
(21.1218 7.80894 0)
(21.0369 7.93646 0)
(20.9417 8.067 -1.42333e-20)
(20.8348 8.2001 1.05919e-20)
(20.7148 8.33513 0)
(20.5799 8.47107 -5.4013e-21)
(20.4284 8.6063 6.24343e-21)
(20.2584 8.73909 -5.07158e-21)
(20.0684 8.86705 1.46592e-20)
(19.8572 8.98691 9.63542e-21)
(19.624 9.09457 -6.70531e-22)
(19.3689 9.18533 -3.38065e-21)
(19.0932 9.25382 3.30345e-20)
(18.7997 9.29409 -1.63272e-20)
(18.4935 9.30054 0)
(18.1818 9.26868 2.27715e-20)
(17.8739 9.19629 -1.11663e-19)
(21.8587 5.47704 3.70934e-22)
(21.8462 5.53904 4.93902e-21)
(21.8339 5.60085 5.89822e-21)
(21.821 5.66417 -6.01167e-22)
(21.8076 5.72862 4.24105e-21)
(21.7931 5.79387 4.12366e-21)
(21.7773 5.86026 0)
(21.7602 5.9279 1.26398e-20)
(21.7417 5.99687 -8.65047e-21)
(21.7217 6.06729 0)
(21.7003 6.13934 1.1994e-20)
(21.6773 6.21309 -4.68519e-21)
(21.6525 6.28862 -1.64831e-20)
(21.6259 6.36613 8.22388e-21)
(21.5974 6.44574 -1.30366e-20)
(21.5667 6.52755 -1.22713e-22)
(21.5336 6.61173 2.8943e-20)
(21.4982 6.69842 -1.71e-20)
(21.46 6.78764 0)
(21.4186 6.87951 0)
(21.3737 6.97414 1.37872e-20)
(21.3248 7.07154 6.70176e-22)
(21.2714 7.17188 8.32224e-22)
(21.2131 7.27522 -1.50461e-20)
(21.1493 7.38148 -2.40057e-20)
(21.0794 7.49053 -7.77786e-22)
(21.0023 7.60222 7.12077e-21)
(20.9169 7.71614 -1.15922e-21)
(20.8219 7.83197 2.03571e-20)
(20.716 7.94935 2.02887e-20)
(20.5984 8.06754 -8.76785e-21)
(20.4676 8.18533 5.45322e-21)
(20.3221 8.30132 9.32813e-22)
(20.1606 8.41392 -1.54233e-20)
(19.982 8.52084 -8.50359e-21)
(19.7855 8.61962 -1.35821e-23)
(19.5715 8.70669 -1.50877e-20)
(19.3403 8.77805 -1.15977e-20)
(19.0935 8.82976 0)
(18.8338 8.85746 0)
(18.5657 8.85714 -4.53748e-20)
(18.2944 8.82584 -4.77978e-21)
(18.0268 8.76252 1.65108e-19)
(21.7987 5.46535 -5.07377e-21)
(21.7857 5.52337 0)
(21.7725 5.5803 -5.3051e-21)
(21.7582 5.63852 0)
(21.7441 5.6982 2.75611e-21)
(21.7288 5.75833 -2.72627e-21)
(21.7121 5.81955 0)
(21.6941 5.88203 0)
(21.6746 5.94575 0)
(21.6537 6.01076 0)
(21.6311 6.07731 1.03641e-20)
(21.607 6.14553 -1.59847e-20)
(21.5811 6.21536 -6.63814e-23)
(21.5533 6.28705 1.03903e-20)
(21.5235 6.36072 1.06032e-20)
(21.4914 6.43643 -1.06372e-20)
(21.4568 6.51427 -1.20852e-20)
(21.4199 6.59449 1.10901e-20)
(21.3802 6.67706 0)
(21.3374 6.76205 0)
(21.2912 6.84962 5.55167e-21)
(21.2412 6.93965 0)
(21.1866 7.03205 -6.51238e-21)
(21.1271 7.12709 -6.23375e-22)
(21.0624 7.22462 1.52617e-20)
(20.992 7.32456 1.72643e-20)
(20.9152 7.42655 -7.0899e-21)
(20.8307 7.5301 -1.92271e-20)
(20.7373 7.63469 0)
(20.6335 7.74004 -1.28746e-20)
(20.5189 7.84575 -2.60832e-20)
(20.3925 7.95026 1.42939e-20)
(20.2529 8.05217 2.54369e-20)
(20.099 8.1502 -3.96262e-20)
(19.9298 8.24228 9.18162e-21)
(19.7442 8.3265 -7.11192e-23)
(19.5444 8.40023 -2.83576e-20)
(19.33 8.45909 1.49282e-20)
(19.1029 8.5003 -3.59149e-20)
(18.8663 8.52079 4.02386e-20)
(18.6239 8.51705 0)
(18.3788 8.487 -1.61352e-21)
(18.1368 8.43015 5.20768e-20)
(21.7443 5.45422 1.26319e-20)
(21.7316 5.50763 -1.32149e-20)
(21.7184 5.56015 0)
(21.703 5.61307 0)
(21.6883 5.66901 0)
(21.6727 5.72464 0)
(21.6555 5.78135 -6.14661e-21)
(21.6368 5.83934 -3.52636e-22)
(21.617 5.8986 0)
(21.5957 5.95898 -6.37914e-21)
(21.5724 6.02068 0)
(21.5478 6.08413 1.21368e-20)
(21.5213 6.14898 -1.21089e-20)
(21.4928 6.21569 0)
(21.4621 6.28428 -1.25642e-20)
(21.4294 6.355 1.26127e-20)
(21.394 6.42739 1.90997e-20)
(21.356 6.50203 2.85311e-22)
(21.3154 6.57893 -1.36038e-20)
(21.2716 6.65813 7.54966e-21)
(21.2243 6.7398 0)
(21.1741 6.82423 -7.59391e-21)
(21.1191 6.91012 8.5575e-21)
(21.0594 6.9985 0)
(20.9942 7.08899 9.69769e-21)
(20.9237 7.18165 -2.02311e-20)
(20.8473 7.27593 9.6032e-21)
(20.7641 7.37155 -3.57685e-20)
(20.6734 7.46774 3.72961e-20)
(20.5718 7.56348 -3.98725e-22)
(20.4601 7.65988 -1.56319e-20)
(20.3382 7.75484 -1.20498e-21)
(20.2041 7.84602 -3.67482e-20)
(20.0561 7.93291 1.97512e-20)
(19.8955 8.01429 2.21889e-20)
(19.7179 8.08761 3.33531e-20)
(19.5293 8.15283 4.70398e-20)
(19.3283 8.20355 3.90719e-20)
(19.1156 8.23834 3.32332e-20)
(18.8951 8.25527 -3.95915e-20)
(18.6725 8.24913 0)
(18.4452 8.21982 -9.88851e-20)
(18.2215 8.16767 5.45607e-20)
(21.6929 5.43827 0)
(21.6811 5.49161 6.70468e-21)
(21.6699 5.54156 -7.82685e-21)
(21.6537 5.5872 0)
(21.6386 5.64072 -7.21373e-21)
(21.6235 5.69264 -3.47761e-21)
(21.6062 5.74585 -3.48046e-21)
(21.5872 5.80027 1.34345e-20)
(21.5673 5.85575 -7.11931e-21)
(21.5467 5.91267 -3.24847e-22)
(21.5231 5.96994 6.80394e-21)
(21.4983 6.02939 0)
(21.4718 6.08961 -2.10752e-20)
(21.4433 6.15264 -1.59882e-22)
(21.412 6.21637 -7.66396e-21)
(21.379 6.28379 -2.23259e-22)
(21.3438 6.35205 1.47816e-20)
(21.3056 6.422 1.54146e-20)
(21.2646 6.49355 -2.36474e-20)
(21.2212 6.56822 8.68577e-21)
(21.1718 6.64335 -1.64554e-20)
(21.1213 6.72458 9.52605e-21)
(21.0668 6.80553 -2.81663e-20)
(21.0078 6.88893 0)
(20.9433 6.97388 1.42707e-22)
(20.8733 7.06076 -2.14148e-20)
(20.7985 7.14845 1.12499e-20)
(20.7153 7.23675 1.21803e-20)
(20.628 7.32808 -1.45208e-20)
(20.529 7.41543 0)
(20.4189 7.50424 0)
(20.3013 7.59262 -1.24369e-21)
(20.1741 7.67476 7.35665e-21)
(20.0269 7.75016 -9.29163e-22)
(19.8741 7.8255 -1.31978e-20)
(19.7004 7.88901 -2.66211e-20)
(19.5196 7.94901 -2.9676e-20)
(19.3314 7.99477 -3.27454e-20)
(19.1305 8.02424 -3.68162e-20)
(18.9167 8.04064 0)
(18.7042 8.0291 2.13435e-20)
(18.486 7.99943 5.11264e-20)
(18.2762 7.95267 2.96531e-20)
(12.0622 14.8271 0)
(11.4323 13.1853 -4.23769e-19)
(11.3894 11.995 4.10166e-19)
(11.5654 11.0571 2.89002e-20)
(11.8266 10.2882 0)
(12.1205 9.6403 5.19252e-20)
(12.4194 9.08913 -8.38405e-20)
(12.7099 8.61778 -1.04525e-18)
(12.985 8.21218 1.04524e-18)
(13.2414 7.8611 -3.93536e-20)
(13.4783 7.55558 9.58595e-19)
(13.6958 7.28774 -9.02409e-19)
(13.8948 7.05112 8.60536e-19)
(14.0768 6.84036 -5.01661e-20)
(14.2431 6.65115 -7.32735e-19)
(14.3952 6.47994 4.64714e-20)
(14.5346 6.32395 -4.45379e-20)
(14.6627 6.18075 1.33513e-18)
(14.7806 6.04833 -1.29422e-18)
(14.8896 5.92505 3.9999e-20)
(14.9907 5.80964 0)
(15.0847 5.70086 -1.18323e-18)
(15.1726 5.59773 -6.86519e-20)
(15.255 5.49954 1.17717e-18)
(15.3326 5.40557 7.12857e-20)
(15.4059 5.31524 -9.92594e-19)
(15.4753 5.22811 2.25121e-18)
(15.5414 5.1438 -2.16044e-18)
(15.6044 5.0619 4.84563e-21)
(15.6646 4.98221 1.10704e-18)
(15.7225 4.90444 0)
(15.7781 4.82835 -6.82814e-20)
(15.8316 4.75378 0)
(15.8833 4.68054 0)
(15.9333 4.60849 -1.41026e-19)
(15.9815 4.53746 -7.01373e-19)
(16.0282 4.46735 -1.40328e-19)
(16.0734 4.39806 5.67963e-19)
(16.117 4.3295 1.4135e-19)
(16.1593 4.26161 7.13812e-19)
(16.2001 4.19436 -5.71971e-19)
(16.2397 4.12783 0)
(16.279 4.0601 8.32306e-22)
(16.2701 12.0618 -2.55522e-19)
(15.7241 11.4726 0)
(15.3325 10.8536 4.44999e-19)
(15.0636 10.2684 4.03107e-21)
(14.8863 9.73359 4.92804e-19)
(14.7785 9.25158 -2.00518e-18)
(14.7228 8.82053 1.03235e-18)
(14.7052 8.43661 -2.01171e-18)
(14.7149 8.09496 9.00243e-19)
(14.7446 7.79048 -5.65441e-20)
(14.7881 7.51829 -8.84112e-19)
(14.841 7.27428 2.5799e-18)
(14.8999 7.05451 -7.59266e-19)
(14.9625 6.85563 4.82259e-20)
(15.0268 6.67459 -9.01757e-20)
(15.0917 6.5089 -4.45397e-20)
(15.1564 6.35632 7.23031e-19)
(15.2202 6.21496 -6.5984e-19)
(15.2828 6.08326 0)
(15.3439 5.95986 -3.90392e-20)
(15.4034 5.84364 -3.65788e-20)
(15.4611 5.73368 -5.861e-19)
(15.517 5.62916 6.49393e-19)
(15.5712 5.52943 0)
(15.6236 5.43395 -7.03566e-20)
(15.6744 5.34224 -6.94853e-20)
(15.7235 5.2539 6.69699e-20)
(15.7712 5.1686 5.39907e-19)
(15.8175 5.08603 -5.39567e-19)
(15.8625 5.00593 6.02983e-19)
(15.9062 4.92804 -1.07562e-18)
(15.9488 4.85216 6.74634e-19)
(15.9903 4.77806 5.40562e-19)
(16.0307 4.7056 -9.54335e-19)
(16.07 4.63459 1.09687e-18)
(16.1083 4.56487 -6.90568e-19)
(16.1456 4.49633 0)
(16.1819 4.42884 5.60973e-19)
(16.2172 4.3623 -7.08842e-19)
(16.2515 4.29666 -1.41252e-19)
(16.2849 4.23187 0)
(16.3172 4.16805 2.84995e-19)
(16.3488 4.10379 -1.39295e-19)
(16.8019 10.4559 0)
(16.3826 10.184 -3.37343e-20)
(16.0466 9.86618 0)
(15.7874 9.52762 2.39248e-20)
(15.5945 9.18561 6.94682e-20)
(15.4569 8.85146 -4.73473e-19)
(15.3646 8.53213 4.23327e-19)
(15.3078 8.23145 8.31747e-19)
(15.2788 7.95125 1.18129e-19)
(15.2713 7.69182 -7.35964e-19)
(15.2799 7.45234 0)
(15.3004 7.23169 -4.76418e-20)
(15.3297 7.02826 6.92741e-19)
(15.365 6.84046 -6.71107e-19)
(15.4045 6.66672 4.29902e-20)
(15.4467 6.50555 3.92692e-20)
(15.4905 6.35553 0)
(15.5351 6.21542 0)
(15.5797 6.0841 3.64026e-20)
(15.6241 5.96058 0)
(15.6678 5.84398 1.06114e-19)
(15.7106 5.7336 6.85854e-20)
(15.7525 5.62875 4.79012e-19)
(15.7934 5.52885 -5.39484e-19)
(15.8333 5.43342 0)
(15.8722 5.34205 5.27983e-19)
(15.9101 5.25434 -5.91683e-19)
(15.9471 5.16993 0)
(15.9833 5.08852 0)
(16.0188 5.00979 -6.59331e-20)
(16.0535 4.93347 4.57155e-19)
(16.0875 4.85932 -1.1799e-18)
(16.1207 4.78715 6.63121e-20)
(16.1534 4.71676 3.9759e-19)
(16.1853 4.64795 5.35014e-19)
(16.2165 4.58058 -5.38867e-19)
(16.247 4.51451 -1.35434e-19)
(16.2767 4.44961 -1.36746e-19)
(16.3058 4.38578 0)
(16.3341 4.32293 -1.38714e-19)
(16.3617 4.26101 5.29887e-22)
(16.3886 4.2 1.41741e-19)
(16.4151 4.13856 -2.75686e-19)
(17.3359 9.66737 1.13153e-19)
(17.0167 9.47581 3.1783e-19)
(16.7369 9.2483 2.46659e-20)
(16.5001 8.99865 2.18819e-20)
(16.3055 8.73835 -3.3474e-19)
(16.1499 8.4763 9.04128e-20)
(16.0289 8.2189 -9.05999e-20)
(15.9376 7.97042 3.23797e-19)
(15.8714 7.7334 -4.02824e-19)
(15.8258 7.50925 4.51418e-20)
(15.7969 7.29851 6.61049e-19)
(15.7812 7.10114 -1.40765e-18)
(15.7762 6.91662 6.21232e-19)
(15.7795 6.74423 0)
(15.7892 6.5831 -3.88163e-20)
(15.804 6.4323 -3.91172e-20)
(15.8225 6.29088 0)
(15.8438 6.15803 0)
(15.8671 6.03288 -3.64054e-20)
(15.8918 5.91472 -5.63827e-19)
(15.9175 5.80287 4.14499e-19)
(15.9439 5.69673 -6.86895e-20)
(15.9707 5.59576 1.59509e-21)
(15.9977 5.49947 0)
(16.0248 5.40748 0)
(16.0519 5.31938 0)
(16.0789 5.23483 0)
(16.106 5.15352 -5.11962e-19)
(16.133 5.07511 5.11337e-19)
(16.1598 4.99933 -6.33459e-20)
(16.1864 4.92591 5.76685e-19)
(16.2128 4.85464 -4.49879e-19)
(16.2389 4.78536 -6.51791e-20)
(16.2646 4.71786 6.46934e-20)
(16.29 4.65197 0)
(16.315 4.58756 1.33599e-19)
(16.3396 4.52448 3.36235e-19)
(16.3637 4.46262 -1.34754e-19)
(16.3872 4.40189 2.73158e-19)
(16.4103 4.34221 -2.75721e-19)
(16.4328 4.28354 2.76998e-19)
(16.455 4.22589 -5.54612e-19)
(16.477 4.16824 5.49723e-19)
(17.5795 9.08434 2.3755e-19)
(17.3062 8.93715 -1.2562e-19)
(17.0601 8.76144 0)
(16.8447 8.56541 0)
(16.6611 8.35707 2.49022e-19)
(16.5081 8.14321 -2.85075e-19)
(16.3835 7.92918 4.36266e-20)
(16.2845 7.71878 4.19402e-20)
(16.2074 7.51476 0)
(16.149 7.31893 0)
(16.1061 7.13235 4.22954e-20)
(16.0762 6.95554 4.15144e-20)
(16.0569 6.7885 3.92708e-20)
(16.0462 6.63099 -3.51611e-19)
(16.0427 6.48252 3.04849e-19)
(16.0446 6.34253 0)
(16.051 6.2104 -2.92848e-19)
(16.0607 6.08558 3.56067e-19)
(16.073 5.96747 0)
(16.0874 5.85552 6.80943e-20)
(16.1034 5.7492 6.85318e-20)
(16.1206 5.64806 6.59332e-20)
(16.1386 5.55165 6.64272e-20)
(16.1574 5.45961 6.42764e-20)
(16.1766 5.3716 0)
(16.1963 5.28732 5.09649e-19)
(16.2165 5.20644 2.12251e-22)
(16.237 5.12863 -5.04378e-19)
(16.2578 5.05359 6.2468e-20)
(16.2787 4.98107 6.29594e-19)
(16.2996 4.91086 -2.52444e-19)
(16.3204 4.84278 -2.53459e-19)
(16.3411 4.77665 -2.54869e-19)
(16.3617 4.71231 2.56027e-19)
(16.3821 4.64957 0)
(16.4022 4.58832 0)
(16.422 4.52842 1.32126e-19)
(16.4415 4.46979 -6.63826e-20)
(16.4607 4.41228 -3.36543e-19)
(16.4794 4.35587 3.39709e-19)
(16.4978 4.30054 0)
(16.516 4.2463 1.38013e-19)
(16.5341 4.19223 0)
(17.7694 8.66817 -2.39206e-19)
(17.5276 8.54551 1.25488e-19)
(17.306 8.39892 0)
(17.1076 8.23422 0)
(16.9341 8.05755 7.82192e-20)
(16.7854 7.87436 2.87691e-19)
(16.6609 7.68912 1.15653e-20)
(16.5587 7.50489 -3.63413e-19)
(16.4757 7.32407 -4.0292e-20)
(16.4093 7.14868 0)
(16.3573 6.98009 -3.95189e-20)
(16.3174 6.81907 3.89524e-20)
(16.288 6.66589 3.73741e-20)
(16.2673 6.52046 3.44471e-19)
(16.2537 6.38253 -2.59409e-19)
(16.2459 6.25169 0)
(16.2426 6.12768 0)
(16.2431 6.01007 -2.83791e-19)
(16.2467 5.89842 5.5283e-19)
(16.2528 5.79229 -2.72385e-19)
(16.2609 5.69123 -2.6766e-19)
(16.2705 5.59489 1.31247e-19)
(16.2814 5.50296 6.44139e-20)
(16.2934 5.41512 -6.47246e-20)
(16.3063 5.33115 0)
(16.3201 5.25077 0)
(16.3348 5.17358 -6.22281e-20)
(16.3502 5.09928 0)
(16.3659 5.02762 -1.24593e-19)
(16.382 4.95841 -8.0714e-22)
(16.3981 4.89141 0)
(16.4144 4.82656 6.22717e-20)
(16.4307 4.76365 0)
(16.4472 4.70247 -6.37913e-20)
(16.4635 4.64287 0)
(16.4797 4.58478 -2.58275e-19)
(16.4956 4.52809 5.21174e-19)
(16.5114 4.47268 -1.97456e-19)
(16.5269 4.41837 6.68883e-20)
(16.5421 4.36519 -6.74759e-20)
(16.557 4.31318 6.73692e-20)
(16.5718 4.26233 0)
(16.5869 4.21175 -1.36341e-19)
(17.9031 8.34718 -9.31347e-20)
(17.6823 8.24032 1.87709e-19)
(17.4781 8.11244 -6.83073e-20)
(17.292 7.96797 -1.48301e-19)
(17.1269 7.81244 1.09207e-19)
(16.9831 7.65055 1.57699e-19)
(16.8611 7.48597 -1.53824e-19)
(16.7594 7.32089 0)
(16.6741 7.15708 3.98109e-20)
(16.6035 6.99707 0)
(16.5462 6.8424 1.16142e-19)
(16.5005 6.69398 2.69985e-19)
(16.465 6.55209 -4.51202e-19)
(16.438 6.4167 0)
(16.418 6.28755 2.93763e-19)
(16.4037 6.16453 -6.45806e-19)
(16.3939 6.04765 2.11196e-19)
(16.3882 5.93653 -2.79371e-19)
(16.3858 5.83074 2.71972e-19)
(16.3863 5.72985 -3.36541e-19)
(16.3889 5.63353 6.45947e-20)
(16.3932 5.54157 6.51418e-19)
(16.399 5.45378 -6.40864e-20)
(16.4062 5.36989 -2.54083e-19)
(16.4144 5.2898 3.14814e-19)
(16.4243 5.21315 -2.49778e-19)
(16.4352 5.13937 -2.4794e-19)
(16.4467 5.06825 2.47364e-19)
(16.4585 4.99982 6.21205e-20)
(16.4709 4.93374 -1.23503e-19)
(16.4832 4.86979 2.47426e-19)
(16.496 4.80807 -3.10482e-19)
(16.5091 4.74825 -2.49489e-19)
(16.5223 4.69005 1.88586e-19)
(16.5353 4.63345 -6.29913e-20)
(16.5483 4.57843 -6.3584e-20)
(16.5611 4.52486 -6.47979e-20)
(16.5739 4.47255 6.48973e-20)
(16.5865 4.42131 1.31668e-19)
(16.5986 4.37123 -1.32908e-19)
(16.6106 4.32238 -6.72214e-20)
(16.6227 4.27485 -2.0171e-19)
(16.6356 4.2275 1.35853e-19)
(18.0048 8.09236 2.98671e-20)
(17.7993 7.9966 -1.25913e-19)
(17.6089 7.88155 2.03707e-19)
(17.4321 7.75088 -1.3672e-19)
(17.2736 7.61051 0)
(17.1334 7.4645 7.73587e-20)
(17.0155 7.31484 -1.48349e-19)
(16.9156 7.16443 1.54189e-19)
(16.8294 7.01294 3.71296e-21)
(16.7564 6.86471 -1.50041e-19)
(16.6959 6.72071 -6.94916e-22)
(16.6463 6.5824 0)
(16.6069 6.44956 7.42949e-20)
(16.5758 6.32249 0)
(16.5516 6.20048 0)
(16.5323 6.08406 -2.12294e-19)
(16.5177 5.97354 -1.34e-21)
(16.5076 5.86812 2.03597e-19)
(16.5011 5.76746 -3.36738e-19)
(16.4976 5.67094 3.30317e-19)
(16.4961 5.57862 -6.57483e-20)
(16.4964 5.4905 -6.48748e-20)
(16.4981 5.40641 2.55154e-19)
(16.5015 5.3261 -5.66812e-19)
(16.5063 5.24973 1.86646e-19)
(16.5136 5.17629 6.16695e-20)
(16.5213 5.10534 3.08685e-19)
(16.5295 5.03684 -4.91123e-19)
(16.5381 4.97176 2.4485e-19)
(16.5477 4.90849 5.723e-22)
(16.5568 4.84742 6.09775e-20)
(16.5672 4.78871 0)
(16.5778 4.73179 0)
(16.5884 4.67621 5.2338e-22)
(16.5986 4.62241 6.29198e-20)
(16.609 4.57032 6.34785e-20)
(16.6192 4.51977 0)
(16.6298 4.47031 -6.47469e-20)
(16.6399 4.422 -6.49205e-20)
(16.6495 4.37484 -1.97043e-19)
(16.6591 4.32886 1.98616e-19)
(16.669 4.28435 5.04286e-22)
(16.6808 4.2395 0)
(18.0713 7.88174 -1.72539e-19)
(17.8755 7.79515 1.8918e-19)
(17.6999 7.69115 3.25612e-21)
(17.532 7.57 1.44242e-19)
(17.3795 7.44056 -1.41707e-19)
(17.2388 7.30774 1.42569e-19)
(17.1222 7.16743 0)
(17.0227 7.03042 -8.09048e-20)
(16.9382 6.88816 2.26503e-19)
(16.8645 6.74931 -7.41786e-20)
(16.8026 6.61286 7.64833e-20)
(16.7501 6.48367 -7.06883e-20)
(16.7099 6.35813 -1.4618e-19)
(16.6771 6.23916 0)
(16.6522 6.12279 0)
(16.6298 6.01209 -7.05474e-20)
(16.613 5.90752 2.11601e-19)
(16.6012 5.80696 -2.05413e-19)
(16.5929 5.71065 2.01582e-19)
(16.5877 5.61722 -2.63318e-19)
(16.5833 5.52823 0)
(16.5809 5.4433 -6.48691e-20)
(16.5799 5.36239 -1.29635e-19)
(16.581 5.2852 3.17617e-19)
(16.5839 5.21227 3.22416e-22)
(16.5906 5.14038 -2.42912e-19)
(16.5941 5.07224 -1.19536e-19)
(16.5999 5.00655 6.13049e-20)
(16.6057 4.94599 -1.24377e-19)
(16.6147 4.88371 1.24498e-19)
(16.6204 4.82594 -6.09285e-20)
(16.63 4.76989 -1.77823e-19)
(16.6377 4.71549 1.21302e-19)
(16.6464 4.66177 6.16927e-20)
(16.6539 4.61081 0)
(16.6624 4.56134 -1.91735e-19)
(16.6704 4.51373 1.28686e-19)
(16.6798 4.46653 -6.47234e-20)
(16.6876 4.42141 2.00636e-19)
(16.6954 4.37686 -2.02305e-19)
(16.7035 4.33337 1.34902e-19)
(16.7122 4.29137 -6.68594e-20)
(16.7257 4.24656 0)
(19.5095 -3.47143 -2.48777e-19)
(19.4134 -3.49269 -1.29627e-19)
(19.3107 -3.51653 -1.36652e-19)
(19.2019 -3.53789 -5.61663e-21)
(19.0864 -3.55757 0)
(18.9637 -3.57533 4.82236e-19)
(18.8335 -3.59112 6.76352e-20)
(18.6953 -3.60482 -1.40589e-19)
(18.5487 -3.61638 -1.38551e-19)
(18.3935 -3.62571 1.47362e-19)
(18.2294 -3.63276 -4.28539e-19)
(18.0562 -3.63746 1.51636e-19)
(17.8736 -3.63979 -2.96015e-19)
(17.6816 -3.63969 1.46665e-19)
(17.48 -3.63715 -3.01871e-19)
(17.2688 -3.63213 -7.60965e-20)
(17.048 -3.62463 -7.29145e-19)
(16.8175 -3.61458 6.61479e-19)
(16.5775 -3.60202 -8.39409e-20)
(16.328 -3.58689 0)
(16.069 -3.56919 0)
(15.8007 -3.5489 0)
(15.5229 -3.52601 9.34545e-20)
(15.2358 -3.5004 -1.00426e-19)
(14.9392 -3.47212 -5.08223e-20)
(14.6331 -3.44109 1.87838e-21)
(14.3172 -3.40721 -4.75961e-19)
(13.9913 -3.37047 4.42099e-19)
(13.6548 -3.33067 5.3376e-19)
(13.307 -3.2877 -6.85134e-20)
(12.9471 -3.24135 -8.3834e-19)
(12.5739 -3.19137 3.24404e-19)
(12.1857 -3.13735 0)
(11.7803 -3.07868 0)
(11.3546 -3.01468 0)
(10.9044 -2.94425 5.65564e-20)
(10.4237 -2.86571 2.71344e-19)
(9.90337 -2.77632 -2.38999e-19)
(9.32898 -2.67166 -7.30807e-19)
(8.67811 -2.54374 7.90922e-19)
(7.9258 -2.37523 0)
(7.1491 -2.13874 2.01867e-19)
(7.7373 -1.96737 -3.76037e-18)
(19.4653 -3.44257 5.29886e-19)
(19.3765 -3.46166 -2.86687e-19)
(19.2817 -3.48326 0)
(19.1819 -3.50272 2.90152e-19)
(19.0765 -3.52082 1.83137e-20)
(18.965 -3.53739 -1.63719e-19)
(18.8472 -3.55235 1.47147e-19)
(18.7227 -3.56562 1.46476e-19)
(18.5911 -3.57714 0)
(18.4521 -3.58681 1.48246e-19)
(18.3054 -3.59456 -2.97431e-19)
(18.1506 -3.60033 -1.50708e-19)
(17.9875 -3.60404 3.03594e-19)
(17.8158 -3.60562 0)
(17.6352 -3.60502 2.36937e-19)
(17.4455 -3.60217 0)
(17.2466 -3.597 1.64293e-19)
(17.0382 -3.58946 4.17757e-19)
(16.82 -3.57947 -3.39959e-19)
(16.5921 -3.56696 -3.52687e-19)
(16.354 -3.55186 7.26131e-19)
(16.1058 -3.53412 9.63168e-20)
(15.847 -3.51363 -3.89238e-19)
(15.5775 -3.49029 1.038e-19)
(15.297 -3.46399 1.06833e-19)
(15.005 -3.43461 -1.69087e-19)
(14.7012 -3.40203 -5.89607e-19)
(14.3848 -3.36608 4.96156e-19)
(14.0554 -3.32653 0)
(13.7118 -3.28314 -2.11435e-19)
(13.353 -3.23557 3.01852e-19)
(12.9774 -3.18343 4.944e-19)
(12.5833 -3.12617 -2.66013e-19)
(12.168 -3.06306 -1.96134e-19)
(11.7284 -2.99311 2.15772e-19)
(11.2598 -2.91502 1.21685e-19)
(10.7558 -2.82689 2.74661e-19)
(10.207 -2.72583 -3.14012e-19)
(9.60093 -2.60693 -8.32929e-19)
(8.92624 -2.46203 8.89217e-19)
(8.2162 -2.28343 -1.97173e-18)
(7.81175 -2.12307 1.69243e-19)
(9.71028 -2.23431 3.24456e-18)
(19.4255 -3.41656 -1.37449e-19)
(19.343 -3.43402 4.48917e-19)
(19.2553 -3.45342 -7.61451e-20)
(19.1632 -3.47102 -1.1499e-19)
(19.0661 -3.48747 3.82085e-20)
(18.9637 -3.50263 1.54326e-19)
(18.8557 -3.51644 -1.5244e-19)
(18.7417 -3.52881 1.53863e-19)
(18.6214 -3.53965 -1.53454e-19)
(18.4944 -3.54888 1.53939e-19)
(18.3604 -3.55642 -1.56877e-19)
(18.219 -3.56219 -4.71099e-19)
(18.0699 -3.56609 -1.61728e-19)
(17.9128 -3.56805 7.24138e-19)
(17.7472 -3.56801 -4.06959e-19)
(17.5729 -3.56589 2.49444e-19)
(17.3896 -3.56159 -4.22917e-19)
(17.1969 -3.55504 1.18818e-21)
(16.9946 -3.54615 -2.68605e-19)
(16.7823 -3.53484 7.33431e-19)
(16.5596 -3.52101 -3.77526e-19)
(16.3263 -3.50454 -9.75119e-20)
(16.0819 -3.48531 0)
(15.826 -3.46317 -3.17929e-19)
(15.5582 -3.43797 4.43563e-19)
(15.2778 -3.40952 1.15616e-19)
(14.9844 -3.37763 1.2174e-19)
(14.677 -3.34206 -1.30749e-19)
(14.3548 -3.30253 0)
(14.0169 -3.25874 0)
(13.6616 -3.21027 1.21477e-21)
(13.2876 -3.15664 -8.43941e-20)
(12.8926 -3.0972 -9.16191e-20)
(12.474 -3.03116 0)
(12.0283 -2.95746 0)
(11.5505 -2.87467 -3.09829e-19)
(11.0339 -2.78081 -7.10643e-20)
(10.4697 -2.67293 1.60529e-19)
(9.84845 -2.54614 0)
(9.17532 -2.39308 -6.65442e-19)
(8.55097 -2.21264 1.92131e-18)
(8.52173 -2.09604 -1.97574e-18)
(11.0106 -2.36608 -5.97464e-19)
(19.3895 -3.3927 -1.47105e-19)
(19.3125 -3.40818 -1.58557e-19)
(19.2307 -3.42528 1.60982e-19)
(19.1449 -3.44087 4.04046e-20)
(19.0545 -3.4555 1.21731e-19)
(18.9594 -3.46905 4.2306e-20)
(18.8592 -3.48143 -4.00492e-20)
(18.7536 -3.4926 0)
(18.6423 -3.50247 0)
(18.5248 -3.51094 0)
(18.4009 -3.51793 3.2615e-19)
(18.2702 -3.52335 1.65569e-19)
(18.1323 -3.5271 8.15781e-20)
(17.9867 -3.52912 -4.22378e-19)
(17.8331 -3.52932 3.4207e-19)
(17.6712 -3.52762 8.66327e-20)
(17.5005 -3.52392 0)
(17.3206 -3.51812 -9.05254e-20)
(17.131 -3.51012 3.75977e-19)
(16.9314 -3.49981 -3.84791e-19)
(16.7212 -3.48709 3.99373e-19)
(16.5001 -3.47183 2.29032e-21)
(16.2674 -3.45386 2.36176e-21)
(16.0228 -3.43301 -5.54898e-19)
(15.7655 -3.40908 -2.32274e-19)
(15.4948 -3.38183 0)
(15.2101 -3.35099 0)
(14.9102 -3.31628 1.3431e-19)
(14.5943 -3.27735 0)
(14.261 -3.23384 -1.53916e-19)
(13.9088 -3.18531 2.47554e-19)
(13.5361 -3.1312 -3.52319e-19)
(13.1404 -3.07081 1.49255e-21)
(12.7189 -3.00329 1.04351e-19)
(12.2678 -2.92751 8.99229e-22)
(11.7818 -2.84201 1.25678e-19)
(11.2542 -2.7447 1.40853e-19)
(10.6766 -2.63244 -1.60018e-19)
(10.0438 -2.50034 3.73705e-19)
(9.37938 -2.34284 -1.54539e-18)
(8.84541 -2.16765 2.1519e-18)
(9.13273 -2.08709 -9.11085e-19)
(11.9174 -2.44867 2.39264e-18)
(19.3577 -3.37082 0)
(19.2857 -3.38432 -1.66615e-19)
(19.2094 -3.39939 8.5109e-20)
(19.1294 -3.41329 2.5326e-19)
(19.0454 -3.42642 1.74054e-21)
(18.957 -3.43862 -4.03547e-20)
(18.864 -3.44985 -1.26577e-19)
(18.766 -3.4601 8.41122e-20)
(18.6627 -3.46926 -8.38543e-20)
(18.5539 -3.47724 0)
(18.4391 -3.48393 -2.54567e-19)
(18.3179 -3.48923 -1.70701e-19)
(18.1899 -3.49304 3.47209e-19)
(18.0547 -3.49525 -1.75217e-19)
(17.9118 -3.4958 0)
(17.7607 -3.49461 0)
(17.601 -3.49158 -3.72127e-19)
(17.4324 -3.48657 3.7883e-19)
(17.254 -3.47942 -9.77685e-20)
(17.0656 -3.47004 -4.02228e-19)
(16.8663 -3.45834 -2.3246e-21)
(16.6558 -3.4442 8.56425e-19)
(16.4334 -3.42745 -4.43102e-19)
(16.1984 -3.40788 0)
(15.9502 -3.38524 1.20172e-19)
(15.688 -3.35926 -1.26838e-19)
(15.4109 -3.32959 0)
(15.1178 -3.29588 -1.40559e-19)
(14.8075 -3.25776 0)
(14.4785 -3.2148 6.31743e-19)
(14.1292 -3.16659 -3.36138e-19)
(13.7575 -3.11253 1.8012e-19)
(13.3611 -3.05181 -3.90367e-19)
(12.9368 -2.98348 2.11722e-19)
(12.4805 -2.90639 -1.1563e-19)
(11.9868 -2.81904 2.5738e-19)
(11.4486 -2.71929 0)
(10.8584 -2.60394 3.24183e-19)
(10.2159 -2.46813 -7.43331e-19)
(9.56214 -2.308 8.73849e-19)
(9.10985 -2.14051 3.49951e-21)
(9.6464 -2.09234 -1.41638e-18)
(12.5925 -2.50822 -9.69119e-19)
(19.3297 -3.35023 -3.32239e-19)
(19.2624 -3.36242 3.44567e-19)
(19.1911 -3.37589 -1.31008e-19)
(19.1164 -3.3884 -2.18187e-19)
(19.0381 -3.4003 -1.73899e-19)
(18.9559 -3.41136 -1.2982e-19)
(18.8692 -3.42158 1.29926e-19)
(18.7779 -3.43104 8.72828e-20)
(18.6817 -3.43964 -8.70101e-20)
(18.5802 -3.44723 0)
(18.4732 -3.45369 8.7816e-20)
(18.3601 -3.45891 0)
(18.2406 -3.46279 -8.95315e-20)
(18.1142 -3.46518 0)
(17.9803 -3.46597 -1.85375e-19)
(17.8384 -3.46514 1.87705e-19)
(17.6881 -3.46269 0)
(17.5289 -3.45843 0)
(17.3601 -3.45205 3.02708e-19)
(17.1812 -3.44339 1.1535e-21)
(16.9912 -3.43241 -2.13285e-19)
(16.7897 -3.41909 1.10851e-19)
(16.576 -3.40332 -2.28699e-19)
(16.3493 -3.38491 0)
(16.1089 -3.36358 0)
(15.8539 -3.33899 1.2973e-19)
(15.5833 -3.31071 0)
(15.2959 -3.27827 1.43364e-19)
(14.9903 -3.24111 4.57298e-19)
(14.665 -3.19868 -4.82383e-19)
(14.318 -3.15068 -1.72495e-19)
(13.9472 -3.09682 0)
(13.5506 -3.03629 1.98911e-19)
(13.1242 -2.96763 -2.15412e-19)