/*--------------------------------*- C++ -*----------------------------------*\
| =========                 |                                                 |
| \\      /  F ield         | OpenFOAM: The Open Source CFD Toolbox           |
|  \\    /   O peration     | Version:  2.3.0                                 |
|   \\  /    A nd           | Web:      www.OpenFOAM.org                      |
|    \\/     M anipulation  |                                                 |
\*---------------------------------------------------------------------------*/
FoamFile
{
    version     2.0;
    format      ascii;
    class       volScalarField;
    location    "4000";
    object      nut;
}
// * * * * * * * * * * * * * * * * * * * * * * * * * * * * * * * * * * * * * //

dimensions      [0 2 -1 0 0 0 0];

internalField   nonuniform List<scalar> 
38388
(
0.0406234
0.0390968
0.0375982
0.0361297
0.0346959
0.033302
0.0319493
0.0306352
0.0293565
0.0281118
0.0269022
0.025728
0.0245899
0.0234871
0.0224181
0.0213812
0.0203756
0.0194007
0.0184552
0.0175382
0.0166493
0.0157874
0.0149519
0.0141401
0.0133525
0.0125862
0.0118396
0.0111111
0.0103979
0.00969905
0.00901146
0.00833473
0.00766855
0.00701687
0.00638549
0.00578381
0.00522723
0.00472418
0.00428807
0.0039194
0.0036281
0.00343424
0.00342665
0.042693
0.0412948
0.0399224
0.0385775
0.0372637
0.0359857
0.0347471
0.0335476
0.0323778
0.0312333
0.0301134
0.0290199
0.0279543
0.0269182
0.0259111
0.0249312
0.0239767
0.0230462
0.0221385
0.021254
0.0203925
0.0195539
0.0187388
0.0179474
0.017181
0.0164395
0.0157263
0.0150406
0.0143871
0.013768
0.013185
0.0126418
0.0121384
0.0116741
0.0112474
0.0108577
0.0105053
0.0101944
0.00993123
0.009737
0.00963302
0.00967039
0.00997111
0.0446538
0.0433994
0.0421659
0.040954
0.0397646
0.0385986
0.0374563
0.0363378
0.0352422
0.0341688
0.0331171
0.0320882
0.031084
0.0301057
0.0291544
0.0282301
0.0273306
0.0264526
0.0255939
0.0247541
0.0239329
0.0231307
0.0223482
0.0215859
0.0208435
0.0201226
0.0194233
0.0187473
0.0180953
0.0174702
0.016878
0.0163258
0.015828
0.0154011
0.015049
0.014767
0.0145587
0.0144276
0.0143842
0.0144374
0.014594
0.0148612
0.0152415
0.0464646
0.0453435
0.0442396
0.0431525
0.0420822
0.0410285
0.0399918
0.0389723
0.0379697
0.0369842
0.0360161
0.035065
0.0341315
0.0332163
0.0323199
0.0314416
0.0305818
0.0297393
0.0289151
0.0281082
0.0273209
0.0265523
0.0258042
0.025078
0.0243751
0.0236964
0.0230456
0.0224229
0.0218321
0.0212772
0.020762
0.0202916
0.0198715
0.0195085
0.0192079
0.0189746
0.018814
0.0187325
0.0187344
0.0188274
0.0190139
0.0192977
0.0196764
0.048117
0.0471144
0.0461254
0.0451493
0.0441855
0.0432339
0.0422944
0.0413671
0.0404522
0.0395504
0.0386612
0.0377851
0.0369225
0.0360742
0.0352398
0.0344197
0.033614
0.0328229
0.0320466
0.0312861
0.0305421
0.0298161
0.0291089
0.028423
0.0277587
0.0271194
0.0265056
0.0259211
0.0253673
0.0248482
0.0243687
0.0239331
0.0235451
0.0232107
0.0229359
0.0227255
0.0225846
0.0225202
0.0225367
0.0226383
0.0228298
0.0231117
0.0234835
0.0496146
0.0487175
0.0478293
0.0469501
0.0460792
0.0452165
0.0443625
0.0435166
0.0426793
0.0418513
0.0410318
0.0402215
0.0394217
0.0386326
0.0378544
0.0370879
0.0363328
0.0355898
0.0348586
0.0341408
0.0334366
0.032748
0.0320761
0.0314238
0.0307921
0.0301828
0.0295989
0.0290422
0.0285151
0.0280205
0.0275637
0.0271479
0.0267784
0.0264606
0.0262005
0.0260019
0.0258712
0.0258138
0.0258348
0.0259389
0.0261292
0.026407
0.0267724
0.0509706
0.0501653
0.0493643
0.0485684
0.0477783
0.0469932
0.0462127
0.0454372
0.0446669
0.0439032
0.0431447
0.0423919
0.0416454
0.0409064
0.0401766
0.0394557
0.0387445
0.0380435
0.0373528
0.0366714
0.0360016
0.0353449
0.0347031
0.0340778
0.0334722
0.0328874
0.0323264
0.0317923
0.0312868
0.0308118
0.0303711
0.0299701
0.0296132
0.0293067
0.0290552
0.0288646
0.0287393
0.0286853
0.0287076
0.02881
0.0289975
0.0292709
0.0296303
0.0521973
0.0514729
0.0507459
0.0500213
0.0493009
0.0485839
0.0478664
0.0471523
0.0464381
0.04573
0.0450249
0.0443221
0.0436216
0.042926
0.0422355
0.041553
0.0408783
0.0402124
0.0395559
0.0389079
0.0382684
0.0376388
0.0370217
0.0364199
0.0358345
0.0352683
0.0347252
0.0342091
0.033723
0.0332656
0.0328386
0.0324489
0.0321022
0.0318026
0.0315574
0.0313722
0.0312512
0.0312005
0.031222
0.031321
0.0315037
0.0317726
0.0321271
0.0533163
0.0526601
0.0519915
0.0513254
0.0506603
0.0500067
0.0493415
0.0486896
0.048016
0.0473522
0.046693
0.0460334
0.045373
0.0447161
0.0440569
0.0434043
0.0427581
0.0421183
0.0414884
0.0408694
0.0402578
0.0396522
0.0390557
0.0384741
0.0379084
0.0373582
0.0368275
0.0363235
0.0358514
0.0354169
0.0350027
0.0346233
0.0342868
0.0339944
0.0337524
0.0335756
0.0334546
0.0334122
0.0334356
0.0335286
0.033705
0.0339689
0.0343206
0.0041053
0.00540954
0.00640153
0.00744131
0.00854923
0.00971707
0.010932
0.012183
0.0134631
0.0147677
0.0160935
0.0174369
0.0187969
0.0201722
0.0215616
0.0229671
0.0243852
0.0258172
0.0272612
0.0287183
0.0301879
0.0316702
0.0331643
0.0346707
0.0361888
0.0377182
0.039259
0.040811
0.042374
0.0439476
0.0455312
0.0471243
0.0487268
0.0503382
0.0519578
0.0535848
0.0552187
0.0568588
0.0585047
0.0601553
0.0618102
0.0634682
0.0651244
0.0104932
0.0111695
0.0119487
0.0128254
0.013792
0.0148332
0.0159393
0.0170981
0.0183008
0.019537
0.0208019
0.0220911
0.0233989
0.0247213
0.0260579
0.0274047
0.0287615
0.0301264
0.0315005
0.0328815
0.0342696
0.0356647
0.0370661
0.038474
0.0398878
0.0413074
0.0427328
0.0441638
0.0456003
0.0470421
0.0484888
0.0499407
0.0513973
0.0528586
0.0543241
0.0557936
0.0572669
0.0587436
0.0602232
0.0617056
0.0631906
0.0646784
0.0661662
0.0157288
0.0163203
0.0170165
0.0178097
0.0186893
0.0196446
0.0206665
0.0217436
0.0228672
0.0240291
0.0252217
0.0264393
0.027677
0.0289311
0.0301978
0.0314753
0.0327604
0.0340524
0.0353503
0.0366527
0.0379592
0.0392683
0.0405806
0.0418947
0.0432109
0.0445293
0.0458493
0.0471707
0.0484936
0.0498178
0.0511433
0.0524703
0.0537987
0.0551281
0.0564586
0.0577902
0.059123
0.0604566
0.0617907
0.0631253
0.0644603
0.0657953
0.0671252
0.0201477
0.020713
0.0213736
0.022121
0.0229502
0.0238521
0.024817
0.0258366
0.0269013
0.0280042
0.0291382
0.0302973
0.0314764
0.0326705
0.033877
0.0350927
0.0363147
0.0375415
0.0387715
0.0400042
0.0412371
0.0424703
0.0437033
0.0449355
0.0461663
0.0473957
0.0486233
0.0498491
0.051073
0.0522952
0.0535155
0.0547341
0.0559509
0.0571659
0.0583795
0.0595915
0.0608021
0.062011
0.0632184
0.064424
0.0656278
0.0668289
0.0680238
0.0239434
0.024492
0.0251289
0.025849
0.0266454
0.0275102
0.0284355
0.0294128
0.0304342
0.0314918
0.0325796
0.0336916
0.034822
0.0359669
0.0371219
0.0382851
0.0394522
0.0406226
0.0417943
0.0429656
0.0441355
0.0453032
0.0464677
0.0476283
0.0487852
0.0499376
0.0510855
0.0522288
0.0533675
0.0545016
0.0556311
0.056756
0.0578767
0.0589931
0.0601056
0.061214
0.0623185
0.0634194
0.0645166
0.06561
0.0666997
0.0677857
0.0688675
0.0272235
0.0277604
0.0283814
0.0290816
0.0298542
0.0306928
0.031588
0.0325334
0.0335213
0.0345438
0.0355948
0.0366677
0.0377584
0.0388621
0.0399746
0.0410926
0.042214
0.043336
0.0444575
0.0455765
0.0466928
0.0478042
0.0489099
0.0500092
0.0511022
0.0521887
0.0532685
0.0543411
0.0554064
0.0564647
0.0575159
0.0585604
0.0595981
0.0606296
0.061655
0.062674
0.0636868
0.0646938
0.065695
0.0666906
0.067681
0.0686663
0.0696468
0.0300744
0.0306021
0.0312115
0.0318966
0.0326514
0.0334687
0.0343413
0.0352615
0.036223
0.0372175
0.0382385
0.0392798
0.0403367
0.0414056
0.0424825
0.0435631
0.0446448
0.0457257
0.0468041
0.0478794
0.0489495
0.0500129
0.0510678
0.0521143
0.0531528
0.0541825
0.0552041
0.056216
0.0572182
0.0582109
0.0591948
0.06017
0.0611365
0.0620946
0.0630449
0.0639866
0.0649198
0.0658453
0.0667632
0.0676734
0.0685769
0.069474
0.0703627
0.0325651
0.0330846
0.0336848
0.0343594
0.0350999
0.0358994
0.0367518
0.0376535
0.0385936
0.0395651
0.040561
0.0415758
0.0426043
0.0436439
0.0446911
0.0457396
0.0467871
0.0478321
0.0488741
0.049912
0.0509449
0.0519665
0.0529761
0.0539763
0.0549693
0.0559498
0.0569228
0.057881
0.0588292
0.0597641
0.0606903
0.0616062
0.062511
0.0634062
0.0642922
0.0651667
0.0660302
0.0668849
0.0677307
0.0685655
0.0693925
0.0702125
0.0710208
0.0347532
0.0352627
0.0358562
0.0365246
0.0372558
0.0380387
0.0388679
0.0397562
0.040677
0.0416304
0.0426047
0.0435946
0.0445989
0.0456159
0.0466405
0.0476581
0.0486764
0.0496884
0.0506993
0.0517067
0.0527109
0.0536912
0.0546589
0.0556207
0.0565813
0.0575129
0.0584532
0.0593547
0.0602621
0.0611411
0.0620226
0.0628865
0.0637373
0.06458
0.0654115
0.066225
0.0670279
0.0678234
0.0686083
0.0693743
0.0701343
0.0708883
0.0716351
0.0866346
0.0822579
0.078032
0.0739514
0.0700154
0.066223
0.0625713
0.0590574
0.0556797
0.0524349
0.04932
0.0463312
0.0434656
0.0407196
0.0380895
0.0355716
0.0331639
0.0308624
0.0286624
0.0265622
0.0245589
0.0226499
0.0208309
0.0190996
0.017454
0.0158904
0.0144082
0.013004
0.0116766
0.0104237
0.00924411
0.00813495
0.00709681
0.00612851
0.00522922
0.00439848
0.00363682
0.00294595
0.00232619
0.00178425
0.00136614
0.000976918
0.000570903
0.0882091
0.0841557
0.080225
0.0764133
0.0727205
0.0691449
0.0656854
0.0623398
0.0591067
0.0559836
0.0529679
0.0500577
0.0472504
0.0445432
0.0419337
0.0394194
0.0369983
0.0346671
0.0324243
0.0302669
0.0281941
0.0262027
0.024291
0.0224577
0.0206998
0.0190185
0.0174101
0.0158743
0.0144105
0.0130183
0.0116954
0.0104434
0.00926201
0.00815121
0.00711196
0.0061466
0.00525804
0.00445479
0.00376942
0.00312055
0.00247923
0.00180144
0.0010285
0.0897711
0.0860146
0.0823579
0.0787988
0.0753356
0.0719683
0.0686954
0.0655152
0.0624263
0.0594272
0.0565165
0.0536926
0.0509536
0.0482971
0.045721
0.0432254
0.0408069
0.0384648
0.036196
0.034001
0.0318774
0.029824
0.0278395
0.0259233
0.0240746
0.0222929
0.0205774
0.0189284
0.0173461
0.0158298
0.0143809
0.0130003
0.0116893
0.0104507
0.0092879
0.00820748
0.00722525
0.00633041
0.00545175
0.0045605
0.00362139
0.00256774
0.00140137
0.0913052
0.0878189
0.084415
0.0810892
0.0778403
0.0746671
0.0715693
0.0685454
0.0655944
0.0627153
0.059907
0.0571692
0.0544999
0.0518976
0.0493623
0.0468915
0.0444845
0.0421403
0.0398586
0.0376376
0.0354764
0.0333752
0.0313336
0.0293504
0.0274267
0.0255619
0.0237567
0.0220118
0.0203275
0.0187061
0.0171489
0.0156582
0.0142386
0.0128947
0.0116351
0.0104829
0.00937204
0.00826669
0.00714151
0.00596615
0.0046971
0.00325332
0.00171555
0.0927842
0.0895558
0.086387
0.0832772
0.0802261
0.0772333
0.0742983
0.0714202
0.0685993
0.0658338
0.063124
0.0604692
0.0578685
0.0553215
0.0528279
0.0503863
0.0479963
0.0456575
0.043369
0.0411308
0.0389429
0.0368053
0.034718
0.0326814
0.0306954
0.0287618
0.0268813
0.0250553
0.0232862
0.0215759
0.0199282
0.0183476
0.0168403
0.0154181
0.0140815
0.0127743
0.0114654
0.0101322
0.00874986
0.00728442
0.00568368
0.00386551
0.00198743
0.0942329
0.0912243
0.0882685
0.0853571
0.0824887
0.0796623
0.0768778
0.0741352
0.0714347
0.0687757
0.0661586
0.0635827
0.0610482
0.0585552
0.0561031
0.0536926
0.0513235
0.0489941
0.0467046
0.0444554
0.0422479
0.0400828
0.0379601
0.0358799
0.0338439
0.0318533
0.02991
0.028017
0.0261773
0.0243943
0.0226725
0.0210196
0.0194479
0.0179371
0.0164495
0.0149587
0.0134437
0.0118819
0.0102453
0.00849769
0.00657961
0.00441214
0.00222528
0.095603
0.0928086
0.0900522
0.0873249
0.084625
0.081952
0.079306
0.076688
0.0740984
0.0715387
0.0690076
0.0665062
0.0640346
0.0615925
0.0591807
0.0568009
0.054455
0.0521396
0.049853
0.0475965
0.0453741
0.0431874
0.041038
0.0389258
0.0368491
0.0348114
0.0328166
0.0308678
0.0289706
0.0271287
0.0253488
0.0236359
0.0219682
0.0203212
0.0186711
0.0169989
0.0152835
0.0135007
0.0116202
0.00960333
0.00738686
0.00489864
0.00243529
0.096874
0.0943027
0.0917349
0.0891773
0.0866353
0.0841029
0.0815836
0.079079
0.0765906
0.0741225
0.0716721
0.0692394
0.0668266
0.0644343
0.0620595
0.059706
0.0573837
0.0550893
0.0528121
0.0505492
0.0483132
0.0461073
0.0439398
0.0418057
0.0396987
0.0376205
0.0355842
0.0335882
0.0316441
0.0297563
0.0279211
0.0261162
0.0243238
0.0225347
0.0207274
0.018883
0.0169788
0.014989
0.0128793
0.0106059
0.00810695
0.00532808
0.00263133
0.0981465
0.0957274
0.093322
0.0909156
0.0885234
0.0861175
0.0837124
0.0813132
0.0789119
0.0765307
0.0741555
0.0717843
0.0694277
0.0670843
0.0647498
0.0624086
0.0601027
0.0578385
0.0555885
0.0533155
0.0510677
0.048836
0.046651
0.0445104
0.0423927
0.0402688
0.0382065
0.036163
0.0341763
0.0322348
0.030326
0.0284259
0.0264924
0.0245678
0.0226125
0.0206117
0.0185304
0.0163509
0.014038
0.0115211
0.00872892
0.00563991
0.0027082
0.000456712
0.000518695
0.000696404
0.000865702
0.0010402
0.00123481
0.00146561
0.0017458
0.00206338
0.00241204
0.00278943
0.00319416
0.00362597
0.00408446
0.00457011
0.00508323
0.00562446
0.00619391
0.00679254
0.00742061
0.00807883
0.00876771
0.00948771
0.01024
0.0110253
0.0118441
0.0126968
0.0135845
0.0145085
0.0154688
0.0164667
0.0175028
0.018578
0.019693
0.0208486
0.0220455
0.0232848
0.0245668
0.0258921
0.0272618
0.0286766
0.0301372
0.031646
0.000609472
0.000671544
0.000863752
0.00106672
0.00129493
0.00155997
0.00186696
0.00221758
0.00260284
0.00301612
0.00345524
0.00391932
0.00440819
0.00492169
0.00545923
0.00602152
0.00660859
0.00722051
0.00785727
0.00852002
0.00920811
0.00992244
0.0106633
0.011431
0.0122266
0.0130501
0.0139024
0.0147838
0.0156953
0.0166371
0.0176099
0.0186147
0.0196518
0.0207221
0.021826
0.0229643
0.0241376
0.0253465
0.0265918
0.0278738
0.0291935
0.0305519
0.0319526
0.000757919
0.000822928
0.00104768
0.0013023
0.00159657
0.00193302
0.00230891
0.00272447
0.00317134
0.00364362
0.0041397
0.00465889
0.00520055
0.00576427
0.00634982
0.00695674
0.00758535
0.00823551
0.00890703
0.00960022
0.0103149
0.0110514
0.0118098
0.0125906
0.013394
0.0142207
0.0150704
0.0159442
0.0168421
0.017765
0.0187128
0.0196862
0.0206858
0.0217121
0.0227656
0.0238468
0.0249561
0.026094
0.0272612
0.0284582
0.0296851
0.0309426
0.0322312
0.000895088
0.000976207
0.00124738
0.0015616
0.00192161
0.0023223
0.00275908
0.00323438
0.0037366
0.00426234
0.00481001
0.0053787
0.00596779
0.00657639
0.00720438
0.00785118
0.00851635
0.00919972
0.0099012
0.0106204
0.0113577
0.0121126
0.0128856
0.0136765
0.0144858
0.0153134
0.0161597
0.0170248
0.0179092
0.0188129
0.0197365
0.0206802
0.0216443
0.0226295
0.0236358
0.0246636
0.0257135
0.0267856
0.0278805
0.0289983
0.0301389
0.031302
0.0324872
0.00102384
0.00113471
0.00145948
0.00183374
0.00225366
0.00271122
0.00320357
0.00373169
0.00428381
0.00485776
0.00545188
0.00606525
0.00669673
0.00734554
0.00801102
0.00869272
0.00939012
0.0101026
0.0108299
0.0115718
0.0123281
0.0130986
0.0138835
0.0146824
0.0154955
0.0163231
0.0171649
0.0180212
0.0188921
0.0197777
0.0206783
0.0215942
0.0225254
0.0234722
0.024435
0.0254136
0.0264087
0.0274205
0.0284489
0.0294941
0.0305556
0.0316329
0.0327259
0.00114744
0.00129794
0.00167764
0.00210788
0.00258109
0.00308897
0.00363293
0.00420817
0.00480562
0.0054231
0.00605887
0.00671219
0.00738153
0.00806625
0.00876537
0.009478
0.0102035
0.0109416
0.0116915
0.012453
0.0132259
0.0140098
0.0148045
0.0156098
0.0164258
0.0172521
0.0180891
0.0189364
0.0197945
0.0206631
0.0215422
0.0224321
0.0233327
0.0242442
0.0251667
0.0261004
0.0270455
0.0280019
0.0289696
0.0299485
0.0309385
0.0319394
0.0329537
0.00126868
0.0014659
0.00189797
0.00237816
0.00289808
0.00345136
0.00404196
0.00465944
0.00529758
0.00595426
0.00662771
0.00731696
0.00802046
0.00873723
0.00946643
0.0102069
0.0109576
0.0117185
0.0124885
0.0132675
0.0140546
0.01485
0.0156533
0.0164638
0.0172814
0.0181058
0.0189373
0.0197762
0.0206222
0.021475
0.0223345
0.0232002
0.024072
0.0249505
0.0258359
0.0267284
0.0276278
0.0285338
0.0294461
0.0303649
0.0312898
0.0322209
0.0331584
0.00138904
0.00162511
0.00210407
0.00262989
0.00319308
0.00378979
0.0044233
0.00508059
0.00575681
0.00644975
0.00715817
0.00788119
0.00861731
0.00936434
0.0101217
0.0108875
0.011661
0.0124422
0.0132302
0.0140245
0.0148247
0.0156295
0.0164405
0.0172551
0.0180713
0.0188912
0.0197167
0.0205476
0.0213828
0.022222
0.0230634
0.0239052
0.024748
0.025595
0.0264464
0.0273016
0.0281601
0.0290206
0.0298825
0.0307462
0.0316121
0.03248
0.0333507
0.00148991
0.00182102
0.00235795
0.00292513
0.00352802
0.0041662
0.00483569
0.00552367
0.00622918
0.00695263
0.00769593
0.00845885
0.00922842
0.0100012
0.0107841
0.0115628
0.0123523
0.0131512
0.0139497
0.0147557
0.0155649
0.0163722
0.0171944
0.0180065
0.0188053
0.0196148
0.0204353
0.0212604
0.0220887
0.0229186
0.0237439
0.0245548
0.0253624
0.0261805
0.0270012
0.0278239
0.0286472
0.029467
0.0302824
0.0310954
0.0319073
0.0327185
0.0335292
4.79761e-05
0.000391172
0.000905631
0.00154807
0.00218683
0.00281852
0.00344544
0.00406475
0.0046735
0.00528101
0.00589239
0.00651116
0.00714025
0.00778327
0.00844091
0.00911323
0.00980159
0.0105068
0.0112312
0.0119763
0.0127444
0.0135373
0.014358
0.0152083
0.0160899
0.0170051
0.0179552
0.0189424
0.0199676
0.0210314
0.022136
0.0232819
0.024471
0.0257033
0.0269791
0.0282974
0.0296578
0.0310612
0.0325088
0.0340002
0.0355314
0.0370976
0.0386885
7.16705e-06
0.000188025
0.000456521
0.000817324
0.00127819
0.00184561
0.00250874
0.00318285
0.00386519
0.00455551
0.00524703
0.00593318
0.00661111
0.00727818
0.00793748
0.00859309
0.00924877
0.00990826
0.010575
0.0112523
0.0119438
0.0126533
0.0133849
0.0141423
0.0149295
0.0157503
0.0166085
0.0175075
0.0184495
0.0194376
0.0204738
0.0215603
0.0226982
0.0238888
0.025132
0.0264278
0.0277753
0.0291739
0.030623
0.0321216
0.0336667
0.0352541
0.0368765
1.75326e-06
0.000143378
0.000323156
0.000577714
0.000899899
0.00129846
0.00178058
0.00234642
0.00299705
0.00373835
0.0045198
0.00529493
0.00605861
0.00680977
0.00754853
0.00827541
0.00899051
0.00969447
0.0103889
0.0110763
0.0117595
0.0124422
0.0131283
0.0138228
0.0145314
0.0152598
0.0160145
0.0168016
0.0176272
0.0184972
0.0194171
0.0203913
0.0214238
0.0225176
0.0236749
0.0248965
0.0261823
0.0275316
0.0289432
0.0304152
0.0319445
0.0335267
0.0351559
1.92226e-06
0.00011827
0.000287068
0.000503712
0.000771215
0.00109787
0.00149103
0.00195608
0.002496
0.00311415
0.00381414
0.00460009
0.00541766
0.00623613
0.00704671
0.00784686
0.00863581
0.00941264
0.010177
0.0109285
0.0116669
0.0123928
0.0131072
0.0138125
0.0145121
0.0152106
0.015914
0.016629
0.0173636
0.0181266
0.0189267
0.0197725
0.0206724
0.0216336
0.0226624
0.0237635
0.0249395
0.0261925
0.0275219
0.0289263
0.030403
0.0319473
0.033553
1.54458e-06
0.000115468
0.000260037
0.000451175
0.000688405
0.000975349
0.00131733
0.00172009
0.00218894
0.00272643
0.00333568
0.00402075
0.00478505
0.00562822
0.0064921
0.00735335
0.00820558
0.00904723
0.0098773
0.010695
0.0114995
0.0122898
0.0130648
0.0138241
0.0145677
0.0152966
0.0160134
0.0167218
0.0174275
0.0181381
0.0188625
0.019611
0.0203948
0.0212256
0.0221146
0.0230718
0.0241056
0.0252227
0.0264272
0.0277207
0.0291024
0.0305695
0.0321176
1.47911e-06
0.000107996
0.000245038
0.000417735
0.000633656
0.000893471
0.00120152
0.00156268
0.00198246
0.00246438
0.00301169
0.00362796
0.00431733
0.00508437
0.00593243
0.00682628
0.00772748
0.00862334
0.00951028
0.0103869
0.0112523
0.0121048
0.0129429
0.013765
0.01457
0.0153562
0.0161231
0.0168712
0.0176019
0.0183188
0.0190276
0.0197361
0.0204544
0.0211946
0.0219705
0.0227962
0.0236855
0.0246514
0.0257046
0.0268529
0.028101
0.029452
0.0309112
1.38389e-06
0.000105727
0.000237321
0.000392256
0.000591886
0.000831886
0.00111535
0.00144656
0.00183012
0.00227113
0.00277211
0.00333626
0.00396801
0.00467129
0.00545026
0.00630941
0.00722983
0.00816595
0.00910038
0.0100279
0.0109463
0.0118541
0.0127498
0.0136315
0.0144972
0.015345
0.0161727
0.0169787
0.0177617
0.0185217
0.0192602
0.0199806
0.020689
0.0213942
0.0221078
0.0228442
0.0236192
0.0244502
0.0253536
0.0263445
0.0274357
0.0286381
0.0299663
1.3305e-06
0.000102796
0.000230385
0.000373897
0.000559954
0.000784183
0.00104864
0.00135682
0.00171285
0.00212139
0.00258605
0.00310975
0.00369625
0.0043493
0.00507328
0.00587275
0.00675205
0.00769776
0.00866541
0.00963505
0.0105991
0.0115552
0.0125018
0.0134367
0.0143584
0.0152643
0.0161516
0.0170183
0.0178617
0.0186795
0.0194705
0.0202345
0.0209731
0.0216905
0.0223937
0.0230932
0.0238029
0.0245396
0.0253226
0.0261718
0.027107
0.0281471
0.0293134
1.28404e-06
0.000101305
0.000226089
0.000361105
0.000534393
0.000745657
0.000994767
0.00128451
0.00161857
0.00200106
0.00243645
0.00292751
0.00347743
0.0040898
0.00476889
0.0055192
0.00634517
0.00725109
0.00822426
0.00922235
0.0102243
0.0112222
0.0122133
0.0131957
0.0141673
0.0151257
0.0160683
0.0169924
0.0178954
0.0187736
0.0196244
0.0204456
0.0212356
0.0219947
0.0227252
0.0234325
0.0241258
0.0248181
0.0255264
0.0262714
0.0270759
0.0279653
0.0289694
1.30341e-06
0.000100096
0.000222534
0.000351967
0.000513748
0.000713922
0.000950268
0.00122492
0.00154097
0.00190229
0.00231301
0.00277678
0.00329638
0.00387518
0.00451711
0.00522615
0.00600691
0.00686427
0.00780225
0.00880534
0.00983309
0.0108658
0.0118959
0.0129201
0.0139359
0.0149415
0.015934
0.0169109
0.0178691
0.0188053
0.0197158
0.0205974
0.0214468
0.0222617
0.0230409
0.0237856
0.0244999
0.0251914
0.0258723
0.0265595
0.0272751
0.0280464
0.0289096
2.2101e-06
9.91693e-05
0.000219864
0.000345261
0.000496981
0.000687476
0.00091298
0.00117476
0.00147568
0.00181936
0.00220938
0.00265004
0.00314388
0.00369409
0.0043043
0.00497834
0.00572082
0.00653612
0.00742933
0.00840389
0.00943797
0.0104954
0.0115582
0.0126189
0.0136742
0.0147218
0.0157593
0.0167838
0.0177927
0.0187826
0.0197495
0.0206898
0.0215994
0.0224746
0.0233122
0.0241102
0.0248686
0.0255902
0.0262818
0.0269549
0.027627
0.0283236
0.0290822
2.2914e-06
9.8576e-05
0.000218008
0.00034014
0.000483801
0.000665186
0.0008811
0.00113202
0.0014202
0.00174884
0.00212144
0.00254197
0.00301375
0.00353929
0.0041222
0.00476628
0.00547559
0.00625453
0.00710806
0.00804096
0.00905468
0.0101212
0.011208
0.0122999
0.0133901
0.0144752
0.0155529
0.0166205
0.0176754
0.0187142
0.0197333
0.0207287
0.0216961
0.0226312
0.0235295
0.0243873
0.0252018
0.0259723
0.0267005
0.027393
0.0280614
0.028726
0.02942
2.27147e-06
9.80585e-05
0.000216641
0.0003363
0.000473601
0.000646324
0.00085382
0.0010952
0.00137225
0.0016879
0.00204541
0.00244861
0.00290114
0.00340527
0.00396445
0.00458244
0.00526277
0.0060101
0.00682896
0.00772411
0.00870064
0.00975483
0.0108538
0.0119697
0.0130899
0.0142087
0.0153225
0.016429
0.0175254
0.0186088
0.0196756
0.020722
0.0217433
0.0227354
0.0236932
0.0246119
0.0254872
0.0263157
0.0270961
0.02783
0.0285242
0.0291921
0.0298584
2.25501e-06
9.78305e-05
0.000215669
0.000333371
0.000465807
0.000630316
0.000830118
0.00106296
0.00133034
0.00163472
0.00197915
0.00236743
0.00280294
0.00328841
0.00382695
0.0044219
0.00507692
0.00579622
0.00658454
0.00744645
0.00838677
0.00940984
0.0105043
0.011635
0.0127797
0.0139279
0.0150742
0.0162157
0.0173499
0.0184737
0.019584
0.020677
0.0217484
0.0227936
0.0238078
0.0247857
0.025722
0.0266119
0.0274518
0.02824
0.0289785
0.0296748
0.0303443
2.23978e-06
9.7629e-05
0.00021496
0.000331092
0.00045964
0.000616619
0.000809342
0.0010347
0.00129362
0.00158812
0.00192111
0.00229613
0.00271659
0.00318557
0.00370572
0.00428032
0.00491309
0.00560781
0.00636895
0.00720112
0.00810901
0.00909789
0.0101698
0.0113027
0.0124645
0.0136374
0.0148126
0.015986
0.0171545
0.0183152
0.0194651
0.0206008
0.0217182
0.0228128
0.0238797
0.0249135
0.0259087
0.0268597
0.0277613
0.0286094
0.0294025
0.0301426
0.030836
2.23174e-06
9.75373e-05
0.000214408
0.000329198
0.000454603
0.000604987
0.000791175
0.00100979
0.001261
0.00154679
0.00186968
0.0022329
0.00264004
0.00309443
0.00359832
0.00415479
0.00476767
0.00544039
0.00617726
0.00698281
0.00786197
0.00881944
0.0098602
0.0109804
0.0121498
0.0133416
0.0145421
0.0157442
0.0169439
0.0181383
0.0193246
0.0204993
0.0216589
0.022799
0.0239149
0.0250011
0.0260519
0.0270616
0.028024
0.0289335
0.0297858
0.0305782
0.0313106
2.22325e-06
9.74221e-05
0.000213903
0.000327582
0.0004504
0.000595198
0.000775081
0.000987433
0.00123177
0.00150977
0.00182371
0.00217661
0.00257184
0.00301306
0.00350239
0.00404285
0.00463786
0.00529087
0.00600612
0.00678801
0.0076411
0.00857023
0.0095808
0.0106762
0.0118415
0.0130453
0.0142662
0.0154937
0.0167219
0.0179471
0.0191668
0.0203775
0.0215758
0.0227579
0.023919
0.0250539
0.0261569
0.0272222
0.0282431
0.029213
0.0301258
0.0309758
0.0317579
2.22564e-06
9.74751e-05
0.000213594
0.000326372
0.000447085
0.000587188
0.000760914
0.000967515
0.00120559
0.00147647
0.00178241
0.00212613
0.00251086
0.00294004
0.00341628
0.00394232
0.00452118
0.00515648
0.0058522
0.00661276
0.00744236
0.0083459
0.0093289
0.0103959
0.0115454
0.0127525
0.0139884
0.0152377
0.0164915
0.0177452
0.0189957
0.0202396
0.0214737
0.0226946
0.0238975
0.0250776
0.0262294
0.0273468
0.0284232
0.0294516
0.0304248
0.0313356
0.0321767
2.22966e-06
9.76122e-05
0.000213354
0.000325335
0.000444196
0.000580439
0.000748388
0.000949606
0.00118193
0.00144632
0.00174498
0.00208041
0.00245559
0.0028739
0.00333832
0.00385131
0.00441583
0.00503515
0.00571331
0.00645448
0.00726302
0.00814335
0.00910092
0.0101408
0.0112666
0.0124673
0.0137119
0.0149787
0.0162553
0.0175351
0.0188141
0.0200887
0.0213562
0.0226129
0.0238546
0.0250767
0.0262739
0.0274402
0.0285691
0.0296535
0.0306858
0.0316582
0.0325629
2.23146e-06
9.77521e-05
0.000213178
0.000324374
0.000441667
0.000574692
0.000737147
0.00093322
0.00116028
0.00141891
0.00171087
0.00203866
0.00240523
0.00281376
0.00326744
0.00376865
0.00432003
0.00492489
0.00558711
0.00631072
0.00709991
0.00795931
0.00889389
0.00990871
0.0110091
0.0121939
0.01344
0.0147195
0.0160157
0.0173191
0.0186242
0.0199275
0.021226
0.0225159
0.0237938
0.025055
0.0262946
0.0275068
0.0286852
0.0298226
0.0309116
0.0319437
0.0329111
2.23332e-06
9.78439e-05
0.000212959
0.000323468
0.000439436
0.000569726
0.000727117
0.000918397
0.00114058
0.00139379
0.0016797
0.0020006
0.00235929
0.00275876
0.00320257
0.00369295
0.00423229
0.00482393
0.00547168
0.00617927
0.00695077
0.00779097
0.00870468
0.0096969
0.0107728
0.0119359
0.0131754
0.0144622
0.0157741
0.0170986
0.0184279
0.0197579
0.0210851
0.0224063
0.023718
0.0250157
0.0262947
0.02755
0.0287747
0.0299622
0.0311048
0.0321939
0.0332207
2.24128e-06
9.80093e-05
0.000212832
0.000322781
0.000437579
0.000565374
0.000718106
0.000904837
0.00112243
0.00137066
0.00165092
0.00196542
0.00231689
0.00270822
0.00314292
0.00362323
0.00415162
0.00473141
0.00536577
0.0060586
0.00681403
0.00763656
0.00853096
0.00950198
0.0105551
0.0116954
0.0129208
0.0142085
0.0155323
0.0168747
0.0182263
0.0195811
0.0209354
0.0222859
0.0236292
0.0249611
0.0262773
0.0275727
0.028841
0.0300754
0.0312685
0.0324114
0.0334946
2.24923e-06
9.81376e-05
0.000212741
0.000322221
0.000435945
0.000561545
0.000710172
0.000892391
0.00110558
0.00134913
0.00162421
0.00193286
0.00227769
0.00266152
0.00308768
0.00355864
0.00407694
0.00464558
0.00526762
0.00594691
0.00668767
0.00749399
0.00837044
0.00932195
0.0103542
0.0114722
0.0126786
0.013961
0.0152914
0.0166489
0.0180203
0.0193981
0.0207778
0.0221559
0.0235288
0.024893
0.026244
0.027577
0.0288863
0.030165
0.0314058
0.0326001
0.0337385
2.25542e-06
9.82965e-05
0.000212704
0.000321716
0.000434462
0.000558206
0.000703165
0.000881041
0.00109015
0.0013293
0.00159948
0.00190262
0.00224125
0.00261811
0.00303631
0.00349872
0.00400761
0.00456589
0.00517657
0.00584333
0.00657014
0.00736145
0.00822153
0.00915522
0.0101678
0.0112647
0.0124503
0.013721
0.0150532
0.0164222
0.0178108
0.0192096
0.0206131
0.0220171
0.0234181
0.0248126
0.0261964
0.027565
0.0289129
0.0302336
0.0315197
0.0327628
0.0339527
2.27031e-06
9.84878e-05
0.000212683
0.000321234
0.000433102
0.000555225
0.000696924
0.000870495
0.00107561
0.00131058
0.00157617
0.00187427
0.00220715
0.00257752
0.00298842
0.00344276
0.00394294
0.0044915
0.00509154
0.00574663
0.00646076
0.00723791
0.00808263
0.00899957
0.0099938
0.0110709
0.012236
0.0134905
0.0148191
0.0161952
0.0175984
0.0190163
0.0204419
0.0218702
0.0232978
0.024721
0.0261359
0.0275381
0.0289224
0.030283
0.0316127
0.0329038
0.034147
2.27434e-06
9.8591e-05
0.00021258
0.00032071
0.000431795
0.000552456
0.000691309
0.000860763
0.00106206
0.00129307
0.00155434
0.00184763
0.00217507
0.00253933
0.00294336
0.00339013
0.00388204
0.0044216
0.00501168
0.00565587
0.0063581
0.00712209
0.00795247
0.00885372
0.00983083
0.0108895
0.0120346
0.0132705
0.0145902
0.0159693
0.017384
0.0188186
0.0202645
0.0217159
0.0231685
0.0246187
0.0260629
0.0274968
0.0289154
0.0303133
0.0316843
0.033021
0.0343178
2.28356e-06
9.87607e-05
0.00021253
0.000320298
0.000430702
0.00055004
0.000686316
0.000851741
0.00104936
0.00127663
0.00153384
0.00182254
0.00214488
0.00250341
0.00290098
0.00334077
0.00382486
0.00435588
0.00493663
0.00557054
0.0062614
0.00701302
0.00782993
0.00871646
0.00967754
0.0107186
0.0118448
0.0130615
0.014368
0.0157454
0.017168
0.0186171
0.0200816
0.0215544
0.0230303
0.0245061
0.0259779
0.0274416
0.0288924
0.0303253
0.0317335
0.0331093
0.0344411
2.2949e-06
9.89063e-05
0.000212479
0.000319911
0.000429639
0.000547736
0.00068171
0.000843368
0.00103746
0.00126114
0.00151448
0.00179882
0.00211632
0.00246947
0.00286099
0.00329411
0.00377086
0.00429381
0.00486576
0.00549004
0.00617018
0.00691012
0.00771429
0.00858696
0.00953294
0.0105575
0.0116658
0.0128635
0.0141536
0.0155246
0.0169513
0.0184124
0.0198936
0.021386
0.0228841
0.0243838
0.0258816
0.0273734
0.0288547
0.0303203
0.031764
0.0331791
0.0345593
2.30585e-06
9.90491e-05
0.000212512
0.000319639
0.000428729
0.000545658
0.000677492
0.000835567
0.00102623
0.00124646
0.00149613
0.00177645
0.0020893
0.00243727
0.00282309
0.00324969
0.00371948
0.00423477
0.00479842
0.00541357
0.00608368
0.00681276
0.00760488
0.00846431
0.00939591
0.0104047
0.0114961
0.0126757
0.0139481
0.0153084
0.0167357
0.0182055
0.0197009
0.0212113
0.0227302
0.0242527
0.025775
0.0272933
0.0288032
0.0302997
0.031777
0.0332278
0.0346422
2.31646e-06
9.92208e-05
0.000212466
0.000319291
0.000427815
0.000543714
0.000673661
0.000828341
0.0010156
0.00123251
0.00147862
0.00175514
0.00206367
0.00240666
0.00278705
0.00320762
0.00367071
0.0041788
0.00473457
0.00534102
0.0060016
0.00672022
0.00750084
0.00834771
0.0092657
0.0102597
0.011335
0.0124974
0.0137516
0.0150982
0.0165217
0.017997
0.0195044
0.0210312
0.0225694
0.0241133
0.0256589