/*--------------------------------*- C++ -*----------------------------------*\
| =========                 |                                                 |
| \\      /  F ield         | OpenFOAM: The Open Source CFD Toolbox           |
|  \\    /   O peration     | Version:  2.3.0                                 |
|   \\  /    A nd           | Web:      www.OpenFOAM.org                      |
|    \\/     M anipulation  |                                                 |
\*---------------------------------------------------------------------------*/
FoamFile
{
    version     2.0;
    format      ascii;
    class       volScalarField;
    location    "4000";
    object      p;
}
// * * * * * * * * * * * * * * * * * * * * * * * * * * * * * * * * * * * * * //

dimensions      [0 2 -2 0 0 0 0];

internalField   nonuniform List<scalar> 
38388
(
-0.000757475
-1.0758
-2.23485
-3.46186
-4.73343
-6.0536
-7.42046
-8.84051
-10.3066
-11.82
-13.3805
-14.993
-16.6455
-18.3363
-20.054
-21.8045
-23.5713
-25.3393
-27.1057
-28.8622
-30.5914
-32.3073
-33.9494
-35.5877
-37.148
-38.6595
-40.0963
-41.4715
-42.7319
-43.8784
-44.8683
-45.577
-46.0172
-46.0638
-45.667
-44.7458
-42.9353
-39.9779
-35.0455
-27.8261
-23.1548
-27.8058
-21.7377
6.74326
6.15875
5.61655
5.05648
4.50522
3.96011
3.42434
2.90204
2.39377
1.89745
1.41984
0.958934
0.515475
0.0894231
-0.314054
-0.689592
-1.03858
-1.35062
-1.61548
-1.82109
-1.94341
-1.9704
-1.86563
-1.61823
-1.16905
-0.502714
0.45194
1.72522
3.38782
5.52851
8.19537
11.549
15.6923
20.8125
27.0941
34.7258
43.9589
55.1318
68.7189
85.193
104.324
125.325
148.068
12.6864
12.3187
12.0508
11.7662
11.4923
11.2294
10.9785
10.7371
10.5134
10.3125
10.1354
9.9838
9.87565
9.81121
9.79336
9.83671
9.94606
10.1344
10.4062
10.782
11.269
11.883
12.6469
13.5822
14.7135
16.0801
17.7027
19.6352
21.9287
24.6378
27.8392
31.611
36.0507
41.284
47.4453
54.6551
63.07
72.8271
84.0786
96.7475
110.569
125.341
140.703
18.0065
17.8645
17.8694
17.8672
17.8915
17.9418
18.0202
18.1304
18.2778
18.4643
18.6964
18.9811
19.3218
19.7209
20.1937
20.749
21.3889
22.1268
22.9752
23.9474
25.0677
26.3446
27.8073
29.4777
31.3881
33.5728
36.0675
38.9117
42.1505
45.8368
50.0272
54.7733
60.1372
66.1962
73.0054
80.6186
89.0813
98.4123
108.599
119.531
131.031
142.878
154.823
22.8174
22.7681
22.9455
23.1176
23.3219
23.5601
23.8325
24.1343
24.4743
24.8591
25.2936
25.7814
26.3315
26.9508
27.6482
28.43
29.3085
30.2881
31.3865
32.6104
33.9754
35.4939
37.1969
39.1021
41.2257
43.6099
46.2853
49.2866
52.6527
56.43
60.6621
65.3902
70.669
76.5519
83.0704
90.2778
98.1799
106.773
116.029
125.849
136.086
146.561
157.063
26.9799
27.08
27.4149
27.7292
28.0741
28.4563
28.8885
29.3461
29.8457
30.3872
30.983
31.638
32.3608
33.1583
34.0387
35.0076
36.0873
37.2727
38.5725
40.0122
41.6016
43.3459
45.2668
47.398
49.7512
52.3437
55.2196
58.4186
61.969
65.9169
70.2781
75.0662
80.3483
86.1548
92.5019
99.4209
106.91
114.945
123.5
132.497
141.809
151.283
160.754
30.7364
30.9078
31.3449
31.7633
32.2087
32.6782
33.222
33.7795
34.3938
35.0451
35.7571
36.5291
37.3593
38.2577
39.2566
40.3475
41.5637
42.8948
44.3346
45.8956
47.6076
49.4701
51.485
53.7173
56.1608
58.8399
61.7565
65.0162
68.6197
72.6102
76.991
81.7234
86.9068
92.5619
98.678
105.306
112.433
119.992
128.043
136.49
145.181
153.969
162.744
34.3652
34.4453
34.8655
35.3022
35.8051
36.3128
36.9589
37.6151
38.2816
38.978
39.7603
40.6162
41.5394
42.5105
43.5675
44.6912
45.9795
47.4315
48.9953
50.6896
52.5304
54.5494
56.6473
58.969
61.4751
64.2252
67.1035
70.3275
73.9033
77.9289
82.4127
87.1427
92.2441
97.7831
103.681
110.059
116.911
124.006
131.564
139.55
147.814
156.106
164.332
38.1451
37.9527
38.1364
38.3432
38.6919
39.1477
40.3408
41.0883
41.5859
41.9608
42.5045
43.237
44.1279
45.0568
45.9959
46.7976
47.7123
48.8006
50.0304
51.4588
53.0776
55.1303
57.1555
59.4766
61.9363
64.8047
67.626
70.5947
73.6767
77.199
82.433
86.9223
92.0359
97.9392
104.022
110.095
118.151
125.418
132.671
140.135
148.156
156.291
164.354
51.5347
106.627
142.774
170.032
191.461
208.46
222.039
232.936
241.753
248.91
254.766
259.541
263.464
266.688
269.335
271.499
273.277
274.72
275.884
276.809
277.532
278.079
278.471
278.731
278.873
278.912
278.861
278.727
278.52
278.246
277.913
277.525
277.084
276.594
276.059
275.48
274.861
274.201
273.502
272.774
272.031
271.218
270.014
169.982
187.152
202.207
215.317
226.523
236
243.953
250.591
256.095
260.651
264.407
267.493
270.017
272.076
273.734
275.063
276.101
276.897
277.492
277.92
278.21
278.377
278.441
278.41
278.298
278.113
277.862
277.552
277.187
276.773
276.314
275.813
275.275
274.7
274.095
273.46
272.797
272.109
271.396
270.671
269.934
269.072
267.93
155.607
169.709
182.789
194.652
205.25
214.613
222.818
229.968
236.174
241.549
246.187
250.194
253.654
256.636
259.208
261.423
263.326
264.954
266.338
267.509
268.488
269.299
269.958
270.481
270.884
271.177
271.372
271.478
271.504
271.458
271.344
271.167
270.935
270.65
270.318
269.939
269.518
269.058
268.561
268.036
267.483
266.749
265.547
166.567
177.908
188.629
198.572
207.64
215.808
223.09
229.53
235.188
240.133
244.442
248.181
251.415
254.208
256.616
258.686
260.461
261.976
263.264
264.35
265.263
266.022
266.644
267.147
267.541
267.838
268.05
268.185
268.252
268.254
268.2
268.092
267.935
267.734
267.492
267.211
266.893
266.54
266.153
265.738
265.291
264.72
263.773
167.397
177.422
186.98
195.936
204.201
211.739
218.54
224.633
230.053
234.855
239.089
242.812
246.079
248.938
251.439
253.619
255.521
257.17
258.598
259.83
260.89
261.795
262.559
263.201
263.73
264.16
264.501
264.763
264.952
265.075
265.135
265.141
265.095
265.004
264.869
264.696
264.484
264.238
263.961
263.66
263.328
262.945
262.597
170.084
179.147
187.817
195.988
203.591
210.579
216.926
222.651
227.785
232.36
236.42
240.016
243.189
245.985
248.442
250.6
252.486
254.133
255.567
256.817
257.9
258.833
259.629
260.305
260.869
261.342
261.729
262.046
262.294
262.474
262.595
262.663
262.681
262.658
262.595
262.496
262.358
262.192
261.993
261.766
261.507
261.211
260.904
171.414
179.832
187.897
195.527
202.67
209.284
215.3
220.741
225.653
230.046
233.967
237.459
240.554
243.298
245.72
247.867
249.748
251.398
252.846
254.118
255.24
256.214
257.034
257.733
258.336
258.857
259.301
259.681
259.982
260.202
260.367
260.484
260.552
260.59
260.589
260.548
260.464
260.362
260.224
260.062
259.87
259.603
259.213
172.503
180.442
188.03
195.226
202.02
208.402
214.187
219.377
224.095
228.314
232.117
235.506
238.513
241.226
243.624
245.78
247.636
249.255
250.688
251.986
253.148
254.116
254.899
255.614
256.278
256.844
257.326
257.729
258.036
258.238
258.437
258.583
258.677
258.785
258.836
258.81
258.741
258.715
258.637
258.513
258.357
258.154
257.684
172.524
180.399
187.753
194.63
201.182
207.491
212.977
217.935
222.68
226.76
230.416
233.681
236.633
239.406
241.702
243.788
245.472
246.957
248.324
249.697
250.786
251.658
252.454
253.319
253.958
254.504
254.823
255.398
255.56
256.02
256.366
256.535
256.734
256.997
257.031
257.008
257.074
257.312
257.323
257.289
257.243
257.316
257.718
-75.7594
-75.5227
-75.377
-75.2172
-75.0449
-74.8655
-74.6801
-74.491
-74.2987
-74.1029
-73.9037
-73.7018
-73.4977
-73.2924
-73.086
-72.88
-72.6746
-72.4697
-72.2672
-72.0682
-71.8733
-71.6834
-71.4994
-71.3224
-71.1532
-70.993
-70.843
-70.7029
-70.5741
-70.4574
-70.3532
-70.2616
-70.1835
-70.1183
-70.0653
-70.022
-69.9849
-69.9439
-69.8727
-69.7147
-69.3513
-68.4839
-66.5504
-76.3567
-75.9869
-75.7627
-75.5368
-75.3027
-75.0686
-74.8376
-74.6085
-74.3829
-74.1617
-73.9458
-73.7367
-73.5341
-73.3386
-73.1491
-72.9664
-72.7904
-72.622
-72.4597
-72.3028
-72.152
-72.0067
-71.8677
-71.7336
-71.6053
-71.482
-71.3631
-71.2492
-71.1398
-71.0339
-70.9311
-70.8302
-70.7288
-70.624
-70.5104
-70.3785
-70.2114
-69.9825
-69.6319
-68.9887
-67.6595
-65.2565
-61.9972
-76.884
-76.5406
-76.3603
-76.181
-75.9949
-75.8087
-75.6252
-75.4444
-75.2657
-75.0884
-74.9133
-74.7409
-74.571
-74.4031
-74.2387
-74.0777
-73.9181
-73.761
-73.6052
-73.4522
-73.301
-73.1506
-73.0019
-72.8548
-72.7101
-72.5666
-72.4252
-72.2854
-72.1461
-72.0063
-71.8651
-71.7195
-71.5653
-71.3958
-71.1991
-70.9563
-70.6357
-70.179
-69.4615
-68.2193
-65.999
-62.4775
-57.5724
-77.3939
-77.0011
-76.8515
-76.6985
-76.5364
-76.3721
-76.2088
-76.0465
-75.8844
-75.7226
-75.5612
-75.4008
-75.242
-75.0857
-74.9315
-74.7795
-74.6301
-74.4836
-74.3389
-74.1944
-74.0499
-73.9052
-73.7596
-73.6133
-73.4659
-73.3168
-73.1646
-73.0084
-72.8472
-72.6787
-72.4994
-72.3048
-72.0873
-71.8347
-71.5284
-71.1387
-70.611
-69.8512
-68.6845
-66.7989
-63.8277
-59.6539
-54.3945
-77.7805
-77.4606
-77.2949
-77.1438
-76.9967
-76.8493
-76.7035
-76.5607
-76.4179
-76.273
-76.1259
-75.9779
-75.8294
-75.6818
-75.537
-75.3933
-75.2508
-75.109
-74.9701
-74.8336
-74.695
-74.5522
-74.406
-74.2553
-74.1004
-73.9417
-73.7757
-73.6001
-73.4123
-73.2083
-72.9839
-72.7303
-72.4366
-72.0864
-71.6495
-71.0836
-70.3153
-69.2256
-67.6085
-65.1549
-61.5875
-56.9243
-51.5704
-78.3161
-77.8305
-77.6559
-77.5135
-77.3849
-77.2499
-77.1162
-76.9874
-76.8588
-76.7288
-76.5929
-76.4548
-76.313
-76.1693
-76.028
-75.8879
-75.7482
-75.6072
-75.4684
-75.337
-75.207
-75.0677
-74.9184
-74.7605
-74.5966
-74.4278
-74.2494
-74.0544
-73.8412
-73.6004
-73.3283
-73.0141
-72.6439
-72.199
-71.6311
-70.8903
-69.8917
-68.5021
-66.499
-63.5878
-59.561
-54.5209
-49.0374
-78.6745
-78.0691
-77.9351
-77.8043
-77.7038
-77.58
-77.4476
-77.3307
-77.2177
-77.1056
-76.982
-76.8556
-76.7205
-76.5767
-76.4411
-76.3
-76.1574
-76.0115
-75.8662
-75.7409
-75.6282
-75.4934
-75.3395
-75.1738
-74.9953
-74.8143
-74.6248
-74.4043
-74.1664
-73.8859
-73.572
-73.1999
-72.7461
-72.2147
-71.5253
-70.6168
-69.3947
-67.7477
-65.4055
-62.0053
-57.4595
-52.0421
-46.4635
-78.7533
-78.3749
-78.2461
-78.0455
-77.9729
-77.8707
-77.7249
-77.6215
-77.5196
-77.4204
-77.2923
-77.1653
-77.0303
-76.8536
-76.7168
-76.5882
-76.4608
-76.2896
-76.0786
-75.9127
-75.8441
-75.7647
-75.6251
-75.4377
-75.2182
-75.0043
-74.8293
-74.5993
-74.3646
-74.0335
-73.6593
-73.246
-72.694
-72.1329
-71.362
-70.3107
-68.9088
-67.1589
-64.7807
-61.0186
-56.2019
-50.4909
-44.8123
-78.36
-78.4606
-78.4158
-78.0656
-78.0334
-78.0729
-77.9193
-77.882
-77.9856
-78.0422
-77.9406
-77.8685
-77.8773
-77.6888
-77.3774
-77.2775
-77.3364
-77.3509
-76.9017
-76.4331
-76.3027
-76.402
-76.4372
-76.3144
-75.8716
-75.4654
-75.2398
-75.0011
-74.9079
-74.6218
-74.207
-73.5073
-72.5431
-72.0729
-71.3994
-70.0454
-68.0405
-66.4954
-63.8168
-58.3149
-51.548
-45.057
-39.9693
-58.356
-50.8651
-43.7123
-37.4554
-31.7665
-26.6196
-21.9159
-17.5911
-13.5816
-9.82015
-6.26633
-2.88836
0.350015
3.46611
6.47783
9.40001
12.2444
15.0193
17.7351
20.3949
23.0052
25.5696
28.0923
30.5778
33.0291
35.4465
37.8319
40.19
42.5211
44.8255
47.1052
49.362
51.5964
53.8096
56.0024
58.1741
60.3273
62.4605
64.578
66.6761
68.7246
70.7968
73.2473
-56.1547
-51.298
-45.7796
-40.2741
-34.7806
-29.4981
-24.4633
-19.6946
-15.1858
-10.9248
-6.8986
-3.08382
0.542331
3.99518
7.28992
10.4462
13.4762
16.3906
19.2007
21.9193
24.5494
27.1027
29.5831
31.9987
34.3547
36.6561
38.9084
41.1128
43.276
45.4008
47.4909
49.5503
51.5805
53.5827
55.5601
57.5164
59.4518
61.3705
63.2725
65.1571
66.9981
68.8683
71.0529
-51.4416
-46.4429
-41.2214
-36.2068
-31.2668
-26.5017
-21.9138
-17.5199
-13.3249
-9.32494
-5.5123
-1.87724
1.59165
4.90776
8.08137
11.1247
14.0502
16.8668
19.5826
22.2102
24.7534
27.2214
29.6207
31.9565
34.2338
36.4553
38.6282
40.754
42.8381
44.883
46.8896
48.8627
50.8038
52.7141
54.5955
56.4519
58.2816
60.0897
61.877
63.6424
65.3641
67.1047
69.092
-48.7235
-43.8686
-38.8893
-34.0935
-29.3855
-24.8601
-20.5039
-16.3314
-12.3399
-8.52019
-4.86969
-1.37644
1.96774
5.17285
8.2495
11.2053
14.0503
16.7935
19.4448
22.0087
24.4934
26.9044
29.2472
31.5247
33.7434
35.908
38.0198
40.0859
42.1089
44.0927
46.0386
47.9483
49.8231
51.6663
53.4801
55.2675
57.0285
58.7648
60.4798
62.1704
63.8202
65.4828
67.358
-46.238
-41.6488
-36.9839
-32.4136
-27.902
-23.5385
-19.3214
-15.2678
-11.3798
-7.64983
-4.0777
-0.652797
2.62775
5.77314
8.79197
11.6939
14.4874
17.18
19.7816
22.2934
24.7241
27.0809
29.3663
31.5835
33.7384
35.8345
37.8751
39.8689
41.8188
43.7297
45.5984
47.4277
49.2169
50.9731
52.6995
54.4002
56.074
57.721
59.3458
60.9467
62.5118
64.0901
65.8512
-43.7967
-39.3465
-34.8723
-30.473
-26.1413
-21.9393
-17.8695
-13.9472
-10.1709
-6.54
-3.05343
0.296216
3.50515
6.57949
9.52877
12.363
15.0943
17.7326
20.2776
22.7342
25.1051
27.402
29.6293
31.7817
33.8687
35.8937
37.8661
39.7919
41.6775
43.5231
45.3219
47.0701
48.7745
50.4481
52.0921
53.7125
55.3025
56.8636
58.3965
59.9064
61.3811
62.8595
64.4809
-41.3791
-37.1315
-32.836
-28.6074
-24.4509
-20.4095
-16.4917
-12.7066
-9.04964
-5.52023
-2.12096
1.14896
4.28337
7.28127
10.1548
12.9199
15.5937
18.1894
20.6919
23.0918
25.4071
27.6622
29.8428
31.9376
33.9641
35.9234
37.8357
39.7071
41.5441
43.3498
45.0906
46.7558
48.386
49.99
51.5666
53.1254
54.6438
56.1226
57.5732
59.0041
60.4048
61.7951
63.2935
-39.7481
-35.4429
-31.1742
-27.025
-22.9855
-19.0554
-15.2652
-11.5864
-8.01401
-4.5423
-1.17086
2.0739
5.15232
8.06913
10.8669
13.573
16.2308
18.8262
21.296
23.6225
25.8939
28.1378
30.2777
32.2898
34.2248
36.0963
37.9546
39.7941
41.6119
43.4083
45.0552
46.5795
48.1187
49.6448
51.1508
52.656
54.1007
55.4883
56.8524
58.2042
59.5342
60.8545
62.253
-36.7892
-33.2906
-29.4047
-25.5063
-21.7147
-17.9297
-14.3398
-10.7762
-7.29523
-3.88106
-0.552342
2.56892
5.48996
8.30154
10.983
13.6693
16.3596
18.9378
21.3344
23.5316
25.7575
28.0804
30.0773
31.9412
33.8629
35.7206
37.6381
39.4928
41.3056
43.0941
44.4884
45.8845
47.5304
49.0896
50.6399
52.2193
53.5894
54.8823
56.1878
57.5265
58.8778
60.2174
61.5275
-87.1915
-89.0421
-90.8802
-91.6981
-91.6401
-90.9449
-89.8319
-88.473
-86.7651
-84.5673
-81.9815
-79.176
-76.2709
-73.2527
-70.1241
-66.9552
-63.7982
-60.6663
-57.5705
-54.5486
-51.5517
-48.6757
-45.8456
-43.1289
-40.4911
-37.9567
-35.5126
-33.1671
-30.9063
-28.7388
-26.6528
-24.646
-22.7087
-20.845
-19.0454
-17.3102
-15.636
-14.0201
-12.4602
-10.9547
-9.5086
-8.11786
-6.91996
-78.1072
-77.9163
-77.6431
-77.3213
-77.0104
-76.7367
-76.5025
-76.3071
-76.1255
-75.9178
-75.6583
-75.3387
-74.9645
-74.5613
-74.1315
-73.5747
-72.8433
-71.848
-70.5857
-69.0906
-67.3389
-65.3622
-63.1735
-60.8187
-58.2987
-55.662
-52.9252
-50.14
-47.3213
-44.4923
-41.6935
-38.937
-36.2313
-33.6013
-31.0458
-28.5739
-26.1892
-23.8915
-21.6817
-19.5547
-17.5151
-15.5271
-13.8583
-81.3587
-81.3673
-81.3929
-81.4266
-81.4623
-81.4942
-81.5124
-81.5018
-81.441
-81.3028
-81.0688
-80.7261
-80.2676
-79.6827
-78.9768
-78.1597
-77.2644
-76.3079
-75.2915
-74.1805
-72.9416
-71.5328
-69.9691
-68.235
-66.332
-64.2463
-62.0027
-59.6072
-57.079
-54.4381
-51.7085
-48.9373
-46.1224
-43.3095
-40.5154
-37.7605
-35.0579
-32.4206
-29.8553
-27.3657
-24.9684
-22.6061
-20.7896
-79.8309
-79.8114
-79.7697
-79.7167
-79.6576
-79.596
-79.5335
-79.4705
-79.4059
-79.3365
-79.2558
-79.1543
-79.0237
-78.8558
-78.6406
-78.3638
-78.0091
-77.5611
-77.0011
-76.3356
-75.5798
-74.7139
-73.7178
-72.5607
-71.2337
-69.7191
-68.036
-66.1524
-64.0871
-61.859
-59.4514
-56.9188
-54.2613
-51.5183
-48.7147
-45.8865
-43.0455
-40.2292
-37.4489
-34.7152
-32.0601
-29.383
-27.4645
-80.0779
-80.0785
-80.078
-80.0735
-80.0651
-80.0522
-80.0335
-80.0077
-79.9726
-79.9263
-79.8661
-79.7886
-79.6879
-79.557
-79.3902
-79.1834
-78.9314
-78.6263
-78.2596
-77.8207
-77.298
-76.6789
-75.9707
-75.1651
-74.235
-73.1581
-71.934
-70.5323
-68.9517
-67.1909
-65.2392
-63.0998
-60.793
-58.3215
-55.7132
-53.003
-50.2046
-47.361
-44.4951
-41.6227
-38.8039
-35.8874
-34.1885
-79.7578
-79.7534
-79.744
-79.7298
-79.7111
-79.6884
-79.6619
-79.6315
-79.5969
-79.5576
-79.5124
-79.46
-79.398
-79.3234
-79.2318
-79.1178
-78.9755
-78.7998
-78.5838
-78.3191
-77.9984
-77.6083
-77.1391
-76.5788
-75.9273
-75.1684
-74.2884
-73.261
-72.0841
-70.7378
-69.2163
-67.5012
-65.6079
-63.515
-61.2471
-58.8094
-56.2266
-53.525
-50.7388
-47.8762
-45.021
-41.9602
-40.3938
-79.7001
-79.6982
-79.694
-79.6865
-79.6754
-79.6612
-79.6435
-79.6219
-79.5961
-79.5655
-79.5295
-79.487
-79.4368
-79.3772
-79.3061
-79.2205
-79.1166
-78.9901
-78.8368
-78.6504
-78.4256
-78.1551
-77.8309
-77.4407
-76.9752
-76.4227
-75.779
-75.023
-74.1464
-73.1252
-71.9506
-70.6035
-69.082
-67.3699
-65.4709
-63.382
-61.105
-58.6631
-56.0784
-53.3647
-50.6086
-47.5898
-46.0256
-79.5858
-79.5827
-79.577
-79.5684
-79.5567
-79.5421
-79.5246
-79.504
-79.4803
-79.453
-79.4219
-79.3865
-79.3459
-79.2994
-79.2453
-79.1819
-79.1065
-79.0162
-78.9075
-78.7766
-78.6188
-78.4284
-78.1986
-77.9222
-77.5891
-77.1922
-76.7184
-76.1565
-75.4975
-74.726
-73.8247
-72.7794
-71.5721
-70.1998
-68.6367
-66.893
-64.9511
-62.8256
-60.5187
-58.0354
-55.4594
-52.554
-51.2279
-79.5211
-79.5183
-79.5134
-79.5059
-79.4957
-79.4829
-79.4675
-79.4495
-79.4287
-79.4047
-79.3775
-79.3465
-79.3113
-79.2712
-79.2254
-79.1727
-79.1116
-79.0403
-78.956
-78.8557
-78.7355
-78.5921
-78.4207
-78.2152
-77.9684
-77.6734
-77.3199
-76.8984
-76.3984
-75.8097
-75.1156
-74.3043
-73.3535
-72.2588
-70.9956
-69.5623
-67.9358
-66.1176
-64.1133
-61.9072
-59.573
-56.8159
-55.8714
-79.4607
-79.4573
-79.4519
-79.4446
-79.4346
-79.4223
-79.4077
-79.3907
-79.3712
-79.3491
-79.3243
-79.2964
-79.2652
-79.2302
-79.1907
-79.1461
-79.0951
-79.0363
-78.9681
-78.8884
-78.7947
-78.6834
-78.5507
-78.3933
-78.2049
-77.9798
-77.7107
-77.3886
-77.0048
-76.5488
-76.0085
-75.3746
-74.6273
-73.7539
-72.7384
-71.5652
-70.2235
-68.6992
-66.991
-65.0678
-63.0002
-60.4511
-59.8814
-79.4131
-79.4107
-79.4062
-79.3995
-79.3904
-79.379
-79.3652
-79.3494
-79.3312
-79.3108
-79.2877
-79.2621
-79.2335
-79.2016
-79.166
-79.1263
-79.0816
-79.0311
-78.9734
-78.9069
-78.8297
-78.7396
-78.6333
-78.5078
-78.3586
-78.1817
-77.9709
-77.7195
-77.4204
-77.0638
-76.6386
-76.1372
-75.5442
-74.8456
-74.0293
-73.0746
-71.9747
-70.7086
-69.2751
-67.6449
-65.8932
-63.7398
-64.4036
-79.3801
-79.3772
-79.3721
-79.3652
-79.3562
-79.3449
-79.3316
-79.3162
-79.2989
-79.2793
-79.2576
-79.2334
-79.2068
-79.1774
-79.1449
-79.1089
-79.0687
-79.0237
-78.9731
-78.9158
-78.8499
-78.7742
-78.6862
-78.5836
-78.4627
-78.3201
-78.1513
-77.9501
-77.711
-77.4269
-77.0884
-76.6869
-76.212
-75.651
-74.992
-74.2163
-73.3126
-72.2638
-71.0611
-69.6861
-68.1889
-66.2902
-67.2751
-79.3519
-79.3493
-79.3446
-79.3379
-79.3293
-79.3187
-79.306
-79.2913
-79.2747
-79.2561
-79.2355
-79.2126
-79.1875
-79.1598
-79.1294
-79.0961
-79.0594
-79.0187
-78.9733
-78.9223
-78.8649
-78.7994
-78.7241
-78.6371
-78.5358
-78.4172
-78.2778
-78.1139
-77.9202
-77.6898
-77.4165
-77.092
-76.7066
-76.251
-75.7131
-75.0777
-74.3345
-73.4663
-72.458
-71.2786
-69.9566
-68.1828
-68.9275
-79.3326
-79.33
-79.3253
-79.3188
-79.3105
-79.3002
-79.288
-79.2738
-79.2579
-79.24
-79.2202
-79.1984
-79.1744
-79.1482
-79.1196
-79.0882
-79.0539
-79.0161
-78.9745
-78.9282
-78.8766
-78.8186
-78.7528
-78.6776
-78.5911
-78.4911
-78.3744
-78.2377
-78.0763
-77.8862
-77.662
-77.3962
-77.0804
-76.7073
-76.2651
-75.7453
-75.1298
-74.4048
-73.5586
-72.5496
-71.3997
-69.8188
-70.3883
-79.3208
-79.3182
-79.3135
-79.3071
-79.299
-79.289
-79.277
-79.2633
-79.2478
-79.2305
-79.2114
-79.1904
-79.1674
-79.1423
-79.115
-79.0854
-79.0531
-79.0179
-78.9794
-78.937
-78.8899
-78.8374
-78.7786
-78.7121
-78.6362
-78.5493
-78.4488
-78.3322
-78.1968
-78.0373
-77.8492
-77.6277
-77.3661
-77.057
-76.6897
-76.2583
-75.7483
-75.1462
-74.4416
-73.5932
-72.6148
-71.3022
-72.1452
-79.316
-79.3132
-79.3082
-79.3017
-79.2935
-79.2836
-79.2719
-79.2585
-79.2434
-79.2266
-79.2081
-79.1877
-79.1656
-79.1415
-79.1154
-79.087
-79.0563
-79.023
-78.9867
-78.9471
-78.9036
-78.8555
-78.8023
-78.7427
-78.6755
-78.599
-78.5118
-78.4113
-78.2946
-78.1591
-78.0011
-77.815
-77.5959
-77.3374
-77.0312
-76.6697
-76.2444
-75.7418
-75.1511
-74.4389
-73.6166
-72.548
-73.5008
-79.3167
-79.3137
-79.3085
-79.3018
-79.2936
-79.2838
-79.2722
-79.2589
-79.2441
-79.2277
-79.2096
-79.1899
-79.1685
-79.1453
-79.1202
-79.0931
-79.0639
-79.0324
-78.9981
-78.961
-78.9205
-78.8759
-78.8267
-78.7721
-78.7114
-78.6432
-78.5658
-78.4775
-78.3764
-78.2593
-78.123
-77.9641
-77.7785
-77.56
-77.3035
-77.0006
-76.6437
-76.2231
-75.7308
-75.1461
-74.4755
-73.6576
-74.7211
-79.3179
-79.3151
-79.3101
-79.3036
-79.2958
-79.2864
-79.2753
-79.2626
-79.2483
-79.2325
-79.2151
-79.1961
-79.1754
-79.1531
-79.129
-79.103
-79.075
-79.0449
-79.0125
-78.9774
-78.9393
-78.898
-78.8527
-78.8027
-78.7472
-78.6855
-78.6163
-78.5381
-78.4489
-78.3468
-78.229
-78.0925
-77.9334
-77.7472
-77.5287
-77.2715
-76.9692
-76.6159
-76.2011
-75.708
-75.1338
-74.4327
-75.0258
-79.3239
-79.3213
-79.3168
-79.3107
-79.3031
-79.294
-79.2833
-79.2708
-79.2569
-79.2415
-79.2246
-79.2062
-79.1862
-79.1646
-79.1413
-79.1163
-79.0895
-79.0607
-79.0298
-78.9966
-78.9607
-78.9218
-78.8796
-78.8334
-78.7825
-78.7263
-78.6635
-78.5933
-78.5139
-78.4238
-78.3207
-78.202
-78.0641
-77.9041
-77.7173
-77.4988
-77.2418
-76.9392
-76.5826
-76.1585
-75.6571
-75.0252
-75.0769
-79.3382
-79.335
-79.3297
-79.3231
-79.3153
-79.3061
-79.2954
-79.2831
-79.2694
-79.2543
-79.2377
-79.2198
-79.2003
-79.1794
-79.1569
-79.1329
-79.1071
-79.0796
-79.0502
-79.0185
-78.9846
-78.9479
-78.9082
-78.865
-78.8178
-78.7661
-78.709
-78.6455
-78.5744
-78.4942
-78.4031
-78.299
-78.1795
-78.041
-77.8798
-77.6912
-77.4703
-77.2104
-76.905
-76.5395
-76.1064
-75.5738
-75.4565
-79.3515
-79.3486
-79.3435
-79.3371
-79.3295
-79.3204
-79.3099
-79.2979
-79.2845
-79.2697
-79.2535
-79.236
-79.2171
-79.1968
-79.1751
-79.1518
-79.127
-79.1005
-79.0722
-79.0421
-79.01
-78.9754
-78.9382
-78.8979
-78.8542
-78.8065
-78.754
-78.6961
-78.6317
-78.5597
-78.4786
-78.3864
-78.281
-78.1595
-78.019
-77.856
-77.6658
-77.4422
-77.1791
-76.8634
-76.4891
-76.0352
-75.9191
-79.37
-79.3668
-79.3614
-79.3548
-79.347
-79.3378
-79.3273
-79.3154
-79.3021
-79.2875
-79.2717
-79.2546
-79.2362
-79.2165
-79.1954
-79.1729
-79.149
-79.1236
-79.0966
-79.0677
-79.037
-79.0042
-78.9692
-78.9315
-78.8905
-78.846
-78.7977
-78.7446
-78.686
-78.621
-78.548
-78.4658
-78.3728
-78.2661
-78.1432
-78.0002
-77.8336
-77.6383
-77.4078
-77.1307
-76.7988
-76.3945
-76.2418
-79.3868
-79.3836
-79.3784
-79.372
-79.3644
-79.3556
-79.3455
-79.3339
-79.3211
-79.3069
-79.2915
-79.2749
-79.257
-79.2378
-79.2174
-79.1956
-79.1725
-79.148
-79.122
-79.0945
-79.0653
-79.0341
-79.0008
-78.9651
-78.9268
-78.8854
-78.8404
-78.7915
-78.7378
-78.6785
-78.6129
-78.5392
-78.4555
-78.3607
-78.2525
-78.1276
-77.9828
-77.8135
-77.6146
-77.3758
-77.0914
-76.7633
-76.7996
-79.4059
-79.4031
-79.3981
-79.3918
-79.3844
-79.3758
-79.3658
-79.3545
-79.3418
-79.3279
-79.3128
-79.2966
-79.2792
-79.2605
-79.2407
-79.2196
-79.1972
-79.1735
-79.1485
-79.122
-79.094
-79.0643
-79.0327
-78.9991
-78.9631
-78.9244
-78.8825
-78.837
-78.7875
-78.7331
-78.6731
-78.6063
-78.5319
-78.4476
-78.3511
-78.2401
-78.1117
-77.9633
-77.7895
-77.58
-77.3306
-77.0704
-77.3004
-79.4277
-79.4247
-79.4196
-79.4134
-79.4059
-79.3974
-79.3876
-79.3765
-79.364
-79.3504
-79.3356
-79.3197
-79.3026
-79.2844
-79.2651
-79.2446
-79.2228
-79.1999
-79.1757
-79.1502
-79.1232
-79.0948
-79.0647
-79.0326
-78.9985
-78.9619
-78.9226
-78.8803
-78.8345
-78.7845
-78.7296
-78.6687
-78.6007
-78.5243
-78.4379
-78.3398
-78.227
-78.0968
-77.9478
-77.7736
-77.5652
-77.3455
-77.7876
-79.4525
-79.4492
-79.4438
-79.4372
-79.4296
-79.4209
-79.4111
-79.3999
-79.3875
-79.374
-79.3594
-79.3437
-79.3269
-79.3091
-79.2901
-79.2701
-79.249
-79.2267
-79.2033
-79.1786
-79.1527
-79.1253
-79.0964
-79.0659
-79.0335
-78.999
-78.9621
-78.9223
-78.8792
-78.8323
-78.7814
-78.7257
-78.6639
-78.5945
-78.5162
-78.4267
-78.3239
-78.2054
-78.0662
-77.9029
-77.7135
-77.4751
-76.8376
-79.4742
-79.4711
-79.4658
-79.4594
-79.452
-79.4435
-79.4339
-79.4231
-79.411
-79.3977
-79.3834
-79.368
-79.3515
-79.334
-79.3155
-79.2959
-79.2753
-79.2536
-79.2307
-79.2068
-79.1817
-79.1553
-79.1276
-79.0982
-79.0672
-79.0342
-78.9992
-78.9616
-78.9213
-78.8779
-78.8306
-78.7784
-78.7208
-78.6569
-78.5852
-78.5036
-78.4099
-78.3004
-78.1714
-78.02
-77.8406
-77.5962
-77.0551
-79.4985
-79.4954
-79.4901
-79.4838
-79.4764
-79.4679
-79.4582
-79.4473
-79.4353
-79.4222
-79.408
-79.3928
-79.3766
-79.3594
-79.3412
-79.322
-79.3018
-79.2806
-79.2584
-79.235
-79.2106
-79.1849
-79.158
-79.1298
-79.1
-79.0686
-79.0352
-78.9995
-78.9612
-78.9199
-78.8753
-78.8266
-78.7733
-78.7138
-78.6472
-78.5719
-78.4857
-78.386
-78.2692
-78.1343
-77.9847
-77.8105
-77.2169
-79.5223
-79.5191
-79.5138
-79.5074
-79.4999
-79.4915
-79.482
-79.4713
-79.4595
-79.4465
-79.4325
-79.4175
-79.4016
-79.3846
-79.3667
-79.3478
-79.328
-79.3072
-79.2854
-79.2626
-79.2388
-79.2139
-79.1878
-79.1605
-79.1317
-79.1014
-79.0692
-79.035
-78.9985
-78.9593
-78.9169
-78.871
-78.8208
-78.7652
-78.703
-78.6325
-78.5523
-78.4596
-78.3504
-78.2227
-78.0753
-77.8978
-77.5309
-79.5468
-79.5435
-79.5381
-79.5317
-79.5243
-79.5159
-79.5063
-79.4957
-79.4839
-79.471
-79.4571
-79.4423
-79.4265
-79.4098
-79.3921
-79.3735
-79.354
-79.3335
-79.3122
-79.2898
-79.2665
-79.2421
-79.2166
-79.19
-79.162
-79.1327
-79.1017
-79.0689
-79.0339
-78.9966
-78.9564
-78.9128
-78.8651
-78.8124
-78.754
-78.6882
-78.6129
-78.5259
-78.4244
-78.3076
-78.1767
-78.024
-77.4856
-79.5701
-79.567
-79.5617
-79.5553
-79.5479
-79.5395
-79.5301
-79.5196
-79.508
-79.4952
-79.4815
-79.4668
-79.4512
-79.4346
-79.4172
-79.3988
-79.3796
-79.3594
-79.3384
-79.3164
-79.2935
-79.2697
-79.2448
-79.2188
-79.1916
-79.1629
-79.1329
-79.1012
-79.0674
-79.0313
-78.9925
-78.9507
-78.9053
-78.8555
-78.8003
-78.7381
-78.6676
-78.5868
-78.4919
-78.381
-78.2517
-78.0836
-77.7135
-79.5938
-79.5906
-79.5853
-79.5789
-79.5716
-79.5633
-79.5539
-79.5435
-79.5319
-79.5193
-79.5056
-79.491
-79.4756
-79.4592
-79.4419
-79.4237
-79.4046
-79.3847
-79.3639
-79.3423
-79.3197
-79.2962
-79.2717
-79.2462
-79.2196
-79.1919
-79.1626
-79.1317
-79.0989
-79.064
-79.027
-78.9871
-78.9436
-78.896
-78.8437
-78.7852
-78.7192
-78.644
-78.5575
-78.46
-78.3535
-78.2304
-77.8172
-79.6173
-79.6141
-79.6088
-79.6025
-79.5951
-79.5868
-79.5775
-79.5671
-79.5555
-79.543
-79.5294
-79.5149
-79.4995
-79.4833
-79.4661
-79.4481
-79.4292
-79.4095
-79.389
-79.3676
-79.3453
-79.3222
-79.2982
-79.2731
-79.2469
-79.2195
-79.191
-79.1609
-79.1292
-79.0955
-79.0594
-79.0207
-78.9791
-78.9336
-78.8836
-78.8281
-78.7659
-78.6953
-78.6144
-78.5223
-78.4186
-78.2956
-78.0564
-79.6413
-79.6379
-79.6325
-79.626
-79.6185
-79.6102
-79.6008
-79.5904
-79.5789
-79.5663
-79.5528
-79.5384
-79.5231
-79.5069
-79.4898
-79.472
-79.4532
-79.4337
-79.4133
-79.3921
-79.3701
-79.3472
-79.3234
-79.2987
-79.273
-79.2462
-79.2182
-79.1888
-79.1578
-79.125
-79.0902
-79.0529
-79.0127
-78.9691
-78.9212
-78.8685
-78.8093
-78.7422
-78.665
-78.5766
-78.4785
-78.3633
-77.9545
-79.6633
-79.6601
-79.6548
-79.6484
-79.6411
-79.6327
-79.6234
-79.6131
-79.6017
-79.5892
-79.5757
-79.5613
-79.5461
-79.53
-79.513
-79.4952
-79.4766
-79.4572
-79.437
-79.4159
-79.3941
-79.3714
-79.3479
-79.3236
-79.2982
-79.2718
-79.2443
-79.2155
-79.1851
-79.1531
-79.1191
-79.0829
-79.0441
-79.0023
-78.9566
-78.9062
-78.8504
-78.7877
-78.7165
-78.635
-78.5432
-78.4419
-78.3584
-79.6865
-79.6831
-79.6776
-79.6711
-79.6636
-79.6552
-79.6458
-79.6355
-79.624
-79.6115
-79.5981
-79.5838
-79.5685
-79.5525
-79.5356
-79.5179
-79.4993
-79.48
-79.4599
-79.439
-79.4174
-79.3949
-79.3716
-79.3474
-79.3224
-79.2963
-79.2691
-79.2408
-79.2112
-79.18
-79.147
-79.1119
-79.0742
-79.0337
-78.9898
-78.9417
-78.8883
-78.8287
-78.7614
-78.6841
-78.5978
-78.5036
-78.3503
-79.7074
-79.7041
-79.6987
-79.6923
-79.685
-79.6766
-79.6673
-79.657
-79.6456
-79.6332
-79.6198
-79.6055
-79.5904
-79.5743
-79.5575
-79.5398
-79.5214
-79.5021
-79.4821
-79.4613
-79.4397
-79.4174
-79.3943
-79.3704
-79.3456
-79.3199
-79.2931
-79.2652
-79.236
-79.2054
-79.1731
-79.1388
-79.1024
-79.0635
-79.0212
-78.9753
-78.925
-78.8688
-78.8055
-78.7342
-78.6571
-78.5719
-78.4465
-79.7288
-79.7255
-79.7201
-79.7136
-79.7062
-79.6979
-79.6885
-79.6782
-79.6669
-79.6544
-79.6411
-79.6268
-79.6116
-79.5956
-79.5788
-79.5612
-79.5428
-79.5236
-79.5036
-79.4829
-79.4615
-79.4392
-79.4162
-79.3925
-79.3678
-79.3422
-79.3159
-79.2884
-79.2597
-79.2296
-79.1981
-79.1648
-79.1293
-79.0914
-79.0508
-79.0064
-78.958
-78.9052
-78.8465
-78.7798
-78.7028
-78.6147
-78.6172
-79.7496
-79.7462
-79.7408
-79.7343
-79.7268
-79.7185
-79.7091
-79.6988
-79.6874
-79.675
-79.6617
-79.6474
-79.6322
-79.6163
-79.5995
-79.5819
-79.5635
-79.5443
-79.5244
-79.5037
-79.4824
-79.4602
-79.4373
-79.4137
-79.3893
-79.364
-79.3377
-79.3104
-79.2822
-79.2526
-79.2216
-79.1889
-79.1545
-79.1178
-79.0784
-79.0362
-78.99
-78.9392
-78.8832
-78.8201
-78.7421
-78.6417
-78.6779
-79.7696
-79.7662
-79.7608
-79.7543
-79.7469
-79.7385
-79.7291
-79.7188
-79.7074
-79.695
-79.6817
-79.6674
-79.6523
-79.6363
-79.6195
-79.6019
-79.5835
-79.5644
-79.5445
-79.5238
-79.5025
-79.4804
-79.4576
-79.434
-79.4097
-79.3845
-79.3585
-79.3315
-79.3035
-79.2744
-79.2439
-79.2119
-79.178
-79.1422
-79.1042
-79.0634
-79.0191
-78.9709
-78.9175
-78.8587
-78.7975
-78.7346
-78.5383
-79.7892
-79.7858
-79.7804
-79.7739
-79.7664
-79.758
-79.7486
-79.7383
-79.7269
-79.7145
-79.7011
-79.6868
-79.6717
-79.6557
-79.6389
-79.6213
-79.6029
-79.5837
-79.5638
-79.5432
-79.5218
-79.4997
-79.4769
-79.4533
-79.4291
-79.404
-79.3781
-79.3514
-79.3237
-79.2947
-79.2646
-79.2331
-79.2001
-79.1652
-79.1279
-79.0881
-79.0454
-78.9993
-78.9492
-78.8944
-78.8342
-78.7764
-78.7452
-79.808
-79.8046
-79.7992
-79.7927
-79.7852
-79.7768
-79.7674
-79.7571
-79.7457
-79.7333
-79.7199
-79.7056
-79.6905
-79.6745
-79.6576
-79.64
-79.6216
-79.6024
-79.5825
-79.5619
-79.5405
-79.5184
-79.4957
-79.4721
-79.4479
-79.4228
-79.397
-79.3703
-79.3426
-79.3141
-79.2844
-79.2532
-79.2205
-79.1861
-79.1499
-79.1112
-79.0697
-79.0246
-78.9752
-78.9207
-78.8608
-78.7993
-78.6935
-79.8267
-79.8233
-79.8178
-79.8113
-79.8038
-79.7953
-79.7859
-79.7755
-79.7641
-79.7517
-79.7383
-79.7239
-79.7087
-79.6927
-79.6758
-79.6581
-79.6397
-79.6205
-79.6005
-79.5798
-79.5584
-79.5363
-79.5134
-79.4899
-79.4656
-79.4406
-79.4148
-79.3882
-79.3607
-79.3321
-79.3025
-79.2717
-79.2394
-79.2054
-79.1694
-79.1314
-79.0906