/*--------------------------------*- C++ -*----------------------------------*\
| =========                 |                                                 |
| \\      /  F ield         | OpenFOAM: The Open Source CFD Toolbox           |
|  \\    /   O peration     | Version:  2.3.0                                 |
|   \\  /    A nd           | Web:      www.OpenFOAM.org                      |
|    \\/     M anipulation  |                                                 |
\*---------------------------------------------------------------------------*/
FoamFile
{
    version     2.0;
    format      ascii;
    class       surfaceScalarField;
    location    "4000";
    object      phi;
}
// * * * * * * * * * * * * * * * * * * * * * * * * * * * * * * * * * * * * * //

dimensions      [0 3 -1 0 0 0 0];

internalField   nonuniform List<scalar> 
76436
(
-0.00696881
-0.00467658
0.00513759
0.00650781
-0.00738762
-0.00445515
0.00487396
-0.00776569
-0.00424181
0.00461988
-0.00810776
-0.00404031
0.00438239
-0.00841137
-0.00384499
0.00414859
-0.00867812
-0.00365872
0.00392548
-0.00890938
-0.00347963
0.00371088
-0.00910977
-0.00330606
0.00350644
-0.0092751
-0.00314102
0.00330635
-0.00941137
-0.00297787
0.00311413
-0.00951685
-0.00282568
0.00293115
-0.00959029
-0.00267726
0.0027507
-0.00963673
-0.00253425
0.00258069
-0.0096513
-0.0023965
0.00241108
-0.00964424
-0.00226042
0.00225336
-0.00960742
-0.00213438
0.00209755
-0.00954448
-0.0020082
0.00194526
-0.00945571
-0.00188846
0.0017997
-0.00934315
-0.00177172
0.00165915
-0.00920886
-0.00165786
0.00152356
-0.00905169
-0.00155022
0.00139305
-0.00887297
-0.00144208
0.00126336
-0.00867464
-0.0013429
0.00114457
-0.00845986
-0.00124014
0.00102535
-0.00822561
-0.00114598
0.000911731
-0.00797853
-0.0010508
0.000803724
-0.00772145
-0.000958487
0.000701414
-0.00745333
-0.000870378
0.000602256
-0.00718354
-0.000780038
0.000510249
-0.00690942
-0.000695454
0.000421326
-0.00663872
-0.000608632
0.000337938
-0.00637506
-0.000524429
0.000260774
-0.00612372
-0.000438938
0.000187599
-0.0058897
-0.000354284
0.000120262
-0.00568038
-0.000269015
5.96998e-05
-0.00550345
-0.000180263
3.33044e-06
-0.00536624
-9.0699e-05
-4.6512e-05
-0.0052767
1.01698e-06
-9.05567e-05
-0.00524572
9.73835e-05
-0.000128362
-0.00528471
0.000196266
-0.000157273
-0.00539536
0.00029095
-0.000180294
-0.00558044
0.000382792
-0.00019772
0.000468494
-0.00589519
-0.000153741
-0.00629577
-0.00426488
0.00588406
-0.00667396
-0.00407695
-0.00701111
-0.00390467
-0.00731802
-0.0037334
-0.00759288
-0.00357013
-0.0078392
-0.0034124
-0.00805642
-0.0032624
-0.0082444
-0.00311808
-0.00840981
-0.00297561
-0.00854599
-0.00284168
-0.00866179
-0.00270988
-0.00875277
-0.00258628
-0.00882473
-0.0024623
-0.00887637
-0.00234485
-0.0089049
-0.00223189
-0.00891932
-0.00211996
-0.00891518
-0.00201233
-0.00889313
-0.00191052
-0.0088588
-0.00180605
-0.00880959
-0.00170706
-0.00874628
-0.00161352
-0.00867316
-0.00151521
-0.00859068
-0.00142538
-0.00849673
-0.00133409
-0.00839718
-0.00124554
-0.00829093
-0.00115705
-0.00817861
-0.00107081
-0.00806404
-0.000984955
-0.00794443
-0.000899641
-0.00782536
-0.000814526
-0.00770315
-0.000730846
-0.00758061
-0.00064696
-0.00745606
-0.000563495
-0.00733288
-0.000477455
-0.00720797
-0.000393927
-0.00708029
-0.000307947
-0.0069449
-0.000226085
-0.00680135
-0.00014253
-0.00664354
-6.04271e-05
-0.00646115
1.38719e-05
-0.00625472
8.45186e-05
-0.00601219
0.000140262
0.000186723
-0.00573042
-0.00568495
-0.00389672
0.00531679
-0.0060173
-0.00374461
-0.00632305
-0.00359892
-0.00659706
-0.00345938
-0.0068423
-0.00332489
-0.00705894
-0.00319577
-0.00725316
-0.00306818
-0.00742399
-0.00294725
-0.00757004
-0.00282956
-0.00769676
-0.00271496
-0.00780021
-0.00260642
-0.00788574
-0.00250075
-0.00795188
-0.00239616
-0.00800119
-0.00229555
-0.00803409
-0.00219898
-0.00805099
-0.00210306
-0.00805246
-0.00201087
-0.00804397
-0.00191901
-0.00801763
-0.00183239
-0.0079806
-0.0017441
-0.00793654
-0.00165758
-0.00787598
-0.00157577
-0.00780927
-0.00149209
-0.00773216
-0.0014112
-0.00764625
-0.00133144
-0.00755565
-0.00124766
-0.00745666
-0.0011698
-0.00735075
-0.00109086
-0.00723972
-0.00101067
-0.00712451
-0.000929739
-0.00700484
-0.000850516
-0.00688012
-0.000771675
-0.00675145
-0.00069217
-0.00661749
-0.000611412
-0.00647985
-0.000531574
-0.0063356
-0.000452196
-0.00618781
-0.000373874
-0.00602886
-0.000301473
-0.00586233
-0.000226962
-0.00568542
-0.000163038
-0.00549637
-0.000104532
-0.00530111
-5.49992e-05
-1.457e-05
-0.00509981
-0.00513257
-0.00356877
0.00480462
-0.00542936
-0.00344781
-0.00569891
-0.00332938
-0.00594364
-0.00321465
-0.00616408
-0.00310445
-0.00636116
-0.00299869
-0.00653388
-0.00289546
-0.00668569
-0.00279544
-0.00681743
-0.00269783
-0.00692977
-0.00260262
-0.00702439
-0.0025118
-0.00710198
-0.00242316
-0.0071615
-0.00233664
-0.00720488
-0.00225217
-0.00723569
-0.00216817
-0.00725284
-0.00208592
-0.00725509
-0.00200861
-0.00724448
-0.00192961
-0.00722479
-0.00185208
-0.0071929
-0.00177598
-0.00714949
-0.00170099
-0.00709785
-0.00162741
-0.00703685
-0.00155308
-0.00696984
-0.00147821
-0.00689416
-0.00140712
-0.00680941
-0.00133241
-0.0067198
-0.0012594
-0.00662341
-0.00118725
-0.00652038
-0.0011137
-0.00640967
-0.00104045
-0.00629574
-0.000964441
-0.00617675
-0.000890668
-0.00605262
-0.0008163
-0.0059239
-0.00074013
-0.00578789
-0.000667584
-0.00564631
-0.000593772
-0.00549977
-0.000520422
-0.00534925
-0.000451989
-0.00519017
-0.000386043
-0.00502786
-0.000325349
-0.00486321
-0.00026918
-0.00469653
-0.00022168
-0.00018231
-0.00452879
-0.00463337
-0.00327598
0.00434059
-0.00490033
-0.00318085
-0.00514433
-0.00308537
-0.00536165
-0.00299733
-0.00555784
-0.00290826
-0.00573286
-0.00282366
-0.0058876
-0.00274073
-0.00602288
-0.00266016
-0.00614056
-0.00258014
-0.00624106
-0.00250212
-0.006325
-0.00242786
-0.00639269
-0.00235547
-0.00644773
-0.0022816
-0.00648871
-0.00221119
-0.00651451
-0.00214237
-0.00652542
-0.00207501
-0.00652987
-0.00200416
-0.0065201
-0.00193938
-0.00649967
-0.00187251
-0.00647058
-0.00180507
-0.00643143
-0.00174015
-0.0063827
-0.00167613
-0.00632775
-0.00160803
-0.00626216
-0.0015438
-0.00619209
-0.00147719
-0.00611219
-0.00141231
-0.00602803
-0.00134356
-0.00593872
-0.00127657
-0.00584095
-0.00121147
-0.00573977
-0.00114162
-0.00563361
-0.0010706
-0.00552147
-0.00100281
-0.00540474
-0.000933034
-0.00528442
-0.000860447
-0.00516065
-0.000791356
-0.00503309
-0.000721333
-0.00489955
-0.000653958
-0.00476355
-0.000587996
-0.00462379
-0.000525803
-0.00448313
-0.000466
-0.00433845
-0.000413866
-0.00419321
-0.000366919
-0.000326224
-0.00404929
-0.00418547
-0.00301414
0.00392363
-0.00442352
-0.00294281
-0.00464057
-0.00286832
-0.004837
-0.0028009
-0.00501169
-0.00273357
-0.00517004
-0.00266532
-0.00531007
-0.00260069
-0.00543124
-0.00253899
-0.00553753
-0.00247386
-0.00562567
-0.00241398
-0.00569956
-0.00235397
-0.00576273
-0.00229231
-0.00581044
-0.00223389
-0.00584473
-0.00217689
-0.00586926
-0.00211784
-0.00588251
-0.00206176
-0.00588144
-0.00200523
-0.00587453
-0.00194629
-0.00585561
-0.00189144
-0.00582652
-0.00183416
-0.00579074
-0.00177594
-0.00574701
-0.00171986
-0.00569389
-0.00166115
-0.00563652
-0.00160117
-0.00557194
-0.00154176
-0.00550013
-0.00148413
-0.00542171
-0.00142198
-0.00533787
-0.00136041
-0.00525038
-0.00129895
-0.00515894
-0.00123307
-0.00505952
-0.00117002
-0.00495679
-0.00110553
-0.00485133
-0.00103849
-0.00474089
-0.000970889
-0.00462806
-0.00090419
-0.00450881
-0.000840579
-0.00438863
-0.000774139
-0.00426588
-0.000710741
-0.00414015
-0.000651537
-0.00401168
-0.000594465
-0.00388297
-0.000542583
-0.0037546
-0.000495286
-0.000457281
-0.00362354
-0.00378102
-0.00277803
0.00354491
-0.00399781
-0.00272602
-0.00418967
-0.00267646
-0.00436668
-0.00262389
-0.0045259
-0.00257435
-0.00466623
-0.00252498
-0.00479137
-0.00247555
-0.00489986
-0.00243049
-0.0049953
-0.00237842
-0.00507661
-0.00233267
-0.00514552
-0.00228506
-0.00519936
-0.00223846
-0.00524014
-0.00219311
-0.00527456
-0.00214247
-0.00529442
-0.00209798
-0.00530524
-0.00205094
-0.00530688
-0.00200359
-0.00529801
-0.00195517
-0.00528209
-0.00190736
-0.0052547
-0.00186155
-0.00522227
-0.00180836
-0.00518188
-0.00176026
-0.00513396
-0.00170907
-0.00507993
-0.0016552
-0.00501881
-0.00160288
-0.00495544
-0.0015475
-0.00488236
-0.00149506
-0.00480889
-0.00143388
-0.00472852
-0.00137933
-0.00463984
-0.00132174
-0.00455036
-0.0012595
-0.00445821
-0.00119768
-0.00436263
-0.00113407
-0.00426
-0.00107352
-0.00415586
-0.00100834
-0.00405072
-0.000945715
-0.00394148
-0.000883383
-0.00382961
-0.000822607
-0.00371651
-0.000764635
-0.00360185
-0.000709132
-0.00348603
-0.000658399
-0.00336757
-0.000613745
-0.000571697
-0.00325316
-0.003417
-0.00256707
0.00320604
-0.00361077
-0.00253225
-0.00378673
-0.0025005
-0.00394377
-0.00246685
-0.00408859
-0.00242953
-0.00421566
-0.00239792
-0.00432618
-0.00236504
-0.00442722
-0.00232945
-0.00451088
-0.00229476
-0.004584
-0.00225956
-0.00464564
-0.00222341
-0.00469394
-0.00219017
-0.00473437
-0.00215267
-0.00476208
-0.00211477
-0.00478105
-0.00207901
-0.00479248
-0.0020395
-0.00479051
-0.00200557
-0.00478282
-0.00196285
-0.0047652
-0.00192498
-0.00474575
-0.001881
-0.00471367
-0.00184044
-0.00467829
-0.00179563
-0.00463552
-0.00175183
-0.00458374
-0.00170698
-0.00452774
-0.00165887
-0.00446747
-0.00160778
-0.00440409
-0.00155843
-0.00433285
-0.00150512
-0.00426159
-0.00145059
-0.00418504
-0.0013983
-0.0041028
-0.00134174
-0.004017
-0.00128348
-0.00392629
-0.00122478
-0.0038368
-0.001163
-0.00374211
-0.00110303
-0.00364565
-0.00104217
-0.00354698
-0.000982055
-0.0034472
-0.000922381
-0.00334417
-0.000867666
-0.00323937
-0.000813936
-0.00313351
-0.000764261
-0.00302868
-0.000718568
-0.000677203
-0.00292318
-0.00309017
-0.00237641
0.00289951
-0.00326269
-0.00235973
-0.00342204
-0.00234115
-0.00356679
-0.0023221
-0.00369314
-0.00230318
-0.00380933
-0.00228173
-0.00391068
-0.00226368
-0.00400144
-0.0022387
-0.00407715
-0.00221905
-0.00414338
-0.00219333
-0.00419776
-0.00216903
-0.00424451
-0.00214341
-0.00427997
-0.00211722
-0.00430496
-0.00208977
-0.00432271
-0.00206126
-0.00432907
-0.00203314
-0.0043351
-0.00199954
-0.00432619
-0.00197176
-0.00431363
-0.00193755
-0.00429298
-0.00190165
-0.00426489
-0.00186853
-0.0042299
-0.00183062
-0.00419085
-0.00179088
-0.00414772
-0.00175012
-0.00409758
-0.00170901
-0.00404243
-0.00166293
-0.00398184
-0.00161903
-0.00391833
-0.00156862
-0.00385189
-0.00151702
-0.00378278
-0.00146742
-0.00370653
-0.00141799
-0.00362773
-0.00136228
-0.00354777
-0.00130475
-0.00346181
-0.00124896
-0.00337719
-0.00118766
-0.00329112
-0.00112824
-0.00319775
-0.00107543
-0.00310593
-0.0010142
-0.00301251
-0.000961083
-0.00291835
-0.000908099
-0.00282334
-0.000859266
-0.00272747
-0.000814437
-0.00262984
-0.000774832
-0.00545724
0.00052391
-0.00096186
-0.00516467
0.000509107
-0.000801682
-0.00493614
0.000481393
-0.000709916
-0.0047447
0.000451161
-0.000642604
-0.0045762
0.000415549
-0.000584052
-0.0044202
0.000377869
-0.000533873
-0.0042755
0.000339794
-0.000484488
-0.00413624
0.000300554
-0.000439821
-0.00400173
0.000260551
-0.000395061
-0.00386971
0.000220977
-0.000352994
-0.00374114
0.000180765
-0.000309331
-0.00361307
0.000140148
-0.000268224
-0.00348699
9.98365e-05
-0.000225918
-0.0033619
5.79129e-05
-0.000182999
-0.00323908
1.71261e-05
-0.00013995
-0.00311652
-2.59298e-05
-9.66309e-05
-0.00299681
-6.85168e-05
-5.11897e-05
-0.00287887
-0.000112217
-5.72673e-06
-0.00276385
-0.000157335
4.23205e-05
-0.00265151
-0.000203195
9.08527e-05
-0.00254207
-0.000251003
0.000141562
-0.00243668
-0.000299671
0.00019428
-0.00233457
-0.000350864
0.000248758
-0.00223804
-0.000402827
0.0003063
-0.00214604
-0.000457994
0.000365988
-0.0020596
-0.000515088
0.000428653
-0.00198
-0.000574135
0.000494528
-0.00190661
-0.000636152
0.00056277
-0.00184164
-0.000699965
0.000634991
-0.00178451
-0.000767725
0.000710594
-0.00173681
-0.000838309
0.00079061
-0.00169956
-0.000911873
0.000874624
-0.00167307
-0.000988757
0.000962263
-0.00165898
-0.00106906
0.00105498
-0.00165792
-0.00115362
0.00115256
-0.00167032
-0.0012427
0.00125509
-0.00169906
-0.00133479
0.00136353
-0.00174335
-0.00143232
0.00147661
-0.00180596
-0.00153356
0.00159617
-0.00188636
-0.00164127
0.00172167
-0.00198841
-0.00175273
0.00185479
-0.0021112
-0.00187068
0.00199347
-0.00199481
0.00214033
-0.00225673
-0.00542118
0.000214678
-0.00514242
0.000230341
-0.00489211
0.000231087
-0.00466629
0.000225341
-0.00445962
0.000208874
-0.00427117
0.000189424
-0.00409669
0.000165316
-0.00393253
0.00013639
-0.0037791
0.000107125
-0.00363164
7.35174e-05
-0.00349241
4.15328e-05
-0.0033578
5.53191e-06
-0.00322724
-3.07188e-05
-0.00310179
-6.75397e-05
-0.00298014
-0.000104519
-0.00286221
-0.000143862
-0.00274704
-0.000183689
-0.00263549
-0.000223762
-0.00252736
-0.000265469
-0.00242295
-0.000307604
-0.00232254
-0.000351415
-0.00222505
-0.000397163
-0.0021333
-0.000442612
-0.0020446
-0.000491527
-0.00196223
-0.000540369
-0.00188588
-0.000591434
-0.00181544
-0.000644577
-0.00175217
-0.000699419
-0.0016955
-0.000756639
-0.00164679
-0.00081643
-0.0016075
-0.000877597
-0.00157824
-0.000941139
-0.00155813
-0.00100887
-0.00154919
-0.00107799
-0.00155181
-0.00115101
-0.00156806
-0.00122644
-0.00159788
-0.00130497
-0.0016421
-0.0013881
-0.00170107
-0.00147459
-0.0017779
-0.00156444
-0.00187234
-0.00165829
-0.00198572
-0.0017573
-0.00185908
-0.00212145
-0.00489657
1.14346e-05
-0.00469846
3.22349e-05
-0.00450756
4.01855e-05
-0.004323
4.07842e-05
-0.00414849
3.43574e-05
-0.00398244
2.338e-05
-0.00382422
7.08897e-06
-0.00367339
-1.44343e-05
-0.00352773
-3.85373e-05
-0.00338902
-6.51919e-05
-0.00325327
-9.4223e-05
-0.00312355
-0.00012418
-0.00299875
-0.000155519
-0.00287794
-0.000188354
-0.00275952
-0.000222938
-0.00264508
-0.000258301
-0.00253489
-0.000293877
-0.00242806
-0.000330598
-0.00232545
-0.000368076
-0.0022265
-0.000406557
-0.00213157
-0.000446347
-0.00204139
-0.000487336
-0.00195531
-0.000528695
-0.0018748
-0.000572033
-0.00179969
-0.000615482
-0.0017305
-0.000660629
-0.00166697
-0.000708105
-0.00161045
-0.000755937
-0.0015607
-0.000806393
-0.00151972
-0.000857407
-0.00148597
-0.000911342
-0.00146109
-0.000966025
-0.00144614
-0.00102382
-0.00144143
-0.0010827
-0.00144689
-0.00114555
-0.00146476
-0.00120857
-0.00149402
-0.00127571
-0.00153678
-0.00134534
-0.00159385
-0.00141752
-0.00166579
-0.00149251
-0.00175309
-0.00157098
-0.00185751
-0.00165289
-0.00173781
-0.00197878
-0.00436445
-0.000152902
-0.00420003
-0.000132184
-0.00403928
-0.000120565
-0.00388348
-0.000115014
-0.00373363
-0.000115497
-0.00358723
-0.000123019
-0.00344486
-0.000135285
-0.00330977
-0.000149517
-0.0031787
-0.000169606
-0.00305179
-0.000192105
-0.00293028
-0.000215736
-0.00281213
-0.000242332
-0.00269682
-0.000270826
-0.00258573
-0.000299444
-0.00247958
-0.000329086
-0.00237636
-0.000361522
-0.00227608
-0.000394156
-0.00217967
-0.000427007
-0.00208732
-0.000460432
-0.00199838
-0.000495497
-0.00191369
-0.000531039
-0.00183416
-0.00056686
-0.00175826
-0.000604599
-0.0016884
-0.000641892
-0.00162292
-0.000680958
-0.00156215
-0.000721405
-0.00150808
-0.000762168
-0.00145953
-0.000804491
-0.00141854
-0.000847384
-0.00138416
-0.000891785
-0.00135771
-0.00093779
-0.00133895
-0.000984789
-0.0013287
-0.00103407
-0.00132742
-0.00108398
-0.00133717
-0.00113581
-0.00135601
-0.00118973
-0.00138659
-0.00124513
-0.00142909
-0.00130285
-0.00148432
-0.00136229
-0.00155194
-0.00142489
-0.00163444
-0.00148849
-0.00173128
-0.00155604
-0.0016254
-0.00184369
-0.00390494
-0.000297254
-0.00376297
-0.000274156
-0.00362304
-0.000260496
-0.00348737
-0.000250684
-0.0033534
-0.000249466
-0.00322474
-0.000251683
-0.00309908
-0.000260946
-0.00297693
-0.000271668
-0.0028588
-0.00028773
-0.0027456
-0.000305305
-0.00263384
-0.000327495
-0.00252629
-0.00034988
-0.00242379
-0.000373325
-0.00232307
-0.000400164
-0.00222576
-0.000426402
-0.00213116
-0.00045612
-0.0020419
-0.000483413
-0.00195554
-0.000513371
-0.00187159
-0.000544381
-0.00179215
-0.000574935
-0.00171732
-0.00060587
-0.00164613
-0.000638056
-0.00157885
-0.000671872
-0.00151614
-0.000704606
-0.00145876
-0.000738333
-0.00140655
-0.000773615
-0.00136036
-0.000808366
-0.0013193
-0.000845549
-0.00128443
-0.000882254
-0.0012562
-0.000920016
-0.00123514
-0.000958847
-0.00122108
-0.000998854
-0.00121578
-0.00103936
-0.00121852
-0.00108123
-0.00122993
-0.0011244
-0.00125063
-0.00116902
-0.00128121
-0.00121455
-0.00132296
-0.0012611
-0.00137541
-0.00130984
-0.00144047
-0.00135983
-0.00151779
-0.00141117
-0.00160879
-0.00146504
-0.00151993
-0.00171426
-0.0034967
-0.000424097
-0.00337075
-0.000400107
-0.00324739
-0.000383854
-0.00312374
-0.000374332
-0.00300601
-0.000367203
-0.00288979
-0.000367897
-0.00277772
-0.000373021
-0.00266681
-0.000382574
-0.00256133
-0.000393207
-0.00245813
-0.000408508
-0.00235886
-0.00042676
-0.0022618
-0.000446942
-0.00216747
-0.000467659
-0.00207731
-0.000490324
-0.00198936
-0.000514351
-0.00190609
-0.00053939
-0.00182358
-0.000565928
-0.00174585
-0.000591097
-0.00167195
-0.00061828
-0.00160173
-0.000645159
-0.00153437
-0.000673227
-0.00147068
-0.000701746
-0.00141256
-0.00072999
-0.00135837
-0.000758796
-0.00130774
-0.000788965
-0.0012632
-0.000818157
-0.00122277
-0.00084879
-0.00118829
-0.000880032
-0.00115939
-0.000911154
-0.00113652
-0.000942886
-0.00112019
-0.000975182
-0.00111073
-0.00100831
-0.00110793
-0.00104215
-0.00111298
-0.00107619
-0.00112627
-0.00111111
-0.00114845
-0.00114685
-0.00118
-0.001183
-0.0012203
-0.00122079
-0.00127061
-0.00125953
-0.00133205
-0.00129839
-0.00140485
-0.00133837
-0.00148969
-0.0013802
-0.00142299
-0.00158663
-0.00313737
-0.000539883
-0.003022
-0.000515472
-0.00291085
-0.000495012
-0.00280313
-0.000482046
-0.00269558
-0.000474752
-0.00259038
-0.000473095
-0.002488
-0.00047541
-0.00239084
-0.000479732
-0.00229384
-0.000490201
-0.00220131
-0.000501046
-0.00211132
-0.000516745
-0.00202384
-0.000534424
-0.00193946
-0.000552039
-0.00185645
-0.000573335
-0.00177791
-0.000592887
-0.00170214
-0.000615163
-0.00163051
-0.000637554
-0.00155959
-0.000662018
-0.00149408
-0.000683794
-0.00143034
-0.000708894
-0.0013705
-0.000733071
-0.00131446
-0.000757781
-0.00126274
-0.00078171
-0.00121468
-0.000806865
-0.00117122
-0.000832416
-0.00113179
-0.000857592
-0.00109758
-0.000882999
-0.00106862
-0.00090899
-0.00104419
-0.000935588
-0.00102592
-0.000961158
-0.00101338
-0.00098772
-0.00100718
-0.00101451
-0.00100749
-0.00104185
-0.0010147
-0.00106898
-0.00102946
-0.00109635
-0.00105216
-0.00112415
-0.0010821
-0.00115306
-0.0011214
-0.00118149
-0.00117019
-0.00121074
-0.00122836
-0.00124022
-0.00129651
-0.00127022
-0.0013752
-0.00130151
-0.00133289
-0.0014653
-0.0028178
-0.000645256
-0.0027165
-0.000616781
-0.00261568
-0.000595824
-0.00251619
-0.000581544
-0.00241872
-0.000572219
-0.00232396
-0.00056785
-0.00223317
-0.000566202
-0.00214321
-0.000569696
-0.00205671
-0.000576699
-0.00197098
-0.000586776
-0.0018906
-0.000597123
-0.00181187
-0.000613156
-0.00173442
-0.000629485
-0.00166181
-0.000645946
-0.00158966
-0.000665034
-0.00152094
-0.000683888
-0.00145554
-0.000702957
-0.00139415
-0.000723409
-0.00133417
-0.000743765
-0.00127751
-0.000765557
-0.00122426
-0.000786326
-0.00117496
-0.000807081
-0.00112874
-0.000827928
-0.00108653
-0.00084907
-0.00104932
-0.000869629
-0.001015
-0.000891911
-0.0009852
-0.0009128
-0.000959681
-0.00093451
-0.000940174
-0.000955094
-0.000925049
-0.000976283
-0.000915789
-0.00099698
-0.000912028
-0.00101827
-0.00091487
-0.001039
-0.000923266
-0.00106059
-0.000939093
-0.00108052
-0.000961339
-0.0011019
-0.000991713
-0.00112269
-0.00102939
-0.00114381
-0.00107546
-0.00116467
-0.00112993
-0.00118575
-0.00119368
-0.00120648
-0.0012672
-0.00122799
-0.00125054
-0.00134955
-0.00253653
-0.000738571
-0.00244237
-0.000710944
-0.0023494
-0.000688796
-0.00226098
-0.000669963
-0.00217216
-0.000661037
-0.00208652
-0.000653493
-0.00200393
-0.000648792
-0.00192375
-0.000649871
-0.00184504
-0.000655407
-0.00176959
-0.000662223
-0.00169463
-0.000672092
-0.00162295
-0.000684834
-0.00155538
-0.000697048
-0.00148679
-0.000714536
-0.00142265
-0.000729179
-0.00136114
-0.000745397
-0.00130213
-0.00076197
-0.00124606
-0.00077948
-0.00119225
-0.000797573
-0.00114119
-0.000816617
-0.00109325
-0.000834264
-0.00105002
-0.000850316
-0.00100956
-0.000868389
-0.000972136
-0.00088649
-0.000938875
-0.00090289
-0.000909293
-0.000921494
-0.000883576
-0.000938516
-0.000862667
-0.000955419
-0.00084575
-0.000972011
-0.000833883
-0.00098815
-0.000827202
-0.00100366
-0.000825622
-0.00101985
-0.00082919
-0.00103544
-0.00083946
-0.00105032
-0.00085481
-0.00106517
-0.000877288
-0.00107942
-0.000906918
-0.00109306
-0.000942687
-0.00110804
-0.000986201
-0.00112115
-0.00103833
-0.00113361
-0.00109748
-0.00114733
-0.00116522
-0.00116025
-0.00117334
-0.00124242
0.0010531
0.000450118
-0.000463813
-0.0010394
0.00106966
0.000469448
-0.000486013
0.00108903
0.000486197
-0.000505562
0.00111052
0.000500625
-0.000522113
0.00113381
0.000512666
-0.000535958
0.0011572
0.000523077
-0.000546467
0.00118055
0.000531505
-0.000554858
0.00120382
0.000538103
-0.000561374
0.00122609
0.000543017
-0.00056529
0.00124713
0.000546751
-0.000567787
0.00126604
0.000549136
-0.000568049
0.00128306
0.000550316
-0.000567332
0.0012977
0.000550083
-0.000564724
0.0013093
0.000549546
-0.000561147
0.00131813
0.000547557
-0.000556387
0.00132435
0.000544802
-0.000551021
0.0013268
0.000541456
-0.000543909
0.00132564
0.00053763
-0.000536468
0.00132154
0.000532975
-0.000528878
0.00131339
0.000528038
-0.000519884
0.00130195
0.000521948
-0.000510507
0.00128659
0.00051623
-0.000500872
0.00126768
0.00051001
-0.000491101
0.00124512
0.000503352
-0.000480796
0.00121831
0.000496846
-0.000470036
0.00118929
0.000488978
-0.000459954
0.0011559
0.000482463
-0.00044907
0.00111917
0.00047469
-0.000437968
0.00107911
0.000467332
-0.000427268
0.00103627
0.000459336
-0.000416498
0.000989534
0.000452452
-0.000405715
0.00094063
0.000444453
-0.000395548
0.000889016
0.000436518
-0.000384905
0.000834334
0.000429308
-0.000374625
0.000776757
0.000421971
-0.000364395
0.000716326
0.000414901
-0.000354468
0.000653355
0.000408065
-0.000345096
0.00058488
0.000403168
-0.000334692
0.000508583
0.000401428
-0.000325132
0.000415452
0.000409721
-0.000316589
0.000279832
0.000446659
-0.00031104
2.6247e-05
0.000577359
-0.000323775
0.00100331
-0.000581259
-0.000395808
0.000954027
0.000434122
-0.000938031
0.000972823
0.000450651
0.000993418
0.000465602
0.00101544
0.000478604
0.00103786
0.000490241
0.00106127
0.000499669
0.00108445
0.000508322
0.00110717
0.000515385
0.00112855
0.000521644
0.00114878
0.000526522
0.00116776
0.000530147
0.00118479
0.000533288
0.00119914
0.000535738
0.00121177
0.000536915
0.00122135
0.000537978
0.00122833
0.000537822
0.00123234
0.000537443
0.00123338
0.000536588
0.00123094
0.000535419
0.00122571
0.000533265
0.00121631
0.000531354
0.00120388
0.000528657
0.00118794
0.000525953
0.00116841
0.000522874
0.0011458
0.000519458
0.001119
0.000515779
0.00108913
0.00051233
0.00105558
0.000508237
0.00101883
0.000504088
0.000978013
0.00050015
0.000934584
0.00049588
0.000887067
0.00049197
0.00083585
0.000487735
0.000780836
0.000484322
0.000721853
0.000480954
0.000657725
0.000479029
0.000586086
0.000479703
0.000503484
0.000485771
0.000401614
0.000503297
0.000263431
0.000547905
5.31761e-05
0.000656912
-0.000293366
0.000923901
0.00150804
-0.0007981
0.000862821
0.000416682
-0.000845381
0.000881931
0.000431542
0.000903124
0.00044441
0.000925237
0.000456491
0.000948073
0.000467405
0.000970708
0.000477034
0.00099327
0.00048576
0.00101497
0.000493689
0.00103603
0.000500578
0.00105571
0.000506842
0.00107364
0.00051222
0.00109015
0.000516778
0.00110491
0.000520982
0.00111687
0.000524948
0.00112733
0.000527517
0.0011344
0.000530752
0.00113938
0.000532468
0.0011411
0.00053487
0.00114042
0.000536096
0.00113622
0.000537464
0.00112902
0.00053856
0.00111825
0.000539425
0.00110461
0.000539594
0.00108736
0.000540125
0.00106678
0.000540036
0.00104267
0.000539885
0.00101528
0.000539724
0.000984468
0.000539047
0.000949517
0.000539039
0.000911009
0.000538658
0.0008689
0.000537989
0.000822484
0.000538386
0.000771911
0.000538308
0.000716212
0.000540021
0.000654085
0.000543081
0.000584219
0.000548895
0.000502407
0.000561515
0.000403863
0.000584315
0.000277512
0.000629648
0.000104637
0.000720779
-0.000143331
0.00090488
-0.000507225
0.00128779
0.00194022
-0.000939406
0.000778176
0.000398302
-0.000759796
0.000798422
0.000411296
0.000819078
0.000423753
0.000840686
0.000434883
0.000862367
0.000445724
0.000884041
0.00045536
0.000905574
0.000464227
0.000926208
0.000473055
0.000945918
0.000480869
0.000964356
0.000488404
0.000981568
0.000495008
0.00099688
0.000501466
0.00101042
0.000507443
0.00102259
0.000512779
0.00103205
0.00051806
0.00103966
0.000523137
0.00104419
0.000527936
0.00104713
0.000531931
0.00104677
0.000536454
0.00104335
0.000540889
0.00103739
0.000544518
0.00102872
0.000548098
0.00101641
0.000551907
0.00100131
0.000555219
0.000982808
0.000558539
0.000960803
0.00056189
0.000935527
0.000565
0.00090619
0.000568384
0.000873714
0.000571515
0.000837233
0.000575138
0.000796039
0.000579184
0.000750777
0.000583648
0.000699751
0.000589334
0.000642889
0.000596882
0.000578144
0.000607827
0.000503244
0.000623796
0.000414346
0.000650413
0.000305047
0.000693615
0.000164824
0.000769871
-2.27951e-05
0.000908399
-0.000280613
0.0011627
-0.00062403
0.00163121
0.00231918
-0.00100299
0.00070069
0.000379869
-0.000682257
0.000720462
0.000391524
0.000740995
0.00040322
0.000761541
0.000414337
0.000782587
0.000424678
0.000803131
0.000434816
0.00082283
0.000444528
0.000842345
0.00045354
0.000860688
0.000462526
0.000877898
0.000471193
0.00089371
0.000479196
0.00090821
0.000486965
0.000920841
0.000494812
0.000931782
0.000501838
0.000940693
0.000509148
0.000947825
0.000516006
0.000952893
0.000522868
0.000955029
0.000529796
0.000955455
0.000536028
0.0009533
0.000543043
0.000948116
0.000549702
0.000940074
0.000556141
0.000929267
0.000562714
0.00091522
0.000569266
0.000898328
0.00057543
0.000878274
0.000581944
0.000854392
0.000588882
0.000827398
0.000595379
0.000796227
0.000602686
0.000761163
0.000610202
0.000721657
0.00061869
0.000677118
0.000628188
0.000626547
0.000639905
0.000569205
0.000654224
0.000503335
0.000673697
0.000425779
0.000701351
0.000333225
0.000742967
0.000218981
0.000807859
7.37415e-05
0.000915111
-0.000115201
0.00109734
-0.000365314
0.00141281
-0.000679382
0.00194528
0.00265528
-0.00101547
0.000630578
0.000360846
-0.000611555
0.000649857
0.000372245
0.000669562
0.000383515
0.000689396
0.000394503
0.000708659
0.000405415
0.000728062
0.000415413
0.00074663
0.00042596
0.000764439
0.00043573
0.000781175
0.00044579
0.000797273
0.000455095
0.000811483
0.000464987
0.000824631
0.000473817
0.000836529
0.000482914
0.000846323
0.000492044
0.00085481
0.000500661
0.000861201
0.000509615
0.000865892
0.000518177
0.000868509
0.00052718
0.000868395
0.000536141
0.000866472
0.000544967
0.000862098
0.000554075
0.000854717
0.000563522
0.000844781
0.000572649
0.000832416
0.000581632
0.000816692
0.000591154
0.000797934
0.000600701
0.000776017
0.0006108
0.000750293
0.000621103
0.000720978
0.000632001
0.000687525
0.000643655
0.000649266
0.000656949
0.000606327
0.000671127
0.000557226
0.000689005
0.000500658
0.000710793
0.000434504
0.000739851
0.00035716
0.000778695
0.00026385
0.000836277
0.000148684
0.000923025
4.60412e-06
0.00105919
-0.000178923
0.00128087
-0.000413656
0.00164754
-0.000699685
0.00223131
0.00295495
-0.000999359
0.000566753
0.000342505
-0.000548413
0.000585453
0.000353545
0.00060412
0.000364848
0.000622551
0.000376072
0.000641037
0.00038693
0.000658639
0.00039781
0.000676223
0.000408377
0.000692463
0.00041949
0.000708152
0.000430102
0.00072235
0.000440896
0.000735902
0.000451436
0.000747597
0.000462122
0.000757938
0.000472572
0.00076719
0.000482792
0.000774488
0.000493362
0.000780594
0.000503509
0.000784462
0.000514309
0.000786626
0.000525016
0.000787259
0.000535508
0.000785455
0.000546771
0.000781305
0.000558225
0.000774709
0.000570119
0.000765932
0.000581426
0.000753838
0.000593726
0.000739411
0.000605582
0.00072214
0.000617972
0.000701454
0.000631486
0.000677689
0.000644868
0.000649637
0.000660052
0.00061776
0.000675532
0.000582145
0.000692564
0.000540058
0.000713214
0.000492979
0.000736084
0.000438171
0.000765601
0.000374594
0.000803427
0.000298173
0.000855116
0.000207125
0.000927325
9.40432e-05
0.00103611
-4.73013e-05
0.00120053
-0.000223604
0.00145717
-0.000441713
0.00186565
-0.000695821
0.00248542
0.00322268
-0.000963549
0.000509248
0.000324635
-0.000491377
0.00052709
0.000335703
0.000544442
0.000347497
0.000562302
0.000358212
0.000579416
0.000369815
0.000595711
0.000381515
0.000611093
0.000392995
0.000626327
0.000404255
0.000640549
0.000415881
0.000653846
0.000427599
0.000666015
0.000439266
0.000676581
0.000451557
0.000686418
0.000462735
0.00069447
0.00047474
0.000701287
0.000486546
0.000706233
0.000498563
0.000709904
0.000510638
0.000712076
0.000522843
0.000711962
0.000535622
0.00071061
0.000548122
0.000706922
0.000561914
0.000701316
0.000575724
0.000692473
0.000590269
0.000681712
0.000604487
0.000667926
0.000619368
0.000651825
0.000634072
0.000632773
0.000650538
0.000610094
0.000667548
0.000583967
0.000686179
0.0005543
0.0007052
0.000519574
0.000727289
0.000480696
0.000752092
0.000435879
0.000780901
0.000383619
0.000817861
0.000322088
0.000864958
0.00024951
0.000927694
0.000162245
0.00101459
5.5294e-05
0.00114306
-8.24132e-05
0.00133824
-0.000249873
0.00162463
-0.000452003
0.00206778
-0.000684903
0.00271832
0.00345819
-0.000920411
0.000458255
0.00030652
-0.000440141
0.00047458
0.000319377
0.000491283
0.000330794
0.000507522
0.000341974
0.000522824
0.000354512
0.000537942
0.000366397
0.000552747
0.00037819
0.000566485
0.000390518
0.000579292
0.000403073
0.000591165
0.000415727
0.00060194
0.000428491
0.00061198
0.000441516
0.000620032
0.000454683
0.000627158
0.000467614
0.000633547
0.000480156
0.000638192
0.000493918
0.000641128
0.000507703
0.000642187
0.000521784
0.000642495
0.000535313
0.000641342
0.000549276
0.000638414
0.000564842
0.000632487
0.000581651