/*--------------------------------*- C++ -*----------------------------------*\
| =========                 |                                                 |
| \\      /  F ield         | OpenFOAM: The Open Source CFD Toolbox           |
|  \\    /   O peration     | Version:  2.3.0                                 |
|   \\  /    A nd           | Web:      www.OpenFOAM.org                      |
|    \\/     M anipulation  |                                                 |
\*---------------------------------------------------------------------------*/
FoamFile
{
    version     2.0;
    format      ascii;
    class       surfaceScalarField;
    location    "1000";
    object      phi;
}
// * * * * * * * * * * * * * * * * * * * * * * * * * * * * * * * * * * * * * //

dimensions      [0 3 -1 0 0 0 0];

internalField   nonuniform List<scalar> 
12931
(
-0.0206974
-0.024866
0.0283645
0.0171907
-0.0235171
-0.0205468
0.0233664
-0.025735
-0.0169722
0.01919
-0.0273377
-0.0139925
0.0155952
-0.0283147
-0.0114975
0.0124745
-0.0286895
-0.00940347
0.00977819
-0.0285365
-0.00764455
0.0074916
-0.0279624
-0.00617257
0.00559836
-0.02707
-0.00495092
0.0040585
-0.0259553
-0.00394832
0.00283357
-0.0247064
-0.00313229
0.00188343
-0.00247382
-0.0235802
0.00134753
-0.0177878
-0.0221913
0.0151132
-0.0197572
-0.0185774
-0.021149
-0.0155804
-0.0220508
-0.0130907
-0.0225242
-0.0110241
-0.0226129
-0.00931478
-0.0223555
-0.0079019
-0.0217883
-0.00673982
-0.0209518
-0.00578739
-0.0198883
-0.0050119
-0.0186375
-0.00438298
-0.00387566
-0.0172357
-0.015498
-0.0199855
0.0132922
-0.0170432
-0.0170322
-0.0180433
-0.0145803
-0.0185869
-0.012547
-0.0187525
-0.0108586
-0.0186099
-0.00945734
-0.0182161
-0.00829576
-0.0176222
-0.00733374
-0.0168705
-0.00653904
-0.0160004
-0.00588201
-0.0150385
-0.00534486
-0.00490495
-0.0140093
-0.0135368
-0.0181316
0.011683
-0.0148206
-0.0157484
-0.0156285
-0.0137724
-0.0160459
-0.0121297
-0.0161441
-0.0107603
-0.0159795
-0.00962199
-0.0156045
-0.00867075
-0.0150593
-0.00787895
-0.0143794
-0.00721896
-0.0135933
-0.00666809
-0.0127273
-0.00621089
-0.005832
-0.0118002
-0.011875
-0.0165354
0.0102788
-0.0129646
-0.0146588
-0.0136388
-0.0130982
-0.0139746
-0.011794
-0.0140332
-0.0107017
-0.0138684
-0.00978677
-0.0135221
-0.00901702
-0.0130311
-0.00837001
-0.0124252
-0.00782486
-0.011728
-0.00736531
-0.0109606
-0.00697827
-0.00665284
-0.0101398
-0.0104667
-0.0151423
0.00907357
-0.0114145
-0.0137109
-0.0119998
-0.0125129
-0.0122877
-0.0115061
-0.0123326
-0.0106568
-0.01218
-0.00993929
-0.0118669
-0.00933016
-0.0114259
-0.00881102
-0.0108814
-0.00836938
-0.0102553
-0.00799139
-0.0095641
-0.00766944
-0.00739444
-0.0088225
-0.00926501
-0.0139114
0.00803411
-0.0101025
-0.0128734
-0.0106185
-0.0119968
-0.0108713
-0.0112533
-0.0109081
-0.01062
-0.0107699
-0.0100775
-0.0104888
-0.00961127
-0.0100918
-0.00920804
-0.0096024
-0.00885874
-0.0090374
-0.00855639
-0.00841414
-0.0082927
-0.00806574
-0.00774284
-0.00823655
-0.0128208
0.00714593
-0.00898133
-0.0121286
-0.00944006
-0.0115381
-0.00966414
-0.0110293
-0.00969811
-0.010586
-0.00957365
-0.010202
-0.00932072
-0.0098642
-0.00896343
-0.00956533
-0.00852094
-0.00930123
-0.00801119
-0.00906615
-0.00744569
-0.00885819
-0.00867403
-0.0068374
-0.00733868
-0.0118426
0.00636049
-0.00800479
-0.0114625
-0.00841935
-0.0111235
-0.00862494
-0.0108237
-0.00865566
-0.0105553
-0.00854352
-0.0103141
-0.00831479
-0.0100929
-0.00798962
-0.0098905
-0.00759123
-0.00969962
-0.00713132
-0.00952606
-0.00661989
-0.00936962
-0.00922637
-0.00606755
-0.00655741
-0.0109578
0.00567259
-0.00715938
-0.0108605
-0.00753206
-0.0107509
-0.00771921
-0.0106365
-0.00774765
-0.0105269
-0.00764691
-0.0104149
-0.00744
-0.0102998
-0.00714538
-0.0101851
-0.00678104
-0.010064
-0.00636851
-0.00993859
-0.00590838
-0.00982975
-0.00540418
-0.00973057
-0.0209053
-0.00226472
-0.000410017
-0.0186399
-0.00247313
0.000207626
-0.0165191
-0.00280255
0.000681899
-0.0144957
-0.0032548
0.00123136
-0.0125836
-0.00384673
0.00193463
-0.0108313
-0.00460497
0.00285272
-0.00930585
-0.00556662
0.0040412
-0.00808941
-0.00677355
0.00555712
-0.00726473
-0.00828255
0.00745787
-0.00690794
-0.0101601
0.00980329
-0.0070885
-0.0124897
0.0126702
-0.0153667
0.0161793
-0.00790113
-0.0157557
-0.00374474
-0.0142776
-0.00395128
-0.012846
-0.00423412
-0.0114938
-0.004607
-0.0102485
-0.00509202
-0.00914034
-0.00571309
-0.00820276
-0.00650419
-0.00747469
-0.00750162
-0.00700317
-0.00875407
-0.00684823
-0.010315
-0.00708535
-0.0122525
-0.0146523
-0.00779971
-0.0129603
-0.00479373
-0.0119234
-0.00498812
-0.0109134
-0.00524417
-0.00994457
-0.00557582
-0.00903638
-0.0060002
-0.00821289
-0.00653659
-0.00750759
-0.00720949
-0.00696026
-0.00804895
-0.00662333
-0.009091
-0.00655752
-0.0103808
-0.00683559
-0.0119745
-0.0139479
-0.00754001
-0.0108655
-0.00572845
-0.00996921
-0.0058844
-0.00912047
-0.0060929
-0.0083299
-0.0063664
-0.00761414
-0.00671596
-0.00699175
-0.00715898
-0.00648599
-0.00771525
-0.00612833
-0.00840661
-0.00595734
-0.00926199
-0.00602147
-0.0103167
-0.00638233
-0.0116136
-0.0132069
-0.00712328
-0.00931513
-0.00655308
-0.00853375
-0.00666578
-0.00780367
-0.00682298
-0.00713544
-0.00703463
-0.00654209
-0.00730931
-0.00604029
-0.00766079
-0.00565171
-0.00810383
-0.00540237
-0.00865595
-0.00532567
-0.00933869
-0.00546298
-0.0101794
-0.0058661
-0.0112105
-0.0124744
-0.0065986
-0.00808009
-0.00729549
-0.00738196
-0.00736391
-0.00673656
-0.00746838
-0.00615413
-0.00761706
-0.00564589
-0.00781755
-0.00522863
-0.00807805
-0.00492084
-0.00841162
-0.00474597
-0.00883083
-0.00473271
-0.00935195
-0.00491842
-0.00999369
-0.00534735
-0.0107816
-0.0117497
-0.00607204
-0.00707199
-0.00796634
-0.00644533
-0.00799057
-0.00586957
-0.00804413
-0.0053541
-0.00813253
-0.00491107
-0.00826058
-0.00455555
-0.00843357
-0.00430449
-0.00866268
-0.00417932
-0.00895599
-0.00420697
-0.0093243
-0.00441902
-0.00978164
-0.00485733
-0.0103433
-0.0110316
-0.00557546
-0.00623028
-0.00857345
-0.00566427
-0.00855659
-0.00514703
-0.00856137
-0.00468699
-0.00859258
-0.00429662
-0.00865095
-0.00398874
-0.00874145
-0.0037794
-0.00887202
-0.00368776
-0.00904763
-0.00373931
-0.00927275
-0.00396302
-0.00955793
-0.00439453
-0.00991174
-0.010349
-0.00507711
-0.00551549
-0.00912551
-0.00500286
-0.00906922
-0.00453673
-0.0090275
-0.00412534
-0.00900396
-0.00377848
-0.00899782
-0.00350864
-0.00901128
-0.00333129
-0.00904937
-0.00326403
-0.00911488
-0.0033285
-0.00920829
-0.00355323
-0.0093332
-0.00397011
-0.00949486
-0.00970147
-0.00461766
-0.00490178
-0.0096279
-0.004437
-0.009534
-0.00401537
-0.00944913
-0.00364487
-0.00937446
-0.00333799
-0.0093047
-0.00309914
-0.00925014
-0.00294491
-0.00920358
-0.00289459
-0.00916521
-0.00296961
-0.00913327
-0.00318932
-0.0091135
-0.0035843
-0.00909988
-0.00419036
-0.0090954
0.00272551
0.00254843
-0.00288092
-0.00239301
0.00287069
0.00140634
-0.00155151
0.00292449
0.000715324
-0.000769113
0.00293175
0.000335201
-0.000342445
0.00290076
0.000171257
-0.00014026
0.00281404
0.000160636
-7.38926e-05
0.00263891
0.000263543
-8.84195e-05
0.00233432
0.000457055
-0.000152414
0.00184673
0.000736643
-0.00024908
0.00110404
0.00111371
-0.000370952
-1.6133e-06
0.00162198
-0.000516354
0.00232441
-0.00164789
-0.000678069
0.00249275
0.00227823
-0.00222255
0.00257772
0.00132138
0.00255392
0.000739131
0.00245743
0.000431697
0.00229777
0.000330914
0.00206704
0.000391395
0.00174937
0.000581207
0.00132242
0.00088405
0.000759534
0.00129952
3.34329e-05
0.00183985
-0.000866544
0.00252195
0.00333341
-0.00187551
0.00218982
0.0020847
-0.00199628
0.00221113
0.00130007
0.0021232
0.000827067
0.00195977
0.000595136
0.00173541
0.000555274
0.00145443
0.000672395
0.00111178
0.000923848
0.00069404
0.00130181
0.000184512
0.00180904
-0.000430351
0.00245474
-0.00115352
0.00324511
0.00415653
-0.00197662
0.00187872
0.00195389
-0.00174789
0.00185821
0.00132058
0.00173938
0.000945897
0.00155526
0.000779259
0.00132397
0.000786573
0.00105233
0.000944037
0.000736616
0.00123956
0.000366335
0.00167211
-7.34554e-05
0.00224883
-0.00060059
0.00298189
-0.00123091
0.00387543
0.00490574
-0.00198011
0.00159224
0.00186328
-0.00150162
0.00155272
0.00136009
0.00142867
0.00106995
0.00125047
0.000957469
0.00103557
0.00100147
0.00078996
0.00118965
0.000510354
0.00151917
0.000185745
0.00199672
-0.000199512
0.00263408
-0.000664347
0.00344673
-0.00122975
0.00444083
0.00560031
-0.00192431
0.0013347
0.0017844
-0.00125582
0.00129388
0.00140091
0.0011806
0.00118324
0.00102104
0.00111703
0.000829858
0.00119265
0.00061208
0.00140743
0.000364917
0.00176633
7.79892e-05
0.00228366
-0.000263909
0.00297598
-0.000681125
0.00386395
-0.00119838
0.00495808
0.00623644
-0.0018345
0.00112243
0.00172814
-0.00106617
0.00108657
0.00143677
0.000988042
0.00128177
0.000848859
0.00125622
0.000681053
0.00136045
0.000488523
0.00159996
0.000267979
0.00198687
1.13969e-05
0.00254024
-0.000296352
0.00328373
-0.000674409
0.00424201
-0.00114559
0.00542926
0.00682091
-0.00173006
0.000951177
0.00167926
-0.000902301
0.000920983
0.00146697
0.000837579
0.00136517
0.000718095
0.0013757
0.000571833
0.00150671
0.000400802
0.001771
0.000201266
0.00218641
-3.15686e-05
0.00277308
-0.000309572
0.00356173
-0.000655042
0.00458749
-0.00108684
0.00586106
0.00735754
-0.00162348
0.00080046
0.00162393
-0.000745128
0.000782577
0.00148485
0.000716075
0.00143167
0.000616229
0.00147555
0.000489975
0.00163297
0.000338896
0.00192207
0.000157698
0.0023676
-5.48034e-05
0.00298558
-0.000306212
0.00381314
-0.000621393
0.00490267
-0.00101968
0.00625935
0.00785094
-0.00151308
0.000683083
0.00158698
-0.000646125
0.000670892
0.00149705
0.000617395
0.00148517
0.000534454
0.00155849
0.000427279
0.00174014
0.000294702
0.00205465
0.000125983
0.00253632
-6.85953e-05
0.00318016
-0.000291743
0.00403629
-0.000580592
0.00519152
-0.00095438
0.00663314
-0.00140291
0.00829948
-0.00236996
0.00362437
-0.00290233
-0.00345577
0.0051239
-0.00403806
-0.00457832
0.0062829
-0.00516037
-0.00555897
0.00737561
-0.00639495
-0.00633587
0.00859683
-0.00781993
-0.00685699
0.00998691
-0.00946578
-0.00708183
0.0116025
-0.0113777
-0.00695946
0.0134978
-0.0136202
-0.00643196
0.0157326
-0.0162601
-0.00543255
0.0183825
-0.0193819
-0.00388122
0.02153
-0.0230813
0.0252752
-0.0274725
-0.00168393
-0.00275816
0.00450701
-0.0037425
0.00610827
-0.00475015
0.00729054
-0.0056073
0.00823277
-0.00625995
0.00924948
-0.00667838
0.0104054
-0.00682802
0.0117522
-0.00666202
0.0133318
-0.00613824
0.0152088
-0.00519008
0.0174343
-0.0037423
0.0200822
0.0232387
-0.00170572
-0.0028684
0.00539879
-0.00376434
0.00700422
-0.0046549
0.0081811
-0.00540642
0.00898431
-0.00597442
0.00981748
-0.0063316
0.0107625
-0.00644409
0.0118647
-0.00627802
0.0131657
-0.00578121
0.014712
-0.00490177
0.0165549
-0.00356687
0.0187473
0.0213619
-0.00169009
-0.00282742
0.0062461
-0.00366439
0.0078412
-0.0044518
0.00896851
-0.00511557
0.00964808
-0.00561212
0.010314
-0.00592183
0.0110723
-0.00601301
0.0119559
-0.00585297
0.0130057
-0.0053952
0.0142543
-0.00458553
0.0157452
-0.00336329
0.017525
0.0196469
-0.00164833
-0.00271024
0.00703203
-0.00348304
0.00861402
-0.00419125
0.00967671
-0.00477836
0.0102352
-0.0052185
0.0107542
-0.0054906
0.0113444
-0.00557163
0.0120369
-0.00542035
0.0128544
-0.00500207
0.013836
-0.00426584
0.015009
-0.0031505
0.0164097
0.0180826
-0.0015862
-0.00255814
0.00775567
-0.00326507
0.00932095
-0.00389845
0.0103101
-0.00442573
0.0107625
-0.00482091
0.0111494
-0.00506646
0.0115899
-0.00513416
0.0121046
-0.00500105
0.0127213
-0.00461882
0.0134538
-0.00394789
0.0143381
-0.00293261
0.0153944
0.0166608
-0.00151083
-0.00239225
0.00841787
-0.00303919
0.00996789
-0.0036101
0.010881
-0.00407811
0.0112305
-0.00443485
0.0115061
-0.00465585
0.0118109
-0.00471778
0.0121665
-0.0045928
0.0125964
-0.00424925
0.0131102
-0.00364016
0.013729
-0.00271813
0.0144724
0.0153694
-0.00142668
-0.00222463
0.00901902
-0.00280514
0.0105484
-0.00331609
0.011392
-0.00374486
0.0116593
-0.00406468
0.0118259
-0.00426452
0.0120108
-0.0043232
0.0122252
-0.00421097
0.0124841
-0.00389937
0.0127986
-0.00334807
0.0131777
-0.00251106
0.0136354
0.0141932
-0.00133486
-0.00206461
0.00957056
-0.00258979
0.0110736
-0.00305041
0.0118526
-0.00343128
0.0120401
-0.00372083
0.0121155
-0.00390322
0.0121931
-0.00395415
0.0122762
-0.00385386
0.0123838
-0.00357003
0.0125148
-0.0030702
0.0126778
-0.00231389
0.0128791
0.0131277
-0.00124844
-0.00188152
0.0100492
-0.00234069
0.0115328
-0.00276301
0.0122749
-0.00312918
0.0124063
-0.0033998
0.0123861
-0.00356462
0.012358
-0.00361378
0.0123253
-0.00352318
0.0122932
-0.0032666
0.0122582
-0.00281551
0.0122268
-0.00212847
0.012192
0.0121554
-0.00115613
0.00298969
-0.0016417
0.00576811
-0.000895053
0.00862413
-2.23187e-05
0.0114797
0.00120293
0.0141738
0.00290425
0.0164838
0.00518157
0.0182162
0.00804583
0.0192246
0.0114661
0.0194538
0.015366
0.018991
0.0196528
0.0180457
0.0243117
0.0295315
0.0168787
-4.45035e-05
-0.00159736
0.000745014
-0.00168452
0.00217197
-0.00144916
0.00416956
-0.00079466
0.00668214
0.000391789
0.00956
0.00230369
0.0124766
0.00512927
0.0150162
0.00892658
0.0167964
0.0135858
0.0176016
0.0188476
0.0174784
0.0244349
0.0302844
0.0167255
-8.0426e-05
-0.00151713
-8.22331e-05
-0.00168267
0.00013334
-0.0016649
0.000785663
-0.00144698
0.00207658
-0.000899226
0.00414147
0.000238757
0.00691966
0.00235104
0.0100712
0.00577503
0.0130301
0.0106269
0.0151981
0.0166796
0.0162271
0.0234059
0.0303197
0.0161918
8.30749e-06
-0.0015255
8.73966e-05
-0.00176173
0.000255425
-0.00183298
0.000567982
-0.0017595
0.00112713
-0.0014584
0.00212245
-0.000756584
0.00380651
0.000666948
0.00629489
0.00328662
0.00933346
0.00758829
0.012277
0.013736
0.0143834
0.0212995
0.029432
0.0152711
7.7012e-06
-0.00153311
4.04077e-05
-0.00179438
0.000124056
-0.00191657
0.000291187
-0.00192659
0.000599832
-0.00176703
0.00115917
-0.00131592
0.00216184
-0.000335726
0.00385529
0.00159315
0.00635841
0.00508516
0.00938081
0.0107136
0.0121701
0.0185102
0.027649
0.0139531
3.86499e-06
-0.001537
3.59557e-05
-0.00182649
0.000105802
-0.00198643
0.000232301
-0.00205309
0.000447086
-0.00198181
0.000811133
-0.00167997
0.00143957
-0.000964162
0.00253137
0.000501346
0.0043427
0.00327381
0.00694822
0.00810809
0.00990744
0.015551
0.0252096
0.0123469
6.49579e-06
-0.00154347
3.07312e-05
-0.00185074
8.10414e-05
-0.00203671
0.000171488
-0.00214355
0.00032398
-0.00213429
0.000578778
-0.00193478
0.00101364
-0.00139903
0.00176607
-0.000251094
0.00305633
0.00198353
0.00511409
0.00605031
0.00786254
0.0128025
0.0224485
0.0106236
5.07267e-06
-0.00154859
2.55795e-05
-0.0018713
6.70713e-05
-0.00207822
0.000139306
-0.00221581
0.000258177
-0.00225317
0.000450968
-0.00212759
0.000770757
-0.00171883
0.00131585
-0.000796196
0.00225386
0.0010455
0.00382615
0.00447802
0.00618139
0.0104473
0.0196641
0.00896584
5.29532e-06
-0.00155389
2.25014e-05
-0.00188854
5.64541e-05
-0.00211217
0.000114456
-0.00227384
0.000209205
-0.00234792
0.000360667
-0.00227908
0.000607283
-0.00196545
0.00102209
-0.00121103
0.00173208
0.000335502
0.00294225
0.00326783
0.00488338
0.00850619
0.0170536
0.00749383
4.81804e-06
-0.00155875
1.94896e-05
-0.00190326
4.83189e-05
-0.00214101
9.67816e-05
-0.00232234
0.000174762
-0.00242591
0.000297816
-0.00240216
0.0004945
-0.00216215
0.000820023
-0.00153657
0.00137281
-0.000217311
0.00231848
0.00232216
0.00388867
0.00693599
0.0147497
0.00619262
4.6497e-06
-0.00156343
1.71391e-05
-0.0019158
4.13729e-05
-0.00216525
8.22259e-05
-0.00236322
0.000147315
-0.002491
0.00024909
-0.00250396
0.00040964
-0.00232271
0.000671546
-0.0017985
0.00111243
-0.000658219
0.00186494
0.00156964
0.00313373
0.00566721
0.0127718
0.00511155
3.82381e-06
-0.0015673
1.46849e-05
-0.00192671
3.54657e-05
-0.00218604
7.00129e-05
-0.00239781
0.000125079
-0.00254608
0.000210544
-0.00258945
0.00034388
-0.00245607
0.000558497
-0.00201313
0.000916003
-0.00101575
0.00152353
0.000962114
0.00255417
0.00463657
0.011114
0.00421204
3.56848e-06
-0.0015709
1.27977e-05
-0.00193599
3.05652e-05
-0.00220382
6.02581e-05
-0.00242753
0.000107424
-0.00259325
0.000180453
-0.0026625
0.000293435
-0.00256906
0.00047317
-0.00219289
0.000769612
-0.00131221
0.00127057
0.000461138
0.00212244
0.0037847
0.00970782
0.0035286
3.15523e-06
-0.00157409
1.1025e-05
-0.00194391
2.62554e-05
-0.00221906
5.19605e-05
-0.00245327
9.27922e-05
-0.00263409
0.000155944
-0.00272568
0.000253214
-0.00266635
0.0004066
-0.0023463
0.00065748
-0.00156312
0.00107908
3.95214e-05
0.00179681
0.00306698
0.00850725
0.00299737
2.75065e-06
-0.00157688
9.29808e-06
-0.00195051
2.2284e-05
-0.00223206
4.43142e-05
-0.00247534
7.95726e-05
-0.00266936
0.00013436
-0.0027805
0.000218677
-0.00275068
0.000351091
-0.00247873
0.000566694
-0.00177874
0.000928062
-0.000321855
0.00154242
0.00245261
0.00746585
0.00258383
1.99389e-06
-0.0015789
7.02244e-06
-0.00195558
1.76258e-05
-0.00224267
3.59512e-05
-0.00249369
6.59061e-05
-0.00269933
0.000112565
-0.00282718
0.00018456
-0.00282269
0.000296932
-0.00259112
0.000478478
-0.00196031
0.000780682
-0.000624076
0.0012919
0.00194139
0.00661353
0.0021442
1.34557e-06
-0.00158029
5.12918e-06
-0.00195941
1.37645e-05
-0.00225132
2.91858e-05
-0.00250914
5.47503e-05
-0.0027249
9.51486e-05
-0.0028676
0.000157703
-0.00288525
0.000255377
-0.00268881
0.000412743
-0.00211769
0.000674
-0.000885344
0.00111552
0.00149986
0.00586383
0.00186521
6.96917e-07
-0.00158102
3.36333e-06
-0.00196211
1.00999e-05
-0.00225807
2.27957e-05
-0.00252187
4.44639e-05
-0.00274658
7.94683e-05
-0.00290262
0.000134316
-0.00294011
0.000220485
-0.002775
0.000359894
-0.00225711
0.000592703
-0.00111817
0.000990317
0.00110226
0.00518284
0.00167127
-2.77784e-07
-0.00158078
1.02263e-06
-0.00196346
5.63303e-06
-0.0022627
1.53934e-05
-0.00253165
3.29856e-05
-0.00276418
6.23955e-05
-0.00293205
0.000109401
-0.00298713
0.000183997
-0.0028496
0.000305246
-0.00237838
0.000508094
-0.00132101
0.00085514
0.000755187
0.00456491
0.00147304
-1.41188e-06
-0.0015794
-1.75823e-06
-0.00196315
4.90289e-07
-0.00226495
6.9948e-06
-0.00253818
2.0322e-05
-0.00277751
4.39587e-05
-0.00295571
8.29225e-05
-0.0030261
0.000145817
-0.00291252
0.000248543
-0.00248112
0.000420872
-0.00149336
0.000713773
0.000462274
0.00407967
0.00119896
-2.60654e-06
-0.00157684
-4.77463e-06
-0.00196103
-5.05039e-06
-0.00226469
-1.82464e-06
-0.00254144
7.23557e-06
-0.00278659
2.54826e-05
-0.00297397
5.75171e-05
-0.00305815
0.000111027
-0.00296604
0.000200447
-0.00257056
0.000352439
-0.00164536
0.00061532
0.000199369
0.00361146
0.00108353
-4.20387e-06
-0.00157265
-8.61835e-06
-0.00195664
-1.18271e-05
-0.00226149
-1.23911e-05
-0.0025409
-8.20789e-06
-0.00279078
3.64909e-06
-0.00298585
2.73254e-05
-0.00308184
6.93399e-05
-0.00300808
0.000141835
-0.00264307
0.000267221
-0.00177078
0.000484624
-1.80308e-05
0.00324819
0.000847899
-5.7716e-06
-0.00156693
-1.22917e-05
-0.00195016
-1.828e-05
-0.00225552
-2.24504e-05
-0.00253675
-2.28578e-05
-0.00279038
-1.68537e-05
-0.00299188
-6.14804e-07
-0.00309809
3.17572e-05
-0.00304047
9.12103e-05
-0.00270255
0.000197784
-0.00187736
0.00038504
-0.0002053
0.00291487
0.000718338
-7.31562e-06
-0.00155962
-1.59425e-05
-0.00194155
-2.46719e-05
-0.00224679
-3.23178e-05
-0.00252912
-3.72009e-05
-0.0027855
-3.68997e-05
-0.0029922
-2.78786e-05
-0.00310713
-4.80662e-06
-0.00306356
4.23268e-05
-0.00274972
0.000132237
-0.00196729
0.000298508
-0.000371614
0.00262432
0.000589021
-8.7933e-06
-0.00155088
-1.93983e-05
-0.00193099
-3.05833e-05
-0.00223562
-4.14426e-05
-0.00251829
-5.04575e-05
-0.00277649
-5.5483e-05
-0.00298719
-5.33144e-05
-0.00310931
-3.90209e-05
-0.00307788
-3.58362e-06
-0.00278517
6.98974e-05
-0.0020408
0.000211105
-0.000512859
0.0023609
0.000474498
-1.0015e-05
-0.00154086
-2.22358e-05
-0.00191877
-3.56296e-05
-0.00222223
-4.92324e-05
-0.00250469
-6.18487e-05
-0.00276388
-7.15624e-05
-0.00297749
-7.54535e-05
-0.00310543
-6.89482e-05
-0.0030844
-4.35747e-05
-0.00281056
1.69013e-05
-0.0021013
0.000142112
-0.000638051
0.0021195
0.000383484
-1.11001e-05
-0.0015298
-2.48183e-05
-0.00190509
-3.98905e-05
-0.00220717
-5.59708e-05
-0.00248863
-7.16349e-05
-0.00274822
-8.54282e-05
-0.00296371
-9.47075e-05
-0.00309616
-9.53293e-05
-0.00308379
-7.97564e-05
-0.00282614
-3.24916e-05
-0.00214854
7.49436e-05
-0.000745524
0.00189972
0.000294777
-1.18431e-05
-0.00151796
-2.65838e-05
-0.00189035
-4.33759e-05
-0.00219038
-6.1137e-05
-0.00247088
-7.92989e-05
-0.00273006
-9.6425e-05
-0.00294659
-0.00011029
-0.00308229
-0.000117302
-0.00307678
-0.000110667
-0.00283278
-7.68035e-05
-0.00218242
1.04795e-05
-0.000832764
0.0017076
0.000202585
-1.25152e-05
-0.00150549
-2.80222e-05
-0.00187488
-4.58607e-05
-0.00217257
-6.52186e-05
-0.00245153
-8.52886e-05
-0.00271
-0.000104964
-0.00292692
-0.000122282
-0.00306498
-0.000134186
-0.00306489
-0.000134351
-0.00283263
-0.000110455
-0.00220631
-3.8589e-05
-0.000904686
0.00153553
0.000133542
-1.30236e-05
-0.00149247
-2.94322e-05
-0.00185847
-4.82627e-05
-0.00215373
-6.89059e-05
-0.0024309
-9.06264e-05
-0.00268829
-0.00011245
-0.00290511
-0.000132917
-0.00304453
-0.000149814
-0.00304801
-0.000158855
-0.0028236
-0.000150824
-0.00221437
-0.000108265
-0.00094722
0.00145709
-2.98187e-05
-1.33228e-05
-0.00147919
-3.00799e-05
-0.00184175
-4.95298e-05
-0.00213431
-7.10233e-05
-0.00240943
-9.35529e-05
-0.00266577
-0.000115912
-0.00288277
-0.000136645
-0.00302381
-0.000153178
-0.00303149
-0.00016137
-0.00281543
-0.000152537
-0.0022232
-0.000109532
-0.000990264
0.00130777
3.98383e-05
-1.37132e-05
-0.00146548
-3.15582e-05
-0.00182391
-5.18284e-05
-0.00211403
-7.45388e-05
-0.00238673
-9.85941e-05
-0.00264173
-0.000122731
-0.00285865
-0.000145098
-0.00300145
-0.000163031
-0.00301357
-0.000172154
-0.00280631
-0.000163717
-0.00223166
-0.000122064
-0.00103189
0.00124804
-6.23262e-05
-1.43782e-05
-0.00145115
-3.31293e-05
-0.00180519
-5.52562e-05
-0.00209194
-7.9711e-05
-0.00236229
-0.000106127
-0.00261533
-0.000133078
-0.0028317
-0.000158525
-0.00297601
-0.00017932
-0.00299277
-0.00019001
-0.00279563
-0.000181217
-0.00224045
-0.000135019
-0.00107807
0.00110254
1.04725e-05
-1.59707e-05
-0.00143518
-3.61117e-05
-0.00178505
-6.01304e-05
-0.00206792
-8.72021e-05
-0.00233522
-0.000117001
-0.00258553
-0.00014849
-0.00280022
-0.000180025
-0.00294448
-0.00020897
-0.00296383
-0.000230798
-0.0027738
-0.000236686
-0.00223455
-0.000211201
-0.00110359
0.00103627
-0.00014495
-1.68645e-05
-0.00141835
-3.84578e-05
-0.00176348
-6.4038e-05
-0.00204236
-9.32826e-05
-0.00230598
-0.000125987
-0.00255283
-0.000161196
-0.00276501
-0.000198054
-0.00290762
-0.000234539
-0.00292736
-0.000267398
-0.00274095
-0.000290188
-0.00221179
-0.000289822
-0.00110394
0.000987492
-0.000241129
-1.74819e-05
-0.00140086
-4.00139e-05
-0.00174094
-6.64674e-05
-0.0020159
-9.71493e-05
-0.0022753
-0.000131322
-0.00251866
-0.000168925
-0.00272741
-0.000208586
-0.00286797
-0.000248433
-0.00288752
-0.000285006
-0.00270439
-0.000311231
-0.00218556
-0.000312946
-0.00110228
0.00091847
-0.000243972
-1.79697e-05
-0.00138293
-4.09602e-05
-0.00171797
-6.84573e-05
-0.00198842
-9.99708e-05
-0.0022438
-0.000135566
-0.00248307
-0.000175067
-0.00268793
-0.000217474
-0.00282557
-0.000261529
-0.00284348
-0.000304432
-0.0026615
-0.000339937
-0.00215008
-0.000356395
-0.00108582
0.000935795
-0.000373779
-1.7963e-05
-0.00136495
-4.09188e-05
-0.001695
-6.84641e-05
-0.00196086
-0.0001003
-0.00221196
-0.000136302
-0.00244707
-0.000176119
-0.00264812
-0.000218921
-0.00278278
-0.000263058
-0.00279935
-0.000305067
-0.00261951
-0.000338509
-0.00211663
-0.000348294
-0.00107609
0.000844412
-0.000256933
-1.81414e-05
-0.00134684
-4.14658e-05
-0.00167169
-6.93492e-05
-0.001933
-0.000101637
-0.00217968
-0.000138394
-0.00241033
-0.000179058
-0.00260746
-0.000223274
-0.00273857
-0.000269646
-0.00275299
-0.000315597
-0.00257356
-0.000355235
-0.00207701
-0.000376899
-0.00105442
0.000862306
-0.000394805
-1.81397e-05
-0.00132868
-4.15439e-05
-0.00164827
-6.95822e-05
-0.00190495
-0.000102254
-0.002147
-0.000139184
-0.0023734
-0.000180519
-0.00256612
-0.000225352
-0.00269373
-0.000272164
-0.00270618
-0.000318553
-0.00252716
-0.000358973
-0.00203658
-0.000381696
-0.0010317
0.000823527
-0.000342906
-1.84371e-05
-0.00131028
-4.22155e-05
-0.0016245
-7.05637e-05
-0.00187663
-0.000103685
-0.00211388
-0.000141598
-0.00233549
-0.000183967
-0.00252375
-0.000230455
-0.00264724
-0.000279846
-0.00265678
-0.000329914
-0.00247709
-0.000375972
-0.00199051
-0.000408561
-0.000999125
0.000832738
-0.000417779
-1.83767e-05
-0.00129188
-4.23108e-05
-0.00160054
-7.118e-05
-0.00184775
-0.000104605
-0.00208044
-0.000143072
-0.00229702
-0.00018644
-0.00248037
-0.000234378
-0.0025993
-0.000286002
-0.00260516
-0.000339268
-0.00242381
-0.000390355
-0.00193942
-0.000431295
-0.000958169
0.00085125
-0.000449823
-1.85692e-05
-0.00127333
-4.24959e-05
-0.00157662
-7.12674e-05
-0.001819
-0.000104933
-0.00204677
-0.000143634
-0.00225833
-0.000187443
-0.00243656
-0.000236169
-0.00255057
-0.000289059
-0.00255226
-0.000344399
-0.00236847
-0.000398408
-0.00188539
-0.000442721
-0.000913871
0.000869182
-0.000460646
-1.83436e-05
-0.00125497
-4.22217e-05
-0.00155272
-7.09651e-05
-0.00179024
-0.000104545
-0.00201318
-0.000143246
-0.00221963
-0.000186905
-0.00239289
-0.000235694
-0.00250178
-0.000288888
-0.00249906
-0.000344849
-0.0023125
-0.00039972
-0.00183052
-0.000444729
-0.000868833
0.000878344
-0.000453866
-1.82915e-05
-0.0012367
-4.22533e-05
-0.00152876
-7.09158e-05
-0.0017616
-0.000104455
-0.00197963
-0.000142849
-0.00218124
-0.000186538
-0.00234919
-0.000235281
-0.00245303
-0.000288814
-0.00244551
-0.000346107
-0.00225519
-0.000404201
-0.00177241
-0.000457175
-0.000815838
0.000928728
-0.000507537
-1.81289e-05
-0.00121855
-4.18793e-05
-0.00150498
-7.0643e-05
-0.00173283
-0.00010397
-0.00194629
-0.000142282
-0.00214292
-0.000185469
-0.00230599
-0.000233369
-0.00240512
-0.000285464
-0.00239341
-0.000340348
-0.0022003
-0.000395067
-0.00171767
-0.000441205
-0.000769696
0.00093661
-0.000449072
-1.84096e-05
-0.00120016
-4.24137e-05
-0.00148097
-7.15499e-05
-0.00170371
-0.000105617
-0.00191221
-0.000144527
-0.00210401
-0.000188435
-0.00226207
-0.000236859
-0.00235669
-0.000289223
-0.00234103
-0.00034403
-0.00214547
-0.000398319
-0.00166338
-0.0004454
-0.000722601
0.000955955
-0.000464736
-1.89491e-05
-0.00118118
-4.37409e-05
-0.00145615
-7.37086e-05
-0.00167373
-0.0001088
-0.0018771
-0.000149265
-0.00206354
-0.00019489
-0.00221643
-0.000245793
-0.00230577
-0.000301456
-0.00228535
-0.000361041
-0.00208587
-0.000422707
-0.0016017
-0.000484062
-0.000661239
0.00103724
-0.000565326
-1.939e-05
-0.00116181
-4.48371e-05
-0.00143069
-7.53749e-05
-0.0016432
-0.000111421
-0.00184104
-0.000152831
-0.00202213
-0.000200044
-0.0021692
-0.000252709
-0.0022531
-0.000310319
-0.00222773
-0.000371878
-0.0020243
-0.000435263
-0.0015383
-0.000495161
-0.00060133
0.00106712
-0.000525032
-1.97263e-05
-0.00114206
-4.55362e-05
-0.00140484
-7.68787e-05
-0.00161185
-0.000113505
-0.00180439
-0.000156045
-0.00197958
-0.000204616
-0.00212061
-0.000259262
-0.00219844
-0.000319404
-0.00216758
-0.000383971
-0.00195973
-0.000450293
-0.00147198
-0.000512363
-0.000539249
0.00111065
-0.000555898
-1.99005e-05
-0.00112217
-4.60213e-05
-0.00137871
-7.76223e-05
-0.00158025
-0.00011479
-0.00176721
-0.000157941
-0.00193643
-0.000207447
-0.0020711
-0.000263551
-0.00214233
-0.000326146
-0.00210498
-0.000394362
-0.00189151
-0.000466132
-0.0014002
-0.000537381
-0.000468
0.00118281
-0.000609537
-2.00749e-05
-0.00110205
-4.6004e-05
-0.00135274
-7.75888e-05
-0.00154865
-0.000114723
-0.00173005
-0.000157867
-0.00189328
-0.000207275
-0.00202168
-0.000263414
-0.00208619
-0.000326223
-0.00204216
-0.000395056
-0.00182267
-0.000467888
-0.00132736
-0.0005381
-0.00039778
0.00123029
-0.000585592
-1.98313e-05
-0.00108222
-4.60102e-05
-0.00132654
-7.75447e-05
-0.00151713
-0.000114697
-0.00169288
-0.000157597
-0.00185037
-0.000206691
-0.00197257
-0.000262267
-0.0020306
-0.000324241
-0.00198017
-0.000391982
-0.00175491
-0.000463493
-0.00125583
-0.000533695
-0.000327579
0.00127485
-0.000578251
-1.99753e-05
-0.00106221
-4.64965e-05
-0.00129997
-7.83281e-05
-0.00148528
-0.000115743
-0.00165544
-0.000158996
-0.00180711
-0.000208437
-0.00192311
-0.000264418
-0.0019746
-0.000327136
-0.00191744
-0.000396442
-0.00168559
-0.000471182
-0.00118109
-0.000549434
-0.000249307
0.00138007
-0.000654638
-2.02254e-05
-0.00104198
-4.69794e-05
-0.00127319
-7.94831e-05
-0.00145278
-0.000117196
-0.0016177
-0.000160845
-0.00176346
-0.000210524
-0.0018734
-0.000266405
-0.00191871
-0.000328357
-0.00185547
-0.000395461
-0.00161846
-0.000465736
-0.00111079
-0.000533016
-0.000182005
0.0014135
-0.000566439
-2.09299e-05
-0.00102101
-4.8484e-05
-0.00124559
-8.18842e-05
-0.00141937
-0.000120954
-0.0015786
-0.000166009
-0.00171839
-0.000217348
-0.00182204
-0.000275264
-0.00186078
-0.000339848
-0.00179087
-0.000410882
-0.00154741
-0.000487535
-0.00103411
-0.000567158
-0.000102376
0.00148155
-0.0006352
-2.16509e-05
-0.000999352
-5.02175e-05
-0.00121699
-8.4695e-05
-0.00138489
-0.000125051
-0.00153822
-0.000171533
-0.0016719
-0.000224451
-0.0017691
-0.000284188
-0.00180103
-0.000351076
-0.00172396
-0.000425281
-0.00147318
-0.000506655
-0.000952727
-0.000595176
-1.38549e-05
0.00159682
-0.000710444
-2.23706e-05
-0.000976941
-5.20099e-05
-0.0011873
-8.75581e-05
-0.00134933
-0.000129276
-0.00149647
-0.000177157
-0.00162401
-0.000231698
-0.00171454
-0.000292902
-0.0017398
-0.000360721
-0.00165612
-0.000434733
-0.00139915
-0.000513771
-0.000873677
-0.000594085
6.64711e-05
0.00166012
-0.000657385
-2.3378e-05
-0.000953553
-5.4165e-05
-0.00115648
-9.13538e-05
-0.00131215
-0.000134638
-0.00145315
-0.000184633
-0.00157401
-0.000241583
-0.00165756
-0.000305766
-0.0016756
-0.000377192
-0.00158467
-0.000455497
-0.00132082
-0.000539587
-0.000789564
-0.000626435
0.000153321
0.00173894
-0.000705246
-2.42404e-05
-0.000929273
-5.61525e-05
-0.00112451
-9.45201e-05
-0.00127376
-0.000139406
-0.00140824
-0.000191196
-0.00152221
-0.000250159
-0.00159858
-0.000316833
-0.00160892
-0.000391287
-0.0015102
-0.000473492
-0.0012386
-0.000562685
-0.000700366
-0.000657198
0.000247854
0.0018403
-0.000758543
-2.511e-05
-0.000904145
-5.79879e-05
-0.0010916
-9.77472e-05
-0.001234
-0.000144068
-0.00136189
-0.000197359