/*--------------------------------*- C++ -*----------------------------------*\
| =========                 |                                                 |
| \\      /  F ield         | OpenFOAM: The Open Source CFD Toolbox           |
|  \\    /   O peration     | Version:  2.3.0                                 |
|   \\  /    A nd           | Web:      www.OpenFOAM.org                      |
|    \\/     M anipulation  |                                                 |
\*---------------------------------------------------------------------------*/
FoamFile
{
    version     2.0;
    format      ascii;
    class       volScalarField;
    location    "10000";
    object      nut;
}
// * * * * * * * * * * * * * * * * * * * * * * * * * * * * * * * * * * * * * //

dimensions      [0 2 -1 0 0 0 0];

internalField   nonuniform List<scalar> 
123672
(
0.0255053
0.0243686
0.0232742
0.0222177
0.0211981
0.0202182
0.0192796
0.0183797
0.017511
0.0166679
0.0158499
0.0150599
0.0142999
0.0135707
0.0128709
0.0121986
0.0115507
0.0109256
0.0103235
0.00974523
0.00919062
0.00865964
0.00815097
0.0076642
0.00719799
0.00675007
0.00631908
0.00590306
0.00549992
0.00510782
0.00472502
0.00435037
0.00398302
0.00362386
0.00327484
0.00294008
0.00262456
0.00233672
0.00208385
0.00187035
0.00169847
0.00157506
0.0015424
0.0266414
0.0256293
0.0246445
0.0236865
0.0227546
0.0218502
0.0209717
0.0201187
0.0192905
0.0184853
0.0177029
0.0169446
0.0162119
0.0155075
0.014832
0.0141853
0.0135612
0.012954
0.0123635
0.0117895
0.011234
0.0106977
0.0101812
0.00968587
0.00921133
0.00875764
0.00832513
0.00791387
0.00752375
0.00715478
0.00680591
0.00647838
0.00617097
0.00588457
0.00561992
0.00537694
0.00515568
0.00495836
0.00478696
0.00464657
0.004553
0.00453082
0.0046391
0.0277094
0.026801
0.0259133
0.0250455
0.0241984
0.0233713
0.0225642
0.0217767
0.0210081
0.0202578
0.0195259
0.0188125
0.018118
0.0174428
0.0167858
0.0161477
0.0155281
0.014925
0.0143385
0.0137679
0.0132135
0.0126764
0.0121562
0.0116548
0.011172
0.0107091
0.0102658
0.00984335
0.00944331
0.00906515
0.00871113
0.00838254
0.00808121
0.00780934
0.00757021
0.00736563
0.00719836
0.00707303
0.00699313
0.00696337
0.00698804
0.00706992
0.00721063
0.0286992
0.027881
0.0270786
0.0262924
0.0255216
0.0247659
0.024026
0.0233011
0.0225911
0.0218958
0.0212151
0.0205486
0.0198976
0.019261
0.0186385
0.0180308
0.0174381
0.0168595
0.0162956
0.015746
0.0152104
0.0146905
0.014186
0.0136979
0.0132268
0.0127735
0.0123396
0.0119254
0.011533
0.0111629
0.010817
0.010498
0.0102066
0.00994571
0.0097188
0.00952728
0.00937493
0.00926513
0.00920109
0.00918519
0.00921915
0.00930499
0.00944288
0.0296094
0.0288708
0.0281445
0.0274301
0.0267271
0.0260356
0.0253558
0.0246868
0.0240293
0.0233836
0.0227495
0.0221264
0.021515
0.0209151
0.0203266
0.01975
0.0191854
0.0186321
0.0180912
0.017563
0.0170473
0.0165448
0.016056
0.0155821
0.0151232
0.01468
0.0142544
0.0138478
0.0134619
0.013098
0.0127578
0.0124439
0.0121576
0.0119019
0.0116789
0.0114916
0.0113441
0.0112374
0.0111753
0.0111596
0.0111924
0.0112748
0.0114069
0.0304426
0.0297755
0.0291161
0.0284649
0.0278218
0.0271869
0.0265601
0.0259409
0.0253299
0.0247279
0.0241342
0.023549
0.0229729
0.0224056
0.0218471
0.0212979
0.0207588
0.0202289
0.0197087
0.0191991
0.0187005
0.0182139
0.0177392
0.0172776
0.0168289
0.0163952
0.0159771
0.0155761
0.0151943
0.0148338
0.0144972
0.0141858
0.0139015
0.0136475
0.0134257
0.0132393
0.0130923
0.0129861
0.0129228
0.0129048
0.0129345
0.0130131
0.0131405
0.031207
0.0306017
0.0300009
0.0294053
0.028815
0.0282295
0.0276488
0.0270736
0.0265034
0.0259391
0.0253805
0.0248283
0.0242832
0.0237447
0.0232119
0.0226864
0.0221698
0.0216611
0.0211592
0.020665
0.0201805
0.019707
0.0192445
0.0187938
0.0183547
0.0179285
0.0175173
0.0171215
0.0167423
0.0163834
0.0160478
0.0157375
0.0154534
0.0151992
0.0149774
0.014791
0.0146431
0.0145355
0.0144702
0.0144499
0.0144769
0.0145526
0.0146758
0.0319091
0.0313556
0.0308051
0.0302576
0.0297141
0.0291726
0.0286315
0.028096
0.0275605
0.0270302
0.0265017
0.0259777
0.0254603
0.0249474
0.0244372
0.0239311
0.0234329
0.0229433
0.0224591
0.0219775
0.0215043
0.0210404
0.0205885
0.0201477
0.0197177
0.0192984
0.0188915
0.0185031
0.0181268
0.0177668
0.0174306
0.0171199
0.0168349
0.0165795
0.0163578
0.0161683
0.0160195
0.0159114
0.0158443
0.0158208
0.0158457
0.0159203
0.0160406
0.0325579
0.0320442
0.0315355
0.0310284
0.0305251
0.0300262
0.0295155
0.0290199
0.0285091
0.028013
0.0275114
0.0270075
0.0265121
0.0260228
0.0255366
0.0250461
0.0245583
0.0240821
0.0236217
0.0231514
0.0226889
0.0222295
0.0217838
0.0213505
0.0209293
0.0205206
0.0201113
0.0197358
0.0193674
0.0190011
0.0186628
0.0183527
0.0180676
0.0178063
0.0175899
0.0173924
0.0172422
0.0171359
0.0170699
0.0170383
0.0170603
0.0171373
0.0172611
0.00183664
0.00241724
0.00285689
0.00331921
0.0038156
0.00434257
0.00489436
0.00546656
0.00605632
0.00666111
0.0072802
0.00791138
0.00855567
0.0092112
0.00987898
0.0105584
0.0112493
0.0119524
0.012668
0.0133949
0.0141346
0.0148864
0.0156514
0.0164286
0.0172193
0.0180233
0.0188405
0.0196715
0.0205168
0.0213762
0.0222499
0.0231383
0.0240415
0.0249599
0.0258932
0.0268418
0.0278057
0.0287848
0.0297794
0.0307893
0.031814
0.0328529
0.0339069
0.00485
0.00513691
0.00547866
0.00587057
0.00630761
0.00678377
0.0072946
0.00783382
0.00839735
0.00898243
0.00958502
0.0102033
0.0108352
0.0114803
0.0121356
0.0128021
0.0134793
0.0141654
0.0148612
0.0155661
0.0162803
0.0170046
0.0177377
0.0184804
0.0192331
0.0199955
0.0207679
0.0215507
0.022344
0.0231476
0.0239624
0.0247879
0.0256247
0.0264731
0.0273328
0.0282043
0.0290876
0.0299827
0.03089
0.0318096
0.0327412
0.0336846
0.0346394
0.00740605
0.0076561
0.00796053
0.00831542
0.00871547
0.00915623
0.00963348
0.0101415
0.0106768
0.0112353
0.0118126
0.0124075
0.013018
0.0136401
0.0142744
0.0149192
0.015573
0.0162356
0.0169057
0.017584
0.0182701
0.0189637
0.0196639
0.0203716
0.0210869
0.0218093
0.0225386
0.0232757
0.0240204
0.024773
0.0255332
0.0263013
0.0270779
0.0278629
0.0286564
0.0294587
0.0302697
0.0310897
0.0319189
0.0327578
0.0336062
0.0344645
0.0353317
0.00963018
0.00986723
0.0101551
0.010491
0.0108697
0.0112889
0.011744
0.0122305
0.0127443
0.0132817
0.013839
0.0144147
0.0150048
0.0156078
0.0162223
0.0168463
0.0174794
0.0181193
0.0187667
0.0194201
0.0200801
0.020745
0.0214158
0.0220918
0.0227726
0.0234585
0.0241493
0.0248453
0.0255467
0.0262532
0.0269649
0.0276823
0.0284051
0.0291338
0.0298683
0.030609
0.0313559
0.0321092
0.0328691
0.0336358
0.03441
0.0351916
0.0359856
0.0115873
0.0118164
0.0120939
0.0124171
0.012783
0.0131881
0.0136282
0.0140988
0.0145968
0.0151185
0.0156603
0.0162196
0.0167938
0.0173805
0.0179778
0.0185843
0.0191984
0.0198196
0.0204459
0.0210781
0.0217139
0.0223543
0.0229986
0.0236458
0.0242965
0.0249505
0.0256072
0.026267
0.0269302
0.0275962
0.0282654
0.0289375
0.0296129
0.0302919
0.0309745
0.0316608
0.032351
0.0330451
0.0337434
0.0344461
0.0351538
0.0358661
0.0365847
0.0133151
0.0135379
0.013808
0.0141224
0.0144789
0.014874
0.0153033
0.0157629
0.0162488
0.0167579
0.0172871
0.0178341
0.0183953
0.0189684
0.0195516
0.0201429
0.0207414
0.0213452
0.0219544
0.0225671
0.0231831
0.0238017
0.0244224
0.0250451
0.0256694
0.0262952
0.0269225
0.0275511
0.0281808
0.0288114
0.0294428
0.0300754
0.0307093
0.031345
0.0319818
0.0326203
0.0332605
0.0339021
0.0345459
0.0351919
0.0358404
0.0364912
0.0371444
0.014845
0.0150623
0.0153264
0.0156343
0.0159844
0.0163721
0.0167934
0.0172445
0.01772
0.018219
0.0187385
0.0192753
0.019826
0.0203882
0.0209595
0.021538
0.0221225
0.0227124
0.0233064
0.0239032
0.0245016
0.0251012
0.0257019
0.0263029
0.0269045
0.0275063
0.0281076
0.0287085
0.0293094
0.029909
0.0305073
0.0311053
0.0317031
0.0323006
0.0328976
0.033494
0.0340897
0.034685
0.0352809
0.0358769
0.036473
0.0370695
0.0376663
0.0162034
0.0164169
0.0166766
0.0169782
0.0173231
0.0177062
0.0181219
0.0185656
0.0190313
0.0195216
0.0200331
0.0205619
0.0211045
0.0216578
0.0222187
0.0227857
0.0233589
0.0239369
0.0245187
0.0251015
0.0256844
0.0262674
0.0268502
0.0274328
0.0280153
0.0285956
0.0291739
0.029752
0.0303273
0.0309
0.0314682
0.0320363
0.0326027
0.033167
0.0337291
0.0342885
0.0348441
0.0353984
0.0359527
0.0365045
0.0370538
0.0376016
0.0381462
0.0174091
0.0176217
0.0178804
0.0181719
0.0185142
0.0188944
0.019306
0.0197445
0.0201952
0.0206804
0.0211885
0.0217117
0.0222471
0.0227938
0.0233439
0.0239004
0.0244639
0.0250329
0.0256061
0.0261755
0.0267439
0.0273115
0.0278785
0.0284462
0.0290136
0.0295736
0.0301325
0.0306931
0.0312441
0.0317929
0.032331
0.0328777
0.0334166
0.0339518
0.0344834
0.03501
0.0355273
0.0360471
0.0365672
0.037079
0.0375871
0.0380919
0.0385886
0.0324882
0.0311707
0.0298993
0.0286695
0.0274783
0.0263226
0.0252001
0.0241085
0.0230457
0.0220103
0.0210006
0.0200155
0.019054
0.0181152
0.0171984
0.016303
0.0154287
0.0145752
0.0137423
0.01293
0.0121384
0.0113676
0.0106176
0.00988845
0.00918022
0.00849314
0.00782735
0.00718297
0.00656042
0.00595999
0.00538192
0.0048268
0.00429531
0.00378813
0.00330629
0.00285107
0.00242421
0.00202703
0.00166126
0.00133675
0.00108026
0.000809969
0.000474704
0.0328884
0.0317063
0.030561
0.0294497
0.0283694
0.0273178
0.0262928
0.0252922
0.0243145
0.0233582
0.0224217
0.0215039
0.0206038
0.0197203
0.0188528
0.0180006
0.0171633
0.0163405
0.015532
0.0147377
0.0139575
0.0131914
0.0124398
0.0117031
0.0109815
0.0102756
0.00958581
0.00891265
0.00825694
0.00761928
0.00700079
0.00640265
0.00582643
0.00527369
0.00474549
0.00424489
0.00378202
0.0033696
0.00296425
0.00254197
0.00209237
0.00159176
0.000992541
0.0332989
0.0322366
0.0312046
0.0301998
0.0292199
0.0282633
0.0273278
0.0264115
0.0255131
0.0246312
0.0237647
0.0229122
0.0220728
0.0212454
0.0204293
0.0196238
0.0188283
0.0180425
0.017266
0.0164987
0.0157405
0.0149916
0.0142524
0.013523
0.0128043
0.0120968
0.0114013
0.0107189
0.0100507
0.00939771
0.00876121
0.00814339
0.00754834
0.00698275
0.00644631
0.00592261
0.00539701
0.00486107
0.00430401
0.00371108
0.00306401
0.00233653
0.00149425
0.0337117
0.0327563
0.0318256
0.0309166
0.0300275
0.0291568
0.0283027
0.0274634
0.0266375
0.0258247
0.0250232
0.0242322
0.0234507
0.0226777
0.0219124
0.021154
0.0204021
0.019656
0.0189151
0.0181792
0.0174487
0.0167234
0.0160037
0.0152903
0.0145836
0.0138848
0.0131949
0.0125156
0.0118488
0.0111969
0.0105608
0.00993844
0.00932575
0.00871767
0.00810876
0.00749196
0.0068582
0.00619758
0.00549888
0.00474765
0.00392497
0.00300411
0.00195913
0.0341213
0.0332612
0.0324208
0.0315974
0.03079
0.0299967
0.0292158
0.0284461
0.0276866
0.0269364
0.0261945
0.0254604
0.024733
0.0240115
0.0232949
0.0225823
0.0218736
0.0211674
0.0204634
0.0197615
0.0190618
0.0183638
0.0176682
0.0169753
0.0162859
0.0156013
0.014922
0.0142483
0.0135798
0.012916
0.0122552
0.0115949
0.0109314
0.0102599
0.00957464
0.00886916
0.00813514
0.00736272
0.00653967
0.00565104
0.0046776
0.00359364
0.00237897
0.0345222
0.0337473
0.0329869
0.0322404
0.0315059
0.0307819
0.0300671
0.0293599
0.0286597
0.0279662
0.0272784
0.0265962
0.0259184
0.0252449
0.0245741
0.0239049
0.0232366
0.0225685
0.0219002
0.0212313
0.0205613
0.0198895
0.0192156
0.0185396
0.0178617
0.0171823
0.0165019
0.0158201
0.0151362
0.0144485
0.0137548
0.0130526
0.0123384
0.0116073
0.0108536
0.0100702
0.00924861
0.00837842
0.00744705
0.00643927
0.00533576
0.00411206
0.00275289
0.0349123
0.0342116
0.0335225
0.032844
0.0321749
0.031513
0.030857
0.0302059
0.0295594
0.0289163
0.0282766
0.0276406
0.0270077
0.0263777
0.0257486
0.0251186
0.0244865
0.0238516
0.0232136
0.0225715
0.0219241
0.0212709
0.020611
0.0199442
0.0192697
0.0185888
0.0179022
0.0172083
0.0165059
0.015793
0.0150676
0.0143268
0.0135674
0.0127846
0.011972
0.0111216
0.0102239
0.00926843
0.00824234
0.00713022
0.00591322
0.00456801
0.00308373
0.0352865
0.0346522
0.0340257
0.0334079
0.0327976
0.0321909
0.0315875
0.0309871
0.0303885
0.0297903
0.0291921
0.0285956
0.0280022
0.0274097
0.0268179
0.0262218
0.0256189
0.0250105
0.0243964
0.0237762
0.0231453
0.0225032
0.0218512
0.0211882
0.0205132
0.0198262
0.0191332
0.0184268
0.0177068
0.0169717
0.0162172
0.0154417
0.0146425
0.0138161
0.0129547
0.0120474
0.0110838
0.0100534
0.00894388
0.00773989
0.00642275
0.00496984
0.00337555
0.0356517
0.0350682
0.0344947
0.0339295
0.0333739
0.0328171
0.0322604
0.031705
0.0311497
0.0305916
0.0300261
0.029461
0.0289015
0.0283421
0.0277829
0.0272194
0.0266344
0.0260464
0.0254485
0.0248488
0.0242359
0.0235993
0.0229481
0.0222865
0.0216125
0.0209083
0.0202148
0.0194965
0.0187607
0.0180089
0.0172286
0.0164201
0.0155836
0.0147199
0.0138202
0.0128701
0.0118478
0.0107487
0.00956639
0.00828181
0.00687616
0.0053258
0.00362439
0.000157028
0.000193303
0.00027452
0.000367328
0.000478731
0.000614635
0.000772731
0.000946843
0.00113603
0.00134006
0.00155885
0.0017925
0.00204121
0.00230523
0.00258476
0.00288007
0.00319152
0.00351942
0.00386412
0.00422596
0.00460535
0.00500259
0.00541804
0.00585205
0.00630495
0.006777
0.00726843
0.00777955
0.00831039
0.00886108
0.00943157
0.0100217
0.0106312
0.0112594
0.0119059
0.0125696
0.0132493
0.0139434
0.01465
0.0153667
0.0160904
0.0168173
0.0175408
0.000400484
0.000280438
0.000378016
0.000506016
0.00065641
0.000827925
0.00102146
0.00123057
0.0014546
0.0016931
0.00194593
0.00221291
0.00249407
0.00278934
0.00309882
0.00342254
0.00376066
0.0041133
0.0044806
0.0048627
0.00525981
0.00567208
0.00609971
0.00654281
0.00700157
0.00747611
0.00796643
0.00847268
0.0089948
0.00953264
0.0100861
0.0106548
0.0112384
0.0118363
0.0124477
0.0130718
0.0137073
0.0143528
0.0150065
0.0156662
0.0163293
0.0169928
0.0176542
0.000663158
0.000385794
0.000500841
0.000665981
0.000852824
0.00105922
0.00128682
0.00152963
0.00178694
0.00205825
0.00234315
0.00264138
0.0029527
0.00327691
0.00361391
0.00396358
0.00432592
0.00470078
0.00508821
0.00548819
0.00590069
0.00632571
0.0067633
0.00721345
0.00767613
0.00815125
0.00863878
0.00913862
0.0096506
0.0101744
0.0107099
0.0112565
0.0118138
0.0123812
0.0129579
0.013543
0.0141354
0.0147336
0.0153362
0.0159411
0.0165462
0.0171487
0.017746
0.000927975
0.000507483
0.000634553
0.000834161
0.00105391
0.00129377
0.00155317
0.00182739
0.00211554
0.00241702
0.00273128
0.00305787
0.00339641
0.00374661
0.00410812
0.00448075
0.00486425
0.00525841
0.00566308
0.00607809
0.00650333
0.0069386
0.00738382
0.00783881
0.00830341
0.00877748
0.00926075
0.00975309
0.0102541
0.0107635
0.0112809
0.0118058
0.0123377
0.0128759
0.0134197
0.0139682
0.0145203
0.0150747
0.0156301
0.0161847
0.0167364
0.0172826
0.0178196
0.00118171
0.000639944
0.000772329
0.00100269
0.00125247
0.00152408
0.00181298
0.00211612
0.00243255
0.00276152
0.0031024
0.0034546
0.00381759
0.00419088
0.00457412
0.00496688
0.0053689
0.00577975
0.00619912
0.00662676
0.00706244
0.00750579
0.00795665
0.00841479
0.00887986
0.00935158
0.00982968
0.0103138
0.0108035
0.0112985
0.0117983
0.0123023
0.0128101
0.0133208
0.0138339
0.0143485
0.0148635
0.0153778
0.0158902
0.0163992
0.0169029
0.0173992
0.0178864
0.00141733
0.000776619
0.000909693
0.0011677
0.00144585
0.00174602
0.00206199
0.0023916
0.00273382
0.00308778
0.00345273
0.00382795
0.00421282
0.00460678
0.00500928
0.00541983
0.00583794
0.0062632
0.00669513
0.00713337
0.00757756
0.00802733
0.00848233
0.00894223
0.00940663
0.00987519
0.0103475
0.0108231
0.0113016
0.0117824
0.0122652
0.0127493
0.0132343
0.0137196
0.0142042
0.0146875
0.0151685
0.0156464
0.01612
0.016588
0.0170488
0.0175006
0.0179412
0.00163217
0.000912273
0.00104418
0.00132687
0.00163135
0.00195714
0.00229786
0.00265163
0.00301731
0.00339391
0.00378063
0.00417663
0.00458116
0.00499353
0.00541318
0.00583943
0.00627169
0.00670942
0.0071521
0.00759922
0.00805035
0.00850508
0.00896304
0.00942377
0.00988685
0.0103517
0.0108179
0.0112849
0.0117522
0.0122193
0.0126856
0.0131507
0.0136145
0.0140762
0.0145347
0.0149892
0.0154393
0.0158842
0.0163231
0.0167546
0.0171775
0.0175908
0.0179934
0.00182751
0.0010437
0.00117069
0.00147593
0.00180614
0.00215607
0.00251963
0.00289515
0.00328196
0.00367937
0.0040862
0.00450123
0.00492355
0.00535255
0.00578767
0.00622809
0.00667283
0.00712135
0.00757308
0.00802734
0.00848383
0.00894236
0.00940243
0.00986352
0.010325
0.0107858
0.0112456
0.011704
0.0121604
0.0126138
0.0130633
0.0135101
0.0139551
0.0143956
0.0148297
0.0152573
0.0156791
0.0160946
0.0165029
0.0169023
0.0172918
0.0176717
0.0180431
0.00197643
0.00115832
0.00130989
0.00163856
0.00198856
0.00235146
0.00272668
0.00311809
0.00352711
0.00394785
0.0043765
0.00480853
0.00524603
0.00568992
0.00614023
0.00659372
0.00704828
0.00750557
0.00796412
0.00842253
0.00888238
0.00934399
0.00980582
0.0102675
0.0107277
0.0111835
0.0116365
0.0120869
0.0125322
0.0129707
0.0133998
0.0138299
0.0142618
0.0146836
0.015093
0.0154938
0.0158906
0.0162802
0.0166631
0.0170341
0.0173929
0.0177409
0.0180757
5.34175e-06
0.000168611
0.000437531
0.000772131
0.00110153
0.00142349
0.00174011
0.00205279
0.00236652
0.002685
0.00301015
0.00334535
0.00369087
0.00404661
0.00441344
0.00479173
0.00518295
0.00558831
0.00600981
0.00644892
0.00690827
0.00738977
0.00789545
0.00842688
0.00898529
0.00957219
0.0101875
0.0108309
0.0115032
0.0122057
0.0129396
0.0137054
0.0145034
0.0153322
0.0161877
0.0170684
0.017975
0.0189204
0.0199183
0.0209663
0.0220608
0.0232024
0.0243988
1.54342e-06
8.10234e-05
0.000259542
0.000472869
0.000734964
0.00105477
0.00140106
0.00174763
0.00209515
0.00244097
0.00278293
0.00311984
0.00345372
0.0037873
0.00412356
0.00446509
0.00481441
0.00517398
0.00554634
0.00593436
0.00634078
0.00676898
0.00722152
0.00770108
0.00821033
0.00875151
0.00932562
0.00993382
0.0105768
0.0112555
0.01197
0.0127207
0.0135076
0.0143288
0.015182
0.0160656
0.0169792
0.0179272
0.0189158
0.0199467
0.0210222
0.0221563
0.0233564
4.31057e-07
4.68928e-05
0.000176489
0.000341786
0.000538597
0.000778143
0.0010622
0.00139196
0.0017704
0.00216656
0.00255614
0.00293663
0.00330877
0.00367357
0.00403187
0.00438524
0.00473561
0.0050853
0.00543708
0.00579434
0.00616059
0.00654005
0.00693703
0.00735581
0.00780104
0.00827675
0.00878642
0.00933316
0.00991927
0.0105466
0.0112161
0.0119281
0.0126824
0.0134778
0.0143126
0.015185
0.0160931
0.017038
0.0180223
0.0190471
0.020114
0.0212291
0.0223966
5.9195e-07
3.65041e-05
0.000156789
0.000303284
0.000473788
0.000678459
0.0009215
0.00120509
0.00153178
0.00190395
0.00231161
0.00272305
0.00312909
0.00352824
0.00392035
0.0043057
0.00468454
0.00505726
0.00542493
0.00578899
0.00615184
0.0065164
0.00688667
0.00726731
0.0076636
0.00808131
0.00852615
0.0090038
0.0095193
0.010077
0.0106801
0.0113309
0.0120307
0.0127793
0.0135755
0.0144175
0.0153036
0.0162333
0.017206
0.0182215
0.0192817
0.0203876
0.0215393
5.11256e-07
3.86508e-05
0.000145222
0.000276493
0.000432393
0.000617465
0.000837345
0.00109314
0.00138696
0.00172109
0.00209809
0.00251576
0.00294559
0.00337288
0.00379396
0.00420817
0.00461563
0.00501636
0.00541025
0.00579767
0.00617914
0.00655575
0.00692945
0.00730314
0.00768075
0.00806737
0.00846905
0.00889241
0.00934443
0.00983227
0.0103623
0.0109396
0.0115686
0.0122516
0.0129894
0.0137815
0.0146269
0.015524
0.0164714
0.017468
0.0185137
0.0196067
0.0207434
5.41065e-07
3.767e-05
0.000140414
0.000261954
0.00040863
0.000581758
0.000786284
0.00102413
0.00129703
0.00160708
0.00195685
0.00234883
0.0027786
0.00322163
0.00366412
0.00410213
0.00453447
0.00496047
0.0053799
0.00579254
0.00619814
0.00659677
0.00698876
0.00737515
0.00775795
0.00813999
0.00852573
0.00892063
0.0093316
0.00976628
0.0102331
0.0107399
0.0112943
0.0119021
0.0125677
0.0132934
0.01408
0.0149271
0.0158332
0.0167968
0.0178161
0.0188897
0.0200147
5.46872e-07
3.95758e-05
0.0001403
0.000251734
0.00039176
0.0005568
0.000750975
0.000976723
0.00123526
0.00152843
0.00185866
0.00222844
0.00264005
0.00308461
0.00354062
0.00399716
0.00445006
0.00489775
0.00533974
0.00577543
0.00620438
0.00662605
0.00704024
0.00744679
0.00784611
0.00823952
0.00862916
0.00901849
0.00941241
0.00981755
0.0102417
0.0106938
0.0111833
0.011719
0.012309
0.0129595
0.0136745
0.0144564
0.0153055
0.0162207
0.0172004
0.0182418
0.0193417
5.69319e-07
4.03174e-05
0.000139124
0.000244898
0.000380339
0.000539686
0.000726478
0.00094359
0.00119174
0.0014727
0.00178881
0.00214231
0.0025358
0.00296961
0.00342951
0.00389818
0.0043673
0.0048334
0.00529488
0.00575103
0.00620108
0.00664447
0.0070805
0.0075085
0.00792822
0.00833967
0.00874352
0.00914139
0.00953616
0.00993218
0.0103354
0.0107537
0.0111964
0.0116736
0.0121956
0.0127721
0.0134112
0.0141186
0.0148983
0.0157513
0.0166774
0.0176748
0.0187423
5.90641e-07
4.14898e-05
0.000138942
0.000240331
0.000372202
0.000527274
0.000708694
0.000919469
0.00115999
0.00143197
0.00173738
0.00207844
0.0024578
0.00287762
0.00333324
0.00380813
0.00428942
0.00477062
0.00524897
0.00572309
0.00619209
0.00665518
0.00711153
0.00756025
0.00800061
0.008432
0.00885425
0.00926766
0.00967343
0.010074
0.0104732
0.0108768
0.0112923
0.0117292
0.0121983
0.0127111
0.0132786
0.0139105
0.0146145
0.0153956
0.0162559
0.0171963
0.0182161
6.16035e-07
4.25549e-05
0.000139024
0.000237448
0.000366484
0.000518414
0.000695817
0.00090171
0.00113645
0.00140149
0.00169869
0.0020303
0.00239872
0.00280635
0.0032533
0.00372886
0.00421796
0.00471119
0.005204
0.00569405
0.00617997
0.00666094
0.00713582
0.00760388
0.00806398
0.00851523
0.00895693
0.00938861
0.00981042
0.0102232
0.0106292
0.0110318
0.0114365
0.011851
0.0122847
0.0127492
0.0132566
0.0138194
0.0144487
0.0151537
0.0159406
0.0168126
0.017769
6.40714e-07
4.37542e-05
0.000139461
0.000235863
0.000362555
0.00051204
0.000686405
0.000888499
0.0011187
0.00137836
0.00166925
0.00199337
0.00235318
0.00275086
0.00318833
0.00366058
0.00415369
0.0046561
0.00516111
0.00566521
0.00616642
0.0066635
0.00715545
0.00764134
0.00811996
0.00859018
0.00905109
0.00950173
0.00994144
0.0103704
0.0107891
0.0111995
0.0116052
0.0120113
0.0124257
0.0128581
0.0133204
0.0138259
0.0143882
0.0150194
0.0157305
0.0165286
0.0174193
6.58216e-07
4.50037e-05
0.000140143
0.00023506
0.000359731
0.000507371
0.000679416
0.000878523
0.00110527
0.00136076
0.00164656
0.00196481
0.00231754
0.00270725
0.00313614
0.00360286
0.0040969
0.0046058
0.00512093
0.00563735
0.00615227
0.00666412
0.00717183
0.0076742
0.00817007
0.00865826
0.00913756
0.00960681
0.010065
0.0105115
0.0109461
0.0113694
0.0117834
0.0121914
0.0125989
0.0130137
0.013446
0.0139084
0.0144152
0.0149808
0.0156189
0.0163404
0.0171514
6.1166e-07
4.6043e-05
0.000140938
0.000234843
0.000357855
0.000504015
0.000674245
0.000871057
0.00109505
0.00134716
0.00162894
0.0019424
0.00228951
0.00267266
0.00309412
0.00355464
0.00404741
0.00456048
0.00508365
0.0056108
0.00613825
0.00666375
0.00718597
0.00770369
0.00821566
0.00872068
0.00921747
0.00970468
0.0101811
0.0106455
0.0110973
0.0115363
0.011963
0.0123793
0.0127888
0.0131972
0.0136127
0.0140461
0.0145108
0.0150218
0.0155948
0.0162448
0.0169858
3.59325e-07
4.67602e-05
0.000141959
0.000235065
0.000356628
0.00050167
0.000670542
0.000865464
0.0010872
0.00133663
0.00161518
0.00192469
0.00226727
0.00264499
0.00306031
0.00351472
0.00400478
0.00451998
0.00504952
0.00558597
0.00612466
0.00666275
0.00719849
0.00773061
0.00825766
0.00877852
0.00929186
0.0097962
0.0102902
0.0107725
0.0112418
0.0116975
0.0121394
0.0125681
0.0129857
0.0133959
0.0138049
0.0142213
0.0146569
0.015126
0.0156445
0.016229
0.0168943
3.73107e-07
4.78284e-05
0.000142892
0.000235439
0.000355879
0.00050006
0.000667803
0.000861265
0.00108133
0.00132859
0.00160448
0.00191087
0.00224956
0.00262274
0.00303291
0.00348193
0.00396835
0.00448415
0.00501842
0.00556274
0.00611154
0.00666135
0.00720984
0.00775545
0.00829674
0.00883258
0.00936158
0.00988224
0.0103931
0.0108927
0.0113796
0.0118525
0.0123107
0.0127541
0.0131835
0.0136011
0.0140112
0.0144204
0.0148383
0.0152775
0.0157532
0.0162824
0.0168826
3.87922e-07
4.89696e-05
0.000143876
0.00023599
0.000355556
0.00049903
0.000665915
0.000858339
0.00107698
0.00132243
0.00159621
0.0018999
0.00223543
0.00260491
0.00301079
0.0034549
0.00393752
0.00445269
0.00499033
0.00554123
0.00609924
0.00665979
0.00722018
0.00777857
0.00833341
0.00888348
0.00942739
0.00996362
0.0104907
0.011007
0.0115109
0.012001
0.0124761
0.0129354
0.0133788
0.0138076
0.0142241
0.0146334
0.0150429
0.0154629
0.0159071
0.0163919
0.0169351
4.03809e-07
5.00665e-05
0.000144834
0.000236656
0.000355505
0.000498496
0.000664733
0.000856273
0.00107375
0.00131782
0.00158983
0.00189133
0.0022242
0.00259061
0.00299265
0.00343268
0.00391152
0.00442546
0.00496515
0.00552168
0.00608773
0.00665812
0.0072298
0.00780027
0.0083681
0.00893176
0.0094899
0.010041
0.0105835
0.011116
0.0116364
0.0121434
0.0126353
0.0131111
0.0135699
0.014012
0.0144388
0.0148535
0.0152615
0.0156712
0.0160942
0.0165452
0.0170408
4.199e-07
5.11569e-05
0.000145778
0.000237336
0.000355669
0.000498297
0.000664068
0.000854911
0.00107152
0.00131447
0.00158501
0.00188471
0.00221536
0.0025791
0.00297802
0.00341449
0.00388981
0.00440177
0.00494287
0.00550388
0.00607702
0.00665657
0.00723869
0.00782091
0.00840102
0.00897776
0.00954947
0.0101148
0.0106723
0.0112201
0.0117567
0.0122801
0.0127887
0.0132811
0.0137559
0.0142128
0.0146522
0.0150759
0.0154878
0.0158942
0.0163044
0.0167315
0.0171909
4.34862e-07
5.21925e-05
0.000146707
0.00023812
0.000356061
0.000498405
0.000663865
0.000854177
0.00107009
0.00131213
0.00158148
0.00187965
0.0022085
0.00256998
0.00296631
0.0033996
0.00387164
0.00438151
0.00492324
0.00548782
0.00606717
0.00665515
0.00724725
0.00784037
0.00843242
0.00902163
0.00960649
0.0101856
0.0107575
0.0113202
0.0118722
0.0124116
0.0129366
0.0134454
0.0139366
0.014409
0.0148625
0.0152978
0.0157172
0.0161257
0.0165303
0.0169418
0.0173741
4.50632e-07
5.32035e-05
0.00014765
0.000238931
0.000356588
0.000498774
0.000664
0.000853945
0.00106931
0.00131063
0.001579
0.00187598
0.00220327
0.00256286
0.00295684
0.00338739
0.00385665
0.00436436
0.00490592
0.00547337
0.00605827
0.00665391
0.0072553
0.00785892
0.0084624
0.00906371
0.00966131
0.0102538
0.0108394
0.0114166
0.0119835
0.0125385
0.0130793
0.0136044
0.0141117
0.0146002
0.0150686
0.0155171
0.015947
0.0163614
0.0167658
0.0171686
0.0175811
4.65867e-07
5.41577e-05
0.00014852
0.000239737
0.000357229
0.000499368
0.000664487
0.000854087
0.00106906
0.00130983
0.00157745
0.00187334
0.00219935
0.00255734
0.00294937
0.00337768
0.00384432
0.00434976
0.00489098
0.00546055
0.00605021
0.0066528
0.00726301
0.00787676
0.00849123
0.00910415
0.00971415
0.0103194
0.0109185
0.0115096
0.0120911
0.0126611
0.0132175
0.0137584
0.0142819
0.0147862
0.0152702
0.015733
0.016175
0.0165984
0.017007
0.0174077
0.0178121
4.80295e-07
5.50647e-05
0.000149371
0.000240551
0.00035796
0.000500116
0.000665157
0.000854588
0.00106927
0.00130959
0.00157656
0.00187164
0.00219661
0.00255333
0.0029436
0.00336993
0.00383422
0.00433772
0.00487819
0.0054493
0.00604314
0.00665218
0.00727057
0.00789385
0.00851881
0.00914328
0.00976516
0.010383
0.010995
0.0115998
0.0121953
0.0127799
0.0133514
0.0139079
0.0144472
0.0149675
0.0154671
0.0159447
0.0164003
0.0168346
0.0172503
0.0176524
0.0180483
4.96297e-07
5.59859e-05
0.000150225
0.000241382
0.000358807
0.00050099
0.000666013
0.000855375
0.00106991
0.0013099
0.00157634
0.0018708
0.00219487
0.00255034
0.00293927
0.00336385
0.00382626
0.00432778
0.00486729
0.00543965
0.00603701
0.00665183
0.00727786
0.00791025
0.00854552
0.00918091
0.00981456
0.0104445
0.0110693
0.0116872
0.0122966
0.0128953
0.0134816
0.0140532
0.014608
0.0151441
0.0156593
0.0161522
0.0166219
0.0170686
0.0174936
0.0179
0.0182924
5.11855e-07
5.68728e-05
0.000151064
0.000242233
0.000359694
0.000501968
0.000667045
0.000856372
0.00107078
0.00131048
0.00157665
0.00187058
0.00219394
0.00254847
0.00293623
0.00335933
0.00381996
0.00431968
0.00485826
0.00543133
0.00603171
0.00665175
0.0072849
0.00792608
0.00857121
0.00921744
0.00986228
0.0105042
0.0111415
0.0117723
0.012395
0.0130077
0.0136082
0.0141947
0.0147647
0.0153163
0.0158471
0.0163554
0.0168399
0.0172999
0.0177361
0.0181512
0.0185516
5.25884e-07
5.7716e-05
0.000151849
0.000243044
0.000360596
0.000502994
0.00066819
0.000857575
0.0010719
0.00131149
0.00157741
0.00187093
0.00219365
0.00254746
0.00293415
0.00335598
0.00381498
0.00431322
0.0048507
0.00542414
0.00602713
0.00665195
0.00729189
0.00794133
0.00859593
0.0092525
0.00990867
0.0105623
0.0112117
0.0118552
0.012491
0.0131172
0.0137318
0.0143327
0.0149177
0.0154845
0.0160307
0.0165545
0.0170539
0.0175281
0.0179766
0.0184009
0.018803
5.40538e-07
5.84926e-05
0.000152599
0.000243822
0.000361553
0.000504157
0.000669453
0.000858892
0.00107326
0.0013128
0.00157851
0.00187164
0.00219392
0.00254705
0.00293294
0.00335356
0.00381131
0.00430808
0.00484445
0.00541822
0.00602323
0.0066524
0.0072986
0.00795594
0.00861974
0.00928655
0.00995362
0.0106188
0.0112801
0.011936
0.0125846
0.0132241
0.0138525
0.0144676
0.0150672
0.0156489
0.0162105
0.0167496
0.0172642
0.0177528
0.0182148
0.0186506
0.0190629
5.54273e-07
5.92604e-05
0.000153312
0.000244592
0.000362529
0.000505311
0.000670799
0.000860359
0.00107474
0.00131423
0.00157979
0.00187274
0.00219465
0.00254725
0.00293237
0.00335216
0.00380872
0.00430422
0.00483956
0.00541322
0.00602013
0.00665311
0.00730515
0.00797001
0.00864264
0.00931944
0.00999711
0.0106735
0.0113467
0.0120148
0.012676
0.0133285
0.0139704
0.0145995
0.0152135
0.0158099
0.0163865
0.0169408
0.0174706
0.0179741
0.0184499
0.0188978
0.0193182
5.68339e-07
5.99842e-05
0.000154003
0.000245349
0.000363463
0.000506462
0.000672127
0.000861799
0.00107633
0.00131588
0.00158136
0.00187417
0.00219577
0.00254786
0.00293241
0.00335144
0.00380705
0.00430134
0.00483573
0.00540926
0.0060176
0.00665401
0.00731153
0.0079835
0.00866478
0.00935099
0.0100392
0.0107267
0.0114115
0.0120915
0.0127652
0.0134306
0.0140857
0.0147285
0.0153565
0.0159675
0.016559
0.0171283
0.0176732
0.0181916
0.0186817
0.0191426
0.0195746
5.8231e-07
6.06632e-05
0.000154656
0.000246057
0.000364412
0.000507685
0.000673535
0.000863397
0.00107808
0.00131758
0.00158313
0.00187584
0.00219717
0.00254893
0.00293305
0.00335129
0.00380604
0.00429936
0.00483279
0.00540597
0.00601552
0.00665505
0.00731756
0.00799628
0.00868578
0.00938144
0.0100799
0.0107782
0.0114744
0.0121664
0.0128523
0.0135303
0.0141985
0.0148548
0.0154967
0.0161219
0.0167279
0.0173121
0.017872
0.0184052
0.0189098