/*--------------------------------*- C++ -*----------------------------------*\
| =========                 |                                                 |
| \\      /  F ield         | OpenFOAM: The Open Source CFD Toolbox           |
|  \\    /   O peration     | Version:  2.3.0                                 |
|   \\  /    A nd           | Web:      www.OpenFOAM.org                      |
|    \\/     M anipulation  |                                                 |
\*---------------------------------------------------------------------------*/
FoamFile
{
    version     2.0;
    format      ascii;
    class       volScalarField;
    location    "10000";
    object      nuTilda;
}
// * * * * * * * * * * * * * * * * * * * * * * * * * * * * * * * * * * * * * //

dimensions      [0 2 -1 0 0 0 0];

internalField   nonuniform List<scalar> 
123672
(
0.0255053
0.0243686
0.0232742
0.0222177
0.0211981
0.0202182
0.0192796
0.0183797
0.017511
0.0166679
0.0158499
0.0150599
0.0142999
0.0135707
0.0128709
0.0121986
0.0115507
0.0109256
0.0103235
0.00974524
0.00919064
0.00865966
0.008151
0.00766423
0.00719802
0.0067501
0.00631911
0.00590309
0.00549996
0.00510788
0.00472508
0.00435044
0.00398311
0.00362396
0.00327497
0.00294024
0.00262476
0.00233697
0.00208417
0.00187075
0.00169895
0.00157562
0.00154298
0.0266414
0.0256293
0.0246445
0.0236865
0.0227546
0.0218502
0.0209717
0.0201187
0.0192905
0.0184853
0.0177029
0.0169446
0.0162119
0.0155075
0.014832
0.0141853
0.0135613
0.012954
0.0123635
0.0117895
0.011234
0.0106977
0.0101813
0.00968589
0.00921134
0.00875766
0.00832515
0.00791389
0.00752377
0.00715481
0.00680594
0.00647841
0.006171
0.00588461
0.00561997
0.00537699
0.00515573
0.00495841
0.00478702
0.00464664
0.00455307
0.00453089
0.00463916
0.0277094
0.026801
0.0259133
0.0250455
0.0241984
0.0233713
0.0225642
0.0217767
0.0210081
0.0202578
0.0195259
0.0188125
0.018118
0.0174428
0.0167858
0.0161477
0.0155281
0.014925
0.0143385
0.0137679
0.0132135
0.0126764
0.0121563
0.0116549
0.011172
0.0107092
0.0102658
0.00984336
0.00944333
0.00906517
0.00871114
0.00838256
0.00808123
0.00780937
0.00757024
0.00736566
0.00719839
0.00707306
0.00699316
0.0069634
0.00698807
0.00706994
0.00721066
0.0286992
0.027881
0.0270786
0.0262924
0.0255216
0.0247659
0.024026
0.0233011
0.0225911
0.0218958
0.0212151
0.0205487
0.0198976
0.019261
0.0186385
0.0180308
0.0174381
0.0168595
0.0162956
0.015746
0.0152104
0.0146905
0.0141861
0.0136979
0.0132268
0.0127735
0.0123396
0.0119254
0.011533
0.0111629
0.010817
0.010498
0.0102066
0.00994572
0.00971881
0.0095273
0.00937495
0.00926515
0.00920111
0.00918521
0.00921917
0.00930501
0.00944289
0.0296094
0.0288708
0.0281445
0.0274301
0.0267271
0.0260356
0.0253558
0.0246868
0.0240293
0.0233836
0.0227495
0.0221264
0.021515
0.0209151
0.0203266
0.01975
0.0191854
0.0186321
0.0180912
0.0175631
0.0170473
0.0165448
0.016056
0.0155821
0.0151232
0.01468
0.0142544
0.0138478
0.0134619
0.013098
0.0127578
0.0124439
0.0121577
0.0119019
0.0116789
0.0114916
0.0113441
0.0112374
0.0111753
0.0111596
0.0111924
0.0112748
0.0114069
0.0304426
0.0297755
0.0291161
0.0284649
0.0278218
0.0271869
0.0265601
0.0259409
0.0253299
0.0247279
0.0241342
0.023549
0.0229729
0.0224056
0.0218471
0.0212979
0.0207588
0.0202289
0.0197087
0.0191991
0.0187005
0.0182139
0.0177392
0.0172776
0.0168289
0.0163952
0.0159771
0.0155761
0.0151943
0.0148338
0.0144972
0.0141858
0.0139015
0.0136475
0.0134257
0.0132393
0.0130923
0.0129861
0.0129228
0.0129048
0.0129345
0.0130131
0.0131405
0.031207
0.0306017
0.0300009
0.0294053
0.028815
0.0282295
0.0276488
0.0270736
0.0265034
0.0259391
0.0253805
0.0248283
0.0242832
0.0237447
0.0232119
0.0226864
0.0221698
0.0216611
0.0211592
0.020665
0.0201805
0.019707
0.0192446
0.0187938
0.0183547
0.0179285
0.0175173
0.0171215
0.0167423
0.0163834
0.0160478
0.0157375
0.0154534
0.0151992
0.0149774
0.014791
0.0146431
0.0145355
0.0144702
0.0144499
0.0144769
0.0145526
0.0146758
0.0319091
0.0313556
0.0308051
0.0302576
0.0297141
0.0291726
0.0286315
0.028096
0.0275605
0.0270302
0.0265017
0.0259777
0.0254603
0.0249474
0.0244372
0.0239311
0.0234329
0.0229433
0.0224591
0.0219775
0.0215043
0.0210404
0.0205885
0.0201477
0.0197177
0.0192984
0.0188915
0.0185031
0.0181268
0.0177668
0.0174306
0.0171199
0.016835
0.0165795
0.0163578
0.0161683
0.0160195
0.0159114
0.0158443
0.0158208
0.0158457
0.0159203
0.0160406
0.0325579
0.0320442
0.0315355
0.0310284
0.0305251
0.0300262
0.0295155
0.0290199
0.0285091
0.028013
0.0275114
0.0270075
0.0265121
0.0260228
0.0255366
0.0250461
0.0245583
0.0240821
0.0236217
0.0231514
0.0226889
0.0222295
0.0217838
0.0213505
0.0209293
0.0205206
0.0201113
0.0197358
0.0193674
0.0190011
0.0186628
0.0183527
0.0180676
0.0178063
0.0175899
0.0173924
0.0172422
0.0171359
0.0170699
0.0170383
0.0170603
0.0171373
0.0172611
0.00183705
0.00241748
0.00285706
0.00331934
0.00381569
0.00434265
0.00489442
0.00546661
0.00605635
0.00666114
0.00728022
0.0079114
0.00855569
0.00921121
0.00987899
0.0105584
0.0112494
0.0119524
0.012668
0.0133949
0.0141346
0.0148864
0.0156514
0.0164286
0.0172193
0.0180233
0.0188405
0.0196715
0.0205168
0.0213762
0.0222499
0.0231383
0.0240415
0.0249599
0.0258932
0.0268418
0.0278057
0.0287848
0.0297794
0.0307893
0.031814
0.0328529
0.0339069
0.00485006
0.00513696
0.0054787
0.00587061
0.00630764
0.0067838
0.00729462
0.00783384
0.00839737
0.00898245
0.00958504
0.0102033
0.0108352
0.0114803
0.0121356
0.0128021
0.0134793
0.0141654
0.0148612
0.0155661
0.0162803
0.0170046
0.0177377
0.0184804
0.0192331
0.0199955
0.0207679
0.0215507
0.022344
0.0231476
0.0239625
0.0247879
0.0256247
0.0264731
0.0273328
0.0282043
0.0290876
0.0299827
0.03089
0.0318096
0.0327412
0.0336846
0.0346394
0.00740607
0.00765612
0.00796055
0.00831544
0.00871549
0.00915625
0.0096335
0.0101415
0.0106768
0.0112353
0.0118127
0.0124076
0.013018
0.0136401
0.0142744
0.0149192
0.015573
0.0162356
0.0169058
0.017584
0.0182702
0.0189637
0.0196639
0.0203716
0.0210869
0.0218093
0.0225386
0.0232757
0.0240204
0.024773
0.0255332
0.0263013
0.0270779
0.0278629
0.0286564
0.0294587
0.0302697
0.0310897
0.0319189
0.0327578
0.0336062
0.0344645
0.0353317
0.0096302
0.00986724
0.0101551
0.010491
0.0108697
0.0112889
0.0117441
0.0122305
0.0127443
0.0132817
0.013839
0.0144147
0.0150048
0.0156078
0.0162223
0.0168463
0.0174794
0.0181193
0.0187667
0.0194201
0.0200802
0.020745
0.0214158
0.0220918
0.0227726
0.0234585
0.0241493
0.0248453
0.0255467
0.0262532
0.0269649
0.0276823
0.0284051
0.0291338
0.0298683
0.030609
0.0313559
0.0321092
0.0328691
0.0336358
0.03441
0.0351916
0.0359856
0.0115873
0.0118164
0.0120939
0.0124171
0.012783
0.0131881
0.0136282
0.0140988
0.0145968
0.0151185
0.0156603
0.0162196
0.0167938
0.0173806
0.0179778
0.0185843
0.0191984
0.0198196
0.0204459
0.0210781
0.0217139
0.0223543
0.0229986
0.0236458
0.0242966
0.0249505
0.0256072
0.026267
0.0269302
0.0275962
0.0282654
0.0289375
0.0296129
0.0302919
0.0309745
0.0316608
0.032351
0.0330451
0.0337434
0.0344461
0.0351538
0.0358661
0.0365847
0.0133151
0.0135379
0.013808
0.0141224
0.0144789
0.014874
0.0153033
0.0157629
0.0162488
0.0167579
0.0172872
0.0178341
0.0183953
0.0189684
0.0195516
0.0201429
0.0207414
0.0213452
0.0219544
0.0225671
0.0231831
0.0238017
0.0244224
0.0250451
0.0256694
0.0262952
0.0269225
0.0275511
0.0281808
0.0288114
0.0294428
0.0300754
0.0307093
0.031345
0.0319818
0.0326203
0.0332605
0.0339021
0.0345459
0.0351919
0.0358404
0.0364912
0.0371444
0.014845
0.0150623
0.0153264
0.0156343
0.0159844
0.0163721
0.0167934
0.0172445
0.0177201
0.0182191
0.0187385
0.0192753
0.019826
0.0203882
0.0209595
0.021538
0.0221225
0.0227124
0.0233064
0.0239032
0.0245016
0.0251012
0.0257019
0.0263029
0.0269045
0.0275063
0.0281076
0.0287085
0.0293094
0.029909
0.0305073
0.0311053
0.0317031
0.0323006
0.0328976
0.033494
0.0340897
0.034685
0.0352809
0.0358769
0.036473
0.0370695
0.0376663
0.0162034
0.016417
0.0166766
0.0169783
0.0173231
0.0177062
0.0181219
0.0185656
0.0190313
0.0195216
0.0200331
0.020562
0.0211045
0.0216578
0.0222187
0.0227857
0.0233589
0.0239369
0.0245187
0.0251015
0.0256844
0.0262674
0.0268502
0.0274328
0.0280153
0.0285956
0.0291739
0.029752
0.0303273
0.0309
0.0314682
0.0320363
0.0326027
0.033167
0.0337291
0.0342885
0.0348441
0.0353984
0.0359527
0.0365045
0.0370538
0.0376016
0.0381462
0.0174091
0.0176217
0.0178804
0.0181719
0.0185142
0.0188944
0.019306
0.0197445
0.0201952
0.0206804
0.0211885
0.0217117
0.0222471
0.0227939
0.0233439
0.0239004
0.0244639
0.0250329
0.0256061
0.0261755
0.0267439
0.0273115
0.0278785
0.0284462
0.0290136
0.0295736
0.0301325
0.0306931
0.0312441
0.0317929
0.032331
0.0328777
0.0334166
0.0339518
0.0344834
0.03501
0.0355273
0.0360471
0.0365672
0.037079
0.0375871
0.0380919
0.0385886
0.0324882
0.0311707
0.0298993
0.0286695
0.0274783
0.0263226
0.0252001
0.0241085
0.0230457
0.0220103
0.0210006
0.0200155
0.019054
0.0181152
0.0171984
0.016303
0.0154287
0.0145752
0.0137423
0.01293
0.0121384
0.0113676
0.0106176
0.00988846
0.00918023
0.00849316
0.00782737
0.007183
0.00656045
0.00596003
0.00538197
0.00482686
0.00429538
0.00378822
0.00330642
0.00285124
0.00242444
0.00202736
0.00166176
0.00133753
0.00108144
0.000812056
0.000480605
0.0328884
0.0317063
0.030561
0.0294497
0.0283694
0.0273178
0.0262928
0.0252922
0.0243145
0.0233582
0.0224217
0.0215039
0.0206038
0.0197203
0.0188528
0.0180006
0.0171633
0.0163405
0.015532
0.0147377
0.0139575
0.0131914
0.0124398
0.0117031
0.0109815
0.0102757
0.00958583
0.00891267
0.00825696
0.0076193
0.00700082
0.00640269
0.00582647
0.00527374
0.00474555
0.00424497
0.00378212
0.00336972
0.00296441
0.00254218
0.00209268
0.0015923
0.000993935
0.0332989
0.0322366
0.0312046
0.0301998
0.0292199
0.0282633
0.0273278
0.0264115
0.0255131
0.0246312
0.0237647
0.0229122
0.0220728
0.0212454
0.0204293
0.0196238
0.0188283
0.0180425
0.017266
0.0164987
0.0157405
0.0149916
0.0142524
0.013523
0.0128043
0.0120968
0.0114013
0.010719
0.0100507
0.00939773
0.00876123
0.00814341
0.00754836
0.00698277
0.00644635
0.00592265
0.00539705
0.00486112
0.00430409
0.00371118
0.00306416
0.00233679
0.00149487
0.0337117
0.0327563
0.0318256
0.0309166
0.0300275
0.0291568
0.0283027
0.0274634
0.0266375
0.0258247
0.0250232
0.0242322
0.0234507
0.0226777
0.0219124
0.021154
0.0204021
0.019656
0.0189151
0.0181792
0.0174487
0.0167234
0.0160037
0.0152903
0.0145836
0.0138848
0.0131949
0.0125156
0.0118489
0.0111969
0.0105608
0.00993846
0.00932576
0.00871769
0.00810878
0.00749199
0.00685823
0.00619762
0.00549893
0.00474771
0.00392506
0.00300427
0.00195949
0.0341213
0.0332612
0.0324208
0.0315974
0.03079
0.0299967
0.0292158
0.0284461
0.0276866
0.0269364
0.0261945
0.0254604
0.024733
0.0240115
0.0232949
0.0225823
0.0218736
0.0211674
0.0204634
0.0197615
0.0190618
0.0183638
0.0176682
0.0169753
0.0162859
0.0156013
0.0149221
0.0142483
0.0135798
0.012916
0.0122552
0.0115949
0.0109314
0.0102599
0.00957466
0.00886918
0.00813516
0.00736274
0.00653971
0.00565108
0.00467766
0.00359374
0.00237921
0.0345222
0.0337473
0.0329869
0.0322404
0.0315059
0.0307819
0.0300671
0.0293599
0.0286597
0.0279662
0.0272784
0.0265962
0.0259184
0.0252449
0.0245741
0.0239049
0.0232366
0.0225685
0.0219002
0.0212313
0.0205613
0.0198895
0.0192156
0.0185396
0.0178617
0.0171823
0.0165019
0.0158201
0.0151363
0.0144485
0.0137548
0.0130526
0.0123384
0.0116073
0.0108536
0.0100702
0.00924863
0.00837844
0.00744707
0.00643931
0.00533581
0.00411214
0.00275308
0.0349123
0.0342116
0.0335225
0.032844
0.0321749
0.031513
0.030857
0.0302059
0.0295594
0.0289163
0.0282766
0.0276406
0.0270077
0.0263777
0.0257486
0.0251186
0.0244865
0.0238516
0.0232136
0.0225715
0.0219241
0.0212709
0.020611
0.0199442
0.0192697
0.0185888
0.0179022
0.0172083
0.0165059
0.0157931
0.0150677
0.0143268
0.0135674
0.0127846
0.0119721
0.0111216
0.010224
0.00926845
0.00824236
0.00713025
0.00591326
0.00456808
0.00308387
0.0352865
0.0346522
0.0340257
0.0334079
0.0327976
0.0321909
0.0315875
0.0309871
0.0303885
0.0297903
0.0291921
0.0285956
0.0280022
0.0274097
0.0268179
0.0262218
0.0256189
0.0250105
0.0243964
0.0237762
0.0231453
0.0225032
0.0218512
0.0211882
0.0205132
0.0198262
0.0191332
0.0184268
0.0177068
0.0169717
0.0162172
0.0154417
0.0146426
0.0138161
0.0129547
0.0120474
0.0110838
0.0100534
0.00894389
0.00773992
0.00642279
0.0049699
0.00337567
0.0356517
0.0350682
0.0344947
0.0339295
0.0333739
0.0328171
0.0322604
0.031705
0.0311497
0.0305916
0.0300261
0.029461
0.0289015
0.0283421
0.0277829
0.0272194
0.0266344
0.0260464
0.0254485
0.0248488
0.0242359
0.0235993
0.0229481
0.0222865
0.0216125
0.0209083
0.0202148
0.0194965
0.0187607
0.0180089
0.0172286
0.0164202
0.0155836
0.0147199
0.0138202
0.0128702
0.0118479
0.0107487
0.0095664
0.00828183
0.00687619
0.00532585
0.00362449
0.00018908
0.000218774
0.000290044
0.000376802
0.000484538
0.000618224
0.000775021
0.000948375
0.0011371
0.00134082
0.00155942
0.00179293
0.00204155
0.00230548
0.00258497
0.00288024
0.00319166
0.00351953
0.00386421
0.00422604
0.00460541
0.00500265
0.00541809
0.00585209
0.00630498
0.00677703
0.00726846
0.00777957
0.00831041
0.0088611
0.00943159
0.0100217
0.0106312
0.0112595
0.0119059
0.0125696
0.0132493
0.0139434
0.0146501
0.0153667
0.0160904
0.0168173
0.0175408
0.000408586
0.000295443
0.000387014
0.000511241
0.000659566
0.000829923
0.00102278
0.00123148
0.00145525
0.00169358
0.00194629
0.0022132
0.00249429
0.00278952
0.00309896
0.00342266
0.00376075
0.00411338
0.00448067
0.00486276
0.00525986
0.00567212
0.00609975
0.00654285
0.0070016
0.00747613
0.00796646
0.0084727
0.00899481
0.00953266
0.0100861
0.0106548
0.0112384
0.0118363
0.0124477
0.0130718
0.0137073
0.0143528
0.0150065
0.0156662
0.0163293
0.0169928
0.0176542
0.000666252
0.000394466
0.00050617
0.000669049
0.000854708
0.00106045
0.00128765
0.00153021
0.00178737
0.00205858
0.0023434
0.00264157
0.00295286
0.00327703
0.00361402
0.00396367
0.00432599
0.00470084
0.00508826
0.00548824
0.00590073
0.00632575
0.00676333
0.00721347
0.00767615
0.00815127
0.0086388
0.00913864
0.00965061
0.0101744
0.0107099
0.0112565
0.0118138
0.0123812
0.0129579
0.013543
0.0141354
0.0147336
0.0153362
0.0159411
0.0165462
0.0171487
0.017746
0.00092957
0.000512679
0.000637925
0.00083613
0.00105515
0.00129459
0.00155375
0.0018278
0.00211585
0.00241725
0.00273146
0.00305802
0.00339653
0.00374671
0.0041082
0.00448082
0.00486431
0.00525846
0.00566312
0.00607813
0.00650336
0.00693863
0.00738384
0.00783883
0.00830343
0.0087775
0.00926077
0.0097531
0.0102541
0.0107635
0.0112809
0.0118058
0.0123377
0.0128759
0.0134197
0.0139682
0.0145203
0.0150747
0.0156301
0.0161847
0.0167364
0.0172826
0.0178196
0.00118269
0.000643262
0.000774622
0.00100406
0.00125335
0.00152467
0.0018134
0.00211643
0.00243278
0.0027617
0.00310255
0.00345471
0.00381768
0.00419096
0.00457418
0.00496694
0.00536895
0.00577979
0.00619915
0.00662679
0.00706246
0.00750581
0.00795668
0.00841481
0.00887987
0.0093516
0.00982969
0.0103138
0.0108035
0.0112985
0.0117983
0.0123023
0.0128101
0.0133208
0.0138339
0.0143485
0.0148635
0.0153778
0.0158902
0.0163992
0.0169029
0.0173992
0.0178864
0.00141801
0.000778886
0.000911351
0.00116871
0.00144651
0.00174647
0.00206231
0.00239184
0.00273401
0.00308793
0.00345284
0.00382805
0.0042129
0.00460684
0.00500934
0.00541988
0.00583798
0.00626324
0.00669516
0.00713339
0.00757758
0.00802735
0.00848235
0.00894225
0.00940665
0.00987521
0.0103475
0.0108231
0.0113016
0.0117825
0.0122652
0.0127493
0.0132343
0.0137196
0.0142042
0.0146875
0.0151685
0.0156464
0.01612
0.016588
0.0170488
0.0175006
0.0179412
0.00163268
0.000913922
0.00104544
0.00132765
0.00163187
0.0019575
0.00229813
0.00265183
0.00301746
0.00339403
0.00378073
0.00417671
0.00458123
0.00499359
0.00541322
0.00583947
0.00627173
0.00670945
0.00715213
0.00759924
0.00805037
0.0085051
0.00896306
0.00942378
0.00988687
0.0103517
0.0108179
0.0112849
0.0117522
0.0122193
0.0126856
0.0131507
0.0136145
0.0140762
0.0145347
0.0149893
0.0154393
0.0158842
0.0163231
0.0167546
0.0171775
0.0175908
0.0179934
0.00182793
0.00104496
0.0011717
0.00147656
0.00180656
0.00215636
0.00251985
0.00289532
0.00328209
0.00367947
0.00408628
0.00450129
0.00492361
0.00535259
0.00578771
0.00622812
0.00667286
0.00712138
0.00757311
0.00802737
0.00848385
0.00894237
0.00940245
0.00986353
0.010325
0.0107858
0.0112456
0.0117041
0.0121604
0.0126138
0.0130633
0.0135101
0.0139551
0.0143956
0.0148297
0.0152573
0.0156791
0.0160946
0.0165029
0.0169023
0.0172918
0.0176717
0.0180431
0.00197678
0.00115935
0.00131069
0.00163907
0.00198891
0.00235171
0.00272687
0.00311823
0.00352722
0.00394793
0.00437657
0.00480859
0.00524608
0.00568996
0.00614027
0.00659376
0.00704831
0.0075056
0.00796415
0.00842255
0.0088824
0.009344
0.00980583
0.0102676
0.0107278
0.0111835
0.0116365
0.0120869
0.0125323
0.0129707
0.0133998
0.0138299
0.0142618
0.0146836
0.0150931
0.0154938
0.0158906
0.0162802
0.0166631
0.0170341
0.0173929
0.0177409
0.0180757
5.28318e-05
0.000198309
0.000444404
0.000774425
0.00110267
0.00142417
0.00174056
0.00205312
0.00236677
0.00268519
0.0030103
0.00334547
0.00369098
0.0040467
0.00441351
0.00479179
0.005183
0.00558835
0.00600985
0.00644895
0.0069083
0.00738979
0.00789548
0.0084269
0.00898531
0.00957221
0.0101875
0.0108309
0.0115032
0.0122057
0.0129396
0.0137055
0.0145035
0.0153322
0.0161877
0.0170684
0.017975
0.0189204
0.0199183
0.0209664
0.0220608
0.0232024
0.0243988
3.12095e-05
0.000129866
0.000276417
0.000478809
0.000737492
0.00105601
0.00140176
0.00174809
0.00209547
0.0024412
0.00278311
0.00311998
0.00345384
0.0037874
0.00412365
0.00446516
0.00481446
0.00517403
0.00554639
0.0059344
0.00634081
0.00676901
0.00722155
0.00770111
0.00821035
0.00875153
0.00932563
0.00993384
0.0105768
0.0112555
0.01197
0.0127207
0.0135076
0.0143288
0.015182
0.0160656
0.0169792
0.0179273
0.0189158
0.0199467
0.0210222
0.0221563
0.0233564
2.30213e-05
0.000103279
0.000204731
0.000352541
0.000543232
0.000780402
0.00106342
0.00139267
0.00177084
0.00216686
0.00255635
0.00293679
0.00330889
0.00367367
0.00403196
0.00438531
0.00473567
0.00508535
0.00543712
0.00579438
0.00616062
0.00654009
0.00693706
0.00735584
0.00780107
0.00827677
0.00878644
0.00933317
0.00991928
0.0105466
0.0112161
0.0119281
0.0126824
0.0134778
0.0143126
0.015185
0.0160931
0.017038
0.0180223
0.0190471
0.020114
0.0212291
0.0223966
2.28749e-05
9.38703e-05
0.00018875
0.000316474
0.000479709
0.000681417
0.000923116
0.00120603
0.00153237
0.00190433
0.00231187
0.00272324
0.00312923
0.00352835
0.00392044
0.00430577
0.00468461
0.00505731
0.00542498
0.00578903
0.00615188
0.00651644
0.0068867
0.00726734
0.00766362
0.00808133
0.00852617
0.00900382
0.00951932
0.010077
0.0106801
0.0113309
0.0120307
0.0127793
0.0135755
0.0144175
0.0153036
0.0162333
0.017206
0.0182215
0.0192817
0.0203876
0.0215393
2.23343e-05
9.58423e-05
0.000179552
0.000291825
0.000439423
0.000621022
0.000839299
0.0010943
0.00138767
0.00172156
0.00209841
0.00251598
0.00294575
0.003373
0.00379406
0.00420824
0.0046157
0.00501641
0.00541029
0.00579771
0.00617917
0.00655578
0.00692948
0.00730317
0.00768078
0.00806739
0.00846907
0.00889242
0.00934444
0.00983228
0.0103624
0.0109396
0.0115687
0.0122516
0.0129894
0.0137815
0.014627
0.015524
0.0164714
0.017468
0.0185137
0.0196067
0.0207434
2.24186e-05
9.49113e-05
0.000175775
0.00027864
0.000416436
0.000585752
0.000788497
0.00102545
0.00129784
0.00160762
0.00195721
0.00234908
0.00277878
0.00322176
0.00366422
0.00410221
0.00453454
0.00496053
0.00537995
0.00579258
0.00619817
0.0065968
0.00698879
0.00737518
0.00775797
0.00814001
0.00852575
0.00892065
0.00933161
0.00976629
0.0102331
0.0107399
0.0112943
0.0119021
0.0125678
0.0132934
0.01408
0.0149271
0.0158332
0.0167968
0.0178161
0.0188897
0.0200147
2.25833e-05
9.66334e-05
0.000175686
0.000269464
0.000400192
0.000561148
0.000753398
0.000978163
0.00123616
0.00152902
0.00185906
0.00222872
0.00264025
0.00308476
0.00354073
0.00399724
0.00445013
0.00489781
0.00533979
0.00577547
0.00620441
0.00662609
0.00704026
0.00744682
0.00784613
0.00823954
0.00862917
0.00901851
0.00941243
0.00981756
0.0102417
0.0106938
0.0111833
0.011719
0.012309
0.0129595
0.0136745
0.0144564
0.0153055
0.0162207
0.0172004
0.0182418
0.0193417
2.27649e-05
9.72767e-05
0.000174773
0.000263371
0.000389236
0.000544303
0.000729065
0.000945132
0.00119271
0.00147334
0.00178924
0.00214261
0.00253602
0.00296976
0.00342962
0.00389827
0.00436738
0.00483345
0.00529492
0.00575107
0.00620111
0.00664451
0.00708052
0.00750853
0.00792824
0.00833969
0.00874354
0.0091414
0.00953618
0.0099322
0.0103354
0.0107538
0.0111964
0.0116736
0.0121956
0.0127721
0.0134112
0.0141186
0.0148984
0.0157513
0.0166774
0.0176748
0.0187424
2.29779e-05
9.82992e-05
0.000174633
0.000259322
0.000381453
0.000532103
0.00071141
0.000921093
0.00116101
0.00143264
0.00173784
0.00207876
0.00245802
0.00287779
0.00333337
0.00380822
0.0042895
0.00477068
0.00524902
0.00572313
0.00619212
0.00665521
0.00711156
0.00756028
0.00800063
0.00843201
0.00885427
0.00926767
0.00967344
0.010074
0.0104732
0.0108768
0.0112923
0.0117292
0.0121984
0.0127111
0.0132786
0.0139105
0.0146145
0.0153956
0.0162559
0.0171963
0.0182161
2.31977e-05
9.92106e-05
0.000174698
0.000256775
0.000375995
0.000523403
0.000698632
0.000903397
0.00113752
0.00140219
0.00169916
0.00203063
0.00239896
0.00280652
0.00325343
0.00372896
0.00421804
0.00471125
0.00520405
0.00569409
0.00618001
0.00666097
0.00713584
0.0076039
0.008064
0.00851525
0.00895694
0.00938863
0.00981043
0.0102232
0.0106292
0.0110318
0.0114365
0.011851
0.0122847
0.0127492
0.0132566
0.0138194
0.0144487
0.0151537
0.0159406
0.0168126
0.017769
2.34703e-05
0.000100271
0.000175047
0.000255379
0.000372251
0.000517148
0.000689297
0.000890237
0.0011198
0.00137909
0.00166974
0.00199371
0.00235343
0.00275105
0.00318846
0.00366069
0.00415377
0.00465617
0.00516116
0.00566525
0.00616645
0.00666353
0.00715548
0.00764136
0.00811998
0.0085902
0.00905111
0.00950174
0.00994146
0.0103704
0.0107891
0.0111995
0.0116052
0.0120113
0.0124257
0.0128581
0.0133204
0.0138259
0.0143882
0.0150194
0.0157305
0.0165286
0.0174193
2.37886e-05
0.000101289
0.000175557
0.000254666
0.000369562
0.00051257
0.000682366
0.0008803
0.0011064
0.0013615
0.00164707
0.00196517
0.0023178
0.00270744
0.00313628
0.00360296
0.00409698
0.00460586
0.00512098
0.00563739
0.00615231
0.00666415
0.00717186
0.00767423
0.0081701
0.00865828
0.00913758
0.00960682
0.010065
0.0105115
0.0109461
0.0113695
0.0117835
0.0121914
0.0125989
0.0130137
0.013446
0.0139084
0.0144152
0.0149808
0.0156189
0.0163404
0.0171514
2.46483e-05
0.00010257
0.000176251
0.000254484
0.000367779
0.000509279
0.00067724
0.000872864
0.0010962
0.00134792
0.00162946
0.00194276
0.00228977
0.00267285
0.00309427
0.00355475
0.00404749
0.00456055
0.0050837
0.00561084
0.00613829
0.00666378
0.00718599
0.00770371
0.00821568
0.0087207
0.00921748
0.00970469
0.0101811
0.0106456
0.0110973
0.0115363
0.011963
0.0123793
0.0127888
0.0131972
0.0136127
0.0140461
0.0145108
0.0150218
0.0155948
0.0162448
0.0169858
3.46086e-05
0.000105169
0.000177321
0.000254712
0.000366615
0.000506982
0.00067357
0.000867295
0.00108836
0.0013374
0.00161571
0.00192507
0.00226754
0.00264519
0.00306045
0.00351483
0.00400486
0.00452005
0.00504958
0.00558601
0.0061247
0.00666278
0.00719851
0.00773063
0.00825768
0.00877854
0.00929187
0.00979621
0.0102902
0.0107725
0.0112418
0.0116976
0.0121394
0.0125681
0.0129857
0.0133959
0.0138049
0.0142213
0.014657
0.015126
0.0156445
0.016229
0.0168943
3.55815e-05
0.000106254
0.000178091
0.000255048
0.000365905
0.000505405
0.000670855
0.000863113
0.00108251
0.00132937
0.00160502
0.00191125
0.00224983
0.00262294
0.00303306
0.00348205
0.00396843
0.00448422
0.00501848
0.00556279
0.00611158
0.00666138
0.00720987
0.00775547
0.00829676
0.0088326
0.0093616
0.00988226
0.0103931
0.0108927
0.0113796
0.0118525
0.0123108
0.0127541
0.0131835
0.0136012
0.0140112
0.0144204
0.0148383
0.0152775
0.0157532
0.0162825
0.0168826
3.59944e-05
0.000107224
0.000178865
0.000255534
0.000365598
0.000504396
0.000668984
0.000860199
0.00107816
0.00132322
0.00159675
0.00190028
0.0022357
0.00260511
0.00301095
0.00345501
0.00393761
0.00445276
0.00499039
0.00554128
0.00609928
0.00665982
0.00722021
0.00777859
0.00833343
0.0088835
0.00942741
0.00996363
0.0104907
0.011007
0.011511
0.012001
0.0124761
0.0129354
0.0133788
0.0138076
0.0142241
0.0146334
0.0150429
0.0154629
0.0159071
0.0163919
0.0169351
3.6397e-05
0.000108139
0.000179617
0.000256121
0.00036555
0.000503873
0.000667813
0.000858143
0.00107494
0.00131862
0.00159038
0.00189171
0.00222448
0.00259081
0.0029928
0.0034328
0.00391161
0.00442553
0.0049652
0.00552172
0.00608776
0.00665815
0.00722982
0.00780029
0.00836812
0.00893177
0.00948992
0.010041
0.0105836
0.011116
0.0116364
0.0121434
0.0126354
0.0131111
0.0135699
0.014012
0.0144388
0.0148535
0.0152615
0.0156712
0.0160942
0.0165452
0.0170408
3.67905e-05
0.000109043
0.000180358
0.000256721
0.000365706
0.000503678
0.000667153
0.000856786
0.00107272
0.00131527
0.00158555
0.0018851
0.00221564
0.00257931
0.00297818
0.00341461
0.0038899
0.00440184
0.00494293
0.00550393
0.00607706
0.0066566
0.00723871
0.00782093
0.00840104
0.00897778
0.00954949
0.0101149
0.0106723
0.0112201
0.0117567
0.0122801
0.0127887
0.0132811
0.0137559
0.0142128
0.0146522
0.0150759
0.0154878
0.0158942
0.0163044
0.0167315
0.0171909
3.7149e-05
0.000109894
0.000181087
0.000257412
0.000366078
0.000503784
0.000666953
0.000856056
0.00107129
0.00131293
0.00158203
0.00188004
0.00220878
0.00257019
0.00296647
0.00339972
0.00387173
0.00438158
0.0049233
0.00548787
0.0060672
0.00665518
0.00724727
0.0078404
0.00843244
0.00902165
0.0096065
0.0101856
0.0107575
0.0113202
0.0118722
0.0124116
0.0129366
0.0134454
0.0139366
0.014409
0.0148625
0.0152978
0.0157173
0.0161257
0.0165303
0.0169418
0.0173741
3.75134e-05
0.000110723
0.000181829
0.000258129
0.000366578
0.000504145
0.000667087
0.000855825
0.00107051
0.00131143
0.00157955
0.00187637
0.00220356
0.00256307
0.002957
0.00338751
0.00385674
0.00436443
0.00490598
0.00547342
0.00605831
0.00665394
0.00725533
0.00785894
0.00846242
0.00906373
0.00966133
0.0102538
0.0108394
0.0114166
0.0119835
0.0125385
0.0130794
0.0136044
0.0141117
0.0146002
0.0150686
0.0155171
0.015947
0.0163614
0.0167658
0.0171686
0.0175811
3.7858e-05
0.0001115
0.000182514
0.00025884
0.000367187
0.000504727
0.000667569
0.000855966
0.00107027
0.00131063
0.001578
0.00187374
0.00219963
0.00255755
0.00294952
0.0033778
0.00384441
0.00434983
0.00489104
0.0054606
0.00605025
0.00665283
0.00726304
0.00787679
0.00849125
0.00910417
0.00971416
0.0103195
0.0109185
0.0115096
0.0120911
0.0126611
0.0132175
0.0137584
0.014282
0.0147862
0.0152702
0.015733
0.0161751
0.0165984
0.017007
0.0174077
0.0178121
3.81779e-05
0.000112235
0.000183185
0.00025956
0.000367883
0.00050546
0.000668232
0.000856465
0.00107048
0.00131039
0.00157712
0.00187204
0.00219689
0.00255354
0.00294376
0.00337005
0.00383431
0.00433779
0.00487825
0.00544934
0.00604318
0.00665221
0.00727059
0.00789387
0.00851882
0.0091433
0.00976518
0.010383
0.010995
0.0115998
0.0121953
0.0127799
0.0133514
0.0139079
0.0144472
0.0149675
0.0154671
0.0159447
0.0164003
0.0168346
0.0172503
0.0176524
0.0180483
3.85173e-05
0.000112979
0.00018386
0.000260296
0.000368688
0.000506316
0.000669081
0.000857248
0.00107111
0.0013107
0.00157689
0.0018712
0.00219516
0.00255055
0.00293943
0.00336397
0.00382635
0.00432785
0.00486735
0.00543969
0.00603704
0.00665186
0.00727788
0.00791028
0.00854554
0.00918093
0.00981457
0.0104445
0.0110693
0.0116872
0.0122966
0.0128953
0.0134816
0.0140532
0.0146081
0.0151441
0.0156593
0.0161522
0.0166219
0.0170686
0.0174936
0.0179
0.0182924
3.88375e-05
0.000113692
0.000184524
0.000261049
0.000369532
0.000507274
0.000670103
0.000858241
0.00107198
0.00131129
0.0015772
0.00187097
0.00219422
0.00254869
0.00293639
0.00335945
0.00382005
0.00431975
0.00485832
0.00543137
0.00603174
0.00665179
0.00728493
0.0079261
0.00857123
0.00921746
0.0098623
0.0105042
0.0111415
0.0117723
0.012395
0.0130077
0.0136083
0.0141947
0.0147648
0.0153163
0.0158471
0.0163554
0.0168399
0.0172999
0.0177361
0.0181512
0.0185516
3.91256e-05
0.000114365
0.000185144
0.000261768
0.00037039
0.00050828
0.000671239
0.000859439
0.00107309
0.00131229
0.00157797
0.00187133
0.00219394
0.00254767
0.00293431
0.0033561
0.00381507
0.00431329
0.00485076
0.00542419
0.00602717
0.00665198
0.00729191
0.00794135
0.00859595
0.00925252
0.00990868
0.0105623
0.0112117
0.0118553
0.012491
0.0131172
0.0137318
0.0143327
0.0149177
0.0154845
0.0160307
0.0165545
0.0170539
0.0175281
0.0179766
0.0184009
0.018803
3.94171e-05
0.000114986
0.000185738
0.000262458
0.0003713
0.000509419
0.000672491
0.00086075
0.00107445
0.0013136
0.00157906
0.00187203
0.00219421
0.00254726
0.0029331
0.00335368
0.0038114
0.00430816
0.00484451
0.00541827
0.00602326
0.00665243
0.00729863
0.00795597
0.00861976
0.00928657
0.00995364
0.0106188
0.0112801
0.011936
0.0125846
0.0132241
0.0138525
0.0144676
0.0150672
0.0156489
0.0162105
0.0167496
0.0172642
0.0177528
0.0182148
0.0186506
0.0190629
3.96865e-05
0.000115596
0.000186303
0.000263141
0.00037223
0.000510551
0.000673824
0.000862211
0.00107593
0.00131503
0.00158034
0.00187314
0.00219494
0.00254746
0.00293253
0.00335228
0.00380881
0.00430429
0.00483962
0.00541326
0.00602017
0.00665314
0.00730518
0.00797003
0.00864266
0.00931946
0.00999712
0.0106736
0.0113467
0.0120148
0.012676
0.0133285
0.0139704
0.0145995
0.0152135
0.0158099
0.0163865
0.0169408
0.0174706
0.0179741
0.0184499
0.0188978
0.0193182
3.99527e-05
0.00011617
0.000186852
0.000263814
0.00037312
0.000511679
0.00067514
0.000863645
0.00107752
0.00131668
0.00158191
0.00187457
0.00219605
0.00254807
0.00293257
0.00335156
0.00380714
0.00430141
0.00483578
0.00540931
0.00601764
0.00665404
0.00731156
0.00798352
0.0086648
0.009351
0.0100392
0.0107267
0.0114115
0.0120916
0.0127652
0.0134306
0.0140858
0.0147285
0.0153565
0.0159675
0.016559
0.0171283
0.0176732
0.0181916
0.0186817
0.0191426
0.0195746
4.02131e-05
0.000116708
0.000187371
0.000264443
0.000374024
0.000512878
0.000676536
0.000865236
0.00107926
0.00131837
0.00158368
0.00187623
0.00219745
0.00254914
0.00293321
0.00335142
0.00380614
0.00429944
0.00483285
0.00540602
0.00601556
0.00665508
0.00731759
0.0079963
0.0086858
0.00938146
0.0100799
0.0107782
0.0114744
0.0121664
0.0128523
0.0135303
0.0141985
0.0148548
0.0154967
0.0161219
0.0167279
0.0173121
0.017872