# Forces     
# CofR       : (0.000000e+00 0.000000e+00 0.000000e+00)
# Time       forces(pressure viscous porous) moment(pressure viscous porous)
5.000000e+00	((-5.520796e+01 -2.597328e+02 5.587450e-20) (3.439724e-01 -7.015208e-02 -5.585625e-20) (0.000000e+00 0.000000e+00 0.000000e+00)) ((1.298664e+01 -2.760398e+00 -7.444325e+01) (3.507604e-03 1.719862e-02 1.068624e-03) (0.000000e+00 0.000000e+00 0.000000e+00))
1.000000e+01	((-1.193209e+01 -5.613602e+01 3.219614e-19) (2.962998e-01 -1.040229e-01 1.786819e-21) (0.000000e+00 0.000000e+00 0.000000e+00)) ((2.806801e+00 -5.966047e-01 -2.364533e+01) (5.201145e-03 1.481499e-02 -1.165633e-02) (0.000000e+00 0.000000e+00 0.000000e+00))
1.500000e+01	((8.219016e+00 3.866745e+01 -4.670018e-19) (2.584856e-01 -6.856945e-02 3.623748e-20) (0.000000e+00 0.000000e+00 0.000000e+00)) ((-1.933372e+00 4.109508e-01 8.130656e+00) (3.428473e-03 1.292428e-02 -4.398846e-03) (0.000000e+00 0.000000e+00 0.000000e+00))
2.000000e+01	((2.741983e+00 1.290004e+01 -1.286650e-18) (2.292194e-01 -5.050964e-02 5.601498e-20) (0.000000e+00 0.000000e+00 0.000000e+00)) ((-6.450021e-01 1.370991e-01 8.605383e-01) (2.525482e-03 1.146097e-02 -9.841073e-04) (0.000000e+00 0.000000e+00 0.000000e+00))
2.500000e+01	((2.744132e+00 1.291016e+01 -1.260750e-18) (2.076713e-01 -4.363561e-02 7.479955e-20) (0.000000e+00 0.000000e+00 0.000000e+00)) ((-6.455081e-01 1.372066e-01 -1.607267e+00) (2.181780e-03 1.038357e-02 -2.905466e-04) (0.000000e+00 0.000000e+00 0.000000e+00))
3.000000e+01	((5.172161e+00 2.433314e+01 -1.546546e-18) (1.880896e-01 -3.929525e-02 9.082942e-20) (0.000000e+00 0.000000e+00 0.000000e+00)) ((-1.216657e+00 2.586080e-01 1.595830e+00) (1.964763e-03 9.404482e-03 -1.075989e-04) (0.000000e+00 0.000000e+00 0.000000e+00))
3.500000e+01	((4.964326e+00 2.335535e+01 -1.709686e-18) (1.714243e-01 -3.595161e-02 9.363682e-20) (0.000000e+00 0.000000e+00 0.000000e+00)) ((-1.167768e+00 2.482163e-01 1.578616e+00) (1.797580e-03 8.571217e-03 -4.209423e-05) (0.000000e+00 0.000000e+00 0.000000e+00))
4.000000e+01	((4.915335e+00 2.312487e+01 -1.729930e-18) (1.555535e-01 -3.280763e-02 1.009871e-19) (0.000000e+00 0.000000e+00 0.000000e+00)) ((-1.156243e+00 2.457668e-01 7.815581e-01) (1.640382e-03 7.777673e-03 -6.464674e-05) (0.000000e+00 0.000000e+00 0.000000e+00))
4.500000e+01	((5.615916e+00 2.642084e+01 -1.694208e-18) (1.407496e-01 -2.968766e-02 1.075103e-19) (0.000000e+00 0.000000e+00 0.000000e+00)) ((-1.321042e+00 2.807958e-01 1.385200e+00) (1.484383e-03 7.037478e-03 -7.288399e-05) (0.000000e+00 0.000000e+00 0.000000e+00))
5.000000e+01	((5.551793e+00 2.611917e+01 -1.647776e-18) (1.274648e-01 -2.686788e-02 1.110173e-19) (0.000000e+00 0.000000e+00 0.000000e+00)) ((-1.305958e+00 2.775897e-01 1.031197e+00) (1.343394e-03 6.373240e-03 -5.697511e-05) (0.000000e+00 0.000000e+00 0.000000e+00))
5.500000e+01	((5.787298e+00 2.722713e+01 -1.596075e-18) (1.148025e-01 -2.418549e-02 1.155604e-19) (0.000000e+00 0.000000e+00 0.000000e+00)) ((-1.361357e+00 2.893649e-01 9.610114e-01) (1.209275e-03 5.740125e-03 -7.563474e-05) (0.000000e+00 0.000000e+00 0.000000e+00))
6.000000e+01	((5.886355e+00 2.769315e+01 -1.519298e-18) (1.035464e-01 -2.175092e-02 1.247443e-19) (0.000000e+00 0.000000e+00 0.000000e+00)) ((-1.384658e+00 2.943178e-01 9.064735e-01) (1.087546e-03 5.177318e-03 -7.653810e-05) (0.000000e+00 0.000000e+00 0.000000e+00))
6.500000e+01	((5.971834e+00 2.809530e+01 -1.433378e-18) (9.363821e-02 -1.962835e-02 1.272142e-19) (0.000000e+00 0.000000e+00 0.000000e+00)) ((-1.404765e+00 2.985917e-01 7.773525e-01) (9.814176e-04 4.681910e-03 -8.617800e-05) (0.000000e+00 0.000000e+00 0.000000e+00))
7.000000e+01	((6.037556e+00 2.840449e+01 -1.379582e-18) (8.506398e-02 -1.778988e-02 1.342515e-19) (0.000000e+00 0.000000e+00 0.000000e+00)) ((-1.420225e+00 3.018778e-01 7.663495e-01) (8.894940e-04 4.253199e-03 -9.491709e-05) (0.000000e+00 0.000000e+00 0.000000e+00))
7.500000e+01	((6.080649e+00 2.860723e+01 -1.317715e-18) (7.793681e-02 -1.626706e-02 1.347831e-19) (0.000000e+00 0.000000e+00 0.000000e+00)) ((-1.430361e+00 3.040324e-01 7.191279e-01) (8.133528e-04 3.896841e-03 -1.019358e-04) (0.000000e+00 0.000000e+00 0.000000e+00))
8.000000e+01	((6.123186e+00 2.880734e+01 -1.299013e-18) (7.187607e-02 -1.498338e-02 1.371590e-19) (0.000000e+00 0.000000e+00 0.000000e+00)) ((-1.440367e+00 3.061593e-01 7.187777e-01) (7.491692e-04 3.593803e-03 -1.050146e-04) (0.000000e+00 0.000000e+00 0.000000e+00))
8.500000e+01	((6.158846e+00 2.897511e+01 -1.268419e-18) (6.693677e-02 -1.393870e-02 1.325289e-19) (0.000000e+00 0.000000e+00 0.000000e+00)) ((-1.448756e+00 3.079423e-01 7.409444e-01) (6.969352e-04 3.346839e-03 -1.098439e-04) (0.000000e+00 0.000000e+00 0.000000e+00))
9.000000e+01	((6.201048e+00 2.917365e+01 -1.314814e-18) (6.270254e-02 -1.304554e-02 1.325292e-19) (0.000000e+00 0.000000e+00 0.000000e+00)) ((-1.458683e+00 3.100524e-01 7.815764e-01) (6.522769e-04 3.135127e-03 -1.108370e-04) (0.000000e+00 0.000000e+00 0.000000e+00))
9.500000e+01	((6.246697e+00 2.938842e+01 -1.364246e-18) (5.911668e-02 -1.228783e-02 1.315473e-19) (0.000000e+00 0.000000e+00 0.000000e+00)) ((-1.469421e+00 3.123349e-01 8.530605e-01) (6.143915e-04 2.955834e-03 -1.148579e-04) (0.000000e+00 0.000000e+00 0.000000e+00))
1.000000e+02	((6.298443e+00 2.963186e+01 -1.387290e-18) (5.595424e-02 -1.162493e-02 1.290661e-19) (0.000000e+00 0.000000e+00 0.000000e+00)) ((-1.481593e+00 3.149221e-01 9.449740e-01) (5.812466e-04 2.797712e-03 -1.151049e-04) (0.000000e+00 0.000000e+00 0.000000e+00))
1.050000e+02	((6.358199e+00 2.991299e+01 -1.383785e-18) (5.317152e-02 -1.103332e-02 1.255963e-19) (0.000000e+00 0.000000e+00 0.000000e+00)) ((-1.495649e+00 3.179099e-01 1.059780e+00) (5.516658e-04 2.658576e-03 -1.185207e-04) (0.000000e+00 0.000000e+00 0.000000e+00))
1.100000e+02	((6.433015e+00 3.026497e+01 -1.403143e-18) (5.061190e-02 -1.049691e-02 1.264268e-19) (0.000000e+00 0.000000e+00 0.000000e+00)) ((-1.513248e+00 3.216507e-01 1.210003e+00) (5.248455e-04 2.530595e-03 -1.194151e-04) (0.000000e+00 0.000000e+00 0.000000e+00))
1.150000e+02	((6.513690e+00 3.064452e+01 -1.373162e-18) (4.825425e-02 -9.992239e-03 1.269061e-19) (0.000000e+00 0.000000e+00 0.000000e+00)) ((-1.532226e+00 3.256845e-01 1.379805e+00) (4.996119e-04 2.412713e-03 -1.220786e-04) (0.000000e+00 0.000000e+00 0.000000e+00))
1.200000e+02	((6.605967e+00 3.107864e+01 -1.307551e-18) (4.597588e-02 -9.515913e-03 1.249328e-19) (0.000000e+00 0.000000e+00 0.000000e+00)) ((-1.553932e+00 3.302983e-01 1.583337e+00) (4.757957e-04 2.298794e-03 -1.231521e-04) (0.000000e+00 0.000000e+00 0.000000e+00))
1.250000e+02	((6.704862e+00 3.154391e+01 -1.217439e-18) (4.379628e-02 -9.047805e-03 1.200341e-19) (0.000000e+00 0.000000e+00 0.000000e+00)) ((-1.577195e+00 3.352431e-01 1.812923e+00) (4.523903e-04 2.189814e-03 -1.259613e-04) (0.000000e+00 0.000000e+00 0.000000e+00))
1.300000e+02	((6.808687e+00 3.203237e+01 -1.116552e-18) (4.165103e-02 -8.600631e-03 1.121210e-19) (0.000000e+00 0.000000e+00 0.000000e+00)) ((-1.601618e+00 3.404344e-01 2.075135e+00) (4.300315e-04 2.082552e-03 -1.265243e-04) (0.000000e+00 0.000000e+00 0.000000e+00))
1.350000e+02	((6.906416e+00 3.249215e+01 -1.018730e-18) (3.954487e-02 -8.147434e-03 1.018368e-19) (0.000000e+00 0.000000e+00 0.000000e+00)) ((-1.624607e+00 3.453208e-01 2.341883e+00) (4.073717e-04 1.977243e-03 -1.293388e-04) (0.000000e+00 0.000000e+00 0.000000e+00))
1.400000e+02	((7.024657e+00 3.304843e+01 -9.769846e-19) (3.751451e-02 -7.723962e-03 9.668902e-20) (0.000000e+00 0.000000e+00 0.000000e+00)) ((-1.652421e+00 3.512328e-01 2.634045e+00) (3.861981e-04 1.875725e-03 -1.307751e-04) (0.000000e+00 0.000000e+00 0.000000e+00))
1.450000e+02	((7.140643e+00 3.359410e+01 -9.062328e-19) (3.557803e-02 -7.307289e-03 8.998573e-20) (0.000000e+00 0.000000e+00 0.000000e+00)) ((-1.679705e+00 3.570322e-01 2.965498e+00) (3.653644e-04 1.778901e-03 -1.334593e-04) (0.000000e+00 0.000000e+00 0.000000e+00))
1.500000e+02	((7.233072e+00 3.402894e+01 -8.584294e-19) (3.367797e-02 -6.913646e-03 8.532608e-20) (0.000000e+00 0.000000e+00 0.000000e+00)) ((-1.701447e+00 3.616536e-01 3.264651e+00) (3.456823e-04 1.683899e-03 -1.349028e-04) (0.000000e+00 0.000000e+00 0.000000e+00))
1.550000e+02	((7.345940e+00 3.455994e+01 -8.639047e-19) (3.195815e-02 -6.545868e-03 8.237927e-20) (0.000000e+00 0.000000e+00 0.000000e+00)) ((-1.727997e+00 3.672970e-01 3.594186e+00) (3.272934e-04 1.597908e-03 -1.415513e-04) (0.000000e+00 0.000000e+00 0.000000e+00))
1.600000e+02	((7.431733e+00 3.496357e+01 -8.501301e-19) (3.034896e-02 -6.220434e-03 7.953604e-20) (0.000000e+00 0.000000e+00 0.000000e+00)) ((-1.748178e+00 3.715867e-01 3.917773e+00) (3.110217e-04 1.517448e-03 -1.468101e-04) (0.000000e+00 0.000000e+00 0.000000e+00))
1.650000e+02	((7.514790e+00 3.535432e+01 -8.773781e-19) (2.892223e-02 -5.920210e-03 7.806029e-20) (0.000000e+00 0.000000e+00 0.000000e+00)) ((-1.767716e+00 3.757395e-01 4.217332e+00) (2.960105e-04 1.446112e-03 -1.559595e-04) (0.000000e+00 0.000000e+00 0.000000e+00))
1.700000e+02	((7.578719e+00 3.565508e+01 -8.762361e-19) (2.774329e-02 -5.684826e-03 7.568288e-20) (0.000000e+00 0.000000e+00 0.000000e+00)) ((-1.782754e+00 3.789360e-01 4.511798e+00) (2.842413e-04 1.387164e-03 -1.610813e-04) (0.000000e+00 0.000000e+00 0.000000e+00))
1.750000e+02	((7.615440e+00 3.582784e+01 -8.837819e-19) (2.679501e-02 -5.483979e-03 7.314629e-20) (0.000000e+00 0.000000e+00 0.000000e+00)) ((-1.791392e+00 3.807720e-01 4.761519e+00) (2.741989e-04 1.339751e-03 -1.663545e-04) (0.000000e+00 0.000000e+00 0.000000e+00))
1.800000e+02	((7.636951e+00 3.592904e+01 -8.904123e-19) (2.617086e-02 -5.362529e-03 7.140044e-20) (0.000000e+00 0.000000e+00 0.000000e+00)) ((-1.796452e+00 3.818475e-01 4.974540e+00) (2.681264e-04 1.308543e-03 -1.684308e-04) (0.000000e+00 0.000000e+00 0.000000e+00))
1.850000e+02	((7.630302e+00 3.589776e+01 -9.001580e-19) (2.588909e-02 -5.300242e-03 6.924516e-20) (0.000000e+00 0.000000e+00 0.000000e+00)) ((-1.794888e+00 3.815151e-01 5.146518e+00) (2.650121e-04 1.294455e-03 -1.720626e-04) (0.000000e+00 0.000000e+00 0.000000e+00))
1.900000e+02	((7.594507e+00 3.572936e+01 -8.804965e-19) (2.595709e-02 -5.323801e-03 6.654518e-20) (0.000000e+00 0.000000e+00 0.000000e+00)) ((-1.786468e+00 3.797253e-01 5.276663e+00) (2.661900e-04 1.297854e-03 -1.711491e-04) (0.000000e+00 0.000000e+00 0.000000e+00))
1.950000e+02	((7.534957e+00 3.544920e+01 -8.602760e-19) (2.640706e-02 -5.412813e-03 6.336362e-20) (0.000000e+00 0.000000e+00 0.000000e+00)) ((-1.772460e+00 3.767478e-01 5.364879e+00) (2.706407e-04 1.320353e-03 -1.706929e-04) (0.000000e+00 0.000000e+00 0.000000e+00))
2.000000e+02	((7.441924e+00 3.501151e+01 -8.697420e-19) (2.722084e-02 -5.591575e-03 6.192241e-20) (0.000000e+00 0.000000e+00 0.000000e+00)) ((-1.750575e+00 3.720962e-01 5.413339e+00) (2.795787e-04 1.361042e-03 -1.665742e-04) (0.000000e+00 0.000000e+00 0.000000e+00))
2.050000e+02	((7.327178e+00 3.447167e+01 -8.409285e-19) (2.839952e-02 -5.831516e-03 5.848507e-20) (0.000000e+00 0.000000e+00 0.000000e+00)) ((-1.723584e+00 3.663589e-01 5.423583e+00) (2.915758e-04 1.419976e-03 -1.626972e-04) (0.000000e+00 0.000000e+00 0.000000e+00))
2.100000e+02	((7.192739e+00 3.383919e+01 -8.036766e-19) (2.992441e-02 -6.154391e-03 5.527593e-20) (0.000000e+00 0.000000e+00 0.000000e+00)) ((-1.691959e+00 3.596370e-01 5.404254e+00) (3.077196e-04 1.496221e-03 -1.523384e-04) (0.000000e+00 0.000000e+00 0.000000e+00))
2.150000e+02	((7.024041e+00 3.304552e+01 -8.056472e-19) (3.177739e-02 -6.550738e-03 5.302439e-20) (0.000000e+00 0.000000e+00 0.000000e+00)) ((-1.652276e+00 3.512020e-01 5.350443e+00) (3.275369e-04 1.588870e-03 -1.571525e-04) (0.000000e+00 0.000000e+00 0.000000e+00))
2.200000e+02	((6.848395e+00 3.221918e+01 -7.608487e-19) (3.391954e-02 -7.011515e-03 4.947256e-20) (0.000000e+00 0.000000e+00 0.000000e+00)) ((-1.610959e+00 3.424198e-01 5.280382e+00) (3.505758e-04 1.695977e-03 -1.508616e-04) (0.000000e+00 0.000000e+00 0.000000e+00))
2.250000e+02	((6.662203e+00 3.134321e+01 -7.113947e-19) (3.635636e-02 -7.521841e-03 4.532639e-20) (0.000000e+00 0.000000e+00 0.000000e+00)) ((-1.567161e+00 3.331101e-01 5.193839e+00) (3.760920e-04 1.817818e-03 -1.470408e-04) (0.000000e+00 0.000000e+00 0.000000e+00))
2.300000e+02	((6.444607e+00 3.031950e+01 -7.090944e-19) (3.902359e-02 -8.102693e-03 4.341029e-20) (0.000000e+00 0.000000e+00 0.000000e+00)) ((-1.515975e+00 3.222304e-01 5.075997e+00) (4.051346e-04 1.951179e-03 -1.471995e-04) (0.000000e+00 0.000000e+00 0.000000e+00))
2.350000e+02	((6.247142e+00 2.939050e+01 -6.498277e-19) (4.192861e-02 -8.719851e-03 3.917306e-20) (0.000000e+00 0.000000e+00 0.000000e+00)) ((-1.469525e+00 3.123571e-01 4.965568e+00) (4.359925e-04 2.096431e-03 -1.461668e-04) (0.000000e+00 0.000000e+00 0.000000e+00))
2.400000e+02	((6.006004e+00 2.825604e+01 -6.448357e-19) (4.502169e-02 -9.382884e-03 3.722385e-20) (0.000000e+00 0.000000e+00 0.000000e+00)) ((-1.412802e+00 3.003002e-01 4.811101e+00) (4.691442e-04 2.251084e-03 -1.407357e-04) (0.000000e+00 0.000000e+00 0.000000e+00))
2.450000e+02	((5.777375e+00 2.718042e+01 -6.328406e-19) (4.828533e-02 -1.008243e-02 3.509664e-20) (0.000000e+00 0.000000e+00 0.000000e+00)) ((-1.359021e+00 2.888687e-01 4.657395e+00) (5.041216e-04 2.414266e-03 -1.374761e-04) (0.000000e+00 0.000000e+00 0.000000e+00))
2.500000e+02	((5.567506e+00 2.619307e+01 -5.686604e-19) (5.166969e-02 -1.081033e-02 3.118849e-20) (0.000000e+00 0.000000e+00 0.000000e+00)) ((-1.309653e+00 2.783753e-01 4.509444e+00) (5.405166e-04 2.583485e-03 -1.312951e-04) (0.000000e+00 0.000000e+00 0.000000e+00))
2.550000e+02	((5.328988e+00 2.507093e+01 -5.582137e-19) (5.517135e-02 -1.154799e-02 2.945051e-20) (0.000000e+00 0.000000e+00 0.000000e+00)) ((-1.253546e+00 2.664494e-01 4.322153e+00) (5.773993e-04 2.758567e-03 -1.308911e-04) (0.000000e+00 0.000000e+00 0.000000e+00))
2.600000e+02	((5.101671e+00 2.400149e+01 -5.416781e-19) (5.870017e-02 -1.230487e-02 2.771030e-20) (0.000000e+00 0.000000e+00 0.000000e+00)) ((-1.200074e+00 2.550836e-01 4.130557e+00) (6.152437e-04 2.935009e-03 -1.254076e-04) (0.000000e+00 0.000000e+00 0.000000e+00))
2.650000e+02	((4.895696e+00 2.303245e+01 -5.181388e-19) (6.225519e-02 -1.306713e-02 2.595698e-20) (0.000000e+00 0.000000e+00 0.000000e+00)) ((-1.151622e+00 2.447848e-01 3.944741e+00) (6.533565e-04 3.112759e-03 -1.217804e-04) (0.000000e+00 0.000000e+00 0.000000e+00))
2.700000e+02	((4.668985e+00 2.196586e+01 -5.394690e-19) (6.575592e-02 -1.381438e-02 2.611522e-20) (0.000000e+00 0.000000e+00 0.000000e+00)) ((-1.098293e+00 2.334493e-01 3.720285e+00) (6.907188e-04 3.287796e-03 -1.164155e-04) (0.000000e+00 0.000000e+00 0.000000e+00))
2.750000e+02	((4.441351e+00 2.089492e+01 -5.181408e-19) (6.919837e-02 -1.453821e-02 2.467823e-20) (0.000000e+00 0.000000e+00 0.000000e+00)) ((-1.044746e+00 2.220675e-01 3.481907e+00) (7.269106e-04 3.459919e-03 -1.168074e-04) (0.000000e+00 0.000000e+00 0.000000e+00))
2.800000e+02	((4.250506e+00 1.999707e+01 -5.303487e-19) (7.244958e-02 -1.522711e-02 2.485315e-20) (0.000000e+00 0.000000e+00 0.000000e+00)) ((-9.998535e-01 2.125253e-01 3.268094e+00) (7.613553e-04 3.622479e-03 -1.081769e-04) (0.000000e+00 0.000000e+00 0.000000e+00))
2.850000e+02	((4.078532e+00 1.918800e+01 -5.365834e-19) (7.555456e-02 -1.588826e-02 2.498508e-20) (0.000000e+00 0.000000e+00 0.000000e+00)) ((-9.593998e-01 2.039266e-01 3.060980e+00) (7.944129e-04 3.777728e-03 -1.089544e-04) (0.000000e+00 0.000000e+00 0.000000e+00))
2.900000e+02	((3.921133e+00 1.844749e+01 -5.395521e-19) (7.842806e-02 -1.649296e-02 2.510615e-20) (0.000000e+00 0.000000e+00 0.000000e+00)) ((-9.223745e-01 1.960566e-01 2.857426e+00) (8.246482e-04 3.921403e-03 -1.051442e-04) (0.000000e+00 0.000000e+00 0.000000e+00))
2.950000e+02	((3.782820e+00 1.779678e+01 -5.383808e-19) (8.108298e-02 -1.704129e-02 2.527690e-20) (0.000000e+00 0.000000e+00 0.000000e+00)) ((-8.898391e-01 1.891410e-01 2.661791e+00) (8.520643e-04 4.054149e-03 -1.065254e-04) (0.000000e+00 0.000000e+00 0.000000e+00))
3.000000e+02	((3.666533e+00 1.724969e+01 -5.330976e-19) (8.344269e-02 -1.753257e-02 2.543719e-20) (0.000000e+00 0.000000e+00 0.000000e+00)) ((-8.624847e-01 1.833267e-01 2.479641e+00) (8.766286e-04 4.172134e-03 -1.000805e-04) (0.000000e+00 0.000000e+00 0.000000e+00))
3.050000e+02	((3.574653e+00 1.681743e+01 -5.248659e-19) (8.557162e-02 -1.797530e-02 2.579664e-20) (0.000000e+00 0.000000e+00 0.000000e+00)) ((-8.408717e-01 1.787327e-01 2.314018e+00) (8.987650e-04 4.278581e-03 -1.109889e-04) (0.000000e+00 0.000000e+00 0.000000e+00))
3.100000e+02	((3.506368e+00 1.649618e+01 -5.135219e-19) (8.733677e-02 -1.835131e-02 2.602427e-20) (0.000000e+00 0.000000e+00 0.000000e+00)) ((-8.248088e-01 1.753184e-01 2.164847e+00) (9.175655e-04 4.366839e-03 -1.094612e-04) (0.000000e+00 0.000000e+00 0.000000e+00))
3.150000e+02	((3.462873e+00 1.629155e+01 -5.469638e-19) (8.883432e-02 -1.863885e-02 2.860173e-20) (0.000000e+00 0.000000e+00 0.000000e+00)) ((-8.145776e-01 1.731437e-01 2.036271e+00) (9.319423e-04 4.441716e-03 -1.043325e-04) (0.000000e+00 0.000000e+00 0.000000e+00))
3.200000e+02	((3.439561e+00 1.618188e+01 -5.517792e-19) (8.998064e-02 -1.889387e-02 2.994864e-20) (0.000000e+00 0.000000e+00 0.000000e+00)) ((-8.090939e-01 1.719781e-01 1.914455e+00) (9.446937e-04 4.499032e-03 -1.072677e-04) (0.000000e+00 0.000000e+00 0.000000e+00))
3.250000e+02	((3.440595e+00 1.618674e+01 -5.800969e-19) (9.087692e-02 -1.906355e-02 3.276503e-20) (0.000000e+00 0.000000e+00 0.000000e+00)) ((-8.093370e-01 1.720297e-01 1.820387e+00) (9.531775e-04 4.543846e-03 -1.054142e-04) (0.000000e+00 0.000000e+00 0.000000e+00))
3.300000e+02	((3.460646e+00 1.628107e+01 -6.067761e-19) (9.139244e-02 -1.918300e-02 3.516636e-20) (0.000000e+00 0.000000e+00 0.000000e+00)) ((-8.140537e-01 1.730323e-01 1.739156e+00) (9.591500e-04 4.569622e-03 -1.022678e-04) (0.000000e+00 0.000000e+00 0.000000e+00))
3.350000e+02	((3.498809e+00 1.646062e+01 -6.318616e-19) (9.169407e-02 -1.924550e-02 3.823151e-20) (0.000000e+00 0.000000e+00 0.000000e+00)) ((-8.230308e-01 1.749404e-01 1.674258e+00) (9.622749e-04 4.584703e-03 -1.104246e-04) (0.000000e+00 0.000000e+00 0.000000e+00))
3.400000e+02	((3.553426e+00 1.671757e+01 -6.575120e-19) (9.163567e-02 -1.925131e-02 4.064858e-20) (0.000000e+00 0.000000e+00 0.000000e+00)) ((-8.358785e-01 1.776713e-01 1.625100e+00) (9.625655e-04 4.581783e-03 -1.082614e-04) (0.000000e+00 0.000000e+00 0.000000e+00))
3.450000e+02	((3.622720e+00 1.704357e+01 -6.835347e-19) (9.138241e-02 -1.918861e-02 4.407525e-20) (0.000000e+00 0.000000e+00 0.000000e+00)) ((-8.521787e-01 1.811360e-01 1.590994e+00) (9.594306e-04 4.569121e-03 -1.081378e-04) (0.000000e+00 0.000000e+00 0.000000e+00))
3.500000e+02	((3.700491e+00 1.740946e+01 -7.154149e-19) (9.080159e-02 -1.908357e-02 4.708976e-20) (0.000000e+00 0.000000e+00 0.000000e+00)) ((-8.704729e-01 1.850246e-01 1.569512e+00) (9.541783e-04 4.540080e-03 -1.028242e-04) (0.000000e+00 0.000000e+00 0.000000e+00))
3.550000e+02	((3.795529e+00 1.785657e+01 -7.163721e-19) (9.006781e-02 -1.891684e-02 4.983164e-20) (0.000000e+00 0.000000e+00 0.000000e+00)) ((-8.928287e-01 1.897764e-01 1.561545e+00) (9.458419e-04 4.503391e-03 -1.032830e-04) (0.000000e+00 0.000000e+00 0.000000e+00))
3.600000e+02	((3.895928e+00 1.832892e+01 -7.507726e-19) (8.907850e-02 -1.871823e-02 5.330385e-20) (0.000000e+00 0.000000e+00 0.000000e+00)) ((-9.164459e-01 1.947964e-01 1.563161e+00) (9.359115e-04 4.453925e-03 -9.936744e-05) (0.000000e+00 0.000000e+00 0.000000e+00))
3.650000e+02	((4.000052e+00 1.881878e+01 -7.855924e-19) (8.799236e-02 -1.847193e-02 5.743605e-20) (0.000000e+00 0.000000e+00 0.000000e+00)) ((-9.409391e-01 2.000026e-01 1.572939e+00) (9.235965e-04 4.399618e-03 -1.009627e-04) (0.000000e+00 0.000000e+00 0.000000e+00))
3.700000e+02	((4.117067e+00 1.936929e+01 -7.853125e-19) (8.666638e-02 -1.820356e-02 5.879619e-20) (0.000000e+00 0.000000e+00 0.000000e+00)) ((-9.684646e-01 2.058533e-01 1.594136e+00) (9.101779e-04 4.333319e-03 -9.672159e-05) (0.000000e+00 0.000000e+00 0.000000e+00))
3.750000e+02	((4.230207e+00 1.990158e+01 -8.164074e-19) (8.527013e-02 -1.789167e-02 6.205476e-20) (0.000000e+00 0.000000e+00 0.000000e+00)) ((-9.950788e-01 2.115104e-01 1.617396e+00) (8.945836e-04 4.263507e-03 -9.869317e-05) (0.000000e+00 0.000000e+00 0.000000e+00))
3.800000e+02	((4.342696e+00 2.043080e+01 -8.452155e-19) (8.368794e-02 -1.756733e-02 6.441692e-20) (0.000000e+00 0.000000e+00 0.000000e+00)) ((-1.021540e+00 2.171348e-01 1.644490e+00) (8.783666e-04 4.184397e-03 -9.553583e-05) (0.000000e+00 0.000000e+00 0.000000e+00))
3.850000e+02	((4.464888e+00 2.100567e+01 -8.433068e-19) (8.203626e-02 -1.721842e-02 6.569599e-20) (0.000000e+00 0.000000e+00 0.000000e+00)) ((-1.050283e+00 2.232444e-01 1.680134e+00) (8.609210e-04 4.101813e-03 -9.507229e-05) (0.000000e+00 0.000000e+00 0.000000e+00))
3.900000e+02	((4.575532e+00 2.152620e+01 -8.738032e-19) (8.028008e-02 -1.684682e-02 6.800512e-20) (0.000000e+00 0.000000e+00 0.000000e+00)) ((-1.076310e+00 2.287766e-01 1.712199e+00) (8.423409e-04 4.014004e-03 -9.489774e-05) (0.000000e+00 0.000000e+00 0.000000e+00))
3.950000e+02	((4.689668e+00 2.206317e+01 -8.772488e-19) (7.850101e-02 -1.645852e-02 6.929144e-20) (0.000000e+00 0.000000e+00 0.000000e+00)) ((-1.103159e+00 2.344834e-01 1.750381e+00) (8.229261e-04 3.925051e-03 -9.854791e-05) (0.000000e+00 0.000000e+00 0.000000e+00))
4.000000e+02	((4.803681e+00 2.259956e+01 -8.827191e-19) (7.663603e-02 -1.606895e-02 7.034944e-20) (0.000000e+00 0.000000e+00 0.000000e+00)) ((-1.129978e+00 2.401840e-01 1.794809e+00) (8.034477e-04 3.831802e-03 -9.915914e-05) (0.000000e+00 0.000000e+00 0.000000e+00))
4.050000e+02	((4.912016e+00 2.310923e+01 -8.893810e-19) (7.477069e-02 -1.566191e-02 7.150990e-20) (0.000000e+00 0.000000e+00 0.000000e+00)) ((-1.155462e+00 2.456008e-01 1.841472e+00) (7.830957e-04 3.738534e-03 -1.039949e-04) (0.000000e+00 0.000000e+00 0.000000e+00))
4.100000e+02	((5.019599e+00 2.361537e+01 -8.985273e-19) (7.285332e-02 -1.526048e-02 7.253500e-20) (0.000000e+00 0.000000e+00 0.000000e+00)) ((-1.180769e+00 2.509799e-01 1.893837e+00) (7.630239e-04 3.642666e-03 -1.056618e-04) (0.000000e+00 0.000000e+00 0.000000e+00))
4.150000e+02	((5.124931e+00 2.411092e+01 -9.086280e-19) (7.095057e-02 -1.484947e-02 7.366871e-20) (0.000000e+00 0.000000e+00 0.000000e+00)) ((-1.205546e+00 2.562466e-01 1.951828e+00) (7.424735e-04 3.547528e-03 -1.107902e-04) (0.000000e+00 0.000000e+00 0.000000e+00))
4.200000e+02	((5.218068e+00 2.454910e+01 -9.025203e-19) (6.901633e-02 -1.445615e-02 7.380207e-20) (0.000000e+00 0.000000e+00 0.000000e+00)) ((-1.227455e+00 2.609034e-01 2.011157e+00) (7.228077e-04 3.450817e-03 -1.111954e-04) (0.000000e+00 0.000000e+00 0.000000e+00))
4.250000e+02	((5.315552e+00 2.500772e+01 -9.160694e-19) (6.710457e-02 -1.404361e-02 7.473318e-20) (0.000000e+00 0.000000e+00 0.000000e+00)) ((-1.250386e+00 2.657776e-01 2.083888e+00) (7.021807e-04 3.355228e-03 -1.158388e-04) (0.000000e+00 0.000000e+00 0.000000e+00))
4.300000e+02	((5.414866e+00 2.547496e+01 -9.090240e-19) (6.521636e-02 -1.364858e-02 7.463466e-20) (0.000000e+00 0.000000e+00 0.000000e+00)) ((-1.273748e+00 2.707433e-01 2.166230e+00) (6.824288e-04 3.260818e-03 -1.173005e-04) (0.000000e+00 0.000000e+00 0.000000e+00))
4.350000e+02	((5.507586e+00 2.591117e+01 -9.045447e-19) (6.336637e-02 -1.325459e-02 7.450297e-20) (0.000000e+00 0.000000e+00 0.000000e+00)) ((-1.295558e+00 2.753793e-01 2.252496e+00) (6.627294e-04 3.168319e-03 -1.203452e-04) (0.000000e+00 0.000000e+00 0.000000e+00))
4.400000e+02	((5.598203e+00 2.633749e+01 -8.998998e-19) (6.156213e-02 -1.286930e-02 7.421348e-20) (0.000000e+00 0.000000e+00 0.000000e+00)) ((-1.316874e+00 2.799101e-01 2.347881e+00) (6.434650e-04 3.078107e-03 -1.236554e-04) (0.000000e+00 0.000000e+00 0.000000e+00))
4.450000e+02	((5.686783e+00 2.675422e+01 -8.951284e-19) (5.980992e-02 -1.249466e-02 7.381561e-20) (0.000000e+00 0.000000e+00 0.000000e+00)) ((-1.337711e+00 2.843391e-01 2.452554e+00) (6.247330e-04 2.990496e-03 -1.269132e-04) (0.000000e+00 0.000000e+00 0.000000e+00))
4.500000e+02	((5.772889e+00 2.715932e+01 -8.902395e-19) (5.811684e-02 -1.213581e-02 7.330178e-20) (0.000000e+00 0.000000e+00 0.000000e+00)) ((-1.357966e+00 2.886445e-01 2.565452e+00) (6.067905e-04 2.905842e-03 -1.295910e-04) (0.000000e+00 0.000000e+00 0.000000e+00))
4.550000e+02	((5.856109e+00 2.755084e+01 -8.857620e-19) (5.648872e-02 -1.179106e-02 7.270600e-20) (0.000000e+00 0.000000e+00 0.000000e+00)) ((-1.377542e+00 2.928055e-01 2.685993e+00) (5.895531e-04 2.824436e-03 -1.322090e-04) (0.000000e+00 0.000000e+00 0.000000e+00))
4.600000e+02	((5.936013e+00 2.792676e+01 -8.818702e-19) (5.493507e-02 -1.146246e-02 7.201420e-20) (0.000000e+00 0.000000e+00 0.000000e+00)) ((-1.396338e+00 2.968007e-01 2.813389e+00) (5.731230e-04 2.746754e-03 -1.347368e-04) (0.000000e+00 0.000000e+00 0.000000e+00))
4.650000e+02	((6.006537e+00 2.825855e+01 -8.632774e-19) (5.346557e-02 -1.115179e-02 7.061553e-20) (0.000000e+00 0.000000e+00 0.000000e+00)) ((-1.412927e+00 3.003268e-01 2.939167e+00) (5.575894e-04 2.673279e-03 -1.370922e-04) (0.000000e+00 0.000000e+00 0.000000e+00))
4.700000e+02	((6.083316e+00 2.861977e+01 -8.610752e-19) (5.209225e-02 -1.086181e-02 6.984264e-20) (0.000000e+00 0.000000e+00 0.000000e+00)) ((-1.430988e+00 3.041658e-01 3.080489e+00) (5.430905e-04 2.604612e-03 -1.396585e-04) (0.000000e+00 0.000000e+00 0.000000e+00))
4.750000e+02	((6.153233e+00 2.894870e+01 -8.464229e-19) (5.082415e-02 -1.059376e-02 6.836343e-20) (0.000000e+00 0.000000e+00 0.000000e+00)) ((-1.447435e+00 3.076617e-01 3.229695e+00) (5.296879e-04 2.541208e-03 -1.413030e-04) (0.000000e+00 0.000000e+00 0.000000e+00))
4.800000e+02	((6.205167e+00 2.919303e+01 -8.333594e-19) (4.965363e-02 -1.034684e-02 6.702877e-20) (0.000000e+00 0.000000e+00 0.000000e+00)) ((-1.459652e+00 3.102584e-01 3.353141e+00) (5.173422e-04 2.482681e-03 -1.433146e-04) (0.000000e+00 0.000000e+00 0.000000e+00))
4.850000e+02	((6.263008e+00 2.946515e+01 -8.380107e-19) (4.862846e-02 -1.013111e-02 6.634136e-20) (0.000000e+00 0.000000e+00 0.000000e+00)) ((-1.473257e+00 3.131504e-01 3.492628e+00) (5.065554e-04 2.431423e-03 -1.457102e-04) (0.000000e+00 0.000000e+00 0.000000e+00))
4.900000e+02	((6.310613e+00 2.968911e+01 -8.303979e-19) (4.773512e-02 -9.943003e-03 6.496017e-20) (0.000000e+00 0.000000e+00 0.000000e+00)) ((-1.484456e+00 3.155307e-01 3.633732e+00) (4.971501e-04 2.386756e-03 -1.469524e-04) (0.000000e+00 0.000000e+00 0.000000e+00))
4.950000e+02	((6.343583e+00 2.984423e+01 -8.274846e-19) (4.697377e-02 -9.782755e-03 6.379415e-20) (0.000000e+00 0.000000e+00 0.000000e+00)) ((-1.492211e+00 3.171792e-01 3.755433e+00) (4.891378e-04 2.348688e-03 -1.480020e-04) (0.000000e+00 0.000000e+00 0.000000e+00))
5.000000e+02	((6.367371e+00 2.995614e+01 -8.098488e-19) (4.638145e-02 -9.658475e-03 6.209505e-20) (0.000000e+00 0.000000e+00 0.000000e+00)) ((-1.497807e+00 3.183686e-01 3.861397e+00) (4.829237e-04 2.319073e-03 -1.492055e-04) (0.000000e+00 0.000000e+00 0.000000e+00))
5.050000e+02	((6.381873e+00 3.002437e+01 -8.096147e-19) (4.595079e-02 -9.568095e-03 6.097942e-20) (0.000000e+00 0.000000e+00 0.000000e+00)) ((-1.501218e+00 3.190937e-01 3.965654e+00) (4.784048e-04 2.297539e-03 -1.496304e-04) (0.000000e+00 0.000000e+00 0.000000e+00))
5.100000e+02	((6.383919e+00 3.003399e+01 -7.974406e-19) (4.569605e-02 -9.514905e-03 5.938242e-20) (0.000000e+00 0.000000e+00 0.000000e+00)) ((-1.501700e+00 3.191960e-01 4.052662e+00) (4.757453e-04 2.284802e-03 -1.496090e-04) (0.000000e+00 0.000000e+00 0.000000e+00))
5.150000e+02	((6.373899e+00 2.998685e+01 -8.008264e-19) (4.561368e-02 -9.497881e-03 5.837388e-20) (0.000000e+00 0.000000e+00 0.000000e+00)) ((-1.499342e+00 3.186949e-01 4.129045e+00) (4.748940e-04 2.280684e-03 -1.489905e-04) (0.000000e+00 0.000000e+00 0.000000e+00))
5.200000e+02	((6.351434e+00 2.988116e+01 -7.886614e-19) (4.571141e-02 -9.519033e-03 5.677910e-20) (0.000000e+00 0.000000e+00 0.000000e+00)) ((-1.494058e+00 3.175717e-01 4.186305e+00) (4.759516e-04 2.285570e-03 -1.481061e-04) (0.000000e+00 0.000000e+00 0.000000e+00))
5.250000e+02	((6.317874e+00 2.972327e+01 -7.741948e-19) (4.599405e-02 -9.578573e-03 5.510146e-20) (0.000000e+00 0.000000e+00 0.000000e+00)) ((-1.486164e+00 3.158937e-01 4.228269e+00) (4.789287e-04 2.299702e-03 -1.462964e-04) (0.000000e+00 0.000000e+00 0.000000e+00))
5.300000e+02	((6.269704e+00 2.949665e+01 -7.770688e-19) (4.645183e-02 -9.675534e-03 5.406896e-20) (0.000000e+00 0.000000e+00 0.000000e+00)) ((-1.474832e+00 3.134852e-01 4.256639e+00) (4.837767e-04 2.322591e-03 -1.442455e-04) (0.000000e+00 0.000000e+00 0.000000e+00))
5.350000e+02	((6.212393e+00 2.922702e+01 -7.601175e-19) (4.708211e-02 -9.803687e-03 5.229634e-20) (0.000000e+00 0.000000e+00 0.000000e+00)) ((-1.461351e+00 3.106197e-01 4.269253e+00) (4.901844e-04 2.354105e-03 -1.381687e-04) (0.000000e+00 0.000000e+00 0.000000e+00))
5.400000e+02	((6.146338e+00 2.891626e+01 -7.407108e-19) (4.788737e-02 -9.985811e-03 5.044409e-20) (0.000000e+00 0.000000e+00 0.000000e+00)) ((-1.445813e+00 3.073169e-01 4.268600e+00) (4.992905e-04 2.394368e-03 -1.435539e-04) (0.000000e+00 0.000000e+00 0.000000e+00))
5.450000e+02	((6.064226e+00 2.852995e+01 -7.420838e-19) (4.885032e-02 -1.018827e-02 4.939000e-20) (0.000000e+00 0.000000e+00 0.000000e+00)) ((-1.426498e+00 3.032113e-01 4.251978e+00) (5.094135e-04 2.442516e-03 -1.392918e-04) (0.000000e+00 0.000000e+00 0.000000e+00))
5.500000e+02	((5.978788e+00 2.812800e+01 -7.212361e-19) (4.996017e-02 -1.042792e-02 4.752127e-20) (0.000000e+00 0.000000e+00 0.000000e+00)) ((-1.406400e+00 2.989394e-01 4.225712e+00) (5.213961e-04 2.498009e-03 -1.386085e-04) (0.000000e+00 0.000000e+00 0.000000e+00))
5.550000e+02	((5.882200e+00 2.767359e+01 -7.179703e-19) (5.121102e-02 -1.069458e-02 4.634690e-20) (0.000000e+00 0.000000e+00 0.000000e+00)) ((-1.383679e+00 2.941100e-01 4.186165e+00) (5.347291e-04 2.560551e-03 -1.347455e-04) (0.000000e+00 0.000000e+00 0.000000e+00))