/*--------------------------------*- C++ -*----------------------------------*\
| =========                 |                                                 |
| \\      /  F ield         | OpenFOAM: The Open Source CFD Toolbox           |
|  \\    /   O peration     | Version:  2.3.0                                 |
|   \\  /    A nd           | Web:      www.OpenFOAM.org                      |
|    \\/     M anipulation  |                                                 |
\*---------------------------------------------------------------------------*/
FoamFile
{
    version     2.0;
    format      ascii;
    class       volScalarField;
    location    "10000";
    object      p;
}
// * * * * * * * * * * * * * * * * * * * * * * * * * * * * * * * * * * * * * //

dimensions      [0 2 -2 0 0 0 0];

internalField   nonuniform List<scalar> 
14757
(
-0.00705657
-0.885763
-1.73344
-2.54252
-3.27208
-3.89954
-4.40158
-4.76727
-4.9787
-5.01668
-4.84278
-4.41378
-3.6431
-2.41538
-0.621831
1.91097
5.35465
9.78427
15.4548
23.187
33.5735
43.8832
49.7151
64.3013
9.84131
10.0585
10.4588
10.9862
11.6681
12.5191
13.5695
14.8716
16.4871
18.5103
21.0386
24.1832
28.063
32.8224
38.6111
45.5713
53.8539
63.5744
74.832
87.7505
102.375
118.596
136.386
155.521
18.3703
19.1955
20.3142
21.6394
23.1842
24.9696
27.0105
29.3368
31.9618
34.927
38.2581
42.0037
46.2006
50.9091
56.1734
62.04
68.5559
75.743
83.5987
92.1032
101.187
110.738
120.675
130.831
25.2551
26.7373
28.3253
30.1062
32.0908
34.3045
36.768
39.5219
42.5871
46.0041
49.8049
54.03
58.7106
63.8795
69.5577
75.7662
82.5004
89.7488
97.4677
105.59
114.019
122.61
131.204
139.596
31.3074
33.087
34.8845
36.8849
39.0757
41.4694
44.0876
46.947
50.0618
53.4604
57.162
61.1866
65.5597
70.2966
75.4121
80.9178
86.8061
93.065
99.6561
106.525
113.604
120.786
127.961
135.004
36.3736
38.3584
40.2543
42.3374
44.5935
47.0396
49.6874
52.5564
55.6629
59.0271
62.6645
66.5923
70.8289
75.3756
80.2473
85.4432
90.949
96.7536
102.816
109.088
115.505
121.983
128.433
134.757
40.7627
42.7971
44.6874
46.7572
48.9961
51.4092
54.0043
56.8029
59.8037
63.0377
66.5153
70.2505
74.2587
78.5363
83.1034
87.9483
93.0615
98.4265
104.025
109.795
115.689
121.633
127.552
133.37
44.3776
46.4141
48.3323
50.3589
52.5486
54.9007
57.4215
60.1572
63.071
66.2104
69.5562
73.111
76.8953
80.9317
85.2538
89.8391
94.6571
99.6689
104.904
110.29
115.815
121.375
126.913
132.356
47.638
49.5398
51.4254
53.3474
55.4851
57.7565
60.1673
62.7622
65.4962
68.5033
71.7341
75.1959
78.8514
82.733
86.8176
91.1581
95.7194
100.512
105.52
110.619
115.846
121.099
126.357
131.548
52.19
52.7836
54.2075
55.8583
57.8851
60.0205
62.2309
64.5343
66.7939
69.3715
72.2146
75.6628
79.9332
83.9033
87.7728
91.8986
96.2229
100.591
106.281
111.27
116.176
121.104
126.217
131.384
122.643
153.662
172.557
186.332
197.397
206.42
213.674
219.379
223.738
226.941
229.114
230.391
230.873
230.652
229.816
228.454
226.646
224.473
222.016
219.342
216.494
213.49
210.578
208.333
173.155
186.788
197.642
206.412
213.42
218.827
222.799
225.51
227.139
227.855
227.821
227.191
226.101
224.668
222.991
221.142
219.173
217.117
214.991
212.799
210.53
208.164
205.89
204.189
140.936
150.74
159.962
168.398
175.957
182.615
188.376
193.274
197.36
200.694
203.335
205.348
206.796
207.734
208.216
208.294
208.011
207.414
206.541
205.431
204.107
202.58
201.049
199.994
147.657
155.326
162.516
169.129
175.085
180.359
184.941
188.85
192.118
194.794
196.923
198.563
199.766
200.582
201.061
201.244
201.168
200.864
200.357
199.669
198.809
197.777
196.726
196.058
141.855
148.481
154.804
160.731
166.187
171.132
175.547
179.429
182.795
185.668
188.076
190.058
191.648
192.88
193.792
194.414
194.775
194.902
194.818
194.545
194.095
193.476
192.802
192.441
140.893
146.812
152.457
157.756
162.657
167.126
171.146
174.712
177.835
180.53
182.825
184.75
186.334
187.608
188.604
189.347
189.865
190.177
190.304
190.264
190.072
189.735
189.348
189.23
139.027
144.487
149.697
154.594
159.138
163.308
167.093
170.47
173.455
176.056
178.306
180.221
181.827
183.153
184.229
185.079
185.722
186.175
186.456
186.581
186.569
186.423
186.214
186.211
137.664
142.785
147.674
152.254
156.505
160.43
164.037
167.248
170.128
172.636
174.82
176.681
178.252
179.576
180.678
181.586
182.295
182.828
183.2
183.426
183.545
183.552
183.496
183.715
136.601
141.463
146.093
150.411
154.461
158.225
161.739
164.746
167.539
169.922
171.996
173.765
175.28
176.599
177.727
178.688
179.438
180.015
180.435
180.723
180.946
181.059
181.072
181.428
136.29
140.932
145.193
149.16
152.992
156.767
160.387
162.982
165.503
167.341
169.468
171.242
172.749
174.163
175.329
176.346
177.12
177.711
178.167
178.511
178.831
178.963
178.743
179.319
-4.76034
-5.34163
-5.89429
-6.46135
-7.0239
-7.56551
-8.07386
-8.53733
-8.94606
-9.29196
-9.56918
-9.77362
-9.90215
-9.95056
-9.91047
-9.77174
-9.51361
-9.10503
-8.51757
-7.72167
-6.6844
-5.35512
-3.33661
1.22071
-3.53532
-4.07365
-4.66213
-5.22027
-5.74875
-6.24392
-6.70235
-7.12144
-7.49906
-7.83109
-8.10959
-8.32388
-8.4576
-8.49464
-8.41249
-8.17757
-7.74252
-7.03673
-5.96658
-4.40568
-2.18026
0.940534
5.12177
10.254
-2.00098
-2.67269
-3.31999
-3.9377
-4.53517
-5.10844
-5.64974
-6.14803
-6.59134
-6.96494
-7.25337
-7.44032
-7.50282
-7.4157
-7.14958
-6.6677
-5.92256
-4.84894
-3.36096
-1.35195
1.29542
4.6762
8.76996
13.3349
-0.743958
-1.28543
-1.88068
-2.48188
-3.05639
-3.59747
-4.09792
-4.54678
-4.93117
-5.23619
-5.44543
-5.54206
-5.50827
-5.3199
-4.94582
-4.34562
-3.47134
-2.26644
-0.660579
1.41833
4.03058
7.18752
10.8195
14.7439
0.48476
0.0895828
-0.46465
-1.02941
-1.56585
-2.0684
-2.53031
-2.93832
-3.27629
-3.53068
-3.68645
-3.72775
-3.63564
-3.38239
-2.93699
-2.26248
-1.31539
-0.0450431
1.60262
3.6749
6.20296
9.18591
12.5604
16.1593
1.8935
1.43572
0.921432
0.406183
-0.0811946
-0.534453
-0.948832
-1.31027
-1.60425
-1.81495
-1.927
-1.92472
-1.79117
-1.50136
-1.02462
-0.322407
0.649347
1.93418
3.57333
5.6094
8.05815
10.9139
14.1162
17.5367
3.00075
2.69535
2.23445
1.77284
1.33896
0.938411
0.568624
0.246507
-0.0140135
-0.194531
-0.275868
-0.243254
-0.0838488
0.224297
0.707395
1.41514
2.38246
3.65364
5.27861
7.28788
9.65296
12.3947
15.4603
18.7379
4.13248
3.88626
3.47618
3.06196
2.67174
2.33026
2.00476
1.71933
1.4819
1.31815
1.25685
1.31986
1.50301
1.82392
2.28688
2.96643
3.90882
5.16277
6.77921
8.83731
11.1901
13.8866
16.8509
20.0901
5.1634
4.99739
4.63247
4.25835
3.89167
3.63756
3.35963
3.09673
2.86431
2.69711
2.65871
2.79472
3.00372
3.33169
3.73312
4.35964
5.23559
6.40222
7.86717
9.97843
12.1845
14.6982
17.4326
20.5935
6.07457
6.00162
5.68173
5.2821
5.01097
4.8704
4.71485
4.36949
3.94048
3.55261
3.39143
3.85252
4.39997
4.76375
4.97853
5.37555
6.32733
8.03962
10.6825
14.3481
16.5439
18.1598
20.6668
24.4757
11.014
15.678
18.6297
21.3023
23.8513
26.2437
28.4806
30.5762
32.5517
34.434
36.2504
38.0318
39.8022
41.5794
43.3734
45.1901
47.0316
48.8969
50.7842
52.6926
54.6198
56.5482
58.4739
60.6434
15.993
19.3333
21.0878
22.6683
24.3731
26.2001
28.1093
30.0632
32.0336
34.0002
35.9486
37.8704
39.7616
41.6227
43.4565
45.2674
47.0612
48.8435
50.6184
52.3931
54.172
55.944
57.706
59.5997
17.9155
21.8763
24.1319
25.6668
27.1705
28.7377
30.3666
32.0402
33.7425
35.4618
37.1869
38.9107
40.6261
42.33
44.0206
45.6977
47.3616
49.0146
50.6579
52.2955
53.9301
55.5592
57.1837
58.8483
18.7119
22.5143
25.0957
26.7834
28.3714
29.9695
31.5862
33.2099
34.8327
36.4508
38.0606
39.6607
41.2502
42.83
44.3997
45.9607
47.5139
49.0607
50.6016
52.1391
53.6744
55.206
56.7436
58.3366
19.7929
23.2816
25.9247
27.6648
29.2661
30.861
32.464
34.0632
35.6515
37.2261
38.7844
40.3252
41.849
43.356
44.8472
46.3241
47.7886
49.242
50.6859
52.1231
53.5545
54.9758
56.3983
57.8723
20.9854
24.2731
26.923
28.7164
30.3166
31.8901
33.4593
35.0174
36.5598
38.0837
39.5875
41.07
42.5312
43.9715
45.3914
46.7922
48.1751
49.5414
50.8931
52.2328
53.5618
54.8732
56.1785
57.5481
22.0417
25.2128
27.8582
29.7132
31.3239
32.8842
34.4259
35.948
37.4488
38.9263
40.3789
41.8065
43.2094
44.5874
45.9407
47.2724
48.5815
49.8706
51.1387
52.3917
53.6313
54.8485
56.0584
57.3499
23.3174
26.4355
29.0087
30.7859
32.2989
33.7957
35.2907
36.7739
38.2387
39.6784
41.0887
42.4727
43.8311
45.1596
46.4578
47.734
48.9793
50.2023
51.3963
52.5758
53.7413
54.8769
55.9943
57.2264
23.6487
26.9229
29.6725
31.5121
33.0477
34.5491
36.0415
37.5159
38.9673
40.3862
41.7621
43.1104
44.4344
45.7153
46.9528
48.1876
49.3691
50.5403
51.6542
52.7689
53.8641
54.9214
55.9579
57.0895
27.5398
30.8657
32.6685
33.2119
34.0226
35.3094
36.7293
38.1594
39.5819
40.9658
42.2802
43.5973
44.909
46.1628
47.3521
48.6167
49.7136
50.8624
51.8875
52.9728
54.0537
55.0688
56.0792
57.0971
-182.543
-172.16
-161.32
-152.204
-142.022
-130.65
-118.999
-107.598
-96.5661
-85.9547
-75.8864
-66.508
-57.8909
-50.0951
-43.1674
-37.1053
-31.873
-27.3928
-23.5707
-20.2864
-17.418
-14.8655
-12.5559
-10.4816
-107.052
-106.989
-106.008
-104.477
-103.025
-101.932
-100.857
-99.2712
-96.9263
-93.7823
-89.8619
-85.2183
-79.8992
-74.0174
-67.7423
-61.2703
-54.8344
-48.6231
-42.7962
-37.4417
-32.5871
-28.2138
-24.2629
-20.7604
-117.05
-116.93
-117.002
-117.001
-116.664
-115.738
-114.178
-112.127
-109.705
-106.835
-103.366
-99.2816
-94.5999
-89.3628
-83.6309
-77.4789
-71.0513
-64.4944
-57.9949
-51.713
-45.772
-40.2448
-35.1393
-30.5213
-108.153
-108.102
-107.963
-107.755
-107.474
-107.102
-106.603
-105.928
-104.994
-103.799
-102.359
-100.54
-98.1765
-95.1477
-91.3886
-86.875
-81.6767
-75.8993
-69.7318
-63.3807
-57.0568
-50.9353
-45.1242
-39.8151
-108.193
-108.174
-108.169
-108.138
-108.062
-107.916
-107.669
-107.273
-106.673
-105.818
-104.666
-103.199
-101.375
-99.1013
-96.2973
-92.874
-88.7844
-84.0046
-78.6025
-72.7075
-66.5115
-60.221
-53.9991
-48.0786
-105.856
-105.836
-105.802
-105.744
-105.656
-105.529
-105.352
-105.105
-104.765
-104.3
-103.669
-102.818
-101.696
-100.242
-98.362
-95.9551
-92.9366
-89.2292
-84.8055
-79.7056
-74.0469
-68.0192
-61.774
-56.0708
-104.93
-104.918
-104.903
-104.875
-104.828
-104.753
-104.64
-104.476
-104.242
-103.913
-103.461
-102.849
-102.034
-100.963
-99.5734
-97.7765
-95.4828
-92.6007
-89.045
-84.7824
-79.8372
-74.3364
-68.3268
-63.0231
-103.792
-103.781
-103.765
-103.737
-103.693
-103.63
-103.541
-103.416
-103.246
-103.013
-102.698
-102.274
-101.706
-100.95
-99.9514
-98.637
-96.9186
-94.701
-91.8826
-88.3888
-84.1774
-79.3133
-73.6976
-68.9356
-102.955
-102.946
-102.934
-102.913
-102.88
-102.832
-102.764
-102.668
-102.537
-102.358
-102.117
-101.794
-101.362
-100.789
-100.03
-99.0284
-97.7108
-95.9877
-93.7542
-90.9138
-87.3801
-83.1654
-78.0529
-73.7125
-102.162
-102.154
-102.143
-102.123
-102.094
-102.053
-101.996
-101.918
-101.812
-101.67
-101.481
-101.23
-100.897
-100.455
-99.8693
-99.0938
-98.0702
-96.7201
-94.9471
-92.6495
-89.7175
-86.1242
-81.5977
-77.9214
-101.47
-101.463
-101.454
-101.437
-101.412
-101.377
-101.328
-101.263
-101.175
-101.058
-100.903
-100.699
-100.43
-100.076
-99.6087
-98.9907
-98.1752
-97.0985
-95.6762
-93.812
-91.3899
-88.3507
-84.3734
-81.2387
-100.834
-100.828
-100.819
-100.804
-100.781
-100.75
-100.707
-100.651
-100.575
-100.476
-100.345
-100.175
-99.9532
-99.6628
-99.2818
-98.7795
-98.1174
-97.2441
-96.0885
-94.5652
-92.5639
-90.0066
-86.5561
-83.8862
-100.254
-100.249
-100.241
-100.226
-100.206
-100.177
-100.139
-100.089
-100.023
-99.936
-99.8235
-99.678
-99.4897
-99.2453
-98.9271
-98.5103
-97.9625
-97.2417
-96.2901
-95.0344
-93.3781
-91.242
-88.3315
-85.9986
-99.7186
-99.715
-99.7068
-99.6932
-99.6739
-99.6477
-99.6128
-99.5673
-99.5078
-99.4308
-99.3316
-99.2045
-99.0415
-98.8318
-98.5609
-98.2085
-97.7476
-97.1432
-96.3476
-95.2976
-93.9078
-92.094
-89.5971
-87.3567
-99.2248
-99.2219
-99.2139
-99.2009
-99.1826
-99.158
-99.1256
-99.0837
-99.0296
-98.96
-98.8711
-98.758
-98.6143
-98.4312
-98.1966
-97.8939
-97.5006
-96.9868
-96.3132
-95.4271
-94.2554
-92.7196
-90.6111
-88.7944
-98.7649
-98.7626
-98.755
-98.7427
-98.7255
-98.7024
-98.6722
-98.6335
-98.5838
-98.5204
-98.4398
-98.3381
-98.2099
-98.0479
-97.8422
-97.5787
-97.2387
-96.7972
-96.221
-95.4667
-94.4733
-93.1724
-91.4017
-89.8605
-98.3364
-98.3345
-98.3273
-98.3156
-98.2993
-98.2775
-98.2494
-98.2133
-98.1675
-98.1093
-98.0357
-97.9434
-97.8278
-97.683
-97.5005
-97.2687
-96.9716
-96.5881
-96.0892
-95.4375
-94.5787
-93.4455
-91.8886
-90.377
-97.934
-97.9324
-97.9255
-97.9145
-97.8991
-97.8787
-97.8524
-97.8189
-97.7765
-97.7231
-97.6558
-97.5716
-97.4668
-97.3364
-97.1731
-96.9673
-96.7052
-96.3686
-95.9323
-95.3643
-94.6165
-93.628
-92.2722
-90.8757
-97.5534
-97.552
-97.5456
-97.5352
-97.5207
-97.5017
-97.4772
-97.4461
-97.407
-97.3578
-97.2962
-97.2193
-97.124
-97.006
-96.8593
-96.6755
-96.4428
-96.1456
-95.7625
-95.265
-94.6133
-93.7559
-92.6022
-91.4425
-97.1915
-97.19
-97.1838
-97.1739
-97.1602
-97.1423
-97.1195
-97.0906
-97.0544
-97.0091
-96.9525
-96.8822
-96.7953
-96.6881
-96.5556
-96.3903
-96.1823
-95.9178
-95.5779
-95.1371
-94.5596
-93.7963
-92.7731
-91.7132
-96.8413
-96.84
-96.8341
-96.8248
-96.8119
-96.7952
-96.774
-96.7472
-96.7138
-96.6722
-96.6203
-96.5559
-96.4766
-96.3791
-96.259
-96.1102
-95.9238
-95.6879
-95.3862
-94.9964
-94.4883
-93.8163
-92.9098
-92.1933
-96.4998
-96.4986
-96.493
-96.4843
-96.4723
-96.4567
-96.4369
-96.4121
-96.3812
-96.3427
-96.2949
-96.2356
-96.1626
-96.0731
-95.9631
-95.8271
-95.657
-95.4421
-95.1668
-94.8091
-94.3369
-93.7046
-92.819
-91.564
-96.1631
-96.1622
-96.1571
-96.149
-96.1378
-96.1234
-96.105
-96.082
-96.0533
-96.0177
-95.9736
-95.9189
-95.8515
-95.769
-95.6678
-95.5432
-95.3879
-95.1922
-94.9427
-94.6203
-94.1971
-93.6353
-92.888
-92.2073
-95.8314
-95.8303
-95.8253
-95.8175
-95.807
-95.7934
-95.7762
-95.7547
-95.7281
-95.695
-95.6539
-95.6031
-95.5407
-95.4642
-95.3705
-95.2553
-95.1121
-94.9322
-94.7032
-94.4079
-94.022
-93.5156
-92.8464
-91.9336
-95.4989
-95.4979
-95.4932
-95.4859
-95.4761
-95.4634
-95.4474
-95.4275
-95.4027
-95.372
-95.334
-95.2869
-95.2289
-95.1579
-95.071
-94.9641
-94.8317
-94.6656
-94.4548
-94.184
-93.8321
-93.3712
-92.755
-91.8373
-95.1646
-95.1637
-95.1593
-95.1526
-95.1434
-95.1316
-95.1168
-95.0984
-95.0755
-95.0471
-95.0119
-94.9684
-94.9146
-94.8487
-94.768
-94.6689
-94.5461
-94.3924
-94.1978
-93.9483
-93.6253
-93.2037
-92.6424
-91.7656
-94.8262
-94.8254
-94.8213
-94.8151
-94.8067
-94.7959
-94.7823
-94.7654
-94.7444
-94.7183
-94.686
-94.646
-94.5965
-94.5356
-94.4609
-94.369
-94.2554
-94.1132
-93.9333
-93.7032
-93.4063
-93.0202
-92.5089
-91.6856
-94.4818
-94.4811
-94.4774
-94.4717
-94.464
-94.4542
-94.4418
-94.4265
-94.4074
-94.3837
-94.3543
-94.3178
-94.2725
-94.2167
-94.148
-94.0635
-93.9586
-93.8275
-93.6617
-93.4498
-93.1766
-92.8196
-92.3441
-91.606
-94.1303
-94.1294
-94.1259
-94.1206
-94.1135
-94.1046
-94.0934
-94.0795
-94.0623
-94.041
-94.0144
-93.9815
-93.9405
-93.8898
-93.8274
-93.7503
-93.6546
-93.5351
-93.3844
-93.193
-92.9471
-92.6184
-92.1801
-91.8341
-93.7667
-93.7661
-93.763
-93.7583
-93.752
-93.744
-93.734
-93.7217
-93.7064
-93.6873
-93.6636
-93.634
-93.5972
-93.5514
-93.4948
-93.4247
-93.3374
-93.228
-93.0899
-92.9143
-92.6874
-92.3815
-91.968
-91.7217
-93.3919
-93.3914
-93.3885
-93.3842
-93.3786
-93.3714
-93.3625
-93.3515
-93.3379
-93.3209
-93.2997
-93.2731
-93.2399
-93.1985
-93.1469
-93.0826
-93.002
-92.9004
-92.7706
-92.6025
-92.3831
-92.1066
-91.7526
-90.9366
-93.0032
-93.0027
-93.0002
-92.9964
-92.9914
-92.9851
-92.9772
-92.9674
-92.9553
-92.9402
-92.9214
-92.8976
-92.8678
-92.8303
-92.7833
-92.7244
-92.6502
-92.556
-92.435
-92.2778
-92.0735
-91.8228
-91.5209
-90.7651
-92.6006
-92.6001
-92.5979
-92.5945
-92.59
-92.5844
-92.5774
-92.5688
-92.5581
-92.5447
-92.5279
-92.5067
-92.4798
-92.4459
-92.4032
-92.3493
-92.2808
-92.1934
-92.0808
-91.9348
-91.7445
-91.4977
-91.1799
-90.8055
-92.1828
-92.1824
-92.1804
-92.1775
-92.1736
-92.1686
-92.1625
-92.1549
-92.1455
-92.1337
-92.1187
-92.0998
-92.0757
-92.045
-92.006
-91.9562
-91.8926
-91.8105
-91.7037
-91.5636
-91.3775
-91.1256
-90.7798
-90.3477
-91.7504
-91.75
-91.7482
-91.7456
-91.7421
-91.7378
-91.7324
-91.7258
-91.7175
-91.7071
-91.6939
-91.6771
-91.6556
-91.628
-91.5927
-91.5475
-91.489
-91.4132
-91.3141
-91.1841
-91.0122
-90.7828
-90.4725
-90.1013
-91.3025
-91.3023
-91.3007
-91.2984
-91.2954
-91.2916
-91.287
-91.2812
-91.2739
-91.2648
-91.2532
-91.2384
-91.2193
-91.1946
-91.1628
-91.1217
-91.0682
-90.9984
-90.9067
-90.7856
-90.625
-90.4107
-90.1197
-89.767
-90.8401
-90.8399
-90.8385
-90.8365
-90.8339
-90.8305
-90.8264
-90.8213
-90.815
-90.8069
-90.7967
-90.7835
-90.7665
-90.7445
-90.716
-90.6789
-90.6304
-90.5666
-90.4825
-90.3711
-90.2232
-90.0278
-89.7704
-89.4512
-90.3635
-90.3633
-90.3621
-90.3603
-90.358
-90.355
-90.3513
-90.3467
-90.341
-90.3338
-90.3245
-90.3127
-90.2973
-90.2773
-90.2514
-90.2176
-90.1733
-90.1148
-90.037
-89.9336
-89.7953
-89.6103
-89.3714
-89.1277
-89.8739
-89.8738
-89.8727
-89.8711
-89.8689
-89.8661
-89.8626
-89.8583
-89.8529
-89.8461
-89.8374
-89.8263
-89.8119
-89.7932
-89.7691
-89.7377
-89.6965
-89.642
-89.5695
-89.4735
-89.346
-89.1732
-88.938
-88.7681
-89.3729
-89.3728
-89.3718
-89.3701
-89.368
-89.3653
-89.3619
-89.3576
-89.3523
-89.3455
-89.3369
-89.3258
-89.3116
-89.2932
-89.2695
-89.2387
-89.1983
-89.1448
-89.0732
-88.977
-88.8479
-88.6729
-88.4174
-87.9971
-88.8619
-88.8618
-88.8609
-88.8593
-88.8572
-88.8545
-88.8511
-88.8467
-88.8412
-88.8343
-88.8254
-88.814
-88.7994
-88.7807
-88.7565
-88.7251
-88.6841
-88.6298
-88.5569
-88.4584
-88.3237
-88.137
-87.8779
-87.5137
-88.3441
-88.344
-88.3431
-88.3415
-88.3394
-88.3366
-88.333
-88.3285
-88.3227
-88.3154
-88.3062
-88.2943
-88.2791
-88.2597
-88.2347
-88.2027
-88.161
-88.1062
-88.0336
-87.9369
-87.8078
-87.635
-87.405
-87.1751
-87.8215
-87.8213
-87.8203
-87.8187
-87.8165
-87.8136
-87.8098
-87.8051
-87.7991
-87.7915
-87.7818
-87.7695
-87.7537
-87.7336
-87.7078
-87.6747
-87.632
-87.5761
-87.502
-87.4032
-87.2716
-87.1016
-86.8716
-86.2887
-87.2953
-87.295
-87.294
-87.2923
-87.2901
-87.2871
-87.2833
-87.2785
-87.2724
-87.2646
-87.2547
-87.2421
-87.2261
-87.2057
-87.1797
-87.1465
-87.1039
-87.0487
-86.9767
-86.8827
-86.7597
-86.5959
-86.377
-86.2693
-86.766
-86.7658
-86.7649
-86.7633
-86.7612
-86.7583
-86.7546
-86.7499
-86.7438
-86.7361
-86.7263
-86.7137
-86.6977
-86.6774
-86.6514
-86.6184
-86.5759
-86.5212
-86.4497
-86.3555
-86.2315
-86.0715
-85.8576
-85.3659
-86.2359
-86.2358
-86.2349
-86.2335
-86.2314
-86.2287
-86.2251
-86.2205
-86.2146
-86.2072
-86.1976
-86.1854
-86.1699
-86.1502
-86.125
-86.0931
-86.0525
-86.0003
-85.9332
-85.8467
-85.7348
-85.5892
-85.4128
-85.3486
-85.7062
-85.7058
-85.7048
-85.7032
-85.7011
-85.6984
-85.6949
-85.6905
-85.6849
-85.6778
-85.6687
-85.657
-85.6422
-85.6233
-85.5993
-85.5686
-85.5296
-85.4796
-85.4152
-85.332
-85.224
-85.0826
-84.9032
-84.7042
-85.1734
-85.1731
-85.1722
-85.1708
-85.169
-85.1665
-85.1633
-85.1593
-85.1541
-85.1476
-85.1391
-85.1283
-85.1144
-85.0967
-85.074
-85.0451
-85.0081
-84.9607
-84.8994
-84.8202
-84.7172
-84.5817
-84.4035
-84.1504
-84.6391
-84.6389
-84.6381
-84.6369
-84.6353
-84.6331
-84.6303
-84.6267
-84.6221
-84.6162
-84.6086
-84.5987
-84.5861
-84.5697
-84.5488
-84.5218
-84.4873
-84.4428
-84.3852
-84.3108
-84.2147
-84.0871
-83.9139
-83.779
-84.1027
-84.1026
-84.102
-84.101
-84.0996
-84.0978
-84.0954
-84.0923
-84.0883
-84.0831
-84.0764
-84.0677
-84.0563
-84.0416
-84.0225
-83.9978
-83.9658
-83.9242
-83.8698
-83.7982
-83.7042
-83.5841
-83.4206
-83.0076
-83.5654
-83.565
-83.5643
-83.5632
-83.5619
-83.5602
-83.5581
-83.5554
-83.5519
-83.5475
-83.5418
-83.5342
-83.5244
-83.5116
-83.4948
-83.473
-83.4446
-83.4076
-83.3594
-83.2969
-83.2163
-83.1119
-82.9861
-82.9821
-83.0224
-83.0221
-83.0215
-83.0207
-83.0196
-83.0182
-83.0165
-83.0144
-83.0116
-83.008
-83.0032
-82.9968
-82.9885
-82.9775
-82.9629
-82.9437
-82.9184
-82.8851
-82.8408
-82.7821
-82.7039
-82.5974
-82.4509
-82.2878
-82.4747
-82.4747
-82.4743
-82.4737
-82.473
-82.472
-82.4707
-82.4691
-82.4669
-82.4639
-82.46
-82.4549
-82.4478
-82.4384
-82.426
-82.4095
-82.3876
-82.3584
-82.3195
-82.2678
-82.2
-82.1129
-82.0044
-81.8638
-81.9232
-81.9232
-81.9229
-81.9224
-81.9219
-81.9211
-81.9201
-81.9188
-81.9171
-81.9147
-81.9115
-81.9072
-81.9012
-81.8931
-81.8823
-81.8678
-81.8483
-81.822
-81.7864
-81.7381
-81.6728
-81.5876
-81.4841
-81.3135
-81.367
-81.367
-81.3669
-81.3665
-81.3661
-81.3656
-81.3648
-81.3638
-81.3624
-81.3603
-81.3576
-81.3539
-81.3486
-81.3414
-81.3317
-81.3186
-81.301
-81.277
-81.2441
-81.199
-81.1375
-81.0553
-80.9476
-80.7964
-80.8078
-80.8076
-80.8073
-80.8068
-80.8064
-80.8058
-80.8051
-80.8041
-80.8028
-80.801
-80.7985
-80.795
-80.79
-80.7833
-80.7742
-80.7619
-80.7452
-80.7224
-80.6909
-80.6474
-80.587
-80.5035
-80.3871
-80.2258
-80.2427
-80.2425
-80.2424
-80.2421
-80.2417
-80.2413
-80.2406
-80.2398
-80.2386
-80.2368
-80.2344
-80.2311
-80.2264
-80.2198
-80.2109
-80.1988
-80.1825
-80.1602
-80.1294
-80.0867
-80.0278
-79.9476
-79.842
-79.6915
-79.6743
-79.6743
-79.6741
-79.6739
-79.6735
-79.6731
-79.6725
-79.6718
-79.6706
-79.6689
-79.6665
-79.6631
-79.6584
-79.6518
-79.6428
-79.6306
-79.6139
-79.5912
-79.5596
-79.5153
-79.4524
-79.3636
-79.2418
-79.0436
-79.1027
-79.1027
-79.1026
-79.1024
-79.1021
-79.1018
-79.1013
-79.1006
-79.0995
-79.0979
-79.0956
-79.0922
-79.0875
-79.0809
-79.0719
-79.0598
-79.0433
-79.0208
-78.99
-78.9473
-78.8883
-78.8072
-78.6979
-78.5518
-78.5286
-78.5286
-78.5287
-78.5286
-78.5284
-78.5282
-78.5278
-78.5271
-78.5262
-78.5246
-78.5224
-78.5191
-78.5145
-78.5081
-78.4992
-78.4871
-78.4708
-78.4486
-78.4184
-78.3767
-78.3191
-78.2425
-78.1512
-78.0095
-77.9539
-77.9537
-77.9535
-77.9533
-77.9531
-77.9528
-77.9524
-77.9519
-77.9509
-77.9495
-77.9473
-77.9443
-77.9398
-77.9335
-77.9249
-77.9132
-77.8974
-77.8759
-77.8467
-77.8067
-77.752
-77.6796
-77.5906
-77.4597
-77.3756
-77.3755
-77.3755
-77.3753
-77.3752
-77.3751
-77.3748
-77.3744
-77.3737
-77.3725
-77.3706
-77.3678
-77.3637
-77.3578
-77.3496
-77.3382
-77.3229
-77.302
-77.2736
-77.2346
-77.181
-77.1093
-77.0193
-76.8919
-76.7952
-76.7951
-76.7952
-76.7952
-76.7952
-76.7952
-76.7952
-76.7951
-76.7947
-76.7938
-76.7923
-76.7899
-76.7863
-76.7809
-76.7732
-76.7626
-76.7479
-76.7278
-76.7
-76.6614
-76.6075
-76.5322
-76.4289
-76.2816
-76.2127
-76.2127
-76.2129
-76.2131
-76.2133
-76.2136
-76.2138
-76.214
-76.2139
-76.2134
-76.2125
-76.2107
-76.2077
-76.2031
-76.1964
-76.1868
-76.1735
-76.155
-76.1295
-76.0942
-76.0458
-75.9792
-75.888
-75.7866
-75.6293
-75.6291
-75.6291
-75.6292
-75.6295
-75.6298
-75.6302
-75.6307
-75.631
-75.631
-75.6306
-75.6295
-75.6274
-75.6238
-75.6183
-75.6101
-75.5984
-75.5818
-75.5586
-75.526
-75.4807
-75.4206
-75.3511
-75.2416
-75.041
-75.0409
-75.0411
-75.0414
-75.0419
-75.0426
-75.0433
-75.0442
-75.045
-75.0456
-75.046
-75.0457
-75.0446
-75.0422
-75.0381
-75.0315
-75.0217
-75.0074
-74.987
-74.9578
-74.9167
-74.8613
-74.795
-74.724
-74.4496
-74.4496
-74.4499
-74.4503
-74.451
-74.4519
-74.453
-74.4543
-74.4557
-74.4569
-74.458
-74.4587
-74.4587
-74.4576
-74.4549
-74.4501
-74.4423
-74.4303
-74.4123
-74.3858
-74.3473
-74.2929
-74.2184
-74.1033
-73.8535
-73.8535
-73.854
-73.8546
-73.8555
-73.8568
-73.8583
-73.8601
-73.862
-73.864
-73.8659
-73.8676
-73.8688
-73.8691
-73.8681
-73.8652
-73.8597
-73.8503
-73.8356
-73.8129
-73.7792
-73.7309
-73.6635
-73.5635
-73.2526
-73.2527
-73.2533
-73.2542
-73.2554
-73.257
-73.2589
-73.2612
-73.2637
-73.2664
-73.2692
-73.2719
-73.2742
-73.276
-73.2766
-73.2757
-73.2726
-73.2661
-73.2547
-73.236
-73.2071
-73.1647
-73.1075
-73.0311
-72.6478
-72.6477
-72.6482
-72.6491
-72.6504
-72.6522
-72.6544
-72.657
-72.6601
-72.6634
-72.667
-72.6706
-72.6741
-72.6772
-72.6795
-72.6806
-72.6798
-72.6761
-72.6681
-72.6535
-72.6296
-72.5938
-72.5478
-72.4974
-72.0355
-72.0355
-72.0362
-72.0372
-72.0388
-72.0408
-72.0434
-72.0465
-72.0501
-72.0541
-72.0584
-72.063
-72.0676
-72.072
-72.0759
-72.0787
-72.08
-72.0787
-72.0732
-72.0614
-72.04
-72.006
-71.9575
-71.8667
-71.4165
-71.4165
-71.4173
-71.4186
-71.4204
-71.4228
-71.4258
-71.4293
-71.4335
-71.4381
-71.4432
-71.4486
-71.4543
-71.46
-71.4653
-71.4699
-71.4731
-71.4741
-71.4712
-71.4623
-71.444
-71.4119
-71.3584
-71.2712
-70.7908
-70.791
-70.7919
-70.7934
-70.7955
-70.7982
-70.8015
-70.8055
-70.8101
-70.8153
-70.8211
-70.8274
-70.834
-70.8408
-70.8475
-70.8536
-70.8588
-70.8621
-70.8621
-70.8568
-70.8433
-70.8181
-70.779
-70.729
-70.1597
-70.1597
-70.1605
-70.162
-70.1641
-70.167
-70.1705
-70.1748
-70.1798
-70.1855
-70.1919
-70.1989
-70.2064
-70.2142
-70.222
-70.2296
-70.2365
-70.2416
-70.2438
-70.2408
-70.2297
-70.2082
-70.1806
-70.1236
-69.5196
-69.5198
-69.5208
-69.5225
-69.5249
-69.528
-69.5319
-69.5366
-69.542
-69.5483
-69.5553
-69.563
-69.5713
-69.58
-69.5889
-69.5977
-69.6059
-69.6128
-69.6168
-69.6159
-69.6067
-69.5857
-69.5521
-69.4937
-68.8731
-68.8733
-68.8744
-68.8762
-68.8788
-68.8822
-68.8863
-68.8913
-68.8972
-68.9039
-68.9115
-68.9198
-68.9289
-68.9384
-68.9483
-68.9582
-68.9678
-68.976
-68.9818
-68.9833
-68.9779
-68.962
-68.9305
-68.8978
-68.2192
-68.2194
-68.2206
-68.2225
-68.2253
-68.229
-68.2334
-68.2388
-68.2451
-68.2523
-68.2605
-68.2694
-68.2791
-68.2895
-68.3003
-68.3111
-68.3216
-68.3307
-68.3369
-68.3377
-68.3288
-68.3044
-68.252
-68.0653
-67.5583
-67.5586
-67.5599
-67.5621
-67.5651
-67.569
-67.5738
-67.5795
-67.5862
-67.5939
-67.6026
-67.6122
-67.6227
-67.634
-67.6459
-67.6581
-67.6702
-67.6815
-67.6907
-67.6962
-67.6947
-67.6809
-67.6564
-67.7282
-66.892
-66.892
-66.8933
-66.8954
-66.8984
-66.9024
-66.9074
-66.9133
-66.9204
-66.9285
-66.9376
-66.9479
-66.9591
-66.9713
-66.9842
-66.9977
-67.0113
-67.0243
-67.0359
-67.0442
-67.0469
-67.0454
-67.0472
-66.9848
-66.2169
-66.2171
-66.2185
-66.2208
-66.2241
-66.2284
-66.2336
-66.2399
-66.2473
-66.2559
-66.2656
-66.2764
-66.2884
-66.3014
-66.3152
-66.3296
-66.3445
-66.359
-66.3721
-66.3821
-66.3867
-66.385
-66.3722
-66.2644
-65.5357
-65.536
-65.5375
-65.5399
-65.5433
-65.5478
-65.5532
-65.5598
-65.5676
-65.5765
-65.5866
-65.598
-65.6106
-65.6243
-65.6389
-65.6543
-65.6702
-65.6858
-65.7002
-65.7116
-65.7166
-65.7089
-65.6858
-65.7036
-64.8478
-64.848
-64.8496
-64.8522
-64.8558
-64.8604
-64.8661
-64.873
-64.8811
-64.8904
-64.901
-64.9128
-64.926
-64.9403
-64.9557
-64.9719
-64.9888
-65.0055
-65.0212
-65.0342
-65.0416
-65.039
-65.0247
-65.0595
-64.1538
-64.1541
-64.1558
-64.1585
-64.1623
-64.1672
-64.1731
-64.1802
-64.1885
-64.1981
-64.209
-64.2213
-64.235
-64.2499
-64.266
-64.283
-64.3007
-64.3182
-64.3343
-64.3469
-64.3528
-64.3507
-64.3282
-64.0902
-63.4555
-63.4556
-63.4572
-63.4598
-63.4636
-63.4684
-63.4744
-63.4816
-63.4901
-63.4999
-63.5111
-63.5237
-63.5379
-63.5534
-63.5703
-63.5883
-63.6074
-63.6268
-63.6457
-63.6629
-63.6763
-63.6798
-63.6683
-63.8086
-62.7499
-62.7501
-62.7519
-62.7547
-62.7586
-62.7636
-62.7698
-62.7771
-62.7858
-62.7958
-62.8072
-62.8202
-62.8346
-62.8506
-62.8681
-62.8868
-62.9067
-62.9273
-62.9474
-62.9655
-62.9788
-62.9849
-62.9729
-62.8088
-62.0398
-62.0401
-62.0419
-62.0449
-62.0488
-62.0539
-62.0601
-62.0676
-62.0763
-62.0864
-62.098
-62.111
-62.1255
-62.1417
-62.1596
-62.179
-62.1999
-62.2221
-62.2452
-62.2685
-62.2909
-62.309
-62.3281
-62.5134
-61.3255
-61.3259
-61.3278
-61.3309
-61.3349
-61.34
-61.3463
-61.3538
-61.3624
-61.3725
-61.3839
-61.3967
-61.4111
-61.427
-61.4445
-61.4635
-61.4839
-61.5054
-61.5273
-61.548
-61.5644
-61.5718
-61.5684
-61.5345
-60.6093
-60.6094
-60.6111
-60.614
-60.618
-60.623
-60.6292
-60.6365
-60.645
-60.6548
-60.666
-60.6785
-60.6925
-60.7079
-60.7248
-60.7431
-60.7626
-60.7833
-60.8044
-60.8247
-60.8421
-60.8545
-60.8593
-60.8292
-59.8885
-59.8888
-59.8906
-59.8936
-59.8977
-59.9027
-59.9089
-59.9162
-59.9246
-59.9343
-59.9453
-59.9574
-59.9709
-59.9856
-60.0017
-60.0188
-60.0369
-60.0557
-60.0743
-60.0913
-60.1039
-60.1071
-60.0898
-60.0184
-59.1666
-59.1668
-59.1687
-59.1717
-59.1757
-59.1808
-59.187
-59.1943
-59.2026
-59.2122
-59.223
-59.2348
-59.2479
-59.2621
-59.2774
-59.2935
-59.3103
-59.3275
-59.3444
-59.3595
-59.3706
-59.3713
-59.3475
-59.3412
-58.4429
-58.4432
-58.4451
-58.4481
-58.4522
-58.4574
-58.4636
-58.471
-58.4794
-58.489
-58.4998
-58.5116
-58.5244
-58.5383
-58.553
-58.5684
-58.584
-58.5997
-58.6142
-58.6257
-58.6311
-58.6252
-58.6001
-58.509
-57.7183
-57.7186
-57.7207
-57.7238
-57.7281
-57.7333
-57.7397
-57.7472
-57.7558
-57.7655
-57.7764
-57.7884
-57.8014
-57.8153
-57.83
-57.8453
-57.8609
-57.8764
-57.8909
-57.903
-57.911
-57.9127
-57.9023
-57.8441
-56.9942
-56.9943
-56.9962
-56.9992
-57.0034
-57.0087
-57.0152
-57.0229
-57.0316
-57.0417
-57.0528
-57.0651
-57.0785
-57.0928
-57.108
-57.1237
-57.1397
-57.1556
-57.1705
-57.1829
-57.1908
-57.1897
-57.1741
-57.1535
-56.267
-56.2672
-56.2692
-56.2725
-56.2769
-56.2824
-56.2892
-56.2972
-56.3063
-56.3168
-56.3285
-56.3414
-56.3555
-56.3706
-56.3866
-56.4033
-56.4205
-56.4378
-56.4544
-56.4692
-56.481
-56.4867
-56.4811
-56.4633
-55.5384
-55.5387
-55.5408
-55.5442
-55.5488
-55.5546
-55.5617
-55.5701
-55.5797
-55.5907
-55.603
-55.6166
-55.6316
-55.6476
-55.6648
-55.6828
-55.7014
-55.7203
-55.7387
-55.7556
-55.7692
-55.7762
-55.7687
-55.739
-54.8076
-54.8079
-54.8102
-54.8138
-54.8186
-54.8247
-54.8321
-54.8409
-54.8511
-54.8627
-54.8757
-54.8901
-54.906
-54.9232
-54.9417
-54.9612
-54.9815
-55.0023
-55.0231
-55.0428
-55.06
-55.071
-55.0663
-55.0643
-54.0753
-54.0754
-54.0776
-54.0812
-54.0861
-54.0924
-54.1001
-54.1092
-54.1199
-54.1321
-54.1458
-54.1611
-54.178
-54.1964
-54.2162
-54.2373
-54.2594
-54.2822
-54.305
-54.3265
-54.3445
-54.3556
-54.3552
-54.3137
-53.3377
-53.338
-53.3404
-53.3442
-53.3494
-53.3561
-53.3642
-53.3738
-53.385
-53.3979
-53.4124
-53.4286
-53.4466
-53.4663
-53.4877
-53.5105
-53.5348
-53.5602
-53.5863
-53.6123
-53.6372
-53.659
-53.6732
-53.6928
-52.5967
-52.597
-52.5995
-52.6035
-52.6089
-52.6159
-52.6244
-52.6345
-52.6463
-52.6598
-52.6751
-52.6922
-52.7112
-52.7321
-52.7549
-52.7794
-52.8054
-52.8328
-52.8609
-52.8886
-52.9138
-52.9325
-52.9393
-52.9055
-51.8506
-51.8509
-51.8536
-51.8578
-51.8635
-51.8708
-51.8798
-51.8904
-51.9027
-51.917
-51.9331
-51.9511
-51.9712
-51.9934
-52.0176
-52.0437
-52.0716
-52.1014
-52.1325
-52.1645
-52.1962
-52.2224
-52.2324
-52.3128
-51.0996
-51.0999
-51.1028
-51.1072
-51.1132
-51.1209
-51.1303