/*--------------------------------*- C++ -*----------------------------------*\
| =========                 |                                                 |
| \\      /  F ield         | OpenFOAM: The Open Source CFD Toolbox           |
|  \\    /   O peration     | Version:  2.3.0                                 |
|   \\  /    A nd           | Web:      www.OpenFOAM.org                      |
|    \\/     M anipulation  |                                                 |
\*---------------------------------------------------------------------------*/
FoamFile
{
    version     2.0;
    format      ascii;
    class       volVectorField;
    location    "10000";
    object      U;
}
// * * * * * * * * * * * * * * * * * * * * * * * * * * * * * * * * * * * * * //

dimensions      [0 1 -1 0 0 0 0];

internalField   nonuniform List<vector> 
14757
(
(22.2179 9.23748 -7.03622e-21)
(22.0764 9.6192 4.39191e-21)
(21.9279 10.0092 1.1195e-20)
(21.7688 10.4114 4.92396e-21)
(21.5991 10.8288 -9.10961e-20)
(21.419 11.2625 5.04763e-20)
(21.2271 11.7123 0)
(21.0201 12.1756 3.31333e-20)
(20.7916 12.6476 0)
(20.5329 13.1209 7.8893e-20)
(20.2327 13.5873 -8.11079e-20)
(19.8784 14.0378 2.96443e-20)
(19.4562 14.4646 4.56564e-20)
(18.9517 14.8619 -4.99962e-20)
(18.3508 15.2257 3.41632e-20)
(17.6399 15.5536 -9.46231e-20)
(16.807 15.844 6.07013e-20)
(15.8411 16.0972 -1.4829e-20)
(14.7326 16.3129 3.13216e-19)
(13.4697 16.4789 -3.49457e-19)
(12.0427 16.5744 1.81218e-20)
(10.4712 16.6298 0)
(8.80572 16.7347 0)
(7.05456 16.7119 0)
(21.8589 9.11185 1.30706e-19)
(21.7008 9.43398 1.88546e-20)
(21.5327 9.75774 -1.44336e-19)
(21.35 10.083 1.31946e-19)
(21.1505 10.4111 -3.0948e-20)
(20.9325 10.743 0)
(20.6946 11.0793 3.64203e-20)
(20.435 11.4209 -2.62916e-19)
(20.152 11.7676 2.68562e-19)
(19.8435 12.1186 -6.59212e-21)
(19.5068 12.4717 3.52152e-20)
(19.1393 12.8234 0)
(18.7379 13.1685 0)
(18.2996 13.5002 3.96298e-20)
(17.8221 13.8098 -4.53297e-20)
(17.3039 14.0871 7.92382e-19)
(16.7448 14.3203 -7.754e-19)
(16.146 14.4963 1.05649e-18)
(15.5109 14.6013 -4.31528e-19)
(14.8449 14.62 -1.41171e-18)
(14.1581 14.5354 -1.23757e-19)
(13.4667 14.333 8.29881e-19)
(12.7836 14.0008 6.40104e-20)
(12.1077 13.5315 -3.55525e-20)
(21.5541 8.96757 1.34755e-19)
(21.3895 9.2402 -2.16083e-19)
(21.2143 9.51208 2.82664e-19)
(21.0264 9.78208 -2.04033e-19)
(20.8246 10.0504 -1.37299e-19)
(20.6072 10.3165 -1.95481e-19)
(20.3729 10.5794 -1.23259e-19)
(20.1199 10.8382 4.36496e-19)
(19.8462 11.0915 -4.34707e-20)
(19.5498 11.338 0)
(19.2287 11.5753 -2.68543e-20)
(18.881 11.8012 0)
(18.5051 12.0124 0)
(18.0996 12.2052 -3.87796e-20)
(17.6639 12.3751 -3.95092e-19)
(17.1985 12.5173 9.09724e-19)
(16.7049 12.6259 -5.68122e-19)
(16.1864 12.6949 -5.78154e-19)
(15.6479 12.7184 6.61017e-19)
(15.0967 12.6909 0)
(14.5426 12.607 -5.27584e-20)
(13.9984 12.4638 -1.1088e-21)
(13.4786 12.2597 9.22101e-19)
(13.0002 11.995 -9.48899e-19)
(21.3042 8.81923 -7.50833e-20)
(21.139 9.04662 1.85594e-19)
(20.9641 9.27209 0)
(20.7788 9.49559 -5.8951e-20)
(20.5814 9.71593 0)
(20.3711 9.93256 -3.15753e-19)
(20.147 10.1447 2.34398e-19)
(19.908 10.3514 7.61969e-20)
(19.6532 10.5513 0)
(19.3818 10.743 -4.41082e-20)
(19.0928 10.9246 0)
(18.7855 11.0938 -3.52568e-19)
(18.4592 11.2481 3.51656e-19)
(18.1138 11.3841 -4.87787e-19)
(17.7494 11.4985 4.93294e-19)
(17.367 11.5873 5.92025e-19)
(16.9683 11.6464 -5.27614e-19)
(16.5559 11.6714 0)
(16.1337 11.6583 -4.39442e-20)
(15.7071 11.6037 0)
(15.2823 11.505 -8.8097e-19)
(14.867 11.3611 9.97739e-19)
(14.4697 11.173 0)
(14.0991 10.9441 0)
(21.0951 8.65946 0)
(20.935 8.85633 1.37399e-20)
(20.7661 9.04527 -3.72683e-19)
(20.5885 9.23166 6.49568e-19)
(20.4009 9.41396 -3.4106e-19)
(20.2024 9.59178 6.68818e-20)
(19.9921 9.7644 7.13337e-20)
(19.7692 9.93089 -1.64097e-19)
(19.5329 10.0902 -3.65361e-19)
(19.2824 10.241 4.11299e-19)
(19.017 10.3818 0)
(18.7364 10.5109 -5.19461e-20)
(18.4402 10.626 1.1862e-19)
(18.1285 10.7249 0)
(17.802 10.8048 -5.82176e-19)
(17.4616 10.8629 6.68747e-19)
(17.1091 10.8961 0)
(16.7471 10.9014 0)
(16.3789 10.8759 0)
(16.009 10.8176 0)
(15.6424 10.7246 4.72509e-19)
(15.2851 10.5968 -6.00407e-19)
(14.9433 10.4352 0)
(14.623 10.2424 -6.40146e-19)
(20.9183 8.51099 -6.2788e-20)
(20.7681 8.67848 1.39614e-19)
(20.6084 8.83706 -1.39524e-19)
(20.4409 8.99363 -7.04062e-20)
(20.2647 9.14626 3.98179e-19)
(20.0792 9.2946 -6.65047e-19)
(19.8837 9.43801 -1.94707e-20)
(19.6776 9.57566 6.70384e-20)
(19.4603 9.70658 3.83858e-19)
(19.2311 9.82958 0)
(18.9895 9.94332 0)
(18.7352 10.0463 6.2092e-20)
(18.468 10.1366 -6.26152e-20)
(18.188 10.2123 5.78112e-19)
(17.896 10.2711 -5.86272e-19)
(17.5926 10.3108 -7.95812e-20)
(17.2795 10.3288 8.93551e-20)
(16.9587 10.3228 -4.89996e-19)
(16.6333 10.2906 8.24391e-19)
(16.3064 10.2306 -3.1957e-19)
(15.9822 10.1416 -4.89324e-19)
(15.6653 10.0235 6.21534e-19)
(15.3606 9.87716 0)
(15.0726 9.70469 7.15085e-20)
(20.772 8.3692 0)
(20.6315 8.51419 1.5667e-19)
(20.4823 8.6484 -1.5631e-19)
(20.3255 8.78107 -8.66631e-20)
(20.161 8.91033 0)
(19.988 9.03579 0)
(19.8061 9.15692 -1.96582e-19)
(19.6147 9.27287 1.96949e-19)
(19.4134 9.38287 0)
(19.2016 9.48577 0)
(18.9788 9.58027 0)
(18.7446 9.66514 -3.26947e-19)
(18.4989 9.73881 -1.53375e-20)
(18.2421 9.79947 5.82633e-20)
(17.9746 9.84508 7.14088e-19)
(17.6971 9.87351 -3.31142e-19)
(17.4111 9.88289 -9.05499e-20)
(17.1185 9.87126 9.76407e-20)
(16.8217 9.83653 0)
(16.5233 9.77747 -2.2668e-19)
(16.2273 9.6931 -1.21271e-19)
(15.9371 9.58325 0)
(15.6569 9.44859 1.36453e-19)
(15.3904 9.29072 -2.94865e-19)
(20.6503 8.23986 1.24161e-21)
(20.5199 8.36524 -2.33017e-21)
(20.3815 8.47944 8.05301e-20)
(20.2348 8.59259 8.71289e-20)
(20.0813 8.70332 -1.91857e-19)
(19.9199 8.81081 1.91517e-19)
(19.7502 8.91484 0)
(19.5718 9.01435 0)
(19.3839 9.10887 -5.77133e-20)
(19.1869 9.19714 0)
(18.9798 9.2776 -1.9558e-19)
(18.7625 9.34929 2.62796e-19)
(18.5351 9.41099 0)
(18.2973 9.46129 -1.52855e-19)
(18.0498 9.49802 1.7275e-19)
(17.7928 9.51902 -7.90128e-19)
(17.5277 9.52284 4.60566e-19)
(17.2566 9.50787 0)
(16.9823 9.47173 0)
(16.7053 9.41389 -3.56538e-19)
(16.43 9.33366 9.89478e-20)
(16.1595 9.23038 5.08191e-19)
(15.8974 9.10452 -2.74927e-19)
(15.6467 8.95718 2.95188e-19)
(20.5513 8.12785 4.57023e-21)
(20.4281 8.22957 -1.75495e-19)
(20.3002 8.32819 9.02964e-20)
(20.1627 8.42559 0)
(20.0191 8.52172 2.02942e-19)
(19.8682 8.61478 -2.02563e-19)
(19.709 8.70534 2.74624e-19)
(19.5425 8.79162 -2.20359e-19)
(19.3657 8.87401 5.7923e-20)
(19.1812 8.95166 2.54165e-19)
(18.9869 9.02242 -3.21044e-19)
(18.7827 9.08511 -2.14973e-19)
(18.57 9.138 5.90548e-19)
(18.3465 9.18083 -1.49829e-19)
(18.1151 9.2112 -1.19984e-21)
(17.8748 9.22683 8.85296e-20)
(17.6263 9.22705 2.95451e-19)
(17.37 9.21166 -8.12613e-19)
(17.1145 9.17435 4.22872e-19)
(16.8529 9.11686 2.35977e-19)
(16.5932 9.04003 -1.1153e-19)
(16.3374 8.94252 -2.53587e-19)
(16.0894 8.82413 1.36978e-19)
(15.8513 8.68497 -2.92665e-19)
(20.4519 8.02358 0)
(20.3426 8.10398 -1.52612e-19)
(20.2315 8.19359 9.98885e-20)
(20.1043 8.27768 0)
(19.9697 8.36254 0)
(19.8296 8.4436 2.23328e-19)
(19.6787 8.52431 -2.79807e-19)
(19.5273 8.59993 -2.44105e-19)
(19.3628 8.67063 2.48753e-19)
(19.1922 8.73856 -2.69934e-19)
(19.013 8.80101 3.37153e-19)
(18.818 8.85822 -1.40066e-19)
(18.6112 8.90578 0)
(18.3926 8.94433 1.69054e-19)
(18.1749 8.97121 -2.48227e-19)
(17.9486 8.98226 -9.01295e-20)
(17.7165 8.9764 0)
(17.468 8.96519 0)
(17.2233 8.93007 -1.05114e-19)
(16.9688 8.87166 -2.36202e-19)
(16.722 8.79699 2.43462e-19)
(16.4781 8.70435 0)
(16.2406 8.59314 1.37282e-19)
(16.0107 8.46243 1.46784e-19)
(5.29127 15.8077 -4.16027e-20)
(5.08975 14.3855 4.33211e-20)
(5.23828 13.1428 0)
(5.51445 12.0553 -2.67282e-20)
(5.85606 11.0882 6.61741e-20)
(6.24606 10.2218 0)
(6.66916 9.4402 2.27715e-19)
(7.1126 8.73352 1.40829e-19)
(7.56602 8.09438 0)
(8.02085 7.51572 -1.27274e-18)
(8.47012 6.99197 9.59851e-19)
(8.90832 6.51772 -3.12213e-19)
(9.33146 6.08817 -3.03915e-19)
(9.73722 5.69902 2.95901e-19)
(10.1244 5.34604 0)
(10.4932 5.02495 0)
(10.8445 4.73173 0)
(11.1801 4.46249 1.03168e-18)
(11.5018 4.21327 0)
(11.8116 3.98058 9.82134e-19)
(12.1111 3.76173 9.3827e-19)
(12.402 3.55567 0)
(12.6851 3.35776 1.65127e-18)
(12.9583 3.13771 7.56023e-19)
(11.451 12.9432 3.94365e-20)
(10.935 12.2692 0)
(10.5651 11.5766 4.2833e-19)
(10.3177 10.8954 -9.4517e-19)
(10.167 10.2391 2.86258e-19)
(10.0938 9.61487 2.42824e-19)
(10.0838 9.02711 -1.09632e-19)
(10.1254 8.47803 -2.59321e-19)
(10.2088 7.96819 1.18952e-19)
(10.3259 7.49672 -1.12343e-19)
(10.47 7.06178 -1.02014e-18)
(10.6352 6.66069 1.0176e-18)
(10.8168 6.29041 0)
(11.011 5.94757 2.39939e-19)
(11.2147 5.62881 0)
(11.4255 5.3309 0)
(11.6413 5.05101 -1.42669e-18)
(11.8605 4.78666 -9.34075e-19)
(12.0817 4.53586 9.32631e-19)
(12.3039 4.29717 0)
(12.5261 4.06966 1.72644e-18)
(12.7479 3.85358 -8.32e-19)
(12.9687 3.64641 -8.13659e-19)
(13.1866 3.42648 -1.54083e-20)
(12.5765 11.6706 -3.86069e-20)
(12.2154 11.2885 -7.67037e-20)
(11.918 10.8616 -2.52654e-19)
(11.6842 10.4075 3.3982e-19)
(11.5106 9.94031 -9.37843e-20)
(11.3923 9.47067 9.2392e-20)
(11.3241 9.00638 2.06871e-19)
(11.3 8.55321 3.03991e-19)
(11.3141 8.11528 -9.51253e-19)
(11.3608 7.69526 6.50632e-19)
(11.4348 7.29473 6.56104e-19)
(11.5314 6.91432 -1.08222e-18)
(11.6462 6.55415 2.15489e-19)
(11.7755 6.21373 -4.44852e-19)
(11.9163 5.8923 0)
(12.0657 5.58881 4.32446e-19)
(12.222 5.3022 4.49744e-19)
(12.3834 5.03118 4.45238e-19)
(12.5487 4.77462 8.53958e-19)
(12.7171 4.53129 -4.25488e-19)
(12.888 4.30015 -8.14853e-19)
(13.0609 4.08093 7.66629e-19)
(13.2353 3.87097 -1.53708e-18)
(13.4096 3.64972 -7.42726e-19)
(13.7596 10.6783 0)
(13.4523 10.377 -2.45888e-19)
(13.181 10.0454 1.62934e-19)
(12.9491 9.69207 0)
(12.7579 9.32484 0)
(12.6062 8.9509 -9.53702e-20)
(12.4924 8.57599 0)
(12.4134 8.20495 5.9399e-19)
(12.366 7.84151 2.02803e-19)
(12.3468 7.48834 -4.04919e-19)
(12.3525 7.1473 -2.03947e-19)
(12.3801 6.81952 -5.43213e-21)
(12.4265 6.50554 6.15646e-19)
(12.4892 6.20541 4.14472e-19)
(12.566 5.91882 0)
(12.6547 5.64526 -1.25058e-18)
(12.7536 5.38406 4.13909e-19)
(12.8612 5.13448 4.11755e-19)
(12.9761 4.89586 -4.14284e-19)
(13.0972 4.66748 3.98299e-19)
(13.2238 4.44874 -8.04547e-19)
(13.355 4.23959 7.67937e-19)
(13.49 4.03837 2.64663e-18)
(13.6276 3.82937 -3.60466e-19)
(14.3271 10.0212 5.75003e-19)
(14.0561 9.77208 4.72339e-19)
(13.8126 9.49813 -5.69636e-19)
(13.5996 9.20487 3.34724e-19)
(13.4184 8.89779 1.74712e-19)
(13.2692 8.58229 0)
(13.1507 8.26297 3.7165e-19)
(13.061 7.94387 -3.77159e-19)
(12.998 7.62827 -1.97603e-19)
(12.9592 7.31882 -5.81369e-19)
(12.9422 7.01738 1.87876e-19)
(12.9443 6.7253 -3.41481e-21)
(12.9636 6.44335 -1.93958e-19)
(12.9979 6.17186 -5.96112e-19)
(13.0452 5.91088 3.93606e-19)
(13.1038 5.66018 3.88972e-19)
(13.1719 5.41947 3.88514e-19)
(13.2483 5.18842 3.92435e-19)
(13.3318 4.96664 -3.90549e-19)
(13.4216 4.75371 -3.9211e-19)
(13.5171 4.54914 0)
(13.6175 4.35279 -3.87695e-19)
(13.7222 4.16369 -1.10794e-18)
(13.8299 3.97027 3.52603e-19)
(14.8038 9.50819 0)
(14.5553 9.28882 -1.58716e-19)
(14.3293 9.04897 1.63154e-19)
(14.1284 8.79277 8.66757e-20)
(13.9541 8.52438 -2.1972e-19)
(13.8066 8.24782 -2.67913e-19)
(13.685 7.96682 4.07952e-20)
(13.5878 7.6848 1.88446e-19)
(13.5134 7.40476 -1.9042e-19)
(13.4599 7.12909 1.91785e-19)
(13.4254 6.85964 -1.92649e-19)
(13.4083 6.59761 1.93114e-19)
(13.4069 6.34377 1.93279e-19)
(13.4195 6.09845 -3.82344e-19)
(13.4444 5.86172 5.68135e-19)
(13.4801 5.63342 -7.66261e-19)
(13.5248 5.41343 -5.18369e-21)
(13.5774 5.20164 0)
(13.6369 4.99789 3.72824e-19)
(13.7028 4.8018 9.35529e-20)
(13.7744 4.61291 -9.27521e-20)
(13.851 4.43098 -3.69099e-19)
(13.9318 4.25548 0)
(14.0155 4.07717 3.40012e-19)
(15.1401 9.11148 2.96954e-19)
(14.9075 8.91235 1.57294e-19)
(14.695 8.69563 -3.32936e-19)
(14.5047 8.46479 2.53095e-19)
(14.3382 8.22322 4.27273e-20)
(14.1958 7.97391 2.23694e-19)
(14.0763 7.7197 -1.82774e-19)
(13.9777 7.46392 -3.38791e-21)
(13.8989 7.20949 1.82649e-19)
(13.8382 6.95881 0)
(13.7947 6.71352 0)
(13.7671 6.47464 -1.83925e-19)
(13.7539 6.24293 3.7278e-19)
(13.7539 6.01861 -3.69559e-19)
(13.7654 5.80163 -1.87204e-19)
(13.7867 5.59186 1.87153e-19)
(13.8161 5.38945 -5.50189e-19)
(13.8525 5.19451 -5.47595e-19)
(13.8952 5.00696 -5.49118e-19)
(13.9439 4.82647 9.09645e-20)
(13.9983 4.65227 2.4516e-19)
(14.0573 4.48394 3.76479e-19)
(14.1203 4.3212 -3.51459e-19)
(14.1876 4.15522 -2.55978e-21)
(15.4099 8.79015 -2.97164e-19)
(15.1886 8.60535 -1.58616e-19)
(14.9855 8.40516 -1.65842e-19)
(14.8028 8.19293 2.50816e-19)
(14.643 7.97137 -1.09226e-19)
(14.506 7.74221 2.1646e-20)
(14.3898 7.50747 0)
(14.2905 7.27104 -9.07031e-20)
(14.2089 7.03587 -4.51287e-19)
(14.1429 6.80467 1.80239e-19)
(14.0933 6.57838 0)
(14.0585 6.35807 3.30775e-21)
(14.0374 6.14452 -1.84435e-19)
(14.0292 5.93745 3.60858e-19)
(14.0317 5.73674 3.62101e-19)
(14.0431 5.54248 -3.56124e-19)
(14.0613 5.35503 1.81151e-19)
(14.0856 5.17494 3.6101e-19)
(14.1158 5.00205 3.59612e-19)
(14.1519 4.83594 3.52214e-19)
(14.1937 4.67537 3.44791e-19)
(14.2393 4.51997 -3.52297e-19)
(14.288 4.37085 0)
(14.3409 4.22117 0)
(15.6249 8.52664 4.44259e-19)
(15.4121 8.35232 -1.5834e-19)
(15.2155 8.16395 7.67432e-20)
(15.0379 7.9665 8.14979e-20)
(14.8836 7.7613 -3.16953e-19)
(14.7527 7.54703 -2.12474e-20)
(14.6418 7.32657 1.73644e-19)
(14.5417 7.10387 -1.75007e-19)
(14.4582 6.88293 5.37721e-23)
(14.3878 6.66838 3.5272e-19)
(14.3356 6.45672 1.76486e-19)
(14.2963 6.25212 1.81247e-19)
(14.2705 6.0535 -5.31339e-19)
(14.2576 5.86022 0)
(14.2541 5.67237 0)
(14.2587 5.49096 5.28051e-19)
(14.2682 5.31597 -1.74959e-19)
(14.2833 5.14908 3.48667e-19)
(14.3043 4.98921 8.62588e-20)
(14.3314 4.83609 -4.36428e-19)
(14.3644 4.6872 -6.85142e-19)
(14.3996 4.54266 -1.07256e-20)
(14.436 4.40445 1.67487e-19)
(14.4801 4.26336 5.03667e-19)
(15.7923 8.31046 -3.00089e-19)
(15.5868 8.14516 -3.16478e-19)
(15.3971 7.96291 4.04542e-19)
(15.2223 7.77699 -1.23336e-19)
(15.0723 7.58754 4.31873e-20)
(14.9467 7.38605 0)
(14.8443 7.1789 -3.4424e-19)
(14.7441 6.96213 8.68955e-20)
(14.6626 6.74762 3.50797e-19)
(14.5901 6.55033 -2.58009e-19)
(14.5387 6.34761 -3.46875e-19)
(14.4941 6.15908 1.76846e-19)
(14.4655 5.97174 1.77161e-19)
(14.4495 5.78875 -1.74638e-19)
(14.441 5.61027 1.71914e-19)
(14.4409 5.44071 -3.49549e-19)
(14.4423 5.27503 -6.76546e-22)
(14.4506 5.12127 -8.91254e-20)
(14.4644 4.97251 -8.88013e-20)
(14.4848 4.83134 4.33137e-20)
(14.5122 4.69113 -4.24442e-20)
(14.5404 4.55641 0)
(14.5668 4.42791 -3.33626e-19)
(14.6084 4.29487 -3.62454e-21)
(-2.72282 -2.49164 -2.35288e-20)
(-2.8732 -2.48973 1.61974e-20)
(-2.95674 -2.49238 1.30629e-20)
(-2.97765 -2.49646 0)
(-2.94066 -2.50012 0)
(-2.85113 -2.50226 0)
(-2.71463 -2.50208 -5.43122e-20)
(-2.53673 -2.49892 5.66559e-20)
(-2.3227 -2.49222 6.54608e-20)
(-2.07733 -2.48145 -5.25504e-20)
(-1.80488 -2.46608 1.54173e-20)
(-1.50871 -2.44547 0)
(-1.19125 -2.41873 1.94244e-20)
(-0.853675 -2.38456 1.18552e-19)
(-0.495523 -2.341 -1.05793e-19)
(-0.11373 -2.28503 3.75385e-20)
(0.29865 -2.21292 -5.22577e-20)
(0.755367 -2.11983 0)
(1.28257 -1.9998 -1.2787e-20)
(1.92536 -1.84683 6.28473e-20)
(2.76499 -1.65662 -5.75204e-20)
(3.96315 -1.4253 0)
(5.85699 -1.16356 -3.89688e-20)
(9.21108 -1.07378 4.67361e-20)
(-2.75048 -2.49159 0)
(-2.88613 -2.49047 3.46471e-20)
(-2.96066 -2.48728 -3.9623e-20)
(-2.9801 -2.48163 0)
(-2.9485 -2.4734 -3.2271e-20)
(-2.86946 -2.46202 -2.09126e-20)
(-2.74633 -2.44691 1.63493e-20)
(-2.58225 -2.42745 4.34474e-20)
(-2.37991 -2.40296 7.15672e-20)
(-2.14138 -2.3725 -6.43017e-20)
(-1.86792 -2.33499 0)
(-1.55951 -2.28898 0)
(-1.21462 -2.23265 -1.69711e-20)
(-0.82948 -2.16376 4.72908e-20)
(-0.397608 -2.07952 -4.27413e-20)
(0.0907383 -1.97718 9.16107e-21)
(0.650409 -1.85346 -1.56314e-20)
(1.30548 -1.70526 1.62911e-20)
(2.09379 -1.531 5.3778e-21)
(3.07444 -1.3328 0)
(4.33899 -1.12216 3.66582e-22)
(6.02577 -0.931199 -3.37615e-20)
(8.33166 -0.830317 5.33637e-20)
(11.4698 -0.95441 0)
(-2.77488 -2.47774 0)
(-2.88475 -2.46646 -9.65561e-21)
(-2.94287 -2.45164 -1.33506e-20)
(-2.95136 -2.43363 8.58924e-21)
(-2.91243 -2.41184 1.42995e-20)
(-2.82816 -2.38538 0)
(-2.7004 -2.35333 -1.8117e-20)
(-2.53073 -2.31471 -1.99035e-20)
(-2.32016 -2.26853 2.41195e-20)
(-2.06898 -2.21375 -3.09692e-20)
(-1.77646 -2.14921 0)
(-1.44075 -2.07364 0)
(-1.05813 -1.98556 0)
(-0.62262 -1.88347 0)
(-0.125072 -1.76564 -3.80495e-20)
(0.447723 -1.63069 2.50633e-20)
(1.11533 -1.47759 -8.75072e-21)
(1.90531 -1.3067 0)
(2.85641 -1.12137 -4.79893e-21)
(4.02204 -0.931013 9.14087e-23)
(5.47409 -0.755958 -4.88633e-22)
(7.30217 -0.635041 -6.34825e-20)
(9.59856 -0.635087 1.81181e-19)
(12.4005 -0.850617 -1.41767e-19)
(-2.7702 -2.45113 -2.39933e-22)
(-2.85968 -2.42044 1.14854e-20)
(-2.90293 -2.39257 1.10488e-20)
(-2.90067 -2.36106 -8.36586e-21)
(-2.8542 -2.32472 2.8876e-21)
(-2.76433 -2.28271 -9.24282e-21)
(-2.63161 -2.2341 0)
(-2.45626 -2.17796 0)
(-2.23805 -2.11347 4.83532e-21)
(-1.97605 -2.03981 -3.16563e-20)
(-1.66829 -1.95617 3.21851e-20)
(-1.31132 -1.8616 0)
(-0.899794 -1.75508 -1.70416e-20)
(-0.425915 -1.6355 2.45585e-20)
(0.120926 -1.50208 0)
(0.755379 -1.35452 7.81715e-21)
(1.4976 -1.1937 -5.64085e-21)
(2.37446 -1.02257 0)
(3.42169 -0.847686 0)
(4.68523 -0.681891 2.66946e-21)
(6.22102 -0.547826 0)
(8.09094 -0.481965 -7.43616e-21)
(10.3475 -0.537978 -2.55376e-21)
(12.9984 -0.781111 -1.98783e-19)
(-2.75051 -2.39606 -4.01686e-21)
(-2.81821 -2.35779 -1.94905e-21)
(-2.84567 -2.3205 -5.56487e-22)
(-2.83179 -2.27825 -9.62481e-22)
(-2.77659 -2.23046 8.90621e-21)
(-2.67983 -2.17658 0)
(-2.54094 -2.11579 0)
(-2.35926 -2.04727 0)
(-2.13376 -1.97033 1.84085e-21)
(-1.8627 -1.88444 1.34421e-20)
(-1.54294 -1.78888 0)
(-1.16984 -1.68299 4.13012e-21)
(-0.736994 -1.56596 0)
(-0.235839 -1.43713 -1.05767e-20)
(0.344987 -1.29635 0)
(1.02054 -1.14436 2.49098e-21)
(1.81069 -0.983334 3.12893e-21)
(2.74115 -0.817848 3.63667e-22)
(3.84486 -0.656217 -1.68142e-21)
(5.16213 -0.51247 -1.89579e-21)
(6.73939 -0.408737 2.73175e-20)
(8.62501 -0.377899 -2.44143e-20)
(10.8561 -0.464684 1.53092e-20)
(13.4323 -0.719356 2.05736e-19)
(-2.71465 -2.33522 3.72343e-21)
(-2.76396 -2.28955 -2.05247e-21)
(-2.77702 -2.24384 5.615e-22)
(-2.75239 -2.19307 2.95182e-21)
(-2.68933 -2.13665 -2.01262e-21)
(-2.58671 -2.07416 0)
(-2.44303 -2.005 3.98745e-22)
(-2.25684 -1.92835 -3.91979e-21)
(-2.02637 -1.84352 -6.85196e-22)
(-1.74909 -1.74992 1.09565e-21)
(-1.42121 -1.64716 -3.94463e-21)
(-1.03711 -1.53482 -3.84256e-21)
(-0.589508 -1.41241 5.56367e-21)
(-0.0691219 -1.27944 3.72019e-21)
(0.535825 -1.13595 0)
(1.24002 -0.983195 -1.24823e-21)
(2.06282 -0.824222 2.98881e-21)
(3.0289 -0.664636 -1.26322e-21)
(4.16886 -0.513732 1.34019e-21)
(5.51951 -0.386066 -1.60793e-20)
(7.12249 -0.302909 -2.35742e-20)
(9.01855 -0.294186 8.36383e-20)
(11.2368 -0.399013 -2.62342e-20)
(13.7706 -0.660243 -5.06649e-20)
(-2.66743 -2.26662 8.27362e-21)
(-2.70104 -2.21757 7.87057e-21)
(-2.70148 -2.1668 7.01411e-21)
(-2.6674 -2.11022 -1.83201e-21)
(-2.59768 -2.04777 -9.76953e-22)
(-2.4907 -1.97943 0)
(-2.34379 -1.90491 -3.89089e-22)
(-2.15471 -1.82333 0)
(-1.92095 -1.73376 1.02617e-21)
(-1.63962 -1.63547 8.11711e-22)
(-1.3066 -1.52827 -1.47584e-21)
(-0.915708 -1.41233 4.65323e-22)
(-0.458378 -1.28748 -4.81557e-22)
(0.0755065 -1.15331 0)
(0.697932 -1.0097 1.68456e-21)
(1.42319 -0.857793 -7.93484e-22)
(2.26948 -0.701252 -2.67475e-21)
(3.26022 -0.546244 -2.03019e-21)
(4.42439 -0.402799 2.15342e-21)
(5.79638 -0.286501 4.61102e-21)
(7.41656 -0.217812 9.30545e-21)
(9.32055 -0.223723 0)
(11.5321 -0.339866 -7.79598e-20)
(14.0382 -0.604746 -1.14752e-19)
(-2.61522 -2.20204 -2.90951e-20)
(-2.63388 -2.14815 -1.60824e-20)
(-2.62309 -2.09344 -9.10191e-21)
(-2.58087 -2.0328 0)
(-2.50567 -1.96613 0)
(-2.39592 -1.89365 0)
(-2.24743 -1.81573 0)
(-2.05698 -1.73135 0)
(-1.82121 -1.6393 -4.65966e-21)
(-1.53708 -1.53831 2.93256e-21)
(-1.20103 -1.42813 -2.72085e-21)
(-0.806804 -1.30979 -1.98921e-21)
(-0.343937 -1.18406 4.49274e-21)
(0.198879 -1.05063 -2.51272e-21)
(0.834785 -0.908771 0)
(1.5766 -0.758687 6.01413e-21)
(2.44167 -0.604336 0)
(3.45186 -0.452533 1.04253e-20)
(4.63529 -0.313794 0)
(6.02224 -0.205604 8.95233e-21)
(7.6583 -0.148368 -1.62276e-20)
(9.57209 -0.16528 2.87881e-20)
(11.7847 -0.288304 1.72927e-19)
(14.2764 -0.554582 -4.66089e-20)
(-2.55808 -2.14044 2.32585e-20)
(-2.5641 -2.08272 2.30983e-20)
(-2.54404 -2.02526 -1.18741e-20)
(-2.49499 -1.96195 8.84492e-22)
(-2.41549 -1.89284 1.91296e-21)
(-2.30429 -1.81716 7.55332e-21)
(-2.15598 -1.73685 -4.00169e-21)
(-1.96567 -1.65075 4.06096e-21)
(-1.72857 -1.5578 0)
(-1.44135 -1.45583 3.50471e-21)
(-1.10188 -1.34385 -9.23029e-22)
(-0.706944 -1.22362 -4.01932e-21)
(-0.243463 -1.09731 4.1681e-21)
(0.303407 -0.965039 0)
(0.950166 -0.826239 6.22543e-21)
(1.70692 -0.678756 -8.55019e-21)
(2.58689 -0.527244 5.70302e-21)
(3.60874 -0.37968 -2.30072e-20)
(4.79656 -0.244171 -2.07869e-21)
(6.17778 -0.143239 -5.16463e-20)
(7.81956 -0.0926107 -2.47682e-21)
(9.74135 -0.118261 5.09171e-20)
(11.9549 -0.245685 -7.94663e-20)
(14.4193 -0.506887 0)
(-2.49959 -2.08259 0)
(-2.49417 -2.02146 -1.30272e-20)
(-2.46672 -1.96276 1.2217e-20)
(-2.41355 -1.89654 -1.54288e-21)
(-2.32945 -1.82828 -3.76105e-21)
(-2.21718 -1.74986 -4.9882e-21)
(-2.06746 -1.66786 0)
(-1.8814 -1.58027 0)
(-1.64927 -1.48656 0)
(-1.36405 -1.38439 0)
(-1.02288 -1.27047 0)
(-0.62036 -1.14817 5.72191e-21)
(-0.149716 -1.02352 -1.23426e-20)
(0.394733 -0.891993 1.48135e-20)
(1.04584 -0.75719 -7.4443e-21)
(1.81183 -0.60978 9.53259e-21)
(2.71216 -0.456192 -9.58577e-21)
(3.76926 -0.308118 1.24075e-20)
(5.0254 -0.186777 0)
(6.41691 -0.120596 2.34546e-20)
(8.11203 -0.07706 2.59685e-20)
(10.0162 -0.113391 -4.25894e-20)
(12.2551 -0.245906 -4.88262e-20)
(14.7478 -0.514397 5.6752e-20)
(15.3621 -1.99887 0)
(19.0246 -3.02984 9.5349e-19)
(20.4313 -3.42553 1.40022e-19)
(21.1186 -3.56378 -2.69729e-18)
(21.5904 -3.64008 1.63447e-18)
(21.9284 -3.68401 -3.01176e-20)
(22.1709 -3.70447 0)
(22.3397 -3.70704 0)
(22.4491 -3.69544 1.57612e-18)
(22.5096 -3.67249 8.3143e-20)
(22.5309 -3.64051 -1.51885e-18)
(22.5219 -3.60166 -9.25509e-20)
(22.4902 -3.55759 0)
(22.4413 -3.5097 1.38045e-18)
(22.3795 -3.45898 -1.48884e-18)
(22.3079 -3.40613 1.26451e-18)
(22.2289 -3.35166 -1.38645e-18)
(22.144 -3.29591 -1.4415e-18)
(22.0548 -3.23909 1.39454e-18)
(21.962 -3.18138 1.0861e-18)
(21.8664 -3.12304 -2.85675e-18)
(21.7689 -3.06352 2.51134e-18)
(21.67 -3.00196 -2.14586e-18)
(21.5669 -2.95318 6.95849e-19)
(15.2634 -1.56694 -6.2262e-19)
(18.9765 -2.55299 1.55542e-18)
(20.9135 -3.11141 -8.58057e-19)
(21.6256 -3.26932 -2.66163e-20)
(22.0334 -3.34331 0)
(22.3064 -3.3893 0)
(22.4851 -3.41544 5.15065e-20)
(22.5932 -3.4259 0)
(22.6472 -3.4237 -1.48111e-18)
(22.6603 -3.41138 1.46801e-18)
(22.6436 -3.39113 9.38043e-20)
(22.6055 -3.36472 9.26621e-20)
(22.5521 -3.33361 0)
(22.4877 -3.29886 9.11181e-20)
(22.4155 -3.26126 0)
(22.3375 -3.22142 0)
(22.2553 -3.17975 0)
(22.1699 -3.13655 -1.8201e-19)
(22.082 -3.09204 1.82626e-19)
(21.992 -3.0464 1.49021e-18)
(21.9005 -2.99986 -1.45012e-18)
(21.8078 -2.95202 3.72847e-19)
(21.7144 -2.90282 3.86197e-19)
(21.6205 -2.85963 -7.15646e-19)
(15.6096 -1.38154 5.84921e-19)
(18.9366 -2.21717 -6.82365e-19)
(21.1367 -2.86149 9.3652e-19)
(21.9262 -3.06566 -9.06901e-19)
(22.2788 -3.13269 5.75884e-20)
(22.4969 -3.17172 0)
(22.6278 -3.19406 8.65429e-19)
(22.6952 -3.20384 -6.92618e-19)
(22.7166 -3.20383 -1.5071e-19)
(22.7053 -3.19614 -1.61051e-18)
(22.6712 -3.18257 1.51169e-18)
(22.6213 -3.16432 -9.65179e-20)
(22.5603 -3.1424 0)
(22.4917 -3.11746 0)
(22.4176 -3.09003 9.38862e-20)
(22.3398 -3.06049 1.33131e-18)
(22.2591 -3.02914 -1.46504e-18)
(22.1765 -2.99618 1.86592e-19)
(22.0924 -2.9618 0)
(22.007 -2.92617 0)
(21.9207 -2.88943 -1.89498e-19)
(21.8337 -2.85143 0)
(21.7466 -2.81234 -3.93985e-19)
(21.66 -2.77451 3.75948e-19)
(15.9807 -1.26751 1.92449e-19)
(19.0348 -1.99637 -4.12294e-19)
(21.2857 -2.65276 1.30422e-18)
(22.1523 -2.90063 -8.39695e-19)
(22.4583 -2.96484 -5.59644e-20)
(22.6261 -2.99906 0)
(22.7153 -3.01872 -5.28898e-20)
(22.7499 -3.02796 8.6576e-19)
(22.747 -3.02929 -5.9943e-19)
(22.7189 -3.02458 -8.27054e-19)
(22.6738 -3.01526 7.79528e-19)
(22.6173 -3.00226 9.73571e-20)
(22.5529 -2.98627 -6.94194e-19)
(22.4832 -2.96775 8.53963e-19)
(22.4099 -2.94712 -9.55384e-20)
(22.3339 -2.92464 1.90823e-19)
(22.2562 -2.90053 5.85513e-19)
(22.1771 -2.87495 -7.54654e-19)
(22.0971 -2.84805 1.92814e-19)
(22.0164 -2.81994 0)
(21.9352 -2.7907 6.69238e-22)
(21.8537 -2.76013 0)
(21.7725 -2.72826 4.02724e-19)
(21.6912 -2.69689 7.31281e-21)
(16.2885 -1.18245 -1.98765e-19)
(19.1762 -1.84752 4.15171e-20)
(21.3928 -2.48475 4.34245e-19)
(22.3101 -2.76041 -2.88828e-20)
(22.5816 -2.82431 -4.4788e-19)
(22.7089 -2.8552 0)
(22.7657 -2.87324 0)
(22.776 -2.88246 2.861e-21)
(22.7559 -2.88509 7.58263e-19)
(22.7161 -2.88273 -1.65946e-18)
(22.6636 -2.87653 9.04526e-19)
(22.6028 -2.86725 -8.22618e-19)
(22.5365 -2.85543 6.85406e-19)
(22.4665 -2.84147 7.08134e-19)
(22.3943 -2.82569 -8.75007e-19)
(22.3205 -2.8083 -1.97791e-19)
(22.2458 -2.78949 -1.37246e-21)
(22.1704 -2.76941 0)
(22.0947 -2.74814 -1.00143e-18)
(22.0188 -2.72581 -2.19466e-20)
(21.9428 -2.70246 1.79955e-19)
(21.8671 -2.67794 5.9858e-19)
(21.7918 -2.6525 -2.04606e-19)
(21.7155 -2.62945 -4.09874e-19)
(16.5474 -1.11062 -3.45433e-19)
(19.323 -1.73668 7.54398e-19)
(21.4797 -2.34915 -8.27565e-19)
(22.4155 -2.63944 3.30693e-19)
(22.6589 -2.70462 -1.18922e-19)
(22.7539 -2.73324 0)
(22.7864 -2.75039 -1.13987e-19)
(22.7795 -2.75985 9.03982e-19)
(22.7477 -2.76362 -7.34036e-20)
(22.7004 -2.76313 -8.36084e-19)
(22.6434 -2.75935 -1.0417e-19)
(22.5802 -2.75288 9.51147e-19)
(22.5133 -2.7442 -8.09013e-19)
(22.444 -2.73367 0)
(22.3734 -2.72154 -7.24181e-19)
(22.302 -2.708 1.00005e-18)
(22.2303 -2.69325 2.01835e-19)
(22.1586 -2.67739 -8.23092e-19)
(22.0871 -2.6605 8.04953e-19)
(22.0158 -2.64269 0)
(21.9449 -2.62407 2.07425e-19)
(21.8745 -2.60452 6.33124e-19)
(21.8045 -2.58429 -6.34507e-19)
(21.7332 -2.56689 6.37122e-19)
(16.7599 -1.04588 2.54827e-19)
(19.4523 -1.64456 -8.29097e-20)
(21.5476 -2.23368 0)
(22.4831 -2.53131 -2.45593e-19)
(22.7053 -2.60039 6.9987e-19)
(22.7755 -2.62865 4.78324e-19)
(22.79 -2.64583 -8.0472e-19)
(22.7707 -2.65586 3.30439e-19)
(22.7309 -2.66074 1.09876e-19)
(22.6787 -2.66182 0)
(22.619 -2.65993 4.39928e-19)
(22.5547 -2.65562 -5.26128e-19)
(22.4878 -2.64935 0)
(22.4195 -2.64141 0)
(22.3506 -2.63204 0)
(22.2816 -2.62144 1.04792e-19)
(22.2129 -2.6098 -1.04684e-19)
(22.1446 -2.5972 0)
(22.0769 -2.58371 0)
(22.0098 -2.56939 6.39592e-19)
(21.9434 -2.55446 -6.35147e-19)
(21.8777 -2.53881 2.15826e-19)
(21.8125 -2.52265 0)
(21.7457 -2.51018 4.46276e-19)
(16.9627 -0.990158 2.29172e-21)
(19.5891 -1.57268 8.66679e-20)
(21.6207 -2.14699 -4.34233e-19)
(22.5347 -2.4466 3.42707e-19)
(22.734 -2.51548 3.19879e-21)
(22.784 -2.54125 0)
(22.7845 -2.55749 1.18173e-19)
(22.7559 -2.56751 0)
(22.7101 -2.57304 -4.62539e-19)
(22.6543 -2.57525 4.39867e-19)
(22.5928 -2.57476 1.11633e-19)
(22.5281 -2.57203 0)
(22.4616 -2.5676 4.40801e-19)
(22.3945 -2.56175 -4.24892e-19)
(22.3276 -2.55458 0)
(22.2608 -2.54628 -1.06538e-19)
(22.1948 -2.53712 -3.26774e-19)
(22.1296 -2.52706 9.73152e-20)
(22.0656 -2.51621 2.09982e-19)
(22.0024 -2.50452 -2.16912e-19)
(21.9399 -2.4925 0)
(21.8784 -2.48002 -4.4439e-19)
(21.8175 -2.46695 2.25085e-19)
(21.7555 -2.45814 -2.29701e-19)
(17.066 -0.926303 -6.64238e-20)
(19.6272 -1.4807 -8.41081e-20)
(21.619 -2.04175 -1.10444e-19)
(22.5418 -2.35388 1.21761e-19)
(22.7443 -2.43481 3.76106e-19)
(22.7835 -2.46327 -8.38677e-19)
(22.7746 -2.48001 -1.36741e-19)
(22.7397 -2.49058 -1.82358e-20)
(22.6898 -2.49705 5.69707e-19)
(22.6318 -2.50058 0)
(22.5695 -2.50152 -1.1201e-19)
(22.5044 -2.50013 -1.12476e-19)
(22.4379 -2.49728 -4.50172e-19)
(22.3715 -2.49324 4.34808e-19)
(22.306 -2.48755 -5.55063e-19)
(22.2404 -2.48085 7.6622e-19)
(22.1771 -2.47372 1.04426e-20)
(22.1145 -2.46572 -5.44059e-19)
(22.0539 -2.45693 2.20432e-19)
(21.9936 -2.44705 3.38556e-19)
(21.9339 -2.43729 -5.58884e-19)
(21.8757 -2.42721 -4.1106e-22)
(21.8185 -2.4166 2.25341e-21)
(21.7624 -2.41005 -4.5811e-19)
(17.4289 -0.948581 0)
(19.9308 -1.5108 -1.12709e-19)
(21.7936 -2.07183 9.99273e-20)
(22.6235 -2.3563 2.42827e-19)
(22.7679 -2.39793 2.51229e-19)
(22.7841 -2.40666 -3.58968e-19)
(22.7635 -2.41774 3.65737e-19)
(22.7205 -2.42662 -2.33111e-19)
(22.6653 -2.43292 -1.16426e-19)
(22.6041 -2.43723 0)
(22.541 -2.43862 0)
(22.4755 -2.43731 -2.34487e-19)
(22.409 -2.43542 5.5993e-19)
(22.3447 -2.43288 0)
(22.2837 -2.4281 1.12482e-19)
(22.2186 -2.42245 5.66854e-19)
(22.1602 -2.41776 -7.86243e-19)
(22.0976 -2.41071 4.47732e-19)
(22.0432 -2.40402 1.146e-19)
(21.9843 -2.39498 3.52441e-19)
(21.9289 -2.38768 -3.50901e-19)
(21.8762 -2.38035 3.53777e-19)
(21.8234 -2.37263 -2.40371e-19)
(21.7754 -2.37481 4.62634e-19)
(0.392673 2.06455 0)
(2.04901 2.38221 0)
(4.17541 3.25602 0)
(6.3315 4.39765 5.74374e-20)
(8.36699 5.54832 -3.00182e-18)
(10.2557 6.69538 2.56958e-18)
(12.0324 7.82038 -2.67258e-20)
(13.6991 8.88638 0)
(15.2384 9.85187 3.95274e-20)
(16.6305 10.6866 0)
(17.8583 11.3699 -2.84896e-20)
(18.9094 11.8867 0)
(19.78 12.2306 4.86475e-20)
(20.4753 12.4041 3.92969e-19)
(21.0101 12.4182 -3.88492e-19)
(21.4075 12.2934 -1.16323e-19)
(21.6958 12.0555 5.7079e-20)
(21.9049 11.7337 0)
(22.0622 11.3569 0)
(22.1896 10.9504 -7.02279e-20)
(22.3017 10.5329 5.91956e-20)
(22.4063 10.1165 -8.14247e-20)
(22.5064 9.70732 0)
(22.6053 9.30258 0)
(-11.1339 1.97442 3.78168e-19)
(-9.88544 1.93112 0)
(-8.12417 1.96818 0)
(-6.16667 2.21464 -2.83536e-20)
(-3.89626 2.61429 0)
(-1.30177 3.15053 -1.11241e-19)
(1.48218 3.8249 1.93395e-21)
(4.36743 4.62597 0)
(7.23635 5.53448 0)
(9.98891 6.51539 0)
(12.548 7.51911 0)
(14.8529 8.48742 0)
(16.8595 9.36352 -1.07125e-19)
(18.5413 10.0992 2.07962e-19)
(19.8902 10.6586 2.7498e-20)
(20.9192 11.0239 1.26622e-19)
(21.661 11.195 4.80542e-20)
(22.1637 11.1898 0)
(22.4842 11.039 0)
(22.6792 10.7804 -6.75422e-20)
(22.7977 10.451 -3.52761e-19)
(22.8755 10.0821 3.21895e-19)
(22.9351 9.69677 0)
(22.9888 9.30042 0)
(-5.7333 1.2778 -5.16138e-19)
(-6.19171 1.222 0)
(-5.89248 1.1703 0)
(-5.23576 1.10447 -2.52487e-19)
(-4.32546 1.09913 0)
(-3.18709 1.19851 0)