/*--------------------------------*- C++ -*----------------------------------*\
| =========                 |                                                 |
| \\      /  F ield         | OpenFOAM: The Open Source CFD Toolbox           |
|  \\    /   O peration     | Version:  2.3.0                                 |
|   \\  /    A nd           | Web:      www.OpenFOAM.org                      |
|    \\/     M anipulation  |                                                 |
\*---------------------------------------------------------------------------*/
FoamFile
{
    version     2.0;
    format      ascii;
    class       surfaceScalarField;
    location    "2000";
    object      phi;
}
// * * * * * * * * * * * * * * * * * * * * * * * * * * * * * * * * * * * * * //

dimensions      [0 3 -1 0 0 0 0];

internalField   nonuniform List<scalar> 
79042
(
-0.00681644
-0.00498211
0.0054663
0.00633276
-0.00725948
-0.00475746
0.0052005
-0.00765991
-0.00454141
0.00494185
-0.00802479
-0.00433522
0.0047001
-0.00835368
-0.00413526
0.00446417
-0.00864471
-0.00394802
0.00423905
-0.0089017
-0.00376456
0.00402156
-0.00913013
-0.00358809
0.00381652
-0.00932756
-0.00342054
0.00361797
-0.00949317
-0.00325836
0.00342396
-0.00963083
-0.00310333
0.00324099
-0.00974086
-0.00295209
0.00306213
-0.00983033
-0.00280512
0.00289459
-0.00989022
-0.00266908
0.00272896
-0.00992674
-0.00253427
0.00257079
-0.00994207
-0.00240426
0.00241959
-0.00993305
-0.00228052
0.0022715
-0.00990657
-0.0021566
0.00213011
-0.00985456
-0.00204487
0.00199286
-0.00978542
-0.00192794
0.00185879
-0.00969468
-0.001821
0.00173026
-0.00958723
-0.00171381
0.00160636
-0.00945845
-0.00161268
0.00148389
-0.00931493
-0.00151106
0.00136754
-0.00915069
-0.00141537
0.00125113
-0.00897233
-0.00131871
0.00114035
-0.00877791
-0.00122591
0.00103149
-0.00856802
-0.00113664
0.00092675
-0.00834785
-0.00104621
0.000826034
-0.00811542
-0.000957927
0.000725493
-0.00787802
-0.000869083
0.000631689
-0.00763436
-0.000783236
0.000539573
-0.00739034
-0.000696051
0.000452025
-0.00715035
-0.000607461
0.000367473
-0.00691761
-0.000519987
0.000287244
-0.00670326
-0.000426576
0.000212227
-0.00650688
-0.000337433
0.000141046
-0.00634281
-0.000242081
7.80098e-05
-0.00621421
-0.000147455
1.88539e-05
-0.00613285
-4.85871e-05
-3.27792e-05
-0.00609946
4.48223e-05
-7.82105e-05
-0.00611983
0.000134723
-0.000114369
0.000224753
-0.0062677
-7.68773e-05
-0.00615772
-0.00455015
0.00572575
-0.00655217
-0.00436301
-0.0069123
-0.00418128
-0.00723664
-0.00401088
-0.00752755
-0.00384434
-0.00779134
-0.00368424
-0.00802604
-0.00352985
-0.00822887
-0.00338527
-0.00840906
-0.00324035
-0.00856453
-0.00310288
-0.00869712
-0.00297074
-0.00880466
-0.00284456
-0.00888897
-0.00272082
-0.00895594
-0.0026021
-0.00900326
-0.00248695
-0.00903282
-0.0023747
-0.00904705
-0.00226629
-0.00903978
-0.00216387
-0.00902394
-0.00206072
-0.0089892
-0.00196268
-0.00894366
-0.00186654
-0.00888453
-0.00177294
-0.00881735
-0.00167986
-0.00873794
-0.00159048
-0.00865029
-0.00150302
-0.00855523
-0.00141377
-0.00845001
-0.00133113
-0.00834339
-0.00124326
-0.00822964
-0.00115995
-0.0081099
-0.00107767
-0.0079846
-0.00099439
-0.00785642
-0.000911411
-0.00772329
-0.000829179
-0.0075832
-0.000747558
-0.00743791
-0.00066528
-0.00728059
-0.00058389
-0.00711415
-0.000503876
-0.00693254
-0.000423696
-0.00673212
-0.00034788
-0.00650866
-0.000272043
-0.00626225
-0.000201595
-0.00598573
-0.0001418
-8.70228e-05
-0.00567395
-0.00556011
-0.00416466
0.00517462
-0.00591202
-0.0040111
-0.00622972
-0.00386358
-0.00652123
-0.00371937
-0.00678373
-0.00358184
-0.00701649
-0.00345148
-0.00722532
-0.00332103
-0.00740864
-0.00320194
-0.00756972
-0.00307928
-0.00770567
-0.00296693
-0.00782085
-0.00285556
-0.0079179
-0.00274751
-0.00799454
-0.00264417
-0.0080539
-0.00254275
-0.00809635
-0.0024445
-0.00812178
-0.00234927
-0.00813165
-0.00225642
-0.00812727
-0.00216825
-0.00810952
-0.00207847
-0.00808056
-0.00199163
-0.00803748
-0.00190962
-0.00798569
-0.00182473
-0.00792189
-0.00174367
-0.00784673
-0.00166564
-0.00776569
-0.00158406
-0.00767045
-0.00150901
-0.00757142
-0.00143016
-0.00746227
-0.00135241
-0.00734658
-0.00127565
-0.00722452
-0.00119973
-0.0070944
-0.00112451
-0.00696048
-0.00104533
-0.00681871
-0.000970949
-0.00667383
-0.000892438
-0.00652261
-0.000816495
-0.00636487
-0.000741635
-0.00620243
-0.000666313
-0.00603112
-0.000595002
-0.0058573
-0.000521707
-0.00567148
-0.000457863
-0.0054764
-0.000396674
-0.00527495
-0.000343253
-0.000299357
-0.00506261
-0.00501997
-0.00382141
0.00467672
-0.00533546
-0.00369562
-0.00562178
-0.00357726
-0.00588042
-0.00346073
-0.0061142
-0.00334805
-0.00632538
-0.0032403
-0.00651021
-0.0031362
-0.00667652
-0.00303563
-0.00681685
-0.00293895
-0.00694063
-0.00284316
-0.00704514
-0.00275106
-0.00713129
-0.00266135
-0.00720016
-0.00257531
-0.00725018
-0.00249273
-0.00728699
-0.00240769
-0.00730963
-0.00232663
-0.0073185
-0.00224755
-0.00731446
-0.0021723
-0.00729732
-0.0020956
-0.00726971
-0.00201925
-0.00723156
-0.00194777
-0.00717993
-0.00187636
-0.00712051
-0.00180309
-0.00705503
-0.00173111
-0.00697701
-0.00166208
-0.00689537
-0.00159065
-0.00680189
-0.00152364
-0.00670322
-0.00145108
-0.00659799
-0.00138087
-0.00648472
-0.001313
-0.00636814
-0.00124109
-0.00624202
-0.00117145
-0.00611351
-0.00109946
-0.0059744
-0.00103155
-0.00583284
-0.00095805
-0.0056845
-0.000889984
-0.0055294
-0.000821405
-0.00537097
-0.000753437
-0.00520289
-0.000689785
-0.00503033
-0.000630426
-0.00485245
-0.000574555
-0.00467183
-0.000523872
-0.000483764
-0.00448742
-0.00453534
-0.00351085
0.00422477
-0.00481794
-0.00341302
-0.00507533
-0.00331988
-0.00530907
-0.00322699
-0.00551842
-0.0031387
-0.00570583
-0.00305289
-0.00587051
-0.00297153
-0.00601808
-0.00288806
-0.00614609
-0.00281094
-0.00625716
-0.00273209
-0.00634875
-0.00265947
-0.00642568
-0.00258442
-0.00648645
-0.00251454
-0.00653459
-0.00244458
-0.00656519
-0.00237709
-0.00658373
-0.00230808
-0.00659057
-0.00224071
-0.00658604
-0.00217683
-0.00656906
-0.00211258
-0.00654172
-0.00204659
-0.00650568
-0.00198381
-0.0064598
-0.00192224
-0.00640291
-0.00185997
-0.00633845
-0.00179558
-0.00626662
-0.00173391
-0.0061874
-0.00166987
-0.00610301
-0.00160803
-0.00600889
-0.00154521
-0.00590984
-0.00147992
-0.00580591
-0.00141693
-0.00569432
-0.00135269
-0.00557968
-0.00128609
-0.00545747
-0.00122167
-0.00533382
-0.0011552
-0.00520062
-0.00109125
-0.00506645
-0.00102415
-0.00492583
-0.000962032
-0.00478067
-0.000898593
-0.00463246
-0.000837996
-0.00448046
-0.000782424
-0.00432512
-0.000729893
-0.00416584
-0.000683155
-0.000642663
-0.00400694
-0.00409942
-0.00323181
0.00382039
-0.0043516
-0.00316084
-0.00458351
-0.00308797
-0.00479131
-0.00301919
-0.0049795
-0.00295051
-0.00514721
-0.00288518
-0.00529916
-0.00281958
-0.00543131
-0.00275591
-0.00554686
-0.00269539
-0.00564524
-0.00263371
-0.00573112
-0.00257359
-0.00579774
-0.0025178
-0.00585373
-0.00245855
-0.00589348
-0.00240483
-0.00592313
-0.00234744
-0.00593962
-0.00229159
-0.00594457
-0.00223577
-0.00593947
-0.00218193
-0.00592344
-0.00212861
-0.00589726
-0.00207277
-0.00586295
-0.00201812
-0.00582068
-0.00196451
-0.00577073
-0.00190992
-0.00571152
-0.00185479
-0.00564539
-0.00180004
-0.00557212
-0.00174314
-0.0054923
-0.00168785
-0.00540891
-0.0016286
-0.00531757
-0.00157126
-0.00522016
-0.00151434
-0.00511966
-0.00145319
-0.00501319
-0.00139257
-0.00490087
-0.00133399
-0.00478588
-0.00127018
-0.00466667
-0.00121047
-0.0045416
-0.00114922
-0.00441463
-0.00108901
-0.00428382
-0.0010294
-0.00414831
-0.000973508
-0.00401122
-0.000919511
-0.00387021
-0.000870907
-0.00372895
-0.000824413
-0.000786129
-0.00358549
-0.00370469
-0.0029822
0.00345508
-0.00393275
-0.00293278
-0.00414133
-0.00287939
-0.00433036
-0.00283016
-0.00449916
-0.00278171
-0.00465119
-0.00273314
-0.00478753
-0.00268324
-0.00490524
-0.0026382
-0.00501034
-0.00259029
-0.00509757
-0.00254648
-0.0051731
-0.00249806
-0.00523621
-0.00245469
-0.0052831
-0.00241166
-0.00532376
-0.00236417
-0.00534823
-0.00232297
-0.00536488
-0.00227495
-0.00536744
-0.00223321
-0.00536263
-0.00218673
-0.00534763
-0.00214361
-0.00532457
-0.00209583
-0.00529218
-0.00205052
-0.0052531
-0.00200358
-0.00520511
-0.00195791
-0.00515153
-0.00190836
-0.00509115
-0.00186043
-0.00502528
-0.001809
-0.00495128
-0.00176185
-0.00487398
-0.0017059
-0.00478884
-0.0016564
-0.00470094
-0.00160223
-0.00460855
-0.00154558
-0.00450892
-0.0014922
-0.00440951
-0.00143339
-0.00430319
-0.00137651
-0.00419449
-0.00131917
-0.00408195
-0.00126176
-0.00396625
-0.0012047
-0.00384714
-0.00114851
-0.00372547
-0.00109518
-0.00360134
-0.00104364
-0.00347524
-0.000997005
-0.00334503
-0.000954619
-0.000914374
-0.00321679
-0.0033503
-0.00275675
0.00312485
-0.00355708
-0.002726
-0.00374154
-0.00269492
-0.00391244
-0.00265927
-0.00406568
-0.00262846
-0.00420353
-0.0025953
-0.00432604
-0.00256074
-0.00443337
-0.00253087
-0.00452562
-0.00249804
-0.00460785
-0.00246424
-0.00467367
-0.00243224
-0.00473142
-0.00239694
-0.00477674
-0.00236635
-0.00481
-0.00233091
-0.00483386
-0.00229911
-0.0048458
-0.00226301
-0.00485085
-0.00222816
-0.00484649
-0.00219109
-0.00483304
-0.00215706
-0.00481121
-0.00211766
-0.00478236
-0.00207937
-0.00474544
-0.0020405
-0.0047044
-0.00199895
-0.00465348
-0.00195929
-0.00459858
-0.00191532
-0.00453547
-0.00187212
-0.00447052
-0.0018268
-0.00439784
-0.00177859
-0.00432232
-0.00173191
-0.00424197
-0.00168258
-0.00415635
-0.00163119
-0.00406949
-0.00157906
-0.00397391
-0.00152897
-0.00387889
-0.00147153
-0.00377875
-0.00141931
-0.00367497
-0.00136554
-0.00357081
-0.00130887
-0.00346298
-0.00125634
-0.00335195
-0.00120621
-0.00323913
-0.00115646
-0.0031246
-0.00111153
-0.00300961
-0.00106961
-0.00103393
-0.00289005
-0.00303149
0.00282908
-0.00255434
-0.00321649
-0.00254101
-0.00338718
-0.00252423
-0.00353943
-0.00250701
-0.00368063
-0.00248727
-0.00380367
-0.00247226
-0.00391174
-0.00245267
-0.00400889
-0.00243373
-0.00409542
-0.00241151
-0.00416615
-0.00239352
-0.0042283
-0.00237009
-0.00427747
-0.00234777
-0.00432127
-0.00232255
-0.00435055
-0.00230163
-0.00437203
-0.00227763
-0.00438643
-0.0022486
-0.00439057
-0.00222402
-0.00438468
-0.00219699
-0.00437192
-0.00216982
-0.00435245
-0.00213712
-0.00432686
-0.00210496
-0.0042945
-0.00207286
-0.00425403
-0.00203942
-0.0042092
-0.00200412
-0.00415872
-0.00196581
-0.00410255
-0.00192829
-0.00404205
-0.0018873
-0.00397576
-0.00184488
-0.00390601
-0.00180166
-0.00383184
-0.00175676
-0.00375514
-0.00170789
-0.00367349
-0.00166071
-0.00358871
-0.00161375
-0.00349867
-0.00156157
-0.00340965
-0.00150833
-0.0033166
-0.0014586
-0.00321793
-0.00140753
-0.00311959
-0.00135469
-0.0030211
-0.0013047
-0.00291952
-0.00125804
-0.00281661
-0.00121444
-0.00270927
-0.00117696
-0.00260261
-0.00114058
-0.00571366
0.000280756
-0.000834788
-0.00533957
0.000266687
-0.000640778
-0.00504036
0.000237653
-0.000536862
-0.00478308
0.000203546
-0.000460818
-0.00455313
0.000165334
-0.000395287
-0.00434339
0.000125393
-0.000335129
-0.00414856
8.32387e-05
-0.000278072
-0.00396415
3.93434e-05
-0.000223751
-0.00378812
-4.78996e-06
-0.000171236
-0.00361894
-5.01616e-05
-0.00011902
-0.00345574
-9.64647e-05
-6.67331e-05
-0.003298
-0.000142909
-1.48323e-05
-0.00314467
-0.000190342
3.70112e-05
-0.00299702
-0.000238203
9.05605e-05
-0.00285343
-0.000287456
0.000143868
-0.00271479
-0.000337328
0.000198687
-0.00258102
-0.000388927
0.000255156
-0.0024517
-0.000441521
0.000312195
-0.00232792
-0.000495346
0.000371575
-0.00220851
-0.000552071
0.000432661
-0.00209543
-0.000610221
0.000497139
-0.00198848
-0.000669435
0.000562483
-0.00188759
-0.000731923
0.000631029
-0.00179405
-0.000796455
0.000702923
-0.00170849
-0.000862731
0.00077717
-0.00163116
-0.00093265
0.000855321
-0.00156279
-0.00100467
0.00093629
-0.00150526
-0.00107963
0.0010221
-0.00145744
-0.00115868
0.00111087
-0.00142181
-0.00124
0.00120436
-0.0013987
-0.00132599
0.00130288
-0.00138842
-0.00141501
0.00140474
-0.00139325
-0.0015082
0.00151303
-0.00141295
-0.0016061
0.0016258
-0.00144984
-0.00170739
0.00174428
-0.00150452
-0.0018145
0.00186918
-0.00157738
-0.00192607
0.00199893
-0.00167127
-0.00204279
0.00213668
-0.00178625
-0.00216503
0.00228001
-0.00192418
-0.00229285
0.00243077
-0.00208663
-0.00242673
0.00258918
-0.00227544
-0.00256691
0.00275571
-0.00271387
0.00292952
-0.00249109
-0.00534088
-5.23171e-05
-0.00503723
-3.69529e-05
-0.00476354
-3.60463e-05
-0.00451537
-4.46142e-05
-0.0042885
-6.15394e-05
-0.00407821
-8.48942e-05
-0.00388186
-0.000113117
-0.00369832
-0.000144197
-0.00352359
-0.000179519
-0.0033595
-0.000214251
-0.00320163
-0.000254336
-0.00305108
-0.000293451
-0.00290704
-0.000334389
-0.00276648
-0.000378764
-0.00263267
-0.000421262
-0.00250213
-0.000467867
-0.00237748
-0.000513582
-0.00225723
-0.000561766
-0.00214093
-0.000611646
-0.002032
-0.000660997
-0.00192847
-0.000713753
-0.00183018
-0.00076773
-0.00173898
-0.000823125
-0.00165481
-0.000880617
-0.00157822
-0.000939323
-0.00150986
-0.00100101
-0.0014498
-0.00106473
-0.00139958
-0.00112985
-0.00135901
-0.00119925
-0.00132922
-0.00126979
-0.00131145
-0.00134377
-0.001306
-0.00142046
-0.00131324
-0.00150096
-0.00133487
-0.00158447
-0.00137116
-0.0016711
-0.00142382
-0.00176184
-0.00149349
-0.0018564
-0.00158065
-0.00195563
-0.00168765
-0.00205802
-0.00181491
-0.00216559
-0.00196332
-0.00227832
-0.00213481
-0.00239542
-0.00251791
-0.00233076
-0.00484514
-0.00026979
-0.00462806
-0.000254034
-0.00441776
-0.000246342
-0.00421245
-0.000249927
-0.0040159
-0.000258084
-0.00382827
-0.000272525
-0.00364918
-0.000292207
-0.00347709
-0.000316285
-0.00331362
-0.000342998
-0.00315414
-0.000373728
-0.00300343
-0.000405048
-0.00285617
-0.000440711
-0.00271527
-0.00047529
-0.00258029
-0.00051374
-0.00244975
-0.000551804
-0.00232516
-0.000592451
-0.00220505
-0.000633698
-0.00209045
-0.000676364
-0.0019823
-0.000719798
-0.00187859
-0.00076471
-0.00178109
-0.000811251
-0.00169027
-0.000858549
-0.00160645
-0.00090694
-0.00152933
-0.000957738
-0.00145897
-0.00100968
-0.00139773
-0.00106226
-0.00134433
-0.00111812
-0.00129916
-0.00117502
-0.0012644
-0.00123402
-0.00123932
-0.00129487
-0.00122466
-0.00135842
-0.00122174
-0.00142338
-0.00123096
-0.00149174
-0.00125335
-0.00156208
-0.00128843
-0.00163602
-0.00133858
-0.00171169
-0.00140382
-0.00179116
-0.00148584
-0.00187361
-0.00158437
-0.00195949
-0.00170136
-0.0020486
-0.00183808
-0.0021416
-0.001995
-0.00223849
-0.00233973
-0.00217318
-0.00430281
-0.000454406
-0.00411999
-0.000436847
-0.00394086
-0.000425481
-0.00376656
-0.000424224
-0.00359782
-0.000426822
-0.00343476
-0.000435584
-0.00327646
-0.000450506
-0.00312406
-0.000468687
-0.00297746
-0.000489594
-0.00283543
-0.000515764
-0.00269896
-0.000541522
-0.00256804
-0.000571629
-0.00244055
-0.000602779
-0.00231864
-0.000635652
-0.0022012
-0.000669237
-0.00208935
-0.000704308
-0.00198143
-0.000741612
-0.00187928
-0.000778514
-0.00178235
-0.000816727
-0.00169071
-0.000856356
-0.00160416
-0.000897804
-0.00152437
-0.000938333
-0.00144956
-0.000981748
-0.00138235
-0.00102496
-0.00132165
-0.00107038
-0.00126748
-0.00111643
-0.00122214
-0.00116346
-0.00118515
-0.001212
-0.00115667
-0.0012625
-0.00113687
-0.00131467
-0.00112756
-0.00136773
-0.00112768
-0.00142326
-0.00113937
-0.00148006
-0.00116207
-0.00153938
-0.00119801
-0.00160008
-0.00124636
-0.00166334
-0.00130857
-0.00172895
-0.00138548
-0.0017967
-0.00147815
-0.00186683
-0.00158689
-0.00193986
-0.00171284
-0.00201565
-0.00185721
-0.00209411
-0.00217548
-0.00202146
-0.00384676
-0.00061459
-0.00368949
-0.000594114
-0.00353307
-0.000581901
-0.00338124
-0.00057606
-0.00323296
-0.000575095
-0.00308769
-0.000580853
-0.00294779
-0.000590411
-0.00281125
-0.00060523
-0.00267824
-0.000622605
-0.00255196
-0.000642038
-0.00242738
-0.000666107
-0.00230857
-0.000690432
-0.00219457
-0.000716779
-0.00208444
-0.000745784
-0.00197843
-0.000775251
-0.00187727
-0.000805463
-0.00178054
-0.000838346
-0.00168896
-0.000870096
-0.00160125
-0.000904432
-0.00151858
-0.000939024
-0.00144269
-0.000973697
-0.00137076
-0.00101027
-0.00130484
-0.00104767
-0.0012451
-0.00108469
-0.0011922
-0.00112329
-0.0011463
-0.00116233
-0.00110733
-0.00120243
-0.00107569
-0.00124365
-0.00105193
-0.00128626
-0.00103763
-0.00132896
-0.00103104
-0.00137433
-0.00103505
-0.00141925
-0.00104809
-0.00146701
-0.00107229
-0.00151518
-0.00110719
-0.00156518
-0.00115379
-0.00161674
-0.00121265
-0.00167008
-0.00128513
-0.00172423
-0.00137157
-0.00178038
-0.00147253
-0.00183891
-0.00158867
-0.00189951
-0.00172113
-0.00196165
-0.00202604
-0.00187058
-0.00344412
-0.000755953
-0.00330299
-0.00073525
-0.00316403
-0.000720855
-0.00302885
-0.000711241
-0.0028955
-0.000708442
-0.00276644
-0.000709918
-0.00263974
-0.000717112
-0.00251788
-0.000727085
-0.00239979
-0.000740699
-0.00228376
-0.000758065
-0.00217383
-0.00077604
-0.00206715
-0.000797106
-0.00196381
-0.000820125
-0.00186478
-0.000844809
-0.00177008
-0.000869958
-0.00167822
-0.000897318
-0.00159263
-0.000923941
-0.0015094
-0.000953324
-0.00143196
-0.000981865
-0.00135903
-0.00101196
-0.00129001
-0.00104272
-0.0012268
-0.00107347
-0.00116966
-0.00110481
-0.0011168
-0.00113755
-0.00107077
-0.00116932
-0.00103124
-0.00120186
-0.000997864
-0.0012358
-0.000971788
-0.00126972
-0.000953176
-0.00130487
-0.000942029
-0.00134011
-0.000939536
-0.00137682
-0.000944814
-0.00141397
-0.000959693
-0.00145213
-0.000983983
-0.00149089
-0.00101804
-0.00153112
-0.00106286
-0.00157192
-0.00111972
-0.00161321
-0.00118769
-0.00165627
-0.00126829
-0.00169977
-0.00136211
-0.00174509
-0.00146997
-0.00179164
-0.00159194
-0.00183969
-0.0018893
-0.00172868
-0.00308823
-0.000884507
-0.00296267
-0.000860818
-0.00283887
-0.000844648
-0.00271595
-0.000834165
-0.00259693
-0.000827466
-0.00248044
-0.000826402
-0.00236691
-0.000830643
-0.00225635
-0.000837644
-0.00214939
-0.000847665
-0.00204592
-0.000861536
-0.0019461
-0.000875861
-0.00184912
-0.000894078
-0.00175688
-0.000912369
-0.00166818
-0.00093351
-0.00158277
-0.000955367
-0.00150142
-0.000978667
-0.00142325
-0.00100211
-0.00134951
-0.00102706
-0.00127956
-0.00105182
-0.00121358
-0.00107793
-0.00115345
-0.00110285
-0.00109708
-0.00112984
-0.00104613
-0.00115576
-0.00100055
-0.00118313
-0.000960463
-0.0012094
-0.000926293
-0.00123603
-0.000897748
-0.00126435
-0.000876042
-0.00129143
-0.000861194
-0.00131972
-0.000852493
-0.00134881
-0.00085233
-0.00137698
-0.000859512
-0.00140679
-0.000875248
-0.0014364
-0.000899579
-0.00146656
-0.000932771
-0.00149793
-0.000975979
-0.00152871
-0.00102951
-0.00155968
-0.00109414
-0.00159164
-0.00116923
-0.00162468
-0.00125625
-0.00165808
-0.00135551
-0.00169238
-0.00146824
-0.00172697
-0.00176318
-0.00159435
-0.00277444
-0.00100012
-0.00266064
-0.000974614
-0.0025485
-0.000956792
-0.00243909
-0.000943577
-0.00233136
-0.000935193
-0.00222556
-0.000932207
-0.00212302
-0.000933182
-0.00202336
-0.000937295
-0.00192688
-0.000944148
-0.00183464
-0.000953775
-0.00174349
-0.00096701
-0.0016568
-0.000980774
-0.00157335
-0.000995816
-0.00149222
-0.00101464
-0.00141573
-0.00103186
-0.00134281
-0.00105158
-0.00127197
-0.00107296
-0.00120577
-0.00109327
-0.00114361
-0.00111397
-0.00108535
-0.00113619
-0.00103094
-0.00115726
-0.000981168
-0.00117962
-0.000935645
-0.00120128
-0.00089563
-0.00122315
-0.000860771
-0.00124426
-0.000831191
-0.00126561
-0.000807494
-0.00128804
-0.000789037
-0.00130989
-0.000776493
-0.00133227
-0.000771067
-0.00135424
-0.000772442
-0.00137561
-0.00078098
-0.00139825
-0.000796566
-0.00142081
-0.000820053
-0.00144307
-0.000852681
-0.0014653
-0.000894156
-0.00148724
-0.000944336
-0.0015095
-0.0010047
-0.00153128
-0.00107503
-0.00155434
-0.00115545
-0.00157766
-0.00124779
-0.00160004
-0.00135135
-0.00162341
-0.00164709
-0.00146744
-0.00249677
-0.00110597
-0.00239318
-0.0010782
-0.00229106
-0.00105892
-0.00219013
-0.00104451
-0.00209561
-0.00102972
-0.0020014
-0.00102641
-0.00190792
-0.00102667
-0.00181643
-0.00102878
-0.00172895
-0.00103163
-0.00164523
-0.00103749
-0.00156381
-0.00104843
-0.00148484
-0.00105975
-0.00140883
-0.00107182
-0.00133592
-0.00108755
-0.00126749
-0.00110029
-0.00120062
-0.00111845
-0.00113669
-0.00113688
-0.00107731
-0.00115265
-0.00102057
-0.00117071
-0.00096875
-0.00118801
-0.000919685
-0.00120633
-0.00087527
-0.00122403
-0.000835332
-0.00124122
-0.000800748
-0.00125773
-0.000770503
-0.00127451
-0.000743719
-0.00129239
-0.000723354
-0.00130841
-0.000708331
-0.00132491
-0.000698204
-0.00134239
-0.000695813
-0.00135663
-0.000698544
-0.00137288
-0.000707242
-0.00138956
-0.000723435
-0.00140462
-0.000747109
-0.0014194
-0.000776994
-0.00143542
-0.000816904
-0.00144733
-0.000865091
-0.00146132
-0.000921056
-0.00147531
-0.00098584
-0.00148956
-0.00106138
-0.00150212
-0.00114623
-0.00151519
-0.00124169
-0.00152795
-0.00134788
-0.0015409
0.0012177
-0.000836633
0.000923374
-0.00130444
0.00114484
-0.000757664
0.000830523
0.00108484
-0.000682067
0.00074207
0.0010363
-0.00061009
0.000658629
0.000998484
-0.000542211
0.000580028
0.000970123
-0.000478027
0.000506388
0.000950344
-0.000417848
0.000437628
0.000938452
-0.00036122
0.000373111
0.000932799
-0.000307811
0.000313465
0.000932512
-0.000257526
0.000257813
0.000936821
-0.00021096
0.000206651
0.000945187
-0.000167274
0.000158907
0.000956828
-0.000126537
0.000114896
0.00097056
-8.82958e-05
7.45634e-05
0.000985595
-5.27262e-05
3.76921e-05
0.00100195
-1.9799e-05
3.44407e-06
0.0010184
1.09312e-05
-2.73783e-05
0.00103434
3.96558e-05
-5.5603e-05
0.00104982
6.58416e-05
-8.13192e-05
0.0010638
9.06857e-05
-0.000104664
0.00107584
0.000113228
-0.000125264
0.00108569
0.000134468
-0.000144321
0.00109323
0.000153685
-0.000161227
0.00109785
0.000171785
-0.000176401
0.00109884
0.000188413
-0.000189401
0.00109655
0.000203808
-0.00020152
0.00109053
0.00021799
-0.000211974
0.00108041
0.000231095
-0.000220966
0.00106577
0.000243387
-0.000228751
0.00104675
0.00025448
-0.000235461
0.00102314
0.000264892
-0.000241284
0.000994282
0.000274717
-0.000245855
0.000960469
0.000283617
-0.000249804
0.000920455
0.000292815
-0.000252801
0.000875009
0.000301078
-0.000255632
0.000822591
0.000309871
-0.000257452
0.000761445
0.000319499
-0.000258353
0.000689712
0.000331519
-0.000259785
0.000601701
0.00034844
-0.000260429
0.000488497
0.000376462
-0.000263257
0.000328929
0.000429529
-0.00026996
7.56773e-05
0.000544297
-0.000291043
0.000822724
-0.000402452
-0.000344594
0.00110608
-0.000761095
-0.00118161
0.00104121
-0.000692802
0.000987216
-0.00062807
0.000943277
-0.000566151
0.000908947
-0.000507881
0.000882984
-0.000452064
0.000864262
-0.000399127
0.000852331
-0.000349289
0.000846454
-0.000301934
0.000845645
-0.000256716
0.000849056
-0.000214371
0.000855981
-0.000174199
0.000866138
-0.000136693
0.000878517
-0.000100675
0.000892631
-6.68403e-05
0.000907801
-3.49693e-05
0.000923393
-4.66064e-06
0.000939519
2.35303e-05
0.000955042
5.03182e-05
0.000969693
7.60349e-05
0.00098305
9.98718e-05
0.000994939
0.000122579
0.0010044
0.000144223
0.00101152
0.000164665
0.00101575
0.00018419
0.00101688
0.00020267
0.00101426
0.00022061
0.00100809
0.000237273
0.000997545
0.000253927
0.000982302
0.000269724
0.000961876
0.000285318
0.000935827
0.000300766
0.000903243
0.000316201
0.0008638
0.000332259
0.000815472
0.000349406
0.000757023
0.00036832
0.000684964
0.000391558
0.000595267
0.000421216
0.000480231
0.000463477
0.000328827
0.000527867
0.000123032
0.000635323
-0.000159108
0.000826437
0.00117077
-0.000507158
0.00100292
-0.000692262
-0.00107175
0.00094479
-0.000634677
0.000896568
-0.000579848
0.000857017
-0.000526599
0.000826056
-0.00047692
0.000802653
-0.000428661
0.000785626
-0.000382099
0.00077489
-0.000338553
0.000768757
-0.000295801
0.000767935
-0.000255894
0.000770517
-0.000216952
0.000777002
-0.000180685
0.000785393
-0.000145084
0.000796439
-0.000111721
0.000809352
-7.97529e-05
0.000823199
-4.88168e-05
0.000837942
-1.94033e-05
0.000852689
8.78312e-06
0.000866803
3.62041e-05
0.000880815
6.2023e-05
0.000893645
8.70422e-05
0.000904873
0.000111351
0.000914137
0.000134958
0.000921307
0.000157495
0.000925971
0.000179526
0.000927605
0.000201037
0.000925986
0.000222229
0.000920244
0.000243015
0.000910233
0.000263938
0.000895509
0.000284448
0.000875238
0.000305589
0.00084878
0.000327225
0.000814734
0.000350247
0.000772645
0.000374347
0.000720355
0.000401697
0.000655171
0.000433504
0.000574739
0.00047199
0.000473747
0.000522208
0.000346425
0.000590799
0.000183609
0.000690684
-2.35767e-05
0.000842509
-0.000277668
0.00108053
0.00144758
-0.000554469
0.00090651
-0.000631061
-0.00096771
0.00085454
-0.000582707
0.000811155
-0.000536463
0.000776132
-0.000491577
0.00074742
-0.000448208
0.000725357
-0.000406598
0.00070967
-0.000366412
0.000698978
-0.000327861
0.000693282
-0.000290105
0.000691277
-0.000253889
0.000693525
-0.0002192
0.000698003
-0.000185163
0.000705508
-0.000152589
0.00071497
-0.000121183
0.000725723
-9.05058e-05
0.000737747
-6.0841e-05
0.000750737
-3.23931e-05
0.00076363
-4.10976e-06
0.000776906
2.29285e-05
0.000789476
4.94532e-05
0.0008008
7.57179e-05
0.000811188
0.000100963
0.000820017
0.000126128
0.000826648
0.000150864
0.00083115
0.000175024
0.000832656
0.00019953
0.000830943
0.000223942
0.00082541
0.000248549
0.000815818
0.000273529
0.00080137
0.000298896
0.000781162
0.000325798
0.000754683
0.000353704
0.000720795
0.000384135
0.00067738
0.000417762
0.000623407
0.00045567
0.000556879
0.000500032
0.00047453
0.000554339
0.000372569
0.000624169
0.0002466
0.000716768
8.99131e-05
0.000847371
-9.98096e-05
0.00103223
-0.000323405
0.00130412
0.00168898
-0.000564806
0.000818912
-0.000576483
-0.000873491
0.000772468
-0.000536263
0.000732845
-0.000496839
0.000700348
-0.00045908
0.000674676
-0.000422536
0.00065454
-0.000386462
0.000639722
-0.000351594
0.000629219
-0.000317358
0.000623139
-0.000284025
0.000621288
-0.000252039
0.000621698
-0.00021961
0.000625699
-0.000189164
0.00063147
-0.00015836
0.000639458
-0.00012917
0.000648602
-9.96497e-05
0.000659151
-7.13898e-05
0.000670173
-4.34153e-05
0.000682115
-1.60519e-05
0.000693533
1.15107e-05
0.000704473
3.85126e-05
0.000714852
6.53388e-05
0.000723959
9.18569e-05
0.000731824
0.000118263
0.000737602
0.000145086
0.00074121
0.000171416
0.00074251
0.00019823
0.000740736
0.000225716
0.000735587
0.000253697
0.000726069
0.000283047
0.000711934
0.000313031
0.000692445
0.000345288
0.000666359
0.000379789
0.000633283
0.000417211
0.000591231
0.000459814
0.000538982
0.000507919
0.000474662
0.000564352
0.000394599
0.000634402
0.000297232
0.000721537
0.000177484
0.000836516
3.32813e-05
0.000991573
-0.000139491
0.001205
-0.000337756
0.00150239
0.00190363
-0.000552413
0.000738784
-0.000527391
-0.000787876
0.000696554
-0.000494033
0.000660739
-0.000461024
0.000631592
-0.000429932
0.000607824
-0.000398769
0.000589092
-0.00036773
0.000575215
-0.000337717
0.000565329
-0.000307471
0.0005593
-0.000277996
0.000556251
-0.000248989
0.000556804
-0.000220162
0.000559341
-0.000191702
0.000564221
-0.00016324
0.000570413
-0.000135362
0.000578383
-0.00010762
0.000587464
-8.0471e-05
0.000597075
-5.30263e-05
0.000607153
-2.61304e-05
0.0006173
1.36441e-06
0.000627075
2.87375e-05
0.000636283
5.61308e-05
0.000644416
8.37239e-05
0.00065117
0.000111509
0.000656417
0.00013984
0.000659624
0.000168208
0.000660214
0.000197641
0.000658509
0.000227421
0.000653045
0.000259161
0.00064425
0.000291842
0.000630947
0.000326334
0.000612555
0.00036368
0.000588398
0.000403947
0.000556911
0.000448697
0.000517495
0.000499229
0.000468169
0.000557246
0.000406556
0.000625964
0.000332088
0.00070887
0.000240554
0.000813071
0.000129015
0.000948054
-3.24719e-06
0.00112384
-0.000159725
0.00136148
-0.000335989
0.00167865
0.00209933
-0.000531681
0.000665617
-0.000483064
-0.000709944
0.000627534
-0.00045595
0.00059541
-0.000428901
0.000568674
-0.000403196
0.000546839
-0.000376933
0.000529846
-0.000350737
0.000516287
-0.000324159
0.000507175
-0.00029836
0.000501377
-0.000272199
0.000498128
-0.00024574
0.00049809
-0.000220124
0.000499962
-0.000193573
0.000503779
-0.000167058
0.000508948
-0.00014053
0.000515888
-0.000114561
0.000523098
-8.76805e-05
0.000531521
-6.14491e-05
0.000540014
-3.46236e-05
0.000548949
-7.57097e-06
0.000557817
1.98699e-05
0.000565755
4.81926e-05
0.000573143
7.63357e-05
0.000579274
0.000105378
0.000583617
0.000135496
0.000585936
0.000165889
0.00058662
0.000196957
0.000584561
0.000229481
0.000579831
0.000263891
0.000571338
0.000300335
0.000558491
0.000339181
0.000541756
0.000380415
0.000519287
0.000426416
0.000490573
0.000477411
0.000453856
0.000535947
0.000408265
0.000602837
0.000352035
0.000682195
0.000282606
0.000778299
0.000198038
0.00089764
9.5977e-05
0.00105012
-2.73365e-05
0.00124715
-0.000170222
0.00150437
-0.000330502
0.00183893
0.00227505
-0.000506222
0.000599679
-0.000443174
-0.000639569
0.000565486
-0.000421757
0.000536155
-0.000399569
0.000511977
-0.000379019
0.000492109
-0.000357064
0.000476119
-0.000334748
0.000463768
-0.000311807
0.000454782
-0.000289374
0.000448908
-0.000266325
0.000445912
-0.000242744
0.000445031
-0.000219243
0.00044652
-0.000195062
0.000449635
-0.000170172
0.000454369
-0.000145264
0.000459688
-0.00011988
0.000466312
-9.43037e-05
0.000473329
-6.84662e-05
0.000481175
-4.24702e-05
0.000489096
-1.54917e-05
0.000496459
1.25067e-05
0.0005039
4.07517e-05
0.000510077
7.0159e-05
0.000515522
9.99326e-05
0.000519771
0.000131247
0.000521881
0.00016378
0.000521939
0.000196898
0.000520192
0.000231228
0.000515436
0.000268647
0.000507474
0.000308297
0.00049542
0.000351235
0.000479507
0.000396328
0.000459261
0.000446663
0.000432798
0.000503873
0.00039974
0.000569005
0.000357629
0.000644947
0.000305741
0.000734083
0.000242625
0.000841415
0.000166817
0.000973447
7.25125e-05
0.00114442
-4.0717e-05
0.00136038
-0.000172115
0.00163577
-0.000317056
0.00198387
0.00243392
-0.000475933
0.00054024
-0.000407983
-0.00057543
0.000509745
-0.000391263
0.000481527
-0.00037135
0.000460431
-0.000357923
0.000442398
-0.000339031
0.0004277
-0.00032005
0.000416286
-0.000300393
0.000407952
-0.00028104
0.000401977
-0.00026035
0.000398715
-0.000239482
0.000397332
-0.000217859
0.000398467
-0.000196198
0.000400878
-0.000172583
0.000404468
-0.000148854
0.000408958
-0.00012437
0.000414375
-9.97213e-05
0.000420317