/*--------------------------------*- C++ -*----------------------------------*\
| =========                 |                                                 |
| \\      /  F ield         | OpenFOAM: The Open Source CFD Toolbox           |
|  \\    /   O peration     | Version:  2.3.0                                 |
|   \\  /    A nd           | Web:      www.OpenFOAM.org                      |
|    \\/     M anipulation  |                                                 |
\*---------------------------------------------------------------------------*/
FoamFile
{
    version     2.0;
    format      ascii;
    class       volVectorField;
    location    "2000";
    object      U;
}
// * * * * * * * * * * * * * * * * * * * * * * * * * * * * * * * * * * * * * //

dimensions      [0 1 -1 0 0 0 0];

internalField   nonuniform List<vector> 
39691
(
(21.7036 11.4917 8.60155e-21)
(21.5868 11.6876 9.23188e-21)
(21.4686 11.8847 5.55294e-21)
(21.3462 12.0821 0)
(21.219 12.2803 -1.85338e-20)
(21.0863 12.4789 0)
(20.9477 12.6778 0)
(20.8027 12.8765 2.60597e-20)
(20.6507 13.0748 -2.60798e-20)
(20.4912 13.2723 6.8867e-20)
(20.3235 13.4685 -6.90697e-20)
(20.1471 13.6629 1.03073e-19)
(19.9611 13.8549 -1.05074e-19)
(19.7651 14.0436 0)
(19.5579 14.2283 1.19566e-19)
(19.3388 14.408 -1.20834e-19)
(19.1069 14.5815 1.39505e-19)
(18.8611 14.7478 -1.46137e-19)
(18.6002 14.9054 0)
(18.323 15.0531 3.23754e-21)
(18.0281 15.1892 0)
(17.7137 15.3125 2.1667e-19)
(17.378 15.4215 -2.26327e-19)
(17.0191 15.5152 0)
(16.6345 15.593 0)
(16.2215 15.6551 -3.26135e-20)
(15.7772 15.7021 2.90551e-19)
(15.298 15.736 -6.44149e-19)
(14.7791 15.759 3.3979e-19)
(14.2162 15.776 0)
(13.6042 15.7946 0)
(12.9349 15.8201 1.79508e-19)
(12.2016 15.8636 -2.18616e-19)
(11.3945 15.9346 -2.69732e-20)
(10.5022 16.0423 2.30125e-19)
(9.51528 16.198 -2.44409e-19)
(8.42612 16.413 0)
(7.23117 16.6994 0)
(5.9173 17.04 -3.06089e-20)
(4.47646 17.4166 0)
(2.95406 17.9185 0)
(1.43228 18.7255 0)
(-0.194753 19.4152 -5.43857e-19)
(21.5345 11.438 -1.35796e-20)
(21.4234 11.6147 -1.32773e-20)
(21.3121 11.7926 2.172e-20)
(21.1978 11.9713 -2.08695e-20)
(21.08 12.1514 3.82604e-21)
(20.9583 12.3329 -1.04874e-20)
(20.8322 12.5157 -1.0526e-20)
(20.7016 12.6998 0)
(20.5658 12.8852 0)
(20.4245 13.0718 -3.55243e-20)
(20.2773 13.2598 -1.80266e-23)
(20.1238 13.4492 4.97534e-20)
(19.9635 13.64 -3.64205e-20)
(19.7959 13.8324 1.17078e-20)
(19.6204 14.0263 -2.62147e-20)
(19.4364 14.222 2.64296e-20)
(19.2432 14.4195 1.75462e-20)
(19.0398 14.619 -6.85289e-21)
(18.8256 14.821 -7.22697e-21)
(18.5996 15.0257 -3.55522e-20)
(18.361 15.2335 -1.89228e-21)
(18.1086 15.4447 -2.5285e-21)
(17.8417 15.6598 4.27627e-20)
(17.559 15.8787 0)
(17.2595 16.102 0)
(16.9418 16.3294 4.10647e-21)
(16.6049 16.5607 -7.61395e-20)
(16.247 16.7953 1.6999e-19)
(15.8665 17.0321 -7.53348e-20)
(15.4615 17.2694 0)
(15.0295 17.5049 -1.28369e-20)
(14.568 17.7353 -1.50611e-20)
(14.0736 17.9556 -2.38049e-19)
(13.5426 18.1598 5.61601e-19)
(12.9711 18.3397 -3.61705e-19)
(12.3545 18.4843 -8.73372e-21)
(11.6902 18.5818 0)
(10.9736 18.6171 4.28473e-20)
(10.2017 18.5725 -2.84481e-20)
(9.37569 18.4243 0)
(8.5114 18.1512 7.04932e-20)
(7.62775 17.7284 8.08337e-20)
(6.72656 17.1222 0)
(21.3789 11.3754 0)
(21.2704 11.5328 6.14092e-21)
(21.1606 11.6928 2.7169e-20)
(21.0481 11.8542 2.0938e-20)
(20.9325 12.017 1.75124e-20)
(20.8134 12.1813 1.04853e-20)
(20.6903 12.347 1.05106e-20)
(20.563 12.514 -1.83831e-20)
(20.4311 12.6825 1.87455e-20)
(20.294 12.8524 -4.90949e-20)
(20.1514 13.0238 5.97752e-20)
(20.003 13.1969 -6.24811e-20)
(19.8484 13.3718 1.38139e-19)
(19.6872 13.5485 -5.45027e-20)
(19.519 13.7271 0)
(19.3434 13.9075 7.1772e-20)
(19.1597 14.0899 -1.00972e-20)
(18.9671 14.2742 -1.48566e-19)
(18.7649 14.4604 -1.02532e-20)
(18.5521 14.6484 -4.26361e-21)
(18.3274 14.8382 9.10263e-20)
(18.0899 15.0296 -1.03357e-19)
(17.8381 15.2224 -6.54599e-21)
(17.5703 15.4163 -7.56707e-21)
(17.285 15.611 1.24978e-19)
(16.9804 15.8057 -2.33268e-20)
(16.6545 16 0)
(16.3052 16.1927 0)
(15.9304 16.3824 -2.54252e-19)
(15.5277 16.5677 2.10025e-19)
(15.0951 16.7462 -2.08078e-19)
(14.6304 16.915 3.2751e-19)
(14.132 17.0702 -1.72033e-20)
(13.5981 17.2072 7.74895e-20)
(13.0284 17.32 2.40549e-20)
(12.4236 17.401 5.17418e-19)
(11.786 17.4415 -5.72266e-19)
(11.1208 17.4313 6.50315e-19)
(10.4349 17.3581 -6.02118e-19)
(9.74105 17.2097 -3.94838e-19)
(9.05754 16.9725 8.45035e-19)
(8.40694 16.6355 -5.92895e-19)
(7.81462 16.1941 0)
(21.2398 11.3017 0)
(21.1356 11.4462 6.05674e-21)
(21.0303 11.5911 8.25613e-22)
(20.9223 11.7367 -4.02739e-20)
(20.8115 11.8834 2.43474e-20)
(20.6974 12.0313 -1.75584e-20)
(20.58 12.1804 1.11672e-19)
(20.4587 12.3309 -6.82948e-20)
(20.3335 12.4825 -4.44131e-20)
(20.2037 12.6353 9.32812e-20)
(20.0687 12.7893 -2.16129e-19)
(19.9283 12.9446 1.94839e-19)
(19.7818 13.1013 -7.02206e-20)
(19.629 13.2596 -5.13082e-20)
(19.4694 13.4194 -1.10822e-19)
(19.3027 13.5808 2.11279e-19)
(19.1284 13.7438 -1.16949e-19)
(18.9459 13.9084 1.7889e-20)
(18.7546 14.0745 -5.35641e-21)
(18.5537 14.2419 0)
(18.3424 14.4105 2.13047e-20)
(18.1199 14.58 -2.2773e-20)
(17.885 14.75 0)
(17.6368 14.9201 0)
(17.3742 15.0893 0)
(17.0958 15.2571 2.29528e-20)
(16.8004 15.4222 0)
(16.4864 15.5831 2.82085e-19)
(16.1523 15.7382 -2.99576e-19)
(15.7967 15.8851 4.50355e-20)
(15.4181 16.0215 1.11792e-20)
(15.0152 16.1438 3.9246e-19)
(14.5866 16.2484 -4.48313e-19)
(14.1318 16.3308 -3.30563e-19)
(13.6507 16.3855 2.82514e-19)
(13.1444 16.4067 8.56561e-20)
(12.6152 16.3879 4.30715e-19)
(12.0671 16.3219 -5.04534e-19)
(11.5062 16.2019 4.34769e-19)
(10.9421 16.0216 -1.28029e-20)
(10.3866 15.7772 -4.78455e-19)
(9.85456 15.4672 -6.42337e-19)
(9.36264 15.0957 1.41569e-18)
(21.1131 11.2324 0)
(21.0149 11.3615 0)
(20.9146 11.4924 -5.14722e-20)
(20.8112 11.6238 7.98306e-20)
(20.7049 11.7561 8.2531e-20)
(20.5954 11.8895 -7.74197e-20)
(20.4825 12.024 -8.02582e-20)
(20.366 12.1597 2.93302e-20)
(20.2458 12.2968 1.13713e-19)
(20.1216 12.4349 5.95768e-20)
(19.9927 12.574 -3.24116e-20)
(19.8587 12.714 0)
(19.7187 12.8551 3.64751e-20)
(19.5726 12.9975 -3.56008e-20)
(19.4199 13.141 0)
(19.2601 13.2857 1.61897e-20)
(19.0928 13.4316 0)
(18.9177 13.5785 -1.78284e-20)
(18.7341 13.7265 -3.96994e-21)
(18.5413 13.8751 2.40874e-20)
(18.3384 14.0241 -2.12179e-20)
(18.1246 14.1734 2.26654e-20)
(17.899 14.3225 -1.09856e-19)
(17.6607 14.4708 1.12155e-19)
(17.4086 14.6177 0)
(17.1417 14.7621 0)
(16.8588 14.9033 -1.50195e-19)
(16.5587 15.0397 1.96679e-19)
(16.2405 15.1695 8.69355e-20)
(15.9028 15.2909 -9.54415e-20)
(15.5447 15.4015 -4.93637e-20)
(15.1655 15.4982 0)
(14.7649 15.5777 0)
(14.3429 15.6362 0)
(13.9005 15.6691 3.26399e-19)
(13.4391 15.6714 -7.80711e-19)
(12.9617 15.6381 3.70042e-19)
(12.4725 15.5636 1.04434e-19)
(11.9775 15.4431 1.2016e-19)
(11.4847 15.2727 0)
(11.0035 15.0506 5.79713e-19)
(10.5448 14.7768 -5.82858e-19)
(10.1198 14.4555 8.9378e-20)
(21.0016 11.1647 -2.93961e-20)
(20.9084 11.2795 8.94228e-20)
(20.8134 11.3983 -5.99321e-20)
(20.7151 11.5172 -2.85912e-20)
(20.6139 11.637 -6.27854e-20)
(20.5096 11.7576 0)
(20.4017 11.8791 0)
(20.2901 12.0018 -3.08091e-20)
(20.1748 12.126 -1.00411e-19)
(20.0561 12.2514 3.5282e-20)
(19.9334 12.3778 -2.07647e-21)
(19.8059 12.5049 1.8653e-19)
(19.6729 12.6329 -1.52049e-19)
(19.5339 12.7617 7.74179e-20)
(19.3885 12.8917 8.31119e-20)
(19.2363 13.0224 3.00595e-21)
(19.0765 13.1539 -1.78033e-19)
(18.909 13.2863 9.15542e-20)
(18.7334 13.4196 -3.21511e-21)
(18.5494 13.5532 -2.40922e-20)
(18.3561 13.6866 -8.32492e-20)
(18.1526 13.8196 2.02824e-19)
(17.9379 13.952 -1.2168e-19)
(17.7115 14.0833 1.36676e-19)
(17.4725 14.2125 -1.39654e-19)
(17.2198 14.3387 -1.58581e-19)
(16.9526 14.4611 1.62391e-19)
(16.6703 14.5781 -4.24935e-20)
(16.3717 14.6882 -3.00224e-19)
(16.0558 14.7897 2.58667e-19)
(15.722 14.8803 2.42043e-19)
(15.3698 14.9572 -2.48501e-19)
(14.999 15.0174 0)
(14.6099 15.0577 -3.19889e-19)
(14.2039 15.0744 6.32008e-20)
(13.7824 15.0631 -2.61568e-20)
(13.3481 15.0198 3.94299e-19)
(12.905 14.9402 0)
(12.458 14.8205 -1.18852e-19)
(12.0136 14.6581 5.46573e-19)
(11.5794 14.4519 -5.52144e-19)
(11.1637 14.2027 1.53288e-19)
(10.7752 13.9143 4.95766e-19)
(20.9017 11.0982 0)
(20.814 11.2016 0)
(20.7243 11.3101 0)
(20.6312 11.4182 0)
(20.5352 11.5271 7.14075e-20)
(20.4362 11.6367 -3.82819e-20)
(20.3336 11.7469 0)
(20.2267 11.8581 7.64298e-20)
(20.1155 11.971 -3.55966e-20)
(20.0012 12.0855 4.26419e-20)
(19.8835 12.2011 -1.61747e-19)
(19.7621 12.3175 4.26128e-20)
(19.6355 12.4345 0)
(19.5028 12.5523 -9.01339e-20)
(19.3637 12.6714 1.84062e-19)
(19.2187 12.7909 -9.41543e-20)
(19.066 12.9106 0)
(18.9052 13.0309 0)
(18.7364 13.1519 -2.59138e-21)
(18.5595 13.2737 0)
(18.3741 13.3953 -2.90538e-20)
(18.179 13.5154 -1.01355e-19)
(17.9728 13.6345 1.70429e-19)
(17.7556 13.7525 1.12028e-19)
(17.5267 13.8683 -1.53307e-19)
(17.2849 13.9808 1.72709e-19)
(17.0289 14.0894 -3.75275e-20)
(16.7591 14.1927 -2.41084e-19)
(16.4742 14.2887 5.10327e-20)
(16.1738 14.3763 2.95221e-19)
(15.8575 14.4532 1.455e-20)
(15.5248 14.517 -3.32942e-19)
(15.1753 14.5647 -2.29479e-19)
(14.8093 14.5938 3.12665e-19)
(14.4287 14.6009 2.77326e-19)
(14.0352 14.5824 -3.71594e-19)
(13.6311 14.5349 -5.37496e-19)
(13.2208 14.4547 6.74254e-19)
(12.8083 14.3385 -2.38294e-19)
(12.3988 14.1842 0)
(11.9983 13.9908 0)
(11.6135 13.7591 8.31275e-22)
(11.2504 13.4924 -3.3011e-19)
(20.8101 11.0413 -1.96675e-21)
(20.7306 11.13 -3.76222e-20)
(20.646 11.228 4.00709e-20)
(20.558 11.3267 -4.05234e-20)
(20.4669 11.4262 -3.77357e-20)
(20.3731 11.5265 3.83402e-20)
(20.2761 11.6271 0)
(20.1747 11.728 1.05475e-19)
(20.0676 11.8307 -1.24171e-19)
(19.9565 11.9356 -2.224e-20)
(19.8422 12.0424 0)
(19.7258 12.1498 1.15792e-19)
(19.6051 12.2576 2.71845e-21)
(19.4789 12.3654 -7.06287e-20)
(19.3446 12.4754 0)
(19.206 12.5867 2.65555e-20)
(19.0607 12.6976 2.76442e-20)
(18.9068 12.8083 -2.88894e-20)
(18.7434 12.919 -9.26842e-20)
(18.5728 13.0299 1.55014e-19)
(18.3939 13.1426 1.34571e-19)
(18.2077 13.2532 -2.95536e-20)
(18.0086 13.3618 -1.43377e-19)
(17.7999 13.469 3.80483e-20)
(17.5793 13.5746 1.71879e-19)
(17.3488 13.6753 -1.75647e-19)
(17.1025 13.7727 9.55399e-20)
(16.8438 13.8656 1.02721e-19)
(16.5705 13.9512 0)
(16.2827 14.0281 -5.86491e-20)
(15.9804 14.095 0)
(15.6641 14.1497 -2.50826e-21)
(15.3333 14.1875 -1.54732e-19)
(14.9861 14.2076 1.61147e-19)
(14.6255 14.2081 9.10578e-20)
(14.2538 14.1839 -2.0106e-19)
(13.872 14.134 4.16053e-19)
(13.486 14.0548 0)
(13.0989 13.9429 0)
(12.716 13.7959 0)
(12.3419 13.6137 0)
(11.9813 13.3945 -6.07317e-19)
(11.6364 13.1423 4.67015e-19)
(20.7194 10.9873 1.95423e-20)
(20.6533 11.0654 -2.14834e-20)
(20.5747 11.1525 -6.36285e-20)
(20.4939 11.2422 1.95723e-20)
(20.4095 11.3329 2.26764e-20)
(20.3214 11.4251 0)
(20.2297 11.5182 -2.24714e-20)
(20.1358 11.6104 2.16396e-22)
(20.0346 11.703 -2.13665e-20)
(19.9285 11.798 2.27382e-20)
(19.816 11.897 -2.45837e-20)
(19.7028 11.9974 -4.89422e-20)
(19.5853 12.0985 2.56823e-20)
(19.4699 12.1969 -5.2118e-20)
(19.3411 12.2961 0)
(19.2094 12.3995 -2.68306e-20)
(19.0726 12.5031 -5.75396e-20)
(18.9296 12.6066 -6.16193e-20)
(18.7709 12.7118 5.90566e-20)
(18.6021 12.8131 2.34031e-21)
(18.4257 12.917 -3.58628e-20)
(18.2556 13.0178 7.13499e-20)
(18.0635 13.1189 -1.48761e-19)
(17.86 13.2181 0)
(17.6399 13.3189 -4.43245e-20)
(17.4212 13.4111 -1.4216e-19)
(17.1835 13.4965 -3.03778e-21)
(16.9365 13.5797 -5.23363e-20)
(16.6749 13.6566 -5.86474e-20)
(16.3974 13.725 6.30188e-20)
(16.1024 13.7845 -1.98039e-19)
(15.7936 13.8379 -1.93909e-21)
(15.4757 13.871 -2.3656e-19)
(15.1406 13.8835 4.21668e-19)
(14.7912 13.8826 -2.66428e-19)
(14.4358 13.8537 9.91432e-20)
(14.068 13.8009 -1.06357e-19)
(13.6982 13.7233 -2.39523e-19)
(13.3264 13.6184 4.97504e-19)
(12.9633 13.4771 -2.59583e-19)
(12.6096 13.3074 0)
(12.2695 13.1002 -1.52917e-19)
(11.9358 12.8593 -1.6176e-19)
(-1.94525 18.5299 5.00025e-19)
(-1.41962 16.8658 8.78157e-19)
(-0.855242 15.3986 -8.36092e-19)
(-0.26641 14.2178 7.07264e-20)
(0.315107 13.2304 -5.53155e-19)
(0.876517 12.3862 -3.17349e-20)
(1.41251 11.6547 5.86883e-19)
(1.92151 11.0157 2.16286e-19)
(2.40331 10.4531 -1.00422e-19)
(2.85823 9.95366 2.40693e-19)
(3.28569 9.50784 -1.23895e-19)
(3.68738 9.10727 4.73917e-19)
(4.06539 8.74505 -3.37704e-19)
(4.4228 8.41566 0)
(4.76215 8.11451 0)
(5.08535 7.83749 2.04391e-19)
(5.39383 7.58108 -6.84504e-19)
(5.68892 7.34258 7.63157e-19)
(5.97184 7.11956 -1.12102e-18)
(6.24363 6.90995 3.5259e-19)
(6.50506 6.71177 -7.1038e-19)
(6.75721 6.52379 1.13038e-21)
(7.00089 6.34479 1.17059e-18)
(7.23671 6.17349 -4.96412e-19)
(7.4654 6.0091 1.67328e-19)
(7.68752 5.85082 0)
(7.90359 5.69798 -3.16416e-19)
(8.11408 5.54998 6.26694e-19)
(8.31937 5.40637 -3.01772e-19)
(8.51989 5.2667 3.02713e-19)
(8.71595 5.13055 0)
(8.90789 4.99768 -9.19012e-19)
(9.096 4.86776 9.11332e-19)
(9.28047 4.74051 3.07439e-19)
(9.46156 4.61573 9.0683e-22)
(9.63939 4.49319 -1.41468e-19)
(9.81413 4.37279 1.5983e-19)
(9.98591 4.25434 0)
(10.1549 4.13774 -1.17673e-18)
(10.3212 4.02303 5.83825e-19)
(10.4853 3.91058 5.65918e-19)
(10.6469 3.79985 -5.59062e-19)
(10.802 3.67776 1.05807e-18)
(5.86584 16.3298 1.0173e-19)
(5.2731 15.4369 -1.09988e-19)
(4.92849 14.5768 1.15711e-18)
(4.75046 13.7707 -1.61446e-18)
(4.68928 13.0271 -1.88113e-20)
(4.71127 12.3474 3.98357e-19)
(4.79327 11.7293 2.61361e-19)
(4.91803 11.1687 -2.50634e-19)
(5.07249 10.6605 -1.75317e-20)
(5.24726 10.1999 -2.2056e-19)
(5.43627 9.78017 -1.20264e-19)
(5.6345 9.39663 3.36077e-19)
(5.8384 9.0446 -1.09044e-19)
(6.04482 8.71987 4.24642e-19)
(6.25186 8.41902 -4.09292e-19)
(6.45813 8.1391 -1.97476e-19)
(6.66248 7.87755 -7.66229e-19)
(6.86434 7.63224 9.2388e-19)
(7.06317 7.40125 9.01769e-19)
(7.25871 7.18296 -3.55883e-19)
(7.4508 6.97591 -1.71609e-19)
(7.63931 6.77891 0)
(7.82426 6.59089 0)
(8.00564 6.41091 -8.04281e-19)
(8.1836 6.23828 1.26674e-18)
(8.35823 6.07224 -1.09552e-18)
(8.52957 5.91221 6.20582e-19)
(8.69785 5.75775 -2.4575e-21)
(8.86318 5.6083 -9.06452e-19)
(9.02571 5.46349 -6.01111e-19)
(9.18568 5.32293 6.00908e-19)
(9.34321 5.18624 5.96016e-19)
(9.49843 5.0531 -8.96639e-19)
(9.65143 4.92315 0)
(9.80232 4.79619 4.18859e-21)
(9.95115 4.67196 4.43399e-19)
(10.0979 4.55025 7.40929e-19)
(10.2427 4.43092 7.32121e-20)
(10.3857 4.31383 5.1256e-19)
(10.527 4.19898 0)
(10.6668 4.08642 -5.70664e-19)
(10.8049 3.97565 0)
(10.9388 3.85779 -5.40869e-19)
(7.31159 15.6572 -8.01695e-19)
(6.92103 15.0522 4.23571e-20)
(6.63305 14.4183 6.4951e-19)
(6.43588 13.7838 1.04085e-19)
(6.31599 13.1659 -1.06711e-19)
(6.2603 12.5752 2.23772e-19)
(6.2567 12.0173 -1.15714e-19)
(6.2946 11.4946 0)
(6.36523 11.007 0)
(6.46133 10.5536 1.10879e-19)
(6.57697 10.1322 0)
(6.70695 9.74095 -1.05483e-19)
(6.84743 9.37737 5.91792e-19)
(6.99517 9.03896 -5.77753e-19)
(7.14775 8.72355 -2.4811e-21)
(7.30346 8.42879 3.63591e-19)
(7.46076 8.15274 -1.76048e-19)
(7.6187 7.89347 -1.04377e-18)
(7.77641 7.64927 8.43397e-19)
(7.93342 7.41876 4.92575e-19)
(8.08921 7.20046 -8.07782e-19)
(8.24338 6.99319 -1.57306e-19)
(8.3958 6.79592 -7.78361e-19)
(8.5463 6.60768 6.14335e-19)
(8.69475 6.42767 0)
(8.84117 6.25515 4.45951e-19)
(8.98552 6.08949 -2.92403e-19)
(9.12789 5.93014 2.91117e-19)
(9.26837 5.77652 -2.87396e-19)
(9.40706 5.62817 2.93613e-19)
(9.5441 5.4846 2.88975e-19)
(9.67956 5.34543 -2.75799e-21)
(9.81348 5.21023 2.86208e-19)
(9.94587 5.07863 -2.86094e-19)
(10.0767 4.95036 1.46749e-19)
(10.206 4.82514 -1.45944e-19)
(10.3337 4.70284 0)
(10.4599 4.58325 0)
(10.5846 4.46629 0)
(10.7082 4.35179 -9.2699e-22)
(10.8308 4.23965 1.27285e-21)
(10.9525 4.12949 2.75702e-19)
(11.0731 4.01628 5.52088e-19)
(8.92558 14.671 -6.89245e-19)
(8.55227 14.2047 0)
(8.24608 13.7122 0)
(8.00584 13.209 -1.00934e-19)
(7.82653 12.7074 1.03686e-19)
(7.70199 12.2159 -1.12359e-19)
(7.62481 11.741 -2.13634e-19)
(7.5878 11.2866 4.15329e-19)
(7.58446 10.8548 -2.1814e-19)
(7.60877 10.4466 -1.89266e-19)
(7.65558 10.0621 0)
(7.72051 9.70061 -3.92583e-19)
(7.79977 9.36123 -1.92134e-19)
(7.89043 9.04251 -4.35429e-21)
(7.98997 8.7431 -3.67688e-19)
(8.09643 8.46143 3.56442e-19)
(8.20801 8.19611 3.47564e-19)
(8.32342 7.94567 -1.16385e-21)
(8.44164 7.70887 1.64086e-19)
(8.56176 7.48445 -4.84843e-19)
(8.68294 7.27129 1.11319e-18)
(8.80465 7.06844 -4.65627e-19)
(8.92652 6.87501 3.05568e-19)
(9.0481 6.69014 0)
(9.16907 6.51316 -1.4686e-19)
(9.28927 6.34348 -5.85693e-19)
(9.40861 6.18055 5.80456e-19)
(9.52709 6.02387 -1.47366e-19)
(9.64482 5.87287 0)
(9.76172 5.72706 2.84212e-19)
(9.87781 5.58598 2.83327e-19)
(9.9931 5.44928 -2.84393e-19)
(10.1076 5.31654 -5.63916e-19)
(10.2211 5.18741 2.83814e-19)
(10.3337 5.06155 0)
(10.445 4.93882 0)
(10.5552 4.81909 0)
(10.6642 4.70226 3.49859e-19)
(10.7722 4.58821 -7.01946e-20)
(10.8793 4.47679 -1.89873e-21)
(10.9858 4.36795 -2.76381e-19)
(11.0916 4.26227 0)
(11.1971 4.16158 0)
(9.73712 14.0933 -3.33209e-19)
(9.40165 13.6968 -1.90176e-19)
(9.11681 13.2755 3.67843e-19)
(8.88324 12.8403 0)
(8.69887 12.4008 1.97613e-19)
(8.56017 11.9646 -5.00271e-21)
(8.46228 11.5377 5.18582e-21)
(8.39999 11.1244 -2.05264e-19)
(8.36839 10.7275 2.16258e-19)
(8.36286 10.3486 -7.13085e-21)
(8.37914 9.98879 0)
(8.41354 9.64802 1.96729e-19)
(8.46295 9.32604 3.87939e-21)
(8.52477 9.02195 -1.85366e-19)
(8.59656 8.7348 0)
(8.67649 8.46351 3.49435e-19)
(8.76277 8.20697 -6.80486e-19)
(8.85406 7.96407 -5.01289e-19)
(8.94927 7.73371 3.24434e-19)
(9.04728 7.51487 1.60857e-19)
(9.14723 7.30665 1.54467e-19)
(9.24855 7.10831 -3.05803e-19)
(9.35069 6.91892 -1.5192e-19)
(9.45315 6.7378 5.91292e-19)
(9.55551 6.56437 2.44646e-21)
(9.65754 6.39819 -2.87968e-19)
(9.75928 6.23878 -1.41336e-19)
(9.8608 6.08563 1.39813e-19)
(9.96218 5.93807 -2.80573e-19)
(10.0632 5.79556 -2.80977e-19)
(10.1638 5.65783 -2.75891e-19)
(10.2639 5.52446 0)
(10.3636 5.39503 5.54948e-19)
(10.4626 5.26914 -2.76938e-19)
(10.5608 5.14655 2.75015e-19)
(10.6578 5.02713 -6.90993e-20)
(10.7537 4.91086 6.93066e-20)
(10.8486 4.79767 -2.78063e-19)
(10.9427 4.68731 0)
(11.0361 4.57949 1.36245e-19)
(11.1287 4.47383 1.36471e-19)
(11.2204 4.37017 0)
(11.3122 4.27323 0)
(10.4206 13.5919 -3.33793e-19)
(10.1048 13.2407 -3.58137e-19)
(9.83097 12.8671 0)
(9.60008 12.4791 -1.90149e-19)
(9.41108 12.0848 2.10669e-21)
(9.26206 11.6905 -3.92265e-19)
(9.14908 11.3014 1.99286e-19)
(9.06819 10.9217 -1.95822e-19)
(9.01548 10.5545 0)
(8.98724 10.2019 3.87438e-19)
(8.98013 9.86506 9.3146e-20)
(8.99082 9.54457 2.82105e-19)
(9.01704 9.24043 2.45627e-21)
(9.05655 8.9518 -1.78947e-19)
(9.10662 8.67813 0)
(9.16559 8.41877 1.72281e-19)
(9.23193 8.17267 1.88961e-21)
(9.30415 7.93902 1.62766e-19)
(9.38108 7.71676 0)
(9.4614 7.5052 1.55883e-19)
(9.54423 7.30373 -1.55196e-19)
(9.62911 7.11158 0)
(9.7154 6.92782 0)
(9.80226 6.75192 0)
(9.88918 6.58351 -2.85985e-19)
(9.9762 6.42237 1.43151e-19)
(10.0635 6.26792 2.81292e-19)
(10.1512 6.11958 -1.38424e-19)
(10.2395 5.97641 0)
(10.3275 5.83812 0)
(10.4152 5.70466 2.75415e-19)
(10.503 5.57558 1.36334e-19)
(10.5906 5.4502 -1.36359e-19)
(10.6777 5.32832 0)
(10.7639 5.20965 -2.05794e-19)
(10.8488 5.09421 -1.36261e-19)
(10.9325 4.98225 6.82316e-20)
(11.0155 4.87351 0)
(11.098 4.76755 2.70893e-19)
(11.18 4.66405 -2.30861e-21)
(11.2614 4.56262 0)
(11.3422 4.46326 -2.65946e-19)
(11.4247 4.37184 5.25253e-19)
(10.9158 13.1969 -1.65026e-20)
(10.6161 12.8763 1.60871e-19)
(10.3539 12.535 3.56583e-19)
(10.1294 12.179 3.73948e-19)
(9.94118 11.8165 0)
(9.7898 11.4524 -9.73841e-20)
(9.67027 11.0905 9.51806e-20)
(9.57956 10.7356 3.85618e-19)
(9.5146 10.391 6.03481e-21)
(9.4724 10.0592 -1.72942e-19)
(9.45055 9.74087 -2.11459e-19)
(9.44552 9.43711 1.82492e-19)
(9.45655 9.14809 1.81747e-19)
(9.48169 8.87232 -1.85749e-21)
(9.5167 8.61012 3.45743e-19)
(9.56147 8.36128 -1.68615e-19)
(9.61435 8.12448 1.6439e-19)
(9.6734 7.89897 -3.23989e-19)
(9.73749 7.68406 0)
(9.80488 7.47923 3.08848e-19)
(9.87493 7.2843 -3.04027e-19)
(9.94782 7.09822 1.48524e-19)
(10.0223 6.91979 0)
(10.0971 6.74889 0)
(10.1718 6.58575 1.43367e-19)
(10.2471 6.4299 4.22695e-19)
(10.3234 6.28049 -4.18094e-19)
(10.4007 6.13693 1.38549e-19)
(10.4793 5.9978 0)
(10.5566 5.86359 -1.35034e-19)
(10.6341 5.73472 0)
(10.7124 5.61001 2.68563e-19)
(10.7907 5.4886 -2.68234e-19)
(10.868 5.37085 0)
(10.9445 5.25615 2.67404e-19)
(11.0188 5.14496 0)
(11.0922 5.03783 2.67722e-19)
(11.1655 4.93397 2.67774e-19)
(11.2386 4.83271 -4.70244e-19)
(11.3111 4.73382 -3.36104e-19)
(11.383 4.63714 1.33149e-19)
(11.4544 4.54278 -1.32335e-19)
(11.5267 4.45346 -2.63796e-19)
(11.3133 12.8655 1.69349e-19)
(11.0244 12.5686 -3.40419e-19)
(10.7715 12.2513 -1.80964e-19)
(10.5525 11.9182 -4.02211e-21)
(10.3622 11.5797 0)
(10.2119 11.2412 1.86191e-19)
(10.0896 10.8986 4.74958e-20)
(9.99256 10.5632 -2.35001e-19)
(9.91838 10.2368 5.88106e-21)
(9.86544 9.92273 1.77922e-19)
(9.83344 9.62061 -1.81333e-19)
(9.81567 9.33085 -1.80783e-19)
(9.81567 9.05495 -1.75114e-19)
(9.83086 8.78947 -1.74368e-19)
(9.85288 8.53748 -1.68225e-19)
(9.88877 8.29855 1.64868e-19)
(9.93201 8.06952 -2.367e-21)
(9.98045 7.851 1.60504e-19)
(10.0347 7.64267 0)
(10.0911 7.44413 -1.54131e-19)
(10.1509 7.2557 2.99439e-19)
(10.215 7.07512 -2.96007e-19)
(10.2802 6.90137 0)
(10.3456 6.73551 1.41575e-19)
(10.4108 6.57801 0)
(10.4776 6.42724 0)
(10.5461 6.28215 1.3624e-19)
(10.6161 6.14275 -1.34945e-19)
(10.6881 6.00668 0)
(10.7556 5.87668 2.6889e-19)
(10.8258 5.75286 -2.66809e-19)
(10.8974 5.63192 1.3228e-19)
(10.9675 5.51392 1.09676e-21)
(11.0364 5.40036 -2.64574e-19)
(11.1047 5.28943 -3.98303e-19)
(11.1691 5.18279 -1.31957e-19)
(11.2344 5.08103 -4.02749e-19)
(11.3002 4.98214 -3.94698e-19)
(11.3657 4.88551 2.00185e-19)
(11.4301 4.79114 1.32556e-19)
(11.4941 4.69927 -6.60846e-20)
(11.557 4.60988 0)
(11.6201 4.52218 -2.61161e-19)
(11.6171 12.5926 1.59e-19)
(11.3397 12.3143 1.69426e-19)
(11.0992 12.0124 0)
(10.8866 11.6959 0)
(10.6884 11.3725 0)
(10.5492 11.067 -2.75686e-19)
(10.4301 10.7305 8.8476e-20)
(10.331 10.4107 -1.81392e-19)
(10.2513 10.0962 5.77064e-21)
(10.1918 9.79847 -1.89281e-19)
(10.1592 9.51222 1.80717e-19)
(10.1322 9.22925 0)
(10.1276 8.96226 1.72721e-19)
(10.1404 8.70378 8.2557e-20)
(10.1507 8.46242 1.33613e-21)
(10.1841 8.23383 -8.45867e-20)
(10.2174 8.00707 -1.61487e-19)
(10.2583 7.79352 0)
(10.3072 7.59188 0)
(10.3544 7.39826 0)
(10.408 7.21523 -1.36166e-21)
(10.469 7.03827 1.41841e-19)
(10.5271 6.86952 1.37268e-19)
(10.5856 6.71135 -1.40202e-19)
(10.6402 6.56036 -1.39787e-19)
(10.6994 6.41326 2.79365e-19)
(10.7597 6.27159 -2.78709e-19)
(10.8216 6.13608 2.76128e-19)
(10.8863 6.00321 -1.33972e-19)
(10.9384 5.87949 0)
(11.0021 5.76193 1.35533e-19)
(11.0639 5.6428 0)
(11.1247 5.52754 2.63547e-19)
(11.186 5.41905 2.61026e-19)
(11.2489 5.3111 1.27355e-19)
(11.3048 5.20989 2.61371e-19)
(11.364 5.11502 2.72285e-19)
(11.4216 5.02056 1.5392e-19)
(11.4799 4.92834 -1.7027e-20)
(11.5361 4.83819 0)
(11.593 4.75159 0)
(11.6472 4.66643 0)
(11.7023 4.57771 -3.79227e-22)
(-3.87678 -2.54426 -2.01035e-19)
(-3.69356 -2.56189 3.2963e-19)
(-3.50619 -2.57869 -1.11624e-21)
(-3.31616 -2.59431 0)
(-3.12424 -2.6087 0)
(-2.93101 -2.62184 -1.23273e-19)
(-2.73698 -2.63368 -2.66421e-20)
(-2.54256 -2.64424 3.08232e-20)
(-2.34811 -2.6535 4.79542e-22)
(-2.15401 -2.66146 -6.31882e-20)
(-1.9605 -2.66815 1.91289e-19)
(-1.76778 -2.67359 -1.29874e-19)
(-1.57607 -2.67782 -6.32912e-20)
(-1.38553 -2.68083 1.35973e-19)
(-1.19629 -2.68265 -1.40484e-19)
(-1.00839 -2.68332 1.40012e-19)
(-0.822002 -2.68283 -1.42888e-19)
(-0.637149 -2.68116 1.45794e-19)
(-0.453898 -2.67834 -3.74131e-20)
(-0.272325 -2.67432 0)
(-0.0924047 -2.66916 1.21379e-19)
(0.0859112 -2.66291 -1.68784e-19)
(0.262671 -2.65555 -8.54669e-20)
(0.437917 -2.64711 0)
(0.611663 -2.63763 0)
(0.784049 -2.62714 -2.05074e-19)
(0.955114 -2.61565 2.19066e-19)
(1.12497 -2.60316 2.32798e-19)
(1.29363 -2.58971 -1.2624e-19)
(1.46133 -2.5753 -1.35696e-19)
(1.62826 -2.55993 -3.69393e-20)
(1.79456 -2.54347 -1.18726e-19)
(1.96049 -2.52578 8.87698e-20)
(2.12656 -2.50656 -4.72308e-20)
(2.29354 -2.4851 -5.4523e-20)
(2.46286 -2.46031 1.57393e-19)
(2.63783 -2.43011 0)
(2.8262 -2.39115 0)
(3.04758 -2.33896 0)
(3.35454 -2.26693 5.63085e-20)
(3.89648 -2.1722 -6.72798e-20)
(5.12522 -2.10564 1.31983e-18)
(8.63213 -2.46081 -4.34783e-18)
(-3.83909 -2.54744 8.88352e-22)
(-3.66951 -2.56596 1.19155e-22)
(-3.49668 -2.58242 -1.12347e-19)
(-3.32153 -2.59744 0)
(-3.14459 -2.61144 1.16419e-19)
(-2.96626 -2.6245 1.2111e-19)
(-2.78682 -2.63665 5.57279e-20)
(-2.60654 -2.64788 0)
(-2.42569 -2.65819 6.02886e-20)
(-2.24455 -2.6676 0)
(-2.06327 -2.67612 1.21627e-19)
(-1.88202 -2.68378 -6.08259e-20)
(-1.70089 -2.69061 -1.2418e-19)
(-1.52 -2.69666 6.2591e-20)
(-1.33937 -2.70194 -6.48403e-20)
(-1.15905 -2.70646 6.42216e-20)
(-0.979029 -2.71021 -1.34102e-19)
(-0.799248 -2.71315 1.36833e-19)
(-0.619779 -2.7153 -6.59919e-22)
(-0.440628 -2.71664 -1.45843e-19)
(-0.261732 -2.71712 3.80352e-20)
(-0.0829586 -2.71671 -3.99726e-20)
(0.095739 -2.71537 8.29535e-20)
(0.274517 -2.71303 1.71623e-19)
(0.453556 -2.70959 -2.27114e-19)
(0.632949 -2.70496 0)
(0.813002 -2.69896 0)
(0.994025 -2.69142 0)
(1.17633 -2.68211 -5.67796e-20)
(1.36049 -2.6707 1.24751e-19)
(1.54722 -2.65674 -6.74394e-22)
(1.73765 -2.63956 -1.10072e-19)
(1.93336 -2.61828 1.19644e-19)
(2.13723 -2.59158 -3.8314e-20)
(2.35398 -2.55762 -5.38137e-20)
(2.59166 -2.51384 -5.28504e-20)
(2.86573 -2.4569 5.90846e-20)
(3.20454 -2.38269 0)
(3.66167 -2.2887 0)
(4.34513 -2.18059 5.90825e-19)
(5.48204 -2.09528 -4.44186e-20)
(7.5527 -2.17353 -1.5919e-18)
(11.5754 -2.78993 1.66676e-18)
(-3.80262 -2.54829 -2.09051e-22)
(-3.64084 -2.56613 -5.66277e-22)
(-3.47729 -2.58134 -1.11133e-19)
(-3.31211 -2.59604 -2.82838e-20)
(-3.14515 -2.61019 -1.42009e-19)
(-2.97657 -2.62372 3.59923e-21)
(-2.80661 -2.63658 -6.13207e-20)
(-2.63541 -2.64873 0)
(-2.46317 -2.66012 0)
(-2.29008 -2.67074 0)
(-2.1163 -2.68055 8.17282e-22)
(-1.94192 -2.68957 -5.97058e-20)
(-1.76707 -2.69782 6.14334e-20)
(-1.59178 -2.7053 0)
(-1.41603 -2.71203 0)
(-1.23986 -2.71801 1.28899e-19)
(-1.06323 -2.72322 0)
(-0.886026 -2.7276 1.6934e-19)
(-0.708221 -2.73112 -1.40656e-19)
(-0.529798 -2.73373 0)
(-0.350571 -2.73539 0)
(-0.170385 -2.73602 -1.16731e-19)
(0.0109452 -2.73553 1.22025e-19)
(0.193838 -2.7338 -1.68828e-19)
(0.378548 -2.73064 2.21254e-19)
(0.565484 -2.72582 0)
(0.755357 -2.71902 -9.8666e-20)
(0.948737 -2.70983 2.62434e-19)
(1.14657 -2.69774 -1.11491e-19)
(1.35012 -2.68206 -1.1949e-19)
(1.56117 -2.66193 -3.27627e-20)
(1.7823 -2.63622 3.38981e-20)
(2.01729 -2.60343 1.84555e-20)
(2.27209 -2.56167 2.50026e-20)
(2.55592 -2.50864 -9.16559e-20)
(2.88346 -2.44167 3.54145e-22)
(3.27827 -2.35849 -5.02078e-20)
(3.78041 -2.25827 -2.14411e-19)
(4.45917 -2.1452 1.81038e-19)
(5.43699 -2.03823 0)
(6.92564 -1.99539 0)
(9.27999 -2.16101 0)
(12.9918 -2.84476 -5.50104e-19)
(-3.76094 -2.53795 -5.21064e-20)
(-3.61097 -2.55555 1.60804e-19)
(-3.45784 -2.57002 1.0914e-19)
(-3.3029 -2.58384 -5.55543e-20)
(-3.14602 -2.59724 0)
(-2.98732 -2.61008 0)
(-2.82692 -2.62236 -5.69978e-20)
(-2.6649 -2.63404 0)
(-2.50136 -2.64506 0)
(-2.33643 -2.65539 -5.80755e-20)
(-2.17017 -2.66496 -5.8396e-20)
(-2.00271 -2.67374 2.10091e-22)
(-1.83412 -2.68174 0)
(-1.66448 -2.689 6.08436e-20)
(-1.49366 -2.69554 6.18494e-20)
(-1.32158 -2.70136 -2.21131e-19)
(-1.14813 -2.70642 1.29292e-19)
(-0.973107 -2.71064 -2.65498e-19)
(-0.796409 -2.71389 3.41398e-20)
(-0.617987 -2.71608 1.40802e-19)
(-0.437576 -2.71713 -1.4543e-19)
(-0.254968 -2.71692 1.13225e-19)
(-0.0698697 -2.71533 -3.90186e-20)
(0.118245 -2.71217 2.05546e-19)
(0.309932 -2.70722 -8.61611e-20)
(0.506019 -2.70016 4.54714e-20)
(0.70742 -2.69049 9.52313e-20)
(0.915183 -2.67762 -2.51794e-19)
(1.13092 -2.66086 -1.309e-22)
(1.35664 -2.63933 5.71888e-20)
(1.59523 -2.6119 2.41844e-19)
(1.85061 -2.57718 -6.47098e-20)
(2.12835 -2.5335 0)
(2.43675 -2.47896 -3.66449e-20)
(2.78755 -2.4118 2.95117e-22)
(3.19898 -2.33054 8.38312e-20)
(3.69962 -2.23473 -8.82489e-20)
(4.33463 -2.1273 0)
(5.17664 -2.01869 1.483e-19)
(6.34049 -1.9371 -2.2206e-19)
(8.00276 -1.94729 2.11398e-19)
(10.418 -2.18019 -2.37275e-19)
(13.8453 -2.87114 0)
(-3.72377 -2.5257 1.02525e-19)
(-3.58166 -2.541 -5.29665e-20)
(-3.43708 -2.55357 5.37168e-20)
(-3.29128 -2.56585 1.36127e-19)
(-3.14331 -2.57816 -2.05888e-20)
(-2.99333 -2.59001 -6.92e-21)
(-2.84124 -2.60148 5.56583e-20)
(-2.68712 -2.61242 -5.6216e-20)
(-2.53099 -2.62279 0)
(-2.37287 -2.63254 -5.6957e-20)
(-2.21282 -2.64154 1.14927e-19)
(-2.05088 -2.6497 -1.16287e-19)
(-1.8872 -2.65698 1.17796e-19)
(-1.72186 -2.6634 -1.1962e-19)
(-1.55476 -2.66904 0)
(-1.38577 -2.67394 3.08919e-20)
(-1.21459 -2.67806 -3.18451e-20)
(-1.04089 -2.68133 0)
(-0.864543 -2.68351 3.36183e-20)
(-0.685411 -2.68441 0)
(-0.503201 -2.68394 0)
(-0.317646 -2.68192 7.4016e-20)
(-0.128326 -2.67816 -3.83269e-20)
(0.0652928 -2.67246 -3.9967e-20)
(0.264029 -2.66464 -8.39336e-20)
(0.469014 -2.6544 4.43835e-20)
(0.681587 -2.64119 9.2437e-20)
(0.903363 -2.6242 -1.46619e-19)
(1.13633 -2.60262 5.12874e-20)
(1.38315 -2.57561 1.08802e-19)
(1.64755 -2.54211 -2.03801e-22)
(1.93477 -2.50071 -6.12406e-20)
(2.25147 -2.44975 6.45156e-20)
(2.60715 -2.38763 0)
(3.01555 -2.3131 7.20226e-20)
(3.49684 -2.22574 0)
(4.08197 -2.12696 8.14006e-20)
(4.81732 -2.0226 0)
(5.7726 -1.92732 9.1421e-20)
(7.0512 -1.87391 0)
(8.7995 -1.92803 1.7977e-19)
(11.2079 -2.20714 -1.20297e-19)
(14.4381 -2.89226 -1.89245e-19)
(-3.68406 -2.50866 0)
(-3.55103 -2.52245 -5.21223e-20)
(-3.41465 -2.53298 -2.65021e-20)
(-3.27787 -2.54348 -8.02427e-20)
(-3.13819 -2.55472 0)
(-2.99618 -2.56545 -1.70019e-21)
(-2.85162 -2.57592 -1.19765e-20)
(-2.70466 -2.5859 8.24809e-20)
(-2.55527 -2.59539 4.15946e-20)
(-2.40337 -2.60432 5.58723e-20)
(-2.24882 -2.61258 0)
(-2.09169 -2.61998 1.13931e-19)
(-1.9321 -2.62633 -5.76365e-20)
(-1.7703 -2.63164 8.78678e-20)
(-1.6062 -2.63602 -5.96902e-20)
(-1.43969 -2.63955 6.09322e-20)
(-1.27037 -2.64232 -1.26848e-22)
(-1.09776 -2.6443 0)
(-0.921352 -2.64519 -6.58191e-20)
(-0.741072 -2.64461 0)
(-0.556713 -2.64238 -7.00477e-20)
(-0.367879 -2.63843 7.28526e-20)
(-0.174029 -2.63243 1.13162e-19)
(0.0253832 -2.624 -7.86201e-20)
(0.230961 -2.61298 4.10622e-20)
(0.444144 -2.59944 -4.29243e-20)
(0.667143 -2.58294 4.48376e-20)
(0.902066 -2.56232 -3.57956e-22)