/*--------------------------------*- C++ -*----------------------------------*\
| =========                 |                                                 |
| \\      /  F ield         | OpenFOAM: The Open Source CFD Toolbox           |
|  \\    /   O peration     | Version:  2.3.0                                 |
|   \\  /    A nd           | Web:      www.OpenFOAM.org                      |
|    \\/     M anipulation  |                                                 |
\*---------------------------------------------------------------------------*/
FoamFile
{
    version     2.0;
    format      ascii;
    class       volScalarField;
    location    "4000";
    object      p;
}
// * * * * * * * * * * * * * * * * * * * * * * * * * * * * * * * * * * * * * //

dimensions      [0 2 -2 0 0 0 0];

internalField   nonuniform List<scalar> 
38111
(
-0.0021059
-3.85045
-7.28832
-10.7878
-14.3602
-18.0105
-21.7376
-25.5395
-29.4158
-33.3665
-37.3968
-41.4946
-45.6678
-49.9108
-54.2175
-58.5851
-62.9996
-67.4663
-71.9586
-76.4664
-80.9839
-85.4946
-89.9844
-94.4509
-98.8794
-103.255
-107.541
-111.761
-115.861
-119.85
-123.589
-127.064
-130.099
-132.496
-133.877
-133.804
-132.006
-127.719
-118.979
-104.06
-88.4651
-81.1172
-49.3001
6.81525
3.66819
0.918649
-1.8136
-4.56039
-7.32587
-10.1046
-12.8913
-15.6783
-18.4657
-21.2488
-24.014
-26.7714
-29.5007
-32.2148
-34.8959
-37.5403
-40.1494
-42.7108
-45.2049
-47.6289
-49.9554
-52.1671
-54.2208
-56.0649
-57.659
-58.8877
-59.6852
-59.9228
-59.4564
-58.0451
-55.5461
-51.6692
-46.1391
-38.6031
-28.6165
-15.7603
0.560735
20.9497
46.129
76.4674
113.07
156.062
12.9942
10.5118
8.38813
6.30204
4.22034
2.14073
0.072012
-1.98605
-4.02168
-6.03197
-8.00931
-9.94801
-11.8366
-13.6639
-15.4293
-17.1086
-18.6937
-20.1638
-21.5053
-22.7047
-23.7294
-24.5649
-25.1844
-25.5451
-25.6282
-25.4002
-24.7731
-23.7186
-22.1607
-20
-17.1316
-13.4491
-8.78738
-2.98134
4.14001
12.7704
23.1135
35.3741
49.61
65.9636
84.333
104.889
127.288
18.473
16.5775
14.9432
13.3501
11.7714
10.2116
8.67389
7.16796
5.69358
4.26872
2.88986
1.56893
0.319731
-0.858613
-1.95164
-2.94339
-3.83004
-4.58578
-5.20159
-5.65565
-5.91802
-5.95946
-5.76516
-5.28082
-4.4611
-3.28377
-1.64348
0.487713
3.19369
6.5713
10.7054
15.6918
21.6587
28.7339
37.0071
46.609
57.6257
70.1236
84.0559
99.3524
115.766
132.932
150.306
23.6169
22.0698
20.7649
19.5387
18.3374
17.175
16.0331
14.9346
13.8681
12.858
11.9017
11.0177
10.2061
9.47019
8.83903
8.31285
7.90468
7.63722
7.51505
7.58109
7.82325
8.29737
9.00998
9.99129
11.3003
12.9467
15.0052
17.5251
20.5634
24.1867
28.4627
33.4632
39.2998
46.0269
53.7313
62.4912
72.3297
83.281
95.2751
108.228
121.95
136.152
150.456
27.9344
26.8953
25.8807
24.9503
24.0403
23.1904
22.3512
21.5569
20.7951
20.0825
19.4316
18.8772
18.3846
17.9581
17.6526
17.4312
17.3436
17.3871
17.5875
17.9715
18.5414
19.3354
20.3756
21.6757
23.2934
25.2513
27.5892
30.3922
33.6816
37.531
41.9885
47.0844
52.9397
59.5665
67.0639
75.4319
84.7014
94.8449
105.803
117.458
129.691
142.202
154.743
32.0169
31.1681
30.3614
29.6711
28.9916
28.4162
27.8154
27.2625
26.7159
26.2075
25.7454
25.417
25.1776
24.9946
24.9709
24.9871
25.1174
25.3821
25.7899
26.3952
27.2098
28.2223
29.446
30.9361
32.7076
34.8424
37.3037
40.2095
43.5716
47.4496
51.9047
56.9159
62.6047
68.9926
76.1165
83.9923
92.6666
102.076
112.174
122.742
133.82
145.113
156.479
35.8134
35.047
34.3255
33.7626
33.2169
32.9215
32.5243
32.206
31.831
31.4839
31.1337
30.9547
30.8144
30.6738
30.947
31.1904
31.4957
31.9531
32.4424
33.1534
34.1088
35.3416
36.7837
38.4035
40.1311
42.3681
44.8776
47.8436
51.3221
55.2624
59.6794
64.528
70.0726
76.2806
83.1707
90.7404
99.0109
107.796
117.229
127.064
137.43
147.925
158.408
39.1351
38.6462
38.0363
37.8912
36.8605
36.6817
36.3798
36.3127
36.1285
36.0121
35.7739
35.8861
36.4516
35.2198
35.4056
35.6852
36.0089
36.6673
37.0874
37.6577
38.478
39.71
41.561
43.6264
44.9955
47.0564
49.3888
52.2179
55.805
60.0917
64.6676
69.2351
74.6477
80.8346
87.8283
95.6279
103.983
112.511
121.414
130.345
142.199
152.426
161.992
86.4345
156.929
195.568
220.941
239.859
254.422
265.598
274.173
280.763
285.75
289.55
292.378
294.438
295.889
296.845
297.387
297.608
297.543
297.259
296.787
296.166
295.424
294.58
293.667
292.691
291.676
290.627
289.558
288.47
287.378
286.279
285.18
284.082
282.989
281.899
280.814
279.734
278.658
277.585
276.516
275.448
274.394
273.442
195.391
221.758
241.263
256.406
268.256
277.354
284.206
289.255
292.867
295.35
296.947
297.855
298.234
298.216
297.895
297.35
296.643
295.819
294.913
293.955
292.966
291.955
290.93
289.9
288.866
287.834
286.803
285.778
284.757
283.742
282.733
281.731
280.735
279.747
278.766
277.793
276.828
275.871
274.922
273.981
273.046
272.132
271.374
149.828
170.779
189.461
205.655
219.475
231.119
240.852
248.909
255.55
260.987
265.414
269.003
271.888
274.199
276.021
277.442
278.526
279.328
279.891
280.253
280.446
280.492
280.418
280.243
279.978
279.642
279.241
278.788
278.292
277.756
277.188
276.595
275.978
275.342
274.688
274.02
273.339
272.646
271.942
271.228
270.501
269.778
269.189
167.154
182.896
197.243
210.012
221.186
230.829
239.066
246.019
251.853
256.709
260.725
264.019
266.706
268.882
270.627
272.004
273.078
273.896
274.496
274.92
275.188
275.329
275.36
275.302
275.165
274.967
274.713
274.413
274.075
273.7
273.297
272.872
272.421
271.954
271.466
270.962
270.443
269.91
269.364
268.806
268.236
267.674
267.247
164.476
177.891
190.415
201.855
212.115
221.192
229.127
235.993
241.893
246.934
251.22
254.829
257.873
260.421
262.542
264.302
265.748
266.925
267.875
268.627
269.206
269.646
269.96
270.17
270.289
270.335
270.312
270.233
270.103
269.927
269.712
269.466
269.189
268.887
268.556
268.202
267.829
267.435
267.023
266.598
266.158
265.724
265.426
167.019
178.822
189.916
200.168
209.469
217.794
225.163
231.622
237.247
242.129
246.321
249.897
252.947
255.546
257.736
259.587
261.131
262.412
263.472
264.339
265.031
265.584
266.016
266.344
266.582
266.753
266.858
266.907
266.895
266.835
266.736
266.608
266.452
266.268
266.046
265.796
265.533
265.24
264.932
264.612
264.275
263.948
263.786
167.634
178.37
188.535
197.994
206.694
214.508
221.501
227.656
233.09
237.889
242.009
245.563
248.63
251.285
253.559
255.504
257.139
258.515
259.672
260.632
261.418
262.064
262.602
263.032
263.388
263.684
263.904
264.052
264.121
264.149
264.151
264.141
264.089
264.002
263.849
263.675
263.514
263.295
263.066
262.822
262.556
262.325
262.317
168.704
178.669
188.186
197.075
205.232
212.51
219.164
225.1
230.377
235.123
239.02
242.48
245.525
248.216
250.519
252.491
254.106
255.491
256.68
257.667
258.494
259.189
259.808
260.308
260.782
261.193
261.456
261.63
261.739
261.858
261.986
262.104
262.102
262.077
261.924
261.828
261.801
261.603
261.408
261.195
260.969
260.823
260.969
171.533
181.057
190.147
198.565
205.836
212.205
218.327
223.989
229.356
234.348
237.646
240.942
243.858
246.522
248.682
250.513
251.83
253.116
254.269
255.227
256.072
256.757
257.407
257.903
258.449
258.765
259.184
259.446
259.636
259.89
260.051
260.119
260.144
260.146
260.076
260.128
260.159
259.9
259.764
259.713
259.612
259.576
259.741
131.031
131.08
131.053
131.035
131.011
130.975
130.928
130.868
130.796
130.709
130.609
130.495
130.366
130.224
130.066
129.895
129.709
129.509
129.296
129.07
128.831
128.581
128.32
128.049
127.77
127.482
127.186
126.885
126.579
126.269
125.957
125.643
125.33
125.019
124.711
124.41
124.118
123.841
123.592
123.398
123.307
123.469
124.328
131.794
131.548
131.376
131.206
131.032
130.853
130.671
130.485
130.295
130.103
129.91
129.715
129.521
129.327
129.136
128.947
128.761
128.579
128.399
128.223
128.05
127.879
127.711
127.546
127.381
127.218
127.056
126.894
126.732
126.569
126.407
126.246
126.085
125.928
125.777
125.636
125.514
125.424
125.389
125.483
125.9
126.918
128.418
132.381
132.147
131.999
131.846
131.693
131.542
131.395
131.251
131.109
130.969
130.829
130.689
130.549
130.408
130.266
130.124
129.98
129.834
129.686
129.537
129.384
129.229
129.072
128.912
128.749
128.584
128.416
128.246
128.073
127.9
127.726
127.552
127.382
127.217
127.064
126.93
126.829
126.779
126.823
127.075
127.753
129.071
131.032
132.839
132.766
132.671
132.561
132.445
132.328
132.211
132.093
131.975
131.856
131.735
131.61
131.483
131.352
131.22
131.085
130.95
130.812
130.672
130.53
130.385
130.239
130.09
129.938
129.784
129.627
129.468
129.306
129.141
128.976
128.81
128.645
128.486
128.336
128.203
128.098
128.035
128.042
128.181
128.579
129.418
130.782
132.69
133.496
133.329
133.244
133.149
133.046
132.941
132.835
132.728
132.622
132.514
132.407
132.296
132.183
132.063
131.942
131.819
131.695
131.571
131.445
131.316
131.184
131.05
130.913
130.774
130.631
130.485
130.336
130.184
130.029
129.871
129.714
129.559
129.41
129.276
129.166
129.092
129.069
129.131
129.354
129.863
130.812
132.22
134.064
133.873
133.802
133.744
133.669
133.578
133.482
133.388
133.29
133.2
133.104
133.016
132.921
132.827
132.718
132.606
132.491
132.375
132.261
132.147
132.03
131.906
131.781
131.656
131.529
131.394
131.256
131.115
130.972
130.826
130.675
130.52
130.368
130.222
130.093
129.996
129.947
129.961
130.077
130.368
130.957
131.974
133.428
135.276
134.319
134.235
134.202
134.15
134.071
133.981
133.897
133.799
133.722
133.624
133.56
133.477
133.413
133.316
133.213
133.104
132.998
132.898
132.805
132.703
132.577
132.452
132.336
132.228
132.095
131.959
131.825
131.69
131.556
131.411
131.258
131.105
130.959
130.825
130.724
130.686
130.716
130.863
131.17
131.75
132.749
134.204
136.109
134.694
134.675
134.649
134.602
134.515
134.404
134.355
134.245
134.217
134.076
134.035
133.925
133.914
133.819
133.698
133.563
133.414
133.293
133.217
133.194
133.096
132.943
132.795
132.749
132.646
132.508
132.372
132.247
132.148
132.033
131.886
131.724
131.568
131.408
131.277
131.269
131.348
131.617
132.025
132.64
133.735
135.322
137.298
134.71
134.922
135.145
135.286
135.104
134.808
134.694
134.558
134.678
134.55
134.686
134.498
134.747
134.81
134.816
134.804
134.705
134.395
134.074
134.062
134.173
134.042
133.616
133.575
133.531
133.407
133.213
132.997
132.89
132.844
132.786
132.694
132.608
132.416
132.059
131.884
131.746
131.835
131.945
131.763
132.202
133.78
136.693
128.844
132.307
135.62
138.503
141.128
143.508
145.683
147.683
149.537
151.268
152.895
154.435
155.9
157.305
158.659
159.971
161.248
162.496
163.718
164.918
166.1
167.265
168.414
169.548
170.67
171.777
172.873
173.956
175.026
176.085
177.131
178.166
179.188
180.197
181.193
182.177
183.149
184.107
185.051
185.98
186.895
187.792
188.643
131.097
132.894
135.118
137.371
139.682
141.946
144.138
146.242
148.252
150.168
151.995
153.739
155.407
157.004
158.537
160.011
161.43
162.798
164.12
165.399
166.636
167.837
169.004
170.137
171.241
172.317
173.367
174.392
175.395
176.377
177.34
178.284
179.211
180.123
181.019
181.902
182.772
183.629
184.475
185.31
186.137
186.948
187.746
133.561
135.475
137.555
139.555
141.589
143.596
145.568
147.49
149.351
151.148
152.878
154.541
156.138
157.673
159.149
160.568
161.934
163.251
164.523
165.751
166.94
168.092
169.209
170.295
171.351
172.378
173.381
174.36
175.316
176.251
177.165
178.062
178.94
179.802
180.647
181.477
182.293
183.095
183.884
184.663
185.436
186.182
186.856
134.943
136.879
138.885
140.83
142.797
144.723
146.608
148.439
150.21
151.919
153.564
155.147
156.668
158.132
159.54
160.896
162.202
163.463
164.682
165.86
167.001
168.108
169.182
170.226
171.242
172.232
173.197
174.139
175.058
175.958
176.838
177.7
178.544
179.371
180.183
180.979
181.76
182.528
183.282
184.023
184.753
185.464
186.101
136.161
138.028
139.909
141.787
143.686
145.553
147.381
149.158
150.877
152.536
154.134
155.672
157.152
158.577
159.947
161.268
162.541
163.77
164.958
166.106
167.215
168.29
169.33
170.341
171.322
172.276
173.205
174.11
174.992
175.853
176.693
177.513
178.316
179.103
179.871
180.624
181.363
182.089
182.801
183.499
184.184
184.863
185.576
137.353
139.2
141.014
142.835
144.663
146.459
148.222
149.937
151.6
153.207
154.757
156.253
157.692
159.079
160.414
161.701
162.943
164.142
165.3
166.418
167.494
168.534
169.541
170.519
171.467
172.389
173.283
174.152
174.997
175.821
176.624
177.407
178.171
178.917
179.645
180.356
181.054
181.738
182.41
183.066
183.705
184.339
185.039
138.296
140.216
142.038
143.838
145.611
147.343
149.039
150.691
152.298
153.852
155.354
156.804
158.204
159.553
160.852
162.104
163.315
164.487
165.622
166.709
167.751
168.757
169.733
170.684
171.603
172.497
173.361
174.195
175.01
175.803
176.572
177.322
178.055
178.766
179.456
180.129
180.792
181.442
182.078
182.694
183.289
183.88
184.555
139.525
141.389
143.102
144.804
146.48
148.128
149.753
151.351
152.912
154.42
155.884
157.298
158.672
159.99
161.258
162.486
163.676
164.838
165.969
167.021
168.02
168.987
169.937
170.876
171.767
172.643
173.47
174.267
175.06
175.826
176.56
177.277
177.983
178.66
179.308
179.943
180.572
181.191
181.795
182.368
182.92
183.476
184.133
139.914
142.137
143.882
145.596
147.233
148.806
150.362
151.924
153.457
154.914
156.35
157.716
159.081
160.349
161.579
162.783
163.959
165.119
166.251
167.184
168.133
169.106
170.05
171.03
171.849
172.724
173.492
174.261
175.074
175.801
176.497
177.196
177.902
178.533
179.131
179.746
180.368
180.989
181.58
182.102
182.621
183.171
183.83
-537.563
-513.735
-487.681
-465.604
-441.677
-415.359
-388.554
-362.219
-336.68
-312.234
-289.126
-267.543
-247.597
-229.277
-212.514
-197.297
-183.491
-170.953
-159.497
-148.967
-139.233
-130.181
-121.712
-113.739
-106.195
-99.0208
-92.1537
-85.5571
-79.2038
-73.0708
-67.1315
-61.3726
-55.786
-50.3576
-45.081
-39.9496
-34.9574
-30.1016
-25.3792
-20.7898
-16.3223
-11.9763
-7.12543
-417.345
-415.891
-412.129
-408.042
-404.258
-399.144
-391.744
-382.057
-370.273
-356.626
-341.412
-324.97
-307.733
-290.089
-272.428
-255.085
-238.316
-222.307
-207.154
-192.906
-179.565
-167.078
-155.389
-144.427
-134.139
-124.463
-115.336
-106.704
-98.5212
-90.7442
-83.3351
-76.2594
-69.4899
-63.0052
-56.7805
-50.7973
-45.0424
-39.5015
-34.1593
-29.0109
-24.0397
-19.255
-14.0364
-428.919
-428.504
-428.318
-427.018
-423.983
-419.535
-413.889
-406.705
-397.782
-387.063
-374.621
-360.605
-345.277
-328.902
-311.856
-294.468
-277.072
-259.946
-243.334
-227.358
-212.136
-197.69
-184.056
-171.188
-159.052
-147.608
-136.813
-126.613
-116.967
-107.827
-99.1588
-90.9175
-83.074
-75.6006
-68.4661
-61.6483
-55.1287
-48.8851
-42.8978
-37.1606
-31.651
-26.3859
-20.7587
-404.652
-404.404
-403.847
-402.993
-401.726
-399.852
-397.242
-393.838
-389.418
-383.724
-376.52
-367.671
-357.166
-345.031
-331.495
-316.816
-301.314
-285.328
-269.201
-253.184
-237.521
-222.338
-207.763
-193.826
-180.55
-167.939
-155.979
-144.628
-133.869
-123.659
-113.972
-104.762
-96.0093
-87.6735
-79.7302
-72.1567
-64.9272
-58.0185
-51.4104
-45.0923
-39.0371
-33.2592
-27.1036
-394.008
-393.946
-393.928
-393.771
-393.313
-392.362
-390.744
-388.35
-385.082
-380.808
-375.396
-368.724
-360.701
-351.255
-340.415
-328.262
-314.976
-300.789
-285.993
-270.862
-255.657
-240.604
-225.873
-211.586
-197.804
-184.581
-171.931
-159.852
-148.338
-137.377
-126.939
-117.001
-107.542
-98.5272
-89.9335
-81.7414
-73.9232
-66.4562
-59.3205
-52.5018
-45.9719
-39.7446
-33.0814
-377.389
-377.35
-377.313
-377.186
-376.894
-376.334
-375.384
-373.945
-371.909
-369.154
-365.534
-360.913
-355.161
-348.173
-339.887
-330.3
-319.458
-307.499
-294.613
-281.038
-267.009
-252.781
-238.563
-224.531
-210.807
-197.484
-184.608
-172.206
-160.301
-148.898
-137.988
-127.563
-117.606
-108.095
-99.0135
-90.3412
-82.0583
-74.141
-66.5745
-59.3398
-52.4087
-45.7816
-38.6161
-362.348
-362.356
-362.44
-362.495
-362.443
-362.202
-361.659
-360.708
-359.266
-357.241
-354.529
-351.025
-346.611
-341.186
-334.665
-326.994
-318.158
-308.198
-297.208
-285.348
-272.803
-259.783
-246.505
-233.159
-219.906
-206.872
-194.147
-181.772
-169.797
-158.238
-147.115
-136.429
-126.178
-116.352
-106.942
-97.9318
-89.3061
-81.0507
-73.1504
-65.5896
-58.3474
-51.4537
-44.0293
-346.246
-346.281
-346.401
-346.513
-346.556
-346.474
-346.18
-345.581
-344.6
-343.166
-341.192
-338.585
-335.243
-331.069
-325.966
-319.862
-312.709
-304.497
-295.264
-285.088
-274.108
-262.478
-250.381
-238.007
-225.518
-213.065
-200.761
-188.689
-176.906
-165.441
-154.33
-143.589
-133.234
-123.263
-113.674
-104.465
-95.6218
-87.139
-79.0023
-71.2106
-63.7417
-56.6386
-48.9361
-330.462
-330.518
-330.681
-330.859
-330.994
-331.045
-330.941
-330.594
-329.927
-328.882
-327.391
-325.38
-322.768
-319.47
-315.4
-310.48
-304.651
-297.871
-290.139
-281.484
-271.985
-261.75
-250.924
-239.66
-228.119
-216.447
-204.77
-193.198
-181.802
-170.632
-159.724
-149.106
-138.81
-128.845
-119.218
-109.934
-100.99
-92.3795
-84.0987
-76.1464
-68.4995
-61.2121
-53.2115
-314.705
-314.78
-314.968
-315.182
-315.373
-315.507
-315.532
-315.37
-314.949
-314.211
-313.1
-311.555
-309.512
-306.897
-303.636
-299.651
-294.883
-289.273
-282.807
-275.474
-267.316
-258.401
-248.829
-238.716
-228.208
-217.437
-206.524
-195.593
-184.725
-173.992
-163.436
-153.09
-142.989
-133.161
-123.615
-114.37
-105.426
-96.7836
-88.4461
-80.4151
-72.6769
-65.3117
-57.3221
-299.328
-299.417
-299.626
-299.871
-300.107
-300.306
-300.426
-300.404
-300.169
-299.665
-298.842
-297.649
-296.037
-293.944
-291.303
-288.049
-284.123
-279.463
-274.043
-267.832
-260.85
-253.12
-244.72
-235.728
-226.264
-216.439
-206.37
-196.171
-185.93
-175.734
-165.634
-155.673
-145.88
-136.292
-126.931
-117.821
-108.967
-100.379
-92.0597
-84.0174
-76.238
-68.8028
-60.7434
-284.379
-284.474
-284.694
-284.959
-285.225
-285.469
-285.656
-285.737
-285.647
-285.328
-284.736
-283.829
-282.56
-280.88
-278.734
-276.063
-272.815
-268.932
-264.376
-259.113
-253.137
-246.461
-239.121
-231.183
-222.726
-213.841
-204.642
-195.218
-185.669
-176.075
-166.505
-157.002
-147.604
-138.342
-129.25
-120.352
-111.666
-103.205
-94.9703
-86.9782
-79.2074
-71.7116
-63.4396
-269.965
-270.063
-270.291
-270.571
-270.858
-271.134
-271.372
-271.531
-271.551
-271.379
-270.971
-270.29
-269.297
-267.95
-266.201
-264.002
-261.301
-258.05
-254.208
-249.742
-244.625
-238.863
-232.467
-225.486
-217.968
-209.992
-201.647
-193.013
-184.18
-175.23
-166.232
-157.238
-148.291
-139.424
-130.662
-122.043
-113.588
-105.316
-97.2361
-89.3657
-81.705
-74.3379
-66.2424
-256.123
-256.229
-256.465
-256.753
-257.053
-257.351
-257.626
-257.842
-257.948
-257.894
-257.639
-257.143
-256.374
-255.299
-253.875
-252.059
-249.809
-247.08
-243.831
-240.027
-235.645
-230.671
-225.107
-218.977
-212.32
-205.19
-197.661
-189.799
-181.686
-173.394
-164.992
-156.538
-148.076
-139.643
-131.264
-122.974
-114.8
-106.768
-98.8913
-91.1911
-83.6696
-76.4383
-68.7521
-242.918
-243.028
-243.267
-243.557
-243.867
-244.179
-244.478
-244.734
-244.907
-244.949
-244.814
-244.468
-243.884
-243.029
-241.871
-240.371
-238.494
-236.198
-233.443
-230.199
-226.437
-222.139
-217.3
-211.925
-206.045
-199.694
-192.928
-185.803
-178.39
-170.749
-162.952
-155.048
-147.091
-139.115
-131.152
-123.225
-115.371
-107.614
-99.9723
-92.4693
-85.0972
-77.9396
-70.2519
-230.359
-230.47
-230.707
-230.997
-231.309
-231.63
-231.946
-232.233
-232.456
-232.571
-232.533
-232.312
-231.881
-231.212
-230.275
-229.04
-227.473
-225.537
-223.198
-220.425
-217.188
-213.469
-209.255
-204.545
-199.356
-193.71
-187.646
-181.213
-174.468
-167.46
-160.258
-152.905
-145.457
-137.951
-130.419
-122.881
-115.373
-107.92
-100.545
-93.2692
-86.0958
-79.0783
-71.2272
-218.449
-218.561
-218.796
-219.084
-219.396
-219.722
-220.048
-220.356
-220.615
-220.786
-220.827
-220.709
-220.405
-219.889
-219.138
-218.123
-216.813
-215.179
-213.189
-210.815
-208.028
-204.807
-201.136
-197.008
-192.428
-187.414
-181.99
-176.195
-170.074
-163.671
-157.041
-150.231
-143.288
-136.251
-129.156
-122.022
-114.877
-107.752
-100.671
-93.6619
-86.7339
-79.979
-72.4281
-207.182
-207.295
-207.527
-207.811
-208.122
-208.449
-208.78
-209.1
-209.385
-209.6
-209.705
-209.671
-209.472
-209.085
-208.489
-207.659
-206.569
-205.19
-203.497
-201.461
-199.055
-196.26
-193.055
-189.434
-185.393
-180.942
-176.096
-170.884
-165.342
-159.507
-153.422
-147.135
-140.684
-134.11
-127.448
-120.72
-113.949
-107.166
-100.398
-93.6773
-87.0194
-80.542
-73.4777
-196.551
-196.664
-196.893
-197.172
-197.479
-197.803
-198.136
-198.464
-198.766
-199.013
-199.168
-199.202
-199.09
-198.812
-198.345
-197.671
-196.764
-195.602
-194.159
-192.41
-190.332
-187.903
-185.104
-181.924
-178.356
-174.403
-170.077
-165.394
-160.382
-155.074
-149.504
-143.712
-137.736
-131.61
-125.371
-119.044
-112.647
-106.206
-99.7498
-93.3075
-86.8926
-80.5991
-73.5939
-186.534
-186.647
-186.872
-187.144
-187.444
-187.763
-188.095
-188.426
-188.739
-189.01
-189.204
-189.294
-189.255
-189.065
-188.708
-188.165
-187.416
-186.438
-185.208
-183.705
-181.907
-179.793
-177.345
-174.549
-171.396
-167.884
-164.018
-159.81
-155.282
-150.459
-145.368
-140.044
-134.519
-128.826
-122.996
-117.057
-111.029
-104.929
-98.7858
-92.6247
-86.4606
-80.3824
-73.7088
-177.11
-177.221
-177.44
-177.706
-177.999
-178.313
-178.64
-178.97
-179.288
-179.575
-179.799
-179.933
-179.953
-179.84
-179.576
-179.144
-178.527
-177.705
-176.659
-175.367
-173.81
-171.967
-169.821
-167.357
-164.567
-161.445
-157.991
-154.213
-150.124
-145.743
-141.095
-136.206
-131.105
-125.822
-120.386
-114.821
-109.151
-103.39
-97.5601
-91.6892
-85.7938
-79.9629
-73.565
-168.246
-168.358
-168.571
-168.829
-169.115
-169.421
-169.743
-170.07
-170.392
-170.689
-170.935
-171.103
-171.171
-171.12
-170.934
-170.597
-170.092
-169.403
-168.514
-167.405
-166.056
-164.448
-162.565
-160.392
-157.918
-155.138
-152.048
-148.651
-144.958
-140.981
-136.739
-132.255
-127.551
-122.656
-117.594
-112.389
-107.063
-101.631
-96.1095
-90.5246
-84.8933
-79.2994
-73.1156
-159.918
-160.034
-160.241
-160.49
-160.766
-161.064
-161.378
-161.701
-162.022
-162.325
-162.587
-162.783
-162.889
-162.89
-162.77
-162.513
-162.105
-161.531
-160.776
-159.82
-158.648
-157.243
-155.589
-153.672
-151.478
-148.999
-146.233
-143.177
-139.839
-136.227
-132.356
-128.244
-123.91
-119.377
-114.668
-109.805
-104.807
-99.6922
-94.4729
-89.1707
-83.8047
-78.455
-72.572
-152.1
-152.218
-152.419
-152.658
-152.926
-153.214
-153.521
-153.837
-154.154
-154.459
-154.732
-154.948
-155.086
-155.13
-155.064
-154.875
-154.55
-154.075
-153.434
-152.613
-151.596
-150.367
-148.911
-147.214
-145.263
-143.05
-140.568
-137.817
-134.798
-131.516
-127.984
-124.212
-120.221
-116.026
-111.649
-107.108
-102.424
-97.6113
-92.6835
-87.6575
-82.5523
-77.4469
-71.8727
-144.764
-144.882
-145.076
-145.307
-145.564
-145.844
-146.142
-146.451
-146.763
-147.067
-147.345
-147.577
-147.74
-147.818
-147.799
-147.668
-147.412
-147.02
-146.478
-145.773
-144.89
-143.813
-142.53
-141.025
-139.288
-137.31
-135.082
-132.601
-129.867
-126.882
-123.656
-120.196
-116.519
-112.638
-108.571
-104.334
-99.9459
-95.4204
-90.7693
-86.0072
-81.1457
-76.2513
-70.897
-137.883
-137.999
-138.186
-138.408
-138.656
-138.926
-139.215
-139.515
-139.821
-140.121
-140.402
-140.644
-140.827
-140.934
-140.951
-140.867
-140.672
-140.352
-139.895
-139.289
-138.521
-137.578
-136.445
-135.109
-133.56
-131.787
-129.782
-127.542
-125.063
-122.347
-119.398
-116.224
-112.834
-109.243
-105.463
-101.512
-97.4018
-93.1494
-88.7634
-84.2555
-79.6356
-74.9615
-69.8519
-131.428
-131.54
-131.72
-131.933
-132.173
-132.433
-132.712
-133.003
-133.301
-133.596
-133.877
-134.125
-134.322
-134.452
-134.502
-134.459
-134.313
-134.054
-133.67
-133.151
-132.483
-131.654
-130.652
-129.465
-128.08
-126.489
-124.684
-122.657
-120.405
-117.929
-115.23
-112.314
-109.19
-105.865
-102.353
-98.6673
-94.8185
-90.8238
-86.6906
-82.4315
-78.0534
-73.618
-68.7781
-125.371
-125.478
-125.651
-125.856
-126.086
-126.337
-126.606
-126.888
-127.177
-127.466
-127.744
-127.996
-128.203
-128.35
-128.425
-128.417
-128.314
-128.107
-127.786
-127.341
-126.761
-126.031
-125.143
-124.085
-122.846
-121.415
-119.784
-117.948
-115.9
-113.64
-111.168
-108.487
-105.603
-102.524
-99.2589
-95.8196
-92.2167
-88.4632
-84.5688
-80.5432
-76.3919
-72.1692
-67.5417
-119.685
-119.787
-119.954
-120.151
-120.371
-120.612
-120.871
-121.143
-121.424
-121.705
-121.979
-122.232
-122.446
-122.607
-122.702
-122.722
-122.655
-122.493
-122.226
-121.846
-121.34
-120.699
-119.911
-118.966
-117.854
-116.565
-115.089
-113.421
-111.555
-109.489
-107.22
-104.753
-102.089
-99.2342
-96.1972
-92.9871
-89.6129
-86.0861
-82.4161
-78.6119
-74.6779
-70.664
-66.2629
-114.345
-114.444
-114.603
-114.792
-115.003
-115.235
-115.484
-115.746
-116.017
-116.291
-116.56
-116.811
-117.028
-117.199
-117.311
-117.354
-117.317
-117.194
-116.974
-116.649
-116.208
-115.643
-114.943
-114.098
-113.098
-111.933
-110.596
-109.079
-107.375
-105.482
-103.396
-101.122
-98.6575
-96.009
-93.1818
-90.1838
-87.0218
-83.7069
-80.2468
-76.6504
-72.9199
-69.0992
-64.8898
-109.33
-109.423
-109.577
-109.758
-109.96
-110.182
-110.421
-110.674
-110.936
-111.201
-111.463
-111.71
-111.93
-112.109
-112.233
-112.293
-112.283
-112.191
-112.01
-111.733
-111.35
-110.851
-110.228
-109.47
-108.568
-107.514
-106.299
-104.915
-103.357
-101.62
-99.7018
-97.6013
-95.3189
-92.8574
-90.2229
-87.4204
-84.4563
-81.3387
-78.0758
-74.6759
-71.14
-67.513
-63.4935
-104.615
-104.705
-104.852
-105.026
-105.219
-105.432
-105.662
-105.904
-106.155
-106.412
-106.667
-106.91
-107.129
-107.312
-107.446
-107.522
-107.533
-107.469
-107.323
-107.087
-106.753
-106.311
-105.755
-105.074
-104.259
-103.303
-102.196
-100.932
-99.5028
-97.9057
-96.1364
-94.1935
-92.0766
-89.787
-87.3289
-84.7063
-81.9251
-78.9919
-75.9132
-72.6973
-69.3456
-65.8996
-62.0478
-100.181
-100.267
-100.408
-100.574
-100.759
-100.963
-101.183
-101.415
-101.657
-101.905
-102.152
-102.389
-102.606
-102.791
-102.933
-103.021
-103.049
-103.008
-102.891
-102.691
-102.4
-102.009
-101.511
-100.898
-100.161
-99.2901
-98.2791
-97.1208
-95.8083
-94.3367
-92.7022
-90.9019
-88.9351
-86.8024
-84.5064
-82.0497
-79.4371
-76.6746
-73.7675
-70.7237
-67.5425
-64.264
-60.5579
-96.0082
-96.0903
-96.2257
-96.3851
-96.5624
-96.7574
-96.9678
-97.1908
-97.4231
-97.6608
-97.8993
-98.1306
-98.3448
-98.5299
-98.6769
-98.7754
-98.8164
-98.7941
-98.7022
-98.5326
-98.2785
-97.933
-97.4872
-96.933
-96.2625
-95.4691
-94.5447
-93.4805
-92.2712
-90.9118
-89.3977
-87.7265
-85.8964
-83.9063
-81.7583
-79.4542
-76.9985
-74.3948
-71.6487
-68.7694
-65.7583
-62.6626
-59.1936
-92.0798
-92.1577
-92.2871
-92.4398
-92.6094
-92.7958
-92.9967
-93.2103
-93.433
-93.6618
-93.8919
-94.1164
-94.3262
-94.5105
-94.6592
-94.7641
-94.8178
-94.8125
-94.7412
-94.5981
-94.3762
-94.0682
-93.667
-93.1653
-92.5558
-91.8305
-90.9818
-90.0023
-88.8864
-87.6284
-86.2237
-84.6691
-82.9623
-81.1018
-79.0892
-76.9246
-74.6127
-72.1556
-69.558
-66.8276
-63.966
-61.0142
-57.7203
-88.3782
-88.4516
-88.5757
-88.7219
-88.8838
-89.0616
-89.254
-89.4582
-89.6717
-89.8917
-90.1132
-90.3302
-90.5347
-90.7174
-90.8682
-90.9785
-91.0407
-91.0475
-90.9941
-90.8737
-90.6794
-90.4056
-90.0444
-89.5885
-89.0317
-88.3662
-87.5845
-86.6803
-85.6481
-84.481
-83.1742
-81.7247
-80.1298
-78.3878
-76.4992
-74.4631
-72.2831
-69.96
-67.4991
-64.904
-62.1753
-59.3421
-56.1871
-84.8877
-84.9569
-85.0759
-85.2157
-85.3703
-85.5401
-85.724
-85.9189
-86.1232
-86.3339
-86.5469
-86.7564
-86.955
-87.1341
-87.2843
-87.3976
-87.4672
-87.4856
-87.4471
-87.3456
-87.1758
-86.9308
-86.604
-86.1887
-85.6786
-85.0669
-84.3459
-83.5091
-82.5506
-81.4652
-80.2474
-78.8939
-77.401
-75.7667
-73.9905
-72.0721
-70.0139
-67.8161
-65.482
-63.0139
-60.4144
-57.7059
-54.6955
-81.5936
-81.6586
-81.7735
-81.9071
-82.0544
-82.2165
-82.3917
-82.5782
-82.7734
-82.9747
-83.179
-83.3808
-83.5735
-83.749
-83.8984
-84.014
-84.0886
-84.1156
-84.0891
-84.0042
-83.8551
-83.6354
-83.339
-82.9599
-82.4914
-81.9268
-81.2594
-80.4827
-79.5913
-78.5791
-77.4415
-76.1735
-74.7726
-73.2369
-71.5641
-69.7537
-67.8072
-65.7238
-63.5088
-61.1637
-58.6903
-56.1146
-53.2686
-78.4826
-78.5432
-78.6538
-78.7816
-78.922
-79.0762
-79.2436
-79.4219
-79.6081
-79.8007
-79.9961
-80.1899
-80.3759
-80.5466
-80.6942
-80.8105
-80.8881
-80.9216
-80.9057
-80.8349
-80.7035
-80.5059
-80.2362
-79.8889
-79.4566
-78.9337
-78.3146
-77.5924
-76.7608
-75.8148
-74.749
-73.5598
-72.2428
-70.7965
-69.2181
-67.5067
-65.6637
-63.6881
-61.582
-59.3478
-56.9871
-54.5213
-51.7866
-75.5416
-75.5983
-75.7047
-75.8266
-75.9602
-76.1073
-76.267
-76.4369
-76.6149
-76.799
-76.9861
-77.1719
-77.3511
-77.5166
-77.661
-77.7769
-77.8573
-77.8965
-77.8892
-77.8295
-77.7133
-77.535
-77.2886
-76.9686
-76.5695
-76.0845
-75.5072
-74.8324
-74.0545
-73.1685
-72.1679
-71.0493
-69.8091
-68.4442
-66.9522
-65.3319
-63.5833
-61.7058
-59.7013
-57.5719
-55.3168
-52.9586
-50.332
-72.7592
-72.8137
-72.9152
-73.0312
-73.1584
-73.2986
-73.4508
-73.6129
-73.7825
-73.9582
-74.137
-74.315
-74.4873
-74.6473
-74.7883
-74.9029
-74.9842
-75.0273
-75.0264
-74.9768
-74.8734
-74.7113
-74.4853
-74.1896
-73.819
-73.3672
-72.8288
-72.1985
-71.4689
-70.6356
-69.6944
-68.6401
-67.4689
-66.178
-64.765
-63.2287
-61.5671
-59.7816
-57.8705
-55.8366
-53.6807
-51.4235
-48.8839
-70.125
-70.1781
-70.2744
-70.3845
-70.5055
-70.6389
-70.7839
-70.9381
-71.0999
-71.2674
-71.438
-71.608
-71.7734
-71.9279
-72.0641
-72.1766
-72.2586
-72.3044
-72.309
-72.2676
-72.1757
-72.0278
-71.819
-71.5448
-71.1992
-70.7768
-70.2721
-69.6795
-68.9941
-68.2101
-67.3217
-66.3253
-65.2176
-63.9948
-62.6539
-61.1943
-59.6131
-57.9106
-56.087
-54.1449
-52.0818
-49.9186
-47.4613
-67.6296
-67.6811
-67.7725
-67.877
-67.9922
-68.1193
-68.2572
-68.404
-68.5579
-68.7174
-68.88
-69.0424
-69.2004
-69.3485
-69.4805
-69.5902
-69.6719
-69.7193
-69.728
-69.6935
-69.6104
-69.4749
-69.2819
-69.0265
-68.7039
-68.3077
-67.8334
-67.2753
-66.6279
-65.8869
-65.0473
-64.1045
-63.054
-61.8927
-60.6178
-59.2284
-57.722
-56.0984
-54.3573
-52.5005
-50.5296
-48.4727
-46.1537
-65.2636
-65.3135
-65.4002
-65.4991
-65.6086
-65.7294
-65.8605
-66
-66.1466
-66.2984
-66.4528
-66.6077
-66.7589
-66.9007
-67.0278
-67.1343
-67.2141
-67.2625
-67.274
-67.2443
-67.169
-67.0439
-66.8643
-66.6251
-66.3214
-65.9488
-65.5019
-64.9759
-64.3646
-63.6627
-62.866
-61.971
-60.9732
-59.8684
-58.6543
-57.329
-55.8903
-54.3379
-52.6712