/*--------------------------------*- C++ -*----------------------------------*\
| =========                 |                                                 |
| \\      /  F ield         | OpenFOAM: The Open Source CFD Toolbox           |
|  \\    /   O peration     | Version:  2.3.0                                 |
|   \\  /    A nd           | Web:      www.OpenFOAM.org                      |
|    \\/     M anipulation  |                                                 |
\*---------------------------------------------------------------------------*/
FoamFile
{
    version     2.0;
    format      ascii;
    class       volScalarField;
    location    "3000";
    object      nut;
}
// * * * * * * * * * * * * * * * * * * * * * * * * * * * * * * * * * * * * * //

dimensions      [0 2 -1 0 0 0 0];

internalField   nonuniform List<scalar> 
38375
(
0.0431968
0.0415825
0.0400072
0.0384767
0.0369947
0.0355593
0.0341554
0.0327782
0.031432
0.0301218
0.0288508
0.027619
0.0264235
0.0252601
0.0241276
0.0230251
0.0219552
0.0209189
0.0199169
0.0189488
0.0180141
0.0171106
0.0162371
0.0153907
0.0145691
0.0137694
0.0129883
0.0122232
0.0114713
0.0107297
0.00999663
0.00927112
0.00855442
0.00784751
0.00715795
0.00649224
0.00586237
0.00528479
0.00477227
0.00433392
0.00397407
0.00371142
0.00365064
0.0453031
0.0438573
0.0424436
0.0410591
0.0397031
0.0383749
0.0370726
0.0357956
0.0345466
0.0333274
0.0321416
0.0309933
0.0298841
0.0288062
0.0277499
0.026712
0.0256944
0.0246992
0.0237288
0.022785
0.0218696
0.0209826
0.0201253
0.0192975
0.0185
0.0177328
0.0169965
0.0162903
0.0156156
0.0149718
0.0143583
0.013777
0.0132276
0.0127114
0.0122278
0.0117813
0.0113734
0.01101
0.0106966
0.0104496
0.010309
0.0103543
0.0106603
0.0472304
0.045949
0.0446892
0.0434503
0.042232
0.0410339
0.0398563
0.0386983
0.0375609
0.0364445
0.0353497
0.0342768
0.033226
0.0321961
0.0311858
0.0301932
0.02922
0.0282658
0.0273315
0.0264188
0.0255289
0.0246623
0.0238216
0.0230055
0.0222169
0.0214563
0.0207255
0.0200262
0.0193605
0.0187307
0.0181405
0.0175923
0.0170904
0.0166407
0.0162486
0.015919
0.0156602
0.0154806
0.0153896
0.0153966
0.015511
0.0157405
0.0160847
0.0489927
0.0478528
0.0467299
0.0456222
0.0445299
0.0434527
0.0423912
0.0413448
0.0403141
0.039299
0.0383001
0.0373173
0.0363504
0.0353999
0.0344644
0.033545
0.0326411
0.0317532
0.030882
0.0300282
0.0291939
0.02838
0.027587
0.0268175
0.0260722
0.0253536
0.0246634
0.0240039
0.0233778
0.0227874
0.0222364
0.0217293
0.021271
0.0208652
0.0205185
0.0202373
0.0200276
0.0198971
0.0198521
0.0198989
0.020042
0.0202844
0.0206258
0.0505883
0.0495752
0.0485722
0.0475797
0.0465978
0.0456267
0.0446669
0.043718
0.0427809
0.0418556
0.0409421
0.040041
0.0391518
0.0382752
0.0374109
0.0365595
0.035721
0.0348952
0.034083
0.0332852
0.0325029
0.0317372
0.03099
0.0302624
0.0295575
0.0288767
0.028222
0.0275964
0.0270027
0.0264438
0.025923
0.0254456
0.0250149
0.024636
0.0243159
0.0240585
0.0238711
0.0237604
0.0237313
0.0237886
0.0239372
0.0241783
0.0245119
0.0520346
0.05113
0.0502308
0.0493381
0.0484518
0.0475724
0.0467005
0.045836
0.0449793
0.0441308
0.0432911
0.0424598
0.0416368
0.0408241
0.0400217
0.0392287
0.0384459
0.0376737
0.0369129
0.0361638
0.0354276
0.034704
0.0339949
0.0333043
0.032633
0.031983
0.0313568
0.030758
0.0301895
0.0296553
0.0291576
0.0287012
0.0282905
0.02793
0.0276265
0.0273842
0.0272103
0.0271098
0.0270881
0.0271494
0.0272978
0.0275354
0.0278623
0.0533455
0.0525321
0.0517221
0.050916
0.050113
0.0493118
0.0485158
0.0477239
0.0469363
0.046153
0.0453757
0.0446049
0.0438386
0.0430786
0.0423272
0.0415841
0.040849
0.0401219
0.0394036
0.0386958
0.0379994
0.0373139
0.0366386
0.0359774
0.0353351
0.0347112
0.0341088
0.0335309
0.0329813
0.0324655
0.0319864
0.0315475
0.0311513
0.0308047
0.0305122
0.0302809
0.0301157
0.0300221
0.0300046
0.0300673
0.0302148
0.0304488
0.0307702
0.05453
0.0537955
0.0530622
0.0523306
0.0516031
0.050866
0.0501363
0.0494063
0.0486796
0.0479523
0.0472254
0.0465076
0.0457922
0.0450739
0.0443643
0.0436624
0.0429681
0.0422799
0.0415964
0.0409213
0.0402587
0.0396083
0.0389663
0.0383277
0.0377089
0.0371099
0.0365271
0.0359699
0.0354305
0.0349283
0.0344634
0.0340388
0.033657
0.03332
0.0330345
0.0328112
0.0326529
0.0325646
0.0325501
0.0326155
0.0327597
0.0329897
0.0333055
0.055601
0.0549307
0.0542646
0.0535925
0.0529496
0.0522538
0.0515831
0.0509012
0.0502297
0.049559
0.0488624
0.0481854
0.0475237
0.0468411
0.0461652
0.0454937
0.0448315
0.0441777
0.0435283
0.0428752
0.0422366
0.0416146
0.0410219
0.0403979
0.0397918
0.0392217
0.0386434
0.0381247
0.0375857
0.0370922
0.0366365
0.0362215
0.0358535
0.0355324
0.0352448
0.0350295
0.0348746
0.034795
0.0347786
0.0348521
0.0349878
0.0352185
0.0355186
0.00440212
0.00576098
0.00676675
0.00781177
0.0089275
0.0101033
0.0113262
0.0125871
0.0138775
0.0151912
0.0165257
0.0178777
0.0192467
0.0206303
0.022029
0.0234394
0.0248639
0.0262995
0.027748
0.0292082
0.0306802
0.0321639
0.0336589
0.0351656
0.0366836
0.0382125
0.0397523
0.0413028
0.0428634
0.044434
0.046014
0.0476031
0.0492009
0.0508065
0.0524198
0.0540401
0.0556665
0.0572985
0.0589351
0.0605756
0.0622187
0.0638639
0.0655098
0.0111534
0.0117998
0.0125572
0.0134173
0.0143719
0.0154057
0.0165071
0.0176633
0.0188633
0.0200991
0.021364
0.0226521
0.0239582
0.0252789
0.0266134
0.0279593
0.0293139
0.0306784
0.0320502
0.0334295
0.0348155
0.0362078
0.0376065
0.039011
0.0404215
0.0418376
0.0432589
0.0446856
0.0461174
0.047554
0.0489954
0.0504414
0.0518919
0.0533462
0.0548044
0.0562663
0.0577314
0.0591994
0.0606699
0.0621421
0.063616
0.0650907
0.0665639
0.0165391
0.0171017
0.0177724
0.0185434
0.019404
0.020344
0.0213521
0.0224174
0.0235311
0.0246844
0.025868
0.0270779
0.0283087
0.0295563
0.0308163
0.0320877
0.0333675
0.034654
0.035946
0.0372426
0.038543
0.0398467
0.041153
0.0424617
0.0437724
0.0450848
0.0463988
0.0477141
0.0490307
0.0503486
0.0516676
0.0529877
0.0543086
0.0556304
0.0569533
0.0582769
0.0596011
0.0609259
0.0622512
0.0635765
0.0649017
0.0662264
0.0675495
0.0210622
0.0215958
0.0222259
0.0229488
0.0237549
0.0246358
0.0255826
0.0265854
0.0276351
0.0287247
0.0298463
0.0309931
0.0321606
0.0333447
0.0345415
0.0357468
0.0369601
0.038178
0.0393993
0.0406228
0.0418477
0.0430732
0.0442982
0.0455229
0.0467465
0.0479688
0.0491895
0.0504083
0.0516249
0.0528399
0.0540528
0.0552636
0.0564726
0.0576796
0.0588852
0.0600891
0.0612912
0.0624916
0.0636904
0.0648875
0.0660829
0.0672767
0.0684693
0.0249361
0.0254513
0.0260574
0.0267481
0.0275183
0.0283593
0.0292625
0.0302194
0.0312219
0.0322624
0.0333335
0.0344301
0.0355458
0.0366766
0.0378188
0.0389689
0.0401245
0.0412834
0.0424435
0.043604
0.0447636
0.0459214
0.0470767
0.0482292
0.0493782
0.050523
0.0516633
0.0527991
0.0539301
0.0550563
0.0561778
0.0572945
0.0584068
0.0595152
0.0606196
0.0617203
0.0628168
0.0639093
0.064998
0.0660831
0.0671649
0.0682436
0.0693203
0.0282776
0.0287799
0.0293677
0.0300367
0.0307803
0.0315911
0.0324619
0.0333838
0.0343498
0.0353515
0.0363831
0.0374376
0.0385107
0.0395971
0.0406944
0.041798
0.0429049
0.044013
0.0451205
0.0462268
0.0473308
0.0484314
0.0495275
0.0506186
0.0517039
0.0527825
0.053854
0.0549189
0.0559765
0.0570263
0.0580688
0.0591046
0.0601342
0.0611578
0.0621756
0.0631869
0.0641922
0.0651911
0.0661841
0.0671715
0.0681537
0.0691313
0.0701059
0.0311785
0.0316716
0.0322458
0.0328967
0.0336193
0.0344076
0.0352522
0.0361467
0.0370833
0.0380543
0.0390521
0.0400726
0.04111
0.0421599
0.043219
0.0442834
0.0453488
0.0464127
0.0474748
0.0485348
0.049592
0.0506442
0.0516905
0.0527296
0.0537605
0.0547821
0.0557947
0.0567993
0.0577937
0.058777
0.0597511
0.0607175
0.0616764
0.0626276
0.0635708
0.0645051
0.0654314
0.066349
0.0672584
0.0681605
0.0690557
0.0699447
0.0708296
0.0337108
0.0341971
0.0347623
0.0353948
0.0361009
0.0368714
0.0376945
0.038566
0.0394795
0.0404254
0.041394
0.0423843
0.0433926
0.0444124
0.0454403
0.0464708
0.0474996
0.048524
0.0495465
0.0505675
0.0515869
0.0525972
0.0536021
0.0545977
0.0555807
0.0565526
0.0575147
0.0584711
0.0594088
0.0603325
0.0612475
0.0621549
0.0630537
0.0639437
0.0648223
0.0656889
0.0665481
0.0673943
0.0682301
0.0690576
0.069877
0.0706883
0.0714931
0.0359304
0.03641
0.0369715
0.0375763
0.0382706
0.0390309
0.0398307
0.0406839
0.0415789
0.0425051
0.0434427
0.0444086
0.0453922
0.0463874
0.0473901
0.0483909
0.049386
0.0503725
0.0513644
0.0523536
0.0533478
0.0543163
0.055294
0.0562499
0.0571889
0.0581197
0.0590396
0.0599666
0.0608392
0.0617098
0.0625762
0.0634348
0.064283
0.0651235
0.0659453
0.0667496
0.0675562
0.0683357
0.0691073
0.0698708
0.0706247
0.0713698
0.0721044
0.0868644
0.0825517
0.0783774
0.0743417
0.0704444
0.0666836
0.0630585
0.0595672
0.0562068
0.052974
0.0498672
0.0468827
0.0440178
0.0412689
0.0386337
0.0361089
0.0336908
0.0313764
0.0291644
0.0270493
0.0250296
0.0231025
0.0212654
0.019515
0.0178501
0.0162662
0.0147625
0.0133375
0.0119886
0.0107136
0.00951153
0.00838046
0.00732039
0.00633013
0.00540894
0.00455739
0.00377565
0.00306523
0.00242688
0.00186854
0.00143769
0.00103191
0.000599998
0.0884825
0.0844896
0.0806102
0.0768437
0.0731907
0.06965
0.0662204
0.0629004
0.0596876
0.0565804
0.0535766
0.0506741
0.0478714
0.0451654
0.0425538
0.0400346
0.0376057
0.0352659
0.0330118
0.0308424
0.0287551
0.0267483
0.0248199
0.0229695
0.0211941
0.0194931
0.0178657
0.01631
0.0148251
0.0134109
0.0120663
0.0107922
0.00958796
0.00845477
0.00739344
0.00640597
0.00549612
0.00467211
0.00397002
0.00329887
0.00262977
0.00191804
0.00109671
0.0900835
0.0863847
0.082779
0.0792655
0.0758438
0.0725131
0.0692729
0.066121
0.0630562
0.0600769
0.0571815
0.0543689
0.0516377
0.048986
0.0464118
0.0439141
0.0414916
0.0391425
0.0368661
0.0346606
0.032526
0.0304595
0.0284611
0.0265309
0.0246672
0.0228693
0.0211375
0.0194708
0.0178702
0.0163355
0.0148676
0.013467
0.0121365
0.0108781
0.00969511
0.00859668
0.00760176
0.00668081
0.00577045
0.00484114
0.00385777
0.00275261
0.00151491
0.0916555
0.0882244
0.0848705
0.0815907
0.0783839
0.0752491
0.0721865
0.0691935
0.0662699
0.0634144
0.0606253
0.0579025
0.0552451
0.0526513
0.0501207
0.0476514
0.0452433
0.0428958
0.0406078
0.0383793
0.0362094
0.0340973
0.0320445
0.0300499
0.0281134
0.0262356
0.0244174
0.0226591
0.0209616
0.0193266
0.0177557
0.0162509
0.0148172
0.013458
0.0121844
0.0110145
0.00987607
0.00873636
0.00756888
0.0063437
0.00501754
0.0035101
0.00187896
0.0931791
0.0899958
0.0868743
0.0838107
0.0808027
0.0778502
0.0749523
0.0721083
0.0693176
0.0665791
0.0638924
0.061257
0.0586721
0.0561376
0.0536517
0.0512142
0.048826
0.0464865
0.0441951
0.041952
0.0397568
0.0376098
0.0355129
0.033466
0.0314699
0.0295261
0.0276372
0.0258024
0.0240251
0.0223086
0.0206542
0.0190674
0.0175545
0.0161296
0.0147704
0.0134315
0.0120851
0.0107085
0.00927484
0.00775113
0.00608472
0.00419412
0.00220089
0.0946313
0.0916878
0.088784
0.0859197
0.0830951
0.0803102
0.0775651
0.0748593
0.0721923
0.0695641
0.0669741
0.0644222
0.0619078
0.0594306
0.0569904
0.0545871
0.0522212
0.0498931
0.0476036
0.0453526
0.0431399
0.040967
0.0388345
0.0367439
0.0346984
0.0327006
0.0307517
0.0288552
0.0270139
0.0252312
0.0235119
0.0218642
0.0202927
0.0187631
0.0172471
0.0157202
0.0141621
0.0125504
0.0108573
0.00904564
0.00705667
0.00481136
0.00248811
0.0960407
0.0933041
0.090596
0.0879141
0.0852581
0.082627
0.0800224
0.0774443
0.074892
0.0723663
0.0698668
0.0673937
0.0649461
0.0625247
0.0601297
0.0577608
0.0554182
0.0531038
0.0508193
0.0485661
0.0463432
0.0441511
0.0419902
0.0398634
0.0377754
0.0357303
0.0337332
0.0317866
0.029894
0.0280595
0.0262912
0.024582
0.0229045
0.0212359
0.0195558
0.0178449
0.0160832
0.0142471
0.0123079
0.0102258
0.00793699
0.00536462
0.00274395
0.0973749
0.0948344
0.0923072
0.0897928
0.0872918
0.0847996
0.0823243
0.0798643
0.0774179
0.0749861
0.0725699
0.0701713
0.0677874
0.0654173
0.063067
0.0607343
0.0584163
0.0561138
0.0538354
0.0515831
0.0493565
0.0471545
0.0449732
0.0428147
0.040688
0.0386006
0.0365611
0.0345753
0.0326441
0.0307651
0.0289303
0.0271253
0.0253275
0.0235197
0.0216829
0.0197976
0.0178434
0.015797
0.0136269
0.0112979
0.00874054
0.00586592
0.00296623
0.0986624
0.0962797
0.0939179
0.0915545
0.0892003
0.086828
0.084471
0.0821231
0.0797726
0.0774281
0.0750847
0.0727571
0.0704385
0.0681104
0.0658031
0.0635079
0.061221
0.0589254
0.0566505
0.0543989
0.0521716
0.0499717
0.0477837
0.0455965
0.0434326
0.0413023
0.0392211
0.0372015
0.035236
0.0332983
0.0313755
0.0294667
0.0275483
0.0256113
0.0236314
0.0215811
0.0194447
0.0172036
0.0148165
0.0122602
0.00950453
0.0064092
0.00326219
0.000460513
0.00052197
0.000701701
0.000871625
0.00104437
0.00123413
0.00145653
0.00172654
0.00203572
0.00237667
0.00274674
0.00314402
0.00356829
0.00401918
0.00449688
0.0050019
0.00553448
0.00609526
0.00668481
0.0073038
0.00795257
0.00863176
0.00934211
0.0100843
0.0108591
0.0116673
0.0125091
0.0133862
0.0142986
0.0152476
0.0162339
0.0172584
0.0183219
0.019425
0.0205688
0.0217544
0.0229823
0.0242536
0.0255695
0.0269317
0.0283418
0.0298015
0.0313105
0.000623561
0.000676008
0.00086773
0.00106795
0.00129025
0.00154702
0.00184449
0.00218448
0.00256181
0.00296684
0.00339798
0.00385422
0.00433486
0.00484001
0.00536919
0.00592292
0.00650097
0.00710385
0.00773158
0.00838473
0.00906332
0.00976791
0.0104989
0.0112567
0.0120419
0.012855
0.0136967
0.0145675
0.0154681
0.0163991
0.0173612
0.0183551
0.0193814
0.0204408
0.021534
0.0226622
0.0238259
0.025026
0.0262637
0.0275402
0.028856
0.0302106
0.0316037
0.000784237
0.000826355
0.00104735
0.0012954
0.00158085
0.00190767
0.00227372
0.00267822
0.00311673
0.00358065
0.00406838
0.00457896
0.00511203
0.00566691
0.00624339
0.00684145
0.00746082
0.00810161
0.0087636
0.00944686
0.010152
0.0108786
0.0116272
0.012398
0.0131916
0.0140081
0.0148476
0.0157112
0.016599
0.0175114
0.018449
0.0194124
0.0204021
0.0214187
0.0224628
0.0235351
0.0246365
0.0257673
0.0269285
0.0281205
0.029343
0.0305953
0.0318762
0.000933666
0.000976008
0.00124006
0.00154513
0.00189471
0.00228514
0.0027113
0.00317572
0.0036691
0.00418591
0.00472467
0.0052842
0.00586409
0.00646368
0.00708222
0.00771961
0.0083752
0.00904917
0.00974112
0.0104507
0.0111782
0.0119234
0.0126867
0.0134677
0.0142672
0.015085
0.0159213
0.0167767
0.0176513
0.0185454
0.0194594
0.0203939
0.0213492
0.0223257
0.0233238
0.0243442
0.0253873
0.0264535
0.0275429
0.0286559
0.0297919
0.0309497
0.032129
0.00107267
0.00112887
0.00144375
0.0018069
0.00221565
0.00266241
0.00314329
0.00366108
0.00420398
0.00476859
0.00535328
0.00595701
0.00657902
0.00721827
0.00787403
0.00854616
0.00923381
0.00993664
0.0106543
0.0113867
0.0121332
0.012894
0.0136691
0.0144585
0.0152622
0.0160801
0.0169123
0.0177592
0.0186212
0.0194978
0.0203896
0.021297
0.0222201
0.0231594
0.0241151
0.0250874
0.0260769
0.0270833
0.0281068
0.0291471
0.0302037
0.031276
0.0323636
0.00120446
0.00128544
0.00165323
0.00207115
0.00253301
0.00303013
0.00356149
0.00412636
0.00471402
0.00532184
0.00594793
0.00659117
0.00725065
0.00792553
0.00861467
0.00931763
0.0100335
0.0107617
0.0115018
0.0122537
0.0130168
0.013791
0.014576
0.0153719
0.0161785
0.0169959
0.0178238
0.0186624
0.0195118
0.020372
0.0212431
0.0221253
0.0230189
0.023924
0.0248405
0.0257686
0.0267082
0.0276596
0.0286226
0.0295968
0.0305817
0.0315769
0.0325829
0.00133108
0.00144361
0.00186313
0.00233103
0.0028397
0.00338161
0.00395999
0.00456715
0.00519509
0.00584176
0.00650529
0.00718422
0.00787759
0.0085842
0.00930311
0.0100334
0.0107744
0.0115252
0.0122851
0.0130542
0.0138317
0.0146173
0.015411
0.0162123
0.017021
0.017837
0.0186605
0.0194912
0.0203291
0.0211736
0.022025
0.0228839
0.0237501
0.0246236
0.0255043
0.0263917
0.0272856
0.0281865
0.0290943
0.0300082
0.0309283
0.0318546
0.0327881
0.00145294
0.00160512
0.0020704
0.00258177
0.00313223
0.00371567
0.00433601
0.00498119
0.00564563
0.00632724
0.00702441
0.00773593
0.00846078
0.00919711
0.00994267
0.0106973
0.0114607
0.0122316
0.0130092
0.0137934
0.0145836
0.0153796
0.016181
0.0169867
0.0177961
0.0186103
0.0194298
0.0202536
0.0210801
0.0219087
0.0227408
0.0235778
0.0244197
0.0252648
0.0261125
0.0269615
0.0278129
0.0286678
0.0295254
0.030385
0.0312466
0.0321109
0.0329808
0.00157931
0.00174152
0.00225762
0.0028178
0.00340927
0.00403066
0.0046862
0.00536548
0.00606557
0.00678219
0.00751271
0.00826427
0.0090278
0.00978972
0.0105525
0.0113277
0.012109
0.0128955
0.0136881
0.0144849
0.0152862
0.016092
0.0169004
0.0177071
0.0185125
0.0193236
0.0201427
0.0209637
0.0217745
0.0225814
0.023394
0.0242118
0.0250351
0.0258555
0.0266731
0.0274827
0.0282928
0.0291071
0.0299195
0.0307296
0.0315378
0.0323436
0.0331528
7.26357e-05
0.000466354
0.00106758
0.00174175
0.00240991
0.0030716
0.00372284
0.004368
0.00501481
0.00566828
0.00633236
0.00701037
0.00770386
0.00841191
0.00913335
0.00986848
0.0106175
0.0113817
0.0121626
0.0129628
0.013785
0.0146326
0.0155086
0.0164164
0.0173593
0.0183395
0.0193596
0.0204205
0.021523
0.0226661
0.0238492
0.0250721
0.026336
0.0276419
0.0289904
0.0303803
0.0318072
0.033266
0.0347539
0.0362742
0.0378379
0.0394656
0.0411568
1.34549e-05
0.000242921
0.000564365
0.000994817
0.00154136
0.00221246
0.0029118
0.00361577
0.00432594
0.00503711
0.00574149
0.00643501
0.0071181
0.00779518
0.00847102
0.00914984
0.00983473
0.0105286
0.011234
0.0119548
0.0126944
0.0134564
0.014245
0.0150646
0.0159195
0.0168142
0.0177524
0.0187371
0.0197712
0.0208557
0.0219912
0.0231778
0.0244149
0.0257025
0.0270401
0.0284268
0.0298589
0.0313321
0.0328422
0.0343875
0.0359722
0.0376057
0.0392937
2.42203e-06
0.000169574
0.000379325
0.000677486
0.00105784
0.0015291
0.00209287
0.00274913
0.00350164
0.00431853
0.00512333
0.00591067
0.00667995
0.00743318
0.00817118
0.00889391
0.00960435
0.0103049
0.0109987
0.0116897
0.012382
0.0130801
0.0137899
0.0145174
0.0152692
0.0160521
0.0168728
0.0177378
0.0186534
0.0196241
0.0206535
0.0217445
0.022898
0.0241147
0.0253942
0.0267348
0.0281341
0.0295876
0.0310906
0.0326392
0.034233
0.0358743
0.0375663
2.73705e-06
0.000141518
0.000337416
0.000589774
0.000904216
0.00128995
0.00175303
0.00229648
0.00292448
0.00364128
0.0044504
0.0052926
0.00613202
0.00695971
0.00777285
0.00857104
0.00935393
0.0101212
0.0108725
0.0116086
0.0123306
0.0130407
0.0137424
0.0144405
0.015141
0.0158513
0.0165798
0.0173357
0.0181285
0.0189673
0.0198608
0.0208165
0.0218401
0.0229363
0.024107
0.0253531
0.026673
0.0280639
0.0295211
0.03104
0.0326166
0.0342494
0.0359403
2.18832e-06
0.000138276
0.000299918
0.00052531
0.000803023
0.00114006
0.00154276
0.00201607
0.00256267
0.00318609
0.00388995
0.00467863
0.00554805
0.00643316
0.00731072
0.00817499
0.0090244
0.00985864
0.0106769
0.0114785
0.0122627
0.0130287
0.0137766
0.0145073
0.0152234
0.0159287
0.0166292
0.0173326
0.0180486
0.018788
0.0195625
0.0203842
0.0212646
0.0222139
0.0232405
0.0243499
0.0255456
0.0268277
0.0281944
0.029641
0.0311635
0.0327576
0.0344202
2.09128e-06
0.000129238
0.000280192
0.00048592
0.000738589
0.00104339
0.00140565
0.00183102
0.00232228
0.00288284
0.00351671
0.00422862
0.00502255
0.00590067
0.0068155
0.00773104
0.00863684
0.00952998
0.0104088
0.0112727
0.0121202
0.0129497
0.0137597
0.0145492
0.0153174
0.0160644
0.0167919
0.0175036
0.0182053
0.0189052
0.0196135
0.0203431
0.0211078
0.0219226
0.0228015
0.0237572
0.0248
0.0259366
0.0271706
0.0285021
0.0299285
0.0314466
0.0330579
1.93964e-06
0.000125764
0.000267732
0.000455305
0.000689514
0.000971119
0.00130436
0.00169412
0.00214503
0.00265958
0.00324131
0.0038943
0.00462295
0.00543196
0.00632462
0.00726642
0.00821605
0.00915894
0.0100906
0.0110095
0.011914
0.0128025
0.0136732
0.0145242
0.0153535
0.0161593
0.0169405
0.0176969
0.01843
0.0191433
0.019843
0.0205381
0.0212404
0.0219647
0.0227272
0.0235455
0.0244362
0.0254136
0.0264896
0.0276715
0.0289625
0.0303629
0.0318694
1.87519e-06
0.000122517
0.000259479
0.000432372
0.000652068
0.000915728
0.0012267
0.00158938
0.00200874
0.00248738
0.00302843
0.00363572
0.00431359
0.00506617
0.00589862
0.00681409
0.00778226
0.00876244
0.00973855
0.0107051
0.0116598
0.0126011
0.0135271
0.0144354
0.0153239
0.01619
0.0170315
0.0178462
0.0186326
0.0193905
0.0201217
0.0208302
0.0215231
0.0222111
0.0229082
0.0236314
0.0244003
0.0252344
0.0261524
0.0271707
0.028301
0.0295508
0.0309214
1.81226e-06
0.000120456
0.000253705
0.000413976
0.000621834
0.00087107
0.00116445
0.00150589
0.00189975
0.00234966
0.00285821
0.00342897
0.00406556
0.00477243
0.00555446
0.00641622
0.00736048
0.00835643
0.00936592
0.0103727
0.0113714
0.0123595
0.0133346
0.0142947
0.0152376
0.0161605
0.0170606
0.0179351
0.018781
0.0195961
0.0203789
0.0211298
0.0218509
0.0225477
0.0232293
0.0239086
0.0246028
0.0253319
0.0261184
0.0269846
0.0279507
0.0290336
0.0302446
1.7648e-06
0.000118691
0.000249073
0.000399629
0.000597236
0.000834545
0.00111349
0.00143746
0.00181044
0.00223659
0.00271838
0.00325901
0.00386171
0.00453081
0.00527096
0.00608678
0.00698335
0.00796077
0.00898529
0.0100231
0.0110594
0.0120883
0.013107
0.0141135
0.0151056
0.0160803
0.0170348
0.017966
0.0188707
0.0197453
0.0205869
0.0213931
0.022163
0.0228977
0.0236008
0.0242799
0.0249472
0.0256191
0.0263165
0.0270634
0.0278849
0.0288051
0.0298417
1.73314e-06
0.000117456
0.000245631
0.000388828
0.000576899
0.000804059
0.00107095
0.00138055
0.00173634
0.00214219
0.00260143
0.00311657
0.00369093
0.00432845
0.00503332
0.00581015
0.00666405
0.0075993
0.00861236
0.00966658
0.0107321
0.0117963
0.0128539
0.0139019
0.014938
0.0159596
0.0169636
0.0179472
0.018907
0.0198392
0.0207398
0.0216051
0.0224324
0.0232196
0.0239667
0.0246761
0.0253544
0.0260124
0.0266663
0.0273373
0.0280504
0.0288327
0.0297068
1.7116e-06
0.000116609
0.000243106
0.000380881
0.000559812
0.000778218
0.00103485
0.00133208
0.00167316
0.00206198
0.00250208
0.0029956
0.00354573
0.00415614
0.00483096
0.00557463
0.00639164
0.00728675
0.00826469
0.00931449
0.0103981
0.011491
0.0125827
0.0136677
0.0147432
0.015807
0.0168562
0.0178878
0.0188983
0.019884
0.0208409
0.0217645
0.0226509
0.0234964
0.0242983
0.0250557
0.0257701
0.026447
0.0270966
0.0277346
0.028382
0.0290645
0.0298086
1.69823e-06
0.000116027
0.000241173
0.000374901
0.000545268
0.000755927
0.00100365
0.00129032
0.00161898
0.00199308
0.0024165
0.00289148
0.00342084
0.00400774
0.00465655
0.00537148
0.00615646
0.00701637
0.00795697
0.00898085
0.0100666
0.0111793
0.0122992
0.013417
0.0145282
0.0156302
0.0167202
0.0177955
0.0188525
0.0198877
0.0208971
0.021876
0.0228198
0.0237244
0.0245851
0.0253986
0.0261635
0.0268804
0.0275542
0.0281944
0.0288163
0.0294408
0.0300943
1.68727e-06
0.000115653
0.000239606
0.000370054
0.000532822
0.000736589
0.000976512
0.00125405
0.00157196
0.00193351
0.00234214
0.00280087
0.00331216
0.00387887
0.00450486
0.00519448
0.00595163
0.00678108
0.00768824
0.00867755
0.00974729
0.0108679
0.0120091
0.013155
0.0142984
0.0154352
0.0165625
0.0176774
0.0187771
0.0198579
0.0209158
0.0219462
0.0229446
0.0239061
0.0248256
0.025698
0.02652
0.027289
0.0280053
0.0286732
0.0293014
0.0299048
0.0305041
1.67478e-06
0.000115218
0.000238249
0.000366086
0.000522104
0.000719524
0.000952587
0.00122217
0.00153062
0.00188107
0.00227689
0.00272132
0.00321665
0.00376567
0.0043718
0.00503927
0.00577196
0.0065745
0.00745175
0.00840887
0.00944981
0.010564
0.0117177
0.0128864
0.0140582
0.0152265
0.0163879
0.0175395
0.0186781
0.0198008
0.0209035
0.0219819
0.0230315
0.024047
0.0250232
0.0259545
0.0268356
0.0276622
0.0284316
0.0291435
0.0298012
0.0304124
0.0309912
1.6634e-06
0.000114806
0.000237084
0.000362679
0.00051289
0.000704496
0.000931379
0.00119378
0.0014938
0.0018344
0.00221895
0.00265071
0.0031319
0.00366513
0.0042537
0.00490169
0.00561281
0.00639147
0.00724238
0.00817066
0.0091814
0.0102753
0.0114306
0.0126156
0.0138112
0.015008
0.0162007
0.0173858
0.0185607
0.019722
0.0208662
0.0219892
0.0230865
0.0241529
0.0251831
0.0261713
0.0271113
0.0279976
0.0288256
0.0295918
0.030295
0.0309361
0.0315185
1.66081e-06
0.000114581
0.000236125
0.000359867
0.000505136
0.000691108
0.000912327
0.00116831
0.00146096
0.00179293
0.00216733
0.00258765
0.00305618
0.00357536
0.0041483
0.00477888
0.00547084
0.00622821
0.00705569
0.00795835
0.00894103
0.010008
0.011153
0.012346
0.0135608
0.0147827
0.016004
0.0172203
0.0184287
0.0196259
0.0208087
0.0219731
0.0231149
0.0242291
0.0253104
0.0263529
0.0273503
0.0282964
0.0291854
0.030012
0.0307726
0.0314637
0.0320702
1.65841e-06
0.000114445
0.000235351
0.000357469
0.000498682
0.000679186
0.000895125
0.00114522
0.00143113
0.00175534
0.00212072
0.00253061
0.00298779
0.00349439
0.00405346
0.00466852
0.00534303
0.00608119
0.0068878
0.00776736
0.00872465
0.00976506
0.0108901
0.0120817
0.0133096
0.0145528
0.0157997
0.017045
0.0182846
0.0195154
0.0207342
0.0219375
0.0231209
0.0242798
0.0254092
0.0265033
0.0275558
0.0285603
0.0295101
0.0303992
0.0312214
0.0319706
0.0326317
1.65393e-06
0.000114247
0.000234571
0.000355354
0.000493221
0.000668309
0.000879352
0.00112414
0.00140383
0.00172084
0.00207798
0.0024785
0.00292538
0.0034206
0.00396706
0.00456796
0.00522693
0.00594783
0.00673551
0.00759408
0.00852839
0.00954408
0.0106452
0.0118261
0.0130599
0.0143196
0.0155895
0.0168613
0.0181301
0.0193923
0.0206448
0.0218844
0.0231069
0.0243079
0.0254824
0.0266252
0.0277299
0.0287897
0.0297979
0.0307471
0.0316295
0.0324356
0.0331527
1.65343e-06
0.000114138
0.000233955
0.00035358
0.000488552
0.000658501
0.000864933
0.00110474
0.00137882
0.00168923
0.00203887
0.00243088
0.00286825
0.00335292
0.00388779
0.0044759
0.0051206
0.005826
0.00659622
0.00743571
0.00834908
0.00934194
0.0104193
0.0115822
0.0128139
0.014085
0.0153742
0.0166701
0.0179662
0.0192578
0.020542
0.0218156
0.0230746
0.0243149
0.0255318
0.0267202
0.0278736
0.0289856
0.0300487
0.031055
0.0319953
0.0328588
0.0336335
1.65166e-06
0.000114083
0.000233464
0.000352029
0.000484512
0.000649576
0.000851592
0.0010867
0.00135554
0.00166004
0.00200279
0.00238683
0.0028155
0.00329057
0.00381468
0.00439083
0.00502253
0.00571354
0.00646778
0.00728984
0.00818431
0.0091562
0.010211
0.0113524
0.0125744
0.0138505
0.015155
0.0164723
0.0177934
0.0191127
0.0204265
0.0217318
0.0230251
0.0243024
0.0255591
0.0267899
0.027989
0.0291495
0.0302642
0.0313246
0.0323208
0.0332418
0.0340756
1.65597e-06
0.000113995
0.000232959
0.000350576
0.000480827
0.000641237
0.000839126
0.00106994
0.0013339
0.00163276
0.00196907
0.00234585
0.00276635
0.00323248
0.00374654
0.00431177
0.00493138
0.00560893
0.00634855
0.00715455
0.00803146
0.00898406
0.0100178
0.0111374
0.0123433
0.0136182
0.0149334
0.0162688
0.0176124
0.0189572
0.0202991
0.0216344
0.0229597
0.0242715
0.0255653
0.0268357
0.0280775
0.0292837
0.0304468
0.0315586
0.032609
0.0335869
0.0344804
1.65276e-06
0.000113818
0.000232428
0.000349229
0.000477517
0.000633628
0.00082756
0.00105424
0.00131346
0.00160709
0.00193752
0.00230748
0.00272017
0.00317784
0.00368277
0.00423782
0.0048461
0.00551128
0.00623735
0.00702825
0.00788857
0.00882337
0.00983741
0.0109359
0.0121228
0.0133897
0.0147103
0.0160601
0.0174237
0.0187922
0.0201602
0.0215237
0.0228795
0.0242235
0.0255518
0.0268597
0.0281412
0.0293903
0.0305994
0.03176
0.0328629
0.0338968
0.0348501
1.65523e-06
0.000113746
0.000232008
0.000348047
0.000474549
0.000626711
0.000816742
0.00103941
0.00129428
0.00158302
0.00190777
0.00227125
0.00267662
0.00312651
0.00362289
0.00416838
0.00476607
0.00541966
0.00613297
0.00690985
0.00775475
0.00867265
0.00966826
0.010747
0.0119137
0.0131671
0.0144875
0.0158475
0.0172284
0.0186186
0.0200108
0.0214009
0.022785
0.0241595
0.0255205
0.0268633
0.0281826
0.0294722
0.0307249
0.0319325
0.0330859
0.034175
0.0351896
1.65599e-06
0.000113695
0.00023163
0.000346917
0.000471769
0.00062043
0.000806628
0.00102547
0.00127624
0.00156026
0.00187972
0.00223717
0.00263556
0.00307791
0.00356609
0.00410257
0.00469054
0.00533331
0.00603451
0.00679822
0.00762866
0.00853066
0.00950914
0.010569
0.0117157
0.0129521
0.0142664
0.0156325
0.0170276
0.0184369
0.0198517
0.0212667
0.0226775
0.0240809
0.0254726
0.0268485
0.0282036
0.0295315
0.0308257
0.0320783
0.0332806
0.0344231
0.0354962
1.65775e-06
0.000113638
0.000231274
0.000345905
0.000469345
0.000614773
0.000797031
0.00101221
0.001259
0.00153853
0.00185301
0.00220477
0.00259665
0.00303187
0.00351234
0.00404032
0.00461889
0.00525131
0.00594113
0.00669234
0.00750921
0.00839642
0.00935866
0.0104008
0.0115284
0.0127458
0.0140494
0.0154166
0.0168222
0.0182481
0.0196836
0.0211217
0.022558
0.0239887
0.0254098
0.0268172
0.028206
0.0295705
0.0309042
0.0321995
0.0334484
0.0346414
0.0357683
1.65958e-06
0.000113592
0.000230948
0.000344987
0.000467125
0.000609612
0.000788056
0.000999719
0.00124272
0.00151803
0.00182761
0.00217383
0.00255962
0.00298817
0.00346124
0.00398118
0.00455079
0.00517339
0.00585242
0.00659192
0.00739599
0.00826906
0.00921574
0.0102412
0.0113505
0.012549
0.0138379
0.0152016
0.0166139
0.0180538
0.0195078
0.0209676
0.0224278
0.0238844
0.0253335
0.0267707
0.0281916
0.0295909
0.0309623
0.0322983
0.0335913
0.0348321
0.0360096
1.6619e-06
0.000113566
0.000230676
0.000344168
0.000465104
0.000604964
0.000779562
0.000987682
0.00122704
0.00149829
0.00180328
0.00214441
0.0025245
0.00294655
0.00341241
0.00392459
0.00448574
0.00509892
0.00576782
0.00649629
0.0072881
0.00814761
0.00907971
0.0100891
0.0111812
0.0123616
0.0136335
0.014989
0.0164041
0.017855
0.0193255
0.0208053
0.0222881
0.0237693
0.0252446
0.0267103
0.0281618
0.0295942
0.0310013
0.0323764
0.0337117
0.0349986
0.0362276
1.66377e-06
0.000113538
0.000230427
0.00034341
0.00046324
0.000600705
0.000771526
0.000976291
0.00121209
0.00147948
0.00178014
0.00211629
0.00249078
0.00290657
0.0033656
0.0038703
0.00442353
0.005028
0.00568711
0.00640484
0.00718501
0.00803177
0.0089498
0.00994413
0.01102
0.0121827
0.0134367
0.01478
0.016194
0.0176526
0.0191372
0.0206354
0.0221393
0.0236437
0.0251443
0.0266371
0.0281181
0.0295819
0.0310232
0.0324355
0.0338114
0.0351425
0.0364195
1.66638e-06
0.000113496
0.000230186
0.000342716
0.000461546
0.000596852
0.000763956
0.000965389
0.00119779
0.00146134
0.00175777
0.0020893
0.00245848
0.00286826
0.0033209
0.00381845
0.00436389
0.00495994
0.00560968
0.00631717
0.00708626
0.00792089
0.00882581
0.00980579
0.0108658
0.0120114
0.0132477
0.0145764
0.0159848
0.0174478
0.018944
0.0204587
0.0219824
0.0235089
0.0250334
0.0265523
0.0280612
0.0295553
0.0310294
0.0324771
0.0338914
0.0352641
0.036586
1.66838e-06