/*--------------------------------*- C++ -*----------------------------------*\
| =========                 |                                                 |
| \\      /  F ield         | OpenFOAM: The Open Source CFD Toolbox           |
|  \\    /   O peration     | Version:  2.3.0                                 |
|   \\  /    A nd           | Web:      www.OpenFOAM.org                      |
|    \\/     M anipulation  |                                                 |
\*---------------------------------------------------------------------------*/
FoamFile
{
    version     2.0;
    format      ascii;
    class       surfaceScalarField;
    location    "3000";
    object      phi;
}
// * * * * * * * * * * * * * * * * * * * * * * * * * * * * * * * * * * * * * //

dimensions      [0 3 -1 0 0 0 0];

internalField   nonuniform List<scalar> 
76410
(
-0.00671606
-0.00494844
0.00543762
0.00622687
-0.00716525
-0.0047214
0.00517059
-0.00757371
-0.00450705
0.00491551
-0.00794262
-0.00429865
0.00466757
-0.00827347
-0.0040996
0.00443045
-0.00856959
-0.00390885
0.00420498
-0.00882884
-0.0037243
0.00398355
-0.00905797
-0.00354618
0.00377531
-0.00925428
-0.00337512
0.00357142
-0.00942145
-0.0032102
0.00337738
-0.00955661
-0.00305406
0.00318922
-0.00966312
-0.00290029
0.0030068
-0.00974157
-0.00275487
0.00283333
-0.00979545
-0.00260974
0.00266362
-0.00982133
-0.00247473
0.00250061
-0.00982282
-0.00234124
0.00234273
-0.00979998
-0.00221415
0.00219131
-0.00974965
-0.00209007
0.00203975
-0.00967842
-0.00197049
0.00189926
-0.00958324
-0.00185369
0.00175851
-0.00946424
-0.00174285
0.00162385
-0.00932658
-0.00163116
0.0014935
-0.00916264
-0.00152859
0.00136464
-0.00898421
-0.0014217
0.00124327
-0.00878565
-0.00132189
0.00112333
-0.00856983
-0.0012239
0.00100808
-0.00833793
-0.0011284
0.000896496
-0.00809359
-0.00103388
0.000789539
-0.00783954
-0.000939768
0.000685724
-0.00757735
-0.000851295
0.000589107
-0.00731219
-0.000759109
0.000493948
-0.00704814
-0.000668771
0.000404723
-0.00678849
-0.00058143
0.00032178
-0.00653896
-0.000490108
0.000240574
-0.00630772
-0.000398246
0.000167011
-0.00610046
-0.000307127
9.98586e-05
-0.00592767
-0.00021053
3.7745e-05
-0.00579201
-0.000116542
-1.91188e-05
-0.00570775
-1.75076e-05
-6.67496e-05
-0.00568175
8.17258e-05
-0.000107732
-0.00572313
0.000183457
-0.00014208
-0.00583067
0.000274899
-0.000167352
0.000365259
-0.00606757
-0.000128361
-0.00606093
-0.00450885
0.00562134
-0.00645966
-0.00432267
-0.00682464
-0.00414207
-0.00715329
-0.00397001
-0.00745147
-0.00380142
-0.00771933
-0.003641
-0.00795494
-0.0034887
-0.00816399
-0.00333713
-0.00834666
-0.00319245
-0.00850044
-0.00305642
-0.00863445
-0.00292006
-0.00874417
-0.00279057
-0.00883329
-0.00266575
-0.00889752
-0.00254551
-0.0089441
-0.00242815
-0.00897185
-0.0023135
-0.00898295
-0.00220305
-0.008978
-0.00209502
-0.00895419
-0.0019943
-0.00891885
-0.00188904
-0.00886931
-0.00179239
-0.0088079
-0.00169257
-0.00873686
-0.00159962
-0.00865224
-0.00150632
-0.00856108
-0.00141305
-0.00846089
-0.00132409
-0.00835616
-0.00123312
-0.00824353
-0.00114652
-0.00812615
-0.00105714
-0.00800572
-0.000971727
-0.00788025
-0.000884581
-0.00775048
-0.000798537
-0.00762201
-0.000709901
-0.00748732
-0.000624798
-0.0073473
-0.000538273
-0.00720196
-0.000452467
-0.00704568
-0.000366806
-0.00687943
-0.000282792
-0.00669574
-0.000201199
-0.00649286
-0.000121149
-0.00625882
-5.05919e-05
-0.00599921
1.52905e-05
6.43424e-05
-0.00569829
-0.00546949
-0.00412047
0.00508111
-0.00582397
-0.00396819
-0.00614784
-0.0038182
-0.00644127
-0.00367658
-0.00670365
-0.00353903
-0.00694165
-0.003403
-0.00715342
-0.00327693
-0.00733833
-0.00315222
-0.00749869
-0.00303209
-0.00763983
-0.00291528
-0.00775708
-0.0028028
-0.00785332
-0.00269434
-0.00793026
-0.0025888
-0.00799197
-0.0024838
-0.00803379
-0.00238633
-0.00805973
-0.00228756
-0.00807
-0.00219278
-0.00806518
-0.00209984
-0.00804901
-0.00201046
-0.00801855
-0.0019195
-0.0079775
-0.00183344
-0.00792276
-0.00174731
-0.00786011
-0.00166228
-0.00778604
-0.00158039
-0.00770146
-0.00149763
-0.0076112
-0.00141435
-0.00750917
-0.00133515
-0.00740401
-0.00125167
-0.00728919
-0.00117197
-0.00716947
-0.00109144
-0.00704328
-0.00101077
-0.0069133
-0.000928517
-0.00677515
-0.00084805
-0.00663438
-0.000765567
-0.00648882
-0.000683836
-0.00633617
-0.000605117
-0.00617767
-0.000525306
-0.00601311
-0.000447355
-0.00584021
-0.000374093
-0.0056578
-0.000303565
-0.00546631
-0.000242076
-0.00526329
-0.000187731
-0.00014461
-0.00505434
-0.00493401
-0.00377666
0.0045902
-0.00525287
-0.00364933
-0.00553822
-0.00353285
-0.00580226
-0.00341254
-0.00603739
-0.0033039
-0.00624773
-0.00319266
-0.00643655
-0.00308811
-0.00660134
-0.00298742
-0.00674545
-0.00288798
-0.00686852
-0.00279221
-0.00697388
-0.00269744
-0.00706046
-0.00260776
-0.00713193
-0.00251733
-0.00718213
-0.0024336
-0.00721998
-0.00234848
-0.0072455
-0.00226204
-0.00725445
-0.00218383
-0.00725038
-0.00210391
-0.0072337
-0.00202714
-0.00720473
-0.00194847
-0.0071655
-0.00187267
-0.00711805
-0.00179476
-0.00705755
-0.00172278
-0.0069911
-0.00164684
-0.0069155
-0.00157322
-0.00683106
-0.0014988
-0.00674124
-0.00142497
-0.00664304
-0.00134988
-0.00653808
-0.00127692
-0.00642653
-0.001203
-0.00631142
-0.00112588
-0.00618906
-0.00105087
-0.00605904
-0.000978073
-0.00592531
-0.000899299
-0.00578339
-0.00082576
-0.00563744
-0.000751059
-0.00548551
-0.000677243
-0.00532762
-0.000605246
-0.00516467
-0.000537037
-0.00499451
-0.000473725
-0.00482148
-0.000415108
-0.00464607
-0.000363145
-0.000320758
-0.00446992
-0.00445364
-0.00346541
0.00414238
-0.00473611
-0.00336686
-0.00499494
-0.00327401
-0.00522719
-0.00318029
-0.00543843
-0.00309267
-0.00562712
-0.00300396
-0.00579273
-0.00292251
-0.00594162
-0.00283854
-0.00607123
-0.00275837
-0.00618336
-0.00268008
-0.00627574
-0.00260507
-0.00635281
-0.00253068
-0.00641221
-0.00245793
-0.00646086
-0.00238495
-0.0064943
-0.00231505
-0.006511
-0.00224533
-0.00651789
-0.00217694
-0.00651369
-0.00210811
-0.00649878
-0.00204205
-0.00647332
-0.00197392
-0.00643764
-0.00190836
-0.00638875
-0.00184365
-0.00633353
-0.001778
-0.00627051
-0.00170986
-0.00620154
-0.0016422
-0.00612201
-0.00157834
-0.00603702
-0.00150995
-0.00594341
-0.00144349
-0.00584618
-0.00137415
-0.0057425
-0.00130668
-0.00563199
-0.00123639
-0.00551825
-0.00116462
-0.0053997
-0.00109662
-0.00527455
-0.00102446
-0.00514653
-0.000953771
-0.00501316
-0.00088443
-0.00487618
-0.000814228
-0.00473474
-0.000746682
-0.0045884
-0.000683384
-0.00444009
-0.000622028
-0.00428891
-0.000566288
-0.00413496
-0.0005171
-0.00047382
-0.00398189
-0.00402085
-0.00318868
0.00374412
-0.00427321
-0.0031145
-0.00450472
-0.00304251
-0.0047137
-0.00297131
-0.00490239
-0.00290397
-0.00507155
-0.00283481
-0.00522306
-0.002771
-0.00535566
-0.00270593
-0.00547001
-0.00264402
-0.00556777
-0.00258232
-0.00565396
-0.00251888
-0.00572124
-0.00246339
-0.005778
-0.00240117
-0.00581926
-0.00234369
-0.00584873
-0.00228557
-0.00586554
-0.00222853
-0.0058712
-0.00217128
-0.00586613
-0.00211318
-0.00585049
-0.00205769
-0.00582461
-0.0019998
-0.0057903
-0.00194266
-0.00574778
-0.00188617
-0.00569876
-0.00182702
-0.00564058
-0.00176803
-0.00557342
-0.00170936
-0.00550044
-0.00165132
-0.00542337
-0.00158701
-0.00533784
-0.00152903
-0.00524863
-0.00146336
-0.00515307
-0.00140224
-0.0050539
-0.00133556
-0.00494653
-0.00127199
-0.00483789
-0.00120526
-0.00472541
-0.00113693
-0.00460577
-0.00107341
-0.00448587
-0.00100433
-0.00436019
-0.000939907
-0.00423267
-0.000874198
-0.00410093
-0.000815121
-0.00396612
-0.00075684
-0.00383067
-0.000701746
-0.00369368
-0.000654081
-0.00060993
-0.00355758
-0.00363175
-0.00294186
0.00338493
-0.00385816
-0.00288809
-0.00406637
-0.00283429
-0.00425517
-0.00278251
-0.00442479
-0.00273435
-0.0045753
-0.0026843
-0.00471109
-0.0026352
-0.00482854
-0.00258849
-0.00493473
-0.00253782
-0.00502338
-0.00249368
-0.0050965
-0.00244576
-0.00516061
-0.00239928
-0.00520989
-0.0023519
-0.00524736
-0.00230622
-0.00527208
-0.00226085
-0.00528743
-0.00221318
-0.00529206
-0.00216665
-0.00528618
-0.00211906
-0.00527309
-0.00207078
-0.00525011
-0.00202279
-0.00521896
-0.00197381
-0.0051797
-0.00192543
-0.00513235
-0.00187436
-0.00507879
-0.0018216
-0.00501831
-0.00176983
-0.00495356
-0.00171607
-0.0048785
-0.00166208
-0.00480441
-0.00160311
-0.00472029
-0.00154749
-0.00463275
-0.00148978
-0.00454035
-0.00142795
-0.00444497
-0.00136737
-0.0043455
-0.00130473
-0.00423924
-0.00124319
-0.00413419
-0.00117846
-0.00402371
-0.00111482
-0.00391011
-0.00105351
-0.00379304
-0.000991263
-0.00367474
-0.000933417
-0.00355624
-0.000875342
-0.00343209
-0.000825899
-0.00330966
-0.000776515
-0.000734387
-0.0031852
-0.00328279
-0.0027163
0.00305724
-0.00348888
-0.00268201
-0.00367273
-0.00265044
-0.00384091
-0.00261433
-0.00399415
-0.00258111
-0.0041304
-0.00254805
-0.00425202
-0.00251358
-0.00435993
-0.00248058
-0.00445237
-0.00244538
-0.00453408
-0.00241197
-0.00460058
-0.00237926
-0.00465783
-0.00234203
-0.0047001
-0.00230963
-0.00473429
-0.00227203
-0.0047574
-0.00223775
-0.00477142
-0.00219916
-0.00477521
-0.00216286
-0.00477018
-0.00212408
-0.00475831
-0.00208265
-0.00473659
-0.00204451
-0.00470705
-0.00200335
-0.00467298
-0.0019595
-0.00463224
-0.00191511
-0.00458017
-0.00187366
-0.0045264
-0.00182361
-0.00446723
-0.00177524
-0.0044019
-0.00172742
-0.00432852
-0.00167649
-0.00425249
-0.00162352
-0.00417348
-0.00156879
-0.00408952
-0.00151191
-0.00400238
-0.00145451
-0.00390917
-0.00139794
-0.00381672
-0.00133565
-0.00371719
-0.00127798
-0.0036166
-0.00121541
-0.00351532
-0.00115479
-0.00340987
-0.00109672
-0.00330388
-0.0010394
-0.00319259
-0.000986636
-0.0030813
-0.000937188
-0.00296938
-0.000888439
-0.000846037
-0.00285773
-0.00296577
-0.00251729
0.00276675
-0.00314936
-0.00249841
-0.00331938
-0.00248042
-0.00347203
-0.00246169
-0.00361003
-0.00244311
-0.00373036
-0.00242772
-0.00384011
-0.00240382
-0.00393756
-0.00238314
-0.00402254
-0.0023604
-0.00409505
-0.00233946
-0.00415746
-0.00231685
-0.00420551
-0.00229398
-0.00424854
-0.00226659
-0.00427885
-0.00224172
-0.00430077
-0.00221582
-0.0043125
-0.00218744
-0.00431549
-0.00215987
-0.0043117
-0.00212787
-0.00429938
-0.00209498
-0.00428043
-0.00206346
-0.00425533
-0.00202845
-0.00422278
-0.00199204
-0.00418171
-0.00195618
-0.00413773
-0.00191764
-0.00408684
-0.0018745
-0.00403316
-0.00182892
-0.00397203
-0.00178855
-0.00390794
-0.00174058
-0.00383917
-0.00169229
-0.00376633
-0.00164163
-0.00368926
-0.00158898
-0.00360931
-0.00153446
-0.00352783
-0.00147941
-0.00343934
-0.00142414
-0.00335057
-0.00136675
-0.00325829
-0.00130768
-0.00316382
-0.00124926
-0.00306861
-0.00119193
-0.00297187
-0.00113615
-0.00287329
-0.00108521
-0.00277313
-0.00103735
-0.00266923
-0.00099234
-0.0025685
-0.000946766
-0.00557521
0.000423373
-0.000915736
-0.00524076
0.000411744
-0.000746191
-0.00497664
0.000384449
-0.000648572
-0.00475137
0.000352744
-0.000578011
-0.00455332
0.000318538
-0.000516585
-0.00437138
0.000280406
-0.000462345
-0.00420254
0.000242897
-0.000411739
-0.00404057
0.000201693
-0.000363669
-0.00388634
0.000161813
-0.000316034
-0.00373688
0.000120013
-0.000269479
-0.00359195
7.97834e-05
-0.000224713
-0.00344864
3.67169e-05
-0.000180029
-0.00330951
-5.01913e-06
-0.000134109
-0.00317261
-4.86377e-05
-8.82623e-05
-0.00303883
-9.12184e-05
-4.25586e-05
-0.00290811
-0.000135287
4.56647e-06
-0.00277963
-0.000181269
5.27915e-05
-0.00265562
-0.000226062
0.000102044
-0.00253471
-0.000273733
0.000152831
-0.00241816
-0.00032211
0.000205556
-0.00230504
-0.000372312
0.000259191
-0.00219637
-0.000424493
0.000315822
-0.00209274
-0.000478002
0.000374373
-0.00199462
-0.000533209
0.000435098
-0.00190266
-0.000590809
0.000498843
-0.0018174
-0.000651113
0.000565856
-0.001739
-0.000713461
0.000635061
-0.00166872
-0.000778238
0.000707954
-0.00160689
-0.000846671
0.000784842
-0.00155422
-0.000917276
0.000864609
-0.00151164
-0.000991928
0.000949351
-0.00148074
-0.00106854
0.00103764
-0.00146187
-0.00114959
0.00113071
-0.00145563
-0.0012347
0.00122846
-0.00146346
-0.00132312
0.00133095
-0.00148663
-0.00141545
0.00143863
-0.0015258
-0.00151312
0.00155229
-0.00158257
-0.00161433
0.0016711
-0.00165699
-0.00172168
0.0017961
-0.00175262
-0.00183279
0.00192842
-0.00186802
-0.00195067
0.00206607
-0.00200688
-0.00207316
0.00221202
-0.00220254
0.00236379
-0.00216813
-0.00537314
9.82278e-05
-0.00507874
0.00011734
-0.00481339
0.000119097
-0.00457463
0.000113982
-0.0043552
9.91113e-05
-0.0041545
7.97009e-05
-0.00396706
5.54631e-05
-0.00379285
2.74782e-05
-0.00362875
-2.28775e-06
-0.0034723
-3.64326e-05
-0.00332308
-6.94367e-05
-0.00318012
-0.000106246
-0.00304175
-0.000143385
-0.00290993
-0.000180464
-0.00278197
-0.000219175
-0.00265726
-0.00026
-0.00253834
-0.000300189
-0.00242152
-0.000342875
-0.00230945
-0.000385804
-0.00220131
-0.000430255
-0.00209739
-0.000476226
-0.00199964
-0.000522245
-0.001906
-0.000571646
-0.00181793
-0.000621279
-0.00173581
-0.000672925
-0.00166028
-0.000726649
-0.00159116
-0.000782573
-0.00152995
-0.000839452
-0.00147708
-0.000899539
-0.00143284
-0.000961515
-0.00139906
-0.00102571
-0.00137481
-0.00109279
-0.0013615
-0.0011629
-0.0013605
-0.0012357
-0.00137229
-0.00131132
-0.00139721
-0.00139053
-0.00143676
-0.00147358
-0.00149213
-0.00155896
-0.00156414
-0.00164967
-0.00165321
-0.00174372
-0.00176152
-0.00184236
-0.00188965
-0.00194503
-0.00205233
-0.00203985
-0.00484424
-0.000111874
-0.00463244
-9.44546e-05
-0.00442994
-8.34053e-05
-0.0042353
-8.06558e-05
-0.00404934
-8.68473e-05
-0.00387165
-9.79882e-05
-0.00370209
-0.000114099
-0.00354036
-0.000134255
-0.00338534
-0.000157311
-0.00323716
-0.000184613
-0.00309309
-0.000213503
-0.00295656
-0.000242771
-0.00282398
-0.000275973
-0.0026957
-0.000308737
-0.00257095
-0.000343926
-0.0024519
-0.000379052
-0.00233686
-0.000415231
-0.0022258
-0.000453936
-0.00211953
-0.000492074
-0.00201752
-0.000532262
-0.00192161
-0.000572142
-0.00182892
-0.000614926
-0.00174294
-0.000657634
-0.00166242
-0.000701792
-0.00158715
-0.000748204
-0.001519
-0.000794789
-0.00145841
-0.000843165
-0.00140389
-0.000893976
-0.00135799
-0.000945439
-0.00132064
-0.000998861
-0.00129187
-0.00105449
-0.00127295
-0.0011117
-0.00126397
-0.00117189
-0.0012663
-0.00123337
-0.00128
-0.00129762
-0.00130599
-0.00136454
-0.00134514
-0.00143443
-0.00139838
-0.00150572
-0.00146659
-0.00158146
-0.00155028
-0.00166003
-0.00165136
-0.00174128
-0.00176964
-0.00182675
-0.00191513
-0.00190685
-0.00429296
-0.000288832
-0.00411918
-0.000268236
-0.00394902
-0.000253564
-0.00378256
-0.000247114
-0.00362281
-0.000246601
-0.00346848
-0.00025232
-0.00331914
-0.000263434
-0.00317475
-0.000278651
-0.00303595
-0.000296102
-0.00290201
-0.000318561
-0.00277335
-0.000342161
-0.00264743
-0.000368687
-0.00252824
-0.000395163
-0.00241248
-0.000424502
-0.00230098
-0.000455424
-0.00219285
-0.000487182
-0.00208853
-0.000519549
-0.00198977
-0.000552695
-0.00189478
-0.000587067
-0.00180452
-0.000622523
-0.00171843
-0.000658228
-0.00163747
-0.000695883
-0.00156139
-0.000733721
-0.00149036
-0.00077282
-0.00142631
-0.000812252
-0.00136738
-0.000853725
-0.00131473
-0.000895808
-0.00126956
-0.000939145
-0.00123098
-0.000984025
-0.00120075
-0.00102909
-0.0011783
-0.00107694
-0.00116483
-0.00112518
-0.00116075
-0.00117596
-0.00116618
-0.00122794
-0.00118245
-0.00128135
-0.00120958
-0.00133741
-0.00124959
-0.00139442
-0.00130087
-0.00145444
-0.00136592
-0.00151641
-0.00144563
-0.00158032
-0.00153987
-0.00164703
-0.00164935
-0.00171727
-0.00178904
-0.00177544
-0.00382966
-0.00044107
-0.00368023
-0.00041766
-0.00353168
-0.000402111
-0.00338719
-0.000391609
-0.00324545
-0.000388344
-0.00310859
-0.000389177
-0.00297595
-0.000396069
-0.00284701
-0.000407591
-0.00272176
-0.000421358
-0.0026017
-0.000438618
-0.00248513
-0.000458728
-0.00237342
-0.000480404
-0.00226397
-0.000504614
-0.00215819
-0.000530279
-0.00205754
-0.000556072
-0.00196071
-0.000584017
-0.00186788
-0.000612371
-0.00177819
-0.000642394
-0.0016928
-0.000672455
-0.00161268
-0.000702646
-0.0015355
-0.000735408
-0.0014633
-0.000768083
-0.00139619
-0.000800824
-0.00133451
-0.000834501
-0.00127715
-0.000869613
-0.00122671
-0.000904169
-0.0011813
-0.000941214
-0.00114344
-0.000977006
-0.00111147
-0.001016
-0.00108667
-0.00105388
-0.00107008
-0.00109353
-0.00106086
-0.0011344
-0.00106026
-0.00117656
-0.00106938
-0.00121882
-0.00108692
-0.00126381
-0.00111599
-0.00130835
-0.00115414
-0.00135627
-0.0012046
-0.00140398
-0.00126687
-0.00145414
-0.00134144
-0.00150575
-0.00142923
-0.00155924
-0.00153142
-0.00161508
-0.0016721
-0.00164836
-0.00342161
-0.000577038
-0.00328652
-0.000552752
-0.00315554
-0.000533084
-0.0030265
-0.000520648
-0.0029009
-0.000513952
-0.00277765
-0.000512425
-0.00265817
-0.00051555
-0.00254364
-0.000522119
-0.00243154
-0.000533459
-0.00232268
-0.000547473
-0.00221789
-0.000563518
-0.00211687
-0.000581431
-0.00201879
-0.000602687
-0.00192514
-0.000623934
-0.00183419
-0.000647023
-0.00174735
-0.000670856
-0.00166317
-0.000696549
-0.00158368
-0.00072188
-0.00150728
-0.000748855
-0.00143492
-0.00077501
-0.0013669
-0.000803427
-0.00130399
-0.000830994
-0.0012443
-0.000860514
-0.0011898
-0.000889001
-0.00114135
-0.000918059
-0.00109708
-0.000948442
-0.00105884
-0.000979451
-0.00102603
-0.00100982
-0.00099997
-0.00104206
-0.000980321
-0.00107353
-0.000967569
-0.00110628
-0.000962723
-0.00113925
-0.000965521
-0.00117377
-0.000975831
-0.00120851
-0.000996127
-0.00124351
-0.00102378
-0.0012807
-0.00106243
-0.00131762
-0.00111091
-0.00135549
-0.0011703
-0.00139476
-0.0012408
-0.00143526
-0.00132295
-0.00147709
-0.00141859
-0.00151944
-0.0015644
-0.0015263
-0.00306314
-0.000699101
-0.00294326
-0.000672622
-0.00282393
-0.000652418
-0.00270845
-0.000636132
-0.00259492
-0.000627477
-0.0024852
-0.000622143
-0.00237776
-0.000622989
-0.00227365
-0.000626232
-0.00217296
-0.000634151
-0.00207559
-0.000644846
-0.00198071
-0.000658392
-0.00188903
-0.000673117
-0.0018017
-0.000690015
-0.00171594
-0.000709697
-0.00163448
-0.000728481
-0.00155622
-0.000749117
-0.00148136
-0.000771402
-0.00140925
-0.000793996
-0.00134244
-0.00081566
-0.0012776
-0.000839856
-0.0012172
-0.000863818
-0.00116029
-0.000887905
-0.00110856
-0.000912249
-0.00106073
-0.000936834
-0.00101795
-0.000960839
-0.000979606
-0.000986781
-0.000947364
-0.00101169
-0.000919252
-0.00103793
-0.000898083
-0.00106323
-0.000882921
-0.00108869
-0.000873941
-0.00111526
-0.000872015
-0.00114117
-0.000876945
-0.00116884
-0.000889149
-0.0011963
-0.000909098
-0.00122356
-0.000938062
-0.00125174
-0.000975205
-0.00128048
-0.0010216
-0.00130909
-0.00107784
-0.00133852
-0.00114436
-0.00136873
-0.00122112
-0.00140033
-0.00130955
-0.00143101
-0.00146409
-0.00140985
-0.00274738
-0.000809444
-0.00263851
-0.000781495
-0.00253137
-0.00075956
-0.00242596
-0.000741535
-0.00232493
-0.000728513
-0.00222491
-0.000722166
-0.00212823
-0.000719667
-0.00203416
-0.000720302
-0.00194309
-0.00072522
-0.00185466
-0.000733273
-0.00177027
-0.000742785
-0.00168732
-0.000756066
-0.00160815
-0.000769181
-0.00153185
-0.000785995
-0.00145835
-0.000801989
-0.0013871
-0.000820365
-0.00131977
-0.000838726
-0.00125653
-0.000857236
-0.00119506
-0.000877129
-0.00113789
-0.000897028
-0.00108355
-0.000918158
-0.00103322
-0.000938235
-0.0009876
-0.000957872
-0.000945648
-0.000978785
-0.000907627
-0.00099886
-0.000875172
-0.00101924
-0.000847438
-0.00103943
-0.000823773
-0.00106159
-0.000806227
-0.00108078
-0.000794166
-0.00110075
-0.00078869
-0.00112074
-0.000788325
-0.00114154
-0.00079472
-0.00116244
-0.000807783
-0.00118324
-0.000828501
-0.00120284
-0.00085659
-0.00122365
-0.000892641
-0.00124443
-0.000936923
-0.00126481
-0.000990005
-0.00128543
-0.00105219
-0.00130655
-0.00112447
-0.00132805
-0.00120577
-0.0013497
-0.00137153
-0.00129834
-0.00247089
-0.000907053
-0.00237093
-0.000881459
-0.00227205
-0.00085844
-0.00217741
-0.000836175
-0.00208502
-0.000820909
-0.00199577
-0.000811415
-0.00190785
-0.000807581
-0.00182256
-0.000805596
-0.00173996
-0.000807819
-0.00165978
-0.000813449
-0.00158384
-0.000818733
-0.00150919
-0.000830715
-0.00143659
-0.000841783
-0.00136768
-0.000854903
-0.00130062
-0.00086905
-0.00123837
-0.000882609
-0.00117722
-0.000899881
-0.00111942
-0.000915039
-0.00106557
-0.000930976
-0.00101246
-0.000950134
-0.000965515
-0.000965107
-0.000920802
-0.000982948
-0.000878942
-0.000999733
-0.00084236
-0.00101537
-0.000810052
-0.00103117
-0.000782736
-0.00104655
-0.000757668
-0.0010645
-0.000737599
-0.00108166
-0.000723535
-0.00109484
-0.000714504
-0.00110979
-0.000710763
-0.00112448
-0.000712139
-0.00114016
-0.000719485
-0.00115509
-0.000733575
-0.00116915
-0.000753651
-0.00118277
-0.000781421
-0.00119588
-0.000816104
-0.00120974
-0.000858416
-0.0012225
-0.000908239
-0.00123561
-0.00096617
-0.00124862
-0.00103316
-0.00126106
-0.00110856
-0.0012743
-0.001193
-0.00128709
0.00107958
0.000359121
-0.000365249
-0.00107345
0.00108959
0.000383073
-0.000393085
0.00110299
0.000404195
-0.000417592
0.00111922
0.000422771
-0.000439002
0.00113709
0.000439406
-0.000457272
0.00115687
0.000453312
-0.000473093
0.00117703
0.000465467
-0.00048563
0.00119727
0.00047559
-0.000495831
0.00121686
0.000484273
-0.000503862
0.00123588
0.000491296
-0.000510314
0.00125344
0.000496498
-0.000514063
0.0012694
0.000500686
-0.000516639
0.00128326
0.00050333
-0.000517198
0.00129503
0.000505231
-0.000517001
0.0013039
0.000505852
-0.000514714
0.00130994
0.000505654
-0.000511704
0.00131279
0.000504768
-0.000507616
0.00131309
0.000502449
-0.000502748
0.00130954
0.000500174
-0.00049662
0.00130298
0.000496999
-0.000490438
0.00129256
0.000493431
-0.000483011
0.00127902
0.000489118
-0.000475578
0.0012617
0.000484603
-0.000467287
0.00124106
0.000479454
-0.000458809
0.00121637
0.000474531
-0.00044984
0.0011887
0.000468922
-0.000441256
0.00115766
0.000462855
-0.000431813
0.00112249
0.00045724
-0.000422076
0.00108417
0.000451116
-0.000412795
0.00104242
0.000444836
-0.00040308
0.000997656
0.000438532
-0.000393772
0.000949828
0.000432141
-0.000384313
0.000898856
0.000425635
-0.000374663
0.000845048
0.000419228
-0.000365419
0.000788087
0.000413135
-0.000356174
0.000727964
0.000406947
-0.000346823
0.000664464
0.000401368
-0.000337867
0.000595672
0.000397615
-0.000328823
0.000518694
0.000397279
-0.000320301
0.000422952
0.000407507
-0.000311766
0.000283498
0.000447017
-0.000307563
2.67062e-05
0.000578469
-0.000321677
0.000999963
-0.000579047
-0.00039421
0.000977978
0.000350009
-0.000968866
0.000990581
0.000370469
0.0010054
0.000389372
0.00102247
0.000405708
0.00104132
0.000420555
0.00106057
0.000434056
0.0010807
0.000445345
0.00110038
0.000455906
0.00111975
0.000464907
0.00113829
0.000472751
0.00115553
0.000479256
0.0011714
0.000484822
0.00118514
0.000489588
0.00119704
0.000493328
0.00120646
0.000496433
0.00121348
0.000498632
0.00121818
0.000500069
0.00121944
0.000501196
0.00121838
0.000501227
0.00121393
0.000501454
0.00120654
0.000500814
0.00119546
0.000500203
0.00118133
0.000498733
0.00116371
0.000497071
0.00114289
0.000495352
0.0011186
0.000493215
0.00109053
0.000490927
0.00105905
0.000488714
0.00102426
0.000485907
0.000985465
0.000483633
0.0009433
0.000480697
0.000897311
0.000478129
0.000847547
0.000475399
0.000793648
0.000473126
0.000734855
0.000471928
0.000670505
0.000471297
0.00059783
0.000474042
0.000513904
0.000481541
0.00040942
0.000501764
0.000267362
0.000549565
5.46005e-05
0.000659779
-0.000292002
0.000925071
0.00149585
-0.00078789
0.000884658
0.000338824
-0.000873473
0.000898654
0.000356474
0.000914841
0.000373184
0.000932179
0.00038837
0.000950629
0.000402105
0.000969908
0.000414778
0.000989186
0.000426067
0.00100862
0.000436476
0.00102739
0.000446137
0.00104539
0.000454743
0.0010619
0.000462747
0.00107719
0.000469536
0.00109094
0.000475839
0.0011028
0.000481467
0.0011125
0.000486732
0.00112004
0.000491094
0.00112492
0.000495185
0.00112727
0.000498846
0.00112642
0.000502073
0.00112342
0.000504463
0.00111749
0.000506739
0.00110832
0.000509376
0.00109644
0.000510611
0.00108097
0.000512545
0.00106228
0.00051404
0.00104015
0.000515347
0.00101459
0.000516479
0.000985599
0.000517708
0.000952971
0.000518536
0.000916824
0.00051978
0.000876285
0.000521236
0.0008316
0.000522815
0.000782167
0.000524832
0.000726536
0.000528757
0.000664888
0.000533576
0.000594188
0.000541997
0.000512082
0.000556148
0.000411141
0.000582483
0.000281517
0.000631387
0.000106598
0.000724485
-0.000143599
0.000909976
-0.000502325
0.0012838
0.00192098
-0.000927451
0.000798932
0.000326377
-0.000786485
0.000813257
0.000342149
0.000829279
0.000357161
0.000846862
0.000370787
0.000864635
0.000384332
0.00088341
0.000396003
0.000901727
0.00040775
0.000919801
0.000418401
0.000937597
0.00042834
0.000954391
0.000437949
0.000970179
0.00044696
0.000984628
0.000455086
0.000997405
0.000463062
0.00100866
0.000470214
0.001018
0.000477391
0.00102491
0.000484186
0.00102983
0.000490258
0.00103255
0.000496129
0.00103284
0.000501779
0.00103016
0.00050715
0.00102452
0.000512381
0.00101671
0.000517181
0.00100571
0.000521614
0.000991928
0.000526323
0.000974832
0.000531136
0.000954786
0.000535393
0.000931542
0.000539723
0.000904512
0.000544738
0.000873585
0.000549462
0.000839355
0.00055401
0.00080005
0.000560541
0.000756411
0.000566454
0.00070664
0.000574603
0.000650803
0.000584594
0.000586328
0.000598051
0.000511213
0.000617112
0.000420796
0.000646565
0.000309642
0.000693637
0.000167308
0.000773721
-2.16949e-05
0.000913487
-0.000278343
0.00116662
-0.000614333
0.00161979
0.00229289
-0.000986244
0.000720059
0.000313032
-0.000706715
0.000734611
0.000327598
0.000750526
0.000341246
0.000767205
0.000354109
0.00078479
0.000366747
0.000801884
0.000378909
0.000819466
0.000390169
0.000836488
0.000401379
0.000852639
0.000412189
0.000868241
0.000422347
0.000882997
0.000432204
0.000896306
0.000441778
0.000908246
0.000451123
0.000918473
0.000459987
0.000926848
0.000469016
0.000933858
0.000477175
0.000938519
0.000485597
0.00094093
0.000493718
0.00094105
0.000501659
0.000938876
0.000509324
0.000933978
0.000517279
0.000927024
0.000524136
0.000916765
0.000531873
0.000903947
0.000539141
0.00088814
0.000546944
0.000869647
0.000553886
0.000847154
0.000562216
0.000821834
0.000570059
0.000793015
0.000578281
0.000759366
0.000587659
0.000722001
0.000597905
0.000678724
0.000609732
0.000630013
0.000623314
0.000573785
0.000640821
0.000508486
0.000663351
0.000430949
0.000694648
0.000337722
0.000739792
0.000221923
0.000809436
7.65743e-05
0.00091907
-0.00011288
0.00110294
-0.000359688
0.00141343
-0.000668373
0.00192847
0.00262178
-0.000997263
0.000647726
0.000299103
-0.000633798
0.000662935
0.000312389
0.000678243
0.000325938
0.000694102
0.00033825
0.000710394
0.000350455
0.000726831
0.000362472
0.00074268
0.00037432
0.000758405
0.000385655
0.000773681
0.000396913
0.000788227
0.000407801
0.00080145
0.000418981
0.000813781
0.000429446
0.000824658
0.000440246
0.000834202
0.000450443
0.000842151
0.000461067
0.000848012
0.000471314
0.000852204
0.000481406
0.000854623
0.0004913
0.000854607
0.000501675
0.000852423
0.000511507
0.000847949
0.000521753
0.000840932
0.000531153
0.000831321
0.000541484
0.000819421
0.000551041
0.000804892
0.000561473
0.000786587
0.00057219
0.000766185
0.000582619
0.000741773
0.000594471
0.000713917
0.000606136
0.00068207
0.000619506
0.000645909
0.000634066
0.000604875
0.000650766
0.000556617
0.000671572
0.000501805
0.000695634
0.000437122
0.000728033
0.00036006
0.000771711
0.000266667
0.000833185
0.000151576
0.000924526
7.04484e-06
0.0010636
-0.000175055
0.00128504
-0.000406083
0.00164446
-0.000683782
0.00220617
0.0029194
-0.000981399
0.00058322
0.000285537
-0.000569653
0.000597055
0.000298554
0.000611938
0.000311055
0.000627194
0.000322994
0.000642556
0.000335093
0.000657667
0.000347361
0.000672603
0.000359384
0.000686829
0.000371428
0.000700798
0.000382945
0.000713847
0.000394751
0.000726084
0.000406744
0.000737001
0.000418529
0.000747085
0.000430162
0.000755438
0.00044209
0.000762555
0.00045395
0.000768185
0.000465684
0.000772313
0.000477278
0.000774016
0.000489597
0.000774312
0.000501379
0.000772004
0.000513815
0.000767675
0.000526082
0.000760995
0.000537833
0.000752085
0.000550394
0.000740368
0.000562758
0.000726357
0.000575484
0.000709636
0.000588911
0.000689548
0.000602707
0.000666816
0.000617204
0.000639815
0.000633137
0.000609498
0.000649822
0.000574694
0.000668871
0.000534807
0.000690653
0.000489457
0.000716922
0.000435893
0.000749198
0.000373536
0.00079039
0.000299572
0.000845675
0.000209095
0.000923662
9.70553e-05
0.00103657
-4.25701e-05
0.00120323
-0.000215441
0.00145791
-0.000430124
0.00185914
-0.00068404
0.00246009
0.00318384
-0.000948483
0.000523964
0.000272126
-0.000510553
0.00053782
0.000284698
0.000551814
0.000297061
0.000566036
0.000308771
0.00058026
0.000320869
0.000594267
0.000333354
0.000607788
0.000345863
0.000621417
0.000357799
0.000634005
0.000370356
0.000645895
0.000382862
0.000656833
0.000395807
0.000666968
0.000408394
0.000675939
0.000421191
0.000683859
0.000434169
0.000690461
0.000447348
0.0006952
0.000460945
0.00069845
0.000474028
0.000700423
0.000487624
0.000700403
0.000501399
0.000698533
0.000515686
0.000694209
0.000530406
0.000687691
0.000544351
0.000679397
0.000558688
0.000668371
0.000573784
0.000654783
0.000589073
0.000638983
0.00060471
0.000620078
0.000621612
0.000598024
0.000639258
0.000573098
0.000658063
0.000543586
0.000679334
0.000510278
0.000702179
0.000472484
0.000728447
0.000428858
0.000760549
0.000377706
0.00080035
0.000317454
0.000850641
0.000247117
0.000916012
0.000161774
0.00100901
5.33719e-05
0.00114497
-8.13361e-05
0.00133793
-0.000239615
0.00161619
-0.000434789
0.00205432
-0.000664646
0.00268994
0.00341714
-0.000897944
0.000470899
0.000258398
-0.000457171
0.000484071
0.000271526
0.000497119
0.000284013
0.000510635
0.000295255
0.000523884
0.00030762
0.000536848
0.00032039
0.000549116
0.000333595
0.000560947
0.000345968
0.000572647
0.000358656
0.000583622
0.000371886
0.000593499
0.00038593
0.000602425
0.000399468
0.00061053
0.000413086
0.000617601
0.000427098
0.000623255
0.000441695
0.000627411
0.000456789
0.000630413
0.000471026
0.000632199
0.000485839
0.000632292
0.000501306
0.000629924
0.000518054
0.00062628
0.00053405