/*--------------------------------*- C++ -*----------------------------------*\
| =========                 |                                                 |
| \\      /  F ield         | OpenFOAM: The Open Source CFD Toolbox           |
|  \\    /   O peration     | Version:  2.3.0                                 |
|   \\  /    A nd           | Web:      www.OpenFOAM.org                      |
|    \\/     M anipulation  |                                                 |
\*---------------------------------------------------------------------------*/
FoamFile
{
    version     2.0;
    format      ascii;
    class       volScalarField;
    location    "7000";
    object      nuTilda;
}
// * * * * * * * * * * * * * * * * * * * * * * * * * * * * * * * * * * * * * //

dimensions      [0 2 -1 0 0 0 0];

internalField   nonuniform List<scalar> 
15443
(
0.045109
0.0422094
0.0394753
0.0369641
0.0346598
0.032425
0.0302883
0.0282776
0.0263981
0.0246463
0.023013
0.0214862
0.0200533
0.0187042
0.0174284
0.0162178
0.0150689
0.0139784
0.0129489
0.0119832
0.011086
0.010264
0.00954776
0.00912325
0.0492988
0.0468241
0.0444489
0.0421865
0.0400389
0.038002
0.0360759
0.0342654
0.0325727
0.0310002
0.0295488
0.0282205
0.0270159
0.0259388
0.0249916
0.0241785
0.0235035
0.0229728
0.0225881
0.0223548
0.0222758
0.0223515
0.022582
0.0229642
0.0531234
0.0510691
0.0490842
0.0471905
0.0453934
0.0436946
0.0420951
0.0405966
0.0392007
0.0379083
0.0367213
0.0356419
0.0346729
0.0338163
0.0330757
0.0324548
0.0319571
0.0315857
0.0313425
0.0312301
0.0312466
0.0313896
0.031655
0.0320338
0.0565791
0.0548513
0.0531895
0.0516046
0.0501006
0.0486787
0.0473401
0.046086
0.0449176
0.043836
0.0428436
0.0419417
0.0411339
0.0404225
0.0398105
0.0393024
0.0389
0.0386068
0.0384255
0.0383565
0.0384011
0.0385564
0.0388197
0.0391853
0.0596467
0.058187
0.0567868
0.0554494
0.0541775
0.0529724
0.0518353
0.0507674
0.0497699
0.0488449
0.047994
0.0472207
0.0465266
0.0459152
0.0453904
0.0449556
0.044614
0.0443686
0.0442233
0.0441794
0.0442373
0.0443971
0.0446558
0.0450104
0.062354
0.0611195
0.0599307
0.0587911
0.0577033
0.0566681
0.0556875
0.0547627
0.0538959
0.0530888
0.0523444
0.051665
0.051054
0.0505144
0.0500512
0.0496671
0.0493666
0.0491531
0.0490303
0.0490001
0.0490648
0.0492244
0.0494776
0.049822
0.0647508
0.0636972
0.0626788
0.0616983
0.0607569
0.0598566
0.0589985
0.0581851
0.0574191
0.0567027
0.0560394
0.0554314
0.0548826
0.0543968
0.0539781
0.0536311
0.0533602
0.0531688
0.0530608
0.0530391
0.053107
0.0532648
0.0535127
0.0538485
0.0668708
0.0659644
0.0650847
0.0642317
0.0634086
0.0626165
0.0618569
0.0611309
0.0604428
0.0597977
0.0591975
0.0586452
0.0581447
0.0576997
0.0573144
0.0569949
0.0567464
0.0565715
0.0564736
0.0564567
0.0565251
0.0566812
0.0569242
0.057253
0.0687417
0.0679615
0.0671956
0.0664449
0.0657174
0.0650129
0.0643346
0.063681
0.0630514
0.0624622
0.0619131
0.0614045
0.0609417
0.06053
0.0601712
0.0598706
0.0596393
0.0594782
0.0593885
0.0593735
0.0594415
0.0595933
0.0598323
0.0601579
0.0704249
0.06973
0.0690576
0.068384
0.0677345
0.0670974
0.0664853
0.0659062
0.0653115
0.0647651
0.0642575
0.0637853
0.0633506
0.0629679
0.0626359
0.0623423
0.062125
0.061977
0.0618998
0.0618805
0.0619482
0.062094
0.0623244
0.0626549
0.0102147
0.0122958
0.0137654
0.0152484
0.0168722
0.018658
0.0205992
0.0226819
0.0248931
0.0272244
0.0296689
0.03222
0.0348724
0.03762
0.0404577
0.0433806
0.0463823
0.0494563
0.0525957
0.0557928
0.0590391
0.0623257
0.0656432
0.0689668
0.0234813
0.0241502
0.0249939
0.0260146
0.0272103
0.0285737
0.030096
0.0317674
0.0335758
0.0355094
0.0375572
0.0397094
0.041957
0.044292
0.0467076
0.0491972
0.051755
0.054375
0.0570519
0.0597799
0.0625531
0.0653651
0.0682109
0.0711059
0.0325174
0.0331193
0.0338608
0.034743
0.0357649
0.0369222
0.0382094
0.0396197
0.0411451
0.0427771
0.0445076
0.046329
0.0482334
0.0502142
0.0522658
0.0543823
0.0565583
0.0587894
0.0610711
0.0633985
0.065767
0.0681722
0.0706097
0.0730854
0.0396482
0.0402165
0.0409029
0.0417076
0.0426292
0.0436634
0.0448057
0.0460499
0.0473893
0.0488172
0.0503267
0.0519108
0.0535634
0.0552786
0.0570517
0.058878
0.0607529
0.0626725
0.0646337
0.0666331
0.0686668
0.0707323
0.0728271
0.0749575
0.0454571
0.0460017
0.0466504
0.0474025
0.0482556
0.0492055
0.0502471
0.0513746
0.0525817
0.0538619
0.0552091
0.0566169
0.0580797
0.0595925
0.0611507
0.0627505
0.0643882
0.0660605
0.0677643
0.0694976
0.0712577
0.0730426
0.0748514
0.076693
0.0502552
0.0507802
0.0514002
0.0521131
0.0529156
0.0538033
0.0547707
0.0558118
0.0569205
0.0580902
0.059315
0.0605889
0.0619069
0.0632638
0.0646555
0.0660783
0.0675291
0.0690048
0.070503
0.0720213
0.0735581
0.075112
0.0766829
0.078283
0.0542701
0.0547787
0.0553754
0.0560575
0.0568207
0.0576598
0.0585698
0.0595443
0.060577
0.0616613
0.062791
0.0639607
0.0651651
0.0663995
0.0676597
0.0689424
0.0702446
0.0715634
0.072896
0.0742401
0.0755944
0.0769576
0.0783296
0.0797213
0.0576646
0.0581594
0.0587369
0.0593936
0.0601248
0.0609246
0.0617886
0.0627101
0.0636825
0.0646989
0.065753
0.0668393
0.0679538
0.0690899
0.0702442
0.0714142
0.0725974
0.0737902
0.0749887
0.0761906
0.0773951
0.078601
0.0798068
0.0810151
0.0605596
0.0610423
0.0616042
0.0622389
0.062944
0.0637102
0.0645368
0.0654161
0.0663396
0.0673007
0.0682932
0.069311
0.0703542
0.071409
0.0724763
0.0735549
0.0746422
0.0757337
0.0768221
0.0779067
0.0789878
0.080064
0.0811315
0.0821875
0.0630425
0.0635097
0.0640594
0.064673
0.0653599
0.0660915
0.0668897
0.0677369
0.0686223
0.0695414
0.0704878
0.0714441
0.0724341
0.0734114
0.0744071
0.0754122
0.0764237
0.0774352
0.0784291
0.0794179
0.0803993
0.0813715
0.0823264
0.083251
0.0849721
0.0783122
0.0719083
0.0657789
0.0599382
0.0543974
0.0491649
0.0442457
0.0396413
0.0353468
0.031357
0.0276654
0.0242617
0.0211373
0.018284
0.0156927
0.013357
0.0112666
0.00941423
0.00782064
0.00658727
0.00543422
0.00422478
0.00285271
0.089229
0.0832634
0.0774803
0.071902
0.0665419
0.0614107
0.0565175
0.0518667
0.0474604
0.0433009
0.0393902
0.0357283
0.0323147
0.0291457
0.0262166
0.0235312
0.0211243
0.0190381
0.0170893
0.0151443
0.0131569
0.0110769
0.00883891
0.00634729
0.0937363
0.0884217
0.0832411
0.0782125
0.0733475
0.0686575
0.0641506
0.0598335
0.0557117
0.0517899
0.0480711
0.0445639
0.0412832
0.038247
0.035435
0.0327709
0.0301825
0.0276216
0.0250421
0.0223922
0.0196221
0.0166806
0.0135137
0.0100603
0.0984182
0.0936866
0.0890726
0.0845696
0.0801866
0.0759343
0.071822
0.0678583
0.0640516
0.0604072
0.0569223
0.0535869
0.0503798
0.0472787
0.0442528
0.0412644
0.0382723
0.0352349
0.0321131
0.0288636
0.0254405
0.0217953
0.0178781
0.0136391
0.10307
0.0988892
0.0947879
0.090761
0.0868148
0.0829552
0.079187
0.0755115
0.0719299
0.0684385
0.0650293
0.0616888
0.0583995
0.0551385
0.0518806
0.0485963
0.045254
0.0418198
0.0382539
0.0345151
0.0305584
0.0263373
0.0218023
0.016906
0.107437
0.10374
0.100069
0.0964326
0.0928335
0.089274
0.085755
0.0822762
0.0788345
0.075424
0.0720365
0.0686592
0.0652774
0.0618713
0.0584186
0.0548939
0.0512678
0.0475078
0.0435766
0.039432
0.0350311
0.0303264
0.0252683
0.0198092
0.111382
0.108074
0.104757
0.101434
0.0981079
0.0947803
0.0914519
0.0881191
0.0847785
0.0814238
0.0780466
0.0746365
0.0711782
0.0676543
0.0640452
0.0603249
0.0564664
0.0524371
0.0481992
0.0437131
0.0389341
0.033815
0.0283063
0.0223589
0.114887
0.111895
0.108863
0.105793
0.102686
0.0995453
0.0963691
0.0931537
0.0898947
0.0865865
0.0832198
0.0797843
0.0762668
0.0726503
0.0689132
0.0650321
0.0609798
0.0567242
0.0522278
0.0474493
0.0423434
0.0368628
0.0309614
0.0245869
0.117991
0.115251
0.112447
0.109584
0.106661
0.103675
0.100625
0.0975055
0.0943172
0.0910509
0.0876968
0.0842436
0.0806815
0.076992
0.0731504
0.0691309
0.0649129
0.060468
0.0557523
0.0507225
0.0453324
0.0395279
0.0332779
0.0265244
0.120733
0.118196
0.115576
0.112883
0.110125
0.107272
0.104329
0.101283
0.0981537
0.0949309
0.0915952
0.0881264
0.0845297
0.0807872
0.0768654
0.0727186
0.0683461
0.0637431
0.0588501
0.0536004
0.0479761
0.041858
0.0352965
0.0282047
0.00135748
0.000851959
0.00111878
0.00140349
0.00168517
0.00198274
0.0023234
0.00274342
0.0032858
0.00394443
0.00470293
0.00556146
0.00652451
0.00759838
0.00879097
0.0101097
0.011563
0.0131596
0.0149092
0.0168221
0.0189084
0.0211777
0.0236368
0.0262937
0.00356699
0.00158923
0.00141841
0.00171333
0.00204381
0.00242153
0.00287206
0.00341541
0.00406548
0.00481431
0.0056485
0.00656953
0.0075818
0.00869051
0.00990147
0.0112203
0.0126538
0.0142095
0.0158953
0.0177194
0.0196902
0.021815
0.0241006
0.0265547
0.00628069
0.00286327
0.00177634
0.00203887
0.00244662
0.00292638
0.0034895
0.00413976
0.0048855
0.00571273
0.00661352
0.0075899
0.00864479
0.00978234
0.0110061
0.0123207
0.0137314
0.0152442
0.0168655
0.0186017
0.0204586
0.0224426
0.0245593
0.0268138
0.00902429
0.00447489
0.00225839
0.00238079
0.00287753
0.00346048
0.00412435
0.00486669
0.00569492
0.00659034
0.00754939
0.00857359
0.00966465
0.010825
0.0120571
0.0133647
0.0147516
0.0162222
0.0177814
0.0194338
0.0211843
0.0230381
0.0250017
0.0270871
0.0115872
0.00616594
0.00287278
0.00273926
0.00332095
0.00399836
0.00475005
0.00557416
0.0064727
0.00742818
0.00843834
0.00950403
0.0106256
0.0118042
0.0130417
0.0143405
0.0157035
0.0171337
0.0186345
0.0202093
0.0218621
0.0235974
0.0254198
0.0273316
0.0138898
0.0077749
0.00357418
0.00311008
0.00376189
0.00452231
0.00534962
0.00624915
0.00720898
0.00821764
0.00927305
0.0103747
0.0115221
0.0127156
0.0139563
0.0152458
0.0165855
0.0179777
0.0194243
0.020928
0.0224917
0.0241182
0.0258101
0.0275668
0.0159204
0.00923315
0.00430353
0.00348677
0.00418994
0.00502373
0.00592039
0.00688538
0.00789965
0.00895562
0.0100509
0.0111837
0.0123533
0.0135592
0.0148017
0.0160816
0.0173992
0.0187558
0.0201528
0.0215915
0.0230737
0.024601
0.026175
0.027797
0.0176941
0.0105253
0.00501433
0.0038636
0.00460225
0.00550073
0.00646002
0.00748109
0.0085436
0.00964163
0.010772
0.0119322
0.0131208
0.014337
0.0155803
0.0168507
0.0181479
0.019472
0.0208234
0.0222028
0.0236109
0.0250484
0.0265163
0.028018
0.0192268
0.0116511
0.00569302
0.00422766
0.00497575
0.00593449
0.00695553
0.00802872
0.00913668
0.0102738
0.0114367
0.0126226
0.0138295
0.0150559
0.0163002
0.0175621
0.0188409
0.0201356
0.0214452
0.0227699
0.0241105
0.025465
0.0268348
0.0282212
0.0205033
0.0124853
0.00611309
0.0045654
0.00543809
0.00644907
0.00750931
0.00861972
0.00976058
0.0109304
0.0121232
0.0133302
0.0145502
0.01578
0.0170177
0.0182678
0.0195282
0.0207939
0.0220527
0.0233214
0.0245985
0.0258661
0.0271365
0.0284108
0.000298184
0.000988851
0.00211333
0.00346956
0.00486556
0.00626717
0.00767745
0.00910666
0.010571
0.0120711
0.0136073
0.0151838
0.0168063
0.0184849
0.0202342
0.0220709
0.0240144
0.0260822
0.0282854
0.0306187
0.0330685
0.0356788
0.0384699
0.0413187
0.000220207
0.000535785
0.0012336
0.00220007
0.00347942
0.00481812
0.00618455
0.00757939
0.00897568
0.010381
0.0118083
0.0132734
0.0147827
0.0163443
0.0179696
0.0196739
0.0214767
0.0234006
0.0254678
0.0276941
0.0300866
0.0326577
0.0354181
0.0383118
7.21173e-05
0.000320025
0.00073739
0.00134871
0.00217881
0.00324581
0.00457023
0.00618658
0.00784442
0.00947404
0.0110725
0.0126396
0.014186
0.0157224
0.0172622
0.0188237
0.0204317
0.0221179
0.0239191
0.0258736
0.0280153
0.0303707
0.03296
0.0357829
9.20231e-05
0.000278729
0.000615431
0.00109936
0.00175255
0.00259781
0.00366226
0.00497816
0.00658115
0.00834456
0.0101277
0.0118992
0.0136492
0.0153676
0.0170454
0.01868
0.0202789
0.0218636
0.0234708
0.0251522
0.0269688
0.0289825
0.0312488
0.033814
7.24787e-05
0.000264826
0.000532409
0.000946314
0.00150047
0.00222003
0.00312542
0.0042427
0.00560303
0.00724072
0.00912577
0.0110514
0.0129687
0.0148661
0.0167322
0.018552
0.0203095
0.0219955
0.0236153
0.0251976
0.0267976
0.0284948
0.0303827
0.0325531
7.20703e-05
0.000251867
0.000482921
0.000850722
0.00134126
0.00197629
0.00277789
0.00376809
0.00497575
0.00643414
0.00818073
0.0101636
0.0122011
0.0142411
0.0162675
0.0182646
0.0202126
0.0220873
0.0238667
0.0255407
0.0271251
0.0286725
0.0302751
0.0320464
6.84148e-05
0.000245694
0.000446079
0.000780248
0.00122524
0.00179933
0.0025263
0.00342456
0.00451974
0.00584242
0.00742769
0.00931333
0.0114097
0.0135578
0.0157125
0.0178559
0.0199693
0.0220285
0.0240034
0.0258623
0.0275834
0.0291711
0.0306724
0.032175
6.71118e-05
0.000239893
0.000421736
0.000728706
0.00113929
0.00166791
0.00233608
0.00316358
0.00417262
0.0053913
0.00685232
0.00859303
0.0106421
0.0128523
0.0151065
0.0173688
0.0196202
0.0218383
0.0239937
0.0260498
0.0279673
0.0297144
0.0312845
0.0327072
6.59585e-05
0.000237126
0.00040752
0.000689258
0.00107267
0.00156586
0.00218804
0.00296016
0.00390156
0.0050382
0.0064008
0.00802467
0.00994954
0.0121585
0.0144808
0.0168384
0.0192033
0.0215544
0.023865
0.0260999
0.0282156
0.030164
0.0319027
0.0334097
6.54343e-05
0.000235808
0.000399861
0.000659004
0.00102068
0.00148579
0.00207136
0.00279885
0.0036857
0.0047559
0.00603836
0.00756667
0.00937929
0.0115116
0.013861
0.0162904
0.0187481
0.02121
0.0236515
0.0260407
0.0283355
0.0304836
0.0324273
0.0341136
6.50877e-05
0.000235237
0.000395086
0.000635473
0.000979757
0.00142264
0.00197922
0.00267004
0.00351254
0.00452861
0.00574534
0.00719462
0.00891314
0.0109419
0.0132714
0.0157464
0.0182786
0.0208326
0.0233844
0.0259051
0.0283556
0.0306855
0.0328338
0.0347337
6.49596e-05
0.000234993
0.000391569
0.000617113
0.00094712
0.00137214
0.00190556
0.00256654
0.00337297
0.00434485
0.00550773
0.00689188
0.00853235
0.0104692
0.0127344
0.0152256
0.0178144
0.0204454
0.0230905
0.025723
0.0283078
0.0307985
0.0331357
0.0352508
6.50052e-05
0.000235131
0.000389034
0.000603239
0.000920991
0.00133134
0.00184589
0.00248261
0.00325975
0.00419566
0.00531442
0.00664482
0.00822049
0.0100802
0.012265
0.0147434
0.017371
0.0200661
0.0227914
0.0255205
0.0282218
0.0308529
0.0333592
0.035674
6.51689e-05
0.000235493
0.000387322
0.000593277
0.000899833
0.00129791
0.00179693
0.00241375
0.00316692
0.00407332
0.00515584
0.00644196
0.00796391
0.00975908
0.0118696
0.0143097
0.0169582
0.0197062
0.0225023
0.0253169
0.028121
0.0308764
0.0335324
0.0360254
6.54343e-05
0.000236023
0.000386402
0.000586448
0.000882583
0.0012703
0.00175642
0.00235667
0.00308991
0.00397183
0.00502428
0.00627372
0.00775112
0.00949258
0.0115396
0.0139268
0.0165799
0.0193707
0.0222301
0.0251229
0.0280206
0.0308891
0.0336823
0.0363432
6.57722e-05
0.000236596
0.000385986
0.000581806
0.000868349
0.00124716
0.00172235
0.00230861
0.00302496
0.00388623
0.00491339
0.00613187
0.00757167
0.00926771
0.0112605
0.0135916
0.0162342
0.0190577
0.0219742
0.0249395
0.0279243
0.0308968
0.0338153
0.0366232
6.61772e-05
0.000237178
0.000385857
0.000578473
0.000856265
0.00122737
0.00169322
0.00226765
0.00296918
0.00381266
0.00481809
0.00601009
0.00741764
0.00907469
0.0110206
0.0132988
0.015917
0.0187622
0.0217289
0.0247611
0.0278263
0.0308945
0.0339274
0.036873
6.66437e-05
0.000237782
0.000385913
0.000575932
0.000845829
0.00121014
0.0016679
0.00223204
0.00292054
0.00374849
0.00473494
0.00590374
0.00728314
0.00890604
0.0108107
0.0130409
0.0156245
0.0184796
0.021488
0.0245807
0.0277192
0.0308736
0.0340082
0.0370748
6.71043e-05
0.000238318
0.000386001
0.000573858
0.000836606
0.00119479
0.0016453
0.00220029
0.00287723
0.00369145
0.00466114
0.00580944
0.00716381
0.00875643
0.0106246
0.0128111
0.0153543
0.0182077
0.021249
0.024395
0.0276001
0.0308321
0.0340569
0.0372286
6.7592e-05
0.000238812
0.000386126
0.000572082
0.000828303
0.00118091
0.00162489
0.00217169
0.0028382
0.00364
0.00459465
0.00572464
0.00705673
0.00862211
0.0104573
0.0126043
0.0151058
0.0179468
0.0210117
0.0242045
0.02747
0.0307727
0.0340788
0.0373455
6.81194e-05
0.000239314
0.000386321
0.000570552
0.000820864
0.00116833
0.00160627
0.00214552
0.00280254
0.0035931
0.00453412
0.00564747
0.00695929
0.00850011
0.0103055
0.0124167
0.014878
0.0176978
0.0207776
0.0240105
0.0273312
0.0306995
0.0340799
0.0374268
6.86238e-05
0.000239775
0.00038651
0.000569187
0.000814062
0.00115669
0.00158899
0.00212124
0.00276949
0.00354968
0.00447815
0.00557624
0.00686955
0.00838801
0.0101664
0.012245
0.0146686
0.0174613
0.0205479
0.023815
0.027187
0.0306177
0.0340708
0.0375043
6.91218e-05
0.000240241
0.000386725
0.000567966
0.000807863
0.00114594
0.001573
0.00209868
0.00273869
0.00350918
0.00442593
0.00550984
0.00678601
0.00828381
0.0100373
0.0120861
0.0144747
0.0172371
0.0203232
0.0236187
0.0270383
0.0305293
0.0340538
0.0375721
6.96332e-05
0.000240702
0.00038701
0.000566952
0.000802308
0.00113602
0.00155809
0.00207758
0.00270983
0.00347116
0.00437688
0.00544744
0.00670749
0.00818592
0.00991626
0.0119373
0.0142932
0.0170239
0.0201029
0.023421
0.0268842
0.0304333
0.0340272
0.0376254
7.01445e-05
0.000241177
0.000387359
0.000566141
0.000797375
0.00112686
0.00154421
0.00205784
0.00268276
0.00343542
0.00433064
0.00538851
0.00663326
0.00809333
0.00980168
0.0117965
0.0141215
0.0168199
0.0198855
0.0232199
0.0267224
0.0303265
0.0339888
0.0376727
7.06594e-05
0.000241674
0.000387787
0.000565533
0.000793047
0.00111843
0.00153129
0.0020394
0.00265739
0.00340182
0.00428706
0.00533282
0.00656296
0.00800545
0.00969275
0.0116625
0.0139578
0.0166237
0.0196703
0.0230141
0.02655
0.0302044
0.0339293
0.0376856
7.11809e-05
0.000242205
0.000388313
0.000565154
0.000789351
0.00111074
0.00151936
0.00202227
0.00263372
0.00337036
0.00424615
0.00528039
0.00649654
0.00792214
0.00958921
0.0115347
0.0138014
0.016435
0.0194576
0.0228035
0.026366
0.0300649
0.0338478
0.0376779
7.17021e-05
0.00024277
0.000388923
0.000564993
0.000786256
0.00110373
0.00150835
0.00200639
0.0026117
0.00334104
0.0042079
0.00523124
0.0064341
0.00784359
0.00949123
0.0114135
0.0136524
0.0162541
0.0192492
0.0225902
0.0261725
0.0299088
0.0337393
0.0376176
7.222e-05
0.000243361
0.000389597
0.000565021
0.000783716
0.00109738
0.00149824
0.00199174
0.00259134
0.00331384
0.00417234
0.00518541
0.00637573
0.00776996
0.00939911
0.0112991
0.0135113
0.0160819
0.0190473
0.0223775
0.0259739
0.0297442
0.0336246
0.0375712
7.27514e-05
0.000243986
0.000390359
0.000565254
0.000781708
0.00109168
0.00148903
0.00197833
0.00257262
0.00328876
0.00413947
0.00514296
0.00632153
0.00770142
0.00931315
0.011192
0.0133789
0.0159195
0.0188541
0.0221682
0.0257719
0.0295694
0.0334904
0.0374834
7.32892e-05
0.000244634
0.000391174
0.000565641
0.000780148
0.00108655
0.00148066
0.00196611
0.00255554
0.00326574
0.00410921
0.00510382
0.00627148
0.00763802
0.00923346
0.0110926
0.0132556
0.0157677
0.0186718
0.0219663
0.025572
0.0293917
0.0333501
0.0373939
7.38368e-05
0.000245299
0.000392032
0.000566149
0.000778959
0.00108195
0.00147305
0.001955
0.00254004
0.00324466
0.00408146
0.00506787
0.00622545
0.00757963
0.00916
0.0110008
0.0131415
0.0156272
0.018502
0.0217751
0.0253789
0.0292169
0.0332096
0.0372991
7.43978e-05
0.00024598
0.000392936
0.000566776
0.000778115
0.00107785
0.00146618
0.00194491
0.00252591
0.00322544
0.00405612
0.005035
0.0061833
0.00752609
0.00909252
0.0109163
0.0130365
0.0154976
0.0183447
0.0215954
0.0251945
0.0290477
0.0330726
0.0372085
7.49737e-05
0.000246675
0.00039387
0.000567492
0.000777542
0.00107419
0.00145996
0.00193575
0.00251309
0.00320797
0.00403304
0.00500504
0.00614485
0.00747717
0.00903076
0.0108389
0.0129401
0.0153782
0.0181993
0.0214274
0.0250191
0.028884
0.0329374
0.0371151
7.55638e-05
0.000247373
0.000394817
0.00056827
0.000777202
0.00107095
0.00145437
0.00192748
0.00250149
0.00319213
0.00401209
0.0049778
0.00610985
0.00743259
0.00897439
0.0107681
0.0128518
0.0152688
0.0180654
0.021271
0.0248531
0.0287266
0.0328051
0.0370214
7.61695e-05
0.000248082
0.000395793
0.000569123
0.000777073
0.00106812
0.00144939
0.00192008
0.00249104
0.00317783
0.00399316
0.00495315
0.00607811
0.0073921
0.00892313
0.0107036
0.0127711
0.0151686
0.0179424
0.0211258
0.0246968
0.0285762
0.032677
0.0369291
7.6793e-05
0.000248794
0.000396779
0.000570018
0.000777108
0.00106566
0.00144496
0.00191346
0.00248168
0.00316497
0.00397608
0.00493087
0.0060494
0.00735544
0.00887664
0.0106451
0.0126978
0.0150772
0.0178298
0.0209918
0.0245504
0.0284329
0.0325528
0.0368381
7.74352e-05
0.000249506
0.000397775
0.000570955
0.000777293
0.00106354
0.00144107
0.00190758
0.00247332
0.00315345
0.00396075
0.00491083
0.0060235
0.00732227
0.00883453
0.010592
0.0126312
0.0149942
0.0177272
0.0208689
0.0244142
0.0282974
0.0324325
0.036746
7.80966e-05
0.000250218
0.000398778
0.000571926
0.000777611
0.00106177
0.0014377
0.00190244
0.00246594
0.00314321
0.00394705
0.00489285
0.00600018
0.00729234
0.00879646
0.0105439
0.0125708
0.0149189
0.0176342
0.0207571
0.0242894
0.028172
0.032319
0.0366478
7.87805e-05
0.000250932
0.000399792
0.00057293
0.000778045
0.00106031
0.00143483
0.00189798
0.00245949
0.00313418
0.0039349
0.00487679
0.00597928
0.00726543
0.00876209
0.0105004
0.0125161
0.0148506
0.0175497
0.0206556
0.0241761
0.0280593
0.0322233
0.0365927
7.94876e-05
0.000251645
0.000400812
0.000573959
0.000778589
0.00105917
0.00143244
0.00189419
0.00245393
0.00312631
0.00392419
0.00486256
0.00596064
0.0072413
0.00873116
0.010461
0.0124665
0.0147884
0.0174727
0.0205626
0.0240714
0.0279542
0.0321316
0.0365262
8.02157e-05
0.000252353
0.000401831
0.000575012
0.000779231
0.00105833
0.00143051
0.00189105
0.00244922
0.00311955
0.00391491
0.00485009
0.00594417
0.00721981
0.00870344
0.0104256
0.0124216
0.014732
0.0174023
0.0204771
0.0239741
0.0278546
0.0320417
0.0364572
8.09636e-05
0.00025306
0.000402854
0.000576087
0.000779967
0.00105778
0.00142904
0.00188853
0.00244535
0.00311387
0.00390698
0.00483931
0.00592976
0.00720085
0.00867879
0.0103939
0.0123812
0.014681
0.0173385
0.020399
0.0238846
0.0277625
0.0319583
0.0363931
8.17364e-05
0.000253762
0.000403882
0.000577188
0.000780795
0.00105751
0.00142801
0.00188663
0.00244229
0.00310924
0.00390036
0.00483015
0.00591736
0.00718431
0.00865708
0.0103657
0.0123451
0.014635
0.0172807
0.0203281
0.0238029
0.0276779
0.0318809
0.0363327
8.25393e-05
0.000254465
0.000404921
0.000578315
0.000781712
0.00105753
0.00142742
0.00188533
0.00244002
0.00310563
0.00389503
0.00482258
0.00590688
0.00717013
0.00863817
0.0103409
0.0123129
0.0145937
0.0172286
0.0202639
0.0237289
0.0276021
0.0318117
0.0362687
8.3366e-05
0.000255163
0.00040596
0.00057946
0.000782712
0.00105783
0.00142726
0.00188463
0.00243852
0.003103
0.00389093
0.00481653
0.00589828
0.00715822
0.00862202
0.0103194
0.0122846
0.014557
0.0171816
0.0202055
0.0236614
0.0275353
0.0317615
0.0362562
8.42187e-05
0.000255864
0.000407014
0.000580637
0.00078381
0.00105843
0.00142755
0.00188452
0.00243781
0.00310137
0.00388805
0.00481198
0.0058915
0.00714853
0.00860856
0.0103011
0.0122601
0.0145248
0.0171397
0.0201522
0.0235979
0.0274688
0.0317053
0.0362286
8.50938e-05
0.000256561
0.000408069
0.000581846
0.000785007
0.00105932
0.00142829
0.00188502
0.00243787
0.0031007
0.00388637
0.00480887
0.00588647
0.00714096
0.00859769
0.010286
0.0122395
0.0144972
0.0171033
0.0201053
0.0235409
0.0274069
0.0316467
0.0361789
8.59998e-05
0.000257253
0.00040913
0.000583079
0.000786295
0.00106051
0.00142948
0.00188613
0.00243871
0.00310102
0.00388587
0.00480719
0.00588315
0.00713543
0.00858926
0.0102738
0.0122225
0.0144741
0.0170725
0.0200654
0.0234925
0.0273563
0.0316048
0.0361539
8.69401e-05
0.000257949
0.000410214
0.000584355
0.000787694
0.00106202
0.00143117
0.0018879
0.00244039
0.00310237
0.00388662
0.00480698
0.00588154
0.0071319
0.00858318
0.0102644
0.0122089
0.0144551
0.0170467
0.0200316
0.023451
0.0273124
0.0315694
0.0361422
8.79075e-05
0.000258643
0.000411306
0.000585668
0.000789198
0.00106384
0.00143333
0.00189032
0.00244292
0.00310478
0.00388863
0.00480826
0.00588168
0.00713038
0.0085794
0.0102576
0.0121983
0.0144397
0.0170254
0.0200034
0.0234164
0.0272762
0.031542
0.0361388
8.89008e-05
0.000259334
0.000412403
0.000587005
0.000790792
0.00106597
0.00143597
0.0018934
0.00244631
0.00310826
0.00389195
0.0048111
0.00588364
0.00713095
0.00857798
0.0102535
0.0121908
0.0144277
0.0170082
0.0199801
0.0233879
0.0272476
0.0315226
0.03614
8.99238e-05
0.000260027
0.000413518
0.000588381
0.000792502
0.00106843
0.00143912
0.00189718
0.00245059
0.00311288
0.00389666
0.00481561
0.00588753
0.00713373
0.00857907
0.0102522
0.0121862
0.014419
0.0169943
0.0199605
0.0233638
0.0272243
0.0315094
0.0361463
9.09798e-05
0.000260713
0.00041464
0.00058979
0.000794308
0.0010712
0.00144276
0.00190163
0.00245577
0.00311862
0.00390275
0.00482179
0.00589347
0.00713887
0.00858281
0.0102538
0.0121847
0.0144135
0.0169836
0.019944
0.0233422
0.0272031
0.0314983
0.0361519
9.20673e-05
0.000261392
0.00041576
0.000591204
0.000796192
0.00107427
0.00144689
0.00190676
0.00246185
0.00312555
0.00391036
0.00482976
0.00590148
0.0071465
0.00858939
0.0102587
0.0121869
0.0144119
0.0169769
0.0199309
0.023323
0.0271829
0.0314897
0.0361694
9.31676e-05
0.000262075
0.000416892
0.000592653
0.000798169
0.00107764
0.00145146
0.00191252
0.00246876
0.00313357
0.00391934
0.00483947
0.00591157
0.00715666
0.00859912
0.0102671
0.0121932
0.0144147
0.016975
0.0199224
0.0233071
0.0271629
0.0314766
0.0361805
9.42801e-05
0.00026277
0.000418005
0.00059408
0.000800202
0.00108132
0.00145659
0.00191901
0.00247663
0.00314275
0.00392969
0.0048509
0.00592388
0.00716946
0.0086119
0.0102792
0.0122037
0.0144227
0.0169787
0.0199203
0.0232977
0.0271475
0.0314637
0.0361937
9.54013e-05
0.00026343
0.000419104
0.000595531
0.000802339
0.00108532
0.00146215
0.00192612
0.00248532
0.00315307
0.00394156
0.00486415
0.00593827
0.00718476
0.00862773
0.010295
0.0122187
0.0144359
0.0169888
0.0199256
0.023297
0.0271416
0.0314577
0.0361901
9.65718e-05
0.000264083
0.000420205
0.000597012
0.000804557
0.0010896
0.00146816
0.0019339
0.00249493
0.00316448
0.00395479
0.00487918
0.00595494
0.00720278
0.00864676
0.0103146
0.0122381
0.0144542
0.0170051
0.0199385
0.0233056
0.0271473
0.031465
0.0362057
9.78025e-05
0.000264761
0.000421323
0.000598495
0.000806855
0.00109419
0.00147471
0.00194237
0.00250544
0.0031771
0.00396945
0.00489588
0.00597369
0.00722339
0.00866888
0.0103379
0.0122619
0.0144778
0.0170273
0.0199586
0.0233232
0.0271646
0.0314905
0.0362551
9.89947e-05
0.000265398
0.000422401
0.00059997
0.000809226
0.0010991
0.00148171
0.00195145
0.00251675
0.0031908
0.00398555
0.00491438
0.00599453
0.00724656
0.00869426
0.0103649
0.0122902
0.0145064
0.0170554
0.0199849
0.0233473
0.027189
0.0315232
0.0363081
0.000100227
0.00026602
0.000423468
0.000601462
0.000811683
0.00110432
0.00148923
0.00196129
0.00252898
0.00320557
0.00400298
0.0049346
0.00601759
0.0072724
0.00872274
0.0103958
0.012323
0.0145404
0.0170896
0.0200179
0.0233779
0.0272181
0.031558
0.0363631
0.000101515
0.000266661
0.000424549
0.000602966
0.000814283
0.00110991
0.00149726
0.00197179
0.00254212
0.00322155
0.00402188
0.00495652
0.00604268
0.00730069
0.00875425
0.0104304
0.0123604
0.0145801
0.0171304
0.0200586
0.0234167
0.027254
0.0315934
0.0364074
0.000102781
0.000267278
0.000425605
0.000604478
0.00081697
0.00111583
0.00150578
0.00198295
0.00255612
0.00323861
0.00404217
0.00498016
0.00606982
0.00733156
0.00878882
0.0104687
0.0124022
0.0146251
0.0171781
0.0201078
0.0234662
0.0273029
0.0316408
0.0364429
0.000104049
0.000267905
0.000426639
0.000605985
0.000819788
0.00112213
0.00151491
0.0019949
0.00257111
0.00325686
0.00406382
0.00500548
0.00609906
0.00736485
0.00882631
0.0105104
0.0124483
0.0146752
0.0172321
0.0201654
0.0235271
0.0273689
0.0317202
0.0365609
0.000105316
0.000268492
0.000427663
0.000607543
0.000822787
0.00112881
0.00152453
0.00200752
0.002587
0.00327629
0.00408698
0.00503257
0.00613029
0.00740052
0.00886665
0.0105556
0.0124983
0.0147301
0.0172916
0.0202294
0.0235957
0.0274437
0.0318087
0.036678
0.000106629
0.000269071
0.000428706
0.000609178
0.000826015
0.00113591
0.00153478
0.002021
0.00260391
0.00329693
0.00411161
0.00506153
0.00616379
0.00743876
0.00890992
0.0106041
0.0125521
0.0147894
0.0173563
0.0202992
0.0236704
0.0275239
0.0318964
0.0367735
0.000108003
0.000269679
0.000429803
0.000610896
0.00082952
0.00114342
0.00154562
0.00203523
0.00262185
0.0033189
0.00413781
0.00509224
0.00619943
0.00747957
0.0089561
0.010656
0.0126099
0.0148532
0.0174262
0.0203752
0.0237526
0.0276132
0.0319984
0.0369035
0.000109336
0.000270267
0.00043089
0.00061269
0.000833311
0.00115135
0.00155696
0.00205016
0.00264071
0.00334208
0.00416554
0.00512486
0.00623724
0.00752298
0.00900546
0.0107114
0.0126717
0.0149214
0.0175011
0.0204569
0.0238413
0.0277101
0.0321063
0.0370268
0.000110667
0.000270883
0.000432008
0.000614571
0.000837469
0.00115977
0.001569
0.00206596
0.0026606
0.00336646
0.00419482
0.00515943
0.00627746
0.00756917
0.00905794
0.0107705
0.0127374
0.0149941
0.0175808
0.020544
0.0239362
0.0278147
0.0322271
0.0371744
0.000111984
0.000271472
0.000433151
0.000616615
0.00084209
0.00116864
0.00158157
0.00208247
0.00268149
0.0033922
0.00422575
0.00519594
0.00632
0.00761811
0.00911365
0.0108332
0.0128075
0.0150716
0.0176656
0.0206362
0.0240362
0.027924
0.0323526
0.0373356
0.000113336
0.000272061
0.00043433
0.000618796
0.000847154
0.00117793
0.00159465
0.00209966
0.00270327
0.00341908
0.00425816
0.00523433
0.00636487
0.00767
0.00917285
0.0109001
0.0128821
0.0151541
0.017756
0.020734
0.0241411
0.0280365
0.0324749
0.0374761
0.000114724
0.000272684
0.000435572
0.000621079
0.000852686
0.00118772
0.00160839
0.00211767
0.00272608
0.00344721
0.00429205
0.00527459
0.0064121
0.00772468
0.00923548
0.010971
0.0129617
0.0152423
0.0178526
0.0208387
0.0242533
0.0281557
0.0326038
0.0376228
0.00011603
0.000273267
0.000436787
0.000623491
0.00085872
0.00119794
0.00162263
0.00213634
0.00274977
0.00347653
0.00432746
0.00531669
0.0064615
0.00778205
0.00930146
0.0110461
0.0130462
0.0153362
0.0179559
0.0209508
0.0243736
0.0282835
0.0327412
0.0377807
0.000117361
0.000273828
0.000438001
0.000625983
0.000865175
0.00120859
0.00163746
0.00215582
0.00277441
0.00350693
0.00436425
0.00536055
0.00651318
0.00784217
0.00937072
0.0111252
0.0131355
0.0154361
0.0180663
0.0210712
0.0245028
0.0284203
0.0328859
0.0379416
0.000118724
0.000274406
0.000439258
0.000628557
0.000872117
0.00121975
0.00165289
0.00217603
0.00280001
0.00353861
0.00440259
0.00540619
0.00656689
0.0079048
0.00944302
0.011208
0.0132296
0.015542
0.0181841
0.0212007
0.0246428
0.0285684
0.0330399
0.0381035
0.000120008
0.000274936
0.000440438
0.000631137