/*--------------------------------*- C++ -*----------------------------------*\
| =========                 |                                                 |
| \\      /  F ield         | OpenFOAM: The Open Source CFD Toolbox           |
|  \\    /   O peration     | Version:  2.3.0                                 |
|   \\  /    A nd           | Web:      www.OpenFOAM.org                      |
|    \\/     M anipulation  |                                                 |
\*---------------------------------------------------------------------------*/
FoamFile
{
    version     2.0;
    format      ascii;
    class       volScalarField;
    location    "7000";
    object      p;
}
// * * * * * * * * * * * * * * * * * * * * * * * * * * * * * * * * * * * * * //

dimensions      [0 2 -2 0 0 0 0];

internalField   nonuniform List<scalar> 
15443
(
-0.000261316
-1.32137
-2.35445
-3.40546
-4.41008
-5.37072
-6.26101
-7.04899
-7.70529
-8.17321
-8.41348
-8.36727
-7.96496
-7.16818
-5.88922
-4.01706
-1.36133
2.12406
6.50111
12.3448
19.9375
25.6686
24.8104
33.2573
10.6375
10.7694
11.3523
12.01
12.8498
13.9071
15.248
16.945
19.0931
21.7924
25.1547
29.2931
34.3252
40.3648
47.5239
55.8942
65.5763
76.6281
89.0827
102.972
118.227
134.528
151.671
169.599
19.7928
20.7782
22.1676
23.6553
25.3348
27.2232
29.3503
31.7384
34.4185
37.4214
40.7865
44.5577
48.7857
53.5195
58.8191
64.7238
71.2892
78.5355
86.4729
95.0848
104.298
114.029
124.222
134.781
27.8427
29.3297
31.2495
33.3022
35.5783
38.1022
40.9158
44.0524
47.5435
51.428
55.7389
60.5081
65.7563
71.5053
77.7669
84.5447
91.8259
99.584
107.772
116.311
125.095
133.997
142.867
151.53
34.6948
36.4025
38.5675
40.8393
43.3006
45.9663
48.8578
51.9989
55.4049
59.1073
63.1204
67.4749
72.19
77.288
82.7747
88.6622
94.937
101.587
108.569
115.836
123.311
130.894
138.478
145.946
40.6785
42.371
44.6372
47.0043
49.5599
52.317
55.2905
58.503
61.9636
65.6978
69.7201
74.0478
78.6879
83.657
88.9513
94.5744
100.51
106.744
113.229
119.922
126.754
133.647
140.515
147.263
45.9133
47.3604
49.6094
51.9682
54.4925
57.2013
60.1032
63.2226
66.5676
70.1483
73.9865
78.095
82.4833
87.1578
92.1279
97.3863
102.918
108.71
114.728
120.928
127.251
133.631
139.992
146.255
49.7967
51.3838
53.6418
56.0009
58.4824
61.1375
63.9577
66.9832
70.2339
73.6937
77.3988
81.3442
85.5476
89.997
94.7217
99.71
104.935
110.387
116.046
121.882
127.824
133.827
139.818
145.713
53.5475
55.0694
57.155
59.4112
61.7565
64.307
67.027
69.9754
73.0973
76.3662
79.929
83.7223
87.7668
92.0329
96.574
101.339
106.322
111.523
116.928
122.472
128.085
133.795
139.545
145.241
57.1322
58.7262
60.4503
62.4821
64.5348
66.8356
69.3379
72.2693
75.2991
78.1805
81.4526
85.0572
88.9899
93.1513
97.6017
102.189
106.955
112.055
117.555
123.089
128.47
133.902
139.488
145.167
92.4798
131.093
156.735
176.656
192.846
205.899
216.316
224.544
231.053
236.242
240.308
243.361
245.5
246.812
247.379
247.287
246.622
245.466
243.9
242
239.835
237.443
234.74
231.73
186.1
198.818
209.226
217.839
224.873
230.494
234.867
238.163
240.546
242.143
243.062
243.414
243.3
242.816
242.04
241.037
239.851
238.511
237.033
235.422
233.662
231.748
229.9
228.308
145.467
156.032
166.183
175.666
184.343
192.159
199.087
205.147
210.379
214.831
218.552
221.6
224.028
225.888
227.229
228.1
228.546
228.611
228.336
227.76
226.905
225.785
224.609
223.746
159.863
167.835
175.384
182.404
188.819
194.596
199.718
204.202
208.071
211.365
214.125
216.396
218.225
219.655
220.727
221.478
221.942
222.145
222.11
221.857
221.391
220.703
219.955
219.528
153.25
160.372
167.234
173.73
179.787
185.354
190.405
194.932
198.944
202.459
205.501
208.102
210.29
212.099
213.557
214.695
215.54
216.12
216.456
216.567
216.465
216.145
215.768
215.727
153.833
160.208
166.33
172.126
177.537
182.525
187.069
191.163
194.813
198.035
200.851
203.285
205.365
207.116
208.567
209.742
210.67
211.37
211.861
212.158
212.27
212.199
212.12
212.408
152.368
158.309
164.012
169.414
174.471
179.146
183.423
187.296
190.771
193.859
196.585
198.961
201.024
202.783
204.266
205.499
206.51
207.312
207.922
208.35
208.603
208.683
208.734
209.038
151.46
157.067
162.449
167.531
172.305
176.715
180.763
184.432
187.73
190.672
193.295
195.591
197.608
199.322
200.783
202.017
203.062
203.916
204.595
205.099
205.453
205.665
205.808
206.265
150.671
156.073
161.253
166.059
170.614
174.767
178.613
182.089
185.223
188.044
190.619
192.837
194.803
196.429
197.84
199.056
200.145
201.048
201.768
202.3
202.713
203.013
203.231
203.243
150.541
156.034
161.029
165.405
169.768
173.507
177.085
180.29
183.216
185.915
188.407
190.22
192.272
193.804
195.194
196.461
197.707
198.655
199.395
199.974
200.495
200.867
201.191
201.016
-68.404
-68.4944
-68.5208
-68.4867
-68.3967
-68.2547
-68.0661
-67.8389
-67.5821
-67.3001
-66.997
-66.6775
-66.3451
-66.0022
-65.6477
-65.2759
-64.8732
-64.4084
-63.8349
-63.1043
-62.1673
-60.9174
-58.9337
-54.6507
-69.1345
-69.1508
-69.1363
-69.0738
-68.9695
-68.8326
-68.6698
-68.4849
-68.2806
-68.0586
-67.8162
-67.548
-67.2445
-66.8895
-66.4606
-65.9297
-65.2653
-64.4216
-63.3071
-61.758
-59.5216
-56.2214
-51.5218
-45.5031
-69.595
-69.7913
-69.9213
-70.0001
-70.0357
-70.0294
-69.9796
-69.8839
-69.7374
-69.5339
-69.2649
-68.9185
-68.4803
-67.9308
-67.2425
-66.3738
-65.266
-63.8393
-61.9828
-59.5336
-56.2753
-51.9888
-46.5784
-40.3149
-69.9955
-70.0712
-70.2285
-70.3394
-70.3916
-70.3896
-70.3326
-70.2152
-70.0299
-69.7682
-69.419
-68.9661
-68.3903
-67.6662
-66.762
-65.6317
-64.2131
-62.4229
-60.1499
-57.2563
-53.6097
-49.1385
-43.8935
-38.1634
-70.1701
-70.1219
-70.2865
-70.3983
-70.4421
-70.4247
-70.3471
-70.1986
-69.9702
-69.6501
-69.2265
-68.6829
-67.9971
-67.1404
-66.0799
-64.7636
-63.1335
-61.1056
-58.5918
-55.4917
-51.7145
-47.2375
-42.1623
-36.7642
-69.766
-70.0109
-70.1455
-70.2272
-70.2449
-70.1978
-70.0942
-69.9167
-69.6538
-69.2874
-68.8057
-68.196
-67.4355
-66.4862
-65.3186
-63.8864
-62.1317
-59.9755
-57.3253
-54.1076
-50.2776
-45.8237
-40.8531
-35.6278
-69.783
-69.79
-69.8873
-69.9419
-69.924
-69.8339
-69.7086
-69.5073
-69.2229
-68.8213
-68.2911
-67.6277
-66.8102
-65.795
-64.5524
-63.0433
-61.223
-59.0014
-56.2957
-53.0422
-49.2176
-44.7809
-39.9163
-34.8384
-69.2068
-69.4083
-69.5111
-69.5668
-69.5323
-69.3713
-69.2317
-69.006
-68.7254
-68.314
-67.7358
-67.021
-66.1885
-65.1211
-63.8065
-62.2231
-60.3951
-58.1998
-55.4856
-52.1766
-48.3123
-43.6945
-38.7937
-33.8292
-68.4857
-68.8449
-69.0846
-69.2159
-69.1742
-68.81
-68.688
-68.4758
-68.2393
-67.8203
-67.1467
-66.3377
-65.5326
-64.4016
-62.9843
-61.305
-59.5903
-57.5459
-54.8997
-51.5347
-48.1515
-43.4829
-38.7413
-34.0329
-65.3486
-67.1142
-68.0929
-68.9654
-68.8705
-67.9504
-67.7613
-67.8767
-68.1812
-68.2266
-67.456
-66.4929
-65.9717
-64.6683
-62.5167
-60.3144
-59.2931
-59.3308
-56.6104
-50.6797
-43.862
-36.3092
-32.0474
-29.7472
-45.3468
-40.2198
-36.0638
-32.1784
-28.4587
-24.9488
-21.6446
-18.5261
-15.5639
-12.7219
-9.96221
-7.25349
-4.57398
-1.90711
0.759115
3.4309
6.11389
8.81062
11.5235
14.2557
17.0096
19.7627
22.5331
25.6106
-38.8464
-35.3786
-32.924
-30.3326
-27.5478
-24.6527
-21.7059
-18.7543
-15.8305
-12.9545
-10.1368
-7.382
-4.68616
-2.04345
0.555112
3.11837
5.65784
8.18226
10.7006
13.2233
15.7583
18.2869
20.8369
23.6383
-34.1829
-29.9304
-27.5202
-25.347
-23.105
-20.7819
-18.4017
-15.9881
-13.5585
-11.1262
-8.70101
-6.28969
-3.89639
-1.52131
0.83694
3.18059
5.51327
7.83814
10.1604
12.4865
14.8211
17.1521
19.5101
22.0588
-32.5432
-28.0421
-25.5284
-23.44
-21.3181
-19.1478
-16.9471
-14.7303
-12.5078
-10.2844
-8.06573
-5.85254
-3.64741
-1.44898
0.743608
2.93165
5.11665
7.30117
9.48823
11.681
13.8808
16.0797
18.2981
20.643
-31.4664
-27.0295
-24.4327
-22.4101
-20.3568
-18.2619
-16.1376
-13.9997
-11.8595
-9.7225
-7.59431
-5.4769
-3.3722
-1.27966
0.801368
2.87329
4.93778
6.99753
9.05429
11.1122
13.1751
15.2423
17.3202
19.4702
-30.524
-26.1545
-23.4148
-21.3913
-19.3664
-17.3223
-15.2578
-13.1867
-11.1175
-9.05547
-7.00658
-4.97299
-2.95614
-0.956689
1.02536
2.99378
4.94863
6.89295
8.82705
10.7532
12.6777
14.6048
16.5351
18.4672
-29.8659
-25.5223
-22.6233
-20.5477
-18.5145
-16.4928
-14.4663
-12.4438
-10.4294
-8.42795
-6.44516
-4.48228
-2.54079
-0.622461
1.27487
3.15435
5.01624
6.86042
8.68566
10.4925
12.289
14.0777
15.8614
17.6292
-28.9479
-24.6476
-21.7639
-19.7669
-17.7969
-15.824
-13.8381
-11.8535
-9.87677
-7.918
-5.98436
-4.07383
-2.18921
-0.335747
1.49355
3.30291
5.09027
6.85236
8.58594
10.285
11.9707
13.642
15.3024
16.9937
-29.0794
-24.4887
-21.357
-19.296
-17.2759
-15.2943
-13.3124
-11.3383
-9.37402
-7.43439
-5.53531
-3.65796
-1.81145
-0.0187923
1.75175
3.51027
5.24318
6.93826
8.58471
10.1615
11.7481
13.3138
14.8614
16.4989
-24.9271
-20.6297
-19.2679
-18.3126
-16.6817
-14.8483
-12.9225
-10.9792
-9.02489
-7.10663
-5.27864
-3.43124
-1.62296
0.0836652
1.81844
3.55331
5.24345
6.85408
8.43027
9.89685
11.4371
12.9534
14.4395
16.1156
-111.646
-110.161
-109.225
-107.762
-104.75
-100.403
-95.1477
-89.2567
-82.96
-76.3651
-69.7095
-63.1812
-56.8694
-50.8279
-45.1195
-39.8017
-34.9097
-30.4651
-26.469
-22.902
-19.7172
-16.8519
-14.2679
-11.9989
-75.2344
-75.2369
-74.9362
-74.4166
-73.7511
-73.0724
-72.5029
-72.0776
-71.8131
-71.5758
-71.0541
-69.953
-68.1651
-65.687
-62.5455
-58.8074
-54.5851
-50.003
-45.2361
-40.4439
-35.7807
-31.3632
-27.2351
-23.778
-82.9614
-82.8937
-82.9383
-82.9913
-83.0351
-83.0293
-82.8946
-82.5265
-81.8272
-80.7895
-79.4695
-77.9452
-76.2472
-74.2751
-71.8899
-69.0376
-65.709
-61.9012
-57.6601
-53.0709
-48.2702
-43.408
-38.611
-34.1846
-78.7453
-78.7318
-78.6785
-78.6043
-78.5161
-78.4176
-78.3078
-78.1779
-78.0088
-77.7727
-77.4349
-76.9455
-76.233
-75.2951
-74.1456
-72.6659
-70.7278
-68.2507
-65.1975
-61.5742
-57.4443
-52.9169
-48.1839
-43.1755
-79.2475
-79.2484
-79.2553
-79.2546
-79.2446
-79.2202
-79.175
-79.1013
-78.9891
-78.8221
-78.5765
-78.2274
-77.7449
-77.0897
-76.2203
-75.1213
-73.7557
-72.0278
-69.8441
-67.1402
-63.8721
-60.0415
-55.8374
-50.4612
-78.4033
-78.4021
-78.3944
-78.3792
-78.3568
-78.3263
-78.2863
-78.2341
-78.1658
-78.0745
-77.9498
-77.7755
-77.5297
-77.1859
-76.7087
-76.0495
-75.1645
-74.0117
-72.5066
-70.5648
-68.1066
-65.0487
-61.5755
-56.0436
-78.2449
-78.2458
-78.2449
-78.2388
-78.2277
-78.2099
-78.1836
-78.1464
-78.0954
-78.0258
-77.9314
-77.8031
-77.6273
-77.3859
-77.057
-76.6103
-76.0047
-75.1937
-74.1237
-72.7162
-70.8858
-68.5123
-65.7614
-60.5969
-77.9687
-77.9685
-77.9657
-77.9584
-77.9466
-77.9295
-77.9061
-77.8752
-77.8348
-77.7823
-77.7137
-77.6232
-77.5024
-77.3389
-77.1161
-76.8129
-76.3998
-75.8364
-75.0753
-74.0577
-72.7073
-70.8994
-68.7591
-64.2503
-77.8293
-77.8294
-77.8278
-77.8222
-77.8124
-77.7982
-77.7784
-77.752
-77.7177
-77.6733
-77.6162
-77.5421
-77.4459
-77.3197
-77.1514
-76.9258
-76.6222
-76.2122
-75.6556
-74.9039
-73.8995
-72.5363
-70.8855
-67.0932
-77.7162
-77.7159
-77.714
-77.7085
-77.6991
-77.6856
-77.6674
-77.6435
-77.613
-77.5743
-77.5254
-77.4636
-77.3845
-77.2831
-77.1512
-76.9768
-76.7452
-76.4351
-76.017
-75.45
-74.69
-73.661
-72.3884
-69.4548
-77.6558
-77.6553
-77.6532
-77.6479
-77.6392
-77.6267
-77.6099
-77.5881
-77.5603
-77.5254
-77.4818
-77.4272
-77.3586
-77.2722
-77.1622
-77.0204
-76.835
-76.5902
-76.2642
-75.8256
-75.239
-74.448
-73.4468
-71.2456
-77.6273
-77.6267
-77.6246
-77.6197
-77.6115
-77.5999
-77.5845
-77.5644
-77.539
-77.5073
-77.4681
-77.4195
-77.3592
-77.2839
-77.1897
-77.0704
-76.9172
-76.7184
-76.4575
-76.111
-75.6505
-75.0329
-74.2343
-72.5411
-77.6332
-77.6321
-77.6297
-77.625
-77.6173
-77.6066
-77.5923
-77.5739
-77.5508
-77.5222
-77.4869
-77.4435
-77.3902
-77.3241
-77.2421
-77.14
-77.0113
-76.8468
-76.6341
-76.3555
-75.9896
-75.5022
-74.8636
-73.5648
-77.6625
-77.6613
-77.6589
-77.6547
-77.6478
-77.6381
-77.6252
-77.6088
-77.5882
-77.5628
-77.5316
-77.4935
-77.4469
-77.3897
-77.3191
-77.2321
-77.124
-76.9881
-76.8155
-76.5932
-76.3067
-75.932
-75.4482
-74.454
-77.7137
-77.7124
-77.71
-77.7061
-77.6999
-77.6912
-77.6797
-77.6652
-77.647
-77.6248
-77.5977
-77.5649
-77.525
-77.4764
-77.4167
-77.3436
-77.2539
-77.1432
-77.005
-76.8302
-76.6093
-76.3292
-75.9881
-75.2465
-77.7797
-77.7782
-77.7758
-77.7723
-77.7668
-77.7591
-77.7491
-77.7364
-77.7208
-77.7017
-77.6786
-77.6508
-77.6172
-77.5764
-77.5269
-77.4666
-77.3934
-77.3041
-77.1946
-77.0589
-76.8908
-76.6789
-76.4066
-75.8692
-77.8553
-77.8539
-77.8517
-77.8488
-77.8441
-77.8374
-77.8287
-77.8179
-77.8045
-77.7883
-77.7687
-77.7452
-77.7171
-77.6832
-77.6422
-77.5922
-77.5317
-77.4583
-77.3686
-77.2568
-77.1161
-76.9307
-76.6723
-76.0903
-77.9389
-77.9375
-77.9354
-77.9328
-77.9286
-77.9228
-77.9152
-77.9058
-77.8943
-77.8804
-77.8637
-77.8439
-77.8203
-77.7919
-77.7577
-77.7161
-77.6657
-77.6047
-77.53
-77.4369
-77.3187
-77.162
-76.9362
-76.3545
-78.0261
-78.0246
-78.0226
-78.0201
-78.0164
-78.0113
-78.0046
-77.9964
-77.9865
-77.9745
-77.9603
-77.9434
-77.9233
-77.8993
-77.8705
-77.8354
-77.7928
-77.741
-77.6776
-77.5985
-77.4983
-77.3661
-77.1779
-76.7837
-78.1135
-78.1123
-78.1104
-78.1083
-78.1051
-78.1006
-78.0948
-78.0876
-78.0789
-78.0685
-78.0562
-78.0416
-78.0244
-78.0038
-77.979
-77.9488
-77.9117
-77.8664
-77.8104
-77.7393
-77.6471
-77.5272
-77.3585
-76.8605
-78.2015
-78.2002
-78.1984
-78.1965
-78.1936
-78.1895
-78.1843
-78.1779
-78.1702
-78.161
-78.1502
-78.1375
-78.1225
-78.1046
-78.0831
-78.057
-78.0248
-77.9853
-77.9364
-77.8748
-77.7952
-77.6888
-77.5455
-77.3809
-78.2871
-78.2858
-78.2842
-78.2824
-78.2798
-78.2762
-78.2715
-78.2658
-78.2589
-78.2508
-78.2412
-78.23
-78.2167
-78.2011
-78.1822
-78.1593
-78.131
-78.0959
-78.0524
-77.9973
-77.9257
-77.8277
-77.6858
-77.4735
-78.3705
-78.3693
-78.3676
-78.366
-78.3636
-78.3602
-78.3559
-78.3507
-78.3445
-78.3372
-78.3286
-78.3185
-78.3068
-78.2929
-78.2763
-78.2561
-78.2312
-78.2004
-78.1621
-78.1137
-78.0517
-77.9695
-77.8482
-77.5814
-78.4499
-78.4488
-78.4473
-78.4458
-78.4437
-78.4406
-78.4367
-78.4319
-78.4262
-78.4195
-78.4117
-78.4026
-78.392
-78.3795
-78.3648
-78.347
-78.3251
-78.2981
-78.2647
-78.2229
-78.1702
-78.1005
-78.0027
-77.8334
-78.5263
-78.5252
-78.5237
-78.5223
-78.5203
-78.5174
-78.5137
-78.5092
-78.5039
-78.4976
-78.4903
-78.4818
-78.472
-78.4606
-78.4472
-78.4311
-78.4116
-78.3875
-78.3581
-78.3219
-78.2771
-78.2215
-78.1503
-78.0265
-78.5988
-78.5978
-78.5963
-78.5949
-78.593
-78.5903
-78.5867
-78.5824
-78.5772
-78.5712
-78.5642
-78.5561
-78.5468
-78.536
-78.5233
-78.5081
-78.4899
-78.4674
-78.4398
-78.4055
-78.3627
-78.3109
-78.2401
-77.9684
-78.6673
-78.6664
-78.6651
-78.6638
-78.662
-78.6594
-78.6559
-78.6517
-78.6466
-78.6407
-78.6338
-78.6258
-78.6166
-78.606
-78.5935
-78.5788
-78.561
-78.5394
-78.5131
-78.481
-78.4411
-78.3892
-78.3195
-78.3321
-78.7335
-78.7326
-78.7312
-78.7299
-78.7281
-78.7255
-78.722
-78.7177
-78.7126
-78.7066
-78.6997
-78.6916
-78.6822
-78.6714
-78.6587
-78.6437
-78.6257
-78.6037
-78.5766
-78.5425
-78.4985
-78.4413
-78.3618
-78.1814
-78.7969
-78.796
-78.7946
-78.7933
-78.7914
-78.7888
-78.7852
-78.7809
-78.7757
-78.7696
-78.7624
-78.7541
-78.7445
-78.7333
-78.7203
-78.7049
-78.6866
-78.6645
-78.6377
-78.6051
-78.5649
-78.5162
-78.4698
-78.5229
-78.8578
-78.8569
-78.8556
-78.8543
-78.8525
-78.8498
-78.8463
-78.8419
-78.8366
-78.8303
-78.8229
-78.8143
-78.8043
-78.7926
-78.7789
-78.7628
-78.7436
-78.7202
-78.6916
-78.6561
-78.6107
-78.5504
-78.4671
-78.3713
-78.918
-78.9171
-78.9158
-78.9144
-78.9125
-78.9098
-78.9062
-78.9016
-78.8962
-78.8897
-78.882
-78.8731
-78.8627
-78.8506
-78.8364
-78.8197
-78.7998
-78.7758
-78.7465
-78.7107
-78.666
-78.6088
-78.5324
-78.4541
-78.9775
-78.9766
-78.9751
-78.9737
-78.9717
-78.9689
-78.9652
-78.9606
-78.955
-78.9483
-78.9404
-78.9312
-78.9205
-78.908
-78.8934
-78.8762
-78.8557
-78.8311
-78.8013
-78.765
-78.72
-78.663
-78.5891
-78.5133
-79.0357
-79.0349
-79.0335
-79.0322
-79.0303
-79.0275
-79.0237
-79.0191
-79.0134
-79.0066
-78.9986
-78.9893
-78.9784
-78.9656
-78.9507
-78.9332
-78.9124
-78.8877
-78.858
-78.8222
-78.7787
-78.7252
-78.6581
-78.5907
-79.0951
-79.0942
-79.0927
-79.0913
-79.0893
-79.0865
-79.0827
-79.0779
-79.0722
-79.0653
-79.0572
-79.0477
-79.0366
-79.0237
-79.0085
-78.9908
-78.97
-78.9452
-78.9155
-78.8799
-78.8371
-78.7846
-78.7183
-78.6462
-79.1544
-79.1536
-79.1521
-79.1506
-79.1486
-79.1458
-79.1419
-79.1372
-79.1314
-79.1244
-79.1163
-79.1067
-79.0955
-79.0825
-79.0673
-79.0495
-79.0286
-79.004
-78.9746
-78.9397
-78.898
-78.8477
-78.786
-78.7148
-79.2144
-79.2135
-79.212
-79.2105
-79.2085
-79.2057
-79.2018
-79.197
-79.1912
-79.1843
-79.1761
-79.1665
-79.1553
-79.1422
-79.127
-79.1093
-79.0885
-79.064
-79.0351
-79.0008
-78.9603
-78.9124
-78.8555
-78.7889
-79.2752
-79.2743
-79.2728
-79.2713
-79.2693
-79.2664
-79.2626
-79.2578
-79.252
-79.245
-79.2368
-79.2272
-79.216
-79.203
-79.1878
-79.1701
-79.1494
-79.1251
-79.0964
-79.0626
-79.0229
-78.9765
-78.9226
-78.858
-79.3369
-79.336
-79.3345
-79.3329
-79.3309
-79.3281
-79.3242
-79.3194
-79.3136
-79.3067
-79.2985
-79.289
-79.2778
-79.2649
-79.2497
-79.2321
-79.2116
-79.1874
-79.1589
-79.1253
-79.0856
-79.0388
-78.9806
-78.8748
-79.3995
-79.3987
-79.3971
-79.3955
-79.3935
-79.3906
-79.3868
-79.382
-79.3763
-79.3694
-79.3613
-79.3518
-79.3407
-79.3278
-79.3129
-79.2955
-79.2752
-79.2514
-79.2235
-79.1907
-79.1524
-79.1079
-79.0551
-78.9853
-79.463
-79.4621
-79.4605
-79.459
-79.457
-79.4541
-79.4503
-79.4456
-79.4399
-79.4331
-79.425
-79.4156
-79.4046
-79.3919
-79.3771
-79.3599
-79.3399
-79.3165
-79.2891
-79.2571
-79.2201
-79.179
-79.1355
-79.0478
-79.5275
-79.5266
-79.525
-79.5234
-79.5214
-79.5186
-79.5148
-79.5101
-79.5045
-79.4977
-79.4897
-79.4804
-79.4696
-79.457
-79.4424
-79.4254
-79.4056
-79.3825
-79.3554
-79.3237
-79.2867
-79.244
-79.1948
-79.123
-79.5929
-79.5921
-79.5905
-79.5889
-79.5869
-79.5841
-79.5803
-79.5757
-79.57
-79.5633
-79.5555
-79.5462
-79.5355
-79.5231
-79.5087
-79.4919
-79.4724
-79.4497
-79.4231
-79.3922
-79.3562
-79.3148
-79.2669
-79.208
-79.6596
-79.6587
-79.657
-79.6553
-79.6533
-79.6505
-79.6467
-79.6421
-79.6365
-79.6299
-79.6221
-79.6129
-79.6024
-79.5901
-79.5759
-79.5593
-79.5401
-79.5178
-79.4917
-79.4613
-79.4259
-79.3848
-79.3364
-79.2741
-79.7262
-79.7254
-79.7238
-79.7222
-79.7202
-79.7174
-79.7138
-79.7092
-79.7037
-79.6971
-79.6894
-79.6805
-79.67
-79.6579
-79.6439
-79.6276
-79.6087
-79.5867
-79.5612
-79.5316
-79.4974
-79.4583
-79.4151
-79.394
-79.7944
-79.7936
-79.7918
-79.7902
-79.7882
-79.7855
-79.7818
-79.7772
-79.7718
-79.7653
-79.7577
-79.7488
-79.7384
-79.7265
-79.7126
-79.6965
-79.6779
-79.6561
-79.6307
-79.6009
-79.566
-79.5263
-79.4782
-79.353
-79.8631
-79.8623
-79.8605
-79.8589
-79.8568
-79.8541
-79.8504
-79.8459
-79.8405
-79.834
-79.8265
-79.8177
-79.8076
-79.7958
-79.7821
-79.7663
-79.7479
-79.7267
-79.702
-79.6736
-79.6411
-79.6035
-79.5592
-79.5418
-79.9318
-79.9311
-79.9294
-79.9278
-79.9258
-79.9231
-79.9196
-79.9151
-79.9098
-79.9034
-79.896
-79.8873
-79.8773
-79.8656
-79.8521
-79.8365
-79.8183
-79.7973
-79.7728
-79.7445
-79.7115
-79.6701
-79.6145
-79.6115
-80.0021
-80.0014
-79.9996
-79.9979
-79.9959
-79.9932
-79.9896
-79.9851
-79.9798
-79.9735
-79.9661
-79.9575
-79.9476
-79.9361
-79.9227
-79.9072
-79.8893
-79.8685
-79.8445
-79.8165
-79.7844
-79.7493
-79.7135
-79.621
-80.0726
-80.0719
-80.07
-80.0683
-80.0662
-80.0635
-80.0599
-80.0555
-80.0502
-80.044
-80.0367
-80.0282
-80.0183
-80.0069
-79.9937
-79.9784
-79.9606
-79.94
-79.916
-79.8881
-79.8559
-79.8192
-79.7811
-79.7397
-80.1429
-80.1422
-80.1404
-80.1388
-80.1368
-80.1342
-80.1307
-80.1263
-80.1211
-80.1149
-80.1077
-80.0993
-80.0896
-80.0783
-80.0652
-80.05
-80.0324
-80.0119
-79.988
-79.9601
-79.9275
-79.889
-79.8432
-79.7896
-80.2145
-80.2138
-80.2119
-80.2103
-80.2082
-80.2056
-80.202
-80.1977
-80.1925
-80.1864
-80.1792
-80.1709
-80.1613
-80.1501
-80.1371
-80.1221
-80.1047
-80.0845
-80.061
-80.0336
-80.0018
-79.9649
-79.9224
-79.8767
-80.2863
-80.2856
-80.2837
-80.2819
-80.2799
-80.2772
-80.2736
-80.2693
-80.2642
-80.2581
-80.251
-80.2428
-80.2333
-80.2223
-80.2095
-80.1946
-80.1774
-80.1575
-80.1343
-80.1071
-80.0754
-80.0386
-79.9978
-79.9335
-80.3575
-80.3569
-80.355
-80.3534
-80.3514
-80.3488
-80.3454
-80.3411
-80.3361
-80.3301
-80.3232
-80.315
-80.3056
-80.2947
-80.2821
-80.2676
-80.2507
-80.2312
-80.2085
-80.1823
-80.152
-80.1176
-80.0789
-80.0299
-80.4299
-80.4293
-80.4274
-80.4258
-80.4238
-80.4212
-80.4177
-80.4135
-80.4084
-80.4025
-80.3956
-80.3875
-80.3782
-80.3674
-80.3549
-80.3405
-80.3239
-80.3046
-80.2825
-80.2569
-80.2275
-80.1934
-80.151
-80.0897
-80.5032
-80.5025
-80.5004
-80.4985
-80.4963
-80.4936
-80.49
-80.4858
-80.4807
-80.4748
-80.4679
-80.46
-80.4507
-80.44
-80.4277
-80.4134
-80.397
-80.3781
-80.3564
-80.3319
-80.3042
-80.2723
-80.2346
-80.229
-80.5733
-80.5729
-80.5711
-80.5696
-80.5677
-80.5652
-80.5619
-80.5578
-80.5529
-80.5471
-80.5403
-80.5324
-80.5232
-80.5125
-80.5002
-80.4859
-80.4694
-80.4504
-80.4285
-80.4034
-80.3748
-80.3413
-80.3027
-80.2845
-80.6478
-80.6473
-80.6452
-80.6435
-80.6413
-80.6386
-80.6351
-80.6309
-80.6258
-80.6199
-80.6131
-80.6051
-80.5959
-80.5851
-80.5727
-80.5583
-80.5416
-80.5223
-80.4999
-80.474
-80.4441
-80.4117
-80.3792
-80.2713
-80.721
-80.7203
-80.718
-80.7161
-80.7139
-80.7112
-80.7076
-80.7034
-80.6984
-80.6925
-80.6856
-80.6777
-80.6684
-80.6577
-80.6452
-80.6308
-80.614
-80.5945
-80.5718
-80.5454
-80.5148
-80.4798
-80.4389
-80.3695
-80.7918
-80.7915
-80.7896
-80.7879
-80.786
-80.7834
-80.78
-80.7759
-80.771
-80.7652
-80.7584
-80.7505
-80.7412
-80.7305
-80.718
-80.7035
-80.6866
-80.667
-80.6443
-80.6179
-80.5876
-80.5527
-80.5113
-80.4631
-80.8664
-80.8659
-80.8637
-80.8619
-80.8597
-80.8569
-80.8534
-80.8491
-80.8441
-80.8382
-80.8314
-80.8235
-80.8143
-80.8035
-80.791
-80.7765
-80.7596
-80.7399
-80.7171
-80.6906
-80.6598
-80.6241
-80.5829
-80.5289
-80.9393
-80.9387
-80.9365
-80.9346
-80.9324
-80.9296
-80.9261
-80.9219
-80.917
-80.9112
-80.9044
-80.8965
-80.8873
-80.8766
-80.8642
-80.8497
-80.8329
-80.8133
-80.7906
-80.7645
-80.7346
-80.7005
-80.6613
-80.6156
-81.0114
-81.0112
-81.0091
-81.0073
-81.0052
-81.0025
-80.9991
-80.9949
-80.99
-80.9842
-80.9775
-80.9696
-80.9605
-80.9498
-80.9374
-80.9229
-80.906
-80.8864
-80.8636
-80.8374
-80.8075
-80.774
-80.7377
-80.7124
-81.0856
-81.0851
-81.0827
-81.0807
-81.0784
-81.0755
-81.072
-81.0678
-81.0629
-81.0572
-81.0505
-81.0427
-81.0336
-81.0231
-81.0107
-80.9963
-80.9794
-80.9595
-80.9363
-80.9091
-80.877
-80.8395
-80.7943
-80.6977
-81.1559
-81.1557
-81.1537
-81.152
-81.15
-81.1475
-81.1442
-81.1402
-81.1355
-81.1299
-81.1234
-81.1158
-81.1069
-81.0965
-81.0843
-81.07
-81.0532
-81.0336
-81.0107
-80.9839
-80.9527
-80.9162
-80.8753
-80.8546
-81.2305
-81.2301
-81.2278
-81.2259
-81.2237
-81.2209
-81.2175
-81.2134
-81.2086
-81.203
-81.1965
-81.189
-81.1802
-81.1699
-81.1579
-81.1438
-81.1273
-81.1079
-81.0851
-81.0585
-81.0272
-80.9918
-80.9536
-80.8777
-81.3032
-81.3026
-81.3001
-81.2981
-81.2958
-81.293
-81.2896
-81.2855
-81.2809
-81.2754
-81.2691
-81.2617
-81.2531
-81.2431
-81.2314
-81.2177
-81.2016
-81.1826
-81.1604
-81.1344
-81.1041
-81.0693
-81.0303
-80.9874
-81.3728
-81.3726
-81.3704
-81.3687
-81.3666
-81.364
-81.3608
-81.357
-81.3525
-81.3472
-81.3411
-81.334
-81.3257
-81.316
-81.3046
-81.2913
-81.2756
-81.2572
-81.2356
-81.2102
-81.1803
-81.1451
-81.1029
-81.0461
-81.4446
-81.4442
-81.4417
-81.4398
-81.4376
-81.4348
-81.4315
-81.4277
-81.4233
-81.4182
-81.4123
-81.4055
-81.3975
-81.3882
-81.3772
-81.3644
-81.3494
-81.3318
-81.3111
-81.2871
-81.2592
-81.227
-81.1902
-81.1631
-81.512
-81.5118
-81.5097
-81.5079
-81.506
-81.5035
-81.5005
-81.497
-81.4928
-81.488
-81.4824
-81.4758
-81.4682
-81.4593
-81.4489
-81.4367
-81.4223
-81.4053
-81.3853
-81.3619
-81.3342
-81.3015
-81.2644
-81.224
-81.581
-81.5807
-81.5784
-81.5766
-81.5746
-81.5721
-81.569
-81.5655
-81.5614
-81.5567
-81.5513
-81.5451
-81.5378
-81.5294
-81.5195
-81.5078
-81.4941
-81.478
-81.4591
-81.4369
-81.4107
-81.3802
-81.3458
-81.301
-81.6475
-81.647
-81.6445
-81.6427
-81.6406
-81.6381
-81.6351
-81.6317
-81.6278
-81.6234
-81.6183
-81.6124
-81.6056
-81.5976
-81.5883
-81.5774
-81.5646
-81.5495
-81.5318
-81.5111
-81.4871
-81.4593
-81.4272
-81.402
-81.7094
-81.7093
-81.7071
-81.7055
-81.7036
-81.7014
-81.6987
-81.6956
-81.692
-81.6879
-81.6831
-81.6776
-81.6713
-81.6639
-81.6552
-81.6449
-81.6329
-81.6187
-81.6021
-81.5827
-81.56
-81.5338
-81.5033
-81.477
-81.7713
-81.7711
-81.7689
-81.7672
-81.7654
-81.7631
-81.7604
-81.7574
-81.754
-81.7501
-81.7456
-81.7405
-81.7346
-81.7277
-81.7196
-81.7101
-81.6989
-81.6856
-81.6701
-81.6519
-81.6305
-81.6058
-81.5781
-81.5547
-81.8302
-81.8297
-81.8274
-81.8256
-81.8237
-81.8215
-81.8189
-81.816
-81.8128
-81.8092
-81.8051
-81.8004
-81.7949
-81.7886
-81.7812
-81.7725
-81.7622
-81.75
-81.7355
-81.7185
-81.6985
-81.6755
-81.6499
-81.6257
-81.8837
-81.8836
-81.8814
-81.8798
-81.8781
-81.8761
-81.8737
-81.8711
-81.8682
-81.8649
-81.8611
-81.8569
-81.852
-81.8463
-81.8396
-81.8317
-81.8222
-81.811
-81.7977
-81.782
-81.7635
-81.742
-81.7174
-81.695
-81.9348
-81.9345
-81.9323
-81.9306
-81.9289
-81.9269
-81.9247
-81.9223
-81.9196
-81.9167
-81.9134
-81.9096
-81.9053
-81.9003
-81.8943
-81.8873
-81.8789
-81.8688
-81.8567
-81.8422
-81.8248
-81.8044
-81.7808
-81.7598
-81.9794
-81.9794
-81.9775
-81.9761
-81.9747
-81.9731
-81.9712
-81.9691
-81.9669
-81.9643
-81.9615
-81.9583
-81.9545
-81.9502
-81.9451
-81.939
-81.9317
-81.9228
-81.912
-81.8987
-81.8825
-81.8626
-81.8383
-81.8123
-82.0235
-82.0232
-82.021
-82.0194
-82.0178
-82.0161
-82.0142
-82.0121
-82.01
-82.0077
-82.0052
-82.0025
-81.9994
-81.9958
-81.9916
-81.9865
-81.9803
-81.9729
-81.9638
-81.9526
-81.9388
-81.9221
-81.9024
-81.8817
-82.0598
-82.0593
-82.0571
-82.0555
-82.054
-82.0524
-82.0507
-82.049
-82.0473
-82.0455
-82.0435
-82.0413
-82.0389
-82.0361
-82.0329
-82.029
-82.0242
-82.0184
-82.0112
-82.0024
-81.9914
-81.978
-81.9618
-81.944
-82.0886
-82.0885
-82.0866
-82.0853
-82.0841
-82.0829
-82.0815
-82.0802
-82.0789
-82.0775
-82.0761
-82.0746
-82.0729
-82.071
-82.0687
-82.0659
-82.0625
-82.0583
-82.0531
-82.0467
-82.039
-82.0297
-82.0184
-82.021
-82.1136
-82.1135
-82.1117
-82.1104
-82.1092
-82.108
-82.1068
-82.1057
-82.1046
-82.1036
-82.1027
-82.1017
-82.1007
-82.0995
-82.0982
-82.0965
-82.0944
-82.0917
-82.0883
-82.084
-82.0787
-82.0726
-82.0671
-82.0696
-82.1324
-82.132
-82.1299
-82.1284
-82.1271
-82.126
-82.125
-82.1241
-82.1234
-82.1229
-82.1224
-82.122
-82.1217
-82.1214
-82.121
-82.1203
-82.1194
-82.118
-82.116
-82.1132
-82.1098
-82.1058
-82.1012
-82.1247
-82.1411
-82.1408
-82.1392
-82.1381
-82.1373
-82.1365
-82.1359
-82.1354
-82.1351
-82.135
-82.1351
-82.1353
-82.1358
-82.1363
-82.1368
-82.1371
-82.1373
-82.1369
-82.1358
-82.1333
-82.1287
-82.1199
-82.1039
-82.083
-82.1473
-82.1466
-82.1444
-82.143
-82.1418
-82.1408
-82.1401
-82.1396
-82.1395
-82.1397
-82.1402
-82.1411
-82.1423
-82.1437
-82.1453
-82.147
-82.1487
-82.15
-82.1507
-82.1505
-82.1488
-82.1449
-82.1378
-82.1352
-82.14
-82.1393
-82.1372
-82.1358
-82.1348
-82.1341
-82.1338
-82.1339
-82.1343
-82.1352
-82.1365
-82.1383
-82.1405
-82.1431
-82.1461
-82.1493
-82.1527
-82.156
-82.1589
-82.1611
-82.1619
-82.1604
-82.155
-82.154
-82.1191
-82.1195
-82.1183
-82.1177
-82.1175
-82.1175
-82.1179
-82.1187
-82.12
-82.1217
-82.1239
-82.1267
-82.1301
-82.1341
-82.1386
-82.1436
-82.149
-82.1547
-82.1605
-82.1662
-82.1713
-82.1754
-82.1787
-82.1874
-82.0958
-82.0955
-82.0939
-82.0932
-82.0929
-82.0931
-82.0937
-82.0949
-82.0967
-82.0991
-82.1021
-82.1059
-82.1105
-82.1158
-82.122
-82.129
-82.1367
-82.1451
-82.1541
-82.1635
-82.173
-82.1825
-82.1919
-82.2109
-82.0589
-82.0589
-82.0577
-82.0572
-82.0573
-82.0578
-82.0589
-82.0606
-82.0629
-82.0661
-82.0701
-82.0749
-82.0808
-82.0876
-82.0956
-82.1046
-82.1147
-82.126
-82.1382
-82.1515
-82.1657
-82.1807
-82.1934
-82.1916
-82.0126
-82.0124
-82.011
-82.0106
-82.0108
-82.0116
-82.013
-82.0151
-82.0181
-82.022
-82.0269
-82.0329
-82.0401
-82.0485
-82.0583
-82.0695
-82.0822
-82.0964
-82.1122
-82.1296
-82.1485
-82.1688
-82.1922
-82.2464
-81.9515
-81.9517
-81.9507
-81.9507
-81.9513
-81.9525
-81.9544
-81.9573
-81.961
-81.9658
-81.9718
-81.9789
-81.9875
-81.9976
-82.0094
-82.0229
-82.0382
-82.0555
-82.0747
-82.0958
-82.1186
-82.1436
-82.1694
-82.1463
-81.8806
-81.8802
-81.8794
-81.8795
-81.8803
-81.8818
-81.8841
-81.8874
-81.8917
-81.8973
-81.9041
-81.9125
-81.9225
-81.9343
-81.948
-81.9638
-81.9819
-82.0025
-82.0256
-82.0517
-82.081
-82.1139
-82.1544
-82.2377
-81.7969
-81.7962
-81.795
-81.795
-81.7958
-81.7974
-81.7999
-81.8036
-81.8085
-81.8148
-81.8227
-81.8322
-81.8437
-81.8572
-81.8729
-81.8912
-81.912
-81.9356
-81.9621
-81.9915
-82.0236
-82.0583
-82.0972
-82.115
-81.6944
-81.694
-81.6928
-81.693
-81.6941
-81.6961
-81.6993
-81.7038
-81.7096
-81.717
-81.7261
-81.7372
-81.7503
-81.7658
-81.7838
-81.8045
-81.8283
-81.8553
-81.8856
-81.9194
-81.9567
-81.9973
-82.0412
-82.0734
-81.5711
-81.5718
-81.5718
-81.5729
-81.5751
-81.5781
-81.5824
-81.5879
-81.5949
-81.6036
-81.6141
-81.6267
-81.6417
-81.6592
-81.6796
-81.7031
-81.73
-81.7605
-81.7948
-81.8332
-81.8756
-81.922
-81.9725
-82.0161
-81.4402
-81.4402
-81.4399
-81.4409
-81.4431
-81.4464
-81.451
-81.4572
-81.465
-81.4748
-81.4866
-81.5007
-81.5175
-81.5371
-81.5599
-81.5863
-81.6165
-81.6508
-81.6894
-81.7326
-81.7804
-81.8328
-81.8902
-81.9339
-81.2882
-81.2885
-81.2885
-81.29
-81.2927
-81.2968
-81.3022
-81.3092
-81.318
-81.3289
-81.3421
-81.3579
-81.3765
-81.3984
-81.4239
-81.4533
-81.487
-81.5253
-81.5687
-81.6173
-81.6713
-81.7308
-81.7955
-81.8504
-81.1224
-81.1222
-81.122
-81.1233
-81.1261
-81.1303
-81.1361
-81.1438
-81.1535
-81.1655
-81.18
-81.1975
-81.2181
-81.2424
-81.2706
-81.3032
-81.3407
-81.3834
-81.4318
-81.4864
-81.5477
-81.6162
-81.6937
-81.7784
-80.9317
-80.9315
-80.9322
-80.9342
-80.9379
-80.943
-80.9499
-80.9587
-80.9696
-80.983
-80.9992
-81.0185
-81.0413
-81.068
-81.0991
-81.135
-81.1763
-81.2234
-81.2767
-81.3366
-81.4035
-81.4781
-81.563
-81.6265
-80.7288
-80.7282
-80.7285
-80.7304
-80.7341
-80.7393
-80.7464
-80.7557
-80.7674
-80.7819
-80.7994
-80.8204
-80.8454
-80.8746
-80.9088
-80.9482
-80.9935
-81.0452
-81.1039
-81.17
-81.2438
-81.326
-81.4179
-81.4984
-80.5018
-80.5008
-80.5006
-80.5024
-80.5061