/*--------------------------------*- C++ -*----------------------------------*\
| =========                 |                                                 |
| \\      /  F ield         | OpenFOAM: The Open Source CFD Toolbox           |
|  \\    /   O peration     | Version:  2.3.0                                 |
|   \\  /    A nd           | Web:      www.OpenFOAM.org                      |
|    \\/     M anipulation  |                                                 |
\*---------------------------------------------------------------------------*/
FoamFile
{
    version     2.0;
    format      ascii;
    class       volScalarField;
    location    "6000";
    object      nut;
}
// * * * * * * * * * * * * * * * * * * * * * * * * * * * * * * * * * * * * * //

dimensions      [0 2 -1 0 0 0 0];

internalField   nonuniform List<scalar> 
6748
(
0.0586045
0.0527574
0.0475581
0.0431819
0.0397192
0.0370771
0.0345502
0.03198
0.0293909
0.0267504
0.024083
0.0218661
0.0659985
0.0617664
0.0580521
0.0548428
0.0521584
0.0500102
0.048379
0.0472213
0.0464853
0.0461081
0.0460341
0.0462107
0.0722377
0.069198
0.0665901
0.064395
0.0625993
0.0611849
0.0601249
0.0593857
0.0589305
0.0587213
0.0587201
0.0588919
0.0774955
0.075266
0.0733828
0.0718118
0.0705328
0.0695254
0.0687678
0.0682373
0.0679108
0.0677652
0.0677793
0.0679318
0.0818611
0.0802057
0.078803
0.0776292
0.0766677
0.0759038
0.0753232
0.0749124
0.0746581
0.0745471
0.0745673
0.0747058
0.0855049
0.0842465
0.0831697
0.0822593
0.0815046
0.0808972
0.0804292
0.0800931
0.079883
0.0797921
0.0798136
0.0799402
0.0885574
0.087576
0.0867265
0.0859975
0.0853837
0.0848827
0.084491
0.0842057
0.0840245
0.0839462
0.0839679
0.0840852
0.0911221
0.0903413
0.0896567
0.0890584
0.0885429
0.0881171
0.0877809
0.0875322
0.0873709
0.0872998
0.0873208
0.0874314
0.0932902
0.0926562
0.0920944
0.0915997
0.0911498
0.0907784
0.090485
0.0902659
0.0901191
0.0900495
0.0900687
0.0901747
0.0951429
0.0946125
0.0941379
0.0937408
0.0933245
0.092993
0.0927332
0.0925417
0.0924095
0.0923325
0.0923477
0.0924502
0.0233762
0.027199
0.0296181
0.0321098
0.0351084
0.0387262
0.0429525
0.0477314
0.0529936
0.058663
0.064658
0.0709183
0.0465554
0.0471097
0.0479947
0.0492677
0.0509766
0.0531567
0.0558263
0.0589821
0.0626003
0.066641
0.0710545
0.0758192
0.0591954
0.0596545
0.0603319
0.0612591
0.0624667
0.0639829
0.0658318
0.0680291
0.0705813
0.0734845
0.0767278
0.0803383
0.0682009
0.0686001
0.0691631
0.0699081
0.0708527
0.0720141
0.0734089
0.0750507
0.0769501
0.0791141
0.0815497
0.0843049
0.0749494
0.0753063
0.0757956
0.0764272
0.0772102
0.0781539
0.0792676
0.0805592
0.0820363
0.0837059
0.0855779
0.0877022
0.0801635
0.0804883
0.0809252
0.081479
0.0821539
0.0829532
0.0838807
0.0849395
0.0861325
0.0874627
0.0889346
0.0905703
0.0842929
0.0845929
0.084991
0.0854884
0.086086
0.0867837
0.0875812
0.0884777
0.0894718
0.090563
0.0917545
0.0930667
0.087627
0.0879076
0.0882757
0.0887305
0.0892705
0.0898937
0.0905971
0.0913765
0.0922268
0.0931435
0.094125
0.095183
0.0903622
0.0906262
0.0909709
0.0913923
0.0918873
0.092454
0.0930876
0.0937799
0.0945235
0.0953113
0.0961352
0.0970053
0.0926342
0.0928789
0.0932047
0.093599
0.0940563
0.0945782
0.0951587
0.095781
0.0964384
0.0971293
0.0978606
0.0985739
0.0648747
0.0535142
0.0444265
0.0371951
0.0313368
0.0264426
0.0224401
0.0196498
0.0172515
0.014741
0.0119583
0.00870918
0.0673462
0.0579396
0.0507917
0.0454761
0.041768
0.0386547
0.0354329
0.0320303
0.0284427
0.0246137
0.0204593
0.0158775
0.0701925
0.0627633
0.0574335
0.0539332
0.0507884
0.0475446
0.0440731
0.0403014
0.0361803
0.0316654
0.0267103
0.0212696
0.0732664
0.0675353
0.0637676
0.0606497
0.0574908
0.0541112
0.0504232
0.0463636
0.0418767
0.0369092
0.0314072
0.0253211
0.0763713
0.0719664
0.0688858
0.0658722
0.0626843
0.0592092
0.0553691
0.0510979
0.0463335
0.0410113
0.0350659
0.0284323
0.0793436
0.0759856
0.0730467
0.0700583
0.0668462
0.0633061
0.0593573
0.0549261
0.0499393
0.0443216
0.0379946
0.0308794
0.0820661
0.0792111
0.0764133
0.0734666
0.0702505
0.0666705
0.0626426
0.0580857
0.052916
0.0470461
0.0403844
0.0328409
0.0846013
0.0819121
0.0791943
0.0762868
0.0730786
0.0694746
0.0653874
0.0607294
0.0554072
0.0493207
0.0423651
0.0344403
0.0866908
0.0841455
0.0815055
0.0786435
0.0754535
0.0718382
0.067704
0.0629611
0.0575106
0.0512452
0.0440434
0.0357844
0.0884219
0.0859912
0.0834307
0.0806231
0.0774618
0.0738477
0.0696734
0.0648495
0.0592836
0.0528885
0.0455257
0.0370238
0.00490646
0.00200248
0.00185095
0.00243908
0.00315595
0.00418802
0.0057429
0.00773907
0.01024
0.0133245
0.0170708
0.0215571
0.0106315
0.0050937
0.00258542
0.00302178
0.00393341
0.00517089
0.00682558
0.00885908
0.0113229
0.0142783
0.0177898
0.0219212
0.0151369
0.00828553
0.00372568
0.00370773
0.00481376
0.00621791
0.00796313
0.0100247
0.0124436
0.0152648
0.0185382
0.0223119
0.0184664
0.0108101
0.00499472
0.00446302
0.00572575
0.00726377
0.00908375
0.0111639
0.0135328
0.0162256
0.019299
0.0228908
0.0209504
0.0126797
0.00617027
0.00525074
0.00662861
0.0082759
0.0101559
0.0122466
0.0145675
0.0171523
0.0200603
0.0233703
0.0228428
0.014068
0.00717809
0.00603547
0.00749722
0.00923678
0.011166
0.0132624
0.015541
0.0180325
0.0207783
0.0238012
0.0243111
0.0151161
0.00802212
0.00678862
0.00831468
0.0101378
0.0121083
0.0142087
0.0164504
0.0188548
0.0214408
0.0242042
0.025471
0.015923
0.0087336
0.00749922
0.00908367
0.0109759
0.0129818
0.0150854
0.0172925
0.0196125
0.0220467
0.024583
0.0264201
0.016554
0.00932843
0.00815886
0.00980057
0.0117548
0.0137928
0.0158957
0.018067
0.0203054
0.0226001
0.0249394
0.0273987
0.0173972
0.00998325
0.00878409
0.0104834
0.0124591
0.0144846
0.0165911
0.0187577
0.020925
0.0230824
0.0252491
0.00109832
0.00381114
0.00811929
0.0129331
0.0178075
0.0225841
0.0271475
0.031467
0.0358038
0.0403725
0.0453255
0.051683
0.000759695
0.00247053
0.00614764
0.0098815
0.0137694
0.0179211
0.0222892
0.0267728
0.0313193
0.0359804
0.0409097
0.0466101
0.000439948
0.00163098
0.00413035
0.00790762
0.01245
0.0167569
0.0209437
0.0250925
0.0292649
0.033554
0.0381357
0.0433561
0.00052741
0.00134868
0.0034086
0.00655824
0.0110638
0.0158439
0.0204881
0.0248719
0.0289526
0.0328395
0.0368233
0.0413648
0.000492787
0.00120171
0.0030309
0.00580762
0.00984964
0.014866
0.0199179
0.0247791
0.0292463
0.0331857
0.0367612
0.0405513
0.000485758
0.00109405
0.00276275
0.00529005
0.00896798
0.013931
0.0192607
0.0245289
0.0294971
0.033866
0.037486
0.0407557
0.000473808
0.00101813
0.00257384
0.00492518
0.00834039
0.0130959
0.0185872
0.0241658
0.0295648
0.034461
0.0384877
0.0416494
0.000468676
0.000963722
0.00243271
0.00465323
0.00787499
0.0123972
0.0179427
0.0237587
0.0295101
0.0348907
0.0394736
0.0429707
0.000465625
0.00092532
0.00232716
0.00444831
0.00752101
0.0118415
0.01737
0.0233661
0.0294079
0.0352023
0.0403326
0.0443321
0.000465453
0.000898105
0.00225107
0.00429865
0.00725931
0.0114211
0.0168954
0.0230316
0.0293221
0.0354682
0.0410826
0.0456488
0.000466965
0.000879285
0.00219735
0.00419147
0.00706907
0.0111094
0.0165181
0.0227685
0.0292798
0.0357269
0.0417454
0.0467948
0.000469677
0.000866411
0.00215993
0.00411548
0.00693173
0.0108797
0.0162223
0.0225728
0.0292906
0.0360053
0.0423642
0.0478238
0.000472828
0.000857394
0.00213356
0.00406124
0.00683222
0.0107097
0.0159894
0.0224323
0.029357
0.0363339
0.0430116
0.0488694
0.000475801
0.000850318
0.00211314
0.00401908
0.00675472
0.0105768
0.015797
0.0223174
0.0294465
0.0366871
0.0436768
0.0499059
0.000478323
0.000844083
0.00209531
0.00398226
0.00668705
0.0104604
0.0156197
0.0221902
0.0295028
0.0369879
0.0442566
0.0507914
0.000480373
0.000838473
0.00207957
0.00394995
0.00662798
0.0103592
0.0154617
0.0220628
0.0295459
0.037274
0.0448351
0.0517524
0.00048185
0.000832987
0.00206455
0.00391949
0.0065729
0.0102656
0.0153135
0.0219238
0.0295597
0.037517
0.0453386
0.0525291
0.000482727
0.000827457
0.0020497
0.00388973
0.0065198
0.0101768
0.0151735
0.0217769
0.0295548
0.0377476
0.0458546
0.0534024
0.00048294
0.000821618
0.00203414
0.00385873
0.00646481
0.0100853
0.0150282
0.0216006
0.0294922
0.0379051
0.0462771
0.0541069
0.000482552
0.000815584
0.0020181
0.00382712
0.00640926
0.00999378
0.014884
0.0214105
0.0293858
0.0380051
0.0466496
0.054826
0.000481623
0.000809318
0.00200128
0.00379426
0.00635199
0.00990012
0.0147372
0.0212062
0.0292282
0.0380177
0.0468969
0.0553466
0.000480343
0.000803138
0.00198463
0.00376211
0.00629655
0.00981049
0.0145982
0.02101
0.0290594
0.0380005
0.0471104
0.0558685
0.000478841
0.000796852
0.00196793
0.00373006
0.00624172
0.00972266
0.0144632
0.0208174
0.0288754
0.0379431
0.0472506
0.0562403
0.000477203
0.000790721
0.00195164
0.00369879
0.00618838
0.0096377
0.0143337
0.0206324
0.0286897
0.0378746
0.047381
0.0566377
0.000475455
0.000784778
0.00193581
0.00366826
0.00613607
0.00955419
0.0142063
0.020449
0.028493
0.0377814
0.0474745
0.0569668
0.000473652
0.00077917
0.00192084
0.00363913
0.00608576
0.00947318
0.0140818
0.0202667
0.0282825
0.0376553
0.0475216
0.0572377
0.000471851
0.000774001
0.00190702
0.00361214
0.00603893
0.00939727
0.0139642
0.0200925
0.0280701
0.0375089
0.0475364
0.057471
0.000470067
0.000769274
0.00189446
0.0035877
0.00599644
0.00932836
0.013857
0.0199327
0.0278684
0.0373592
0.0475378
0.0576918
0.000468294
0.000764901
0.00188299
0.00356555
0.00595825
0.00926664
0.0137614
0.0197897
0.0276836
0.0372139
0.047529
0.0578867
0.000466539
0.000760818
0.00187234
0.00354511
0.00592342
0.00921109
0.0136763
0.0196639
0.0275208
0.037084
0.0475228
0.0580713
0.000464806
0.000756942
0.00186227
0.00352577
0.00589055
0.00915907
0.0135975
0.0195488
0.0273722
0.036962
0.0475023
0.0581928
0.000463068
0.000753352
0.00185285
0.00350746
0.00585926
0.00910952
0.013523
0.019442
0.0272394
0.0368704
0.0475374
0.058429
0.000461268
0.000749961
0.00184393
0.00348991
0.00582873
0.00906007
0.0134467
0.0193288
0.02709
0.0367492
0.0475352
0.0585972
0.000459387
0.000746716
0.00183545
0.00347327
0.00579983
0.00901295
0.0133728
0.0192161
0.0269303
0.0365903
0.047462
0.0586405
0.000457436
0.00074352
0.00182723
0.00345727
0.00577226
0.00896857
0.0133042
0.0191129
0.0267857
0.0364455
0.0474045
0.0587339
0.000455421
0.000740432
0.00181931
0.00344183
0.0057458
0.00892636
0.0132399
0.0190184
0.0266566
0.0363229
0.0473769
0.0588809
0.000453327
0.000737445
0.00181158
0.00342659
0.00571944
0.0088841
0.0131755
0.0189238
0.0265284
0.0362023
0.0473594
0.0590551
0.000451163
0.00073456
0.00180415
0.00341181
0.00569358
0.00884197
0.0131098
0.0188243
0.0263846
0.0360382
0.0472507
0.0590363
0.000448943
0.000731884
0.00179722
0.00339794
0.0056693
0.00880257
0.0130487
0.0187326
0.0262536
0.0358909
0.0471703
0.059105
0.00044667
0.000729359
0.00179067
0.00338472
0.00564597
0.00876442
0.0129893
0.0186431
0.0261252
0.0357417
0.0470748
0.0591202
0.000444353
0.000727093
0.00178478
0.00337268
0.00562449
0.00872892
0.0129334
0.0185584
0.0260027
0.0355966
0.0469854
0.0591739
0.000441973
0.000725011
0.00177949
0.00336183
0.005605
0.00869633
0.0128814
0.018478
0.0258835
0.0354465
0.0468698
0.0591625
0.000439581
0.000723096
0.00177481
0.00335236
0.00558812
0.00866822
0.0128364
0.0184081
0.0257788
0.0353122
0.0467608
0.0591452
0.000437166
0.000721286
0.00177044
0.00334367
0.00557305
0.00864375
0.0127981
0.0183492
0.0256916
0.0352025
0.0466771
0.059139
0.000434655
0.000719397
0.001766
0.00333501
0.00555837
0.00862064
0.0127632
0.0182977
0.0256181
0.0351174
0.0466349
0.0591912
0.000432003
0.000717372
0.00176115
0.00332545
0.00554222
0.00859551
0.0127259
0.0182444
0.0255452
0.0350387
0.0466205
0.0593224
0.000429201
0.000715203
0.00175584
0.00331477
0.00552383
0.00856633
0.0126819
0.0181801
0.0254542
0.0349268
0.0465493
0.0593633
0.000426283
0.000713073
0.00175046
0.00330361
0.00550407
0.00853442
0.012633
0.0181079
0.0253511
0.0347955
0.0464478
0.0593516
0.000423307
0.000711186
0.00174554
0.00329293
0.00548447
0.00850155
0.0125811
0.0180291
0.0252358
0.0346424
0.0463127
0.0593167
0.000420331
0.000709822
0.00174178
0.00328409
0.00546732
0.00847153
0.0125318
0.0179518
0.0251189
0.0344798
0.0461557
0.0592604
0.000417388
0.00070912
0.0017396
0.00327798
0.00545424
0.00844703
0.0124894
0.0178825
0.0250103
0.0343232
0.0459949
0.0591915
0.000414504
0.000709197
0.00173933
0.00327539
0.00544675
0.00843051
0.0124577
0.0178263
0.0249169
0.0341814
0.0458371
0.0591016
0.000411621
0.000710098
0.00174114
0.00327664
0.00544569
0.00842396
0.0124403
0.0177899
0.0248497
0.0340727
0.0457207
0.0590949
0.000408691
0.000711536
0.00174447
0.00328099
0.00545018
0.00842647
0.0124368
0.0177732
0.0248083
0.033993
0.0456134
0.0589866
0.000405728
0.00071357
0.0017492
0.00328801
0.00545943
0.00843721
0.0124469
0.0177782
0.0247998
0.0339593
0.04556
0.0589252
0.0004026
0.000716227
0.0017553
0.00329724
0.00547213
0.00845346
0.0124666
0.017801
0.0248261
0.0339972
0.0456682
0.0592467
0.000399307
0.000719469
0.00176262
0.00330818
0.00548655
0.00847056
0.0124847
0.0178175
0.0248375
0.0340035
0.0457103
0.0594151
0.000395905
0.000723739
0.00177226
0.003323
0.0055064
0.00849414
0.0125088
0.0178363
0.0248412
0.0339786
0.0456699
0.0594445
0.000392346
0.000729089
0.00178451
0.00334279
0.00553436
0.00852971
0.0125494
0.017876
0.0248688
0.0339775
0.0456438
0.0594835
0.000388508
0.000735409
0.00179928
0.0033673
0.00557041
0.00857809
0.0126094
0.0179443
0.0249375
0.0340332
0.045686
0.0595678
0.000384381
0.00074297
0.00181652
0.0033957
0.00561258
0.00863581
0.0126834
0.0180339
0.02504
0.0341443
0.0458237
0.0597981
0.000379851
0.000751748
0.00183627
0.003428
0.00565981
0.00869984
0.0127647
0.0181314
0.0251503
0.0342638
0.0459737
0.0601033
0.000374823
0.000762142
0.00185943
0.0034659
0.00571449
0.00877244
0.0128543
0.0182333
0.0252553
0.0343551
0.0460413
0.0602708
0.000369283
0.000774813
0.0018875
0.00351203
0.00578138
0.00886115
0.0129631
0.0183563
0.0253798
0.0344571
0.046091
0.0603515
0.000363116
0.000790356
0.00192178
0.00356882
0.00586426
0.00897179
0.0131004
0.0185141
0.0255451
0.0346079
0.0462038
0.0605279
0.000356099
0.000809489
0.00196376
0.00363897
0.00596748
0.00911046
0.0132738
0.0187161
0.0257612
0.0348128
0.046362
0.0606993
0.00034772
0.000832784
0.00201496
0.00372519
0.00609509
0.00928287
0.0134909
0.0189712
0.0260379
0.0350821
0.0465855
0.0609423
0.000336968
0.000861316
0.00207769
0.00383077
0.00625183
0.00949653
0.0137624
0.0192945
0.0263955
0.0354391
0.0468778
0.0611169
0.000321143
0.000895172
0.00215252
0.00395725
0.00643961
0.00975276
0.0140889
0.0196862
0.0268383
0.0359103
0.0473577
0.0616648
0.000293402
0.000934932
0.00224269
0.00410977
0.0066644
0.0100562
0.0144706
0.0201359
0.0273334
0.0364118
0.0478117
0.0620382
0.000247173
0.000982241
0.00235302
0.00429652
0.0069377
0.0104203
0.0149201
0.0206521
0.0278792
0.0369277
0.0482083
0.0622079
0.000222281
0.00104836
0.00249165
0.00453058
0.00727946
0.010872
0.0154709
0.0212735
0.0285227
0.0375218
0.048655
0.0623903
0.000211108
0.00114556
0.00267717
0.00484069
0.00772927
0.0114588
0.0161733
0.022049
0.0293075
0.0382343
0.0492022
0.0626968
0.00022171
0.00133445
0.00304916
0.00541367
0.00850352
0.0124047
0.0172377
0.0231563
0.0303649
0.0391422
0.049848
0.0629483
0.000375541
0.00200807
0.00430956
0.00718421
0.0106226
0.0147008
0.0195546
0.0253282
0.0322392
0.0406363
0.0508754
0.063402
0.00116034
0.00459497
0.00886115
0.0137134
0.0190933
0.0249431
0.0312034
0.0378123
0.0447055
0.0518147
0.0590813
0.0664695
0.000123216
0.00191843
0.0049146
0.00877598
0.0134865
0.0189789
0.025176
0.0319669
0.039236
0.0468601
0.0547207
0.0627308
0.000637113
0.0017557
0.00410152
0.00726094
0.0112744
0.0161343
0.0218204
0.0282752
0.0354047
0.0430813
0.0511528
0.0594601
0.000655442
0.001579
0.00360552
0.00635593
0.00990031
0.0142776
0.0195131
0.0255972
0.0324743
0.0400393
0.0481394
0.0565894
0.000670642
0.00138616
0.00318411
0.00564761
0.00885736
0.0128728
0.0177455
0.023498
0.030109
0.0375028
0.0455451
0.0540596
0.000673017
0.00123538
0.00286191
0.00510744
0.00805855
0.0117844
0.0163525
0.021808
0.0281576
0.0353546
0.043291
0.0518137
0.000674574
0.00112472
0.00261598
0.00468801
0.00743028
0.0109165
0.0152245
0.0204154
0.0265178
0.0335115
0.0413145
0.0497853
0.000674784
0.00103883
0.00241907
0.00434808
0.00691707
0.0102013
0.0142851
0.0192418
0.0251176
0.031917
0.0395919
0.0480451
0.000675269
0.000969728
0.00225688
0.00406551
0.00648811
0.00959946
0.0134888
0.0182382
0.0239087
0.0305262
0.0380709
0.0464721
0.00067582
0.000913083
0.00212115
0.00382717
0.00612388
0.00908559
0.0128042
0.0173685
0.0228504
0.0292895
0.0366725
0.044882
0.000676225
0.000865855
0.00200595
0.00362378
0.00581013
0.00864061
0.0122079
0.0166053
0.0219122
0.028178
0.0354004
0.0435079
0.000676513
0.000825895
0.0019068
0.00344752
0.00553628
0.00825043
0.0116823
0.015928
0.0210725
0.0271736
0.0342412
0.0422195
0.000676725
0.00079179
0.00182036
0.0032928
0.00529452
0.00790466
0.0112143
0.0153214
0.0203153
0.0262617
0.0331838
0.0410488
0.000677383
0.000766804
0.00174417
0.00315557
0.00507904
0.0075954
0.010794
0.014774
0.0196285
0.0254303
0.0322142
0.0399614
0.000679688
0.000758188
0.00167643
0.00303279
0.00488535
0.00731658
0.0104137
0.0142767
0.0190018
0.0246677
0.0313177
0.0389375
0.000683404
0.000760372
0.00161582
0.00292215
0.00471001
0.00706356
0.0100676
0.0138228
0.0184279
0.0239668
0.0304933
0.0380161
0.000687508
0.000765637
0.00156134
0.00282176
0.00455021
0.00683259
0.00975098
0.0134063
0.017899
0.0233167
0.029715
0.0370766
0.000691321
0.00077057
0.0015122
0.00273039
0.00440453
0.00662076
0.00945993
0.0130224
0.0174101
0.0227143
0.0290003
0.0363019
0.000694642
0.000774375
0.00146773
0.00264701
0.00427131
0.00642573
0.00919135
0.0126673
0.0169565
0.0221525
0.0283223
0.0354683
0.000697497
0.000777105
0.00142737
0.00257067
0.00414885
0.00624547
0.00894256
0.0123376
0.016534
0.0216273
0.0276889
0.0347501
0.000699949
0.000778951
0.00139069
0.00250044
0.00403568
0.00607826
0.00871132
0.0120304
0.0161394
0.0211357
0.0270961
0.0340619
0.000702076
0.000780269
0.00135867
0.00243558
0.00393066
0.00592257
0.00849565
0.0117435
0.0157702
0.0206758
0.0265449
0.0334402
0.000704069
0.000782209
0.00133722
0.00237571
0.0038329
0.0057772
0.00829399
0.0114749
0.0154244
0.0202453
0.0260279
0.0328361
0.000706186
0.000786182
0.00133
0.00232061
0.00374163
0.00564107
0.00810498
0.0112229
0.0150997
0.0198399
0.025536
0.0322469
0.000708527
0.000792209
0.00133208
0.00227
0.00365628
0.0055133
0.00792743
0.0109861
0.0147945
0.0194596
0.0250822
0.03176
0.000711019
0.000799366
0.00133756
0.00222337
0.00357624
0.0053931
0.00776033
0.0107631
0.0145068
0.0190998
0.0246411
0.0311818
0.000713488
0.000806562
0.00134306
0.00218022
0.00350114
0.00528015
0.00760278
0.0105527
0.0142348
0.0187575
0.0242183
0.0306792
0.000715866
0.000813263
0.00134732
0.00214012
0.00343068
0.00517417
0.00745404
0.0103537
0.013977
0.0184324
0.0238198
0.0302205
0.000718127
0.00081914
0.00135006
0.00210273
0.00336453
0.00507443
0.00731336
0.0101652
0.0137323
0.0181234
0.0234404
0.029764
0.000720176
0.000824164
0.00135134
0.00206775
0.00330231
0.00498027
0.00718004
0.00998624
0.0134997
0.0178293
0.0230793
0.0293363
0.000722049
0.000828462
0.00135137
0.00203491
0.00324363
0.00489119
0.0070535
0.00981615
0.0132783
0.0175493
0.0227354
0.0289264
0.000723775
0.000832112
0.00135036
0.00200406
0.00318822
0.00480673
0.00693322
0.0096543
0.0130675
0.0172825
0.0224065
0.0285288
0.000725379
0.000835252
0.00134852
0.00197514
0.00313575
0.00472653
0.00681876
0.00950013
0.0128666
0.0170278
0.0220921
0.0281522
0.000726879
0.000837962
0.00134613
0.00194868
0.00308606
0.00465028
0.00670966
0.00935308
0.0126747
0.0167843
0.0217906
0.0277848
0.0007283
0.000840388
0.00134375
0.00192663
0.00303901
0.00457767
0.00660556
0.00921263
0.0124913
0.016551
0.0215004
0.027429
0.000729683
0.000842785
0.00134245
0.00191204
0.00299468
0.00450847
0.00650611
0.00907835
0.0123157
0.0163272
0.0212221
0.0270958
0.000731085
0.000845458
0.00134325
0.00190589
0.00295321
0.0044425
0.00641102
0.00894987
0.0121476
0.0161129
0.0209566
0.026781
0.000732558
0.000848645
0.00134649
0.00190613
0.00291454
0.00437962
0.00632021
0.00882688
0.0119866
0.0159078
0.0207025
0.0264734
0.000734131
0.000852369
0.00135179
0.0019099
0.00287852
0.00431975
0.00623372
0.00870907
0.0118322
0.0157107
0.0204556
0.0261621
0.000735801
0.000856548
0.00135844
0.00191504
0.00284488
0.00426279
0.00615124
0.00859616
0.0116841
0.0155219
0.0202239
0.0259142
0.000737542
0.000860964
0.00136569
0.00192028
0.00281337
0.00420857
0.00607244
0.00848794
0.0115421
0.0153412
0.0200021
0.0256423
0.000739328
0.000865421
0.00137301
0.001925
0.00278371
0.00415693
0.00599711
0.00838418
0.0114061
0.0151685
0.0197891
0.0253872
0.000741136
0.000869771
0.00138002
0.00192893
0.00275571
0.00410772
0.00592501
0.00828472
0.0112757
0.0150029
0.0195851
0.0251441
0.000742948
0.000873911
0.00138652
0.00193199
0.00272919
0.00406077
0.00585605
0.00818937
0.0111507
0.0148443
0.0193894
0.0249062
0.000744756
0.000877801
0.0013924
0.00193417
0.00270396
0.00401594
0.00579
0.008098
0.0110309
0.0146918
0.0191987
0.0246579
0.000746559
0.000881407
0.00139764
0.00193554
0.00267998
0.0039731
0.00572674
0.00801036
0.0109158
0.0145446
0.019012
0.0244175
0.000748355
0.00088477
0.0014023
0.00193618
0.00265719
0.00393218
0.00566623
0.00792628
0.0108051
0.0144027
0.0188333
0.0242071
0.000750149
0.000887892
0.00140639
0.0019362
0.0026357
0.00389306
0.00560817
0.00784549
0.0106988
0.0142659
0.0186585
0.0239774
0.000751949
0.0008908
0.00140999
0.0019358
0.00261587
0.00385581
0.00555263
0.00776806
0.0105966
0.0141345
0.018498
0.023832
0.000753764
0.000893537
0.00141321
0.00193523
0.00259846
0.00382022
0.0054993
0.00769353
0.0104983
0.0140085
0.0183409
0.0236072
0.000755603
0.000896156
0.00141622
0.00193497
0.00258467
0.00378638
0.00544819
0.00762193
0.0104038
0.0138873
0.0181888
0.0234265
0.000757451
0.000898666
0.0014192
0.00193551
0.00257553
0.00375442
0.00539927
0.00755336
0.0103131
0.0137709
0.0180411
0.0232337
0.000759353
0.000901217
0.00142242
0.00193737
0.00257138
0.00372465
0.00535282
0.00748819
0.0102263
0.0136591
0.0178997
0.0230637
0.000761374
0.000903861
0.00142609
0.00194085
0.00257134
0.00369691
0.00530855
0.00742607
0.0101434
0.013552
0.0177648
0.0228994
0.000763524
0.000906667
0.00143042
0.00194584
0.00257411
0.00367113
0.00526646
0.00736681
0.0100639
0.0134497
0.0176364
0.0227463
0.000765832
0.000909781
0.00143541
0.001952
0.00257869
0.00364744
0.00522675
0.00731058
0.00998812
0.0133518
0.0175139
0.0225963
0.000768225
0.000913004
0.00144091
0.00195909
0.00258424
0.00362547
0.00518913
0.00725705
0.00991585
0.0132586
0.0173967
0.0224485
0.000770748
0.000916378
0.00144683
0.00196675
0.00259019
0.00360514
0.00515359
0.00720625
0.00984713
0.0131698
0.0172841
0.0223024
0.000773422
0.000919951
0.00145308
0.00197475
0.00259635
0.00358653
0.00512035
0.00715839
0.00978196
0.0130853
0.0171759
0.0221623
0.000776173
0.00092332
0.00145942
0.00198287
0.00260233
0.00356932
0.0050891
0.00711326
0.00972056
0.0130052
0.0170725
0.0220275
0.000779059
0.000927028
0.00146582
0.00199087
0.00260806
0.00355349
0.00505994
0.0070709
0.00966263
0.0129296
0.0169744
0.0219017
0.000782451
0.000930952
0.00147246
0.00199884
0.00261357
0.00353927
0.00503317
0.00703167
0.00960861
0.0128584
0.0168815
0.021781
0.000785895
0.000934741
0.00147894
0.00200658
0.00261887
0.00352643
0.00500861
0.00699539
0.00955839
0.0127919
0.0167949
0.0216738
0.000789572
0.000938576
0.00148531
0.00201411
0.00262402
0.00351509
0.00498643
0.00696235
0.00951233
0.0127306
0.0167149
0.0215703
0.00079354
0.000942383
0.00149155
0.00202141
0.00262904
0.00350531
0.00496677
0.00693274
0.00947069
0.012675
0.0166426
0.0214828
0.000797786
0.000946299
0.00149772
0.00202865
0.00263424
0.0034974
0.00495005
0.00690705
0.00943394
0.0126256
0.0165775
0.0213932
0.000802289
0.000949908
0.00150368
0.00203564
0.0026394
0.00349134
0.00493629
0.0068855
0.00940285
0.0125833
0.016522
0.0213347
0.000807239
0.000953984
0.00150973
0.00204267
0.00264477
0.00348743
0.00492601
0.00686869
0.00937794
0.0125493
0.0164778
0.0212803
0.000813167
0.000958365
0.00151595
0.00204974
0.00265062
0.00348631
0.00492007
0.00685776
0.0093606
0.0125245
0.0164442
0.0212285
0.000819648
0.000962833
0.0015223
0.00205708
0.00265722
0.00348839
0.00491916
0.00685362
0.00935206
0.0125106
0.0164227
0.0211945
0.000827059
0.000967421
0.0015287
0.00206468
0.00266474
0.00349423
0.00492427
0.00685772
0.00935412
0.0125093
0.0164141
0.0211643
0.000835924
0.000973517
0.00153681
0.00207392
0.00267467
0.00350702
0.00493919
0.00687406
0.00937052
0.0125244
0.0164254
0.0211869
0.000844871
0.000973972
0.00154038
0.00208047
0.00268335
0.00352109
0.00495899
0.00689927
0.00940021
0.0125565
0.0164555
0.0211848
0.000887274
0.0010146
0.00157072
0.00210889
0.0027159
0.00357878
0.00502908
0.0069765
0.00948002
0.012633
0.0165225
0.0212633
0.000439639
0.000822223
0.00150259
0.00205206
0.00265233
0.00350597
0.00495892
0.00691622
0.00943708
0.0126156
0.0165401
0.0213079
0.137515
0.131245
0.112613
0.140076
0.133625
0.0381845
0.117671
0.138732
0.135041
0.0744164
0.0698689
0.0549321
0.127952
0.137268
0.128479
0.101684
0.131877
0.0391539
0.132179
0.179341
0.0765086
0.138025
0.121536
0.0826061
0.137744
0.121277
0.13894
0.102094
0.0811821
0.135065
0.137762
0.0611453
0.116082
0.103741
0.13773
0.03051
0.110461
0.0928745
0.135412
0.120456
0.106171
0.135235
0.126934
0.0973004
0.132913
0.078115
0.110254
0.138398
0.139062
0.127426
0.140026
0.118223
0.139534
0.0939599
0.0811826
0.347162
0.12738
0.107864
0.0783231
0.124716
0.140072
0.101816
0.0894022
0.118212
0.134798
0.111729
0.123927
0.0981791
0.136298
0.106496
0.276883
0.104474
0.0743254
0.331602
0.0804708
0.0578296
0.100172
0.130755
0.0553005
0.0874138
0.12562
0.125259
0.117155
0.139959
0.128356
0.100422
0.127098
0.120345
0.282428
0.0977296
0.137932
0.139801
0.139949
0.121004
0.139869
0.0920007
0.13888
0.116172
0.136365
0.0698086
0.0805551
0.0556766
0.0737486
0.109207
0.109786
0.116915
0.135381
0.138934
0.0949411
0.128344
0.0475525
0.137764
0.1382
0.0175657
0.121709
0.142107
0.123354
0.0840849
0.0939947
0.248132
0.138924
0.0972483
0.0702061
0.119376
0.0716537
0.12135
0.105779
0.0278832
0.138689
0.10822
0.113286
0.059962
0.140003
0.128762
0.0990959
0.13642
0.0962689
0.136009
0.122883
0.12613
0.138556
0.139364
0.138435
0.126156
0.10727
0.0868515
0.113217
0.131582
0.0685647
0.103697
0.145589
0.13576
0.11626
0.138216
0.0331597
0.135305
0.118384
0.126859
0.106175
0.12892
0.0980317
0.0841114
0.104298
0.0591147
0.129173
0.309526
0.097075
0.123542
0.108675
0.0673177
0.0493029
0.1347
0.135501
0.0704068
0.0486219
0.138425
0.116046
0.0887288
0.132977
0.137465
0.122809
0.091823
0.137502
0.130104
0.139888
0.177655
0.136639
0.086263
0.138345
0.293961
0.136445
0.113626
0.0847436
0.110022
0.114849
0.0794377
0.103385
0.0727737
0.121514
0.102126
0.137187
0.120826
0.138272
0.0825833
0.106517
0.117322
0.13608
0.0862934
0.107506
0.177155
0.112633
0.11055
0.118271
0.136972
0.0917107
0.0158812
0.0707555
0.121604
0.0433831
0.0733741
0.117333
0.132537
0.129376
0.125921
0.116358
0.138632
0.0876194
0.124785
0.138188
0.0382782
0.110248
0.113932
0.128958
0.0497749
0.0897524
0.12987
0.0952689
0.101316
0.137169
0.139594
0.131198
0.0750734
0.135759
0.140035
0.11064
0.0528416
0.139929
0.117103
0.107282
0.139106
0.124683
0.120308
0.0767225
0.12686
0.125746
0.0945346
0.0435092
0.130653
0.0915946
0.101248
0.108695
0.137195
0.125164
0.105003
0.074474
0.127989
0.135839
0.137325
0.14008
0.0946341
0.126626
0.136812
0.12125
0.0668807
0.0667327
0.0977713
0.133384
0.104564
0.136884
0.0629448
0.0824949
0.0496283
0.139904
0.0713444
0.0933642
0.136308
0.128535
0.138585
0.13676
0.0265332
0.05217
0.122494
0.11975
0.111186
0.113045
0.131851
0.120934
0.140036
0.0894998
0.0584156
0.0685641
0.106841
0.0516093
0.115816
0.138007
0.138326
0.121265
0.136688
0.0726915
0.0496481
0.117843
0.0925477
0.136624
0.0426466
0.22878
0.136165
0.0339174
0.135696
0.139361
0.0778816
0.121302
0.120265
0.126058
0.138003
0.131705
0.0780463
0.135818
0.139347
0.0564085
0.134908
0.131266
0.09597
0.0539492
0.125883
0.111353
0.084968
0.0839423
0.142371
0.140456
0.135406
0.175864
0.12057
0.118822
0.263805
0.111101
0.0939769
0.135956
0.119139
0.145405
0.12777
0.136606
0.140041
0.122048
0.0361558
0.126435
0.138982
0.136868
0.138001
0.219393
0.0883591
0.102852
0.13784
0.120238
0.134152
0.0567504
0.190477
0.129609
0.110336
0.137183
0.085646
0.12851
0.0904775
0.137303
0.13952
0.0320215
0.0773207
0.0493248
0.074417
0.156593
0.0559509
0.137259
0.114763
0.131016
0.136851
0.103428
0.136738
0.0750454
0.0428389
0.0928725
0.111715
0.0708717
0.0555501
0.140018
0.125641
0.132505
0.137178
0.0875183
0.0672165
0.129873
0.0893134
0.131449
0.0625342
0.0570344
0.111743
0.136449
0.112589
0.087716
0.0389388
0.112211
0.0299102
0.0631118
0.107948
0.139927
0.136521
0.112222
0.0756947
0.0654848
0.137929
0.137928
0.139007
0.134802
0.120958
0.138387
0.111016
0.137213
0.138193
0.0931869
0.134169
0.121101
0.111668
0.135304
0.0508912
0.126796
0.0916389
0.13095
0.0866267
0.0491145
0.137297
0.0755793
0.108804
0.0842397
0.0898721
0.138207
0.116219
0.132222
0.0946643
0.139488
0.129943
0.0986103
0.122008
0.123655
0.135021
0.0560905
0.158789
0.0919505
0.0760424
0.14004
0.13389
0.0859846
0.138605
0.135691
0.109377
0.138494
0.0816621
0.0801205
0.140061
0.137192
0.0869771
0.0277714
0.105244
0.0835019
0.079979
0.131646
0.0376652
0.0689926
0.0833149
0.0755675
0.0738064
0.140082
0.119073
0.108215
0.126629
0.107092
0.0861546
0.110084
0.132086
0.134164
0.106754
0.138483
0.139001
0.0735655
0.137014
0.0534372
0.138637
0.135165
0.136114
0.120899
0.0978621
0.133493
0.117863
0.139114
0.0875496
0.13872
0.126217
0.110117
0.1396
0.110319
0.134159
0.0602746
0.134617
0.114739
0.118188
0.0975481
0.113651
0.0404191
0.0938631
0.0766685
0.138075
0.140073
0.0903752
0.262037
0.133377
0.0767504
0.128806
0.140029
0.114054
0.103875
0.0452574
0.0422829
0.0713442
0.0828684
0.118872
0.0821921
0.0628316
0.137981
0.0708845
0.135247
0.0678092
0.0869155
0.0897358
0.0302898
0.137994
0.109428
0.104471
0.0405469
0.140049
0.120583
0.0265887
0.092852
0.122248
0.127664
0.102259
0.0339135
0.135411
0.0923986
0.139266
0.138686
0.0340043
0.0686641
0.0423164
0.133533
0.132455
0.125562
0.101611
0.124444
0.139867
0.087712
0.134331
0.115025
0.0407845
0.137081