/*--------------------------------*- C++ -*----------------------------------*\
| =========                 |                                                 |
| \\      /  F ield         | OpenFOAM: The Open Source CFD Toolbox           |
|  \\    /   O peration     | Version:  2.3.0                                 |
|   \\  /    A nd           | Web:      www.OpenFOAM.org                      |
|    \\/     M anipulation  |                                                 |
\*---------------------------------------------------------------------------*/
FoamFile
{
    version     2.0;
    format      ascii;
    class       surfaceScalarField;
    location    "6000";
    object      phi;
}
// * * * * * * * * * * * * * * * * * * * * * * * * * * * * * * * * * * * * * //

dimensions      [0 3 -1 0 0 0 0];

internalField   nonuniform List<scalar> 
13381
(
-0.0215852
-0.0237003
0.0269906
0.0182948
-0.0242168
-0.0195238
0.0221554
-0.0262336
-0.0160717
0.0180886
-0.0276307
-0.0132004
0.0145975
-0.0284093
-0.0108031
0.0115817
-0.0286145
-0.0087972
0.0090024
-0.0283309
-0.00712097
0.00683739
-0.0276677
-0.00572534
0.0050622
-0.0267307
-0.00457125
0.00363425
-0.0256078
-0.00362906
0.00250613
-0.0243952
-0.00287031
0.00165772
-0.00225857
-0.0233427
0.00120603
-0.0185344
-0.0211728
0.016007
-0.0203688
-0.0176895
-0.0216434
-0.0147971
-0.0224434
-0.0124004
-0.0228281
-0.0104183
-0.0228437
-0.00878159
-0.0225296
-0.00743514
-0.0219243
-0.00633062
-0.0210687
-0.00542683
-0.0200026
-0.00469515
-0.018771
-0.00410193
-0.00362838
-0.0174012
-0.0161645
-0.0191072
0.0140988
-0.0175931
-0.0162609
-0.0184978
-0.0138924
-0.018964
-0.0119342
-0.0190722
-0.0103101
-0.0188881
-0.00896571
-0.0184681
-0.00785514
-0.0178627
-0.00693604
-0.0171103
-0.00617925
-0.0162485
-0.00555691
-0.0153028
-0.00504761
-0.00463224
-0.014299
-0.0141384
-0.0173689
0.0124001
-0.015329
-0.0150703
-0.0160603
-0.013161
-0.0164207
-0.0115739
-0.0164756
-0.0102551
-0.0162818
-0.00915954
-0.0158893
-0.00824763
-0.0153373
-0.007488
-0.0146592
-0.00685731
-0.0138839
-0.00633229
-0.0130348
-0.00589666
-0.00553825
-0.0121288
-0.0124211
-0.0158717
0.0109239
-0.013434
-0.0140574
-0.0140497
-0.0125453
-0.0143382
-0.0112854
-0.014364
-0.0102294
-0.0141774
-0.00934617
-0.013819
-0.00860596
-0.0133249
-0.0079821
-0.0127224
-0.00745987
-0.0120351
-0.00701962
-0.0112819
-0.00664977
-0.00634097
-0.0104792
-0.0109639
-0.0145553
0.00964748
-0.0118501
-0.0131712
-0.0123869
-0.0120085
-0.012637
-0.0110352
-0.0126552
-0.0102112
-0.0124855
-0.00951588
-0.0121643
-0.00892713
-0.0117196
-0.00842686
-0.0111794
-0.008
-0.0105617
-0.00763734
-0.0098825
-0.00732897
-0.00706673
-0.00915674
-0.0097166
-0.0133878
0.00854914
-0.0105034
-0.0123844
-0.0109793
-0.0115326
-0.0112031
-0.0108114
-0.0112185
-0.0101958
-0.0110657
-0.00966867
-0.0107771
-0.00921569
-0.0103798
-0.00882417
-0.00989216
-0.00848763
-0.00933505
-0.00819445
-0.00872218
-0.00794183
-0.0077244
-0.00806451
-0.00864483
-0.0123497
0.0076067
-0.00935034
-0.0116789
-0.0097757
-0.0111072
-0.00997665
-0.0106105
-0.00999131
-0.0101812
-0.00985752
-0.00980246
-0.00959879
-0.00947443
-0.00923916
-0.0091838
-0.00880065
-0.00892614
-0.00829637
-0.00869873
-0.00774046
-0.00849775
-0.00832134
-0.00714352
-0.0077134
-0.0114179
0.00678163
-0.00834565
-0.0110466
-0.00873271
-0.0107202
-0.00891583
-0.0104274
-0.0089324
-0.0101646
-0.0088103
-0.00992456
-0.00857851
-0.00970622
-0.00825583
-0.00950648
-0.00785837
-0.00932361
-0.00740154
-0.00915555
-0.00689739
-0.0090019
-0.00886284
-0.00635589
-0.0069026
0.00605627
-0.0105716
-0.00747195
-0.0104773
-0.00782158
-0.0103706
-0.00799071
-0.0102582
-0.00800365
-0.0101517
-0.00789619
-0.010032
-0.00768855
-0.00991386
-0.00739825
-0.00979678
-0.00703839
-0.00968346
-0.00662317
-0.00957077
-0.00616627
-0.0094588
-0.00567471
-0.00935439
-0.020762
-0.00206362
-0.000517021
-0.0185721
-0.00226306
7.31549e-05
-0.0165282
-0.00257563
0.000531707
-0.0145788
-0.00300734
0.00105788
-0.012737
-0.00357467
0.00173293
-0.0110456
-0.00430473
0.00261331
-0.00956976
-0.00523289
0.00375704
-0.00838823
-0.00640253
0.005221
-0.00758343
-0.00786777
0.00706298
-0.00723355
-0.00969599
0.00934611
-0.00741146
-0.0119729
0.0121508
-0.0148125
0.0155932
-0.00819209
-0.0159598
-0.00350502
-0.0145222
-0.00370058
-0.0131268
-0.00397104
-0.011806
-0.00432821
-0.0105851
-0.00479555
-0.0094947
-0.00539513
-0.00856833
-0.00615926
-0.00784359
-0.00712727
-0.00736778
-0.00834359
-0.0072004
-0.00986337
-0.00741865
-0.0117547
-0.0141093
-0.00812188
-0.0132755
-0.00452849
-0.0122611
-0.00471496
-0.0112714
-0.00496078
-0.0103192
-0.00528035
-0.00942317
-0.00569161
-0.00860799
-0.0062103
-0.0079034
-0.00686385
-0.0073517
-0.00767897
-0.00700252
-0.00869277
-0.00691734
-0.00994855
-0.00716947
-0.0115025
-0.0134344
-0.00784434
-0.0112168
-0.00544049
-0.0103397
-0.00559202
-0.00950658
-0.00579392
-0.00872883
-0.0060581
-0.00802112
-0.00639931
-0.00740162
-0.00682981
-0.00689432
-0.00737114
-0.00652868
-0.00804461
-0.00634224
-0.00887921
-0.00638269
-0.0099081
-0.00671224
-0.011173
-0.0127305
-0.00741615
-0.00967317
-0.00624654
-0.00890834
-0.00635685
-0.00819156
-0.0065107
-0.007533
-0.00671667
-0.00694613
-0.00698618
-0.00644607
-0.00732987
-0.00605405
-0.00776316
-0.00579509
-0.00830358
-0.00570181
-0.00897249
-0.00581568
-0.00979423
-0.00618721
-0.0108014
-0.0120421
-0.00687568
-0.00842982
-0.00697346
-0.00774667
-0.00704
-0.00711252
-0.00714485
-0.00653842
-0.00729077
-0.00603629
-0.00748831
-0.00562003
-0.00774613
-0.00530838
-0.0080748
-0.00512537
-0.00848658
-0.00509888
-0.00899898
-0.00526429
-0.00962881
-0.00566466
-0.0104011
-0.0113424
-0.00636427
-0.00740833
-0.00762964
-0.00679224
-0.00765608
-0.00622713
-0.00770997
-0.0057197
-0.00779819
-0.0052815
-0.00792651
-0.00492682
-0.0081008
-0.00467268
-0.00832894
-0.00453909
-0.00862017
-0.0045528
-0.00898527
-0.00474553
-0.00943608
-0.00515578
-0.00999082
-0.0106706
-0.00582767
-0.00654723
-0.00822593
-0.00599189
-0.00821142
-0.00548351
-0.00821835
-0.00503037
-0.00825133
-0.00464466
-0.00831223
-0.00433753
-0.00840793
-0.00412569
-0.00854078
-0.00402735
-0.00871851
-0.00406628
-0.00894634
-0.0042734
-0.00922896
-0.00468147
-0.00958276
-0.0100184
-0.00533367
-0.00581393
-0.0087679
-0.00530997
-0.00871537
-0.00485134
-0.00867698
-0.00444555
-0.00865712
-0.0041024
-0.00865538
-0.00383432
-0.00867601
-0.00365511
-0.00871999
-0.00358146
-0.00879216
-0.0036356
-0.0088922
-0.00384585
-0.00901871
-0.00424321
-0.0091854
-0.00939608
-0.00486549
-0.00518204
-0.00926057
-0.00472561
-0.0091718
-0.00431101
-0.00909158
-0.00394594
-0.00902219
-0.00363951
-0.00896181
-0.00340339
-0.00891213
-0.00324945
-0.00887393
-0.00319623
-0.00884538
-0.00325909
-0.00882934
-0.00346466
-0.00881314
-0.0038421
-0.00880795
-0.00881102
-0.00442716
0.00368041
-0.00158449
0.00159685
-0.00369276
0.00360137
-0.00164087
0.0017199
0.00351446
-0.00143676
0.00152368
0.00342671
-0.00109648
0.00118423
0.00331762
-0.000700211
0.000809307
0.00315322
-0.000292843
0.000457234
0.00289272
0.000107782
0.000152724
0.00249047
0.00050341
-0.000101166
0.00189363
0.000907666
-0.000310822
0.00103492
0.00134782
-0.000489112
-0.000179587
0.00186568
-0.000651177
0.00252502
-0.0019075
-0.000797107
0.00324728
-0.00146602
-0.00336574
0.00306279
-0.00145638
0.00285126
-0.00122523
0.0026236
-0.000868824
0.00237086
-0.000447479
0.00207128
6.74349e-06
0.00169636
0.000482701
0.00121453
0.000985243
0.000593935
0.00152826
-0.000191808
0.00213357
-0.00114429
0.00281816
0.00357432
-0.00219359
0.00272945
-0.0012766
-0.00291887
0.00247717
-0.0012041
0.00220153
-0.000949597
0.00191606
-0.000583352
0.00161778
-0.000149199
0.00129196
0.00033256
0.000917041
0.000857622
0.000469971
0.00143231
-7.12086e-05
0.00206944
-0.000720174
0.00278253
-0.00147991
0.0035779
0.00443505
-0.00234064
0.00223272
-0.00104691
-0.00246241
0.0019591
-0.000930478
0.00167498
-0.000665478
0.00139291
-0.000301284
0.00110911
0.000134598
0.000810366
0.000631309
0.000478294
0.00118969
9.18198e-05
0.00181879
-0.000368249
0.00252951
-0.000922084
0.00333637
-0.0015832
0.00423902
0.00522145
-0.0023696
0.00180311
-0.000809374
-0.00204065
0.00153938
-0.000666749
0.00127656
-0.000402651
0.00102185
-4.65742e-05
0.000770103
0.000386343
0.000508652
0.00089276
0.000220474
0.00147787
-0.000113212
0.00215247
-0.000514278
0.00293057
-0.00100188
0.00382397
-0.00159988
0.00483701
0.00594699
-0.00232542
0.00144328
-0.000584091
-0.00166856
0.00120785
-0.000431317
0.000977994
-0.000172796
0.000757369
0.000174052
0.000539717
0.000603995
0.000313497
0.00111898
6.29083e-05
0.00172846
-0.000230248
0.00244563
-0.00058615
0.00328647
-0.00102512
0.00426294
-0.00156856
0.00538046
0.00661395
-0.00223552
0.00115676
-0.000383521
-0.00135733
0.000952443
-0.000226998
0.000755795
2.38515e-05
0.000567122
0.000362724
0.000379947
0.000791169
0.000182797
0.00131613
-3.76768e-05
0.00194893
-0.0002981
0.00270605
-0.000616917
0.00360529
-0.00101575
0.00466178
-0.00151265
0.00587736
0.0072281
-0.0021268
0.000927731
-0.00020944
-0.00110181
0.000753919
-5.31856e-05
0.000587916
0.000189854
0.000428479
0.000522162
0.000267562
0.000952086
9.51632e-05
0.00148853
-0.000101465
0.00214556
-0.000334475
0.00293906
-0.000624033
0.00389485
-0.000988236
0.00502598
-0.00144215
0.00633127
0.00778903
-0.00200308
0.000742721
-6.2868e-05
-0.000889294
0.000596905
9.2631e-05
0.000458248
0.00032851
0.000325246
0.000655164
0.000188795
0.00108854
3.66881e-05
0.00164064
-0.0001415
0.00232375
-0.000354791
0.00315235
-0.000618895
0.00415895
-0.000949116
0.0053562
-0.00136124
0.0067434
0.0083008
-0.00187301
0.000598803
5.59244e-05
-0.000717596
0.000473256
0.000218178
0.0003537
0.000448066
0.000243539
0.000765326
0.000126986
0.00120509
-6.23854e-06
0.00177386
-0.000174195
0.00249171
-0.000373599
0.00335176
-0.000611801
0.00439716
-0.000923713
0.00566811
-0.00130026
0.00711994
-0.00176907
0.00876961
-0.00263358
0.0037565
-0.00303042
-0.00372477
0.00531405
-0.00422286
-0.00489235
0.0065572
-0.00538962
-0.00591725
0.00768502
-0.00666013
-0.00672978
0.00893411
-0.00812158
-0.0072792
0.0103605
-0.00981106
-0.00752316
0.0120156
-0.0117716
-0.00740982
0.013961
-0.0140743
-0.00688231
0.0162553
-0.0167828
-0.0058688
0.0189724
-0.0199859
-0.00429231
0.0221999
-0.0237764
0.026031
-0.0282672
-0.00205609
-0.00311382
0.00467673
-0.00408709
0.00628732
-0.00512877
0.00759888
-0.0060271
0.00858335
-0.00671093
0.00961794
-0.00714898
0.0107985
-0.00731022
0.0121768
-0.00714834
0.0137991
-0.00661563
0.0157226
-0.00564947
0.0180063
-0.00416721
0.0207177
0.0239487
-0.00208486
-0.00326735
0.00560344
-0.00417236
0.00719233
-0.00508038
0.00850691
-0.00586367
0.00936663
-0.00645278
0.010207
-0.00682628
0.011172
-0.0069468
0.0122973
-0.00677805
0.0136304
-0.00627013
0.0152147
-0.0053661
0.0171022
-0.00399739
0.019349
0.0220199
-0.00206859
-0.00324788
0.00648171
-0.00410422
0.00804867
-0.00490629
0.00930899
-0.0055917
0.010052
-0.0061069
0.0107222
-0.00642655
0.0114917
-0.00652197
0.0123928
-0.00635534
0.0134637
-0.00588412
0.0147434
-0.00505058
0.0162687
-0.00379036
0.0180888
0.0202555
-0.00202603
-0.00313901
0.0072953
-0.00393568
0.00884534
-0.00465608
0.0100294
-0.00526093
0.0106569
-0.00571674
0.0111781
-0.00599517
0.0117701
-0.00607215
0.0124697
-0.00591683
0.0133084
-0.00548213
0.0143087
-0.00471762
0.0155042
-0.00356525
0.0169364
0.0186468
-0.00195647
-0.00298683
0.00804661
-0.00371736
0.00957586
-0.00436651
0.0106785
-0.00490603
0.0111964
-0.00530784
0.0115799
-0.00555447
0.0120168
-0.00562463
0.0125399
-0.00547743
0.0131612
-0.00507842
0.0139097
-0.00438465
0.0148104
-0.00333527
0.015887
0.0171813
-0.00186981
-0.00281427
0.00873409
-0.00348063
0.0102422
-0.00406222
0.0112601
-0.00454026
0.0116744
-0.00490063
0.0119402
-0.00512453
0.0122407
-0.00518349
0.0125989
-0.0050508
0.0130285
-0.00469148
0.0135504
-0.0040572
0.0141761
-0.00310537
0.0149352
0.0158441
-0.00176819
-0.00263346
0.00936447
-0.00323995
0.0108487
-0.00376114
0.0117813
-0.00418991
0.0121032
-0.00451055
0.0122609
-0.00471114
0.0124413
-0.00476184
0.0126496
-0.00464209
0.0129088
-0.00431389
0.0132222
-0.00374189
0.0136041
-0.00287651
0.0140698
0.0146303
-0.00166265
-0.00244804
0.0099395
-0.00299331
0.011394
-0.00345966
0.0122477
-0.00384326
0.0124868
-0.00413799
0.0125556
-0.00431726
0.0126205
-0.00436701
0.0126993
-0.00425865
0.0128004
-0.00396169
0.0129252
-0.00344337
0.0130858
-0.00265739
0.0132838
0.0135295
-0.00155665
-0.00230209
0.0104725
-0.00279669
0.0118886
-0.00318537
0.0126364
-0.00352125
0.0128227
-0.00378729
0.0128216
-0.00395272
0.012786
-0.00399702
0.0127436
-0.00389892
0.0127023
-0.00363311
0.0126594
-0.00316376
0.0126165
-0.00245036
0.0125704
0.0125294
-0.00145028
0.00279973
-0.00159371
0.00542713
-0.000969658
0.0081633
-0.00023004
0.0109784
0.00081914
0.0137255
0.00231516
0.0161848
0.00437801
0.0181489
0.00703835
0.0194451
0.0102854
0.0199809
0.0140617
0.0197903
0.0182792
0.0190513
0.0228944
0.0280287
0.0180132
-0.000103313
-0.00149041
0.000564007
-0.00163704
0.001836
-0.00150201
0.0036746
-0.00101945
0.00605277
-6.30038e-05
0.00888836
0.00154242
0.0119087
0.00401798
0.0147145
0.00747962
0.0168878
0.0118884
0.0181296
0.0170373
0.0183866
0.0226375
0.0285398
0.0178755
-9.96689e-05
-0.00139068
-0.000137107
-0.00159954
2.33355e-05
-0.00166247
0.000560505
-0.00155663
0.00167315
-0.00117565
0.00353775
-0.000322189
0.00618667
0.00136906
0.00938407
0.00428222
0.0126248
0.00864772
0.0152764
0.0143857
0.0168513
0.0210626
0.0281413
0.0172498
-6.5724e-06
-0.00138406
4.59917e-05
-0.00165208
0.000174601
-0.00179108
0.000431296
-0.00181333
0.000908871
-0.00165324
0.00176313
-0.00117645
0.00325044
-0.000118255
0.00557855
0.0019541
0.00864674
0.00557953
0.0119182
0.0111143
0.0145993
0.0183815
0.0266376
0.0161031
-5.40499e-06
-0.00137866
1.35761e-05
-0.00167106
7.69422e-05
-0.00185446
0.000213834
-0.00195022
0.000473303
-0.00191271
0.000946606
-0.00164976
0.001802
-0.000973651
0.00329595
0.000460155
0.0056497
0.00322577
0.00875934
0.00800462
0.0119886
0.0151522
0.0241643
0.0144619
-4.77354e-06
-0.00137389
1.89192e-05
-0.00169476
7.58816e-05
-0.00191142
0.000181703
-0.00205605
0.000364285
-0.0020953
0.000675038
-0.00196052
0.0012135
-0.00151211
0.00215382
-0.000480169
0.00376924
0.00161035
0.00627196
0.0055019
0.00944
0.0119841
0.0211956
0.0124087
1.4646e-06
-0.00137536
2.43744e-05
-0.00171767
7.12324e-05
-0.00195828
0.00015253
-0.00213735
0.000288308
-0.00223108
0.000511925
-0.00218413
0.000888085
-0.00188828
0.0015373
-0.00112938
0.00266548
0.000482173
0.00455595
0.00361144
0.00734047
0.0091996
0.017962
0.0105741
4.60852e-06
-0.00137998
3.02529e-05
-0.00174332
7.52541e-05
-0.00200329
0.000147667
-0.00220977
0.000261219
-0.00234463
0.000439141
-0.00236206
0.000724658
-0.00217379
0.00120203
-0.00160676
0.00202054
-0.000336342
0.00342631
0.00220567
0.00568606
0.00693985
0.0150067
0.00864136
1.00352e-05
-0.00139001
3.73944e-05
-0.00177068
8.11282e-05
-0.00204702
0.000147321
-0.00227596
0.000247131
-0.00244444
0.000397468
-0.0025124
0.000629658
-0.00240598
0.001004
-0.0019811
0.00163226
-0.000964597
0.00270587
0.00113206
0.00450368
0.00514203
0.0122725
0.00723785
1.41459e-05
-0.00140416
4.25361e-05
-0.00179907
8.51405e-05
-0.00208962
0.000147574
-0.00233839
0.000238261
-0.00253513
0.000370733
-0.00264487
0.00056795
-0.0026032
0.00087441
-0.00228756
0.00137392
-0.00146411
0.00221507
0.000290908
0.00363778
0.00371933
0.0100109
0.00589945
1.70358e-05
-0.00142119
4.52071e-05
-0.00182724
8.61251e-05
-0.00213054
0.000144217
-0.00239649
0.000227346
-0.00261826
0.000346067
-0.00276359
0.000517976
-0.00277511
0.000776838
-0.00254642
0.00118567
-0.00187293
0.0018586
-0.000382025
0.00298861
0.00258931
0.00815148
0.00484799
1.87277e-05
-0.00143992
4.53891e-05
-0.0018539
8.3538e-05
-0.00216869
0.00013738
-0.00245033
0.000213115
-0.00269399
0.00031994
-0.00287041
0.000472374
-0.00292755
0.000696665
-0.00277071
0.00104306
-0.00221933
0.0016024
-0.000941365
0.00253693
0.00165478
0.00656987
0.00411855
1.83362e-05
-0.00145825
4.23635e-05
-0.00187793
7.66638e-05
-0.00220299
0.000124644
-0.00249831
0.000191985
-0.00276133
0.000286579
-0.00296501
0.000420171
-0.00306114
0.000614304
-0.00296485
0.000909623
-0.00251465
0.0013809
-0.00141264
0.00216061
0.000875065
0.00526112
0.00346936
1.63232e-05
-0.00147458
3.67666e-05
-0.00189837
6.60884e-05
-0.00223231
0.000107464
-0.00253968
0.000165393
-0.00281926
0.000246457
-0.00304607
0.000360255
-0.00317493
0.000522896
-0.00312749
0.000765142
-0.00275689
0.00114265
-0.00179015
0.00175327
0.000264446
0.00429749
0.0027169
1.42449e-05
-0.00148882
3.13994e-05
-0.00191553
5.62541e-05
-0.00225717
9.17326e-05
-0.00257516
0.000141799
-0.00286933
0.000212418
-0.00311669
0.000311641
-0.00327416
0.000453527
-0.00326937
0.000663792
-0.00296716
0.000989404
-0.00211576
0.00151536
-0.00026151
0.00336947
0.00244337
1.18848e-05
-0.00150071
2.56295e-05
-0.00192927
4.6293e-05
-0.00227783
7.594e-05
-0.00260481
0.000118536
-0.00291192
0.000179009
-0.00317716
0.000264967
-0.00336012
0.000387898
-0.00339231
0.000569763
-0.00314902
0.000851294
-0.00239729
0.00130613
-0.00071635
0.00267298
0.00200262
9.62043e-06
-0.00151033
2.0306e-05
-0.00193996
3.6851e-05
-0.00229437
6.14864e-05
-0.00262944
9.71849e-05
-0.00294762
0.000149076
-0.00322905
0.000223819
-0.00343486
0.000332584
-0.00350107
0.000495128
-0.00331156
0.000747653
-0.00264981
0.00115551
-0.00112421
0.00192631
0.00190218
6.96442e-06
-0.00151729
1.44116e-05
-0.0019474
2.70078e-05
-0.00230697
4.61594e-05
-0.0026486
7.49121e-05
-0.00297637
0.00011726
-0.0032714
0.000179666
-0.00349727
0.000271272
-0.00359268
0.000409309
-0.0034496
0.000625534
-0.00286604
0.000974749
-0.00147342
0.0014294
0.00147166
4.35356e-06
-0.00152164
9.08317e-06
-0.00195213
1.80964e-05
-0.00231598
3.26417e-05
-0.00266314
5.50608e-05
-0.00299879
8.94352e-05
-0.00330577
0.000141173
-0.003549
0.000219425
-0.00367093
0.000340273
-0.00357045
0.000534272
-0.00306004
0.00085865
-0.0017978
0.000796737
0.00149131
1.50803e-06
-0.00152315
3.77625e-06
-0.0019544
9.39127e-06
-0.0023216
1.93557e-05
-0.00267311
3.57689e-05
-0.00301521
6.17402e-05
-0.00333175
0.000102029
-0.00358929
0.000163319
-0.00373222
0.000258296
-0.00366542
0.000411128
-0.00321287
0.000666854
-0.00205353
0.000394732
0.00106886
-4.25687e-07
-0.00152273
3.79258e-07
-0.00195521
3.68485e-06
-0.00232491
1.05917e-05
-0.00268001
2.29832e-05
-0.0030276
4.37361e-05
-0.0033525
7.71186e-05
-0.00362268
0.000129543
-0.00378464
0.000212445
-0.00374833
0.000348017
-0.00334844
0.000578171
-0.00228368
-3.02332e-05
0.00100314
-1.75676e-06
-0.00152097
-2.44137e-06
-0.00195452
-1.16038e-06
-0.00232619
3.07829e-06
-0.00268425
1.19963e-05
-0.00303652
2.81997e-05
-0.0033687
5.54029e-05
-0.00364988
9.9402e-05
-0.00382864
0.000169864
-0.00381879
0.000285982
-0.00346456
0.000484369
-0.00248207
-0.000367806
0.000821942
-2.49484e-06
-0.00151848
-4.19613e-06
-0.00195282
-4.40031e-06
-0.00232598
-2.11883e-06
-0.00268653
4.24864e-06
-0.00304288
1.70654e-05
-0.00338152
3.99366e-05
-0.00367275
7.81455e-05
-0.00386685
0.000140974
-0.00388162
0.00024548
-0.00356907
0.000422768
-0.00265936
-0.000680677
0.000735638
-3.10256e-06
-0.00151537
-5.80163e-06
-0.00195012
-7.30713e-06
-0.00232448
-6.70403e-06
-0.00268714
-2.65351e-06
-0.00304693
7.07621e-06
-0.00339125
2.58283e-05
-0.0036915
5.8779e-05
-0.0038998
0.000114281
-0.00393712
0.000208639
-0.00366342
0.000372345
-0.00282306
-0.000960691
0.00065236
-3.66751e-06
-0.00151171
-7.18547e-06
-0.0019466
-9.70025e-06
-0.00232196
-1.06962e-05
-0.00268614
-8.77442e-06
-0.00304886
-2.00458e-06
-0.00339802
1.27112e-05
-0.00370622
3.99388e-05
-0.00392703
8.76367e-05
-0.00398482
0.000170149
-0.00374594
0.000314227
-0.00296714
-0.00121557
0.000569102
-4.05083e-06
-0.00150766
-8.1766e-06
-0.00194248
-1.17799e-05
-0.00231836
-1.39629e-05
-0.00268396
-1.38371e-05
-0.00304898
-9.51885e-06
-0.00340234
1.62102e-06
-0.00371736
2.38087e-05
-0.00394922
6.40768e-05
-0.00402509
0.000136004
-0.00381786
0.000265168
-0.0030963
-0.00144662
0.000496219
-4.31769e-06
-0.00150334
-8.97972e-06
-0.00193782
-1.30347e-05
-0.0023143
-1.64308e-05
-0.00268056
-1.75204e-05
-0.00304789
-1.53631e-05
-0.0034045
-7.07527e-06
-0.00372565
1.09566e-05
-0.00396725
4.49032e-05
-0.00405903
0.000107128
-0.00388009
0.000221615
-0.00321079
-0.00166092
0.000435918
-4.48694e-06
-0.00149885
-9.48608e-06
-0.00193282
-1.42166e-05
-0.00230957
-1.80951e-05
-0.00267668
-2.05718e-05
-0.00304542
-1.95708e-05
-0.0034055
-1.34574e-05
-0.00373176
1.22137e-06
-0.00398193
2.99893e-05
-0.0040878
8.3427e-05
-0.00393353
0.000183208
-0.00331057
-0.00184996
0.000372247
-4.61199e-06
-0.00149424
-9.7073e-06
-0.00192772
-1.49781e-05
-0.0023043
-1.95857e-05
-0.00267208
-2.27316e-05
-0.00304227
-2.30267e-05
-0.0034052
-1.86089e-05
-0.00373618
-6.37185e-06
-0.00399417
1.86037e-05
-0.00411278
6.58159e-05
-0.00398074
0.000154574
-0.00339933
-0.00202515
0.000329761
-4.72553e-06
-0.00148951
-1.01646e-05
-0.00192228
-1.56848e-05
-0.00229878
-2.09084e-05
-0.00266685
-2.49069e-05
-0.00303827
-2.65031e-05
-0.00340361
-2.36917e-05
-0.00373899
-1.40397e-05
-0.00400382
6.40161e-06
-0.00413322
4.48438e-05
-0.00401918
0.000114482
-0.00346897
-0.0021289
0.00021824
-4.7019e-06
-0.00148481
-1.02815e-05
-0.0019167
-1.62825e-05
-0.00229278
-2.19609e-05
-0.00266117
-2.65543e-05
-0.00303368
-2.86905e-05
-0.00340147
-2.66256e-05
-0.00374105
-1.7284e-05
-0.00401316
3.54586e-06
-0.00415405
4.31065e-05
-0.00405874
0.000115804
-0.00354167
-0.0022908
0.000277696
-4.94042e-06
-0.00147987
-1.09351e-05
-0.00191071
-1.73758e-05
-0.00228634
-2.39812e-05
-0.00265457
-2.96206e-05
-0.00302804
-3.3392e-05
-0.0033977
-3.31102e-05
-0.00374134
-2.61914e-05
-0.00402008
-8.13482e-06
-0.0041721
2.87404e-05
-0.00409562
9.76076e-05
-0.00361053
-0.00238347
0.000190285
-5.26122e-06
-0.00147461
-1.17745e-05
-0.0019042
-1.93134e-05
-0.0022788
-2.65666e-05
-0.00264732
-3.3704e-05
-0.0030209
-3.91217e-05
-0.00339228
-4.1398e-05
-0.00373906
-3.75601e-05
-0.00402392
-2.3463e-05
-0.0041862
8.68435e-06
-0.00412776
7.38717e-05
-0.00367572
-0.00253059
0.000220988
-5.74087e-06
-0.00146887
-1.29021e-05
-0.00189704
-2.09373e-05
-0.00227077
-2.96594e-05
-0.00263859
-3.82068e-05
-0.00301235
-4.57536e-05
-0.00338473
-5.09243e-05
-0.00373389
-5.16704e-05
-0.00402317
-4.48274e-05
-0.00419304
-2.47675e-05
-0.00414782
1.89912e-05
-0.00371948
-0.0026056
9.40013e-05
-5.96839e-06
-0.0014629
-1.36197e-05
-0.00188938
-2.23227e-05
-0.00226206
-3.16409e-05
-0.00262928
-4.1161e-05
-0.00300283
-4.99947e-05
-0.0033759
-5.65844e-05
-0.0037273
-5.92132e-05
-0.00402054
-5.46876e-05
-0.00419757
-3.80453e-05
-0.00416447
1.10786e-06
-0.00375863
-0.00269109
8.65971e-05
-6.32191e-06
-0.00145658
-1.43173e-05
-0.00188139
-2.37975e-05
-0.00225258
-3.40772e-05
-0.002619
-4.46942e-05
-0.00299222
-5.47268e-05
-0.00336587
-6.30511e-05
-0.00371898
-6.72967e-05
-0.0040163
-6.4433e-05
-0.00420043
-4.85962e-05
-0.0041803
-8.37652e-06
-0.00379885
-0.00279145
9.19873e-05
-6.69199e-06
-0.00144989
-1.54112e-05
-0.00187267
-2.54641e-05
-0.00224253
-3.67186e-05
-0.00260774
-4.8616e-05
-0.00298032
-6.0514e-05
-0.00335397
-7.1061e-05
-0.00370843
-7.87818e-05
-0.00400858
-8.07126e-05
-0.0041985
-7.22209e-05
-0.0041888
-4.54267e-05
-0.00382565
-0.0028183
-1.85803e-05
-7.01809e-06
-0.00144287
-1.60571e-05
-0.00186363
-2.69377e-05
-0.00223165
-3.90199e-05
-0.00259566
-5.19511e-05
-0.00296739
-6.49901e-05
-0.00334093
-7.72666e-05
-0.00369615
-8.67375e-05
-0.0039991
-9.07896e-05
-0.00419445
-8.44353e-05
-0.00419515
-5.70836e-05
-0.003853
-0.00292276
4.73782e-05
-7.40905e-06
-0.00143546
-1.70867e-05
-0.00185395
-2.85184e-05
-0.00222022
-4.16015e-05
-0.00258258
-5.56327e-05
-0.00295336
-7.03763e-05
-0.00332619
-8.4656e-05
-0.00368187
-9.73622e-05
-0.0039864
-0.000106062
-0.00418575
-0.000106941
-0.00419427
-9.29222e-05
-0.00386702
-0.00293923
-7.64603e-05
-7.66716e-06
-0.0014278
-1.77628e-05
-0.00184386
-2.99362e-05
-0.00220805
-4.35797e-05
-0.00256893
-5.86666e-05
-0.00293827
-7.43659e-05
-0.00331049
-9.01353e-05
-0.0036661
-0.000104333
-0.0039722
-0.000114951
-0.00417513
-0.00011792
-0.0041913
-0.000104982
-0.00387996
-0.00299941
-4.47953e-05
-8.04823e-06
-0.00141975
-1.86425e-05
-0.00183326
-3.12991e-05
-0.00219539
-4.59276e-05
-0.0025543
-6.18873e-05
-0.00292231
-7.90561e-05
-0.00329332
-9.64684e-05
-0.00364869
-0.000113338
-0.00395533
-0.000127719
-0.00416075
-0.000136691
-0.00418233
-0.000133996
-0.00388265
-0.00302002
-0.000113386
-8.40754e-06
-0.00141134
-1.9253e-05
-0.00182242
-3.24801e-05
-0.00218216
-4.75614e-05
-0.00253922
-6.44259e-05
-0.00290545
-8.24165e-05
-0.00327533
-0.000100989
-0.00363012
-0.000119207
-0.00393711
-0.000135629
-0.00414433
-0.000147739
-0.00417022
-0.000150385
-0.00388001
-0.00303902
-0.000131386
-8.45366e-06
-0.00140289
-1.9664e-05
-0.00181121
-3.34521e-05
-0.00216838
-4.92045e-05
-0.00252347
-6.66818e-05
-0.00288797
-8.53767e-05
-0.00325663
-0.000104861
-0.00361063
-0.000123946
-0.00391803
-0.000141553
-0.00412672
-0.000155285
-0.00415649
-0.000160662
-0.00387463
-0.0030485
-0.000151178
-8.62211e-06
-0.00139426
-2.03123e-05
-0.00179952
-3.43866e-05
-0.0021543
-5.07115e-05
-0.00250715
-6.88565e-05
-0.00286982
-8.84103e-05
-0.00323708
-0.000108425
-0.00359062
-0.000128202
-0.00389825
-0.000145613
-0.00410931
-0.000158703
-0.0041434
-0.000162351
-0.00387098
-0.00306615
-0.000144704
-8.94291e-06
-0.00138532
-2.09635e-05
-0.0017875
-3.5866e-05
-0.0021394
-5.30091e-05
-0.00249
-7.21249e-05
-0.00285071
-9.26367e-05
-0.00321657
-0.000113942
-0.00356931
-0.000134508
-0.00387768
-0.000152729
-0.00409109
-0.000165112
-0.00413102
-0.000166767
-0.00386933
-0.00309046
-0.000142463
-9.41745e-06
-0.0013759
-2.22036e-05
-0.00177471
-3.78272e-05
-0.00212378
-5.61524e-05
-0.00247168
-7.65591e-05
-0.0028303
-9.89131e-05
-0.00319422
-0.000122212
-0.00354602
-0.000145596
-0.0038543
-0.000167175
-0.00406951
-0.00018447
-0.00411372
-0.000192031
-0.00386177
-0.00309428
-0.000188207
-9.89536e-06
-0.00136601
-2.33931e-05
-0.00176121
-4.01072e-05
-0.00210706
-5.95868e-05
-0.0024522
-8.14037e-05
-0.00280849
-0.00010536
-0.00317026
-0.000130939
-0.00352044
-0.000156822
-0.00382842
-0.000181619
-0.00404472
-0.000202801
-0.00409254
-0.000216162
-0.00384841
-0.00310843
-0.000202012
-1.04267e-05
-0.00135558
-2.46836e-05
-0.00174696
-4.22058e-05
-0.00208954
-6.287e-05
-0.00243153
-8.61587e-05
-0.0027852
-0.000112088
-0.00314433
-0.000139885
-0.00349264
-0.000168976
-0.00379933
-0.000197834
-0.00401586
-0.00022461
-0.00406576
-0.000246693
-0.00382632
-0.00307881
-0.000276317
-1.07671e-05
-0.00134482
-2.56121e-05
-0.00173211
-4.40827e-05
-0.00207107
-6.55595e-05
-0.00241006
-9.01593e-05
-0.0027606
-0.000117404
-0.00311709
-0.00014691
-0.00346313
-0.00017783
-0.00376841
-0.000208728
-0.00398496
-0.000237317
-0.00403717
-0.000258741
-0.0038049
-0.00308479
-0.000252754
-1.11531e-05
-0.00133366
-2.66255e-05
-0.00171664
-4.57524e-05
-0.00205194
-6.83652e-05
-0.00238744
-9.4052e-05
-0.00273491
-0.000122615
-0.00308852
-0.000153869
-0.00343188
-0.000186796
-0.00373548
-0.00022018
-0.00395158
-0.00025104
-0.00400631
-0.00027358
-0.00378236
-0.00308521
-0.000273163
-1.1427e-05
-0.00132224
-2.77004e-05
-0.00170037
-4.75073e-05
-0.00203213
-7.09023e-05
-0.00236405
-9.77012e-05
-0.00270811
-0.000127735
-0.00305849
-0.000160529
-0.00339909
-0.000195795
-0.00370021
-0.000232258
-0.00391511
-0.000268098
-0.00397047
-0.000299653
-0.0037508
-0.00305666
-0.000328203
-1.1639e-05
-0.0013106
-2.82082e-05
-0.0016838
-4.90683e-05
-0.00201127
-7.34875e-05
-0.00233963
-0.000101345
-0.00268025
-0.000132393
-0.00302744
-0.000166548
-0.00336493
-0.000203009
-0.00366375
-0.000240918
-0.00387721
-0.000277908
-0.00393348
-0.000308293
-0.00372042
-0.00305257
-0.000312379
-1.22858e-05
-0.00129831
-2.97077e-05
-0.00166638
-5.14126e-05
-0.00198957
-7.70151e-05
-0.00231403
-0.000106234
-0.00265103
-0.00013898
-0.0029947
-0.000174846
-0.00332906
-0.000213724
-0.00362487
-0.000254727
-0.0038362
-0.000296689
-0.00389152
-0.000335804
-0.0036813
-0.00303507
-0.000353304
-1.27677e-05
-0.00128554
-3.10289e-05
-0.00164812
-5.39714e-05
-0.00196663
-8.08549e-05
-0.00228714
-0.000111536
-0.00262035
-0.0001458
-0.00296043
-0.000183696
-0.00329117
-0.000224868
-0.0035837
-0.000269551
-0.00379152
-0.000317725
-0.00384335
-0.000371092
-0.00362794
-0.00294617
-0.000459996
-1.32124e-05
-0.00127233
-3.24594e-05
-0.00162887
-5.64754e-05
-0.00194261
-8.48158e-05
-0.0022588
-0.000116893
-0.00258828
-0.000152696
-0.00292463
-0.000191545
-0.00325232
-0.00023299
-0.00354226
-0.000275684
-0.00374883
-0.000318094
-0.00380094
-0.000355338
-0.00359069
-0.00295243
-0.000349077
-1.4493e-05
-0.00125784
-3.50552e-05
-0.00160831
-6.09683e-05
-0.0019167
-9.12386e-05
-0.00222853
-0.000125877
-0.00255364
-0.00016438
-0.00288613
-0.000206688
-0.00321001
-0.000252052
-0.00349689
-0.000299876
-0.003701
-0.000348542
-0.00375227
-0.000395515
-0.00354372
-0.00289846
-0.000449488
-1.54391e-05
-0.0012424
-3.76854e-05
-0.00158606
-6.55743e-05
-0.00188881
-9.83014e-05
-0.00219581
-0.000135535
-0.0025164
-0.000177171
-0.00284449
-0.000222998
-0.00316418
-0.000272704
-0.00344719
-0.000325839
-0.00364787
-0.000381898
-0.00369621
-0.000440821
-0.0034848
-0.00283907
-0.000500213
-1.66867e-05
-0.00122571
-4.06985e-05
-0.00156205
-7.05871e-05
-0.00185892
-0.000105864
-0.00216053
-0.000145903
-0.00247636
-0.00019072
-0.00279967
-0.000239933
-0.00311497
-0.000293502
-0.00339362
-0.000350839
-0.00359053
-0.000411544
-0.00363551
-0.000473994
-0.00342234
-0.00277836
-0.000534698
-1.80217e-05
-0.00120769
-4.46735e-05
-0.0015354
-7.63137e-05
-0.00182728
-0.00011421
-0.00212263
-0.000157473
-0.0024331
-0.000205526
-0.00275162
-0.000258372
-0.00306212
-0.000315349
-0.00333664
-0.000376052
-0.00352983
-0.000439378
-0.00357218
-0.000503121
-0.0033586
-0.00272417
-0.000557312
-1.99682e-05
-0.00118772
-4.76888e-05
-0.00150768
-8.37062e-05
-0.00179126
-0.000124339
-0.002082
-0.000171234
-0.00238621
-0.000223727
-0.00269913
-0.000280967
-0.00300488
-0.000342516
-0.00327509
-0.00040752
-0.00346482
-0.000474851
-0.00350485
-0.000543582
-0.00328987
-0.00265247
-0.000615287
-2.17415e-05
-0.00116598
-5.30479e-05
-0.00147637