/*--------------------------------*- C++ -*----------------------------------*\
| =========                 |                                                 |
| \\      /  F ield         | OpenFOAM: The Open Source CFD Toolbox           |
|  \\    /   O peration     | Version:  2.3.0                                 |
|   \\  /    A nd           | Web:      www.OpenFOAM.org                      |
|    \\/     M anipulation  |                                                 |
\*---------------------------------------------------------------------------*/
FoamFile
{
    version     2.0;
    format      ascii;
    class       volScalarField;
    location    "500";
    object      nuTilda;
}
// * * * * * * * * * * * * * * * * * * * * * * * * * * * * * * * * * * * * * //

dimensions      [0 2 -1 0 0 0 0];

internalField   nonuniform List<scalar> 
28256
(
0.0140762
0.0123736
0.0109036
0.00965013
0.00859144
0.00770811
0.00697945
0.00638986
0.00592382
0.0055605
0.00528274
0.00506956
0.00490228
0.00476188
0.00463395
0.00450227
0.00435987
0.00419751
0.00401848
0.00380766
0.0148613
0.0133044
0.0119865
0.0108846
0.00997837
0.0092465
0.00866742
0.00822513
0.00789773
0.00766683
0.00751385
0.00742135
0.00737456
0.00735968
0.00736664
0.00738367
0.00741116
0.00743779
0.00746363
0.00748653
0.0157167
0.0143144
0.0131506
0.0122013
0.0114421
0.01085
0.0104036
0.0100805
0.00985761
0.00971543
0.00963673
0.00960544
0.00960557
0.0096289
0.0096653
0.00970718
0.00974966
0.00979302
0.00982724
0.00985056
0.0166242
0.0153803
0.0143666
0.0135583
0.0129314
0.01246
0.0121204
0.011889
0.0117418
0.0116626
0.0116352
0.0116427
0.0116735
0.0117203
0.0117735
0.0118313
0.0118863
0.0119337
0.0119729
0.0120025
0.0175756
0.0164828
0.0156071
0.0149262
0.0144124
0.0140393
0.0137829
0.0136196
0.0135293
0.013494
0.0134993
0.0135332
0.0135846
0.0136463
0.0137122
0.0137781
0.0138381
0.0138915
0.0139357
0.0139656
0.018559
0.0176053
0.0168544
0.0162827
0.0158619
0.0155667
0.0153726
0.0152597
0.0152084
0.015202
0.015229
0.0152798
0.0153435
0.0154133
0.0154854
0.0155556
0.0156197
0.0156778
0.0157224
0.0157557
0.0195609
0.0187346
0.0180932
0.0176125
0.0172663
0.0170307
0.0168834
0.0168049
0.0167789
0.0167907
0.0168315
0.0168895
0.0169587
0.0170324
0.017107
0.0171791
0.0172454
0.0173024
0.0173488
0.0173827
0.020577
0.01986
0.0193109
0.0189054
0.0186186
0.018428
0.0183134
0.0182578
0.018246
0.0182682
0.0183136
0.0183738
0.0184437
0.0185169
0.0185909
0.0186612
0.018725
0.0187814
0.0188277
0.0188601
0.0216001
0.0209747
0.0205029
0.0201585
0.0199163
0.0197579
0.0196655
0.019623
0.0196187
0.0196436
0.0196879
0.0197461
0.0198117
0.0198808
0.0199502
0.0200161
0.0200771
0.0201306
0.0201735
0.0202053
0.0226159
0.0220728
0.0216648
0.0213674
0.0211592
0.0210231
0.0209434
0.0209075
0.0209049
0.0209267
0.0209663
0.0210178
0.0210762
0.0211382
0.0212004
0.0212601
0.0213156
0.0213638
0.0214034
0.0214319
0.0236167
0.023147
0.0227919
0.0225321
0.0223492
0.0222271
0.0221541
0.0221194
0.0221133
0.0221284
0.0221594
0.0222017
0.0222505
0.0223027
0.0223555
0.0224074
0.0224548
0.0224971
0.0225315
0.0225571
0.0245981
0.0241939
0.0238835
0.0236542
0.0234892
0.0233763
0.0233053
0.0232672
0.0232535
0.0232593
0.0232796
0.0233107
0.0233473
0.0233876
0.0234304
0.0234719
0.0235109
0.0235457
0.023574
0.0235949
0.025569
0.0252152
0.0249419
0.0247357
0.0245836
0.0244754
0.0244026
0.0243581
0.0243353
0.0243297
0.0243375
0.024355
0.0243781
0.0244062
0.0244369
0.0244674
0.0244966
0.0245225
0.024544
0.024559
0.0265233
0.026212
0.0259677
0.0257786
0.0256353
0.0255288
0.0254524
0.0254
0.0253665
0.0253481
0.025342
0.0253451
0.025355
0.0253702
0.0253875
0.0254062
0.0254245
0.0254408
0.0254544
0.0254637
0.0274553
0.0271828
0.0269631
0.0267877
0.0266499
0.0265429
0.0264608
0.0263989
0.0263544
0.0263232
0.0263035
0.026292
0.0262879
0.0262888
0.026293
0.0262993
0.026306
0.0263129
0.026318
0.0263202
0.0283706
0.02813
0.02793
0.0277656
0.0276311
0.027522
0.0274334
0.0273625
0.0273061
0.0272624
0.027229
0.0272029
0.0271844
0.0271715
0.0271623
0.027156
0.0271521
0.0271484
0.0271447
0.0271402
0.0292728
0.0290555
0.0288711
0.0287149
0.0285829
0.0284712
0.0283762
0.0282959
0.0282285
0.0281722
0.0281247
0.0280849
0.0280527
0.0280263
0.028004
0.0279856
0.0279702
0.0279565
0.0279443
0.0279323
0.0301539
0.029959
0.0297884
0.0296393
0.0295084
0.0293936
0.0292926
0.0292042
0.0291261
0.0290577
0.0289975
0.0289449
0.0288992
0.02886
0.0288253
0.028795
0.0287684
0.0287454
0.0287241
0.0287051
0.0310122
0.0308394
0.0306826
0.0305396
0.0304105
0.0302931
0.0301869
0.0300906
0.0300034
0.0299239
0.0298522
0.0297872
0.0297291
0.0296777
0.0296316
0.0295902
0.0295537
0.0295206
0.0294913
0.0294651
0.0318583
0.0317003
0.031554
0.0314173
0.0312905
0.0311719
0.031061
0.0309587
0.0308632
0.0307746
0.0306915
0.0306147
0.0305451
0.0304825
0.0304269
0.0303756
0.0303289
0.0302865
0.0302492
0.030216
0.00377405
0.00393251
0.0040949
0.0042477
0.00439963
0.00454736
0.00469637
0.00485325
0.00502464
0.00522349
0.00546368
0.00576063
0.00612831
0.00657983
0.00712587
0.00777518
0.00853573
0.00941619
0.0104273
0.0115837
0.00749463
0.00749144
0.00748689
0.00748172
0.00747197
0.00747103
0.00747507
0.00749271
0.00752855
0.00759365
0.00769794
0.00785408
0.00807559
0.00837617
0.00876863
0.00926463
0.0098744
0.0106081
0.0114768
0.0124936
0.00986299
0.0098675
0.00985778
0.009843
0.00982751
0.00980622
0.00978743
0.00977047
0.00976476
0.00977662
0.00981361
0.00988842
0.0100123
0.0101993
0.0104653
0.010824
0.0112898
0.0118768
0.012599
0.013472
0.0120179
0.0120184
0.0120111
0.0119961
0.0119732
0.0119409
0.0119068
0.0118703
0.0118384
0.0118144
0.0118078
0.0118261
0.0118783
0.0119813
0.0121465
0.0123912
0.0127318
0.013185
0.0137681
0.0144992
0.013983
0.0139869
0.0139782
0.0139612
0.0139299
0.0138937
0.0138496
0.0137999
0.0137489
0.013703
0.0136652
0.0136422
0.0136467
0.0136856
0.0137745
0.0139294
0.0141666
0.0145043
0.0149619
0.0155601
0.0157746
0.0157775
0.0157701
0.0157489
0.0157184
0.0156767
0.0156262
0.015568
0.0155058
0.0154444
0.0153844
0.0153355
0.0153035
0.0152977
0.0153307
0.0154163
0.0155711
0.0158131
0.0161621
0.0166411
0.0174012
0.0174064
0.0173972
0.0173778
0.0173447
0.0173015
0.0172476
0.017184
0.0171165
0.0170449
0.0169731
0.0169059
0.0168503
0.0168128
0.0168053
0.0168399
0.016931
0.0170954
0.0173539
0.0177285
0.0188801
0.0188845
0.0188767
0.0188566
0.0188248
0.0187797
0.0187249
0.0186615
0.0185913
0.0185154
0.0184369
0.0183597
0.0182884
0.0182308
0.0181962
0.0181941
0.0182373
0.0183414
0.0185261
0.0188116
0.0202237
0.0202284
0.0202219
0.020203
0.020171
0.0201276
0.0200741
0.0200128
0.0199423
0.0198655
0.0197842
0.0197033
0.019625
0.0195561
0.0195035
0.0194765
0.0194852
0.0195444
0.0196702
0.019882
0.021449
0.0214542
0.0214477
0.0214295
0.0213994
0.0213588
0.0213085
0.0212491
0.0211815
0.0211057
0.0210273
0.0209464
0.0208669
0.0207933
0.0207309
0.0206874
0.0206735
0.0206992
0.0207809
0.0209349
0.022572
0.0225755
0.022569
0.0225522
0.0225252
0.0224881
0.0224406
0.0223853
0.0223216
0.0222515
0.0221766
0.0220996
0.0220225
0.0219484
0.0218827
0.0218319
0.0218027
0.0218065
0.0218555
0.021964
0.0236063
0.0236089
0.0236022
0.0235866
0.0235612
0.0235272
0.0234847
0.0234347
0.0233772
0.0233133
0.0232447
0.0231737
0.0231009
0.0230306
0.0229665
0.0229128
0.0228771
0.0228669
0.0228919
0.0229665
0.0245673
0.0245673
0.0245603
0.0245448
0.0245221
0.0244919
0.0244542
0.0244099
0.024359
0.024302
0.0242416
0.0241778
0.0241125
0.0240485
0.0239883
0.023937
0.0238985
0.0238801
0.0238903
0.0239404
0.0254673
0.0254651
0.0254564
0.0254423
0.0254217
0.0253944
0.0253613
0.0253229
0.0252783
0.0252297
0.0251776
0.0251224
0.0250655
0.025009
0.0249557
0.0249085
0.0248716
0.0248501
0.0248513
0.0248845
0.0263194
0.0263137
0.0263039
0.0262899
0.0262705
0.0262463
0.0262175
0.0261848
0.0261471
0.0261062
0.0260622
0.0260152
0.0259678
0.0259201
0.0258751
0.0258343
0.0258011
0.0257801
0.0257762
0.0257972
0.0271337
0.0271247
0.0271127
0.0270976
0.02708
0.0270579
0.0270337
0.0270055
0.0269741
0.0269402
0.0269041
0.0268663
0.0268274
0.0267893
0.0267527
0.0267187
0.0266913
0.0266723
0.0266659
0.0266765
0.0279206
0.0279072
0.0278924
0.0278768
0.0278588
0.0278397
0.0278182
0.0277942
0.0277679
0.0277409
0.0277122
0.0276821
0.027652
0.0276226
0.027594
0.0275685
0.0275469
0.0275314
0.0275248
0.0275292
0.0286872
0.0286695
0.0286524
0.028635
0.0286172
0.0285988
0.0285792
0.0285582
0.0285369
0.0285151
0.0284923
0.0284699
0.0284474
0.0284258
0.0284054
0.0283875
0.0283727
0.0283624
0.0283585
0.0283616
0.0294411
0.0294193
0.0293992
0.0293804
0.0293618
0.0293431
0.0293237
0.029305
0.0292868
0.0292685
0.0292508
0.0292341
0.0292187
0.0292039
0.0291911
0.0291806
0.0291728
0.0291682
0.0291673
0.0291716
0.0301873
0.0301604
0.0301379
0.0301185
0.0300987
0.0300792
0.0300572
0.0300395
0.0300219
0.0300057
0.0299919
0.0299814
0.0299697
0.0299607
0.0299557
0.0299511
0.02995
0.0299497
0.0299518
0.0299582
0.00216437
0.00168001
0.00130689
0.00103336
0.000846252
0.000707982
0.000600062
0.000512303
0.000438937
0.000376503
0.000322752
0.000276077
0.000235346
0.000199813
0.000168995
0.000142506
0.00011979
0.000100145
8.32378e-05
7.0186e-05
0.00215481
0.00168672
0.00132544
0.0010621
0.000876305
0.000737979
0.000630182
0.000542935
0.000470289
0.000408604
0.000355546
0.00030955
0.000269558
0.000234941
0.000205119
0.000179219
0.000155997
0.000134395
0.000114957
0.00010102
0.00214762
0.00169755
0.00134913
0.00109641
0.000911581
0.000772523
0.000664144
0.000576671
0.000504001
0.000442357
0.000389332
0.000343343
0.000303408
0.000268778
0.000238505
0.000211253
0.000185589
0.000161167
0.00014071
0.000127974
0.00214244
0.00171076
0.001376
0.00113256
0.000949086
0.000809043
0.000699436
0.000611003
0.000537637
0.000475419
0.000421859
0.000375367
0.000334879
0.000299431
0.00026774
0.000238242
0.000209849
0.000183675
0.000165001
0.000156051
0.0021374
0.00172573
0.00140647
0.00116975
0.000987817
0.000846805
0.000735598
0.000645667
0.000571028
0.000507719
0.000453203
0.000405811
0.000364347
0.00032757
0.000293904
0.000261746
0.000230659
0.000203611
0.000189109
0.000186645
0.00213653
0.00174264
0.00143928
0.00120797
0.00102753
0.000885677
0.000772698
0.000680878
0.000604534
0.000539717
0.000483791
0.000434901
0.000391587
0.000352348
0.000315499
0.000279815
0.000246203
0.000220806
0.000212095
0.000218775
0.00213411
0.00176094
0.00147298
0.00124707
0.00106823
0.00092571
0.000810921
0.000716954
0.000638446
0.000571539
0.00051365
0.000463128
0.000418847
0.00037953
0.000343589
0.000310128
0.000281064
0.000263611
0.000262972
0.000277216
0.00213532
0.001781
0.00150689
0.00128689
0.00110993
0.000966961
0.000850432
0.000754202
0.000673639
0.000605599
0.000547782
0.000497566
0.000451453
0.000405662
0.000357709
0.000307848
0.000261367
0.000234437
0.000239661
0.000272225
0.00213925
0.00180373
0.00154109
0.00132722
0.00115256
0.00100949
0.000891632
0.000793774
0.00071074
0.000635855
0.000562348
0.000488265
0.000418712
0.000362186
0.000324423
0.000306041
0.000307382
0.000331811
0.000369927
0.000414293
0.00214066
0.00182774
0.00157575
0.00136801
0.00119605
0.00105321
0.000932779
0.000826526
0.000730148
0.000657459
0.000640645
0.000700609
0.000825577
0.000986599
0.00115623
0.00131515
0.00145197
0.00155898
0.00162738
0.00165622
0.00214796
0.00185264
0.00161079
0.00140919
0.0012398
0.00109569
0.00097773
0.000917803
0.000976047
0.0011762
0.00148019
0.00183099
0.00218347
0.00250952
0.00279349
0.00302826
0.00321632
0.00335418
0.00343498
0.0034591
0.00215356
0.00187755
0.00164665
0.00145295
0.00129716
0.00121239
0.00127839
0.00154584
0.00196974
0.00246479
0.00296481
0.00343199
0.00384829
0.00420628
0.00450445
0.00474799
0.00493675
0.00506981
0.00514635
0.00516579
0.00216316
0.00190555
0.0016952
0.00155204
0.00154971
0.00177977
0.00223645
0.00282149
0.00343818
0.0040292
0.00456822
0.00504497
0.00545674
0.00580654
0.00609919
0.00633547
0.00651588
0.00664094
0.00671012
0.0067236
0.00218129
0.00196872
0.00186694
0.00197625
0.00236125
0.0029602
0.00365252
0.00434841
0.00500218
0.00559491
0.00612079
0.00657964
0.00697751
0.00731699
0.00759911
0.00782505
0.00799592
0.0081123
0.00817403
0.00818101
0.00227641
0.00224482
0.00247714
0.00299311
0.00369387
0.00445844
0.00520948
0.00591031
0.00654709
0.0071159
0.00761833
0.00806081
0.00844415
0.0087698
0.00903907
0.00925314
0.00941336
0.00951981
0.00957289
0.00957237
0.00268556
0.00304906
0.00367352
0.0044469
0.00526037
0.00604994
0.00678621
0.00745841
0.00806383
0.00860615
0.00908847
0.00951154
0.009877
0.0101861
0.0104402
0.0106406
0.0107881
0.0108831
0.0109258
0.0109163
0.00368911
0.00441124
0.00523798
0.00608332
0.00689765
0.00765853
0.00835747
0.00899377
0.00956971
0.010086
0.0105436
0.0109441
0.0112887
0.0115786
0.0118152
0.0119994
0.0121321
0.0122135
0.0122439
0.012223
0.00521028
0.00608192
0.00694671
0.00777394
0.00854925
0.0092674
0.00992782
0.0105299
0.0110741
0.011561
0.0119918
0.0123672
0.0126885
0.0129568
0.0131732
0.0133386
0.013454
0.0135195
0.0135349
0.0135006
0.00698428
0.0078626
0.00869239
0.00947233
0.0102011
0.0108766
0.0114977
0.012065
0.0125776
0.0130361
0.0134401
0.0137901
0.0140868
0.0143307
0.0145235
0.0146672
0.0147625
0.0148095
0.0148079
0.0147569
0.00884606
0.0096659
0.010431
0.0111512
0.0118331
0.0124698
0.0130529
0.013593
0.0140794
0.0145163
0.0148979
0.0152256
0.0154995
0.0157157
0.015878
0.0159938
0.0160655
0.016094
0.0160755
0.0160022
6.1978e-05
5.89264e-05
6.3125e-05
7.43652e-05
9.14496e-05
0.000114654
0.000145503
0.00018573
0.00023696
0.000301418
0.000382268
0.000484882
0.000619135
0.000792449
0.00101585
0.00130571
0.0016845
0.00218295
0.00284084
0.00370332
9.21285e-05
8.93371e-05
9.56479e-05
0.000111174
0.000134445
0.00016494
0.000203371
0.000250952
0.000309329
0.000380887
0.000469064
0.000578998
0.000718096
0.000896332
0.00112741
0.00142574
0.00181299
0.00231773
0.00297509
0.00382304
0.000122252
0.000124724
0.000137354
0.000159798
0.000190615
0.000229111
0.000275652
0.000331381
0.000398053
0.000478206
0.000575436
0.000694502
0.000841925
0.00102712
0.00126429
0.00157067
0.00196469
0.00247163
0.00312134
0.00394366
0.000156305
0.000166416
0.00018725
0.000217832
0.000256919
0.000303899
0.000359144
0.000423828
0.000499801
0.000589712
0.000697057
0.00082653
0.00098433
0.00117908
0.00142329
0.00173503
0.00213325
0.00263812
0.00327415
0.0040646
0.000195275
0.000214779
0.000244995
0.000284742
0.000332936
0.000389194
0.000454033
0.000528683
0.000615042
0.000715725
0.000834256
0.000975121
0.00114432
0.00134979
0.00160229
0.0019174
0.00231562
0.00281398
0.00343118
0.00418507
0.000238176
0.000268892
0.000310062
0.000360382
0.000419026
0.000485862
0.000561507
0.000647302
0.000745147
0.000857662
0.000988174
0.00114108
0.00132193
0.00153788
0.00179825
0.00211592
0.00250943
0.00299646
0.00359022
0.00430405
0.000304029
0.000342422
0.0003918
0.000451073
0.000519513
0.000596982
0.000683992
0.000781704
0.00089185
0.00101681
0.00115976
0.00132464
0.00151654
0.00174179
0.00200833
0.00232671
0.00271206
0.00318278
0.00374853
0.00441663
0.000322558
0.000385275
0.000457545
0.000537388
0.000624122
0.000717963
0.000819946
0.000931766
0.00105546
0.00119348
0.0013488
0.00152507
0.00172675
0.0019593
0.0022295
0.0025459
0.00292052
0.00337029
0.00390409
0.00452465
0.000462146
0.000516339
0.000581272
0.000659596
0.000751618
0.000856652
0.00097313
0.00110027
0.00123854
0.00138963
0.00155634
0.00174217
0.00195124
0.00218828
0.00245891
0.00277017
0.00313149
0.00355674
0.00405573
0.00462847
0.00164765
0.00160877
0.00155173
0.00148913
0.00143495
0.0014031
0.00140557
0.00144932
0.00153473
0.00165697
0.00181003
0.00199014
0.0021965
0.00243076
0.00269623
0.00299781
0.00334246
0.00374066
0.00420272
0.00472733
0.00342731
0.00334405
0.00321627
0.00305349
0.00286749
0.0026723
0.00248681
0.00233202
0.0022295
0.00219518
0.00223408
0.00233969
0.00250039
0.00270583
0.00295027
0.00323228
0.00355411
0.00392203
0.00434467
0.00481993
0.0051293
0.00503793
0.00489475
0.00470444
0.00447285
0.00420865
0.00392383
0.00363481
0.003364
0.00313818
0.00298391
0.00292038
0.0029513
0.00306666
0.00325025
0.00348849
0.00377347
0.00410374
0.00448272
0.0049064
0.00668098
0.00658311
0.00643263
0.00623225
0.00598593
0.00569904
0.00537845
0.0050334
0.00467758
0.00433141
0.00402173
0.00377885
0.00362974
0.00358807
0.00365021
0.00380008
0.00401957
0.00429562
0.00462199
0.00499008
0.00813294
0.00803055
0.00787516
0.00766927
0.00741527
0.00711635
0.0067773
0.00640439
0.0060069
0.00559835
0.00519727
0.0048286
0.00452224
0.00430795
0.00420514
0.0042159
0.00432708
0.00451928
0.0047751
0.0050775
0.00951814
0.00941026
0.00925038
0.00903966
0.00878033
0.00847461
0.00812562
0.00773783
0.00731718
0.00687295
0.00641801
0.00597059
0.00555491
0.00519945
0.00493366
0.00477906
0.00474167
0.00481111
0.00496699
0.00518497
0.0108541
0.0107397
0.0105737
0.010358
0.0100936
0.00978237
0.00942677
0.00902999
0.00859648
0.00813228
0.00764646
0.0071517
0.00666534
0.00621027
0.00581383
0.00550409
0.0053025
0.00521647
0.00523647
0.00534099
0.0121511
0.012028
0.0118548
0.0116324
0.011362
0.011045
0.0106835
0.0102799
0.00983779
0.00936176
0.00885807
0.00833596
0.00780738
0.00728898
0.00680172
0.00637025
0.00601998
0.00577023
0.00562759
0.00558434
0.0134163
0.0132825
0.0130998
0.0128689
0.0125906
0.0122662
0.0118972
0.0114862
0.0110363
0.0105513
0.0100365
0.0094983
0.00894552
0.00838955
0.00784534
0.00733113
0.00686783
0.0064759
0.00617119
0.00596149
0.0146572
0.0145101
0.0143159
0.0140747
0.0137862
0.0134502
0.0130691
0.0126462
0.0121857
0.0116916
0.0111679
0.0106198
0.0100533
0.0094767
0.00890038
0.00833687
0.00779997
0.00730556
0.0068695
0.00650723
0.0158806
0.0157166
0.0155114
0.0152641
0.014964
0.0146052
0.0141994
0.013752
0.0132749
0.0127685
0.0122367
0.0116832
0.0111083
0.0105208
0.00993004
0.00934491
0.00877162
0.00821665
0.00769012
0.00721558
4.5407e-05
0.000154446
0.000289049
0.000447042
0.000633773
0.00085089
0.00110708
0.00140752
0.00176123
0.00217658
0.00266607
0.00324136
0.00391725
0.00470955
0.00563229
0.00670174
0.00793646
0.00935607
0.0109838
0.0128384
2.22148e-07
9.00589e-07
2.0143e-06
1.07665e-05
3.07507e-05
0.000210078
0.000365875
0.000569971
0.000829746
0.00115631
0.0015621
0.0020613
0.00266935
0.00340318
0.00428097
0.00532158
0.00654462
0.00797142
0.009623
0.0115163
4.32889e-08
1.50455e-07
8.20103e-06
3.56492e-05
0.000111253
0.000200098
0.000315279
0.000468874
0.000670061
0.000929915
0.00126156
0.00168014
0.0022029
0.00284931
0.00364059
0.00459949
0.00574981
0.00711638
0.00872485
0.0106009
8.86459e-06
2.57772e-05
4.65831e-05
7.86564e-05
0.000131572
0.000203066
0.000301253
0.000432783
0.000606242
0.000831683
0.00112162
0.00149094
0.00195715
0.00254037
0.00326322
0.00415059
0.00522919
0.006527
0.00807237
0.00989129
9.7471e-06
2.90891e-05
5.07535e-05
7.93782e-05
0.000125224
0.000190316
0.000279105
0.000397824
0.000554382
0.000758594
0.00102189
0.00135843
0.00178523
0.00232219
0.00299217
0.00382091
0.00483669
0.00606988
0.00755196
0.00931358
9.6466e-06
2.88824e-05
4.99451e-05
7.61781e-05
0.000115696
0.000175033
0.000256264
0.00036496
0.000508467
0.000696009
0.00093867
0.0012497
0.00164539
0.00214517
0.00277158
0.00355055
0.00451111
0.00568492
0.00710539
0.0088049
9.53385e-06
2.86556e-05
4.94428e-05
7.43379e-05
0.000107881
0.000161623
0.00023621
0.000336332
0.000468801
0.000642268
0.000867443
0.00115696
0.00152635
0.00199438
0.00258315
0.00331846
0.00422954
0.00534877
0.00671084
0.00835004
9.42865e-06
2.85451e-05
4.94095e-05
7.38786e-05
0.000104517
0.000151146
0.000219512
0.000312159
0.000435129
0.000596527
0.000806513
0.00107746
0.00142408
0.00186452
0.00242049
0.00311757
0.00398534
0.00505766
0.00637313
0.00797743
9.34492e-06
2.85002e-05
4.95385e-05
7.39662e-05
0.000103194
0.000143018
0.000205717
0.000291831
0.000406573
0.000557505
0.000754267
0.0010089
0.00133557
0.00175166
0.00227833
0.0029406
0.00376758
0.00479233
0.00605054
0.00757575
9.25248e-06
2.83792e-05
4.95308e-05
7.39039e-05
0.000102205
0.000137915
0.00019446
0.000274634
0.000382139
0.000523903
0.00070909
0.000949182
0.00125805
0.00165234
0.00215243
0.00278266
0.00357149
0.00455136
0.00575786
0.00722875
9.17663e-06
2.83267e-05
4.96459e-05
7.42429e-05
0.000102334
0.000136292
0.000185634
0.000260073
0.00036108
0.000494729
0.000669624
0.000896723
0.00118963
0.0015643
0.00204041
0.00264171
0.00339637
0.00433711
0.00550181
0.00693572
9.10601e-06
2.82319e-05
4.96803e-05
7.44224e-05
0.000102308
0.000134938
0.000178516
0.000247564
0.00034275
0.000469167
0.000634903
0.000850453
0.00112891
0.00148594
0.00194044
0.00251562
0.00323909
0.00414317
0.00526465
0.00664286
9.03825e-06
2.81449e-05
4.96595e-05
7.45345e-05
0.000102353
0.000134248
0.000174693
0.000237233
0.000326777
0.000446623
0.000604137
0.00080928
0.00107465
0.00141576
0.00185075
0.00240221
0.00309729
0.00396806
0.00505196
0.0063931
8.97785e-06
2.80545e-05
4.9689e-05
7.47824e-05
0.000102735
0.000134338
0.000173115
0.000228787
0.000312825
0.000426637
0.000576704
0.000772477
0.00102607
0.00135258
0.00176979
0.00229951
0.00296822
0.00380736
0.00485295
0.00614436
8.91557e-06
2.79582e-05
4.96337e-05
7.48846e-05
0.000102915
0.000134241
0.000171653
0.000221883
0.000300568
0.000408826
0.000552126
0.000739395
0.000982283
0.0012954
0.00169635
0.00220616
0.00285079
0.00366125
0.00467416
0.00593291
8.84901e-06
2.7818e-05
4.95188e-05
7.488e-05
0.000103006
0.0001342
0.000170801
0.0002179
0.000290169
0.000392953
0.000529978
0.000709436
0.000942519
0.00124334
0.00162932
0.00212085
0.00274318
0.00352682
0.00450761
0.00572665
8.78942e-06
2.77052e-05
4.9437e-05
7.49407e-05
0.000103246
0.000134483
0.00017069
0.000215972
0.000281444
0.000378794
0.00050995
0.000682216
0.00090629
0.00119582
0.00156777
0.00204217
0.00264342
0.00340097
0.00434917
0.00552611
8.72976e-06
2.75803e-05
4.93209e-05
7.49564e-05
0.000103423
0.000134698
0.000170553
0.000214318
0.000274013
0.000366072
0.000491723
0.00065733
0.00087303
0.00115201
0.00151072
0.00196892
0.00255002
0.00328238
0.00419916
0.00533723
8.66501e-06
2.74359e-05
4.9164e-05
7.48669e-05
0.000103435
0.000134735
0.000170322
0.000212986
0.000268814
0.000354837
0.000475073
0.000634386
0.00084224
0.00111133
0.00145753
0.00190045
0.00246262
0.00317177
0.00406097
0.00516936
8.60865e-06
2.73033e-05
4.9007e-05
7.47665e-05
0.000103461
0.00013486
0.000170368
0.000212437
0.000266002
0.000345138
0.000459853
0.000613165
0.00081363
0.00107341
0.00140795
0.00183631
0.00238066
0.00306795
0.0039303
0.00500437
8.54609e-06
2.71522e-05
4.88315e-05
7.46654e-05
0.000103513
0.000135042
0.000170543
0.000212169
0.000263973
0.000336579
0.00044582
0.000593373
0.000786866
0.00103793
0.00136158
0.00177636
0.00230433
0.00297213
0.00381251
0.00486619
8.48157e-06
2.70002e-05
4.86367e-05
7.45243e-05
0.00010349
0.000135117
0.000170582
0.000211755
0.000262007
0.000329338
0.000432918
0.000574897
0.000761809
0.00100467
0.0013181
0.00172025
0.00223314
0.00288293
0.00370203
0.00472916
8.42097e-06
2.68321e-05
4.83734e-05
7.43038e-05
0.000103357
0.000135084
0.000170553
0.000211437
0.000260636
0.000324536
0.000421471
0.000557842
0.000738489
0.000973709
0.0012776
0.00166794
0.00216664
0.00279926
0.00359712
0.00459721
8.34136e-06
2.65972e-05
4.8146e-05
7.40324e-05
0.000103176
0.000135043
0.000170594
0.000211382
0.000259987
0.000321703
0.000411549
0.000542291
0.000716987
0.000945024
0.00124002
0.00161934
0.00210447
0.00272044
0.00349749
0.0044713
8.28353e-06
2.64843e-05
4.78701e-05
7.3736e-05
0.000102993
0.000134974
0.000170642
0.000211411
0.000259542
0.000319458
0.000402869
0.000528126
0.000697174
0.000918492
0.00120512
0.001574
0.00204602
0.00264579
0.00340225
0.00434935
8.23584e-06
2.63076e-05
4.76254e-05
7.3431e-05
0.000102708
0.000134793
0.000170548
0.000211266
0.00025893
0.000317288
0.000395533
0.000515243
0.000678867
0.000893803
0.00117253
0.00153143
0.00199081
0.00257502
0.00331205
0.0042352
8.18791e-06
2.61447e-05
4.73004e-05
7.30235e-05
0.000102318
0.000134453
0.000170263
0.000210939
0.000258262
0.000315507
0.000390227
0.000503704
0.000661939
0.000870793
0.00114201
0.00149152
0.00193918
0.0025094
0.00323054
0.00413912
8.12822e-06
2.59671e-05
4.70468e-05
7.26154e-05
0.0001019
0.000134054
0.000169912
0.000210592
0.000257744
0.000314284
0.000386667
0.000493469
0.00064629
0.000849323
0.0011135
0.00145425
0.00189112
0.00244833
0.00315424
0.00404352
8.08458e-06
2.5815e-05
4.67454e-05
7.22411e-05
0.000101478
0.00013368
0.000169599
0.000210334
0.000257384
0.00031339
0.000383933
0.000484338
0.000631856
0.000829324
0.00108687
0.00141948
0.00184629
0.00239116
0.00308208
0.00395226
8.02434e-06
2.56422e-05
4.64435e-05
7.18228e-05
0.000101046
0.000133268
0.000169233
0.000210008
0.000256955
0.000312459
0.000381334
0.000476086
0.00061847
0.00081067
0.00106198
0.00138686
0.0018041
0.00233695
0.0030128
0.00386295
7.9729e-06
2.54761e-05
4.61595e-05
7.14326e-05
0.000100601
0.000132807
0.000168789
0.000209541
0.000256359
0.000311377
0.000378775
0.000468919
0.000606087
0.000793247
0.00103864
0.00135621
0.00176439
0.00228609
0.00294909
0.00378667
7.94089e-06
2.53448e-05
4.59381e-05
7.10954e-05
0.000100164
0.000132347
0.000168299
0.00020902
0.000255711
0.000310311
0.000376555
0.000463295
0.000594767
0.000776943
0.00101671
0.00132742
0.00172706
0.00223819
0.00288838
0.00370907
7.90953e-06
2.52229e-05
4.56949e-05
7.07189e-05
9.97205e-05
0.000131845
0.000167786
0.000208485
0.000255093
0.0003094
0.00037483
0.000459154
0.000584549
0.000761714
0.000996065
0.00130028
0.00169195
0.00219331
0.00283184
0.00364003
7.84778e-06
2.50335e-05
4.54476e-05
7.03314e-05
9.92438e-05
0.00013136
0.000167281
0.000207976
0.000254541
0.000308654
0.000373482
0.000455896
0.000575261
0.000747521
0.000976726
0.00127476
0.00165886
0.00215099
0.00277821
0.00357242
7.80873e-06
2.49435e-05
4.52241e-05
6.99926e-05
9.88528e-05
0.000130932
0.000166842
0.000207529
0.000254053
0.00030802
0.000372312
0.000453045
0.000566778
0.000734241
0.000958521
0.00125071
0.00162762
0.0021109
0.00272712
0.00350778
7.77473e-06
2.48074e-05
4.50176e-05
6.96693e-05
9.84691e-05
0.000130509
0.000166406
0.000207076
0.000253569
0.000307369
0.000371122
0.000450293
0.000559022
0.000721818
0.000941332
0.00122798
0.00159814
0.002073
0.0026789
0.00344779
7.74119e-06
2.47132e-05
4.47988e-05
6.93557e-05
9.80789e-05
0.000130061
0.00016594
0.000206609
0.000253059
0.000306668
0.000369892
0.000447643
0.000552105
0.00071022
0.000925159
0.00120648
0.00157009
0.00203683
0.00263243
0.0033877
7.71311e-06
2.45932e-05
4.46078e-05
6.90491e-05
9.76901e-05
0.000129617
0.00016547
0.000206111
0.000252475
0.000305899
0.000368668
0.00044522
0.000546255
0.000699384
0.000909823
0.00118609
0.00154349
0.00200252
0.00258882
0.00333419
7.67085e-06
2.44731e-05
4.43708e-05
6.87168e-05
9.72867e-05
0.000129161
0.000164978
0.000205584
0.000251881
0.000305155
0.000367545
0.000443173
0.000541608
0.000689428
0.000895422
0.00116679
0.00151827
0.00197016
0.00254811
0.00328422
7.6345e-06
2.43566e-05
4.41902e-05
6.84238e-05
9.6925e-05
0.000128737
0.000164501
0.000205073
0.000251336
0.000304504
0.000366617
0.000441532
0.000537896
0.000680233
0.000881782
0.00114844
0.00149431
0.00193933
0.00250862
0.00323264
7.61223e-06
2.42703e-05
4.40061e-05
6.81731e-05
9.65862e-05
0.000128345
0.000164059
0.000204612
0.000250859
0.000303957
0.00036587
0.000440208
0.000534828
0.000671804
0.000868988
0.00113111
0.00147172
0.00191045
0.00247286
0.00319209
7.58425e-06
2.41729e-05
4.38454e-05
6.7907e-05
9.62596e-05
0.000127987
0.000163674
0.000204198
0.000250432
0.000303493
0.00036523
0.000439026
0.000532071
0.00066398
0.000856932
0.00111478
0.00145048
0.00188355
0.00243971
0.00315172
7.57368e-06
2.41069e-05
4.37046e-05
6.76683e-05
9.59673e-05
0.000127656
0.000163311
0.000203819
0.000250035
0.000303053
0.000364621
0.000437904
0.000529486
0.000656761
0.000845642
0.00109939
0.00143042
0.00185791
0.00240688
0.00310761
7.55891e-06
2.40409e-05
4.35498e-05
6.74475e-05
9.56874e-05
0.000127325
0.000162967
0.00020346
0.00024965
0.000302601
0.000363994
0.000436782
0.000527006
0.00065013
0.000835008
0.00108492
0.00141162
0.00183407
0.00237748
0.00307444
7.53576e-06
2.39553e-05
4.33996e-05
6.72286e-05
9.53957e-05
0.000127016
0.000162628
0.000203093
0.000249254
0.000302151
0.00036337
0.000435677
0.000524686
0.000644251
0.000825096
0.0010712
0.00139351
0.00181019
0.00234452
0.00302123
7.51648e-06
2.38711e-05
4.32748e-05
6.70289e-05
9.5134e-05
0.000126701
0.000162275
0.000202713
0.00024885
0.000301679
0.000362725
0.000434624
0.000522585
0.00063915
0.000815774
0.00105811
0.00137613
0.00178757
0.00231621
0.00299419
7.48676e-06
2.37895e-05
4.31415e-05
6.68323e-05
9.48607e-05
0.000126379
0.00016192
0.000202333
0.000248444
0.000301213
0.000362115
0.000433666
0.000520762
0.000634914
0.000807072
0.00104563
0.0013594
0.00176554
0.00228695
0.00295035
7.45551e-06
2.36995e-05
4.30091e-05
6.66143e-05
9.45882e-05
0.000126066
0.000161576
0.000201967
0.000248053
0.000300782
0.000361588
0.00043287
0.000519268
0.00063142
0.000798928
0.00103365
0.00134315
0.0017438
0.00225761
0.00291094
7.43957e-06
2.36612e-05
4.29178e-05
6.64495e-05
9.43791e-05
0.000125813
0.000161281
0.00020164
0.0002477
0.000300408
0.000361136
0.000432207
0.000518047
0.00062852
0.000791315
0.00102216
0.00132752
0.00172323
0.00223193
0.00288464
7.42974e-06
2.36251e-05
4.28434e-05
6.63198e-05
9.41912e-05
0.000125592
0.000161024
0.000201365
0.000247425
0.000300125
0.000360807
0.000431712
0.000517039
0.000625989
0.000784135
0.00101116
0.00131254
0.00170368
0.00220688
0.00285069
7.41793e-06
2.35917e-05
4.27662e-05
6.61892e-05
9.40263e-05
0.000125383
0.000160802
0.000201137
0.000247199
0.000299897
0.000360537
0.000431287
0.000516149
0.000623691
0.000777372
0.00100071
0.00129835
0.00168526
0.00218388
0.00282409
7.40839e-06
2.35449e-05
4.26811e-05
6.60661e-05
9.38546e-05
0.000125185
0.000160591
0.000200915
0.000246981
0.000299689
0.000360286
0.000430886
0.000515309
0.000621551
0.000771056
0.000990823
0.0012849
0.00166774
0.00216131
0.00279325
7.38913e-06
2.34939e-05
4.2598e-05
6.59429e-05
9.36925e-05
0.000124984
0.000160365
0.000200695
0.000246786
0.000299503
0.000360073
0.000430528
0.000514499
0.000619488
0.000765119
0.000981407
0.00127198
0.00165064
0.00213847
0.00276139
7.38005e-06
2.34573e-05