/*--------------------------------*- C++ -*----------------------------------*\
| =========                 |                                                 |
| \\      /  F ield         | OpenFOAM: The Open Source CFD Toolbox           |
|  \\    /   O peration     | Version:  2.3.0                                 |
|   \\  /    A nd           | Web:      www.OpenFOAM.org                      |
|    \\/     M anipulation  |                                                 |
\*---------------------------------------------------------------------------*/
FoamFile
{
    version     2.0;
    format      ascii;
    class       volScalarField;
    location    "500";
    object      p;
}
// * * * * * * * * * * * * * * * * * * * * * * * * * * * * * * * * * * * * * //

dimensions      [0 2 -2 0 0 0 0];

internalField   nonuniform List<scalar> 
28256
(
-0.0356377
12.2265
21.8372
29.8588
35.648
38.4755
38.2374
35.3665
30.3189
23.8773
16.8002
9.40281
2.12736
-5.14543
-12.2438
-19.5103
-26.4669
-33.1522
-36.7662
-40.8972
-4.64214
4.22449
10.8775
16.3812
20.6432
23.6063
25.3763
26.0558
25.6244
24.0985
21.471
17.7989
13.2229
7.89536
2.08479
-4.03909
-10.3273
-16.7145
-22.6628
-28.8165
-9.45234
-3.24273
0.760863
3.3732
4.42937
3.84926
1.79733
-1.49257
-5.64407
-10.3125
-15.136
-19.8828
-24.3489
-28.5337
-32.1349
-35.5139
-38.134
-40.5935
-42.5117
-44.1405
-14.6261
-9.97579
-7.62835
-6.45932
-6.35047
-7.18102
-8.748
-10.8333
-13.2349
-15.8528
-18.5362
-21.1674
-23.6898
-26.1496
-28.1989
-30.1191
-31.7823
-33.1801
-34.1443
-35.119
-19.6409
-16.1136
-14.9929
-14.9178
-15.7074
-17.2244
-19.2913
-21.7009
-24.2495
-26.8208
-29.2759
-31.5083
-33.4344
-35.1039
-36.5372
-37.5946
-38.3395
-38.9583
-39.2027
-39.3877
-23.8825
-21.4833
-21.0768
-21.527
-22.5398
-23.9649
-25.6394
-27.4423
-29.2134
-30.8795
-32.4332
-33.7663
-34.9123
-35.7773
-36.5153
-37.0009
-37.2588
-37.401
-37.2943
-37.181
-27.7344
-26.0848
-26.15
-26.8773
-27.9946
-29.3741
-30.8785
-32.4211
-33.8862
-35.225
-36.4075
-37.3763
-38.1522
-38.6957
-39.0719
-39.2263
-39.2732
-39.1231
-38.8185
-38.4398
-30.4179
-29.8942
-30.2542
-31.0579
-32.0993
-33.2756
-34.4704
-35.632
-36.6715
-37.6096
-38.3251
-38.9284
-39.3138
-39.545
-39.6393
-39.5523
-39.3536
-39.0585
-38.6283
-38.1325
-33.0766
-33.1143
-33.6042
-34.3746
-35.2937
-36.281
-37.2391
-38.1297
-38.9093
-39.5739
-40.0561
-40.419
-40.6032
-40.6693
-40.5806
-40.3866
-40.0607
-39.6875
-39.1906
-38.6548
-35.4736
-35.7633
-36.2635
-36.9517
-37.7174
-38.4994
-39.2276
-39.871
-40.4083
-40.819
-41.1103
-41.2644
-41.2777
-41.2181
-40.9845
-40.7336
-40.3351
-39.8835
-39.3756
-38.8284
-37.6536
-37.9091
-38.373
-38.9612
-39.5721
-40.1684
-40.7085
-41.164
-41.5136
-41.7641
-41.8966
-41.9382
-41.832
-41.6905
-41.4107
-41.0703
-40.6784
-40.2151
-39.6802
-39.1498
-39.4041
-39.6374
-40.0387
-40.5092
-40.973
-41.4071
-41.781
-42.0747
-42.2731
-42.3943
-42.4127
-42.3535
-42.1794
-41.9625
-41.6795
-41.2859
-40.8847
-40.4253
-39.9331
-39.394
-40.768
-41.0167
-41.3451
-41.6951
-42.0299
-42.3175
-42.5627
-42.7224
-42.8155
-42.827
-42.7839
-42.6376
-42.4336
-42.177
-41.8602
-41.4895
-41.0873
-40.6295
-40.173
-39.666
-41.971
-42.1737
-42.3847
-42.6124
-42.8275
-42.9893
-43.1209
-43.176
-43.1896
-43.114
-43.0157
-42.8217
-42.6056
-42.3139
-42.0007
-41.6312
-41.2428
-40.8264
-40.3806
-39.9191
-42.8673
-43.0416
-43.1653
-43.295
-43.4109
-43.4794
-43.5152
-43.4971
-43.4356
-43.3198
-43.1645
-42.9478
-42.7262
-42.4133
-42.1121
-41.7542
-41.3823
-40.9884
-40.5861
-40.1568
-43.6638
-43.7337
-43.7794
-43.8151
-43.8437
-43.8349
-43.7905
-43.723
-43.6005
-43.4593
-43.2658
-43.034
-42.8028
-42.5028
-42.197
-41.8674
-41.517
-41.1458
-40.7719
-40.3848
-44.2758
-44.2751
-44.2469
-44.2102
-44.1646
-44.0962
-43.9957
-43.8765
-43.724
-43.5486
-43.3392
-43.1034
-42.8587
-42.5735
-42.2653
-41.9677
-41.6232
-41.2872
-40.938
-40.5817
-44.6832
-44.6707
-44.5897
-44.5012
-44.4065
-44.2906
-44.1595
-44.0007
-43.8322
-43.6326
-43.4243
-43.1866
-42.946
-42.6764
-42.3796
-42.0893
-41.7835
-41.4599
-41.1381
-40.8108
-45.1149
-45.0064
-44.8621
-44.7039
-44.5577
-44.3931
-44.2223
-44.0212
-43.8133
-43.5848
-43.3641
-43.1183
-42.8757
-42.6054
-42.3183
-42.0231
-41.7461
-41.4466
-41.1623
-40.8481
-45.5159
-45.464
-45.3165
-45.147
-44.9901
-44.8671
-44.7355
-44.5647
-44.3862
-44.1608
-43.927
-43.7365
-43.5571
-43.3524
-43.0894
-42.7608
-42.4071
-42.1278
-41.8865
-41.6097
-66.4434
-86.516
-97.0925
-104.855
-111.793
-117.969
-123.202
-127.162
-130.024
-131.706
-132.208
-131.518
-129.634
-126.487
-121.962
-116.029
-108.778
-100.539
-91.6828
-83.7179
-34.9896
-41.4053
-47.8587
-55.1565
-62.8755
-70.491
-78.2185
-85.4229
-92.0335
-97.5728
-101.882
-104.682
-105.861
-105.433
-103.48
-100.174
-95.714
-90.3287
-84.1835
-78.5688
-45.5285
-47.363
-49.3551
-51.5715
-54.437
-57.588
-61.1845
-64.9635
-68.9088
-72.7209
-76.458
-79.7518
-82.4459
-84.3657
-85.2226
-84.9507
-83.4745
-80.8482
-77.1739
-73.3448
-36.0702
-37.0392
-38.4069
-40.1727
-42.3563
-45.0186
-47.8886
-51.1421
-54.7261
-58.314
-61.9177
-65.3456
-68.4298
-70.9493
-72.7726
-73.7407
-73.7446
-72.7666
-70.8307
-68.4333
-39.4338
-39.601
-40.1116
-40.8024
-41.7717
-43.1269
-44.7206
-46.5753
-48.7796
-51.1267
-53.6524
-56.2486
-58.7723
-61.1363
-63.1674
-64.6922
-65.5805
-65.7149
-65.0505
-63.6845
-37.0364
-36.9031
-37.1133
-37.4556
-38.0669
-39.0002
-40.1952
-41.5632
-43.3206
-45.1854
-47.2619
-49.5168
-51.7502
-53.9438
-55.9865
-57.7201
-59.0316
-59.7941
-59.9747
-59.4266
-38.078
-37.718
-37.6005
-37.6429
-37.8731
-38.2624
-38.9799
-39.8135
-40.9394
-42.2164
-43.6686
-45.3413
-47.0869
-48.9178
-50.7089
-52.3629
-53.8071
-54.8947
-55.5695
-55.5696
-37.6794
-37.2125
-36.9683
-36.7963
-36.8807
-37.0714
-37.4577
-38.0422
-38.7908
-39.7878
-40.8966
-42.2238
-43.6458
-45.1783
-46.742
-48.2627
-49.662
-50.8835
-51.8283
-52.1776
-38.1253
-37.6253
-37.2655
-36.9694
-36.8422
-36.8745
-37.0408
-37.3723
-37.8091
-38.4703
-39.2861
-40.2146
-41.3123
-42.5321
-43.8226
-45.1564
-46.4488
-47.6467
-48.6972
-49.2039
-38.2588
-37.7435
-37.3568
-37.0145
-36.787
-36.6718
-36.6969
-36.8785
-37.1379
-37.5658
-38.154
-38.8549
-39.6901
-40.6493
-41.6948
-42.8201
-43.9512
-45.0705
-46.1228
-46.6751
-38.6121
-38.0869
-37.6529
-37.2762
-37.0066
-36.8177
-36.7218
-36.7689
-36.8694
-37.1373
-37.5084
-38.0062
-38.6102
-39.355
-40.1721
-41.0934
-42.0519
-43.0415
-44.0094
-44.5026
-38.8879
-38.3786
-37.9633
-37.5591
-37.273
-37.0266
-36.8615
-36.8095
-36.8227
-36.9467
-37.1822
-37.5177
-37.9435
-38.4953
-39.1238
-39.845
-40.6307
-41.4727
-42.3166
-42.6855
-39.1933
-38.7066
-38.3056
-37.9063
-37.5869
-37.33
-37.1294
-37.0002
-36.9438
-36.9769
-37.0867
-37.2794
-37.5696
-37.9548
-38.4291
-38.9786
-39.6088
-40.2983
-41.0167
-41.2728
-39.4785
-39.0256
-38.6348
-38.2697
-37.9367
-37.6597
-37.4507
-37.2715
-37.155
-37.1276
-37.1516
-37.242
-37.4318
-37.667
-38.0128
-38.4056
-38.8804
-39.4299
-40.0175
-40.1422
-39.7528
-39.3293
-38.9679
-38.6116
-38.3037
-38.0024
-37.797
-37.584
-37.4431
-37.3542
-37.3181
-37.3378
-37.4194
-37.5672
-37.775
-38.0552
-38.4044
-38.8036
-39.2409
-39.1826
-40.0116
-39.62
-39.2864
-38.9459
-38.647
-38.3631
-38.1329
-37.9168
-37.7555
-37.6385
-37.5347
-37.5184
-37.5201
-37.598
-37.6981
-37.8719
-38.1025
-38.3897
-38.6799
-38.5245
-40.2411
-39.8798
-39.5609
-39.2544
-38.9572
-38.6979
-38.4552
-38.2375
-38.0593
-37.928
-37.7951
-37.7264
-37.6828
-37.6876
-37.7175
-37.8038
-37.9147
-38.086
-38.2512
-38.1145
-40.4849
-40.1576
-39.8531
-39.5472
-39.2751
-39.0079
-38.7698
-38.5531
-38.3629
-38.2029
-38.0698
-37.9543
-37.8847
-37.8257
-37.806
-37.8178
-37.847
-37.9098
-37.9738
-37.8416
-40.5392
-40.2331
-39.9548
-39.6706
-39.4214
-39.1601
-38.9434
-38.7424
-38.5668
-38.3999
-38.287
-38.1469
-38.0507
-37.9717
-37.9041
-37.8705
-37.8483
-37.8405
-37.8415
-37.7998
-41.2877
-40.9759
-40.7502
-40.5088
-40.1129
-39.7813
-39.3778
-39.2129
-39.0309
-38.8869
-38.6749
-38.5
-38.2949
-38.1577
-38.1278
-38.0221
-37.9435
-37.8678
-37.8362
-37.9695
-146.331
-145.416
-144.264
-142.831
-141.143
-139.238
-137.19
-135.089
-133.032
-131.105
-129.381
-127.902
-126.69
-125.755
-125.1
-124.733
-124.626
-124.64
-124.607
-124.485
-145.636
-144.61
-143.432
-142.085
-140.633
-139.144
-137.698
-136.368
-135.198
-134.202
-133.37
-132.683
-132.121
-131.673
-131.337
-131.112
-130.974
-130.851
-130.671
-130.42
-145.132
-144.128
-143.088
-141.978
-140.844
-139.709
-138.594
-137.515
-136.477
-135.487
-134.557
-133.701
-132.937
-132.282
-131.748
-131.33
-130.997
-130.698
-130.402
-130.066
-144.715
-143.727
-142.759
-141.73
-140.666
-139.575
-138.477
-137.393
-136.353
-135.382
-134.501
-133.723
-133.057
-132.504
-132.057
-131.696
-131.385
-131.098
-130.823
-130.521
-144.373
-143.435
-142.548
-141.626
-140.701
-139.787
-138.899
-138.058
-137.275
-136.56
-135.912
-135.337
-134.833
-134.4
-134.029
-133.701
-133.395
-133.113
-132.847
-132.557
-144.122
-143.288
-142.536
-141.803
-141.119
-140.482
-139.891
-139.34
-138.824
-138.339
-137.885
-137.462
-137.073
-136.721
-136.401
-136.101
-135.808
-135.526
-135.237
-134.911
-143.985
-143.24
-142.623
-142.07
-141.602
-141.208
-140.875
-140.587
-140.335
-140.102
-139.888
-139.683
-139.485
-139.278
-139.038
-138.752
-138.439
-138.166
-137.921
-137.625
-143.858
-143.215
-142.691
-142.263
-141.949
-141.741
-141.633
-141.612
-141.672
-141.792
-141.961
-142.138
-142.309
-142.451
-142.547
-142.542
-142.371
-142.038
-141.578
-141.045
-143.779
-143.167
-142.693
-142.327
-142.085
-141.971
-141.986
-142.123
-142.375
-142.728
-143.21
-143.843
-144.652
-145.58
-146.54
-147.379
-147.852
-147.626
-146.619
-145.235
-143.737
-143.104
-142.629
-142.249
-141.979
-141.821
-141.769
-141.833
-142.055
-142.513
-143.27
-144.382
-145.89
-147.792
-149.913
-151.825
-152.882
-152.534
-150.91
-148.723
-143.651
-143.027
-142.519
-142.075
-141.705
-141.415
-141.239
-141.261
-141.576
-142.267
-143.404
-145.006
-147.006
-149.188
-151.209
-152.662
-153.224
-152.806
-151.605
-149.989
-143.653
-142.975
-142.419
-141.904
-141.462
-141.155
-141.087
-141.358
-142.041
-143.151
-144.628
-146.341
-148.102
-149.708
-150.97
-151.756
-152.012
-151.765
-151.114
-150.18
-143.679
-142.984
-142.401
-141.888
-141.536
-141.449
-141.715
-142.373
-143.385
-144.662
-146.074
-147.495
-148.804
-149.908
-150.737
-151.251
-151.446
-151.338
-150.971
-150.394
-143.754
-143.088
-142.57
-142.211
-142.119
-142.361
-142.946
-143.822
-144.897
-146.074
-147.259
-148.38
-149.376
-150.202
-150.824
-151.226
-151.406
-151.376
-151.158
-150.78
-143.935
-143.394
-143.057
-142.961
-143.163
-143.657
-144.392
-145.293
-146.284
-147.303
-148.293
-149.209
-150.014
-150.68
-151.188
-151.531
-151.708
-151.729
-151.605
-151.352
-144.363
-144.009
-143.913
-144.069
-144.472
-145.082
-145.839
-146.689
-147.581
-148.47
-149.319
-150.098
-150.779
-151.345
-151.785
-152.095
-152.275
-152.331
-152.269
-152.102
-145.127
-144.963
-145.069
-145.379
-145.867
-146.493
-147.215
-147.993
-148.79
-149.575
-150.32
-151.003
-151.604
-152.11
-152.513
-152.809
-153
-153.088
-153.079
-152.98
-145.969
-146.099
-146.376
-146.781
-147.303
-147.926
-148.621
-149.358
-150.1
-150.819
-151.493
-152.107
-152.645
-153.1
-153.467
-153.745
-153.936
-154.044
-154.071
-154.02
-147.232
-147.346
-147.655
-148.036
-148.484
-149.025
-149.622
-150.255
-150.899
-151.542
-152.175
-152.799
-153.359
-153.838
-154.23
-154.548
-154.789
-154.953
-155.037
-155.041
-148.976
-149.235
-149.83
-150.255
-150.46
-151.121
-152.066
-153.102
-153.863
-154.369
-154.615
-154.984
-155.394
-155.723
-155.906
-156.048
-156.168
-156.268
-156.393
-156.432
-124.262
-123.908
-123.411
-122.792
-122.089
-121.341
-120.562
-119.744
-118.873
-117.933
-116.92
-115.835
-114.679
-113.458
-112.182
-110.879
-109.577
-108.293
-107.115
-106.544
-130.107
-129.725
-129.256
-128.674
-127.963
-127.125
-126.171
-125.112
-123.96
-122.726
-121.425
-120.075
-118.693
-117.294
-115.891
-114.498
-113.133
-111.792
-110.521
-109.844
-129.67
-129.216
-128.742
-128.274
-127.795
-127.278
-126.702
-126.053
-125.32
-124.494
-123.57
-122.546
-121.43
-120.232
-118.973
-117.678
-116.379
-115.087
-113.842
-113.102
-130.165
-129.762
-129.364
-128.993
-128.627
-128.237
-127.805
-127.317
-126.765
-126.138
-125.428
-124.629
-123.736
-122.75
-121.678
-120.541
-119.368
-118.183
-117.036
-116.319
-132.225
-131.862
-131.504
-131.157
-130.803
-130.424
-130.005
-129.536
-129.008
-128.412
-127.746
-127
-126.175
-125.271
-124.295
-123.263
-122.201
-121.126
-120.095
-119.471
-134.552
-134.18
-133.811
-133.446
-133.069
-132.672
-132.24
-131.767
-131.244
-130.666
-130.025
-129.319
-128.544
-127.703
-126.803
-125.86
-124.896
-123.929
-123.013
-122.433
-137.253
-136.833
-136.39
-135.943
-135.485
-135.014
-134.518
-133.994
-133.434
-132.835
-132.191
-131.501
-130.763
-129.978
-129.153
-128.302
-127.444
-126.596
-125.81
-125.318
-140.461
-139.852
-139.234
-138.624
-138.018
-137.413
-136.801
-136.182
-135.549
-134.9
-134.232
-133.542
-132.83
-132.096
-131.346
-130.59
-129.846
-129.131
-128.489
-128.09
-143.864
-142.653
-141.606
-140.705
-139.91
-139.193
-138.523
-137.879
-137.244
-136.61
-135.971
-135.327
-134.677
-134.023
-133.368
-132.724
-132.106
-131.531
-131.039
-130.74
-146.606
-144.809
-143.368
-142.217
-141.274
-140.469
-139.759
-139.115
-138.517
-137.947
-137.393
-136.845
-136.299
-135.757
-135.224
-134.709
-134.227
-133.8
-133.457
-133.255
-148.269
-146.628
-145.16
-143.894
-142.82
-141.901
-141.106
-140.404
-139.779
-139.215
-138.703
-138.228
-137.781
-137.355
-136.949
-136.57
-136.231
-135.953
-135.76
-135.676
-149.085
-147.915
-146.742
-145.614
-144.562
-143.6
-142.73
-141.95
-141.255
-140.641
-140.104
-139.64
-139.241
-138.896
-138.599
-138.346
-138.147
-138.017
-137.976
-138.03
-149.666
-148.834
-147.941
-147.022
-146.108
-145.222
-144.379
-143.593
-142.87
-142.221
-141.65
-141.166
-140.769
-140.46
-140.233
-140.079
-139.999
-140.001
-140.091
-140.25
-150.273
-149.665
-148.982
-148.249
-147.488
-146.719
-145.96
-145.226
-144.531
-143.89
-143.314
-142.819
-142.415
-142.112
-141.913
-141.819
-141.826
-141.936
-142.141
-142.429
-150.991
-150.538
-150.011
-149.426
-148.801
-148.152
-147.492
-146.838
-146.205
-145.606
-145.057
-144.576
-144.177
-143.878
-143.691
-143.626
-143.686
-143.876
-144.182
-144.599
-151.843
-151.503
-151.094
-150.627
-150.117
-149.575
-149.015
-148.45
-147.893
-147.358
-146.861
-146.416
-146.041
-145.755
-145.575
-145.516
-145.59
-145.8
-146.127
-146.54
-152.8
-152.549
-152.235
-151.867
-151.454
-151.008
-150.537
-150.058
-149.582
-149.121
-148.69
-148.303
-147.976
-147.725
-147.569
-147.525
-147.609
-147.835
-148.198
-148.711
-153.899
-153.714
-153.474
-153.187
-152.858
-152.5
-152.119
-151.734
-151.355
-150.984
-150.632
-150.313
-150.043
-149.839
-149.715
-149.686
-149.764
-149.96
-150.283
-150.768
-154.969
-154.841
-154.696
-154.537
-154.324
-154.037
-153.681
-153.325
-152.988
-152.678
-152.389
-152.151
-151.964
-151.842
-151.795
-151.836
-151.946
-152.142
-152.468
-152.974
-156.516
-156.404
-156.302
-156.145
-155.658
-155.269
-154.914
-154.987
-155.233
-155.271
-155.146
-154.956
-154.764
-154.686
-154.756
-154.907
-154.884
-154.873
-155.2
-155.575
356.301
352.252
345.948
338.333
329.819
320.185
308.584
294.797
278.654
260.134
239.061
215.547
189.745
162.095
133.538
105.109
77.9523
53.1596
31.1196
11.0885
-2.88079
-2.0879
-0.707152
1.07111
3.07746
4.81752
6.40124
8.34151
10.5885
13.0704
15.721
18.464
21.1044
23.3216
24.641
24.4882
22.3313
17.8433
10.935
1.42692
36.4405
36.4564
36.5223
36.6488
36.8109
36.8708
36.821
36.6243
36.1689
35.3465
34.0424
32.1488
29.5694
26.2513
22.1878
17.423
12.0253
6.06098
-0.46522
-7.82043
6.28417
6.29747
6.36024
6.46981
6.55302
6.53462
6.45747
6.33939
6.15557
5.87524
5.45782
4.84408
3.95553
2.68937
0.918788
-1.48685
-4.6382
-8.57918
-13.2579
-18.7117
-33.5958
-33.5536
-33.4212
-33.141
-32.7568
-32.2899
-31.7459
-31.1256
-30.4399
-29.7057
-28.9458
-28.1932
-27.4916
-26.9046
-26.519
-26.4515
-26.8475
-27.8513
-29.5257
-31.9875
-56.3524
-56.2896
-56.136
-55.8449
-55.4123
-54.879
-54.2512
-53.5208
-52.6891
-51.762
-50.7549
-49.6848
-48.5814
-47.484
-46.4512
-45.5572
-44.9015
-44.5874
-44.6323
-45.1026
-75.7289
-75.6709
-75.5278
-75.2366
-74.7964
-74.239
-73.5691
-72.7765
-71.8521
-70.792
-69.5976
-68.2733
-66.8315
-65.2968
-63.7112
-62.1329
-60.6481
-59.3536
-58.2777
-57.3538
-91.8359
-91.7822
-91.6508
-91.3828
-90.9612
-90.409
-89.7395
-88.9377
-87.9915
-86.8898
-85.6242
-84.1898
-82.5849
-80.8173
-78.9081
-76.8957
-74.8444
-72.8362
-70.95
-69.4179
-104.572
-104.521
-104.406
-104.165
-103.776
-103.255
-102.612
-101.837
-100.914
-99.829
-98.5701
-97.1234
-95.4807
-93.6375
-91.5992
-89.3853
-87.0356
-84.6124
-82.178
-79.7663
-114.781
-114.74
-114.636
-114.424
-114.072
-113.591
-112.989
-112.258
-111.382
-110.344
-109.127
-107.715
-106.093
-104.249
-102.176
-99.8785
-97.374
-94.7066
-91.9604
-89.1908
-123.182
-123.142
-123.053
-122.864
-122.547
-122.106
-121.547
-120.864
-120.04
-119.056
-117.896
-116.541
-114.971
-113.168
-111.119
-108.818
-106.267
-103.486
-100.561
-97.814
-129.966
-129.933
-129.854
-129.687
-129.405
-129.007
-128.496
-127.866
-127.101
-126.182
-125.093
-123.811
-122.314
-120.583
-118.595
-116.336
-113.795
-110.979
-107.94
-104.792
-135.596
-135.566
-135.497
-135.349
-135.096
-134.734
-134.266
-133.684
-132.974
-132.119
-131.099
-129.893
-128.48
-126.837
-124.94
-122.772
-120.317
-117.574
-114.624
-111.889
-140.154
-140.128
-140.067
-139.936
-139.709
-139.383
-138.957
-138.423
-137.769
-136.976
-136.025
-134.896
-133.565
-132.009
-130.2
-128.115
-125.729
-123.023
-120.016
-116.923
-143.922
-143.899
-143.845
-143.728
-143.524
-143.229
-142.84
-142.349
-141.745
-141.008
-140.122
-139.066
-137.817
-136.35
-134.64
-132.659
-130.382
-127.788
-124.887
-121.904
-146.975
-146.956
-146.908
-146.804
-146.621
-146.354
-145.999
-145.55
-144.993
-144.313
-143.491
-142.508
-141.342
-139.967
-138.359
-136.489
-134.33
-131.86
-129.075
-126.148
-149.436
-149.419
-149.377
-149.284
-149.119
-148.875
-148.551
-148.139
-147.625
-146.996
-146.232
-145.315
-144.224
-142.933
-141.418
-139.65
-137.599
-135.24
-132.553
-129.648
-151.35
-151.336
-151.3
-151.217
-151.067
-150.847
-150.552
-150.175
-149.704
-149.123
-148.415
-147.563
-146.545
-145.337
-143.915
-142.248
-140.308
-138.066
-135.502
-132.695
-152.843
-152.832
-152.799
-152.725
-152.59
-152.389
-152.12
-151.774
-151.339
-150.802
-150.146
-149.353
-148.404
-147.276
-145.945
-144.382
-142.559
-140.449
-138.026
-135.367
-153.903
-153.893
-153.865
-153.799
-153.677
-153.495
-153.249
-152.932
-152.533
-152.039
-151.433
-150.698
-149.816
-148.765
-147.521
-146.055
-144.338
-142.34
-140.038
-137.474
-154.604
-154.597
-154.572
-154.513
-154.403
-154.237
-154.013
-153.723
-153.358
-152.904
-152.346
-151.667
-150.85
-149.875
-148.719
-147.356
-145.756
-143.888
-141.73
-139.387
-154.883
-154.878
-154.858
-154.808
-154.711
-154.565
-154.365
-154.107
-153.781
-153.372
-152.868
-152.253
-151.51
-150.619
-149.56
-148.307
-146.833
-145.108
-143.099
-140.908
-154.756
-154.752
-154.737
-154.694
-154.613
-154.487
-154.315
-154.091
-153.807
-153.45
-153.007
-152.463
-151.801
-151.004
-150.049
-148.913
-147.568
-145.984
-144.122
-142.026
-154.471
-154.469
-154.456
-154.42
-154.35
-154.241
-154.091
-153.895
-153.646
-153.331
-152.939
-152.456
-151.867
-151.153
-150.294
-149.267
-148.045
-146.595
-144.881
-142.91
-154.132
-154.131
-154.12
-154.089
-154.027
-153.931
-153.799
-153.627
-153.406
-153.126
-152.778
-152.347
-151.819
-151.176
-150.402
-149.473
-148.363
-147.043
-145.479
-143.659
-153.715
-153.713
-153.704
-153.678
-153.625
-153.542
-153.427
-153.275
-153.081
-152.835
-152.527
-152.143
-151.671
-151.095
-150.397
-149.557
-148.548
-147.345
-145.916
-144.252
-153.359
-153.358
-153.35
-153.326
-153.278
-153.203
-153.098
-152.96
-152.784
-152.56
-152.279
-151.929
-151.499
-150.973
-150.336
-149.568
-148.647
-147.545
-146.235
-144.727
-152.968
-152.967
-152.96
-152.939
-152.897
-152.83
-152.736
-152.613
-152.455
-152.253
-151.998
-151.681
-151.289
-150.808
-150.223
-149.516
-148.664
-147.64
-146.41
-144.965
-152.622
-152.621
-152.614
-152.595
-152.556
-152.495
-152.409
-152.296
-152.15
-151.965
-151.731
-151.44
-151.08
-150.637
-150.098
-149.444
-148.654
-147.704
-146.559
-145.193
-152.281
-152.28
-152.275
-152.258
-152.223
-152.167
-152.09
-151.988
-151.856
-151.687
-151.474
-151.208
-150.878
-150.471
-149.973
-149.37
-148.641
-147.762
-146.706
-145.448
-152.001
-152
-151.994
-151.978
-151.946
-151.894
-151.822
-151.727
-151.605
-151.449
-151.251
-151.004
-150.698
-150.32
-149.859
-149.299
-148.623
-147.81
-146.834
-145.689
-151.722
-151.721
-151.716
-151.702
-151.672
-151.625
-151.559
-151.471
-151.359
-151.215
-151.033
-150.804
-150.519
-150.168
-149.739
-149.216
-148.584
-147.82
-146.902
-145.822
-151.474
-151.473
-151.468
-151.455
-151.428
-151.384
-151.323
-151.242
-151.137
-151.003
-150.834
-150.621
-150.355
-150.027
-149.626
-149.137
-148.545
-147.829
-146.968
-145.972
-151.262
-151.261
-151.257
-151.244
-151.219
-151.178
-151.12
-151.045
-150.946
-150.821
-150.662
-150.462
-150.213
-149.905
-149.528
-149.068
-148.51
-147.835
-147.019
-146.065
-151.073
-151.072
-151.068
-151.056
-151.032
-150.994
-150.94
-150.869
-150.778
-150.66
-150.511
-150.323
-150.09
-149.8
-149.444
-149.01
-148.483
-147.844
-147.07
-146.154
-150.905
-150.904
-150.9
-150.889
-150.867
-150.831
-150.781
-150.715
-150.63
-150.52
-150.38
-150.205
-149.986
-149.714
-149.378
-148.969
-148.471
-147.869
-147.139
-146.268
-150.789
-150.788
-150.784
-150.773
-150.752
-150.718
-150.671
-150.607
-150.525
-150.421
-150.288
-150.121
-149.913
-149.654
-149.336
-148.947
-148.474
-147.901
-147.209
-146.383
-150.68
-150.679
-150.675
-150.666
-150.646
-150.614
-150.57
-150.511
-150.435
-150.337
-150.212
-150.055
-149.858
-149.613
-149.311
-148.942
-148.492
-147.948
-147.291
-146.521
-150.618
-150.617
-150.613
-150.604
-150.585
-150.554
-150.512
-150.455
-150.381
-150.288
-150.168
-150.018
-149.829
-149.595
-149.307
-148.953
-148.523
-148.002
-147.37
-146.628
-150.572
-150.571
-150.567
-150.558
-150.54
-150.511
-150.471
-150.417
-150.348
-150.259
-150.145
-150.002
-149.822
-149.598
-149.322
-148.983
-148.57
-148.067
-147.456
-146.738
-150.559
-150.558
-150.555
-150.546
-150.529
-150.501
-150.462
-150.411
-150.344
-150.259
-150.15
-150.013
-149.841
-149.627
-149.363
-149.04
-148.646
-148.169
-147.592
-146.928
-150.564
-150.563
-150.56
-150.552
-150.535
-150.509
-150.472
-150.423
-150.359
-150.278
-150.175
-150.044
-149.88
-149.676
-149.423
-149.113
-148.735
-148.276
-147.718
-147.065
-150.595
-150.594
-150.59
-150.582
-150.567
-150.542
-150.507
-150.46
-150.399
-150.321
-150.222
-150.096
-149.938
-149.742
-149.498
-149.198
-148.832
-148.385
-147.838
-147.187
-150.662
-150.661
-150.658
-150.651
-150.635
-150.611
-150.577
-150.532
-150.473
-150.398
-150.302
-150.181
-150.029
-149.839
-149.605
-149.316
-148.963
-148.534
-148.011
-147.385
-150.753
-150.752
-150.749
-150.741
-150.727
-150.703
-150.67
-150.627
-150.571
-150.498
-150.406
-150.289
-150.143
-149.96
-149.734
-149.455
-149.115
-148.701
-148.196
-147.563
-150.859
-150.858
-150.855
-150.848
-150.834
-150.813
-150.782
-150.741
-150.687
-150.618
-150.53
-150.419
-150.278
-150.103
-149.886
-149.619
-149.293
-148.898
-148.424
-147.861
-151.007
-151.006
-151.003
-150.996
-150.982
-150.961
-150.93
-150.889
-150.837
-150.769
-150.683
-150.574
-150.436
-150.265
-150.052
-149.79
-149.468
-149.077
-148.598
-147.989
-151.185
-151.184
-151.181
-151.174
-151.16
-151.139
-151.109
-151.069
-151.017
-150.951
-150.866
-150.758
-150.622
-150.453
-150.243
-149.985
-149.668
-149.281
-148.81
-148.216
-151.361
-151.36
-151.357
-151.351
-151.338
-151.318
-151.289
-151.252
-151.203
-151.139
-151.059
-150.956
-150.826
-150.662
-150.46
-150.21
-149.903
-149.53
-149.077
-148.505
-151.593
-151.592
-151.589
-151.583
-151.57
-151.55
-151.522
-151.484
-151.435
-151.372
-151.292
-151.19
-151.062
-150.902
-150.703
-150.458
-150.157
-149.79
-149.345
-148.77
-151.833
-151.832
-151.829
-151.823
-151.811
-151.792
-151.764
-151.728
-151.681
-151.621
-151.543
-151.445
-151.32
-151.163
-150.969
-150.728
-150.433
-150.072
-149.634
-149.067
-152.101
-152.1
-152.098
-152.092
-152.08
-152.062
-152.036
-152.001
-151.955
-151.897
-151.821
-151.725
-151.604
-151.451
-151.26
-151.024
-150.734
-150.379
-149.949
-149.391
-152.425
-152.424
-152.421
-152.415
-152.403
-152.385
-152.359
-152.324
-152.278
-152.219
-152.144
-152.048
-151.927
-151.775
-151.586
-151.352
-151.064
-150.711
-150.283
-149.735
-152.769
-152.768
-152.766
-152.76
-152.749
-152.731
-152.705
-152.671
-152.626
-152.569
-152.495
-152.4
-152.281
-152.13
-151.942
-151.709
-151.422
-151.069
-150.639
-150.09
-153.15
-153.149
-153.146
-153.14
-153.129
-153.112
-153.087
-153.053
-153.009
-152.952
-152.879
-152.786
-152.667
-152.518
-152.331
-152.099
-151.812
-151.46
-151.027
-150.455
-153.573
-153.572
-153.57
-153.564
-153.553
-153.536
-153.511
-153.478
-153.434
-153.378
-153.305
-153.212
-153.094
-152.945
-152.758
-152.527
-152.24
-151.889
-151.46
-150.883
-154.046
-154.045
-154.043
-154.037
-154.026
-154.008
-153.983
-153.95
-153.906
-153.849
-153.776
-153.683
-153.564
-153.414
-153.226
-152.992
-152.704
-152.351
-151.924
-151.352
-154.56
-154.559
-154.556
-154.551
-154.54
-154.522
-154.498
-154.464
-154.42
-154.363
-154.289
-154.195
-154.074
-153.922
-153.731
-153.493
-153.2
-152.839
-152.404
-151.845
-155.108
-155.108
-155.106
-155.1
-155.089
-155.072
-155.047
-155.014
-154.97
-154.913
-154.839
-154.743
-154.621
-154.466
-154.27
-154.026
-153.724
-153.35
-152.894
-152.302
-155.743
-155.742
-155.74
-155.734
-155.723
-155.705
-155.679
-155.644
-155.598
-155.538
-155.46
-155.36
-155.231
-155.068
-154.863
-154.607
-154.29
-153.898
-153.418
-152.802
-156.42
-156.419
-156.417
-156.411
-156.4
-156.382
-156.356
-156.321
-156.274
-156.212
-156.132
-156.028
-155.894
-155.724
-155.509
-155.239
-154.905
-154.493
-153.988
-153.34
-157.218
-157.218
-157.215
-157.209
-157.196
-157.175
-157.146
-157.107
-157.054
-156.986
-156.897
-156.783
-156.637
-156.452
-156.219
-155.928
-155.569
-155.129
-154.594
-153.911
-158.065
-158.064
-158.062
-158.055
-158.041
-158.02
-157.988
-157.946
-157.888
-157.814
-157.717
-157.592
-157.432
-157.23
-156.976
-156.659
-156.268
-155.79
-155.213
-154.484
-158.983
-158.982
-158.98
-158.972
-158.956
-158.931
-158.895
-158.847
-158.783
-158.7
-158.591
-158.452
-158.275
-158.05
-157.768
-157.418
-156.987
-156.462
-155.831
-155.045
-159.955
-159.955
-159.951
-159.943
-159.925
-159.896
-159.856
-159.801
-159.729
-159.634
-159.512
-159.354
-159.154
-158.901
-158.585
-158.194
-157.715
-157.133
-156.438
-155.588
-160.975
-160.975
-160.971
-160.961
-160.94
-160.907
-160.86
-160.797
-160.713
-160.604
-160.463
-160.283
-160.055
-159.767
-159.408
-158.966
-158.428
-157.779
-157.009
-156.076
-162.023
-162.022
-162.019
-162.006
-161.982
-161.943
-161.887
-161.813
-161.715
-161.587
-161.423
-161.214
-160.949
-160.617
-160.205
-159.7
-159.088
-158.356
-157.496
-156.458
-163.076
-163.076
-163.071
-163.056
-163.026
-162.979
-162.912
-162.822
-162.705
-162.552
-162.358
-162.11
-161.799
-161.41
-160.931
-160.348
-159.648
-158.82
-157.862
-156.723
-164.106
-164.105
-164.099
-164.08
-164.043
-163.983
-163.9
-163.789
-163.644
-163.457
-163.22
-162.921
-162.547
-162.085
-161.52
-160.84
-160.034
-159.095
-158.028
-156.792
-164.994
-164.993
-164.984
-164.959
-164.91
-164.833
-164.726
-164.584
-164.401
-164.168
-163.873
-163.506
-163.052
-162.498
-161.83
-161.038
-160.117
-159.066
-157.902
-156.603
-165.649
-165.646
-165.633
-165.6
-165.533
-165.43
-165.287
-165.101
-164.862
-164.562
-164.187
-163.726
-163.165
-162.491
-161.696
-160.774
-159.729
-158.57
-157.327
-155.993
-165.458
-165.453
-165.435
-165.388
-165.295
-165.151
-164.956
-164.706
-164.394
-164.01
-163.541
-162.977
-162.308
-161.528
-160.633
-159.627
-158.524
-157.342
-156.122
-154.876
-164.412
-164.404
-164.378
-164.313
-164.182
-163.979
-163.71
-163.372
-162.961
-162.464
-161.873
-161.181
-160.385
-159.491
-158.509
-157.461
-156.372
-155.274
-154.207
-153.204
-158.415
-158.409
-158.384
-158.312
-158.162
-157.927
-157.626
-157.265
-156.851
-156.387
-155.877
-155.329
-154.753
-154.16
-153.564
-152.975
-152.401
-151.85
-151.33
-150.876
-150.174
-150.166
-150.127
-150.038
-149.903
-149.738
-149.558
-149.367
-149.162
-148.942
-148.711
-148.476
-148.25
-148.054
-147.908
-147.829
-147.829
-147.902
-148.026
-148.205
-427.122
-421.617
-413.639
-405.637
-396.941
-386.344
-373.53
-358.439
-341.005
-321.133
-298.916
-274.637
-248.783
-222.083
-195.437
-169.843
-146.234
-125.33
-107.474
-93.1488
-98.4126
-98.6082
-98.8177
-99.065
-99.3172
-99.6602
-100.249
-101.193
-102.459
-104.043
-105.913
-107.947
-109.896
-111.349
-111.824
-110.877
-108.139
-103.397
-96.7586
-89.2228
-137.806
-137.808
-137.815
-137.827
-137.844
-137.782
-137.504
-136.91
-135.889
-134.325
-132.114
-129.174
-125.459
-120.991
-115.875
-110.273
-104.301
-98.0081
-91.3874
-84.8162
-97.8134
-97.8139
-97.8087
-97.7826
-97.7099
-97.5784
-97.429
-97.2717
-97.1083
-96.926
-96.708
-96.4198
-95.996
-95.3352
-94.2965
-92.7173
-90.4286
-87.3208
-83.3416
-78.9059
-92.9977
-92.997
-92.995
-92.9945
-92.9913
-92.9755
-92.9153
-92.7883
-92.5604
-92.1853
-91.5962
-90.7309
-89.5371
-87.9937
-86.105
-83.9018
-81.4085
-78.6283
-75.4892
-72.0527
-77.8494
-77.8399
-77.8291
-77.8129
-77.7878
-77.7484
-77.6909
-77.6164
-77.5189
-77.3873
-77.2025
-76.9342
-76.5338
-75.9383
-75.0754
-73.8864
-72.3292
-70.3944
-68.0806
-65.493
-70.0891
-70.0785
-70.0664
-70.0543
-70.0432
-70.033
-70.0148
-69.9754
-69.9034
-69.7876
-69.6071
-69.335
-68.9316
-68.3526
-67.5494
-66.4871
-65.144
-63.525
-61.6559
-59.4549
-60.9913
-60.9781
-60.9625
-60.9437
-60.9252
-60.9069
-60.8859
-60.855
-60.8116
-60.7501
-60.6633
-60.5384
-60.3519
-60.0702
-59.6439
-59.021
-58.1555
-57.0304
-55.6777
-54.1783
-54.2866
-54.2733
-54.2576
-54.24
-54.2242
-54.2126
-54.2029
-54.1869
-54.1569
-54.1101
-54.04
-53.9379
-53.7873
-53.5651
-53.2366
-52.7633
-52.1067
-51.2498
-50.2168
-48.9482
-47.8586
-47.8444
-47.827
-47.8082
-47.7897
-47.7756
-47.7654
-47.7525
-47.7322
-47.7036
-47.664
-47.6093