/*--------------------------------*- C++ -*----------------------------------*\
| =========                 |                                                 |
| \\      /  F ield         | OpenFOAM: The Open Source CFD Toolbox           |
|  \\    /   O peration     | Version:  2.3.0                                 |
|   \\  /    A nd           | Web:      www.OpenFOAM.org                      |
|    \\/     M anipulation  |                                                 |
\*---------------------------------------------------------------------------*/
FoamFile
{
    version     2.0;
    format      ascii;
    class       surfaceScalarField;
    location    "500";
    object      phi;
}
// * * * * * * * * * * * * * * * * * * * * * * * * * * * * * * * * * * * * * //

dimensions      [0 3 -1 0 0 0 0];

internalField   nonuniform List<scalar> 
56247
(
2.55104e-05
-0.000136019
0.000140705
-3.01816e-05
2.25459e-05
-0.000110073
0.000113037
2.11247e-05
-8.89866e-05
9.04079e-05
2.10867e-05
-7.20034e-05
7.20414e-05
2.2214e-05
-5.83716e-05
5.72442e-05
2.42512e-05
-4.75179e-05
4.54807e-05
2.69463e-05
-3.88924e-05
3.61972e-05
3.00632e-05
-3.20315e-05
2.89146e-05
3.33691e-05
-2.65505e-05
2.32444e-05
3.67195e-05
-2.21701e-05
1.88195e-05
4.00033e-05
-1.86459e-05
1.53619e-05
4.31748e-05
-1.58053e-05
1.26337e-05
4.61938e-05
-1.34972e-05
1.04781e-05
4.90791e-05
-1.16293e-05
8.74384e-06
5.18141e-05
-1.00754e-05
7.3404e-06
5.44357e-05
-8.79052e-06
6.16876e-06
5.69804e-05
-7.75232e-06
5.20773e-06
5.94973e-05
-6.88223e-06
4.36525e-06
6.19557e-05
-6.10617e-06
3.64789e-06
-5.50408e-06
6.45543e-05
2.90546e-06
2.75965e-05
-0.000131698
-3.19174e-05
2.50487e-05
-0.000107525
2.40046e-05
-8.79425e-05
2.41245e-05
-7.21233e-05
2.51757e-05
-5.94228e-05
2.68969e-05
-4.92391e-05
2.90768e-05
-4.10725e-05
3.15627e-05
-3.45174e-05
3.42427e-05
-2.92306e-05
3.70151e-05
-2.49425e-05
3.98031e-05
-2.14339e-05
4.25653e-05
-1.85676e-05
4.52469e-05
-1.61789e-05
4.78409e-05
-1.42234e-05
5.0324e-05
-1.25584e-05
5.27435e-05
-1.12101e-05
5.50264e-05
-1.00352e-05
5.72567e-05
-9.11259e-06
5.94375e-05
-8.28693e-06
-7.60471e-06
6.15381e-05
2.91351e-05
-0.000127582
-3.32511e-05
2.67707e-05
-0.00010516
2.57557e-05
-8.69275e-05
2.58315e-05
-7.2199e-05
2.66875e-05
-6.02787e-05
2.81052e-05
-5.06568e-05
2.98938e-05
-4.28611e-05
3.19002e-05
-3.65239e-05
3.40099e-05
-3.13404e-05
3.61622e-05
-2.70949e-05
3.83242e-05
-2.35959e-05
4.04474e-05
-2.06908e-05
4.25532e-05
-1.82847e-05
4.46319e-05
-1.63022e-05
4.66886e-05
-1.46151e-05
4.8725e-05
-1.32465e-05
5.07812e-05
-1.20914e-05
5.27925e-05
-1.11239e-05
5.48154e-05
-1.03099e-05
-9.65333e-06
5.6864e-05
3.02933e-05
-0.000123605
-3.42704e-05
2.7869e-05
-0.000102736
2.67059e-05
-8.57643e-05
2.64658e-05
-7.19589e-05
2.69326e-05
-6.07455e-05
2.78916e-05
-5.16158e-05
2.91836e-05
-4.41531e-05
3.07037e-05
-3.8044e-05
3.23781e-05
-3.30148e-05
3.41496e-05
-2.88663e-05
3.59855e-05
-2.54318e-05
3.78751e-05
-2.25806e-05
3.97971e-05
-2.02066e-05
4.17334e-05
-1.82386e-05
4.37208e-05
-1.66024e-05
4.57067e-05
-1.52325e-05
4.77045e-05
-1.40891e-05
4.97314e-05
-1.31508e-05
5.17817e-05
-1.23601e-05
-1.17072e-05
5.38355e-05
3.11039e-05
-0.000119597
-3.51116e-05
2.85709e-05
-0.000100203
2.71715e-05
-8.43648e-05
2.66542e-05
-7.14415e-05
2.67881e-05
-6.08794e-05
2.7393e-05
-5.22206e-05
2.83511e-05
-4.51113e-05
2.9551e-05
-3.92439e-05
3.09404e-05
-3.44042e-05
3.2466e-05
-3.03919e-05
3.40955e-05
-2.70612e-05
3.58106e-05
-2.42957e-05
3.75999e-05
-2.19958e-05
3.94417e-05
-2.00805e-05
4.13299e-05
-1.84905e-05
4.32637e-05
-1.71664e-05
4.5239e-05
-1.60644e-05
4.72431e-05
-1.5155e-05
4.92745e-05
-1.43915e-05
-1.37679e-05
5.13351e-05
3.16688e-05
-0.000115474
-3.57918e-05
2.89394e-05
-9.74734e-05
2.72975e-05
-8.27229e-05
2.65014e-05
-7.06454e-05
2.63364e-05
-6.07144e-05
2.66556e-05
-5.25398e-05
2.73381e-05
-4.57938e-05
2.83058e-05
-4.02116e-05
2.949e-05
-3.55884e-05
3.08532e-05
-3.17551e-05
3.23535e-05
-2.85616e-05
3.39746e-05
-2.59168e-05
3.56903e-05
-2.37115e-05
3.74895e-05
-2.18797e-05
3.93533e-05
-2.03543e-05
4.12733e-05
-1.90863e-05
4.32397e-05
-1.80309e-05
4.52462e-05
-1.71614e-05
4.729e-05
-1.64353e-05
-1.58383e-05
4.93604e-05
3.20296e-05
-0.000111244
-3.62604e-05
2.91083e-05
-9.45521e-05
2.72565e-05
-8.08711e-05
2.62134e-05
-6.96023e-05
2.58067e-05
-6.03077e-05
2.58893e-05
-5.26225e-05
2.63721e-05
-4.62766e-05
2.71647e-05
-4.10042e-05
2.8217e-05
-3.66408e-05
2.94586e-05
-3.29967e-05
3.08814e-05
-2.99844e-05
3.24326e-05
-2.7468e-05
3.40998e-05
-2.53788e-05
3.58629e-05
-2.36427e-05
3.77002e-05
-2.21916e-05
3.96076e-05
-2.09936e-05
4.15722e-05
-1.99955e-05
4.35765e-05
-1.91657e-05
4.56213e-05
-1.84802e-05
-1.79157e-05
4.76987e-05
3.22501e-05
-0.000106827
-3.66666e-05
2.91557e-05
-9.14576e-05
2.70737e-05
-7.87891e-05
2.58049e-05
-6.83335e-05
2.52007e-05
-5.97034e-05
2.51169e-05
-5.25386e-05
2.54443e-05
-4.66041e-05
2.6118e-05
-4.16779e-05
2.70564e-05
-3.75791e-05
2.82198e-05
-3.41602e-05
2.95753e-05
-3.13399e-05
3.10777e-05
-2.89703e-05
3.27138e-05
-2.70149e-05
3.44491e-05
-2.5378e-05
3.6278e-05
-2.40207e-05
3.81806e-05
-2.28962e-05
4.01392e-05
-2.19541e-05
4.21438e-05
-2.11702e-05
4.41961e-05
-2.05325e-05
-1.99973e-05
4.62777e-05
3.23185e-05
-0.00010225
-3.68952e-05
2.90549e-05
-8.8194e-05
2.67963e-05
-7.65305e-05
2.53877e-05
-6.6925e-05
2.46222e-05
-5.89379e-05
2.43811e-05
-5.22976e-05
2.45879e-05
-4.68109e-05
2.51508e-05
-4.22408e-05
2.60085e-05
-3.84369e-05
2.71225e-05
-3.52741e-05
2.84173e-05
-3.26348e-05
2.9893e-05
-3.0446e-05
3.15022e-05
-2.86241e-05
3.32213e-05
-2.70971e-05
3.50406e-05
-2.58399e-05
3.69222e-05
-2.47778e-05
3.88776e-05
-2.39095e-05
4.08932e-05
-2.31858e-05
4.29429e-05
-2.25822e-05
-2.20876e-05
4.50333e-05
3.23512e-05
-9.75472e-05
-3.70545e-05
2.89107e-05
-8.47534e-05
2.65152e-05
-7.4135e-05
2.49228e-05
-6.53326e-05
2.4027e-05
-5.80421e-05
2.37072e-05
-5.19778e-05
2.38169e-05
-4.69206e-05
2.42988e-05
-4.27227e-05
2.50906e-05
-3.92287e-05
2.61416e-05
-3.63251e-05
2.74078e-05
-3.39009e-05
2.88424e-05
-3.18806e-05
3.04303e-05
-3.0212e-05
3.21307e-05
-2.87975e-05
3.39415e-05
-2.76508e-05
3.58278e-05
-2.66641e-05
3.77814e-05
-2.58631e-05
3.97853e-05
-2.51898e-05
4.18447e-05
-2.46415e-05
-2.41723e-05
4.39294e-05
3.23038e-05
-9.27168e-05
-3.71342e-05
2.87227e-05
-8.11724e-05
2.61962e-05
-7.16085e-05
2.45014e-05
-6.36378e-05
2.3498e-05
-5.70387e-05
2.305e-05
-5.15298e-05
2.30826e-05
-4.69533e-05
2.35002e-05
-4.31402e-05
2.42583e-05
-3.99868e-05
2.52662e-05
-3.73331e-05
2.65008e-05
-3.51355e-05
2.79085e-05
-3.32883e-05
2.94776e-05
-3.17811e-05
3.11807e-05
-3.05006e-05
3.29517e-05
-2.94218e-05
3.48475e-05
-2.856e-05
3.67928e-05
-2.78084e-05
3.87955e-05
-2.71925e-05
4.08425e-05
-2.66884e-05
-2.62699e-05
4.294e-05
3.22073e-05
-8.77694e-05
-3.71547e-05
2.85326e-05
-7.74976e-05
2.58499e-05
-6.89259e-05
2.40559e-05
-6.18438e-05
2.2965e-05
-5.59478e-05
2.24615e-05
-5.10263e-05
2.243e-05
-4.69219e-05
2.28129e-05
-4.35231e-05
2.35086e-05
-4.06825e-05
2.44831e-05
-3.83075e-05
2.56734e-05
-3.63258e-05
2.70743e-05
-3.46892e-05
2.86264e-05
-3.33332e-05
3.02993e-05
-3.21736e-05
3.20895e-05
-3.12119e-05
3.3948e-05
-3.04185e-05
3.58922e-05
-2.97526e-05
3.79058e-05
-2.92061e-05
3.99513e-05
-2.8734e-05
-2.83668e-05
4.20482e-05
3.20826e-05
-8.27194e-05
-3.71325e-05
2.82838e-05
-7.36989e-05
2.55539e-05
-6.6196e-05
2.36761e-05
-5.9966e-05
2.24898e-05
-5.47615e-05
2.19244e-05
-5.0461e-05
2.18398e-05
-4.68373e-05
2.21608e-05
-4.38441e-05
2.28201e-05
-4.13418e-05
2.37829e-05
-3.92704e-05
2.49643e-05
-3.75072e-05
2.63506e-05
-3.60756e-05
2.78651e-05
-3.48477e-05
2.95244e-05
-3.38329e-05
3.13059e-05
-3.29935e-05
3.31745e-05
-3.2287e-05
3.51085e-05
-3.16867e-05
3.71038e-05
-3.12014e-05
3.91611e-05
-3.07913e-05
-3.04472e-05
4.12415e-05
3.19371e-05
-7.75779e-05
-3.70786e-05
2.80538e-05
-6.98157e-05
2.52478e-05
-6.339e-05
2.33021e-05
-5.80202e-05
2.20774e-05
-5.35369e-05
2.14379e-05
-4.98215e-05
2.13106e-05
-4.671e-05
2.16142e-05
-4.41476e-05
2.2241e-05
-4.19686e-05
2.31595e-05
-4.01889e-05
2.43175e-05
-3.86652e-05
2.56641e-05
-3.74222e-05
2.7165e-05
-3.63487e-05
2.88321e-05
-3.54999e-05
3.05843e-05
-3.47457e-05
3.24414e-05
-3.41441e-05
3.43927e-05
-3.3638e-05
3.63802e-05
-3.31888e-05
3.84178e-05
-3.28289e-05
-3.25405e-05
4.05111e-05
3.17864e-05
-7.23595e-05
-3.70048e-05
2.78305e-05
-6.58598e-05
2.49355e-05
-6.0495e-05
2.2933e-05
-5.60178e-05
2.1659e-05
-5.22629e-05
2.09994e-05
-4.91619e-05
2.08567e-05
-4.65673e-05
2.10848e-05
-4.43757e-05
2.17053e-05
-4.25892e-05
2.25774e-05
-4.10609e-05
2.37203e-05
-3.98081e-05
2.50698e-05
-3.87717e-05
2.65747e-05
-3.78536e-05
2.82093e-05
-3.71345e-05
2.99715e-05
-3.65079e-05
3.18221e-05
-3.59946e-05
3.3724e-05
-3.554e-05
3.5728e-05
-3.51928e-05
3.77786e-05
-3.48795e-05
-3.46124e-05
3.98504e-05
3.16054e-05
-6.70516e-05
-3.69134e-05
2.76418e-05
-6.18961e-05
2.46924e-05
-5.75456e-05
2.26425e-05
-5.3968e-05
2.13269e-05
-5.09473e-05
2.06074e-05
-4.84425e-05
2.04098e-05
-4.63697e-05
2.06573e-05
-4.46232e-05
2.12332e-05
-4.31651e-05
2.21045e-05
-4.19323e-05
2.32279e-05
-4.09315e-05
2.45414e-05
-4.00852e-05
2.60332e-05
-3.93454e-05
2.76575e-05
-3.87588e-05
2.94086e-05
-3.8259e-05
3.123e-05
-3.7816e-05
3.31669e-05
-3.74769e-05
3.51418e-05
-3.71677e-05
3.71683e-05
-3.6906e-05
-3.66984e-05
3.92543e-05
3.14806e-05
-6.17129e-05
-3.68193e-05
2.74153e-05
-5.78308e-05
2.44477e-05
-5.4578e-05
2.23332e-05
-5.18535e-05
2.09829e-05
-4.9597e-05
2.02561e-05
-4.77157e-05
2.00356e-05
-4.61492e-05
2.02338e-05
-4.48214e-05
2.0789e-05
-4.37203e-05
2.16671e-05
-4.28104e-05
2.27748e-05
-4.20393e-05
2.40734e-05
-4.13838e-05
2.5553e-05
-4.0825e-05
2.71636e-05
-4.03694e-05
2.89095e-05
-4.00049e-05
3.07402e-05
-3.96467e-05
3.26476e-05
-3.93843e-05
3.46191e-05
-3.91391e-05
3.66579e-05
-3.89448e-05
-3.87591e-05
3.87187e-05
3.13355e-05
-5.63293e-05
-3.67191e-05
2.72292e-05
-5.37246e-05
2.41991e-05
-5.15479e-05
2.21033e-05
-4.97577e-05
2.07255e-05
-4.82192e-05
1.99755e-05
-4.69657e-05
1.97023e-05
-4.5876e-05
1.99078e-05
-4.5027e-05
2.04446e-05
-4.42571e-05
2.12825e-05
-4.36483e-05
2.23529e-05
-4.31096e-05
2.36632e-05
-4.26942e-05
2.51295e-05
-4.22912e-05
2.67291e-05
-4.1969e-05
2.84395e-05
-4.17154e-05
3.02905e-05
-4.14977e-05
3.21658e-05
-4.12596e-05
3.41503e-05
-4.11236e-05
3.6162e-05
-4.09565e-05
-4.08374e-05
3.82403e-05
3.11962e-05
-5.09124e-05
-3.6613e-05
2.70577e-05
-4.95862e-05
2.40244e-05
-4.85146e-05
2.18503e-05
-4.75837e-05
2.04495e-05
-4.68183e-05
1.96771e-05
-4.61934e-05
1.9439e-05
-4.56379e-05
1.95754e-05
-4.51634e-05
2.01209e-05
-4.48026e-05
2.09469e-05
-4.44742e-05
2.20277e-05
-4.41905e-05
2.33013e-05
-4.39678e-05
2.4759e-05
-4.37488e-05
2.63757e-05
-4.35857e-05
2.80741e-05
-4.34138e-05
2.98662e-05
-4.32898e-05
3.17849e-05
-4.31783e-05
3.37387e-05
-4.30774e-05
3.57453e-05
-4.29631e-05
-4.29087e-05
3.78166e-05
3.10705e-05
-3.65143e-05
-4.54686e-05
2.69331e-05
-4.54488e-05
2.38487e-05
-4.54302e-05
2.16808e-05
-4.54158e-05
2.02589e-05
-4.53963e-05
1.94443e-05
-4.53788e-05
1.9164e-05
-4.53577e-05
1.93348e-05
-4.53341e-05
1.98441e-05
-4.53119e-05
2.06572e-05
-4.52873e-05
2.17255e-05
-4.52588e-05
2.29887e-05
-4.5231e-05
2.4439e-05
-4.51992e-05
2.6017e-05
-4.51636e-05
2.77352e-05
-4.5132e-05
2.95422e-05
-4.50968e-05
3.14287e-05
-4.50648e-05
3.33785e-05
-4.50273e-05
3.54026e-05
-4.49871e-05
3.74454e-05
-4.49515e-05
6.66009e-05
-5.61486e-06
3.56834e-06
6.84232e-05
-6.52544e-06
4.70307e-06
7.00974e-05
-7.58782e-06
5.91379e-06
7.16732e-05
-8.95346e-06
7.37761e-06
7.30838e-05
-1.05847e-05
9.17415e-06
7.4321e-05
-1.26166e-05
1.13794e-05
7.53392e-05
-1.51033e-05
1.40851e-05
7.60672e-05
-1.81246e-05
1.73966e-05
7.64528e-05
-2.18211e-05
2.14356e-05
7.64252e-05
-2.63087e-05
2.63362e-05
7.59184e-05
-3.17418e-05
3.22485e-05
7.48643e-05
-3.82861e-05
3.93403e-05
7.32128e-05
-4.61432e-05
4.77946e-05
7.09295e-05
-5.55396e-05
5.78229e-05
6.79999e-05
-6.67331e-05
6.96627e-05
6.4402e-05
-8.00171e-05
8.3615e-05
6.00874e-05
-9.57238e-05
0.000100039
5.4959e-05
-0.000114248
0.000119377
4.8859e-05
-0.000136067
0.000142167
-0.000161783
0.000169036
4.16069e-05
6.3597e-05
-7.67373e-06
6.5617e-05
-8.54548e-06
6.75665e-05
-9.53722e-06
6.93784e-05
-1.07654e-05
7.10977e-05
-1.23039e-05
7.2608e-05
-1.4127e-05
7.3904e-05
-1.63993e-05
7.49123e-05
-1.91329e-05
7.559e-05
-2.24987e-05
7.58587e-05
-2.65774e-05
7.56722e-05
-3.15553e-05
7.49656e-05
-3.75795e-05
7.36862e-05
-4.48638e-05
7.17684e-05
-5.36219e-05
6.91533e-05
-6.41179e-05
6.57654e-05
-7.66292e-05
6.15252e-05
-9.14837e-05
5.63427e-05
-0.000109066
5.00927e-05
-0.000129817
-0.000154349
4.26579e-05
5.89025e-05
-9.71216e-06
6.0861e-05
-1.0504e-05
6.28097e-05
-1.14859e-05
6.4709e-05
-1.26648e-05
6.64926e-05
-1.40874e-05
6.81782e-05
-1.58127e-05
6.96827e-05
-1.79037e-05
7.10016e-05
-2.04519e-05
7.20651e-05
-2.35622e-05
7.28014e-05
-2.73138e-05
7.31376e-05
-3.18915e-05
7.29905e-05
-3.74324e-05
7.22645e-05
-4.41378e-05
7.08756e-05
-5.22329e-05
6.87242e-05
-6.19665e-05
6.5724e-05
-7.36291e-05
6.17919e-05
-8.75515e-05
5.682e-05
-0.000104094
5.07026e-05
-0.0001237
-0.000146916
4.32698e-05
5.58811e-05
-1.17576e-05
5.78972e-05
-1.25202e-05
5.986e-05
-1.34487e-05
6.17516e-05
-1.45564e-05
6.3551e-05
-1.58869e-05
6.52554e-05
-1.7517e-05
6.68234e-05
-1.94717e-05
6.8211e-05
-2.18394e-05
6.93665e-05
-2.47177e-05
7.02515e-05
-2.81988e-05
7.07785e-05
-3.24184e-05
7.08746e-05
-3.75285e-05
7.04522e-05
-4.37154e-05
6.94058e-05
-5.11865e-05
6.76333e-05
-6.01941e-05
6.50166e-05
-7.10124e-05
6.14324e-05
-8.39674e-05
5.67669e-05
-9.94281e-05
5.0885e-05
-0.000117818
-0.000139663
4.36319e-05
5.33887e-05
-1.38112e-05
5.5398e-05
-1.45295e-05
5.73535e-05
-1.54042e-05
5.92422e-05
-1.64452e-05
6.10611e-05
-1.77056e-05
6.27672e-05
-1.92232e-05
6.43504e-05
-2.10549e-05
6.57748e-05
-2.32639e-05
6.69937e-05
-2.59366e-05
6.79617e-05
-2.91668e-05
6.86142e-05
-3.3071e-05
6.8876e-05
-3.77903e-05
6.8656e-05
-4.34953e-05
6.78603e-05
-5.03908e-05
6.63604e-05
-5.86942e-05
6.4044e-05
-6.8696e-05
6.07717e-05
-8.06951e-05
5.6404e-05
-9.50604e-05
5.07906e-05
-0.000112205
-0.000132611
4.37393e-05
5.14239e-05
-1.58748e-05
5.34451e-05
-1.65506e-05
5.54078e-05
-1.7367e-05
5.73047e-05
-1.8342e-05
5.912e-05
-1.9521e-05
6.08337e-05
-2.09369e-05
6.24232e-05
-2.26444e-05
6.38598e-05
-2.47005e-05
6.50992e-05
-2.71759e-05
6.61016e-05
-3.01692e-05
6.68092e-05
-3.37785e-05
6.71533e-05
-3.81344e-05
6.705e-05
-4.33921e-05
6.64003e-05
-4.97411e-05
6.50972e-05
-5.73911e-05
6.30034e-05
-6.66021e-05
5.99716e-05
-7.76633e-05
5.58673e-05
-9.09561e-05
5.04924e-05
-0.00010683
-0.00012579
4.36714e-05
4.97655e-05
-1.79415e-05
5.17927e-05
-1.85778e-05
5.37571e-05
-1.93313e-05
5.56579e-05
-2.02429e-05
5.74697e-05
-2.13328e-05
5.91855e-05
-2.26528e-05
6.07761e-05
-2.42349e-05
6.22109e-05
-2.61353e-05
6.34647e-05
-2.84297e-05
6.44828e-05
-3.11873e-05
6.52226e-05
-3.45183e-05
6.5615e-05
-3.85268e-05
6.55916e-05
-4.33687e-05
6.50441e-05
-4.91936e-05
6.38664e-05
-5.62134e-05
6.19393e-05
-6.4675e-05
5.91224e-05
-7.48464e-05
5.52245e-05
-8.70581e-05
5.00748e-05
-0.00010168
-0.000119192
4.34759e-05
4.83566e-05
-2.00204e-05
5.03831e-05
-2.06043e-05
5.23489e-05
-2.12971e-05
5.42482e-05
-2.21422e-05
5.60704e-05
-2.3155e-05
5.7781e-05
-2.43633e-05
5.93662e-05
-2.58201e-05
6.08004e-05
-2.75694e-05
6.20568e-05
-2.96861e-05
6.30867e-05
-3.22172e-05
6.38448e-05
-3.52763e-05
6.42735e-05
-3.89555e-05
6.42877e-05
-4.33828e-05
6.38105e-05
-4.87164e-05
6.27321e-05
-5.51349e-05
6.09134e-05
-6.28564e-05
5.82374e-05
-7.21703e-05
5.4512e-05
-8.33327e-05
4.95722e-05
-9.67403e-05
-0.000112802
4.3183e-05
4.71165e-05
-2.21037e-05
4.9145e-05
-2.26327e-05
5.11126e-05
-2.32648e-05
5.30114e-05
-2.40409e-05
5.48253e-05
-2.49689e-05
5.65402e-05
-2.60782e-05
5.81261e-05
-2.74061e-05
5.95623e-05
-2.90056e-05
6.08149e-05
-3.09387e-05
6.18598e-05
-3.32621e-05
6.26175e-05
-3.6034e-05
6.30554e-05
-3.93933e-05
6.31007e-05
-4.34281e-05
6.26653e-05
-4.8281e-05
6.16559e-05
-5.41254e-05
5.99525e-05
-6.1153e-05
5.73782e-05
-6.95959e-05
5.38118e-05
-7.97663e-05
4.9022e-05
-9.19504e-05
-0.00010659
4.28092e-05
4.60076e-05
-2.41819e-05
4.80455e-05
-2.46707e-05
5.00225e-05
-2.52417e-05
5.19223e-05
-2.59408e-05
5.37261e-05
-2.67727e-05
5.54296e-05
-2.77816e-05
5.70217e-05
-2.89982e-05
5.84569e-05
-3.04408e-05
5.97189e-05
-3.22007e-05
6.07471e-05
-3.42903e-05
6.15279e-05
-3.68148e-05
6.19788e-05
-3.98443e-05
6.20442e-05
-4.34935e-05
6.16418e-05
-4.78786e-05
6.06823e-05
-5.31658e-05
5.90214e-05
-5.94921e-05
5.65643e-05
-6.71389e-05
5.30978e-05
-7.62997e-05
4.84448e-05
-8.72974e-05
-0.000100535
4.23897e-05
4.50309e-05
-2.62727e-05
4.70576e-05
-2.66975e-05
4.90256e-05
-2.72097e-05
5.09202e-05
-2.78354e-05
5.27324e-05
-2.85849e-05
5.44447e-05
-2.9494e-05
5.60261e-05
-3.05796e-05
5.746e-05
-3.18746e-05
5.87097e-05
-3.34503e-05
5.97488e-05
-3.53295e-05
6.05228e-05
-3.75887e-05
6.09807e-05
-4.03022e-05
6.10718e-05
-4.35846e-05
6.0697e-05
-4.75038e-05
5.97556e-05
-5.22244e-05
5.81742e-05
-5.79106e-05
5.57621e-05
-6.47268e-05
5.23812e-05
-7.29188e-05
4.78748e-05
-8.2791e-05
-9.45977e-05
4.1938e-05
4.41226e-05
-2.83471e-05
4.61648e-05
-2.87397e-05
4.81289e-05
-2.91738e-05
5.0041e-05
-2.97476e-05
5.18518e-05
-3.03956e-05
5.35483e-05
-3.11904e-05
5.51246e-05
-3.21559e-05
5.65571e-05
-3.33071e-05
5.78022e-05
-3.46955e-05
5.88441e-05
-3.63714e-05
5.9622e-05
-3.83666e-05
6.01003e-05
-4.07804e-05
6.0189e-05
-4.36733e-05
5.9828e-05
-4.71428e-05
5.89324e-05
-5.13288e-05
5.73606e-05
-5.63388e-05
5.50142e-05
-6.23805e-05
5.17273e-05
-6.96318e-05
4.72805e-05
-7.83442e-05
-8.87902e-05
4.1473e-05
4.33321e-05
-3.04377e-05
4.53551e-05
-3.07627e-05
4.73356e-05
-3.11543e-05
4.92108e-05
-3.16227e-05
5.1022e-05
-3.22068e-05
5.27313e-05
-3.28997e-05
5.43047e-05
-3.37293e-05
5.57339e-05
-3.47364e-05
5.69972e-05
-3.59587e-05
5.80211e-05
-3.73953e-05
5.87984e-05
-3.9144e-05
5.92664e-05
-4.12485e-05
5.93645e-05
-4.37713e-05
5.90339e-05
-4.68122e-05
5.81431e-05
-5.04381e-05
5.66351e-05
-5.48307e-05
5.43329e-05
-6.00783e-05
5.1086e-05
-6.63849e-05
4.67155e-05
-7.39737e-05
-8.3082e-05
4.10072e-05
4.25797e-05
-3.25063e-05
4.46199e-05
-3.28029e-05
4.65797e-05
-3.31141e-05
4.84718e-05
-3.35147e-05
5.02772e-05
-3.40123e-05
5.19856e-05
-3.46081e-05
5.35563e-05
-3.53e-05
5.49883e-05
-3.61684e-05
5.62323e-05
-3.72027e-05
5.72699e-05
-3.84329e-05
5.80503e-05
-3.99244e-05
5.85391e-05
-4.17372e-05
5.86411e-05
-4.38733e-05
5.83093e-05
-4.64804e-05
5.745e-05
-4.95788e-05
5.59296e-05
-5.33103e-05
5.36634e-05
-5.78121e-05
5.04829e-05
-6.32044e-05
4.61731e-05
-6.96639e-05
-7.74501e-05
4.05413e-05
4.19366e-05
-3.45924e-05
4.3953e-05
-3.48193e-05
4.59111e-05
-3.50723e-05
4.78182e-05
-3.54218e-05
4.96037e-05
-3.57978e-05
5.1311e-05
-3.63153e-05
5.28791e-05
-3.68681e-05
5.43081e-05
-3.75973e-05
5.55482e-05
-3.84428e-05
5.65901e-05
-3.94748e-05
5.73906e-05
-4.07248e-05
5.78436e-05
-4.21902e-05
5.79711e-05
-4.40009e-05
5.76243e-05
-4.61336e-05
5.67804e-05
-4.87349e-05
5.53177e-05
-5.18476e-05
5.30569e-05
-5.55513e-05
4.98919e-05
-6.00393e-05
4.56495e-05
-6.54215e-05
-7.18811e-05
4.00805e-05
4.13141e-05
-3.66523e-05
4.33493e-05
-3.68545e-05
4.53229e-05
-3.70459e-05
4.7187e-05
-3.72859e-05
4.90117e-05
-3.76225e-05
5.06741e-05
-3.79777e-05
5.22625e-05
-3.84565e-05
5.36904e-05
-3.90252e-05
5.49512e-05
-3.97036e-05
5.59712e-05
-4.04948e-05
5.67522e-05
-4.15059e-05
5.7247e-05
-4.26849e-05
5.73598e-05
-4.41137e-05
5.70376e-05
-4.58114e-05
5.62044e-05
-4.79016e-05
5.47174e-05
-5.03606e-05
5.25165e-05
-5.33504e-05
4.93815e-05
-5.69043e-05
4.5158e-05
-6.1198e-05
-6.63629e-05
3.96398e-05
4.07975e-05
-3.87311e-05
4.28033e-05
-3.88602e-05
4.47565e-05
-3.8999e-05
4.66595e-05
-3.91889e-05
4.8436e-05
-3.93991e-05
5.01402e-05
-3.96819e-05
5.17048e-05
-4.00211e-05
5.31316e-05
-4.04521e-05
5.43714e-05
-4.09433e-05
5.54109e-05
-4.15343e-05
5.61922e-05
-4.22872e-05
5.66688e-05
-4.31615e-05
5.67821e-05
-4.4227e-05
5.64897e-05
-4.5519e-05
5.56414e-05
-4.70533e-05
5.41829e-05
-4.89021e-05
5.19797e-05
-5.11472e-05
4.88863e-05
-5.38109e-05
4.46886e-05
-5.70004e-05
-6.08858e-05
3.92116e-05
4.03152e-05
-4.08061e-05
4.23177e-05
-4.08628e-05
4.42626e-05
-4.09439e-05
4.61408e-05
-4.10671e-05
4.79397e-05
-4.11979e-05
4.96405e-05
-4.13827e-05
5.12254e-05
-4.1606e-05
5.26265e-05
-4.18531e-05
5.38645e-05
-4.21813e-05
5.49282e-05
-4.2598e-05
5.56872e-05
-4.30462e-05
5.61864e-05
-4.36607e-05
5.63034e-05
-4.4344e-05
5.59904e-05
-4.5206e-05
5.51707e-05
-4.62336e-05
5.37226e-05
-4.7454e-05
5.15074e-05
-4.8932e-05
4.8407e-05
-5.07105e-05
4.42564e-05
-5.28498e-05
-5.54343e-05
3.88049e-05
3.9861e-05
-4.28505e-05
4.18846e-05
-4.28863e-05
4.38248e-05
-4.28841e-05
4.57011e-05
-4.29434e-05
4.7495e-05
-4.29919e-05
4.91923e-05
-4.30799e-05
5.07546e-05
-4.31684e-05
5.2178e-05
-4.32765e-05
5.34141e-05
-4.34173e-05
5.44538e-05
-4.36378e-05
5.52585e-05
-4.38509e-05
5.57117e-05
-4.41138e-05
5.58527e-05
-4.4485e-05
5.55443e-05
-4.48976e-05
5.4705e-05
-4.53943e-05
5.32635e-05
-4.60125e-05
5.10791e-05
-4.67476e-05
4.80158e-05
-4.76472e-05
4.38815e-05
-4.87155e-05
-4.99832e-05
3.84305e-05
3.95112e-05
-4.49163e-05
4.15047e-05
-4.48798e-05
4.34669e-05
-4.48464e-05
4.53351e-05
-4.48116e-05
4.71245e-05
-4.47813e-05
4.87971e-05
-4.47525e-05
5.03548e-05
-4.47261e-05
5.17776e-05
-4.46992e-05
5.3035e-05
-4.46748e-05
5.40468e-05
-4.46495e-05
5.48288e-05
-4.46329e-05
5.53301e-05
-4.46152e-05
5.5446e-05
-4.46009e-05
5.51411e-05
-4.45926e-05
5.43286e-05
-4.45818e-05
5.28902e-05
-4.45741e-05
5.07143e-05
-4.45717e-05
4.76361e-05
-4.45689e-05
4.34931e-05
-4.45726e-05
3.80862e-05
-4.45763e-05
9.09311e-07
0.000193919
-0.00020133
6.50139e-06
6.63406e-06
0.000160974
-0.000166699
1.08306e-05
0.000133342
-0.000137538
1.37376e-05
0.000110094
-0.000113001
1.55609e-05
9.06199e-05
-9.24434e-05
1.65025e-05
7.43024e-05
-7.52439e-05
1.66487e-05
6.08133e-05
-6.09598e-05
1.62445e-05
4.96149e-05
-4.92107e-05
1.53646e-05
4.04443e-05
-3.95646e-05
1.41626e-05
3.28817e-05
-3.16798e-05
1.27228e-05
2.671e-05
-2.52705e-05
1.11403e-05
2.16383e-05
-2.0056e-05
9.4664e-06
1.74769e-05
-1.58033e-05
7.76493e-06
1.40074e-05
-1.23062e-05
6.08667e-06
1.11147e-05
-9.43678e-06
4.41968e-06
8.63475e-06
-6.96805e-06
2.76411e-06
6.49318e-06
-4.83785e-06
1.07175e-06
4.74101e-06
-3.04899e-06
-6.85505e-07
3.57209e-06
-1.81499e-06
3.17586e-06
-2.56787e-06
-1.29359e-06
7.88132e-07
0.000186546
6.58544e-06
6.39055e-06
0.000155372
1.05028e-05
0.000129229
1.33489e-05
0.000107248
1.51211e-05
8.88477e-05
1.59645e-05
7.34589e-05
1.61228e-05
6.06548e-05
1.56901e-05
5.00476e-05
1.48391e-05
4.1295e-05
1.36336e-05
3.40871e-05
1.22268e-05
2.81166e-05
1.06333e-05
2.32317e-05
8.95751e-06
1.91526e-05
7.24546e-06
1.57194e-05
5.52947e-06
1.28307e-05
3.82246e-06
1.03418e-05
2.07326e-06
8.24242e-06
1.74083e-07
6.64031e-06
-1.89522e-06
5.64145e-06
5.40853e-06
-4.12772e-06
6.36331e-07
0.000179228
6.68139e-06
6.17792e-06
0.00014983
1.02542e-05
0.000125153
1.30256e-05
0.000104477
1.47329e-05
8.71403e-05
1.55626e-05
7.26293e-05
1.56868e-05
6.05306e-05
1.52149e-05
5.05196e-05
1.42962e-05
4.22135e-05
1.30734e-05
3.531e-05
1.15659e-05
2.9624e-05
9.92528e-06
2.48724e-05
8.20234e-06
2.08754e-05
6.40872e-06
1.7513e-05
4.61971e-06
1.46196e-05
2.8245e-06
1.21369e-05
9.59396e-07
1.01074e-05
-1.04229e-06
8.64189e-06
-3.27608e-06
7.87517e-06
7.83131e-06
-5.69896e-06
4.86239e-07
0.000171956
6.786e-06
5.99942e-06
0.000144317
9.97977e-06
0.000121173
1.27264e-05
0.00010173
1.44108e-05
8.54559e-05
1.51962e-05
7.18438e-05
1.52338e-05
6.0493e-05
1.47406e-05
5.10128e-05
1.38018e-05
4.31521e-05
1.25017e-05
3.66101e-05
1.09974e-05
3.11282e-05
9.30477e-06
2.6565e-05
7.52996e-06
2.26501e-05
5.71061e-06
1.93324e-05
3.8804e-06
1.64498e-05
1.99598e-06
1.40214e-05
4.13797e-08
1.20619e-05
-2.06177e-06
1.0745e-05
-4.41078e-06
1.02241e-05
1.03147e-05
-6.89428e-06
3.3967e-07
0.000164725
6.89154e-06
5.78774e-06
0.000138869
9.75374e-06
0.000117207
1.24692e-05
9.90148e-05
1.41073e-05
8.38176e-05
1.48768e-05
7.10746e-05
1.49463e-05
6.04232e-05
1.44232e-05
5.15361e-05
1.34541e-05
4.41211e-05
1.21603e-05
3.79039e-05
1.06173e-05
3.26711e-05
8.91573e-06
2.82665e-05
7.10267e-06
2.44632e-05
5.23114e-06
2.12039e-05
3.31833e-06
1.83626e-05
1.3695e-06
1.59703e-05
-6.72838e-07
1.41043e-05
-2.88476e-06
1.29571e-05
-5.28371e-06
1.26231e-05
1.28471e-05
-7.81585e-06
2.03255e-07
0.000157533
6.98958e-06
5.62452e-06
0.000133448
9.59655e-06
0.000113235
1.2283e-05
9.63284e-05
1.39256e-05
8.21751e-05
1.47059e-05
7.02944e-05
1.47663e-05
6.03629e-05
1.42727e-05
5.20297e-05
1.33245e-05
4.50694e-05
1.20197e-05
3.92087e-05
1.04538e-05
3.42369e-05
8.69842e-06
3.00219e-05
6.83871e-06
2.63229e-05
4.90854e-06
2.3134e-05
2.924e-06
2.03472e-05
9.03899e-07
1.79904e-05
-1.24553e-06
1.62539e-05
-3.56968e-06
1.52813e-05
-6.05166e-06
1.51052e-05
1.53993e-05
-8.60392e-06
5.44e-08
0.000150376
7.10204e-06
5.51167e-06
0.00012799
9.43877e-06
0.000109308
1.2162e-05
9.36052e-05
1.38519e-05
8.04853e-05
1.46407e-05
6.95056e-05
1.47543e-05
6.02494e-05
1.42646e-05
5.25194e-05
1.33099e-05
4.60241e-05
1.20047e-05
4.05139e-05
1.04199e-05
3.58218e-05
8.64232e-06
3.17994e-05
6.71536e-06
2.82499e-05
4.69184e-06
2.51576e-05
2.61218e-06
2.24269e-05
4.49067e-07
2.01535e-05
-1.7898e-06
1.84928e-05
-4.18323e-06
1.76747e-05
-6.72755e-06
1.76495e-05
1.79896e-05
-9.31787e-06
-3.91491e-08
0.000143217
7.1987e-06
5.37194e-06
0.000122579
9.35806e-06
0.000105321
1.20864e-05
9.08769e-05
1.37965e-05
7.87751e-05
1.46848e-05
6.86173e-05
1.48168e-05
6.01174e-05
1.44138e-05
5.29223e-05
1.35415e-05
4.68964e-05
1.22849e-05
4.17703e-05
1.07052e-05
3.74014e-05
8.94006e-06
3.35644e-05
6.94714e-06
3.02426e-05
4.83863e-06
2.72661e-05
2.61852e-06
2.46469e-05
2.99868e-07
2.24722e-05
-2.16972e-06
2.09623e-05
-4.79124e-06
2.02963e-05
-7.51631e-06
2.03744e-05
2.07025e-05
-1.02292e-05
-1.47989e-07
0.000136067
7.29824e-06
5.2649e-06
0.000117166
9.24504e-06
0.000101341
1.20301e-05
8.80916e-05
1.37926e-05
7.7013e-05
1.47284e-05
6.76812e-05
1.49908e-05
5.98554e-05
1.46632e-05
5.32494e-05
1.38741e-05
4.76859e-05
1.27261e-05
4.29178e-05
1.13024e-05
3.8825e-05
9.61428e-06
3.52522e-05
7.72719e-06
3.21293e-05
5.60795e-06
2.93852e-05
3.19358e-06
2.70608e-05
4.52281e-07
2.52136e-05
-2.59892e-06
2.40131e-05
-5.74849e-06
2.3446e-05
-8.74279e-06
2.33685e-05
2.34626e-05
-1.15028e-05
-2.64343e-07
0.000128916
7.41494e-06
5.17447e-06
0.000111727
9.16797e-06
9.73478e-05
1.19572e-05
8.53024e-05
1.37832e-05
7.5187e-05
1.47513e-05
6.67132e-05
1.50799e-05
5.95268e-05
1.48344e-05
5.3495e-05
1.41721e-05
4.83479e-05
1.3137e-05
4.3953e-05
1.18326e-05
4.01292e-05
1.02596e-05
3.6825e-05
8.35958e-06
3.40292e-05
6.07504e-06
3.16695e-05
3.37179e-06
2.9764e-05
2.43571e-07
2.83417e-05
-3.09151e-06
2.73483e-05
-6.41429e-06
2.67687e-05
-9.50467e-06
2.6459e-05
2.63057e-05
-1.23478e-05
-3.8874e-07
0.000121786
7.5186e-06
5.02138e-06
0.000106317
9.01693e-06
9.33522e-05
1.18383e-05
8.24813e-05
1.36568e-05
7.33683e-05
1.46937e-05
6.56767e-05
1.50184e-05
5.92018e-05
1.48387e-05
5.3675e-05
1.42541e-05
4.89323e-05
1.33114e-05
4.48958e-05
1.19814e-05
4.14591e-05
1.0262e-05
3.85445e-05
8.15694e-06
3.61342e-05
5.66254e-06
3.41639e-05
2.82473e-06
3.26017e-05
-2.37999e-07
3.14043e-05
-3.40529e-06
3.05155e-05
-6.54078e-06
2.99041e-05
-9.53736e-06
2.94556e-05
2.91938e-05
-1.24255e-05
-5.28981e-07
0.000114664
7.65086e-06
4.8691e-06
0.000100919
8.8787e-06
8.93428e-05
1.1672e-05
7.96881e-05
1.34964e-05
7.15442e-05
1.45378e-05
6.46354e-05
1.49546e-05
5.87852e-05
1.48137e-05
5.38159e-05
1.4196e-05
4.95502e-05
1.31436e-05
4.59483e-05
1.16613e-05
4.29415e-05
9.79333e-06
4.04124e-05
7.56567e-06
3.83619e-05
5.04725e-06
3.66823e-05
2.30432e-06
3.53446e-05
-5.67431e-07
3.42761e-05
-3.51286e-06
3.34609e-05
-6.45009e-06
3.28413e-05
-9.39389e-06
3.23993e-05
3.20589e-05
-1.2259e-05
-7.11185e-07
0.000107584
7.79154e-06
4.7188e-06
9.54895e-05
8.67258e-06
8.53891e-05
1.14935e-05
7.68673e-05
1.33679e-05
6.96699e-05
1.4425e-05
6.35783e-05
1.48344e-05
5.8376e-05
1.46757e-05
5.39746e-05
1.39848e-05
5.02413e-05
1.28107e-05
4.71223e-05
1.12187e-05
4.45335e-05
9.26587e-06
4.23652e-05
7.03815e-06
4.05896e-05
4.58512e-06
3.91353e-05
1.97839e-06
3.79513e-05
-7.72831e-07
3.70272e-05
-3.58287e-06
3.62709e-05
-6.43335e-06
3.56918e-05
-9.273e-06
3.52389e-05
3.49231e-05
-1.21372e-05
-8.57546e-07
0.000100498
7.944e-06
4.51617e-06
9.01159e-05
8.50059e-06
8.14049e-05
1.13486e-05
7.40194e-05
1.32281e-05
6.77905e-05
1.43052e-05
6.25013e-05
1.46887e-05
5.79925e-05
1.44272e-05
5.42362e-05
1.36272e-05
5.10413e-05
1.23837e-05
4.83658e-05
1.07555e-05
4.61618e-05
8.8259e-06
4.42947e-05
6.63685e-06
4.27786e-05
4.25062e-06
4.15215e-05
1.70692e-06
4.0495e-05
-9.36999e-07
3.96711e-05
-3.64692e-06
3.89808e-05
-6.43402e-06
3.84789e-05
-9.25081e-06
3.80557e-05
3.7767e-05
-1.20947e-05
-1.02416e-06
9.34232e-05
8.09914e-06
4.35872e-06
8.47331e-05
8.39018e-06
7.73735e-05
1.12328e-05
7.11768e-05
1.30998e-05
6.59236e-05
1.41526e-05
6.14485e-05
1.44263e-05
5.77189e-05
1.4123e-05
5.45395e-05
1.3297e-05
5.18673e-05
1.20076e-05
4.96552e-05
1.04012e-05
4.77682e-05
8.4731e-06
4.62228e-05
6.32415e-06
4.49276e-05
3.98946e-06
4.38562e-05
1.50217e-06
4.29823e-05
-1.06481e-06
4.22381e-05
-3.76604e-06
4.1682e-05
-6.51259e-06
4.12254e-05
-9.30027e-06
4.08433e-05
4.05735e-05
-1.21068e-05
-1.16775e-06
8.63344e-05
8.25664e-06
4.25961e-06
7.93058e-05
8.25464e-06
7.33785e-05
1.11029e-05
6.83286e-05
1.29503e-05
6.40761e-05
1.39056e-05
6.04932e-05
1.41754e-05
5.7449e-05
1.38151e-05
5.48997e-05
1.29496e-05
5.27328e-05
1.1703e-05
5.09018e-05
1.0068e-05
4.94032e-05
8.1875e-06
4.81032e-05
6.073e-06
4.70421e-05
3.77729e-06
4.61518e-05
1.35124e-06
4.54083e-05
-1.21928e-06
4.48086e-05
-3.86589e-06
4.43285e-05
-6.56347e-06
4.3923e-05
-9.33046e-06
4.36103e-05
4.33878e-05
-1.21448e-05
-1.2892e-06
7.92174e-05
8.4062e-06
4.12256e-06
7.3894e-05
8.14608e-06
6.9355e-05
1.09352e-05
6.55394e-05
1.2718e-05
6.22934e-05
1.36587e-05
5.95524e-05
1.38804e-05
5.72274e-05
1.35296e-05
5.52505e-05
1.26861e-05
5.35763e-05
1.14068e-05
5.2181e-05
9.83467e-06
5.09753e-05
7.95813e-06
4.99798e-05
5.87279e-06
4.91274e-05
3.60771e-06
4.84169e-05
1.19065e-06
4.78254e-05
-1.33065e-06
4.73299e-05
-3.95255e-06
4.69504e-05
-6.62938e-06
4.65998e-05