/*--------------------------------*- C++ -*----------------------------------*\
| =========                 |                                                 |
| \\      /  F ield         | OpenFOAM: The Open Source CFD Toolbox           |
|  \\    /   O peration     | Version:  2.3.0                                 |
|   \\  /    A nd           | Web:      www.OpenFOAM.org                      |
|    \\/     M anipulation  |                                                 |
\*---------------------------------------------------------------------------*/
FoamFile
{
    version     2.0;
    format      ascii;
    class       volVectorField;
    location    "500";
    object      U;
}
// * * * * * * * * * * * * * * * * * * * * * * * * * * * * * * * * * * * * * //

dimensions      [0 1 -1 0 0 0 0];

internalField   nonuniform List<vector> 
28256
(
(17.2805 2.95563 -3.82826e-20)
(16.7948 2.65603 -1.41638e-19)
(16.334 2.24559 2.32693e-19)
(15.9036 1.75744 -1.20795e-19)
(15.5301 1.19429 3.0914e-19)
(15.2367 0.569869 0)
(15.0338 -0.0882822 2.22882e-19)
(14.9248 -0.751294 -2.65673e-19)
(14.9084 -1.39205 0)
(14.973 -1.98481 0)
(15.112 -2.51276 5.13494e-20)
(15.3167 -2.96606 0)
(15.5804 -3.34137 0)
(15.8939 -3.64052 1.41963e-22)
(16.2498 -3.86906 7.85456e-21)
(16.6344 -4.03091 -6.90465e-20)
(17.0425 -4.13389 5.85298e-20)
(17.4642 -4.18239 7.78834e-20)
(17.9097 -4.19567 7.95799e-21)
(18.3691 -4.19012 -7.38782e-20)
(17.5132 2.68315 2.54779e-20)
(17.1655 2.32469 -3.11167e-20)
(16.8731 1.88846 -1.56406e-19)
(16.642 1.40819 1.37565e-19)
(16.4883 0.901174 -2.86571e-20)
(16.42 0.387618 0)
(16.4359 -0.113961 0)
(16.5288 -0.589688 1.41069e-19)
(16.6859 -1.03126 -2.214e-19)
(16.8925 -1.43203 1.00082e-19)
(17.1343 -1.78761 0)
(17.3982 -2.09458 -1.78151e-22)
(17.6733 -2.35166 -3.02395e-20)
(17.9495 -2.55933 4.06581e-20)
(18.2201 -2.72039 -1.26055e-20)
(18.4785 -2.84058 1.7324e-20)
(18.7232 -2.92231 1.27006e-20)
(18.9491 -2.97252 -2.18981e-20)
(19.157 -2.99604 -3.70707e-20)
(19.348 -2.99705 3.47075e-20)
(17.7502 2.48666 1.59742e-20)
(17.5122 2.12212 -1.96882e-20)
(17.3342 1.70173 2.86075e-20)
(17.2167 1.25721 3.84019e-20)
(17.1643 0.804409 -5.11313e-20)
(17.1749 0.361141 3.46557e-21)
(17.2415 -0.0560856 0)
(17.3541 -0.434859 5.91358e-21)
(17.501 -0.767637 0)
(17.6715 -1.05083 7.4488e-20)
(17.8563 -1.28458 -7.72768e-20)
(18.0473 -1.47207 6.71218e-20)
(18.2379 -1.61979 1.0443e-20)
(18.4236 -1.73123 -5.53315e-20)
(18.6017 -1.8134 -4.57554e-21)
(18.7701 -1.87095 0)
(18.9282 -1.90866 -1.18519e-21)
(19.0765 -1.9284 6.01995e-20)
(19.215 -1.93583 -5.53806e-20)
(19.3448 -1.93331 -7.08765e-22)
(17.9831 2.35453 0)
(17.8275 2.01765 0)
(17.7312 1.64256 -4.64183e-20)
(17.6876 1.26393 2.48691e-20)
(17.6958 0.896536 -2.485e-20)
(17.7499 0.552513 2.1683e-20)
(17.8409 0.241061 0)
(17.9588 -0.0333802 -8.41445e-21)
(18.0935 -0.270634 -4.5343e-20)
(18.2373 -0.470928 5.08964e-20)
(18.3837 -0.636712 0)
(18.5278 -0.772547 1.69732e-21)
(18.6669 -0.882725 0)
(18.7992 -0.969326 3.88126e-22)
(18.9238 -1.03725 3.32523e-21)
(19.0413 -1.08832 3.40283e-21)
(19.1516 -1.12584 0)
(19.2553 -1.15219 0)
(19.3537 -1.1691 -1.47192e-21)
(19.4478 -1.17751 0)
(18.2037 2.28379 0)
(18.1059 1.97797 4.45762e-20)
(18.0622 1.65231 -1.04668e-19)
(18.0601 1.33486 5.95796e-20)
(18.0947 1.03513 6.33544e-20)
(18.1587 0.760504 -3.35473e-20)
(18.2442 0.516108 -6.43954e-20)
(18.3435 0.303206 2.08604e-19)
(18.4503 0.121445 -1.26223e-19)
(18.5596 -0.031394 -1.81927e-20)
(18.6679 -0.158179 0)
(18.7729 -0.262048 -6.96541e-21)
(18.8734 -0.346953 0)
(18.9691 -0.415697 5.42994e-22)
(19.0595 -0.470507 -6.10889e-20)
(19.145 -0.513315 5.35147e-20)
(19.2266 -0.54717 3.37671e-21)
(19.3044 -0.57222 1.60134e-21)
(19.3792 -0.58975 1.45243e-21)
(19.4518 -0.601479 0)
(18.402 2.24069 -1.23144e-19)
(18.3472 1.98066 -5.82854e-20)
(18.3366 1.70673 1.14999e-19)
(18.3571 1.44628 -5.50448e-20)
(18.4026 1.2059 1.26123e-20)
(18.4667 0.989666 -3.83921e-20)
(18.543 0.799045 0)
(18.626 0.634067 1.99033e-20)
(18.7115 0.492849 5.5074e-20)
(18.7965 0.372504 2.02377e-20)
(18.8792 0.271085 -6.07519e-21)
(18.9585 0.186276 -6.48236e-20)
(19.0338 0.114992 -7.24261e-20)
(19.1052 0.0549363 -5.08042e-21)
(19.1732 0.00496718 1.11123e-19)
(19.2378 -0.0360726 -1.09262e-19)
(19.2998 -0.0699047 -3.57001e-21)
(19.3597 -0.0963758 4.78412e-20)
(19.418 -0.117785 0)
(19.4754 -0.133432 0)
(18.5795 2.24129 1.82802e-19)
(18.5528 2.01422 -2.17055e-19)
(18.5612 1.78579 7.77531e-20)
(18.5918 1.5728 0)
(18.6386 1.37883 0)
(18.6963 1.20563 8.48849e-20)
(18.7603 1.05328 3.96866e-20)
(18.8269 0.92078 -7.46983e-20)
(18.8936 0.806405 9.67882e-20)
(18.9586 0.707781 -5.40877e-20)
(19.0212 0.623713 -7.28906e-22)
(19.0808 0.551322 0)
(19.1375 0.489366 7.86406e-21)
(19.1913 0.435942 6.29001e-20)
(19.2428 0.390238 -5.94337e-20)
(19.2922 0.351366 5.66866e-20)
(19.34 0.318516 -3.45909e-21)
(19.3865 0.290993 -5.17513e-20)
(19.4323 0.268344 -5.21668e-20)
(19.4779 0.250292 4.78225e-20)
(18.7308 2.25588 0)
(18.7252 2.06446 3.74136e-19)
(18.7437 1.87712 -1.51893e-19)
(18.7775 1.70429 0)
(18.8215 1.54805 8.47652e-20)
(18.8715 1.40891 -3.19686e-20)
(18.9244 1.28618 -2.09755e-19)
(18.9777 1.17863 1.1854e-19)
(19.03 1.08439 0)
(19.0804 1.00246 -1.81316e-20)
(19.1284 0.930833 8.72294e-21)
(19.174 0.867946 -6.87114e-20)
(19.2172 0.812999 6.47989e-20)
(19.2584 0.764378 0)
(19.2978 0.721907 3.67254e-21)
(19.3358 0.684502 -4.92334e-20)
(19.3728 0.651637 5.41101e-20)
(19.4091 0.623425 0)
(19.4452 0.599487 5.23458e-20)
(19.4813 0.579015 -4.8187e-20)
(18.8602 2.29109 0)
(18.8679 2.12734 -1.51466e-19)
(18.891 1.974 0)
(18.9241 1.8338 0)
(18.9631 1.70715 8.85162e-20)
(19.0052 1.59421 -1.26749e-19)
(19.0481 1.49407 8.20838e-20)
(19.0903 1.40525 4.01136e-20)
(19.1311 1.32651 -5.85735e-20)
(19.1699 1.25696 7.40114e-20)
(19.2066 1.19492 -1.80728e-20)
(19.2413 1.13974 -8.61835e-21)
(19.2741 1.09021 0)
(19.3054 1.04573 6.23367e-20)
(19.3354 1.00589 -5.97965e-20)
(19.3644 0.969963 4.99276e-20)
(19.3928 0.937979 -9.94008e-20)
(19.4209 0.909631 5.30494e-20)
(19.449 0.884556 -5.3663e-20)
(19.4773 0.862885 5.26751e-20)
(18.9717 2.3295 0)
(18.9859 2.19559 0)
(19.0098 2.07105 8.59414e-20)
(19.0399 1.95732 -8.53811e-20)
(19.0733 1.85462 -1.69816e-19)
(19.108 1.76256 1.26925e-19)
(19.1424 1.68015 0)
(19.1757 1.60636 -9.97236e-20)
(19.2074 1.54016 1.34432e-19)
(19.2373 1.4805 6.27144e-22)
(19.2654 1.42657 -5.2873e-20)
(19.2917 1.37766 8.3606e-21)
(19.3166 1.33291 -7.28698e-20)
(19.3402 1.29209 6.22759e-20)
(19.3628 1.25468 5.95709e-20)
(19.3847 1.22042 -4.60021e-22)
(19.4062 1.18938 -7.4965e-21)
(19.4275 1.16103 -5.38518e-20)
(19.4489 1.13553 3.22839e-21)
(19.4706 1.11275 3.177e-21)
(19.0656 2.37465 -7.73983e-20)
(19.082 2.26592 8.59439e-20)
(19.1046 2.16497 0)
(19.1309 2.07289 8.77339e-20)
(19.1588 1.98946 0)
(19.1868 1.91397 1.50552e-21)
(19.2141 1.84583 0)
(19.2401 1.78418 0)
(19.2646 1.72806 1.89608e-20)
(19.2873 1.67662 7.2458e-20)
(19.3085 1.62942 -6.94414e-20)
(19.3282 1.58599 0)
(19.3467 1.54561 7.99874e-21)
(19.3641 1.50805 6.98343e-20)
(19.3807 1.4731 -5.26958e-20)
(19.3968 1.44071 -5.04684e-20)
(19.4125 1.41049 4.94578e-20)
(19.4281 1.38278 6.82897e-21)
(19.4439 1.35721 -5.24622e-20)
(19.4601 1.33399 5.18807e-20)
(19.1423 2.4232 -2.01233e-21)
(19.1594 2.33547 -8.43202e-20)
(19.1797 2.25402 0)
(19.202 2.17969 -8.31251e-20)
(19.2247 2.11183 8.37754e-20)
(19.2471 2.04995 -1.20899e-19)
(19.2684 1.99349 -3.97773e-20)
(19.2885 1.94177 0)
(19.307 1.89388 -1.82219e-20)
(19.3241 1.8495 -1.78272e-20)
(19.3397 1.80821 0)
(19.3542 1.76971 -6.59882e-20)
(19.3675 1.73321 1.11921e-19)
(19.3799 1.69866 -6.9901e-20)
(19.3916 1.66642 -6.74028e-20)
(19.4028 1.63582 1.095e-19)
(19.4138 1.60695 -1.06396e-19)
(19.4246 1.57999 4.86822e-20)
(19.4356 1.55475 6.02458e-20)
(19.447 1.53141 -5.95367e-20)
(19.2065 2.47389 -8.23205e-20)
(19.2216 2.40275 1.65232e-19)
(19.2389 2.33735 4.31985e-20)
(19.2571 2.27732 -2.07926e-19)
(19.2752 2.22217 3.99144e-20)
(19.2927 2.1714 3.98073e-20)
(19.309 2.12449 -7.73977e-20)
(19.3241 2.08098 7.40106e-20)
(19.3378 2.04022 0)
(19.3503 2.0019 1.72794e-20)
(19.3614 1.96576 0)
(19.3715 1.93153 -8.17293e-20)
(19.3806 1.8986 1.43113e-19)
(19.3888 1.86728 -6.20788e-20)
(19.3965 1.83743 -7.51529e-20)
(19.4037 1.80879 5.91216e-20)
(19.4106 1.7815 7.19906e-21)
(19.4174 1.75548 -5.58045e-20)
(19.4244 1.73088 4.83782e-20)
(19.4316 1.70766 0)
(19.2577 2.52406 0)
(19.2709 2.46677 -1.34145e-21)
(19.285 2.41434 -8.24001e-20)
(19.2994 2.36584 7.97401e-20)
(19.3134 2.32104 -3.99374e-20)
(19.3266 2.27937 3.84569e-20)
(19.3388 2.24046 5.56122e-20)
(19.3497 2.20385 0)
(19.3595 2.16917 8.7673e-20)
(19.368 2.13608 -8.52565e-20)
(19.3755 2.10445 0)
(19.382 2.07406 -4.83787e-20)
(19.3875 2.04472 6.32835e-20)
(19.3924 2.01646 0)
(19.3966 1.98896 1.50761e-20)
(19.4004 1.9624 5.88509e-20)
(19.4039 1.93665 6.72382e-21)
(19.4074 1.91183 -5.71993e-20)
(19.4109 1.88812 4.84686e-20)
(19.4147 1.86549 -5.51241e-20)
(19.2986 2.571 1.65989e-19)
(19.3096 2.52592 -1.2173e-19)
(19.3206 2.4843 3.87932e-20)
(19.3315 2.44538 3.86918e-20)
(19.3418 2.40906 0)
(19.3514 2.37494 0)
(19.3599 2.34265 1.38636e-22)
(19.3674 2.31185 0)
(19.3738 2.28243 -1.70507e-20)
(19.3792 2.25397 1.66501e-20)
(19.3835 2.22651 -8.14281e-20)
(19.387 2.19966 3.26131e-22)
(19.3896 2.17357 6.29503e-20)
(19.3915 2.14806 -1.54092e-20)
(19.3929 2.12299 -6.02991e-20)
(19.3938 2.09848 1.04176e-19)
(19.3945 2.07442 -4.9282e-22)
(19.3951 2.05108 -5.78252e-20)
(19.3958 2.02841 7.06864e-21)
(19.3966 2.00649 0)
(19.3313 2.6161 4.20445e-20)
(19.3394 2.58047 3.856e-20)
(19.3474 2.54742 -7.7524e-20)
(19.3551 2.51633 0)
(19.3623 2.48696 7.34617e-20)
(19.3687 2.45909 -7.15991e-20)
(19.3742 2.43233 5.23516e-20)
(19.3788 2.40658 -1.48978e-22)
(19.3824 2.38159 -6.69273e-20)
(19.385 2.35726 0)
(19.3867 2.33347 8.02983e-20)
(19.3876 2.30984 -1.42454e-19)
(19.3878 2.28668 3.86892e-22)
(19.3872 2.26384 7.69938e-20)
(19.3862 2.24112 -6.03753e-20)
(19.3848 2.21864 7.49269e-20)
(19.3831 2.19655 4.39959e-20)
(19.3813 2.17465 -5.84859e-20)
(19.3795 2.15319 5.71366e-20)
(19.3779 2.13232 -5.69315e-20)
(19.3563 2.65719 4.61242e-22)
(19.3617 2.62961 1.12627e-19)
(19.367 2.60371 3.70995e-20)
(19.372 2.57902 -7.23356e-20)
(19.3764 2.55544 0)
(19.3801 2.53277 1.03608e-19)
(19.383 2.51073 -6.77351e-20)
(19.3851 2.48922 0)
(19.3863 2.46813 -1.63303e-20)
(19.3867 2.44736 -4.80573e-20)
(19.3862 2.42671 1.26955e-19)
(19.3849 2.4061 -1.25383e-19)
(19.383 2.38568 4.66339e-20)
(19.3804 2.36534 0)
(19.3773 2.34485 -4.52303e-20)
(19.3739 2.32444 4.52289e-20)
(19.3702 2.30411 0)
(19.3664 2.28381 0)
(19.3626 2.26379 1.45588e-20)
(19.359 2.244 0)
(19.3741 2.69456 -7.71519e-20)
(19.3777 2.67344 -2.95184e-22)
(19.3807 2.65343 -7.06789e-20)
(19.3833 2.63403 0)
(19.3854 2.61517 6.79029e-20)
(19.3869 2.59679 -1.1688e-19)
(19.3876 2.57874 8.19843e-20)
(19.3876 2.56094 -1.64218e-20)
(19.3869 2.54322 -6.41092e-20)
(19.3853 2.52553 -1.57963e-20)
(19.383 2.50774 -1.56465e-20)
(19.3799 2.48987 -6.18934e-20)
(19.3761 2.47189 3.11513e-20)
(19.3718 2.4539 4.0553e-22)
(19.3671 2.43561 4.29756e-22)
(19.3621 2.41714 1.54542e-20)
(19.3567 2.39856 4.4949e-22)
(19.3512 2.37996 5.94078e-20)
(19.3458 2.36128 4.02567e-23)
(19.3405 2.34281 -5.78847e-20)
(19.387 2.72911 1.4848e-19)
(19.3884 2.71271 3.41001e-20)
(19.3893 2.69716 3.35585e-20)
(19.39 2.68188 0)
(19.3901 2.66684 0)
(19.3895 2.65194 8.02212e-20)
(19.3884 2.63718 -1.43182e-19)
(19.3866 2.62246 1.60365e-20)
(19.3841 2.60766 7.82214e-20)
(19.381 2.59262 -1.5613e-20)
(19.3771 2.57737 -8.90201e-23)
(19.3724 2.56182 1.5352e-20)
(19.3671 2.54605 -1.52795e-20)
(19.3613 2.53014 1.53289e-20)
(19.3552 2.51392 -6.01419e-20)
(19.3488 2.49734 1.20113e-19)
(19.3422 2.48049 -7.49791e-20)
(19.3354 2.46336 0)
(19.3286 2.44615 -1.47264e-20)
(19.3219 2.429 1.47448e-20)
(19.397 2.75956 9.83233e-20)
(19.396 2.74692 -1.40224e-22)
(19.3951 2.73503 -6.28231e-20)
(19.3944 2.72333 0)
(19.393 2.71162 6.13502e-20)
(19.391 2.69956 -6.12349e-20)
(19.3885 2.68764 -7.58147e-20)
(19.3855 2.67559 6.05545e-20)
(19.382 2.66346 4.50616e-20)
(19.3776 2.65096 -5.98428e-20)
(19.3725 2.63803 7.47736e-20)
(19.3666 2.62453 -1.35183e-19)
(19.3601 2.61077 -1.46014e-20)
(19.3532 2.59686 4.51795e-20)
(19.346 2.58278 -2.94697e-20)
(19.3385 2.56827 5.89951e-20)
(19.3307 2.55284 -8.86953e-20)
(19.3227 2.53691 5.88581e-20)
(19.3146 2.52096 0)
(19.307 2.50511 -1.43368e-20)
(18.8243 -4.10811 0)
(19.2365 -3.93779 -1.45458e-21)
(19.6532 -3.70386 -4.58821e-19)
(20.072 -3.42355 5.08468e-19)
(20.4931 -3.10794 -6.50345e-19)
(20.9044 -2.75339 7.136e-19)
(21.2964 -2.36405 0)
(21.6578 -1.9445 9.53098e-19)
(21.9753 -1.4988 1.93991e-20)
(22.2364 -1.0352 -9.36418e-20)
(22.4288 -0.561589 -7.15746e-20)
(22.5445 -0.086837 -1.50447e-18)
(22.5793 0.380223 -1.5645e-19)
(22.536 0.828186 1.34258e-18)
(22.4231 1.2445 -1.33319e-18)
(22.2533 1.61654 -1.17126e-18)
(22.0414 1.93376 2.13954e-18)
(21.8002 2.19212 -1.91198e-18)
(21.542 2.39075 -7.83375e-19)
(21.2567 2.56701 1.17651e-18)
(19.5292 -2.98069 5.02064e-20)
(19.716 -2.94527 -5.39308e-20)
(19.9182 -2.88512 -7.95739e-20)
(20.1359 -2.79718 9.02117e-20)
(20.365 -2.67718 1.79335e-21)
(20.6023 -2.5186 0)
(20.8433 -2.3196 0)
(21.0813 -2.07579 3.13627e-20)
(21.3097 -1.78659 0)
(21.5194 -1.45286 6.75646e-19)
(21.7021 -1.07936 -7.25407e-19)
(21.8491 -0.673173 1.17937e-19)
(21.9534 -0.245227 2.23784e-19)
(22.0084 0.191097 0)
(22.009 0.621257 -2.08267e-19)
(21.9524 1.03071 4.50338e-19)
(21.839 1.40656 -8.13916e-19)
(21.6734 1.73908 6.06163e-20)
(21.4661 2.01931 8.81896e-19)
(21.2203 2.27123 1.12439e-18)
(19.4709 -1.92179 0)
(19.6028 -1.89898 0)
(19.7457 -1.86526 -1.08766e-21)
(19.9007 -1.81648 0)
(20.0672 -1.74886 1.96907e-19)
(20.2447 -1.66121 6.60764e-21)
(20.4315 -1.5485 -5.09486e-19)
(20.6249 -1.40846 2.79731e-19)
(20.8199 -1.2373 -3.41007e-19)
(21.0112 -1.03268 -2.12647e-20)
(21.1921 -0.794052 4.66789e-19)
(21.3527 -0.521492 0)
(21.4848 -0.218168 -6.8037e-19)
(21.5793 0.11036 -1.07458e-20)
(21.6278 0.455765 9.89973e-19)
(21.6258 0.807196 -2.94568e-19)
(21.5708 1.15249 1.25857e-18)
(21.4641 1.47921 -2.22003e-20)
(21.3111 1.77478 -1.29701e-18)
(21.119 2.04676 -6.35108e-19)
(19.54 -1.17865 4.47185e-20)
(19.6366 -1.17324 -4.6709e-20)
(19.7407 -1.15862 -5.33499e-20)
(19.8524 -1.13343 5.71742e-20)
(19.9724 -1.09616 -2.3872e-21)
(20.1005 -1.04522 1.5939e-19)
(20.2356 -0.976709 -1.72971e-19)
(20.3778 -0.889142 6.23631e-21)
(20.5239 -0.778628 -1.72971e-20)
(20.6712 -0.642714 -2.93869e-19)
(20.8157 -0.479077 3.43926e-19)
(20.9523 -0.286229 0)
(21.0751 -0.0641227 4.83736e-19)
(21.1758 0.185311 -9.45673e-20)
(21.2473 0.458028 -1.25931e-19)
(21.2821 0.747303 -5.12056e-19)
(21.2739 1.04438 -7.49136e-19)
(21.2195 1.33888 9.68521e-19)
(21.1192 1.61964 -2.41962e-19)
(20.9775 1.88348 1.89147e-19)
(19.524 -0.606929 0)
(19.5999 -0.606898 1.50639e-21)
(19.6812 -0.600517 0)
(19.768 -0.58576 -6.13382e-20)
(19.8616 -0.563575 6.54689e-20)
(19.9611 -0.530266 4.40995e-21)
(20.0665 -0.485141 4.58084e-21)
(20.1781 -0.426356 -1.83646e-19)
(20.2944 -0.351493 1.81281e-19)
(20.4131 -0.257705 -2.30221e-19)
(20.5327 -0.143339 2.50267e-19)
(20.6496 -0.0063047 0)
(20.7586 0.15515 -4.15656e-19)
(20.855 0.341058 8.46397e-20)
(20.9318 0.550502 3.84708e-19)
(20.9821 0.780316 -4.14354e-19)
(20.9995 1.02538 1.05772e-18)
(20.9792 1.2785 -6.05666e-19)
(20.9186 1.53134 -4.02431e-19)
(20.821 1.77785 3.27408e-19)
(19.5328 -0.14386 4.52296e-20)
(19.5932 -0.150116 -4.80062e-20)
(19.6577 -0.150603 -5.18868e-20)
(19.7264 -0.145365 5.44905e-20)
(19.7998 -0.133034 -1.14921e-19)
(19.8779 -0.11301 1.17992e-19)
(19.9604 -0.0836936 -8.37718e-21)
(20.0476 -0.043997 1.48335e-19)
(20.1387 0.00790695 1.75863e-20)
(20.2322 0.0743432 -1.90099e-19)
(20.3279 0.156304 -2.11294e-19)
(20.4226 0.256423 2.55555e-19)
(20.5135 0.376222 6.61338e-20)
(20.5972 0.516678 2.26114e-19)
(20.6686 0.678247 1.07267e-20)
(20.7222 0.85997 -6.73807e-19)
(20.7521 1.0592 3.45968e-19)
(20.753 1.27152 1.83983e-19)
(20.7208 1.49145 1.5747e-19)
(20.655 1.71189 -1.61917e-19)
(19.524 0.236428 -4.68242e-20)
(19.5725 0.226794 4.49123e-20)
(19.6243 0.221166 5.52014e-20)
(19.6793 0.221099 -1.02167e-19)
(19.7378 0.226272 5.34687e-20)
(19.8 0.237908 0)
(19.8659 0.256664 3.8892e-21)
(19.9354 0.28354 -1.42584e-19)
(20.0078 0.320319 1.43124e-19)
(20.0827 0.367987 1.03584e-20)
(20.1597 0.427955 2.14757e-20)
(20.237 0.501917 -2.50588e-19)
(20.3125 0.591657 1.86115e-19)
(20.3839 0.698276 6.36581e-20)
(20.4474 0.823 -3.3192e-19)
(20.4987 0.965871 4.98156e-19)
(20.5334 1.12596 -4.36888e-19)
(20.5465 1.30115 -3.05484e-19)
(20.5332 1.488 1.3603e-19)
(20.4917 1.68013 -1.37039e-19)
(19.5182 0.562724 4.69214e-20)
(19.557 0.549552 -4.17848e-20)
(19.5983 0.540276 -3.05038e-21)
(19.6423 0.53528 0)
(19.689 0.53501 0)
(19.7385 0.539743 1.0875e-19)
(19.7909 0.550492 -1.13709e-19)
(19.846 0.56808 1.30909e-19)
(19.9035 0.593439 -1.30008e-19)
(19.9631 0.627426 0)
(20.0244 0.671321 -1.79005e-19)
(20.0864 0.726384 1.6735e-20)
(20.1479 0.793969 1.63177e-19)
(20.2069 0.875417 0)
(20.2609 0.971957 5.90859e-20)
(20.3068 1.08421 3.11009e-19)
(20.3414 1.21217 -2.4452e-19)
(20.3604 1.35494 -2.68701e-19)
(20.3591 1.51104 3.89714e-19)
(20.3364 1.67457 -7.60682e-22)
(19.5064 0.844409 -3.03754e-21)
(19.5371 0.828853 -6.05151e-21)
(19.5697 0.816872 5.49866e-20)
(19.6044 0.808471 -9.37311e-20)
(19.6416 0.803702 5.13848e-20)
(19.6809 0.803406 0)
(19.7225 0.808154 6.88638e-21)
(19.7659 0.818834 -1.17153e-19)
(19.8115 0.835613 2.47562e-19)
(19.8591 0.859399 -1.14971e-19)
(19.908 0.891184 0)
(19.9576 0.93214 0)
(20.0073 0.983049 -1.28583e-19)
(20.0556 1.04529 2.2559e-19)
(20.1008 1.1199 0)
(20.1407 1.20779 -2.6942e-19)
(20.1727 1.30947 3.41855e-19)
(20.1937 1.42477 1.15216e-19)
(20.1997 1.55356 -2.48456e-19)
(20.1896 1.69057 0)
(19.4931 1.09283 9.28941e-21)
(19.5169 1.07551 9.26105e-21)
(19.5423 1.06109 -6.19852e-21)
(19.5694 1.04977 -5.63646e-20)
(19.5983 1.04171 5.12861e-20)
(19.6291 1.03748 1.04715e-19)
(19.6616 1.03752 -1.21571e-19)
(19.6958 1.04237 -1.20009e-19)
(19.7317 1.05252 1.17737e-19)
(19.7693 1.06818 -1.4169e-19)
(19.8078 1.09078 1.15501e-19)
(19.8471 1.1207 -1.61733e-19)
(19.8866 1.15884 1.32296e-19)
(19.9255 1.20618 -1.61832e-21)
(19.9626 1.26363 4.3869e-20)
(19.9963 1.33209 2.43419e-19)
(20.0246 1.41235 -2.00955e-19)
(20.0453 1.50464 -4.29687e-19)
(20.055 1.60951 2.13145e-19)
(20.0532 1.72238 3.13497e-19)
(19.4769 1.31316 3.77096e-20)
(19.4947 1.29443 -6.34153e-20)
(19.514 1.27818 5.66137e-20)
(19.5346 1.26467 -1.01684e-19)
(19.5566 1.2541 5.80504e-20)
(19.5802 1.24683 1.04562e-19)
(19.6053 1.24295 -1.00616e-19)
(19.6318 1.24332 1.10664e-19)
(19.6596 1.24805 -1.14454e-19)
(19.6889 1.25763 -1.2047e-19)
(19.719 1.27277 2.52699e-19)
(19.7499 1.29407 -1.32483e-19)
(19.7812 1.32212 1.43756e-19)
(19.8122 1.35762 -3.57355e-20)
(19.8422 1.40145 -2.02944e-19)
(19.87 1.45439 1.76293e-19)
(19.8944 1.51715 -1.82864e-19)
(19.9134 1.59027 9.94104e-20)
(19.9245 1.67461 -1.02757e-19)
(19.9279 1.76572 -2.05218e-19)
(19.4589 1.50988 -4.50644e-20)
(19.4718 1.49035 5.17748e-20)
(19.4857 1.47284 -6.40801e-21)
(19.5007 1.4577 -5.14018e-20)
(19.5171 1.44491 5.22728e-20)
(19.5346 1.43506 1.04909e-19)
(19.5534 1.42828 -3.17046e-22)
(19.5735 1.42502 -1.02488e-19)
(19.5946 1.4255 -1.26619e-19)
(19.617 1.43009 1.30722e-19)
(19.6402 1.4393 3.0375e-20)
(19.6641 1.4537 -1.12002e-19)
(19.6885 1.47354 1.33566e-19)
(19.7129 1.49961 -1.43507e-19)
(19.7367 1.53255 1.87502e-19)
(19.7593 1.57289 1.22492e-19)
(19.7796 1.62138 -1.68387e-19)
(19.7963 1.67856 8.81662e-20)
(19.8075 1.74541 0)
(19.814 1.81738 -9.37742e-20)
(19.4394 1.68611 4.6085e-20)
(19.4479 1.666 -4.64266e-20)
(19.4574 1.64771 6.5942e-21)
(19.4677 1.63125 0)
(19.4792 1.61698 -6.54531e-21)
(19.4917 1.60518 1.05614e-19)
(19.5053 1.59603 -9.38969e-20)
(19.5199 1.58989 1.08659e-19)
(19.5356 1.58691 -8.34046e-20)
(19.5523 1.58739 -1.28533e-19)
(19.5697 1.59193 1.02891e-19)
(19.5879 1.60065 1.07611e-19)
(19.6066 1.61397 -1.27493e-19)
(19.6255 1.63241 0)
(19.6442 1.65641 1.42361e-19)
(19.6621 1.6866 -2.61963e-19)
(19.6787 1.72336 1.56971e-19)
(19.693 1.7673 -4.32121e-20)
(19.7036 1.81933 8.67156e-20)
(19.7118 1.87494 -1.70428e-19)
(19.4189 1.84405 -4.70822e-20)
(19.4238 1.82391 4.72648e-20)
(19.4294 1.80501 5.99796e-20)
(19.4358 1.78794 -1.06618e-19)
(19.4432 1.77262 -5.26777e-20)
(19.4515 1.75922 2.13986e-19)
(19.4607 1.74817 -1.21324e-19)
(19.4709 1.73976 -1.36453e-20)
(19.482 1.7339 9.26011e-23)
(19.494 1.73117 1.26602e-19)
(19.5067 1.73183 -1.15256e-19)
(19.5201 1.73597 -1.16029e-23)
(19.5341 1.74396 1.23774e-19)
(19.5484 1.75618 -1.50554e-20)
(19.5628 1.77301 -1.67759e-19)
(19.5768 1.79487 1.41989e-19)
(19.5901 1.8221 -1.473e-19)
(19.602 1.85516 -1.57347e-19)
(19.6113 1.89494 2.41983e-19)
(19.62 1.93689 -1.60663e-19)
(19.3979 1.98562 1.38432e-20)
(19.3996 1.96557 -6.91699e-21)
(19.4021 1.94666 -6.76956e-20)
(19.4052 1.92917 5.44181e-20)
(19.4091 1.91308 1.35797e-20)
(19.414 1.89865 1.35654e-20)
(19.4196 1.88616 1.36062e-20)
(19.4261 1.87595 1.35553e-20)
(19.4335 1.86791 -1.23508e-19)
(19.4416 1.86254 -1.36977e-20)
(19.4505 1.85997 1.27836e-19)
(19.46 1.86032 1.45042e-20)
(19.47 1.86405 0)
(19.4805 1.87121 1.41589e-23)
(19.4912 1.88224 1.2875e-19)
(19.5018 1.89732 -1.33381e-19)
(19.5121 1.91682 -3.48642e-20)
(19.5216 1.94106 -1.83876e-19)
(19.5296 1.97077 3.75292e-20)
(19.5379 2.0011 2.28327e-19)
(19.3767 2.11211 -6.97862e-20)
(19.3759 2.09258 4.12779e-22)
(19.3757 2.07383 4.16815e-20)
(19.3761 2.05614 0)
(19.3773 2.03977 -1.2271e-19)
(19.3792 2.02461 9.59588e-20)
(19.3819 2.01125 -1.3569e-20)
(19.3854 1.99956 1.09067e-19)
(19.3897 1.98979 -1.10119e-19)
(19.3947 1.98228 -1.10654e-19)
(19.4003 1.97713 2.10257e-19)
(19.4067 1.97451 -2.28115e-19)
(19.4135 1.97464 1.31024e-19)
(19.4208 1.9778 1.494e-20)
(19.4284 1.9841 -3.08353e-20)
(19.4362 1.99365 1.6002e-19)
(19.4439 2.00692 -1.32138e-19)
(19.4512 2.02397 0)
(19.4575 2.04535 -3.55294e-20)
(19.4647 2.0663 7.21108e-20)
(19.3557 2.22477 5.6665e-20)
(19.3528 2.20588 -4.26386e-20)
(19.3505 2.18753 -1.00348e-22)
(19.3487 2.17011 1.39711e-20)
(19.3476 2.15355 -1.10297e-19)
(19.3472 2.13821 1.10491e-19)
(19.3475 2.12415 0)
(19.3486 2.11145 1.37684e-20)
(19.3504 2.10031 -1.37751e-20)
(19.3528 2.0912 -1.23817e-19)
(19.3559 2.08405 1.11126e-19)
(19.3596 2.07898 1.12103e-19)
(19.3637 2.0763 -2.56054e-19)
(19.3684 2.07615 1.30575e-19)
(19.3734 2.07855 1.48669e-19)
(19.3787 2.08381 -3.02754e-20)
(19.3841 2.09201 -9.44027e-20)
(19.3895 2.10333 1.63701e-19)
(19.3944 2.11822 -6.75591e-20)
(19.4001 2.13378 -1.4364e-19)
(19.3355 2.32455 1.15296e-19)
(19.3309 2.30652 -1.14362e-19)
(19.3268 2.28894 2.87599e-20)
(19.3233 2.2719 4.24659e-20)
(19.3204 2.25558 -9.73747e-20)
(19.3182 2.24016 1.46261e-20)
(19.3167 2.22567 1.24733e-19)
(19.3158 2.21229 1.09906e-19)
(19.3155 2.20032 -2.05865e-19)
(19.3158 2.18991 1.09916e-19)
(19.3167 2.18112 1.37961e-20)
(19.3181 2.17423 -1.10501e-19)
(19.3201 2.16927 1.25693e-19)
(19.3226 2.16641 5.3048e-23)
(19.3255 2.16571 0)
(19.3287 2.16738 -1.17525e-19)
(19.332 2.17148 1.20356e-19)
(19.3355 2.17813 -9.98351e-23)
(19.3388 2.18759 -6.36822e-20)
(19.3427 2.19813 6.85688e-20)
(19.3156 2.41184 -5.77549e-20)
(19.3097 2.39482 1.49191e-20)
(19.3043 2.37803 -1.38434e-20)
(19.2993 2.36169 5.676e-20)
(19.2952 2.3459 1.48609e-22)
(19.2916 2.33068 9.7238e-20)
(19.2888 2.31611 -1.2482e-19)
(19.2863 2.30244 1.16818e-22)
(19.2843 2.28995 0)
(19.2829 2.27863 -9.53403e-20)
(19.2821 2.26875 -1.32385e-20)
(19.2818 2.26046 1.09274e-19)
(19.2821 2.25385 0)
(19.2828 2.24886 9.63954e-20)
(19.284 2.24566 -2.08681e-19)
(19.2855 2.24446 1.12848e-19)
(19.2871 2.24524 1.29155e-19)
(19.289 2.24806 -2.9352e-20)
(19.2911 2.25296 -6.00731e-20)
(19.2933 2.25958 -6.47732e-20)
(19.2996 2.48927 0)
(19.2928 2.47336 -2.81663e-20)
(19.2863 2.45739 0)
(19.28 2.44202 0)
(19.2746 2.42692 -1.35402e-20)
(19.2695 2.41195 0)
(19.2652 2.39754 -1.33736e-20)
(19.2613 2.38343 -1.33088e-20)
(19.258 2.37082 0)
(19.2549 2.35908 1.05633e-19)
(19.2526 2.34826 -5.20857e-22)
(19.2505 2.33886 -2.09303e-19)
(19.2493 2.33112 2.1166e-19)
(19.2489 2.32422 -1.04655e-19)
(19.2485 2.31907 -1.29249e-20)
(19.2488 2.31581 1.30237e-20)
(19.249 2.3138 -1.3274e-20)
(19.2496 2.31364 1.34975e-20)
(19.2506 2.31482 5.4973e-20)
(19.2511 2.31847 -5.94995e-20)
(23.5107 1.27171 2.95711e-19)
(23.3532 1.20167 -3.70033e-19)
(23.1218 1.12396 -8.70829e-19)
(22.8002 1.04189 1.02825e-18)
(22.3804 0.95691 0)
(21.8682 0.872373 0)
(21.2763 0.791062 0)
(20.6181 0.714434 0)
(19.9047 0.642938 0)
(19.1427 0.575801 -2.08134e-18)
(18.3335 0.511719 2.33863e-18)
(17.4711 0.448965 0)
(16.5388 0.385377 0)
(15.4991 0.317576 0)
(14.2779 0.241683 0)
(12.7583 0.15931 0)
(10.8408 0.0907492 0)
(8.66711 0.0808648 0)
(6.91331 0.179933 0)
(6.70326 0.395327 0)
(23.4756 1.29111 0)
(23.316 1.23339 0)
(23.0897 1.17083 -8.51259e-19)
(22.7825 1.10712 1.00606e-18)
(22.3892 1.04252 0)
(21.9155 0.978624 1.30755e-18)
(21.3724 0.916164 -2.96776e-18)
(20.7716 0.855194 1.67149e-18)
(20.1216 0.7955 -1.84786e-18)
(19.4267 0.736811 4.12201e-18)
(18.6858 0.678673 -4.56854e-18)
(17.8909 0.620201 2.53618e-18)
(17.0221 0.559392 0)
(16.043 0.493163 0)
(14.898 0.419989 0)
(13.538 0.348023 -2.03025e-18)
(11.9982 0.304963 2.40469e-18)
(10.511 0.333886 0)
(9.5973 0.472747 8.76532e-19)
(9.97019 0.705724 -9.07783e-19)
(23.4468 1.31284 2.92299e-19)
(23.2901 1.26682 -3.68651e-19)
(23.0748 1.21657 0)
(22.7884 1.1671 1.00684e-18)
(22.4266 1.1179 -1.1639e-18)
(21.9929 1.07007 0)
(21.4955 1.02398 0)
(20.9427 0.979722 0)
(20.3405 0.937168 0)
(19.6914 0.895789 0)
(18.9929 0.854509 0)
(18.2343 0.811268 0)
(17.3946 0.763038 0)
(16.44 0.707102 0)
(15.3369 0.645586 -1.65213e-18)
(14.093 0.592785 3.74792e-18)
(12.8198 0.578189 -2.17998e-18)
(11.7862 0.638372 0)
(11.4527 0.801072 -6.76506e-19)
(12.1961 1.03184 6.66874e-19)
(23.4218 1.33527 3.00589e-19)
(23.2695 1.29997 -7.5183e-19)
(23.0649 1.26015 -4.36517e-19)
(22.7969 1.22308 1.02214e-18)
(22.4616 1.18798 -1.15508e-18)
(22.0609 1.1556 1.31098e-18)
(21.6007 1.12585 0)
(21.0875 1.09809 0)
(20.5259 1.07129 -1.77268e-18)
(19.9165 1.04405 1.96002e-18)
(19.2545 1.01445 0)
(18.527 0.980016 0)
(17.7113 0.937942 0)
(16.7802 0.887541 0)
(15.7226 0.835007 0)
(14.5873 0.798506 -1.78265e-18)
(13.5287 0.806709 2.06422e-18)
(12.8358 0.891359 1.13678e-18)
(12.9027 1.06708 -1.14156e-18)
(13.8359 1.28544 0)
(23.4003 1.3599 0)
(23.2538 1.33198 0)
(23.0608 1.30072 0)
(22.8119 1.27347 0)
(22.5039 1.249 1.15664e-18)
(22.1374 1.22764 -2.59834e-18)
(21.7165 1.20876 8.94657e-21)
(21.2453 1.19132 3.18096e-18)
(20.726 1.17398 -1.75051e-18)
(20.1568 1.15513 1.90579e-18)
(19.5305 1.13274 -2.09343e-18)
(18.832 1.10427 -2.27937e-18)
(18.0393 1.06775 8.64862e-21)
(17.134 1.02445 2.76771e-18)
(16.1252 0.983361 0)
(15.0897 0.963683 -1.74032e-18)
(14.2066 0.992183 1.97584e-18)
(13.7744 1.0975 -1.04886e-18)
(14.0959 1.28055 5.1191e-19)
(15.0834 1.48316 4.71008e-19)
(23.3826 1.38254 0)
(23.2433 1.36089 3.93245e-19)
(23.0629 1.33543 -4.5614e-19)
(22.8345 1.31383 0)
(22.5547 1.29495 0)
(22.223 1.27909 0)
(21.8412 1.2658 0)
(21.4109 1.25419 0)
(20.9319 1.24302 0)
(20.4002 1.23061 0)
(19.8068 1.21477 0)
(19.1355 1.19297 0)
(18.3666 1.16355 0)
(17.4893 1.12897 2.70847e-18)
(16.5263 1.09981 -3.03563e-18)
(15.5728 1.09643 0)
(14.8272 1.14594 0)
(14.5959 1.27354 9.857e-19)
(15.0797 1.4638 -9.36264e-19)
(16.048 1.65194 0)
(23.3678 1.40779 0)
(23.2357 1.38663 0)
(23.0676 1.3637 -9.22483e-19)
(22.8583 1.3438 1.04501e-18)
(22.6045 1.32604 0)
(22.3049 1.31096 0)
(21.9593 1.2986 0)
(21.5678 1.28849 -1.54844e-18)
(21.1281 1.27982 1.69129e-18)
(20.6345 1.27113 0)
(20.0757 1.26042 0)
(19.4336 1.24575 -2.18603e-18)
(18.6898 1.22693 2.39967e-18)
(17.8409 1.20826 0)
(16.9264 1.20066 1.46714e-18)
(16.0637 1.22198 -1.6482e-18)
(15.4642 1.29342 -1.77098e-18)
(15.3931 1.43231 2.63493e-18)
(15.9296 1.61846 -8.19242e-19)
(16.8071 1.79641 0)
(23.3539 1.42928 3.39079e-19)
(23.2281 1.40953 -1.672e-21)
(23.0706 1.38704 -1.40692e-18)
(22.8776 1.36582 2.10048e-18)
(22.646 1.34534 -1.16511e-18)
(22.3741 1.32617 -1.27955e-18)
(22.0609 1.30856 6.11525e-22)
(21.7051 1.29232 -2.34207e-22)
(21.3027 1.27717 3.31411e-18)
(20.8462 1.26249 -1.79823e-18)
(20.3238 1.24788 1.95648e-18)
(19.7204 1.23297 -2.13162e-18)
(19.0226 1.21898 2.34634e-18)
(18.2297 1.21171 -2.61454e-18)
(17.3774 1.22353 0)
(16.5701 1.27353 1.7406e-18)
(16.0186 1.38367 -3.91955e-18)
(16.0364 1.57257 1.97377e-18)
(16.6649 1.79876 0)
(17.5128 1.98844 0)
(23.3409 1.44946 3.57231e-19)
(23.2194 1.43123 -4.24845e-19)
(23.0701 1.40789 0)
(22.8896 1.38381 1.05485e-18)
(22.6751 1.35831 -1.16184e-18)
(22.4243 1.33163 1.26849e-18)
(22.1356 1.30393 7.69e-22)
(21.8067 1.27514 -2.99101e-18)
(21.4346 1.24544 1.61896e-18)
(21.0148 1.21434 -1.76521e-18)
(20.5379 1.18157 -7.54224e-21)
(19.9872 1.14717 2.12763e-18)
(19.3431 1.11437 2.37425e-18)
(18.6038 1.09597 -2.60613e-18)
(17.8231 1.12098 0)
(17.1435 1.23287 0)
(16.7892 1.461 -1.4994e-18)
(16.9446 1.76894 1.36479e-18)
(17.4963 2.05504 0)
(18.1527 2.25347 0)
(23.3275 1.47276 3.6797e-19)
(23.2093 1.45422 -4.34698e-19)
(23.0658 1.42975 -9.63068e-19)
(22.894 1.40319 2.1199e-18)
(22.6908 1.3734 -1.15673e-18)
(22.4538 1.34039 1.25324e-18)
(22.1816 1.30415 8.54525e-23)
(21.8733 1.2642 -2.927e-18)
(21.5247 1.2195 3.14795e-18)
(21.1247 1.16764 -1.66232e-18)
(20.6578 1.10761 1.70618e-18)
(20.1196 1.04778 1.50529e-20)
(19.5315 1.01164 1.81763e-20)
(18.9461 1.03288 -1.4278e-18)
(18.4415 1.14236 0)
(18.1029 1.35223 0)
(17.9931 1.64127 0)
(18.1145 1.95111 0)
(18.3939 2.21748 0)
(18.7373 2.40871 0)
(23.314 1.49465 0)
(23.1983 1.4791 0)
(23.059 1.45529 -9.7491e-19)
(22.8932 1.42853 1.06432e-18)
(22.6983 1.39768 0)
(22.4725 1.36247 0)
(22.2127 1.32169 0)
(21.911 1.27236 -1.34821e-18)
(21.5566 1.21151 2.62684e-18)
(21.1479 1.1434 -1.20549e-18)
(20.6999 1.08374 0)
(20.2422 1.0552 -9.60162e-19)
(19.8108 1.07985 8.49133e-19)
(19.442 1.17201 0)
(19.1659 1.33302 0)
(19.001 1.54938 0)
(18.9504 1.79465 3.20632e-19)
(18.9987 2.03631 -3.02256e-19)
(19.1189 2.24841 0)
(19.2825 2.41832 0)
(23.3017 1.52167 3.95786e-19)
(23.188 1.50781 -1.9414e-21)
(23.0525 1.48592 -4.94593e-19)
(22.8928 1.46098 0)
(22.7059 1.431 0)