/*--------------------------------*- C++ -*----------------------------------*\
| =========                 |                                                 |
| \\      /  F ield         | OpenFOAM: The Open Source CFD Toolbox           |
|  \\    /   O peration     | Version:  2.3.0                                 |
|   \\  /    A nd           | Web:      www.OpenFOAM.org                      |
|    \\/     M anipulation  |                                                 |
\*---------------------------------------------------------------------------*/
FoamFile
{
    version     2.0;
    format      ascii;
    class       volScalarField;
    location    "5000";
    object      nut;
}
// * * * * * * * * * * * * * * * * * * * * * * * * * * * * * * * * * * * * * //

dimensions      [0 2 -1 0 0 0 0];

internalField   nonuniform List<scalar> 
14201
(
0.0608726
0.0576162
0.0544157
0.0512879
0.0482415
0.0452854
0.0424299
0.0396874
0.0370724
0.0346033
0.0322998
0.0301765
0.0282489
0.0265373
0.0250482
0.0237085
0.0224046
0.0211055
0.0198067
0.0184945
0.0171357
0.0156824
0.0141182
0.0127108
0.064195
0.0614734
0.0588325
0.056268
0.0537818
0.0513784
0.0490625
0.0468394
0.0447143
0.0426934
0.0407824
0.0389876
0.0373165
0.0357792
0.0343838
0.033138
0.0320472
0.0311151
0.0303499
0.0297559
0.0293373
0.0290951
0.0290287
0.0291363
0.067164
0.0648974
0.0627035
0.0605799
0.0585273
0.0565484
0.0546468
0.0528265
0.0510917
0.0494466
0.0478959
0.0464449
0.0450985
0.0438633
0.0427454
0.0417514
0.040888
0.0401599
0.0395727
0.0391297
0.0388318
0.0386783
0.0386654
0.0387858
0.0698395
0.0679363
0.0661015
0.0643286
0.0626163
0.0609658
0.0593803
0.0578626
0.0564164
0.0550453
0.0537528
0.0525436
0.0514222
0.0503933
0.0494624
0.0486345
0.0479154
0.0473099
0.0468224
0.0464562
0.0462126
0.0460916
0.0460908
0.0462056
0.0722152
0.0706195
0.0690762
0.0675827
0.0661378
0.0647427
0.0633994
0.0621108
0.0608802
0.0597108
0.0586059
0.0575699
0.0566068
0.0557212
0.0549182
0.0542024
0.0535788
0.0530529
0.0526286
0.0523097
0.0520978
0.0519946
0.0519992
0.0521086
0.0743358
0.0729861
0.0716773
0.0704062
0.0691727
0.0679772
0.0668216
0.0657086
0.0646418
0.0636239
0.0626587
0.0617503
0.0609029
0.0601208
0.0594093
0.058773
0.0582167
0.0577458
0.0573651
0.0570779
0.056887
0.0567947
0.056801
0.0569046
0.0762162
0.0750708
0.0739514
0.0728589
0.0717934
0.0707557
0.0697472
0.0687706
0.0678299
0.0669286
0.06607
0.0652581
0.064497
0.0637923
0.0631489
0.0625716
0.0620651
0.0616347
0.0612853
0.0610211
0.0608452
0.0607605
0.0607679
0.0608663
0.0778944
0.0769092
0.0759424
0.0749935
0.074063
0.0731517
0.0722604
0.0713911
0.0705484
0.0697383
0.0689634
0.0682267
0.0675324
0.0668854
0.0662944
0.0657625
0.0652948
0.0648955
0.0645691
0.0643226
0.0641585
0.0640799
0.0640883
0.0641825
0.0793788
0.0785305
0.0776885
0.0768558
0.0760343
0.0752253
0.0744296
0.0736468
0.0728798
0.0721414
0.0714354
0.0707567
0.070121
0.0695129
0.0689633
0.0684666
0.0680296
0.0676586
0.0673468
0.0671155
0.0669603
0.0668868
0.0668976
0.0669911
0.0807121
0.07997
0.0792242
0.078481
0.0777442
0.0770152
0.0762971
0.0755935
0.0748914
0.0742044
0.0735617
0.0729143
0.0723535
0.0717569
0.0712417
0.0707729
0.070355
0.070024
0.0697128
0.0695003
0.06935
0.0692792
0.0692914
0.0693968
0.0136451
0.0160531
0.0175691
0.018998
0.02055
0.0222755
0.0241721
0.0262241
0.0284135
0.0307245
0.0331446
0.0356637
0.0382742
0.040969
0.0437414
0.046585
0.0494936
0.0524605
0.0554788
0.0585414
0.061641
0.0647699
0.0679222
0.0711029
0.0293978
0.0298251
0.0304447
0.0312611
0.0322711
0.0334662
0.0348349
0.0363638
0.0380379
0.0398429
0.0417653
0.0437929
0.0459147
0.048121
0.0504034
0.0527547
0.0551681
0.0576372
0.0601566
0.0627207
0.0653241
0.0679611
0.0706264
0.0733292
0.0390266
0.0393951
0.039911
0.040577
0.0413921
0.0423524
0.0434518
0.0446819
0.0460338
0.0474974
0.049063
0.0507219
0.0524651
0.0542842
0.0561728
0.0581247
0.0601339
0.0621952
0.0643043
0.0664569
0.0686483
0.0708745
0.0731325
0.0754358
0.0464287
0.0467641
0.0472224
0.047805
0.0485112
0.0493368
0.0502768
0.0513253
0.0524741
0.0537158
0.0550428
0.0564475
0.0579225
0.0594614
0.0610586
0.0627087
0.0644076
0.0661511
0.0679358
0.0697583
0.0716156
0.0735044
0.0754223
0.0773849
0.0523181
0.05263
0.0530505
0.0535795
0.0542156
0.054954
0.0557894
0.0567163
0.0577271
0.0588152
0.0599741
0.0611965
0.0624764
0.0638082
0.0651868
0.0666078
0.0680681
0.0695643
0.0710936
0.0726538
0.0742425
0.0758574
0.0774959
0.0791652
0.0571025
0.0573965
0.0577895
0.0582804
0.0588663
0.0595431
0.0603043
0.0611441
0.0620561
0.0630334
0.0640691
0.0651568
0.0662912
0.067467
0.0686794
0.0699247
0.0712
0.0725031
0.0738317
0.0751837
0.0765571
0.0779505
0.0793624
0.0807945
0.0610543
0.0613332
0.0617047
0.0621669
0.0627156
0.0633462
0.0640523
0.0648275
0.0656656
0.0665591
0.0675012
0.0684864
0.0695092
0.0705645
0.0716476
0.0727552
0.0738854
0.0750364
0.076206
0.0773917
0.0785918
0.0798053
0.0810313
0.0822689
0.0643609
0.0646262
0.0649801
0.0654203
0.0659408
0.0665358
0.0671991
0.0679249
0.0687061
0.0695343
0.070403
0.0713076
0.0722433
0.0732037
0.0741837
0.0751809
0.0761956
0.077226
0.0782681
0.0793198
0.0803795
0.0814461
0.0825197
0.0836019
0.0671566
0.0674084
0.0677476
0.0681716
0.0686703
0.0692365
0.0698649
0.070553
0.0712902
0.0720652
0.0728735
0.0737142
0.0745822
0.0754663
0.0763607
0.077267
0.0781895
0.0791248
0.0800629
0.0810064
0.0819511
0.0828967
0.0838457
0.0848023
0.0695368
0.0697759
0.0701028
0.0705158
0.070993
0.0715323
0.0721314
0.072792
0.0734903
0.0742154
0.0749732
0.0757663
0.0765838
0.0774015
0.0782215
0.0790559
0.0799079
0.0807695
0.0816214
0.0824808
0.083327
0.0841748
0.0850256
0.0858859
0.0580849
0.0529597
0.047824
0.0428031
0.0380483
0.0336829
0.0297408
0.0261999
0.0230249
0.0201802
0.0176334
0.0153556
0.0133206
0.0115057
0.00989081
0.00845874
0.0071953
0.0060905
0.00514369
0.00436281
0.00380396
0.00327224
0.00267703
0.00193665
0.0585761
0.0539552
0.0493314
0.0447817
0.0404075
0.0363113
0.032553
0.0291382
0.0260464
0.0232509
0.0207256
0.0184469
0.0163946
0.0145512
0.0129038
0.0114454
0.0101802
0.00911713
0.00828328
0.00751281
0.00671551
0.00584188
0.00483314
0.00360373
0.0591296
0.0550113
0.0508843
0.0468011
0.0428226
0.0390171
0.0354478
0.0321521
0.029135
0.0263823
0.0238736
0.0215904
0.0195176
0.017645
0.0159703
0.0145036
0.0132558
0.0122511
0.0113008
0.0103224
0.00926396
0.00807699
0.00670779
0.00509021
0.0597472
0.0560675
0.0523816
0.0487194
0.0451146
0.0416069
0.0382411
0.0350632
0.0321077
0.0293832
0.0268791
0.0245812
0.02248
0.0205729
0.0188696
0.0173905
0.0161557
0.0150468
0.0139303
0.0127507
0.0114606
0.0100111
0.00834762
0.00641204
0.0603678
0.0570764
0.0537731
0.0504754
0.0472018
0.0439739
0.0408185
0.0377714
0.0348776
0.0321749
0.029669
0.0273516
0.0252179
0.0232721
0.021532
0.0200145
0.0187436
0.0175072
0.0162347
0.0148764
0.0133848
0.0117095
0.00979465
0.00758136
0.060973
0.0580157
0.0550379
0.0520494
0.0490596
0.0460789
0.0431226
0.0402141
0.0373937
0.0347159
0.03221
0.029875
0.0277117
0.0257303
0.0239561
0.0224031
0.0210439
0.0196871
0.0182744
0.0167579
0.0150891
0.0132156
0.0110785
0.0086154
0.061542
0.0588724
0.0561711
0.0534438
0.0506939
0.0479262
0.0451484
0.0423751
0.0396372
0.0369923
0.0344923
0.0321457
0.0299592
0.0279491
0.0261462
0.0245734
0.0231093
0.0216346
0.0200928
0.0184342
0.0166077
0.0145572
0.0122201
0.00953053
0.0620747
0.0596444
0.0571778
0.054671
0.052124
0.0495385
0.0469175
0.0442693
0.0416163
0.0390117
0.0365233
0.0341717
0.0319684
0.0299349
0.0281014
0.0264954
0.0249466
0.0233704
0.0217148
0.0199305
0.0179638
0.0157559
0.0132393
0.0103434
0.0625292
0.0603276
0.0580663
0.055748
0.0533727
0.0509421
0.0484587
0.045926
0.0433576
0.0407963
0.0383212
0.0359683
0.0337561
0.0317074
0.0298474
0.0282021
0.0265812
0.024917
0.0231609
0.0212652
0.0191745
0.0168289
0.0141568
0.011076
0.0629544
0.0609387
0.0588517
0.0566936
0.0544621
0.0521608
0.0497968
0.0473762
0.0449024
0.0423794
0.039908
0.0375519
0.0353391
0.0332896
0.0314175
0.0297287
0.0280417
0.0262975
0.0244498
0.0224549
0.0202489
0.0177815
0.0150008
0.0118182
0.00104851
0.000814005
0.00108777
0.00138672
0.0016745
0.00195513
0.0022367
0.00253087
0.00285627
0.00324255
0.00373288
0.00435525
0.00508817
0.00592576
0.00687013
0.00792695
0.00910382
0.010408
0.011847
0.0134296
0.0151659
0.0170659
0.0191386
0.0213955
0.0021438
0.00128476
0.00137694
0.00166962
0.0019663
0.00226247
0.00257171
0.0029133
0.00331058
0.00378887
0.0043719
0.00506655
0.00585093
0.00672399
0.0076888
0.00875064
0.00991524
0.011188
0.0125753
0.014085
0.0157255
0.0175049
0.0194327
0.021521
0.00323458
0.00182085
0.00164759
0.00192476
0.0022396
0.00256779
0.00292655
0.00333693
0.00381754
0.00438157
0.0050414
0.00579307
0.00661998
0.0075222
0.00850289
0.00956597
0.0107152
0.011955
0.0132908
0.014729
0.016276
0.0179395
0.0197274
0.0216494
0.00421378
0.00235343
0.00189883
0.00215467
0.00249752
0.00287139
0.00329275
0.00377802
0.00433648
0.0049727
0.00569799
0.00649599
0.00735756
0.00828352
0.00927589
0.010337
0.0114694
0.0126767
0.0139632
0.0153339
0.0167945
0.0183505
0.0200091
0.0217777
0.00507418
0.00284742
0.00213241
0.00236673
0.00274623
0.00317467
0.00366295
0.00421999
0.00484735
0.00554612
0.0063241
0.0071611
0.00805208
0.00899744
0.00999802
0.011055
0.0121702
0.0133466
0.0145872
0.0158957
0.0172765
0.0187346
0.0202751
0.0219042
0.00582952
0.00329169
0.00234925
0.00256643
0.00298855
0.00347496
0.00402841
0.00465043
0.00533759
0.00609152
0.00691284
0.00778321
0.00869932
0.00966083
0.0106673
0.011719
0.0128175
0.0139647
0.0151627
0.0164143
0.0177226
0.0190913
0.0205244
0.0220254
0.00649281
0.00368573
0.00254999
0.00275644
0.00322423
0.00376829
0.00438206
0.00506099
0.00579941
0.00660325
0.00746153
0.00836118
0.00929898
0.0102738
0.0112844
0.0123306
0.0134132
0.0145332
0.0156921
0.0168918
0.0181342
0.0194214
0.0207564
0.0221405
0.00707534
0.00403329
0.00273614
0.00293785
0.00345217
0.00405092
0.00471908
0.00544809
0.00623271
0.00707947
0.00797012
0.0088954
0.00985218
0.0108379
0.0118514
0.0128921
0.0139597
0.0150548
0.0161779
0.0173301
0.0185125
0.0197261
0.020972
0.0222514
0.00759065
0.00433597
0.00290618
0.0031107
0.00366952
0.00431729
0.00503523
0.00580994
0.00663689
0.00752026
0.00843984
0.0093881
0.010361
0.0113554
0.0123707
0.0134062
0.0144604
0.0155322
0.0166229
0.0177332
0.0188616
0.0200072
0.0211726
0.0223647
0.00815166
0.0046565
0.00307586
0.00327154
0.00387464
0.004586
0.00534474
0.00615369
0.00701674
0.00792973
0.00887225
0.00983693
0.0108165
0.0118161
0.0128421
0.0138832
0.0149233
0.0159649
0.0170318
0.0181157
0.019194
0.0202662
0.021347
0.0224491
0.000586779
0.0020261
0.00414119
0.00647636
0.00878405
0.0110096
0.0131439
0.0151867
0.0171432
0.0190327
0.0209007
0.0228033
0.0247707
0.0267851
0.0288369
0.0312536
0.0340041
0.0370013
0.0401796
0.0434958
0.0469214
0.0504352
0.0540201
0.0576541
0.000438675
0.00133011
0.00309514
0.00498477
0.00680031
0.00860119
0.0104215
0.0122624
0.0141178
0.0159828
0.0178581
0.0197545
0.0216873
0.0236669
0.0257182
0.027961
0.0304272
0.0330449
0.0361084
0.0395035
0.0431119
0.0468584
0.0506948
0.0545722
0.000268026
0.00088008
0.00207399
0.00369142
0.00573402
0.00776065
0.00966688
0.011483
0.0132399
0.0149621
0.0166713
0.0183889
0.0201381
0.0219453
0.023845
0.0258888
0.0281237
0.030565
0.0333071
0.0362936
0.0397709
0.043573
0.0475589
0.0516324
0.00029189
0.000753662
0.00176781
0.00313967
0.00491432
0.00698999
0.00906402
0.011055
0.0129506
0.0147508
0.0164633
0.0181073
0.0197135
0.0213236
0.0229894
0.0247687
0.0267241
0.0289109
0.0313776
0.0341292
0.0372179
0.0407385
0.0446829
0.0488693
0.000266736
0.00067163
0.00157985
0.00280283
0.00437788
0.00632972
0.00847465
0.0106032
0.0126548
0.0146137
0.0164683
0.01821
0.0198436
0.0213931
0.0229059
0.0244502
0.0261106
0.0279763
0.0301216
0.0325941
0.0354181
0.0386211
0.0422214
0.0463173
0.000266038
0.00062565
0.00146953
0.00259941
0.00405043
0.00585692
0.00797193
0.0101767
0.0123488
0.0144477
0.0164535
0.0183468
0.0201099
0.0217373
0.023245
0.0246806
0.0261257
0.027689
0.0294854
0.0316122
0.034128
0.0370541
0.0403713
0.0441198
0.000259435
0.000589872
0.00138639
0.00245055
0.00381379
0.00550884
0.00754816
0.00978467
0.0120486
0.0142645
0.016402
0.0184392
0.0203519
0.0221174
0.0237238
0.025183
0.0265451
0.0279053
0.0293955
0.0311582
0.0333095
0.0359111
0.0389576
0.0423937
0.000257521
0.000566578
0.00132772
0.00234358
0.00364225
0.00525446
0.00720899
0.0094363
0.0117613
0.0140741
0.0163267
0.0184925
0.0205456
0.0224576
0.024202
0.0257644
0.0271578
0.0284404
0.0297256
0.031172
0.0329461
0.0351736
0.0379013
0.0410971
0.000255055
0.000547675
0.00128068
0.00225902
0.00350745
0.00505487
0.0069341
0.00912745
0.0114886
0.013881
0.016235
0.0185159
0.0206966
0.0227471
0.0246353
0.0263322
0.0278243
0.0291314
0.0303275
0.0315519
0.0329918
0.0348316
0.0371916
0.0400998
0.000253508
0.000532797
0.00124359
0.00219205
0.0034005
0.00489628
0.0067125
0.00885914
0.0112335
0.0136879
0.0161308
0.0185157
0.0208126
0.0229912
0.0250172
0.0268549
0.0284752
0.0298695
0.0310713
0.0321802
0.0333688
0.0348527
0.0368232
0.0393863
0.00025201
0.000520367
0.00121275
0.00213665
0.00331233
0.00476572
0.00652925
0.00862619
0.0109962
0.0134966
0.0160167
0.0184961
0.0208996
0.0231963
0.0253514
0.0273264
0.0290837
0.0305964
0.0318667
0.0329509
0.0339849
0.0351805
0.0367767
0.0389602
0.000250755
0.000509934
0.00118695
0.00209018
0.0032384
0.00465631
0.00637534
0.00842483
0.0107774
0.0133087
0.0158946
0.0184598
0.0209616
0.0233676
0.0256433
0.027749
0.0296425
0.0312863
0.0326604
0.0337855
0.034753
0.0357453
0.0370156
0.0388177
0.000249588
0.000500948
0.00116476
0.00205028
0.00317495
0.00456262
0.00624349
0.00824962
0.0105768
0.0131255
0.0157662
0.0184087
0.0210017
0.0235095
0.0258977
0.0281266
0.030152
0.0319297
0.0334253
0.0346328
0.0356029
0.0364759
0.0374895
0.0389346
0.000248437
0.000493025
0.00114523
0.00201539
0.00311953
0.00448084
0.00612872
0.00809581
0.0103931
0.012948
0.0156326
0.0183445
0.0210218
0.0236248
0.0261185
0.0284635
0.0306148
0.0325245
0.0341489
0.0354629
0.0364845
0.03731
0.0381423
0.0392767
0.000247278
0.000485994
0.00112792
0.00198444
0.00307051
0.00440858
0.00602729
0.00795946
0.0102253
0.0127769
0.0154953
0.0182685
0.0210239
0.0237161
0.0263088
0.0287632
0.0310342
0.0330718
0.0348265
0.0362598
0.0373646
0.0381983
0.0389202
0.0398047
0.000246068
0.00047966
0.00111233
0.00195666
0.00302662
0.00434397
0.00593669
0.00783733
0.0100717
0.0126131
0.0153556
0.0181822
0.0210093
0.0237851
0.0264712
0.0290289
0.0314133
0.0335738
0.0354571
0.0370155
0.0382233
0.0391055
0.0397777
0.0404774
0.000244872
0.000473917
0.0010983
0.00193154
0.00298697
0.00428571
0.00585502
0.00772702
0.00993107
0.0124569
0.0152153
0.0180871
0.0209798
0.0238341
0.0266082
0.0292634
0.0317555
0.0340335
0.0360419
0.0377269
0.039049
0.0400077
0.0406791
0.0412571
0.000243695
0.000468744
0.00108554
0.00190876
0.00295088
0.00423279
0.00578084
0.00762689
0.00980217
0.012309
0.0150758
0.0179854
0.0209375
0.023865
0.0267224
0.0294698
0.0320639
0.034454
0.0365833
0.0383938
0.0398362
0.0408902
0.0415985
0.042113
0.000242495
0.000463991
0.00107389
0.00188799
0.00291801
0.00418442
0.00571326
0.00753557
0.00968394
0.0121697
0.0149386
0.0178791
0.0208848
0.0238806
0.0268165
0.0296514
0.0323423
0.0348391
0.0370845
0.0390179
0.040583
0.0417443
0.0425177
0.0430155
0.000241296
0.000459657
0.00106328
0.00186908
0.0028881
0.00414041
0.00565162
0.00745236
0.00957559
0.0120395
0.0148055
0.0177706
0.0208241
0.0238836
0.0268937
0.0298116
0.0325944
0.0351928
0.0375496
0.0396024
0.04129
0.0425657
0.0434234
0.0439385
0.000240097
0.000455736
0.00105366
0.00185188
0.00286092
0.00410039
0.00559553
0.00737648
0.00947634
0.0119184
0.0146778
0.0176619
0.0207579
0.0238766
0.0269571
0.029954
0.0328243
0.0355194
0.0379827
0.0401509
0.0419594
0.0433531
0.0443082
0.0448701
0.000238892
0.000452152
0.00104497
0.00183621
0.00283616
0.00406396
0.00554435
0.00730713
0.0093855
0.0118062
0.0145562
0.0175543
0.0206882
0.0238621
0.0270093
0.0300816
0.0330355
0.035823
0.0383881
0.0406675
0.0425941
0.0441063
0.0451661
0.0457894
0.000237672
0.000448864
0.00103696
0.00182188
0.00281338
0.00403052
0.00549746
0.00724357
0.00930208
0.0117022
0.0144408
0.0174489
0.0206162
0.0238417
0.0270525
0.0301971
0.033231
0.0361069
0.0387695
0.0411555
0.0431965
0.0448258
0.0459929
0.0466854
0.000236421
0.000445826
0.00102961
0.00180869
0.00279245
0.00399965
0.00545423
0.00718506
0.00922512
0.0116055
0.0143313
0.0173458
0.0205425
0.023816
0.0270875
0.0303014
0.0334123
0.0363729
0.0391288
0.0416171
0.0437682
0.0455112
0.0467853
0.0475561
0.000235125
0.000442975
0.00102272
0.00179636
0.00277293
0.00397091
0.00541399
0.0071306
0.00915344
0.0115149
0.0142269
0.0172446
0.0204668
0.0237849
0.0271143
0.0303951
0.03358
0.036622
0.0394674
0.0420535
0.0443101
0.0461633
0.047545
0.0484125
0.00023377
0.000440257
0.00101621
0.00178472
0.00275453
0.00394385
0.00537611
0.00707936
0.00908598
0.0114292
0.0141266
0.0171444
0.0203884
0.0237478
0.0271323
0.0304775
0.0337339
0.0368542
0.0397853
0.0424651
0.0448229
0.0467826
0.0482703
0.0492296
0.000232339
0.000437658
0.00101003
0.00177361
0.00273696
0.00391809
0.00534005
0.00703059
0.00902183
0.0113476
0.0140297
0.0170448
0.0203067
0.023704
0.0271408
0.0305479
0.0338732
0.0370691
0.0400827
0.0428525
0.0453076
0.0473703
0.0489617
0.050014
0.000230836
0.00043513
0.00100405
0.00176287
0.00271998
0.00389322
0.00530532
0.00698372
0.00896025
0.011269
0.0139353
0.0169451
0.0202213
0.0236527
0.0271389
0.0306054
0.0339973
0.0372661
0.0403592
0.0432158
0.0457648
0.0479274
0.0496212
0.0507712
0.000229251
0.000432653
0.000998193
0.0017524
0.00270345
0.00386902
0.00527161
0.00693828
0.00890059
0.0111928
0.0138428
0.0168451
0.0201317
0.0235935
0.0271259
0.0306493
0.0341055
0.0374446
0.0406146
0.0435549
0.0461948
0.0484546
0.0502498
0.0515008
0.000227583
0.000430197
0.000992451
0.00174214
0.00268732
0.00384539
0.00523869
0.006894
0.00884251
0.0111185
0.013752
0.0167447
0.0200382
0.0235267
0.0271019
0.0306795
0.0341974
0.0376046
0.0408488
0.04387
0.046598
0.0489527
0.0508484
0.0522022
0.000225851
0.000427806
0.000986877
0.00173214
0.00267153
0.00382231
0.00520655
0.00685077
0.00878584
0.011046
0.0136629
0.0166442
0.0199413
0.0234526
0.0270673
0.0306962
0.0342734
0.0377461
0.041062
0.0441616
0.046975
0.0494224
0.051417
0.0528726
0.000224053
0.000425459
0.000981428
0.00172237
0.00265614
0.00379983
0.00517523
0.00680864
0.00873065
0.0109754
0.0135756
0.0165442
0.0198419
0.0233723
0.0270231
0.0307003
0.0343343
0.0378702
0.0412554
0.0444307
0.0473271
0.049865
0.051957
0.0535157
0.000222197
0.000423173
0.000976148
0.00171291
0.00264122
0.00377801
0.00514486
0.00676782
0.00867716
0.0109069
0.0134906
0.0164456
0.0197411
0.0232871
0.0269706
0.0306933
0.0343816
0.0379783
0.0414301
0.0446787
0.0476556
0.0502814
0.0524684
0.054127
0.000220297
0.000420951
0.000971039
0.00170374
0.00262676
0.00375688
0.00511549
0.00672834
0.00862545
0.0108406
0.0134081
0.0163489
0.0196402
0.0231988
0.0269118
0.0306771
0.034417
0.038072
0.0415882
0.0449074
0.0479618
0.0506725
0.0529514
0.0547062
0.00021835
0.000418797
0.000966108
0.00169489
0.00261281
0.00373649
0.00508715
0.00669026
0.00857559
0.0107768
0.0133285
0.0162546
0.01954
0.0231085
0.0268482
0.0306535
0.0344427
0.0381538
0.041732
0.0451194
0.0482488
0.0510419
0.05341
0.0552584
0.000216353
0.000416687
0.000961308
0.00168629
0.00259927
0.00371672
0.00505969
0.00665342
0.00852741
0.0107151
0.0132515
0.016163
0.0194412
0.0230172
0.0267811
0.0306241
0.0344607
0.0382259
0.0418642
0.0453177
0.04852
0.0513935
0.0538496
0.0557927
0.000214305
0.000414617
0.000956617
0.00167789
0.00258605
0.00369747
0.00503298
0.00661764
0.00848066
0.0106553
0.0131767
0.0160736
0.0193434
0.022925
0.0267108
0.0305896
0.0344718
0.0382896
0.0419862
0.0455041
0.0487775
0.0517295
0.054272
0.0563083
0.000212197
0.000412562
0.000951989
0.0016696
0.00257304
0.00367854
0.00500676
0.00658256
0.00843491
0.0105968
0.0131036
0.0159857
0.0192462
0.0228314
0.0266369
0.0305495
0.0344756
0.0383445
0.0420981
0.0456787
0.0490213
0.0520498
0.0546767
0.0568062
0.000210026
0.000410514
0.000947393
0.00166138
0.00256014
0.00365978
0.00498081
0.00654789
0.00838974
0.0105391
0.0130315
0.0158987
0.0191487
0.0227354
0.0265583
0.0305026
0.0344709
0.0383894
0.0421981
0.0458395
0.0492489
0.0523507
0.0550575
0.0572718
0.00020779
0.000408461
0.000942805
0.00165318
0.00254728
0.0036411
0.00495499
0.00651342
0.00834487
0.0104819
0.0129599
0.0158119
0.0190504
0.0226364
0.0264742
0.0304479
0.0344564
0.0384226
0.0422848
0.0459848
0.0494584
0.0526304
0.0554129
0.0577057
0.000205493
0.0004064
0.000938213
0.00164497
0.00253442
0.00362244
0.00492924
0.00647906
0.00830018
0.0104249
0.0128886
0.0157252
0.018951
0.0225344
0.0263844
0.030385
0.0344315
0.0384434
0.042357
0.0461135
0.0496488
0.0528882
0.0557435
0.0581132
0.000203133
0.000404331
0.000933616
0.00163676
0.00252157
0.00360381
0.00490352
0.00644479
0.00825565
0.0103681
0.0128176
0.0156388
0.0188511
0.0224298
0.0262896
0.0303144
0.0343968
0.0384524
0.0424154
0.0462265
0.0498219
0.0531274
0.0560566
0.0585136
0.000200709
0.000402242
0.000928997
0.00162852
0.00250869
0.00358516
0.00487781
0.00641057
0.00821124
0.0103116
0.012747
0.0155526
0.0187507
0.022323
0.0261902
0.030237
0.034353
0.0384505
0.0424614
0.0463255
0.0499794
0.0533496
0.0563504
0.0588835
0.00019822
0.000400133
0.000924353
0.00162025
0.00249577
0.00356647
0.00485209
0.00637637
0.00816691
0.0102553
0.0126766
0.0154665
0.01865
0.0222144
0.0260868
0.0301534
0.0343011
0.0384389
0.0424962
0.0464119
0.0501228
0.0535562
0.0566269
0.059237
0.000195671
0.000397998
0.000919665
0.00161192
0.00248278
0.00354769
0.00482629
0.0063421
0.00812254
0.0101989
0.0126062
0.0153805
0.0185487
0.0221038
0.0259793
0.0300634
0.0342408
0.038417
0.0425191
0.0464847
0.0502504
0.053744
0.0568802
0.0595596
0.000193066
0.00039584
0.000914933
0.00160351
0.00246969
0.00352881
0.00480036
0.0063077
0.00807806
0.0101425
0.0125359
0.0152943
0.0184468
0.0219914
0.025868
0.0299674
0.0341724
0.0383854
0.0425307
0.0465447
0.0503638
0.0539162
0.0571173
0.0598696
0.000190403
0.000393655
0.000910152
0.00159503
0.00245648
0.00350977
0.00477424
0.00627311
0.00803337
0.0100859
0.0124653
0.015208
0.0183444
0.0218773
0.025753
0.0298655
0.0340963
0.0383445
0.0425317
0.0465929
0.0504645
0.0540753
0.0573414
0.0601647
0.000187684
0.000391444
0.000905321
0.00158646
0.00244315
0.00349057
0.00474793
0.00623827
0.00798842
0.010029
0.0123945
0.0151213
0.0182413
0.0217613
0.0256342
0.0297578
0.0340126
0.0382945
0.0425224
0.0466299
0.0505534
0.0542221
0.057554
0.0604541
0.000184914
0.000389208
0.000900446
0.00157782
0.00242972
0.00347123
0.00472143
0.00620322
0.00794321
0.00997185
0.0123233
0.0150342
0.0181374
0.0216434
0.0255117
0.0296441
0.0339207
0.0382346
0.0425017
0.0466541
0.0506277
0.0543526
0.0577473
0.0607172
0.000182121
0.00038698
0.000895573
0.00156917
0.00241627
0.00345184
0.00469487
0.00616807
0.00789789
0.00991455
0.012252
0.0149469
0.0180329
0.0215241
0.0253858
0.0295248
0.0338211
0.038165
0.0424697
0.0466653
0.0506874
0.0544662
0.0579212
0.0609592
0.000179269
0.000384754
0.000890718
0.00156054
0.00240284
0.0034325
0.00466836
0.006133
0.00785267
0.00985738
0.0121809
0.0148598
0.0179284
0.0214039
0.0252575
0.0294009
0.0337146
0.0380867
0.0424272
0.0466646
0.0507336
0.0545646
0.0580773
0.0611776
0.000176382
0.000382515
0.00088588
0.00155196
0.00238949
0.00341328
0.00464203
0.00609817
0.00780776
0.00980062
0.0121103
0.0147733
0.0178246
0.0212838
0.0251279
0.0292736
0.0336028
0.0380011
0.0423758
0.0466536
0.0507685
0.0546513
0.0582227
0.0613902
0.000173489
0.000380322
0.000881101
0.00154349
0.00237632
0.0033943
0.00461603
0.00606377
0.00776344
0.00974458
0.0120407
0.0146879
0.0177219
0.0211647
0.0249981
0.0291444
0.033487
0.0379098
0.0423175
0.0466345
0.0507943
0.0547284
0.0583587
0.0615961
0.00017057
0.000378157
0.000876383
0.00153517
0.00236339
0.00337564
0.00459046
0.00602997
0.00771981
0.00968952
0.0119721
0.014604
0.0176209
0.0210469
0.0248688
0.0290143
0.0333685
0.037814
0.0422529
0.0466077
0.0508109
0.0547942
0.05848
0.0617786
0.00016763
0.000376029
0.000871813
0.00152698
0.0023507
0.00335737
0.0045654
0.00599677
0.00767706
0.00963546
0.0119049
0.0145215
0.0175217
0.0209311
0.0247407
0.0288838
0.0332481
0.0377146
0.0421832
0.0465742
0.0508192
0.0548497
0.0585887
0.0619461
0.000164675
0.00037393
0.000867274
0.00151894
0.00233814
0.00333939
0.00454075
0.0059642
0.00763507
0.00958251
0.0118391
0.0144409
0.0174245
0.0208172
0.0246142
0.0287539
0.0331266
0.0376127
0.0421094
0.0465352
0.0508206
0.054897
0.0586877
0.062103
0.000161694
0.000371858
0.000862806
0.00151103
0.00232582
0.00332161
0.00451652
0.00593216
0.00759391
0.00953051
0.0117746
0.0143619
0.0173293
0.0207055
0.0244894
0.0286247
0.0330047
0.0375091
0.0420328
0.0464921
0.050817
0.0549385
0.0587806
0.0622545
0.000158668
0.000369793
0.000858363
0.00150318
0.00231364
0.00330409
0.00449258
0.00590063
0.00755334
0.00947935
0.011711
0.0142843
0.0172358
0.0205956
0.0243661
0.0284963
0.0328823
0.0374038
0.0419536
0.0464457
0.0508091
0.054975
0.0588685
0.0624032
0.000155638
0.000367728
0.000853944
0.0014954
0.0023016
0.00328677
0.0044689
0.0058694
0.00751315
0.00942878
0.0116483
0.0142075
0.0171433
0.0204867
0.0242436
0.0283678
0.032759
0.0372964
0.0418712
0.0463953
0.0507963
0.0550056
0.0589488
0.0625404
0.000152598
0.00036572
0.000849602
0.00148764
0.00228958
0.00326953
0.0044453
0.00583828
0.00747322
0.00937844
0.011586
0.0141312
0.0170514
0.0203784
0.0241212
0.0282384
0.0326334
0.0371858
0.0417843
0.0463394
0.050777
0.0550284
0.0590193
0.0626644
0.000149505
0.00036369
0.000845237
0.00147991
0.00227755
0.00325228
0.00442178
0.00580723
0.00743337
0.00932829
0.0115239
0.0140553
0.0169598
0.0202703
0.0239983
0.0281075
0.032505
0.0370708
0.0416919
0.0462766
0.0507495
0.0550414
0.059078
0.0627736
0.000146385
0.000361684
0.000840922
0.00147227
0.00226568
0.00323518
0.00439841
0.00577646
0.00739382
0.00927844
0.011462
0.0139797
0.0168686
0.0201624
0.0238751
0.0279751
0.0323735
0.0369511
0.0415933
0.046206
0.0507128
0.0550435
0.0591245
0.0628709
0.000143223
0.000359698
0.000836637
0.00146471
0.00225394
0.0032183
0.00437535
0.00574604
0.00735471
0.00922914
0.0114008
0.0139048
0.0167782
0.0200552
0.0237523
0.027842
0.0322397
0.0368275
0.0414893
0.0461287
0.0506678
0.0550361
0.0591606
0.0629589
0.000140061
0.000357727
0.00083243
0.00145726
0.00224243
0.00320172
0.00435267
0.00571611
0.00731614
0.00918058
0.0113406
0.013831
0.0166891
0.0199494
0.0236305
0.0277093
0.0321052
0.0367015
0.0413813
0.0460459
0.0506159
0.0550204
0.0591864
0.0630321
0.000136895
0.000355832
0.000828355
0.00144998
0.00223109
0.00318545
0.00433038
0.00568664
0.00727829
0.00913285
0.0112815
0.0137586
0.0166017
0.0198456
0.0235108
0.027578
0.031971
0.0365747
0.0412709
0.0459595
0.0505589
0.0549979
0.0592033
0.063093
0.00013367
0.000353912
0.000824246
0.00144272
0.00221981
0.00316928
0.00430835
0.00565758
0.00724102
0.00908595
0.0112234
0.0136876
0.0165159
0.0197438
0.0233932
0.0274486
0.031838
0.0364479
0.0411593
0.0458703
0.0504982
0.0549704
0.0592133
0.0631435
0.000130406
0.000351992
0.000820137
0.00143549
0.00220861
0.00315322
0.00428646
0.00562883
0.00720415
0.00903958
0.0111659
0.0136175
0.0164313
0.0196434
0.0232772
0.0273207
0.0317056
0.036321
0.0410467
0.0457792
0.0504343
0.0549386
0.0592188
0.0631916
0.000127074
0.000350034
0.000815959
0.00142818
0.00219733
0.00313708
0.00426453
0.00560004
0.00716724
0.00899329
0.0111087
0.0135478
0.0163473
0.0195437
0.0231618
0.027193
0.0315732
0.0361929
0.0409323
0.0456856
0.0503673
0.0549032
0.05922
0.0632353
0.000123724
0.000348053
0.000811746
0.00142071
0.0021859
0.00312076
0.00424233
0.00557088
0.00712997
0.00894651
0.011051
0.0134775
0.0162627
0.0194434
0.0230457
0.0270639
0.0314386
0.036062
0.040814
0.0455875
0.050295
0.0548618
0.0592146
0.0632718
0.000120317
0.000346063
0.000807455
0.00141316
0.00217419
0.00310412
0.00421969
0.00554118
0.00709198
0.00889903
0.0109925
0.0134061
0.0161769
0.0193415
0.0229275
0.0269323
0.0313002
0.0359264
0.0406902
0.0454831
0.0502158
0.0548128
0.0592005
0.0632977
0.00011683
0.000343997
0.000803063
0.00140544
0.00216227
0.00308705
0.00419656
0.00551084
0.00705332
0.00885055
0.0109327
0.0133334
0.0160894
0.0192376
0.0228066
0.0267969
0.0311569
0.0357845
0.040559
0.0453701
0.0501272
0.0547534
0.059175
0.0633115
0.000113324
0.00034194
0.000798639
0.00139767
0.00215026
0.00306985
0.00417316
0.00548019
0.00701413
0.00880143
0.010872
0.0132596
0.0160005
0.0191319
0.0226834
0.0266581
0.0310087
0.0356365
0.0404206
0.0452491
0.0500298
0.0546846
0.0591399
0.0633166
0.000109799
0.000339911
0.000794255
0.00138996
0.00213833
0.00305273
0.00414985
0.00544956
0.00697485
0.00875216
0.0108112
0.0131854
0.015911
0.0190254
0.0225588
0.0265171
0.0308571
0.0354832
0.0402755
0.0451204
0.0499237
0.0546063
0.0590937
0.0633055
0.000106289
0.000337957
0.000790037
0.00138243
0.00212671
0.00303602
0.00412697
0.00541939
0.00693617
0.00870349
0.0107511
0.0131119
0.0158224
0.0189197
0.022435
0.0263762
0.0307047
0.0353279
0.0401269
0.0449872
0.0498124
0.0545226
0.0590435
0.0632966
0.000102778
0.000336101
0.000786011
0.00137528
0.00211551
0.00301998
0.00410497
0.00539026
0.00689874
0.00865644
0.0106928
0.0130407
0.0157363
0.0188169
0.0223143
0.0262385
0.0305546
0.0351739
0.0399785
0.0448528
0.0496994
0.0544369
0.0589911
0.0632854
9.92852e-05
0.000334369
0.000782277
0.00136862
0.00210507
0.00300483
0.00408428
0.00536287
0.00686343
0.00861181
0.0106374
0.0129729
0.0156543
0.0187189
0.022199
0.0261067
0.0304103
0.0350249
0.0398339
0.0447212
0.0495879
0.0543518
0.0589383
0.0632705
9.58227e-05
0.000332792
0.00077883
0.00136248
0.00209546
0.0029909
0.0040651
0.00533748
0.00683063
0.00857031
0.0105857
0.0129096
0.0155777
0.0186273
0.0220912
0.0259831
0.0302746
0.0348843
0.039697
0.0445961
0.0494817
0.0542707
0.0588881
0.0632575
9.24012e-05
0.000331332
0.000775687
0.00135684
0.00208669
0.00297817
0.00404755
0.00531417
0.00680044
0.00853215
0.0105382
0.0128513
0.015507
0.0185428
0.0219918
0.0258692
0.0301495
0.0347542
0.03957
0.04448
0.0493833
0.0541959
0.0588427
0.0632472
8.89915e-05
0.000330012