/*--------------------------------*- C++ -*----------------------------------*\
| =========                 |                                                 |
| \\      /  F ield         | OpenFOAM: The Open Source CFD Toolbox           |
|  \\    /   O peration     | Version:  2.3.0                                 |
|   \\  /    A nd           | Web:      www.OpenFOAM.org                      |
|    \\/     M anipulation  |                                                 |
\*---------------------------------------------------------------------------*/
FoamFile
{
    version     2.0;
    format      ascii;
    class       volScalarField;
    location    "10000";
    object      nut;
}
// * * * * * * * * * * * * * * * * * * * * * * * * * * * * * * * * * * * * * //

dimensions      [0 2 -1 0 0 0 0];

internalField   nonuniform List<scalar> 
123128
(
0.0377449
0.0364792
0.0352344
0.0340094
0.0328045
0.0316196
0.0304559
0.0293129
0.0281902
0.0270886
0.0260081
0.024948
0.0239085
0.0228886
0.0218897
0.0209102
0.01995
0.0190095
0.0180884
0.0171861
0.0163016
0.0154358
0.0145878
0.0137577
0.0129457
0.0121511
0.011374
0.0106141
0.00987132
0.00914615
0.00843843
0.00774775
0.00707488
0.00642087
0.00578654
0.0051738
0.00458445
0.00402083
0.00348784
0.00299205
0.00253423
0.00210446
0.00155265
0.0383548
0.0372059
0.0360742
0.0349583
0.0338579
0.032774
0.0317066
0.0306552
0.0296197
0.0286002
0.0275969
0.0266101
0.0256386
0.0246826
0.0237421
0.0228164
0.0219052
0.021009
0.0201275
0.0192602
0.0184067
0.0175671
0.0167412
0.0159291
0.0151314
0.014347
0.0135766
0.0128204
0.0120786
0.0113528
0.010643
0.00994953
0.00927477
0.0086208
0.00798904
0.00738239
0.00680321
0.00625719
0.00574806
0.00528023
0.00485864
0.00448501
0.00416156
0.0389359
0.0378907
0.0368598
0.0358409
0.0348348
0.0338412
0.0328595
0.0318906
0.0309334
0.0299883
0.0290558
0.0281355
0.0272266
0.0263292
0.0254431
0.0245679
0.0237036
0.0228502
0.0220079
0.0211762
0.0203548
0.0195436
0.0187436
0.0179542
0.0171755
0.0164081
0.015653
0.0149097
0.0141793
0.0134636
0.0127625
0.0120772
0.0114108
0.0107649
0.010142
0.00954487
0.0089782
0.00844401
0.00794674
0.00749138
0.00708102
0.00671938
0.00640811
0.0394846
0.0385328
0.0375918
0.0366602
0.0357378
0.0348238
0.033919
0.0330235
0.0321361
0.0312578
0.030388
0.0295266
0.0286734
0.0278285
0.0269918
0.026163
0.025341
0.0245268
0.0237201
0.0229214
0.0221297
0.0213457
0.0205698
0.0198021
0.0190425
0.0182921
0.0175512
0.016821
0.0161015
0.0153953
0.0147027
0.0140257
0.0133666
0.0127271
0.0121101
0.011519
0.0109566
0.010427
0.00993325
0.00947938
0.00906904
0.00870337
0.00838512
0.04
0.0391321
0.0382716
0.0374176
0.0365694
0.0357271
0.0348907
0.0340594
0.0332338
0.0324138
0.0315992
0.0307904
0.0299871
0.0291888
0.0283962
0.0276081
0.0268244
0.0260451
0.0252707
0.0245014
0.0237371
0.0229773
0.0222229
0.0214742
0.0207319
0.0199962
0.0192689
0.0185497
0.0178402
0.0171417
0.0164563
0.0157857
0.0151312
0.0144956
0.013882
0.0132931
0.0127324
0.0122026
0.011708
0.0112524
0.0108368
0.0104654
0.0101382
0.0404803
0.0396885
0.0389004
0.0381156
0.0373339
0.0365551
0.0357786
0.0350044
0.0342331
0.0334644
0.0326988
0.0319366
0.0311766
0.0304193
0.0296651
0.0289131
0.0281634
0.0274155
0.0266701
0.025927
0.025186
0.0244476
0.0237123
0.0229803
0.0222528
0.0215309
0.0208147
0.0201051
0.0194033
0.0187117
0.0180317
0.0173651
0.0167136
0.0160804
0.0154687
0.0148804
0.0143184
0.0137875
0.0132904
0.0128299
0.0124094
0.0120309
0.0116965
0.0409285
0.0402043
0.0394807
0.0387576
0.0380346
0.0373112
0.0365884
0.0358653
0.0351414
0.0344178
0.0336952
0.0329734
0.0322513
0.0315299
0.0308097
0.0300901
0.0293704
0.0286503
0.0279298
0.0272096
0.0264896
0.0257703
0.0250517
0.0243348
0.0236204
0.0229095
0.0222028
0.0215009
0.0208057
0.0201196
0.0194433
0.0187792
0.0181302
0.0174986
0.0168872
0.0162982
0.0157354
0.0152021
0.0147013
0.0142362
0.0138098
0.0134256
0.0130838
0.0413462
0.0406819
0.0400145
0.0393465
0.038675
0.0380015
0.0373268
0.0366492
0.0359666
0.0352821
0.0345963
0.0339103
0.0332221
0.0325314
0.0318404
0.0311494
0.0304574
0.0297618
0.0290619
0.0283628
0.0276626
0.0269604
0.0262562
0.0255522
0.0248482
0.0241469
0.0234485
0.0227535
0.022063
0.0213806
0.0207074
0.0200456
0.019397
0.0187661
0.0181554
0.0175658
0.0170009
0.0164655
0.0159603
0.015491
0.0150597
0.0146696
0.0143223
0.0417335
0.0411258
0.0405042
0.0398865
0.0392611
0.0386293
0.0379972
0.0373625
0.0367151
0.0360651
0.0354088
0.0347554
0.0340982
0.0334325
0.0327654
0.032099
0.0314333
0.0307638
0.0300778
0.0293979
0.0287147
0.0280303
0.0273374
0.0266446
0.0259489
0.0252564
0.0245655
0.0238792
0.0231889
0.022508
0.0218385
0.0211785
0.0205288
0.0198967
0.0192894
0.0186983
0.0181317
0.0175939
0.0170838
0.0166127
0.0161738
0.0157801
0.0154314
0.00124983
0.00125879
0.00134548
0.00147192
0.00163318
0.00182094
0.0020296
0.00225446
0.00249102
0.00273802
0.00299233
0.00325219
0.00351672
0.00378611
0.00405891
0.00433558
0.00461656
0.00490227
0.00519377
0.00549137
0.00579574
0.00610813
0.00642885
0.00675847
0.00709775
0.00744667
0.00780659
0.00817783
0.00856103
0.00895683
0.00936576
0.00978852
0.0102257
0.0106776
0.0111452
0.0116284
0.0121282
0.0126448
0.013179
0.0137317
0.0143035
0.0148948
0.0155052
0.00390645
0.00374634
0.00370456
0.0037218
0.00377496
0.00385842
0.00396693
0.00409777
0.00425051
0.00442151
0.00461066
0.00481441
0.00503161
0.00525873
0.00549735
0.00574564
0.00600371
0.00627122
0.00654891
0.00683622
0.00713309
0.00743868
0.00775382
0.008078
0.00841118
0.00875452
0.00910767
0.00947094
0.00984462
0.0102296
0.0106259
0.0110334
0.0114533
0.0118847
0.0123286
0.0127852
0.013255
0.0137385
0.0142363
0.0147491
0.0152776
0.0158223
0.0163843
0.00614732
0.00593553
0.00577534
0.00566387
0.00560055
0.00558096
0.00560627
0.00568738
0.00581435
0.00596925
0.00614065
0.00632392
0.00651877
0.00672665
0.00694636
0.00718083
0.0074277
0.00768758
0.00795725
0.00823673
0.00852501
0.00882168
0.0091267
0.0094402
0.00976271
0.0100935
0.0104337
0.0107831
0.0111418
0.0115099
0.0118874
0.0122744
0.0126705
0.0130768
0.0134925
0.0139189
0.014356
0.0148044
0.0152645
0.015737
0.0162227
0.0167222
0.017236
0.008112
0.0078829
0.00769695
0.00755578
0.00745816
0.00740206
0.00738699
0.00740874
0.00746541
0.00755279
0.00766528
0.00780195
0.00796193
0.00814632
0.00835618
0.00858565
0.00882875
0.00908074
0.0093419
0.0096099
0.00988557
0.0101698
0.0104619
0.0107626
0.0110714
0.0113892
0.0117154
0.0120495
0.0123913
0.0127408
0.0130977
0.013462
0.0138342
0.0142137
0.0146016
0.0149979
0.0154031
0.0158177
0.0162419
0.0166767
0.0171223
0.0175791
0.0180477
0.00985577
0.0096156
0.00941821
0.00926306
0.00914913
0.0090756
0.00903893
0.00903882
0.00907029
0.00913159
0.0092202
0.00933299
0.00946968
0.00962782
0.00980653
0.0100029
0.0102141
0.0104393
0.0106753
0.0109229
0.0111812
0.0114492
0.0117274
0.0120152
0.012312
0.0126166
0.0129281
0.0132463
0.0135707
0.0139013
0.0142375
0.0145799
0.0149279
0.0152825
0.015644
0.0160129
0.0163889
0.0167727
0.0171647
0.0175651
0.0179741
0.018392
0.0188183
0.0114053
0.0111564
0.0109497
0.0107848
0.0106608
0.0105753
0.0105279
0.0105146
0.010533
0.0105814
0.0106564
0.0107567
0.010879
0.0110228
0.0111856
0.0113652
0.0115607
0.0117691
0.0119901
0.0122221
0.0124633
0.0127144
0.0129749
0.0132441
0.0135216
0.0138062
0.0140974
0.0143953
0.0146992
0.0150084
0.0153228
0.0156424
0.015968
0.0162994
0.0166366
0.0169803
0.0173299
0.0176861
0.0180485
0.0184177
0.0187934
0.0191761
0.0195669
0.0127843
0.0125274
0.0123129
0.0121405
0.0120085
0.011916
0.0118599
0.0118388
0.0118488
0.0118888
0.0119558
0.0120477
0.0121621
0.0122967
0.0124503
0.0126202
0.0128057
0.0130043
0.0132131
0.0134315
0.01366
0.0138983
0.0141446
0.0143995
0.0146621
0.0149313
0.0152061
0.0154871
0.0157729
0.0160631
0.0163576
0.0166573
0.016962
0.0172721
0.0175874
0.0179077
0.0182327
0.0185626
0.0188974
0.0192371
0.0195816
0.0199308
0.0202852
0.0140144
0.0137498
0.0135293
0.0133497
0.0132117
0.0131129
0.013051
0.0130234
0.0130286
0.0130633
0.0131252
0.0132117
0.01332
0.0134484
0.0135968
0.01376
0.01394
0.0141294
0.0143266
0.014534
0.0147534
0.0149815
0.0152169
0.0154602
0.0157132
0.0159683
0.0162292
0.0164971
0.0167672
0.0170401
0.0173169
0.0175993
0.0178874
0.0181793
0.0184753
0.0187751
0.0190773
0.0193835
0.0196941
0.0200072
0.020323
0.0206416
0.0209646
0.0151117
0.0148405
0.0146153
0.0144294
0.0142869
0.0141839
0.0141154
0.0140838
0.0140869
0.0141175
0.014175
0.0142579
0.0143615
0.0144854
0.0146332
0.0147874
0.0149701
0.0151426
0.0153294
0.015528
0.0157449
0.0159631
0.0161887
0.0164246
0.0166731
0.0169079
0.0171616
0.017419
0.0176725
0.0179291
0.0181919
0.0184629
0.0187387
0.0190135
0.0192944
0.0195757
0.0198556
0.0201426
0.0204333
0.0207218
0.0210125
0.0213046
0.0216034
0.012301
0.0116114
0.0109526
0.0103228
0.00972077
0.00914535
0.00859548
0.00807017
0.00756854
0.00708974
0.00663296
0.00619745
0.00578251
0.00538752
0.00501191
0.004655
0.00431619
0.00399484
0.00369039
0.00340233
0.00313017
0.00287355
0.00263224
0.00240621
0.00219575
0.00200167
0.00182559
0.00166982
0.00153513
0.00141729
0.00131107
0.00121254
0.00111883
0.00102786
0.00093803
0.000848028
0.000756665
0.000662855
0.000565548
0.000463628
0.000356104
0.000243478
9.70093e-05
0.0123125
0.0116749
0.0110624
0.0104744
0.00990996
0.00936822
0.00884826
0.00834929
0.00787055
0.0074113
0.00697088
0.00654867
0.00614403
0.00575648
0.00538553
0.00503074
0.00469162
0.00436771
0.00405854
0.0037637
0.00348281
0.00321557
0.00296175
0.00272122
0.00249408
0.00228071
0.00208197
0.00189958
0.00173689
0.00159432
0.00146773
0.0013531
0.00124704
0.00114666
0.00104956
0.000953708
0.000857425
0.000759224
0.000657822
0.000552154
0.000441989
0.000329969
0.00020985
0.0123259
0.0117383
0.011171
0.0106236
0.0100957
0.00958654
0.00909553
0.00862204
0.00816545
0.00772516
0.00730064
0.00689139
0.00649695
0.00611691
0.00575085
0.00539845
0.00505945
0.00473344
0.00442013
0.00411925
0.00383045
0.00355357
0.0032884
0.00303485
0.00279293
0.00256286
0.00234514
0.00214093
0.00195304
0.0017855
0.00163597
0.00150127
0.00137852
0.00126482
0.00115734
0.00105338
0.000950555
0.000846805
0.000740382
0.000630073
0.000516147
0.000402861
0.000293785
0.0123396
0.011798
0.0112724
0.0107627
0.0102685
0.00978953
0.00932539
0.00887554
0.00843956
0.00801699
0.00760742
0.00721047
0.0068258
0.00645305
0.00609195
0.00574229
0.00540382
0.00507637
0.00475974
0.00445372
0.00415816
0.00387292
0.00359786
0.00333297
0.00307827
0.00283393
0.00260027
0.00237813
0.00216949
0.00197904
0.00180729
0.00165165
0.00151009
0.00138038
0.0012599
0.00114569
0.00103481
0.000924547
0.00081259
0.00069741
0.000579511
0.000464423
0.000360409
0.0123537
0.0118538
0.0113661
0.0108907
0.0104275
0.00997633
0.00953684
0.00910877
0.00869177
0.0082856
0.00788991
0.00750446
0.00712899
0.00676324
0.00640704
0.00606022
0.00572264
0.00539424
0.00507494
0.00476463
0.00446328
0.00417076
0.00388709
0.00361226
0.00334638
0.00308961
0.00284223
0.00260486
0.00237897
0.00216822
0.0019763
0.00180081
0.00164027
0.0014934
0.00135824
0.00123209
0.00111181
0.000994165
0.000876245
0.000756084
0.000634245
0.000517249
0.000416209
0.0123681
0.0119057
0.0114524
0.0110084
0.0105735
0.0101478
0.00973093
0.00932281
0.0089233
0.00853222
0.0081494
0.00777466
0.0074078
0.00704866
0.00669713
0.00635317
0.00601671
0.00568773
0.00536624
0.00505228
0.00474587
0.00444699
0.0041557
0.0038721
0.00359634
0.00332858
0.00306912
0.00281852
0.00257784
0.0023498
0.0021396
0.00194593
0.00176742
0.00160344
0.00145293
0.00131379
0.00118304
0.00105724
0.000932937
0.000807703
0.000681991
0.000563081
0.000464347
0.012384
0.0119543
0.0115319
0.0111164
0.0107075
0.0103051
0.00990904
0.00951926
0.00913575
0.00875852
0.00838761
0.00802296
0.00766432
0.00731146
0.00696439
0.00662313
0.0062878
0.0059585
0.00563525
0.00531805
0.00500704
0.00470239
0.00440431
0.00411293
0.00382835
0.00355076
0.0032805
0.00301813
0.00276454
0.0025218
0.002295
0.002085
0.00188997
0.00170972
0.00154405
0.00139162
0.00124987
0.00111533
0.000984253
0.000853754
0.000724144
0.000603305
0.000506756
0.0123972
0.0119987
0.0116047
0.0112153
0.0108305
0.0104497
0.0100729
0.00969999
0.00933116
0.0089664
0.00860627
0.00825138
0.00790129
0.00755506
0.00721265
0.00687389
0.0065394
0.00620996
0.00588547
0.00556566
0.00525002
0.00493939
0.00463468
0.00433615
0.00404388
0.00375773
0.00347767
0.00320456
0.00293941
0.00268331
0.00244104
0.00221612
0.00200647
0.00181093
0.00162976
0.00146351
0.00131041
0.00116718
0.00102976
0.000894487
0.000761446
0.000638898
0.000544503
0.0124102
0.0120391
0.0116705
0.0113047
0.0109433
0.0105835
0.0102247
0.00986757
0.00951254
0.00915854
0.00880679
0.00846098
0.00812248
0.00778486
0.00744952
0.00711416
0.00677881
0.00644951
0.00612477
0.0058066
0.00548658
0.0051672
0.00485369
0.00454709
0.00424884
0.00395837
0.00367256
0.00338738
0.00311738
0.00284981
0.00259036
0.00234881
0.00212273
0.00192504
0.00173536
0.00155275
0.00138414
0.00122603
0.00107619
0.000933124
0.000794434
0.000669591
0.000577672
2.24993e-05
4.15967e-05
0.000108393
0.000190348
0.000283327
0.000383589
0.00049224
0.000610078
0.000737624
0.000875234
0.00102318
0.00118174
0.00135116
0.00153176
0.0017239
0.00192789
0.00214413
0.002373
0.00261487
0.00287008
0.00313891
0.00342145
0.0037175
0.00402652
0.00434728
0.00467799
0.00501629
0.00535958
0.00570516
0.00605041
0.00639301
0.00673088
0.00706216
0.00738529
0.0076988
0.00800141
0.00829189
0.00856899
0.00883147
0.00907806
0.00930737
0.00951796
0.00970829
0.000111533
0.000114208
0.000196271
0.00029028
0.000397448
0.000514502
0.000641384
0.000778381
0.00092567
0.00108337
0.00125159
0.00143049
0.00162023
0.00182096
0.00203289
0.00225619
0.00249101
0.0027375
0.00299566
0.00326539
0.00354639
0.00383805
0.00413942
0.00444916
0.0047656
0.00508681
0.00541065
0.00573505
0.00605807
0.00637791
0.00669298
0.00700189
0.00730343
0.00759656
0.00788028
0.00815369
0.00841593
0.00866611
0.00890331
0.00912658
0.00933489
0.00952715
0.00970206
0.000201058
0.000195247
0.000279881
0.000390619
0.000517978
0.000657385
0.000806728
0.00096553
0.00113423
0.00131317
0.00150266
0.00170275
0.00191352
0.00213493
0.00236684
0.00260916
0.00286164
0.00312393
0.00339557
0.00367588
0.00396396
0.00425876
0.00455896
0.00486307
0.00516945
0.00547648
0.00578258
0.00608622
0.0063861
0.00668102
0.00696991
0.00725187
0.00752612
0.00779199
0.00804879
0.00829591
0.00853277
0.00875872
0.00897313
0.00917531
0.00936452
0.00954004
0.00970116
0.000276045
0.000274444
0.000368363
0.00050028
0.000650572
0.000813332
0.000985983
0.00116803
0.00135964
0.00156094
0.00177204
0.0019929
0.00222337
0.00246326
0.00271218
0.00296967
0.00323519
0.00350801
0.00378724
0.00407195
0.004361
0.00465315
0.00494707
0.0052414
0.00553487
0.00582621
0.00611423
0.00639794
0.00667641
0.00694887
0.00721462
0.00747305
0.00772364
0.00796596
0.00819955
0.00842403
0.00863898
0.00884398
0.00903858
0.00922227
0.00939455
0.00955486
0.00970256
0.000341309
0.000351691
0.000460379
0.000613778
0.000786938
0.000972725
0.00116857
0.00137369
0.00158782
0.00181079
0.00204239
0.00228235
0.0025303
0.00278579
0.00304822
0.00331691
0.00359111
0.00386986
0.00415219
0.00443701
0.00472319
0.00500952
0.00529485
0.00557806
0.00585817
0.00613425
0.00640552
0.00667127
0.00693088
0.0071838
0.00742958
0.0076678
0.00789815
0.0081203
0.00833403
0.0085391
0.00873524
0.00892218
0.00909959
0.00926715
0.00942449
0.00957128
0.00970716
0.00039992
0.000427061
0.000553544
0.00072774
0.000922879
0.00113085
0.00134882
0.00157562
0.00181058
0.00205323
0.00230306
0.00255951
0.00282202
0.00308996
0.00336258
0.00363908
0.00391859
0.00420016
0.00448275
0.00476531
0.00504674
0.00532598
0.00560207
0.00587419
0.00614162
0.00640376
0.00666009
0.00691012
0.00715343
0.00738961
0.00761833
0.0078393
0.00805231
0.00825723
0.00845393
0.00864237
0.0088224
0.00899378
0.00915629
0.00930971
0.00945385
0.00958849
0.00971333
0.000453674
0.000500245
0.000645969
0.000840253
0.00105625
0.00128511
0.00152353
0.00177002
0.0020236
0.00228352
0.00254894
0.00281907
0.00309317
0.00337063
0.00365063
0.00393228
0.00421471
0.00449706
0.0047783
0.00505736
0.00533318
0.00560492
0.00587189
0.00613352
0.0063893
0.00663896
0.00688224
0.00711874
0.00734815
0.00757012
0.00778427
0.00799046
0.00818864
0.00837868
0.00856076
0.00873504
0.0089013
0.00905928
0.00920884
0.00934986
0.00948231
0.00960615
0.00972128
0.000503018
0.000570488
0.000736692
0.000950929
0.00118678
0.00143482
0.00169126
0.00195494
0.00222513
0.00250021
0.00277878
0.00305973
0.00334252
0.00362695
0.00391209
0.00419681
0.00448054
0.00476249
0.00504156
0.00531638
0.00558601
0.00585019
0.00610852
0.00636042
0.00660546
0.00684406
0.00707605
0.00730104
0.00751888
0.00772885
0.00793044
0.0081239
0.00830931
0.00848621
0.00865577
0.00881829
0.00897287
0.00911921
0.00925746
0.00938757
0.00950966
0.00962384
0.0097305
0.000550942
0.000644166
0.000833212
0.00106626
0.00131951
0.00158321
0.00185147
0.00212907
0.00241552
0.00270467
0.00299389
0.00328199
0.00357012
0.00385979
0.00414859
0.00443434
0.0047184
0.00499964
0.00527633
0.00554582
0.00580831
0.00606558
0.00631626
0.00655901
0.00679354
0.00702259
0.00724497
0.00746046
0.00766936
0.00786907
0.00805928
0.00824187
0.00841643
0.00858045
0.0087401
0.00889371
0.00903804
0.00917399
0.00930239
0.00942287
0.00953568
0.00964064
0.00973906
1.25263e-05
0.000407913
0.000852023
0.00134182
0.00186721
0.00242103
0.00299753
0.00359575
0.00421458
0.00485259
0.00550934
0.00618414
0.0068775
0.00758864
0.00831808
0.00906695
0.00983413
0.0106208
0.0114264
0.0122517
0.0130978
0.0139633
0.0148501
0.0157576
0.0166851
0.0176337
0.0186037
0.0195964
0.0206106
0.0216469
0.0227054
0.0237864
0.0248901
0.0260164
0.0271663
0.0283387
0.0295337
0.0307515
0.0319921
0.0332546
0.034539
0.0358446
0.037172
1.31255e-05
0.00030618
0.000658027
0.00106177
0.00151119
0.00199939
0.00252098
0.00307316
0.00365304
0.00425865
0.00488821
0.00554149
0.00621727
0.00691442
0.00763352
0.00837418
0.00913604
0.00991875
0.0107224
0.0115471
0.0123928
0.0132597
0.0141488
0.015059
0.0159916
0.0169458
0.0179222
0.0189216
0.0199438
0.020988
0.0220551
0.0231458
0.0242591
0.0253956
0.0265552
0.027738
0.0289439
0.0301727
0.0314244
0.0326981
0.0339942
0.0353121
0.036654
6.88288e-06
0.000248882
0.000554952
0.000907482
0.00130586
0.00174544
0.0022218
0.00273265
0.00327454
0.00384582
0.00444545
0.0050718
0.0057234
0.00640043
0.00710205
0.00782767
0.00857615
0.00934787
0.0101432
0.0109611
0.0118014
0.0126651
0.0135514
0.0144606
0.0153929
0.0163481
0.0173264
0.0183284
0.0193534
0.0204019
0.0214739
0.0225699
0.0236887
0.0248309
0.0259968
0.0271866
0.0283997
0.029636
0.0308949
0.0321768
0.0334815
0.0348083
0.0361589
3.98507e-06
0.000212257
0.000491859
0.000812302
0.00117674
0.0015813
0.0020227
0.00249908
0.00300795
0.00354824
0.00411879
0.00471751
0.00534403
0.00599794
0.00667859
0.0073852
0.00811699
0.00887399
0.00965634
0.0104626
0.0112937
0.0121495
0.0130298
0.0139336
0.0148618
0.0158142
0.0167909
0.0177918
0.018817
0.0198662
0.0209399
0.0220377
0.0231597
0.0243059
0.0254759
0.02667
0.0278879
0.0291294
0.0303942
0.0316826
0.0329941
0.0343291
0.0356895
2.93945e-06
0.000188114
0.000447424
0.000742804
0.00107987
0.00145614
0.00186933
0.00231727
0.00279862
0.00331205
0.00385655
0.0044304
0.00503368
0.00566553
0.00632534
0.00701264
0.00772726
0.00846885
0.00923625
0.0100296
0.0108492
0.0116951
0.0125661
0.0134624
0.0143843
0.0153317
0.0163044
0.0173022
0.0183248
0.0193726
0.0204457
0.0215438
0.0226668
0.0238144
0.0249866
0.0261835
0.0274048
0.0286499
0.0299193
0.0312123
0.0325289
0.0338685
0.0352327
2.10539e-06
0.000166616
0.000412117
0.000689356
0.00100588
0.00136028
0.00175069
0.00217527
0.00263309
0.00312318
0.00364389
0.00419542
0.0047771
0.00538785
0.00602773
0.00669631
0.00739291
0.00811762
0.00886981
0.00964955
0.0104567
0.0112906
0.0121514
0.0130384
0.0139518
0.0148923
0.0158592
0.0168523
0.0178707
0.0189152
0.0199864
0.0210831
0.022205
0.0233524
0.0245254
0.0257241
0.0269472
0.0281948
0.0294672
0.0307635
0.0320834
0.0334264
0.0347929
1.70158e-06
0.00015213
0.000385979
0.000648043
0.000947403
0.00128337
0.00165447
0.00205907
0.00249646
0.00296554
0.00346609
0.00399732
0.00455853
0.00514987
0.00577145
0.00642206
0.00710126
0.00780929
0.00854637
0.00931183
0.0101054
0.0109271
0.0117769
0.0126535
0.0135579
0.0144901
0.0154501
0.0164364
0.0174496
0.01849
0.0195574
0.0206513
0.0217712
0.0229173
0.0240898
0.0252884
0.0265123
0.0277617
0.0290353
0.0303339
0.0316566
0.0330028
0.0343725
1.39263e-06
0.000139252
0.000363348
0.000613111
0.000898334
0.00121895
0.00157346
0.001961
0.00238065
0.00283184
0.00331433
0.00382714
0.0043705
0.0049442
0.00554827
0.0061816
0.00684421
0.00753659
0.0082585
0.00900954
0.00978929
0.0105984
0.0114361
0.0123025
0.0131972
0.0141205
0.0150719
0.0160508
0.0170582
0.0180932
0.0191559
0.0202458
0.0213626
0.0225065
0.0236774
0.0248749
0.0260986
0.0273479
0.0286227
0.0299227
0.0312476
0.0325967
0.0339706
1.16423e-06
0.000128138
0.000343932
0.000583301
0.000856512
0.00116369
0.00150395
0.00187654
0.00228076
0.00271618
0.00318243
0.00367918
0.00420617
0.00476356
0.00535101
0.00596807
0.00661551
0.00729281
0.00799987
0.00873679
0.00950346
0.0102995
0.0111253
0.0119807
0.0128652
0.0137787
0.0147209
0.0156925
0.0166928
0.0177213
0.0187784
0.0198635
0.0209763
0.022117
0.0232855
0.0244813
0.0257037
0.0269526
0.0282276
0.0295285
0.0308548
0.0322064
0.0335834
9.94333e-07
0.000118535
0.000327333
0.000557746
0.000820293
0.00111579
0.00144363
0.00180317
0.00219379
0.00261519
0.00306678
0.00354856
0.00406065
0.00460284
0.00517529
0.00577758
0.00641035
0.00707316
0.00776623
0.00848976
0.00924307
0.0100265
0.0108403
0.0116845
0.0125583
0.0134616
0.0143949
0.015358
0.0163504
0.0173719
0.0184227
0.0195023
0.0206107
0.0217476
0.0229125
0.0241059
0.0253264
0.0265739
0.0278485
0.0291497
0.0304768
0.0318298
0.0332099
8.82447e-07
0.000110217
0.000313062
0.000535435
0.00078864
0.00107377
0.00139069
0.00173862
0.00211704
0.00252564
0.00296375
0.0034321
0.00393053
0.00445904
0.00501743
0.00560607
0.00622482
0.00687402
0.0075541
0.00826427
0.00900462
0.00977569
0.0105776
0.0114103
0.0122732
0.0131669
0.0140907
0.0150448
0.0160291
0.0170434
0.0180874
0.019161
0.0202642
0.0213962
0.0225575
0.0237476
0.0249652
0.026211
0.0274845
0.028785
0.0301117
0.0314649
0.0328451
8.32876e-07
0.000102933
0.000300324
0.000515557
0.000760568
0.00103672
0.00134364
0.00168091
0.00204823
0.00244511
0.00287146
0.00332764
0.00381358
0.00432901
0.00487468
0.0054503
0.00605597
0.00669243
0.00735948
0.00805684
0.00878515
0.00954427
0.0103346
0.0111559
0.0120084
0.0128917
0.013806
0.0147507
0.0157268
0.0167335
0.0177704
0.0188379
0.019935
0.0210621
0.022219
0.0234049
0.0246198
0.0258628
0.0271342
0.0284331
0.0297592
0.0311114
0.0324896
7.86273e-07
9.65258e-05
0.000288927
0.000497647
0.000735381
0.0010035
0.00130171
0.00162944
0.00198653
0.00237282
0.00278832
0.00323343
0.00370737
0.00421109
0.00474481
0.00530814
0.00590167
0.00652598
0.00718063
0.00786618
0.00858265
0.00933046
0.0101093
0.0109196
0.0117612
0.0126344
0.0135388
0.0144749
0.0154424
0.0164407
0.0174706
0.0185311
0.0196219
0.0207435
0.0218952
0.0230771
0.0242884
0.0255284
0.0267974
0.0280947
0.0294191
0.0307702
0.0321484
7.6031e-07
9.07444e-05
0.000278762
0.000481878
0.000712772
0.000973523
0.0012638
0.00158295
0.00193081
0.00230731
0.00271275
0.00314731
0.00361076
0.00410346
0.00462574
0.00517758
0.00575976
0.00637249
0.0070158
0.00768986
0.0083952
0.00913161
0.00989936
0.010699
0.0115303
0.0123932
0.0132883
0.0142153
0.0151736
0.0161641
0.0171861
0.0182392
0.0193238
0.0204397
0.0215859
0.0227632
0.0239706
0.0252072
0.0264732
0.0277683
0.0290913
0.0304426
0.0318235
7.51877e-07
8.56093e-05
0.000269584
0.000467598
0.000692427
0.000946334
0.00122893
0.00154015
0.0018797
0.00224748
0.00264354
0.00306817
0.00352177
0.00400442
0.00451609
0.00505726
0.00562865
0.0062305
0.00686296
0.00752595
0.00822017
0.00894564
0.00970304
0.0104924
0.0113135
0.0121666
0.0130521
0.0139696
0.0149196
0.0159018
0.016916
0.0179618
0.0190398
0.0201492
0.02129
0.0224622
0.023665
0.0248977
0.0261607
0.0274534
0.0287745
0.0301243
0.0315025
7.3846e-07
8.07935e-05
0.000261095
0.000454562
0.000673806
0.000921373
0.00119712
0.00150096
0.00183276
0.00219247
0.00257978
0.00299542
0.00343975
0.00391275
0.00441449
0.00494596
0.0055072
0.00609856
0.00672059
0.00737307
0.00805669
0.00877206
0.00951903
0.0102982
0.0111095
0.0119531
0.0128289
0.0137375
0.0146788
0.0156526
0.0166588
0.0176974
0.0187684
0.0198717
0.0210069
0.0221734
0.0233711
0.0245998
0.0258593
0.0271488
0.0284678
0.0298165
0.031196
7.19096e-07
7.62155e-05
0.000253021
0.000442274
0.000656389
0.000898272
0.0011678
0.00146477
0.00178936
0.00214133
0.00252082
0.00292825
0.00336379
0.00382767
0.00432016
0.00484245
0.005394
0.00597544
0.00658743
0.00722994
0.00790382
0.00860926
0.00934635
0.0101154
0.0109171
0.0117513
0.0126181
0.0135175
0.01445
0.0154154
0.0164138
0.0174453
0.0185091
0.0196058
0.0207351
0.0218958
0.0230885
0.0243129
0.0255682
0.026854
0.0281703
0.0295164
0.0308928
7.02737e-07
7.22842e-05
0.000245799
0.000431084
0.00064038
0.000877008
0.00114059
0.00143138
0.00174917
0.00209389
0.00246607
0.00286559
0.003293
0.00374833
0.00423241
0.00474584
0.00528809
0.0058602
0.00646291
0.00709613
0.00776026
0.00845607
0.00918365
0.00994327
0.0107355
0.0115606
0.0124182
0.0133089
0.0142327
0.0151899
0.0161808
0.0172043
0.0182608
0.0193508
0.0204739
0.0216289
0.0228165
0.0240362
0.0252869
0.0265691
0.0278816
0.0292244
0.0305967
6.88706e-07
6.87167e-05
0.000239021
0.000420761
0.000625556
0.000857104
0.00111535
0.00140038
0.00171177
0.00204999
0.0024151
0.00280724
0.00322698
0.0036743
0.00415041
0.00465532
0.005189
0.00575245
0.00634624
0.00697038
0.00762531
0.0083118
0.00903045
0.00978076
0.0105639
0.0113799
0.0122286
0.0131105
0.014026
0.0149751
0.0159577
0.0169738
0.0180232
0.0191064
0.0202229
0.021372
0.0225544
0.0237687
0.0250152
0.0262928
0.0276017
0.0289403
0.0303086
6.75682e-07
6.56004e-05
0.000232831
0.000411285
0.000612045
0.000838997
0.00109222
0.00137163
0.0016771
0.00200896
0.00236736
0.00275259
0.00316521
0.00360538
0.00407344
0.00457012
0.00509576
0.0056509
0.00623596
0.00685162
0.00749776
0.00817544
0.00888499
0.00962667
0.0104011
0.0112084
0.0120483
0.0129218
0.0138289
0.0147698
0.0157445
0.016753
0.0177955
0.0188717
0.0199814
0.0211248
0.0223012
0.0235104
0.0247517
0.0260254
0.02733
0.0286647
0.0300293
6.58157e-07
6.25563e-05
0.000226976
0.000402264
0.000599154
0.000821774
0.00107017
0.00134456
0.00164464
0.00197046
0.00232258
0.00270138
0.00310722
0.00354012
0.00400089
0.00449005
0.00500803
0.00555495
0.00613169
0.00673904
0.007377
0.00804595
0.00874703
0.00948028
0.010246
0.0110445
0.0118763
0.0127416
0.0136405
0.0145735
0.0155402
0.0165415
0.0175766
0.0186459
0.0197494
0.0208864
0.022057
0.0232608
0.0244974
0.0257663
0.027067
0.0283983
0.0297599
6.43066e-07
5.97332e-05
0.000221279
0.000393774
0.000587214
0.000805594
0.00104942
0.00131882
0.00161373
0.00193413
0.00228057
0.00265338
0.00305253
0.00347878
0.00393276
0.00441465
0.00492497
0.0054641
0.00603316
0.00663276
0.00726267
0.00792366
0.00861633
0.00934102
0.0100982
0.0108884
0.0117122
0.0125692
0.0134603
0.0143853
0.0153447
0.0163385
0.0173667
0.0184292
0.0195258
0.0206565
0.0218215
0.02302
0.0242513
0.025516
0.0268129
0.0281414
0.0295018
6.32391e-07
5.73901e-05
0.000216176
0.000385997
0.000576048
0.000790473
0.00102999
0.00129479
0.00158491
0.0019002
0.00224101
0.00260786
0.00300104
0.00342111
0.00386823
0.00434309
0.00484639
0.00537833
0.0059399
0.00653165
0.00715392
0.0078072
0.00849163
0.00920825
0.00995765
0.01074
0.0115554
0.0124047
0.013288
0.0142052
0.015157
0.0161438
0.017165
0.0182205
0.0193105
0.0204351
0.0215943
0.0227871
0.0240137
0.0252738
0.0265669
0.0278919
0.0292489
6.24213e-07
5.53448e-05
0.000211298
0.000378657
0.000565493
0.000776263
0.00101193
0.0012724
0.00155795
0.0018682
0.00220359
0.00256484
0.00295237
0.00336612
0.00380669
0.00427504
0.00477173
0.00529696
0.00585133
0.00643559
0.00705041
0.00769588
0.00837284
0.009082
0.00982377
0.0105982
0.0114058
0.0122471
0.0131227
0.0140327
0.0149769
0.0159563
0.0169702
0.018019
0.0191028
0.0202216
0.0213744
0.0225622
0.023784
0.0250394
0.0263285
0.0276507
0.0290066
6.18456e-07
5.38187e-05
0.00020665
0.000371634
0.000555339
0.000762798
0.00099487
0.00125125
0.00153229
0.00183781
0.00216809
0.00252409
0.00290602
0.003314
0.00374861
0.00421063
0.00470091
0.00521944
0.00576691
0.00634432
0.00695173
0.00758998
0.00825967
0.00896123
0.0096952
0.0104621
0.011262
0.012096
0.0129644
0.0138669
0.014804
0.0157757
0.0167829
0.017825
0.0189026
0.0200149
0.021162
0.0223444
0.0235611
0.0248119
0.0260972
0.027416
0.0287683
6.23475e-07
5.34048e-05
0.000202468
0.000365092
0.000546032
0.000750135
0.000978384
0.00123095
0.00150782
0.00180891
0.00213465
0.00248555
0.00286217
0.00326454
0.00369332
0.00414943
0.00463349
0.00514573
0.00568677
0.00625724
0.00685763
0.00748888
0.00815146
0.00884572
0.00957246
0.0103318
0.0111244
0.0119512
0.0128121
0.0137074
0.0146373
0.0156023
0.0166024
0.017638
0.018709
0.0198151
0.0209566
0.0221335
0.0233452
0.0245916
0.0258724
0.0271881
0.0285392
6.39026e-07
5.3996e-05
0.000198674
0.000359009
0.000537282
0.0007383
0.000963096
0.001212
0.00148473
0.00178164
0.00210286
0.00244896
0.0028203
0.00321719
0.00364068
0.00409107
0.00456902
0.00507526
0.00561006
0.0061739
0.00676764
0.007392
0.00804769
0.00873523
0.00945481
0.010207
0.0109926
0.0118121
0.0126657
0.0135538
0.0144769
0.0154349
0.0164281
0.0174572
0.0185219
0.019622
0.0207577
0.0219289
0.0231356
0.0243771
0.0256532
0.0269639
0.0283091
6.56513e-07
5.4777e-05
0.000194793
0.000353075
0.000528709
0.000726713
0.000948366
0.00119369
0.00146254
0.00175536
0.00207222
0.00241391
0.00278046
0.00317231
0.00359044
0.00403528
0.00450759
0.00500788
0.00553628
0.00609402
0.00668136
0.00729931
0.00794839
0.00862876
0.0093414
0.010087
0.0108658
0.0116783
0.0125247
0.013406
0.0143222
0.0152734
0.01626
0.0172826
0.0183409
0.0194349
0.0205649
0.0217304
0.0229315
0.0241677
0.0254389
0.0267446
0.0280838
6.78367e-07
5.59259e-05
0.000191237
0.000347468
0.000520732
0.000715966
0.000934368
0.00117614
0.00144153
0.00173036
0.00204302