/*--------------------------------*- C++ -*----------------------------------*\
| =========                 |                                                 |
| \\      /  F ield         | OpenFOAM: The Open Source CFD Toolbox           |
|  \\    /   O peration     | Version:  2.3.0                                 |
|   \\  /    A nd           | Web:      www.OpenFOAM.org                      |
|    \\/     M anipulation  |                                                 |
\*---------------------------------------------------------------------------*/
FoamFile
{
    version     2.0;
    format      ascii;
    class       volScalarField;
    location    "10000";
    object      nuTilda;
}
// * * * * * * * * * * * * * * * * * * * * * * * * * * * * * * * * * * * * * //

dimensions      [0 2 -1 0 0 0 0];

internalField   nonuniform List<scalar> 
123128
(
0.0377449
0.0364792
0.0352344
0.0340094
0.0328045
0.0316196
0.0304559
0.0293129
0.0281903
0.0270887
0.0260081
0.024948
0.0239085
0.0228886
0.0218897
0.0209102
0.01995
0.0190095
0.0180884
0.0171861
0.0163016
0.0154358
0.0145878
0.0137577
0.0129457
0.0121511
0.011374
0.0106141
0.00987133
0.00914616
0.00843845
0.00774777
0.00707491
0.0064209
0.00578658
0.00517386
0.00458451
0.00402092
0.00348795
0.0029922
0.00253444
0.00210477
0.00155323
0.0383548
0.0372059
0.0360742
0.0349583
0.0338579
0.032774
0.0317066
0.0306552
0.0296197
0.0286002
0.0275969
0.0266101
0.0256386
0.0246826
0.0237421
0.0228164
0.0219052
0.021009
0.0201275
0.0192602
0.0184067
0.0175672
0.0167412
0.0159291
0.0151314
0.014347
0.0135766
0.0128204
0.0120786
0.0113528
0.010643
0.00994954
0.00927478
0.00862082
0.00798906
0.00738241
0.00680324
0.00625722
0.0057481
0.00528028
0.0048587
0.00448507
0.00416164
0.0389359
0.0378907
0.0368598
0.0358409
0.0348348
0.0338412
0.0328595
0.0318906
0.0309334
0.0299883
0.0290558
0.0281355
0.0272266
0.0263292
0.0254431
0.0245679
0.0237036
0.0228502
0.0220079
0.0211762
0.0203548
0.0195436
0.0187436
0.0179542
0.0171755
0.0164081
0.0156531
0.0149097
0.0141793
0.0134636
0.0127626
0.0120772
0.0114108
0.0107649
0.010142
0.00954489
0.00897822
0.00844403
0.00794676
0.00749141
0.00708105
0.00671941
0.00640814
0.0394846
0.0385328
0.0375918
0.0366602
0.0357378
0.0348238
0.033919
0.0330235
0.0321361
0.0312578
0.030388
0.0295266
0.0286734
0.0278285
0.0269918
0.026163
0.025341
0.0245268
0.0237201
0.0229214
0.0221297
0.0213457
0.0205698
0.0198021
0.0190425
0.0182921
0.0175512
0.016821
0.0161015
0.0153953
0.0147027
0.0140257
0.0133667
0.0127271
0.0121101
0.011519
0.0109567
0.010427
0.00993326
0.0094794
0.00906906
0.00870339
0.00838514
0.04
0.0391321
0.0382716
0.0374176
0.0365694
0.0357271
0.0348907
0.0340594
0.0332338
0.0324138
0.0315992
0.0307904
0.0299871
0.0291888
0.0283962
0.0276081
0.0268244
0.0260451
0.0252707
0.0245014
0.0237371
0.0229773
0.0222229
0.0214742
0.0207319
0.0199962
0.0192689
0.0185497
0.0178402
0.0171417
0.0164563
0.0157857
0.0151312
0.0144956
0.013882
0.0132931
0.0127324
0.0122026
0.011708
0.0112524
0.0108368
0.0104654
0.0101382
0.0404803
0.0396885
0.0389004
0.0381156
0.0373339
0.0365551
0.0357786
0.0350044
0.0342331
0.0334644
0.0326988
0.0319366
0.0311766
0.0304193
0.0296652
0.0289131
0.0281634
0.0274155
0.0266701
0.025927
0.025186
0.0244476
0.0237123
0.0229803
0.0222528
0.0215309
0.0208147
0.0201051
0.0194033
0.0187117
0.0180317
0.0173651
0.0167136
0.0160804
0.0154687
0.0148804
0.0143184
0.0137875
0.0132904
0.0128299
0.0124094
0.0120309
0.0116965
0.0409285
0.0402043
0.0394807
0.0387576
0.0380346
0.0373112
0.0365884
0.0358653
0.0351414
0.0344178
0.0336952
0.0329734
0.0322513
0.0315299
0.0308097
0.0300901
0.0293704
0.0286503
0.0279298
0.0272096
0.0264896
0.0257703
0.0250517
0.0243348
0.0236204
0.0229095
0.0222028
0.0215009
0.0208057
0.0201196
0.0194433
0.0187792
0.0181302
0.0174986
0.0168872
0.0162982
0.0157354
0.0152021
0.0147013
0.0142362
0.0138098
0.0134256
0.0130838
0.0413462
0.0406819
0.0400145
0.0393465
0.038675
0.0380015
0.0373268
0.0366492
0.0359666
0.0352821
0.0345963
0.0339103
0.0332221
0.0325314
0.0318404
0.0311494
0.0304574
0.0297618
0.0290619
0.0283628
0.0276626
0.0269604
0.0262562
0.0255522
0.0248482
0.0241469
0.0234485
0.0227535
0.022063
0.0213806
0.0207074
0.0200456
0.019397
0.0187661
0.0181554
0.0175658
0.0170009
0.0164655
0.0159603
0.015491
0.0150597
0.0146696
0.0143223
0.0417335
0.0411258
0.0405042
0.0398865
0.0392611
0.0386293
0.0379972
0.0373625
0.0367151
0.0360651
0.0354088
0.0347554
0.0340982
0.0334325
0.0327654
0.032099
0.0314333
0.0307638
0.0300778
0.0293979
0.0287147
0.0280303
0.0273374
0.0266446
0.0259489
0.0252564
0.0245655
0.0238792
0.0231889
0.022508
0.0218385
0.0211786
0.0205288
0.0198967
0.0192894
0.0186983
0.0181317
0.017594
0.0170838
0.0166127
0.0161738
0.0157801
0.0154314
0.00125071
0.00125966
0.00134624
0.00147256
0.0016337
0.00182136
0.00202994
0.00225474
0.00249124
0.0027382
0.00299248
0.00325232
0.00351683
0.00378621
0.004059
0.00433566
0.00461663
0.00490233
0.00519382
0.00549142
0.00579578
0.00610817
0.00642889
0.0067585
0.00709778
0.00744669
0.00780661
0.00817785
0.00856105
0.00895685
0.00936577
0.00978853
0.0102257
0.0106776
0.0111452
0.0116284
0.0121282
0.0126448
0.013179
0.0137317
0.0143035
0.0148948
0.0155052
0.00390654
0.00374644
0.00370466
0.0037219
0.00377506
0.00385851
0.00396701
0.00409785
0.00425059
0.00442158
0.00461072
0.00481447
0.00503166
0.00525878
0.0054974
0.00574568
0.00600375
0.00627126
0.00654894
0.00683625
0.00713312
0.0074387
0.00775384
0.00807802
0.0084112
0.00875454
0.00910769
0.00947095
0.00984463
0.0102296
0.0106259
0.0110334
0.0114533
0.0118847
0.0123286
0.0127852
0.013255
0.0137385
0.0142363
0.0147491
0.0152776
0.0158223
0.0163843
0.00614736
0.00593557
0.00577538
0.00566391
0.00560059
0.005581
0.00560631
0.00568742
0.00581439
0.00596929
0.00614069
0.00632396
0.0065188
0.00672668
0.00694639
0.00718085
0.00742773
0.00768761
0.00795727
0.00823675
0.00852502
0.0088217
0.00912671
0.00944022
0.00976272
0.0100936
0.0104337
0.0107831
0.0111418
0.0115099
0.0118874
0.0122744
0.0126705
0.0130768
0.0134925
0.0139189
0.014356
0.0148044
0.0152645
0.015737
0.0162227
0.0167222
0.017236
0.00811202
0.00788292
0.00769697
0.0075558
0.00745818
0.00740208
0.00738701
0.00740877
0.00746544
0.00755282
0.00766531
0.00780197
0.00796195
0.00814634
0.0083562
0.00858567
0.00882877
0.00908075
0.00934192
0.00960992
0.00988559
0.0101698
0.0104619
0.0107627
0.0110714
0.0113892
0.0117154
0.0120495
0.0123913
0.0127408
0.0130977
0.013462
0.0138342
0.0142137
0.0146016
0.0149979
0.0154031
0.0158177
0.016242
0.0166767
0.0171223
0.0175791
0.0180477
0.00985578
0.00961562
0.00941823
0.00926308
0.00914915
0.00907562
0.00903894
0.00903884
0.00907031
0.00913161
0.00922021
0.009333
0.00946969
0.00962783
0.00980654
0.0100029
0.0102141
0.0104393
0.0106753
0.010923
0.0111812
0.0114492
0.0117275
0.0120152
0.012312
0.0126166
0.0129281
0.0132463
0.0135707
0.0139013
0.0142375
0.0145799
0.0149279
0.0152825
0.015644
0.0160129
0.0163889
0.0167727
0.0171647
0.0175651
0.0179741
0.018392
0.0188183
0.0114053
0.0111565
0.0109497
0.0107848
0.0106609
0.0105754
0.0105279
0.0105146
0.010533
0.0105814
0.0106565
0.0107567
0.010879
0.0110228
0.0111856
0.0113652
0.0115607
0.0117691
0.0119901
0.0122221
0.0124633
0.0127144
0.0129749
0.0132441
0.0135216
0.0138062
0.0140974
0.0143953
0.0146992
0.0150084
0.0153228
0.0156424
0.015968
0.0162994
0.0166366
0.0169803
0.0173299
0.0176861
0.0180485
0.0184177
0.0187934
0.0191762
0.0195669
0.0127843
0.0125274
0.0123129
0.0121406
0.0120085
0.011916
0.0118599
0.0118388
0.0118488
0.0118888
0.0119558
0.0120477
0.0121621
0.0122967
0.0124503
0.0126202
0.0128057
0.0130043
0.0132131
0.0134316
0.01366
0.0138983
0.0141446
0.0143995
0.0146621
0.0149313
0.0152061
0.0154871
0.0157729
0.0160631
0.0163576
0.0166573
0.016962
0.0172721
0.0175874
0.0179077
0.0182327
0.0185627
0.0188974
0.0192371
0.0195816
0.0199308
0.0202852
0.0140144
0.0137498
0.0135293
0.0133497
0.0132117
0.0131129
0.013051
0.0130234
0.0130286
0.0130633
0.0131252
0.0132117
0.01332
0.0134484
0.0135968
0.01376
0.01394
0.0141294
0.0143266
0.014534
0.0147534
0.0149815
0.0152169
0.0154602
0.0157132
0.0159683
0.0162292
0.0164971
0.0167673
0.0170401
0.0173169
0.0175993
0.0178874
0.0181793
0.0184753
0.0187751
0.0190773
0.0193835
0.0196941
0.0200072
0.020323
0.0206417
0.0209646
0.0151117
0.0148405
0.0146153
0.0144295
0.0142869
0.0141839
0.0141154
0.0140838
0.0140869
0.0141175
0.014175
0.0142579
0.0143615
0.0144854
0.0146332
0.0147875
0.0149701
0.0151426
0.0153294
0.015528
0.0157449
0.0159631
0.0161887
0.0164246
0.0166731
0.0169079
0.0171616
0.017419
0.0176725
0.0179291
0.0181919
0.0184629
0.0187387
0.0190135
0.0192944
0.0195757
0.0198556
0.0201426
0.0204333
0.0207218
0.0210125
0.0213046
0.0216034
0.012301
0.0116114
0.0109526
0.0103228
0.00972079
0.00914537
0.0085955
0.00807019
0.00756857
0.00708976
0.00663299
0.00619749
0.00578255
0.00538757
0.00501196
0.00465507
0.00431626
0.00399492
0.00369049
0.00340245
0.00313031
0.00287372
0.00263244
0.00240645
0.00219603
0.00200201
0.001826
0.00167032
0.00153571
0.00141798
0.00131187
0.00121347
0.00111993
0.00102916
0.000939591
0.000849934
0.000759052
0.000665952
0.000569767
0.000469798
0.000366117
0.00026213
0.00014289
0.0123125
0.0116749
0.0110624
0.0104744
0.00990998
0.00936823
0.00884827
0.00834931
0.00787057
0.00741133
0.00697091
0.0065487
0.00614406
0.00575652
0.00538557
0.00503079
0.00469168
0.00436778
0.00405863
0.0037638
0.00348293
0.0032157
0.00296191
0.0027214
0.0024943
0.00228097
0.00208229
0.00189996
0.00173735
0.00159486
0.00146837
0.00135385
0.00124793
0.00114771
0.00105081
0.000955218
0.000859289
0.000761596
0.000660965
0.000556573
0.000448738
0.00034141
0.0002328
0.0123259
0.0117383
0.011171
0.0106237
0.0100957
0.00958656
0.00909555
0.00862206
0.00816547
0.00772518
0.00730066
0.00689142
0.00649699
0.00611695
0.00575089
0.00539849
0.0050595
0.0047335
0.0044202
0.00411933
0.00383055
0.00355368
0.00328853
0.003035
0.00279311
0.00256307
0.00234539
0.00214123
0.0019534
0.00178593
0.00163649
0.00150188
0.00137925
0.00126569
0.00115837
0.00105462
0.000952075
0.000848716
0.000742874
0.000633493
0.000521178
0.000410875
0.000307699
0.0123396
0.011798
0.0112724
0.0107627
0.0102685
0.00978954
0.0093254
0.00887556
0.00843958
0.00801701
0.00760744
0.00721049
0.00682583
0.00645308
0.00609199
0.00574233
0.00540387
0.00507642
0.0047598
0.00445379
0.00415824
0.00387301
0.00359796
0.00333309
0.00307841
0.0028341
0.00260047
0.00237837
0.00216978
0.00197939
0.00180772
0.00165216
0.0015107
0.00138111
0.00126076
0.00114674
0.0010361
0.000926153
0.000814663
0.000700212
0.000583535
0.000470573
0.00037021
0.0123537
0.0118538
0.0113661
0.0108907
0.0104275
0.00997634
0.00953685
0.00910878
0.00869179
0.00828562
0.00788993
0.00750448
0.00712902
0.00676327
0.00640707
0.00606026
0.00572268
0.00539429
0.005075
0.0047647
0.00446335
0.00417084
0.00388718
0.00361237
0.00334651
0.00308975
0.0028424
0.00260507
0.00237921
0.00216851
0.00197665
0.00180123
0.00164078
0.00149402
0.00135898
0.001233
0.00111292
0.000995555
0.000878032
0.000758475
0.000637621
0.000522259
0.000423756
0.0123681
0.0119057
0.0114524
0.0110084
0.0105735
0.0101478
0.00973094
0.00932283
0.00892331
0.00853224
0.00814942
0.00777468
0.00740783
0.00704869
0.00669716
0.0063532
0.00601674
0.00568778
0.00536629
0.00505234
0.00474593
0.00444706
0.00415578
0.00387219
0.00359644
0.00332871
0.00306927
0.00281869
0.00257805
0.00235005
0.0021399
0.0019463
0.00176786
0.00160398
0.00145359
0.00131459
0.00118403
0.00105847
0.000934514
0.000809802
0.000684919
0.000567336
0.000470498
0.012384
0.0119543
0.011532
0.0111164
0.0107075
0.0103051
0.00990905
0.00951928
0.00913577
0.00875854
0.00838763
0.00802298
0.00766434
0.00731148
0.00696442
0.00662316
0.00628784
0.00595854
0.0056353
0.0053181
0.00500709
0.00470245
0.00440438
0.00411301
0.00382844
0.00355087
0.00328063
0.00301828
0.00276472
0.00252202
0.00229527
0.00208532
0.00189036
0.00171019
0.00154463
0.00139233
0.00125076
0.00111644
0.000985671
0.000855635
0.000726747
0.000607027
0.000511967
0.0123972
0.0119988
0.0116047
0.0112153
0.0108305
0.0104497
0.0100729
0.0097
0.00933118
0.00896642
0.00860629
0.0082514
0.00790131
0.00755509
0.00721268
0.00687392
0.00653943
0.00620999
0.00588551
0.0055657
0.00525007
0.00493945
0.00463475
0.00433622
0.00404396
0.00375783
0.00347778
0.00320469
0.00293957
0.0026835
0.00244127
0.0022164
0.00200682
0.00181136
0.00163028
0.00146416
0.00131121
0.00116819
0.00103106
0.000896202
0.000763804
0.000642226
0.000549042
0.0124102
0.0120391
0.0116705
0.0113047
0.0109433
0.0105835
0.0102247
0.00986759
0.00951256
0.00915855
0.00880681
0.008461
0.0081225
0.00778489
0.00744955
0.00711419
0.00677884
0.00644954
0.0061248
0.00580664
0.00548663
0.00516725
0.00485374
0.00454715
0.00424892
0.00395846
0.00367266
0.0033875
0.00311752
0.00284998
0.00259056
0.00234906
0.00212304
0.00192542
0.00173582
0.00155332
0.00138486
0.00122695
0.00107737
0.0009347
0.000796602
0.000672627
0.000581721
8.09734e-05
9.96308e-05
0.000151448
0.0002163
0.000298087
0.000392352
0.000497747
0.00061372
0.000740134
0.000877025
0.00102449
0.00118272
0.00135191
0.00153235
0.00172436
0.00192826
0.00214443
0.00237324
0.00261507
0.00287025
0.00313905
0.00342157
0.0037176
0.0040266
0.00434736
0.00467805
0.00501635
0.00535962
0.0057052
0.00605045
0.00639304
0.00673091
0.00706219
0.00738531
0.00769882
0.00800143
0.00829191
0.00856901
0.00883149
0.00907808
0.00930739
0.00951798
0.0097083
0.000153819
0.000155842
0.000221269
0.000304471
0.000405663
0.000519563
0.000644686
0.000780638
0.000927272
0.00108454
0.00125247
0.00143116
0.00162075
0.00182137
0.00203322
0.00225646
0.00249123
0.00273768
0.00299582
0.00326552
0.0035465
0.00383815
0.0041395
0.00444923
0.00476566
0.00508686
0.0054107
0.00573509
0.00605811
0.00637794
0.00669301
0.00700191
0.00730346
0.00759659
0.0078803
0.00815372
0.00841595
0.00866613
0.00890333
0.0091266
0.00933491
0.00952716
0.00970208
0.000225312
0.000220407
0.000294934
0.000399097
0.000522974
0.000660533
0.000808832
0.000967003
0.0011353
0.00131397
0.00150327
0.00170323
0.0019139
0.00213523
0.00236709
0.00260937
0.00286181
0.00312407
0.00339569
0.00367598
0.00396404
0.00425883
0.00455903
0.00486312
0.0051695
0.00547653
0.00578262
0.00608626
0.00638614
0.00668105
0.00696993
0.0072519
0.00752615
0.00779201
0.00804881
0.00829593
0.00853279
0.00875874
0.00897315
0.00917533
0.00936454
0.00954005
0.00970118
0.000291433
0.000289975
0.000377789
0.00050562
0.000653784
0.000815402
0.000987397
0.00116904
0.00136038
0.00156151
0.00177248
0.00199325
0.00222365
0.00246349
0.00271237
0.00296983
0.00323532
0.00350812
0.00378734
0.00407204
0.00436107
0.00465321
0.00494713
0.00524145
0.00553492
0.00582625
0.00611427
0.00639797
0.00667644
0.0069489
0.00721464
0.00747307
0.00772367
0.00796598
0.00819957
0.00842405
0.008639
0.008844
0.00903859
0.00922229
0.00939457
0.00955488
0.00970257
0.000352098
0.000361926
0.000466631
0.000617377
0.000789147
0.000974177
0.00116957
0.00137442
0.00158836
0.00181121
0.00204272
0.00228262
0.00253052
0.00278597
0.00304837
0.00331704
0.00359122
0.00386996
0.00415227
0.00443708
0.00472325
0.00500958
0.0052949
0.00557811
0.00585821
0.00613429
0.00640555
0.0066713
0.00693091
0.00718383
0.00742961
0.00766782
0.00789817
0.00812032
0.00833405
0.00853912
0.00873526
0.0089222
0.00909961
0.00926716
0.00942451
0.0095713
0.00970718
0.000408042
0.000434256
0.000557941
0.000730318
0.000924491
0.00113192
0.00134957
0.00157617
0.001811
0.00205356
0.00230332
0.00255972
0.0028222
0.0030901
0.0033627
0.00363919
0.00391868
0.00420024
0.00448282
0.00476537
0.0050468
0.00532602
0.00560211
0.00587423
0.00614165
0.00640379
0.00666012
0.00691015
0.00715345
0.00738964
0.00761836
0.00783932
0.00805234
0.00825725
0.00845395
0.00864239
0.00882241
0.00899379
0.00915631
0.00930973
0.00945386
0.0095885
0.00971334
0.000460101
0.000505586
0.000649226
0.000842194
0.00105748
0.00128594
0.00152413
0.00177046
0.00202394
0.00228378
0.00254915
0.00281924
0.00309332
0.00337075
0.00365073
0.00393237
0.00421479
0.00449713
0.00477837
0.00505742
0.00533323
0.00560497
0.00587193
0.00613355
0.00638933
0.00663899
0.00688227
0.00711877
0.00734818
0.00757014
0.00778429
0.00799048
0.00818866
0.0083787
0.00856078
0.00873506
0.00890132
0.0090593
0.00920886
0.00934988
0.00948233
0.00960617
0.00972129
0.000508302
0.000574636
0.000739209
0.000952447
0.00118775
0.00143549
0.00169174
0.00195531
0.00222541
0.00250043
0.00277895
0.00305988
0.00334264
0.00362705
0.00391218
0.00419689
0.00448061
0.00476255
0.00504161
0.00531643
0.00558605
0.00585023
0.00610856
0.00636045
0.00660549
0.00684409
0.00707608
0.00730106
0.0075189
0.00772888
0.00793046
0.00812392
0.00830933
0.00848623
0.00865579
0.00881831
0.00897289
0.00911923
0.00925748
0.00938759
0.00950968
0.00962385
0.00973052
0.000555379
0.000647441
0.000835185
0.00106747
0.0013203
0.00158376
0.00185187
0.00212937
0.00241576
0.00270486
0.00299405
0.00328212
0.00357023
0.00385988
0.00414867
0.00443441
0.00471846
0.00499969
0.00527638
0.00554586
0.00580835
0.00606561
0.00631629
0.00655905
0.00679357
0.00702261
0.007245
0.00746049
0.00766938
0.00786909
0.0080593
0.00824189
0.00841644
0.00858047
0.00874012
0.00889373
0.00903806
0.009174
0.00930241
0.00942289
0.00953569
0.00964066
0.00973908
6.78528e-05
0.000415745
0.000853911
0.00134258
0.00186761
0.00242127
0.00299768
0.00359585
0.00421466
0.00485265
0.00550939
0.00618418
0.00687753
0.00758867
0.0083181
0.00906696
0.00983414
0.0106208
0.0114264
0.0122517
0.0130978
0.0139633
0.0148502
0.0157576
0.0166851
0.0176337
0.0186037
0.0195964
0.0206106
0.0216469
0.0227054
0.0237864
0.0248901
0.0260164
0.0271663
0.0283387
0.0295337
0.0307515
0.0319921
0.0332546
0.034539
0.0358446
0.037172
6.87816e-05
0.000319173
0.000661169
0.00106299
0.0015118
0.00199974
0.0025212
0.00307331
0.00365314
0.00425872
0.00488827
0.00554154
0.0062173
0.00691444
0.00763355
0.0083742
0.00913606
0.00991877
0.0107225
0.0115471
0.0123928
0.0132597
0.0141488
0.015059
0.0159916
0.0169458
0.0179222
0.0189216
0.0199438
0.020988
0.0220551
0.0231458
0.0242591
0.0253956
0.0265552
0.027738
0.0289439
0.0301728
0.0314244
0.0326981
0.0339942
0.0353121
0.036654
5.73173e-05
0.000266937
0.000559328
0.000909149
0.00130667
0.00174589
0.00222208
0.00273283
0.00327467
0.00384592
0.00444552
0.00507185
0.00572344
0.00640047
0.00710208
0.00782769
0.00857617
0.00934789
0.0101432
0.0109612
0.0118014
0.0126651
0.0135514
0.0144606
0.0153929
0.0163481
0.0173264
0.0183284
0.0193534
0.0204019
0.0214739
0.0225699
0.0236887
0.0248309
0.0259968
0.0271866
0.0283997
0.029636
0.0308949
0.0321768
0.0334815
0.0348083
0.0361589
4.9452e-05
0.000234864
0.000497375
0.000814377
0.00117774
0.00158185
0.00202303
0.0024993
0.0030081
0.00354835
0.00411887
0.00471757
0.00534408
0.00599798
0.00667862
0.00738523
0.00811701
0.008874
0.00965635
0.0104626
0.0112937
0.0121495
0.0130298
0.0139336
0.0148618
0.0158143
0.0167909
0.0177918
0.018817
0.0198662
0.0209399
0.0220377
0.0231597
0.0243059
0.0254759
0.02667
0.0278879
0.0291294
0.0303942
0.0316826
0.0329941
0.0343291
0.0356895
4.56299e-05
0.000214437
0.000454021
0.00074528
0.00108105
0.00145679
0.00186973
0.00231753
0.0027988
0.00331218
0.00385664
0.00443047
0.00503374
0.00566557
0.00632537
0.00701267
0.00772729
0.00846887
0.00923627
0.0100296
0.0108493
0.0116951
0.0125661
0.0134624
0.0143843
0.0153317
0.0163044
0.0173022
0.0183248
0.0193726
0.0204457
0.0215438
0.0226668
0.0238144
0.0249866
0.0261835
0.0274048
0.0286499
0.0299193
0.0312123
0.0325289
0.0338685
0.0352327
4.1821e-05
0.000196785
0.000419803
0.000692224
0.00100723
0.00136103
0.00175114
0.00217556
0.00263329
0.00312332
0.003644
0.00419549
0.00477716
0.0053879
0.00602777
0.00669634
0.00739294
0.00811764
0.00886983
0.00964956
0.0104567
0.0112906
0.0121514
0.0130384
0.0139518
0.0148923
0.0158592
0.0168523
0.0178707
0.0189152
0.0199864
0.0210831
0.022205
0.0233524
0.0245254
0.0257241
0.0269472
0.0281948
0.0294672
0.0307635
0.0320834
0.0334264
0.0347929
3.95765e-05
0.000185184
0.000394643
0.00065128
0.000948933
0.00128421
0.00165497
0.00205939
0.00249668
0.0029657
0.0034662
0.00399741
0.0045586
0.00514992
0.00577149
0.0064221
0.00710129
0.00780932
0.00854639
0.00931185
0.0101054
0.0109271
0.0117769
0.0126535
0.0135579
0.0144901
0.0154501
0.0164364
0.0174496
0.01849
0.0195574
0.0206513
0.0217712
0.0229173
0.0240898
0.0252884
0.0265123
0.0277617
0.0290354
0.0303339
0.0316566
0.0330028
0.0343725
3.75848e-05
0.000175064
0.000373008
0.000616717
0.000900034
0.00121987
0.00157402
0.00196136
0.00238089
0.00283201
0.00331446
0.00382724
0.00437057
0.00494425
0.00554831
0.00618164
0.00684424
0.00753661
0.00825852
0.00900955
0.0097893
0.0105985
0.0114361
0.0123025
0.0131972
0.0141205
0.0150719
0.0160508
0.0170582
0.0180932
0.0191559
0.0202458
0.0213626
0.0225065
0.0236774
0.0248749
0.0260986
0.0273479
0.0286227
0.0299228
0.0312476
0.0325967
0.0339706
3.58957e-05
0.000166466
0.000354577
0.000587275
0.00085838
0.00116471
0.00150456
0.00187693
0.00228102
0.00271637
0.00318256
0.00367928
0.00420625
0.00476362
0.00535106
0.00596811
0.00661555
0.00729284
0.00799989
0.00873681
0.00950347
0.0102996
0.0111253
0.0119808
0.0128652
0.0137787
0.0147209
0.0156925
0.0166928
0.0177213
0.0187784
0.0198635
0.0209763
0.022117
0.0232855
0.0244813
0.0257037
0.0269526
0.0282276
0.0295285
0.0308549
0.0322064
0.0335834
3.44759e-05
0.000159126
0.000338933
0.000562079
0.000822328
0.00111689
0.00144429
0.0018036
0.00219408
0.00261539
0.00306692
0.00354867
0.00406073
0.0046029
0.00517534
0.00577762
0.00641038
0.00707319
0.00776625
0.00848978
0.00924309
0.0100265
0.0108403
0.0116845
0.0125583
0.0134616
0.0143949
0.015358
0.0163504
0.0173719
0.0184227
0.0195023
0.0206107
0.0217476
0.0229125
0.0241059
0.0253264
0.0265739
0.0278485
0.0291497
0.0304768
0.0318298
0.0332099
3.34461e-05
0.000152826
0.000325578
0.000540123
0.00079084
0.00107496
0.0013914
0.00173908
0.00211735
0.00252586
0.00296391
0.00343222
0.00393062
0.00445911
0.00501749
0.00560611
0.00622486
0.00687405
0.00755412
0.00826429
0.00900464
0.0097757
0.0105776
0.0114103
0.0122732
0.013167
0.0140907
0.0150448
0.0160291
0.0170434
0.0180874
0.019161
0.0202642
0.0213962
0.0225575
0.0237476
0.0249652
0.026211
0.0274845
0.028785
0.0301117
0.0314649
0.0328451
3.31076e-05
0.000147366
0.000313744
0.000520599
0.000762931
0.001038
0.0013444
0.00168139
0.00204856
0.00244534
0.00287163
0.00332777
0.00381368
0.00432909
0.00487474
0.00545034
0.00605601
0.00669246
0.00735951
0.00805686
0.00878516
0.00954429
0.0103346
0.011156
0.0120084
0.0128917
0.013806
0.0147507
0.0157268
0.0167335
0.0177704
0.0188379
0.019935
0.0210621
0.022219
0.0234049
0.0246198
0.0258628
0.0271342
0.0284331
0.0297592
0.0311114
0.0324896
3.44776e-05
0.000142802
0.000303243
0.000503043
0.000737907
0.00100487
0.00130252
0.00162996
0.00198688
0.00237306
0.0027885
0.00323356
0.00370747
0.00421117
0.00474487
0.00530819
0.00590171
0.00652601
0.00718065
0.0078662
0.00858267
0.00933048
0.0101093
0.0109196
0.0117613
0.0126344
0.0135389
0.0144749
0.0154424
0.0164407
0.0174706
0.0185311
0.0196219
0.0207435
0.0218952
0.0230771
0.0242884
0.0255284
0.0267974
0.0280947
0.0294191
0.0307702
0.0321484
3.68485e-05
0.000138828
0.000293953
0.000487615
0.000715458
0.000974972
0.00126466
0.0015835
0.00193118
0.00230757
0.00271294
0.00314745
0.00361086
0.00410354
0.0046258
0.00517763
0.0057598
0.00637252
0.00701583
0.00768988
0.00839522
0.00913163
0.00989937
0.010699
0.0115303
0.0123932
0.0132883
0.0142153
0.0151736
0.0161641
0.0171861
0.0182392
0.0193238
0.0204397
0.0215859
0.0227632
0.0239706
0.0252072
0.0264732
0.0277683
0.0290913
0.0304426
0.0318235
3.86204e-05
0.000135257
0.000285622
0.000473674
0.00069527
0.000947867
0.00122985
0.00154073
0.00188009
0.00224775
0.00264374
0.00306831
0.00352189
0.00400451
0.00451615
0.00505732
0.00562869
0.00623054
0.00686299
0.00752597
0.00822019
0.00894566
0.00970306
0.0104924
0.0113135
0.0121666
0.0130521
0.0139696
0.0149196
0.0159018
0.016916
0.0179618
0.0190398
0.0201492
0.02129
0.0224622
0.023665
0.0248977
0.0261607
0.0274534
0.0287745
0.0301243
0.0315025
3.98623e-05
0.000131855
0.000277968
0.000460971
0.000676805
0.00092299
0.00119808
0.00150157
0.00183317
0.00219276
0.00257999
0.00299557
0.00343987
0.00391284
0.00441456
0.00494601
0.00550724
0.0060986
0.00672062
0.0073731
0.00805671
0.00877208
0.00951904
0.0102982
0.0111096
0.0119531
0.0128289
0.0137375
0.0146788
0.0156526
0.0166588
0.0176974
0.0187685
0.0198717
0.0210069
0.0221734
0.0233711
0.0245998
0.0258593
0.0271488
0.0284678
0.0298165
0.031196
4.06741e-05
0.000128562
0.000270733
0.000449022
0.000659546
0.000899973
0.00116881
0.00146541
0.00178979
0.00214163
0.00252104
0.00292841
0.00336391
0.00382777
0.00432023
0.00484251
0.00539405
0.00597548
0.00658746
0.00722997
0.00790384
0.00860928
0.00934636
0.0101154
0.0109171
0.0117513
0.0126181
0.0135175
0.01445
0.0154154
0.0164138
0.0174453
0.0185092
0.0196058
0.0207351
0.0218958
0.0230885
0.0243129
0.0255682
0.026854
0.0281703
0.0295164
0.0308928
4.12439e-05
0.000125698
0.000264304
0.000438164
0.000643694
0.000878791
0.00114165
0.00143205
0.00174962
0.00209421
0.00246629
0.00286576
0.00329313
0.00374843
0.00423249
0.0047459
0.00528814
0.00586024
0.00646294
0.00709615
0.00776029
0.00845609
0.00918367
0.00994328
0.0107355
0.0115606
0.0124182
0.0133089
0.0142327
0.0151899
0.0161808
0.0172043
0.0182608
0.0193508
0.0204739
0.021629
0.0228165
0.0240362
0.0252869
0.0265691
0.0278816
0.0292244
0.0305967
4.16552e-05
0.000123063
0.000258308
0.000428167
0.000629024
0.00085897
0.00111645
0.00140108
0.00171224
0.00205032
0.00241534
0.00280742
0.00322711
0.00367441
0.00415049
0.00465539
0.00518905
0.00575249
0.00634628
0.00697041
0.00762533
0.00831182
0.00903047
0.00978077
0.0105639
0.0113799
0.0122286
0.0131105
0.014026
0.0149751
0.0159578
0.0169738
0.0180232
0.0191064
0.0202229
0.021372
0.0225544
0.0237687
0.0250152
0.0262928
0.0276017
0.0289403
0.0303086
4.19396e-05
0.000120731
0.000252866
0.00041901
0.000615665
0.000840944
0.00109338
0.00137236
0.00167759
0.00200931
0.00236761
0.00275277
0.00316534
0.00360548
0.00407352
0.00457018
0.00509582
0.00565095
0.006236
0.00685165
0.00749779
0.00817546
0.00888501
0.00962669
0.0104011
0.0112084
0.0120483
0.0129218
0.0138289
0.0147698
0.0157445
0.016753
0.0177955
0.0188717
0.0199814
0.0211248
0.0223012
0.0235104
0.0247517
0.0260254
0.02733
0.0286647
0.0300293
4.20692e-05
0.000118421
0.000247748
0.00041031
0.000602927
0.000823802
0.00107137
0.00134532
0.00164515
0.00197082
0.00232283
0.00270157
0.00310736
0.00354023
0.00400097
0.00449011
0.00500809
0.005555
0.00613173
0.00673907
0.00737703
0.00804597
0.00874704
0.0094803
0.010246
0.0110446
0.0118763
0.0127416
0.0136405
0.0145735
0.0155403
0.0165415
0.0175766
0.0186459
0.0197494
0.0208864
0.022057
0.0232608
0.0244974
0.0257663
0.027067
0.0283983
0.0297599
4.21195e-05
0.000116247
0.000242799
0.00040214
0.000591137
0.000807704
0.00105067
0.00131961
0.00161425
0.0019345
0.00228083
0.00265357
0.00305267
0.00347889
0.00393285
0.00441472
0.00492503
0.00546415
0.0060332
0.00663279
0.00726269
0.00792368
0.00861634
0.00934104
0.0100982
0.0108884
0.0117122
0.0125692
0.0134603
0.0143853
0.0153447
0.0163385
0.0173667
0.0184292
0.0195258
0.0206565
0.0218215
0.02302
0.0242513
0.025516
0.0268129
0.0281414
0.0295018
4.21506e-05
0.000114419
0.000238391
0.000394673
0.000580121
0.000792663
0.00103129
0.00129562
0.00158546
0.00190058
0.00224128
0.00260806
0.0030012
0.00342123
0.00386832
0.00434316
0.00484645
0.00537838
0.00593994
0.00653168
0.00715395
0.00780722
0.00849165
0.00920826
0.00995766
0.01074
0.0115554
0.0124047
0.013288
0.0142052
0.015157
0.0161438
0.017165
0.0182205
0.0193105
0.0204351
0.0215943
0.0227871
0.0240137
0.0252738
0.0265669
0.0278919
0.0292489
4.21419e-05
0.000112806
0.000234201
0.00038764
0.000569713
0.000778533
0.00101327
0.00127325
0.00155852
0.0018686
0.00220387
0.00256505
0.00295253
0.00336624
0.00380678
0.00427512
0.00477179
0.00529701
0.00585137
0.00643562
0.00705044
0.0076959
0.00837286
0.00908201
0.00982379
0.0105982
0.0114058
0.0122471
0.0131227
0.0140327
0.0149769
0.0159563
0.0169702
0.018019
0.0191028
0.0202216
0.0213744
0.0225622
0.023784
0.0250394
0.0263285
0.0276507
0.0290066
4.21158e-05
0.00011159
0.00023023
0.000380924
0.00055971
0.000765147
0.000996258
0.00125213
0.00153288
0.00183822
0.00216838
0.00252431
0.00290618
0.00331413
0.00374871
0.00421071
0.00470097
0.00521949
0.00576695
0.00634435
0.00695176
0.00759
0.00825969
0.00896125
0.00969522
0.0104621
0.0112621
0.012096
0.0129645
0.0138669
0.014804
0.0157757
0.0167829
0.017825
0.0189026
0.0200149
0.021162
0.0223444
0.0235611
0.0248119
0.0260972
0.027416
0.0287683
4.21982e-05
0.000111262
0.000226677
0.000374683
0.000550548
0.000752564
0.000979819
0.00123186
0.00150842
0.00180933
0.00213496
0.00248578
0.00286234
0.00326466
0.00369342
0.00414951
0.00463356
0.00514578
0.00568681
0.00625727
0.00685766
0.0074889
0.00815148
0.00884574
0.00957247
0.0103318
0.0111244
0.0119512
0.0128121
0.0137074
0.0146373
0.0156023
0.0166024
0.017638
0.018709
0.0198151
0.0209566
0.0221335
0.0233452
0.0245916
0.0258724
0.0271881
0.0285392
4.24389e-05
0.000111749
0.000223469
0.000368891
0.000541941
0.000740806
0.000964577
0.00121293
0.00148535
0.00178208
0.00210317
0.00244919
0.00282047
0.00321732
0.00364079
0.00409116
0.00456909
0.00507532
0.0056101
0.00617394
0.00676767
0.00739202
0.00804771
0.00873524
0.00945482
0.010207
0.0109926
0.0118121
0.0126657
0.0135538
0.0144769
0.0154349
0.0164281
0.0174572
0.0185219
0.019622
0.0207577
0.0219289
0.0231356
0.0243771
0.0256532
0.0269639
0.0283091
4.27173e-05
0.000112393
0.000220205
0.000363253
0.000533514
0.000729298
0.000949893
0.00119465
0.00146319
0.00175581
0.00207254
0.00241415
0.00278063
0.00317244
0.00359055
0.00403536
0.00450766
0.00500793
0.00553632
0.00609406
0.00668139
0.00729933
0.00794841
0.00862878
0.00934142
0.010087
0.0108658
0.0116783
0.0125247
0.013406
0.0143222
0.0152734
0.01626
0.0172826
0.0183409
0.0194349
0.0205649
0.0217304
0.0229315
0.0241677
0.0254389
0.0267446
0.0280838
4.30592e-05
0.000113329
0.000217228
0.000357938
0.00052568
0.000718628
0.000935941
0.00117713
0.0014422
0.00173082
0.00204335
0.00238046
0.00274241