/*--------------------------------*- C++ -*----------------------------------*\
| =========                 |                                                 |
| \\      /  F ield         | OpenFOAM: The Open Source CFD Toolbox           |
|  \\    /   O peration     | Version:  2.3.0                                 |
|   \\  /    A nd           | Web:      www.OpenFOAM.org                      |
|    \\/     M anipulation  |                                                 |
\*---------------------------------------------------------------------------*/
FoamFile
{
    version     2.0;
    format      ascii;
    class       volScalarField;
    location    "10000";
    object      p;
}
// * * * * * * * * * * * * * * * * * * * * * * * * * * * * * * * * * * * * * //

dimensions      [0 2 -2 0 0 0 0];

internalField   nonuniform List<scalar> 
123128
(
-0.00028179
0.645214
1.99212
3.4116
4.75362
6.03956
7.28099
8.46966
9.60881
10.7052
11.7416
12.7228
13.648
14.5084
15.3153
16.0343
16.6919
17.2658
17.7399
18.109
18.3621
18.4997
18.4701
18.2758
17.8761
17.2351
16.3402
15.105
13.5085
11.4634
8.90167
5.70465
1.75371
-3.11596
-9.1369
-16.529
-25.6895
-37.1003
-51.3403
-69.0654
-91.4635
-120.858
-166.407
-2.4823
-1.82797
-0.455284
0.987099
2.37468
3.72677
5.0456
6.33807
7.59542
8.82077
10.0058
11.1475
12.2354
13.2802
14.265
15.1887
16.0457
16.8319
17.5381
18.156
18.6801
19.0969
19.3945
19.5574
19.5616
19.3711
18.9805
18.3341
17.4128
16.161
14.5019
12.389
9.72521
6.39931
2.30283
-2.71815
-8.80095
-16.1274
-24.8657
-35.1992
-47.2842
-61.1984
-77.1915
-5.00507
-4.62248
-3.52939
-2.38628
-1.31573
-0.298633
0.676535
1.59705
2.46766
3.29139
4.05512
4.75607
5.39234
5.96016
6.44893
6.85983
7.18037
7.40332
7.51847
7.51976
7.39551
7.13797
6.72153
6.1392
5.37302
4.39653
3.18992
1.71906
-0.0486646
-2.15656
-4.66523
-7.61429
-11.0785
-15.1348
-19.848
-25.3218
-31.6245
-38.8577
-47.1
-56.3971
-66.7784
-78.1951
-90.4785
-7.35581
-7.10217
-6.20314
-5.25826
-4.36677
-3.52754
-2.70979
-1.94247
-1.21259
-0.525232
0.122857
0.718932
1.26333
1.74859
2.16715
2.51245
2.78339
2.96992
3.06198
3.04849
2.91735
2.66246
2.26169
1.69546
0.950259
0.00323121
-1.17645
-2.6198
-4.35821
-6.43496
-8.89606
-11.7835
-15.151
-19.0569
-23.5645
-28.7305
-34.6182
-41.2777
-48.7361
-56.9982
-66.0399
-75.7611
-85.9974
-9.70815
-9.45629
-8.67843
-7.89714
-7.16215
-6.48087
-5.83287
-5.22421
-4.64769
-4.13012
-3.64381
-3.20618
-2.82559
-2.5004
-2.23994
-2.05813
-1.95299
-1.93929
-2.02047
-2.20857
-2.51087
-2.94237
-3.51386
-4.24438
-5.15144
-6.2562
-7.57707
-9.14689
-10.9912
-13.1454
-15.6469
-18.5377
-21.8644
-25.6684
-30.0013
-34.9119
-40.4336
-46.5985
-53.4264
-60.8998
-68.9778
-77.5751
-86.5519
-11.7804
-11.5598
-10.8987
-10.258
-9.64841
-9.08157
-8.55613
-8.07081
-7.61333
-7.20952
-6.83164
-6.48767
-6.19831
-5.96158
-5.78428
-5.67049
-5.64111
-5.70053
-5.85436
-6.10332
-6.46008
-6.9441
-7.56961
-8.34793
-9.29645
-10.4373
-11.7869
-13.3709
-15.2211
-17.3634
-19.8305
-22.6622
-25.8992
-29.5743
-33.7278
-38.4088
-43.6343
-49.4174
-55.7768
-62.6913
-70.1142
-77.9622
-86.1209
-13.3625
-13.4286
-12.9007
-12.3707
-11.863
-11.3842
-10.9491
-10.5604
-10.2174
-9.93385
-9.65035
-9.37893
-9.16145
-9.00386
-8.90296
-8.83686
-8.85407
-8.98959
-9.24441
-9.57055
-9.97306
-10.4996
-11.1717
-11.9959
-12.9788
-14.1516
-15.5161
-17.1058
-18.9542
-21.0762
-23.4912
-26.2499
-29.4052
-32.9567
-36.9273
-41.4196
-46.4001
-51.8515
-57.8391
-64.326
-71.2923
-78.6084
-86.1946
-14.519
-15.0317
-14.6578
-14.2693
-13.8705
-13.5114
-13.135
-12.7096
-12.3819
-12.2725
-12.1652
-11.912
-11.6812
-11.589
-11.5602
-11.495
-11.4358
-11.4987
-11.8386
-12.2981
-12.7531
-13.2784
-13.9684
-14.829
-15.8463
-17.0612
-18.4248
-19.9817
-21.8577
-23.9878
-26.3406
-28.9851
-32.0508
-35.4963
-39.2458
-43.5962
-48.4319
-53.5709
-59.2771
-65.4378
-72.1498
-79.1106
-86.2344
-15.4041
-16.1479
-15.5751
-15.7384
-15.6438
-15.5789
-15.8312
-15.6331
-14.5833
-14.5216
-14.9479
-15.0923
-14.9234
-14.8876
-15.1764
-15.4441
-15.5889
-15.5208
-15.3887
-15.9567
-16.437
-16.9308
-17.4352
-18.2456
-19.2169
-20.5041
-21.8146
-23.1924
-24.8938
-27.1948
-29.6397
-32.1327
-35.1134
-38.5707
-41.9005
-46.0333
-50.584
-55.1429
-60.6374
-66.2197
-72.4899
-79.0372
-85.6628
-228.56
-230.876
-226.485
-231.016
-237.421
-242.163
-245.582
-248.167
-250.157
-251.459
-252.061
-252.284
-252.26
-252.06
-251.67
-251.215
-250.721
-250.165
-249.524
-248.859
-248.198
-247.526
-246.773
-246.038
-245.271
-244.511
-243.73
-242.939
-242.153
-241.344
-240.554
-239.787
-238.991
-238.248
-237.493
-236.766
-236.054
-235.372
-234.712
-234.064
-233.452
-232.902
-232.808
-97.6604
-118.852
-138.566
-156.373
-171.432
-183.393
-192.752
-200.097
-205.795
-210.36
-213.992
-216.946
-219.305
-221.348
-222.949
-224.193
-225.285
-226.149
-226.842
-227.371
-227.775
-228.131
-228.381
-228.563
-228.715
-228.797
-228.846
-228.882
-228.9
-228.878
-228.851
-228.825
-228.761
-228.703
-228.637
-228.549
-228.454
-228.348
-228.237
-228.112
-227.987
-227.861
-227.796
-103.439
-116.897
-129.819
-141.773
-152.605
-162.252
-170.726
-178.13
-184.608
-190.14
-194.892
-198.983
-202.491
-205.476
-208.084
-210.28
-212.208
-213.84
-215.266
-216.502
-217.567
-218.486
-219.289
-219.973
-220.564
-221.075
-221.513
-221.891
-222.208
-222.475
-222.71
-222.903
-223.072
-223.202
-223.319
-223.408
-223.484
-223.542
-223.597
-223.638
-223.672
-223.702
-223.684
-96.5287
-107.182
-117.711
-127.894
-137.553
-146.533
-154.75
-162.17
-168.777
-174.618
-179.779
-184.326
-188.328
-191.85
-194.955
-197.696
-200.126
-202.295
-204.212
-205.935
-207.465
-208.822
-210.044
-211.136
-212.123
-213
-213.795
-214.52
-215.177
-215.772
-216.316
-216.806
-217.253
-217.667
-218.04
-218.38
-218.689
-218.969
-219.228
-219.46
-219.676
-219.873
-219.979
-95.7682
-105.087
-114.348
-123.364
-131.982
-140.091
-147.601
-154.473
-160.724
-166.362
-171.428
-175.988
-180.077
-183.749
-187.033
-189.979
-192.625
-195.001
-197.153
-199.08
-200.824
-202.408
-203.839
-205.131
-206.307
-207.383
-208.365
-209.261
-210.082
-210.839
-211.543
-212.19
-212.788
-213.333
-213.835
-214.302
-214.737
-215.135
-215.505
-215.851
-216.171
-216.467
-216.649
-94.4904
-102.943
-111.346
-119.571
-127.492
-135.01
-142.045
-148.559
-154.555
-160.049
-165.039
-169.571
-173.681
-177.399
-180.771
-183.827
-186.602
-189.122
-191.412
-193.501
-195.405
-197.13
-198.702
-200.132
-201.451
-202.671
-203.779
-204.797
-205.752
-206.642
-207.463
-208.221
-208.925
-209.584
-210.197
-210.766
-211.299
-211.789
-212.246
-212.681
-213.083
-213.466
-213.89
-94.0145
-101.888
-109.686
-117.347
-124.777
-131.866
-138.528
-144.732
-150.507
-155.813
-160.658
-165.089
-169.154
-172.867
-176.267
-179.355
-182.177
-184.767
-187.148
-189.308
-191.279
-193.08
-194.736
-196.218
-197.633
-198.935
-200.083
-201.165
-202.194
-203.161
-204.069
-204.914
-205.707
-206.429
-207.115
-207.75
-208.348
-208.891
-209.409
-209.897
-210.35
-210.796
-211.077
-93.7199
-101.161
-108.477
-115.751
-122.841
-129.595
-135.935
-141.853
-147.413
-152.527
-157.22
-161.58
-165.612
-169.269
-172.669
-175.716
-178.518
-181.204
-183.675
-185.873
-187.871
-189.713
-191.406
-192.873
-194.442
-195.777
-196.814
-197.977
-199.158
-200.257
-201.273
-202.159
-202.99
-203.74
-204.469
-205.144
-205.813
-206.374
-206.932
-207.46
-207.931
-208.436
-208.825
-92.9327
-100.36
-107.844
-115.238
-122.052
-128.303
-134.246
-139.935
-145.404
-150.573
-155.31
-159.677
-163.601
-167.091
-170.51
-173.422
-176.427
-179.558
-182.039
-184.124
-186.107
-187.99
-189.618
-190.958
-193.21
-193.979
-194.903
-196.941
-198.402
-199.282
-199.941
-200.467
-201.148
-201.784
-202.426
-203.068
-203.717
-204.156
-204.682
-205.101
-205.297
-205.485
-205.536
-269.33
-270.585
-271.744
-272.889
-274.013
-275.112
-276.187
-277.237
-278.262
-279.26
-280.232
-281.177
-282.093
-282.981
-283.839
-284.665
-285.457
-286.216
-286.939
-287.625
-288.273
-288.883
-289.454
-289.988
-290.487
-290.955
-291.398
-291.824
-292.24
-292.656
-293.081
-293.525
-293.999
-294.514
-295.079
-295.706
-296.403
-297.178
-298.037
-298.981
-300.023
-301.18
-302.765
-269.608
-270.711
-271.743
-272.76
-273.76
-274.742
-275.707
-276.656
-277.59
-278.51
-279.416
-280.311
-281.194
-282.067
-282.931
-283.786
-284.633
-285.473
-286.305
-287.131
-287.95
-288.762
-289.567
-290.365
-291.154
-291.934
-292.704
-293.461
-294.204
-294.932
-295.643
-296.335
-297.007
-297.656
-298.281
-298.878
-299.443
-299.972
-300.457
-300.889
-301.272
-301.551
-302.116
-269.851
-270.849
-271.797
-272.732
-273.654
-274.564
-275.462
-276.35
-277.228
-278.097
-278.957
-279.809
-280.652
-281.49
-282.32
-283.144
-283.962
-284.776
-285.585
-286.39
-287.193
-287.993
-288.792
-289.59
-290.386
-291.182
-291.975
-292.764
-293.549
-294.325
-295.091
-295.843
-296.576
-297.286
-297.966
-298.611
-299.213
-299.764
-300.257
-300.687
-301.082
-301.401
-301.789
-270.087
-271.018
-271.908
-272.788
-273.659
-274.521
-275.374
-276.22
-277.058
-277.889
-278.711
-279.526
-280.334
-281.136
-281.931
-282.719
-283.501
-284.276
-285.045
-285.809
-286.568
-287.322
-288.073
-288.82
-289.565
-290.309
-291.051
-291.792
-292.533
-293.273
-294.011
-294.745
-295.473
-296.193
-296.899
-297.587
-298.252
-298.888
-299.493
-300.06
-300.621
-301.188
-301.706
-270.28
-271.159
-271.989
-272.811
-273.628
-274.44
-275.246
-276.048
-276.846
-277.638
-278.426
-279.207
-279.984
-280.758
-281.529
-282.297
-283.061
-283.82
-284.576
-285.33
-286.081
-286.83
-287.577
-288.322
-289.065
-289.807
-290.548
-291.288
-292.028
-292.767
-293.506
-294.244
-294.979
-295.71
-296.434
-297.147
-297.845
-298.525
-299.188
-299.827
-300.459
-301.141
-301.747
-270.428
-271.271
-272.045
-272.812
-273.576
-274.341
-275.104
-275.865
-276.626
-277.385
-278.141
-278.89
-279.636
-280.381
-281.128
-281.877
-282.624
-283.368
-284.111
-284.855
-285.601
-286.349
-287.099
-287.85
-288.601
-289.352
-290.104
-290.857
-291.612
-292.368
-293.124
-293.879
-294.633
-295.39
-296.146
-296.896
-297.63
-298.341
-299.031
-299.709
-300.376
-301.111
-301.772
-270.577
-271.38
-272.099
-272.815
-273.53
-274.255
-274.979
-275.704
-276.431
-277.161
-277.894
-278.616
-279.33
-280.045
-280.769
-281.502
-282.236
-282.969
-283.695
-284.424
-285.159
-285.901
-286.651
-287.402
-288.154
-288.909
-289.665
-290.425
-291.187
-291.953
-292.721
-293.484
-294.246
-295.001
-295.767
-296.538
-297.296
-298.033
-298.762
-299.499
-300.251
-301.091
-301.884
-270.682
-271.468
-272.14
-272.806
-273.462
-274.145
-274.834
-275.52
-276.212
-276.91
-277.634
-278.336
-279.013
-279.684
-280.367
-281.085
-281.812
-282.552
-283.267
-283.984
-284.714
-285.451
-286.216
-286.979
-287.74
-288.504
-289.266
-290.036
-290.809
-291.595
-292.385
-293.166
-293.93
-294.719
-295.558
-296.411
-297.259
-297.976
-298.601
-299.267
-299.976
-300.802
-301.631
-270.736
-271.561
-272.242
-272.918
-273.523
-274.182
-274.845
-275.494
-276.16
-276.79
-277.532
-278.263
-278.952
-279.601
-280.244
-280.93
-281.602
-282.367
-283.054
-283.741
-284.446
-285.106
-285.883
-286.648
-287.414
-288.19
-288.939
-289.715
-290.446
-291.226
-292.047
-292.835
-293.612
-294.054
-294.744
-295.593
-296.471
-297.313
-298.141
-298.863
-299.901
-300.943
-302.344
-303.982
-303.842
-303.747
-303.696
-303.662
-303.638
-303.623
-303.615
-303.614
-303.619
-303.629
-303.643
-303.66
-303.68
-303.702
-303.726
-303.751
-303.777
-303.803
-303.83
-303.856
-303.881
-303.905
-303.928
-303.949
-303.968
-303.986
-304.001
-304.015
-304.026
-304.034
-304.041
-304.045
-304.048
-304.048
-304.047
-304.044
-304.041
-304.037
-304.034
-304.031
-304.033
-304.072
-303.122
-303.113
-303.246
-303.288
-303.305
-303.311
-303.31
-303.304
-303.293
-303.279
-303.264
-303.247
-303.231
-303.215
-303.201
-303.189
-303.179
-303.171
-303.167
-303.166
-303.17
-303.177
-303.188
-303.204
-303.224
-303.248
-303.277
-303.311
-303.349
-303.391
-303.437
-303.487
-303.54
-303.596
-303.655
-303.717
-303.781
-303.846
-303.913
-303.98
-304.048
-304.112
-304.149
-302.783
-303.051
-303.26
-303.316
-303.352
-303.38
-303.401
-303.417
-303.429
-303.439
-303.447
-303.454
-303.461
-303.469
-303.478
-303.489
-303.501
-303.515
-303.531
-303.549
-303.568
-303.589
-303.612
-303.635
-303.66
-303.687
-303.714
-303.743
-303.774
-303.805
-303.838
-303.872
-303.908
-303.945
-303.985
-304.027
-304.071
-304.118
-304.168
-304.22
-304.274
-304.333
-304.44
-302.702
-303.151
-303.403
-303.483
-303.533
-303.57
-303.602
-303.629
-303.651
-303.671
-303.689
-303.705
-303.721
-303.736
-303.751
-303.767
-303.783
-303.8
-303.817
-303.835
-303.855
-303.874
-303.895
-303.916
-303.939
-303.963
-303.989
-304.016
-304.044
-304.073
-304.103
-304.134
-304.166
-304.199
-304.234
-304.269
-304.307
-304.345
-304.385
-304.425
-304.466
-304.506
-304.566
-302.71
-303.259
-303.559
-303.666
-303.72
-303.757
-303.788
-303.815
-303.839
-303.86
-303.879
-303.897
-303.915
-303.932
-303.95
-303.967
-303.985
-304.003
-304.021
-304.041
-304.06
-304.08
-304.1
-304.121
-304.144
-304.169
-304.196
-304.224
-304.252
-304.28
-304.308
-304.336
-304.365
-304.395
-304.427
-304.458
-304.491
-304.526
-304.56
-304.594
-304.628
-304.66
-304.747
-302.714
-303.343
-303.703
-303.838
-303.898
-303.935
-303.965
-303.991
-304.012
-304.032
-304.051
-304.071
-304.091
-304.11
-304.128
-304.147
-304.167
-304.186
-304.205
-304.226
-304.247
-304.267
-304.286
-304.306
-304.33
-304.359
-304.389
-304.418
-304.444
-304.469
-304.493
-304.519
-304.543
-304.571
-304.599
-304.625
-304.655
-304.686
-304.713
-304.74
-304.773
-304.815
-304.835
-302.879
-303.548
-303.924
-304.055
-304.104
-304.134
-304.16
-304.181
-304.2
-304.221
-304.24
-304.261
-304.285
-304.306
-304.323
-304.344
-304.367
-304.388
-304.406
-304.429
-304.45
-304.461
-304.472
-304.484
-304.51
-304.549
-304.582
-304.609
-304.627
-304.643
-304.66
-304.677
-304.691
-304.72
-304.747
-304.771
-304.801
-304.83
-304.849
-304.868
-304.9
-304.938
-304.917
-302.704
-303.477
-303.947
-304.129
-304.205
-304.256
-304.293
-304.307
-304.31
-304.317
-304.323
-304.342
-304.369
-304.38
-304.382
-304.406
-304.424
-304.433
-304.439
-304.469
-304.48
-304.47
-304.483
-304.507
-304.57
-304.64
-304.672
-304.694
-304.699
-304.713
-304.741
-304.764
-304.8
-304.887
-304.895
-304.89
-304.928
-304.957
-304.95
-304.957
-305.009
-305.051
-305.129
-304.09
-304.541
-304.642
-304.607
-304.577
-304.628
-304.634
-304.582
-304.606
-304.678
-304.747
-304.83
-304.895
-304.913
-304.949
-305.03
-305.062
-305.088
-305.139
-305.263
-305.279
-305.286
-305.344
-305.384
-305.476
-305.51
-305.428
-305.374
-305.365
-305.395
-305.404
-305.397
-305.429
-305.474
-305.051
-305.02
-305.109
-305.146
-305.073
-305.139
-305.384
-305.478
-305.236
73.5787
77.3198
76.4942
75.0099
73.0803
71.0198
68.9071
66.7801
64.6574
62.6152
60.6491
58.7518
56.9603
55.228
53.5372
51.8925
50.2898
48.6991
47.1333
45.5622
43.9972
42.4171
40.7846
39.1407
37.4581
35.7568
34.0064
32.2069
30.4052
28.5469
26.6657
24.7469
22.8098
20.8417
18.8465
16.8223
14.7839
12.7133
10.6294
8.51276
6.33591
4.257
2.91783
84.3236
82.7632
80.37
77.9126
75.4887
73.1185
70.7895
68.532
66.3544
64.2418
62.2179
60.243
58.3306
56.4803
54.658
52.8785
51.1275
49.3947
47.7017
46.0031
44.3288
42.6537
40.9883
39.3139
37.6347
35.9539
34.2587
32.5334
30.805
29.0558
27.2847
25.4979
23.6892
21.8484
19.9931
18.1111
16.2154
14.2848
12.3406
10.347
8.29753
6.36193
5.12217
96.0232
95.3867
94.2635
92.929
91.4103
89.7065
87.83
85.8082
83.6661
81.4297
79.1144
76.7422
74.3294
71.8905
69.4408
66.9815
64.541
62.0933
59.6757
57.2778
54.9002
52.5342
50.2159
47.9037
45.6244
43.3655
41.1332
38.9173
36.714
34.5421
32.3594
30.2021
28.0493
25.9043
23.7624
21.6194
19.483
17.3374
15.2009
13.038
10.8521
8.82331
7.60935
93.9945
93.5409
92.6141
91.4861
90.2258
88.8272
87.2888
85.6347
83.8776
82.0268
80.0978
78.1096
76.0625
73.9647
71.8295
69.664
67.4859
65.2758
63.0535
60.8192
58.5761
56.3164
54.063
51.7922
49.5236
47.2562
44.9753
42.709
40.4295
38.1584
35.884
33.6097
31.3392
29.0775
26.8071
24.5362
22.2652
19.9998
17.7349
15.449
13.1388
11.0005
9.67125
94.2769
93.9866
93.416
92.6795
91.8077
90.7901
89.6271
88.3227
86.8885
85.3261
83.6531
81.8707
79.9953
78.0289
75.9873
73.8694
71.6996
69.4728
67.2183
64.9199
62.6002
60.2536
57.8985
55.5369
53.1565
50.7837
48.4036
46.0207
43.6454
41.2602
38.8894
36.517
34.138
31.7681
29.3973
27.0334
24.6718
22.3057
19.95
17.5885
15.2079
12.9682
11.4702
91.5114
91.2523
90.7578
90.1278
89.4005
88.5642
87.617
86.5593
85.3959
84.1269
82.7596
81.2921
79.7331
78.0803
76.3471
74.5326
72.6376
70.6753
68.6503
66.5673
64.4269
62.2432
60.0127
57.7531
55.4519
53.1262
50.7789
48.4148
46.0377
43.6388
41.2327
38.8232
36.4065
33.9869
31.5609
29.1292
26.709
24.2757
21.8517
19.4142
16.9706
14.5895
12.7351
89.1228
88.9428
88.5894
88.1275
87.5776
86.9303
86.1806
85.3276
84.3721
83.3142
82.1564
80.8961
79.5396
78.0876
76.5396
74.9076
73.19
71.3911
69.5175
67.5722
65.5645
63.4937
61.3744
59.2062
56.9924
54.7357
52.4453
50.1236
47.7798
45.4085
43.0156
40.6087
38.1866
35.7525
33.3057
30.8497
28.3909
25.9258
23.4601
20.9787
18.4848
16.0412
13.9945
86.4153
86.2581
85.9465
85.5419
85.0658
84.5099
83.869
83.1416
82.3289
81.4271
80.4381
79.3605
78.1941
76.9361
75.5917
74.1594
72.6435
71.0419
69.3604
67.6026
65.7694
63.8629
61.8928
59.8607
57.7749
55.6235
53.4384
51.2015
48.9272
46.6162
44.2717
41.9026
39.5086
37.092
34.6556
32.2077
29.7386
27.2646
24.7814
22.2842
19.7677
17.2902
15.1405
83.5411
83.4116
83.1579
82.8236
82.4298
81.9654
81.4275
80.8139
80.123
79.3529
78.5029
77.5696
76.5546
75.4532
74.2695
73.0002
71.6469
70.2112
68.6897
67.092
65.4141
63.6629
61.837
59.9398
57.9833
55.9589
53.8812
51.7454
49.5633
47.3344
45.0615
42.7544
40.4121
38.039
35.6368
33.2138
30.7692
28.3067
25.8302
23.3312
20.8229
18.3715
16.2914
80.6116
80.5082
80.2929
80.0099
79.6713
79.2733
78.8095
78.2795
77.6814
77.0131
76.2726
75.4576
74.5681
73.5989
72.5537
71.427
70.2187
68.9324
67.5639
66.1159
64.5883
62.9822
61.3012
59.5467
57.72
55.8278
53.8686
51.8463
49.7688
47.6368
45.4517
43.2239
40.9502
38.6421
36.2882
33.9095
31.5016
29.0643
26.6134
24.1304
21.6138
19.1789
17.2794
77.6805
77.5916
77.409
77.1622
76.8698
76.5229
76.1202
75.6589
75.1361
74.5515
73.9007
73.1835
72.3968
71.5395
70.608
69.6033
68.5221
67.3628
66.1263
64.8125
63.4199
61.951
60.4018
58.7808
57.0837
55.3162
53.4785
51.5727
49.6045
47.578
45.4886
43.3494
41.1539
38.9206
36.636
34.3163
31.9604
29.5719
27.1497
24.7038
22.2078
19.7998
18.0587
74.754
74.681
74.5208
74.306
74.0486
73.7463
73.392
72.9852
72.5249
72.0074
71.4312
70.7946
70.0951
69.3294
68.4975
67.5953
66.6226
65.5765
64.4566
63.2623
61.9912
60.6453
59.2219
57.7239
56.1501
54.5014
52.7841
50.9938
49.1335
47.2129
45.2243
43.1822
41.0794
38.9228
36.7153
34.464
32.1681
29.8335
27.4578
25.0489
22.5762
20.1421
18.2907
71.8306
71.7708
71.6344
71.4459
71.2226
70.9554
70.6436
70.2842
69.8748
69.4155
68.9019
68.3342
67.7081
67.0216
66.2734
65.4613
64.5811
63.6344
62.6164
61.5279
60.3655
59.1302
57.8201
56.4345
54.9773
53.4427
51.8367
50.1593
48.4101
46.5921
44.7055
42.7576
40.7474
38.6781
36.5562
34.3763
32.154
29.8828
27.5677
25.2029
22.7772
20.3931
18.566
68.9606
68.9099
68.7864
68.6201
68.4195
68.183
67.9044
67.5831
67.2177
66.8051
66.3449
65.8337
65.2701
64.6514
63.9748
63.2393
62.4409
61.5795
60.6516
59.6561
58.5907
57.4554
56.2474
54.9674
53.6139
52.1876
50.6869
49.1131
47.4693
45.753
43.9699
42.1191
40.2024
38.2251
36.1856
34.0869
31.9398
29.7393
27.4871
25.1877
22.8278
20.5185
18.7747
66.1255
66.0814
65.9731
65.8225
65.6435
65.431
65.1809
64.8917
64.5625
64.1911
63.7755
63.3135
62.8032
62.2425
61.6284
60.9586
60.2319
59.4446
58.5968
57.6834
56.705
55.6592
54.5437
53.3581
52.1024
50.7726
49.3716
47.8991
46.354
44.7361
43.0499
41.294
39.4676
37.5805
35.6291
33.614
31.5435
29.4225
27.2436
25.0198
22.7369
20.506
18.8189
63.312
63.2748
63.1792
63.0462
62.8874
62.6959
62.4709
62.2112
61.9139
61.5788
61.202
60.783
60.3197
59.8096
59.2498
58.6387
57.975
57.2536
56.4755
55.6367
54.7348
53.7696
52.7378
51.6379
50.4706
49.2325
47.9234
46.5424
45.091
43.5669
41.9739
40.3094
38.5777
36.7759
34.9101
32.9809
30.9873
28.942
26.8342
24.6752
22.4466
20.2506
18.5441
60.5438
60.5113
60.4271
60.3072
60.164
59.9924
59.7897
59.5536
59.2848
58.9796
58.6372
58.2563
57.8332
57.3673
56.855
56.296
55.6865
55.0245
54.3081
53.535
52.7026
51.8093
50.8537
49.8319
48.7446
47.5897
46.3667
45.0721
43.7083
42.2729
40.768
39.1914
37.5456
35.8299
34.0478
32.203
30.2888
28.3198
26.2895
24.2024
22.051
19.9146
18.2606
57.791
57.7684
57.6968
57.5922
57.4649
57.3122
57.129
56.9165
56.6727
56.3953
56.0842
55.7359
55.3499
54.9229
54.4534
53.9403
53.3798
52.7698
52.1092
51.3949
50.6246
49.7962
48.909
47.9593
46.9453
45.867
44.7211
43.508
42.2259
40.873
39.4513
37.9595
36.3971
34.765
33.0649
31.2998
29.4634
27.5686
25.6091
23.5895
21.4964
19.3789
17.6165
55.1052
55.0853
55.0195
54.9242
54.8097
54.6701
54.5042
54.3113
54.0882
53.8352
53.5505
53.231
52.877
52.4847
52.0536
51.5805
51.0636
50.5006
49.8895
49.228
48.5143
47.7442
46.9189
46.0342
45.0872
44.0797
43.0062
41.8664
40.6615
39.3855
38.0426
36.631
35.1482
33.5954
31.9749
30.2858
28.5282
26.7069
24.8187
22.8655
20.8402
18.7738
16.9642
52.4642
52.4457
52.3868
52.299
52.194
52.0665
51.9153
51.7373
51.5333
51.3011
51.039
50.7461
50.4192
50.0586
49.6604
49.2237
48.7459
48.2252
47.6584
47.0447
46.3811
45.6654
44.8954
44.0703
43.1855
42.2411
41.2351
40.1643
39.029
37.8277
36.5575
35.2199
33.8141
32.3375
30.7932
29.1793
27.497
25.7468
23.9322
22.0462
20.0888
18.0805
16.2416
49.8362
49.8214
49.7704
49.6936
49.5994
49.4857
49.3479
49.1869
49.0004
48.7877
48.5469
48.2774
47.978
47.6446
47.2771
46.873
46.4305
45.9474
45.4213
44.8509
44.2337
43.5665
42.848
42.0765
41.2488
40.3635
39.4183
38.4129
37.3421
36.2088
35.0087
33.7416
32.4068
31.004
29.5321
27.9917
26.3819
24.7059
22.9603
21.1449
19.258
17.3229
15.5308
47.2556
47.245
47.1986
47.1276
47.0443
46.9398
46.8146
46.6674
46.4967
46.3014
46.0805
45.8329
45.555
45.247
44.9073
44.5331
44.1228
43.6735
43.1842
42.6532
42.0774
41.455
40.7834
40.0613
39.2857
38.455
37.5669
36.6201
35.6118
34.5414
33.4056
32.2062
30.9398
29.6049
28.2033
26.7329
25.1938
23.5883
21.9134
20.1674
18.3506
16.4924
14.8263
44.6742
44.6709
44.6365
44.5789
44.506
44.4149
44.3023
44.1695
44.0148
43.8371
43.6346
43.4065
43.1512
42.8673
42.5525
42.2049
41.8235
41.4062
40.9508
40.4559
39.9184
39.3371
38.7085
38.0316
37.3041
36.5239
35.6881
34.796
33.8449
32.8337
31.7591
30.6215
29.4194
28.1509
26.8157
25.4129
23.942
22.4051
20.8011
19.1245
17.3777
15.5981
14.0552
42.1818
42.1778
42.1431
42.0885
42.0218
41.9367
41.8346
41.7122
41.5706
41.4059
41.2189
41.0077
40.7721
40.5085
40.2156
39.8933
39.5388
39.1501
38.7253
38.2626
37.7605
37.2158
36.6271
35.9922
35.3088
34.5751
33.7882
32.9469
32.0489
31.0935
30.0758
28.9972
27.8551
26.6491
25.3768
24.0392
22.6336
21.1608
19.6241
18.0151
16.3314
14.6104
13.0953
39.6993
39.6978
39.6707
39.6235
39.5626
39.4872
39.3938
39.2826
39.1517
39.0008
38.8274
38.6331
38.4142
38.1695
37.8978
37.5973
37.2675
36.9055
36.5087
36.0768
35.6062
35.0959
34.5437
33.9477
33.3052
32.6145
31.8732
31.0791
30.2307
29.3261
28.363
27.3395
26.2548
25.1073
23.8943
22.6184
21.275
19.8659
18.3926
16.8516
15.2377
13.5886
12.1385
37.2521
37.2555
37.2343
37.1908
37.1363
37.069
36.9834
36.8813
36.762
36.6221
36.4633
36.2824
36.08
35.8529
35.6
35.3208
35.0129
34.6746
34.304
33.8994
33.4587
32.9801
32.4618
31.901
31.2965
30.6453
29.946
29.1963
28.3948
27.5376
26.6252
25.6535
24.6221
23.5301
22.3747
21.1565
19.8723
18.5242
17.1107
15.6307
14.0776
12.487
11.0901
34.8077
34.8183
34.8061
34.7728
34.7273
34.6679
34.5927
34.502
34.3929
34.2667
34.1203
33.9546
33.767
33.5559
33.3212
33.0613
32.7742
32.4585
32.1123
31.7328
31.3195
30.8702
30.383
29.8557
29.2863
28.6721
28.0123
27.3034
26.5448
25.7329
24.8671
23.9452
22.9641
21.9243
20.8226
19.6592
18.4314
17.1392
15.7834
14.3628
12.8692
11.3309
9.97443
32.4549
32.4612
32.4466
32.4131
32.3706
32.3149
32.2458
32.1615
32.0605
31.9435
31.8078
31.6537
31.479
31.283
31.0645
30.8217
30.5534
30.2585
29.9335
29.5784
29.1904
28.7682
28.3104
27.8133
27.2765
26.6973
26.0738
25.4038
24.6848
23.9157
23.0937
22.2177
21.2844
20.2938
19.243
18.131
16.9578
15.7191
14.4168
13.0494
11.6104
10.1129
8.72499
30.0769
30.091
30.087
30.0612
30.0257
29.9782
29.9175
29.8401
29.7494
29.6414
29.517
29.3748
29.2133
29.0312
28.8276
28.6014
28.351
28.0742
27.7699
27.4365
27.0725
26.6757
26.2443
25.776
25.2693
24.7226
24.1332
23.4992
22.8182
22.0885
21.3082
20.4754
19.5875
18.6434
17.6407
16.5781
15.455
14.2685
13.0179
11.7013
10.3113
8.85794
7.45101
27.7596
27.7719
27.7664
27.7446
27.7142
27.6717
27.6162
27.5475
27.464
27.3656
27.2505
27.1188
26.9694
26.8003
26.6116
26.4002
26.1661
25.9071
25.6217
25.3093
24.967
24.5938
24.187
23.7459
23.2678
22.7506
22.193
21.5927
20.9473
20.2548
19.5134
18.7214
17.876
16.9764
16.0196
15.0045
13.9296
12.7932
11.5926
10.3275
8.98781
7.58871
6.25223
25.4657
25.4772
25.478
25.4602
25.4333
25.3965
25.3454
25.2833
25.207
25.1155
25.0103
24.8884
24.7492
24.5924
24.4158
24.2189
23.9995
23.7567
23.4894
23.1956
22.874
22.5221
22.1391
21.7231
21.2718
20.7828
20.2552
19.6863
19.0742
18.4172
17.7126
16.9591
16.1542
15.2957
14.3835
13.4133
12.3855
11.2975
10.1482
8.93533
7.65394
6.32179
5.10102
23.1814
23.1983
23.2028
23.1909
23.1694
23.1371
23.0942
23.0381
22.9689
22.8872
22.7899
22.6776
22.5487
22.4031
22.2389
22.0549
21.8505
21.6236
21.3731
21.0967
20.794
20.4627
20.1019
19.7089
19.2822
18.8203
18.3204
17.7816
17.2009
16.5768
15.907
15.1899
14.4238
13.6048
12.734
11.8072
10.8239
9.78234
8.68132
7.51771
6.28765
5.00587
3.83601
20.9788
20.99
20.9867
20.9727
20.9507
20.9192
20.8792
20.8266
20.7628
20.686
20.5964
20.4913
20.3721
20.2359
20.0824
19.9109
19.7191
19.5068
19.2713
19.0119
18.7272
18.4158
18.0755
17.7044
17.3015
16.8641
16.3908
15.8796
15.3289
14.7359
14.0991
13.4164
12.6864
11.9055
11.074
10.1885
9.24753
8.25066
7.19591
6.08141
4.90435
3.6813
2.57114
18.7144
18.7328
18.7436
18.7389
18.7249
18.7029
18.6695
18.625
18.5679
18.4999
18.4177
18.3226
18.212
18.0865
17.9442
17.7841
17.6057
17.4069
17.1856
16.9419
16.6744
16.3808
16.0594
15.7095
15.3284
14.9152
14.4667
13.9818
13.4593
12.8959
12.2903
11.6403
10.9441
10.1998
9.40521
8.55875
7.65856
6.70303
5.69097
4.61984
3.48554
2.29947
1.21924
16.5211
16.5366
16.548
16.5444
16.5337
16.5153
16.4863
16.4471
16.3968
16.3343
16.2612
16.1736
16.0725
15.956
15.8239
15.6747
15.5084
15.3217
15.115
14.8865
14.635
14.3588
14.0558
13.725
13.3651
12.9737
12.5491
12.0891
11.5928
11.0578
10.4816
9.86259
9.19914
8.48872
7.72989
6.92
6.05837
5.14273
4.17137
3.14203
2.0506
0.903161
-0.147179
14.3632
14.3795
14.3879
14.3847
14.3757
14.3581
14.3325
14.297
14.251
14.1948
14.1268
14.0467
13.9527
13.8453
13.7224
13.5838
13.4281
13.2544
13.0604
12.8459
12.6094
12.3492
12.0637
11.7516
11.4109
11.0408
10.6383
10.2023
9.73128
9.22278
8.6743
8.08499
7.45261
6.77466
6.04953
5.27487
4.44982
3.57202
2.63935
1.64964
0.599392
-0.51276
-1.56288
12.2021
12.2194
12.2301
12.2315
12.2253
12.2126
12.1914
12.1615
12.121
12.0704
12.0096
11.9354
11.8503
11.7516
11.6376
11.5088
11.364
11.2017
11.0203
10.8195
10.5971
10.3523
10.0834
9.78887
9.46714
9.11654
8.73551
8.3222
7.87483
7.39148
6.86963
6.30865
5.70537
5.05866
4.36571
3.62485
2.83469
1.99275
1.09766
0.145924
-0.866243
-1.94358
-2.99223
10.041
10.0595
10.0774
10.085
10.0855
10.0785
10.0639
10.0393
10.006
9.96237
9.90776
9.84218
9.76461
9.67371
9.56924
9.45014
9.31611
9.16431
8.99551
8.80716
8.59844
8.36798
8.11514
7.83722
7.53318
7.202
6.84125
6.44944
6.02453
5.56511
5.06883
4.53462
3.95922
3.34179
2.68008
1.97185
1.21495
0.407836
-0.451104
-1.3656
-2.33918
-3.3763
-4.40437
7.90914
7.93211
7.95443
7.96531
7.96964
7.96778
7.95738
7.93868
7.91074
7.8735
7.82545
7.76677
7.69579
7.61335
7.51786
7.4083
7.28373
7.14276
6.98492
6.80899
6.6133
6.39749
6.15954
5.89737
5.61013
5.29676
4.95529
4.58386
4.18089
3.74429
3.2724
2.76336
2.21509
1.62547
0.993449
0.316424
-0.408064
-1.18121
-2.00494
-2.88254
-3.81659
-4.80721
-5.79728
5.84018
5.86043
5.87915
5.88862
5.8917
5.88998
5.88087
5.86521
5.84061
5.80763
5.76447
5.7115
5.64747
5.57159
5.48355
5.38303
5.26751
5.13684
4.98956
4.82466
4.64179
4.43903
4.21494
3.96852
3.69809
3.40207
3.07876
2.72612
2.34376
1.92919
1.48022
0.995919
0.473455
-0.0885682
-0.692707
-1.33986
-2.03342
-2.77361
-3.56346
-4.40536
-5.30303
-6.25295
-7.18034
3.78601
3.80066
3.81597
3.82502
3.82971
3.82846
3.8227
3.80901
3.78835
3.75853
3.72076
3.67328
3.61499
3.5465
3.46662
3.37297
3.26656
3.14568
3.00858
2.85541
2.68425
2.49417
2.28386
2.05182
1.79612
1.51652
1.21065
0.877157
0.514763
0.120719
-0.305927
-0.767298
-1.26487
-1.80111
-2.37752
-2.99616
-3.65976
-4.36866
-5.1262
-5.93449
-6.7985
-7.71292
-8.58754
1.66158
1.68789
1.71788
1.73774
1.75134
1.75973
1.7606
1.75472
1.74054
1.71832
1.68678
1.64617
1.59549
1.53508
1.46232
1.37776
1.27998
1.16843
1.04151
0.898989
0.739427
0.561443
0.364144
0.145619
-0.0946747
-0.358434
-0.647817
-0.963332
-1.30711
-1.68084
-2.08639
-2.52531
-2.99925
-3.51057
-4.06071
-4.65207
-5.2866
-5.96567
-6.69213
-7.46891
-8.30157
-9.19359
-10.0916
-0.394543
-0.370092
-0.338416
-0.314801
-0.297593
-0.284672
-0.278661
-0.279202
-0.287282
-0.304397
-0.329096
-0.362726
-0.40638
-0.46072
-0.525667
-0.602345
-0.691277
-0.794257
-0.910992
-1.04365
-1.19227
-1.35835
-1.54319
-1.74784
-1.97409
-2.22353
-2.49673
-2.7952
-3.12093
-3.47563
-3.86092
-4.27837
-4.7295
-5.21687
-5.74177
-6.30657
-6.91271
-7.56254
-8.25766
-9.00017
-9.79291
-10.6416
-11.5322
-2.40956
-2.38038
-2.34865
-2.32526
-2.30703
-2.29428
-2.28598
-2.28426
-2.28949
-2.3023
-2.32236
-2.35219
-2.39056
-2.43837
-2.49614
-2.56568
-2.64655
-2.74085
-2.84922
-2.97205
-3.11068
-3.26604
-3.43852
-3.63075
-3.84342
-4.07798
-4.33564
-4.61785
-4.92656
-5.26297
-5.62877
-6.02579
-6.45523
-6.91945
-7.42047
-7.95946
-8.53842
-9.15956
-9.82478
-10.5351
-11.2916
-12.1022
-12.9739
-4.38621
-4.36419
-4.33449
-4.31209
-4.29407
-4.28019
-4.27112
-4.26718
-4.27002
-4.27992
-4.29711
-4.32241
-4.35584
-4.39754
-4.4505
-4.51322
-4.58743
-4.67346
-4.77314
-4.88648
-5.01543
-5.1597
-5.32165
-5.50164
-5.70171
-5.92242
-6.16507
-6.43188
-6.72387
-7.04272
-7.38983
-7.76715
-8.17611
-8.6184
-9.0963