/*--------------------------------*- C++ -*----------------------------------*\
| =========                 |                                                 |
| \\      /  F ield         | OpenFOAM: The Open Source CFD Toolbox           |
|  \\    /   O peration     | Version:  2.3.0                                 |
|   \\  /    A nd           | Web:      www.OpenFOAM.org                      |
|    \\/     M anipulation  |                                                 |
\*---------------------------------------------------------------------------*/
FoamFile
{
    version     2.0;
    format      ascii;
    class       volVectorField;
    location    "10000";
    object      U;
}
// * * * * * * * * * * * * * * * * * * * * * * * * * * * * * * * * * * * * * //

dimensions      [0 1 -1 0 0 0 0];

internalField   nonuniform List<vector> 
123128
(
(10.3214 -2.94491 0)
(10.161 -3.0827 -2.73087e-21)
(9.99168 -3.21491 -3.9704e-22)
(9.82097 -3.35021 -4.76031e-21)
(9.64886 -3.48855 2.76448e-21)
(9.4751 -3.62959 -7.93046e-21)
(9.29977 -3.77341 1.82432e-20)
(9.12276 -3.92006 4.42183e-21)
(8.94384 -4.06957 0)
(8.76315 -4.22216 5.90455e-21)
(8.58062 -4.37814 -7.48419e-21)
(8.39596 -4.53765 4.1085e-21)
(8.20905 -4.70091 -1.92145e-21)
(8.01955 -4.86821 6.74328e-21)
(7.82768 -5.03988 -4.66681e-21)
(7.63287 -5.21634 0)
(7.43481 -5.39775 0)
(7.23348 -5.58494 5.95144e-21)
(7.02867 -5.77838 -1.18342e-20)
(6.8198 -5.97872 -1.26193e-20)
(6.60616 -6.18658 1.29491e-20)
(6.3878 -6.40296 -1.35127e-20)
(6.16387 -6.62912 8.56464e-23)
(5.93377 -6.86603 -6.04933e-21)
(5.69694 -7.11529 2.22781e-20)
(5.45251 -7.37798 -2.18457e-20)
(5.19987 -7.65585 0)
(4.93809 -7.95125 3.93516e-21)
(4.6661 -8.26626 0)
(4.38337 -8.60416 -1.21629e-20)
(4.08871 -8.96816 0)
(3.78062 -9.36241 -2.6154e-21)
(3.45841 -9.79179 1.78135e-21)
(3.12194 -10.2621 -2.09703e-20)
(2.77107 -10.7802 1.7135e-20)
(2.40691 -11.3542 0)
(2.03104 -11.9956 0)
(1.64526 -12.7176 0)
(1.25583 -13.5341 0)
(0.879647 -14.4671 -3.25775e-19)
(0.538375 -15.5445 3.31855e-19)
(0.314941 -16.8263 0)
(0.192909 -18.1334 -6.79944e-21)
(10.4868 -3.12767 -2.64948e-22)
(10.3496 -3.25959 5.54335e-22)
(10.2059 -3.38684 3.96498e-22)
(10.0617 -3.51714 4.62733e-22)
(9.91674 -3.65046 2.04148e-21)
(9.77112 -3.78663 -2.58683e-21)
(9.62479 -3.92571 2.3645e-21)
(9.47763 -4.06778 -1.18795e-20)
(9.32964 -4.21294 4.15225e-21)
(9.18087 -4.36139 -1.71804e-22)
(9.0314 -4.51341 -7.70665e-21)
(8.88129 -4.66928 0)
(8.73026 -4.82923 -1.03456e-20)
(8.57831 -4.99353 9.11874e-21)
(8.42542 -5.16262 7.97389e-21)
(8.27143 -5.33678 -7.97131e-21)
(8.11622 -5.5164 -3.60522e-21)
(7.95995 -5.70192 5.48076e-21)
(7.8026 -5.89386 -5.85501e-21)
(7.64406 -6.09276 1.21618e-20)
(7.48428 -6.29922 -1.07256e-20)
(7.32343 -6.51404 4.53962e-21)
(7.16158 -6.73803 7.09235e-21)
(6.99896 -6.97221 3.10279e-23)
(6.83606 -7.21784 7.5618e-21)
(6.67282 -7.47624 -1.57977e-20)
(6.50983 -7.74894 1.8039e-20)
(6.3479 -8.03773 -1.2753e-20)
(6.18771 -8.34441 -1.92492e-21)
(6.03114 -8.67138 3.35569e-21)
(5.87955 -9.02125 0)
(5.73478 -9.39671 2.44229e-21)
(5.60041 -9.80114 -1.06888e-20)
(5.48057 -10.2381 1.46699e-20)
(5.37986 -10.7111 -5.11939e-21)
(5.30507 -11.2243 1.21007e-20)
(5.26385 -11.7809 -8.08616e-21)
(5.26897 -12.3837 0)
(5.3341 -13.0342 -9.27491e-20)
(5.47781 -13.7307 1.06257e-19)
(5.72767 -14.4649 1.44321e-20)
(6.11993 -15.2179 2.39431e-19)
(6.71814 -15.9447 -2.45859e-19)
(10.6426 -3.28622 -5.54321e-21)
(10.5232 -3.41437 -3.7188e-21)
(10.3984 -3.53833 6.75097e-21)
(10.2734 -3.66537 -2.1403e-21)
(10.1483 -3.79554 0)
(10.0228 -3.92869 1.04706e-21)
(9.89691 -4.06497 -5.50203e-22)
(9.77069 -4.20449 1.85236e-21)
(9.64403 -4.34729 -1.18916e-21)
(9.51708 -4.49358 0)
(9.39013 -4.64366 2.7271e-21)
(9.26312 -4.79779 -2.07396e-21)
(9.13594 -4.95628 4.24231e-21)
(9.00865 -5.11949 1.11991e-21)
(8.88123 -5.2878 -3.0629e-21)
(8.75362 -5.46157 6.83893e-21)
(8.62593 -5.64125 -1.5535e-22)
(8.49819 -5.82729 0)
(8.37062 -6.02017 0)
(8.24323 -6.22048 -1.69759e-21)
(8.11607 -6.42877 8.42746e-21)
(7.98937 -6.64582 -6.94152e-21)
(7.86369 -6.87244 -2.28416e-21)
(7.73919 -7.10933 2.35809e-21)
(7.61636 -7.35751 -1.85392e-21)
(7.49594 -7.61813 1.92407e-21)
(7.37901 -7.89223 -2.20909e-21)
(7.26627 -8.18133 0)
(7.15928 -8.48655 8.69497e-22)
(7.06005 -8.80951 1.80415e-23)
(6.97038 -9.15189 0)
(6.8926 -9.51513 2.50335e-21)
(6.83067 -9.9007 0)
(6.78848 -10.31 0)
(6.77099 -10.744 0)
(6.78416 -11.2034 -4.44473e-21)
(6.83566 -11.687 4.56762e-20)
(6.9331 -12.1939 -4.77174e-20)
(7.08598 -12.7197 0)
(7.30499 -13.2571 -8.40293e-21)
(7.60023 -13.7952 2.4986e-20)
(7.98077 -14.3169 1.30284e-19)
(8.4499 -14.7999 -2.8601e-19)
(10.7892 -3.42374 0)
(10.6851 -3.54451 3.27164e-21)
(10.5772 -3.66277 -2.76268e-21)
(10.4694 -3.78416 0)
(10.3618 -3.90864 0)
(10.254 -4.03611 -1.14379e-21)
(10.1461 -4.16663 0)
(10.0382 -4.30037 1.50378e-21)
(9.93027 -4.43739 -4.51616e-22)
(9.82243 -4.57777 0)
(9.71487 -4.72176 6.94984e-22)
(9.6077 -4.86969 6.39779e-22)
(9.50096 -5.02184 6.99256e-22)
(9.3948 -5.17858 -3.01619e-22)
(9.28929 -5.34033 6.95988e-22)
(9.18439 -5.50738 -1.28396e-21)
(9.08 -5.68018 6.78614e-22)
(8.97641 -5.85908 -8.12917e-22)
(8.87386 -6.04459 -1.22642e-23)
(8.77265 -6.23716 3.53325e-21)
(8.67285 -6.4374 -3.58788e-21)
(8.57486 -6.64579 9.49367e-22)
(8.47922 -6.86312 0)
(8.38641 -7.09003 4.77636e-22)
(8.29696 -7.32726 -4.94031e-22)
(8.21183 -7.57563 0)
(8.13198 -7.83616 0)
(8.0587 -8.10969 -1.26472e-21)
(7.99321 -8.39732 2.37088e-21)
(7.93771 -8.69983 8.00375e-22)
(7.89394 -9.0184 9.925e-21)
(7.86462 -9.35371 -1.283e-20)
(7.85276 -9.70629 2.2859e-20)
(7.86172 -10.0767 4.62328e-21)
(7.89569 -10.4646 -2.44823e-20)
(7.95947 -10.869 -9.57491e-21)
(8.05802 -11.2882 4.74891e-20)
(8.19718 -11.7188 -6.37056e-20)
(8.38238 -12.156 1.72668e-20)
(8.61887 -12.5926 6.52755e-20)
(8.91097 -13.019 -1.12159e-19)
(9.25971 -13.4236 -2.82039e-20)
(9.66306 -13.7923 1.36989e-19)
(10.9229 -3.53945 -5.84522e-21)
(10.8334 -3.65365 0)
(10.7402 -3.7663 4.58501e-21)
(10.647 -3.88189 -4.22988e-22)
(10.5538 -4.00034 1.98169e-21)
(10.4606 -4.12181 -3.83852e-21)
(10.3674 -4.24639 1.55912e-21)
(10.2741 -4.37419 -3.99607e-21)
(10.1808 -4.50535 1.54948e-22)
(10.0877 -4.6399 1.24624e-21)
(9.99494 -4.77788 0)
(9.90293 -4.91972 -8.63723e-22)
(9.81166 -5.06572 6.13387e-22)
(9.72115 -5.2162 -2.08605e-21)
(9.63172 -5.37156 6.96612e-22)
(9.54325 -5.53227 -2.98528e-22)
(9.4557 -5.69867 3.03063e-22)
(9.36919 -5.87117 -1.22005e-22)
(9.28408 -6.05004 0)
(9.20078 -6.23575 -1.2668e-21)
(9.11955 -6.42877 0)
(9.04061 -6.62974 0)
(8.96452 -6.83912 0)
(8.89183 -7.05756 0)
(8.82331 -7.2856 2.12093e-21)
(8.75979 -7.52389 -2.19751e-21)
(8.70253 -7.77293 -3.34623e-21)
(8.65252 -8.03375 4.73303e-21)
(8.61125 -8.30675 -5.2343e-21)
(8.58052 -8.59265 -2.52053e-22)
(8.56251 -8.89191 -8.08414e-21)
(8.55947 -9.20492 8.45264e-21)
(8.5739 -9.53191 1.37667e-21)
(8.60898 -9.87257 -1.50567e-20)
(8.66828 -10.2262 1.57227e-20)
(8.75535 -10.5912 9.39993e-21)
(8.87423 -10.9653 0)
(9.02871 -11.3455 1.40379e-20)
(9.22267 -11.7266 -9.23567e-20)
(9.45911 -12.1025 9.80599e-20)
(9.73917 -12.4663 -1.27095e-19)
(10.063 -12.8085 -1.29925e-20)
(10.4273 -13.1206 1.20139e-19)
(11.0488 -3.63855 -3.46713e-21)
(10.9705 -3.74609 0)
(10.8892 -3.85276 6.18307e-21)
(10.8078 -3.96219 -2.92183e-21)
(10.7266 -4.07423 -2.75741e-21)
(10.6456 -4.18933 -2.19475e-21)
(10.5645 -4.30768 2.46107e-21)
(10.4834 -4.42926 -2.19156e-21)
(10.4023 -4.55428 2.1968e-21)
(10.321 -4.68279 2.42902e-21)
(10.2403 -4.8145 0)
(10.1605 -4.94983 -2.27254e-21)
(10.0816 -5.08933 -3.08586e-21)
(10.0036 -5.23322 2.12329e-21)
(9.92683 -5.3817 0)
(9.85144 -5.53534 -8.36371e-22)
(9.77744 -5.69465 1.70027e-21)
(9.70464 -5.86008 1.63328e-23)
(9.63327 -6.03173 5.46203e-22)
(9.56385 -6.20985 1.30663e-21)
(9.49689 -6.39497 2.12408e-21)
(9.43275 -6.58773 -1.12665e-21)
(9.37179 -6.78858 -3.2701e-21)
(9.31445 -6.99804 3.66106e-21)
(9.26163 -7.21645 0)
(9.21429 -7.44426 -4.25211e-21)
(9.17347 -7.68195 4.41157e-21)
(9.14033 -7.93021 -1.22261e-20)
(9.11617 -8.18963 6.14489e-21)
(9.10285 -8.46019 1.20733e-20)
(9.10234 -8.74236 0)
(9.11669 -9.03634 0)
(9.14804 -9.34205 -1.31623e-20)
(9.19936 -9.65865 -2.51606e-20)
(9.27382 -9.98525 1.7564e-20)
(9.37388 -10.3206 -1.15603e-20)
(9.50272 -10.6621 -2.80157e-20)
(9.66397 -11.006 2.90896e-20)
(9.85979 -11.3488 0)
(10.0919 -11.685 -2.121e-20)
(10.3609 -12.0085 -3.97571e-22)
(10.666 -12.3119 2.73029e-20)
(11.0046 -12.5884 0)
(11.164 -3.72334 3.46701e-21)
(11.096 -3.82519 0)
(11.0246 -3.92566 1.83836e-22)
(10.9527 -4.02884 -3.45936e-21)
(10.8813 -4.1343 2.97492e-21)
(10.8104 -4.24303 -2.83953e-21)
(10.7394 -4.35526 3.34357e-21)
(10.6685 -4.47061 0)
(10.5976 -4.58958 -5.94457e-21)
(10.526 -4.71247 3.97977e-22)
(10.4546 -4.83841 1.3303e-21)
(10.3844 -4.96758 9.14245e-22)
(10.3154 -5.10086 5.16795e-21)
(10.2472 -5.23866 0)
(10.1802 -5.38088 0)
(10.1149 -5.52768 -1.29808e-21)
(10.0516 -5.68009 4.3645e-21)
(9.98977 -5.8388 0)
(9.92896 -6.00396 9.21862e-22)
(9.86971 -6.17523 0)
(9.81332 -6.35299 0)
(9.7603 -6.53806 0)
(9.71074 -6.73117 3.25068e-21)
(9.66488 -6.93261 -3.63618e-21)
(9.62348 -7.14265 -2.48601e-21)
(9.58732 -7.36149 2.57574e-21)
(9.55797 -7.58929 -3.21213e-21)
(9.53661 -7.82683 9.59598e-21)
(9.52428 -8.07468 0)
(9.52259 -8.33256 1.323e-21)
(9.5337 -8.60071 1.23975e-21)
(9.55955 -8.87938 0)
(9.60174 -9.16807 -8.47811e-21)
(9.66301 -9.4655 8.18223e-21)
(9.74675 -9.77112 0)
(9.85393 -10.0843 3.54102e-20)
(9.98741 -10.4011 0)
(10.151 -10.7184 -3.21636e-20)
(10.3455 -11.0338 -3.69302e-20)
(10.5725 -11.3423 1.87588e-20)
(10.831 -11.6384 6.88815e-20)
(11.1211 -11.915 0)
(11.4413 -12.1682 6.26567e-20)
(11.2684 -3.79489 -3.99486e-21)
(11.2102 -3.89222 8.14255e-21)
(11.148 -3.98706 3.90537e-21)
(11.0832 -4.0843 -1.06869e-22)
(11.0196 -4.18305 -3.8319e-21)
(10.9575 -4.2854 0)
(10.8945 -4.39234 -5.07381e-21)
(10.8312 -4.50199 5.67081e-21)
(10.7695 -4.61475 3.11788e-21)
(10.7064 -4.7325 -2.02357e-21)
(10.6422 -4.85341 -2.49868e-23)
(10.5792 -4.97693 -1.6788e-21)
(10.518 -5.10444 -4.57789e-21)
(10.4579 -5.23687 3.29384e-21)
(10.3982 -5.37396 2.20471e-21)
(10.3401 -5.51491 3.95269e-21)
(10.2845 -5.66072 -3.02314e-21)
(10.2312 -5.81306 1.75988e-21)
(10.1794 -5.97258 -1.1136e-20)
(10.1281 -6.13783 1.89995e-21)
(10.08 -6.30873 -2.0984e-21)
(10.0354 -6.48668 2.15502e-21)
(9.99499 -6.67246 5.37703e-21)
(9.95815 -6.86658 -8.53116e-21)
(9.92585 -7.06946 5.7689e-21)
(9.89771 -7.28085 -3.08668e-21)
(9.87641 -7.49988 0)
(9.86386 -7.7278 8.73507e-21)
(9.86077 -7.96587 -9.81895e-21)
(9.86687 -8.21326 0)
(9.88578 -8.46969 -1.13057e-20)
(9.9201 -8.73599 -1.44281e-20)
(9.96899 -9.01186 -1.79725e-20)
(10.0354 -9.29409 1.72353e-20)
(10.126 -9.5825 -2.1966e-20)
(10.2376 -9.87878 -1.25674e-21)
(10.3727 -10.1769 2.6314e-20)
(10.5374 -10.473 6.46086e-20)
(10.7296 -10.7671 1.32052e-21)
(10.953 -11.0548 -1.25568e-19)
(11.2021 -11.3297 4.44263e-20)
(11.4805 -11.5851 -5.21969e-20)
(11.789 -11.8212 -6.04555e-20)
(11.3593 -3.8578 4.29003e-21)
(11.3085 -3.95127 -4.04024e-21)
(11.2562 -4.04342 4.28875e-21)
(11.1965 -4.1342 -8.85319e-21)
(11.1412 -4.22404 -3.90767e-22)
(11.0905 -4.31793 0)
(11.0387 -4.41861 -4.24203e-21)
(10.9794 -4.52257 -5.77126e-21)
(10.9234 -4.62934 2.03831e-21)
(10.8671 -4.74254 5.84509e-21)
(10.8107 -4.85935 -2.09618e-21)
(10.7557 -4.97672 0)
(10.7014 -5.09733 2.12253e-21)
(10.6491 -5.22397 -4.30679e-21)
(10.5971 -5.35639 -7.2958e-21)
(10.5462 -5.49225 2.85761e-21)
(10.4981 -5.63086 -1.16124e-21)
(10.45 -5.7748 0)
(10.4043 -5.93045 4.21343e-21)
(10.3577 -6.09141 0)
(10.3165 -6.25698 0)
(10.2782 -6.42822 1.43418e-21)
(10.2448 -6.60783 -6.88021e-21)
(10.2138 -6.79533 5.87395e-21)
(10.1904 -6.99194 0)
(10.1678 -7.19811 0)
(10.1516 -7.41042 0)
(10.1438 -7.6288 -8.6083e-21)
(10.1485 -7.85991 1.51143e-20)
(10.161 -8.09867 -5.62032e-21)
(10.1869 -8.3435 1.35003e-20)
(10.2304 -8.59919 1.41373e-20)
(10.2835 -8.86656 1.63147e-20)
(10.35 -9.13611 0)
(10.4473 -9.40915 0)
(10.5585 -9.69394 -1.13106e-20)
(10.6887 -9.9805 -4.40736e-20)
(10.8522 -10.2639 3.14323e-20)
(11.0337 -10.5413 3.79105e-20)
(11.2538 -10.8186 1.50301e-21)
(11.4871 -11.0779 4.82026e-20)
(11.7528 -11.3153 5.04591e-20)
(12.0578 -11.5462 0)
(1.86403 -17.8303 -1.3482e-18)
(2.81614 -16.0384 1.43301e-18)
(3.6412 -14.299 -7.18919e-20)
(4.55376 -12.977 -1.41877e-18)
(5.39206 -11.9305 1.3539e-18)
(6.09504 -11.0682 0)
(6.70748 -10.3838 -1.38375e-18)
(7.2707 -9.86574 -2.59461e-20)
(7.79515 -9.47968 1.25019e-18)
(8.29526 -9.20679 -1.18747e-18)
(8.77993 -9.02498 1.11737e-18)
(9.25318 -8.91038 0)
(9.71847 -8.84547 -8.77242e-19)
(10.182 -8.82106 1.06053e-18)
(10.6382 -8.82303 -1.14823e-19)
(11.0927 -8.84693 9.94634e-20)
(11.5431 -8.88492 0)
(11.985 -8.92906 9.10639e-20)
(12.4212 -8.97853 0)
(12.8504 -9.03015 9.0046e-20)
(13.2715 -9.08102 0)
(13.6842 -9.12969 0)
(14.0873 -9.17456 6.31291e-19)
(14.4811 -9.21489 -6.13728e-19)
(14.8651 -9.25003 1.51201e-19)
(15.2373 -9.27807 0)
(15.5998 -9.30039 -1.36907e-19)
(15.9512 -9.31608 5.52442e-19)
(16.2908 -9.32429 -6.80452e-19)
(16.6189 -9.3254 0)
(16.9358 -9.31975 -3.95038e-19)
(17.2404 -9.30659 5.16433e-19)
(17.5333 -9.28642 0)
(17.8144 -9.25907 -7.47164e-19)
(18.0836 -9.22473 7.47992e-19)
(18.3408 -9.18352 2.40959e-19)
(18.5867 -9.13595 -4.83978e-19)
(18.8209 -9.08188 -7.224e-19)
(19.0437 -9.02142 1.18369e-18)
(19.2557 -8.95534 -7.06036e-19)
(19.4575 -8.88405 4.61242e-19)
(19.6511 -8.809 -4.54413e-19)
(19.8292 -8.71503 -4.37599e-19)
(7.48623 -16.5153 0)
(8.28573 -16.8031 -4.78705e-19)
(9.067 -16.8389 4.95491e-19)
(9.82568 -16.6724 0)
(10.5265 -16.3563 7.14771e-19)
(11.1536 -15.952 -6.61001e-19)
(11.7086 -15.507 0)
(12.1985 -15.0517 3.48753e-20)
(12.6335 -14.6042 8.61045e-20)
(13.0213 -14.1715 0)
(13.3755 -13.7678 0)
(13.7007 -13.394 -7.01916e-19)
(14.0062 -13.0544 1.27372e-18)
(14.2927 -12.7438 -1.3335e-18)
(14.5673 -12.4643 1.30016e-18)
(14.8318 -12.2124 -7.15043e-19)
(15.0893 -11.9856 -7.47688e-20)
(15.3391 -11.7793 2.21932e-19)
(15.5841 -11.5929 -2.92287e-19)
(15.8241 -11.4228 -2.85673e-19)
(16.0606 -11.2676 2.78269e-19)
(16.2924 -11.1238 1.331e-19)
(16.5204 -10.9906 0)
(16.7442 -10.866 -3.89164e-19)
(16.9633 -10.7481 3.82019e-19)
(17.1786 -10.6364 2.51988e-19)
(17.3893 -10.5296 -1.20199e-19)
(17.5953 -10.4265 0)
(17.7958 -10.3258 -1.19146e-19)
(17.9916 -10.2275 2.39433e-19)
(18.1826 -10.131 -4.75897e-19)
(18.3681 -10.035 4.7117e-19)
(18.5486 -9.93997 -9.36556e-19)
(18.7236 -9.84484 7.03544e-19)
(18.8934 -9.74949 0)
(19.0577 -9.65365 -2.3499e-19)
(19.2168 -9.55726 4.61307e-19)
(19.3707 -9.46005 0)
(19.5193 -9.36175 -5.49868e-21)
(19.663 -9.26233 2.28806e-19)
(19.8021 -9.16168 -4.4939e-19)
(19.937 -9.05975 -2.24138e-19)
(20.0682 -8.95236 6.5476e-19)
(8.99974 -15.2164 1.56119e-19)
(9.60993 -15.5422 2.02593e-19)
(10.2521 -15.7539 -1.26331e-19)
(10.9016 -15.8461 1.91373e-19)
(11.5359 -15.8273 -1.87778e-19)
(12.1374 -15.7182 -2.81298e-19)
(12.6964 -15.54 5.02903e-19)
(13.2093 -15.3125 -3.65323e-19)
(13.677 -15.0552 -7.41953e-21)
(14.1014 -14.7805 7.12393e-20)
(14.4866 -14.4977 7.11547e-20)
(14.8374 -14.2131 0)
(15.1581 -13.9323 0)
(15.4541 -13.6592 0)
(15.7274 -13.3945 0)
(15.9827 -13.1414 0)
(16.222 -12.8998 4.01927e-21)
(16.4483 -12.6703 2.02415e-19)
(16.6628 -12.4522 -1.96667e-19)
(16.8676 -12.2453 0)
(17.0636 -12.0488 3.74696e-19)
(17.2523 -11.8622 -4.93193e-19)
(17.4341 -11.6848 -2.43241e-19)
(17.6099 -11.5156 1.21098e-19)
(17.7804 -11.354 -3.11232e-23)
(17.9456 -11.1988 0)
(18.1062 -11.0499 0)
(18.2624 -10.9062 -1.11943e-19)
(18.4143 -10.7672 1.14582e-19)
(18.5625 -10.6324 -1.10381e-19)
(18.707 -10.5014 1.12982e-19)
(18.8478 -10.3737 1.09447e-19)
(18.9849 -10.2487 2.21484e-19)
(19.1185 -10.1265 -2.20872e-19)
(19.2485 -10.0063 -2.20658e-19)
(19.3749 -9.88807 2.57586e-21)
(19.4979 -9.77141 -2.22488e-19)
(19.6175 -9.65613 -2.17538e-19)
(19.7338 -9.54185 -2.21649e-19)
(19.847 -9.4284 2.20801e-19)
(19.9576 -9.31567 -4.32863e-19)
(20.0656 -9.20333 -1.89799e-21)
(20.1738 -9.09271 3.67051e-21)
(10.1154 -14.1138 -1.39639e-19)
(10.6101 -14.3787 0)
(11.1343 -14.5804 -2.42307e-19)
(11.6725 -14.7136 2.48541e-19)
(12.2098 -14.7786 1.68318e-19)
(12.7331 -14.7804 -2.24899e-19)
(13.2338 -14.7265 1.22888e-19)
(13.706 -14.6274 -6.10415e-20)
(14.1471 -14.4917 -4.4736e-21)
(14.5564 -14.3284 -6.74428e-20)
(14.9347 -14.1453 -4.2062e-21)
(15.2842 -13.9486 0)
(15.6066 -13.7437 -2.61416e-19)
(15.9043 -13.5347 2.5445e-19)
(16.1803 -13.3245 0)
(16.4365 -13.1159 2.51783e-19)
(16.6754 -12.9106 5.82e-21)
(16.8987 -12.7095 -1.79085e-19)
(17.1086 -12.5137 -3.01237e-19)
(17.3061 -12.3236 2.3431e-19)
(17.4927 -12.1395 -2.32552e-19)
(17.6698 -11.9614 1.16748e-19)
(17.8381 -11.7892 -1.14982e-19)
(17.9988 -11.6228 4.45e-19)
(18.1524 -11.4617 -1.07425e-19)
(18.2998 -11.3057 0)
(18.4418 -11.1546 1.09719e-19)
(18.5786 -11.0079 3.81831e-21)
(18.7109 -10.8653 -1.07483e-19)
(18.839 -10.7268 1.07541e-19)
(18.963 -10.592 -3.15915e-19)
(19.0833 -10.4606 -4.62727e-22)
(19.1999 -10.3324 1.06681e-19)
(19.313 -10.2069 1.0466e-19)
(19.4228 -10.0839 -2.1077e-19)
(19.5293 -9.96333 2.13537e-19)
(19.6328 -9.84466 0)
(19.7336 -9.72768 2.13996e-19)
(19.8318 -9.61221 0)
(19.9278 -9.49813 1.94545e-21)
(20.022 -9.38531 -2.07433e-19)
(20.1144 -9.27325 0)
(20.2073 -9.16387 1.3478e-21)
(10.8276 -13.3946 -1.49401e-19)
(11.259 -13.6256 -1.40061e-20)
(11.7139 -13.8083 3.47703e-19)
(12.1819 -13.94 1.34725e-20)
(12.653 -14.0204 -4.01873e-19)
(13.1181 -14.0515 2.5783e-19)
(13.5695 -14.0385 2.23589e-19)
(14.002 -13.9864 -2.20115e-19)
(14.412 -13.9025 -1.16683e-19)
(14.7977 -13.7927 -5.78921e-20)
(15.1588 -13.6625 -1.19343e-19)
(15.496 -13.5171 0)
(15.8101 -13.3602 2.41027e-19)
(16.1025 -13.1958 -2.93332e-19)
(16.3746 -13.0266 0)
(16.6283 -12.8549 0)
(16.865 -12.6826 -5.46982e-20)
(17.0865 -12.5111 2.29116e-19)
(17.294 -12.3414 -2.23773e-19)
(17.4887 -12.1744 0)
(17.6717 -12.0106 1.11357e-19)
(17.8443 -11.8501 -2.1735e-19)
(18.0073 -11.6931 -1.09989e-19)
(18.162 -11.5397 5.27633e-19)
(18.3093 -11.39 -3.12379e-19)
(18.4498 -11.244 0)
(18.5842 -11.1014 -1.02218e-19)
(18.7134 -10.9622 3.08005e-19)
(18.8377 -10.8265 -2.0387e-19)
(18.9574 -10.6943 -1.00485e-19)
(19.0726 -10.5653 1.02424e-19)
(19.1835 -10.4394 1.02287e-19)
(19.2903 -10.3163 3.05145e-19)
(19.3933 -10.1957 -3.05071e-19)
(19.4928 -10.0774 -1.00766e-19)
(19.5892 -9.96124 0)
(19.6827 -9.84705 -2.04754e-19)
(19.7735 -9.73452 3.08523e-19)
(19.8621 -9.62357 -2.05362e-19)
(19.9487 -9.51408 1.46827e-21)
(20.0337 -9.40598 2.06652e-19)
(20.1171 -9.29911 -2.26437e-22)
(20.1997 -9.19515 -3.00292e-22)
(11.3723 -12.8329 -1.43373e-19)
(11.765 -13.0407 1.44845e-19)
(12.177 -13.2083 0)
(12.6006 -13.334 0)
(13.0275 -13.4176 4.64286e-20)
(13.4503 -13.4612 -2.52676e-19)
(13.863 -13.4669 9.72133e-20)
(14.2611 -13.4395 5.39251e-20)
(14.6417 -13.3839 5.51588e-20)
(15.0026 -13.3041 5.60194e-20)
(15.343 -13.2049 1.7985e-21)
(15.6633 -13.0902 0)
(15.9637 -12.9638 1.10171e-19)
(16.2452 -12.8286 1.66489e-19)
(16.5086 -12.6873 0)
(16.7552 -12.542 0)
(16.9861 -12.3943 3.02948e-21)
(17.2021 -12.2462 1.08495e-19)
(17.4044 -12.0984 1.22069e-21)
(17.5939 -11.9515 -1.04964e-19)
(17.7718 -11.806 1.03262e-19)
(17.9393 -11.6624 -1.03709e-19)
(18.0975 -11.5207 1.0183e-19)
(18.2477 -11.3811 -8.73195e-22)
(18.3904 -11.2445 1.48267e-21)
(18.5261 -11.1104 -9.99348e-20)
(18.656 -10.9787 9.87239e-20)
(18.7807 -10.8498 0)
(18.9002 -10.7242 9.90564e-20)
(19.0144 -10.6017 1.95736e-19)
(19.1234 -10.482 -1.01787e-21)
(19.2278 -10.3648 9.75437e-20)
(19.3279 -10.2499 -9.7996e-20)
(19.4242 -10.1371 -9.85204e-20)
(19.5171 -10.0264 1.98062e-19)
(19.6068 -9.91758 -9.80073e-20)
(19.6936 -9.81057 -1.98506e-19)
(19.7779 -9.70511 2.99111e-19)
(19.8602 -9.60111 0)
(19.9408 -9.49856 1.00958e-19)
(20.0201 -9.39748 -4.99676e-19)
(20.0981 -9.29823 1.00301e-19)
(20.1757 -9.20193 1.99428e-19)
(11.7858 -12.3934 -3.04389e-20)
(12.1512 -12.5852 0)
(12.5341 -12.7414 0)
(12.9273 -12.8614 0)
(13.3232 -12.9457 -1.36436e-19)
(13.7151 -12.9947 9.08014e-20)
(14.0987 -13.0104 1.45124e-19)
(14.4706 -12.9959 -1.01941e-19)
(14.8277 -12.9564 1.0033e-19)
(15.1678 -12.8943 1.05576e-19)
(15.4905 -12.8137 -1.54161e-19)
(15.7959 -12.7183 0)
(16.0839 -12.6115 -1.07263e-19)
(16.3552 -12.4957 -1.07106e-19)
(16.6094 -12.3736 -1.04251e-19)
(16.8482 -12.2467 0)
(17.0723 -12.1171 1.05178e-19)
(17.2818 -11.9866 0)
(17.4774 -11.8556 0)
(17.6609 -11.7243 0)
(17.8333 -11.5933 -1.0128e-19)
(17.996 -11.463 0)
(18.1498 -11.3338 0)
(18.2969 -11.206 -9.66416e-20)
(18.4357 -11.0814 0)
(18.5673 -10.9581 -9.64304e-20)
(18.6942 -10.836 1.91164e-19)
(18.8158 -10.7174 4.98501e-22)
(18.9311 -10.6024 -1.89617e-19)
(19.0403 -10.4898 -9.5826e-20)
(19.144 -10.3793 -9.57492e-22)
(19.2432 -10.2707 -9.39671e-20)
(19.3382 -10.164 0)
(19.4299 -10.059 9.44484e-20)
(19.518 -9.95611 1.91704e-19)
(19.603 -9.85508 9.67961e-20)
(19.685 -9.75575 2.63829e-22)
(19.7648 -9.65766 -1.93515e-19)
(19.8428 -9.56107 -9.68032e-20)
(19.9191 -9.46586 9.88753e-22)
(19.9942 -9.37212 1.95716e-19)
(20.0675 -9.27998 5.16003e-22)
(20.1399 -9.19054 1.97458e-19)
(12.1152 -12.0333 2.93303e-20)
(12.459 -12.2131 -6.92288e-20)
(12.8212 -12.3611 7.74104e-20)
(13.1931 -12.478 -7.74787e-20)
(13.5663 -12.5628 -8.69713e-20)
(13.9346 -12.6151 8.63572e-20)
(14.2953 -12.6355 -1.8439e-19)
(14.6469 -12.6291 0)
(14.9845 -12.6006 0)
(15.3067 -12.5505 0)
(15.6147 -12.4821 1.00913e-19)
(15.9082 -12.3998 1.01844e-19)
(16.1855 -12.3063 1.02666e-19)
(16.4475 -12.204 2.10522e-21)
(16.6923 -12.0962 -1.99675e-19)
(16.9235 -11.9826 9.93766e-20)
(17.1401 -11.8676 1.35641e-21)
(17.3418 -11.7512 -1.97863e-19)
(17.5306 -11.6326 9.76108e-20)
(17.7085 -11.5125 -9.79673e-20)
(17.8758 -11.393 1.92214e-19)
(18.0342 -11.2735 1.91564e-19)
(18.1846 -11.1539 -1.89184e-19)
(18.3302 -11.036 9.50196e-20)
(18.4638 -10.923 0)
(18.5917 -10.8077 0)
(18.7172 -10.6942 0)
(18.8352 -10.5867 -9.18775e-20)
(18.9455 -10.4809 -9.17521e-20)
(19.0499 -10.3758 9.20488e-20)
(19.1493 -10.2724 -1.83107e-19)
(19.2449 -10.1709 1.84614e-19)
(19.3361 -10.0718 3.58857e-22)
(19.4242 -9.97405 -2.77822e-19)
(19.5086 -9.87879 9.26237e-20)
(19.5898 -9.78519 9.27301e-20)
(19.668 -9.69315 9.32278e-20)
(19.7446 -9.60189 -9.43479e-20)
(19.8193 -9.51258 1.89799e-19)
(19.8924 -9.42442 9.56045e-20)
(19.9647 -9.33769 0)
(20.0353 -9.25303 9.54216e-20)
(20.1071 -9.1751 -7.00264e-22)
(12.366 -11.7485 0)
(12.6975 -11.9143 1.32146e-19)
(13.0615 -12.0489 2.54516e-21)
(13.4248 -12.1528 -7.75188e-20)
(13.7771 -12.2388 7.88937e-20)
(14.1202 -12.2979 0)
(14.4618 -12.3221 8.99362e-20)
(14.8001 -12.3201 9.15072e-20)
(15.1221 -12.3016 -9.60975e-20)
(15.4322 -12.2554 -3.14716e-21)
(15.7325 -12.1909 1.9391e-19)
(16.0164 -12.1177 -9.64444e-20)
(16.2826 -12.0346 -9.6437e-20)
(16.535 -11.9443 -9.63936e-20)
(16.7692 -11.8493 9.76918e-20)
(16.9948 -11.745 0)
(17.2051 -11.6415 9.70392e-20)
(17.402 -11.5297 9.65738e-20)
(17.584 -11.4202 -9.75117e-20)
(17.7573 -11.3105 -1.05311e-21)
(17.9198 -11.2025 -9.25763e-22)
(18.0756 -11.0902 -9.42039e-20)
(18.2235 -10.9782 9.31984e-20)
(18.3696 -10.8697 4.54304e-20)
(18.4932 -10.768 -9.28647e-20)
(18.6214 -10.6564 4.65495e-20)
(18.7485 -10.5523 -4.41382e-20)
(18.8625 -10.4514 1.30319e-19)
(18.9659 -10.349 2.72524e-19)
(19.0629 -10.2515 -9.20924e-20)
(19.1561 -10.1584 1.85114e-19)
(19.2466 -10.0675 -9.17145e-20)
(19.3324 -9.97712 9.0742e-20)
(19.4171 -9.88629 -9.1677e-20)
(19.4959 -9.80007 9.17144e-20)
(19.5739 -9.71318 -9.25093e-20)
(19.6485 -9.62799 -1.86832e-19)
(19.7219 -9.54366 1.84841e-19)
(19.793 -9.46202 0)
(19.8619 -9.38088 0)
(19.9289 -9.30199 0)
(19.9939 -9.22546 0)
(20.0639 -9.15467 -1.80488e-19)
(24.8308 3.85142 -3.11137e-19)
(24.8832 3.86782 -4.87335e-19)
(24.9343 3.88722 1.64067e-19)
(24.9843 3.90597 6.69312e-19)
(25.0333 3.9244 -1.68983e-18)
(25.0811 3.94247 3.40825e-19)
(25.1277 3.96014 0)
(25.173 3.97741 6.1369e-19)
(25.2168 3.99423 -6.18943e-19)
(25.259 4.0106 -8.9702e-20)
(25.2994 4.02649 0)
(25.338 4.04186 0)
(25.3744 4.05668 0)
(25.4083 4.07091 -9.65265e-20)
(25.4396 4.08448 -8.91343e-19)
(25.4677 4.09732 1.62382e-18)
(25.4922 4.10933 -8.33766e-19)
(25.5126 4.12042 -3.56854e-23)
(25.5282 4.13044 3.63144e-23)
(25.5383 4.13923 -1.03727e-18)
(25.5418 4.1466 9.5549e-19)
(25.5378 4.15233 6.22235e-20)
(25.5248 4.15611 6.49723e-20)
(25.5013 4.15763 -1.0205e-18)
(25.4653 4.15649 1.13994e-18)
(25.4145 4.15223 -3.75762e-20)
(25.3464 4.14437 -1.38344e-18)
(25.258 4.13239 1.33231e-18)
(25.1463 4.11579 1.40958e-18)
(25.0083 4.09411 -2.98138e-18)
(24.8406 4.06681 1.53136e-18)
(24.6396 4.03331 -5.29396e-20)
(24.4009 3.99288 5.68057e-20)
(24.1192 3.94453 0)
(23.7875 3.88709 0)
(23.3968 3.81883 -7.27285e-20)
(22.9338 3.73733 -8.06236e-20)
(22.3794 3.63894 -2.98272e-18)
(21.7024 3.51784 3.41402e-18)
(20.8469 3.36286 -6.14283e-20)
(19.6933 3.15139 7.54228e-20)
(17.9147 2.80341 -3.20345e-18)
(13.9327 2.12696 4.99486e-18)
(24.8464 3.8026 6.54109e-19)
(24.8944 3.81832 -1.67491e-19)
(24.9415 3.83534 -1.76481e-23)
(24.9876 3.85195 1.72346e-19)
(25.0328 3.86829 1.74193e-19)
(25.0771 3.88437 -5.28555e-19)
(25.1205 3.90014 -2.46451e-21)
(25.1628 3.91559 8.73237e-20)
(25.2042 3.93069 6.33596e-19)
(25.2443 3.94543 1.88651e-22)
(25.2833 3.95978 -9.31134e-20)
(25.3209 3.97373 7.58966e-19)
(25.357 3.98725 -7.70564e-19)
(25.3915 4.00032 0)
(25.4241 4.0129 0)
(25.4546 4.02495 8.27676e-19)
(25.4826 4.0364 -8.48251e-19)
(25.5078 4.0472 -1.09421e-19)
(25.5296 4.05724 5.65851e-20)
(25.5476 4.06643 9.38243e-19)
(25.561 4.07463 2.75509e-21)
(25.569 4.08166 -1.13798e-18)
(25.5704 4.08733 -7.99766e-23)
(25.5641 4.09135 -6.9126e-20)
(25.5484 4.09342 0)
(25.5214 4.09313 0)
(25.4808 4.09 8.04005e-20)
(25.4237 4.08348 -1.27933e-18)
(25.3467 4.07292 2.88526e-18)
(25.2464 4.05769 -3.01125e-18)
(25.1187 4.03703 1.62275e-18)
(24.9592 4.01019 1.78667e-18)
(24.7627 3.97625 -3.70151e-18)
(24.5232 3.9341 2.04818e-18)
(24.2329 3.88237 0)
(23.8816 3.81924 2.41568e-18)
(23.4554 3.74226 -2.49129e-18)
(22.9338 3.64779 -1.25474e-18)
(22.2845 3.53024 1.56781e-18)
(21.4499 3.37853 0)
(20.3041 3.17161 0)
(18.5072 2.81939 1.40635e-18)
(14.8342 2.15991 -1.89742e-18)
(24.8604 3.75881 1.69306e-19)
(24.9047 3.77343 0)
(24.9482 3.78863 1.74648e-19)
(24.9911 3.80347 -5.29886e-19)
(25.0333 3.81807 3.5542e-19)
(25.0748 3.83244 8.97621e-20)
(25.1155 3.84656 0)
(25.1555 3.86043 -6.41172e-19)
(25.1947 3.87402 1.47851e-18)
(25.2331 3.88731 -6.5345e-19)
(25.2705 3.90029 -5.70142e-19)
(25.307 3.91293 1.63776e-18)
(25.3423 3.92521 -6.85434e-19)
(25.3765 3.93711 8.01731e-19)
(25.4092 3.94861 2.39872e-21)
(25.4404 3.95967 -8.38101e-19)
(25.4698 3.97025 -8.63749e-19)
(25.4971 3.98028 9.42905e-19)
(25.5219 3.98971 -9.19051e-19)
(25.5438 3.99844 1.00837e-18)
(25.5623 4.00638 0)
(25.5767 4.01341 -9.63898e-19)
(25.5861 4.01936 2.07575e-18)
(25.5896 4.02403 -1.11941e-18)
(25.5858 4.02719 -1.17745e-18)
(25.5731 4.02853 1.23501e-18)
(25.5496 4.02766 8.13625e-20)
(25.5126 4.0241 -1.46645e-18)
(25.4591 4.01728 -3.88016e-21)
(25.3853 4.00652 1.49761e-18)
(25.2869 3.99105 5.14323e-20)
(25.1589 3.97002 1.75282e-18)
(24.9958 3.94246 -1.86695e-18)
(24.7906 3.90722 -6.26333e-20)
(24.535 3.8629 0)
(24.2182 3.80767 -1.2428e-18)
(23.8254 3.7391 1.19571e-18)
(23.3356 3.65364 -1.62433e-22)
(22.7153 3.54571 0)
(21.9055 3.40375 1.68533e-18)
(20.7751 3.2063 -2.10081e-18)
(18.9708 2.86903 0)
(15.4566 2.22124 -1.97164e-18)
(24.8731 3.71927 1.7547e-19)
(24.9142 3.73239 -1.76576e-19)
(24.9548 3.74606 -3.5814e-19)
(24.9949 3.75942 7.21453e-19)
(25.0344 3.77256 -7.27208e-19)
(25.0735 3.78551 2.74235e-19)
(25.112 3.79827 -9.23197e-20)
(25.1499 3.81083 -9.31842e-20)
(25.1873 3.82319 0)
(25.224 3.83533 0)
(25.2601 3.84722 -8.69814e-19)
(25.2953 3.85884 5.87e-19)
(25.3298 3.87015 -9.98234e-20)
(25.3634 3.88116 0)
(25.3959 3.89185 8.85648e-19)
(25.4272 3.90219 -1.70654e-18)
(25.4571 3.91215 8.75507e-19)
(25.4855 3.92167 -9.60599e-19)
(25.5118 3.93068 9.31184e-19)
(25.536 3.93913 6.02722e-20)
(25.5574 3.94692 -6.25453e-20)
(25.5756 3.95396 -9.78244e-19)
(25.5898 3.96012 -2.82499e-21)
(25.5993 3.96521 1.13478e-18)
(25.6029 3.96904 -7.43685e-20)
(25.5993 3.97135 -7.81463e-20)
(25.5867 3.97183 -1.4026e-18)
(25.5631 3.97007 1.47737e-18)
(25.5255 3.96556 0)
(25.4705 3.95767 7.81777e-19)
(25.3936 3.94565 -8.27766e-19)
(25.2899 3.92864 0)
(25.1531 3.90564 1.17335e-19)
(24.976 3.87545 -1.2545e-19)
(24.7498 3.83666 1.34659e-19)
(24.463 3.78744 7.28041e-20)
(24.1003 3.7253 1.50122e-18)
(23.6401 3.64668 -1.46906e-18)
(23.0483 3.546 -1.43999e-18)
(22.2646 3.41127 1.83565e-18)
(21.1533 3.21842 9.98266e-19)
(19.3508 2.89284 -1.19652e-18)
(15.928 2.26306 1.96968e-19)
(24.8839 3.68328 9.01074e-20)
(24.9223 3.69485 -9.01592e-20)
(24.9601 3.70725 -9.13375e-20)
(24.9974 3.71934 4.60732e-19)
(25.0345 3.73121 -2.77508e-19)
(25.0712 3.74293 3.73864e-19)
(25.1076 3.75451 -2.81521e-19)
(25.1436 3.76595 -9.47914e-20)
(25.1793 3.77726 -3.83576e-19)
(25.2145 3.78842 3.86872e-19)
(25.2491 3.79943 -3.93146e-19)
(25.2832 3.81021 4.97823e-19)
(25.3168 3.82072 4.06266e-19)
(25.3497 3.83095 -5.05529e-20)
(25.3819 3.84095 -8.99171e-19)
(25.4132 3.85069 4.87235e-19)
(25.4436 3.86016 0)
(25.4727 3.8693 5.74014e-20)
(25.5003 3.87804 0)
(25.5262 3.8863 -6.13304e-20)
(25.55 3.89404 6.36313e-20)
(25.5712 3.90119 -6.61695e-20)
(25.5893 3.90762 0)
(25.6034 3.91319 5.76914e-19)
(25.6128 3.91771 7.70583e-20)
(25.6163 3.92094 -5.53593e-19)
(25.6122 3.9226 0)
(25.5988 3.92233 -8.80152e-20)
(25.5735 3.9197 0)
(25.5331 3.9141 7.88635e-19)
(25.4734 3.90483 -9.3845e-19)
(25.3893 3.891 1.10798e-19)
(25.2744 3.8716 -1.18071e-19)
(25.1213 3.84544 2.51705e-19)
(24.9206 3.81105 -1.34763e-19)
(24.6604 3.76653 0)
(24.3247 3.7093 -1.56427e-19)
(23.8912 3.6356 -1.70137e-19)
(23.3251 3.53978 -9.36523e-20)
(22.5649 3.41008 2.08899e-19)
(21.4717 3.2196 0)
(19.6749 2.90017 2.81691e-19)
(16.308 2.289 0)
(24.8937 3.65043 0)
(24.9294 3.66057 9.26816e-20)
(24.9645 3.67197 -1.86048e-19)
(24.9993 3.683 9.40424e-20)
(25.034 3.69377 -2.82827e-19)
(25.0686 3.70441 4.75252e-19)
(25.1031 3.71496 -4.77481e-19)
(25.1373 3.72543 9.64021e-20)
(25.1713 3.7358 -9.72576e-20)
(25.2051 3.74613 0)
(25.2386 3.75642 -3.99304e-19)
(25.2716 3.76656 4.54927e-19)
(25.3042 3.77643 0)
(25.3363 3.78599 5.25604e-20)