/*--------------------------------*- C++ -*----------------------------------*\
| =========                 |                                                 |
| \\      /  F ield         | OpenFOAM: The Open Source CFD Toolbox           |
|  \\    /   O peration     | Version:  2.3.0                                 |
|   \\  /    A nd           | Web:      www.OpenFOAM.org                      |
|    \\/     M anipulation  |                                                 |
\*---------------------------------------------------------------------------*/
FoamFile
{
    version     2.0;
    format      ascii;
    class       volScalarField;
    location    "1000";
    object      nut;
}
// * * * * * * * * * * * * * * * * * * * * * * * * * * * * * * * * * * * * * //

dimensions      [0 2 -1 0 0 0 0];

internalField   nonuniform List<scalar> 
37738
(
0.043132
0.0412125
0.0394262
0.0377255
0.0360789
0.0345002
0.0329893
0.0315387
0.0301417
0.028801
0.0275164
0.0262867
0.025108
0.0239775
0.0228917
0.0218484
0.0208446
0.0198783
0.0189472
0.0180484
0.0171815
0.0163427
0.0155316
0.0147467
0.0139875
0.0132518
0.0125384
0.0118451
0.0111673
0.0105019
0.00984404
0.00919065
0.00854272
0.00790045
0.00726862
0.00665414
0.00606717
0.0055182
0.00502056
0.00458195
0.00420497
0.0039052
0.00379826
0.0458261
0.0440427
0.0423429
0.0407124
0.039145
0.0376452
0.0362177
0.0348577
0.0335313
0.032244
0.0310031
0.0298096
0.0286637
0.0275623
0.0265023
0.0254803
0.0244941
0.0235409
0.0226202
0.0217307
0.0208703
0.0200383
0.0192331
0.0184555
0.0177052
0.0169845
0.0162964
0.0156449
0.0150314
0.0144571
0.0139186
0.0134115
0.0129326
0.0124795
0.0120519
0.0116505
0.0112791
0.0109461
0.010666
0.0104772
0.0104523
0.0106426
0.011005
0.0484369
0.0468279
0.0452723
0.0437641
0.0422972
0.0408753
0.0395012
0.0381728
0.0368848
0.0356369
0.0344307
0.0332668
0.0321451
0.0310665
0.0300298
0.0290334
0.0280721
0.0271408
0.0262371
0.025361
0.0245122
0.0236902
0.0228941
0.0221216
0.0213724
0.0206478
0.0199492
0.0192824
0.0186583
0.0180856
0.0175671
0.0171002
0.0166846
0.0163201
0.0160099
0.0157604
0.0155768
0.0154676
0.0154439
0.0155133
0.0156882
0.0159735
0.0163665
0.0508255
0.0494224
0.0480453
0.0466873
0.0453466
0.0440323
0.0427572
0.0415134
0.0402983
0.0391138
0.0379622
0.0368443
0.0357588
0.0347052
0.033682
0.0326908
0.0317289
0.0307966
0.0298929
0.0290189
0.0281753
0.0273634
0.0265827
0.0258345
0.0251199
0.0244391
0.0237947
0.0231867
0.022619
0.0220935
0.0216146
0.021185
0.0208062
0.0204824
0.0202171
0.0200147
0.0198816
0.0198245
0.0198481
0.01996
0.0201652
0.0204656
0.0208621
0.0528979
0.0516761
0.050475
0.0492892
0.0481157
0.0469547
0.0458071
0.0446718
0.0435492
0.0424425
0.0413593
0.0403048
0.0392775
0.0382726
0.0372891
0.0363265
0.0353862
0.0344703
0.0335778
0.0327111
0.0318712
0.0310602
0.0302788
0.0295299
0.0288148
0.0281367
0.0274971
0.0268986
0.0263417
0.0258296
0.0253628
0.0249456
0.0245799
0.0242689
0.0240172
0.0238297
0.0237112
0.023667
0.0237029
0.0238235
0.0240326
0.0243331
0.0247248
0.0546962
0.0536269
0.0525731
0.0515314
0.0504986
0.0494729
0.0484539
0.0474422
0.0464389
0.0454459
0.0444654
0.043499
0.0425467
0.0416072
0.0406782
0.0397593
0.0388526
0.0379613
0.037088
0.0362346
0.0354001
0.0345869
0.0337975
0.0330358
0.0323052
0.0316085
0.0309504
0.0303346
0.0297645
0.0292418
0.0287671
0.0283436
0.027973
0.0276587
0.0274054
0.0272162
0.0270971
0.0270519
0.0270861
0.0272034
0.0274075
0.0277016
0.0280842
0.0562638
0.0553211
0.0543893
0.0534666
0.0525501
0.0516368
0.0507248
0.0498169
0.0489134
0.0480155
0.0471249
0.0462433
0.0453708
0.0445089
0.0436557
0.04281
0.0419733
0.0411448
0.0403233
0.0395056
0.0386906
0.0378819
0.0370866
0.0363109
0.0355605
0.0348366
0.0341443
0.0334935
0.0328911
0.0323405
0.0318429
0.0313988
0.0310107
0.0306824
0.030417
0.0302176
0.0300893
0.0300363
0.0300623
0.0301707
0.030365
0.0306475
0.0310203
0.0576377
0.0567985
0.0559681
0.0551433
0.0543245
0.0535062
0.052681
0.0518597
0.0510389
0.0502197
0.0494013
0.0485903
0.0477828
0.0469841
0.0461938
0.045408
0.0446269
0.0438571
0.0430931
0.0423322
0.041569
0.0408049
0.0400505
0.039305
0.0385657
0.0378312
0.0371058
0.036406
0.0357579
0.035164
0.034631
0.034154
0.0337382
0.0333835
0.0330982
0.0328803
0.0327355
0.0326698
0.0326846
0.032781
0.0329628
0.0332312
0.0335912
0.0588554
0.0580935
0.0573489
0.0565999
0.0558591
0.0551301
0.0543722
0.0536232
0.0528658
0.052117
0.0513546
0.0506085
0.0498491
0.0490967
0.0483585
0.0476293
0.0468807
0.0461526
0.045432
0.044718
0.0440102
0.0432746
0.0425572
0.0418515
0.0411556
0.0404555
0.0397518
0.0390486
0.0383808
0.0377395
0.0371733
0.0366471
0.0362013
0.0358029
0.0354948
0.0352517
0.0350814
0.034997
0.0350011
0.0350803
0.0352538
0.0354993
0.0358514
0.0046035
0.00604318
0.00707652
0.00814392
0.00928531
0.0104914
0.0117513
0.013053
0.0143864
0.0157482
0.0171327
0.0185369
0.0199572
0.0213929
0.0228428
0.0243049
0.0257792
0.0272651
0.0287625
0.0302704
0.0317889
0.033318
0.0348572
0.0364069
0.0379666
0.0395367
0.0411178
0.0427104
0.044315
0.0459329
0.0475656
0.049215
0.0508836
0.052575
0.0542932
0.0560428
0.0578293
0.0596547
0.0615218
0.0634328
0.0653888
0.0673875
0.0694258
0.0115256
0.0121905
0.0129706
0.0138581
0.0148441
0.0159152
0.0170565
0.0182555
0.0195015
0.0207856
0.0220993
0.0234375
0.0247948
0.0261683
0.0275556
0.028954
0.0303614
0.0317775
0.033201
0.0346309
0.0360665
0.0375081
0.0389555
0.0404086
0.0418673
0.0433317
0.0448029
0.0462817
0.0477687
0.0492655
0.0507738
0.0522956
0.0538333
0.0553904
0.0569703
0.0585755
0.0602094
0.061875
0.0635755
0.065314
0.0670916
0.0689077
0.0707587
0.0168641
0.0174691
0.0181824
0.0189966
0.0199012
0.0208874
0.0219446
0.0230614
0.024227
0.0254338
0.0266746
0.0279422
0.029231
0.0305372
0.0318571
0.0331877
0.0345269
0.0358727
0.0372242
0.0385802
0.0399395
0.0413017
0.042667
0.0440349
0.0454055
0.046779
0.0481564
0.0495382
0.0509255
0.0523198
0.0537226
0.0551353
0.0565597
0.0579978
0.0594521
0.0609258
0.0624214
0.0639424
0.0654925
0.0670751
0.068693
0.0703463
0.0720316
0.0213513
0.0219377
0.0226214
0.0233972
0.0242577
0.0251953
0.0261997
0.0272631
0.0283756
0.0295294
0.0307166
0.0319313
0.0331682
0.0344224
0.0356895
0.0369667
0.0382517
0.0395421
0.040836
0.0421328
0.043431
0.0447297
0.0460286
0.0473275
0.0486262
0.0499252
0.0512252
0.0525268
0.0538304
0.0551372
0.0564482
0.0577642
0.059087
0.060418
0.061759
0.0631135
0.0644841
0.0658745
0.0672883
0.0687295
0.0702013
0.071703
0.073196
0.0252067
0.0257801
0.0264459
0.027198
0.0280306
0.0289372
0.0299091
0.0309378
0.0320153
0.0331338
0.0342862
0.0354654
0.0366665
0.0378847
0.0391152
0.0403545
0.0416004
0.0428502
0.0441014
0.0453524
0.0466023
0.0478497
0.0490946
0.0503367
0.051576
0.0528128
0.0540473
0.0552802
0.0565121
0.0577432
0.0589736
0.0602043
0.061436
0.0626705
0.0639093
0.0651558
0.0664132
0.0676851
0.0689746
0.0702847
0.0716164
0.0729407
0.0742216
0.0285574
0.0291199
0.0297712
0.0305071
0.0313213
0.0322074
0.0331575
0.0341639
0.0352189
0.0363148
0.0374449
0.0386026
0.0397817
0.0409772
0.0421845
0.0433995
0.0446194
0.0458412
0.0470618
0.0482788
0.049491
0.0506979
0.0518994
0.0530956
0.0542865
0.0554721
0.0566524
0.0578279
0.0589985
0.0601634
0.0613225
0.0624764
0.063626
0.0647727
0.0659182
0.0670659
0.0682201
0.0693835
0.0705542
0.0717231
0.0728807
0.0740118
0.0751012
0.0314819
0.032033
0.032672
0.033394
0.0341935
0.0350644
0.036
0.0369921
0.0380351
0.0391201
0.0402403
0.0413896
0.0425609
0.0437475
0.0449449
0.0461484
0.0473549
0.0485603
0.0497601
0.0509516
0.0521341
0.0533086
0.0544762
0.0556364
0.0567886
0.0579328
0.0590687
0.0601963
0.0613135
0.0624187
0.0635123
0.0645963
0.0656709
0.0667361
0.0677929
0.0688439
0.0698882
0.0709224
0.071947
0.0729574
0.07395
0.0749149
0.0758435
0.0340386
0.0345785
0.0352059
0.0359165
0.0367027
0.0375625
0.0384873
0.0394734
0.0405129
0.0415976
0.0427195
0.0438737
0.0450513
0.0462415
0.0474409
0.048643
0.0498467
0.0510454
0.0522317
0.0534021
0.0545589
0.0557065
0.05685
0.0579853
0.0591065
0.0602167
0.0613158
0.0624021
0.0634667
0.0645099
0.0655306
0.0665321
0.0675146
0.068481
0.0694331
0.070375
0.0713025
0.0722108
0.0731062
0.0739804
0.0748371
0.0756661
0.0764642
0.0362752
0.0368047
0.0374201
0.0381214
0.0388903
0.0397444
0.0406578
0.0416426
0.0426867
0.0437792
0.0449114
0.0460846
0.0472831
0.0484837
0.0496957
0.0509009
0.0521149
0.0533145
0.0544886
0.0556347
0.0567674
0.0578948
0.0590269
0.0601381
0.0612177
0.0622804
0.0633187
0.06434
0.0653294
0.0662971
0.0672369
0.0681579
0.0690542
0.0699339
0.0707931
0.0716399
0.0724667
0.0732677
0.074061
0.0748178
0.0755667
0.0762822
0.0769818
0.0859821
0.0810806
0.076453
0.0720849
0.0679606
0.0640641
0.0603795
0.0568907
0.0535834
0.0504447
0.0474627
0.044626
0.0419243
0.0393495
0.0368933
0.0345481
0.0323076
0.0301665
0.0281191
0.0261608
0.0242881
0.0224961
0.0207822
0.0191431
0.0175761
0.0160789
0.01465
0.0132867
0.0119888
0.0107544
0.00958294
0.00847351
0.00742636
0.00644161
0.00551982
0.00466231
0.00387002
0.00314599
0.00249206
0.00191687
0.0014689
0.0010467
0.000605178
0.0876177
0.0830244
0.0786778
0.0745604
0.0706589
0.0669585
0.0634458
0.0601059
0.0569269
0.0538966
0.0510039
0.0482394
0.0455946
0.0430613
0.0406312
0.0382988
0.0360581
0.0339042
0.0318317
0.0298376
0.0279166
0.0260671
0.024285
0.0225684
0.020914
0.0193222
0.0177893
0.0163151
0.0148993
0.0135404
0.0122394
0.0109959
0.00981102
0.00868727
0.00762549
0.00662992
0.00570477
0.00485961
0.00413156
0.0034337
0.00273551
0.00199651
0.00114717
0.0892309
0.0849242
0.0808404
0.0769616
0.0732744
0.0697658
0.0664227
0.0632325
0.0601837
0.0572659
0.0544696
0.0517858
0.0492063
0.0467241
0.0443328
0.0420265
0.0397997
0.0376481
0.0355677
0.0335547
0.031606
0.0297189
0.0278905
0.026119
0.0244024
0.0227388
0.0211274
0.0195676
0.0180586
0.0166015
0.0151958
0.0138426
0.0125451
0.0113054
0.0101292
0.00902428
0.00801609
0.00706093
0.00610974
0.00513445
0.00410114
0.00294967
0.00164993
0.0908437
0.0868083
0.0829697
0.0793142
0.0758296
0.0725027
0.0693219
0.0662751
0.0633522
0.0605436
0.0578408
0.0552361
0.0527226
0.050294
0.0479439
0.0456668
0.0434593
0.0413167
0.0392358
0.0372135
0.0352471
0.0333344
0.0314731
0.0296621
0.0278995
0.0261835
0.0245133
0.0228899
0.021312
0.0197808
0.0182968
0.016863
0.0154806
0.0141584
0.0129131
0.011723
0.0105443
0.00935392
0.00812852
0.00683796
0.00544225
0.00386774
0.00213083
0.0924877
0.0886997
0.0850875
0.0816402
0.0783455
0.0751896
0.0721615
0.06925
0.0664454
0.0637394
0.0611253
0.0585959
0.056145
0.0537676
0.0514576
0.0492107
0.0470232
0.0448914
0.0428132
0.040785
0.0388061
0.036875
0.0349896
0.0331491
0.0313512
0.0295962
0.0278841
0.0262135
0.0245855
0.0230008
0.0214617
0.0199742
0.0185404
0.0171456
0.0157689
0.014392
0.0129953
0.0115583
0.0100556
0.0084544
0.00670733
0.00473507
0.00259016
0.0941736
0.0906095
0.0872077
0.0839549
0.0808369
0.0778421
0.0749569
0.0721713
0.0694768
0.0668661
0.0643333
0.061872
0.059479
0.0571488
0.0548756
0.0526564
0.0504878
0.0483666
0.0462907
0.0442581
0.0422683
0.0403207
0.0384158
0.0365505
0.0347258
0.0329412
0.0311963
0.029492
0.0278292
0.026208
0.0246242
0.0230674
0.0215284
0.0199948
0.0184521
0.0168841
0.0152744
0.0136011
0.0118363
0.00994504
0.00787332
0.00554012
0.00302427
0.0958938
0.0925397
0.0893366
0.0862657
0.0833148
0.0804708
0.0777203
0.0750514
0.0724579
0.0699341
0.0674739
0.0650739
0.0627316
0.0604436
0.0582027
0.0560071
0.0538547
0.0517428
0.0496676
0.0476282
0.0456265
0.0436629
0.0417372
0.0398501
0.0380018
0.0361916
0.0344191
0.0326817
0.0309734
0.0292893
0.0276219
0.025961
0.0242975
0.0226196
0.0209143
0.0191661
0.0173574
0.0154645
0.0134583
0.0113001
0.00893215
0.0062736
0.00342541
0.0976321
0.0944903
0.0914789
0.0885814
0.0857872
0.0830845
0.0804623
0.0779004
0.075399
0.0729528
0.0705589
0.0682097
0.0659079
0.0636577
0.0614445
0.0592662
0.0571263
0.0550215
0.0529459
0.0508969
0.0488803
0.0468931
0.0449456
0.0430335
0.0411547
0.0393098
0.0374948
0.0357039
0.0339295
0.0321587
0.0303959
0.0286219
0.0268352
0.0250163
0.02316
0.0212429
0.0192516
0.0171578
0.0149286
0.0125254
0.00988582
0.00693137
0.00379769
0.099406
0.0964694
0.0936426
0.0909075
0.0882585
0.0856838
0.0831938
0.0807274
0.0783072
0.0759291
0.0735961
0.0712924
0.0690063
0.0667954
0.0646106
0.0624377
0.0602996
0.0582001
0.0561306
0.0540589
0.0520338
0.0500037
0.0480273
0.0460849
0.0441555
0.0422565
0.0403809
0.0385238
0.0366891
0.0348065
0.0329588
0.031058
0.0291649
0.0272011
0.0252136
0.0231283
0.0209738
0.0187014
0.0162635
0.0136334
0.0107529
0.00748949
0.00401279
0.000463413
0.000530976
0.000716192
0.000889534
0.00106117
0.00124338
0.00145109
0.00169967
0.00199355
0.002323
0.00268392
0.00307425
0.00349317
0.00394037
0.00441626
0.00492154
0.00545629
0.00602101
0.00661649
0.00724282
0.00790059
0.0085908
0.00931366
0.01007
0.0108606
0.011686
0.0125471
0.0134441
0.014378
0.0153492
0.0163581
0.0174053
0.0184911
0.0196156
0.0207796
0.0219832
0.0232266
0.0245097
0.0258327
0.0271958
0.0285992
0.030043
0.0315276
0.000639342
0.00068656
0.000879445
0.00107606
0.00128798
0.00152873
0.00180765
0.0021288
0.00249398
0.00289004
0.00331422
0.00376541
0.00424308
0.00474679
0.00527692
0.00583336
0.0064161
0.00702514
0.00766086
0.00832327
0.00901297
0.00973033
0.0104755
0.0112486
0.0120509
0.0128823
0.0137435
0.0146344
0.015556
0.0165084
0.0174918
0.0185067
0.0195532
0.0206318
0.0217426
0.0228856
0.0240611
0.0252695
0.0265106
0.0277846
0.0290918
0.0304319
0.0318022
0.000823462
0.000833867
0.00104805
0.00128422
0.00155229
0.00186004
0.00220888
0.00259715
0.00302598
0.00348298
0.00396576
0.00447351
0.00500578
0.00556181
0.00614157
0.00674502
0.00737118
0.00802027
0.00869206
0.00938684
0.0101045
0.0108452
0.0116094
0.0123968
0.013208
0.0140433
0.0149027
0.0157861
0.0166942
0.0176271
0.0185849
0.0195675
0.0205753
0.0216086
0.0226675
0.0237516
0.0248614
0.0259972
0.027159
0.0283469
0.0295606
0.0307998
0.0320578
0.00100412
0.000974995
0.00122351
0.00151
0.00183929
0.00221163
0.00262316
0.00307255
0.00355827
0.0040701
0.00460606
0.00516523
0.00574656
0.00634965
0.00697366
0.00761819
0.00828251
0.00896654
0.00966981
0.0103922
0.0111338
0.0118944
0.0126739
0.0134728
0.0142904
0.0151271
0.015983
0.016858
0.0177521
0.0186655
0.0195981
0.0205499
0.0215211
0.0225118
0.0235221
0.0245517
0.0256007
0.0266695
0.027758
0.0288663
0.0299945
0.0311429
0.0323156
0.00117881
0.00111418
0.00140592
0.00174687
0.00213523
0.00256569
0.00303262
0.00353877
0.00407598
0.00463748
0.00522149
0.00582655
0.00645223
0.00709716
0.00776047
0.00844136
0.00913921
0.00985326
0.0105838
0.0113303
0.0120921
0.0128692
0.0136615
0.0144686
0.0152907
0.0161275
0.0169789
0.0178447
0.018725
0.0196196
0.0205286
0.0214514
0.0223886
0.0233398
0.0243051
0.0252846
0.026278
0.0272856
0.0283072
0.0293431
0.0303933
0.031458
0.0325379
0.00134889
0.00125316
0.00159272
0.00198748
0.00243018
0.0029126
0.00343068
0.00398749
0.00457123
0.00517769
0.00580495
0.00645178
0.00711691
0.0077991
0.00849713
0.00921013
0.00993728
0.0106782
0.0114324
0.0121993
0.0129784
0.0137695
0.0145722
0.0153862
0.0162112
0.017047
0.0178934
0.0187499
0.0196166
0.0204934
0.0213799
0.0222759
0.0231813
0.0240963
0.0250205
0.0259539
0.0268966
0.0278484
0.0288093
0.0297792
0.0307582
0.0317459
0.0327422
0.00151052
0.00139354
0.00178205
0.00222715
0.00271875
0.00324796
0.00381273
0.00441421
0.00504011
0.00568703
0.00635347
0.00703767
0.00773821
0.00845334
0.00918227
0.00992397
0.0106775
0.0114419
0.0122168
0.0130018
0.0137959
0.014599
0.0154106
0.01623
0.0170569
0.0178908
0.0187315
0.0195789
0.0204326
0.0212924
0.0221577
0.0230284
0.0239045
0.0247858
0.0256723
0.026564
0.0274605
0.0283617
0.0292675
0.0301775
0.0310917
0.0320096
0.032931
0.00167773
0.00152871
0.00196174
0.00245214
0.00298807
0.00356062
0.0041705
0.00481299
0.00547802
0.00616232
0.00686527
0.00758502
0.00831851
0.00906416
0.00982119
0.0105885
0.0113654
0.0121512
0.0129457
0.0137477
0.0145551
0.015368
0.016187
0.0170113
0.017839
0.0186689
0.0195028
0.0203403
0.021181
0.0220241
0.022869
0.0237158
0.0245634
0.0254128
0.0262648
0.0271194
0.0279742
0.0288297
0.0296857
0.0305418
0.0313975
0.0322526
0.0331096
0.0017537
0.00168007
0.00217235
0.00271472
0.00329499
0.00390536
0.00455484
0.00523066
0.00592514
0.00664908
0.00739599
0.00815142
0.00890646
0.00967506
0.010454
0.01124
0.0120342
0.0128389
0.0136553
0.0144723
0.0152846
0.016103
0.0169285
0.0177576
0.0185819
0.0193954
0.0202218
0.0210475
0.021874
0.0226999
0.0235213
0.0243457
0.0251607
0.0259796
0.0268013
0.0276266
0.0284415
0.0292577
0.0300689
0.0308771
0.0316792
0.032475
0.0332738
0.000100701
0.000546078
0.00120356
0.00194732
0.00267171
0.0033692
0.00404237
0.00469852
0.0053442
0.0059844
0.00662408
0.00726787
0.0079164
0.0085703
0.00923063
0.00989892
0.0105781
0.0112707
0.0119795
0.0127074
0.013457
0.0142303
0.01503
0.015858
0.016717
0.0176095
0.0185377
0.0195052
0.0205147
0.021569
0.0226712
0.023825
0.0250335
0.0262999
0.0276273
0.0290182
0.0304736
0.0319953
0.0335861
0.0352489
0.0369816
0.0387939
0.0407095
2.49823e-05
0.000359276
0.000778173
0.00129584
0.00191892
0.00265492
0.00340541
0.00413021
0.00483926
0.00553666
0.00621872
0.00688351
0.00753584
0.00818012
0.00882033
0.0094609
0.0101048
0.010755
0.0114148
0.012087
0.0127747
0.0134809
0.0142083
0.0149603
0.0157401
0.0165504
0.0173948
0.0182769
0.0192005
0.0201693
0.0211873
0.0222586
0.023387
0.0245765
0.0258308
0.0271533
0.0285471
0.0300136
0.0315557
0.0331751
0.0348734
0.0366562
0.0385368
7.32478e-06
0.000258829
0.000579924
0.000959627
0.00140338
0.00191457
0.0024935
0.00314065
0.00386173
0.00466408
0.00545122
0.00621235
0.00695503
0.00768061
0.00839192
0.00909158
0.00978317
0.01047
0.0111547
0.0118402
0.0125294
0.0132249
0.0139299
0.0146475
0.0153811
0.0161341
0.0169107
0.0177154
0.0185525
0.0194272
0.0203448
0.0213108
0.0223307
0.0234101
0.0245546
0.0257695
0.0270595
0.0284284
0.0298801
0.0314166
0.0330416
0.0347585
0.0365749
6.51049e-06
0.000235773
0.000517441
0.000835918
0.00119561
0.0015972
0.00204393
0.0025411
0.00309539
0.00370951
0.00438594
0.00513274
0.00594428
0.0067434
0.00753123
0.00831201
0.00908505
0.00985117
0.0106121
0.0113694
0.0121238
0.0128769
0.01363
0.014385
0.0151436
0.0159082
0.0166821
0.0174686
0.0182719
0.0190969
0.0199492
0.020835
0.0217613
0.0227354
0.0237654
0.0248591
0.0260241
0.0272677
0.0285962
0.0300154
0.0315298
0.0331451
0.0348654
4.35872e-06
0.000212872
0.000478662
0.000772297
0.00109618
0.00144778
0.00182684
0.00223471
0.00267521
0.00315431
0.00367934
0.00425915
0.00490127
0.00560769
0.00638804
0.00723236
0.00807315
0.00891266
0.00975148
0.0105885
0.0114241
0.0122583
0.0130913
0.0139229
0.0147525
0.0155807
0.0164086
0.0172375
0.0180691
0.0189067
0.0197541
0.0206162
0.0214994
0.0224111
0.0233595
0.0243544
0.0254058
0.0265241
0.0277197
0.0290022
0.0303808
0.0318634
0.0334552
4.33935e-06
0.000210775
0.000472457
0.000760057
0.00107479
0.001412
0.00176813
0.00214016
0.002527
0.00293056
0.00335632
0.0038132
0.00431302
0.00486886
0.00549224
0.00619
0.00696417
0.0078246
0.00872135
0.00962555
0.0105365
0.0114498
0.0123639
0.0132774
0.0141889
0.0150974
0.016002
0.0169021
0.0177976
0.0186896
0.0195794
0.0204693
0.0213633
0.0222663
0.023185
0.0241278
0.025105
0.026128
0.0272094
0.0283626
0.0296013
0.0309383
0.0323894
4.37013e-06
0.000213972
0.000482095
0.000779296
0.0011068
0.00145943
0.00183159
0.00221526
0.00259966
0.00297694
0.00334649
0.00371664
0.00410681
0.00454166
0.00503303
0.00559257
0.00622963
0.00695205
0.00775857
0.00865328
0.00962263
0.0106036
0.0115914
0.0125802
0.0135672
0.0145506
0.0155291
0.0165013
0.0174663
0.0184238
0.0193734
0.0203156
0.0212517
0.0221841
0.0231161
0.0240534
0.0250031
0.0259753
0.0269817
0.0280365
0.0291557
0.0303572
0.0316641
4.66305e-06
0.000218943
0.000493962
0.000802755
0.00114715
0.00152224
0.00191928
0.00232214
0.00271581
0.00309363
0.00345616
0.00380811
0.00415687
0.00451323
0.00489675
0.00534566
0.00587619
0.00649273
0.00719819
0.00799642
0.00888444
0.00986332
0.0109095
0.0119659
0.0130203
0.0140685
0.0151091
0.0161408
0.0171637
0.0181774
0.0191812
0.0201749
0.0211586
0.0221326
0.0230981
0.0240572
0.0250137
0.025974
0.0269464
0.0279427
0.0289785
0.0300734
0.0312567
4.89986e-06
0.00022367
0.000506749
0.00082864
0.00119115
0.00158723
0.00199851
0.00240363
0.00279239
0.00316351
0.00352021
0.00386769
0.00421195
0.0045602
0.00492164
0.00531119
0.00576128
0.00630886
0.0069506
0.00768432
0.00851132
0.00942829
0.0104337
0.0115287
0.0126409
0.0137461
0.0148385
0.0159176
0.016984
0.0180382
0.0190811
0.0201128
0.0211333
0.0221426
0.0231405
0.0241273
0.0251043
0.0260739
0.0270407
0.0280123
0.0290009
0.0300237
0.0311092
5.23111e-06
0.000229337
0.000520328
0.000854719
0.00123365
0.00164282
0.00205551
0.0024539
0.00283329
0.00319613
0.00354729
0.00389235
0.00423728
0.00458832
0.00495264
0.00533974
0.00576664
0.0062757
0.00688981
0.00759931
0.00840016
0.00929095
0.0102674
0.0113286
0.0124723
0.0136258
0.0147636
0.0158822
0.0169824
0.0180658
0.0191346
0.0201902
0.0212333
0.0222645
0.0232837
0.0242908
0.0252854
0.0262682
0.0272405
0.0282062
0.029173
0.0301535
0.031171
5.59068e-06
0.000235438
0.000534734
0.00088186
0.00127538
0.00168941
0.00209578
0.00248356
0.00285249
0.00320725
0.00355353
0.00389735
0.00424472
0.00460167
0.00497498
0.0053728
0.00580828
0.00631286
0.00692953
0.00764456
0.00845025
0.00934448
0.010321
0.0113782
0.0125171
0.0137056
0.0148834
0.0160375
0.0171676
0.0182758
0.0193649
0.0204368
0.0214933
0.0225359
0.0235653
0.0245818
0.0255848
0.0265746
0.0275509
0.0285154
0.0294717
0.030428
0.0314017
6.02507e-06
0.000242235
0.000550047
0.000909692
0.00131315
0.00172475
0.00212109
0.00249743
0.00285661
0.00320435
0.00354703
0.00389091
0.00424229
0.00460735
0.00499274
0.00540631
0.0058604
0.00638502
0.00702515
0.00776519
0.00859578
0.00951341
0.0105108
0.0115851
0.0127361
0.0139523
0.0151667
0.0163557
0.0175162
0.0186502
0.0197602
0.0208484
0.0219169
0.0229674
0.0240018
0.0250209
0.026025
0.0270142
0.0279884
0.0289481
0.0298947
0.0308325
0.0317725
6.48926e-06
0.000249246
0.000565646
0.000937531
0.00134535
0.00174976
0.00213465
0.00249977
0.00285009
0.00319219
0.00353293
0.00387879
0.00423618
0.00461144
0.00501109
0.00544329
0.00592147
0.00647981
0.0071556
0.00793161
0.00879841
0.00975121
0.0107823
0.011889
0.0130702
0.0143182
0.0155692
0.0167949
0.0179894
0.0191535
0.0202892
0.0213985
0.0224833
0.0235455
0.0245866
0.0256082
0.0266113
0.0275964
0.028564
0.0295145
0.0304483
0.0313669
0.0322712
7.01752e-06
0.000256592
0.000581663
0.000964359
0.00137117
0.00176562
0.00213861
0.00249338
0.00283636
0.00317474
0.00351545
0.0038651
0.0042302
0.00461732
0.00503299
0.00548566
0.00599056
0.00659207
0.00730995
0.00812733
0.0090358
0.0100293
0.011101
0.0122481
0.01347
0.0147571
0.0160482
0.0173141
0.0185474
0.0197474
0.0209155
0.022053
0.0231615
0.0242427
0.0252973
0.0263265
0.0273323
0.0283154
0.0292768
0.0302169
0.0311366
0.0320358
0.032913
7.62527e-06
0.000264563
0.000598453
0.000988759
0.00138992
0.00177311
0.002135
0.00248116
0.00281873
0.00315513
0.0034975
0.00385247
0.00422668
0.00462681
0.00505989
0.00553483
0.00606985
0.00672017
0.00748264
0.00834288
0.00929455
0.0103307
0.0114453
0.0126363
0.0139039
0.0152351
0.0165699
0.0178801
0.0191568
0.0203986
0.0216059
0.0227791
0.0239194
0.0250276
0.0261042
0.02715
0.0281659
0.0291533
0.0301135
0.031047
0.031955
0.0328382
0.0336973
8.23322e-06
0.000272597
0.000615585
0.001009
0.00140179
0.0017738
0.00212609
0.00246532
0.00279922
0.00313531
0.00348083
0.00384249
0.00422691
0.00464104
0.0050925
0.00559221
0.00616537
0.00686343
0.00766945
0.00857167
0.00956553
0.0106434
0.011801
0.0130368
0.0143515
0.0157286
0.0171104
0.018468
0.0197924
0.0210809
0.022333
0.0235487
0.024728
0.0258714
0.0269784
0.0280494
0.0290851
0.0300856
0.0310523
0.0319865
0.0328888
0.0337611
0.0346051
8.822e-06
0.00028037
0.000632862
0.00102497
0.00140817
0.00176966
0.00211356
0.00244745
0.00277932
0.00311669
0.00346664
0.00383609
0.0042316
0.00466014
0.00513026
0.00565599
0.0062761
0.00701882
0.00786636
0.00880889
0.00984234
0.01096
0.0121586
0.0134381
0.0147991
0.0162228
0.0176531
0.0190611
0.0204361
0.0217751
0.0230765
0.0243397
0.0255643
0.0267493
0.0278944
0.028999
0.0300628
0.0310858
0.0320684
0.0330115
0.0339162
0.0347834
0.0356144
9.35913e-06
0.000287308
0.000648099
0.00103595
0.00140933
0.00176151
0.00209861
0.0024289
0.00276028
0.00310011
0.00345571
0.00383384
0.00424099
0.00468464
0.00517442
0.00572801
0.00639802
0.00718331
0.00806937
0.00904957
0.0101196
0.0112743
0.0125117
0.0138325
0.0152378
0.0167077
0.0181874
0.0196472
0.0210752
0.0224673
0.0238213
0.0251359
0.0264098
0.027642
0.028831
0.0299762
0.0310758
0.0321294
0.0331369
0.034098
0.0350135
0.0358838
0.0367086
9.82129e-06
0.000293289
0.00066076
0.00104239
0.00140633
0.00175069
0.0020827
0.00241085
0.00274305
0.00308647
0.00344846
0.00383571
0.004255
0.00471441
0.00522582
0.0058156
0.00653068
0.00735424
0.00827512
0.00928942
0.0103929
0.0115819
0.0128556
0.014215
0.0156619
0.0171766
0.0187056
0.0202179
0.0217003
0.0231472
0.0245559
0.0259245
0.0272512
0.0285342
0.0297719
0.0309627
0.0321045
0.0331956
0.0342353
0.0352228
0.0361575
0.037039
0.0378663
1.02239e-05
0.000298413
0.00067068
0.00104507
0.00140032
0.00173811
0.00206638
0.0023937
0.00272778
0.00307575
0.00344466
0.00384143
0.00427301
0.00474838
0.00528262
0.0059166
0.00667097
0.00752827
0.00848047
0.0095257
0.0106596
0.0118796
0.0131861
0.0145813
0.0160665
0.0176244
0.0192025
0.0207674
0.0223045
0.0238072
0.025272
0.0266962
0.0280777
0.0294144
0.030704
0.0319443
0.0331328
0.0342671
0.0353455
0.0363663
0.0373284
0.0382302
0.0390692
1.06248e-05
0.000303183
0.000677511
0.00104424
0.00139176
0.0017243
0.00205024
0.00237781
0.00271459
0.0030678
0.00344421
0.00385074
0.00429489
0.00478702
0.00534697
0.00602514
0.00681462
0.00770206
0.00868267
0.00975546
0.0109165
0.0121648
0.0135013
0.0149288
0.016449
0.0180475
0.0196733
0.0212906
0.0228826
0.0244415
0.0259631
0.0274439
0.0288815
0.0302736
0.0316172
0.0329099
0.0341485
0.0353301
0.0364523
0.0375125
0.0385087
0.03944
0.0403067
1.10696e-05
0.000308167
0.000681313
0.00104034
0.0013813
0.00170993
0.00203456
0.0023633
0.00270355
0.00306227
0.00344625
0.00386263
0.00431972
0.00483056
0.00542472
0.00614011
0.00695946
0.00787331
0.00887904
0.00997607
0.0111614
0.0124351
0.0137987
0.0152551
0.0168071
0.0184432
0.0201148
0.0217838
0.0234307
0.0250456
0.0266238
0.0281619
0.0296564
0.0311048
0.032504
0.0338509
0.0351421
0.0363741
0.0375437
0.0386478
0.0396836
0.0406488
0.0415417
1.15512e-05
0.000313489
0.00068255
0.00103412
0.00136957
0.00169535
0.00201962
0.00235022
0.0026944
0.00305874
0.00345024
0.00387638
0.00434662
0.00487732
0.00551037
0.00625729
0.00710242
0.00803934
0.00906737
0.0101858
0.011393
0.0126893
0.0140772
0.0155595
0.0171395
0.0188099
0.0205254
0.0222446
0.0239452
0.0256159
0.0272509
0.0288459
0.0303977
0.031903
0.0333585
0.0347608
0.0361061
0.0373906
0.0386105
0.0397619
0.0408411
0.0418446
0.0427684
1.20201e-05
0.000318728
0.000681336
0.00102601
0.00135689
0.00168074
0.00200537
0.00233828
0.00268645
0.00305657
0.0034557
0.00389185
0.00437618
0.00493056
0.00559977
0.00637363
0.00724087
0.00819799
0.00924592
0.0103833
0.0116095
0.0129259
0.0143353
0.0158405
0.0174453
0.0191462
0.0209027
0.0226705
0.0244238
0.0261497
0.0278411
0.029493
0.0311017
0.0326639
0.0341759
0.0356342
0.0370347
0.0383731
0.0396452
0.0408467
0.0419729
0.0430194
0.0439809
1.2387e-05
0.000323336
0.000677715
0.00101628
0.00134366
0.00166631
0.00199178
0.00232723
0.0026795
0.00305533
0.0034619
0.00390822
0.00440815
0.00499247
0.00569116
0.00648735
0.00737366
0.00834821
0.00941327
0.0105674
0.0118103
0.0131448
0.0145728
0.0160979
0.0177246
0.0194517
0.0212456
0.0230597
0.0248646
0.0266447
0.0283917
0.0300999
0.0317653
0.0333842
0.034953
0.0364673
0.0379234
0.0393167
0.0406424
0.0418958
0.0430721
0.0441661
0.0451724
1.26308e-05
0.000326819
0.000672381
0.00100558
0.00133018
0.00165219
0.00197876
0.00231682
0.0026731
0.00305445
0.00346839
0.00392514
0.00444178
0.005058
0.00578115
0.00659644
0.00749899
0.00848894
0.00956875
0.0107371
0.0119951
0.0133448
0.0147891
0.0163318
0.0179773
0.0197264
0.0215537
0.0234115
0.025266
0.0270992
0.0289009
0.0306648
0.0323866
0.0340618
0.0356866
0.0372573
0.0387691
0.0402177
0.0415979
0.0429047
0.0441332
0.0452784
0.0463362
1.29394e-05
0.00032919
0.000665938
0.000994378
0.00131666
0.00163833
0.0019661
0.00230673
0.00266691
0.00305363
0.00347518
0.00394322
0.00447965
0.00512441
0.00586772
0.00669918
0.0076158
0.00861891
0.00971147
0.0108923
0.012163
0.0135259
0.0149841
0.0165419
0.0182033
0.019971
0.0218267
0.0237248
0.0256272
0.027512
0.0293678
0.0311865
0.0329636
0.0346945
0.0363751
0.0380015
0.0395693
0.0410732
0.0425083
0.0438695
0.0451514
0.0463486
0.0474561
1.31724e-05
0.000330521
0.0006587
0.000982825
0.00130319
0.00162468
0.00195369
0.00229677
0.00266063
0.00305255
0.0034817
0.0039621
0.00452235
0.0051899
0.00594964
0.00679438
0.00772294
0.00873743
0.009841
0.0110328
0.012314
0.013688
0.0151581
0.0167282
0.0184032
0.0201858
0.0220656
0.0240001
0.0259474
0.0278823
0.0297907
0.0316636
0.0334951
0.0352811
0.0370171
0.038699
0.0403221
0.0418811
0.0433714
0.0447873
0.046123
0.0473729
0.0485311
1.32496e-05
0.000330481
0.000650857
0.000971158
0.00128986
0.00161122
0.00194136
0.00228672
0.00265408
0.00305114
0.00348801
0.00398147
0.0045665
0.0052525
0.00602575
0.00688169
0.00782037
0.00884462
0.00995702
0.0111578
0.0124485
0.013832
0.0153117
0.016892
0.0185777
0.0203722
0.0222712
0.0242378
0.0262268
0.0282095
0.030169
0.0320951
0.0339806
0.0358209
0.0376117
0.0393483
0.0410262
0.0426405
0.0441857
0.0456565
0.0470465
0.0483494
0.0495592
1.32414e-05
0.000329326
0.000642673
0.000959565
0.00127673
0.00159793
0.00192902
0.00227644
0.00264716
0.00304938
0.00349446
0.00400245
0.00460972
0.00531084
0.00609531
0.00696039
0.00790764
0.00894002
0.0100599
0.0112679
0.0125661
0.0139571
0.0154448
0.0170334
0.0187276
0.0205316
0.0224444
0.0244381
0.026466
0.0284941
0.0305033
0.0324807
0.0344192
0.0363131
0.0381579
0.0399488
0.0416812
0.0433501
0.0449504
0.0464759
0.0479206
0.0492775
0.0505384
1.31798e-05
0.000327717
0.000634522
0.000948173
0.00126376
0.00158468
0.00191658
0.00226589
0.00263975
0.00304711
0.00350097