/*--------------------------------*- C++ -*----------------------------------*\
| =========                 |                                                 |
| \\      /  F ield         | OpenFOAM: The Open Source CFD Toolbox           |
|  \\    /   O peration     | Version:  2.3.0                                 |
|   \\  /    A nd           | Web:      www.OpenFOAM.org                      |
|    \\/     M anipulation  |                                                 |
\*---------------------------------------------------------------------------*/
FoamFile
{
    version     2.0;
    format      ascii;
    class       volVectorField;
    location    "1000";
    object      U;
}
// * * * * * * * * * * * * * * * * * * * * * * * * * * * * * * * * * * * * * //

dimensions      [0 1 -1 0 0 0 0];

internalField   nonuniform List<vector> 
37738
(
(18.3411 16.354 0)
(18.1143 16.5804 -6.94765e-21)
(17.8689 16.7713 -2.13746e-20)
(17.6105 16.9416 3.10176e-20)
(17.3383 17.0872 0)
(17.0531 17.2094 6.53709e-20)
(16.7559 17.3085 1.00722e-20)
(16.4479 17.3851 -5.77684e-20)
(16.1303 17.4398 3.25472e-20)
(15.8046 17.4734 2.66133e-20)
(15.4719 17.4865 -2.15778e-20)
(15.1335 17.48 0)
(14.7904 17.455 0)
(14.4437 17.4124 -2.64977e-19)
(14.0943 17.3534 6.35409e-19)
(13.7431 17.279 4.68252e-20)
(13.3906 17.1902 2.27322e-20)
(13.0373 17.0883 -4.21368e-19)
(12.6833 16.9741 -1.74022e-20)
(12.3283 16.8485 0)
(11.9726 16.7135 0)
(11.6147 16.5685 5.30409e-19)
(11.2539 16.4159 -5.46429e-19)
(10.8887 16.256 -1.25525e-20)
(10.5174 16.091 0)
(10.1373 15.9219 -1.41197e-20)
(9.74564 15.7514 0)
(9.33919 15.5826 0)
(8.91291 15.4172 0)
(8.46264 15.2622 4.53729e-19)
(7.98106 15.1191 2.5104e-20)
(7.46125 14.9948 1.29003e-20)
(6.89531 14.897 -5.17695e-19)
(6.27213 14.8293 8.58044e-21)
(5.5808 14.7985 0)
(4.81026 14.8109 0)
(3.9532 14.878 2.45375e-20)
(3.00117 14.9998 -2.02124e-20)
(1.94078 15.1599 1.67657e-20)
(0.756687 15.3442 1.69002e-20)
(-0.532299 15.6357 0)
(-1.87532 16.1899 0)
(-3.29172 16.6377 -1.22908e-20)
(18.0927 16.0937 0)
(17.9094 16.3303 1.32724e-20)
(17.7138 16.5345 -1.0066e-20)
(17.5102 16.7266 -1.2176e-20)
(17.2972 16.9016 -1.03351e-20)
(17.0747 17.0602 -2.77106e-21)
(16.8428 17.203 0)
(16.6022 17.3309 1.86024e-21)
(16.3534 17.4444 -1.32891e-20)
(16.0974 17.5444 0)
(15.8348 17.6316 6.58777e-21)
(15.5661 17.7068 -2.41121e-20)
(15.292 17.7709 -6.72891e-21)
(15.0127 17.8249 3.13253e-20)
(14.7286 17.8698 -1.30565e-20)
(14.4402 17.9072 0)
(14.1476 17.9381 -3.14398e-21)
(13.851 17.9639 1.13448e-20)
(13.5506 17.9862 1.19946e-20)
(13.2463 18.0064 0)
(12.9379 18.0258 -8.77114e-20)
(12.6248 18.046 9.27975e-20)
(12.3066 18.068 -9.95845e-20)
(11.9827 18.0932 1.13716e-19)
(11.6518 18.1227 1.11729e-19)
(11.3129 18.1575 -9.83706e-20)
(10.9646 18.198 0)
(10.6054 18.2446 0)
(10.2333 18.2967 0)
(9.84635 18.3537 -1.46221e-20)
(9.44213 18.4136 -7.8958e-20)
(9.01806 18.4732 7.40518e-20)
(8.57171 18.5297 1.34996e-21)
(8.09992 18.576 2.22308e-22)
(7.60013 18.6052 -1.20534e-20)
(7.06983 18.6068 0)
(6.50741 18.5701 -2.34585e-21)
(5.91143 18.4828 1.54484e-19)
(5.28046 18.3263 -1.55571e-19)
(4.6223 18.08 0)
(3.96118 17.7188 3.84201e-19)
(3.32346 17.2218 -3.87342e-19)
(2.71267 16.5659 2.65042e-19)
(17.823 15.7602 0)
(17.6624 15.9969 -1.32703e-20)
(17.4951 16.2044 1.2351e-20)
(17.3217 16.4003 1.1368e-20)
(17.1412 16.5819 1.0272e-20)
(16.9526 16.7503 -4.29856e-20)
(16.7555 16.9059 5.21563e-20)
(16.5501 17.0497 -4.28523e-20)
(16.3371 17.1824 4.556e-20)
(16.1172 17.3046 0)
(15.8911 17.4169 -2.8181e-20)
(15.659 17.5195 2.83377e-20)
(15.4213 17.6131 -1.84907e-20)
(15.1783 17.6979 2.39922e-20)
(14.93 17.7747 1.66651e-21)
(14.6762 17.844 5.11848e-21)
(14.4171 17.9065 -3.32532e-21)
(14.1524 17.9629 8.90536e-21)
(13.882 18.0139 4.38119e-21)
(13.6056 18.0601 0)
(13.3228 18.1023 0)
(13.0332 18.141 9.95773e-21)
(12.736 18.1766 -1.33189e-20)
(12.43 18.2095 0)
(12.1144 18.2401 5.50585e-21)
(11.788 18.2682 -3.62991e-21)
(11.4493 18.2937 -5.74101e-21)
(11.0964 18.316 0)
(10.728 18.3344 0)
(10.3421 18.3473 -5.66113e-21)
(9.93698 18.3529 0)
(9.51133 18.3485 0)
(9.06389 18.3308 -1.1657e-20)
(8.59378 18.2954 -1.09993e-20)
(8.10161 18.2371 -1.67242e-19)
(7.58893 18.1494 6.43525e-20)
(7.0583 18.0247 9.66018e-20)
(6.51527 17.855 -2.00966e-19)
(5.96817 17.6308 1.77289e-19)
(5.42782 17.3432 -2.60476e-19)
(4.91182 16.9848 2.22874e-19)
(4.43938 16.5523 -1.58606e-19)
(4.03092 16.0483 2.05717e-19)
(17.5493 15.407 -2.56046e-20)
(17.4122 15.6268 4.8365e-20)
(17.2704 15.8265 -1.35388e-21)
(17.1235 16.0156 -6.06874e-20)
(16.9712 16.193 4.46698e-20)
(16.8122 16.3588 -5.36913e-20)
(16.6455 16.5134 0)
(16.4709 16.6577 0)
(16.2887 16.7924 0)
(16.0993 16.9181 0)
(15.9033 17.0352 -6.06293e-20)
(15.7014 17.144 7.22021e-20)
(15.4937 17.2447 -6.65542e-20)
(15.2806 17.3375 6.17879e-20)
(15.0617 17.4224 0)
(14.8369 17.4998 6.06317e-20)
(14.6058 17.5699 -6.1394e-20)
(14.3684 17.6332 5.50566e-20)
(14.1244 17.6899 -1.08521e-19)
(13.8734 17.7405 6.00216e-20)
(13.6152 17.7852 -5.40949e-21)
(13.3497 17.8243 -1.75625e-21)
(13.0761 17.858 7.76361e-21)
(12.7939 17.8863 0)
(12.5026 17.9091 0)
(12.2013 17.9262 -9.14012e-20)
(11.8896 17.9372 1.88985e-19)
(11.5665 17.9414 -2.24224e-19)
(11.2313 17.9376 1.11202e-19)
(10.8829 17.9243 5.46504e-21)
(10.5204 17.8994 0)
(10.1433 17.8605 -1.07279e-19)
(9.75102 17.8046 1.20144e-19)
(9.3437 17.728 -1.34397e-19)
(8.9222 17.6265 3.21071e-19)
(8.488 17.4956 -3.73458e-19)
(8.04385 17.3303 2.52898e-19)
(7.59443 17.1257 2.50998e-20)
(7.14559 16.8774 0)
(6.70581 16.5817 0)
(6.28585 16.2373 1.98785e-20)
(5.89761 15.8464 0)
(5.55401 15.4146 -2.5395e-19)
(17.2888 15.0326 3.08212e-20)
(17.1674 15.2299 2.99783e-20)
(17.0438 15.4172 -3.00661e-20)
(16.9164 15.5949 1.32452e-20)
(16.7851 15.7631 -5.71877e-20)
(16.6487 15.9212 7.26251e-20)
(16.5057 16.0694 1.5308e-20)
(16.355 16.2082 1.51221e-20)
(16.1965 16.3384 0)
(16.0302 16.4607 -5.22468e-20)
(15.8572 16.5753 1.07285e-19)
(15.6778 16.6827 -5.15732e-20)
(15.4927 16.7829 -1.00007e-19)
(15.3021 16.876 2.1407e-19)
(15.1061 16.9617 -1.14258e-19)
(14.9043 17.0401 0)
(14.6962 17.1112 -1.45775e-20)
(14.4817 17.1751 8.54378e-20)
(14.2601 17.2319 -9.75068e-21)
(14.0308 17.2817 -1.1948e-19)
(13.7935 17.3247 1.14103e-19)
(13.548 17.3611 -1.11028e-19)
(13.2942 17.3908 -1.2565e-19)
(13.0313 17.4135 4.40119e-21)
(12.7584 17.4288 1.9917e-19)
(12.4747 17.4366 -8.09114e-20)
(12.1799 17.4368 7.98208e-21)
(11.8736 17.4286 8.91556e-20)
(11.5555 17.4112 1.71067e-20)
(11.2254 17.3832 -1.01481e-19)
(10.8827 17.3428 0)
(10.5272 17.2879 0)
(10.1594 17.2163 -1.56428e-19)
(9.77978 17.1252 -1.62678e-20)
(9.3899 17.0115 1.55093e-19)
(8.99214 16.8714 0)
(8.58948 16.7015 1.9347e-19)
(8.1863 16.4981 -2.5882e-19)
(7.78791 16.2582 -3.9963e-20)
(7.40086 15.9801 1.76665e-19)
(7.03305 15.6636 6.43365e-20)
(6.69342 15.3112 -1.9468e-19)
(6.39012 14.9281 5.59663e-20)
(17.043 14.6383 -1.70403e-20)
(16.9342 14.8113 5.32479e-20)
(16.8246 14.9852 0)
(16.7128 15.1495 0)
(16.5981 15.3059 0)
(16.4802 15.454 -1.5424e-20)
(16.3572 15.5933 2.26701e-21)
(16.2271 15.724 -1.50054e-20)
(16.0892 15.847 0)
(15.9432 15.963 -6.39923e-20)
(15.7902 16.0722 6.68032e-20)
(15.63 16.1747 0)
(15.4635 16.2709 1.72663e-20)
(15.2913 16.3611 -7.75413e-20)
(15.1143 16.4447 1.59212e-19)
(14.9317 16.5214 -6.43314e-20)
(14.743 16.5914 1.4366e-20)
(14.5483 16.6547 1.45711e-20)
(14.3472 16.7109 0)
(14.1383 16.7599 1.5288e-20)
(13.921 16.8018 -7.35167e-20)
(13.695 16.8368 7.50234e-20)
(13.4606 16.8653 -1.1043e-20)
(13.2181 16.8864 -2.08114e-20)
(12.9665 16.899 -9.16366e-20)
(12.7043 16.9028 5.98081e-21)
(12.4302 16.8976 1.01115e-19)
(12.1441 16.8833 0)
(11.8467 16.8592 1.66715e-20)
(11.5383 16.8237 1.20575e-19)
(11.2183 16.7753 1.02992e-20)
(10.887 16.7122 -1.56989e-19)
(10.5444 16.6325 0)
(10.1916 16.534 2.07604e-19)
(9.83001 16.4145 -1.87092e-19)
(9.46249 16.2714 0)
(9.09214 16.102 3.1884e-20)
(8.72311 15.9036 -1.56036e-19)
(8.35995 15.6733 2.63177e-20)
(8.00744 15.4101 1.73506e-19)
(7.67167 15.1144 2.54387e-21)
(7.35953 14.7886 2.1844e-19)
(7.07708 14.4374 -3.90165e-19)
(16.8092 14.2227 0)
(16.7126 14.3749 -1.23922e-22)
(16.6147 14.5362 -3.80112e-20)
(16.516 14.6862 0)
(16.4139 14.829 0)
(16.3102 14.9656 -7.3598e-20)
(16.2035 15.0946 1.48144e-19)
(16.0903 15.2162 -7.30324e-20)
(15.9701 15.3306 1.90873e-20)
(15.8409 15.4392 -1.90874e-20)
(15.7054 15.5421 3.66905e-20)
(15.5621 15.6387 -9.23108e-20)
(15.4115 15.7293 -3.65751e-20)
(15.2534 15.8151 0)
(15.0917 15.8958 5.74576e-20)
(14.9252 15.9697 -7.54159e-20)
(14.7519 16.0368 -2.0573e-20)
(14.5718 16.099 0)
(14.3876 16.1549 2.16731e-20)
(14.1964 16.2035 0)
(13.9971 16.2449 -2.33261e-20)
(13.7877 16.279 0)
(13.5681 16.3073 1.0727e-19)
(13.3418 16.3293 -7.36891e-20)
(13.1079 16.3429 0)
(12.8652 16.3469 1.51516e-20)
(12.6101 16.3407 -1.24574e-19)
(12.3415 16.325 -6.40969e-21)
(12.0611 16.2996 1.02749e-19)
(11.7706 16.2622 3.82771e-20)
(11.4686 16.212 1.72529e-19)
(11.157 16.1472 -1.77151e-19)
(10.8343 16.0655 0)
(10.5021 15.9648 2.27052e-19)
(10.1606 15.8442 -3.57013e-19)
(9.81391 15.7018 1.27424e-19)
(9.46483 15.536 0)
(9.11913 15.345 -1.63379e-19)
(8.78114 15.1253 3.20596e-20)
(8.45367 14.8753 3.72491e-19)
(8.1406 14.5959 -1.92419e-19)
(7.84742 14.2895 1.10659e-19)
(7.57934 13.9609 -1.10767e-19)
(16.5758 13.8019 2.28204e-20)
(16.5013 13.9307 6.0592e-20)
(16.4151 14.0771 -4.06695e-20)
(16.3304 14.2114 0)
(16.2378 14.3382 -3.94833e-20)
(16.1433 14.4622 1.94115e-20)
(16.0511 14.5792 -1.89404e-20)
(15.9505 14.6896 0)
(15.8455 14.7953 1.14649e-21)
(15.7286 14.8962 9.8292e-20)
(15.6092 14.9926 -3.98178e-20)
(15.4804 15.0835 3.9678e-20)
(15.3458 15.1685 1.93427e-20)
(15.1984 15.2486 -1.03204e-19)
(15.0471 15.3267 6.14435e-20)
(14.8945 15.3986 1.06817e-19)
(14.7368 15.4613 -6.5529e-20)
(14.5661 15.52 0)
(14.3941 15.5757 -1.13453e-19)
(14.2163 15.6252 9.34318e-20)
(14.0331 15.6686 1.47854e-19)
(13.8421 15.7016 -1.01365e-19)
(13.6342 15.7294 1.08895e-19)
(13.4199 15.754 -1.24599e-19)
(13.199 15.771 1.52141e-19)
(12.9742 15.777 -2.68454e-19)
(12.7392 15.7719 1.15111e-19)
(12.4883 15.7581 0)
(12.2212 15.7367 1.85397e-20)
(11.9498 15.7007 -2.0047e-20)
(11.6626 15.6513 0)
(11.3695 15.589 0)
(11.0646 15.5098 0)
(10.7531 15.4102 3.02375e-20)
(10.4285 15.2907 -1.31543e-19)
(10.0986 15.1505 2.77501e-19)
(9.76404 14.9883 -1.45935e-19)
(9.43389 14.8051 4.1756e-20)
(9.1153 14.5958 -4.30604e-20)
(8.80854 14.3568 4.84051e-20)
(8.5127 14.0905 -4.99528e-20)
(8.23432 13.7984 -1.10967e-19)
(7.97414 13.4877 2.85883e-19)
(16.3199 13.3796 -2.28257e-20)
(16.2957 13.4904 2.14466e-20)
(16.2223 13.6157 4.19024e-20)
(16.1593 13.732 -8.38677e-20)
(16.0762 13.8372 3.52069e-22)
(15.9833 13.9494 1.01102e-19)
(15.9049 14.0562 -4.04086e-20)
(15.8127 14.147 0)
(15.7261 14.2437 -2.06197e-20)
(15.6172 14.3394 -4.12556e-20)
(15.5116 14.4296 2.09678e-20)
(15.3917 14.511 -2.10192e-20)
(15.2781 14.5948 4.39879e-20)
(15.1441 14.6673 8.18288e-22)
(15 14.7401 6.56403e-20)
(14.852 14.8137 -6.63319e-20)
(14.7181 14.876 -4.62204e-20)
(14.5554 14.9245 4.68619e-20)
(14.3926 14.9774 2.57234e-20)
(14.2248 15.024 0)
(14.0473 15.0752 -5.18398e-20)
(13.8818 15.1127 5.40533e-20)
(13.6853 15.1339 0)
(13.4805 15.1625 3.2324e-20)
(13.2641 15.1886 -3.04356e-20)
(13.0501 15.1987 1.03379e-19)
(12.8326 15.1914 2.0867e-20)
(12.6056 15.1757 2.90295e-21)
(12.3484 15.1679 3.88884e-21)
(12.0957 15.1429 -8.40086e-20)
(11.8117 15.0915 -4.88919e-20)
(11.5341 15.0336 1.0116e-19)
(11.2385 14.9639 1.15001e-19)
(10.9502 14.8686 -1.47484e-19)
(10.6395 14.7509 1.36055e-19)
(10.3251 14.6166 8.62116e-21)
(9.99816 14.4583 -3.10284e-19)
(9.66786 14.284 -5.06095e-20)
(9.35427 14.0888 1.7472e-19)
(9.0646 13.8577 -4.715e-20)
(8.77975 13.6028 -2.07989e-19)
(8.52017 13.3189 1.06283e-19)
(8.26305 13.0266 -1.68533e-19)
(-4.61544 15.7603 1.70461e-19)
(-3.95511 14.512 7.3024e-20)
(-3.27143 13.4316 -5.56736e-20)
(-2.60096 12.5788 -1.45064e-19)
(-1.96478 11.8765 -4.70285e-20)
(-1.36875 11.2818 4.71768e-20)
(-0.810107 10.7699 3.49603e-19)
(-0.287455 10.3254 -2.85763e-19)
(0.200304 9.93427 0)
(0.657007 9.5871 -4.28042e-20)
(1.08458 9.2755 0)
(1.48505 8.99374 3.96336e-20)
(1.85997 8.73639 6.40081e-19)
(2.21221 8.49943 -1.65133e-18)
(2.54423 8.27996 2.21072e-18)
(2.85847 8.07477 -9.24802e-19)
(3.15728 7.88181 0)
(3.44231 7.69873 0)
(3.71516 7.52394 -9.59171e-19)
(3.97697 7.35568 3.30621e-21)
(4.22892 7.19262 1.86781e-18)
(4.47209 7.03362 -8.82339e-19)
(4.70735 6.87749 0)
(4.93565 6.72353 2.0841e-21)
(5.15769 6.57069 8.17316e-19)
(5.37424 6.41821 -7.03883e-19)
(5.58612 6.26553 -9.86099e-20)
(5.79402 6.11201 0)
(5.9986 5.95697 -9.55376e-20)
(6.20064 5.79994 -9.7346e-20)
(6.40095 5.64045 7.47111e-19)
(6.60032 5.47796 -8.36165e-19)
(6.79974 5.3121 8.21346e-19)
(7.00023 5.14244 1.76268e-19)
(7.20293 4.96862 -8.9824e-19)
(7.40911 4.7903 1.80342e-19)
(7.62029 4.60721 -1.77522e-19)
(7.8382 4.41916 0)
(8.06489 4.2259 -3.37041e-19)
(8.30261 4.02724 1.62424e-19)
(8.5537 3.82305 0)
(8.82032 3.61233 0)
(9.10293 3.38247 0)
(2.169 15.7564 -2.61828e-19)
(1.85373 14.9022 -3.2367e-19)
(1.73082 14.1108 5.27928e-19)
(1.72878 13.3887 -1.27427e-19)
(1.80739 12.7362 -4.72181e-21)
(1.94008 12.1489 4.35023e-20)
(2.10926 11.6213 2.73417e-19)
(2.30362 11.147 -3.42044e-19)
(2.51424 10.7197 0)
(2.73456 10.3335 7.87313e-20)
(2.9595 9.98299 -6.37249e-19)
(3.18615 9.6632 -4.05501e-20)
(3.41236 9.36918 -7.21923e-20)
(3.63688 9.09737 4.97092e-19)
(3.85875 8.84429 5.45499e-19)
(4.07712 8.60683 3.95288e-19)
(4.29153 8.3825 -1.0154e-18)
(4.50189 8.16938 9.76124e-19)
(4.70811 7.96558 -1.89181e-18)
(4.91011 7.76945 6.16176e-20)
(5.10799 7.57967 6.31365e-21)
(5.302 7.39511 1.72789e-18)
(5.49241 7.21475 -7.05247e-21)
(5.67946 7.0376 -7.73578e-19)
(5.86344 6.86277 9.84118e-20)
(6.04466 6.68945 -7.82962e-19)
(6.22359 6.51703 8.73168e-19)
(6.40063 6.34484 0)
(6.57616 6.17222 9.38457e-20)
(6.75073 5.99868 0)
(6.92493 5.82371 -6.33145e-19)
(7.09941 5.64683 9.94859e-20)
(7.27487 5.46755 8.05653e-19)
(7.45208 5.28544 -8.70524e-20)
(7.63191 5.10013 6.08594e-19)
(7.8153 4.91132 -6.90279e-19)
(8.00341 4.71883 3.43037e-19)
(8.19765 4.52248 0)
(8.39963 4.32212 8.46854e-20)
(8.61124 4.11768 -4.03204e-19)
(8.83448 3.90914 0)
(9.07159 3.69602 0)
(9.3245 3.47116 0)
(3.70877 15.4859 -1.99865e-19)
(3.48503 14.8895 3.51721e-19)
(3.3467 14.288 -3.25739e-19)
(3.28144 13.7015 9.46212e-20)
(3.27623 13.1413 -3.43004e-20)
(3.32019 12.6133 -1.11866e-19)
(3.40291 12.1196 -1.09119e-19)
(3.51521 11.6607 1.42853e-19)
(3.64932 11.235 2.90724e-19)
(3.79972 10.8401 -3.17264e-19)
(3.96206 10.4738 5.58055e-19)
(4.13249 10.1332 -5.37261e-19)
(4.30814 9.81533 5.97093e-19)
(4.48692 9.51798 -5.09581e-19)
(4.66701 9.23861 -4.35654e-19)
(4.84713 8.975 5.43417e-19)
(5.02642 8.72525 0)
(5.20421 8.48758 -5.64548e-20)
(5.38019 8.26041 -4.95389e-19)
(5.55405 8.04224 3.21293e-19)
(5.72564 7.83175 -5.18575e-20)
(5.89495 7.62779 0)
(6.06218 7.42931 0)
(6.22743 7.23531 0)
(6.39087 7.04477 -9.69915e-20)
(6.55275 6.85686 -7.44283e-19)
(6.71332 6.67081 1.55976e-18)
(6.87282 6.4859 8.28173e-20)
(7.03155 6.30152 -7.16241e-19)
(7.18993 6.11711 -4.37206e-19)
(7.34849 5.93214 7.81746e-19)
(7.50775 5.74605 -6.8835e-19)
(7.66828 5.55832 2.56473e-19)
(7.83064 5.36851 1.7627e-21)
(7.99544 5.17621 2.47815e-19)
(8.16339 4.98116 -7.44183e-19)
(8.33542 4.78327 4.10599e-19)
(8.51269 4.58235 0)
(8.69658 4.3783 3.18359e-19)
(8.88861 4.17119 1.5745e-19)
(9.09065 3.96113 3.78862e-20)
(9.30468 3.74806 -1.84848e-19)
(9.53181 3.52714 1.42642e-19)
(5.26445 14.9512 1.99488e-19)
(5.03339 14.4657 0)
(4.86017 13.9705 -3.39593e-20)
(4.74174 13.4774 6.16994e-22)
(4.67269 12.9954 3.55623e-20)
(4.64685 12.5304 7.10755e-20)
(4.65764 12.0864 0)
(4.69925 11.6654 2.16374e-19)
(4.7657 11.2677 1.46331e-19)
(4.85219 10.8931 -2.77003e-19)
(4.95445 10.5406 2.75254e-19)
(5.06905 10.2087 -2.6563e-19)
(5.19313 9.89591 0)
(5.3242 9.6005 0)
(5.46016 9.32087 -6.15008e-20)
(5.5996 9.0555 0)
(5.74142 8.80284 0)
(5.88471 8.56147 5.62239e-20)
(6.02877 8.33002 5.46036e-20)
(6.17321 8.10723 4.74274e-19)
(6.31762 7.89193 -7.69291e-19)
(6.46176 7.68312 4.00868e-19)
(6.60565 7.47979 0)
(6.7493 7.28095 -3.79257e-19)
(6.8927 7.08568 4.66133e-19)
(7.03585 6.89309 0)
(7.17871 6.70246 -9.02267e-20)
(7.32135 6.51322 -8.87197e-20)
(7.46393 6.32488 -3.44933e-19)
(7.60689 6.1369 7.69911e-19)
(7.75064 5.94876 -4.24514e-19)
(7.89563 5.75984 -8.28185e-20)
(8.04223 5.56967 0)
(8.19077 5.37768 -3.23952e-19)
(8.34148 5.18361 3.25861e-19)
(8.49489 4.98728 1.60576e-19)
(8.65183 4.78867 -1.60798e-19)
(8.81332 4.5875 7.79364e-20)
(8.98034 4.38363 -1.55697e-19)
(9.15399 4.17712 0)
(9.33593 3.96828 0)
(9.52842 3.75653 -1.44346e-19)
(9.73422 3.53765 -1.37591e-19)
(6.1287 14.5201 1.20966e-19)
(5.91144 14.0933 -1.20022e-19)
(5.73905 13.6555 1.30494e-19)
(5.61045 13.2155 3.33091e-20)
(5.5232 12.7805 -1.82147e-20)
(5.47367 12.3556 5.34969e-20)
(5.45752 11.9452 -1.38261e-19)
(5.47022 11.5515 -7.02888e-20)
(5.50742 11.1756 -6.85749e-20)
(5.56503 10.818 0)
(5.63936 10.4782 2.6732e-19)
(5.72709 10.1558 -2.58256e-19)
(5.8255 9.84973 -6.30327e-20)
(5.93217 9.55879 -2.47073e-19)
(6.04498 9.282 2.3903e-19)
(6.16246 9.01825 0)
(6.28368 8.76632 0)
(6.40777 8.52492 0)
(6.53392 8.29281 0)
(6.66141 8.06891 -3.61541e-19)
(6.78987 7.85226 4.03318e-19)
(6.91905 7.64198 0)
(7.04896 7.43715 0)
(7.17966 7.2367 0)
(7.31094 7.03967 -1.25839e-21)
(7.44245 6.84517 4.44402e-19)
(7.57378 6.65279 -3.51777e-19)
(7.70503 6.46214 -8.55836e-20)
(7.83659 6.27288 -8.42121e-20)
(7.96895 6.0844 8.2998e-20)
(8.10246 5.89615 0)
(8.23751 5.70742 1.62855e-19)
(8.37414 5.51769 0)
(8.51246 5.32642 8.53913e-22)
(8.65241 5.13341 0)
(8.79426 4.93874 2.34067e-19)
(8.93918 4.7424 -1.5643e-19)
(9.08807 4.5438 -7.67751e-20)
(9.24138 4.34262 7.59893e-20)
(9.39967 4.13917 0)
(9.56467 3.93378 0)
(9.73892 3.72606 1.43289e-19)
(9.9266 3.51424 1.39288e-19)
(6.82966 14.0649 1.15948e-19)
(6.61872 13.6758 0)
(6.44526 13.2759 -6.46384e-20)
(6.30918 12.8723 -5.00508e-20)
(6.2093 12.471 -3.40759e-20)
(6.14325 12.0767 1.69392e-20)
(6.1081 11.6931 1.38074e-19)
(6.10063 11.3224 -6.85823e-20)
(6.11723 10.9659 3.79292e-22)
(6.15405 10.6244 -2.69878e-19)
(6.20783 10.298 5.90963e-19)
(6.27583 9.98649 -2.55628e-19)
(6.35497 9.68915 3.14436e-19)
(6.44285 9.40532 1.30231e-21)
(6.53754 9.13438 -2.36782e-19)
(6.63775 8.87561 0)
(6.74288 8.6279 0)
(6.85227 8.38988 0)
(6.9646 8.16021 0)
(7.07875 7.93825 -5.1454e-20)
(7.19451 7.72331 -4.46724e-19)
(7.31197 7.51455 8.22829e-19)
(7.43123 7.31103 -3.78519e-19)
(7.55238 7.11156 3.66944e-19)
(7.67461 6.91503 -1.82691e-19)
(7.79696 6.72084 -4.41924e-19)
(7.91873 6.52913 -8.59728e-20)
(8.04059 6.33982 8.50768e-20)
(8.16329 6.15239 8.36271e-20)
(8.2874 5.9661 2.43884e-19)
(8.41302 5.7803 -4.05547e-19)
(8.54047 5.59421 -8.01696e-20)
(8.66932 5.40731 1.57064e-19)
(8.79951 5.2192 -7.86766e-20)
(8.9306 5.02967 -7.66584e-20)
(9.06262 4.83945 7.82598e-20)
(9.19793 4.64805 1.52306e-19)
(9.3368 4.45453 -1.5037e-19)
(9.47888 4.25843 0)
(9.62423 4.06064 -9.09393e-21)
(9.77494 3.86159 9.04635e-21)
(9.93369 3.66113 0)
(10.104 3.45904 0)
(7.34275 13.6132 6.0517e-20)
(7.13842 13.2497 0)
(6.96715 12.8757 6.51066e-20)
(6.82838 12.4974 1.32898e-19)
(6.72233 12.1202 0)
(6.64706 11.7483 -6.81679e-20)
(6.60113 11.385 -1.37128e-19)
(6.582 11.0324 6.58484e-20)
(6.58677 10.6912 2.00137e-19)
(6.61097 10.3627 -1.9905e-19)
(6.65184 10.0479 1.28545e-19)
(6.7076 9.74597 0)
(6.77412 9.45679 3.10376e-19)
(6.84921 9.18015 -1.80272e-19)
(6.93127 8.91576 -2.9349e-19)
(7.01965 8.66309 -3.29598e-22)
(7.11441 8.42072 4.4234e-19)
(7.21464 8.18664 -1.61246e-19)
(7.31763 7.95984 -1.56253e-19)
(7.422 7.74056 2.03016e-19)
(7.52894 7.52835 4.94347e-20)
(7.63878 7.32203 -4.8089e-20)
(7.75165 7.1207 -9.30855e-20)
(7.86744 6.92265 0)
(7.98361 6.72708 2.66449e-19)
(8.09885 6.53403 -1.74632e-19)
(8.21259 6.34457 8.54892e-20)
(8.32723 6.15836 2.49979e-19)
(8.44352 5.97448 -2.47115e-19)
(8.56186 5.79187 -1.60947e-19)
(8.68189 5.61011 3.19731e-19)
(8.80419 5.42812 -1.56609e-19)
(8.92724 5.2457 1.56407e-19)
(9.05115 5.06254 1.53252e-19)
(9.17476 4.87848 -2.29799e-19)
(9.29826 4.69509 -1.50793e-19)
(9.42661 4.51065 7.47925e-20)
(9.55812 4.32412 -7.46404e-20)
(9.69115 4.13488 -7.35495e-20)
(9.82522 3.94542 0)
(9.96375 3.75536 8.92365e-20)
(10.1095 3.56566 -1.76126e-20)
(10.2663 3.37457 6.84822e-20)
(7.74601 13.1584 -1.75952e-19)
(7.54717 12.8131 6.35005e-20)
(7.37789 12.4575 -1.26588e-19)
(7.23663 12.0985 -6.53753e-20)
(7.12597 11.7393 6.68522e-20)
(7.04345 11.3852 1.34182e-19)
(6.98991 11.0377 6.71201e-20)
(6.96312 10.699 6.1999e-22)
(6.95987 10.3697 -6.5421e-20)
(6.97461 10.0515 -6.58644e-20)
(7.00547 9.74603 6.30266e-20)
(7.05237 9.45227 0)
(7.10873 9.17092 2.44941e-19)
(7.17413 8.90145 -5.35951e-19)
(7.24636 8.6446 2.89357e-19)
(7.3267 8.39861 0)
(7.41522 8.1613 2.1866e-19)
(7.51008 7.93001 -5.8369e-19)
(7.60609 7.7055 1.54973e-19)
(7.70327 7.48957 0)
(7.80569 7.28066 0)
(7.91194 7.07693 0)
(8.0219 6.87727 -1.8341e-19)
(8.13486 6.67941 -8.89756e-20)
(8.24505 6.485 3.52186e-19)
(8.3533 6.29417 -1.31596e-21)
(8.45943 6.10879 -3.37399e-19)
(8.56901 5.92661 8.33408e-20)
(8.68072 5.74739 1.30304e-22)
(8.79555 5.56916 2.39302e-19)
(8.91179 5.3928 -3.15644e-19)
(9.03112 5.21565 7.94615e-20)
(9.14915 5.03911 2.32168e-19)
(9.26788 4.86232 -1.52031e-19)
(9.38459 4.68613 7.635e-20)
(9.50099 4.51155 0)
(9.62575 4.3343 -5.41376e-22)
(9.75186 4.15718 -4.68567e-22)
(9.87733 3.97536 7.29753e-20)
(10.0009 3.79743 -6.8038e-20)
(10.129 3.61706 -4.03009e-21)
(10.2631 3.44067 0)
(10.4127 3.25835 0)
(8.04781 12.7095 -6.07654e-20)
(7.85545 12.3752 1.24745e-19)
(7.6897 12.0317 -1.9258e-19)
(7.54681 11.6902 0)
(7.43751 11.343 -6.63285e-20)
(7.35264 11.0053 -1.99034e-19)
(7.30039 10.6674 -6.64979e-20)
(7.27142 10.3373 0)
(7.26638 10.0163 -6.64715e-20)
(7.2766 9.70616 6.44541e-20)
(7.30159 9.40504 -1.28915e-19)
(7.34548 9.11706 -1.26966e-19)
(7.39714 8.84569 6.03144e-20)
(7.45822 8.58243 0)
(7.52441 8.3358 0)
(7.60268 8.09458 0)
(7.68882 7.85853 0)
(7.78254 7.62785 3.13476e-19)
(7.87349 7.40824 -2.01369e-19)
(7.96492 7.19806 0)
(8.0627 6.99238 -9.65148e-20)
(8.16149 6.78952 1.86263e-19)
(8.26445 6.58734 -9.14263e-20)
(8.37025 6.38712 9.03343e-20)
(8.47055 6.1977 -1.74668e-19)
(8.57287 6.0108 1.70557e-19)
(8.67112 5.8315 0)
(8.77798 5.65102 1.66046e-19)
(8.88681 5.47898 -3.27364e-19)
(9.00039 5.30477 8.14119e-20)
(9.11172 5.136 -2.39159e-19)
(9.22812 4.96222 7.97128e-20)
(9.33801 4.79374 -7.77432e-20)
(9.45291 4.62391 -7.5911e-20)
(9.5658 4.461 2.19405e-19)
(9.67813 4.29533 0)
(9.79733 4.12094 7.60648e-20)
(9.91664 3.96066 3.72058e-20)
(10.0321 3.78308 -5.51628e-20)
(10.1489 3.62394 9.48866e-20)
(10.2661 3.4492 -9.45902e-20)
(10.3906 3.28711 -1.786e-20)
(10.5473 3.09432 -3.19655e-20)
(-2.38867 -2.6339 8.3545e-19)
(-2.2242 -2.66291 8.83004e-19)
(-2.05771 -2.6965 1.84216e-18)
(-1.88957 -2.73304 -9.51699e-19)
(-1.72064 -2.77164 9.73259e-19)
(-1.55174 -2.81147 1.50456e-18)
(-1.38366 -2.85185 -1.02621e-18)
(-1.21699 -2.89228 -1.04596e-18)
(-1.05218 -2.9324 1.07275e-18)
(-0.88959 -2.97191 1.08364e-18)
(-0.729455 -3.01059 -5.50379e-19)
(-0.571846 -3.04827 5.66454e-19)
(-0.416783 -3.08484 -5.80141e-19)
(-0.264284 -3.12016 -2.97181e-19)
(-0.114253 -3.15414 3.0188e-19)
(0.0334079 -3.1867 0)
(0.178791 -3.21777 0)
(0.322015 -3.24726 6.69468e-19)
(0.463223 -3.27514 -3.51814e-19)
(0.602479 -3.30131 0)
(0.739854 -3.32572 -3.81815e-19)
(0.875418 -3.34832 1.18902e-18)
(1.00917 -3.36909 -4.14668e-19)
(1.14114 -3.388 2.2197e-19)
(1.27129 -3.40511 9.40408e-19)
(1.3995 -3.42038 -2.0088e-18)
(1.52569 -3.43393 2.4243e-18)
(1.64975 -3.44583 -2.03421e-18)
(1.77143 -3.45621 1.57453e-18)
(1.89062 -3.46524 3.08589e-18)
(2.00713 -3.4732 -3.01254e-18)
(2.12068 -3.48024 3.11759e-18)
(2.23108 -3.48666 -3.23999e-18)
(2.33809 -3.49272 0)
(2.44158 -3.49862 -4.70844e-18)
(2.54159 -3.50443 5.39551e-18)
(2.63884 -3.50972 5.86249e-18)
(2.73616 -3.51375 -6.89754e-18)
(2.84305 -3.51582 0)
(2.9934 -3.52052 1.06602e-17)
(3.31749 -3.56999 -1.32225e-17)
(4.33287 -3.94336 -1.72238e-17)
(8.43056 -6.03362 3.43061e-17)
(-2.3142 -2.67697 -8.33945e-19)
(-2.16443 -2.70227 0)
(-2.01273 -2.73247 -1.82766e-18)
(-1.85916 -2.76564 1.8838e-18)
(-1.70444 -2.80097 4.82755e-19)
(-1.54928 -2.83778 -1.47982e-18)
(-1.39435 -2.87549 5.02386e-19)
(-1.24019 -2.9137 -1.0237e-18)
(-1.08725 -2.95212 8.80057e-22)
(-0.935802 -2.99057 5.32166e-19)
(-0.786034 -3.02886 3.54236e-23)
(-0.638043 -3.06685 2.15177e-21)
(-0.491845 -3.10445 -5.60749e-19)
(-0.347409 -3.14156 8.61349e-19)
(-0.204606 -3.17813 2.95829e-19)
(-0.0633478 -3.21408 -9.08428e-19)
(0.0764931 -3.24935 9.33369e-19)
(0.215117 -3.28388 -1.28856e-18)
(0.352729 -3.31761 3.36746e-19)
(0.489467 -3.35044 6.95473e-19)
(0.625555 -3.38224 7.25108e-19)
(0.761126 -3.41292 -3.78437e-19)
(0.896285 -3.44232 0)
(1.03115 -3.47034 6.32807e-19)
(1.16575 -3.4968 -2.23836e-18)
(1.30004 -3.52154 1.16783e-21)
(1.43405 -3.5444 5.08987e-19)
(1.56767 -3.56524 0)
(1.7008 -3.58388 -1.17725e-18)
(1.8333 -3.60014 9.62037e-19)
(1.96511 -3.61388 3.50842e-19)
(2.09623 -3.62487 -1.14696e-18)
(2.22676 -3.63284 2.9619e-18)
(2.35743 -3.63759 -1.40956e-18)
(2.4899 -3.63879 0)
(2.62795 -3.63629 8.90868e-19)
(2.78028 -3.63073 0)
(2.96712 -3.6251 -6.5462e-18)
(3.23514 -3.63109 -8.67071e-19)
(3.69902 -3.69185 9.39158e-18)
(4.64772 -3.96261 -6.28504e-19)
(6.83605 -4.95673 7.17768e-19)
(12.1374 -7.97533 -6.41455e-19)
(-2.24232 -2.71307 0)
(-2.10351 -2.73585 0)
(-1.96274 -2.7643 -4.5026e-19)
(-1.81972 -2.79569 4.63091e-19)
(-1.67516 -2.8293 -4.7207e-19)
(-1.52972 -2.86448 0)
(-1.38402 -2.90069 4.93198e-19)
(-1.23863 -2.93754 0)
(-1.09397 -2.9748 -5.09944e-19)
(-0.950319 -3.01234 -5.1288e-19)
(-0.807814 -3.05004 1.05352e-18)
(-0.666527 -3.08777 -5.3341e-19)
(-0.526455 -3.12544 2.72061e-19)
(-0.387531 -3.16299 -5.59033e-19)
(-0.249692 -3.20033 -2.8497e-19)
(-0.112806 -3.23742 2.91452e-19)
(0.0232779 -3.27423 -3.04359e-19)
(0.158724 -3.31077 6.26963e-19)
(0.293806 -3.347 2.76297e-21)
(0.428773 -3.38288 -3.36599e-19)
(0.5639 -3.41833 4.37333e-22)
(0.699467 -3.45326 3.70803e-19)
(0.835753 -3.48751 3.87207e-19)
(0.973034 -3.52093 4.07961e-19)
(1.11149 -3.55332 8.58878e-19)
(1.25132 -3.58441 4.57832e-19)
(1.39281 -3.61399 -2.06803e-21)
(1.53612 -3.64172 -2.61058e-19)
(1.68149 -3.66721 8.38596e-19)
(1.82922 -3.69002 -1.20698e-18)
(1.97985 -3.70964 -3.25487e-19)
(2.13427 -3.72557 -3.54582e-19)
(2.29397 -3.73722 1.55698e-18)
(2.46185 -3.74409 -2.14277e-18)
(2.64343 -3.74612 -4.74702e-19)
(2.84899 -3.74407 -2.62486e-18)
(3.09831 -3.74136 6.83925e-21)
(3.43069 -3.74841 2.6389e-18)
(3.92657 -3.79372 7.49373e-19)
(4.75286 -3.95548 -7.80155e-18)
(6.25454 -4.44728 1.56883e-17)
(9.1683 -5.81237 -8.19169e-18)
(14.3827 -8.9262 4.99267e-19)
(-2.17337 -2.7401 7.57647e-22)
(-2.04417 -2.76105 8.63715e-19)
(-1.91326 -2.78696 -4.43683e-19)
(-1.77987 -2.8156 4.55249e-19)
(-1.64462 -2.84645 0)
(-1.50802 -2.87893 0)
(-1.37064 -2.91248 -4.80088e-19)
(-1.2331 -2.94671 0)
(-1.09583 -2.98146 4.96976e-19)
(-0.959113 -3.01667 2.54814e-19)
(-0.823039 -3.05229 -5.11817e-19)
(-0.687567 -3.08822 -2.62147e-19)
(-0.552713 -3.12437 2.65769e-19)
(-0.41838 -3.16067 -2.72278e-19)
(-0.284463 -3.19708 5.593e-19)
(-0.150808 -3.23349 2.85691e-19)
(-0.0173327 -3.26985 2.94975e-19)
(0.116101 -3.30621 -3.02792e-19)
(0.24977 -3.34264 -3.14408e-19)
(0.384054 -3.37914 0)
(0.519304 -3.4157 0)
(0.655872 -3.45226 -3.5544e-19)
(0.794214 -3.48873 2.57024e-21)
(0.934775 -3.52494 -3.92048e-19)
(1.07801 -3.56069 -8.30301e-19)
(1.22433 -3.59574 2.99798e-21)
(1.37427 -3.62981 2.32757e-19)
(1.52845 -3.66254 2.48151e-19)
(1.68773 -3.69346 0)
(1.85313 -3.72199 0)
(2.02607 -3.74745 -3.09295e-19)
(2.20868 -3.76914 -1.66778e-18)
(2.40428 -3.78643 1.4503e-18)
(2.61842 -3.79893 0)
(2.8604 -3.80708 4.30092e-19)
(3.14635 -3.81339 4.73531e-19)
(3.50554 -3.82497 -2.08517e-18)
(3.99182 -3.85986 1.75671e-18)
(4.70531 -3.9611 6.59511e-19)
(5.83238 -4.23065 0)
(7.71225 -4.90141 8.56901e-19)
(10.9588 -6.47589 3.4519e-18)
(15.8734 -9.49085 -3.38431e-18)
(-2.10677 -2.76263 8.21435e-19)
(-1.98596 -2.78099 -8.50587e-19)
(-1.86358 -2.80397 -4.37086e-19)
(-1.73853 -2.82974 4.46271e-19)
(-1.61128 -2.85772 -4.56374e-19)
(-1.48221 -2.88742 4.63934e-19)
(-1.35177 -2.91827 -1.4156e-18)
(-1.22064 -2.94973 7.18192e-19)
(-1.08938 -2.98167 -7.27804e-19)
(-0.958288 -3.01415 -4.92766e-19)
(-0.827422 -3.04722 5.0189e-19)
(-0.696584 -3.08085 2.54535e-19)
(-0.5657 -3.11489 -2.60823e-19)
(-0.434795 -3.14927 0)
(-0.303628 -3.18401 -2.72066e-19)
(-0.171919 -3.21895 0)
(-0.0396847 -3.25384 0)
(0.0930257 -3.28872 1.84199e-21)
(0.226482 -3.32382 -3.09164e-19)
(0.361213 -3.35922 -3.20922e-19)
(0.497584 -3.3949 3.32915e-19)
(0.636034 -3.43092 8.31482e-22)
(0.777225 -3.46731 -3.62946e-19)
(0.921827 -3.50392 -3.83482e-19)
(1.0705 -3.54054 -2.402e-21)
(1.22385 -3.57693 2.50432e-21)
(1.38271 -3.61289 -4.50508e-19)
(1.54815 -3.64826 9.58275e-19)
(1.7217 -3.68267 -5.11128e-19)
(1.90533 -3.71555 -1.09264e-18)
(2.10142 -3.74613 8.77823e-19)
(2.31339 -3.77373 -9.4267e-19)
(2.54632 -3.79793 1.35741e-18)
(2.80793 -3.81867 -1.46308e-18)
(3.11121 -3.83727 1.99296e-18)
(3.47711 -3.85778 -4.34266e-19)
(3.94189 -3.89079 0)
(4.56769 -3.96057 5.32116e-19)
(5.46276 -4.12094 -6.00003e-19)
(6.81464 -4.48656 -6.75273e-19)
(8.93925 -5.29307 0)
(12.3117 -6.9809 -7.65082e-19)
(16.9337 -9.87108 2.91109e-18)
(-2.04023 -2.78178 -8.14446e-19)
(-1.92872 -2.79666 -4.19854e-19)
(-1.81435 -2.81681 4.3095e-19)
(-1.69665 -2.83973 4.38928e-19)
(-1.57641 -2.86478 2.23903e-19)
(-1.45402 -2.89166 5.0475e-22)
(-1.32945 -2.91992 4.61007e-19)
(-1.20361 -2.94861 0)
(-1.0773 -2.9776 0)
(-0.95092 -3.00709 -2.41464e-19)
(-0.824427 -3.03734 4.91262e-19)
(-0.697409 -3.06843 -2.50208e-19)
(-0.569672 -3.10009 0)
(-0.44138 -3.13213 0)
(-0.31241 -3.16479 0)
(-0.181881 -3.19813 -2.74107e-19)
(-0.0497832 -3.23131 2.82382e-19)
(0.0833087 -3.26415 -2.90483e-19)
(0.217547 -3.29716 7.53388e-19)
(0.35368 -3.33058 4.67786e-19)
(0.492204 -3.36434 -6.51625e-19)
(0.633324 -3.39849 1.85723e-21)
(0.778016 -3.43337 3.54556e-19)
(0.927331 -3.46891 -7.46116e-19)
(1.08213 -3.50481 7.82867e-19)
(1.24316 -3.54073 1.37549e-21)
(1.41135 -3.57656 0)