/*--------------------------------*- C++ -*----------------------------------*\
| =========                 |                                                 |
| \\      /  F ield         | OpenFOAM: The Open Source CFD Toolbox           |
|  \\    /   O peration     | Version:  2.3.0                                 |
|   \\  /    A nd           | Web:      www.OpenFOAM.org                      |
|    \\/     M anipulation  |                                                 |
\*---------------------------------------------------------------------------*/
FoamFile
{
    version     2.0;
    format      ascii;
    class       volScalarField;
    location    "5000";
    object      nuTilda;
}
// * * * * * * * * * * * * * * * * * * * * * * * * * * * * * * * * * * * * * //

dimensions      [0 2 -1 0 0 0 0];

internalField   nonuniform List<scalar> 
38375
(
0.0431972
0.0415829
0.0400076
0.0384772
0.0369952
0.0355597
0.0341558
0.0327785
0.0314322
0.030122
0.028851
0.0276191
0.0264235
0.0252601
0.0241274
0.0230249
0.021955
0.0209186
0.0199165
0.0189485
0.0180138
0.0171103
0.0162367
0.0153903
0.0145688
0.013769
0.012988
0.0122228
0.0114709
0.0107293
0.00999632
0.00927082
0.00855414
0.00784723
0.0071577
0.00649201
0.00586217
0.00528463
0.00477215
0.00433384
0.00397405
0.00371144
0.0036507
0.0453035
0.0438577
0.042444
0.0410595
0.0397034
0.0383752
0.0370728
0.0357958
0.0345467
0.0333276
0.0321417
0.0309935
0.0298843
0.0288064
0.02775
0.0267119
0.0256942
0.024699
0.0237286
0.0227847
0.0218693
0.0209823
0.0201249
0.0192971
0.0184996
0.0177325
0.0169962
0.0162899
0.0156153
0.0149715
0.0143579
0.0137767
0.0132274
0.0127111
0.0122276
0.0117812
0.0113733
0.0110099
0.0106965
0.0104495
0.010309
0.0103542
0.0106602
0.0472308
0.0459494
0.0446895
0.0434506
0.0422323
0.0410342
0.0398565
0.0386985
0.0375611
0.0364446
0.0353498
0.0342768
0.033226
0.0321961
0.0311857
0.0301931
0.0292198
0.0282656
0.0273313
0.0264185
0.0255286
0.024662
0.0238212
0.0230051
0.0222166
0.0214559
0.0207251
0.0200259
0.0193601
0.0187303
0.0181402
0.017592
0.0170901
0.0166404
0.0162483
0.0159187
0.01566
0.0154804
0.0153894
0.0153965
0.015511
0.0157404
0.0160846
0.0489931
0.0478531
0.0467302
0.0456225
0.0445301
0.0434529
0.0423914
0.041345
0.0403142
0.0392991
0.0383002
0.0373174
0.0363505
0.0353999
0.0344643
0.0335449
0.0326409
0.031753
0.0308818
0.030028
0.0291937
0.0283797
0.0275868
0.0268172
0.0260719
0.0253533
0.0246631
0.0240036
0.0233775
0.0227871
0.0222361
0.0217291
0.0212708
0.0208649
0.0205183
0.0202371
0.0200274
0.019897
0.019852
0.0198989
0.020042
0.0202844
0.0206259
0.0505887
0.0495755
0.0485725
0.04758
0.0465981
0.045627
0.0446671
0.0437182
0.042781
0.0418558
0.0409422
0.0400411
0.0391519
0.0382752
0.0374109
0.0365595
0.0357209
0.0348951
0.0340829
0.0332851
0.0325027
0.031737
0.0309898
0.0302622
0.0295573
0.0288764
0.0282217
0.0275962
0.0270024
0.0264436
0.0259227
0.0254453
0.0250147
0.0246358
0.0243158
0.0240583
0.023871
0.0237603
0.0237312
0.0237886
0.0239372
0.0241784
0.024512
0.0520349
0.0511303
0.0502311
0.0493384
0.0484521
0.0475726
0.0467007
0.0458361
0.0449794
0.0441309
0.0432913
0.0424599
0.0416369
0.0408242
0.0400217
0.0392287
0.0384458
0.0376736
0.0369128
0.0361637
0.0354274
0.0347038
0.0339948
0.0333041
0.0326328
0.0319828
0.0313565
0.0307578
0.0301893
0.0296551
0.0291574
0.028701
0.0282903
0.0279299
0.0276263
0.0273841
0.0272102
0.0271097
0.0270881
0.0271494
0.0272978
0.0275355
0.0278625
0.0533457
0.0525324
0.0517223
0.0509163
0.0501132
0.049312
0.0485159
0.047724
0.0469364
0.0461531
0.0453758
0.044605
0.0438387
0.0430787
0.0423272
0.0415841
0.040849
0.0401219
0.0394035
0.0386957
0.0379993
0.0373137
0.0366385
0.0359772
0.0353349
0.034711
0.0341086
0.0335307
0.0329811
0.0324654
0.0319863
0.0315473
0.0311512
0.0308046
0.030512
0.0302808
0.0301156
0.0300221
0.0300046
0.0300674
0.0302149
0.0304489
0.0307703
0.0545301
0.0537957
0.0530624
0.0523307
0.0516033
0.0508662
0.0501364
0.0494064
0.0486797
0.0479524
0.0472255
0.0465077
0.0457922
0.0450739
0.0443642
0.0436624
0.0429681
0.0422798
0.0415963
0.0409212
0.0402586
0.0396082
0.0389662
0.0383276
0.0377087
0.0371097
0.0365269
0.0359697
0.0354303
0.0349281
0.0344632
0.0340386
0.0336569
0.0333199
0.0330344
0.0328111
0.0326528
0.0325646
0.0325501
0.0326155
0.0327598
0.0329898
0.0333056
0.0556011
0.0549309
0.0542647
0.0535926
0.0529498
0.0522539
0.0515832
0.0509013
0.0502298
0.049559
0.0488624
0.0481855
0.0475237
0.046841
0.0461652
0.0454936
0.0448314
0.0441776
0.0435282
0.0428751
0.0422365
0.0416145
0.0410217
0.0403977
0.0397917
0.0392215
0.0386432
0.0381245
0.0375856
0.037092
0.0366363
0.0362214
0.0358534
0.0355322
0.0352447
0.0350294
0.0348746
0.034795
0.0347786
0.0348521
0.0349878
0.0352186
0.0355188
0.00440216
0.005761
0.00676679
0.00781183
0.00892759
0.0101034
0.0113263
0.0125873
0.0138777
0.0151915
0.016526
0.017878
0.019247
0.0206307
0.0220294
0.0234399
0.0248644
0.0263
0.0277485
0.0292087
0.0306808
0.0321645
0.0336596
0.0351663
0.0366843
0.0382132
0.039753
0.0413036
0.0428642
0.0444348
0.0460148
0.0476039
0.0492017
0.0508074
0.0524206
0.0540409
0.0556673
0.0572993
0.0589359
0.0605764
0.0622195
0.0638647
0.0655105
0.0111534
0.0117998
0.0125573
0.0134174
0.014372
0.0154058
0.0165072
0.0176635
0.0188636
0.0200994
0.0213644
0.0226524
0.0239586
0.0252794
0.0266139
0.0279598
0.0293144
0.030679
0.0320508
0.0334301
0.0348161
0.0362085
0.0376072
0.0390117
0.0404222
0.0418383
0.0432596
0.0446863
0.0461182
0.0475548
0.0489962
0.0504423
0.0518927
0.0533471
0.0548052
0.0562671
0.0577322
0.0592002
0.0606707
0.0621429
0.0636168
0.0650915
0.0665646
0.0165391
0.0171018
0.0177725
0.0185435
0.0194042
0.0203443
0.0213524
0.0224176
0.0235314
0.0246848
0.0258684
0.0270784
0.0283091
0.0295568
0.0308169
0.0320882
0.033368
0.0346546
0.0359466
0.0372433
0.0385437
0.0398474
0.0411537
0.0424624
0.0437732
0.0450856
0.0463996
0.0477149
0.0490315
0.0503494
0.0516684
0.0529885
0.0543094
0.0556312
0.0569541
0.0582777
0.0596019
0.0609267
0.062252
0.0635772
0.0649025
0.0662271
0.0675503
0.0210623
0.0215959
0.0222261
0.022949
0.0237552
0.0246361
0.0255829
0.0265858
0.0276355
0.0287251
0.0298467
0.0309936
0.0321612
0.0333453
0.0345421
0.0357474
0.0369607
0.0381786
0.0394
0.0406235
0.0418484
0.0430739
0.044299
0.0455237
0.0467473
0.0479696
0.0491903
0.050409
0.0516257
0.0528407
0.0540536
0.0552644
0.0564734
0.0576804
0.058886
0.0600899
0.061292
0.0624924
0.0636912
0.0648882
0.0660836
0.0672774
0.06847
0.0249362
0.0254515
0.0260576
0.0267484
0.0275186
0.0283596
0.0292628
0.0302198
0.0312223
0.0322629
0.033334
0.0344307
0.0355463
0.0366772
0.0378193
0.0389696
0.0401251
0.041284
0.0424441
0.0436046
0.0447643
0.0459221
0.0470775
0.04823
0.0493789
0.0505237
0.051664
0.0527999
0.0539309
0.0550571
0.0561786
0.0572953
0.0584076
0.0595159
0.0606204
0.061721
0.0628175
0.0639101
0.0649987
0.0660838
0.0671656
0.0682443
0.069321
0.0282777
0.0287801
0.0293679
0.0300369
0.0307806
0.0315914
0.0324623
0.0333842
0.0343502
0.0353519
0.0363836
0.0374382
0.0385113
0.0395977
0.040695
0.0417986
0.0429055
0.0440137
0.0451212
0.0462275
0.0473315
0.0484321
0.0495283
0.0506194
0.0517046
0.0527832
0.0538548
0.0549196
0.0559773
0.057027
0.0580696
0.0591054
0.0601349
0.0611585
0.0621763
0.0631877
0.0641929
0.0651918
0.0661848
0.0671722
0.0681544
0.069132
0.0701066
0.0311787
0.0316718
0.032246
0.032897
0.0336196
0.034408
0.0352526
0.0361471
0.0370838
0.0380548
0.0390526
0.0400731
0.0411105
0.0421605
0.0432195
0.044284
0.0453494
0.0464133
0.0474755
0.0485355
0.0495927
0.0506449
0.0516912
0.0527303
0.0537612
0.0547828
0.0557954
0.0568
0.0577945
0.0587778
0.0597519
0.0607182
0.0616771
0.0626284
0.0635716
0.0645059
0.0654321
0.0663497
0.0672591
0.0681612
0.0690564
0.0699453
0.0708302
0.0337109
0.0341973
0.0347625
0.035395
0.0361012
0.0368717
0.0376948
0.0385664
0.03948
0.0404258
0.0413945
0.0423848
0.0433931
0.0444129
0.0454409
0.0464714
0.0475002
0.0485246
0.0495472
0.0505682
0.0515875
0.0525979
0.0536028
0.0545984
0.0555814
0.0565533
0.0575154
0.0584718
0.0594095
0.0603332
0.0612482
0.0621555
0.0630544
0.0639444
0.064823
0.0656896
0.0665488
0.067395
0.0682307
0.0690583
0.0698776
0.0706889
0.0714937
0.0359306
0.0364102
0.0369717
0.0375765
0.0382709
0.0390312
0.0398311
0.0406843
0.0415793
0.0425055
0.0434432
0.0444091
0.0453927
0.0463879
0.0473907
0.0483915
0.0493866
0.0503731
0.0513651
0.0523542
0.0533484
0.0543169
0.0552946
0.0562505
0.0571896
0.0581204
0.0590403
0.0599673
0.0608399
0.0617105
0.0625768
0.0634355
0.0642836
0.0651242
0.065946
0.0667503
0.0675569
0.0683363
0.0691079
0.0698714
0.0706253
0.0713705
0.072105
0.0868619
0.0825494
0.0783752
0.0743397
0.0704425
0.0666819
0.0630569
0.0595658
0.0562055
0.0529729
0.0498662
0.0468818
0.044017
0.0412682
0.0386332
0.0361084
0.0336904
0.0313761
0.0291641
0.0270491
0.0250295
0.0231023
0.0212653
0.0195149
0.01785
0.0162662
0.0147625
0.0133375
0.0119887
0.0107136
0.00951158
0.00838052
0.00732046
0.00633021
0.00540903
0.0045575
0.00377578
0.00306541
0.00242714
0.00186896
0.00143838
0.00103322
0.000603764
0.08848
0.0844872
0.080608
0.0768416
0.0731888
0.0696483
0.0662188
0.062899
0.0596863
0.0565792
0.0535756
0.0506732
0.0478706
0.0451647
0.0425532
0.0400341
0.0376053
0.0352656
0.0330115
0.0308421
0.0287549
0.0267482
0.0248197
0.0229694
0.0211941
0.0194931
0.0178657
0.01631
0.0148251
0.0134109
0.0120664
0.0107923
0.00958805
0.00845486
0.00739354
0.00640608
0.00549625
0.00467225
0.00397018
0.00329906
0.00263002
0.00191845
0.00109786
0.0900811
0.0863823
0.0827768
0.0792635
0.0758419
0.0725113
0.0692712
0.0661195
0.0630548
0.0600757
0.0571804
0.0543679
0.0516368
0.0489852
0.0464111
0.0439136
0.0414911
0.0391421
0.0368658
0.0346604
0.0325258
0.0304594
0.028461
0.0265308
0.0246671
0.0228693
0.0211375
0.0194709
0.0178703
0.0163356
0.0148677
0.0134671
0.0121366
0.0108782
0.00969525
0.00859683
0.00760192
0.00668098
0.00577062
0.00484131
0.00385795
0.00275286
0.00151554
0.0916531
0.088222
0.0848683
0.0815886
0.0783819
0.0752473
0.0721847
0.0691919
0.0662685
0.0634131
0.0606241
0.0579014
0.0552442
0.0526505
0.0501199
0.0476508
0.0452428
0.0428953
0.0406075
0.038379
0.0362092
0.0340971
0.0320443
0.0300498
0.0281133
0.0262356
0.0244174
0.0226592
0.0209617
0.0193266
0.0177558
0.0162511
0.0148174
0.0134582
0.0121845
0.0110146
0.00987627
0.00873655
0.00756906
0.00634388
0.00501771
0.0035103
0.00187941
0.0931766
0.0899934
0.086872
0.0838086
0.0808007
0.0778483
0.0749505
0.0721066
0.0693161
0.0665777
0.0638912
0.0612559
0.0586711
0.0561367
0.0536509
0.0512135
0.0488254
0.046486
0.0441946
0.0419517
0.0397565
0.0376095
0.0355127
0.0334659
0.0314698
0.0295261
0.0276371
0.0258024
0.0240252
0.0223087
0.0206543
0.0190675
0.0175546
0.0161298
0.0147706
0.0134317
0.0120853
0.0107087
0.00927503
0.00775132
0.0060849
0.00419431
0.00220125
0.0946289
0.0916854
0.0887817
0.0859175
0.0830931
0.0803082
0.0775633
0.0748576
0.0721907
0.0695626
0.0669728
0.064421
0.0619067
0.0594296
0.0569895
0.0545863
0.0522205
0.0498925
0.0476031
0.0453521
0.0431395
0.0409667
0.0388342
0.0367437
0.0346982
0.0327005
0.0307517
0.0288552
0.0270139
0.0252313
0.023512
0.0218643
0.0202928
0.0187633
0.0172473
0.0157204
0.0141623
0.0125506
0.0108575
0.00904583
0.00705685
0.00481155
0.00248843
0.0960382
0.0933017
0.0905936
0.0879119
0.0852559
0.082625
0.0800206
0.0774425
0.0748904
0.0723648
0.0698654
0.0673924
0.064945
0.0625237
0.0601287
0.0577599
0.0554174
0.0531031
0.0508187
0.0485656
0.0463427
0.0441507
0.0419899
0.0398632
0.0377752
0.0357301
0.0337331
0.0317866
0.029894
0.0280595
0.0262913
0.0245821
0.0229047
0.0212361
0.019556
0.0178451
0.0160834
0.0142472
0.0123081
0.010226
0.00793717
0.0053648
0.00274422
0.0973725
0.094832
0.0923049
0.0897906
0.0872896
0.0847975
0.0823224
0.0798625
0.0774162
0.0749846
0.0725684
0.0701699
0.0677861
0.0654161
0.063066
0.0607333
0.0584155
0.056113
0.0538348
0.0515825
0.049356
0.047154
0.0449729
0.0428143
0.0406877
0.0386004
0.0365609
0.0345751
0.032644
0.0307651
0.0289303
0.0271254
0.0253276
0.0235198
0.021683
0.0197977
0.0178435
0.0157972
0.013627
0.011298
0.00874071
0.0058661
0.00296648
0.09866
0.0962773
0.0939156
0.0915522
0.0891982
0.086826
0.084469
0.0821212
0.0797709
0.0774265
0.0750831
0.0727556
0.0704371
0.0681092
0.0658019
0.0635069
0.06122
0.0589245
0.0566497
0.0543982
0.052171
0.0499712
0.0477832
0.0455961
0.0434323
0.041302
0.0392208
0.0372013
0.0352358
0.0332982
0.0313754
0.0294667
0.0275484
0.0256114
0.0236315
0.0215812
0.0194448
0.0172037
0.0148166
0.0122604
0.00950469
0.00640937
0.00326242
0.00046676
0.000526888
0.000704462
0.00087342
0.00104563
0.00123503
0.00145718
0.00172702
0.00203608
0.00237695
0.00274695
0.0031442
0.00356844
0.0040193
0.00449699
0.005002
0.00553457
0.00609534
0.00668488
0.00730387
0.00795263
0.00863181
0.00934215
0.0100844
0.0108591
0.0116673
0.0125091
0.0133862
0.0142986
0.0152476
0.0162339
0.0172584
0.0183219
0.019425
0.0205687
0.0217544
0.0229822
0.0242536
0.0255695
0.0269316
0.0283418
0.0298015
0.0313105
0.000627051
0.000678984
0.000869547
0.00106916
0.00129108
0.00154761
0.00184491
0.00218479
0.00256206
0.00296704
0.00339814
0.00385436
0.00433497
0.00484012
0.00536929
0.005923
0.00650105
0.00710392
0.00773164
0.00838479
0.00906337
0.00976796
0.0104989
0.0112567
0.0120419
0.012855
0.0136967
0.0145675
0.0154681
0.0163991
0.0173612
0.0183551
0.0193814
0.0204408
0.021534
0.0226621
0.0238259
0.025026
0.0262637
0.0275401
0.028856
0.0302106
0.0316037
0.000786467
0.00082836
0.0010486
0.00129622
0.00158142
0.00190807
0.00227401
0.00267844
0.00311691
0.0035808
0.00406851
0.00457908
0.00511213
0.005667
0.00624347
0.00684153
0.00746089
0.00810168
0.00876366
0.00944691
0.010152
0.0108787
0.0116273
0.012398
0.0131916
0.0140081
0.0148476
0.0157112
0.016599
0.0175113
0.018449
0.0194124
0.0204021
0.0214186
0.0224627
0.023535
0.0246364
0.0257673
0.0269284
0.0281204
0.029343
0.0305953
0.0318762
0.000935254
0.000977452
0.00124096
0.00154572
0.00189511
0.00228543
0.00271152
0.00317589
0.00366925
0.00418603
0.00472478
0.0052843
0.00586418
0.00646376
0.0070823
0.00771968
0.00837527
0.00904923
0.00974118
0.0104507
0.0111782
0.0119235
0.0126867
0.0134677
0.0142672
0.015085
0.0159213
0.0167767
0.0176513
0.0185454
0.0194594
0.0203939
0.0213491
0.0223257
0.0233238
0.0243441
0.0253872
0.0264534
0.0275429
0.0286559
0.0297919
0.0309497
0.0321289
0.00107389
0.00112995
0.00144443
0.00180734
0.00221596
0.00266263
0.00314347
0.00366123
0.00420411
0.0047687
0.00535338
0.0059571
0.00657911
0.00721835
0.00787411
0.00854623
0.00923387
0.0099367
0.0106544
0.0113867
0.0121332
0.012894
0.0136692
0.0144585
0.0152622
0.0160801
0.0169123
0.0177592
0.0186211
0.0194978
0.0203896
0.0212969
0.0222201
0.0231594
0.0241151
0.0250874
0.0260768
0.0270833
0.0281067
0.0291471
0.0302037
0.031276
0.0323636
0.00120543
0.00128628
0.00165374
0.0020715
0.00253326
0.00303032
0.00356164
0.00412649
0.00471414
0.00532195
0.00594803
0.00659126
0.00725073
0.00792561
0.00861474
0.0093177
0.0100336
0.0107618
0.0115019
0.0122537
0.0130168
0.013791
0.014576
0.0153719
0.0161785
0.0169959
0.0178238
0.0186624
0.0195118
0.020372
0.0212431
0.0221253
0.0230189
0.0239239
0.0248405
0.0257686
0.0267082
0.0276596
0.0286226
0.0295968
0.0305816
0.0315769
0.0325829
0.00133189
0.00144429
0.00186355
0.00233131
0.00283991
0.00338178
0.00396013
0.00456728
0.0051952
0.00584186
0.00650538
0.00718431
0.00787768
0.00858428
0.00930319
0.0100335
0.0107745
0.0115252
0.0122852
0.0130542
0.0138317
0.0146173
0.015411
0.0162124
0.017021
0.017837
0.0186605
0.0194912
0.020329
0.0211736
0.022025
0.0228839
0.0237501
0.0246236
0.0255043
0.0263916
0.0272856
0.0281865
0.0290943
0.0300082
0.0309283
0.0318546
0.0327881
0.00145362
0.00160567
0.00207074
0.00258201
0.00313242
0.00371582
0.00433614
0.00498131
0.00564574
0.00632734
0.00702451
0.00773602
0.00846087
0.00919719
0.00994275
0.0106974
0.0114607
0.0122317
0.0130092
0.0137935
0.0145837
0.0153797
0.016181
0.0169867
0.0177961
0.0186103
0.0194298
0.0202536
0.0210801
0.0219087
0.0227408
0.0235778
0.0244197
0.0252648
0.0261125
0.0269615
0.0278129
0.0286678
0.0295254
0.030385
0.0312466
0.0321109
0.0329808
0.00157989
0.00174199
0.00225792
0.00281801
0.00340944
0.00403081
0.00468633
0.0053656
0.00606568
0.00678229
0.00751281
0.00826436
0.00902789
0.00978981
0.0105526
0.0113277
0.0121091
0.0128956
0.0136882
0.0144849
0.0152862
0.0160921
0.0169004
0.0177072
0.0185125
0.0193236
0.0201428
0.0209637
0.0217745
0.0225814
0.023394
0.0242118
0.025035
0.0258555
0.0266731
0.0274827
0.0282928
0.0291071
0.0299195
0.0307296
0.0315378
0.0323435
0.0331528
0.000124505
0.00047236
0.00106871
0.00174215
0.0024101
0.0030717
0.0037229
0.00436804
0.00501482
0.00566826
0.00633231
0.00701029
0.00770376
0.00841179
0.00913319
0.00986831
0.0106173
0.0113815
0.0121624
0.0129625
0.0137848
0.0146323
0.0155083
0.0164162
0.017359
0.0183392
0.0193593
0.0204203
0.0215228
0.022666
0.0238491
0.0250721
0.026336
0.027642
0.0289906
0.0303805
0.0318076
0.0332665
0.0347544
0.0362748
0.0378385
0.0394661
0.0411573
6.93112e-05
0.000261406
0.000568438
0.00099606
0.00154175
0.0022125
0.0029117
0.00361561
0.00432574
0.0050369
0.00574129
0.00643483
0.00711794
0.00779504
0.00847089
0.00914973
0.00983462
0.0105285
0.0112339
0.0119547
0.0126943
0.0134563
0.0142449
0.0150645
0.0159194
0.0168141
0.0177522
0.0187369
0.0197711
0.0208556
0.0219911
0.0231778
0.024415
0.0257026
0.0270403
0.0284271
0.0298592
0.0313325
0.0328427
0.0343881
0.0359729
0.0376064
0.0392944
4.24326e-05
0.000198139
0.000387817
0.000680235
0.00105886
0.00152942
0.00209284
0.00274888
0.00350122
0.00431807
0.00512286
0.0059102
0.0066795
0.00743276
0.0081708
0.00889357
0.00960406
0.0103047
0.0109985
0.0116895
0.0123818
0.01308
0.0137899
0.0145174
0.0152692
0.0160521
0.0168728
0.0177378
0.0186534
0.0196241
0.0206535
0.0217445
0.0228981
0.0241148
0.0253944
0.0267351
0.0281344
0.029588
0.031091
0.0326397
0.0342336
0.035875
0.037567
4.19437e-05
0.000175011
0.000347707
0.000593369
0.000905659
0.00129049
0.00175311
0.00229629
0.0029241
0.00364074
0.00444973
0.0052919
0.0061313
0.006959
0.00777217
0.00857039
0.00935334
0.0101206
0.0108721
0.0116082
0.0123303
0.0130405
0.0137422
0.0144404
0.0151409
0.0158514
0.0165799
0.0173358
0.0181287
0.0189675
0.019861
0.0208167
0.0218403
0.0229365
0.0241072
0.0253533
0.0266733
0.0280642
0.0295216
0.0310405
0.0326172
0.0342501
0.035941
3.93089e-05
0.000172447
0.000312663
0.000529881
0.000804916
0.00114084
0.00154298
0.00201595
0.00256233
0.00318558
0.00388929
0.00467783
0.00554716
0.00643225
0.00730981
0.00817411
0.00902354
0.00985783
0.0106762
0.0114778
0.0122621
0.0130282
0.0137761
0.0145069
0.0152231
0.0159286
0.0166292
0.0173327
0.0180488
0.0187882
0.0195627
0.0203845
0.021265
0.0222143
0.0232408
0.0243503
0.025546
0.0268281
0.0281949
0.0296416
0.0311641
0.0327583
0.0344209
3.8609e-05
0.000165508
0.000294519
0.000491274
0.000740871
0.00104439
0.00140601
0.00183099
0.00232201
0.00288238
0.00351609
0.00422786
0.00502166
0.00589967
0.00681445
0.00772999
0.0086358
0.00952896
0.0104078
0.0112718
0.0121193
0.012949
0.013759
0.0145486
0.0153169
0.0160641
0.0167917
0.0175035
0.0182053
0.0189053
0.0196137
0.0203434
0.0211082
0.0219231
0.022802
0.0237577
0.0248005
0.0259372
0.0271712
0.0285027
0.0299292
0.0314473
0.0330587
3.77823e-05
0.00016291
0.000283119
0.000461388
0.000692167
0.00097233
0.00130485
0.0016942
0.00214484
0.0026592
0.00324076
0.00389361
0.00462214
0.00543102
0.00632356
0.0072653
0.00821491
0.00915781
0.0100895
0.0110084
0.0119129
0.0128015
0.0136723
0.0145234
0.0153528
0.0161587
0.01694
0.0176965
0.0184298
0.0191433
0.0198431
0.0205383
0.0212408
0.0219651
0.0227278
0.0235461
0.0244368
0.0254143
0.0264903
0.0276722
0.0289632
0.0303637
0.0318702
3.73895e-05
0.000160468
0.000275639
0.000439107
0.000655066
0.000917141
0.00122733
0.00158957
0.00200864
0.00248707
0.00302797
0.00363512
0.00431286
0.00506532
0.00589766
0.00681302
0.00778112
0.00876127
0.00973738
0.010704
0.0116586
0.0126
0.0135261
0.0144345
0.015323
0.0161892
0.0170308
0.0178456
0.0186322
0.0193903
0.0201216
0.0208303
0.0215233
0.0222114
0.0229086
0.023632
0.024401
0.0252351
0.0261532
0.0271715
0.0283018
0.0295517
0.0309223
3.70224e-05
0.000158928
0.000270465
0.000421321
0.000625161
0.000872674
0.00116521
0.00150617
0.00189973
0.00234944
0.00285783
0.00342846
0.00406493
0.0047717
0.00555361
0.00641527
0.00735943
0.00835532
0.00936477
0.0103715
0.0113702
0.0123584
0.0133334
0.0142936
0.0152366
0.0161595
0.0170597
0.0179344
0.0187804
0.0195957
0.0203787
0.0211297
0.021851
0.0225479
0.0232297
0.0239091
0.0246034
0.0253327
0.0261192
0.0269855
0.0279517
0.0290345
0.0302456
3.67337e-05
0.000157614
0.000266359
0.000407517
0.000600869
0.00083633
0.00111437
0.00143784
0.00181052
0.00223646
0.00271809
0.00325859
0.00386119
0.00453019
0.00527025
0.00608597
0.00698245
0.00795977
0.00898423
0.010022
0.0110583
0.0120871
0.0131059
0.0141124
0.0151045
0.0160793
0.0170339
0.0179652
0.01887
0.0197447
0.0205864
0.0213929
0.0221629
0.0228977
0.023601
0.0242803
0.0249478
0.0256199
0.0263173
0.0270643
0.0278859
0.0288062
0.0298428
3.65415e-05
0.000156696
0.000263332
0.00039717
0.000580815
0.000806014
0.00107194
0.00138102
0.00173649
0.00214213
0.00260122
0.00311625
0.00369051
0.00432794
0.00503273
0.00580948
0.0066633
0.00759847
0.00861145
0.00966561
0.0107311
0.0117952
0.0128528
0.0139009
0.014937
0.0159586
0.0169627
0.0179463
0.0189062
0.0198385
0.0207392
0.0216047
0.0224321
0.0232195
0.0239667
0.0246764
0.0253549
0.0260131
0.0266671
0.0273383
0.0280515
0.0288338
0.029708
3.64085e-05
0.000156069
0.000261121
0.000389578
0.000563988
0.000780331
0.00103595
0.00133263
0.00167339
0.002062
0.00250195
0.00299536
0.0035454
0.00415573
0.00483049
0.00557409
0.00639103
0.00728608
0.00826396
0.00931368
0.0103972
0.0114901
0.0125817
0.0136667
0.0147422
0.015806
0.0168553
0.0178869
0.0188974
0.0198833
0.0208403
0.021764
0.0226505
0.0234962
0.0242983
0.0250559
0.0257705
0.0264475
0.0270973
0.0277354
0.028383
0.0290657
0.0298099
3.63267e-05
0.00015564
0.000259432
0.000383873
0.000549682
0.000758189
0.00100485
0.00129095
0.00161927
0.00199316
0.00241644
0.00289131
0.0034206
0.00400743
0.00465618
0.00537107
0.006156
0.00701586
0.0079564
0.00898023
0.0100659
0.0111785
0.0122984
0.0134161
0.0145274
0.0156294
0.0167194
0.0177947
0.0188517
0.019887
0.0208965
0.0218754
0.0228194
0.0237241
0.0245849
0.0253986
0.0261637
0.0268808
0.0275548
0.0281952
0.0288172
0.0294419
0.0300956
3.62592e-05
0.000155366
0.000258064
0.000379254
0.000537456
0.000738991
0.000977808
0.00125475
0.00157231
0.00193366
0.00234214
0.00280078
0.00331199
0.00387865
0.00450459
0.00519418
0.0059513
0.00678071
0.00768784
0.00867712
0.00974681
0.0108673
0.0120084
0.0131543
0.0142977
0.0154345
0.0165618
0.0176767
0.0187764
0.0198572
0.0209151
0.0219457
0.0229441
0.0239058
0.0248254
0.025698
0.0265202
0.0272893
0.0280058
0.0286738
0.0293022
0.0299059
0.0305053
3.61806e-05
0.000155045
0.00025688
0.000375478
0.000526944
0.00072206
0.000953972
0.00122294
0.00153103
0.00188127
0.00227695
0.00272129
0.00321656
0.00376553
0.00437162
0.00503907
0.00577174
0.00657427
0.0074515
0.0084086
0.00944952
0.0105637
0.0117173
0.012886
0.0140576
0.015226
0.0163873
0.0175389
0.0186776
0.0198002
0.020903
0.0219814
0.023031
0.0240467
0.025023
0.0259544
0.0268357
0.0276625
0.028432
0.0291441
0.029802
0.0304133
0.0309923
3.61056e-05
0.00015474
0.000255864
0.000372241
0.000517922
0.000707157
0.000932849
0.00119461
0.00149427
0.00183465
0.00221906
0.00265074
0.00313187
0.00366506
0.00425362
0.00490158
0.0056127
0.00639136
0.00724227
0.00817055
0.00918129
0.0102752
0.0114304
0.0126153
0.0138109
0.0150076
0.0162003
0.0173853
0.0185603
0.0197216
0.0208657
0.0219888
0.0230861
0.0241527
0.025183
0.0261712
0.0271114
0.0279978
0.0288259
0.0295924
0.0302957
0.030937
0.0315196
3.60873e-05
0.000154574
0.00025503
0.000369573
0.00051034
0.000693889
0.000913877
0.0011692
0.00146148
0.00179322
0.00216749
0.00258773
0.00305621
0.00357536
0.00414828
0.00477886
0.00547082
0.0062282
0.00705569
0.00795837
0.00894107
0.0100081
0.011153
0.012346
0.0135607
0.0147825
0.0160038
0.0172201
0.0184284
0.0196256
0.0208084
0.0219729
0.0231146
0.0242289
0.0253103
0.0263528
0.0273503
0.0282966
0.0291857
0.0300125
0.0307733
0.0314646
0.0320713
3.60703e-05
0.000154475
0.000254356
0.0003673
0.000504036
0.000682079
0.000896752
0.00114617
0.00143169
0.00175568
0.00212092
0.00253074
0.00298787
0.00349445
0.00405351
0.00466857
0.0053431
0.00608127
0.00688791
0.0077675
0.00872482
0.00976527
0.0108903
0.0120819
0.0133097
0.0145528
0.0157997
0.017045
0.0182845
0.0195153
0.0207341
0.0219374
0.0231208
0.0242798
0.0254092
0.0265034
0.027556
0.0285605
0.0295104
0.0303997
0.0312221
0.0319714
0.0326327
3.6038e-05
0.000154328
0.000253676
0.000365295
0.000498704
0.000671308
0.000881052
0.00112514
0.00140444
0.00172122
0.00207822
0.00247867
0.00292551
0.00342071
0.00396716
0.00456807
0.00522707
0.00594799
0.00673571
0.00759432
0.00852868
0.00954442
0.0106456
0.0118265
0.0130602
0.0143199
0.0155897
0.0168615
0.0181303
0.0193924
0.0206449
0.0218845
0.023107
0.0243079
0.0254825
0.0266253
0.0277301
0.02879
0.0297983
0.0307477
0.0316302
0.0324364
0.0331537
3.60313e-05
0.000154248
0.000253138
0.000363614
0.000494145
0.000661599
0.000866703
0.00110579
0.00137947
0.00168964
0.00203915
0.00243108
0.00286842
0.00335307
0.00388794
0.00447607
0.00512079
0.00582623
0.0065965
0.00743604
0.00834947
0.0093424
0.0104199
0.0115828
0.0128145
0.0140855
0.0153746
0.0166705
0.0179665
0.0192581
0.0205423
0.0218158
0.0230748
0.0243151
0.0255321
0.0267205
0.027874
0.028986
0.0300492
0.0310555
0.031996
0.0328596
0.0336345
3.60168e-05
0.000154207
0.000252711
0.000362143
0.000490199
0.000652768
0.00085343
0.0010878
0.00135623
0.00166049
0.0020031
0.00238707
0.00281571
0.00329077
0.00381488
0.00439105
0.00502278
0.00571384
0.00646813
0.00729025
0.00818478
0.00915675
0.0102116
0.0113531
0.0125751
0.0138512
0.0151557
0.0164729
0.0177939
0.0191131
0.020427
0.0217323
0.0230255
0.0243028
0.0255595
0.0267903
0.0279894
0.02915
0.0302648
0.0313252
0.0323215
0.0332427
0.0340766
3.60376e-05
0.000154143
0.00025227
0.000360766
0.000486601
0.00064452
0.00084103
0.0010711
0.00133463
0.00163325
0.00196941
0.00234612
0.00276658
0.00323271
0.00374678
0.00431204
0.00493168
0.00560928
0.00634896
0.00715502
0.008032
0.0089847
0.0100185
0.0111382
0.0123442
0.0136191
0.0149343
0.0162696
0.0176131
0.0189579
0.0202997
0.021635
0.0229603
0.0242721
0.0255658
0.0268363
0.028078
0.0292843
0.0304475
0.0315593
0.0326098
0.0335878
0.0344814
3.60139e-05
0.000154009
0.000251805
0.000359488
0.000483368
0.000636998
0.000829528
0.00105544
0.00131422
0.00160761
0.0019379
0.00230778
0.00272044
0.00317811
0.00368305
0.00423812
0.00484645
0.00551167
0.0062378
0.00702878
0.00788918
0.00882407
0.00983821
0.0109368
0.0121238
0.0133908
0.0147113
0.016061
0.0174246
0.0187931
0.020161
0.0215245
0.0228802
0.0242242
0.0255525
0.0268604
0.0281419
0.0293911
0.0306002
0.0317609
0.0328638
0.0338978
0.0348511
3.60243e-05
0.000153955
0.000251437
0.000358368
0.00048047
0.000630161
0.000818771
0.00104066
0.00129508
0.00158357
0.00190817
0.00227158
0.00267692
0.00312681
0.0036232
0.00416871
0.00476645
0.0054201
0.00613347
0.00691043
0.00775541
0.0086734
0.00966912
0.010748
0.0119148
0.0131682
0.0144887
0.0158486
0.0172295
0.0186196
0.0200117
0.0214018
0.0227859
0.0241604
0.0255213
0.0268642
0.0281834
0.0294731
0.0307258
0.0319334
0.0330869
0.0341761
0.0351907
3.60246e-05
0.000153916
0.000251107
0.000357297
0.000477756
0.000623956
0.000808717
0.00102676
0.00127708
0.00156084
0.00188015
0.00223752
0.00263589
0.00307823
0.00356643
0.00410294
0.00469096
0.00533378
0.00603504
0.00679883
0.00762936
0.00853146
0.00951006
0.0105701
0.0117169
0.0129534
0.0142678
0.0156339
0.0170288
0.0184381
0.0198529
0.0212678
0.0226786
0.0240819
0.0254735
0.0268495
0.0282046
0.0295325
0.0308267
0.0320793
0.0332816
0.0344242
0.0354974
3.60312e-05
0.000153872
0.000250795
0.000356338
0.00047539
0.000618369
0.000799178
0.00101354
0.00125987
0.00153914
0.00185347
0.00220515
0.002597
0.00303221
0.0035127
0.00404071
0.00461933
0.00525181
0.0059417
0.00669299
0.00750995
0.00839726
0.00935962
0.0104019
0.0115297
0.0127472
0.0140508
0.0154181
0.0168236
0.0182495
0.0196849
0.021123
0.0225592
0.0239898
0.0254109
0.0268183
0.028207
0.0295716
0.0309052
0.0322006
0.0334495
0.0346426
0.0357696
3.60383e-05
0.000153836
0.00025051
0.000355467
0.000473223
0.000613271
0.000790259
0.0010011
0.00124362
0.00151867
0.00182809
0.00217423
0.00255998
0.00298854
0.00346163
0.0039816
0.00455126
0.00517391
0.00585301
0.00659259
0.00739676
0.00826993
0.00921673
0.0102423
0.0113517
0.0125504
0.0138394
0.0152031
0.0166155
0.0180553
0.0195092
0.020969
0.0224292
0.0238857
0.0253347
0.0267719
0.0281928
0.0295921
0.0309635
0.0322995
0.0335925
0.0348333
0.0360109
3.60484e-05
0.000153816
0.000250271
0.00035469
0.00047125
0.000608682
0.000781819
0.000989102
0.00122799
0.00149895
0.00180379
0.00214483
0.0025249
0.00294694
0.00341283
0.00392503
0.00448623
0.00509947
0.00576844
0.00649699
0.00728889
0.0081485
0.00908073
0.0100902
0.0111825
0.0123631
0.0136351
0.0149906
0.0164058
0.0178566
0.019327
0.0208068
0.0222895
0.0237707
0.025246
0.0267116
0.0281631
0.0295954
0.0310026
0.0323777
0.033713
0.0349999
0.0362289
3.60561e-05
0.000153793
0.000250053
0.000353971
0.000469429
0.000604475
0.000773836
0.000977752
0.00121307
0.00148017
0.00178067
0.00211673
0.0024912
0.00290699
0.00336604
0.00387077
0.00442404
0.00502857
0.00568775
0.00640556
0.00718582
0.00803269
0.00895083
0.0099453
0.0110213
0.0121842
0.0134383
0.0147818
0.0161958
0.0176543
0.0191389
0.020637
0.0221408
0.0236452
0.0251458
0.0266385
0.0281194
0.0295832
0.0310246
0.0324369
0.0338127
0.0351438
0.0364209
3.60684e-05
0.000153761
0.000249841
0.000353312
0.000467775
0.000600669
0.000766315
0.00096689
0.00119879
0.00146206
0.00175833
0.00208977
0.00245892
0.0028687
0.00332135
0.00381894
0.00436442
0.00496053
0.00561033
0.0063179
0.00708708
0.00792182
0.00882686
0.00980696
0.0108671
0.0120128
0.0132493
0.0145781
0.0159867
0.0174497
0.0189458
0.0204604
0.0219841
0.0235105
0.0250349
0.0265537
0.0280626
0.0295567
0.0310308
0.0324786
0.0338928
0.0352656
0.0365874
3.60776e-05
0.000153764
0.000249671