/*--------------------------------*- C++ -*----------------------------------*\
| =========                 |                                                 |
| \\      /  F ield         | OpenFOAM: The Open Source CFD Toolbox           |
|  \\    /   O peration     | Version:  2.3.0                                 |
|   \\  /    A nd           | Web:      www.OpenFOAM.org                      |
|    \\/     M anipulation  |                                                 |
\*---------------------------------------------------------------------------*/
FoamFile
{
    version     2.0;
    format      ascii;
    class       surfaceScalarField;
    location    "5000";
    object      phi;
}
// * * * * * * * * * * * * * * * * * * * * * * * * * * * * * * * * * * * * * //

dimensions      [0 3 -1 0 0 0 0];

internalField   nonuniform List<scalar> 
76410
(
-0.0067166
-0.00494851
0.0054377
0.0062274
-0.00716579
-0.00472146
0.00517065
-0.00757425
-0.0045071
0.00491555
-0.00794316
-0.00429868
0.00466759
-0.008274
-0.00409962
0.00443046
-0.00857011
-0.00390885
0.00420497
-0.00882935
-0.00372429
0.00398353
-0.00905846
-0.00354616
0.00377527
-0.00925474
-0.00337508
0.00357137
-0.00942189
-0.00321016
0.00337731
-0.00955702
-0.00305401
0.00318915
-0.0096635
-0.00290023
0.00300671
-0.00974193
-0.00275481
0.00283323
-0.00979577
-0.00260967
0.00266351
-0.00982162
-0.00247465
0.00250049
-0.00982307
-0.00234116
0.00234261
-0.00980018
-0.00221406
0.00219118
-0.00974982
-0.00208998
0.00203961
-0.00967855
-0.00197039
0.00189912
-0.00958332
-0.00185359
0.00175836
-0.00946428
-0.00174274
0.0016237
-0.00932658
-0.00163105
0.00149335
-0.0091626
-0.00152848
0.00136449
-0.00898413
-0.00142159
0.00124312
-0.00878553
-0.00132178
0.00112319
-0.00856967
-0.00122379
0.00100794
-0.00833774
-0.00112828
0.000896353
-0.00809337
-0.00103377
0.0007894
-0.00783931
-0.000939659
0.000685591
-0.0075771
-0.000851188
0.00058898
-0.00731192
-0.000759003
0.000493829
-0.00704787
-0.000668668
0.000404611
-0.00678822
-0.000581329
0.000321677
-0.00653869
-0.00049001
0.00024048
-0.00630746
-0.000398152
0.000166926
-0.00610021
-0.000307035
9.97835e-05
-0.00592745
-0.000210441
3.7679e-05
-0.00579182
-0.000116456
-1.91761e-05
-0.0057076
-1.74228e-05
-6.67976e-05
-0.00568164
8.18094e-05
-0.000107771
-0.00572307
0.000183539
-0.000142111
-0.00583067
0.00027498
-0.00016738
0.000365337
-0.00606762
-0.000128387
-0.00606141
-0.00450892
0.00562182
-0.00646015
-0.00432272
-0.00682514
-0.00414211
-0.00715378
-0.00397004
-0.00745196
-0.00380144
-0.00771981
-0.003641
-0.00795541
-0.00348869
-0.00816446
-0.00333711
-0.00834711
-0.00319243
-0.00850088
-0.00305639
-0.00863488
-0.00292002
-0.00874458
-0.00279053
-0.00883369
-0.0026657
-0.00889791
-0.00254545
-0.00894446
-0.00242809
-0.00897219
-0.00231343
-0.00898328
-0.00220298
-0.00897831
-0.00209494
-0.00895448
-0.00199421
-0.00891912
-0.00188895
-0.00886956
-0.0017923
-0.00880813
-0.00169248
-0.00873708
-0.00159953
-0.00865244
-0.00150623
-0.00856126
-0.00141296
-0.00846106
-0.00132399
-0.00835632
-0.00123302
-0.00824367
-0.00114642
-0.00812629
-0.00105704
-0.00800585
-0.000971626
-0.00788038
-0.00088448
-0.00775061
-0.000798437
-0.00762214
-0.000709801
-0.00748745
-0.000624698
-0.00734743
-0.000538174
-0.00720209
-0.000452368
-0.00704583
-0.000366708
-0.00687959
-0.000282694
-0.00669591
-0.000201102
-0.00649305
-0.000121054
-0.00625901
-5.04991e-05
-0.00599941
1.53799e-05
6.44274e-05
-0.0056985
-0.00546993
-0.00412053
0.00508154
-0.00582441
-0.00396824
-0.00614828
-0.00381824
-0.00644171
-0.00367661
-0.0067041
-0.00353905
-0.0069421
-0.003403
-0.00715385
-0.00327693
-0.00733876
-0.00315221
-0.00749911
-0.00303207
-0.00764024
-0.00291526
-0.00775749
-0.00280277
-0.00785371
-0.00269431
-0.00793065
-0.00258876
-0.00799235
-0.00248376
-0.00803416
-0.00238628
-0.00806008
-0.0022875
-0.00807034
-0.00219272
-0.00806551
-0.00209978
-0.00804933
-0.0020104
-0.00801886
-0.00191943
-0.0079778
-0.00183336
-0.00792304
-0.00174723
-0.00786038
-0.00166219
-0.0077863
-0.0015803
-0.00770172
-0.00149754
-0.00761145
-0.00141426
-0.00750941
-0.00133506
-0.00740425
-0.00125158
-0.00728942
-0.00117187
-0.00716969
-0.00109135
-0.0070435
-0.00101068
-0.00691352
-0.000928419
-0.00677537
-0.000847951
-0.00663459
-0.000765468
-0.00648903
-0.000683736
-0.00633638
-0.000605017
-0.00617788
-0.000525207
-0.00601332
-0.000447257
-0.00584043
-0.000373996
-0.00565801
-0.00030347
-0.00546653
-0.000241984
-0.00526351
-0.000187642
-0.000144524
-0.00505455
-0.0049344
-0.00377671
0.00459057
-0.00525326
-0.00364937
-0.00553862
-0.00353288
-0.00580266
-0.00341256
-0.00603779
-0.00330392
-0.00624813
-0.00319267
-0.00643695
-0.00308811
-0.00660174
-0.00298742
-0.00674584
-0.00288797
-0.0068689
-0.0027922
-0.00697426
-0.00269742
-0.00706083
-0.00260773
-0.0071323
-0.00251729
-0.00718249
-0.00243357
-0.00722033
-0.00234844
-0.00724584
-0.00226199
-0.00725478
-0.00218378
-0.0072507
-0.00210385
-0.00723402
-0.00202708
-0.00720504
-0.00194841
-0.00716579
-0.00187261
-0.00711834
-0.00179469
-0.00705783
-0.0017227
-0.00699137
-0.00164676
-0.00691577
-0.00157314
-0.00683131
-0.00149872
-0.00674149
-0.00142488
-0.00664328
-0.00134979
-0.00653832
-0.00127683
-0.00642677
-0.00120291
-0.00631165
-0.00112579
-0.00618929
-0.00105078
-0.00605927
-0.000977978
-0.00592553
-0.000899202
-0.00578361
-0.000825663
-0.00563766
-0.000750961
-0.00548572
-0.000677145
-0.00532783
-0.000605149
-0.00516489
-0.00053694
-0.00499473
-0.000473629
-0.0048217
-0.000415014
-0.00464629
-0.000363054
-0.000320669
-0.00447014
-0.00445398
-0.00346545
0.00414272
-0.00473646
-0.00336689
-0.0049953
-0.00327404
-0.00522754
-0.00318032
-0.00543878
-0.00309268
-0.00562748
-0.00300397
-0.00579308
-0.00292251
-0.00594197
-0.00283853
-0.00607158
-0.00275836
-0.00618371
-0.00268007
-0.00627608
-0.00260505
-0.00635315
-0.00253066
-0.00641254
-0.0024579
-0.00646119
-0.00238492
-0.00649462
-0.00231501
-0.00651132
-0.00224529
-0.0065182
-0.00217689
-0.00651399
-0.00210806
-0.00649907
-0.002042
-0.00647361
-0.00197387
-0.00643793
-0.0019083
-0.00638903
-0.00184358
-0.0063338
-0.00177793
-0.00627078
-0.00170979
-0.0062018
-0.00164212
-0.00612226
-0.00157826
-0.00603727
-0.00150987
-0.00594365
-0.00144341
-0.00584642
-0.00137407
-0.00574273
-0.00130659
-0.00563222
-0.0012363
-0.00551847
-0.00116453
-0.00539992
-0.00109652
-0.00527477
-0.00102436
-0.00514675
-0.000953676
-0.00501338
-0.000884334
-0.00487639
-0.000814131
-0.00473496
-0.000746585
-0.00458861
-0.000683288
-0.00444031
-0.000621933
-0.00428913
-0.000566194
-0.00413517
-0.000517007
-0.000473728
-0.00398211
-0.00402115
-0.00318871
0.00374442
-0.00427352
-0.00311453
-0.00450503
-0.00304253
-0.00471401
-0.00297133
-0.00490271
-0.00290399
-0.00507186
-0.00283482
-0.00522338
-0.002771
-0.00535598
-0.00270593
-0.00547033
-0.00264401
-0.00556808
-0.00258231
-0.00565427
-0.00251887
-0.00572155
-0.00246338
-0.0057783
-0.00240115
-0.00581956
-0.00234366
-0.00584903
-0.00228554
-0.00586583
-0.00222849
-0.00587149
-0.00217124
-0.00586641
-0.00211314
-0.00585076
-0.00205764
-0.00582488
-0.00199975
-0.00579057
-0.00194261
-0.00574804
-0.00188611
-0.00569901
-0.00182695
-0.00564083
-0.00176797
-0.00557367
-0.00170929
-0.00550067
-0.00165125
-0.00542361
-0.00158694
-0.00533807
-0.00152895
-0.00524885
-0.00146328
-0.00515329
-0.00140215
-0.00505412
-0.00133547
-0.00494675
-0.0012719
-0.0048381
-0.00120517
-0.00472562
-0.00113684
-0.00460598
-0.00107332
-0.00448607
-0.00100424
-0.00436039
-0.000939811
-0.00423288
-0.000874102
-0.00410114
-0.000815025
-0.00396633
-0.000756744
-0.00383087
-0.00070165
-0.00369389
-0.000653986
-0.000609836
-0.00355778
-0.00363202
-0.00294188
0.00338519
-0.00385843
-0.00288812
-0.00406665
-0.00283432
-0.00425545
-0.00278252
-0.00442507
-0.00273437
-0.00457558
-0.00268431
-0.00471138
-0.00263521
-0.00482882
-0.00258849
-0.00493501
-0.00253782
-0.00502366
-0.00249367
-0.00509677
-0.00244575
-0.00516089
-0.00239926
-0.00521016
-0.00235187
-0.00524763
-0.0023062
-0.00527234
-0.00226082
-0.00528769
-0.00221315
-0.00529231
-0.00216661
-0.00528644
-0.00211902
-0.00527334
-0.00207074
-0.00525035
-0.00202274
-0.0052192
-0.00197376
-0.00517993
-0.00192538
-0.00513258
-0.00187431
-0.00507902
-0.00182153
-0.00501854
-0.00176977
-0.00495378
-0.001716
-0.00487871
-0.00166201
-0.00480462
-0.00160304
-0.0047205
-0.00154741
-0.00463295
-0.0014897
-0.00454056
-0.00142786
-0.00444517
-0.00136729
-0.00434569
-0.00130465
-0.00423943
-0.0012431
-0.00413439
-0.00117836
-0.0040239
-0.00111473
-0.0039103
-0.00105341
-0.00379323
-0.000991168
-0.00367494
-0.000933321
-0.00355643
-0.000875246
-0.00343228
-0.000825803
-0.00330985
-0.000776419
-0.000734292
-0.00318539
-0.00328303
-0.00271633
0.00305747
-0.00348912
-0.00268203
-0.00367298
-0.00265046
-0.00384115
-0.00261435
-0.0039944
-0.00258112
-0.00413065
-0.00254805
-0.00425227
-0.00251358
-0.00436018
-0.00248058
-0.00445262
-0.00244538
-0.00453433
-0.00241196
-0.00460083
-0.00237925
-0.00465807
-0.00234202
-0.00470034
-0.00230961
-0.00473453
-0.002272
-0.00475764
-0.00223772
-0.00477165
-0.00219913
-0.00477544
-0.00216283
-0.00477041
-0.00212405
-0.00475854
-0.00208261
-0.00473681
-0.00204447
-0.00470726
-0.0020033
-0.0046732
-0.00195945
-0.00463245
-0.00191505
-0.00458038
-0.0018736
-0.0045266
-0.00182354
-0.00446743
-0.00177517
-0.0044021
-0.00172735
-0.00432872
-0.00167642
-0.00425268
-0.00162345
-0.00417367
-0.00156871
-0.0040897
-0.00151183
-0.00400256
-0.00145443
-0.00390935
-0.00139785
-0.0038169
-0.00133556
-0.00371737
-0.00127789
-0.00361678
-0.00121532
-0.0035155
-0.0011547
-0.00341004
-0.00109662
-0.00330406
-0.00103931
-0.00319276
-0.00098654
-0.00308147
-0.000937091
-0.00296955
-0.000888342
-0.000845941
-0.0028579
-0.00296598
-0.00251731
0.00276696
-0.00314957
-0.00249843
-0.00331959
-0.00248043
-0.00347224
-0.0024617
-0.00361025
-0.00244312
-0.00373058
-0.00242773
-0.00384033
-0.00240383
-0.00393778
-0.00238314
-0.00402276
-0.00236039
-0.00409527
-0.00233946
-0.00415768
-0.00231684
-0.00420573
-0.00229396
-0.00424876
-0.00226658
-0.00427906
-0.0022417
-0.00430098
-0.0022158
-0.00431271
-0.00218741
-0.00431569
-0.00215984
-0.00431191
-0.00212783
-0.00429958
-0.00209494
-0.00428063
-0.00206342
-0.00425552
-0.0020284
-0.00422298
-0.001992
-0.0041819
-0.00195613
-0.00413792
-0.00191758
-0.00408703
-0.00187444
-0.00403334
-0.00182886
-0.0039722
-0.00178849
-0.00390812
-0.00174051
-0.00383934
-0.00169222
-0.0037665
-0.00164156
-0.00368942
-0.0015889
-0.00360947
-0.00153438
-0.00352799
-0.00147933
-0.0034395
-0.00142405
-0.00335073
-0.00136666
-0.00325846
-0.00130759
-0.00316398
-0.00124917
-0.00306877
-0.00119183
-0.00297202
-0.00113605
-0.00287345
-0.00108511
-0.00277329
-0.00103725
-0.00266939
-0.000992243
-0.00256866
-0.000946669
-0.00557528
0.000423449
-0.000915779
-0.00524086
0.000411818
-0.000746239
-0.00497676
0.000384521
-0.000648622
-0.00475152
0.000352815
-0.000578061
-0.00455349
0.000318608
-0.000516637
-0.00437156
0.000280475
-0.000462398
-0.00420274
0.000242966
-0.000411792
-0.00404078
0.000201761
-0.000363723
-0.00388657
0.00016188
-0.00031609
-0.00373711
0.00012008
-0.000269535
-0.00359219
7.98511e-05
-0.00022477
-0.00344889
3.67848e-05
-0.000180088
-0.00330977
-4.95081e-06
-0.000134169
-0.00317288
-4.85688e-05
-8.83236e-05
-0.00303911
-9.11488e-05
-4.26213e-05
-0.00290839
-0.000135216
4.50203e-06
-0.00277992
-0.000181197
5.27254e-05
-0.00265591
-0.000225989
0.000101976
-0.00253501
-0.000273659
0.000152761
-0.00241846
-0.000322034
0.000205484
-0.00230534
-0.000372235
0.000259116
-0.00219667
-0.000424413
0.000315745
-0.00209305
-0.00047792
0.000374293
-0.00199494
-0.000533124
0.000435015
-0.00190297
-0.000590722
0.000498758
-0.00181772
-0.000651023
0.000565767
-0.00173932
-0.000713368
0.000634968
-0.00166903
-0.000778142
0.000707857
-0.0016072
-0.000846572
0.000784741
-0.00155453
-0.000917173
0.000864503
-0.00151195
-0.000991822
0.000949241
-0.00148104
-0.00106843
0.00103752
-0.00146216
-0.00114947
0.00113059
-0.00145592
-0.00123458
0.00122834
-0.00146374
-0.001323
0.00133082
-0.00148691
-0.00141532
0.0014385
-0.00152607
-0.00151299
0.00155215
-0.00158283
-0.00161419
0.00167096
-0.00165723
-0.00172154
0.00179595
-0.00175285
-0.00183265
0.00192826
-0.00186823
-0.00195052
0.00206591
-0.00200708
-0.00207301
0.00221186
-0.00220239
0.00236362
-0.00216831
-0.00537336
9.8309e-05
-0.00507896
0.00011742
-0.00481361
0.000119175
-0.00457486
0.000114059
-0.00435544
9.91869e-05
-0.00415474
7.97755e-05
-0.00396731
5.55369e-05
-0.0037931
2.75514e-05
-0.003629
-2.21484e-06
-0.00347256
-3.63601e-05
-0.00332335
-6.93642e-05
-0.00318039
-0.000106174
-0.00304203
-0.000143312
-0.00291021
-0.000180392
-0.00278225
-0.000219102
-0.00265754
-0.000259925
-0.00253863
-0.000300114
-0.00242182
-0.000342799
-0.00230975
-0.000385727
-0.00220161
-0.000430176
-0.0020977
-0.000476146
-0.00199995
-0.000522163
-0.0019063
-0.000571563
-0.00181823
-0.000621194
-0.00173612
-0.000672837
-0.00166058
-0.000726559
-0.00159147
-0.000782481
-0.00153025
-0.000839358
-0.00147738
-0.000899442
-0.00143314
-0.000961415
-0.00139935
-0.00102561
-0.0013751
-0.00109268
-0.00136178
-0.00116279
-0.00136078
-0.00123559
-0.00137256
-0.00131121
-0.00139747
-0.00139042
-0.00143701
-0.00147345
-0.00149237
-0.00155884
-0.00156436
-0.00164954
-0.00165342
-0.00174359
-0.00176172
-0.00184223
-0.00188983
-0.0019449
-0.0020522
-0.00204002
-0.00484446
-0.00011179
-0.00463266
-9.43713e-05
-0.00443017
-8.33228e-05
-0.00423553
-8.05742e-05
-0.00404958
-8.67667e-05
-0.0038719
-9.79084e-05
-0.00370234
-0.00011402
-0.00354061
-0.000134177
-0.00338559
-0.000157233
-0.00323742
-0.000184536
-0.00309335
-0.000213426
-0.00295683
-0.000242694
-0.00282425
-0.000275897
-0.00269598
-0.00030866
-0.00257123
-0.000343849
-0.00245218
-0.000378974
-0.00233715
-0.000415153
-0.00222609
-0.000453858
-0.00211982
-0.000491995
-0.00201781
-0.000532182
-0.0019219
-0.000572061
-0.00182922
-0.000614843
-0.00174323
-0.00065755
-0.00166272
-0.000701706
-0.00158744
-0.000748118
-0.0015193
-0.000794701
-0.0014587
-0.000843074
-0.00140418
-0.000893884
-0.00135828
-0.000945345
-0.00132093
-0.000998764
-0.00129214
-0.00105439
-0.00127323
-0.0011116
-0.00126423
-0.00117178
-0.00126656
-0.00123327
-0.00128025
-0.00129751
-0.00130623
-0.00136443
-0.00134537
-0.00143431
-0.0013986
-0.00150561
-0.0014668
-0.00158135
-0.00155048
-0.00165991
-0.00165155
-0.00174116
-0.00176981
-0.00182663
-0.00191501
-0.001907
-0.00429319
-0.000288744
-0.00411941
-0.000268149
-0.00394925
-0.000253477
-0.0037828
-0.000247029
-0.00362305
-0.000246517
-0.00346872
-0.000252237
-0.00331939
-0.000263352
-0.003175
-0.000278569
-0.00303621
-0.000296021
-0.00290226
-0.000318481
-0.00277361
-0.000342082
-0.0026477
-0.000368608
-0.00252851
-0.000395084
-0.00241275
-0.000424422
-0.00230125
-0.000455345
-0.00219312
-0.000487103
-0.00208881
-0.000519469
-0.00199005
-0.000552615
-0.00189506
-0.000586987
-0.0018048
-0.000622442
-0.00171871
-0.000658146
-0.00163775
-0.0006958
-0.00156167
-0.000733638
-0.00149064
-0.000772735
-0.00142659
-0.000812166
-0.00136765
-0.000853638
-0.00131501
-0.00089572
-0.00126983
-0.000939056
-0.00123124
-0.000983934
-0.00120102
-0.00102899
-0.00117856
-0.00107685
-0.00116508
-0.00112508
-0.001161
-0.00117587
-0.00116642
-0.00122784
-0.00118269
-0.00128125
-0.00120981
-0.00133731
-0.0012498
-0.00139432
-0.00130107
-0.00145433
-0.00136611
-0.00151631
-0.00144581
-0.00158021
-0.00154005
-0.00164692
-0.0016495
-0.00171717
-0.00178893
-0.00177558
-0.00382988
-0.00044098
-0.00368046
-0.000417571
-0.00353191
-0.000402022
-0.00338742
-0.000391521
-0.00324568
-0.000388257
-0.00310882
-0.000389091
-0.00297619
-0.000395983
-0.00284725
-0.000407507
-0.002722
-0.000421275
-0.00260195
-0.000438535
-0.00248538
-0.000458646
-0.00237367
-0.000480322
-0.00226422
-0.000504533
-0.00215844
-0.000530198
-0.0020578
-0.000555992
-0.00196096
-0.000583936
-0.00186814
-0.00061229
-0.00177845
-0.000642313
-0.00169306
-0.000672374
-0.00161294
-0.000702565
-0.00153576
-0.000735326
-0.00146356
-0.000768
-0.00139645
-0.000800741
-0.00133477
-0.000834417
-0.00127741
-0.000869529
-0.00122696
-0.000904084
-0.00118155
-0.000941129
-0.00114369
-0.000976919
-0.00111171
-0.00101591
-0.00108691
-0.0010538
-0.00107032
-0.00109344
-0.00106109
-0.00113431
-0.00106048
-0.00117647
-0.0010696
-0.00121872
-0.00108713
-0.00126372
-0.00111619
-0.00130825
-0.00115433
-0.00135618
-0.00120478
-0.00140388
-0.00126704
-0.00145405
-0.0013416
-0.00150566
-0.00142938
-0.00155914
-0.00153156
-0.00161499
-0.00167201
-0.00164849
-0.00342182
-0.000576945
-0.00328673
-0.00055266
-0.00315576
-0.000532993
-0.00302672
-0.000520558
-0.00290112
-0.000513863
-0.00277787
-0.000512336
-0.00265839
-0.000515463
-0.00254387
-0.000522033
-0.00243177
-0.000533373
-0.00232291
-0.000547388
-0.00221813
-0.000563434
-0.0021171
-0.000581348
-0.00201903
-0.000602604
-0.00192537
-0.000623852
-0.00183442
-0.000646941
-0.00174759
-0.000670774
-0.00166341
-0.000696467
-0.00158392
-0.000721798
-0.00150752
-0.000748773
-0.00143516
-0.000774929
-0.00136714
-0.000803345
-0.00130423
-0.000830913
-0.00124454
-0.000860432
-0.00119004
-0.000888919
-0.00114159
-0.000917976
-0.00109731
-0.000948359
-0.00105907
-0.000979369
-0.00102626
-0.00100973
-0.00100019
-0.00104198
-0.000980541
-0.00107345
-0.000967785
-0.0011062
-0.000962933
-0.00113916
-0.000965726
-0.00117368
-0.00097603
-0.00120842
-0.000996319
-0.00124343
-0.00102396
-0.00128061
-0.0010626
-0.00131754
-0.00111108
-0.0013554
-0.00117046
-0.00139467
-0.00124095
-0.00143517
-0.00132309
-0.001477
-0.00141872
-0.00151935
-0.00156431
-0.00152642
-0.00306333
-0.000699006
-0.00294346
-0.000672529
-0.00282413
-0.000652325
-0.00270865
-0.00063604
-0.00259512
-0.000627386
-0.00248541
-0.000622052
-0.00237797
-0.0006229
-0.00227386
-0.000626144
-0.00217317
-0.000634064
-0.0020758
-0.00064476
-0.00198093
-0.000658306
-0.00188924
-0.000673032
-0.00180191
-0.000689931
-0.00171615
-0.000709613
-0.0016347
-0.000728399
-0.00155644
-0.000749035
-0.00148158
-0.00077132
-0.00140947
-0.000793914
-0.00134266
-0.000815578
-0.00127782
-0.000839775
-0.00121742
-0.000863737
-0.00116051
-0.000887824
-0.00110878
-0.000912168
-0.00106094
-0.000936753
-0.00101816
-0.000960758
-0.000979817
-0.000986701
-0.000947572
-0.00101161
-0.000919457
-0.00103785
-0.000898285
-0.00106315
-0.000883119
-0.00108861
-0.000874135
-0.00111518
-0.000872204
-0.00114109
-0.000877129
-0.00116876
-0.000889328
-0.00119622
-0.00090927
-0.00122348
-0.000938228
-0.00125166
-0.000975364
-0.0012804
-0.00102175
-0.00130901
-0.00107798
-0.00133844
-0.0011445
-0.00136866
-0.00122125
-0.00140025
-0.00130967
-0.00143094
-0.00146402
-0.00140996
-0.00274756
-0.000809348
-0.00263869
-0.0007814
-0.00253155
-0.000759465
-0.00242615
-0.000741441
-0.00232511
-0.000728421
-0.00222509
-0.000722074
-0.00212842
-0.000719576
-0.00203435
-0.000720213
-0.00194328
-0.000725132
-0.00185485
-0.000733186
-0.00177046
-0.000742698
-0.00168751
-0.000755981
-0.00160835
-0.000769096
-0.00153205
-0.000785911
-0.00145854
-0.000801906
-0.0013873
-0.000820282
-0.00131997
-0.000838644
-0.00125673
-0.000857154
-0.00119526
-0.000877047
-0.00113809
-0.000896947
-0.00108375
-0.000918077
-0.00103342
-0.000938155
-0.000987795
-0.000957792
-0.000945842
-0.000978706
-0.000907819
-0.000998781
-0.000875362
-0.00101916
-0.000847625
-0.00103935
-0.000823956
-0.00106152
-0.000806408
-0.0010807
-0.000794343
-0.00110068
-0.000788863
-0.00112066
-0.000788494
-0.00114146
-0.000794883
-0.00116237
-0.000807941
-0.00118316
-0.000828654
-0.00120277
-0.000856737
-0.00122357
-0.000892782
-0.00124435
-0.000937057
-0.00126474
-0.000990132
-0.00128536
-0.00105231
-0.00130648
-0.00112458
-0.00132798
-0.00120588
-0.00134964
-0.00137146
-0.00129844
-0.00247106
-0.000906956
-0.00237109
-0.000881362
-0.00227222
-0.000858344
-0.00217758
-0.00083608
-0.00208518
-0.000820816
-0.00199594
-0.000811322
-0.00190802
-0.000807489
-0.00182273
-0.000805506
-0.00174013
-0.00080773
-0.00165996
-0.000813361
-0.00158401
-0.000818645
-0.00150936
-0.000830629
-0.00143676
-0.000841697
-0.00136785
-0.000854819
-0.00130079
-0.000868966
-0.00123855
-0.000882525
-0.0011774
-0.000899798
-0.00111959
-0.000914957
-0.00106575
-0.000930895
-0.00101264
-0.000950053
-0.000965691
-0.000965027
-0.000920977
-0.000982869
-0.000879115
-0.000999654
-0.000842532
-0.00101529
-0.000810222
-0.00103109
-0.000782904
-0.00104648
-0.000757834
-0.00106442
-0.000737761
-0.00108159
-0.000723695
-0.00109477
-0.000714661
-0.00110971
-0.000710916
-0.00112441
-0.000712287
-0.00114009
-0.00071963
-0.00115502
-0.000733715
-0.00116908
-0.000753786
-0.0011827
-0.00078155
-0.00119581
-0.000816228
-0.00120968
-0.000858534
-0.00122243
-0.000908351
-0.00123555
-0.000966275
-0.00124856
-0.00103326
-0.001261
-0.00110865
-0.00127425
-0.00119308
-0.00128703
0.00107958
0.000359086
-0.000365211
-0.00107345
0.00108959
0.000383041
-0.00039305
0.00110298
0.000404165
-0.000417561
0.00111921
0.000422744
-0.000438973
0.00113708
0.000439381
-0.000457246
0.00115686
0.000453289
-0.000473069
0.00117702
0.000465446
-0.000485608
0.00119726
0.000475571
-0.000495811
0.00121685
0.000484255
-0.000503844
0.00123587
0.000491279
-0.000510297
0.00125343
0.000496482
-0.000514047
0.00126939
0.000500671
-0.000516624
0.00128325
0.000503316
-0.000517183
0.00129502
0.000505217
-0.000516987
0.00130389
0.000505839
-0.000514701
0.00130994
0.000505642
-0.000511691
0.00131278
0.000504756
-0.000507604
0.00131308
0.000502437
-0.000502736
0.00130953
0.000500162
-0.000496609
0.00130297
0.000496988
-0.000490427
0.00129255
0.00049342
-0.000483001
0.00127901
0.000489107
-0.000475568
0.0012617
0.000484593
-0.000467278
0.00124105
0.000479444
-0.0004588
0.00121636
0.000474522
-0.000449832
0.0011887
0.000468913
-0.000441248
0.00115765
0.000462847
-0.000431805
0.00112249
0.000457232
-0.000422069
0.00108417
0.000451109
-0.000412788
0.00104241
0.000444829
-0.000403074
0.000997655
0.000438526
-0.000393766
0.000949826
0.000432135
-0.000384307
0.000898854
0.000425629
-0.000374657
0.000845045
0.000419223
-0.000365414
0.000788084
0.000413131
-0.000356169
0.000727959
0.000406943
-0.000346818
0.000664457
0.000401365
-0.000337863
0.000595663
0.000397613
-0.000328818
0.000518682
0.000397279
-0.000320297
0.000422937
0.000407508
-0.000311761
0.000283479
0.00044702
-0.000307558
2.66893e-05
0.000578475
-0.000321672
0.000999974
-0.000579048
-0.000394207
0.000977977
0.000349977
-0.000968868
0.000990578
0.000370439
0.0010054
0.000389344
0.00102246
0.000405682
0.00104131
0.000420532
0.00106057
0.000434034
0.00108069
0.000445325
0.00110037
0.000455887
0.00111974
0.000464889
0.00113828
0.000472734
0.00115552
0.00047924
0.00117139
0.000484807
0.00118513
0.000489574
0.00119703
0.000493314
0.00120645
0.000496419
0.00121347
0.000498619
0.00121817
0.000500057
0.00121943
0.000501183
0.00121838
0.000501215
0.00121392
0.000501443
0.00120654
0.000500803
0.00119545
0.000500192
0.00118132
0.000498722
0.00116371
0.00049706
0.00114289
0.000495342
0.0011186
0.000493205
0.00109053
0.000490918
0.00105905
0.000488706
0.00102426
0.000485899
0.000985466
0.000483626
0.000943302
0.00048069
0.000897313
0.000478123
0.000847549
0.000475394
0.000793651
0.000473122
0.000734857
0.000471924
0.000670505
0.000471295
0.000597829
0.000474042
0.0005139
0.000481543
0.000409411
0.000501768
0.000267349
0.000549572
5.45823e-05
0.000659789
-0.000292017
0.000925084
0.00149586
-0.00078789
0.000884656
0.000338795
-0.000873474
0.00089865
0.000356446
0.000914836
0.000373158
0.000932172
0.000388345
0.000950621
0.000402083
0.000969899
0.000414757
0.000989176
0.000426047
0.00100861
0.000436457
0.00102738
0.000446119
0.00104538
0.000454727
0.00106189
0.000462731
0.00107718
0.00046952
0.00109093
0.000475825
0.00110279
0.000481453
0.00111249
0.000486718
0.00112003
0.000491081
0.00112491
0.000495172
0.00112726
0.000498833
0.00112642
0.000502061
0.00112341
0.000504451
0.00111748
0.000506727
0.00110831
0.000509364
0.00109643
0.000510599
0.00108096
0.000512534
0.00106227
0.000514029
0.00104014
0.000515336
0.00101459
0.000516468
0.000985598
0.000517698
0.000952971
0.000518526
0.000916825
0.000519771
0.000876287
0.000521228
0.000831603
0.000522807
0.000782171
0.000524825
0.000726541
0.000528752
0.000664892
0.000533573
0.000594192
0.000541995
0.000512085
0.000556148
0.000411142
0.000582486
0.000281515
0.000631393
0.000106592
0.000724495
-0.000143609
0.000909988
-0.000502331
0.00128381
0.00192098
-0.000927448
0.00079893
0.000326349
-0.000786485
0.000813253
0.000342124
0.000829274
0.000357137
0.000846854
0.000370765
0.000864627
0.00038431
0.000883401
0.000395983
0.000901717
0.000407731
0.00091979
0.000418383
0.000937586
0.000428323
0.00095438
0.000437933
0.000970167
0.000446944
0.000984616
0.000455071
0.000997393
0.000463048
0.00100865
0.0004702
0.00101799
0.000477378
0.0010249
0.000484172
0.00102982
0.000490245
0.00103254
0.000496116
0.00103283
0.000501766
0.00103015
0.000507137
0.00102451
0.000512368
0.0010167
0.000517169
0.0010057
0.000521602
0.000991921
0.000526311
0.000974826
0.000531124
0.000954781
0.000535382
0.000931537
0.000539711
0.000904508
0.000544727
0.000873583
0.000549451
0.000839354
0.000553999
0.00080005
0.000560531
0.000756412
0.000566446
0.000706642
0.000574595
0.000650806
0.000584587
0.000586331
0.000598047
0.000511217
0.000617109
0.0004208
0.000646565
0.000309645
0.00069364
0.000167308
0.000773729
-2.16963e-05
0.000913498
-0.000278347
0.00116664
-0.000614335
0.00161979
0.00229288
-0.000986243
0.000720057
0.000313007
-0.000706715
0.000734607
0.000327574
0.000750521
0.000341223
0.000767198
0.000354087
0.000784782
0.000366727
0.000801875
0.00037889
0.000819456
0.00039015
0.000836477
0.000401362
0.000852628
0.000412172
0.00086823
0.000422331
0.000882986
0.000432188
0.000896294
0.000441762
0.000908234
0.000451108
0.000918461
0.000459973
0.000926837
0.000469002
0.000933847
0.000477162
0.000938508
0.000485584
0.000940919
0.000493704
0.000941039
0.000501646
0.000938866
0.000509311
0.000933968
0.000517266
0.000927014
0.000524122
0.000916756
0.00053186
0.000903939
0.000539128
0.000888132
0.000546931
0.000869641
0.000553873
0.000847149
0.000562204
0.000821829
0.000570047
0.000793011
0.000578269
0.000759363
0.000587648
0.000721999
0.000597895
0.000678723
0.000609722
0.000630013
0.000623305
0.000573786
0.000640814
0.000508488
0.000663345
0.000430952
0.000694645
0.000337724
0.000739792
0.000221925
0.000809439
7.65758e-05
0.000919077
-0.000112879
0.00110295
-0.00035969
0.00141344
-0.000668375
0.00192848
0.00262177
-0.000997266
0.000647724
0.00029908
-0.000633797
0.000662931
0.000312367
0.000678237
0.000325917
0.000694095
0.00033823
0.000710386
0.000350436
0.000726823
0.000362453
0.000742671
0.000374302
0.000758395
0.000385638
0.00077367
0.000396897
0.000788216
0.000407785
0.000801439
0.000418965
0.00081377
0.000429431
0.000824647
0.000440231
0.000834191
0.000450429
0.00084214
0.000461053
0.000848001
0.0004713
0.000852193
0.000481392
0.000854612
0.000491286
0.000854596
0.000501662
0.000852413
0.000511494
0.000847939
0.00052174
0.000840923
0.000531139
0.000831312
0.000541471
0.000819413
0.000551027
0.000804884
0.00056146
0.00078658
0.000572177
0.000766178
0.000582605
0.000741767
0.000594458
0.000713912
0.000606124
0.000682066
0.000619494
0.000645906
0.000634055
0.000604872
0.000650756
0.000556615
0.000671562
0.000501803
0.000695626
0.000437122
0.000728027
0.00036006
0.000771707
0.000266667
0.000833185
0.000151577
0.00092453
7.04562e-06
0.00106361
-0.000175055
0.00128505
-0.000406084
0.00164447
-0.000683785
0.00220617
0.00291939
-0.000981404
0.000583217
0.000285516
-0.000569653
0.000597051
0.000298534
0.000611933
0.000311035
0.000627188
0.000322975
0.000642549
0.000335075
0.000657658
0.000347344
0.000672594
0.000359367
0.00068682
0.000371412
0.000700788
0.000382929
0.000713837
0.000394736
0.000726073
0.000406729
0.00073699
0.000418514
0.000747075
0.000430147
0.000755428
0.000442076
0.000762544
0.000453936
0.000768175
0.00046567
0.000772302
0.000477264
0.000774006
0.000489583
0.000774302
0.000501366
0.000771994
0.000513802
0.000767665
0.000526068
0.000760985
0.000537819
0.000752076
0.00055038
0.000740359
0.000562744
0.000726349
0.00057547
0.000709629
0.000588897
0.000689541
0.000602693
0.000666809
0.00061719
0.000639809
0.000633124
0.000609493
0.000649809
0.000574689
0.000668859
0.000534803
0.000690642
0.000489453
0.000716912
0.00043589
0.000749189
0.000373534
0.000790383
0.000299571
0.000845671
0.000209094
0.000923662
9.70545e-05
0.00103657
-4.25706e-05
0.00120323
-0.000215442
0.00145792
-0.000430125
0.00185915
-0.000684043
0.00246009
0.00318383
-0.000948488
0.000523961
0.000272107
-0.000510552
0.000537816
0.000284679
0.000551809
0.000297042
0.00056603
0.000308754
0.000580253
0.000320851
0.00059426
0.000333337
0.00060778
0.000345847
0.000621408
0.000357783
0.000633996
0.000370341
0.000645886
0.000382846
0.000656823
0.000395792
0.000666958
0.00040838
0.000675928
0.000421177
0.000683849
0.000434155
0.000690451
0.000447334
0.00069519
0.000460931
0.00069844
0.000474014
0.000700413
0.00048761
0.000700393
0.000501385
0.000698523
0.000515672
0.0006942
0.000530391
0.000687681
0.000544337
0.000679388
0.000558673
0.000668363
0.00057377
0.000654775
0.000589058
0.000638975
0.000604696
0.000620071
0.000621598
0.000598017
0.000639244
0.000573092
0.000658049
0.00054358
0.000679321
0.000510273
0.000702166
0.000472479
0.000728435
0.000428853
0.000760538
0.000377702
0.000800341
0.000317451
0.000850635
0.000247114
0.000916008
0.000161771
0.001009
5.33698e-05
0.00114497
-8.13378e-05
0.00133794
-0.000239617
0.0016162
-0.000434791
0.00205433
-0.00066465
0.00268995
0.00341713
-0.000897949
0.000470897
0.00025838
-0.000457171
0.000484067
0.000271508
0.000497114
0.000283995
0.00051063
0.000295238
0.000523878
0.000307603
0.000536841
0.000320374
0.000549108
0.00033358
0.000560939
0.000345952
0.000572639
0.000358641
0.000583614
0.000371872
0.00059349
0.000385916
0.000602415
0.000399454
0.00061052
0.000413072
0.000617592
0.000427084
0.000623246
0.00044168
0.000627402
0.000456775
0.000630404
0.000471012
0.000632189
0.000485824
0.000632283
0.000501292
0.000629915
0.00051804
0.000626271