/*--------------------------------*- C++ -*----------------------------------*\
| =========                 |                                                 |
| \\      /  F ield         | OpenFOAM: The Open Source CFD Toolbox           |
|  \\    /   O peration     | Version:  2.3.0                                 |
|   \\  /    A nd           | Web:      www.OpenFOAM.org                      |
|    \\/     M anipulation  |                                                 |
\*---------------------------------------------------------------------------*/
FoamFile
{
    version     2.0;
    format      ascii;
    class       volScalarField;
    location    "800";
    object      nuTilda;
}
// * * * * * * * * * * * * * * * * * * * * * * * * * * * * * * * * * * * * * //

dimensions      [0 2 -1 0 0 0 0];

internalField   nonuniform List<scalar> 
7826
(
0.0668634
0.0618159
0.0570885
0.0527471
0.0488486
0.0454355
0.0425301
0.040126
0.0381799
0.0366122
0.0353143
0.0341679
0.0330573
0.0318813
0.030585
0.0728484
0.0692842
0.0661027
0.0633348
0.0609896
0.0590554
0.0575037
0.0562942
0.0553796
0.0547112
0.054242
0.0539317
0.053745
0.0536541
0.0536376
0.0781924
0.0756506
0.0734558
0.0715967
0.0700526
0.0687947
0.0677893
0.0670008
0.0663951
0.0659411
0.0656112
0.0653824
0.0652358
0.0651556
0.0651299
0.0827412
0.0809053
0.079341
0.0780286
0.0769429
0.0760565
0.0753423
0.0747744
0.0743294
0.0739877
0.0737323
0.0735492
0.0734269
0.0733559
0.0733289
0.086565
0.0851975
0.0840385
0.0830659
0.0822571
0.0815904
0.0810457
0.0806053
0.0802535
0.0799772
0.0797658
0.0796103
0.0795035
0.0794392
0.0794128
0.0897537
0.0887076
0.0878187
0.0870679
0.0864372
0.0859107
0.0854738
0.0851146
0.0848226
0.0845888
0.0844064
0.0842696
0.0841736
0.0841143
0.0840888
0.0924195
0.0915986
0.090896
0.0902964
0.0897865
0.0893547
0.0889909
0.0886871
0.088436
0.088232
0.0880701
0.0879467
0.0878588
0.0878035
0.0877788
0.094659
0.0940004
0.0934306
0.0929382
0.0925137
0.092149
0.0918374
0.0915732
0.0913519
0.0911696
0.091023
0.0909099
0.0908281
0.090776
0.0907521
0.0965518
0.096014
0.0955416
0.0951275
0.0947653
0.09445
0.0941769
0.0939424
0.0937436
0.093578
0.0934433
0.0933383
0.0932614
0.0932116
0.0931882
0.0981666
0.0977174
0.0973173
0.0969617
0.0966466
0.0963685
0.0961247
0.0959132
0.0957319
0.0955795
0.0954545
0.0953559
0.095283
0.0952352
0.0952121
0.0995534
0.0991687
0.0988235
0.0985131
0.0982344
0.0979851
0.097764
0.0975705
0.0974034
0.0972618
0.0971447
0.0970516
0.0969821
0.096936
0.0969131
0.100743
0.100411
0.10011
0.0998365
0.0995862
0.0993599
0.0991562
0.0989769
0.0988217
0.0986896
0.0985792
0.0984908
0.0984242
0.0983793
0.0983564
0.101768
0.101482
0.101217
0.100974
0.100746
0.100539
0.100348
0.10018
0.100034
0.0999117
0.0998064
0.0997223
0.0996584
0.0996143
0.0995907
0.10266
0.102411
0.102173
0.101962
0.101744
0.10156
0.101374
0.101215
0.101076
0.100966
0.100863
0.100783
0.100721
0.100677
0.100651
0.0306809
0.0321135
0.0332908
0.0343555
0.0354488
0.0367124
0.0382789
0.0402557
0.0427125
0.0456792
0.0491506
0.0530981
0.0574781
0.0622368
0.0673145
0.0536307
0.0536352
0.0537169
0.0538992
0.0542122
0.0546915
0.0553795
0.0563229
0.0575698
0.0591656
0.0611486
0.0635446
0.066361
0.0695863
0.0731895
0.0651329
0.065165
0.0652524
0.0654079
0.0656476
0.0659904
0.0664596
0.0670835
0.0678929
0.0689222
0.0702066
0.0717796
0.0736695
0.0758958
0.0784681
0.0733327
0.0733677
0.0734473
0.0735791
0.0737729
0.0740399
0.0743944
0.0748538
0.0754378
0.0761699
0.077076
0.0781831
0.0795187
0.0811079
0.0829731
0.0794166
0.079451
0.0795237
0.0796395
0.0798046
0.0800262
0.0803135
0.0806776
0.0811312
0.0816904
0.0823729
0.0831987
0.0841893
0.0853666
0.0867505
0.0840922
0.0841249
0.0841917
0.0842955
0.0844406
0.084632
0.0848754
0.0851779
0.0855485
0.0859978
0.0865379
0.0871832
0.0879495
0.0888544
0.0899172
0.0877817
0.0878124
0.087874
0.0879686
0.0880991
0.0882688
0.0884814
0.0887417
0.0890557
0.0894305
0.0898744
0.0903975
0.091011
0.0917277
0.0925619
0.0907544
0.090783
0.0908401
0.0909274
0.0910467
0.0912
0.09139
0.0916198
0.0918932
0.092215
0.0925909
0.0930277
0.0935333
0.0941166
0.0947852
0.0931898
0.0932165
0.0932697
0.0933509
0.0934612
0.0936018
0.0937745
0.0939814
0.0942246
0.0945073
0.0948333
0.0952071
0.0956343
0.0961221
0.09668
0.0952129
0.0952375
0.0952875
0.0953634
0.0954663
0.0955969
0.0957561
0.0959452
0.0961654
0.0964184
0.0967065
0.0970325
0.0974
0.097814
0.0982806
0.0969129
0.0969357
0.0969824
0.0970537
0.0971503
0.0972728
0.0974215
0.0975967
0.0977988
0.0980287
0.0982873
0.0985762
0.0988974
0.0992539
0.0996507
0.0983555
0.0983762
0.0984199
0.0984866
0.0985779
0.0986941
0.0988346
0.0989988
0.0991864
0.0993978
0.0996332
0.0998928
0.100177
0.100488
0.100826
0.0995901
0.0996075
0.0996493
0.0997107
0.099798
0.0999095
0.100044
0.100199
0.100374
0.100571
0.100788
0.101024
0.10128
0.101554
0.101847
0.100655
0.100665
0.100709
0.100762
0.100848
0.100956
0.101088
0.101232
0.101398
0.101584
0.101788
0.102004
0.102236
0.102481
0.102743
0.0136629
0.010834
0.00862003
0.0071021
0.0060084
0.00514381
0.00441357
0.00377059
0.00318982
0.00265759
0.00216702
0.00171612
0.00130576
0.000933944
0.000658598
0.0137196
0.0110924
0.00903655
0.00755309
0.00645013
0.00558441
0.00486357
0.00423439
0.00366677
0.00314345
0.00265496
0.00219694
0.00176658
0.00135979
0.001026
0.0137862
0.0113756
0.00948211
0.00802871
0.00691177
0.0060293
0.00529962
0.0046676
0.00409887
0.00357266
0.00307696
0.00260495
0.00215019
0.00170573
0.00133064
0.0138796
0.0116693
0.00990787
0.00849228
0.0073658
0.00646022
0.00570966
0.00506234
0.00448197
0.00394497
0.00343671
0.00294784
0.00246856
0.00198956
0.00157931
0.0140052
0.011967
0.0103044
0.00892936
0.00780055
0.00687232
0.00609523
0.00542455
0.00482505
0.00427154
0.00374718
0.00324006
0.00273724
0.00222715
0.00178504
0.0141159
0.0122482
0.0106714
0.00933612
0.00821059
0.00726327
0.00645845
0.00576011
0.00513645
0.00456226
0.00401916
0.00349292
0.00296773
0.00242946
0.00195807
0.0142374
0.0125059
0.0110085
0.00971206
0.00859368
0.00763134
0.00680016
0.0060727
0.00542193
0.00482421
0.00426045
0.00371459
0.00316804
0.00260399
0.00210572
0.0143819
0.012746
0.0113174
0.010058
0.00894918
0.00797562
0.00712055
0.00636432
0.00568529
0.00506231
0.00447664
0.00391084
0.00334388
0.00275611
0.00223312
0.0144926
0.0129664
0.0116006
0.0103758
0.00927765
0.00829581
0.00741976
0.00663621
0.00592893
0.00528005
0.00467176
0.00408594
0.00349943
0.00288971
0.00234405
0.0146076
0.0131676
0.0118596
0.0106671
0.00958019
0.00859237
0.00769802
0.00688919
0.00615458
0.00547984
0.00484884
0.00424319
0.00363799
0.00300795
0.00244138
0.0147071
0.0133515
0.0120965
0.010934
0.00985819
0.00886616
0.00795587
0.00712389
0.00636336
0.00566342
0.00500992
0.00438482
0.00376164
0.00311272
0.00252703
0.0147933
0.0135178
0.0123126
0.0111783
0.0101134
0.00911849
0.00819463
0.00734195
0.00655735
0.00583341
0.00515833
0.00451442
0.00387459
0.00320765
0.00260372
0.0148778
0.0136685
0.0125084
0.0113997
0.0103446
0.00934653
0.0084095
0.00753683
0.00672909
0.00598218
0.00528559
0.00462426
0.00396671
0.00328693
0.00266884
0.0149963
0.0138492
0.0127313
0.0116453
0.0106043
0.00960968
0.00866573
0.00777847
0.00694809
0.00617512
0.00546045
0.00477261
0.00410921
0.00338532
0.00274172
0.000668476
0.000911517
0.00124965
0.001615
0.00200274
0.0024105
0.00284196
0.00330931
0.00383908
0.00448824
0.00538398
0.00678165
0.00866666
0.0110626
0.0140458
0.00102837
0.00130477
0.0016502
0.00201605
0.00239828
0.00279779
0.00322264
0.00369244
0.00424603
0.00495432
0.00592851
0.00729091
0.00909708
0.0113478
0.014114
0.00132682
0.00162087
0.00197996
0.00235319
0.00273966
0.00314453
0.00358164
0.00407875
0.00468254
0.00546
0.00648605
0.00781928
0.00954645
0.0116585
0.0142192
0.00157053
0.00187824
0.00225156
0.00263577
0.00303357
0.00345517
0.00392023
0.00446173
0.00512554
0.00596354
0.00702028
0.00833124
0.00998448
0.0119698
0.0143371
0.00177229
0.00209264
0.00248003
0.00287791
0.00329306
0.00374063
0.00424455
0.00483842
0.0055608
0.00644679
0.00752218
0.008814
0.0103991
0.0122693
0.0144621
0.00194217
0.00227476
0.00267629
0.00309026
0.00352777
0.00400813
0.00455695
0.00520444
0.00597922
0.00690268
0.00799006
0.00926334
0.0107861
0.0125518
0.0145878
0.00208733
0.0024319
0.00284781
0.00328001
0.00374374
0.00426111
0.00485689
0.00555547
0.00637559
0.00732872
0.00842385
0.00967838
0.0111439
0.0128135
0.0147028
0.00221283
0.00256912
0.00299977
0.00345187
0.00394445
0.00450078
0.00514291
0.00588837
0.0067474
0.00772452
0.00882431
0.0100598
0.0114728
0.0130565
0.0148315
0.00232235
0.0026901
0.00313575
0.00360898
0.00413179
0.00472734
0.0054136
0.00620132
0.00709382
0.00809059
0.0091927
0.0104092
0.0117748
0.0132828
0.0149509
0.00241862
0.00279755
0.00325835
0.00375337
0.00430688
0.00494069
0.0056681
0.00649359
0.00741499
0.00842798
0.00953072
0.0107291
0.0120518
0.0134912
0.0150558
0.0025038
0.00289374
0.00336977
0.0038868
0.00447061
0.00514085
0.00590603
0.00676517
0.00771167
0.00873812
0.00984039
0.0110215
0.0123051
0.0136801
0.0151451
0.00257943
0.00297956
0.00347025
0.00400889
0.00462217
0.0053271
0.00612734
0.00701651
0.00798478
0.00902246
0.0101236
0.0112886
0.0125364
0.0138548
0.0152481
0.00264706
0.00305932
0.00356685
0.00412866
0.00477037
0.00550642
0.00633362
0.00724852
0.00823608
0.00928453
0.010384
0.0115333
0.0127477
0.0140119
0.0153128
0.00270804
0.00312165
0.00363181
0.00420098
0.00486492
0.00562397
0.00651285
0.00746024
0.00846793
0.00950794
0.0105949
0.0117287
0.012924
0.0141299
0.0153651
0.00129576
0.0039111
0.0067952
0.00990289
0.0132264
0.0167632
0.0205244
0.0245335
0.0288236
0.0334291
0.0383757
0.0436712
0.0492998
0.0552218
0.0613763
1.90468e-05
0.000438994
0.00175381
0.00389393
0.00640188
0.00938674
0.0128535
0.0168003
0.0212229
0.026115
0.0314651
0.0372516
0.0434363
0.04996
0.0567399
0
0.000233596
0.00108559
0.00254432
0.00436925
0.00669081
0.00955164
0.0129831
0.0170062
0.02163
0.0268477
0.0326352
0.0389472
0.0457173
0.0528758
5.00108e-05
0.000233785
0.00109184
0.00215973
0.0036098
0.00550981
0.00791944
0.0108956
0.0144877
0.0187326
0.0236491
0.0292328
0.0354508
0.0422364
0.049473
0.000127394
0.000571759
0.00105897
0.00195358
0.0031938
0.00483503
0.006942
0.00958277
0.0128233
0.0167217
0.021321
0.0266415
0.0326724
0.0393655
0.0466372
0.000346428
0.000670169
0.00106777
0.00179319
0.00289163
0.00435788
0.00625259
0.00864648
0.0116131
0.0152232
0.0195369
0.0245951
0.0304094
0.0369513
0.0441415
0.000393996
0.000637669
0.00106539
0.00165917
0.00264957
0.00398488
0.00571946
0.0079234
0.0106729
0.0140451
0.0181113
0.0229277
0.0285255
0.0348994
0.0420028
0.000383479
0.000592454
0.00103315
0.00155338
0.00245206
0.00368277
0.00528948
0.00734045
0.00991223
0.0130851
0.0169371
0.021536
0.0269286
0.0331296
0.0401139
0.000375774
0.000568753
0.00100117
0.00149685
0.00229242
0.00343387
0.00493439
0.00685786
0.00928005
0.0122827
0.0159483
0.0203523
0.0255545
0.0315871
0.0384493
0.000370814
0.000558351
0.000978793
0.00145974
0.00216185
0.00322578
0.0046359
0.00645052
0.00874432
0.0115994
0.0151007
0.0193299
0.0243562
0.030226
0.0369513
0.000367032
0.000552612
0.000962593
0.0014264
0.00205436
0.00304931
0.00438122
0.00610155
0.00828335
0.0110086
0.014364
0.0184353
0.0232989
0.0290112
0.0355914
0.000363647
0.000548133
0.000950341
0.00139887
0.00197827
0.00289939
0.00416135
0.00579877
0.00788172
0.0104917
0.0137163
0.0176441
0.022357
0.0279189
0.0343596
0.000360576
0.000544537
0.000942084
0.00138059
0.00193224
0.00277245
0.00396973
0.00553322
0.00752809
0.0100347
0.0131411
0.0169377
0.0215103
0.0269284
0.0332271
0.000357829
0.000541794
0.000936956
0.00136881
0.00190029
0.00266409
0.00380131
0.00529819
0.00721382
0.00962709
0.0126259
0.0163019
0.0207439
0.0260268
0.0321981
0.000355338
0.000539537
0.000933238
0.00135946
0.00187286
0.00257219
0.00365221
0.00508848
0.00693231
0.00926065
0.012161
0.0157258
0.0200464
0.0252037
0.0312578
0.000353024
0.000537429
0.000929858
0.00135104
0.00184933
0.00250195
0.00352038
0.00490018
0.00667841
0.00892904
0.0117388
0.0152008
0.0194083
0.0244462
0.0303767
0.000350852
0.000535432
0.000926838
0.00134424
0.00183195
0.00245488
0.00340463
0.00473033
0.00644808
0.00862722
0.0113534
0.0147199
0.0188212
0.0237443
0.0295511
0.000348829
0.000533648
0.00092451
0.00133954
0.00182012
0.00242212
0.00330293
0.00457653
0.00623805
0.00835107
0.0109997
0.0142769
0.0182777
0.0230899
0.0287758
0.00034695
0.000532097
0.000922835
0.00133636
0.00181129
0.00239534
0.00321319
0.00443666
0.00604566
0.00809723
0.0106736
0.0138673
0.0177745
0.0224878
0.0280936
0.000345188
0.000530687
0.000921459
0.00133373
0.00180338
0.00237104
0.00313585
0.00430917
0.00586871
0.00786291
0.0103717
0.0134871
0.0173053
0.0219185
0.0273946
0.00034352
0.000529316
0.000920073
0.00133113
0.00179594
0.00234979
0.00307479
0.00419342
0.00570546
0.00764583
0.0100914
0.0131332
0.0168686
0.0213949
0.0268136
0.000341926
0.000527955
0.000918635
0.00132865
0.00178961
0.00233315
0.00303058
0.00408899
0.00555453
0.0074441
0.00983015
0.0128028
0.0164592
0.0208959
0.0261866
0.000340404
0.000526643
0.000917289
0.00132664
0.00178492
0.00232102
0.00299808
0.00399491
0.00541474
0.00725609
0.00958601
0.0124932
0.0160747
0.0204279
0.025642
0.000338957
0.000525423
0.000916162
0.00132524
0.00178169
0.00231192
0.00297162
0.00390988
0.005285
0.00708043
0.00935726
0.0122025
0.0157129
0.0199866
0.0251127
0.000337585
0.000524294
0.000915242
0.00132429
0.00177933
0.00230422
0.00294781
0.00383327
0.00516436
0.00691592
0.00914238
0.0119287
0.0153707
0.019565
0.0245893
0.000336275
0.000523226
0.000914417
0.00132351
0.00177722
0.00229695
0.00292568
0.00376637
0.00505219
0.00676151
0.00893997
0.01167
0.0150463
0.0191648
0.0241125
0.000335017
0.000522187
0.000913575
0.00132266
0.00177507
0.00229003
0.00290599
0.0037117
0.00494833
0.00661636
0.00874897
0.0114255
0.0147403
0.0187945
0.0237048
0.000333807
0.000521137
0.000912653
0.00132171
0.00177297
0.00228393
0.00288981
0.00366964
0.00485267
0.00647978
0.00856846
0.011194
0.0144501
0.018437
0.0232449
0.000332629
0.000520098
0.000911697
0.00132076
0.00177118
0.0022791
0.0028773
0.00363728
0.00476478
0.0063512
0.0083976
0.0109745
0.0141747
0.0180995
0.0228559
0.000331497
0.000519109
0.000910776
0.00131995
0.00176989
0.00227559
0.00286767
0.00361085
0.00468391
0.00623003
0.00823573
0.0107661
0.0139131
0.0177793
0.022473
0.000330414
0.000518163
0.000909946
0.00131936
0.0017691
0.00227311
0.00285982
0.00358752
0.00460938
0.00611574
0.00808212
0.0105682
0.0136644
0.0174739
0.0221045
0.000329367
0.00051724
0.000909191
0.00131894
0.00176866
0.00227121
0.00285281
0.00356577
0.00454107
0.00600787
0.00793629
0.0103798
0.0134273
0.0171813
0.0217444
0.000328348
0.00051637
0.000908493
0.0013186
0.00176835
0.0022695
0.00284609
0.00354525
0.00448003
0.00590613
0.00779762
0.0102001
0.0132002
0.0168977
0.0213867
0.000327376
0.00051553
0.000907811
0.00131826
0.00176802
0.00226776
0.0028396
0.00352644
0.00442795
0.00581048
0.00766565
0.0100286
0.0129831
0.0166298
0.0210804
0.000326428
0.000514679
0.000907087
0.00131784
0.00176757
0.00226602
0.00283363
0.00351014
0.00438559
0.00572094
0.00753998
0.00986457
0.0127751
0.0163707
0.0207507
0.000325497
0.000513847
0.000906324
0.00131733
0.00176707
0.00226441
0.00282854
0.00349675
0.00435183
0.00563742
0.00742028
0.00970763
0.0125755
0.0161211
0.0204436
0.000324602
0.00051303
0.000905545
0.00131679
0.0017666
0.00226315
0.00282452
0.00348611
0.00432434
0.00555954
0.00730619
0.00955715
0.0123833
0.0158798
0.0201447
0.000323727
0.000512209
0.000904761
0.00131628
0.00176627
0.00226231
0.00282158
0.0034776
0.00430082
0.00548679
0.00719738
0.00941286
0.0121991
0.015652
0.019888
0.000322868
0.000511412
0.000903996
0.00131582
0.00176611
0.00226191
0.00281949
0.00347048
0.00427955
0.00541873
0.00709354
0.00927446
0.0120223
0.0154319
0.0196107
0.000322038
0.000510665
0.00090329
0.00131545
0.00176613
0.00226185
0.00281795
0.00346413
0.00425958
0.00535522
0.00699438
0.0091416
0.0118523
0.0152206
0.0193604
0.000321239
0.000509924
0.00090262
0.00131515
0.00176628
0.00226199
0.00281669
0.00345812
0.00424045
0.00529668
0.00689976
0.00901415
0.0116895
0.0150212
0.0191357
0.00032045
0.000509208
0.000901975
0.00131488
0.00176647
0.00226219
0.0028155
0.00345226
0.0042223
0.0052441
0.00680963
0.00889188
0.0115332
0.0148269
0.0188836
0.000319684
0.00050852
0.000901346
0.00131462
0.00176664
0.00226234
0.00281428
0.0034466
0.0042056
0.00519859
0.00672406
0.00877455
0.0113826
0.0146379
0.0186427
0.000318944
0.000507838
0.000900712
0.00131432
0.00176675
0.00226243
0.00281305
0.00344136
0.00419087
0.00516051
0.00664309
0.00866173
0.0112364
0.0144501
0.0183887
0.000318216
0.00050714
0.000900045
0.00131396
0.00176677
0.00226244
0.00281193
0.0034368
0.00417841
0.00512915
0.00656667
0.00855316
0.011095
0.0142707
0.0181811
0.000317494
0.000506463
0.000899361
0.00131355
0.00176674
0.00226246
0.00281105
0.00343307
0.00416818
0.00510304
0.00649456
0.00844858
0.0109578
0.0140949
0.0179489
0.000316799
0.000505801
0.000898673
0.00131312
0.0017667
0.00226256
0.00281049
0.00343024
0.00415986
0.00508062
0.00642641
0.00834774
0.0108246
0.0139239
0.0177347
0.000316113
0.000505128
0.000897974
0.00131269
0.00176667
0.00226278
0.00281031
0.00342823
0.00415298
0.00506056
0.00636185
0.0082504
0.0106952
0.0137573
0.0175252
0.000315434
0.000504483
0.000897292
0.00131227
0.0017667
0.00226316
0.00281049
0.00342686
0.00414707
0.00504194
0.00630062
0.00815647
0.0105699
0.0135981
0.0173402
0.000314781
0.000503859
0.00089664
0.00131189
0.00176681
0.00226371
0.00281095
0.00342595
0.00414175
0.00502416
0.00624265
0.0080658
0.0104484
0.0134432
0.0171437
0.000314139
0.000503231
0.000895999
0.00131156
0.00176699
0.00226436
0.00281161
0.00342529
0.00413669
0.00500694
0.00618816
0.00797839
0.0103312
0.0132957
0.0169758
0.000313502
0.000502619
0.000895379
0.00131123
0.00176721
0.0022651
0.00281237
0.00342474
0.00413174
0.00499029
0.00613773
0.00789421
0.0102177
0.0131504
0.0167806
0.000312884
0.000502043
0.000894782
0.00131093
0.00176745
0.00226585
0.00281313
0.00342418
0.00412688
0.00497442
0.00609213
0.00781328
0.0101077
0.01301
0.0166134
0.000312285
0.000501457
0.000894188
0.00131064
0.00176767
0.00226656
0.00281385
0.00342358
0.00412216
0.00495969
0.00605205
0.00773572
0.0100013
0.0128748
0.0164505
0.000311686
0.000500882
0.000893591
0.00131032
0.00176785
0.00226721
0.0028145
0.00342297
0.00411774
0.00494647
0.00601766
0.00766161
0.00989845
0.0127432
0.0162839
0.000311102
0.000500324
0.000892994
0.00130997
0.00176798
0.00226779
0.00281507
0.00342241
0.0041138
0.00493497
0.00598849
0.00759096
0.00979878
0.0126147
0.0161196
0.000310535
0.000499771
0.000892393
0.0013096
0.00176807
0.0022683
0.00281562
0.00342198
0.00411048
0.00492522
0.00596366
0.00752367
0.0097021
0.0124891
0.015959
0.000309972
0.000499199
0.000891769
0.0013092
0.00176809
0.00226877
0.00281618
0.00342178
0.00410783
0.00491708
0.00594213
0.00745951
0.00960836
0.0123665
0.0158036
0.000309411
0.000498648
0.000891144
0.00130878
0.00176808
0.00226922
0.00281682
0.00342184
0.00410588
0.00491029
0.00592294
0.00739826
0.00951724
0.0122463
0.015646
0.00030887
0.000498098
0.000890513
0.00130834
0.00176807
0.00226969
0.00281755
0.0034222
0.00410454
0.00490454
0.00590532
0.00733965
0.00942858
0.0121283
0.0154949
0.000308328
0.000497553
0.000889883
0.0013079
0.00176806
0.00227019
0.00281841
0.00342285
0.00410371
0.00489953
0.00588873
0.00728354
0.00934252
0.0120149
0.0153629
0.000307796
0.000497029
0.000889263
0.00130746
0.00176806
0.00227075
0.0028194
0.00342373
0.00410328
0.00489501
0.00587278
0.00722992
0.00925931
0.0119062
0.0152324
0.000307281
0.000496513
0.000888666
0.00130705
0.00176809
0.00227137
0.00282049
0.00342481
0.00410311
0.00489077
0.00585726
0.00717888
0.00917863
0.0117991
0.0150891
0.000306774
0.000495987
0.000888072
0.00130666
0.00176816
0.00227202
0.00282167
0.00342601
0.00410308
0.00488666
0.00584213
0.0071307
0.00910053
0.0116952
0.014962
0.000306269
0.000495472
0.000887492
0.00130627
0.00176824
0.00227272
0.0028229
0.00342728
0.0041031
0.00488262
0.00582744
0.00708583
0.0090249
0.011594
0.0148332
0.000305783
0.000494986
0.000886932
0.00130591
0.00176834
0.00227344
0.00282415
0.00342856
0.00410315
0.00487866
0.00581338
0.00704483
0.00895185
0.0114956
0.0147083
0.000305317
0.000494507
0.00088639
0.00130556
0.00176845
0.00227415
0.00282539
0.00342982
0.00410318
0.00487481
0.0058002
0.00700811
0.00888115
0.0113979
0.0145736
0.000304855
0.000494009
0.000885835
0.0013052
0.00176854
0.00227484
0.0028266
0.00343105
0.00410321
0.0048712
0.00578816
0.00697586
0.00881309
0.0113041
0.0144639
0.000304395
0.000493535
0.000885302
0.00130485
0.00176864
0.00227553
0.00282779
0.00343227
0.0041033
0.00486795
0.00577746
0.00694791
0.00874762
0.011212
0.0143388
0.00030398
0.00049305
0.000884746
0.00130446
0.00176868
0.00227615
0.00282892
0.00343346
0.00410351
0.00486518
0.00576818
0.00692377
0.00868476
0.0111223
0.0142244
0.000303542
0.000492581
0.000884307
0.00130421
0.00176884
0.00227688
0.00283015
0.00343478
0.00410396
0.00486304
0.00576039
0.00690289
0.00862458
0.0110352
0.0141127
0.000303286
0.000492025
0.000883605
0.00130369
0.00176886
0.00227758
0.00283149
0.00343635
0.00410489
0.00486175
0.00575411
0.00688463
0.00856726
0.0109511
0.0140044
0.000302604
0.000491683
0.000883563
0.00130326
0.00176833
0.00227726
0.00283149
0.00343651
0.00410456
0.00485963
0.00574777
0.00686744
0.00851088
0.0108678
0.0138922
0.000304258
0.000491903
0.000885764
0.00130947
0.00177787
0.00228921
0.00284495
0.0034505
0.00411791
0.0048707
0.00575372
0.00686115
0.00846829
0.0107952
0.0137947
0.000286496
0.000469858
0.000841277
0.00125079
0.00171173
0.00222048
0.00277684
0.00338482
0.00405508
0.00480978
0.00569198
0.00679177
0.00835939
0.0106746
0.0136762
0.00127095
0.00382892
0.00665543
0.00970217
0.0129808
0.0165037
0.0202925
0.0243742
0.0287747
0.0335128
0.0385942
0.0440081
0.0497283
0.0557143
0.0619219
1.86818e-05
0.000425843
0.00169838
0.00382063
0.0063049
0.00927782
0.0127525
0.0167366
0.0212304
0.026224
0.0316947
0.037604
0.0438976
0.0505062
0.057357
0
0.000245273
0.0011369
0.00259477
0.00442493
0.00675547
0.00963101
0.0130898
0.0171593
0.0218512
0.027157
0.0330434
0.0394516
0.0462988
0.0534911
6.02011e-05
0.000281422
0.00113935
0.00223319
0.00370571
0.00562909
0.00806553
0.0110756
0.0147131
0.0190184
0.0240109
0.0296819
0.03599
0.0428595
0.0501872
0.000120776
0.000539646
0.00108106
0.00200364
0.00327328
0.00494442
0.00708524
0.00976661
0.0130575
0.0170187
0.0216937
0.0271004
0.0332221
0.0400013
0.0473402
0.000363614
0.000600936
0.00100058
0.00181144
0.00294749
0.00444785
0.00637971
0.00881751
0.0118375
0.0155123
0.0199027
0.025048
0.0309553
0.0375888
0.0448631
0.000411926
0.000565213
0.000921771
0.00165394
0.00268468
0.00405771
0.00583165
0.0080808
0.0108844
0.0143218
0.0184648
0.0233688
0.0290607
0.035527
0.0427037
0.000404092
0.000535751
0.000884629
0.00152604
0.00246931
0.00373968
0.00538753
0.00748432
0.01011
0.0133474
0.0172755
0.0219603
0.0274435
0.0337245
0.0407308
0.000396583
0.000526126
0.000871779
0.00142326
0.00229362
0.00347551
0.00501866
0.0069885
0.00946428
0.0125303
0.0162699
0.0207573
0.0260463
0.0321569
0.0390723
0.000391962
0.000524133
0.000861278
0.00133916
0.00214719
0.00325236
0.00470663
0.00656843
0.00891539
0.0118323
0.0154055
0.0197152
0.0248256
0.0307732
0.037556
0.000387994
0.000522494
0.000848984
0.00126865
0.00202349
0.00306341
0.00443891
0.0062069
0.00844157
0.0112275
0.0146526
0.0188019
0.0237479
0.0295392
0.0361861
0.000384014
0.000519556
0.00083543
0.00121139
0.00191781
0.00290126
0.00420625
0.00589171
0.00802742
0.010697
0.0139894
0.0179928
0.0227855
0.0284227
0.0349142
0.000380317
0.000517428
0.000828597
0.00118697
0.00182864
0.00276002
0.00400164
0.00561385
0.00766149
0.0102269
0.0133995
0.0172697
0.021921
0.0274191
0.0338065
0.000377192
0.000517316
0.000829569
0.00118239
0.00175376
0.00263614
0.00382119
0.00536675
0.00733523
0.00980668
0.0128705
0.016619
0.0211399
0.026507
0.0327689
0.000374526
0.000518274
0.000833367
0.00118033
0.00168983
0.00252696
0.00366127
0.00514535
0.00704211
0.00942831
0.0123929
0.0160293
0.0204281
0.0256663
0.0317856
0.000372057
0.000518949
0.000835991
0.00117507
0.00163384
0.00242997
0.00351811
0.0049456
0.00677693
0.0090853
0.0119588
0.0154913
0.0197752
0.0248904
0.0308868
0.0003696
0.00051868
0.000836029
0.00116647
0.00158577
0.00234301
0.00338875
0.00476406
0.00653553
0.00877249
0.0115619
0.014998
0.0191753
0.0241798
0.0300857
0.000367164
0.000517842
0.000835169
0.00116013
0.00155869
0.00226621
0.00327157
0.0045993
0.00631472
0.00848574
0.0111974
0.014544
0.018622
0.0235223
0.0293224
0.000364878
0.000517243
0.0008358
0.00115982
0.00155094
0.00219963
0.00316539
0.0044492
0.00611186
0.00822169
0.0108612
0.0141245
0.0181094
0.0229096
0.0286026
0.000362823
0.000517239
0.000838418
0.0011637
0.00154961
0.00214163
0.00306892
0.00431163
0.00592473
0.00797758
0.0105499
0.0137352
0.0176322
0.0223361
0.0279245
0.000360968
0.000517595
0.000841951
0.00116844
0.00154759
0.00209006
0.00298086
0.00418486
0.0057514
0.00775105
0.0102605
0.0133727
0.0171865
0.0217984
0.0272897
0.000359231
0.000517887
0.00084511
0.00117186
0.00154286
0.00204331
0.00289997
0.00406756
0.00559041
0.00754011
0.00999068
0.013034
0.0167691
0.0212937
0.0266917
0.000357535
0.000517822
0.000847133
0.00117322
0.00153591
0.00200291
0.00282549
0.00395887
0.00544123
0.00734316
0.0097382
0.0127162
0.0163758
0.0208134
0.0261053
0.000355854
0.000517395
0.000848153
0.00117356
0.00153035
0.00197748
0.00275795
0.00385807
0.00530241
0.00715877
0.00950129
0.0124177
0.0160065
0.0203683
0.0256079
0.000354215
0.000516842
0.000848964
0.00117467
0.00152926
0.0019676
0.00269786
0.00376456
0.00517273
0.00698566
0.00927845
0.0121364
0.0156576
0.0199415
0.0250694
0.000352661
0.000516416
0.000850273
0.00117744
0.00153222
0.00196519
0.00264448
0.00367773
0.0050512
0.00682274
0.00906832
0.0118708
0.0153271
0.0195364
0.0245852
0.000351212
0.000516222
0.000852254
0.00118157
0.00153709
0.00196411
0.00259641
0.00359689
0.00493699
0.00666895
0.00886967
0.0116191
0.0150132
0.0191505
0.0241202
0.000349873
0.000516162
0.000854603
0.00118615
0.00154194
0.00196172
0.00255237
0.00352139
0.00482952
0.00652411
0.00868155
0.0113805
0.0147159
0.0187895
0.0237124
0.000348597
0.000516108
0.000856862
0.00119032
0.00154561
0.00195731
0.00251172
0.00345067
0.00472835
0.00638753
0.00850318
0.011154
0.014434
0.0184466
0.0232999
0.000347352
0.000515956
0.000858679
0.00119358
0.00154775
0.00195144
0.00247616
0.00338444
0.00463295
0.00625839
0.00833386
0.010939
0.0141665
0.0181216
0.0229142
0.000346137
0.000515633
0.000859942
0.0011959
0.00154894
0.00194632
0.00245122
0.00332311
0.00454287
0.00613601
0.00817291
0.0107343
0.0139111
0.0178062
0.0225132
0.000344948
0.00051516
0.000860786
0.00119776
0.00155037
0.00194429
0.00243867
0.00326724
0.00445787
0.00601983
0.00801968
0.0105392
0.0136676
0.0175082
0.022173
0.000343772
0.000514663
0.000861517
0.00119975
0.00155294
0.00194582
0.00243411
0.00321669
0.00437768
0.00590936
0.00787355
0.010353
0.0134348
0.0172216
0.0218155
0.000342649
0.000514225
0.000862402
0.00120225
0.00155684
0.00194982
0.00243269
0.00317068
0.00430194
0.00580423
0.00773418
0.0101748
0.0132114
0.0169446
0.0214735
0.000341591
0.000513865
0.000863545
0.0012053
0.00156167
0.00195483
0.00243146
0.00312831
0.00423039
0.00570417
0.00760144
0.0100044
0.0129979
0.0166835
0.021178
0.000340577
0.000513587
0.000864875
0.00120866
0.0015668
0.00195971
0.00242916
0.0030888
0.00416266
0.00560888
0.00747479
0.00984104
0.0127926
0.0164286
0.0208473
0.000339599
0.000513366
0.000866253
0.00121201
0.00157169
0.00196376
0.00242544
0.00305187
0.00409842
0.00551804
0.00735374
0.00968441
0.0125958
0.0161868
0.020573
0.000338671
0.000513114
0.000867525
0.00121507
0.00157594
0.0019667
0.00242054
0.00301846
0.00403748
0.00543134
0.00723787
0.0095341
0.0124069
0.0159548
0.0202941
0.00033776
0.000512799
0.000868563
0.00121766
0.00157944
0.0019687
0.00241559
0.00299161
0.00398003
0.00534851
0.00712682
0.00938988
0.0122261
0.0157354
0.0200446
0.000336856
0.000512434
0.000869333
0.00121978
0.00158233
0.00197042
0.00241226
0.00297422
0.00392649
0.00526942
0.00702036
0.00925144
0.0120526
0.0155221
0.0197733
0.000335982
0.000511997
0.000869887
0.00122156
0.00158498
0.00197261
0.00241164
0.00296533
0.00387713
0.00519395
0.00691823
0.00911841
0.0118857
0.0153161
0.0195204
0.00033512
0.000511528
0.00087032
0.00122323
0.00158777
0.00197577
0.00241369
0.00296169
0.00383178
0.00512199
0.00682023
0.00899058
0.011724
0.0151126
0.019251
0.000334272
0.000511089
0.000870751
0.00122498
0.00159096
0.00197999
0.00241764
0.00296031
0.00378992
0.00505338
0.00672613
0.00886765
0.0115677
0.0149179
0.0190259
0.00033346
0.000510686
0.000871275
0.00122693
0.0015946
0.00198501
0.00242257
0.00295934
0.0037509
0.00498792
0.00663576
0.00874925
0.0114165
0.0147289
0.0187883
0.000332688
0.000510304
0.0008719
0.0012291
0.00159859
0.00199046
0.00242765
0.00295781
0.00371426
0.00492541
0.00654889
0.0086351
0.0112703
0.0145459
0.0185636
0.000331931
0.000509976
0.000872607
0.00123139
0.00160273
0.00199595
0.00243235
0.00295535
0.00367965
0.00486561
0.00646529
0.00852483
0.0111284
0.0143676
0.0183406
0.000331207
0.000509676
0.000873344
0.00123369
0.00160681
0.00200116
0.00243636
0.00295189
0.00364714
0.00480833
0.00638477
0.00841832
0.0109915
0.0141977
0.0181434
0.000330515
0.000509362
0.000874047
0.00123589
0.00161064
0.00200588
0.00243956
0.00294773
0.00361775
0.00475351
0.00630713
0.00831522
0.010858
0.0140271
0.0179055
0.000329833
0.000509034
0.00087465
0.00123789
0.00161412
0.00201003
0.0024421
0.00294362
0.00359354
0.00470126
0.00623222
0.00821544
0.0107291
0.0138682
0.0177467
0.000329158
0.000508706
0.000875136
0.00123965
0.0016172
0.00201369
0.00244437
0.00294061
0.00357636
0.0046519
0.00615996
0.00811882
0.0106039
0.0137097
0.0175208
0.00032851
0.000508333
0.000875505
0.00124116
0.00161995
0.00201708
0.00244684
0.00293957
0.00356608
0.00460567
0.0060903
0.00802517
0.0104821
0.0135542
0.017326
0.00032787
0.000507934
0.000875767
0.0012425
0.0016225
0.00202043
0.00244994
0.00294068
0.00356091
0.00456256