/*--------------------------------*- C++ -*----------------------------------*\
| =========                 |                                                 |
| \\      /  F ield         | OpenFOAM: The Open Source CFD Toolbox           |
|  \\    /   O peration     | Version:  2.3.0                                 |
|   \\  /    A nd           | Web:      www.OpenFOAM.org                      |
|    \\/     M anipulation  |                                                 |
\*---------------------------------------------------------------------------*/
FoamFile
{
    version     2.0;
    format      ascii;
    class       surfaceScalarField;
    location    "800";
    object      phi;
}
// * * * * * * * * * * * * * * * * * * * * * * * * * * * * * * * * * * * * * //

dimensions      [0 3 -1 0 0 0 0];

internalField   nonuniform List<scalar> 
15537
(
-0.00314248
-0.0203913
0.0222499
0.00128389
-0.00458729
-0.0171835
0.0186283
-0.00569388
-0.0145038
0.0156104
-0.00651937
-0.0122667
0.0130921
-0.00710244
-0.0103998
0.0109829
-0.00746936
-0.00884133
0.00920824
-0.00763992
-0.00753855
0.00770911
-0.00763139
-0.00644846
0.00643994
-0.00746327
-0.00553453
0.00536641
-0.00715463
-0.00476835
0.0044597
-0.00672661
-0.00412549
0.00369747
-0.00619874
-0.00358666
0.00305879
-0.00558995
-0.0031352
0.00252641
-0.00491805
-0.00275699
0.00208509
-0.0024405
-0.00417765
0.0017001
-0.00285117
-0.0187456
0.00120544
-0.00408937
-0.0159453
-0.00498712
-0.013606
-0.00560197
-0.0116518
-0.00598225
-0.0100196
-0.00616698
-0.00865659
-0.00618591
-0.00751962
-0.00606304
-0.00657134
-0.00581689
-0.00578068
-0.00546328
-0.00512196
-0.00501587
-0.0045729
-0.00448685
-0.00411567
-0.00388732
-0.00373473
-0.00322704
-0.00341727
-0.00315289
-0.00251465
-0.00259372
-0.0172654
0.00111353
-0.00369999
-0.014839
-0.00449136
-0.0128147
-0.00501727
-0.0111259
-0.00531937
-0.00971746
-0.0054331
-0.00854287
-0.00538922
-0.0075635
-0.00521367
-0.00674689
-0.00492798
-0.00606636
-0.00455118
-0.00549876
-0.00409824
-0.00502584
-0.00358242
-0.00463149
-0.00301427
-0.00430289
-0.00240291
-0.00402863
-0.00379998
-0.00175581
-0.00232635
-0.0159423
0.00100325
-0.00330729
-0.0138581
-0.00400197
-0.01212
-0.00445695
-0.0106709
-0.00471165
-0.00946276
-0.00479893
-0.00845558
-0.00474636
-0.00761607
-0.00457713
-0.00691612
-0.00431032
-0.00633318
-0.00396248
-0.0058466
-0.00354725
-0.00544108
-0.0030758
-0.00510294
-0.00255792
-0.00482076
-0.00200123
-0.00458532
-0.00438873
-0.00141248
-0.00208695
-0.0147534
0.000898048
-0.00296467
-0.0129804
-0.00358259
-0.0115021
-0.00398381
-0.0102697
-0.00420387
-0.0092427
-0.00427298
-0.00838647
-0.00421648
-0.00767257
-0.00405503
-0.00707757
-0.003807
-0.0065812
-0.00348634
-0.00616727
-0.0031055
-0.00582192
-0.00267471
-0.00553372
-0.00220261
-0.00529286
-0.00169596
-0.00509198
-0.00492378
-0.00116091
-0.00187105
-0.0136831
0.000800724
-0.00265966
-0.0121918
-0.00321331
-0.0109484
-0.00357063
-0.00991238
-0.00376486
-0.00904847
-0.00382302
-0.0083283
-0.00376791
-0.00772768
-0.00361855
-0.00722693
-0.00339084
-0.00680891
-0.00309789
-0.00646022
-0.00275076
-0.00616906
-0.00235861
-0.00592587
-0.00192897
-0.0057225
-0.00146841
-0.00555253
-0.00541028
-0.000981919
-0.00167956
-0.0127168
0.000713238
-0.00239047
-0.0114809
-0.00288846
-0.0104504
-0.00320919
-0.00959165
-0.00338231
-0.00887536
-0.00343255
-0.00827807
-0.00338022
-0.00778001
-0.0032431
-0.00736405
-0.00303485
-0.00701716
-0.00276765
-0.00672742
-0.00245154
-0.00648517
-0.00209476
-0.00628265
-0.00170391
-0.00611335
-0.00128507
-0.00597138
-0.0058525
-0.000842845
-0.00150947
-0.0118431
0.00063583
-0.00215177
-0.0108386
-0.00260127
-0.0100009
-0.00289047
-0.00930244
-0.00304579
-0.00872004
-0.00308978
-0.00823408
-0.00304112
-0.00782867
-0.00291536
-0.00748981
-0.00272546
-0.00720706
-0.00248217
-0.0069707
-0.00219434
-0.006773
-0.00186981
-0.00660718
-0.00151454
-0.00646862
-0.00113372
-0.0063522
-0.00625458
-0.000731635
-0.0013584
-0.0110521
0.000567417
-0.00193988
-0.0102571
-0.00234655
-0.00959426
-0.00260744
-0.00904155
-0.00274732
-0.00858016
-0.00278622
-0.00819518
-0.00274149
-0.0078734
-0.00262633
-0.00760496
-0.00245344
-0.00737995
-0.00223195
-0.00719219
-0.00197047
-0.00703448
-0.00167501
-0.00690264
-0.00135196
-0.00679167
-0.00100574
-0.00669843
-0.00662003
-0.00064029
-0.00122423
-0.0103352
0.000507318
-0.00175075
-0.00973056
-0.00211884
-0.00922617
-0.00235502
-0.00880537
-0.00248142
-0.00845377
-0.00251625
-0.00816035
-0.00247474
-0.0079149
-0.00237027
-0.00770944
-0.00221264
-0.00753759
-0.00201128
-0.00739354
-0.00177309
-0.00727266
-0.00150461
-0.00717112
-0.00121099
-0.00708529
-0.000896127
-0.00701329
-0.0069523
-0.000563854
-0.00110446
-0.00968508
0.000454316
-0.00158175
-0.00925327
-0.00191542
-0.0088925
-0.00212945
-0.00859134
-0.00224362
-0.00833959
-0.00227495
-0.00812902
-0.00223705
-0.0079528
-0.00214142
-0.00780507
-0.00199796
-0.00768104
-0.00181462
-0.00757689
-0.00159817
-0.00748912
-0.00135435
-0.00741494
-0.00108711
-0.00735254
-0.000800964
-0.00729943
-0.00725441
-0.00049886
-0.00099737
-0.00909529
0.000407584
-0.00143036
-0.00882028
-0.00173293
-0.00858993
-0.00192681
-0.00839745
-0.00203009
-0.00823632
-0.00205826
-0.00810085
-0.00202362
-0.00798744
-0.00193689
-0.0078918
-0.00180635
-0.00781159
-0.00163974
-0.0077435
-0.00144284
-0.00768601
-0.00122072
-0.00763707
-0.000977965
-0.00759529
-0.000717697
-0.0075597
-0.007529
-0.000443106
-0.000900816
-0.00856014
0.000365664
-0.0012941
-0.008427
-0.00156847
-0.00831557
-0.00174452
-0.0082214
-0.00183852
-0.00814232
-0.00186367
-0.0080757
-0.00183205
-0.00801906
-0.00175285
-0.007971
-0.00163432
-0.00793011
-0.00148271
-0.00789511
-0.00130351
-0.00786521
-0.0011019
-0.00783868
-0.000881096
-0.00781609
-0.000644496
-0.0077963
-0.00777869
-0.000394806
-0.000814594
0.000328036
-0.00807358
-0.00117158
-0.00807001
-0.00142072
-0.00806643
-0.00158056
-0.00806155
-0.00166532
-0.00805757
-0.0016885
-0.00805251
-0.00165958
-0.00804799
-0.00158754
-0.00804303
-0.00147973
-0.00803793
-0.001342
-0.00803283
-0.00117907
-0.00802815
-0.000995413
-0.00802233
-0.000794676
-0.00801683
-0.000579639
-0.00801134
-0.000352777
-0.00800555
-0.00328377
-0.00241806
0.00152417
-0.00244699
-0.00268258
0.0018458
-0.00164948
-0.00300378
0.00220627
-0.000890424
-0.00339298
0.00263393
-0.000174144
-0.00386442
0.00314814
0.00048992
-0.00443483
0.00377076
0.00108609
-0.00512422
0.00452806
0.00159144
-0.00595711
0.00545176
0.00197387
-0.0069615
0.00657907
0.00219195
-0.00817153
0.00795344
0.00219618
-0.00962809
0.00962386
0.00192974
-0.0113796
0.0116461
0.00133262
-0.0134869
0.014084
0.000340371
-0.0160221
0.0170144
-0.0190745
0.0205308
-0.00111596
-0.0017887
-0.00314401
-0.00108374
-0.00338753
-0.000407466
-0.00368005
0.000230551
-0.004031
0.000818535
-0.0044524
0.00134206
-0.00495835
0.00178356
-0.00556573
0.00212129
-0.00629483
0.00233088
-0.0071711
0.00238333
-0.00822398
0.00224585
-0.0094906
0.00188077
-0.0110146
0.00124315
-0.0128492
0.000278875
-0.0150579
-0.0177168
-0.00107887
-0.00110749
-0.00379233
-0.000490622
-0.0040044
8.8532e-05
-0.00425921
0.000622842
-0.00456531
0.00110337
-0.00493293
0.00151974
-0.00537472
0.00185911
-0.00590509
0.00210637
-0.0065421
0.00224252
-0.00730725
0.00224448
-0.00822593
0.00208376
-0.00932988
0.00172502
-0.0106558
0.00112503
-0.0122492
0.000231766
-0.0141646
-0.0164667
-0.0010183
-0.000822537
-0.00438228
-0.000262131
-0.00456481
0.000263099
-0.00478444
0.000746351
-0.00504856
0.00117924
-0.00536582
0.0015518
-0.00574728
0.00185195
-0.00620525
0.00206499
-0.00675513
0.00217361
-0.00741587
0.00215652
-0.00820885
0.00198772
-0.00916108
0.00163659
-0.0103047
0.00106561
-0.0116783
0.000229042
-0.013328
-0.0153103
-0.000927354
-0.000625497
-0.00491769
-0.000117521
-0.00507279
0.000357737
-0.00525969
0.000793741
-0.00548457
0.00118307
-0.00575515
0.00151607
-0.00608028
0.00178204
-0.00647122
0.00196796
-0.00694105
0.00205706
-0.00750497
0.0020307
-0.00818248
0.00186574
-0.00899612
0.00153363
-0.00997259
0.00100103
-0.0111456
0.000226884
-0.0125539
-0.0142452
-0.000838227
-0.000495186
-0.00540442
-3.36027e-05
-0.00553437
0.000397892
-0.00569119
0.000793529
-0.00588021
0.00114598
-0.0061076
0.00144702
-0.00638132
0.00168654
-0.00671074
0.00185178
-0.0071063
0.00192864
-0.00758183
0.00189932
-0.00815316
0.00174242
-0.00883922
0.00143292
-0.00966308
0.00093964
-0.0106524
0.00022563
-0.0118399
-0.0132661
-0.00075346
-0.000400488
-0.00584678
1.89751e-05
-0.00595383
0.000410936
-0.00608315
0.000769921
-0.00623919
0.00108965
-0.00642733
0.0013622
-0.00665387
0.00157811
-0.00692665
0.00172668
-0.00725486
0.00179387
-0.00764902
0.00176411
-0.00812341
0.00161768
-0.00869279
0.00133139
-0.00937679
0.000877347
-0.0101983
0.000222295
-0.0111848
-0.0123693
-0.000674546
-0.000329539
-0.00624887
5.16674e-05
-0.00633504
0.000407817
-0.0064393
0.000733926
-0.0065653
0.00102415
-0.00671756
0.00127143
-0.00690114
0.00146681
-0.00712203
0.00160055
-0.0073886
0.00166056
-0.00770903
0.00163132
-0.00809417
0.00149581
-0.00855727
0.00123264
-0.00911363
0.000816417
-0.0097821
0.000216402
-0.0105848
-0.0115486
-0.000604301
-0.000274727
-0.00661444
7.17534e-05
-0.00668152
0.000395377
-0.00676292
0.00069173
-0.00686165
0.000955229
-0.00698106
0.00117945
-0.00712536
0.00135699
-0.00729958
0.00147781
-0.00750942
0.00153114
-0.00776237
0.00150343
-0.00806645
0.0013787
-0.00843255
0.00113762
-0.00887254
0.000756733
-0.00940121
0.000208409
-0.0100365
-0.0107991
-0.00054102
-0.000231489
-0.0069468
8.34298e-05
-0.00699644
0.000377567
-0.00705706
0.000646781
-0.00713087
0.000886273
-0.00722055
0.00109002
-0.0073291
0.00125073
-0.00746029
0.00136031
-0.007619
0.00140796
-0.00781002
0.00138218
-0.00804067
0.00126784
-0.00831821
0.00104716
-0.00865186
0.000699197
-0.00905324
0.000198671
-0.00953598
-0.0101154
-0.000485107
-0.000196815
-0.00724885
8.94271e-05
-0.00728268
0.000356828
-0.00732446
0.000601606
-0.00737564
0.000819076
-0.00743802
0.00100406
-0.00751409
0.00115005
-0.00760627
0.00124922
-0.00771817
0.00129255
-0.00785335
0.00126839
-0.00801652
0.00116355
-0.00821337
0.000962085
-0.0084504
0.000644699
-0.00873586
0.000188062
-0.00907934
-0.00949199
-0.000435309
-0.000168506
-0.00752345
9.17004e-05
-0.00754289
0.000334717
-0.00756748
0.000557147
-0.00759807
0.000754839
-0.00763571
0.000922997
-0.00768225
0.00105549
-0.00773876
0.00114541
-0.0078081
0.00118435
-0.00789229
0.00116198
-0.00799415
0.00106616
-0.00811755
0.000882494
-0.00826673
0.000593226
-0.00844659
0.000176959
-0.00866308
-0.00892414
-0.000390893
-0.000145136
-0.00777312
9.13404e-05
-0.00777936
0.000312188
-0.00778832
0.0005144
-0.00780029
0.000694236
-0.00781555
0.00084676
-0.00783477
0.000967171
-0.00785918
0.00104876
-0.00788969
0.00108387
-0.0079274
0.00106332
-0.00797359
0.000976104
-0.00803034
0.000808462
-0.00809909
0.000544788
-0.00818292
0.000165803
-0.00828409
-0.00840668
-0.000351655
-0.000125642
-0.00800025
8.91478e-05
-0.00799415
0.000289924
-0.0079891
0.000473762
-0.00798412
0.000636978
-0.00797876
0.000775629
-0.00797342
0.000885073
-0.00796862
0.000959271
-0.00796389
0.000991194
-0.00795932
0.000972387
-0.00795479
0.000892626
-0.00795058
0.000739975
-0.00794644
0.00049984
-0.00794278
0.000154762
-0.00793901
-0.00031587
-0.00793605
0.00158061
0.0196997
-0.0213548
7.44285e-05
0.00277999
0.0165041
-0.0177035
0.00359456
0.0138261
-0.0146406
0.00408501
0.0115773
-0.0120678
0.00430474
0.00968963
-0.00990935
0.00430284
0.00810722
-0.00810533
0.00412349
0.00678377
-0.00660442
0.00380561
0.00567904
-0.00536117
0.00338277
0.00475784
-0.00433499
0.00288356
0.00398894
-0.00348973
0.00233247
0.0033444
-0.00279331
0.00175152
0.00279809
-0.00221714
0.00116079
0.00232542
-0.00173469
0.000570978
0.00190917
-0.00131935
0.00158006
-4.71365e-05
-0.000961943
0.0014318
0.0181975
7.04187e-05
0.00252239
0.0154135
0.00326766
0.0130808
0.00372248
0.0111225
0.00393494
0.00947717
0.00394771
0.00809446
0.00379819
0.00693328
0.00351967
0.00595757
0.00314093
0.00513657
0.00268706
0.00444282
0.00218037
0.00385108
0.00164087
0.00333759
0.0010861
0.00288019
0.00052446
0.00247081
0.00215976
-5.52451e-05
0.0013022
0.0168301
6.51758e-05
0.00229656
0.0144191
0.00297849
0.0123988
0.00339808
0.0107029
0.00359817
0.00927708
0.00361645
0.00807618
0.00348619
0.00706354
0.00323656
0.0062072
0.00289322
0.00547991
0.00247877
0.00485727
0.00201307
0.00431678
0.00151448
0.00383618
0.000998712
0.00339597
0.000475112
0.00299441
0.00269515
-6.02801e-05
0.00118292
0.0155877
5.95463e-05
0.00208752
0.0135146
0.00270865
0.0117777
0.00309241
0.0103192
0.00327785
0.00909163
0.00329854
0.00805549
0.00318434
0.00717774
0.00296079
0.00643076
0.00265052
0.00579018
0.00227342
0.00523437
0.00184757
0.00474263
0.00138934
0.00429441
0.000913472
0.00387183
0.000429974
0.0034779
0.00318714
-6.20095e-05
0.00107332
0.0144594
5.48939e-05
0.00189515
0.0126927
0.00246068
0.0112122
0.0028116
0.00996826
0.00298303
0.0089202
0.00300554
0.00803298
0.00290517
0.00727812
0.0027047
0.00663122
0.00242413
0.00607074
0.00208124
0.00557726
0.00169218
0.00513169
0.00127194
0.00471465
0.000834389
0.00430938
0.000389791
0.0039225
0.00363884
-6.1914e-05
0.000973812
0.0134339
5.16958e-05
0.00172135
0.0119452
0.00223622
0.0106973
0.00255656
0.00964793
0.00271482
0.00876194
0.00273782
0.00800998
0.00264903
0.00736691
0.0024688
0.00681145
0.00221482
0.00632472
0.00190303
0.00588905
0.00154789
0.00548683
0.00116324
0.00509931
0.000761803
0.00471082
0.000353754
0.00433055
0.00405313
-6.05378e-05
0.000883719
0.012502
4.82352e-05
0.0015631
0.0112658
0.00203195
0.0102285
0.00232466
0.00935522
0.0024701
0.00861649
0.00249291
0.00798717
0.00241422
0.0074456
0.00225182
0.00697386
0.00202187
0.00655467
0.0017384
0.00617251
0.0014146
0.00581063
0.00106283
0.00545108
0.000695134
0.00507851
0.000321332
0.00470435
0.00443264
-5.8176e-05
0.000802399
0.0116556
4.39477e-05
0.00142011
0.0106481
0.00184656
0.00980202
0.00211349
0.00908828
0.00224707
0.00848291
0.00226942
0.00796482
0.00219917
0.00751585
0.00205295
0.00712008
0.00184459
0.00676303
0.00158705
0.00643005
0.00129193
0.00610576
0.00097063
0.00577238
0.000634179
0.00541496
0.000291741
0.00504679
0.00477998
-5.55974e-05
0.000728085
0.0108855
4.20817e-05
0.00128982
0.0100864
0.00167825
0.00941359
0.00192147
0.00884507
0.00204384
0.00836054
0.00206546
0.00794321
0.00200293
0.00757838
0.00187096
0.00725204
0.00168234
0.00695164
0.00144829
0.0066641
0.00117951
0.00637455
0.000886197
0.00606569
0.000578497
0.00572266
0.000265263
0.00536003
0.00509793
-5.26895e-05
0.000660856
0.010186
3.85688e-05
0.00117169
0.00957552
0.00152508
0.0090602
0.00174709
0.00862305
0.00185905
0.00824858
0.0018794
0.00792285
0.00182378
0.00763401
0.00170468
0.00737114
0.00153387
0.00712245
0.00132146
0.00687651
0.00107686
0.00661915
0.000809358
0.00633319
0.000528214
0.00600381
0.000241462
0.00564678
0.00538895
-4.95569e-05
0.00060003
0.00955026
3.57475e-05
0.00106457
0.00911099
0.00138603
0.00873874
0.00158815
0.00842093
0.00169082
0.00814591
0.00171007
0.00790361
0.00166023
0.00768385
0.00155289
0.00747848
0.00139825
0.0072771
0.00120556
0.00706919
0.000983344
0.00684137
0.000739588
0.00657694
0.000482356
0.00626104
0.000219794
0.00590934
0.00565591
-4.71595e-05
0.000544765
0.00897211
3.33811e-05
0.000967277
0.00868848
0.00125961
0.00844641
0.00144358
0.00823695
0.00153736
0.00805213
0.00155565
0.00788532
0.00151099
0.00772852
0.00141413
0.00757534
0.00127411
0.00741711
0.00109945
0.00724386
0.000898168
0.00704265
0.000676975
0.00679814
0.000443054
0.00649496
0.000202022
0.00615037
0.00590132
-4.33882e-05
0.000494751
0.00844677
3.05893e-05
0.000878812
0.00830442
0.00114481
0.00818042
0.00131249
0.00806927
0.00139779
0.00796684
0.00141495
0.00786815
0.00137483
0.00776864
0.00128738
0.0076628
0.00116059
0.0075439
0.00100231
0.00740214
0.000820559
0.0072244
0.000621148
0.00699755
0.000404467
0.00671164
0.000183625
0.00637121
0.00612884
-4.38987e-05
0.000449268
2.84352e-05
0.00796907
0.000798608
0.00795507
0.00104064
0.00793839
0.00119302
0.00791688
0.00127097
0.00788889
0.00128663
0.00785249
0.00125081
0.00780446
0.00117235
0.00774125
0.00105706
0.00765919
0.000911629
0.00754757
0.000749435
0.0073866
0.000572543
0.00717444
0.000381907
0.00690228
0.000176326
0.00657679
-4.01618e-05
0.00634533
-0.000663713
0.00163418
-0.00101761
-0.00128376
0.00202507
-0.00140503
-0.00191347
0.0024772
-0.0018475
-0.00253307
0.00297871
-0.0023591
-0.00311896
0.00355489
-0.002969
-0.00364667
0.00423173
-0.00370402
-0.00408843
0.0050339
-0.00459215
-0.00441349
0.00598686
-0.00566179
-0.00458599
0.00711755
-0.00694504
-0.00456768
0.00845647
-0.00847478
-0.00431818
0.0100393
-0.0102888
-0.00379545
0.0119107
-0.0124334
-0.00295235
0.0141295
-0.0149726
-0.00173315
0.0167709
-0.0179901
0.0199231
-0.0215873
-6.89654e-05
-0.000641763
0.0022207
-0.00123148
0.00261479
-0.00182236
0.00306809
-0.00239749
0.00355384
-0.00293473
0.00409213
-0.00341169
0.00470869
-0.0038039
0.00542611
-0.00408451
0.00626747
-0.00422425
0.00725728
-0.00419111
0.00842333
-0.00395137
0.00979952
-0.00346777
0.0114271
-0.00269748
0.0133592
-0.00158733
0.0156608
0.0184092
-7.34124e-05
-0.00060568
0.0027661
-0.00115599
0.0031651
-0.00170493
0.00361703
-0.00223538
0.00408429
-0.00272758
0.00458432
-0.00316076
0.00514187
-0.00351347
0.00577882
-0.00376203
0.00651602
-0.00388117
0.00737642
-0.00384339
0.00838556
-0.00361863
0.00957476
-0.00317359
0.010982
-0.00246888
0.0126545
-0.00145632
0.0146482
0.0170301
-7.71533e-05
-0.000565212
0.0032693
-0.00107452
0.00367441
-0.0015808
0.0041233
-0.00206737
0.00457087
-0.00251589
0.00503284
-0.00290796
0.00553394
-0.00322456
0.00609542
-0.00344513
0.00673659
-0.00354805
0.00747934
-0.00350932
0.00834683
-0.00330225
0.00936769
-0.00289633
0.0105761
-0.00225475
0.0120129
-0.00133361
0.0137271
0.0157757
-7.92244e-05
-0.000524655
0.00373205
-0.000993792
0.00414354
-0.00145918
0.00458869
-0.0019045
0.00501619
-0.00231289
0.00544123
-0.00266757
0.00588862
-0.00295178
0.00637963
-0.00314848
0.0069333
-0.00323782
0.00756868
-0.0031994
0.00830841
-0.00300935
0.00917764
-0.00263935
0.0102061
-0.00205621
0.0114298
-0.00121893
0.0128898
0.014635
-7.83151e-05
-0.000485339
0.00415685
-0.000916224
0.00457443
-0.0013431
0.00501557
-0.00175
0.00542309
-0.00212135
0.00581258
-0.00244251
0.00620979
-0.00269876
0.00663588
-0.00287419
0.00710873
-0.00295285
0.00764735
-0.00291583
0.00827139
-0.00274152
0.00900333
-0.00240471
0.00986929
-0.001874
0.0108991
-0.0011127
0.0121285
0.0135983
-7.59319e-05
-0.000447796
0.00454647
-0.000843133
0.00496977
-0.00123399
0.00540643
-0.00160515
0.00579424
-0.00194274
0.00615017
-0.00223353
0.00650058
-0.0024642
0.00686654
-0.00262161
0.00726614
-0.00269114
0.00771688
-0.00265585
0.00823609
-0.00249652
0.008844
-0.0021898
0.00956257
-0.0017074
0.0104167
-0.0010153
0.0114364
0.0126556
-7.25895e-05
-0.000412489
0.00490336
-0.000774682
0.00533196
-0.00113196
0.0057637
-0.00147058
0.00613287
-0.00177727
0.00645686
-0.00204035
0.00676366
-0.00224856
0.00707475
-0.00238996
0.00740753
-0.00245155
0.00777848
-0.00241855
0.00820309
-0.00227296
0.00869841
-0.00199362
0.00928323
-0.00155481
0.00997788
-0.000925623
0.0108072
0.0117987
-6.87877e-05
-0.000379687
0.00523036
-0.000711039
0.00566331
-0.00103752
0.00609018
-0.00134589
0.00644125
-0.00162439
0.00673536
-0.00186273
0.007002
-0.00205044
0.00726245
-0.00217785
0.00753494
-0.00223246
0.00783309
-0.00220151
0.00817214
-0.00206864
0.00856554
-0.00181441
0.009029
-0.00141551
0.00957897
-0.000843419
0.0102351
0.0110198
-6.44646e-05
-0.000348853
0.00552965
-0.000652515
0.00596697
-0.000950675
0.00638834
-0.00123152
0.00672209
-0.00148449
0.00698832
-0.00169996
0.00721748
-0.00186954
0.00743203
-0.00198358
0.00764898
-0.00203257
0.00788208
-0.00200358
0.00814316
-0.00188224
0.0084442
-0.00165097
0.00879773
-0.00128819
0.0092162
-0.000768303
0.00971522
0.0103117
-6.0259e-05
-0.000321378
0.00580387
-0.000598965
0.00624456
-0.000871238
0.00666062
-0.00112649
0.00697735
-0.00135567
0.00721751
-0.00155056
0.00741237
-0.00170352
0.00758499
-0.00180653
0.00775199
-0.00184999
0.00792554
-0.00182304
0.00811621
-0.00171254
0.00833369
-0.0015019
0.00858709
-0.00117211
0.00888641
-0.000699624
0.00924273
0.00966799
-5.58757e-05
-0.000295146
0.00605563
-0.000549667
0.00649908
-0.000798317
0.00690927
-0.00103093
0.00720996
-0.00123863
0.0074252
-0.00141443
0.00758817
-0.00155213
0.00772268
-0.00164426
0.00784413
-0.00168307
0.00796435
-0.00165816
0.0080913
-0.00155745
0.00823298
-0.00136612
0.00839577
-0.00106623
0.00858652
-0.000636672
0.00881317
0.00908289
-5.15743e-05
-0.000274462
0.00628619
-0.000506703
0.00673132
-0.000733013
0.00713558
-0.000943411
0.00742036
-0.00113106
0.00761285
-0.00128873
0.00774584
-0.00141257
0.00784653
-0.00149593
0.00792748
-0.00153075
0.00799917
-0.00150819
0.00806874
-0.00141626
0.00814105
-0.00124202
0.00822152
-0.000969699
0.0083142
-0.000579013
0.00842249
0.00855133
-4.7451e-05
-0.000250351
0.00649638
-0.000464474
0.00694544
-0.00067204
0.00734314
-0.000864264
0.00761258
-0.00103318
0.00778177
-0.00117525
0.0078879
-0.0012857
0.00795698
-0.00136042
0.0080022
-0.00139185
0.0080306
-0.00137101
0.00804789
-0.00128775
0.0080578
-0.00112951
0.00806329
-0.000881686
0.00806637
-0.000526872
0.00806767
-4.33392e-05
0.0080678
0.000272709
0.00142739
0.000395789
0.00196201
0.000505707
0.00241649
0.000617806
0.00294669
0.000735737
0.00357954
0.00085775
0.00433769
0.000978635
0.00524553
0.00109063
0.00632794
0.00118402
0.00761573
0.00124899
0.00914327
0.00127865
0.0109533
0.00127137
0.0130994
0.00123195
0.0156498
0.0011701
0.0186902
0.0223237
0.0010963
0.000123562
0.00130383
0.000148018
0.00193756
0.000191895
0.00237261
0.000255082
0.0028835
0.000331637
0.00350299
0.000417669
0.00425166
0.000509697
0.0051535
0.000603659
0.00623398
0.000694845
0.00752454
0.000778125
0.00905999
0.000848251
0.0108831
0.000900474
0.0130472
0.000931432
0.0156188
0.000939934
0.0186817
0.0223382
0.00092543
0.000184897
0.00111896
0.000235382
0.00188707
0.000265385
0.00234261
0.000297834
0.00285105
0.000336546
0.00346428
0.000382577
0.00420563
0.000435999
0.00510008
0.00049528
0.0061747
0.000557495
0.00746233
0.000618668
0.00899882
0.000674584
0.0108272
0.000721774
0.013
0.000758061
0.0155825
0.000782618
0.0186571
0.0223249
0.000795975
7.26809e-05
0.00104649
0.000131571
0.00182818
0.000162526
0.0023116
0.000186522
0.00282704
0.000213131
0.00343763
0.00024597
0.00417278
0.000286628
0.0050594
0.000335215
0.00612612
0.000391277
0.00740626
0.000451542
0.00893855
0.000512106
0.0107666
0.000568326
0.0129438
0.000616207
0.0155347
0.00065329
0.01862
0.0223008
0.000677328
-4.47404e-05
0.00109147
2.66555e-05
0.00175679
6.95986e-05
0.00226858
9.65064e-05
0.0028001
0.000120904
0.00341319
0.000148794
0.00414489
0.000182585
0.00502559
0.000223451
0.00608525
0.000271417
0.00735828
0.000325444
0.00888452
0.000383204
0.0107089
0.000441316
0.0128857
0.000495944
0.01548
0.000543905
0.0185721
0.0222595
0.000585222
-5.94495e-05
0.00115086
1.2161e-06
0.00169612
4.82947e-05
0.00222153
7.84567e-05
0.00276994
0.000101437
0.00339023
0.000124052
0.00412228
0.000150537
0.00499911
0.000182129
0.00605366
0.000219717
0.00732069
0.000263037
0.00884121
0.00031098
0.0106609
0.000361577
0.0128351
0.000412248
0.0154294
0.000460142
0.0185242
0.0222168
0.000502869
-2.52463e-05
0.00117595
9.07903e-06
0.00166179
4.8809e-05
0.00218184
7.88284e-05
0.00273994
0.00010077
0.00336831
0.000120123
0.00410293
0.00014083
0.00497842
0.000165216
0.00602927
0.000194503
0.00729141
0.000229005
0.0088067
0.000268216
0.0106217
0.000310937
0.0127924
0.000355389
0.0153849
0.00039951
0.0184801
0.0221749
0.000441365
-1.09318e-06
0.00117698
1.88975e-05
0.00164179
4.8944e-05
0.0021518
7.62366e-05
0.00271265
9.72765e-05
0.00334728
0.000114861
0.00408534
0.000132347
0.00496094
0.000152127
0.00600949
0.000175743
0.0072678
0.000203955
0.00877849
0.000236738
0.0105889
0.000273345
0.0127558
0.000312532
0.0153457
0.000352666
0.0184399
0.0221357
0.00039186
9.51235e-06
0.00116743
2.44917e-05
0.0016268
4.76972e-05
0.0021286
7.18052e-05
0.00268855
9.2102e-05
0.00332699
0.000108879
0.00406857
0.00012465
0.00494517
0.000141628
0.00599251
0.000161517
0.00724791
0.000185191
0.00875482
0.000212991
0.0105611
0.000244636
0.0127241
0.00027933
0.015311
0.00031598
0.0184033
0.0220985
0.000353232
1.18751e-05
0.00115553
2.62186e-05
0.00161245
4.57366e-05
0.00210909
6.72627e-05
0.00266702
8.66002e-05
0.00330766
0.000102897
0.00405227
0.000117752
0.00493032
0.000133125
0.00597714
0.000150503
0.00723054
0.000170963
0.00873436
0.000195017
0.0105371
0.000222662
0.0126965
0.000253458
0.0152802
0.00028663
0.0183701
0.022064
0.000321165
1.14654e-05
0.00114405
2.5664e-05
0.00159825
4.32357e-05
0.00209152
6.27735e-05
0.00264749
8.11011e-05
0.00328933
9.69437e-05
0.00403643
0.000111258
0.004916
0.000125517
0.00596288
0.000141151
0.0072149
0.00015928
0.00871623
0.000180498
0.0105159
0.000204967
0.012672
0.000232462
0.0152527
0.000262389
0.0183402
0.0220325
0.000293893
1.05038e-05
0.00113354
2.42017e-05
0.00158455
4.05327e-05
0.00207519
5.85362e-05
0.00262948
7.60082e-05
0.00327186
9.15263e-05
0.00402091
0.000105249
0.00490228
0.000118703
0.00594943
0.000132894
0.00720071
0.00014944
0.00869968
0.000168432
0.0104969
0.000190346
0.0126501
0.000215073
0.015228
0.000242253
0.018313
0.0220035
0.000271202
9.62227e-06
0.00112392
2.25468e-05
0.00157162
3.78382e-05
0.0020599
5.46509e-05
0.00261267
7.14031e-05
0.00325511
8.64957e-05
0.00400581
9.9934e-05
0.00488884
0.000112776
0.00593658
0.000126172
0.00718732
0.000141118
0.00868473
0.000158323
0.0104797
0.000178144
0.0126303
0.000200583
0.0152056
0.000225349
0.0182882
0.0219769
0.000251908
8.87026e-06
0.00111505
2.09176e-05
0.00155957
3.52646e-05
0.00204555
5.11353e-05
0.0025968
6.72873e-05
0.00323896
8.20936e-05
0.00399101
9.52409e-05
0.0048757
0.000107614
0.00592421
0.000120256
0.00717467
0.00013411
0.00867088
0.000149905
0.0104639
0.000168072
0.0126121
0.000188751
0.0151849
0.000211884
0.0182651
0.0219514
0.00023748
8.21993e-06
0.00110683
1.9437e-05
0.00154835
3.29286e-05
0.00203206
4.80067e-05
0.00258172
6.35984e-05
0.00322337
7.81224e-05
0.00397648
9.1044e-05
0.00486277
0.000103048
0.00591221
0.000115087
0.00716264
0.000128059
0.00865791
0.000142687
0.0104493
0.000159448
0.0125953
0.000178566
0.0151658
0.000200051
0.0182436
0.0219277
0.000223692
7.66305e-06
0.00109916
1.81318e-05
0.00153788
3.08236e-05
0.00201937
4.5198e-05
0.00256735
6.02105e-05
0.00320835
7.44732e-05
0.00396222
8.72311e-05
0.00485002
9.89353e-05
0.0059005
0.000110471
0.0071511
0.000122691
0.00864569
0.000136304
0.0104356
0.000151804
0.0125798
0.000169441
0.0151481
0.000189252
0.0182238
0.0219059
0.000211021
7.17709e-06
0.00109199
1.69819e-05
0.00152808
2.89747e-05
0.00200738
4.26126e-05
0.00255371
5.70707e-05
0.0031939
7.10888e-05
0.0039482
8.374e-05
0.00483737
9.52136e-05
0.00588903
0.000106334
0.00713998
0.000117919
0.0086341
0.000130663
0.0104229
0.000145072
0.0125654
0.000161425
0.0151318
0.000179797
0.0182054
0.0218857
0.000200012
6.72083e-06
0.00108526
1.59301e-05
0.00151887
2.72667e-05
0.00199604
4.02654e-05
0.00254071
5.41736e-05
0.00317999
6.79396e-05
0.00393444
8.05324e-05
0.00482477
9.18401e-05
0.00587772
0.00010263
0.00712919
0.000113693
0.00862304
0.000125712
0.0104109
0.000139202
0.0125519
0.000154474
0.0151165
0.000171648
0.0181882
0.0218666
0.000190736
6.33604e-06
0.00107893
1.49942e-05
0.00151021
2.57034e-05
0.00198533
3.81048e-05
0.00252831
5.15391e-05
0.00316655
6.50814e-05
0.00392089
7.75774e-05
0.00481228
8.87679e-05
0.00586653
9.93018e-05
0.00711866
0.000109938
0.0086124
0.000121351
0.0103995
0.000134067
0.0125392
0.000148431
0.0151022
0.000164637
0.018172
0.0218486
0.000182711
5.96449e-06
0.00107296
1.4137e-05
0.00150204
2.42949e-05
0.00197517
3.6156e-05
0.00251645
4.91296e-05
0.00315358
6.24221e-05
0.0039076
7.48285e-05
0.00479987
8.59368e-05
0.00585542
9.62654e-05
0.00710833
0.000106542
0.00860213
0.000117426
0.0103886
0.000129439
0.0125272
0.00014293
0.0150887
0.000158063
0.0181569
0.0218317
0.0001749
5.64297e-06
0.00106732
1.33755e-05
0.00149431
2.30373e-05
0.00196551
3.43995e-05
0.00250508
4.69708e-05
0.00314101
5.9948e-05
0.00389462
7.22619e-05
0.00478756
8.33277e-05
0.00584436
9.35009e-05
0.00709815
0.00010348
0.00859215
0.000113918
0.0103781
0.00012534
0.0125158
0.000138124
0.0150759
0.000152519
0.0181425
0.0218156
0.000168617
5.36485e-06
0.00106196
1.27033e-05
0.00148697
2.19153e-05
0.0019563
3.28185e-05
0.00249418
4.49647e-05
0.00312886
5.76352e-05
0.00388195
6.98563e-05
0.00477534
8.09159e-05
0.0058333
9.09814e-05
0.00708809
0.000100724
0.0085824
0.000110789
0.0103681
0.000121714
0.0125049
0.00013389
0.0150637
0.000147584
0.0181288
0.0217998
0.000163398
5.11091e-06
0.00105685
1.20995e-05
0.00147998
2.08996e-05
0.0019475
3.13597e-05
0.00248372
4.31018e-05
0.00311712
5.54682e-05
0.00386959
6.75991e-05
0.0047632
7.86603e-05
0.00582223
8.86531e-05
0.0070781
9.82027e-05
0.00857285
0.00010795
0.0103583
0.000118434
0.0124944
0.000130065
0.0150521
0.000143119
0.0181158
0.0217851
0.000157787
4.86819e-06
0.00105198
1.15361e-05
0.00147331
1.99318e-05
0.0019391
2.99925e-05
0.00247366
4.13526e-05
0.00310576
5.34344e-05
0.00385751
6.54641e-05
0.00475118
7.6523e-05
0.00581118
8.64675e-05
0.00706815
9.58604e-05
0.00856346
0.000105335
0.0103489
0.000115428
0.0124843
0.000126568
0.0150409
0.000139076
0.0181033
0.0217709
0.000153305
4.64843e-06
0.00104733
1.10089e-05
0.00146695
1.9061e-05
0.00193105
2.87078e-05
0.00246401
3.97226e-05
0.00309475
5.15429e-05
0.00384568
6.34479e-05
0.00473927
7.44985e-05
0.00580013
8.44134e-05
0.00705824
9.36823e-05
0.00855419
0.000102923
0.0103396
0.000112685
0.0124745
0.000123416
0.0150302
0.00013549
0.0180912
0.0217573
0.000149142
4.44171e-06
0.00104289
1.05263e-05
0.00146087
1.82457e-05
0.00192333
2.75477e-05
0.00245471
3.82161e-05
0.00308408
4.97775e-05
0.00383412
6.15356e-05
0.00472751
7.25605e-05
0.0057891
8.24579e-05
0.00704834
9.16227e-05
0.00854503
0.000100656
0.0103306
0.000110107
0.0124651
0.000120427
0.0150199
0.000131966
0.0180796
0.0217444
0.000144798
4.24645e-06
0.00103864
1.00825e-05
0.00145503
1.74934e-05
0.00191592