/*--------------------------------*- C++ -*----------------------------------*\
| =========                 |                                                 |
| \\      /  F ield         | OpenFOAM: The Open Source CFD Toolbox           |
|  \\    /   O peration     | Version:  2.3.0                                 |
|   \\  /    A nd           | Web:      www.OpenFOAM.org                      |
|    \\/     M anipulation  |                                                 |
\*---------------------------------------------------------------------------*/
FoamFile
{
    version     2.0;
    format      ascii;
    class       volVectorField;
    location    "8000";
    object      U;
}
// * * * * * * * * * * * * * * * * * * * * * * * * * * * * * * * * * * * * * //

dimensions      [0 1 -1 0 0 0 0];

internalField   nonuniform List<vector> 
6523
(
(22.9664 8.85259 -8.59625e-20)
(22.767 9.85129 0)
(22.5419 10.8867 1.66123e-19)
(22.2032 11.9296 -1.16912e-19)
(21.6673 12.9099 -1.07067e-19)
(20.8734 13.774 -1.31253e-19)
(19.7964 14.4919 4.18396e-20)
(18.4402 15.0468 -5.50395e-20)
(16.8325 15.429 -5.75069e-19)
(15.0337 15.6708 1.5514e-18)
(13.1219 15.826 -9.11419e-19)
(11.1467 15.7312 -2.08553e-18)
(22.1239 8.4795 8.97817e-20)
(21.7288 9.11736 -2.90744e-19)
(21.2774 9.74609 -7.0551e-19)
(20.7671 10.3585 4.18425e-19)
(20.2003 10.9293 -9.51322e-19)
(19.5764 11.4257 8.34378e-19)
(18.8969 11.8156 -4.16021e-20)
(18.1714 12.0713 1.50418e-18)
(17.4199 12.174 2.36241e-19)
(16.6695 12.1155 -1.79124e-18)
(15.9413 11.8952 2.45544e-18)
(15.246 11.5195 -2.2203e-18)
(21.5911 8.12229 6.88943e-19)
(21.2035 8.5759 5.17021e-19)
(20.7715 8.985 1.73198e-19)
(20.2899 9.34202 2.0296e-19)
(19.7635 9.6418 2.79582e-19)
(19.2016 9.87764 0)
(18.6161 10.0436 0)
(18.0207 10.1355 -1.52601e-18)
(17.4311 10.152 3.49032e-18)
(16.8634 10.095 1.83341e-19)
(16.3333 9.96918 -1.95664e-18)
(15.8563 9.78111 -7.58752e-20)
(21.1768 7.75507 -8.62616e-19)
(20.8121 8.08594 2.5749e-19)
(20.4261 8.3782 -3.05383e-19)
(20.0185 8.62292 3.37294e-19)
(19.594 8.81771 -1.6137e-19)
(19.1576 8.9592 -1.64394e-18)
(18.7158 9.04549 3.66514e-18)
(18.2756 9.07597 -1.67173e-18)
(17.8449 9.05171 1.18279e-18)
(17.4315 8.97545 -1.05817e-18)
(17.0429 8.85181 -1.42376e-19)
(16.6856 8.68722 0)
(20.8834 7.40968 0)
(20.5537 7.6501 3.16968e-19)
(20.2131 7.85857 3.09729e-19)
(19.8593 8.02682 -3.41443e-19)
(19.4959 8.15601 1.63317e-18)
(19.1266 8.2449 -1.63747e-18)
(18.7559 8.29324 -2.24503e-19)
(18.3887 8.30115 -1.27012e-18)
(18.0301 8.26974 7.62022e-19)
(17.6855 8.20093 -1.17181e-18)
(17.3598 8.09774 8.5268e-20)
(17.0573 7.9642 1.91113e-18)
(20.6659 7.10717 2.46348e-20)
(20.3746 7.28281 3.78821e-19)
(20.0797 7.43831 -7.05091e-19)
(19.7766 7.56031 2.01026e-19)
(19.4677 7.65177 0)
(19.1551 7.71159 0)
(18.8412 7.7397 -2.45411e-19)
(18.5294 7.73617 -2.61977e-19)
(18.2231 7.70167 2.76332e-19)
(17.9261 7.6374 -1.21898e-18)
(17.6421 7.54525 1.07335e-18)
(17.3748 7.42783 -6.83326e-19)
(20.5026 6.84778 2.27165e-20)
(20.2479 6.97314 -1.13451e-18)
(19.9905 7.0922 -4.64809e-20)
(19.726 7.1835 -4.06123e-20)
(19.4565 7.25119 1.77572e-18)
(19.1833 7.29379 -1.15848e-18)
(18.908 7.31088 1.28699e-18)
(18.6328 7.30219 -7.81034e-19)
(18.3607 7.26793 -1.17603e-18)
(18.0948 7.20866 1.19154e-18)
(17.8381 7.12533 0)
(17.5938 7.0198 0)
(20.3865 6.63056 -3.60165e-19)
(20.1619 6.71423 -1.92861e-20)
(19.9329 6.80588 1.92318e-19)
(19.6983 6.87624 -2.14212e-19)
(19.4598 6.92801 9.44155e-19)
(19.2175 6.9593 4.4827e-20)
(18.9714 6.96944 -2.07251e-18)
(18.7229 6.95773 1.07511e-18)
(18.4746 6.9246 0)
(18.2304 6.8701 9.4514e-19)
(17.9938 6.79345 2.6809e-20)
(17.7668 6.696 3.72123e-19)
(20.2984 6.42496 0)
(20.0988 6.48942 2.11546e-19)
(19.8931 6.56349 -2.0816e-19)
(19.6823 6.62136 6.86309e-19)
(19.467 6.66388 -4.62105e-19)
(19.2488 6.68749 5.06581e-19)
(19.0248 6.692 -5.1525e-19)
(18.7971 6.67621 -5.70119e-19)
(18.5669 6.64249 5.78073e-19)
(18.3384 6.59461 -3.12761e-19)
(18.1182 6.52639 -3.27726e-19)
(17.9055 6.43516 -3.48241e-19)
(20.214 6.25258 -2.03529e-19)
(20.0475 6.30199 -3.78417e-21)
(19.867 6.35943 -4.59784e-19)
(19.6787 6.40619 2.23651e-19)
(19.4786 6.44386 0)
(19.2725 6.46383 2.45683e-19)
(19.0633 6.46613 2.64766e-19)
(18.8571 6.44832 -2.81573e-19)
(18.6476 6.40643 0)
(18.4373 6.36037 -3.19771e-19)
(18.2308 6.30448 3.15499e-19)
(18.0249 6.2198 -7.91793e-21)
(9.17291 14.8402 2.1533e-18)
(8.68094 13.3786 9.44292e-20)
(8.64526 12.0061 0)
(8.86419 10.7002 -3.07638e-19)
(9.25453 9.45933 3.94237e-19)
(9.76696 8.28876 2.8025e-19)
(10.3603 7.20951 5.36306e-19)
(10.9952 6.24204 -1.65924e-18)
(11.6359 5.40047 1.70411e-18)
(12.2554 4.68791 -9.09279e-20)
(12.8379 4.08994 6.62475e-18)
(13.3816 3.56936 -4.67361e-18)
(14.5886 11.0188 1.40958e-18)
(14.0397 10.4042 -1.48352e-18)
(13.6056 9.71888 0)
(13.2837 9.00249 2.74038e-19)
(13.067 8.28023 -1.06162e-20)
(12.9508 7.5707 0)
(12.9309 6.88773 0)
(13.0013 6.23989 5.78523e-20)
(13.1531 5.63068 -2.73466e-19)
(13.3739 5.05996 -4.85571e-19)
(13.6483 4.52326 -2.05516e-18)
(13.96 4.01693 -4.3344e-18)
(15.4341 9.53512 0)
(15.0592 9.22323 -2.67821e-19)
(14.7336 8.84418 0)
(14.4655 8.41021 -2.17845e-19)
(14.2598 7.93276 -8.50876e-20)
(14.1194 7.42339 6.83499e-19)
(14.044 6.89382 -4.04315e-19)
(14.0311 6.356 1.27871e-18)
(14.0759 5.82142 -1.06393e-18)
(14.1723 5.30055 0)
(14.3156 4.80066 -9.46652e-20)
(14.5029 4.32448 -3.1432e-18)
(16.3575 8.48603 0)
(16.0512 8.2449 1.80604e-19)
(15.7686 7.96234 -4.00574e-19)
(15.516 7.64343 4.1356e-19)
(15.2987 7.29368 -4.40126e-19)
(15.1207 6.91904 -4.88065e-19)
(14.9848 6.52559 -1.26775e-19)
(14.8928 6.11921 -4.05139e-19)
(14.8453 5.70559 1.03911e-18)
(14.8419 5.291 0)
(14.8816 4.88036 -3.1198e-18)
(14.9628 4.4646 -2.01648e-18)
(16.7769 7.80274 -6.67639e-19)
(16.5138 7.61091 1.80964e-19)
(16.2692 7.38748 0)
(16.0476 7.13545 0)
(15.8524 6.85826 4.18048e-19)
(15.6864 6.5597 3.61869e-19)
(15.5513 6.24373 1.17152e-19)
(15.4481 5.91417 -1.23632e-19)
(15.3772 5.57478 -8.99179e-19)
(15.3383 5.23001 -9.88724e-19)
(15.3304 4.88222 3.02745e-18)
(15.352 4.51999 -9.52406e-19)
(17.1239 7.28698 6.92734e-19)
(16.8874 7.1217 -1.8813e-19)
(16.6663 6.93172 4.00437e-19)
(16.4636 6.71933 -6.15363e-19)
(16.2816 6.48738 6.37458e-19)
(16.1226 6.23883 4.43913e-20)
(15.9877 5.9766 -5.68949e-20)
(15.8781 5.70325 0)
(15.7937 5.42116 0)
(15.7347 5.133 2.9597e-20)
(15.7012 4.83895 -9.43841e-19)
(15.6983 4.52891 -1.84143e-18)
(17.363 6.89366 -3.59103e-19)
(17.1455 6.74671 3.85154e-19)
(16.9423 6.57921 -7.82444e-19)
(16.7556 6.39315 4.08734e-19)
(16.5865 6.19129 1.84979e-20)
(16.4367 5.97656 -5.2725e-19)
(16.3076 5.75141 1.69359e-19)
(16.1997 5.51773 -5.57693e-20)
(16.1124 5.2774 -2.83711e-20)
(16.045 5.03292 1.84332e-18)
(15.9968 4.78618 2.30265e-20)
(15.968 4.5333 2.19635e-20)
(17.5506 6.58016 -3.49678e-19)
(17.3468 6.44621 0)
(17.1568 6.29468 5.99907e-19)
(16.9824 6.1271 -5.11432e-19)
(16.8232 5.94656 -5.43619e-19)
(16.681 5.75602 1.33742e-20)
(16.5572 5.55796 -3.82515e-19)
(16.4527 5.35331 -5.56283e-20)
(16.3653 5.14382 0)
(16.2942 4.9315 -1.15255e-18)
(16.239 4.71745 1.60427e-18)
(16.2 4.49799 4.52051e-19)
(17.6987 6.32598 0)
(17.505 6.20079 0)
(17.3252 6.06097 1.9936e-19)
(17.1613 5.90707 -9.72861e-20)
(17.009 5.74365 -1.02899e-19)
(16.8736 5.57084 2.6907e-20)
(16.7546 5.39296 4.10624e-19)
(16.655 5.20945 0)
(16.5693 5.02402 4.41381e-19)
(16.4986 4.83604 4.43658e-19)
(16.4413 4.64782 6.41157e-21)
(16.3986 4.45582 -4.43036e-19)
(17.8194 6.11534 -7.23299e-19)
(17.634 5.99672 -4.4581e-21)
(17.4645 5.86464 0)
(17.3102 5.71767 -4.11685e-19)
(17.1603 5.57234 -4.09674e-19)
(17.0293 5.4156 -3.88266e-19)
(16.9149 5.25264 -8.17362e-20)
(16.8214 5.08115 -3.86986e-19)
(16.737 4.91808 -4.68728e-19)
(16.6695 4.75219 -8.48995e-19)
(16.615 4.58351 -2.20742e-19)
(16.5765 4.40006 -6.86407e-19)
(1.83356 -2.11999 0)
(1.08673 -2.09474 0)
(0.527765 -2.09124 7.07036e-20)
(0.144203 -2.09539 1.19951e-18)
(-0.0711396 -2.08985 3.34989e-19)
(-0.11416 -2.05516 0)
(0.040161 -1.97229 1.8892e-19)
(0.452375 -1.82326 -2.12744e-19)
(1.23101 -1.59911 -1.0135e-19)
(2.55919 -1.30005 1.78415e-18)
(4.80273 -0.943532 -2.06174e-18)
(8.71254 -0.753361 -5.43113e-18)
(1.74505 -2.14611 -4.37454e-19)
(1.05811 -2.10156 1.62248e-18)
(0.547754 -2.05726 6.11251e-19)
(0.223501 -1.9949 -6.12258e-19)
(0.109165 -1.89677 0)
(0.244268 -1.74704 0)
(0.679151 -1.53868 0)
(1.47755 -1.27654 5.27897e-19)
(2.74156 -0.979244 -5.68944e-19)
(4.62756 -0.694771 1.08248e-18)
(7.34082 -0.51243 -9.06321e-19)
(11.0355 -0.573228 1.38332e-19)
(1.70346 -2.10833 9.59705e-19)
(1.10139 -2.02569 -1.32664e-18)
(0.681768 -1.9294 -2.77678e-19)
(0.469243 -1.80129 0)
(0.498094 -1.6287 -1.65749e-19)
(0.806759 -1.40868 5.2089e-19)
(1.43752 -1.14773 -3.59706e-19)
(2.45073 -0.861616 1.87149e-19)
(3.92834 -0.581096 -2.10865e-19)
(5.96875 -0.35958 1.07228e-18)
(8.65935 -0.281008 -3.01133e-18)
(11.9768 -0.449706 3.00462e-20)
(1.71948 -2.03074 -4.65248e-19)
(1.21415 -1.91339 -2.65717e-19)
(0.894694 -1.77636 9.70117e-19)
(0.789841 -1.60516 -6.22995e-19)
(0.93258 -1.39557 1.07997e-22)
(1.35537 -1.15178 -7.65692e-19)
(2.0987 -0.884474 3.39332e-19)
(3.21558 -0.613121 -3.66903e-19)
(4.77148 -0.369782 3.9814e-19)
(6.83592 -0.203009 -4.23276e-19)
(9.45688 -0.180856 4.63662e-19)
(12.5959 -0.37767 -2.51268e-19)
(1.79194 -1.93364 0)
(1.37523 -1.79284 -5.6232e-19)
(1.14553 -1.63093 -6.0297e-19)
(1.12731 -1.43802 7.13797e-19)
(1.3491 -1.21485 -8.39483e-20)
(1.84173 -0.968094 4.25023e-19)
(2.6444 -0.70944 -9.02436e-20)
(3.8066 -0.458623 -1.99937e-19)
(5.3862 -0.246022 -3.19043e-21)
(7.44178 -0.115064 0)
(10.0105 -0.122741 1.02887e-20)
(13.0586 -0.328202 1.06476e-18)
(1.88319 -1.80768 0)
(1.55562 -1.66796 0)
(1.4028 -1.49877 0)
(1.45076 -1.3002 3.34355e-19)
(1.72619 -1.07655 0)
(2.26064 -0.835075 0)
(3.09365 -0.588 -3.57276e-19)
(4.27385 -0.354713 1.62724e-19)
(5.85724 -0.163847 -2.21464e-19)
(7.89904 -0.0550657 -1.43547e-20)
(10.4331 -0.0793172 -1.729e-18)
(13.4255 -0.289242 1.04429e-18)
(1.98646 -1.72645 0)
(1.73837 -1.56441 0)
(1.64909 -1.38916 -3.21545e-19)
(1.74688 -1.19114 1.17148e-20)
(2.05935 -0.972019 0)
(2.61935 -0.738036 0)
(3.46745 -0.501091 3.49597e-19)
(4.65211 -0.280595 -7.75537e-20)
(6.23013 -0.104764 -1.14046e-19)
(8.25703 -0.0105998 2.26851e-19)
(10.7642 -0.0447778 9.90588e-19)
(13.7145 -0.256566 0)
(2.11836 -1.64367 -8.6072e-19)
(1.92488 -1.47462 -4.45391e-21)
(1.88194 -1.30019 6.57232e-19)
(2.01499 -1.10622 -3.48214e-19)
(2.35272 -0.893755 3.52042e-19)
(2.92916 -0.667508 0)
(3.78569 -0.437724 -3.78269e-19)
(4.9697 -0.224325 9.12811e-20)
(6.54031 -0.0581632 7.69594e-19)
(8.55761 0.026443 4.7369e-19)
(11.0504 -0.0128835 -9.87618e-19)
(13.9755 -0.226305 -5.60096e-19)
(2.24266 -1.55137 2.77429e-19)
(2.10238 -1.38879 6.87709e-19)
(2.09561 -1.22331 -3.96287e-19)
(2.25342 -1.03798 -3.37882e-19)
(2.60776 -0.835066 -3.00053e-19)
(3.19488 -0.618403 3.47343e-19)
(4.05665 -0.395559 7.60285e-19)
(5.22932 -0.185243 9.11831e-20)
(6.77736 -0.026134 -5.42467e-19)
(8.77759 0.0489962 0)
(11.2434 0.00937923 -4.90321e-19)
(14.1196 -0.193235 0)
(2.36085 -1.50165 2.87333e-19)
(2.26153 -1.32241 -7.14631e-20)
(2.28819 -1.1592 8.27377e-20)
(2.46678 -0.981298 -6.83217e-21)
(2.83771 -0.789635 0)
(3.43408 -0.584354 -3.5008e-19)
(4.31146 -0.366584 -4.12933e-19)
(5.50791 -0.155214 -5.2313e-20)
(7.06105 -0.00852295 5.46971e-20)
(9.0704 0.0522856 4.68944e-19)
(11.5837 0.00907563 0)
(14.5084 -0.19795 0)
(15.4364 -1.54304 5.50394e-18)
(19.1113 -2.44187 0)
(20.425 -2.75127 0)
(21.0184 -2.84524 0)
(21.3447 -2.87728 -2.97301e-19)
(21.484 -2.8704 0)
(21.4948 -2.8338 5.08947e-19)
(21.4283 -2.77782 0)
(21.3173 -2.7098 0)
(21.1805 -2.63487 3.96779e-18)
(21.0298 -2.55469 -4.36513e-18)
(20.873 -2.46404 2.65758e-18)
(15.3295 -1.13585 5.17771e-18)
(19.2252 -2.01001 1.96748e-19)
(20.846 -2.39485 1.68725e-19)
(21.3392 -2.48135 -4.93455e-18)
(21.5561 -2.52107 2.82778e-19)
(21.6173 -2.5339 -5.2888e-19)
(21.5821 -2.52647 0)
(21.4922 -2.50442 -4.55019e-19)
(21.3719 -2.47147 8.53736e-19)
(21.2342 -2.43079 -8.06557e-19)
(21.0876 -2.38269 1.51611e-18)
(20.9382 -2.31919 -1.41308e-18)
(15.6964 -0.95136 2.31868e-18)
(19.2872 -1.70277 0)
(21.0316 -2.12952 0)
(21.4515 -2.22374 3.20079e-19)
(21.5908 -2.26428 -2.91196e-19)
(21.61 -2.2844 5.2033e-19)
(21.5602 -2.29109 3.49882e-18)
(21.472 -2.2877 -6.47937e-18)
(21.3617 -2.27608 5.24987e-18)
(21.2382 -2.25779 -3.27743e-18)
(21.1065 -2.23215 -7.91916e-19)
(20.9705 -2.19149 1.5017e-18)
(16.0954 -0.838188 0)
(19.4101 -1.4986 2.93532e-18)
(21.1408 -1.93076 6.78731e-20)
(21.5049 -2.03364 -2.78487e-18)
(21.587 -2.0747 -2.98872e-19)
(21.5778 -2.09997 0)
(21.5194 -2.11504 1.00675e-18)
(21.4345 -2.1222 -4.32277e-18)
(21.3344 -2.12265 4.4738e-18)
(21.2247 -2.11714 2.62892e-18)
(21.1068 -2.10688 -4.09078e-18)
(20.9792 -2.09135 0)
(16.4257 -0.765035 -1.13805e-18)
(19.5397 -1.36777 -3.1187e-19)
(21.1964 -1.78458 0)
(21.518 -1.8908 0)
(21.5628 -1.93086 3.5147e-18)
(21.5368 -1.95873 -2.15549e-18)
(21.4747 -1.97831 3.64215e-18)
(21.3936 -1.99148 -3.86378e-18)
(21.3018 -1.99913 4.69069e-19)
(21.2031 -2.00142 -5.67707e-21)
(21.0972 -1.9995 0)
(20.9806 -1.99588 -1.654e-18)
(16.6974 -0.712829 2.94214e-19)
(19.6563 -1.27806 1.90569e-18)
(21.218 -1.67454 -3.22296e-18)
(21.5029 -1.78096 2.52618e-18)
(21.5232 -1.81976 -2.91125e-18)
(21.4878 -1.84864 0)
(21.4254 -1.87039 -5.28877e-19)
(21.3491 -1.88677 0)
(21.2651 -1.89854 -4.79466e-19)
(21.1758 -1.90569 1.861e-18)
(21.0808 -1.9089 0)
(20.9784 -1.91175 8.68544e-19)
(16.9106 -0.66976 -2.86665e-19)
(19.7448 -1.20701 -1.23346e-20)
(21.2163 -1.58505 1.92032e-18)
(21.4733 -1.69267 -3.16482e-18)
(21.4782 -1.73175 1.75604e-18)
(21.4376 -1.76133 -2.26648e-18)
(21.3763 -1.78425 2.65893e-18)
(21.3047 -1.80241 -2.59021e-18)
(21.2275 -1.81653 4.4704e-18)
(21.1461 -1.82669 -2.87379e-18)
(21.0608 -1.83337 0)
(20.9716 -1.83982 0)
(17.1149 -0.637991 5.59803e-19)
(19.8398 -1.16269 -1.87652e-18)
(21.2161 -1.52586 -2.04921e-20)
(21.4414 -1.62834 2.50838e-18)
(21.4351 -1.6636 5.93702e-19)
(21.3914 -1.69185 0)
(21.3313 -1.71482 0)
(21.2636 -1.73382 -5.08884e-21)
(21.1919 -1.74913 -5.08461e-19)
(21.1172 -1.76085 -5.00213e-19)
(21.0401 -1.76945 1.47849e-18)
(20.9613 -1.77763 -9.59629e-19)
(17.1828 -0.586172 5.68223e-19)
(19.824 -1.09091 1.24622e-18)
(21.1653 -1.45199 -1.27345e-18)
(21.404 -1.56661 6.40425e-19)
(21.3955 -1.6055 -5.88972e-19)
(21.3493 -1.63402 -1.15751e-18)
(21.2898 -1.65744 1.10002e-18)
(21.2256 -1.67708 5.34274e-19)
(21.1588 -1.69301 1.05334e-18)
(21.0899 -1.70532 -5.0926e-19)
(21.0194 -1.71459 5.16917e-19)
(20.9491 -1.72373 -1.00879e-18)
(17.5663 -0.629734 0)
(20.0808 -1.16305 0)
(21.2464 -1.49689 0)
(21.3898 -1.55873 0)
(21.3616 -1.56581 -6.00196e-19)
(21.3123 -1.58639 0)
(21.2541 -1.60892 0)
(21.193 -1.62971 1.10003e-18)
(21.1295 -1.64589 5.5203e-19)
(21.066 -1.65775 -1.05833e-18)
(21.0025 -1.66724 0)
(20.9391 -1.67929 0)
(2.52374 2.43345 0)
(6.13332 2.61296 0)
(9.79326 3.73376 0)
(13.0284 5.45329 2.21465e-19)
(15.899 7.13077 -3.27155e-19)
(18.4294 8.58128 0)
(20.5594 9.71424 -2.04742e-19)
(22.1947 10.4215 4.47269e-19)
(23.2733 10.6303 4.69181e-19)
(23.8244 10.3532 3.37971e-19)
(23.984 9.70961 -4.41011e-19)
(23.9755 8.79664 -3.31325e-19)
(-13.223 2.03863 0)
(-10.2326 2.06984 0)
(-6.44439 2.25761 -5.4289e-19)
(-1.67068 2.6963 -4.85271e-20)
(3.66788 3.53711 5.59383e-19)
(9.12631 4.70161 0)
(14.1853 6.06967 -3.40627e-20)
(18.4427 7.42069 1.61917e-18)
(21.6186 8.48252 -1.85637e-18)
(23.6075 9.03328 0)
(24.5346 9.01926 0)
(24.7562 8.46157 8.57541e-19)
(-7.3826 1.30946 0)
(-6.75312 1.05911 0)
(-5.24658 0.885876 7.25955e-19)
(-3.2206 0.870533 -5.14612e-19)
(-0.565179 1.14307 -7.72263e-19)
(3.05365 1.80887 0)
(7.70785 2.91479 -1.47517e-20)
(12.8793 4.35691 -5.62446e-19)
(17.7669 5.89362 1.58616e-18)
(21.6122 7.16753 -1.28418e-18)
(24.0027 7.88709 1.69694e-18)
(25.0315 7.86999 -1.20736e-18)
(-8.94618 1.55712 0)
(-8.40683 1.51379 0)
(-7.10468 1.37203 0)
(-5.43716 1.25233 0)
(-3.35819 1.20775 8.35462e-19)
(-0.66241 1.30851 0)
(2.97329 1.67999 2.01874e-20)
(7.69284 2.49676 2.92984e-18)
(13.1034 3.76248 -2.18125e-18)
(18.3091 5.22584 0)
(22.3252 6.46871 -9.89302e-19)
(24.6271 7.03096 0)
(-8.43937 1.49255 9.77651e-19)
(-8.12498 1.44013 0)
(-7.09503 1.30279 0)
(-5.76163 1.15912 5.35383e-19)
(-4.1307 1.04542 8.25436e-19)
(-2.08707 1.00432 0)
(0.599922 1.10813 1.22299e-18)
(4.25284 1.4885 9.03174e-19)
(9.05373 2.29693 0)
(14.5853 3.54663 1.73149e-18)
(19.7728 4.97391 -4.54399e-20)
(23.4634 5.97596 0)
(-8.63815 1.52187 -3.20844e-17)
(-8.4422 1.49694 0)
(-7.54864 1.3767 0)
(-6.37592 1.24187 -1.77665e-20)
(-4.95072 1.11588 -2.64086e-20)
(-3.20955 1.02149 0)
(-0.980213 0.994122 0)
(1.99766 1.10476 3.01601e-18)
(6.02567 1.50121 -4.52976e-18)
(11.1774 2.3432 0)
(16.8314 3.62897 1.409e-18)
(21.6577 4.83181 8.66613e-19)
(-8.59765 1.51864 -2.96155e-17)
(-8.50139 1.50674 4.71661e-21)
(-7.71039 1.39427 1.31323e-17)
(-6.66005 1.25962 -5.60312e-19)
(-5.38786 1.12395 -2.29777e-20)
(-3.86046 1.00378 0)
(-1.95472 0.920544 0)
(0.543725 0.917808 1.08662e-18)
(3.91875 1.08507 4.94654e-18)
(8.43739 1.57559 -2.41624e-18)
(13.969 2.55922 1.58483e-18)
(19.4676 3.73848 -2.2377e-18)
(-8.64114 1.52479 -9.48393e-19)
(-8.61274 1.52465 0)
(-7.89862 1.42039 -2.14093e-20)
(-6.93431 1.29063 0)
(-5.76593 1.15402 -2.31268e-20)
(-4.37728 1.02282 0)
(-2.67969 0.91084 0)
(-0.497793 0.843977 -2.2058e-18)
(2.4134 0.87926 0)
(6.34738 1.12825 0)
(11.4582 1.79369 -4.6355e-20)
(17.1691 2.8019 -1.10175e-19)
(-8.65089 1.52676 -2.9284e-17)
(-8.67943 1.53546 -1.78398e-17)
(-8.02538 1.4375 -1.60478e-20)
(-7.12846 1.31116 8.7762e-18)
(-6.04124 1.17425 -2.22101e-20)
(-4.75722 1.03693 0)
(-3.21195 0.909397 0)
(-1.263 0.807647 5.30495e-18)
(1.30291 0.770002 -3.72449e-18)
(4.76128 0.872893 1.35542e-18)
(9.37414 1.28582 -3.90181e-18)
(14.959 2.06546 3.8422e-20)
(-8.66878 1.52962 0)
(-8.74156 1.54535 -1.75501e-17)
(-8.13647 1.45288 2.40441e-17)
(-7.29295 1.33015 -8.69045e-18)
(-6.26915 1.19428 5.81523e-18)
(-5.06446 1.05396 -5.36433e-18)
(-3.63175 0.917072 0)
(-1.85508 0.793809 0)
(0.451176 0.70986 5.66697e-18)
(3.53588 0.719509 -2.30654e-20)
(7.68469 0.94917 2.03876e-18)
(12.9584 1.48898 1.32875e-18)
(-8.67965 1.53139 2.80054e-17)
(-8.7888 1.55273 -3.44849e-17)
(-8.22447 1.46482 1.11125e-17)
(-7.42481 1.34514 0)
(-6.45274 1.21037 -8.1327e-19)
(-5.31156 1.06832 0)
(-3.96644 0.92538 0)
(-2.32236 0.788373 3.9658e-18)
(-0.21721 0.674333 -7.57138e-18)
(2.57223 0.622137 1.96027e-20)
(6.32535 0.725212 0)
(11.2277 1.07078 0)
(-8.68773 1.53235 2.73753e-17)
(-8.82702 1.55831 0)
(-8.29751 1.47439 1.09531e-17)
(-7.53448 1.35745 -5.25353e-19)
(-6.60505 1.22391 8.19199e-19)
(-5.51554 1.08095 -5.22053e-18)
(-4.23986 0.933867 -1.07873e-18)
(-2.6995 0.787403 -9.5312e-19)
(-0.75249 0.652402 -3.63834e-18)
(1.80259 0.556511 4.55822e-18)
(5.22845 0.568077 0)
(9.76522 0.7501 0)
(-8.69117 1.53269 2.6747e-17)
(-8.85731 1.56284 1.65874e-17)
(-8.35722 1.48234 -2.15114e-17)
(-7.62521 1.36783 8.85728e-18)
(-6.73178 1.23569 -6.40656e-18)
(-5.68542 1.09256 1.02726e-17)
(-4.46622 0.943033 -4.25993e-18)
(-3.0088 0.790559 9.50423e-19)
(-1.18819 0.641885 -4.33974e-20)
(1.17816 0.516733 0)
(4.33502 0.467066 0)
(8.54351 0.542259 -1.57067e-18)
(-8.69154 1.53251 0)
(-8.8814 1.5663 0)
(-8.40667 1.48882 -1.40782e-18)
(-7.7015 1.37657 0)
(-6.83913 1.24589 -6.30158e-18)
(-5.82974 1.10309 5.0528e-18)
(-4.65777 0.95224 2.76635e-20)
(-3.2683 0.796032 3.64445e-18)
(-1.5508 0.638579 -6.12018e-20)
(0.660959 0.494059 -1.55513e-18)
(3.5933 0.402442 0)
(7.51028 0.406133 0)
(-8.68896 1.5319 -2.54984e-17)
(-8.89978 1.56886 0)
(-8.44692 1.49387 6.99476e-19)
(-7.76531 1.38357 0)
(-6.93028 1.25423 -7.63477e-19)
(-5.95342 1.11188 4.95827e-18)
(-4.8224 0.960217 -3.07329e-18)
(-3.49083 0.801551 0)
(-1.86077 0.638466 -1.63462e-18)
(0.219686 0.481545 -1.53579e-18)
(2.95967 0.36213 0)
(6.61502 0.319521 1.62298e-18)
(-8.68301 1.53058 2.41063e-17)
(-8.91147 1.56997 0)
(-8.4778 1.49685 0)
(-7.81695 1.388 0)
(-7.00597 1.25952 7.69748e-19)
(-6.05756 1.11713 0)
(-4.96173 0.964056 -9.92815e-19)
(-3.67904 0.802032 0)
(-2.12235 0.632003 -1.57251e-18)
(-0.152449 0.459818 2.965e-18)
(2.42451 0.306681 0)
(5.85351 0.189441 -3.2948e-18)
(-8.67387 1.52879 -2.42306e-17)
(-8.91716 1.57026 -4.67541e-19)
(-8.5005 1.4989 6.51672e-19)
(-7.85814 1.39148 -7.23492e-18)
(-7.06852 1.26405 5.9508e-18)
(-6.14515 1.12209 5.87634e-19)
(-5.07969 0.968506 2.76149e-20)
(-3.83812 0.80474 0)
(-2.34237 0.630896 -3.05128e-18)
(-0.463624 0.450467 4.23845e-18)
(1.97994 0.280016 0)
(5.22795 0.140112 1.63462e-18)
(-8.66243 1.5266 -2.21556e-17)
(-8.91788 1.56972 4.69349e-19)
(-8.5163 1.49988 -1.87178e-20)
(-7.89076 1.39377 -7.55417e-18)
(-7.12074 1.26737 6.54004e-18)
(-6.22033 1.12603 -1.16661e-18)
(-5.18246 0.972453 8.67338e-18)
(-3.97768 0.808038 -8.21501e-19)
(-2.53593 0.632727 -8.76728e-18)
(-0.738043 0.449082 -1.37817e-18)
(1.5863 0.271486 -2.23659e-18)
(4.66509 0.120156 -3.29499e-18)
(-8.64777 1.52376 4.529e-17)
(-8.91298 1.56789 -4.23867e-17)
(-8.52474 1.49911 -6.39071e-19)
(-7.91461 1.39391 -9.19876e-19)
(-7.16264 1.26817 4.96811e-18)
(-6.28343 1.12704 5.7859e-19)
(-5.2709 0.973006 2.83283e-18)
(-4.0995 0.807312 -2.38805e-18)
(-2.70661 0.629605 -1.38775e-18)
(-0.982514 0.441269 1.50351e-20)
(1.23117 0.254911 4.51712e-18)
(4.14413 0.0873688 1.63235e-18)
(-8.62868 1.52006 6.88644e-19)
(-8.90154 1.56462 -8.90971e-19)
(-8.52514 1.49648 0)
(-7.92912 1.3918 4.54986e-19)
(-7.19381 1.26631 0)
(-6.334 1.12496 -5.47969e-19)
(-5.34424 0.969924 -2.73604e-18)
(-4.20201 0.802178 2.34587e-18)
(-2.85099 0.620797 0)
(-1.1897 0.424558 0)
(0.929637 0.218822 0)
(3.70326 0.0190586 -1.60379e-18)
(-8.60411 1.51538 4.28273e-17)
(-8.88282 1.55995 -4.05271e-17)
(-8.51703 1.49219 1.907e-17)
(-7.93417 1.38786 -6.97073e-18)
(-7.21459 1.2625 6.63698e-19)
(-6.37316 1.12097 -3.78563e-18)
(-5.40479 0.965257 4.45442e-18)
(-4.2893 0.796314 2.38935e-20)
(-2.97587 0.613411 0)
(-1.37022 0.415502 1.18968e-18)
(0.666528 0.206152 -2.15355e-18)
(3.31718 -0.00862053 1.61156e-18)
(-8.57249 1.50928 -2.1777e-17)
(-8.85548 1.55328 3.93349e-17)
(-8.49919 1.4854 -9.25473e-18)
(-7.92857 1.38093 -7.182e-18)
(-7.22382 1.25514 -6.65764e-19)
(-6.39977 1.1127 -5.17341e-19)
(-5.45155 0.955324 -8.83109e-19)
(-4.36077 0.783706 3.68045e-18)
(-3.08127 0.596739 -2.56237e-18)
(-1.52517 0.391731 -3.80377e-20)
(0.439178 0.166883 0)
(2.99195 -0.0798291 0)
(-8.53293 1.50183 2.11494e-17)
(-8.81894 1.54508 1.23297e-21)
(-8.4712 1.47701 -8.97628e-18)
(-7.91193 1.37235 1.46059e-20)
(-7.22109 1.24615 5.07904e-18)
(-6.4134 1.1029 -7.64245e-18)
(-5.48406 0.944138 3.36666e-18)
(-4.41594 0.770401 6.9862e-19)
(-3.16681 0.580522 3.68821e-18)
(-1.65425 0.371488 -4.47297e-18)
(0.247585 0.142127 0)
(2.7107 -0.100117 0)
(-8.48553 1.49297 -1.98639e-17)
(-8.77342 1.53527 1.24539e-17)
(-8.43339 1.46688 -8.69421e-18)
(-7.88472 1.36195 4.04546e-19)
(-7.20703 1.23527 0)
(-6.41499 1.09118 4.91992e-18)
(-5.50384 0.931019 -3.25678e-18)
(-4.45744 0.755232 -2.54419e-20)
(-3.23698 0.562773 -1.21532e-18)
(-1.76521 0.350394 2.14781e-18)
(0.0779862 0.114332 0)
(2.45845 -0.145143 0)
(-8.43044 1.48277 0)
(-8.7193 1.52405 1.20519e-17)
(-8.38621 1.45536 -8.41127e-18)
(-7.84734 1.35021 -3.7656e-19)
(-7.18192 1.22312 -5.82696e-19)
(-6.40461 1.07825 -9.73576e-19)
(-5.51073 0.916782 -7.71437e-19)
(-4.4849 0.738975 -6.75649e-19)
(-3.2913 0.54382 -1.12577e-18)
(-1.85731 0.328099 -2.06055e-18)
(-0.0676094 0.0884408 -1.9154e-18)
(2.23961 -0.178608 1.43661e-18)
(-8.36861 1.47146 0)
(-8.65759 1.51176 0)
(-8.33075 1.44287 -7.63274e-18)
(-7.80095 1.33762 1.22564e-17)
(-7.14697 1.21032 -4.56922e-18)
(-6.38348 1.06497 2.78674e-18)
(-5.50599 0.902551 -5.30209e-18)
(-4.49979 0.723223 -1.37967e-22)
(-3.33176 0.526062 2.20778e-18)
(-1.93382 0.30806 2.98265e-18)
(-0.195614 0.0666512 0)
(2.03826 -0.19798 -1.41299e-18)
(-8.3011 1.45919 1.79574e-17)
(-8.58946 1.49855 1.12457e-17)
(-8.26825 1.42956 -8.34458e-18)
(-7.74683 1.32436 5.38114e-18)
(-7.10344 1.19705 -4.40701e-18)
(-6.35282 1.05144 -7.08049e-18)
(-5.4907 0.888343 6.57551e-18)
(-4.50308 0.707751 3.06337e-18)
(-3.35948 0.508747 -1.08301e-18)
(-1.99641 0.288522 -3.76925e-18)
(-0.309377 0.0445649 3.45742e-18)
(1.84898 -0.22251 2.71199e-18)
(-8.22922 1.44626 0)
(-8.51619 1.4848 -1.08411e-17)
(-8.2001 1.41581 7.55891e-18)
(-7.68647 1.3109 -5.50703e-18)
(-7.0529 1.18383 4.29276e-18)
(-6.31411 1.03828 8.76291e-19)
(-5.46613 0.874872 4.23397e-18)
(-4.49563 0.69337 -4.76065e-18)
(-3.37437 0.49271 2.03051e-18)
(-2.04316 0.27007 -4.32302e-21)
(-0.402939 0.022765 -1.73595e-18)
(1.68454 -0.249507 0)
(-8.15387 1.43279 -1.66782e-17)
(-8.43878 1.47063 0)
(-8.12737 1.40176 7.71832e-18)
(-7.62114 1.29734 -9.95801e-18)
(-6.9968 1.17079 4.63108e-18)
(-6.26906 1.02572 4.02405e-19)
(-5.43426 0.862604 6.94326e-19)
(-4.47981 0.681038 -3.41329e-18)
(-3.37978 0.479931 1.94762e-18)
(-2.07954 0.256517 0)
(-0.486378 0.00871626 -1.6121e-18)
(1.52668 -0.258643 0)
(-8.07615 1.41886 0)
(-8.35833 1.45583 0)
(-8.05114 1.38715 -2.13503e-20)
(-7.55191 1.28327 -5.4253e-18)
(-6.93627 1.15736 -2.24752e-21)
(-6.21861 1.01288 2.75723e-18)
(-5.39534 0.850067 5.84286e-18)
(-4.45442 0.66813 -3.26966e-18)
(-3.37173 0.465316 0)
(-2.09608 0.237024 0)
(-0.538274 -0.025488 -1.4838e-18)
(1.43338 -0.32531 2.34791e-18)
(-7.9977 1.40508 -1.53913e-17)
(-8.27652 1.44128 9.90314e-18)
(-7.97319 1.37307 -2.12247e-20)
(-7.4809 1.27007 -2.97629e-19)
(-6.87404 1.14538 0)
(-6.16647 1.00242 0)
(-5.35439 0.841559 -6.39459e-19)
(-4.42593 0.662107 -5.35542e-19)
(-3.35846 0.46261 1.7817e-18)
(-2.10399 0.239931 -2.32413e-18)
(-0.57829 -0.00881265 1.38372e-18)
(1.33585 -0.288452 -5.2724e-20)
(-7.91868 1.39112 -1.47445e-17)
(-8.19322 1.42607 -2.95098e-19)
(-7.89339 1.35798 -6.81273e-18)
(-7.4081 1.25546 5.25201e-18)
(-6.81048 1.13152 0)
(-6.11387 0.989526 -2.54485e-18)
(-5.31413 0.829941 2.38183e-18)
(-4.39928 0.652308 4.8589e-19)
(-3.34758 0.455422 0)
(-2.11375 0.235581 -2.17044e-18)
(-0.617503 -0.0151702 -3.2946e-20)
(1.25844 -0.302406 -5.27518e-20)
(-7.83657 1.3765 -2.77584e-17)
(-8.10613 1.40992 8.78278e-18)
(-7.80947 1.34155 0)
(-7.33101 1.23914 -2.86074e-19)
(-6.74281 1.11541 0)
(-6.05787 0.973736 -2.78151e-18)
(-5.27185 0.814625 2.26976e-18)
(-4.37269 0.637841 -4.88153e-19)
(-3.33931 0.442791 -1.61785e-18)
(-2.12831 0.22768 2.85864e-18)
(-0.660319 -0.00853297 0)
(1.18546 -0.267542 -5.50267e-20)
(-7.7481 1.3603 -4.322e-19)
(-8.01279 1.39185 0)
(-7.71886 1.32266 -5.80889e-18)
(-7.24672 1.2198 4.48738e-18)
(-6.66738 1.09547 0)
(-5.99368 0.9529 -1.95266e-20)
(-5.22139 0.792349 0)
(-4.33863 0.613319 0)
(-3.32536 0.414973 3.06696e-18)
(-2.14117 0.19473 -3.95765e-18)
(-0.712018 -0.0517611 -3.06552e-20)
(1.07188 -0.322751 -2.77391e-20)
(-7.65367 1.34326 0)
(-7.91283 1.37299 0)
(-7.62114 1.30311 -5.5092e-18)
(-7.15461 1.19988 -1.97166e-20)
(-6.58307 1.07509 6.19649e-18)
(-5.91914 0.931776 -2.8031e-18)
(-5.15865 0.76984 -2.04466e-18)
(-4.28974 0.58838 2.11965e-18)
(-3.29287 0.386046 0)
(-2.12917 0.159815 6.86695e-19)
(-0.726516 -0.0973249 -2.2747e-18)
(1.02477 -0.400519 9.36225e-19)
(-7.55461 1.32557 3.64999e-19)
(-7.80811 1.35376 0)
(-7.51843 1.28362 0)
(-7.05711 1.18044 -2.45116e-19)
(-6.4928 1.05586 0)
(-5.83798 0.912724 0)
(-5.0885 0.750852 -4.66386e-19)
(-4.23272 0.569323 -4.17015e-19)
(-3.25174 0.36694 3.3974e-18)
(-2.10896 0.14164 -5.69845e-19)
(-0.736718 -0.109801 -1.05329e-18)
(0.96165 -0.399465 -8.39249e-19)
(-7.45285 1.30745 -3.69474e-19)
(-7.7004 1.33427 0)
(-7.41243 1.26395 0)
(-6.95587 1.161 -3.57432e-18)
(-6.39822 1.03676 3.08799e-18)
(-5.7517 0.893891 0)
(-5.01226 0.732091 4.70763e-19)
(-4.16842 0.550177 -1.8857e-18)
(-3.20182 0.346535 1.23745e-18)
(-2.07744 0.117809 1.10694e-18)
(-0.728712 -0.144725 -2.90582e-18)
(0.952705 -0.451113 -7.17444e-19)
(-7.3503 1.28941 0)
(-7.59164 1.31526 0)
(-7.30516 1.24514 4.88581e-18)
(-6.85315 1.14296 -3.3516e-18)
(-6.30187 1.01972 -2.45452e-20)
(-5.66334 0.87813 0)
(-4.93356 0.717903 0)
(-4.10136 0.537947 3.69931e-19)
(-3.14913 0.337039 1.16176e-18)
(-2.04404 0.113931 -5.37445e-19)
(-0.72355 -0.131375 9.51846e-19)
(0.905977 -0.406292 5.26657e-20)
(-7.24791 1.27125 -3.01353e-19)
(-7.48275 1.29586 0)
(-7.19749 1.22583 -2.7996e-19)
(-6.74982 1.12421 1.87906e-19)
(-6.20477 1.00176 -3.14402e-19)
(-5.57404 0.861083 0)
(-4.85372 0.701799 0)
(-4.03293 0.522749 0)
(-3.09475 0.32248 2.5005e-22)
(-2.00853 0.0983439 -1.00355e-18)
(-0.715997 -0.155951 8.18745e-19)
(0.873864 -0.44817 7.07225e-19)
(-7.14551 1.25327 3.05222e-19)
(-7.37367 1.27667 1.73075e-19)
(-7.08943 1.20685 0)
(-6.6459 1.10588 -1.89833e-19)
(-6.10684 0.984373 2.68714e-19)
(-5.48372 0.84485 0)
(-4.77258 0.68694 -1.83699e-18)
(-3.96271 0.509543 9.39142e-19)
(-3.03769 0.311386 5.45099e-19)
(-1.96833 0.0908529 -3.78038e-20)
(-0.698772 -0.155023 -1.57775e-18)
(0.858266 -0.439593 -6.5105e-19)
(-7.04264 1.23511 0)
(-7.26398 1.25713 -1.75098e-19)
(-6.98056 1.18729 -2.20338e-19)
(-6.54096 1.08671 0)
(-6.0077 0.965833 -5.18578e-19)
(-5.39203 0.826972 0)
(-4.69007 0.669761 3.16436e-20)
(-3.89126 0.492972 -8.45134e-19)
(-2.97969 0.295181 5.0264e-19)
(-1.92775 0.0743588 7.51163e-19)
(-0.682937 -0.174434 6.57628e-20)
(0.83725 -0.464493 -5.60478e-19)
(-6.9392 1.21689 2.36438e-19)
(-7.15329 1.23759 0)
(-6.87052 1.16774 2.22794e-19)
(-6.4345 1.06763 1.46355e-19)
(-5.90658 0.947385 2.49785e-19)
(-5.29774 0.809257 0)
(-4.60418 0.652748 3.15075e-20)
(-3.8155 0.476519 0)
(-2.91605 0.278997 -4.21447e-19)
(-1.87936 0.0578753 -8.34126e-19)
(-0.654651 -0.192152 1.35542e-18)
(0.840724 -0.483911 5.60379e-19)
(-6.83547 1.1985 -4.54121e-19)
(-7.04244 1.21813 1.32156e-19)
(-6.76018 1.14833 0)
(-6.32756 1.04886 -1.54674e-20)
(-5.80463 0.929437 0)
(-5.20214 0.792278 0)
(-4.51637 0.636779 3.1267e-20)
(-3.73712 0.461512 0)
(-2.84905 0.264827 -3.80489e-19)
(-1.82658 0.0444624 -3.72214e-20)
(-0.620555 -0.204066 5.67517e-19)
(0.850772 -0.492914 -9.33386e-19)
(-6.73281 1.18038 2.49378e-20)
(-6.93219 1.19892 -1.53375e-20)
(-6.65028 1.12932 1.63211e-19)
(-6.22092 1.03058 -1.53249e-20)
(-5.70278 0.912192 0)
(-5.1063 0.776292 -1.46709e-19)
(-4.42789 0.62221 3.0991e-20)
(-3.65764 0.448512 0)
(-2.78079 0.253517 3.84337e-19)
(-1.77305 0.0351883 -1.23897e-18)
(-0.588078 -0.209526 -3.29645e-20)