/*--------------------------------*- C++ -*----------------------------------*\
| =========                 |                                                 |
| \\      /  F ield         | OpenFOAM: The Open Source CFD Toolbox           |
|  \\    /   O peration     | Version:  2.3.0                                 |
|   \\  /    A nd           | Web:      www.OpenFOAM.org                      |
|    \\/     M anipulation  |                                                 |
\*---------------------------------------------------------------------------*/
FoamFile
{
    version     2.0;
    format      ascii;
    class       volScalarField;
    location    "1000";
    object      nut;
}
// * * * * * * * * * * * * * * * * * * * * * * * * * * * * * * * * * * * * * //

dimensions      [0 2 -1 0 0 0 0];

internalField   nonuniform List<scalar> 
6890
(
0.071238
0.0656128
0.0602135
0.0551247
0.0504302
0.0462103
0.0425316
0.0394174
0.0367917
0.0343945
0.0316777
0.0277093
0.0763963
0.0722931
0.0685108
0.0651076
0.0621335
0.059624
0.0575948
0.0560392
0.0549272
0.0542078
0.0538154
0.0536774
0.0810187
0.0780164
0.0753199
0.0729522
0.0709245
0.0692362
0.0678758
0.0668226
0.0660488
0.0655225
0.0652102
0.0650788
0.0850251
0.082796
0.0808194
0.0790993
0.0776315
0.0764065
0.075411
0.0746287
0.0740419
0.0736318
0.0733798
0.0732678
0.0884369
0.0867408
0.0852436
0.0839393
0.0828195
0.0818753
0.0810971
0.0804749
0.0799988
0.0796587
0.0794444
0.0793459
0.0913152
0.0899943
0.0888257
0.0877997
0.086909
0.0861477
0.0855101
0.0849916
0.0845876
0.0842936
0.084105
0.0840164
0.0937354
0.0926909
0.0917549
0.090923
0.0901909
0.0895555
0.0890152
0.0885684
0.0882144
0.0879529
0.0877826
0.0877016
0.0957881
0.0949441
0.0941761
0.0934837
0.0928668
0.0923215
0.0918525
0.0914578
0.0911397
0.0909017
0.0907452
0.0906701
0.0975344
0.0968424
0.096198
0.095607
0.0950808
0.0945987
0.0941861
0.0938317
0.0935385
0.093318
0.0931719
0.0931015
0.0990327
0.0984556
0.0979021
0.0973827
0.0969418
0.0964969
0.0961339
0.0958125
0.0955328
0.0953258
0.0951871
0.0951194
0.0277635
0.0318135
0.0344823
0.0368469
0.0394611
0.0425782
0.0462668
0.0504979
0.0552028
0.0603005
0.0657069
0.0713373
0.0536736
0.0538077
0.0542006
0.0549251
0.0560461
0.0576131
0.0596551
0.0621778
0.0651646
0.0685793
0.0723715
0.0764827
0.0650803
0.0652153
0.0655321
0.0660637
0.066844
0.0679047
0.0692733
0.0709704
0.073007
0.0753831
0.0780872
0.0810969
0.0732701
0.073387
0.0736443
0.0740601
0.0746531
0.075442
0.0764447
0.0776772
0.0791525
0.0808795
0.0828617
0.0850957
0.0793485
0.0794525
0.0796725
0.0800185
0.0805008
0.0811295
0.0819146
0.0828658
0.0839924
0.0853025
0.0868035
0.0885007
0.0840193
0.0841139
0.0843085
0.0846084
0.0850186
0.0855436
0.086188
0.0869564
0.0878537
0.0888851
0.0900562
0.0913777
0.0877049
0.0877924
0.0879688
0.0882362
0.0885961
0.0890495
0.0895971
0.0902397
0.090979
0.0918164
0.0927526
0.0937884
0.090674
0.0907563
0.0909188
0.091162
0.0914853
0.0918871
0.0923645
0.0929165
0.0935427
0.0942419
0.0950102
0.0958446
0.0931063
0.0931852
0.0933357
0.0935604
0.093856
0.0942197
0.0946431
0.0951274
0.0956699
0.0962688
0.0969174
0.0975937
0.0951251
0.0952027
0.0953388
0.0955492
0.0958214
0.0961577
0.096534
0.0969666
0.0974441
0.0979663
0.0985571
0.0991168
0.0165072
0.012892
0.00996081
0.00763604
0.00596477
0.00485526
0.00401917
0.0033041
0.00264008
0.00199473
0.00134158
0.00091559
0.0165879
0.0132338
0.0104764
0.00823585
0.00657006
0.00536274
0.00445933
0.00371751
0.00304597
0.00239529
0.00173084
0.00116396
0.016663
0.0135943
0.0110057
0.00885117
0.00718813
0.00590184
0.00491167
0.00411253
0.00341016
0.00273988
0.00205273
0.00139519
0.0167942
0.013948
0.0115147
0.00944846
0.00778414
0.0064356
0.00535862
0.00448568
0.00373491
0.00303407
0.00231945
0.00159778
0.0169019
0.0142866
0.0119938
0.0100114
0.00834763
0.00694896
0.00579253
0.00484033
0.00402987
0.00328991
0.00254475
0.00177264
0.0170277
0.0146039
0.0124389
0.0105322
0.0088741
0.00743516
0.00620838
0.00517791
0.00430199
0.00351679
0.00273888
0.00192391
0.0171355
0.0148974
0.0128496
0.0110101
0.00936194
0.00789094
0.0066026
0.005498
0.00455487
0.00372052
0.0029079
0.00205477
0.0172741
0.0151713
0.0132261
0.0114464
0.00981137
0.00831628
0.00697516
0.00580255
0.00479292
0.0039078
0.00306059
0.00217127
0.0173689
0.0154275
0.0135763
0.0118453
0.0102207
0.0086998
0.00731204
0.00607668
0.00500614
0.00406901
0.0031831
0.0022671
0.0174117
0.0155811
0.013847
0.0122237
0.0106299
0.00914015
0.0076932
0.00640189
0.00524959
0.00426904
0.00335881
0.00237809
0.000920639
0.00133119
0.00196796
0.00259225
0.00323268
0.00392568
0.00474852
0.00587372
0.00764136
0.00999669
0.0129535
0.0166013
0.00116675
0.00171119
0.00235494
0.00298314
0.00363261
0.00435859
0.0052636
0.00650749
0.00825288
0.0105207
0.0133016
0.016673
0.00139614
0.00202524
0.00268789
0.00333515
0.00401914
0.00481255
0.00582042
0.00715335
0.00887733
0.011058
0.0136683
0.0167639
0.00159736
0.00228535
0.00297261
0.00365143
0.00438995
0.00526866
0.00637486
0.00776937
0.00947673
0.0115746
0.0140277
0.0168863
0.00177136
0.00250518
0.00322115
0.00394172
0.00474754
0.00571577
0.00690693
0.00834513
0.0100385
0.01206
0.0143723
0.0170151
0.00192164
0.00269446
0.00344257
0.00421237
0.00509157
0.00614567
0.00740802
0.00887892
0.0105592
0.012511
0.0146966
0.0171425
0.00205298
0.0028608
0.00364349
0.00446709
0.00542069
0.0065535
0.00787538
0.00937186
0.0110392
0.0129275
0.0149981
0.0172637
0.0021653
0.00300566
0.00382558
0.00470546
0.00573133
0.00693494
0.00830739
0.00982481
0.0114794
0.0133099
0.015277
0.0173902
0.0022748
0.00314763
0.00400291
0.0049374
0.00603135
0.00729798
0.00871318
0.0102472
0.0118863
0.0136641
0.0155377
0.0175111
0.00232725
0.00321913
0.00411892
0.00511403
0.00626908
0.00758631
0.00903673
0.0105724
0.0122199
0.0139403
0.0157337
0.017573
0.00249048
0.00746394
0.0125993
0.0177986
0.0231078
0.0285984
0.0343279
0.0403235
0.0465797
0.0530635
0.0597211
0.0664873
0.000528015
0.00228628
0.00606613
0.0104453
0.015453
0.0210122
0.0270631
0.0335483
0.0404028
0.0475501
0.0549022
0.0623653
3.63911e-05
0.00149294
0.00417667
0.00761895
0.0118634
0.0168671
0.0225788
0.0289316
0.0358395
0.0431967
0.0508808
0.0587601
0.000488692
0.00139813
0.00346554
0.00630143
0.00993825
0.0143858
0.0196373
0.0256585
0.0323821
0.039707
0.0475036
0.0556342
0.000841252
0.00130825
0.00305791
0.00551391
0.00872241
0.0127281
0.0175612
0.0232246
0.0296832
0.0368597
0.0446353
0.0528615
0.00093259
0.00121424
0.00276074
0.00495595
0.00785384
0.0115171
0.0159999
0.0213336
0.0275145
0.0344934
0.042172
0.0504047
0.000917638
0.00114348
0.00252493
0.00452555
0.00718551
0.0105769
0.0147683
0.0198112
0.0257268
0.0324927
0.0400339
0.0482184
0.000898894
0.00110524
0.00233329
0.00417962
0.00664867
0.00981742
0.013763
0.018551
0.0242217
0.0307757
0.0381622
0.046275
0.000886403
0.0010828
0.00217535
0.00389457
0.00620532
0.00918692
0.012922
0.0174856
0.0229323
0.0292817
0.0365025
0.0444954
0.00087716
0.00106565
0.00204345
0.00365521
0.00583165
0.00865282
0.0122048
0.0165694
0.0218122
0.0279686
0.0350287
0.042936
0.000868943
0.00105008
0.00193179
0.00345106
0.00551156
0.00819308
0.011584
0.0157707
0.0208276
0.0268026
0.033702
0.0414722
0.000861154
0.00103521
0.00183603
0.00327466
0.00523372
0.00779221
0.0110398
0.0150666
0.0199531
0.0257573
0.032497
0.0401235
0.00085371
0.00102125
0.00175683
0.0031206
0.00498988
0.00743891
0.0105581
0.0144398
0.0191698
0.0248145
0.0314053
0.0389304
0.000847
0.00101119
0.00170877
0.00298564
0.00477388
0.00712465
0.0101277
0.0138774
0.0184632
0.0239591
0.0304086
0.037814
0.000841366
0.00100656
0.00168819
0.00286733
0.00458109
0.00684293
0.00974049
0.0133691
0.0178217
0.0231781
0.0294901
0.036761
0.000836685
0.00100567
0.00167932
0.00276307
0.0044079
0.00658867
0.00938973
0.012907
0.017236
0.0224611
0.028641
0.0357863
0.000832575
0.00100605
0.00167249
0.00267037
0.0042514
0.00635784
0.00907019
0.0124846
0.0166982
0.0217988
0.0278483
0.0348521
0.000828697
0.00100605
0.00166416
0.00258713
0.00410922
0.00614717
0.00877758
0.0120964
0.0162021
0.0211857
0.0271165
0.0340346
0.000824868
0.00100504
0.00165367
0.00251177
0.0039794
0.00595399
0.00850841
0.0117382
0.0157428
0.0206157
0.0264303
0.0332156
0.000821028
0.001003
0.00164132
0.00244367
0.00386034
0.0057761
0.00825976
0.0114063
0.0153158
0.0200834
0.0257848
0.032453
0.000817188
0.00100022
0.00162836
0.00238632
0.00375091
0.00561165
0.00802921
0.0110977
0.0149177
0.0195866
0.0251887
0.031801
0.000813427
0.000997348
0.00161753
0.00234731
0.00365073
0.00545914
0.00781473
0.0108099
0.0145455
0.0191206
0.0246217
0.031095
0.000809862
0.000995145
0.00161098
0.00232611
0.0035595
0.00531737
0.00761462
0.0105407
0.0141965
0.0186824
0.0240874
0.0304729
0.000806577
0.000993984
0.00160874
0.00231537
0.00347644
0.00518528
0.0074274
0.0102883
0.0138684
0.0182696
0.0235838
0.0298807
0.000803578
0.000993763
0.00160943
0.00230867
0.00340049
0.00506197
0.00725183
0.0100509
0.0135593
0.0178795
0.023104
0.0292937
0.000800812
0.000994099
0.00161141
0.0023025
0.00333055
0.00494659
0.00708682
0.00982731
0.0132674
0.01751
0.0226495
0.0287595
0.000798205
0.000994574
0.00161345
0.00229542
0.00326571
0.00483836
0.00693139
0.00961617
0.0129912
0.0171601
0.022221
0.0282636
0.00079569
0.000994874
0.00161482
0.00228698
0.00320534
0.00473663
0.00678471
0.00941646
0.0127295
0.0168279
0.0218113
0.0277603
0.000793221
0.00099483
0.00161517
0.00227726
0.00314963
0.00464081
0.00664602
0.00922721
0.0124811
0.0165122
0.0214226
0.0273051
0.000790775
0.000994393
0.00161452
0.0022669
0.00310066
0.00455056
0.00651468
0.0090476
0.012245
0.0162117
0.0210515
0.0268559
0.000788348
0.000993627
0.00161321
0.0022573
0.00306255
0.00446587
0.00639014
0.0088769
0.0120202
0.015925
0.0206949
0.0264145
0.000785955
0.000992696
0.00161188
0.00225005
0.00303711
0.00438686
0.00627194
0.00871442
0.0118058
0.0156508
0.020353
0.0259987
0.000783625
0.000991801
0.00161115
0.00224594
0.0030218
0.00431346
0.00615966
0.00855955
0.0116011
0.0153882
0.020024
0.0255932
0.000781385
0.000991104
0.00161139
0.00224474
0.00301252
0.00424527
0.00605295
0.00841175
0.0114052
0.0151366
0.01971
0.025222
0.000779252
0.000990681
0.00161262
0.00224564
0.00300599
0.0041817
0.00595144
0.00827051
0.0112177
0.0148954
0.0194089
0.0248569
0.000777227
0.000990518
0.00161465
0.00224772
0.00300021
0.00412215
0.00585476
0.0081354
0.0110379
0.0146639
0.0191191
0.0245006
0.000775299
0.000990535
0.00161715
0.00225019
0.00299413
0.00406606
0.00576258
0.00800604
0.0108655
0.0144416
0.0188406
0.0241612
0.000773451
0.000990631
0.00161978
0.00225248
0.00298728
0.00401306
0.00567457
0.00788205
0.0106999
0.0142276
0.01857
0.0238166
0.000771662
0.000990711
0.00162227
0.00225424
0.00297953
0.00396306
0.00559044
0.00776308
0.0105406
0.0140214
0.0183104
0.0235073
0.000769917
0.000990699
0.00162443
0.00225529
0.00297103
0.00391664
0.00550999
0.00764883
0.0103874
0.0138225
0.0180583
0.0231874
0.000768201
0.000990552
0.00162615
0.00225565
0.00296222
0.0038754
0.00543311
0.007539
0.0102398
0.0136308
0.0178169
0.0229035
0.000766506
0.000990255
0.00162742
0.00225549
0.00295395
0.00384167
0.0053599
0.00743337
0.0100974
0.0134456
0.0175823
0.0226049
0.000764831
0.000989825
0.00162834
0.00225516
0.00294718
0.00381669
0.00529052
0.00733172
0.00996014
0.0132668
0.0173563
0.0223344
0.000763179
0.000989304
0.00162906
0.00225508
0.00294255
0.00379956
0.00522503
0.00723391
0.00982765
0.0130943
0.0171392
0.0220741
0.000761555
0.00098875
0.00162976
0.00225557
0.0029402
0.00378815
0.00516332
0.00713978
0.00969972
0.0129274
0.0169274
0.0218012
0.000759969
0.000988218
0.00163063
0.0022568
0.00293982
0.00378023
0.00510514
0.00704918
0.00957614
0.012766
0.0167232
0.0215577
0.000758427
0.000987751
0.00163174
0.00225878
0.00294092
0.00377409
0.00505013
0.00696195
0.00945671
0.01261
0.0165263
0.0213208
0.000756933
0.00098737
0.00163313
0.00226139
0.00294295
0.00376859
0.00499793
0.00687794
0.00934126
0.012459
0.0163358
0.0210867
0.00075549
0.000987074
0.00163478
0.00226445
0.00294542
0.00376308
0.00494823
0.00679699
0.00922964
0.012313
0.0161511
0.0208584
0.000754093
0.000986849
0.00163662
0.00226776
0.00294796
0.00375718
0.00490078
0.00671892
0.00912166
0.0121715
0.015972
0.0206377
0.000752739
0.000986667
0.00163854
0.00227112
0.00295029
0.00375071
0.00485547
0.00664361
0.00901715
0.0120344
0.0157977
0.0204188
0.000751423
0.0009865
0.00164047
0.00227437
0.00295222
0.00374367
0.00481244
0.00657093
0.00891596
0.0119014
0.0156285
0.0202105
0.000750138
0.00098632
0.00164231
0.00227739
0.00295368
0.00373616
0.00477221
0.00650079
0.00881792
0.0117724
0.0154646
0.0200112
0.000748878
0.000986104
0.001644
0.0022801
0.00295466
0.00372849
0.00473585
0.00643318
0.00872292
0.0116471
0.0153051
0.0198116
0.00074764
0.000985839
0.0016455
0.00228246
0.00295525
0.00372114
0.0047047
0.00636818
0.00863083
0.0115255
0.0151504
0.0196225
0.00074642
0.000985515
0.0016468
0.00228452
0.00295563
0.00371471
0.0046797
0.00630591
0.00854155
0.0114075
0.015
0.0194352
0.000745217
0.000985134
0.00164791
0.00228633
0.00295606
0.00370968
0.00466082
0.00624648
0.00845502
0.0112927
0.014853
0.0192478
0.000744031
0.000984706
0.00164886
0.00228802
0.00295677
0.00370632
0.00464711
0.0061899
0.00837113
0.0111811
0.0147098
0.0190696
0.000742863
0.000984245
0.00164971
0.00228969
0.00295794
0.00370463
0.00463724
0.0061361
0.00828981
0.0110725
0.0145704
0.0188958
0.000741716
0.000983769
0.00165052
0.00229145
0.00295967
0.00370444
0.00462993
0.00608491
0.00821099
0.0109668
0.0144346
0.0187257
0.000740592
0.000983296
0.00165134
0.00229339
0.00296199
0.00370543
0.00462415
0.00603612
0.00813457
0.0108639
0.0143015
0.018553
0.000739495
0.000982842
0.00165222
0.00229554
0.00296484
0.0037073
0.00461917
0.0059895
0.00806045
0.0107636
0.0141711
0.0183857
0.000738427
0.000982414
0.00165319
0.00229791
0.00296813
0.00370972
0.00461447
0.00594486
0.00798853
0.0106657
0.0140435
0.0182214
0.000737391
0.000982019
0.00165425
0.00230048
0.00297175
0.00371244
0.00460974
0.00590199
0.0079187
0.0105702
0.013918
0.0180566
0.000736387
0.000981654
0.00165541
0.00230322
0.00297558
0.00371524
0.00460477
0.00586077
0.00785085
0.0104769
0.0137964
0.0179106
0.000735419
0.000981315
0.00165663
0.00230606
0.00297951
0.00371795
0.00459946
0.00582114
0.00778493
0.0103861
0.0136774
0.017754
0.000734485
0.000980992
0.00165791
0.00230895
0.00298343
0.00372047
0.00459378
0.00578318
0.00772085
0.0102971
0.0135589
0.0175888
0.000733592
0.000980673
0.00165921
0.00231185
0.00298727
0.00372272
0.00458779
0.00574713
0.0076586
0.0102105
0.0134456
0.0174638
0.000732735
0.000980351
0.00166052
0.00231471
0.00299096
0.00372468
0.00458163
0.00571349
0.00759818
0.0101258
0.0133329
0.0173016
0.000731947
0.000979998
0.00166181
0.00231748
0.00299448
0.00372637
0.00457551
0.00568296
0.00753967
0.0100433
0.0132239
0.0171727
0.000731161
0.000979622
0.00166313
0.00232018
0.00299782
0.00372789
0.00456977
0.00565635
0.00748315
0.00996295
0.0131175
0.017036
0.000730693
0.000979199
0.00166452
0.00232305
0.00300136
0.00372971
0.00456509
0.00563443
0.00742939
0.00988532
0.0130146
0.016909
0.000729501
0.000978024
0.00166483
0.00232399
0.0030027
0.00372949
0.00455942
0.00561521
0.00737497
0.00980773
0.012914
0.0167869
0.000732457
0.000982497
0.00167563
0.00233826
0.0030182
0.00374386
0.0045694
0.00561439
0.00734279
0.00974902
0.012825
0.0166503
0.00071164
0.000939169
0.00161688
0.00227674
0.00295745
0.00368206
0.00450013
0.00552718
0.00720183
0.00959348
0.0126695
0.0165006
0.00248418
0.00744865
0.0125813
0.0177811
0.0231012
0.0286117
0.0343656
0.0403849
0.046661
0.0531595
0.0598266
0.0665989
0.000522646
0.00226638
0.00605386
0.0104343
0.0154502
0.0210254
0.0270985
0.0336083
0.040486
0.047652
0.0550165
0.0624865
0.000302114
0.00148226
0.00418794
0.00763343
0.011885
0.0169
0.0226277
0.0290001
0.0359285
0.043304
0.0510015
0.0588888
0.000605941
0.00138296
0.00348039
0.00632798
0.00997441
0.014433
0.0196982
0.0257357
0.0324771
0.0398191
0.0476294
0.0557687
0.000892047
0.00130449
0.00306976
0.00553892
0.00876019
0.0127783
0.0176254
0.0233046
0.0297803
0.0369736
0.0447635
0.0529991
0.000941513
0.00120913
0.00276708
0.00497478
0.00788789
0.0115652
0.0160627
0.0214125
0.0276106
0.0346067
0.0423003
0.0505432
0.000922559
0.00111846
0.00252718
0.00453953
0.00721471
0.0106217
0.0148284
0.0198877
0.0258206
0.032604
0.0401608
0.0483566
0.000902203
0.0010647
0.00233245
0.00418958
0.00667237
0.00985826
0.0138201
0.0186246
0.0243126
0.0308843
0.0382871
0.0464127
0.000889771
0.00104422
0.00217225
0.00390123
0.00622474
0.00922349
0.0129755
0.017556
0.0230201
0.0293872
0.0366244
0.0446294
0.000881418
0.0010344
0.00203884
0.00365926
0.00584761
0.00868501
0.0122547
0.0166365
0.0218968
0.0280707
0.0351472
0.043066
0.000874182
0.00102542
0.00192624
0.003453
0.00552442
0.00822076
0.01163
0.0158344
0.0209088
0.0269013
0.0338165
0.0415966
0.000867128
0.00101543
0.00182994
0.00327488
0.00524389
0.00781626
0.0110821
0.0151269
0.020031
0.0258523
0.0326072
0.0402435
0.000860156
0.00100468
0.00174653
0.00311934
0.00499778
0.00745993
0.0105966
0.0144968
0.0192446
0.0249068
0.0315158
0.0390685
0.000853324
0.000993764
0.00167571
0.00298223
0.0047798
0.00714295
0.0101625
0.0139309
0.0185348
0.0240481
0.0305129
0.0379174
0.000847028
0.000985676
0.00163226
0.00286109
0.00458514
0.00685869
0.00977171
0.0134193
0.0178903
0.0232642
0.0295934
0.0368889
0.00084169
0.000982608
0.00161641
0.00275422
0.00441017
0.00660212
0.00941791
0.012954
0.0173016
0.0225445
0.0287415
0.0359004
0.000837281
0.000983359
0.00161281
0.00265963
0.00425204
0.0063692
0.00909571
0.0125283
0.0167607
0.021879
0.0279436
0.0349503
0.000833458
0.000985516
0.00161119
0.00257526
0.00410841
0.00615667
0.00880068
0.012137
0.0162617
0.0212627
0.0272082
0.034137
0.000829877
0.000987314
0.00160767
0.00249928
0.00397734
0.00596179
0.00852922
0.0117756
0.0157993
0.0206897
0.026519
0.0333157
0.000826333
0.000987992
0.00160146
0.00243024
0.00385718
0.00578232
0.00827841
0.0114408
0.0153692
0.0201541
0.0258694
0.0325421
0.000822752
0.000987454
0.00159285
0.00236716
0.00374655
0.00561642
0.00804586
0.0111296
0.014968
0.0196541
0.0252698
0.03189
0.000819129
0.000985887
0.00158251
0.00231058
0.00364435
0.00546252
0.00782954
0.0108394
0.0145928
0.0191852
0.0247003
0.031186
0.000815508
0.000983739
0.00157232
0.00226674
0.00355004
0.00531933
0.0076277
0.0105679
0.0142409
0.0187443
0.0241644
0.0305658
0.000811994
0.000981762
0.00156514
0.00224151
0.00346358
0.00518579
0.00743886
0.0103134
0.0139101
0.0183292
0.0236597
0.0299746
0.0008087
0.000980603
0.00156233
0.00223061
0.00338469
0.00506101
0.00726174
0.0100741
0.0135985
0.0179369
0.0231789
0.0293879
0.000805684
0.000980467
0.00156329
0.00222664
0.00331263
0.00494423
0.00709525
0.00984858
0.0133043
0.0175655
0.0227235
0.0288539
0.000802931
0.000981136
0.00156648
0.00222454
0.00324644
0.00483474
0.00693844
0.00963576
0.0130263
0.0172138
0.0222942
0.0283577
0.000800381
0.000982201
0.00157041
0.00222189
0.00318519
0.00473188
0.00679048
0.00943451
0.0127628
0.01688
0.0218835
0.0278535
0.000797961
0.000983273
0.00157403
0.00221777
0.00312812
0.00463504
0.00665062
0.00924388
0.0125129
0.0165627
0.0214937
0.0273977
0.000795609
0.000984081
0.00157675
0.002212
0.00307472
0.00454369
0.0065182
0.00906302
0.0122754
0.0162607
0.0211216
0.0269475
0.000793289
0.000984487
0.00157833
0.00220475
0.00302507
0.00445738
0.00639263
0.00889116
0.0120493
0.0159724
0.0207638
0.026505
0.000790978
0.000984461
0.0015788
0.00219657
0.00298092
0.00437581
0.00627339
0.00872761
0.0118337
0.0156968
0.0204207
0.0260881
0.000788675
0.000984065
0.00157848
0.00218876
0.00294642
0.004299
0.00616001
0.00857172
0.0116277
0.0154328
0.0200904
0.0256815
0.000786395
0.000983455
0.00157796
0.00218296
0.00292412
0.00422716
0.00605211
0.00842294
0.0114308
0.01518
0.0197751
0.0253091
0.000784166
0.000982833
0.00157792
0.00218014
0.00291202
0.00416032
0.00594937
0.00828077
0.0112422
0.0149377
0.0194727
0.0249425
0.000782017
0.000982376
0.00157876
0.00218024
0.00290614
0.0040982
0.0058515
0.00814476
0.0110615
0.0147051
0.0191816
0.0245854
0.000779968
0.000982182
0.00158061
0.00218255
0.00290307
0.0040403
0.0057582
0.00801453
0.0108882
0.0144818
0.0189018
0.0242452
0.000778026
0.000982257
0.00158331
0.00218616
0.00290073
0.00398606
0.00566918
0.0078897
0.0107217
0.0142667
0.01863
0.0238995
0.000776183
0.000982537
0.00158655
0.00219027
0.00289798
0.00393496
0.00558415
0.00776995
0.0105616
0.0140595
0.018369
0.0235885
0.000774422
0.000982924
0.00159001
0.00219427
0.00289434
0.00388659
0.00550284
0.00765495
0.0104075
0.0138597
0.0181159
0.0232693
0.000772725
0.000983318
0.00159339
0.00219777
0.00288963
0.00384068
0.00542497
0.0075444
0.0102591
0.013667
0.0178736
0.0229851
0.000771074
0.000983637
0.00159648
0.00220054
0.00288387
0.00379733
0.00535035
0.00743806
0.0101161
0.0134811
0.0176382
0.0226854
0.000769453
0.000983824
0.00159912
0.00220251
0.00287732
0.00375732
0.00527881
0.00733567
0.0099781
0.0133015
0.0174114
0.0224137
0.000767854
0.00098385
0.00160127
0.00220374
0.00287053
0.00372258
0.00521035
0.00723704
0.00984495
0.0131283
0.0171935
0.0221525
0.000766271
0.000983714
0.00160296
0.00220447
0.0028644
0.00369542
0.00514512
0.00714198
0.00971638
0.0129607
0.0169809
0.0218783
0.000764704
0.000983442
0.00160429
0.00220509
0.00285986
0.00367664
0.00508332
0.00705037
0.00959217
0.0127987
0.016776
0.0216349
0.000763157
0.000983084
0.00160544
0.00220599
0.00285746
0.00366497
0.00502499
0.00696207
0.00947212
0.012642
0.0165786
0.0213971
0.000761638
0.000982698
0.0016066
0.00220747
0.00285721
0.00365816
0.00497005
0.00687699
0.00935607
0.0124906
0.0163874
0.0211618
0.000760155
0.00098234
0.00160793
0.00220968
0.0028588
0.00365413
0.00491822
0.006795
0.00924384
0.012344
0.0162021
0.0209327
0.000758717
0.000982049
0.00160951
0.00221261
0.00286171
0.00365138
0.00486919
0.00671599
0.00913528
0.012202
0.0160224
0.0207112
0.000757327
0.000981846
0.00161137
0.00221614
0.00286541
0.00364893
0.00482264
0.00663982
0.00903022
0.0120644
0.0158475
0.0204915
0.000755985
0.000981728
0.00161348
0.00222009
0.00286946
0.00364623
0.00477826
0.00656634
0.0089285
0.0119309
0.0156777
0.0202824
0.000754691
0.000981679
0.00161577
0.00222426
0.0028735
0.00364297
0.00473583
0.00649542
0.00882996
0.0118014
0.0155133
0.0200825
0.00075344
0.000981672
0.00161815
0.00222846
0.00287728
0.00363901
0.0046952
0.00642692
0.00873447
0.0116757
0.0153532
0.0198817
0.000752226
0.000981679
0.00162053
0.00223254
0.00288063
0.00363435
0.0046564
0.00636073
0.0086419
0.0115537
0.0151981
0.0196935
0.000751044
0.000981672
0.00162282
0.00223639
0.00288346
0.00362906
0.00461977
0.00629676
0.00855213
0.0114353
0.0150474
0.019506
0.000749889
0.000981628
0.00162497
0.0022399
0.00288574
0.00362337
0.0045861
0.00623499
0.00846506
0.0113202
0.0149002
0.0193181
0.000748757
0.000981531
0.00162692
0.00224305
0.00288754
0.00361768
0.00455668
0.00617547
0.00838057
0.0112083
0.0147569
0.019141
0.000747645
0.000981372
0.00162865
0.00224584
0.00288901
0.00361256
0.00453279
0.00611832
0.00829857
0.0110995
0.0146173
0.0189656
0.000746551
0.000981149
0.00163017
0.00224834
0.00289036
0.00360854
0.00451488
0.00606367
0.00821899
0.0109935
0.0144812
0.0187945
0.000745475
0.000980868
0.0016315
0.00225062
0.00289185
0.00360603
0.00450243
0.0060116
0.00814176
0.0108904
0.0143479
0.0186213
0.00074442
0.000980542
0.0016327
0.00225282
0.00289368
0.00360515
0.00449425
0.00596209
0.00806683
0.0107898
0.0142172
0.0184528
0.000743388
0.000980189
0.00163382
0.00225505
0.00289601
0.00360582
0.00448904
0.00591504
0.00799411
0.0106917
0.0140894
0.0182883
0.000742383
0.000979826
0.00163493
0.0022574
0.00289891
0.0036078
0.00448566
0.00587028
0.00792353
0.0105959
0.0139636
0.018123
0.00074141
0.00097947
0.00163608
0.00225995
0.00290236
0.00361079
0.00448328
0.00582759
0.00785501
0.0105025
0.0138418
0.0179772
0.000740474
0.000979134
0.0016373
0.00226271
0.0029063
0.00361449
0.00448132
0.00578679
0.00778852
0.0104115
0.013723
0.0178229
0.00073958
0.000978824
0.00163863
0.00226571
0.00291065
0.00361861
0.00447939
0.0057477
0.00772396
0.0103225
0.0136049
0.0176586
0.000738736
0.000978539
0.00164006
0.0022689
0.00291529
0.00362294
0.00447725
0.00571017
0.00766131
0.0102359
0.013492
0.0175351
0.000737942
0.000978278
0.00164161
0.00227227
0.00292014
0.00362729
0.00447479
0.00567412
0.00760054
0.0101515
0.0133801
0.0173748
0.000737233
0.000978016
0.00164326
0.00227576
0.00292507
0.00363154
0.00447196
0.00563952
0.00754166
0.0100693
0.013272
0.0172471
0.000736549
0.000977757
0.00164504
0.00227934
0.00293002
0.00363561
0.00446876
0.00560641
0.00748464
0.00998946
0.0131667
0.017112
0.000736201
0.000977476
0.00164703
0.00228327
0.0029353
0.00363984
0.00446563
0.00557559
0.0074302
0.00991253
0.0130653
0.0169885
0.000735163
0.00097653
0.00164791
0.00228535
0.00293843
0.00364173
0.00446025
0.00554404
0.00737467
0.00983574
0.0129659
0.0168648
0.000738333
0.000981292
0.00165949
0.00230061
0.0029553
0.00365745
0.00446937
0.00553335
0.00734187
0.0097783
0.012879
0.0167342
0.00071795
0.000938074
0.00160292
0.00224255
0.00289851
0.0035988
0.00439879
0.00542602
0.00719717
0.00962311
0.012725
0.0165859
0.127546
0.101354
0.101275
0.137977
0.407
0.133703
0.0948752
0.0438179
0.0441316
0.131345
0.135988
0.10264
0.102992
0.137732
0.133562
0.0812363
0.0795224
0.0799116
0.113888
0.166667
0.133967
0.0856941
0.0861342
0.0803192
0.0804275
0.0800177
0.0804166
0.128304
0.136882
0.0640488
0.0317586
0.130215
0.101699
0.130915
0.0843925
0.0848623
0.115177
0.114135
0.134983
0.136785
0.101109
0.138283
0.137305
0.145677
0.133652
0.359077
0.124317
0.0413649
0.101094
0.139663
0.11103
0.0577559
0.100246
0.0516142
0.0517651
0.135638
0.138835
0.133058
0.105929
0.139609
0.117328
0.117513
0.135
0.139179
0.146959
0.142773
0.137549
0.127337
0.12462
0.132754
0.109102
0.10955
0.132318
0.100644
0.0494024
0.0496437
0.125138
0.143142
0.108079
0.108216
0.139413
0.0577049
0.0578616
0.0991003
0.116605
0.116841
0.110173
0.129736
0.135905
0.125605
0.0158901
0.117337
0.133998
0.128964
0.019471
0.0844815
0.130976
0.0850855
0.114196
0.113651
0.128842
0.236458
0.041968
0.0421024
0.0792758
0.11365
0.0639292
0.0639538
0.139438
0.0197367
0.139331
0.111869
0.0306904
0.131633
0.137964
0.0972932
0.0979551
0.0442998
0.0445807
0.142695
0.17533
0.139829
0.0506339
0.0187758
0.137738
0.0873288
0.0872641
0.0513055
0.382806
0.130478
0.123516
0.105298
0.105375
0.151581
0.0805857
0.139862
0.128841
0.110467
0.138571
0.0816711
0.0770542
0.0771816
0.123967
0.0528451
0.052985
0.114973
0.0747954
0.103562
0.144721
0.138006
0.06521
0.065383
0.0705139
0.166474
0.0923137
0.0668345
0.127735
0.131583
0.136157
0.139143
0.115791
0.136333
0.0979529
0.0542712
0.118011
0.137969
0.132515
0.0383948
0.138734
0.138988
0.0315564
0.141073
0.0247892
0.0249144
0.380143
0.0804114
0.0804541
0.148309
0.139479
0.11038
0.110347
0.219915
0.122026
0.129378
0.0213759
0.138242
0.137719
0.0444818
0.133588
0.137226
0.0547871
0.0549356
0.110231
0.124575
0.0446698
0.0463338
0.107349
0.139511
0.119935
0.138611
0.133598
0.136711
0.0657505
0.0659373
0.139422
0.237001
0.138102
0.0055547
0.138488
0.139411
0.0528816
0.0531003
0.0904151
0.0907999
0.150066
0.139375
0.0889377
0.0889619
0.139669
0.13932
0.0947497
0.108062
0.139973
0.12826
0.139989
0.174377
0.137624
0.0985001
0.11827
0.0439794
0.0447935
0.159815
0.118203
0.0358197
0.0365552
0.137006
0.153288
0.140184
0.13868
0.0453269
0.0454682
0.123278
0.104697
0.138907
0.127879
0.0957919
0.137639
0.139963
0.132513
0.100857
0.120767
0.0853896
0.0853233
0.0887104
0.0888069
0.00959554
0.104777
0.137733
0.137502
0.0481972
0.0483434
0.0353743
0.0354908
0.133287
0.137471
0.0929977
0.00823442
0.138254
0.132194
0.138921
0.095617
0.0956923
0.132437
0.125022
0.139399
0.138297
0.125885
0.0363868
0.118833
0.0370799
0.108522
0.132506
0.0276284
0.139239
0.0697037
0.0698151
0.123127
0.106341
0.139812
0.0497505
0.0499243
0.138924
0.138072
0.112261
0.0203635
0.0811954
0.0813171
0.0923153
0.093309
0.138808
0.129879
0.202507
0.109179
0.108657
0.137654
0.31773
0.138279
0.216248
0.138248
0.131617
0.139844
0.0205527
0.133786
0.0973649
0.0972993
0.0450612
0.0452733
0.137664
0.0724188
0.0725707
0.1537
0.102073
0.113172
0.0516071
0.0517877
0.125898
0.117822
0.138284
0.13836
0.140708
0.120499
0.115824
0.132505
0.137402
0.251271
0.058558
0.0970108
0.0970868
0.0577772
0.0454561
0.0456404
0.122466
0.122317
0.0975475
0.0976429
0.134601
0.136897
0.0762904
0.0762562
0.0831774
0.0832058
0.0664381
0.0666138
0.0798712
0.0799827
0.0884512
0.0886434
0.131678
0.139722
0.124152
0.0959745
0.136039
0.137334
0.116367
0.130705
0.0893669
0.13993
0.16363
0.137914
0.0895261
0.132339
0.0829064
0.162745
0.0929854
0.0929767
0.134225
0.3265
0.139909
0.125995
0.111446
0.130746
0.0635383
0.0636666
0.113602
0.13695
0.207945
0.136849
0.0940393
0.142284
0.0268948
0.0270368
0.0755824
0.0757045
0.045851
0.0461122
0.028216
0.138768
0.136708
0.0306345
0.0307462
0.11086
0.0485548
0.0486967
0.138731
0.139947
0.0972546
0.0659367
0.065881
0.139714
0.0978652
0.110834
0.110991
0.120706
0.0980343
0.0979831
0.11742
0.13983
0.114738
0.121036
0.116787
0.131905
0.126808
0.0980783
0.137008
0.107599
0.129843
0.139826
0.138209
0.0430892
0.0434026
0.130055
0.022417
0.124341
0.0225705
0.129726
0.0562607
0.0563947
0.0968288
0.102569
0.132036
0.0482392
0.134266
0.0629
0.0634728
0.131495
0.138297
0.131422
0.106108
0.105794
0.128664
0.0932368
0.0941913
0.0390618
0.0392629
0.139397
0.0363498
0.0365707
0.157549
0.09122
0.0914318
0.121897
0.188398
0.136561
0.106767
0.113022
0.13785
0.0762672
0.0767384
0.139348
0.133595
0.0278554
0.124403
0.105224
0.105197
0.0431736
0.0433351
0.0703229
0.0700082
0.138022
0.12714
0.0736631
0.104102
0.0362299
0.108827
0.13875
0.130647
0.114148
0.0561592
0.137564
0.109151
0.146065
0.132803
0.131819
0.204304
0.0494667
0.0496177
0.25028
0.13231
0.117784
0.130886
0.0531072
0.0532704
0.11498
0.0899417
0.0899678
0.0410742
0.0411125
0.0485104
0.048842
0.0243917
0.13331
0.129903
0.135742
0.0136293
0.136384
0.127782
0.0593963
0.317846
0.141945
0.120174
0.120001
0.0487733
0.136439
0.0980274
0.134518
0.398812
0.139161
0.137472
0.0222327
0.14192
0.0826756
0.0828085
0.097901
0.0980093
0.134012
0.139955
0.0259607