/*--------------------------------*- C++ -*----------------------------------*\
| =========                 |                                                 |
| \\      /  F ield         | OpenFOAM: The Open Source CFD Toolbox           |
|  \\    /   O peration     | Version:  2.3.0                                 |
|   \\  /    A nd           | Web:      www.OpenFOAM.org                      |
|    \\/     M anipulation  |                                                 |
\*---------------------------------------------------------------------------*/
FoamFile
{
    version     2.0;
    format      ascii;
    class       volScalarField;
    location    "1000";
    object      nuTilda;
}
// * * * * * * * * * * * * * * * * * * * * * * * * * * * * * * * * * * * * * //

dimensions      [0 2 -1 0 0 0 0];

internalField   nonuniform List<scalar> 
38111
(
0.0689303
0.0672236
0.0655146
0.0638038
0.0620913
0.0603772
0.0586619
0.0569463
0.0552318
0.0535196
0.0518105
0.0501059
0.0484068
0.046714
0.0450287
0.0433521
0.0416849
0.0400287
0.0383844
0.0367538
0.0351381
0.0335388
0.031958
0.0303983
0.0288628
0.0273555
0.0258825
0.024451
0.023071
0.02175
0.0204976
0.0193265
0.0182468
0.0172373
0.0162364
0.0152145
0.0141664
0.0130881
0.0119684
0.010786
0.00951381
0.00815745
0.00698414
0.0701949
0.0686858
0.0671789
0.0656722
0.064165
0.0626569
0.0611479
0.0596384
0.0581292
0.0566212
0.055115
0.0536118
0.0521123
0.050617
0.0491267
0.0476418
0.0461635
0.0446927
0.0432297
0.0417762
0.0403332
0.0389016
0.0374826
0.0360778
0.0346889
0.0333176
0.0319664
0.0306392
0.0293381
0.0280678
0.0268331
0.0256408
0.0244966
0.0234086
0.0223836
0.0214298
0.0205592
0.019787
0.0191298
0.0186049
0.0182306
0.0180233
0.0179997
0.0713555
0.0700187
0.0686842
0.0673499
0.0660149
0.0646786
0.063341
0.0620019
0.0606617
0.0593209
0.0579803
0.0566406
0.0553025
0.0539666
0.0526334
0.0513028
0.0499761
0.0486539
0.0473368
0.0460255
0.0447215
0.0434261
0.0421404
0.0408659
0.0396046
0.0383585
0.0371299
0.0359228
0.0347401
0.0335858
0.0324657
0.0313852
0.0303508
0.029371
0.0284546
0.0276114
0.0268532
0.0261923
0.0256412
0.0252117
0.0249159
0.0247599
0.0247488
0.0724166
0.0712327
0.0700467
0.0688595
0.0676705
0.0664793
0.0652858
0.0640896
0.0628907
0.0616892
0.0604857
0.0592807
0.0580752
0.0568699
0.0556648
0.0544608
0.053258
0.0520568
0.050858
0.0496622
0.0484705
0.0472848
0.0461061
0.044936
0.0437768
0.0426298
0.041498
0.0403851
0.0392941
0.03823
0.0371978
0.0362029
0.035252
0.0343536
0.0335158
0.0327472
0.0320585
0.0314606
0.0309637
0.0305767
0.0303089
0.0301657
0.0301495
0.0733979
0.0723389
0.0712792
0.0702175
0.0691529
0.0680848
0.0670131
0.0659375
0.0648577
0.0637732
0.062684
0.0615909
0.0604951
0.0593971
0.0582972
0.0571966
0.0560954
0.0549938
0.053892
0.0527905
0.0516906
0.0505934
0.0495012
0.0484153
0.0473379
0.046271
0.0452162
0.0441776
0.0431588
0.0421641
0.0411988
0.0402685
0.0393799
0.0385403
0.0377574
0.0370402
0.0363979
0.03584
0.0353758
0.0350135
0.0347605
0.0346219
0.0345992
0.0742907
0.0733426
0.0723925
0.0714387
0.0704802
0.0695167
0.0685483
0.0675746
0.0665957
0.0656106
0.0646178
0.0636182
0.0626136
0.0616043
0.0605914
0.0595756
0.0585574
0.0575377
0.0565162
0.0554931
0.0544686
0.0534436
0.0524211
0.0514035
0.0503928
0.0493909
0.0483993
0.0474204
0.0464588
0.0455187
0.0446058
0.0437253
0.0428838
0.0420885
0.0413464
0.0406662
0.0400564
0.0395256
0.0390828
0.0387356
0.0384908
0.038353
0.0383238
0.0750985
0.0742513
0.0733976
0.0725363
0.0716693
0.0707951
0.0699139
0.069026
0.0681328
0.0672327
0.0663231
0.0654024
0.0644734
0.0635387
0.0625977
0.0616516
0.0607015
0.0597485
0.0587937
0.0578367
0.0568761
0.055912
0.0549458
0.0539819
0.0530251
0.0520766
0.0511375
0.0502094
0.0492949
0.0483979
0.0475255
0.0466845
0.0458803
0.0451196
0.0444095
0.043757
0.0431704
0.042659
0.0422313
0.0418944
0.0416537
0.0415152
0.0414807
0.0758365
0.0750759
0.074306
0.0735227
0.0727356
0.0719376
0.0711309
0.0703143
0.0694924
0.0686651
0.0678297
0.0669789
0.0661096
0.0652395
0.0643588
0.0634704
0.0625763
0.0616762
0.0607759
0.059874
0.0589686
0.0580588
0.0571413
0.0562173
0.0553025
0.0543971
0.0535023
0.0526189
0.0517467
0.0508857
0.0500431
0.049233
0.0484591
0.0477267
0.0470418
0.0464125
0.0458437
0.0453459
0.0449276
0.0446012
0.0443611
0.0442218
0.0441829
0.0765122
0.075826
0.075133
0.0744099
0.0736959
0.0729578
0.0722177
0.0714571
0.0706933
0.0699246
0.0691555
0.068384
0.0675492
0.0667361
0.0659049
0.0650603
0.0642174
0.0633555
0.0624965
0.061639
0.0607781
0.0599177
0.0590595
0.0581607
0.0572755
0.0564021
0.0555417
0.054697
0.0538678
0.0530482
0.0522212
0.0514353
0.0506858
0.0499793
0.0493144
0.0487117
0.0481552
0.0476711
0.0472481
0.0469411
0.0466967
0.0465577
0.0465131
0.00772834
0.00967897
0.0108608
0.0119985
0.0131933
0.0144531
0.0157654
0.0171144
0.0184897
0.0198854
0.021294
0.0227134
0.0241409
0.0255744
0.0270128
0.028456
0.0299028
0.031354
0.0328082
0.0342661
0.035727
0.0371911
0.0386588
0.0401294
0.0416038
0.0430811
0.0445617
0.0460453
0.0475321
0.0490214
0.0505133
0.0520073
0.0535031
0.0550002
0.0564982
0.0579964
0.0594943
0.0609915
0.0624875
0.0639818
0.0654738
0.0669627
0.0684485
0.0181668
0.0185251
0.01906
0.0197534
0.0205826
0.0215255
0.0225587
0.0236634
0.0248241
0.0260267
0.0272621
0.0285225
0.0298012
0.0310934
0.032396
0.0337066
0.0350229
0.0363433
0.0376672
0.0389929
0.0403206
0.04165
0.0429804
0.0443117
0.0456441
0.0469774
0.0483113
0.0496461
0.0509813
0.052317
0.0536527
0.0549885
0.0563238
0.0576588
0.0589931
0.0603263
0.061658
0.0629884
0.0643171
0.065644
0.0669689
0.0682919
0.0696141
0.0248796
0.0251532
0.0255707
0.0261222
0.0267945
0.0275718
0.0284388
0.0293809
0.0303839
0.0314365
0.0325283
0.0336507
0.034797
0.0359613
0.03714
0.0383286
0.0395248
0.0407266
0.0419319
0.0431393
0.0443484
0.0455583
0.0467683
0.0479784
0.0491882
0.0503973
0.0516057
0.0528129
0.0540189
0.0552234
0.0564262
0.0576271
0.0588259
0.0600227
0.0612174
0.0624096
0.0635994
0.0647867
0.0659717
0.0671546
0.0683352
0.0695138
0.070692
0.0302577
0.0304895
0.0308456
0.0313203
0.0319031
0.0325821
0.0333458
0.0341822
0.035079
0.0360259
0.0370134
0.0380335
0.0390783
0.0401429
0.0412223
0.0423132
0.0434118
0.0445158
0.0456233
0.0467328
0.0478434
0.048954
0.0500644
0.0511736
0.0522812
0.0533869
0.0544903
0.0555908
0.0566885
0.0577828
0.0588733
0.0599605
0.061044
0.0621238
0.0631998
0.0642719
0.0653403
0.0664052
0.067467
0.0685256
0.0695815
0.0706345
0.0716859
0.0346905
0.0348953
0.0352131
0.0356388
0.0361636
0.0367779
0.0374719
0.0382353
0.0390569
0.0399267
0.0408366
0.0417785
0.0427451
0.0437313
0.0447325
0.0457443
0.0467636
0.0477877
0.0488149
0.0498441
0.0508734
0.0519025
0.0529304
0.0539565
0.0549798
0.0559999
0.0570162
0.0580278
0.0590345
0.060036
0.0610324
0.0620238
0.06301
0.0639907
0.0649659
0.0659356
0.0669005
0.0678607
0.0688165
0.0697682
0.0707161
0.0716602
0.0726015
0.0384024
0.038588
0.0388792
0.0392702
0.0397542
0.0403226
0.0409666
0.0416767
0.0424429
0.0432553
0.0441059
0.0449869
0.045892
0.0468164
0.0477546
0.0487024
0.0496571
0.0506158
0.051577
0.0525397
0.0535026
0.0544645
0.0554252
0.0563832
0.0573373
0.0582867
0.0592304
0.0601674
0.0610975
0.062021
0.0629383
0.0638493
0.0647533
0.0656498
0.066539
0.0674212
0.0682977
0.0691681
0.0700329
0.0708926
0.0717472
0.0725967
0.0734424
0.0415499
0.0417212
0.0419919
0.042357
0.0428099
0.0433434
0.0439499
0.0446206
0.0453452
0.0461136
0.0469169
0.0477497
0.0486059
0.0494804
0.0503671
0.0512619
0.0521625
0.053067
0.0539736
0.0548815
0.0557895
0.0566971
0.0576031
0.058505
0.0594018
0.0602929
0.0611754
0.0620486
0.0629136
0.0637716
0.0646229
0.0654668
0.0663006
0.067125
0.0679399
0.0687472
0.0695485
0.0703417
0.0711282
0.0719086
0.0726827
0.0734503
0.0742127
0.0442447
0.0444041
0.0446593
0.0450044
0.0454316
0.0459368
0.0465138
0.0471556
0.0478497
0.0485821
0.0493453
0.0501387
0.0509563
0.0517911
0.0526348
0.053484
0.0543383
0.0551977
0.0560591
0.0569211
0.0577846
0.0586492
0.0595107
0.0603656
0.0612152
0.0620585
0.0628873
0.0637048
0.0645145
0.0653183
0.0661148
0.0669034
0.0676747
0.0684376
0.0691873
0.0699309
0.0706699
0.0713943
0.0721142
0.0728263
0.0735309
0.0742276
0.0749163
0.0465684
0.0467179
0.0469597
0.0472888
0.0476903
0.0481713
0.0487249
0.049345
0.0500139
0.0507111
0.0514365
0.0522002
0.0529865
0.0537898
0.0545928
0.0554008
0.0562176
0.0570414
0.0578651
0.0586912
0.059523
0.0603584
0.0611835
0.0619973
0.0628098
0.0636144
0.0643881
0.0651602
0.0659264
0.0666886
0.0674389
0.0681825
0.0688891
0.0696076
0.070294
0.0709889
0.0716803
0.0723335
0.0730009
0.0736535
0.0743019
0.0749402
0.0755625
0.0327373
0.0316857
0.0306396
0.0295999
0.0285681
0.0275454
0.0265329
0.0255316
0.0245422
0.023565
0.0226005
0.0216488
0.02071
0.019784
0.0188706
0.0179697
0.0170809
0.0162041
0.0153386
0.0144844
0.0136411
0.0128087
0.0119869
0.0111764
0.0103773
0.00959086
0.00881831
0.00806168
0.00732349
0.00660661
0.0059143
0.00525015
0.0046176
0.00401978
0.00345929
0.00293807
0.00245723
0.00201836
0.00162339
0.00128086
0.00102805
0.000810837
0.000552668
0.0327146
0.0317426
0.0307768
0.0298166
0.0288629
0.0279162
0.0269774
0.0260469
0.0251254
0.0242132
0.0233104
0.0224174
0.0215339
0.0206599
0.0197954
0.0189401
0.0180939
0.0172563
0.0164272
0.0156063
0.0147934
0.0139883
0.013191
0.0124018
0.0116208
0.0108489
0.0100871
0.00933702
0.00860025
0.00787911
0.00717636
0.00649453
0.00583633
0.0052038
0.00459746
0.00401644
0.00345865
0.00292851
0.00246212
0.00209652
0.00175914
0.00140199
0.000940457
0.0326884
0.0317972
0.0309088
0.030024
0.0291435
0.0282677
0.0273972
0.0265324
0.0256738
0.0248213
0.0239752
0.0231358
0.0223029
0.0214763
0.0206562
0.0198423
0.0190346
0.0182327
0.0174365
0.0166459
0.0158607
0.0150808
0.0143063
0.0135374
0.0127744
0.0120178
0.0112685
0.0105276
0.00979621
0.00907593
0.00836856
0.00767502
0.00699637
0.00633212
0.00567972
0.00503484
0.00439582
0.00381454
0.00332916
0.00288294
0.00242719
0.00190455
0.00124645
0.0326596
0.0318434
0.0310261
0.0302097
0.0293951
0.0285829
0.0277734
0.0269671
0.0261641
0.0253646
0.0245688
0.0237768
0.0229884
0.0222036
0.0214226
0.020645
0.0198709
0.0191001
0.0183325
0.017568
0.0168066
0.0160483
0.0152931
0.0145413
0.0137931
0.013049
0.0123096
0.0115755
0.0108474
0.0101263
0.00941276
0.00870653
0.00800688
0.00731104
0.00661454
0.00591248
0.00522244
0.00460001
0.00407534
0.00355281
0.00298968
0.00231824
0.00149654
0.0326373
0.0318838
0.0311294
0.0303742
0.0296186
0.028863
0.0281078
0.0273533
0.0265997
0.025847
0.0250956
0.0243452
0.023596
0.022848
0.022101
0.0213551
0.0206101
0.0198661
0.019123
0.0183808
0.0176395
0.0168991
0.0161597
0.0154215
0.0146848
0.0139498
0.013217
0.0124867
0.0117592
0.0110348
0.0103132
0.00959311
0.00887212
0.00814587
0.00740783
0.00665255
0.00593887
0.00531623
0.00472696
0.00412565
0.00346291
0.00266129
0.00170276
0.0326093
0.0319171
0.0312201
0.0305198
0.0298168
0.0291118
0.0284049
0.0276965
0.0269865
0.0262754
0.025563
0.0248494
0.0241347
0.023419
0.022702
0.0219838
0.0212641
0.0205431
0.019821
0.0190977
0.0183732
0.0176477
0.0169211
0.0161937
0.0154656
0.0147371
0.0140083
0.0132795
0.0125506
0.0118212
0.0110904
0.0103563
0.00961518
0.00886183
0.00808842
0.00729303
0.00655522
0.00591354
0.00527805
0.00461122
0.00386172
0.00294772
0.00187259
0.0325882
0.0319469
0.0313006
0.0306493
0.0299935
0.0293334
0.0286696
0.0280021
0.027331
0.0266565
0.0259786
0.0252974
0.0246133
0.023926
0.0232356
0.0225419
0.0218445
0.0211434
0.020439
0.0197319
0.0190218
0.0183087
0.0175924
0.0168733
0.0161519
0.0154279
0.0147013
0.0139721
0.0132401
0.0125046
0.0117642
0.0110162
0.0102568
0.00947972
0.0086782
0.00785684
0.00709612
0.00642589
0.00574928
0.00502586
0.0042003
0.00318748
0.00201241
0.0325688
0.0319743
0.0313735
0.0307661
0.0301523
0.0295322
0.028907
0.0282756
0.0276393
0.0269972
0.02635
0.025697
0.0250398
0.0243777
0.0237111
0.0230398
0.0223632
0.0216793
0.020989
0.0202951
0.0195979
0.018896
0.0181878
0.0174748
0.0167584
0.0160378
0.015312
0.0145809
0.0138445
0.0131017
0.0123509
0.0115892
0.0108124
0.0100142
0.00918935
0.00835534
0.00759164
0.00688133
0.0061623
0.00538789
0.00449391
0.00338983
0.00212397
0.032554
0.0320013
0.0314409
0.0308739
0.0302979
0.0297124
0.0291227
0.0285225
0.0279178
0.0273036
0.0266857
0.0260549
0.0254218
0.0247816
0.0241361
0.0234855
0.022831
0.0221653
0.0214831
0.0207977
0.0201111
0.0194234
0.0187219
0.0180108
0.0172972
0.0165807
0.015856
0.0151211
0.0143787
0.0136267
0.0128643
0.0120881
0.011294
0.0104775
0.00962745
0.00879583
0.00803309
0.0072835
0.00652625
0.00571143
0.00476907
0.00360276
0.00225306
0.000408227
0.000489509
0.000675821
0.000853151
0.00102256
0.00118591
0.00134608
0.00150713
0.00167502
0.00185839
0.00206723
0.00230669
0.0025767
0.00287512
0.00319989
0.00354946
0.00392323
0.00432124
0.00474325
0.00518972
0.00566126
0.0061584
0.0066815
0.00723103
0.00780771
0.00841167
0.00904404
0.00970523
0.010396
0.0111173
0.0118696
0.0126543
0.013472
0.0143237
0.0152106
0.0161334
0.0170929
0.0180904
0.0191267
0.0202025
0.0213187
0.0224768
0.0236814
0.000587516
0.000644597
0.000833612
0.0010203
0.00119998
0.00137635
0.00155502
0.00174335
0.00194908
0.00217961
0.00244127
0.00273619
0.00305802
0.00340377
0.00377189
0.00416177
0.00457295
0.00500527
0.00545901
0.00593423
0.0064312
0.00695038
0.00749177
0.00805587
0.00864275
0.00925295
0.00988726
0.0105459
0.0112297
0.0119392
0.0126751
0.0134382
0.0142292
0.0150489
0.015898
0.0167774
0.0176877
0.0186297
0.0196044
0.0206123
0.0216541
0.0227298
0.0238353
0.000757656
0.000786214
0.000979994
0.00117766
0.00137193
0.00156891
0.00177669
0.00200316
0.00225438
0.00253439
0.00284627
0.00318967
0.00355609
0.00394343
0.00435047
0.00477667
0.00522166
0.00568537
0.00616771
0.00666862
0.00718841
0.00772696
0.00828419
0.00886038
0.00945594
0.0100708
0.0107056
0.0113611
0.0120371
0.0127347
0.0134537
0.0141955
0.01496
0.0157481
0.0165605
0.0173975
0.0182599
0.0191483
0.0200632
0.021005
0.0219742
0.0229709
0.0239938
0.000905526
0.000911303
0.00111228
0.00132361
0.00153735
0.00176168
0.00200507
0.00227366
0.0025702
0.00289595
0.00325363
0.00363856
0.0040438
0.00446753
0.0049087
0.00536694
0.0058418
0.00633302
0.00684053
0.00736381
0.00790297
0.00845784
0.00902844
0.00961474
0.0102167
0.0108348
0.0114693
0.0121206
0.0127888
0.0134742
0.0141771
0.0148981
0.0156378
0.0163964
0.0171741
0.0179716
0.0187895
0.019628
0.0204874
0.0213682
0.0222707
0.0231955
0.024144
0.00103077
0.0010217
0.00123283
0.00146098
0.00169857
0.00195458
0.00223599
0.00254576
0.00288393
0.00325089
0.00364959
0.00407076
0.00450991
0.00496589
0.00543736
0.00592405
0.00642527
0.00694073
0.00747016
0.00801289
0.0085686
0.00913752
0.00971919
0.0103136
0.0109209
0.0115412
0.0121745
0.0128212
0.0134812
0.0141551
0.0148428
0.0155444
0.0162606
0.0169916
0.0177375
0.0184987
0.0192754
0.020068
0.0208766
0.0217016
0.0225434
0.0234019
0.0242773
0.00113644
0.00112051
0.00134431
0.001592
0.00185651
0.00214578
0.00246435
0.00281232
0.00318828
0.00359308
0.00402708
0.00448043
0.00494991
0.00543451
0.00593304
0.00644509
0.00696986
0.0075068
0.00805526
0.00861471
0.00918492
0.00976574
0.0103569
0.0109581
0.0115696
0.0121911
0.0128228
0.0134649
0.0141173
0.0147799
0.015453
0.0161369
0.0168314
0.0175369
0.0182533
0.0189811
0.0197202
0.0204709
0.0212331
0.0220073
0.0227937
0.0235923
0.0244044
0.00122586
0.00120928
0.00144836
0.00171784
0.0020106
0.00233286
0.0026862
0.00306865
0.00347837
0.00391815
0.00438301
0.00486495
0.00536165
0.00587192
0.00639477
0.00692946
0.00747515
0.00803084
0.00859617
0.00917055
0.0097536
0.0103448
0.0109442
0.0115511
0.0121659
0.0127885
0.0134184
0.0140559
0.0147007
0.0153529
0.0160125
0.0166795
0.017354
0.018036
0.0187254
0.0194225
0.020127
0.0208391
0.0215592
0.0222873
0.0230232
0.023767
0.0245184
0.00130156
0.00129278
0.00154825
0.00183938
0.0021595
0.00251284
0.00289827
0.003312
0.00375244
0.00422332
0.00471536
0.00522309
0.00574441
0.0062782
0.00682327
0.00737858
0.00794285
0.0085155
0.00909654
0.00968524
0.0102799
0.0108799
0.0114856
0.0120972
0.0127148
0.0133381
0.0139665
0.0145995
0.0152367
0.0158789
0.0165259
0.0171772
0.017833
0.0184934
0.019158
0.0198265
0.020499
0.0211758
0.0218575
0.0225438
0.023234
0.0239284
0.0246283
0.00137359
0.0013577
0.00163015
0.00194934
0.00230267
0.00268779
0.00310165
0.00354194
0.00400915
0.00450719
0.00502766
0.00556247
0.00610829
0.00666543
0.00723179
0.0078046
0.00838467
0.00897328
0.00957364
0.0101799
0.0107817
0.011383
0.011992
0.0126044
0.0132273
0.0138512
0.0144783
0.0151047
0.0157322
0.0163657
0.0170005
0.017636
0.0182738
0.0189151
0.0195565
0.0201968
0.0208383
0.0214822
0.0221298
0.0227792
0.0234282
0.0240769
0.0247288
0.000418709
0.00164041
0.00333951
0.0050106
0.006598
0.00809911
0.00951869
0.0108619
0.0121337
0.0133449
0.0145129
0.015663
0.0168137
0.017966
0.0191141
0.0203235
0.0216771
0.0231455
0.0246957
0.0263052
0.0279594
0.029648
0.0313636
0.0331016
0.0348581
0.0366302
0.0384159
0.0402136
0.0420211
0.0438372
0.0456608
0.0474904
0.049325
0.0511633
0.0530042
0.0548465
0.0566891
0.0585304
0.0603696
0.062206
0.0640396
0.0658709
0.0677025
0.00032952
0.00130672
0.00290435
0.00431493
0.00560234
0.00683548
0.00804028
0.00922429
0.0103899
0.0115374
0.0126688
0.0137884
0.0149023
0.0160169
0.0171422
0.0183051
0.0195363
0.0208328
0.0221744
0.0236214
0.025208
0.0268917
0.028641
0.030436
0.0322636
0.0341149
0.0359846
0.0378685
0.039763
0.041666
0.0435754
0.0454898
0.0474075
0.0493273
0.0512476
0.0531676
0.0550859
0.057001
0.0589122
0.0608193
0.0627216
0.0646198
0.0665156
0.000267857
0.00100943
0.0022788
0.00385991
0.00536987
0.00671437
0.0079284
0.00904936
0.0101065
0.011123
0.0121168
0.0131021
0.0140906
0.0150928
0.0161207
0.0171875
0.0183057
0.0194831
0.020723
0.0220391
0.0234331
0.0248971
0.0265171
0.0282587
0.030081
0.0319566
0.0338679
0.0358039
0.0377576
0.0397231
0.041697
0.0436765
0.0456597
0.0476439
0.0496283
0.0516112
0.053591
0.0555665
0.0575374
0.0595026
0.0614616
0.063415
0.0653633
0.00032457
0.000944731
0.00209969
0.00355592
0.00515045
0.0066458
0.00799926
0.00922088
0.0103288
0.0113436
0.0122879
0.013185
0.0140579
0.0149284
0.0158169
0.0167413
0.0177168
0.018756
0.0198679
0.0210577
0.0223252
0.0236711
0.0251067
0.0266281
0.0283129
0.0301236
0.0320159
0.0339617
0.0359422
0.037946
0.0399644
0.0419928
0.0440268
0.0460636
0.0481011
0.0501371
0.0521697
0.054198
0.056221
0.0582374
0.0602471
0.0622495
0.064244
0.000319889
0.00089609
0.00198093
0.00334058
0.00492483
0.00651949
0.00800005
0.00934683
0.0105668
0.0116701
0.0126694
0.0135814
0.0144266
0.0152295
0.0160159
0.0168123
0.0176432
0.01853
0.0194895
0.0205325
0.0216642
0.0228861
0.024196
0.0255924
0.0270865
0.0286947
0.0304706
0.0323612
0.0343249
0.036335
0.0383747
0.0404336
0.0425039
0.0445808
0.0466608
0.0487407
0.0508183
0.052892
0.0549605
0.0570225
0.059077
0.0611232
0.0631589
0.000321357
0.000869902
0.0019139
0.00321401
0.00475235
0.00639443
0.00797302
0.00942944
0.0107571
0.0119611
0.0130488
0.0140294
0.0149155
0.0157246
0.016479
0.0172054
0.0179325
0.0186895
0.0195023
0.020392
0.021373
0.0224528
0.0236325
0.0249095
0.0262799
0.0277433
0.0293118
0.0310515
0.0329329
0.0349055
0.0369361
0.0390032
0.0410929
0.0431966
0.045308
0.0474225
0.0495368
0.0516488
0.0537563
0.0558577
0.0579524
0.0600395
0.0621205
0.000316046
0.000847036
0.00185929
0.00311538
0.00460412
0.00625514
0.00790594
0.00945877
0.0108869
0.0121895
0.0133707
0.0144361
0.015393
0.0162522
0.0170292
0.0177448
0.0184251
0.0191
0.0198005
0.020556
0.0213908
0.0223223
0.0233598
0.0245053
0.0257553
0.0271041
0.0285484
0.0301023
0.0318116
0.0336839
0.0356633
0.0377098
0.0397987
0.0419136
0.0440441
0.0461831
0.0483256
0.0504685
0.0526084
0.0547439
0.056873
0.0589944
0.0611048
0.000311312
0.000829958
0.00181791
0.00303983
0.00448624
0.00612092
0.00781624
0.00944839
0.0109669
0.0123609
0.0136317
0.0147826
0.0158183
0.0167454
0.0175738
0.018318
0.0189983
0.0196403
0.0202742
0.0209322
0.0216454
0.0224402
0.0233358
0.0243429
0.0254639
0.0266952
0.0280306
0.0294662
0.0310105
0.0327059
0.0345772
0.0365655
0.0386272
0.0407347
0.0428706
0.0450232
0.0471852
0.0493512
0.0515172
0.0536806
0.0558392
0.0579913
0.060136
0.000304988
0.000814369
0.00178108
0.00297406
0.0043838
0.00598996
0.00770552
0.00939977
0.0109984
0.0124773
0.0138328
0.0150666
0.0161817
0.0171821
0.0180744
0.0188683
0.0195783
0.0202247
0.0208332
0.0214342
0.0220606
0.0227444
0.0235129
0.024386
0.025375
0.0264822
0.027704
0.0290335
0.0304654
0.0320073
0.0337057
0.0355862
0.0375876
0.0396649
0.0417897
0.043944
0.0461158
0.048297
0.0504825
0.0526681
0.054851
0.0570288
0.0591996
0.000298189
0.000800531
0.00174833
0.00291608
0.00429379
0.00586789
0.00758377
0.00932187
0.0109889
0.0125448
0.0139793
0.0152915
0.0164835
0.0175577
0.0185181
0.0193713
0.0201277
0.0208023
0.0214159
0.0219946
0.0225695
0.0231737
0.0238394
0.0245938
0.0254568
0.0264391
0.0275427
0.0287632
0.0300929
0.031527
0.0330751
0.0347924
0.0366915
0.0387104
0.0408048
0.0429467
0.0451176
0.047306
0.049504
0.0517059
0.0539079
0.0561065
0.0582986
0.000290671
0.000787524
0.00171783
0.00286255
0.00421142
0.00575363
0.00745573
0.00922044
0.010943
0.012568
0.0140755
0.0154617
0.016727
0.0178729
0.018902
0.0198185
0.0206296
0.0213465
0.0219853
0.0225676
0.0231206
0.0236757
0.0242662
0.0249238
0.0256753
0.0265392
0.0275251
0.0286339
0.0298603
0.0311966
0.0326387
0.0342022
0.0359531
0.0378793
0.0399202
0.0420331
0.0441915
0.046378
0.0485813
0.0507937
0.0530096
0.0552244
0.0574336
0.000282624
0.000775098
0.00168888
0.00281232
0.00413468
0.00564633
0.00732652
0.00910214
0.0108675
0.0125524
0.0141268
0.015582
0.0169166
0.0181313
0.0192275
0.020208
0.0210777
0.0218447
0.0225213
0.0231249
0.0236784
0.0242102
0.0247519
0.025337
0.0259961
0.0267545
0.0276289
0.0286272
0.0297487
0.0309874
0.0323359
0.0337926
0.0353836
0.0371805
0.0391403
0.0412058
0.0433383
0.0455132
0.0477143
0.0499311
0.052156
0.054384
0.056613
0.000274083
0.000762901
0.0016609
0.00276422
0.00406183
0.00554442
0.00719851
0.00897235
0.0107677
0.0125032
0.014138
0.0156572
0.017057
0.018337
0.0194981
0.0205416
0.0214709
0.0222918
0.0230137
0.0236502
0.0242205
0.0247489
0.0252646
0.0258
0.0263877
0.0270571
0.0278312
0.0287245
0.0297425
0.0308832
0.0321398
0.033506
0.0349858
0.0366232
0.0384716
0.0404679
0.0425594
0.0447118
0.0469027
0.0491173
0.0513459
0.0535816
0.0558182
0.000265232
0.000751164
0.00163397
0.00271799
0.00399211
0.00544724
0.00707362
0.00883585
0.0106491
0.0124258
0.0141142
0.0156922
0.0171529
0.0184947
0.0197174
0.0208221
0.0218105
0.0226869
0.0234582
0.0241351
0.0247332
0.0252731
0.025781
0.0262869
0.0268233
0.0274216
0.0281095
0.0289073
0.0298265
0.0308703
0.0320354
0.0333149
0.0347049
0.0362185
0.037922
0.0398234
0.0418565
0.0439742
0.0461458
0.0483518
0.0505792
0.0528199
0.05507
0.000256081
0.000739809
0.00160775
0.00267329
0.00392494
0.00535375
0.00695222
0.0086961
0.0105166
0.012325
0.0140598
0.0156914
0.0172088
0.0186086
0.01989
0.0210532
0.0220995
0.0230314
0.0238539
0.0245756
0.0252089
0.0257712
0.0262853
0.0267783
0.0272813
0.0278262
0.0284432
0.0291571
0.0299852
0.0309361
0.0320109
0.0332047
0.0345117
0.035932
0.0374949
0.0392764
0.0412319
0.0433012
0.0454441
0.0476343
0.0498549
0.0520938
0.0543427
0.000246635
0.000728541
0.00158197
0.00262959
0.00385964
0.00526321
0.00683414
0.00855571
0.0103743
0.012205
0.013979
0.0156587
0.0172286
0.0186828
0.0200197
0.021239
0.022341
0.0233274
0.0242018
0.0249707
0.025644
0.0262362
0.0267669
0.0272604
0.0277453
0.0282529
0.0288142
0.0294572
0.0302039
0.0310682
0.0320556
0.0331651
0.0343914
0.0357303
0.0371907
0.0388307
0.0406876
0.0426938
0.0447974
0.0469641
0.0491708
0.051402
0.0536442
0.000236961
0.000717432
0.0015567
0.00258689
0.00379607
0.00517544
0.0067195
0.00841636
0.0102255
0.01207
0.0138758
0.0155984
0.0172163
0.0187214
0.0201106
0.0213831
0.0225386
0.0235781
0.024504
0.025321
0.0260372
0.0266645
0.0272195
0.0277237
0.0282031
0.0286874
0.0292074
0.0297928
0.0304689
0.0312543
0.0321593
0.0331869
0.0343342
0.0355962
0.036973
0.0384897
0.0402268
0.0421535
0.044206
0.0463404
0.0485274
0.0507468
0.052983
0.000227098
0.00070662
0.00153195
0.00254521
0.00373428
0.0050903
0.00660802
0.00827914
0.0100735
0.0119236
0.0137544
0.0155141
0.0171758
0.0187281
0.0201664
0.0214893
0.0226959
0.0237866
0.0247629
0.0256282
0.0263889
0.0270546
0.0276395
0.0281622
0.0286462
0.0291189
0.0296104
0.0301508
0.0307677
0.0314831
0.0323121
0.0332616
0.034332
0.0355195
0.0368211
0.0382457
0.0398502
0.041681
0.0436702
0.0457636
0.047925
0.0501303
0.0523658
0.000217058
0.000696087
0.00150782
0.0025046
0.00367401
0.00500729
0.00649968
0.00814483
0.00992015
0.0117693
0.0136181
0.0154093
0.0171104
0.0187062
0.0201906
0.021561
0.0228163
0.0239561
0.0249814
0.0258945
0.0267002
0.0274064
0.028025
0.0285721
0.0290686
0.0295397
0.0300138
0.0305208
0.0310894
0.0317445
0.0325046
0.0333809
0.0343775
0.0354927
0.036723
0.0380699
0.0395604
0.0412779
0.0431907
0.0452339
0.0473626
0.0495464
0.0517618
0.00020681
0.000685749
0.00148412
0.00246481
0.00361509
0.00492646
0.0063942
0.00801335
0.00976715
0.0116094
0.0134698
0.015287
0.0170232
0.018659
0.0201863
0.0216016
0.022903
0.0240899
0.0251624
0.0261222
0.0269728
0.0277206
0.0283755
0.0289513
0.0294664
0.0299439
0.0304102
0.0308942
0.031425
0.0320291
0.0327283
0.0335374
0.034464
0.0355093
0.0366711
0.0379475
0.039351
0.0409447
0.0427678
0.0447512
0.0468406
0.049
0.0512063
0.000196312
0.00067559
0.00146081
0.0024258
0.0035576
0.0048476
0.0062914
0.00788481
0.00961552
0.0114463
0.0133123
0.0151501
0.0169169
0.0185892
0.0201565
0.0216139
0.0229591
0.0241907
0.0253088
0.026314
0.0272089
0.0279987
0.0286914
0.0292989
0.0298375
0.0303277
0.0307941
0.0312641
0.0317667
0.0323292
0.0329755
0.0337238
0.034585
0.0355636
0.0366591
0.0378694
0.0391988
0.0406818
0.0424024
0.0443156
0.0463587
0.0484888
0.0506806
0.00018558
0.000665618
0.00143795
0.00238761
0.00350135
0.0047706
0.00619114
0.00775939
0.00946624
0.0112817
0.0131481
0.0150014
0.0167943
0.0184997
0.020104
0.0216008
0.0229872
0.0242616
0.0254232
0.0264724
0.0274107
0.0282423
0.0289737
0.0296151
0.0301806
0.0306886
0.0311616
0.0316256
0.0321084
0.0326379
0.0332394
0.0339336
0.0347347
0.0356503
0.0366821
0.037829
0.0390917
0.0404881
0.0420947
0.0439272
0.0459158
0.0480092
0.0501715
0.000174601
0.000655965
0.00141566
0.00235032
0.00344641
0.0046956
0.00609347
0.00763718
0.00931961
0.0111172
0.0129794
0.0148432
0.0166581
0.0183929
0.0200312
0.0215649
0.0229902
0.0243051
0.0255084
0.0265998
0.0275805
0.0284533
0.0292237
0.0299003
0.0304953
0.031025
0.03151
0.0319744
0.0324451
0.0329495
0.0335139
0.0341609
0.0349075
0.0357642
0.0367355
0.0378216
0.0390221
0.0403464
0.0418432
0.0435856
0.0455119
0.0475635
0.0497013
0.000163353
0.000646542
0.00139378
0.00231386
0.00339282
0.00462231
0.0059983
0.00751807
0.00917598
0.0109538
0.0128077
0.0146775
0.0165102
0.018271
0.0199405
0.0215085
0.0229705
0.0243238
0.0255667
0.0266988
0.0277205
0.0286338
0.0294431
0.0301555
0.0307818
0.0313363
0.0318376
0.032308
0.0327731
0.0332596
0.0337942
0.0344007
0.0350985
0.0359009
0.0368149
0.0378426
0.0389842
0.0402439
0.0416497
0.0432911
0.0451464
0.0471495
0.0492533
0.000152075
0.000637352
0.00137243
0.00227829
0.00334043
0.00455083
0.00590552
0.00740184
0.00903564
0.0107923
0.0126347
0.0145063
0.0163529
0.0181363
0.0198339
0.0214338
0.0229302
0.0243198
0.0256006
0.0267716
0.0278328
0.0287856
0.0296333
0.0303819
0.0310407
0.0316222
0.0321432
0.0326243
0.0330894
0.0335644
0.0340758
0.0346484
0.0353032
0.036056
0.0369164
0.0378888
0.0389739
0.0401743
0.0415068
0.0430422
0.0448188
0.0467661
0.0488279
0.000141655
0.000628389
0.00135162
0.0022435
0.00328937
0.00448125
0.00581509
0.00728876
0.00889862
0.0106333
0.0124615
0.0143313
0.016188
0.0179906
0.0197135
0.0213429
0.0228715
0.0242953
0.025612
0.0268203
0.0279196
0.0289107
0.0297962
0.030581
0.0312729
0.031883
0.0324265
0.032922
0.0333918
0.0338609
0.0343553
0.0349
0.0355176
0.0362257
0.0370364
0.0379563
0.0389877
0.0401325
0.0414006
0.0428384
0.0445289
0.0464145
0.0484328
0.000133895
0.000619455
0.00133127
0.00220955
0.00323957
0.00441337
0.00572707
0.0071785
0.00876502
0.0104773
0.0122893
0.0141539
0.016017
0.0178355
0.0195812
0.0212376
0.0227962
0.0242523
0.0256031
0.0268469
0.0279828
0.029011
0.0299335
0.030754
0.0314794
0.0321194
0.0326872
0.0332002
0.0336789
0.034147
0.0346297
0.0351524
0.0357381
0.0364065
0.0371716
0.0380422
0.0390225
0.0401143
0.0413241
0.042681
0.044277
0.0460949
0.0480669
0.000129547
0.000610473
0.00131128
0.00217634
0.00319092
0.0043471
0.00564116
0.00707114
0.00863462
0.0103244
0.0121187
0.0139751
0.0158416
0.0176729
0.0194383
0.0211195
0.0227061
0.0241925
0.0255756
0.0268533
0.0280243
0.0290883
0.0300467
0.0309026
0.0316615
0.0323319
0.0329258
0.0334586
0.0339496
0.0344209
0.0348969
0.0354026
0.0359618
0.0365952
0.0373188
0.0381436
0.0390753
0.0401169
0.041273
0.0425632
0.0440622
0.0458069
0.047727
0.000126836
0.000601569
0.00129178
0.00214395
0.00314338
0.00428248
0.0055575
0.00696644
0.00850759
0.0101748
0.0119503
0.0137964
0.015663
0.017504
0.0192867
0.0209902
0.0226027
0.0241177
0.0255314
0.0268412
0.0280458
0.0291443
0.0301376
0.0310281
0.0318203
0.0325216
0.0331425
0.0336972
0.0342032
0.0346813
0.0351549
0.0356485
0.036186
0.0367891
0.0374754
0.0382578
0.0391438
0.0401378
0.0412435
0.0424747
0.0438838
0.045551
0.0474184
0.000124559
0.000592943
0.00127282
0.00211237
0.00309714
0.00421961
0.00547597
0.00686457
0.00838384
0.0100289
0.0117848
0.0136182
0.0154822
0.0173305
0.0191277
0.0208511
0.0224875
0.0240293
0.0254718
0.0268123
0.0280488
0.0291807
0.0302078
0.031132
0.0319571
0.0326894
0.0333381
0.0339161
0.0344394
0.0349275
0.0354025
0.0358882
0.0364086
0.0369858
0.0376389
0.0383823
0.0392257
0.0401744
0.0412327
0.0424102
0.0437425
0.0453257
0.0471318
0.0001224
0.000584481
0.00125431
0.00208161
0.00305211
0.00415828
0.00539661
0.00676542
0.0082632
0.00988636
0.0116221
0.0134415
0.0153005
0.0171531
0.0189624
0.0207038
0.0223621
0.0239287
0.0253985
0.026768
0.0280353
0.0291988
0.0302586
0.0312157
0.0320732
0.0328363
0.0335134
0.0341158
0.0346582
0.0351588
0.0356385
0.0361202
0.0366276
0.0371833
0.0378071
0.0385151
0.0393187
0.0402247
0.0412381
0.0423662
0.0436349
0.0451299