/*--------------------------------*- C++ -*----------------------------------*\
| =========                 |                                                 |
| \\      /  F ield         | OpenFOAM: The Open Source CFD Toolbox           |
|  \\    /   O peration     | Version:  2.3.0                                 |
|   \\  /    A nd           | Web:      www.OpenFOAM.org                      |
|    \\/     M anipulation  |                                                 |
\*---------------------------------------------------------------------------*/
FoamFile
{
    version     2.0;
    format      ascii;
    class       surfaceScalarField;
    location    "1000";
    object      phi;
}
// * * * * * * * * * * * * * * * * * * * * * * * * * * * * * * * * * * * * * //

dimensions      [0 3 -1 0 0 0 0];

internalField   nonuniform List<scalar> 
75882
(
-0.00297247
-0.00797774
0.00876906
0.00218101
-0.00371612
-0.0077089
0.00845255
-0.00441188
-0.00745144
0.00814719
-0.00506343
-0.00720128
0.00785283
-0.00567156
-0.00695888
0.00756701
-0.00623814
-0.00672456
0.00729113
-0.00676404
-0.00649895
0.00702485
-0.00725041
-0.0062786
0.00676498
-0.00769871
-0.00606604
0.00651434
-0.00811142
-0.00585964
0.00627235
-0.00848715
-0.00566142
0.00603715
-0.00882951
-0.00546672
0.00580908
-0.00913979
-0.00527981
0.00559009
-0.00941848
-0.005098
0.00537669
-0.00966636
-0.00492129
0.00516918
-0.00988629
-0.00475086
0.00497079
-0.0100798
-0.00458339
0.00477691
-0.0102466
-0.0044232
0.00458996
-0.0103879
-0.00426568
0.00440701
-0.0105089
-0.0041117
0.00423274
-0.0106093
-0.00396304
0.00406341
-0.0106906
-0.00381786
0.00389917
-0.0107545
-0.00367532
0.00373915
-0.0108003
-0.0035375
0.00358334
-0.0108309
-0.00340212
0.00343272
-0.0108472
-0.0032687
0.00328499
-0.0108528
-0.00313545
0.00314111
-0.01084
-0.00300654
0.00299374
-0.0108162
-0.00287626
0.00285246
-0.0107707
-0.00275021
0.00270471
-0.0107101
-0.00261632
0.00255564
-0.0106247
-0.00248733
0.00240194
-0.0105166
-0.00235272
0.00224469
-0.0103802
-0.00221431
0.00207788
-0.0102131
-0.00207246
0.00190535
-0.0100179
-0.00192172
0.00172654
-0.00978666
-0.00176561
0.00153433
-0.0095223
-0.00160001
0.00133564
-0.00922847
-0.00142421
0.00113038
-0.00890638
-0.00123694
0.000914844
-0.00855851
-0.00104072
0.000692853
-0.00819577
-0.000839672
0.000476936
-0.000632629
-0.00794565
0.000382504
-0.00271202
-0.00727294
0.00200722
-0.00337011
-0.00705081
-0.00398748
-0.00683407
-0.00456376
-0.006625
-0.00509963
-0.00642301
-0.00559651
-0.00622767
-0.00605702
-0.00603845
-0.00647988
-0.00585573
-0.00686837
-0.00567755
-0.00722139
-0.00550662
-0.00754337
-0.00533945
-0.00783346
-0.00517662
-0.00809233
-0.00502094
-0.00832348
-0.00486685
-0.00852444
-0.00472033
-0.00869998
-0.00457532
-0.00884859
-0.00443477
-0.00897424
-0.00429756
-0.00907462
-0.0041653
-0.0091525
-0.00403382
-0.00920887
-0.00390667
-0.00924497
-0.00378177
-0.00925993
-0.00366035
-0.00925839
-0.00353904
-0.00924137
-0.00341915
-0.00920664
-0.00330342
-0.00915733
-0.00318477
-0.00909568
-0.00306819
-0.00901931
-0.00295263
-0.00893464
-0.00283488
-0.00883535
-0.00271561
-0.00872654
-0.00259614
-0.0086051
-0.00247415
-0.00847001
-0.00234939
-0.00832118
-0.00222129
-0.00815344
-0.00208946
-0.00796314
-0.00195591
-0.00774826
-0.00181488
-0.0074946
-0.00167787
-0.00719781
-0.00153373
-0.00684125
-0.00139728
-0.00642018
-0.00126075
-0.00113362
-0.00591919
-0.00246351
-0.00664469
0.00183526
-0.00305248
-0.00646183
-0.00360155
-0.006285
-0.00411217
-0.00611437
-0.00458579
-0.0059494
-0.00502362
-0.00578984
-0.00542755
-0.00563451
-0.00579782
-0.00548546
-0.00613569
-0.00533968
-0.00644408
-0.00519824
-0.00672175
-0.00506177
-0.00696854
-0.00492983
-0.00719056
-0.00479893
-0.0073835
-0.00467391
-0.00755199
-0.00455185
-0.00769488
-0.00443243
-0.00781402
-0.00431563
-0.00791045
-0.00420113
-0.00798691
-0.00408884
-0.0080394
-0.00398133
-0.00807303
-0.00387303
-0.00808764
-0.00376716
-0.00808516
-0.00366284
-0.00806499
-0.00355921
-0.00802626
-0.00345788
-0.0079726
-0.00335709
-0.00790292
-0.00325444
-0.00781801
-0.00315311
-0.00771988
-0.00305076
-0.00760749
-0.00294727
-0.00748101
-0.00284208
-0.00734025
-0.0027369
-0.0071872
-0.00262721
-0.00702185
-0.00251474
-0.00684175
-0.00240139
-0.00664623
-0.00228498
-0.00643815
-0.00216399
-0.00621054
-0.00204249
-0.00596673
-0.00192168
-0.00570303
-0.00179743
-0.00542287
-0.00167743
-0.00511892
-0.00156471
-0.00145739
-0.00479514
-0.00223957
-0.00608313
0.00167802
-0.00276317
-0.00593823
-0.00325227
-0.0057959
-0.00370606
-0.00566058
-0.00412627
-0.0055292
-0.00451398
-0.00540213
-0.00486891
-0.00527958
-0.00519605
-0.00515833
-0.00549214
-0.00504359
-0.00576072
-0.00492966
-0.00600101
-0.00482148
-0.00621675
-0.00471409
-0.0064057
-0.00460997
-0.00657077
-0.00450885
-0.00671244
-0.00441018
-0.00683278
-0.00431209
-0.00693048
-0.00421793
-0.00700713
-0.00412448
-0.00706258
-0.00403339
-0.00710137
-0.00394254
-0.00712078
-0.00385362
-0.00712356
-0.00376438
-0.00710809
-0.0036783
-0.00707611
-0.00359119
-0.00703168
-0.00350231
-0.00697077
-0.003418
-0.00689662
-0.00332859
-0.00680864
-0.00324109
-0.00670705
-0.00315235
-0.00659391
-0.00306042
-0.00646767
-0.00296832
-0.00633094
-0.00287363
-0.00618123
-0.00277693
-0.00602061
-0.00267536
-0.00584692
-0.00257508
-0.00566199
-0.00246991
-0.00546121
-0.00236477
-0.00524971
-0.00225399
-0.00502518
-0.00214621
-0.00478351
-0.0020391
-0.00452805
-0.00193289
-0.00426164
-0.00183112
-0.00173826
-0.00398077
-0.00202959
-0.00557852
0.00152498
-0.0024991
-0.00546873
-0.00293449
-0.0053605
-0.00333982
-0.00525525
-0.00371241
-0.0051566
-0.00405712
-0.00505742
-0.0043728
-0.0049639
-0.00466008
-0.00487104
-0.00492238
-0.00478129
-0.0051579
-0.00469415
-0.00536958
-0.0046098
-0.00555709
-0.00452659
-0.00572185
-0.00444521
-0.00586336
-0.00436734
-0.00598493
-0.00428861
-0.00608484
-0.00421218
-0.00616618
-0.00413659
-0.00622847
-0.00406219
-0.00627251
-0.00398935
-0.00630036
-0.0039147
-0.00631012
-0.00384386
-0.0063034
-0.00377111
-0.00628414
-0.00369756
-0.00624868
-0.00362665
-0.00619865
-0.00355234
-0.00613786
-0.0034788
-0.0060608
-0.00340565
-0.00597358
-0.00332831
-0.0058754
-0.00325053
-0.00576351
-0.00317231
-0.00564134
-0.00309048
-0.00550768
-0.00300729
-0.00536603
-0.00291858
-0.00520971
-0.00283167
-0.00504562
-0.00273917
-0.00487178
-0.00264375
-0.00468886
-0.00254769
-0.00449257
-0.00245029
-0.00428676
-0.00235201
-0.00407334
-0.00225253
-0.00384918
-0.00215705
-0.00361504
-0.00206526
-0.00197918
-0.00337411
-0.00184019
-0.00512765
0.00138932
-0.00225986
-0.00504905
-0.00265071
-0.00496965
-0.0030099
-0.00489606
-0.00334386
-0.00482264
-0.00365031
-0.00475097
-0.00393077
-0.00468345
-0.00418557
-0.00461624
-0.00441764
-0.00454922
-0.00462578
-0.00448601
-0.00481171
-0.00442386
-0.00497716
-0.00436114
-0.00511986
-0.00430251
-0.00524456
-0.00424264
-0.00535016
-0.00418301
-0.00543572
-0.00412662
-0.00550444
-0.00406786
-0.00555485
-0.00401179
-0.00559089
-0.0039533
-0.0056088
-0.00389679
-0.00561345
-0.00383921
-0.00560382
-0.00378074
-0.00557974
-0.00372164
-0.00554331
-0.00366308
-0.00549414
-0.0036015
-0.00543231
-0.00354063
-0.00535973
-0.00347823
-0.0052754
-0.00341264
-0.00517948
-0.00334644
-0.00507548
-0.00327631
-0.00496086
-0.0032051
-0.0048358
-0.00313235
-0.00470065
-0.00305374
-0.00455865
-0.00297368
-0.00440852
-0.00288929
-0.00424693
-0.00280534
-0.00407701
-0.00271761
-0.0038996
-0.0026277
-0.00371456
-0.00253706
-0.00351885
-0.00244824
-0.00331787
-0.00235802
-0.00310921
-0.00227392
-0.00219295
-0.00289544
-0.00166609
-0.00472343
0.00126187
-0.0020441
-0.00467104
-0.00239186
-0.00462189
-0.00271561
-0.00457231
-0.00301372
-0.00452454
-0.00328604
-0.00447865
-0.00353638
-0.00443311
-0.00376413
-0.00438849
-0.00396902
-0.00434432
-0.00415448
-0.00430056
-0.0043197
-0.00425864
-0.0044642
-0.00421663
-0.00459116
-0.00417555
-0.00470025
-0.00413354
-0.00479017
-0.0040931
-0.00486567
-0.00405112
-0.00492345
-0.00401008
-0.00496685
-0.00396839
-0.00499508
-0.00392507
-0.00500998
-0.00388189
-0.00501098
-0.0038382
-0.00499857
-0.00379315
-0.00497294
-0.00374727
-0.00493613
-0.0036999
-0.0048872
-0.00365043
-0.00482872
-0.00359911
-0.00475944
-0.00354751
-0.00468082
-0.00349126
-0.00459318
-0.00343408
-0.00449346
-0.00337603
-0.00438564
-0.00331291
-0.00427135
-0.00324664
-0.00414655
-0.00317854
-0.00401596
-0.00310427
-0.00387373
-0.00303152
-0.00372744
-0.00295163
-0.00357309
-0.00287195
-0.0034117
-0.00278909
-0.00324263
-0.00270614
-0.00306932
-0.00262154
-0.00288725
-0.00254009
-0.00270178
-0.00245939
-0.00238396
-0.00251078
-0.00151095
-0.00435848
0.00114601
-0.00184715
-0.00433484
-0.00216145
-0.00430759
-0.00244998
-0.00428378
-0.00271703
-0.00425749
-0.00296205
-0.00423363
-0.00318566
-0.0042095
-0.00338891
-0.00418524
-0.00357155
-0.00416168
-0.00373492
-0.00413719
-0.00388261
-0.00411095
-0.0040115
-0.00408775
-0.00412272
-0.00406433
-0.00421928
-0.00403698
-0.00429981
-0.00401257
-0.00436482
-0.00398611
-0.00441521
-0.0039597
-0.00445186
-0.00393173
-0.00447502
-0.00390191
-0.00448481
-0.0038721
-0.00448196
-0.00384105
-0.00446921
-0.00380591
-0.00444361
-0.00377287
-0.00440764
-0.00373586
-0.00436209
-0.00369599
-0.00430584
-0.00365536
-0.0042427
-0.00361064
-0.00416887
-0.00356508
-0.00408528
-0.00351767
-0.00399559
-0.00346572
-0.00389625
-0.00341226
-0.00378863
-0.00335425
-0.00367574
-0.00329144
-0.00355355
-0.00322646
-0.00342628
-0.00315879
-0.00329194
-0.00308596
-0.00315136
-0.00301254
-0.00300387
-0.00293658
-0.0028523
-0.0028577
-0.00269483
-0.00277902
-0.00253216
-0.00270275
-0.00236374
-0.00262781
-0.00255406
-0.00219365
-0.00136638
0.00103874
-0.00403083
-0.00167026
-0.00403097
-0.00195182
-0.00402602
-0.00221234
-0.00402327
-0.0024512
-0.00401864
-0.0026709
-0.00401392
-0.00287038
-0.00401002
-0.00305233
-0.0040033
-0.00321706
-0.00399695
-0.00336357
-0.00399068
-0.00349338
-0.00398114
-0.00360949
-0.00397164
-0.00370769
-0.00396613
-0.00379263
-0.00395204
-0.00386371
-0.00394149
-0.0039212
-0.00392862
-0.0039666
-0.0039143
-0.00399757
-0.00390076
-0.00401703
-0.00388245
-0.00402409
-0.00386504
-0.00402177
-0.00384336
-0.00400695
-0.00382073
-0.00398371
-0.0037961
-0.00395026
-0.00376932
-0.00390556
-0.00374069
-0.00385405
-0.00370687
-0.00379333
-0.00367137
-0.00372384
-0.00363457
-0.0036488
-0.00359271
-0.00356435
-0.00355017
-0.00347341
-0.00350319
-0.00337625
-0.00345141
-0.00327063
-0.00339707
-0.00316024
-0.00333685
-0.00304428
-0.00327474
-0.00292047
-0.00320977
-0.00279317
-0.00313984
-0.00265957
-0.00307018
-0.00252087
-0.00299639
-0.00238042
-0.00291947
-0.00223099
-0.00285219
-0.00208039
-0.00277841
-0.00192502
-0.00270942
-0.00682129
-0.000503976
-0.000620384
-0.00603405
-0.000497023
-0.000290213
-0.00539373
-0.000515426
-0.000124894
-0.00484272
-0.000544397
-6.61682e-06
-0.00435719
-0.000579617
9.40878e-05
-0.00392172
-0.000618627
0.000183157
-0.00352366
-0.000664675
0.000266616
-0.00315587
-0.000713712
0.000345921
-0.00281622
-0.0007631
0.000423447
-0.0024957
-0.000818177
0.000497666
-0.00219572
-0.000872708
0.000572728
-0.00191334
-0.000929107
0.000646724
-0.00164607
-0.000988866
0.000721594
-0.00139382
-0.0010493
0.000797047
-0.00115591
-0.00111195
0.000874037
-0.000931157
-0.00117537
0.000950617
-0.000721619
-0.00124042
0.00103088
-0.000523788
-0.00130901
0.00111118
-0.000340212
-0.00137768
0.0011941
-0.000169195
-0.00145006
0.00127905
-1.18189e-05
-0.00152454
0.00136717
0.00013103
-0.00160065
0.0014578
0.000260447
-0.00167982
0.00155041
0.000374053
-0.00176181
0.00164821
0.000474215
-0.00184731
0.00174715
0.000557667
-0.00193509
0.00185163
0.00062595
-0.00202744
0.00195916
0.000676402
-0.00212178
0.00207133
0.000711027
-0.00222169
0.00218706
0.000725807
-0.00232332
0.00230854
0.000722588
-0.00243147
0.00243469
0.00069918
-0.00254176
0.00256516
0.000655361
-0.00265821
0.00270203
0.000588928
-0.00277786
0.00284429
0.000500168
-0.0029034
0.00299216
0.000387261
-0.00303371
0.00314662
0.000249408
-0.0031697
0.00330755
8.51197e-05
-0.00331016
0.00347445
-0.000106585
-0.00345695
0.00364865
-0.000326824
-0.00360988
0.00383012
-0.000577649
-0.00376837
0.00401919
-0.000859183
-0.00393492
0.00421645
-0.00410711
0.0044223
-0.00117438
-0.00537846
-0.0010447
-0.00487719
-0.00099829
-0.00442061
-0.000972005
-0.0040016
-0.000963415
-0.00361579
-0.000965422
-0.00325587
-0.000978546
-0.00292253
-0.000998018
-0.00261122
-0.00102503
-0.00231741
-0.00105691
-0.00204275
-0.00109283
-0.00178327
-0.00113219
-0.00153783
-0.00117454
-0.00130631
-0.00122039
-0.00108823
-0.00126738
-0.000883641
-0.00131654
-0.000689546
-0.00136946
-0.000507505
-0.00142246
-0.000338208
-0.0014783
-0.000179029
-0.00153686
-3.27077e-05
-0.00159639
0.000100807
-0.00165806
0.00022269
-0.00172253
0.000332829
-0.00178996
0.000429139
-0.00185812
0.000512024
-0.0019302
0.000581
-0.00200406
0.000634878
-0.00208132
0.000674437
-0.00216134
0.000697045
-0.0022443
0.000704693
-0.00233096
0.000693374
-0.00242015
0.000665621
-0.002514
0.000618053
-0.00261064
0.000551139
-0.00271094
0.000463353
-0.00281562
0.000354335
-0.00292469
0.000222021
-0.00303738
6.66702e-05
-0.00315481
-0.000113453
-0.00327683
-0.000319391
-0.00340394
-0.000551831
-0.00353593
-0.00081347
-0.00367328
-0.00381706
-0.00110351
-0.00445488
-0.00138496
-0.00411108
-0.00134209
-0.0037737
-0.00130939
-0.00344788
-0.00128924
-0.00313412
-0.00127918
-0.00283355
-0.00127911
-0.00254774
-0.00128383
-0.00227527
-0.0012975
-0.00201681
-0.00131536
-0.00177172
-0.00133792
-0.00153845
-0.00136546
-0.00131778
-0.00139521
-0.00110815
-0.00143002
-0.000910235
-0.00146529
-0.000722888
-0.00150388
-0.000547728
-0.00154462
-0.000382959
-0.00158723
-0.000229454
-0.00163181
-8.71873e-05
-0.00167912
4.44913e-05
-0.00172806
0.000164589
-0.00177816
0.000272957
-0.0018309
0.000368557
-0.00188556
0.000452647
-0.00194221
0.000524115
-0.00200167
0.000582568
-0.00206251
0.000627568
-0.00212632
0.000658641
-0.00219241
0.000674565
-0.00226022
0.000675498
-0.0023319
0.000661477
-0.00240613
0.000629902
-0.00248243
0.000581979
-0.00256272
0.000515784
-0.00264475
0.000431173
-0.00273101
0.000326113
-0.00281963
0.000201449
-0.00291272
5.53989e-05
-0.00300876
-0.000113252
-0.00310817
-0.000305204
-0.00321199
-0.000521294
-0.00331984
-0.000762225
-0.00343235
-0.00354885
-0.00103044
-0.00369647
-0.00166926
-0.00341341
-0.00162514
-0.00313461
-0.00158819
-0.00286393
-0.00155992
-0.00260141
-0.00154169
-0.00234931
-0.00153121
-0.00210671
-0.00152643
-0.00187495
-0.00152925
-0.00165291
-0.00153741
-0.00144047
-0.00155037
-0.00123967
-0.00156626
-0.0010472
-0.00158768
-0.000866061
-0.00161116
-0.000692943
-0.00163841
-0.000531019
-0.00166581
-0.000378162
-0.00169748
-0.000234437
-0.00173096
-0.000100702
-0.00176554
2.26864e-05
-0.00180251
0.000135096
-0.00184047
0.000238687
-0.00188175
0.000330816
-0.00192303
0.00041286
-0.00196761
0.000483728
-0.00201308
0.000543126
-0.00206106
0.000590681
-0.00211007
0.00062601
-0.00216165
0.000648662
-0.00221506
0.000658153
-0.00226971
0.00065396
-0.0023277
0.000635529
-0.0023877
0.000601651
-0.00244855
0.000552457
-0.00251352
0.000487226
-0.00257952
0.000405035
-0.00264882
0.000305575
-0.00272017
0.000186755
-0.0027939
4.88606e-05
-0.00287087
-0.000108676
-0.00295064
-0.000287362
-0.0030333
-0.000488136
-0.00311906
-0.000711143
-0.00320934
-0.00330177
-0.000958222
-0.00312938
-0.001914
-0.00288958
-0.00186495
-0.00265342
-0.00182435
-0.00242203
-0.00179131
-0.00219653
-0.0017672
-0.00197908
-0.00174866
-0.00176891
-0.0017366
-0.00156744
-0.00173073
-0.00137353
-0.00173131
-0.00118758
-0.00173632
-0.0010105
-0.00174334
-0.000841315
-0.00175687
-0.000681016
-0.00177146
-0.000530897
-0.00178853
-0.000386631
-0.00181007
-0.000252306
-0.0018318
-0.00012697
-0.00185629
-9.1271e-06
-0.00188339
9.86895e-05
-0.00191033
0.000197942
-0.00193973
0.000287648
-0.00197145
0.000368396
-0.00200378
0.000438379
-0.00203759
0.000498927
-0.00207363
0.000548949
-0.00211109
0.000588138
-0.00214926
0.000616089
-0.0021896
0.000632417
-0.00223139
0.000637329
-0.00227462
0.000628984
-0.00231936
0.000607824
-0.00236654
0.000573666
-0.00241439
0.000524789
-0.00246465
0.000461205
-0.00251593
0.000382023
-0.00256964
0.000286743
-0.00262489
0.000174886
-0.00268204
4.59271e-05
-0.00274191
-0.000101497
-0.00280321
-0.000267696
-0.0028671
-0.000453207
-0.00293355
-0.000660063
-0.00300249
-0.00307398
-0.000887853
-0.00268218
-0.00212726
-0.0024717
-0.00207543
-0.00226325
-0.00203279
-0.00206046
-0.0019941
-0.00186421
-0.00196346
-0.00167348
-0.00193939
-0.00148882
-0.00192126
-0.00131061
-0.00190893
-0.00114012
-0.00190181
-0.000977177
-0.00189926
-0.000819996
-0.00190052
-0.000671811
-0.00190505
-0.00052968
-0.00191359
-0.000395403
-0.00192281
-0.000269276
-0.0019362
-0.00015042
-0.00195066
-3.97467e-05
-0.00196696
6.26218e-05
-0.00198576
0.000158305
-0.00200601
0.000244576
-0.002026
0.000322952
-0.00204983
0.000392438
-0.00207327
0.000453616
-0.00209877
0.000504652
-0.00212467
0.000546832
-0.00215327
0.000579068
-0.00218149
0.000601711
-0.00221224
0.000612924
-0.0022426
0.000613792
-0.00227549
0.000603149
-0.00230872
0.000579825
-0.00234321
0.00054503
-0.0023796
0.000496677
-0.00241629
0.000435684
-0.00245494
0.000360487
-0.00249444
0.000270922
-0.00253533
0.000165848
-0.00257697
4.50769e-05
-0.00262113
-9.21438e-05
-0.00266599
-0.000246586
-0.00271266
-0.000418701
-0.00276144
-0.000609258
-0.00281193
-0.0028639
-0.000819345
-0.00232093
-0.0023171
-0.00213104
-0.00226532
-0.00194887
-0.00221496
-0.00176791
-0.00217506
-0.00159395
-0.00213742
-0.00142406
-0.00210927
-0.00126178
-0.00208353
-0.00110393
-0.00206679
-0.000952739
-0.002053
-0.000807138
-0.00204486
-0.00066881
-0.00203885
-0.000536495
-0.00203737
-0.000411477
-0.00203861
-0.000291838
-0.00204244
-0.000179489
-0.00204855
-7.44592e-05
-0.00205569
2.38924e-05
-0.00206532
0.000114621
-0.00207649
0.000197711
-0.0020891
0.000274656
-0.00210294
0.000342838
-0.00211801
0.000403704
-0.00213413
0.000456247
-0.00215131
0.000501693
-0.00217011
0.000536794
-0.00218837
0.000564231
-0.00220893
0.000581378
-0.00222939
0.000589288
-0.00225051
0.000587045
-0.00227325
0.000574382
-0.00229605
0.000550929
-0.00231976
0.000516095
-0.00234476
0.000470204
-0.0023704
0.000412003
-0.00239674
0.000340202
-0.00242264
0.000255315
-0.00245044
0.000157438
-0.00247909
4.46709e-05
-0.00250837
-8.28785e-05
-0.00253844
-0.00022577
-0.00256977
-0.000385217
-0.00260199
-0.00056123
-0.00263592
-0.00267069
-0.000754431
-0.00202056
-0.00249019
-0.00185349
-0.00243239
-0.00168821
-0.00238023
-0.0015292
-0.00233407
-0.00137277
-0.00229385
-0.00122239
-0.00225965
-0.00107585
-0.00223007
-0.000936367
-0.00220627
-0.000800654
-0.00218871
-0.000670865
-0.00217465
-0.00054652
-0.00216319
-0.00042806
-0.00215583
-0.000316135
-0.00215053
-0.000210779
-0.0021478
-0.000112026
-0.0021473
-1.73126e-05
-0.0021504
6.95285e-05
-0.00215216
0.000150325
-0.00215728
0.000224147
-0.00216292
0.000291696
-0.00217049
0.000352017
-0.00217833
0.00040569
-0.0021878
0.000452447
-0.00219807
0.000489661
-0.00220733
0.000521135
-0.00221984
0.000543366
-0.00223116
0.000556602
-0.00224263
0.000562282
-0.00225619
0.000557796
-0.00226876
0.000543964
-0.00228222
0.000520786
-0.00229658
0.000487393
-0.00231137
0.000442875
-0.00232588
0.000387103
-0.00234097
0.000319526
-0.00235506
0.000240754
-0.00237167
0.000149131
-0.00238747
4.40905e-05
-0.00240333
-7.42799e-05
-0.00242007
-0.00020659
-0.00243746
-0.000352902
-0.00245568
-0.000515233
-0.00247359
-0.0024926
-0.000693324
-0.00177254
-0.00264267
-0.00162265
-0.00258229
-0.001475
-0.00252788
-0.00133134
-0.00247773
-0.00118963
-0.00243556
-0.00105508
-0.0023942
-0.00092538
-0.00235977
-0.000799184
-0.00233247
-0.000679894
-0.002308
-0.000562211
-0.00229233
-0.00045127
-0.00227414
-0.000345985
-0.00226111
-0.000245553
-0.00225096
-0.000150764
-0.00224259
-6.04222e-05
-0.00223765
2.21812e-05
-0.002233
0.000100136
-0.00223011
0.000172598
-0.00222974
0.000238703
-0.00222903
0.000298347
-0.00223013
0.000353201
-0.00223319
0.000400235
-0.00223484
0.00044074
-0.00223857
0.000474593
-0.00224118
0.000500545
-0.00224579
0.000519334
-0.00224995
0.000529964
-0.00225326
0.000532756
-0.00225899
0.000527183
-0.00226319
0.000513422
-0.00226846
0.000491226
-0.00227438
0.000458376
-0.00227852
0.000416327
-0.00228383
0.000363246
-0.00228789
0.000299818
-0.00229163
0.000226357
-0.00229821
0.000141071
-0.00230218
4.39978e-05
-0.00230625
-6.56107e-05
-0.00231047
-0.000187716
-0.00231535
-0.000322795
-0.0023206
-0.000471787
-0.00232459
-0.000634918
-0.00232947
-0.000250918
0.0037931
-0.00415377
0.000611587
6.76542e-05
0.0035732
-0.00389177
0.000348347
0.0033648
-0.00364549
0.000593687
0.00316797
-0.00341331
0.000806269
0.00298185
-0.00319443
0.000988805
0.00280663
-0.00298917
0.00114386
0.00264107
-0.00279613
0.00127338
0.00248477
-0.00261428
0.00137978
0.00233706
-0.00244346
0.00146528
0.0021976
-0.0022831
0.00153139
0.00206625
-0.00213237
0.00158041
0.00194191
-0.00199094
0.0016131
0.00182524
-0.00185793
0.00163215
0.00171442
-0.00173346
0.00163777
0.0016105
-0.00161612
0.00163238
0.00151183
-0.00150644
0.00161708
0.00141865
-0.00140334
0.00159248
0.00133141
-0.00130682
0.0015601
0.0012485
-0.00121612
0.0015208
0.00117056
-0.00113126
0.00147585
0.00109647
-0.00105152
0.00142567
0.00102713
-0.000976953
0.00137156
0.000961107
-0.000906994
0.00131386
0.000898812
-0.000841108
0.00125348
0.00084029
-0.000779914
0.00119103
0.000784509
-0.00072206
0.00112716
0.00073198
-0.000668109
0.00106268
0.000681823
-0.000617341
0.000997618
0.000634638
-0.000569579
0.000932873
0.000589692
-0.000524946
0.000868864
0.000546977
-0.000482968
0.000806092
0.000506263
-0.000443491
0.000745122
0.000467292
-0.000406323
0.000686361
0.000430168
-0.000371407
0.000629935
0.000394795
-0.00033837
0.000576173
0.000361033
-0.000307271
0.000525557
0.000328671
-0.000278055
0.00047642
0.000298973
-0.000249836
0.000426986
0.000273461
-0.000224026
0.000368191
0.000258314
-0.000199519
0.000277809
0.00027153
-0.000181148
9.43485e-05
0.000364459
-0.000180999
0.000684742
-0.00036279
-0.000227603
-0.000224133
0.00347111
0.000546121
6.29782e-05
0.00328609
0.000316612
0.00311116
0.000539628
0.00294495
0.000733458
0.00278802
0.000901056
0.00263904
0.00104434
0.00249779
0.00116482
0.00236428
0.00126498
0.00223691
0.00134555
0.00211703
0.00140902
0.00200278
0.00145649
0.00189444
0.00148977
0.00179196
0.00150946
0.00169473
0.00151791
0.00160205
0.0015152
0.00151453
0.00150278
0.00143107
0.00148217
0.00135202
0.00145386
0.00127681
0.00141931
0.00120511
0.00137835
0.00113743
0.001333
0.00107248
0.00128296
0.00101115
0.0012297
0.000952073
0.00117361
0.000896374
0.0011154
0.000842726
0.00105571
0.000791662
0.00099485
0.000742689
0.000933451
0.000696037
0.000872215
0.000650928
0.000811708
0.000607485
0.00075171
0.000566261
0.000693288
0.000525715
0.000636223
0.000487234
0.000580813
0.000450205
0.00052701
0.000414837
0.000473577
0.000382104
0.000417494
0.000355056
0.000352629
0.000338326
0.000264443
0.0003465
0.000125598
0.000410376
-0.000108726
0.000598784
0.00103257
-0.00045655
-0.000201169
0.00318085
0.00049143
5.74084e-05
0.00302751
0.000286705
0.00288187
0.000488209
0.00274345
0.000664815
0.00261141
0.000817529
0.00248632
0.000948442
0.00236687
0.00105958
0.00225314
0.00115136
0.00214512
0.0012265
0.0020419
0.00128587
0.00194341
0.00133064
0.00184967
0.0013623
0.00176031
0.00138179
0.00167524
0.00139047
0.00159337
0.00138941
0.00151558
0.00137934
0.00144115
0.00136148
0.00136988
0.00133639
0.0013019
0.00130488
0.00123663
0.00126834
0.00117396
0.00122667
0.00111415
0.00118138
0.00105644
0.00113243
0.00100102
0.00108095
0.000947854
0.00102706
0.000896623
0.000971734
0.000846984
0.000915224
0.000799199
0.000858166
0.000753095
0.000800935
0.000708159
0.000743965
0.000664454
0.000687627
0.000622599
0.000632068
0.000581274
0.000577401
0.000541902
0.000523518
0.000504087
0.000469234
0.000469122
0.000412934
0.000438404
0.000350427
0.000417563
0.000273474
0.00041528
0.000167101
0.000452873
1.01818e-05
0.000567296
-0.000223181
0.000832147
0.00132372
-0.000514335
-0.000181787
0.00291931
0.000443334
5.15301e-05
0.00279419
0.00025856
0.00267484
0.000441599
0.00256041
0.00060182
0.00245119
0.000741193
0.00234695
0.000860801
0.00224726
0.000962393
0.00215155
0.00104725
0.00206026
0.0011168
0.00197235
0.00117203
0.00188818
0.00121424
0.00180746
0.0012443
0.00173025
0.00126398
0.00165556
0.00127284
0.00158452
0.00127289
0.00151553
0.00126466
0.00144938
0.0012489
0.00138564
0.00122655
0.00132424
0.00119861
0.00126458
0.00116515
0.00120742
0.0011274
0.0011519
0.00108568
0.00109816
0.00104056
0.00104614
0.000993134
0.000995279
0.000943408
0.000946349
0.000892124
0.000898269
0.0008395
0.000851823
0.000786386
0.00080621
0.000733021
0.000761525
0.000679402
0.000718073
0.00062646
0.000675542
0.000573436
0.000634297
0.00052109
0.000594249
0.000468729
0.000556449
0.000414903
0.000522949
0.000357166
0.000496141
0.000291406
0.000483323
0.00020869
0.000497996
9.79687e-05
0.000563595
-5.81951e-05
0.00072346
-0.000275969
0.00104992
0.00158259
-0.000534837
-0.000164091
0.00268487
0.00039853
4.60584e-05
0.00258404
0.000233459
0.00248744
0.000399179
0.00239469
0.000544723
0.00230565
0.000671764
0.00221991
0.000781115
0.00213791
0.000874667
0.002058
0.000952766
0.00198217
0.00101721
0.00190791
0.00106848
0.00183691
0.001108
0.00176794
0.00113652
0.00170172
0.00115505
0.00163704
0.00116436
0.00157521
0.00116522
0.00151466
0.00115815
0.00145645
0.00114445
0.00139933
0.00112478
0.00134392
0.00109898
0.00129037
0.00106871
0.00123769
0.00103425
0.00118636
0.000995979
0.00113642
0.000954955
0.00108717
0.000910834
0.0010394
0.000865051
0.000992132
0.000817339
0.000945981
0.000768704
0.000900458
0.000719354
0.00085556
0.000669513
0.000811365
0.000619543
0.000768044
0.000569734
0.000725351
0.000519854
0.000684178
0.000469925
0.000644178
0.000419033
0.000607341
0.000366359
0.000575623
0.000309515
0.000552985
0.000243134
0.000549705
0.000160413
0.000580717
5.1076e-05
0.000672932
-9.88462e-05
0.000873383
-0.000298815
0.00124989
0.00181802
-0.000534241
-0.00014953
0.00247285
0.000361553
4.07723e-05
0.00239374
0.000210462
0.00231775
0.000360968
0.00224419
0.000493603
0.00217301
0.000609052
0.00210446
0.000709175
0.00203779
0.000794261
0.00197291
0.000866423
0.00191
0.000925468
0.00184886
0.000973271
0.0017891
0.00100984
0.00173137
0.00103712
0.00167444
0.00105459
0.00161957
0.00106391
0.0015659
0.00106507
0.0015135
0.00105956
0.00146197
0.00104717
0.00141172
0.00102928
0.00136181
0.00100667
0.00131299
0.000979037
0.00126532
0.000947436
0.00121796
0.000912347
0.00117151
0.000874153
0.00112536
0.000833971
0.00107958
0.000791236
0.00103487
0.000747416
0.000989801
0.000702526
0.000945348
0.000656828
0.000901258
0.000610727
0.000857466
0.00056448
0.000814291
0.000517724
0.000772108
0.000471362
0.00073054
0.000423795
0.000691744
0.000375135
0.000656001
0.000324569
0.00062619
0.000268414
0.00060914
0.000203643
0.000614476
0.00012356
0.000660801
1.79607e-05
0.000778532
-0.000122026
0.00101337
-0.000306117
0.00143398
0.00203431
-0.000522411
-0.000135823
0.00228152
0.000327148
3.57441e-05
0.00222217
0.000189572
0.00216392
0.000326328
0.00210743
0.000446651
0.00205269
0.000552125
0.00199899
0.000643804
0.00194611
0.000722004
0.00189471
0.000787848
0.00184416
0.000842214
0.0017945
0.000885845
0.00174547
0.000920172
0.00169705
0.000945299
0.00164931
0.000962129
0.00160274
0.000971252
0.00155677
0.000973126
0.00151162
0.000968362
0.00146673
0.000957808
0.00142227
0.000941628
0.00137799
0.000920636
0.00133398
0.000895713
0.00129025
0.000866841
0.00124683
0.000834718
0.00120364
0.000799867
0.00116021
0.000762721
0.00111673
0.000723714
0.00107387
0.000682916
0.0010306
0.000641111
0.000987153
0.000598954
0.000943415
0.000556346
0.000900074
0.000513688
0.000856948
0.000470991
0.000814805
0.000427752
0.000773778
0.000383695
0.000735802
0.000338019
0.000701678
0.000289262
0.000674946
0.000235954
0.000662448
0.000174507
0.000675923
9.80587e-05
0.00073725
-1.98823e-06
0.000878579
-0.000134768
0.00114615
-0.000305454
0.00160467
0.00223362
-0.000504769
-0.000123508
0.00210961
0.000295421
3.19408e-05
0.00206673
0.000170641
0.00202522
0.000294746
0.00198333
0.000404443
0.00194299
0.000500767
0.00190266
0.000583991
0.00186289
0.000655478
0.00182323
0.00071614
0.0017835
0.000765953
0.00174468
0.000806607
0.00170482
0.000837727
0.00166593
0.000860893
0.00162615
0.000877015
0.00158661
0.000885877
0.00154791
0.000888187
0.00150931
0.000884074
0.00147085
0.00087421
0.00143214
0.000859246
0.00139295
0.000840862
0.00135236
0.000818443
0.00131266
0.00079216
0.00127312
0.000762227
0.00123357
0.00073039
0.00119205
0.000696319
0.0011508
0.000660415
0.00110978
0.000623125
0.00106789
0.000584242
0.00102604
0.000545352
0.000982305
0.000506254
0.000939173
0.000466916
0.000896286
0.000427658
0.000854064
0.000387737
0.000813699
0.000347271
0.000776269
0.000304044
0.000744905
0.000258038
0.000720953
0.000207098
0.000713389
0.000149141
0.00073388
7.83458e-05
0.000808045
-1.52583e-05
0.000972183
-0.000140549
0.00127144
-0.000298304
0.00176242
0.00241387
-0.000478547
-0.000112531
0.000268181
0.00195396
2.7735e-05
0.00192646
0.000154184
0.00189877
0.000266854
0.00187066
0.000366809
0.00184304
0.00045389
0.00181558
0.000530425
0.00178635
0.000594984
0.00175867
0.000651091
0.00172739
0.000696889
0.00169889
0.000734556
0.00166715
0.000763059
0.00163743
0.000785147
0.00160406
0.000800302
0.00157146
0.000809172
0.00153904
0.000812195
0.00150629
0.000809423
0.00147362
0.000800727
0.00144083
0.000786678
0.001407
0.000769157
0.00136989
0.000748621
0.0013332
0.000725211
0.00129653
0.000697579
0.0012612
0.000668153
0.00122148
0.000637061
0.00118189
0.0006042
0.00114264
0.000569499
0.00110259
0.000533596
0.00106194
0.000496816
0.00101908
0.000460926
0.000975063
0.000425408
0.000931805
0.000389436
0.000890036
0.000353945
0.000849189
0.000317437
0.000812777
0.0002771
0.000785243
0.000234161
0.000763891
0.000185277
0.000762273
0.000130679
0.000788478
6.85516e-05
0.000870173
-2.14555e-05
0.00106219
-0.000143487
0.00139347
-0.000296783
0.00191572
-0.000461506
0.00257859
-0.00063771