/*--------------------------------*- C++ -*----------------------------------*\
| =========                 |                                                 |
| \\      /  F ield         | OpenFOAM: The Open Source CFD Toolbox           |
|  \\    /   O peration     | Version:  2.3.0                                 |
|   \\  /    A nd           | Web:      www.OpenFOAM.org                      |
|    \\/     M anipulation  |                                                 |
\*---------------------------------------------------------------------------*/
FoamFile
{
    version     2.0;
    format      ascii;
    class       volVectorField;
    location    "1000";
    object      U;
}
// * * * * * * * * * * * * * * * * * * * * * * * * * * * * * * * * * * * * * //

dimensions      [0 1 -1 0 0 0 0];

internalField   nonuniform List<vector> 
38111
(
(25.4171 9.56223 -2.59575e-21)
(25.4442 9.81881 -9.26238e-22)
(25.4634 10.0965 -8.73168e-21)
(25.4782 10.3798 -2.4152e-20)
(25.4877 10.6703 1.17733e-20)
(25.4916 10.9679 -5.61594e-21)
(25.4894 11.2731 4.33407e-20)
(25.4807 11.5859 -3.64242e-20)
(25.4649 11.9067 6.96361e-21)
(25.4414 12.2358 -1.25979e-19)
(25.4097 12.5736 1.25071e-19)
(25.3694 12.9207 0)
(25.3197 13.2775 -1.51641e-19)
(25.2603 13.6446 3.26497e-19)
(25.1905 14.0229 -1.72476e-19)
(25.1096 14.4131 -1.57714e-20)
(25.017 14.8162 0)
(24.9118 15.2332 -2.3458e-19)
(24.7931 15.6653 2.48682e-19)
(24.6598 16.114 1.3415e-20)
(24.5109 16.5804 2.32166e-20)
(24.3449 17.0661 3.10612e-19)
(24.1603 17.5726 -3.32467e-19)
(23.9552 18.1009 0)
(23.7271 18.652 6.66702e-21)
(23.4728 19.2259 0)
(23.1877 19.8215 4.57447e-19)
(22.8661 20.4365 -5.03589e-19)
(22.5 21.0671 1.18734e-20)
(22.0796 21.7069 5.81482e-19)
(21.5918 22.3476 -5.48121e-19)
(21.0217 22.9777 0)
(20.3512 23.5841 -3.06241e-20)
(19.5575 24.1501 1.41059e-20)
(18.6125 24.6576 -3.62172e-19)
(17.4835 25.0852 7.45176e-19)
(16.1332 25.4103 -3.67802e-19)
(14.5196 25.6089 -2.17119e-19)
(12.5954 25.6327 7.7433e-20)
(10.3142 25.4193 6.50792e-20)
(7.64405 25.0047 0)
(4.57794 24.5469 1.98214e-20)
(1.24639 23.6376 8.52948e-21)
(25.1368 9.58107 -2.23239e-21)
(25.1431 9.81594 3.18728e-22)
(25.1438 10.0668 -2.97466e-21)
(25.1402 10.3223 -2.80329e-21)
(25.1316 10.5831 0)
(25.1174 10.8495 -9.93947e-21)
(25.0973 11.1218 1.54726e-20)
(25.0709 11.4 8.55663e-21)
(25.0375 11.6844 9.96083e-21)
(24.9969 11.975 0)
(24.9482 12.2722 7.87653e-20)
(24.8909 12.576 -7.12278e-20)
(24.8243 12.8868 -1.12496e-19)
(24.7478 13.2048 2.15593e-19)
(24.6608 13.5304 -1.15167e-19)
(24.5624 13.8638 -5.40863e-21)
(24.4517 14.2053 1.33815e-19)
(24.3277 14.5552 -1.46311e-19)
(24.1892 14.9139 0)
(24.0346 15.2816 -1.34403e-20)
(23.8625 15.6588 7.73973e-21)
(23.671 16.046 1.53771e-20)
(23.458 16.4436 0)
(23.221 16.8523 0)
(22.9572 17.2723 9.31861e-21)
(22.6637 17.7044 0)
(22.3365 18.1483 -2.32252e-19)
(21.9715 18.6038 9.87657e-21)
(21.5644 19.0702 4.87605e-19)
(21.1098 19.5455 -1.3258e-19)
(20.6015 20.0256 -2.57589e-19)
(20.0332 20.5055 1.35261e-19)
(19.3985 20.978 1.3727e-20)
(18.6906 21.4321 -1.39147e-20)
(17.9036 21.8533 7.90647e-20)
(17.0334 22.2221 -5.14483e-20)
(16.0792 22.5145 -2.53004e-20)
(15.0437 22.7 0)
(13.9358 22.7409 1.21264e-20)
(12.7764 22.5926 0)
(11.6023 22.2086 0)
(10.4462 21.536 -1.20078e-19)
(9.31378 20.513 1.16473e-19)
(24.8861 9.58493 -2.19062e-21)
(24.8795 9.79822 -1.014e-20)
(24.8676 10.0247 3.88973e-21)
(24.8514 10.255 -4.33694e-21)
(24.8302 10.4897 9.32266e-21)
(24.8037 10.7288 -2.1419e-22)
(24.7712 10.9724 4.8626e-22)
(24.7324 11.2209 -2.19722e-21)
(24.6871 11.4742 0)
(24.6346 11.7326 0)
(24.5744 11.996 0)
(24.5058 12.2645 -7.0935e-21)
(24.4282 12.5385 -4.21081e-20)
(24.3408 12.818 3.74828e-20)
(24.243 13.1033 5.56325e-20)
(24.1342 13.3948 -5.05414e-20)
(24.0136 13.6924 -6.72528e-20)
(23.8803 13.9962 1.38178e-19)
(23.7333 14.3065 -1.46021e-19)
(23.5716 14.6232 1.55651e-19)
(23.3937 14.9461 -8.55884e-20)
(23.1982 15.2752 -8.74576e-20)
(22.9832 15.6102 8.89921e-20)
(22.7468 15.9505 -9.2624e-20)
(22.4864 16.2954 -2.31852e-21)
(22.1994 16.6442 9.61157e-20)
(21.8826 16.9955 -3.73348e-21)
(21.5325 17.3475 -1.15964e-21)
(21.1453 17.6983 6.09758e-21)
(20.7171 18.0449 -3.66657e-20)
(20.2432 18.3829 6.6567e-20)
(19.7193 18.7075 -1.6023e-20)
(19.1411 19.0122 -2.67496e-20)
(18.5043 19.2883 6.75422e-21)
(17.8058 19.526 1.64109e-20)
(17.0439 19.7132 -1.04699e-20)
(16.2197 19.8356 -8.1339e-21)
(15.3381 19.8773 4.55723e-20)
(14.4088 19.8223 -4.36675e-20)
(13.449 19.6547 0)
(12.4857 19.3612 -4.00307e-20)
(11.5553 18.9323 4.07743e-20)
(10.7089 18.362 3.00317e-20)
(24.6628 9.57446 0)
(24.6467 9.76826 1.73148e-20)
(24.6252 9.97272 -1.67535e-20)
(24.5999 10.1808 1.51838e-20)
(24.5703 10.3924 -1.29936e-20)
(24.5358 10.6076 -1.05787e-20)
(24.4955 10.8265 1.67823e-20)
(24.4494 11.0494 -2.06352e-20)
(24.397 11.2765 -8.5422e-21)
(24.3382 11.5077 8.73352e-21)
(24.2723 11.7431 -6.07669e-21)
(24.1988 11.9827 6.03943e-21)
(24.1167 12.2265 1.70175e-21)
(24.0253 12.4746 -1.69782e-21)
(23.9241 12.7273 -2.75898e-21)
(23.812 12.9846 1.89742e-21)
(23.6887 13.2466 -2.75471e-21)
(23.5531 13.5136 8.5895e-21)
(23.4046 13.7853 -6.82414e-21)
(23.2419 14.0618 -7.05287e-22)
(23.064 14.3429 -2.998e-21)
(22.8694 14.6284 8.2391e-22)
(22.657 14.918 0)
(22.4252 15.211 0)
(22.1721 15.5067 4.891e-23)
(21.8959 15.804 3.18178e-21)
(21.5939 16.1015 2.96788e-21)
(21.2637 16.3971 -1.33677e-24)
(20.9026 16.6889 1.2284e-21)
(20.508 16.974 3.19051e-21)
(20.0774 17.2485 3.9278e-20)
(19.6084 17.5081 -3.97956e-20)
(19.0989 17.747 3.66285e-20)
(18.5472 17.9578 1.03081e-20)
(17.9529 18.1326 -4.97457e-20)
(17.317 18.262 -7.44882e-20)
(16.6427 18.3352 8.94473e-20)
(15.9359 18.3407 -7.14262e-20)
(15.2063 18.2676 2.5576e-20)
(14.4674 18.1059 4.33113e-20)
(13.7372 17.8482 2.02814e-20)
(13.037 17.4929 9.3314e-20)
(12.3918 17.0458 -1.51378e-19)
(24.4662 9.55135 -1.12393e-21)
(24.4413 9.72954 -1.55873e-22)
(24.4129 9.91497 2.4461e-20)
(24.3817 10.1035 0)
(24.3467 10.295 0)
(24.3073 10.4893 2.42901e-20)
(24.2625 10.6867 -1.69025e-20)
(24.2119 10.8875 1.18456e-21)
(24.1553 11.0921 -6.98878e-21)
(24.0928 11.3004 6.46706e-21)
(24.0241 11.5124 -3.95874e-21)
(23.9484 11.7279 0)
(23.8648 11.9469 0)
(23.7727 12.1696 0)
(23.6714 12.396 1.16362e-21)
(23.5597 12.626 1.76638e-20)
(23.4372 12.8599 -4.93138e-22)
(23.3032 13.0976 -2.23106e-22)
(23.1569 13.3393 -3.05737e-20)
(22.9975 13.5845 1.83179e-20)
(22.8237 13.8331 1.54713e-20)
(22.6344 14.0849 -2.02931e-20)
(22.4281 14.3392 4.2258e-21)
(22.2039 14.5959 -2.60132e-20)
(21.9605 14.8538 3.17104e-20)
(21.6961 15.1118 0)
(21.409 15.3685 -4.08008e-20)
(21.0967 15.6216 3.10883e-20)
(20.7568 15.869 6.47565e-21)
(20.3872 16.1081 -2.74335e-21)
(19.9861 16.3356 0)
(19.5521 16.5478 3.58652e-20)
(19.0841 16.7395 -5.9112e-20)
(18.5815 16.9047 0)
(18.0448 17.0369 0)
(17.4754 17.1286 9.0471e-20)
(16.877 17.1719 -8.88571e-20)
(16.2556 17.1588 0)
(15.6198 17.0817 0)
(14.9812 16.9348 1.72593e-20)
(14.3542 16.7142 -2.02596e-20)
(13.7548 16.4203 -6.06865e-20)
(13.2 16.0589 6.16054e-20)
(24.2898 9.5265 -2.14834e-21)
(24.2592 9.68764 -1.47209e-20)
(24.2266 9.85549 -1.72628e-20)
(24.1917 10.0263 6.6066e-21)
(24.1535 10.2001 0)
(24.1116 10.3764 2.33755e-20)
(24.0645 10.5552 -2.31197e-20)
(24.0117 10.7371 4.68283e-21)
(23.9529 10.9223 -1.53818e-21)
(23.8887 11.1113 -4.37938e-20)
(23.8189 11.3038 4.333e-20)
(23.743 11.4993 -3.72214e-20)
(23.6596 11.6978 3.16872e-20)
(23.5684 11.8999 0)
(23.4691 12.105 0)
(23.36 12.313 5.34977e-21)
(23.2403 12.5244 -5.39888e-21)
(23.1095 12.7389 0)
(22.9669 12.9568 -3.45651e-21)
(22.8122 13.1776 0)
(22.6441 13.4012 3.74124e-21)
(22.4615 13.6271 4.34711e-20)
(22.2628 13.8546 -4.85465e-20)
(22.0468 14.0836 0)
(21.813 14.3135 5.07646e-20)
(21.5606 14.543 -1.10605e-19)
(21.2881 14.7708 -1.55867e-20)
(20.9938 14.9945 7.8962e-20)
(20.6752 15.2117 3.32321e-21)
(20.3302 15.42 0)
(19.9569 15.6164 -5.85204e-20)
(19.5549 15.798 7.41077e-20)
(19.1242 15.9605 8.09903e-21)
(18.6646 16.0984 -8.98162e-20)
(18.177 16.2063 1.96286e-19)
(17.663 16.2777 -1.06852e-19)
(17.1261 16.3064 5.36091e-20)
(16.5712 16.286 -7.06982e-20)
(16.006 16.2112 4.3801e-20)
(15.4401 16.0781 -2.32213e-20)
(14.8853 15.8838 5.38919e-20)
(14.353 15.6292 -3.04891e-20)
(13.8558 15.3196 0)
(24.1291 9.49673 2.67315e-21)
(24.0982 9.64357 6.20554e-21)
(24.0634 9.79579 5.87888e-21)
(24.0264 9.95105 -7.82862e-21)
(23.9858 10.1092 2.29389e-20)
(23.9431 10.2701 6.28389e-21)
(23.8952 10.4329 -3.6275e-20)
(23.8419 10.5986 -7.51853e-21)
(23.7823 10.7673 1.33739e-20)
(23.7172 10.9397 -2.5948e-20)
(23.6473 11.1159 2.57899e-20)
(23.5726 11.2949 6.99539e-21)
(23.4906 11.4762 -1.4615e-21)
(23.4001 11.6612 -6.91592e-21)
(23.3038 11.8496 -6.97255e-21)
(23.198 12.0398 -5.41969e-21)
(23.0823 12.2331 5.47166e-21)
(22.9558 12.429 0)
(22.8175 12.6276 0)
(22.6675 12.8291 4.83504e-20)
(22.5052 13.0328 -5.68967e-20)
(22.3295 13.2384 -8.55075e-21)
(22.1391 13.4454 0)
(21.9317 13.6527 0)
(21.7059 13.8603 0)
(21.463 14.0678 -6.21073e-20)
(21.2019 14.2734 5.28049e-20)
(20.9219 14.4752 5.09837e-20)
(20.621 14.6704 -6.45354e-20)
(20.2966 14.8563 -6.34325e-20)
(19.9457 15.0299 6.52502e-20)
(19.5673 15.1893 -8.02866e-20)
(19.1639 15.3314 -3.09616e-20)
(18.7355 15.4505 9.34097e-20)
(18.2833 15.5422 0)
(17.8089 15.6014 0)
(17.3155 15.6222 -7.43828e-20)
(16.8066 15.5992 1.1827e-19)
(16.2892 15.5282 -8.66881e-20)
(15.7716 15.4071 -5.10334e-20)
(15.2666 15.2334 -5.64104e-20)
(14.7792 15.007 -2.04311e-21)
(14.3207 14.7333 0)
(23.9876 9.46485 1.37405e-20)
(23.9564 9.59907 1.44989e-20)
(23.9202 9.73733 -5.77652e-22)
(23.8833 9.87885 8.63512e-21)
(23.8401 10.0225 -2.54788e-20)
(23.7975 10.1709 3.37234e-20)
(23.7495 10.3196 -8.92867e-21)
(23.6968 10.472 7.56661e-21)
(23.6374 10.6267 -1.59391e-20)
(23.5724 10.7852 0)
(23.502 10.9475 8.32656e-21)
(23.4294 11.1128 -7.05382e-21)
(23.3521 11.2793 7.00697e-21)
(23.2609 11.4488 6.98247e-21)
(23.1671 11.6245 1.53115e-20)
(23.0649 11.8006 3.98392e-20)
(22.9529 11.9795 -3.16502e-20)
(22.832 12.1609 -3.28528e-20)
(22.6981 12.3436 4.21374e-20)
(22.553 12.5292 7.85797e-21)
(22.396 12.7169 0)
(22.2259 12.9064 8.64221e-21)
(22.0428 13.0978 1.07052e-20)
(21.8459 13.2889 -5.51994e-20)
(21.6281 13.4779 9.8609e-21)
(21.3938 13.668 4.62793e-20)
(21.1413 13.8561 -5.49997e-20)
(20.8721 14.0412 5.63346e-20)
(20.5851 14.2202 8.28224e-20)
(20.2786 14.3901 -6.79305e-20)
(19.949 14.547 0)
(19.59 14.6893 0)
(19.208 14.8171 2.28807e-20)
(18.8039 14.9231 5.60758e-20)
(18.3789 15.0035 -5.76225e-20)
(17.934 15.0547 3.44723e-20)
(17.4747 15.0712 0)
(17.0009 15.0478 0)
(16.5202 14.9815 0)
(16.0337 14.8711 5.04533e-20)
(15.5685 14.7139 -5.73751e-20)
(15.1132 14.5061 6.10276e-20)
(14.6829 14.2578 0)
(23.8556 9.42848 0)
(23.8296 9.55535 3.29702e-21)
(23.7916 9.68158 1.19202e-20)
(23.7577 9.8112 4.8823e-21)
(23.7125 9.93866 3.04924e-22)
(23.6722 10.0793 -9.21237e-21)
(23.6248 10.2146 9.89593e-21)
(23.5735 10.3569 0)
(23.5147 10.4998 8.67459e-21)
(23.4503 10.6471 9.58433e-21)
(23.3782 10.798 2.70739e-20)
(23.3026 10.9515 -3.49149e-20)
(23.2356 11.108 9.98549e-21)
(23.1458 11.2592 0)
(23.0555 11.426 -1.80315e-20)
(22.9597 11.5926 -8.57358e-21)
(22.8503 11.7586 0)
(22.7364 11.9317 1.02573e-20)
(22.6088 12.1016 -9.20589e-21)
(22.4697 12.2749 1.08772e-20)
(22.3202 12.4491 4.22427e-20)
(22.1566 12.6233 -8.73259e-20)
(21.9734 12.8005 2.18783e-20)
(21.7883 12.9847 6.13698e-20)
(21.5805 13.1572 -4.93362e-20)
(21.3567 13.3329 -4.35415e-20)
(21.1126 13.5071 -3.07762e-21)
(20.8527 13.6783 8.00481e-20)
(20.575 13.8434 -8.98426e-20)
(20.2778 14.0007 7.47246e-20)
(19.9705 14.1484 0)
(19.6278 14.2743 -4.83217e-20)
(19.2627 14.3921 7.63464e-20)
(18.8757 14.4885 0)
(18.4707 14.5583 6.6376e-20)
(18.0392 14.6023 -6.69235e-20)
(17.603 14.6174 0)
(17.1522 14.5942 4.40234e-20)
(16.7077 14.5316 0)
(16.2311 14.4326 0)
(15.7861 14.2896 -5.41602e-22)
(15.3455 14.0907 0)
(14.9386 13.862 0)
(-1.5091 20.9244 0)
(-0.651586 18.5428 8.19548e-19)
(0.306849 16.7408 -1.75273e-18)
(1.18808 15.3354 9.3422e-19)
(1.98924 14.1962 0)
(2.73518 13.2596 0)
(3.43323 12.4762 -2.14785e-18)
(4.08379 11.8124 -5.90994e-20)
(4.68832 11.2436 2.04372e-18)
(5.24941 10.7526 -3.78911e-20)
(5.76836 10.323 -3.61372e-20)
(6.24855 9.94392 -1.96259e-18)
(6.69284 9.60607 1.959e-18)
(7.10408 9.3019 1.21116e-19)
(7.48532 9.02565 0)
(7.83954 8.77326 -1.62973e-18)
(8.16933 8.54053 5.1394e-18)
(8.47741 8.32487 -6.60228e-18)
(8.76581 8.12362 3.16991e-18)
(9.03678 7.93492 3.09661e-18)
(9.29205 7.75683 -2.9911e-18)
(9.53336 7.58803 9.75238e-20)
(9.76229 7.42759 -1.85918e-19)
(9.98006 7.27418 0)
(10.188 7.12722 -9.03077e-20)
(10.387 6.98574 2.76582e-18)
(10.5781 6.84919 -2.64824e-18)
(10.762 6.71693 2.77995e-18)
(10.9394 6.5886 -2.60084e-18)
(11.1107 6.46363 -2.49143e-18)
(11.2766 6.34167 5.30947e-18)
(11.4374 6.22242 -1.50113e-18)
(11.5932 6.10556 -1.3286e-18)
(11.7445 5.9908 -2.94614e-21)
(11.8913 5.87798 1.65578e-19)
(12.0339 5.76688 -3.34936e-19)
(12.1722 5.65737 0)
(12.3066 5.54942 -1.68004e-18)
(12.4372 5.44304 3.02506e-18)
(12.5642 5.33818 -1.16628e-18)
(12.688 5.23491 -6.51369e-19)
(12.809 5.1334 3.2138e-19)
(12.9287 5.03069 -3.06451e-19)
(8.25884 19.1984 3.82846e-19)
(7.593 17.8506 -1.25483e-18)
(7.23276 16.6453 -6.38836e-20)
(7.08007 15.5821 9.40953e-19)
(7.06321 14.6439 -1.02309e-18)
(7.13736 13.8143 1.00936e-18)
(7.27212 13.0804 -5.94963e-20)
(7.44682 12.4306 0)
(7.64689 11.8541 -5.91192e-20)
(7.86179 11.341 0)
(8.08436 10.8826 0)
(8.3096 10.4713 -1.94248e-18)
(8.53373 10.1001 1.77709e-18)
(8.75442 9.76337 -1.08808e-19)
(8.97035 9.45615 5.20432e-20)
(9.18061 9.1743 -5.25357e-20)
(9.38461 8.91432 -1.58448e-18)
(9.58225 8.67317 1.59616e-18)
(9.77353 8.44839 0)
(9.95847 8.23779 4.7726e-20)
(10.1374 8.03963 1.4793e-18)
(10.3107 7.8524 -1.44854e-18)
(10.4786 7.67479 -1.32072e-18)
(10.6414 7.50574 1.3852e-18)
(10.7994 7.34432 -8.35503e-20)
(10.953 7.18976 1.66574e-19)
(11.1023 7.04132 -1.40162e-18)
(11.2477 6.89842 2.53827e-18)
(11.3893 6.76045 -2.68533e-18)
(11.5274 6.627 3.22908e-21)
(11.6619 6.49754 1.21645e-18)
(11.7932 6.37177 0)
(11.9212 6.24926 -1.60764e-19)
(12.046 6.12976 -1.4637e-18)
(12.1677 6.01297 1.14662e-18)
(12.2863 5.89867 1.47939e-18)
(12.4019 5.78668 -1.69005e-19)
(12.5145 5.67695 1.6261e-19)
(12.6244 5.56938 -1.33479e-18)
(12.7317 5.46392 -1.65998e-19)
(12.8366 5.36058 8.1314e-19)
(12.9394 5.25965 -3.19693e-19)
(13.0407 5.15823 -1.52359e-19)
(10.008 17.6697 2.79416e-19)
(9.48979 16.9029 -6.0078e-19)
(9.1285 16.1127 2.77463e-19)
(8.89643 15.3362 7.55625e-19)
(8.76714 14.5948 9.30536e-20)
(8.7183 13.8996 -7.89591e-19)
(8.73159 13.2551 8.4979e-19)
(8.79195 12.6622 7.70285e-20)
(8.88683 12.1192 -7.80344e-19)
(9.00677 11.6229 1.65326e-18)
(9.14403 11.1696 -1.66379e-18)
(9.29268 10.7551 5.44077e-20)
(9.4483 10.3754 -1.58527e-18)
(9.60747 10.0267 3.20771e-18)
(9.76801 9.70569 -1.61915e-18)
(9.92787 9.40901 1.54594e-18)
(10.086 9.13403 -1.60534e-18)
(10.2415 8.87822 9.18265e-20)
(10.3938 8.63937 0)
(10.5426 8.41565 0)
(10.6878 8.20546 1.30905e-18)
(10.8294 8.00735 -1.3673e-18)
(10.9673 7.82003 -1.34028e-18)
(11.1019 7.64248 8.26495e-20)
(11.2332 7.47366 2.67937e-18)
(11.3615 7.31272 -1.36496e-18)
(11.4868 7.15885 8.04221e-20)
(11.6093 7.01136 -1.26053e-18)
(11.7291 6.86961 8.01968e-20)
(11.8462 6.73305 1.17476e-18)
(11.9607 6.60119 1.56714e-19)
(12.0727 6.47355 0)
(12.1822 6.34973 8.04848e-20)
(12.2893 6.22937 1.26399e-18)
(12.3938 6.11215 1.55145e-19)
(12.4958 5.99783 -2.72422e-18)
(12.5953 5.88626 1.45594e-18)
(12.6925 5.77729 -6.49716e-19)
(12.7873 5.67081 8.15266e-19)
(12.8802 5.5667 6.4784e-19)
(12.9713 5.46484 -8.03438e-19)
(13.0608 5.36516 4.72538e-19)
(13.1496 5.26379 -1.52062e-19)
(11.8241 16.5226 0)
(11.3468 15.9458 -3.31286e-19)
(10.9627 15.34 3.75984e-19)
(10.6675 14.7279 0)
(10.452 14.1263 -4.80265e-20)
(10.3052 13.5463 4.8789e-20)
(10.2161 12.995 -7.25266e-19)
(10.1745 12.476 1.59438e-18)
(10.1709 11.9909 -7.66888e-19)
(10.1975 11.5394 5.19402e-20)
(10.2475 11.1203 -5.01903e-20)
(10.3152 10.7318 0)
(10.396 10.3716 4.89575e-20)
(10.4864 10.0375 1.23232e-21)
(10.5838 9.72723 -4.73456e-20)
(10.686 9.43857 0)
(10.7912 9.16944 4.67076e-20)
(10.8982 8.91795 -9.16568e-20)
(11.0061 8.68238 0)
(11.1141 8.46119 -1.39501e-18)
(11.2218 8.25303 1.36129e-18)
(11.3288 8.0566 -1.25086e-18)
(11.4351 7.87081 1.30817e-18)
(11.5403 7.69464 2.41218e-18)
(11.6444 7.52714 -1.34845e-18)
(11.7473 7.36751 -1.17666e-18)
(11.8489 7.21495 1.16459e-18)
(11.9492 7.06879 -1.15787e-18)
(12.0479 6.92847 -1.53466e-19)
(12.1451 6.79343 -1.1483e-18)
(12.2407 6.66321 1.14907e-18)
(12.3347 6.53737 0)
(12.427 6.41543 -1.07703e-18)
(12.5175 6.29706 1.31661e-18)
(12.6061 6.18194 -1.56708e-19)
(12.6927 6.06993 7.85373e-19)
(12.7773 5.96086 -1.24016e-21)
(12.8601 5.85457 -6.38659e-19)
(12.9413 5.75095 6.38211e-19)
(13.021 5.6499 -6.38675e-19)
(13.0995 5.55129 0)
(13.177 5.45508 -1.5656e-19)
(13.2542 5.35806 0)
(12.7027 15.6405 0)
(12.2705 15.1772 0)
(11.9071 14.6839 -4.16265e-20)
(11.6122 14.1765 4.39327e-20)
(11.3814 13.6682 0)
(11.2082 13.1693 -4.85658e-20)
(11.0858 12.6869 7.88173e-19)
(11.0067 12.2259 -7.77009e-19)
(10.9637 11.7889 7.50354e-19)
(10.9504 11.377 -7.35428e-19)
(10.961 10.9901 5.01403e-20)
(10.9904 10.6277 9.66714e-20)
(11.0344 10.289 6.30765e-19)
(11.09 9.97246 -6.1423e-19)
(11.1546 9.67665 -4.52177e-20)
(11.2259 9.39984 9.11216e-20)
(11.302 9.14054 0)
(11.3817 8.89734 6.23583e-19)
(11.4638 8.66885 -6.94684e-19)
(11.5478 8.45384 -1.36131e-18)
(11.6329 8.25108 2.66131e-18)
(11.7187 8.05954 -1.38604e-18)
(11.8049 7.87817 -1.2822e-18)
(11.8913 7.70607 2.60314e-18)
(11.9776 7.54238 -1.08912e-18)
(12.0635 7.38633 -7.75593e-20)
(12.149 7.23717 1.07792e-21)
(12.2336 7.09427 -1.02388e-21)
(12.3172 6.95718 1.50874e-19)
(12.3997 6.8254 -7.57346e-20)
(12.4812 6.6985 0)
(12.5616 6.57598 7.49629e-20)
(12.6407 6.45732 -1.51341e-19)
(12.7183 6.34222 -1.52137e-19)
(12.7941 6.23043 0)
(12.8682 6.12195 -6.16672e-19)
(12.9408 6.01652 7.00005e-19)
(13.0119 5.91393 -1.56153e-19)
(13.0816 5.81413 -1.27647e-21)
(13.1503 5.71701 -1.56556e-19)
(13.2181 5.62241 -3.11917e-19)
(13.2852 5.53026 4.62784e-19)
(13.3522 5.43749 3.03308e-19)
(13.403 14.9622 3.62935e-20)
(13.0009 14.5661 0)
(12.6532 14.142 4.15431e-20)
(12.361 13.7018 3.13268e-19)
(12.1223 13.2561 -2.64984e-19)
(11.933 12.8138 -9.2725e-20)
(11.7886 12.3818 -4.34718e-19)
(11.6837 11.965 3.80734e-19)
(11.6131 11.5662 -6.88078e-19)
(11.5715 11.1868 7.19714e-19)
(11.553 10.8274 0)
(11.5533 10.4883 6.7434e-19)
(11.569 10.1694 1.03915e-19)
(11.5975 9.86998 -1.58921e-18)
(11.6362 9.58875 9.17688e-19)
(11.6828 9.32454 -9.13708e-20)
(11.7355 9.07613 0)
(11.793 8.84249 1.74911e-19)
(11.8542 8.62255 -6.85326e-19)
(11.9185 8.41515 7.5119e-19)
(11.9852 8.21928 0)
(12.0536 8.034 -1.20768e-18)
(12.1236 7.85837 1.18509e-18)
(12.1946 7.69157 -6.23004e-19)
(12.2664 7.53287 5.37015e-19)
(12.3385 7.38147 7.55246e-20)
(12.4105 7.23666 7.57496e-20)
(12.482 7.09801 4.48669e-19)
(12.5529 6.96515 -6.70397e-19)
(12.6232 6.83766 5.2003e-19)
(12.6931 6.71503 -6.6773e-19)
(12.7624 6.59661 5.1978e-19)
(12.8306 6.4819 7.45291e-20)
(12.8973 6.37069 -5.24524e-19)
(12.9622 6.26291 0)
(13.0257 6.15872 7.56875e-20)
(13.0883 6.05754 -6.89517e-19)
(13.1494 5.95913 7.73465e-19)
(13.2094 5.86368 -1.55847e-19)
(13.2687 5.77096 1.55669e-19)
(13.3274 5.68076 7.68858e-20)
(13.3857 5.59311 -1.53354e-19)
(13.444 5.5049 -3.03913e-19)
(13.8994 14.4175 -3.60748e-20)
(13.5206 14.0669 0)
(13.188 13.6905 3.35117e-19)
(12.9027 13.2975 -3.3452e-19)
(12.6635 12.896 -8.9401e-20)
(12.467 12.4946 -2.7911e-19)
(12.3113 12.1004 -1.08512e-20)
(12.1923 11.7179 3.71795e-19)
(12.1062 11.3497 -9.55528e-20)
(12.0483 10.9968 0)
(12.011 10.6596 7.6144e-19)
(11.992 10.3403 -7.45177e-19)
(11.9887 10.0389 7.4689e-19)
(11.9989 9.75489 7.07047e-21)
(12.0198 9.48713 -8.12125e-19)
(12.0492 9.23472 0)
(12.0851 8.99678 0)
(12.1266 8.77265 5.17369e-19)
(12.1729 8.56131 -1.42963e-18)
(12.2232 8.36172 -3.17211e-21)
(12.2766 8.17289 6.45645e-19)
(12.3326 7.994 -1.58801e-19)
(12.3909 7.82415 7.81297e-19)
(12.4505 7.66282 -6.91564e-19)
(12.5114 7.50928 0)
(12.573 7.36248 -6.76909e-19)
(12.6344 7.22217 6.69769e-19)
(12.6955 7.08819 7.43436e-20)
(12.7563 6.96005 -6.62248e-19)
(12.8172 6.83728 1.1752e-18)
(12.8782 6.7192 -5.13118e-19)
(12.9388 6.60485 0)
(12.998 6.49425 0)
(13.0555 6.38708 -5.91971e-19)
(13.1111 6.28369 5.95909e-19)
(13.166 6.18434 -6.75021e-19)
(13.2206 6.08744 6.04972e-19)
(13.2732 5.99332 7.59742e-20)
(13.3251 5.90242 -7.63927e-20)
(13.3766 5.81425 -7.64008e-20)
(13.4277 5.72852 1.5253e-19)
(13.4786 5.64535 -3.03154e-19)
(13.5297 5.56104 1.51371e-19)
(14.2847 13.9722 0)
(13.9239 13.6545 -7.66769e-20)
(13.6035 13.3123 -1.64266e-19)
(13.3253 12.954 2.48077e-19)
(13.0885 12.5845 8.68788e-20)
(12.8876 12.2133 0)
(12.7246 11.8485 3.67568e-19)
(12.5958 11.4935 -2.7084e-19)
(12.5002 11.1492 3.73255e-19)
(12.433 10.8189 -6.47514e-19)
(12.3817 10.499 3.66159e-19)
(12.3487 10.1962 -3.6914e-19)
(12.3312 9.90931 3.61477e-19)
(12.328 9.63916 0)
(12.3356 9.38314 0)
(12.352 9.14163 7.03168e-19)
(12.3749 8.91311 -6.86947e-19)
(12.4046 8.69803 8.70217e-22)
(12.44 8.49493 8.31772e-20)
(12.4797 8.30267 4.87829e-19)
(12.5234 8.12043 -6.36329e-19)
(12.57 7.94703 -5.48511e-19)
(12.6192 7.78239 1.15614e-18)
(12.6695 7.62619 -4.55583e-19)
(12.722 7.47745 -7.47659e-20)
(12.7749 7.33449 5.21007e-19)
(12.8276 7.19925 -6.63235e-19)
(12.8801 7.07042 0)
(12.9329 6.9471 -5.82124e-19)
(12.9866 6.82882 5.81308e-19)
(13.0405 6.71492 -7.22723e-20)
(13.0938 6.6039 5.81054e-19)
(13.1451 6.49792 -1.16537e-18)
(13.1949 6.3946 5.85278e-19)
(13.2424 6.29625 0)
(13.2906 6.20211 -7.38282e-20)
(13.339 6.10849 0)
(13.3839 6.01905 -7.54982e-20)
(13.4292 5.93276 7.59248e-20)
(13.4749 5.84924 7.59839e-20)
(13.5198 5.76764 7.57667e-20)
(13.5647 5.68853 0)
(13.61 5.60724 0)
(14.5591 13.6011 -7.38426e-20)
(14.2118 13.3081 1.50144e-19)
(13.8989 12.9907 7.89477e-20)
(13.6281 12.6631 -8.38044e-20)
(13.4044 12.3177 -1.72909e-19)
(13.2049 11.9681 -1.81367e-19)
(13.0397 11.6251 -1.88213e-19)
(12.9014 11.2954 3.51447e-19)
(12.7989 10.9702 3.71021e-19)
(12.7278 10.6648 -3.74083e-19)
(12.6681 10.3546 0)
(12.6273 10.0654 3.68224e-19)
(12.6003 9.78964 -8.57037e-20)
(12.5886 9.53378 -3.56058e-19)
(12.5882 9.28723 -2.65794e-19)
(12.5967 9.05747 -8.85704e-20)
(12.6125 8.83578 2.575e-19)
(12.6352 8.6292 8.49943e-20)
(12.6633 8.43301 3.32503e-19)
(12.6958 8.24637 -5.68173e-19)
(12.7331 8.06873 2.37255e-19)
(12.7731 7.89796 7.70726e-20)
(12.8157 7.73802 0)
(12.8582 7.58631 -1.50605e-19)
(12.9053 7.44154 6.30459e-22)
(12.9509 7.30235 1.46293e-19)
(12.9947 7.17487 0)
(13.0404 7.0499 7.42864e-20)
(13.0871 6.9298 7.41996e-20)
(13.1353 6.81431 -2.90534e-19)
(13.1838 6.70437 2.82232e-19)
(13.2315 6.59611 0)
(13.2751 6.49763 0)
(13.3188 6.39605 0)
(13.3578 6.30411 0)
(13.4021 6.21409 -1.45476e-19)
(13.4461 6.12137 2.96253e-19)
(13.4823 6.03955 0)
(13.5237 5.95745 0)
(13.5644 5.87877 -1.52585e-19)
(13.6035 5.79951 2.29442e-19)
(13.6435 5.72333 0)
(13.6852 5.6446 0)
(12.1939 -3.32295 -2.77377e-18)
(11.871 -3.28778 0)
(11.5508 -3.25226 -6.10068e-19)
(11.2351 -3.21557 0)
(10.9239 -3.17853 -6.2076e-19)
(10.6174 -3.14126 -4.67132e-19)
(10.3154 -3.10382 -1.51136e-19)
(10.0181 -3.06626 -5.46253e-21)
(9.72526 -3.02861 0)
(9.437 -2.99091 3.16589e-19)
(9.15326 -2.95317 -6.35255e-19)
(8.87396 -2.9154 1.09382e-21)
(8.59909 -2.87763 6.52221e-19)
(8.32853 -2.83984 -5.93263e-22)
(8.06226 -2.80208 -1.00757e-18)
(7.80018 -2.76433 -6.88856e-19)
(7.54222 -2.72663 3.52155e-19)
(7.28831 -2.68897 -7.18139e-19)
(7.03831 -2.65135 1.47939e-18)
(6.79212 -2.61376 -7.64734e-19)
(6.5496 -2.5762 0)
(6.31059 -2.53866 0)
(6.07487 -2.50111 2.12345e-19)
(5.84226 -2.46355 0)
(5.61248 -2.42591 9.5681e-19)
(5.38526 -2.38821 -1.01449e-18)
(5.16027 -2.35038 -4.78797e-21)
(4.93713 -2.31238 4.3525e-19)
(4.71546 -2.2742 7.85013e-19)
(4.49477 -2.23572 -1.02943e-18)
(4.27457 -2.19687 3.58045e-22)
(4.05435 -2.15756 2.79752e-21)
(3.83353 -2.11766 1.0232e-21)
(3.6115 -2.07698 2.59401e-19)
(3.38764 -2.0352 8.76864e-19)
(3.16139 -1.99177 -1.34192e-18)
(2.93272 -1.94552 0)
(2.70348 -1.89463 0)
(2.48252 -1.83535 -2.64715e-19)
(2.3069 -1.76323 -3.15483e-19)
(2.32593 -1.68251 0)
(3.09965 -1.68801 0)
(6.76653 -2.2687 1.53765e-17)
(12.108 -3.31524 1.16207e-18)
(11.8125 -3.27953 6.18752e-19)
(11.5192 -3.24633 -6.3172e-19)
(11.2295 -3.2136 -3.16657e-19)
(10.9434 -3.18095 1.58946e-18)
(10.6607 -3.14817 6.36164e-19)
(10.3816 -3.11523 -6.57093e-19)
(10.1059 -3.08211 6.58426e-19)
(9.8336 -3.04883 -1.61018e-19)
(9.56463 -3.01537 -4.82102e-19)
(9.29888 -2.98174 1.44193e-21)
(9.03632 -2.9479 6.51492e-19)
(8.77681 -2.91385 0)
(8.52027 -2.87957 6.64565e-19)
(8.26656 -2.84506 -1.0116e-18)
(8.01559 -2.81032 6.87485e-19)
(7.76723 -2.77538 3.52503e-19)
(7.52134 -2.74023 -7.19532e-19)
(7.27781 -2.70486 1.11329e-18)
(7.03648 -2.66929 0)
(6.79721 -2.63348 0)
(6.55978 -2.59746 -1.03096e-18)
(6.32402 -2.56118 1.07813e-18)
(6.0897 -2.52465 6.76047e-19)
(5.85654 -2.48781 -7.13716e-19)
(5.62425 -2.45063 1.0108e-18)
(5.39248 -2.41303 -8.0638e-19)
(5.16087 -2.37495 1.62419e-21)
(4.92897 -2.33624 0)
(4.69631 -2.29676 3.36804e-19)
(4.46245 -2.25629 5.48634e-19)
(4.22693 -2.21449 1.24722e-20)
(3.98939 -2.17096 -2.33338e-19)
(3.74983 -2.12501 -7.3461e-19)
(3.50882 -2.07569 -2.73902e-19)
(3.26861 -2.02152 1.23707e-18)
(3.03551 -1.96029 0)
(2.82629 -1.88889 3.25813e-18)
(2.68756 -1.80379 8.36419e-22)
(2.74378 -1.71119 -4.39151e-18)
(3.30294 -1.66521 0)
(5.1096 -1.89207 5.91309e-18)
(9.82141 -2.90573 -5.19962e-18)
(12.0323 -3.29985 2.51054e-21)
(11.7569 -3.26787 6.32947e-19)
(11.4844 -3.23618 -3.22645e-19)
(11.2147 -3.20517 -3.23228e-19)
(10.9477 -3.17424 -8.07074e-19)
(10.6834 -3.14317 -1.62836e-19)
(10.4215 -3.1119 3.25093e-19)
(10.162 -3.08041 0)
(9.90487 -3.04872 6.50583e-19)
(9.64988 -3.01682 -3.27677e-19)
(9.39708 -2.98473 9.67359e-22)
(9.1464 -2.95243 -6.61874e-19)
(8.89775 -2.91987 3.3448e-19)
(8.65101 -2.88704 0)
(8.40605 -2.85393 3.43858e-19)
(8.16275 -2.82054 -1.69046e-21)
(7.92097 -2.78688 -3.59536e-19)
(7.68058 -2.75297 0)
(7.44148 -2.7188 -3.75705e-19)
(7.20351 -2.68437 0)
(6.9665 -2.64966 2.02718e-19)
(6.73028 -2.61464 2.08824e-19)
(6.49461 -2.57928 -2.17966e-19)
(6.25932 -2.54357 -2.30585e-19)
(6.02413 -2.50739 4.85891e-19)
(5.78878 -2.47071 -7.64613e-19)
(5.55295 -2.4334 1.08475e-18)
(5.31633 -2.39532 -8.66591e-19)
(5.07856 -2.35625 -1.59107e-21)
(4.83934 -2.31594 -1.00174e-18)
(4.59845 -2.274 -3.59707e-19)
(4.3558 -2.22988 0)
(4.11187 -2.18292 4.33194e-19)
(3.868 -2.13203 2.39019e-19)
(3.62739 -2.07578 5.28743e-19)
(3.39728 -2.01221 5.96205e-19)
(3.19381 -1.93871 -6.69389e-19)
(3.05436 -1.85271 5.37959e-23)
(3.06351 -1.75629 4.38656e-19)
(3.39843 -1.67097 6.5456e-18)
(4.41961 -1.68299 -4.66806e-18)
(6.82589 -2.03235 -5.57028e-18)
(11.5342 -3.17308 4.24244e-18)
(11.9614 -3.28155 9.88419e-22)
(11.7061 -3.2527 -6.47044e-19)
(11.4523 -3.22353 -3.28452e-19)
(11.2006 -3.19445 3.29357e-19)
(10.951 -3.16525 0)
(10.7032 -3.13582 3.28694e-19)
(10.4571 -3.10616 -6.49244e-19)
(10.2125 -3.07625 -5.15953e-20)
(9.96933 -3.04612 -1.23133e-19)
(9.72742 -3.0158 1.65068e-19)
(9.48673 -2.98532 -1.67158e-19)
(9.24727 -2.95466 5.06767e-19)
(9.00893 -2.92375 0)
(8.77161 -2.8925 3.46188e-19)
(8.53517 -2.86087 0)
(8.29936 -2.82881 0)
(8.06404 -2.79638 -1.17883e-21)
(7.82906 -2.76359 3.74679e-19)
(7.59429 -2.73044 0)
(7.35962 -2.69693 -1.99486e-19)
(7.12488 -2.66298 -4.10216e-19)
(6.88983 -2.62857 4.28315e-19)
(6.65432 -2.59369 -4.46436e-19)
(6.41813 -2.55828 4.68021e-19)
(6.18106 -2.52227 -1.48764e-22)
(5.94285 -2.48552 -5.5036e-22)
(5.70325 -2.44791 -5.50352e-19)
(5.46207 -2.40925 0)
(5.21912 -2.36926 -2.44726e-21)
(4.97435 -2.32753 5.03917e-19)
(4.72792 -2.28353 -2.73139e-19)
(4.48031 -2.23648 9.83673e-20)
(4.23301 -2.18545 -4.27212e-19)
(3.98901 -2.12909 -2.33728e-19)
(3.75461 -2.06575 -2.58843e-19)
(3.54245 -1.99339 2.91187e-21)
(3.37897 -1.90991 -1.31111e-18)
(3.31919 -1.815 1.48907e-18)
(3.47145 -1.71769 -2.10348e-18)
(4.03643 -1.65357 1.43212e-18)
(5.37585 -1.72692 0)
(8.1081 -2.17117 1.60855e-18)
(12.6736 -3.33907 9.52991e-19)
(11.8975 -3.26781 3.23266e-19)
(11.6608 -3.23956 -3.29992e-19)
(11.4248 -3.21161 0)
(11.1898 -3.18428 0)
(10.9563 -3.15689 1.67494e-19)
(10.7238 -3.12917 -1.67612e-19)
(10.4922 -3.10107 3.23963e-19)
(10.2613 -3.07262 1.04928e-20)
(10.0308 -3.04384 -8.40821e-20)
(9.80067 -3.01483 -2.5425e-19)
(9.57078 -2.98561 3.4087e-19)
(9.34119 -2.9563 -1.70622e-19)
(9.11187 -2.92678 -1.73369e-19)
(8.88288 -2.89695 1.91036e-21)
(8.65395 -2.86657 0)
(8.42482 -2.83559 -3.63936e-19)
(8.19522 -2.80403 3.72361e-19)
(7.96495 -2.77199 -3.81684e-19)
(7.7339 -2.73953 7.86967e-19)
(7.50207 -2.70666 2.02169e-19)
(7.26928 -2.67324 -2.09425e-19)
(7.03526 -2.63917 0)
(6.79979 -2.60447 4.551e-19)
(6.5627 -2.56913 -4.76707e-19)
(6.32395 -2.53306 7.49713e-19)
(6.08322 -2.49605 -7.91688e-19)
(5.84035 -2.45798 2.79402e-19)
(5.59521 -2.41866 0)
(5.3479 -2.37779 6.33138e-19)
(5.09875 -2.33486 -1.68552e-19)
(4.84836 -2.2891 -1.85175e-19)
(4.59796 -2.23954 -6.17033e-21)
(4.35 -2.18493 -1.00698e-19)
(4.10922 -2.12371 1.17816e-19)
(3.88466 -2.05412 -5.18544e-19)
(3.69374 -1.97441 5.80347e-19)
(3.57179 -1.88356 -6.47578e-19)
(3.58651 -1.78458 1.4603e-18)
(3.85918 -1.69222 -1.63039e-18)
(4.60004 -1.65158 0)
(6.15796 -1.77558 -1.99433e-18)
(9.07111 -2.28985 9.67644e-19)
(13.5036 -3.45662 -4.38283e-18)
(11.8438 -3.25065 3.22714e-19)
(11.6215 -3.22484 -3.35766e-19)
(11.4006 -3.19923 1.70655e-19)
(11.1805 -3.17388 -3.40815e-19)
(10.9615 -3.14838 1.70125e-19)
(10.7429 -3.12229 0)
(10.5244 -3.09564 0)
(10.3059 -3.06848 -3.41468e-19)
(10.0867 -3.04079 -8.53778e-20)
(9.86729 -3.01279 5.99776e-19)
(9.64684 -2.98442 -5.17405e-19)
(9.42586 -2.95609 0)
(9.20415 -2.92771 -5.29564e-19)
(8.98235 -2.89926 -5.36101e-19)
(8.76004 -2.87012 -3.63274e-19)
(8.53691 -2.84016 3.70739e-19)
(8.31245 -2.8093 0)
(8.08631 -2.77769 -3.88714e-19)
(7.85835 -2.74561 -1.99483e-19)
(7.62877 -2.71322 0)
(7.39777 -2.68028 0)
(7.1648 -2.64643 2.2287e-19)
(6.92939 -2.6117 0)
(6.69139 -2.5763 -2.43089e-19)
(6.45112 -2.54016 2.55144e-19)
(6.20827 -2.50284 2.67812e-19)
(5.96251 -2.46419 7.00354e-22)