/*--------------------------------*- C++ -*----------------------------------*\
| =========                 |                                                 |
| \\      /  F ield         | OpenFOAM: The Open Source CFD Toolbox           |
|  \\    /   O peration     | Version:  2.3.0                                 |
|   \\  /    A nd           | Web:      www.OpenFOAM.org                      |
|    \\/     M anipulation  |                                                 |
\*---------------------------------------------------------------------------*/
FoamFile
{
    version     2.0;
    format      ascii;
    class       volScalarField;
    location    "5000";
    object      nut;
}
// * * * * * * * * * * * * * * * * * * * * * * * * * * * * * * * * * * * * * //

dimensions      [0 2 -1 0 0 0 0];

internalField   nonuniform List<scalar> 
6617
(
0.0491067
0.0448543
0.0410158
0.0373592
0.034017
0.0309627
0.0281691
0.0256239
0.0233228
0.021263
0.0194786
0.018303
0.056804
0.0530358
0.0497149
0.04694
0.0447111
0.0430031
0.0417782
0.0409884
0.0405834
0.0405123
0.0407225
0.041165
0.0641752
0.0614721
0.0591577
0.0572692
0.0557915
0.0546957
0.0539462
0.0535044
0.0533308
0.0533845
0.0536297
0.0540296
0.070332
0.0683717
0.06672
0.0653854
0.06435
0.0635897
0.063077
0.0627867
0.0626926
0.0627708
0.0629993
0.0633565
0.0754463
0.0739947
0.0727758
0.0717916
0.0710277
0.0704661
0.0700903
0.0698834
0.0698301
0.0699166
0.0701293
0.0704545
0.0797031
0.0785994
0.0776704
0.0769165
0.0763274
0.075892
0.0756005
0.0754439
0.0754128
0.0754998
0.0756971
0.0759964
0.0832723
0.0823967
0.0816663
0.0810695
0.0805985
0.0802476
0.0800125
0.079889
0.0798723
0.0799584
0.0801431
0.0804211
0.0862435
0.0855473
0.0849612
0.0844765
0.0840891
0.0837974
0.0836017
0.0835021
0.0834967
0.0835824
0.0837569
0.0840174
0.0887532
0.0881837
0.0877053
0.087302
0.0869769
0.0867289
0.08656
0.0864791
0.0864831
0.0865712
0.0867396
0.0869851
0.0908908
0.0904042
0.0900145
0.0896674
0.0893897
0.0891801
0.0890228
0.0889579
0.0889708
0.0890644
0.0892358
0.0894706
0.0200277
0.0236495
0.0261795
0.0288808
0.0320782
0.0358702
0.0402669
0.0452285
0.0506957
0.0565962
0.0628405
0.0692923
0.0417657
0.0425834
0.0437392
0.0452848
0.0472679
0.0497241
0.0526721
0.0561108
0.0600186
0.0643548
0.0690621
0.0740353
0.0545515
0.055233
0.0561432
0.0573123
0.0587702
0.0605457
0.0626611
0.0651324
0.0679657
0.0711538
0.0746719
0.0784332
0.0638249
0.064427
0.0652014
0.066165
0.0673358
0.0687313
0.0703672
0.0722573
0.074412
0.0768358
0.0795245
0.0824404
0.0708823
0.0714263
0.0721087
0.0729386
0.0739254
0.0750783
0.0764064
0.0779185
0.0796227
0.0815254
0.0836301
0.0859277
0.076391
0.0768895
0.0775046
0.0782399
0.0790994
0.0800865
0.081205
0.082459
0.0838528
0.0853911
0.0870763
0.0888942
0.0807884
0.0812504
0.0818135
0.0824783
0.0832449
0.0841124
0.0850803
0.086149
0.0873202
0.0885955
0.0899772
0.0914522
0.0843615
0.0847929
0.0853146
0.085925
0.0866216
0.0873998
0.0882546
0.0891853
0.0901911
0.0912701
0.0924167
0.0936097
0.0873074
0.0877135
0.0882016
0.0887683
0.0894102
0.0901223
0.0908871
0.0917132
0.092593
0.0935266
0.0944969
0.0954846
0.0897665
0.090152
0.0906132
0.0911442
0.0917397
0.0924042
0.0930895
0.0938462
0.0946248
0.095455
0.09629
0.0971686
0.0841845
0.0715922
0.0601761
0.0499912
0.0410877
0.0334237
0.0269662
0.0218103
0.0182242
0.0149952
0.0117129
0.00812123
0.0947984
0.0842884
0.0746648
0.0660988
0.0586132
0.0519752
0.0458554
0.0400355
0.0344205
0.0288536
0.0231615
0.0171662
0.106834
0.0981916
0.0899785
0.0822103
0.0748573
0.0678299
0.0609941
0.054212
0.0473544
0.0403151
0.0329925
0.0252956
0.116983
0.109298
0.101745
0.0943263
0.087016
0.0797517
0.0724486
0.065011
0.0573363
0.0493276
0.040898
0.031967
0.124976
0.117903
0.110781
0.103606
0.0963499
0.0889573
0.0813593
0.0734742
0.0652133
0.0564863
0.0472073
0.0372929
0.131273
0.124663
0.117882
0.110918
0.103733
0.0962769
0.088481
0.0802691
0.0715567
0.0622549
0.0522752
0.0415337
0.136286
0.130062
0.123577
0.116805
0.109706
0.102223
0.0942875
0.0858222
0.0767434
0.0669607
0.0563842
0.0449282
0.140314
0.134433
0.128216
0.121627
0.114617
0.107131
0.0990932
0.0904231
0.0810359
0.0708399
0.0597432
0.0476608
0.143565
0.138006
0.132041
0.125627
0.118706
0.111234
0.103121
0.0942821
0.0846283
0.0740678
0.062505
0.0498605
0.146238
0.140958
0.135225
0.128992
0.122138
0.114701
0.106536
0.0975617
0.0876729
0.0767821
0.0647849
0.0516021
0.00406785
0.00158246
0.00188278
0.00254965
0.00349475
0.00490263
0.00675213
0.00907632
0.0119523
0.0154616
0.0196962
0.0247464
0.0105464
0.00430112
0.00255761
0.0033927
0.00460218
0.00616608
0.00812146
0.0104828
0.0133121
0.0166775
0.0206484
0.025253
0.0169327
0.0081969
0.00372448
0.004367
0.00579381
0.00751528
0.00956418
0.0119521
0.0147256
0.0179364
0.0216333
0.0258479
0.0222749
0.0119745
0.00530527
0.00539985
0.00699947
0.00886399
0.0109914
0.0133943
0.016106
0.0191663
0.0226274
0.0266053
0.0265276
0.0151207
0.00700417
0.00646245
0.00818958
0.0101721
0.0123625
0.014771
0.0174227
0.0203525
0.0236113
0.0272611
0.0298647
0.0176061
0.00859776
0.00752725
0.00933926
0.0114183
0.0136588
0.0160678
0.0186647
0.0214781
0.0245431
0.0278874
0.0324803
0.019538
0.00999173
0.00856468
0.0104327
0.0125908
0.0148719
0.017279
0.0198259
0.0225312
0.0254136
0.0284859
0.0345363
0.0210392
0.0111777
0.00955353
0.0114623
0.0136849
0.0159997
0.0184035
0.0209029
0.0235068
0.026222
0.0290584
0.0361398
0.0222078
0.0122016
0.0104737
0.012418
0.0147021
0.0170469
0.0194438
0.0218963
0.0244049
0.0269675
0.0295882
0.0372397
0.0227548
0.0127596
0.0113548
0.0133799
0.0156525
0.0179648
0.0203499
0.022775
0.0251993
0.0276306
0.0301141
0.000728175
0.00247032
0.00551908
0.00903563
0.0127207
0.0166349
0.0207701
0.0250931
0.0295665
0.0341649
0.0388243
0.0436072
0.00055356
0.00138812
0.0034889
0.0066263
0.00999049
0.0135115
0.0172049
0.0211699
0.0254259
0.0299487
0.0346826
0.0395866
0.000292718
0.000833925
0.00212993
0.00420941
0.00728436
0.0116127
0.0159129
0.0201158
0.0242799
0.028473
0.0327666
0.0372626
0.000313924
0.00066056
0.0016823
0.00332185
0.0057939
0.00938553
0.0140953
0.0189201
0.0236941
0.0282631
0.0325489
0.0366923
0.000274044
0.000578768
0.00145319
0.00284289
0.00493829
0.0079777
0.012291
0.017488
0.0227664
0.0279605
0.0328212
0.0372053
0.000266933
0.000520788
0.00129892
0.00252658
0.00437955
0.00706117
0.0108632
0.0160679
0.021689
0.0273728
0.0328944
0.0379357
0.000258042
0.000488379
0.00120592
0.00233317
0.00403642
0.00649444
0.00997568
0.0148391
0.0206775
0.0267286
0.0327653
0.0384797
0.000255973
0.000470205
0.00113819
0.00219408
0.00379056
0.00608865
0.00933468
0.0138639
0.0197757
0.0261089
0.0325449
0.0388023
0.000255565
0.000463602
0.0010885
0.00209228
0.00360999
0.00579305
0.00887039
0.013155
0.0189776
0.0255281
0.0322944
0.0390039
0.000256435
0.000460552
0.00104831
0.00201016
0.00346205
0.00555369
0.00850087
0.0126025
0.0182413
0.024953
0.0320059
0.0391027
0.000257589
0.000459019
0.0010143
0.00193976
0.00333429
0.0053453
0.00817736
0.012117
0.0175463
0.0243456
0.0316393
0.0390676
0.000259023
0.000458454
0.000986005
0.00188032
0.00322512
0.00516487
0.00789341
0.0116856
0.0169117
0.0237101
0.0311965
0.038919
0.00026068
0.000458605
0.000962877
0.00183125
0.00313419
0.00501309
0.00765167
0.0113133
0.0163546
0.0230702
0.0307017
0.0386841
0.000262577
0.00045922
0.000944269
0.00179143
0.00306004
0.00488866
0.00745211
0.0110033
0.0158852
0.0224648
0.0301892
0.0383931
0.000264692
0.000460155
0.000929369
0.00175928
0.00299991
0.00478737
0.00728887
0.0107484
0.0154976
0.0219331
0.029713
0.0381052
0.000267002
0.000461272
0.000917569
0.00173357
0.00295162
0.00470575
0.00715665
0.0105404
0.0151783
0.0214745
0.0292747
0.0378157
0.000269483
0.000462478
0.000908191
0.00171288
0.0029126
0.00463967
0.00704929
0.0103708
0.0149164
0.021089
0.0288872
0.0375558
0.000272107
0.000463731
0.000900843
0.0016963
0.00288115
0.00458628
0.00696231
0.010233
0.0147029
0.0207716
0.02856
0.0373577
0.000274816
0.000465023
0.000895085
0.00168289
0.00285553
0.00454265
0.00689103
0.0101197
0.0145263
0.0205053
0.028274
0.0372046
0.000277591
0.000466347
0.00089067
0.00167201
0.00283444
0.00450655
0.00683196
0.0100256
0.0143791
0.0202803
0.0280116
0.0370276
0.000280413
0.000467734
0.000887451
0.00166331
0.0028171
0.00447639
0.00678221
0.00994633
0.0142557
0.0200928
0.0277911
0.0368961
0.000283265
0.000469211
0.000885349
0.00165666
0.00280314
0.00445132
0.00673999
0.0098783
0.0141495
0.0199313
0.0275925
0.0367733
0.000286134
0.000470815
0.000884286
0.00165199
0.00279245
0.00443096
0.0067042
0.009819
0.0140557
0.019789
0.0274175
0.0366824
0.000289017
0.000472559
0.000884199
0.00164937
0.00278523
0.00441575
0.00667543
0.00976854
0.0139723
0.0196585
0.0272498
0.0366039
0.000291911
0.000474463
0.000884954
0.00164868
0.00278145
0.00440589
0.00665435
0.00972819
0.0139007
0.0195385
0.0270739
0.0364559
0.000294819
0.000476498
0.000886476
0.00164988
0.00278109
0.00440157
0.00664176
0.00970013
0.0138458
0.0194405
0.0269267
0.0363476
0.000297765
0.000478675
0.000888755
0.00165293
0.00278397
0.00440258
0.00663766
0.0096851
0.0138096
0.0193659
0.0267956
0.0362119
0.000300769
0.000480998
0.000891881
0.00165791
0.00279011
0.00440861
0.00664141
0.00968254
0.0137934
0.0193227
0.0267077
0.0361088
0.000303831
0.000483476
0.000895982
0.00166507
0.00279983
0.00441987
0.00665255
0.00969112
0.0137953
0.0193111
0.0266768
0.0360931
0.000306987
0.000486115
0.000901299
0.00167469
0.00281349
0.00443671
0.00667127
0.00970949
0.0138104
0.0193195
0.0266831
0.0361648
0.000310235
0.000489021
0.000908059
0.001687
0.00283151
0.00446002
0.00669871
0.00973852
0.0138371
0.019339
0.0266948
0.0362219
0.000313556
0.000492135
0.00091618
0.001702
0.00285418
0.00449041
0.00673625
0.00978094
0.0138795
0.0193742
0.026721
0.0363295
0.000316934
0.000495431
0.000925789
0.00171981
0.00288162
0.00452812
0.00678449
0.00983873
0.0139427
0.019432
0.0267471
0.0362999
0.000320417
0.000498806
0.000936982
0.00174055
0.002914
0.00457342
0.00684404
0.00991289
0.0140307
0.0195312
0.0268554
0.0364475
0.000323994
0.000502234
0.000949803
0.00176429
0.00295149
0.00462677
0.00691537
0.0100033
0.0141399
0.0196585
0.0270069
0.0367005
0.000327554
0.000505627
0.000963946
0.00179075
0.00299383
0.00468789
0.0069984
0.0101103
0.0142704
0.0198077
0.0271624
0.0368651
0.000331074
0.000508898
0.000979384
0.00181977
0.00304062
0.00475626
0.00709268
0.0102343
0.0144259
0.0199924
0.0273669
0.037087
0.000334568
0.000511958
0.000996096
0.00185124
0.00309156
0.00483117
0.00719725
0.0103742
0.0146055
0.0202128
0.0276234
0.0373794
0.000337998
0.000514754
0.00101405
0.00188501
0.00314629
0.00491211
0.00731106
0.0105279
0.014806
0.020465
0.0279277
0.0377394
0.000341267
0.000517249
0.00103308
0.00192089
0.00320458
0.00499856
0.00743307
0.0106938
0.0150243
0.0207434
0.0282711
0.0381608
0.000344348
0.000519367
0.00105329
0.00195894
0.00326636
0.00509027
0.00756259
0.0108703
0.0152578
0.0210439
0.0286444
0.0385912
0.000347236
0.000521006
0.00107465
0.00199911
0.00333152
0.005187
0.00769932
0.0110567
0.0155048
0.0213641
0.0290565
0.0391472
0.000349893
0.000522137
0.00109727
0.00204153
0.00340021
0.00528889
0.00784343
0.011253
0.015764
0.0216961
0.0294672
0.0396228
0.000352215
0.000522925
0.00112105
0.00208589
0.00347205
0.00539571
0.00799469
0.0114594
0.0160367
0.022047
0.0299084
0.0401763
0.000354211
0.000522981
0.00114563
0.00213188
0.00354678
0.00550716
0.00815273
0.0116752
0.0163225
0.0224143
0.0303648
0.0407194
0.000355906
0.000522797
0.00117162
0.0021801
0.00362479
0.00562325
0.00831722
0.0119003
0.0166212
0.0227998
0.0308478
0.0412875
0.000357409
0.00052286
0.00119884
0.00223029
0.00370581
0.00574393
0.00848834
0.0121343
0.0169321
0.0232022
0.0313626
0.0419817
0.000358984
0.000524818
0.00122732
0.00228235
0.00378966
0.00586889
0.0086657
0.0123768
0.0172535
0.0236143
0.0318641
0.0425107
0.00036086
0.000530248
0.0012566
0.0023363
0.00387655
0.00599802
0.00884891
0.0126276
0.0175872
0.0240496
0.0324247
0.0432348
0.000362898
0.000539916
0.00128732
0.00239262
0.0039669
0.00613184
0.00903787
0.0128854
0.0179286
0.0244915
0.0329877
0.0439601
0.000364869
0.000552123
0.00131923
0.00245122
0.00406064
0.00627058
0.00923336
0.0131508
0.0182786
0.0249395
0.0335421
0.0446008
0.000366377
0.000565491
0.00135249
0.00251204
0.00415778
0.00641447
0.00943613
0.0134258
0.0186402
0.0254028
0.0341238
0.0453301
0.000367302
0.00057941
0.00138692
0.00257515
0.00425881
0.00656361
0.00964597
0.0137099
0.0190124
0.0258763
0.0347081
0.0460332
0.000367575
0.000593924
0.00142292
0.00264092
0.00436357
0.00671825
0.00986292
0.0140031
0.0193962
0.0263637
0.0353049
0.0467105
0.000367487
0.000609224
0.00146057
0.00270948
0.00447236
0.00687848
0.0100875
0.0143062
0.0197931
0.0268692
0.0359373
0.0475101
0.000366757
0.000625415
0.00149988
0.00278069
0.00458515
0.00704456
0.01032
0.014619
0.0201998
0.0273821
0.0365628
0.0482393
0.000365208
0.000642222
0.00154072
0.00285476
0.0047026
0.00721692
0.0105606
0.0149421
0.0206186
0.0279086
0.0372033
0.048988
0.000362834
0.000659944
0.00158372
0.00293233
0.00482496
0.00739649
0.0108106
0.0152764
0.0210516
0.0284521
0.037864
0.049765
0.00035966
0.000678718
0.00162878
0.00301334
0.00495249
0.00758314
0.0110699
0.0156228
0.0214989
0.0290108
0.0385397
0.0505546
0.000355508
0.000698545
0.00167606
0.0030984
0.00508594
0.00777788
0.0113402
0.0159825
0.0219611
0.0295856
0.0392306
0.0513529
0.000350126
0.000719666
0.00172635
0.00318838
0.00522669
0.00798209
0.0116223
0.0163567
0.0224398
0.0301778
0.0399385
0.0521697
0.000343531
0.000742335
0.00177985
0.00328401
0.00537589
0.00819697
0.0119183
0.016748
0.0229384
0.0307905
0.0406633
0.0529902
0.000335327
0.00076681
0.00183699
0.00338575
0.00553437
0.00842447
0.0122307
0.0171598
0.0234609
0.0314289
0.0414118
0.0538248
0.000324696
0.000793243
0.00189858
0.00349535
0.00570497
0.00866846
0.0125631
0.0175961
0.0240125
0.0321004
0.0421959
0.0546953
0.000310255
0.000821634
0.00196557
0.00361473
0.0058908
0.00893464
0.0129216
0.0180627
0.0245993
0.0328122
0.0430243
0.0556137
0.000289901
0.000852225
0.00203876
0.00374559
0.00609461
0.00922716
0.0133161
0.0185696
0.0252318
0.0335746
0.0439071
0.056584
0.00026065
0.000885283
0.0021191
0.00388975
0.00631975
0.00955097
0.0137546
0.0191336
0.0259247
0.0344009
0.0448575
0.0576319
0.00022426
0.000922253
0.00220863
0.00405037
0.0065711
0.00991274
0.014246
0.0197682
0.0267052
0.0353146
0.0458914
0.0587453
0.000203955
0.000970058
0.00231149
0.00423225
0.0068548
0.0103219
0.0148019
0.0204874
0.0275938
0.0363599
0.0470531
0.059991
0.00019412
0.00103265
0.0024315
0.00444228
0.00718232
0.0107941
0.0154433
0.0213167
0.0286174
0.0375626
0.048392
0.061405
0.000193663
0.00109506
0.00257203
0.00469271
0.00757416
0.011359
0.016211
0.022309
0.0298392
0.0389902
0.0499507
0.0629483
0.000208096
0.00117492
0.00275243
0.00501083
0.00806897
0.0120693
0.0171728
0.0235494
0.0313681
0.0407875
0.0519493
0.0650079
0.000228045
0.00128301
0.00300025
0.00544714
0.00874245
0.0130267
0.0184544
0.0251856
0.03337
0.0431354
0.054579
0.0677904
0.000257493
0.0013978
0.00330868
0.00603354
0.0096833
0.0143876
0.0202826
0.0274995
0.0361513
0.0463373
0.0581024
0.0714644
0.000297158
0.00194185
0.00440806
0.00771444
0.0119273
0.0171988
0.0236574
0.0314158
0.0405653
0.0511444
0.0631501
0.0765487
0.000747594
0.00357537
0.00740408
0.0119443
0.0171452
0.0229089
0.0291466
0.0357926
0.042786
0.0500522
0.0575183
0.0650838
0.000435738
0.00222518
0.00497873
0.00858135
0.0130046
0.018214
0.0241569
0.03076
0.0379283
0.0455445
0.0534772
0.0615765
0.000656353
0.00186349
0.0041418
0.00718042
0.0110184
0.0156807
0.0211704
0.027457
0.0344703
0.0421015
0.0502118
0.0586517
0.000615891
0.0015491
0.00352194
0.00618724
0.00961895
0.0138715
0.0189814
0.0249537
0.0317504
0.0392845
0.0474194
0.0559625
0.000603944
0.00133001
0.00308449
0.00548053
0.00860618
0.0125313
0.0173143
0.0229876
0.0295428
0.0369199
0.0449989
0.0535875
0.000598275
0.00118401
0.00277997
0.00497292
0.00785719
0.0115124
0.0160123
0.0214098
0.0277229
0.0349197
0.0429099
0.0515451
0.000597515
0.00108175
0.00254998
0.00458268
0.00727171
0.0107025
0.0149588
0.0201093
0.0261923
0.0332005
0.0410663
0.0496397
0.000599371
0.00100298
0.00236573
0.00426784
0.00679531
0.0100372
0.0140835
0.019014
0.0248833
0.0317047
0.0394331
0.0479484
0.000602464
0.000939531
0.00221399
0.00400736
0.00639874
0.00947899
0.0133425
0.0180767
0.0237487
0.0303883
0.037968
0.0463756
0.000605655
0.000886941
0.00208607
0.00378745
0.00606228
0.00900249
0.0127052
0.0172635
0.0227542
0.0292209
0.0366549
0.0449758
0.000608839
0.000843173
0.001979
0.00359839
0.00577195
0.00858935
0.0121493
0.0165493
0.0218735
0.0281767
0.0354656
0.0436692
0.000611974
0.000806252
0.00188711
0.00343342
0.00551781
0.00822644
0.0116588
0.0159155
0.0210863
0.0272365
0.0343868
0.0424914
0.000615009
0.000774586
0.00180668
0.00328777
0.00529285
0.00790414
0.0112214
0.0153471
0.0203756
0.0263784
0.0333816
0.0413247
0.000617919
0.000747009
0.00173536
0.00315785
0.00509176
0.00761527
0.010828
0.0148336
0.0197298
0.0255944
0.0324664
0.0403363
0.000620651
0.000722725
0.0016715
0.003041
0.00491065
0.00735446
0.0104716
0.0143665
0.0191395
0.0248725
0.0316087
0.039313
0.000623302
0.000702188
0.00161402
0.00293542
0.00474641
0.0071174
0.0101467
0.013939
0.0185965
0.0242044
0.030812
0.0384061
0.000626768
0.000691737
0.00156229
0.00284062
0.00459668
0.00690075
0.00984899
0.0135463
0.0180964
0.0235897
0.0300897
0.0376318
0.000631691
0.000693434
0.00151561
0.00275466
0.00445951
0.00670184
0.00957517
0.0131844
0.0176351
0.0230223
0.0294173
0.0368436
0.000637455
0.000700741
0.00147335
0.00267608
0.00433331
0.00651855
0.00932254
0.0128502
0.0172085
0.0224967
0.0287927
0.0361365
0.000643261
0.000708817
0.00143491
0.0026038
0.00421669
0.00634902
0.00908872
0.0125406
0.0168129
0.0220081
0.0282088
0.0354571
0.000648724
0.000715997
0.00139979
0.00253705
0.00410862
0.00619183
0.00887173
0.0122529
0.0164446
0.021551
0.0276569
0.0347993
0.000653763
0.00072199
0.00136754
0.00247518
0.00400813
0.00604557
0.00866967
0.0119845
0.0160997
0.0211203
0.02713
0.0341592
0.00065839
0.00072694
0.00133785
0.00241763
0.00391433
0.0059091
0.0084809
0.0117332
0.0157757
0.020714
0.0266349
0.0335907
0.000662665
0.000731039
0.00131046
0.00236415
0.00382734
0.00578137
0.00830398
0.0114973
0.0154712
0.020333
0.0261778
0.033083
0.000666649
0.000734465
0.0012854
0.0023145
0.00374653
0.00566161
0.00813776
0.0112754
0.0151841
0.0199725
0.0257353
0.0325201
0.000670402
0.000737602
0.00126439
0.00226834
0.00367107
0.00554908
0.00798134
0.0110663
0.0149138
0.0196347
0.0253335
0.0321206
0.000674106
0.000741574
0.00125262
0.00222556
0.00360033
0.00544313
0.00783393
0.0108692
0.014659
0.0193157
0.0249435
0.0316046
0.00067792
0.000747166
0.00125174
0.00218599
0.00353389
0.00534322
0.00769487
0.0106834
0.0144188
0.019015
0.0245809
0.0312175
0.000681927
0.000754603
0.00125786
0.00214951
0.00347132
0.00524893
0.0075635
0.0105076
0.0141911
0.0187279
0.0242216
0.03072
0.00068616
0.000762887
0.00126648
0.00211579
0.00341232
0.00515965
0.00743918
0.0103411
0.013975
0.0184549
0.0238884
0.030378
0.000690359
0.000771196
0.00127503
0.00208445
0.00335661
0.00507503
0.00732113
0.0101829
0.0137693
0.0181941
0.0235633
0.029941
0.000694465
0.000779011
0.00128245
0.00205515
0.00330402
0.00499483
0.0072092
0.0100327
0.0135734
0.0179447
0.0232522
0.0295762
0.000698445
0.000786225
0.00128865
0.00202776
0.0032543
0.00491897
0.007103
0.00988983
0.0133868
0.0177069
0.0229573
0.0292255
0.000702286
0.000792742
0.00129357
0.00200203
0.00320733
0.00484736
0.007002
0.0097538
0.013209
0.0174805
0.022677
0.0288891
0.000706015
0.000798614
0.00129733
0.00197783
0.00316298
0.00477963
0.00690568
0.00962393
0.0130391
0.0172641
0.0224085
0.0285635
0.00070963
0.000803908
0.00130004
0.00195498
0.00312108
0.00471539
0.00681375
0.00949978
0.0128766
0.0170568
0.0221505
0.0282494
0.000713139
0.00080879
0.00130201
0.00193344
0.00308134
0.00465434
0.00672627
0.00938149
0.0127212
0.0168587
0.0219075
0.0279788
0.00071656
0.000813266
0.00130332
0.00191319
0.0030436
0.00459614
0.00664269
0.0092683
0.0125732
0.016671
0.0216779
0.027705
0.00071993
0.000817437
0.00130412
0.00189426
0.00300785
0.00454073
0.00656268
0.00916018
0.0124319
0.016492
0.0214573
0.0274326
0.000723257
0.000821334
0.00130461
0.00187744
0.00297397
0.00448786
0.00648644
0.00905703
0.0122971
0.0163209
0.0212448
0.0271698
0.000726566
0.000825101
0.00130527
0.00186395
0.00294174
0.00443738
0.00641351
0.00895867
0.0121683
0.0161569
0.0210405
0.0269202
0.00072988
0.000828958
0.00130695
0.00185599
0.0029114
0.00438944
0.00634404
0.00886456
0.0120454
0.0159998
0.0208421
0.0266655
0.000733139
0.000832849
0.00131018
0.00185411
0.00288319
0.00434361
0.00627743
0.00877453
0.0119275
0.015849
0.0206546
0.0264592
0.000736446
0.000837408
0.00131523
0.00185707
0.00285681
0.00429992
0.00621394
0.00868851
0.0118146
0.0157047
0.0204758
0.0262413
0.000740151
0.000842306
0.00132195
0.00186322
0.00283243
0.00425859
0.00615347
0.0086066
0.0117072
0.0155682
0.0203097
0.0260584
0.000743821
0.00084775
0.00133005
0.001871
0.00280979
0.00421935
0.00609618
0.00852842
0.0116048
0.0154377
0.0201458
0.0258293
0.000747586
0.00085321
0.00133881
0.00187929
0.00278899
0.00418222
0.0060418
0.00845397
0.0115074
0.015314
0.0199952
0.025681
0.00075137
0.000859016
0.00134775
0.00188735
0.00276953
0.00414713
0.00599049
0.00838347
0.0114149
0.0151958
0.0198442
0.025448
0.000755507
0.000864682
0.00135658
0.00189506
0.00275145
0.00411422
0.005942
0.00831639
0.0113269
0.0150831
0.0197031
0.0253098
0.000759562
0.000870497
0.0013654
0.00190229
0.00273471
0.00408326
0.005896
0.00825257
0.0112431
0.0149761
0.0195721
0.0251591
0.000763754
0.000875966
0.00137368
0.00190898
0.00271904
0.0040539
0.00585261
0.00819215
0.0111636
0.0148749
0.0194473
0.0250014
0.000767984
0.00088129
0.00138151
0.00191502
0.00270439
0.00402618
0.00581132
0.00813493
0.0110884
0.0147789
0.0193273
0.0248457
0.000772237
0.000886406
0.00138896
0.0019206
0.00269075
0.00400033
0.00577258
0.00808078
0.0110173
0.0146877
0.0192104
0.0246882
0.000776561
0.000891577
0.00139616
0.00192578
0.00267832
0.0039762
0.00573609
0.00802964
0.0109499
0.0146011
0.0191012
0.0245692
0.000780984
0.000896461
0.00140284
0.00193045
0.00266663
0.00395352
0.00570205
0.00798174
0.0108864
0.0145194
0.0189976
0.024433
0.00078556
0.000901265
0.00140919
0.00193479
0.00265591
0.00393241
0.00567007
0.00793701
0.0108275
0.0144434
0.0189028
0.0243287
0.000790238
0.000906021
0.00141536
0.00193896
0.00264626
0.00391316
0.00564069
0.0078954
0.0107724
0.0143723
0.0188125
0.0242016
0.000794966
0.00091057
0.00142133
0.00194299
0.0026379
0.00389563
0.00561359
0.0078569
0.0107213
0.0143066
0.0187304
0.024118
0.000799829
0.000915345
0.00142709
0.00194691
0.00263064
0.00387968
0.00558911
0.00782212
0.010675
0.0142468
0.0186562
0.024022
0.000805264
0.00092007
0.00143272
0.0019509
0.00262488
0.00386564
0.00556708
0.00779054
0.0106333
0.014193
0.0185866
0.023922
0.000810778
0.000924937
0.00143855
0.00195522
0.00262097
0.00385357
0.00554771
0.00776263
0.0105962
0.0141452
0.0185279
0.0238714
0.000816515
0.000929697
0.00144429
0.00195989
0.00261895
0.0038434
0.00553105
0.00773839
0.0105639
0.0141033
0.0184714
0.0237622
0.000822577
0.000934597
0.00145017
0.00196505
0.00261902
0.00383531
0.00551757
0.00771869
0.0105372
0.0140684
0.0184306
0.0237678
0.000828981
0.00093964
0.00145627
0.0019709
0.00262133
0.00382973
0.00550736
0.00770343
0.0105165
0.0140416
0.0183947
0.0236656
0.00083581
0.000944984
0.00146284
0.00197759
0.00262588
0.00382678
0.00550064
0.00769298
0.0105019
0.0140218
0.0183657
0.0236406
0.000843144
0.000950435
0.00146964
0.00198502
0.00263233
0.00382659
0.00549804
0.00768805
0.0104938
0.0140099
0.018346
0.023599
0.00085109
0.000956184
0.00147684
0.00199323
0.00264057
0.00382955
0.00549988
0.00768935
0.0104939
0.0140073
0.0183365
0.0235786
0.000859725
0.000962329
0.00148465
0.00200232
0.00265041
0.00383627
0.00550707
0.00769752
0.0105026
0.0140153
0.0183402
0.0235758
0.000869147
0.000968645
0.00149291
0.00201217
0.00266206
0.00384733
0.00552032
0.00771373
0.0105215
0.0140354
0.0183597
0.0236038
0.00087955
0.000975552
0.00150165
0.00202277
0.00267543
0.00386366
0.00554135
0.00774015
0.0105527
0.0140708
0.0183997
0.0236559
0.000891807
0.000983035
0.00151094
0.00203415
0.00269092
0.00388658
0.00557181
0.00777902
0.0105998
0.0141257
0.0184615
0.023713
0.000906013
0.000992167
0.00152231
0.00204786
0.00271108
0.00392008
0.00561653
0.00783545
0.0106678
0.0142049
0.0185533
0.0238352
0.000921725
0.000996637
0.00152996
0.00205866
0.00273081
0.00395858
0.00567118
0.0079074
0.0107572
0.014311
0.0186714
0.0239181
0.000960844
0.00103321
0.00156287
0.00209717
0.00279683
0.00405677
0.00579165
0.00804703
0.0109116
0.0144751
0.0188439
0.0241591
0.0007154
0.000913548
0.00150334
0.0020301
0.00272401
0.00400259
0.00575651
0.00803839
0.010938
0.0145486
0.018975
0.024295
0.119285
0.102393
0.158855
0.256512
0.078678
0.0566487
0.138664
0.0576423
0.13644
0.0928089
0.239159
0.136528
0.182371
0.0806073
0.170003
0.0953319
0.0902587
0.157444
0.136919
0.138763
0.109801
0.136436
0.0923679
0.164793
0.133363
0.206371
0.192936
0.0976722
0.0595061
0.166414
0.116889
0.134569
0.0886102
0.101043
0.137676
0.126851
0.420093
0.131748
0.092896
0.114019
0.0904168
0.127833
0.0657798
0.135653
0.140744
0.180125
0.136397
0.127078
0.0991723
0.164755
0.13632
0.13167
0.167214
0.0819797
0.0483647
0.0773796
0.137752
0.139383
0.140065
0.137542
0.0512798
0.0410327
0.107808
0.193752
0.120237
0.0695908
0.139196
0.129893
0.109713
0.037907
0.130976
0.12784
0.128227
0.0994868
0.129951
0.104722
0.0456999
0.137081
0.0763904
0.0505295
0.0502615
0.140053
0.137682
0.204866
0.135945
0.126462
0.14009
0.129158
0.140113
0.0688834
0.218063
0.148673
0.0890579
0.138706
0.138615
0.234465
0.139804
0.134033
0.249032
0.138455
0.135457
0.0686333
0.0992204
0.176257
0.138397
0.202306
0.138593
0.0766873
0.117679
0.139216
0.14007
0.139241
0.125087
0.220796
0.202736
0.116107
0.0934379
0.0497425
0.0915412
0.134613
0.103275
0.152605
0.134783
0.0943186
0.154801
0.0665711
0.0680315
0.095636
0.147911
0.139489
0.139582
0.0612673
0.17164
0.139168
0.136247
0.0313946
0.0606703
0.133782
0.0329418
0.13732
0.0397801
0.0889466
0.102391
0.140053
0.139911
0.139872
0.135656
0.12214
0.140054
0.0794655
0.132275
0.0748391
0.111477
0.112042
0.137136
0.156795
0.127107
0.115355
0.187742
0.136342
0.134289
0.121922
0.141769
0.083327
0.0823979
0.207413
0.139779
0.03464
0.103024
0.162442
0.18401
0.0204495
0.129995
0.159026
0.138129
0.131686
0.132333
0.0827369
0.137151
0.083948
0.0994886
0.0669451
0.134517
0.139071
0.0505226
0.071716
0.137909
0.161234
0.136681
0.13752
0.138133
0.137735
0.253766
0.135177
0.142842
0.216783
0.137534
0.154085
0.0960566
0.0997862
0.152493
0.0303624
0.0435726
0.1008
0.132661
0.126209
0.139347
0.222553
0.13749
0.0294178
0.134219
0.0543576
0.123318
0.0978019
0.0619939
0.132801
0.137873
0.136936
0.138808
0.168376
0.224067
0.138473
0.131227
0.0478876
0.139871
0.14726
0.0772111
0.0957045
0.109055
0.098119
0.0806305
0.0949193
0.135548
0.0473439
0.111914
0.151265
0.0909738
0.0413197
0.0705706
0.129957
0.139998
0.264241
0.138222
0.110353
0.120499
0.0725229
0.0518341
0.138847
0.108075
0.124879
0.139788
0.0450055
0.0718194
0.104292
0.179469
0.242083
0.0478377
0.12553
0.200977
0.133799
0.062998
0.131246
0.108493
0.180654
0.147715
0.139984
0.187975
0.193222
0.13175
0.110603
0.137902
0.117474
0.140013
0.136862
0.125759
0.134149
0.126416
0.101088
0.0966559
0.0995002
0.130836
0.137743
0.135737
0.0640109
0.115746
0.0838188
0.131367
0.135115
0.20871
0.138415
0.133008
0.118597
0.137872
0.0802872
0.125032
0.103244
0.129266
0.0944869
0.139388
0.139173
0.092842
0.053587
0.206318
0.0744009
0.261276
0.0821599
0.134982
0.138995
0.136133
0.030391
0.0993769
0.2395
0.0789166
0.152221
0.125641
0.0935261
0.139721
0.0725775
0.0539043
0.0768885
0.131264
0.0987041
0.13411
0.13796
0.161166
0.141237
0.0478269
0.139407
0.128104
0.134165
0.128303
0.137501
0.127063
0.135646
0.139988
0.11949
0.0697391
0.0428763
0.116017
0.0836804
0.0835749
0.131711
0.109456
0.0970588
0.151275
0.12804
0.145242
0.0976336
0.135674
0.129911
0.139497
0.105276
0.075917
0.13087
0.13705
0.104274
0.121048
0.128337
0.112274
0.129189
0.0945973
0.140029
0.126242
0.232937
0.132295
0.138085
0.138773
0.104162
0.117162
0.138613
0.135119
0.0857648
0.13346
0.130241
0.102056
0.13769
0.126231
0.0810073
0.138623
0.133751
0.134859
0.100288
0.139771
0.0929895
0.108496
0.0597858
0.0352354
0.0608784
0.120314
0.132603
0.138279
0.139882
0.0937084
0.134961
0.221742
0.10685
0.167468
0.0377719
0.0494408
0.131665
0.0494087
0.146598
0.118804
0.131094
0.135223
0.0541562
0.0993191
0.0354912
0.19559
0.0967783
0.139228
0.10621
0.123659
0.140052
0.106033
0.113797
0.207966
0.119904
0.134848
0.0985148
0.0888313
0.137538
0.179835
0.0725528
0.187828
0.0454065
0.0652701
0.137713
0.0927924
0.132513
0.062664
0.138297
0.0848702
0.138913
0.139037
0.134037
0.137498
0.114723
0.0627663
0.0714369
0.135044
0.11812
0.149845
0.0990585
0.184514
0.136784
0.123764
0.135433
0.136053
0.154248
0.133244
0.138287
0.112955
0.0306472
0.206771
0.123666
0.128332
0.19273
0.148691
0.1495
0.177553
0.137082
0.109667
0.0930364
0.139179
0.207929
0.0620629
0.13971
0.0360658
0.13439
0.0820596
0.131479
0.0725809
0.108172
0.0444704
0.0693168
0.0432186
0.121249
0.13596
0.100823
0.059429
0.13804
0.138533
0.136409
0.0550164
0.0763254
0.126478
0.117829
0.140095
0.140099
0.227536
0.0648613
0.10913
0.136424
0.102178
0.172285
0.0650993
0.0989239
0.126819
0.0460321
0.129996
0.103544
0.200355
0.140218
0.110454
0.138571
0.126291
0.116566
0.104074
0.142756
0.108849
0.0969161
0.210585
0.142592
0.139955
0.103741
0.0451888
0.0564489
0.124688
0.105739
0.139689
0.0925932
0.130435
0.12928
0.125822
0.138352
0.137786
0.138322
0.119004
0.0575444
0.132944
0.133137
0.102428
0.125029
0.135548
0.0631801
0.0752525
0.128542
0.121746
0.11892
0.138124
0.136786
0.221757
0.139858
0.137717
0.116384
0.139872
0.137059
0.121375
0.158823
0.0546203
0.136429
0.130495
0.137774
0.0475916
0.0629229
0.065116
0.157098
0.146532
0.136435
0.0820445
0.139104
0.0714262
0.120568
0.132671
0.0458747
0.133337
0.199556
0.101515
0.148903
0.0296197
0.128048