/*--------------------------------*- C++ -*----------------------------------*\
| =========                 |                                                 |
| \\      /  F ield         | OpenFOAM: The Open Source CFD Toolbox           |
|  \\    /   O peration     | Version:  2.3.0                                 |
|   \\  /    A nd           | Web:      www.OpenFOAM.org                      |
|    \\/     M anipulation  |                                                 |
\*---------------------------------------------------------------------------*/
FoamFile
{
    version     2.0;
    format      ascii;
    class       volScalarField;
    location    "10000";
    object      nut;
}
// * * * * * * * * * * * * * * * * * * * * * * * * * * * * * * * * * * * * * //

dimensions      [0 2 -1 0 0 0 0];

internalField   nonuniform List<scalar> 
120609
(
0.037032
0.0357616
0.0345119
0.0332817
0.0320728
0.0308856
0.0297194
0.0285743
0.0274514
0.0263504
0.0252707
0.0242131
0.0231765
0.0221611
0.0211664
0.0201926
0.0192394
0.0183068
0.0173939
0.0165009
0.0156276
0.0147731
0.0139379
0.0131217
0.0123232
0.0115429
0.0107809
0.0100366
0.00930991
0.0086007
0.00790937
0.00723586
0.00658068
0.0059434
0.00532721
0.00473169
0.00415873
0.00361264
0.00309624
0.00261377
0.00216819
0.00175619
0.00126662
0.0376184
0.0364614
0.0353226
0.0342007
0.0330951
0.0320061
0.0309338
0.0298788
0.0288408
0.0278187
0.0268145
0.025827
0.0248551
0.0238993
0.0229601
0.0220358
0.0211277
0.0202347
0.0193563
0.0184929
0.0176437
0.0168098
0.0159901
0.0151844
0.0143934
0.0136169
0.0128546
0.0121066
0.011374
0.0106575
0.00995678
0.00927311
0.00860703
0.00796108
0.00733721
0.00673668
0.00616287
0.00561919
0.00510948
0.00463573
0.00420385
0.00381463
0.00347157
0.0381756
0.0371219
0.0360835
0.0350577
0.0340441
0.0330439
0.0320565
0.0310824
0.0301203
0.0291708
0.0282347
0.0273105
0.0263988
0.0254996
0.0246116
0.0237356
0.0228712
0.0220178
0.021176
0.0203449
0.0195251
0.0187161
0.0179172
0.0171304
0.0163549
0.0155908
0.0148377
0.0140973
0.013371
0.0126578
0.011959
0.0112763
0.0106115
0.00996695
0.00934388
0.00874389
0.00817331
0.00763308
0.00712625
0.00665644
0.00622806
0.00584427
0.00550615
0.0387068
0.0377442
0.0367944
0.0358541
0.0349236
0.0340025
0.0330909
0.0321884
0.0312943
0.0304096
0.0295338
0.0286672
0.0278098
0.0269612
0.0261205
0.0252881
0.0244635
0.023647
0.0228387
0.0220382
0.0212455
0.0204605
0.0196834
0.0189149
0.0181547
0.0174038
0.0166619
0.0159311
0.015211
0.0145032
0.0138087
0.0131291
0.0124667
0.0118233
0.0112002
0.0106015
0.0100304
0.00948902
0.00898064
0.00850872
0.0080764
0.00768507
0.00733704
0.0391987
0.0383239
0.037455
0.0365921
0.0357351
0.0348843
0.0340401
0.0332015
0.0323681
0.0315407
0.0307188
0.0299029
0.0290935
0.0282899
0.0274914
0.0266982
0.0259099
0.0251264
0.0243483
0.0235752
0.0228074
0.0220442
0.0212872
0.0205354
0.0197898
0.0190505
0.0183196
0.0175969
0.0168834
0.0161806
0.0154898
0.0148121
0.0141508
0.0135074
0.0128841
0.0122839
0.0117101
0.011165
0.0106519
0.0101746
0.00973526
0.00933454
0.00897561
0.0396681
0.0388649
0.0380672
0.0372731
0.0364818
0.0356938
0.0349096
0.0341277
0.033348
0.0325707
0.0317957
0.0310243
0.030257
0.0294931
0.0287328
0.0279752
0.0272192
0.0264652
0.0257132
0.0249642
0.0242182
0.0234758
0.0227365
0.0220002
0.0212674
0.0205392
0.019817
0.0191012
0.0183936
0.0176942
0.0170058
0.0163301
0.0156691
0.0150243
0.0143995
0.0137972
0.0132194
0.0126689
0.0121502
0.0116666
0.0112191
0.0108097
0.0104417
0.0400984
0.0393658
0.0386327
0.0379
0.0371674
0.0364354
0.0357043
0.0349725
0.0342406
0.0335073
0.0327739
0.0320409
0.0313094
0.0305801
0.0298537
0.0291286
0.0284029
0.0276748
0.0269449
0.0262158
0.0254897
0.0247665
0.0240436
0.0233212
0.0225995
0.0218806
0.0211656
0.0204565
0.0197527
0.0190567
0.0183705
0.0176953
0.0170331
0.0163876
0.0157607
0.0151548
0.0145726
0.0140176
0.0134928
0.0130022
0.0125471
0.0121292
0.0117523
0.040509
0.0398317
0.0391543
0.0384759
0.0377958
0.0371131
0.0364287
0.0357425
0.0350534
0.034359
0.0336623
0.0329632
0.0322599
0.0315592
0.0308608
0.0301668
0.0294716
0.0287703
0.0280574
0.0273433
0.0266322
0.0259265
0.0252214
0.0245135
0.023799
0.0230877
0.0223792
0.0216748
0.0209753
0.0202812
0.0195975
0.0189209
0.0182581
0.0176109
0.0169825
0.0163727
0.0157868
0.0152263
0.0146957
0.0141985
0.0137361
0.0133097
0.0129239
0.0408872
0.0402618
0.0396331
0.0390026
0.038372
0.0377305
0.0370883
0.0364424
0.0357943
0.035132
0.0344677
0.0338022
0.0331174
0.0324417
0.03176
0.031094
0.0304297
0.0297685
0.0290649
0.0283607
0.0276523
0.0269633
0.0262771
0.0255951
0.0248794
0.0241747
0.0234687
0.0227695
0.022077
0.0213786
0.0207032
0.0200227
0.0193564
0.0187072
0.0180801
0.0174652
0.0168768
0.0163106
0.0157721
0.015271
0.0148007
0.0143653
0.0139725
0.00105793
0.00101713
0.00103371
0.00109387
0.00119922
0.0013447
0.00152145
0.0017206
0.00193437
0.0021572
0.00238642
0.00261991
0.00285685
0.00309708
0.00334054
0.00358764
0.00383877
0.0040938
0.00435342
0.00461777
0.00488736
0.00516237
0.00544333
0.00573081
0.00602477
0.00632618
0.00663526
0.00695236
0.0072784
0.00761366
0.00795865
0.00831417
0.00868077
0.00905902
0.00944971
0.00985342
0.0102708
0.0107027
0.0111498
0.0116128
0.0120923
0.0125886
0.013102
0.00320224
0.00305856
0.0029748
0.00293694
0.00294055
0.00298332
0.00305942
0.00316535
0.0032966
0.00344888
0.00361891
0.0038036
0.00400097
0.00420932
0.00442701
0.00465261
0.00488561
0.00512567
0.00537212
0.00562522
0.00588447
0.00615076
0.0064237
0.00670301
0.00699002
0.0072841
0.0075863
0.00789629
0.0082144
0.00854162
0.00887757
0.00922326
0.00957881
0.00994475
0.0103214
0.0107095
0.0111095
0.0115217
0.0119466
0.0123849
0.0128367
0.0133027
0.0137835
0.0052158
0.0049743
0.00478729
0.00466221
0.00462233
0.00462576
0.00465669
0.00471235
0.00479316
0.00489723
0.00502193
0.00516406
0.0053234
0.00549641
0.0056824
0.00588006
0.00608839
0.0063066
0.00653387
0.00676963
0.00701403
0.00726593
0.00752567
0.00779339
0.00806871
0.00835128
0.00864165
0.00893964
0.00924592
0.00955993
0.00988267
0.0102135
0.0105531
0.010902
0.0112601
0.0116278
0.0120056
0.0123938
0.0127926
0.0132021
0.0136228
0.014055
0.0144994
0.00703051
0.0067658
0.00654168
0.00636423
0.00623486
0.00614907
0.00610638
0.00611291
0.00617173
0.00625773
0.00636145
0.00648283
0.00662038
0.00677426
0.00694178
0.0071219
0.00731392
0.0075164
0.00772898
0.00795074
0.00818102
0.00842048
0.00866743
0.00892242
0.0091846
0.00945456
0.00973169
0.0100163
0.0103077
0.0106069
0.010913
0.0112269
0.0115484
0.0118775
0.0122146
0.0125599
0.0129137
0.013276
0.0136468
0.0140263
0.0144145
0.0148117
0.0152184
0.00865859
0.00837944
0.00814071
0.00794229
0.00778478
0.00766674
0.00758768
0.00754692
0.00754286
0.0075707
0.00763095
0.00772835
0.00785406
0.00799563
0.00815046
0.00831805
0.00849821
0.00868927
0.00889032
0.00910107
0.00932101
0.00954886
0.00978495
0.010028
0.0102787
0.0105361
0.0108003
0.0110707
0.011348
0.0116314
0.0119215
0.0122179
0.0125209
0.0128304
0.0131467
0.0134698
0.0137998
0.0141367
0.0144799
0.0148299
0.0151862
0.0155492
0.0159191
0.010114
0.00982553
0.00957569
0.00936639
0.00919573
0.00906186
0.00896425
0.0089018
0.00887212
0.00887313
0.00890419
0.00896283
0.00904716
0.00915477
0.00928655
0.00944114
0.00961184
0.00979289
0.00998463
0.0101864
0.0103972
0.0106158
0.0108418
0.0110752
0.0113149
0.0115611
0.0118131
0.0120713
0.0123347
0.012604
0.012879
0.0131594
0.0134453
0.0137366
0.0140335
0.0143359
0.0146437
0.0149564
0.015274
0.0155957
0.0159224
0.0162531
0.0165888
0.0114155
0.0111182
0.0108611
0.0106432
0.0104634
0.0103199
0.0102108
0.0101351
0.0100909
0.0100765
0.01009
0.0101302
0.0101954
0.0102822
0.0103907
0.0105195
0.0106646
0.010827
0.0110054
0.0111972
0.0113989
0.0116087
0.0118254
0.0120488
0.0122791
0.012515
0.0127567
0.0130032
0.0132548
0.0135115
0.013773
0.014039
0.0143094
0.0145846
0.0148643
0.0151476
0.0154353
0.015726
0.0160187
0.0163148
0.0166142
0.0169157
0.0172212
0.0125788
0.0122764
0.0120136
0.0117874
0.0116019
0.0114488
0.0113308
0.0112451
0.0111897
0.0111663
0.0111709
0.0112002
0.0112546
0.0113282
0.0114251
0.0115398
0.0116711
0.0118215
0.0119811
0.0121536
0.0123376
0.0125318
0.0127359
0.0129509
0.0131705
0.0133971
0.013629
0.0138648
0.0141049
0.0143511
0.0146004
0.0148533
0.0151101
0.0153723
0.0156357
0.0159012
0.0161719
0.0164411
0.0167108
0.0169839
0.0172582
0.0175327
0.0178129
0.0136211
0.0133174
0.0130486
0.0128121
0.0126297
0.0124577
0.0123354
0.0122386
0.012173
0.0121503
0.0121498
0.0121675
0.0122238
0.0122789
0.0123782
0.0124809
0.0126023
0.0127532
0.0128867
0.0130526
0.0132206
0.0134014
0.0135907
0.0137969
0.013997
0.0142176
0.0144357
0.0146592
0.0148881
0.0151282
0.0153619
0.0156056
0.0158491
0.0161031
0.0163466
0.0165962
0.0168567
0.0171013
0.0173489
0.0176044
0.0178554
0.0181021
0.0183545
0.0128851
0.0121682
0.0114819
0.0108252
0.0101969
0.00959609
0.00902176
0.00847299
0.00794887
0.0074485
0.00697103
0.00651564
0.00608158
0.00566815
0.0052747
0.00490057
0.00454512
0.00420767
0.00388764
0.00358442
0.00329749
0.00302636
0.00277062
0.00252997
0.00230433
0.00209385
0.00189907
0.00172135
0.00156302
0.0014258
0.00130687
0.00120067
0.00110281
0.00101005
0.000920041
0.000830939
0.000741274
0.000649747
0.000555066
0.000455911
0.000351078
0.000240864
9.69592e-05
0.0129009
0.0122378
0.0116002
0.0109872
0.0103983
0.00983283
0.00928983
0.0087686
0.00826837
0.00778839
0.00732799
0.0068865
0.00646326
0.00605774
0.00566938
0.00529764
0.00494209
0.0046022
0.00427753
0.00396756
0.0036719
0.00339019
0.00312208
0.00286732
0.00262574
0.00239735
0.00218242
0.00198165
0.00179654
0.00163024
0.0014848
0.00135628
0.00124063
0.00113425
0.00103398
0.000937104
0.000841309
0.000744681
0.000645533
0.0005425
0.000435082
0.00032571
0.000208969
0.0129203
0.0123081
0.0117171
0.0111465
0.0105957
0.0100645
0.00955183
0.00905727
0.0085802
0.00812005
0.0076763
0.00724842
0.0068359
0.0064383
0.00605517
0.00568613
0.00533084
0.004989
0.00466021
0.00434418
0.00404061
0.00374919
0.0034697
0.00320196
0.00294586
0.00270138
0.00246865
0.00224809
0.00204066
0.00184886
0.00167745
0.00152457
0.00138723
0.00126267
0.00114792
0.00103983
0.000935421
0.000831965
0.000727117
0.000619161
0.000507896
0.000397386
0.000292314
0.0129394
0.0123742
0.0118262
0.0112949
0.0107796
0.0102798
0.00979526
0.00932555
0.00887009
0.00842852
0.00800042
0.00758541
0.00718314
0.00679325
0.0064154
0.00604933
0.00569482
0.00535163
0.00501957
0.00469843
0.00438799
0.00408809
0.00379861
0.00351943
0.00325053
0.0029919
0.00274366
0.00250612
0.00228
0.00206703
0.00187208
0.00169609
0.00153661
0.00139192
0.00125992
0.00113789
0.0010226
0.000910728
0.000799215
0.000685807
0.000570311
0.000458033
0.000358234
0.0129571
0.0124358
0.0119274
0.011432
0.010949
0.0104781
0.0100194
0.00957243
0.0091369
0.0087125
0.00829897
0.00789602
0.0075034
0.00712086
0.00674819
0.00638524
0.0060318
0.00568778
0.00535309
0.00502763
0.00471129
0.00440403
0.00410575
0.0038165
0.00353626
0.0032651
0.0030032
0.00275083
0.00250855
0.00227765
0.00206187
0.00186506
0.00168484
0.0015201
0.00136984
0.00123217
0.00110428
0.00098262
0.000863607
0.000744344
0.000624475
0.000510104
0.000413053
0.0129751
0.0124933
0.0120207
0.0115578
0.0111044
0.0106602
0.010225
0.00979904
0.00938187
0.00897334
0.00857327
0.00818151
0.00779795
0.00742242
0.00705472
0.0066948
0.00634261
0.00599815
0.00566134
0.00533217
0.0050107
0.00469691
0.00439088
0.00409267
0.00380235
0.00352005
0.00324597
0.00298039
0.00272385
0.00247739
0.00224363
0.00202801
0.00182898
0.00164543
0.00147711
0.0013232
0.00118162
0.00104911
0.000921794
0.000796272
0.000671893
0.000555275
0.000459912
0.0129954
0.0125473
0.0121069
0.0116736
0.0112473
0.0108274
0.010414
0.0100071
0.00960671
0.00921282
0.00882523
0.00844392
0.00806889
0.00770008
0.00733727
0.00698017
0.0066291
0.0062844
0.00594594
0.00561361
0.0052875
0.00496783
0.00465476
0.00434847
0.00404915
0.00375688
0.00347183
0.00319436
0.00292505
0.00266477
0.00241558
0.00218285
0.00196689
0.00176619
0.00158091
0.00141107
0.0012555
0.00111152
0.000975326
0.000843197
0.000714138
0.000595058
0.000500845
0.0130116
0.0125964
0.0121861
0.0117803
0.0113788
0.0109812
0.0105878
0.0101986
0.00981375
0.00943306
0.00905717
0.00868563
0.00831864
0.0079567
0.00759985
0.00724566
0.00689437
0.00654949
0.00621026
0.00587576
0.00554528
0.00521966
0.00489966
0.00458537
0.0042777
0.00397733
0.00368282
0.0033945
0.00311345
0.00284043
0.00257714
0.00232839
0.00209669
0.00187988
0.00167842
0.00149308
0.00132357
0.00116808
0.001023
0.000884311
0.000750805
0.000629634
0.000536671
0.0130266
0.01264
0.0122584
0.0118788
0.0115002
0.0111231
0.0107486
0.0103764
0.0100056
0.00963661
0.00927209
0.00890993
0.00855061
0.00819389
0.00784894
0.00750392
0.00714444
0.00679795
0.00645998
0.00612877
0.00579561
0.00546215
0.00513455
0.00481113
0.00448874
0.00418738
0.00389086
0.00359491
0.00330575
0.00302409
0.00274979
0.00248646
0.00224275
0.00201173
0.0017941
0.00159205
0.00140631
0.00123511
0.00107743
0.00092955
0.000788953
0.000662536
0.000568675
2.00851e-05
2.42472e-05
7.11249e-05
0.000134046
0.000204686
0.000283296
0.000367729
0.000458696
0.000556764
0.000662388
0.000775945
0.000897748
0.00102809
0.00116728
0.00131563
0.00147351
0.00164121
0.0018191
0.00200747
0.00220658
0.00241664
0.00263764
0.00286939
0.00311143
0.0033629
0.00362268
0.00388933
0.00416125
0.00443678
0.00471431
0.00499231
0.00526935
0.00554412
0.00581545
0.00608225
0.00634347
0.00659813
0.0068452
0.00708363
0.00731231
0.00753007
0.00773561
0.00792752
0.000107932
8.32825e-05
0.000142415
0.000216831
0.000296507
0.000386588
0.00048427
0.000589502
0.000702571
0.00082374
0.000953187
0.00109109
0.00123761
0.00139294
0.00155723
0.00173067
0.00191341
0.00210548
0.00230692
0.00251757
0.0027372
0.00296537
0.0032014
0.00344443
0.00369344
0.00394719
0.00420443
0.00446379
0.00472402
0.00498391
0.00524237
0.00549838
0.00575101
0.00599945
0.00624293
0.00648068
0.00671197
0.00693605
0.00715214
0.00735942
0.00755698
0.00774385
0.00791891
0.000197612
0.000157898
0.000209942
0.000292833
0.000387617
0.000492543
0.000606283
0.000728677
0.000859366
0.000998204
0.00114525
0.00130062
0.00146437
0.0016365
0.00181698
0.00200571
0.00220252
0.00240716
0.00261928
0.00283841
0.00306394
0.00329522
0.00353131
0.00377132
0.00401422
0.00425897
0.00450452
0.00474986
0.00499404
0.00523623
0.00547568
0.00571164
0.00594351
0.00617071
0.0063927
0.00660897
0.00681895
0.00702213
0.00721793
0.00740578
0.00758501
0.00775495
0.00791499
0.000270997
0.000228887
0.000277375
0.000370639
0.000481715
0.000606199
0.000739229
0.000880254
0.00102911
0.00118574
0.0013501
0.00152217
0.00170181
0.00188886
0.00208305
0.00228407
0.0024915
0.00270488
0.00292359
0.00314701
0.00337439
0.00360492
0.00383777
0.00407204
0.00430689
0.00454143
0.00477486
0.00500642
0.00523545
0.00546135
0.00568358
0.00590167
0.00611517
0.00632373
0.00652695
0.00672444
0.00691584
0.00710078
0.00727885
0.00744963
0.00761266
0.0077674
0.00791319
0.000332864
0.000294751
0.000346461
0.000453096
0.000582052
0.000724308
0.000875469
0.00103446
0.00120086
0.00137443
0.00155495
0.00174217
0.00193581
0.00213546
0.00234075
0.00255116
0.00276616
0.00298513
0.00320738
0.00343221
0.00365885
0.00388658
0.00411457
0.0043421
0.00456841
0.00479286
0.00501481
0.0052337
0.00544905
0.00566044
0.00586753
0.00606999
0.00626754
0.00645991
0.00664686
0.00682809
0.00700337
0.00717245
0.00733506
0.00749091
0.00763969
0.00778108
0.00791472
0.000386574
0.000356528
0.000416314
0.000536816
0.000682642
0.000841751
0.00100991
0.00118561
0.0013682
0.00155713
0.00175203
0.00195244
0.00215789
0.00236788
0.00258187
0.00279927
0.00301949
0.00324185
0.00346565
0.00369022
0.00391482
0.00413876
0.00436139
0.00458208
0.00480021
0.00501526
0.00522677
0.0054343
0.00563753
0.00583618
0.00603005
0.00621894
0.00640269
0.00658112
0.006754
0.00692116
0.00708243
0.0072377
0.00738682
0.00752959
0.00766582
0.00779529
0.00791772
0.00043429
0.000414842
0.000485606
0.000619769
0.000781132
0.000956011
0.00113981
0.00133071
0.00152776
0.00173027
0.00193759
0.00214916
0.00236439
0.00258266
0.00280336
0.00302586
0.00324954
0.00347378
0.00369792
0.00392126
0.00414314
0.00436301
0.00458031
0.00479452
0.00500513
0.00521167
0.00541378
0.00561124
0.0058038
0.00599127
0.00617359
0.00635073
0.00652266
0.00668912
0.00684986
0.00700475
0.00715381
0.00729704
0.00743438
0.0075657
0.00769086
0.00780977
0.00792234
0.000476951
0.000469612
0.000553182
0.000700856
0.000876631
0.00106585
0.00126359
0.00146799
0.00167782
0.00189225
0.00211026
0.00233121
0.00255443
0.00277924
0.00300503
0.00323106
0.00345683
0.00368192
0.00390569
0.0041273
0.00434616
0.00456193
0.0047742
0.00498256
0.00518636
0.0053852
0.00557892
0.00576746
0.00595059
0.00612811
0.00630025
0.00646734
0.00662939
0.00678569
0.0069358
0.00707982
0.00721818
0.0073509
0.007478
0.00759929
0.00771465
0.00782415
0.00792779
0.000515829
0.000523826
0.000622788
0.000783124
0.000971342
0.00117146
0.00138007
0.00159646
0.00181774
0.00204323
0.00227019
0.00249893
0.00272865
0.00295846
0.00318798
0.00341593
0.00364254
0.00386813
0.00409139
0.00431072
0.00452642
0.00473839
0.00494603
0.00514934
0.00534696
0.00553862
0.00572482
0.0059057
0.0060803
0.00624853
0.00641157
0.00657048
0.00672511
0.00687267
0.00701283
0.00714699
0.00727614
0.00739964
0.00751793
0.00763054
0.00773715
0.00783818
0.00793377
5.77721e-06
0.000340349
0.000746873
0.00119717
0.00168338
0.00219965
0.00274248
0.00330897
0.00389687
0.00450568
0.00513502
0.0057836
0.00645244
0.00713997
0.00784758
0.00857457
0.00932121
0.0100887
0.0108763
0.0116845
0.0125136
0.0133642
0.0142362
0.0151293
0.0160451
0.016983
0.0179429
0.0189258
0.0199324
0.0209619
0.022015
0.0230915
0.0241917
0.0253156
0.0264634
0.0276352
0.0288309
0.0300496
0.0312915
0.0325571
0.033845
0.035155
0.0364894
1.03058e-05
0.00027803
0.000603746
0.000977595
0.00139549
0.00185196
0.00234294
0.00286477
0.00341472
0.0039917
0.0045935
0.00521966
0.00586938
0.00654225
0.00723815
0.00795535
0.00869511
0.00945715
0.0102412
0.0110476
0.0118764
0.0127275
0.0136012
0.0144976
0.0154167
0.0163584
0.0173229
0.0183113
0.0193234
0.0203589
0.0214184
0.0225017
0.0236091
0.024741
0.0258971
0.027077
0.0282813
0.0295087
0.0307598
0.0320339
0.033331
0.0346498
0.0359909
5.32629e-06
0.000227197
0.000515007
0.000845768
0.00121995
0.00163396
0.00208483
0.00256936
0.00308491
0.00363011
0.00420383
0.00480443
0.00543138
0.00608461
0.0067626
0.00746473
0.00819115
0.00894225
0.0097167
0.0105157
0.0113381
0.0121843
0.0130543
0.013948
0.0148656
0.0158072
0.0167729
0.0177627
0.0187767
0.0198154
0.0208781
0.0219652
0.0230769
0.0242136
0.0253748
0.0265601
0.0277697
0.0290038
0.0302609
0.031542
0.0328469
0.034175
0.0355297
3.25876e-06
0.000195019
0.000460034
0.000762302
0.0011061
0.00148898
0.00190849
0.00236228
0.00284821
0.00336496
0.00391183
0.00448741
0.00509101
0.00572234
0.00638068
0.0070647
0.00777521
0.00851173
0.009274
0.0100619
0.0108745
0.0117123
0.0125753
0.013463
0.0143764
0.0153146
0.0162774
0.0172656
0.018279
0.0193175
0.0203813
0.0214696
0.0225832
0.0237224
0.0248867
0.0260754
0.0272891
0.0285272
0.0297896
0.0310759
0.0323858
0.0337199
0.0350801
2.38372e-06
0.000173641
0.000421482
0.000701944
0.00102191
0.00137969
0.00177364
0.00220169
0.0026623
0.00315415
0.00367687
0.00422972
0.0048112
0.00542192
0.00606067
0.00672707
0.00742089
0.00814209
0.00889091
0.00966583
0.0104667
0.0112948
0.0121489
0.0130293
0.013936
0.014868
0.0158265
0.0168115
0.0178219
0.0188586
0.0199209
0.0210088
0.022123
0.023263
0.0244287
0.0256194
0.0268353
0.0280765
0.0293422
0.0306321
0.0319457
0.0332826
0.0346431
1.70988e-06
0.000154513
0.000390134
0.000654555
0.000956136
0.0012941
0.00166745
0.0020742
0.00251319
0.00298375
0.00348528
0.00401707
0.00457863
0.00516978
0.00578977
0.00643882
0.00711574
0.00782145
0.00855523
0.00931628
0.0101054
0.0109223
0.0117662
0.0126373
0.0135357
0.0144611
0.0154134
0.0163929
0.0173992
0.0184324
0.0194922
0.0205788
0.0216915
0.022831
0.0239967
0.0251883
0.0264056
0.0276484
0.0289166
0.0302097
0.0315269
0.0328668
0.034229
1.35944e-06
0.000140599
0.000366131
0.000616841
0.000903058
0.0012244
0.00158011
0.00196867
0.00238937
0.00284124
0.00332389
0.00383689
0.00438033
0.00495325
0.00555582
0.0061878
0.0068487
0.00753887
0.00825785
0.00900525
0.00978206
0.0105869
0.0114196
0.0122807
0.01317
0.0140875
0.0150327
0.0160058
0.0170069
0.0180356
0.0190919
0.0201749
0.0212855
0.0224233
0.0235881
0.0247795
0.0259972
0.0272413
0.0285112
0.0298068
0.0311281
0.0324761
0.0338572
1.1091e-06
0.000128197
0.000345512
0.000585141
0.000858591
0.00116626
0.00150716
0.00188033
0.00228471
0.00271995
0.003186
0.0036822
0.00420867
0.0047653
0.00535152
0.00596724
0.00661249
0.00728786
0.00799243
0.00872642
0.00948999
0.0102824
0.0111041
0.0119547
0.0128344
0.0137431
0.0146805
0.015647
0.0166417
0.0176647
0.0187159
0.0197952
0.0209024
0.0220378
0.0232004
0.0243906
0.025608
0.0268523
0.0281228
0.0294198
0.0307432
0.0320923
0.0334693
9.38276e-07
0.000118161
0.000328091
0.000558393
0.00082088
0.00111651
0.00144426
0.00180357
0.00219363
0.00261443
0.00306574
0.00354657
0.00405779
0.00459936
0.0051707
0.00577151
0.00640224
0.00706295
0.00775373
0.00847449
0.00922501
0.0100056
0.0108156
0.0116556
0.0125255
0.0134245
0.0143534
0.015312
0.0162997
0.0173167
0.0183626
0.019437
0.0205405
0.0216721
0.0228323
0.0240204
0.0252361
0.0264798
0.0277502
0.0290475
0.0303712
0.0317204
0.0330955
8.02704e-07
0.000109337
0.00031288
0.000535129
0.000788152
0.00107305
0.00138931
0.00173647
0.00211395
0.00252184
0.00295951
0.00342688
0.00392437
0.0044517
0.00500881
0.005596
0.00621283
0.00686002
0.0075377
0.00824552
0.00898378
0.0097521
0.0105505
0.01138
0.0122397
0.0131291
0.0140487
0.0149988
0.0159791
0.0169892
0.0180288
0.0190981
0.0201969
0.0213248
0.0224814
0.0236667
0.0248806
0.0261228
0.0273921
0.0286887
0.030012
0.0313606
0.0327339
6.97231e-07
0.000101643
0.000299566
0.000514879
0.000759365
0.001035
0.00134123
0.00167742
0.00204374
0.00243973
0.00286508
0.00332017
0.00380483
0.00431901
0.00486331
0.00543734
0.00604132
0.0066759
0.00734095
0.00803617
0.00876231
0.00951901
0.0103064
0.0111249
0.0119742
0.012854
0.0137645
0.0147058
0.0156779
0.0166806
0.0177136
0.0187772
0.0198708
0.0209937
0.0221466
0.0233287
0.0245399
0.0257797
0.0270476
0.0283435
0.0296663
0.0310155
0.0323897
6.19835e-07
9.50706e-05
0.000287918
0.000496825
0.000733723
0.00100101
0.00129822
0.00162484
0.00198107
0.00236619
0.0027804
0.00322388
0.00369676
0.00419932
0.00473136
0.00529319
0.0058852
0.00650775
0.00716066
0.00784381
0.00855812
0.00930352
0.0100798
0.0108876
0.0117263
0.0125965
0.0134981
0.0144305
0.0153946
0.0163894
0.0174157
0.0184731
0.0195604
0.0206783
0.021827
0.023005
0.0242129
0.0254503
0.0267164
0.0280112
0.0293336
0.0306833
0.0320603
5.57548e-07
8.91116e-05
0.000277383
0.000480496
0.00071065
0.000970529
0.00125956
0.0015775
0.00192426
0.00229957
0.00270343
0.00313657
0.00359887
0.00409026
0.004611
0.00516148
0.005742
0.00635271
0.00699418
0.00766627
0.00836922
0.00910336
0.00986912
0.0106662
0.0114946
0.0123552
0.0132472
0.0141712
0.0151269
0.0161139
0.0171329
0.0181831
0.0192644
0.0203772
0.0215208
0.0226944
0.0238988
0.0251331
0.0263971
0.0276902
0.029012
0.0303621
0.0317424
5.27012e-07
8.39785e-05
0.000267818
0.00046576
0.000690093
0.000942958
0.0012244
0.00153441
0.00187258
0.00223895
0.0026337
0.003057
0.00350909
0.00399021
0.00450059
0.00504037
0.00560979
0.00620965
0.00684035
0.0075016
0.0081937
0.00891742
0.00967249
0.0104591
0.0112779
0.0121283
0.0130111
0.0139263
0.0148731
0.0158527
0.0168639
0.017907
0.0189824
0.0200891
0.0212271
0.0223964
0.0235963
0.024827
0.0260881
0.027379
0.0286994
0.0300499
0.0314329
5.23132e-07
7.91654e-05
0.000258962
0.000452244
0.000671046
0.000917576
0.00119225
0.00149495
0.00182506
0.00218331
0.00256946
0.00298369
0.00342643
0.00389781
0.00439838
0.004928
0.00548754
0.00607741
0.00669742
0.00734801
0.00802995
0.00874316
0.0094879
0.0102648
0.0110736
0.0119144
0.0127883
0.0136945
0.0146331
0.0156044
0.0166076
0.0176441
0.0187126
0.0198129
0.0209456
0.0221097
0.0233049
0.0245316
0.0257891
0.0270767
0.0283942
0.0297415
0.031119
5.80188e-07
7.47884e-05
0.000250869
0.000440006
0.000653541
0.000894284
0.00116271
0.00145846
0.00178147
0.00213216
0.00251021
0.00291614
0.0033503
0.00381266
0.00430364
0.00482376
0.00537395
0.00595374
0.0065636
0.00720444
0.00787644
0.00857988
0.00931503
0.010082
0.0108811
0.011713
0.0125777
0.0134751
0.0144052
0.015368
0.0163638
0.0173928
0.0184541
0.0195483
0.0206749
0.0218333
0.023024
0.0242461
0.0254993
0.026783
0.0280968
0.0294405
0.030813
6.84394e-07
7.0953e-05
0.000243574
0.000428915
0.00063756
0.000873085
0.00113571
0.00142507
0.00174136
0.00208501
0.00245539
0.00285344
0.00327936
0.00373315
0.00421542
0.00472671
0.00526771
0.00583827
0.00643888
0.00707018
0.00773259
0.00842643
0.00915221
0.00990963
0.0106997
0.0115223
0.0123778
0.0132664
0.0141882
0.0151429
0.016131
0.0171521
0.0182064
0.0192941
0.0204141
0.021567
0.0227526
0.0239696
0.025218
0.0264973
0.0278073
0.0291467
0.0305136
7.73822e-07
6.75846e-05
0.000236898
0.000418588
0.000622855
0.000853458
0.00111053
0.00139405
0.00170424
0.0020411
0.00240465
0.00279527
0.00321318
0.00365903
0.0041332
0.004636
0.00516809
0.00573
0.0063217
0.00694401
0.0075973
0.00828175
0.00899805
0.0097466
0.0105275
0.011341
0.0121877
0.0130678
0.0139811
0.0149278
0.0159083
0.0169217
0.0179688
0.0190497
0.0201634
0.0213104
0.0224903
0.0237019
0.0249455
0.0262206
0.0275261
0.0288612
0.0302245
8.41144e-07
6.42782e-05
0.000230521
0.000408959
0.00060915
0.000835046
0.00108698
0.00136511
0.00166941
0.00199995
0.00235695
0.00274057
0.00315119
0.0035897
0.00405616
0.00455088
0.00507478
0.00562841
0.00621148
0.00682505
0.00746951
0.00814515
0.00885264
0.00959217
0.0103641
0.0111692
0.0120072
0.0128786
0.0137834
0.0147222
0.0156949
0.0167009
0.0177411
0.0188149
0.019922
0.0210631
0.0222369
0.0234434
0.0246824
0.0259531
0.0272547
0.0285868
0.0299478
8.91293e-07
6.12808e-05
0.000224518
0.000399886
0.000596281
0.000817925
0.00106517
0.00133801
0.00163675
0.00196126
0.00231199
0.00268914
0.00309319
0.0035245
0.00398348
0.00447082
0.00498693
0.00553218
0.00610724
0.00671218
0.00734821
0.00801566
0.0087147
0.00944551
0.0102092
0.0110057
0.0118352
0.0126984
0.0135948
0.0145255
0.0154903
0.0164891
0.0175222
0.018589
0.0196899
0.0208243
0.0219927
0.0231938
0.0244278
0.0256944
0.026993
0.0283236
0.0296881
9.30623e-07
5.85584e-05
0.000218976
0.000391573
0.000584385
0.000801993
0.00104465
0.00131275
0.0016062
0.00192504
0.00227
0.00264117
0.0030388
0.00346316
0.00391511
0.00439547
0.00490383
0.00544135
0.00600854
0.00660564
0.00723353
0.00789301
0.0085836
0.00930604
0.0100613
0.0108494
0.0116711
0.0125261
0.0134146
0.0143375
0.0152945
0.0162858
0.0173117
0.0183717
0.0194658
0.0205943
0.0217568
0.0229526
0.0241817
0.0254435
0.0267384
0.0280651
0.0294242
9.61552e-07
5.6173e-05
0.000213893
0.000383801
0.000573194
0.000786829
0.00102533
0.00128892
0.00157733
0.00189104
0.00223059
0.00259561
0.00298704
0.00340515
0.0038505
0.00432391
0.00482522
0.00535537
0.00591518
0.00650461
0.00712493
0.00777633
0.0084588
0.00917322
0.00992032
0.0107007
0.0115143
0.0123611
0.0132418
0.0141571
0.0151064
0.0160902
0.017109
0.0181621
0.0192499
0.0203721
0.0215286
0.0227192
0.0239434
0.0252007
0.0264913
0.0278144
0.0291694
9.79349e-07
5.37735e-05
0.000208833
0.000376187
0.000562475
0.000772508
0.00100711
0.00126627
0.00155013
0.00185901
0.00219319
0.00255264
0.00293822
0.00335034
0.00378932
0.00425591
0.00475036
0.00527362
0.00582623
0.00640846
0.00702109
0.00766471
0.00833973
0.00904645
0.00978604
0.0105585
0.0113641
0.0122031
0.0130763
0.0139839
0.0149259
0.0159027
0.0169142
0.0179604
0.0190419
0.020158
0.0213083
0.0224937
0.0237129
0.0249655
0.0262516
0.0275703
0.028921
9.90221e-07
5.15223e-05
0.000204078
0.000369124
0.000552406
0.000758989
0.000989683
0.00124467
0.00152416
0.00182845
0.00215758
0.0025118
0.00289181
0.0032981
0.00373124
0.0041914
0.00467937
0.00519597
0.00574172
0.00631701
0.00692225
0.00755872
0.00822614
0.00892529
0.00965721
0.0104221
0.0112201
0.0120516
0.0129173
0.0138175
0.0147525
0.015722
0.0167264
0.0177661
0.0188413
0.0199511
0.0210959
0.0222757
0.0234896
0.0247374
0.0260189
0.027333
0.0286795
9.93736e-07
4.94571e-05
0.000199738
0.000362538
0.000542953
0.000746166
0.00097336
0.00122454
0.0014998
0.00179948
0.00212373
0.00247307
0.00284794
0.00324871
0.00367597
0.00413002
0.00461186
0.005122
0.00566126
0.00622977
0.00682826
0.00745748
0.00811762
0.00880974
0.00953436
0.0102916
0.0110821
0.0119064
0.0127648
0.013658
0.0145855
0.0155481
0.016546
0.0175792
0.0186477
0.0197514
0.0208904
0.0220646
0.0232736
0.024517
0.0257941
0.0271037
0.0284441
9.99315e-07
4.77067e-05
0.000195538
0.000356153
0.000533929
0.000734057
0.000957881
0.00120539
0.00147675
0.00177197
0.0020916
0.00243626
0.00280615
0.00320161
0.00362312
0.00407169
0.00454761
0.00505161
0.00558458
0.00614641
0.00673821
0.00736059
0.00801391
0.00869924
0.00941656
0.0101667
0.0109501
0.0117672
0.0126186
0.0135045
0.014425
0.0153808
0.0163719
0.0173987
0.0184609
0.0195586
0.020692
0.0218607
0.0230649
0.024304
0.025578
0.0268873
0.0282349
1.00105e-06
4.59476e-05
0.000191472
0.000350165
0.00052538
0.000722611
0.000943075
0.00118714
0.00145475
0.00174575
0.0020612
0.00240126
0.00276609
0.00315637
0.0035728
0.00401608
0.0044862
0.00498436
0.005511
0.00606638
0.00665195
0.00726781
0.00791468
0.00859301
0.00930357
0.0100469
0.0108233
0.0116332
0.0124775
0.0133565
0.0142705
0.0152195
0.016204
0.0172243
0.0182804
0.0193723
0.0204998
0.0216635
0.0228625
0.0240975
0.0253675
0.0266731
0.0280139
9.93966e-07
4.43208e-05
0.000187676
0.000344451
0.000517213
0.000711549
0.000928967
0.00116973
0.00143362
0.00172085
0.00203225
0.00236784
0.00272805
0.00311348
0.00352479
0.00396272
0.00442741
0.00491984
0.00544069
0.00599019
0.00656938
0.00717877
0.00781902
0.00849091
0.00919499
0.00993138
0.010701
0.0115045
0.0123419
0.0132139
0.0141212
0.0150637
0.016042
0.0170558
0.0181055
0.0191914
0.0203138
0.0214717
0.0226659
0.023896
0.025162
0.0264639
0.0278026
9.9498e-07
4.31775e-05
0.000184207
0.000339251
0.000509788
0.000701373
0.000915794
0.00115327