/*--------------------------------*- C++ -*----------------------------------*\
| =========                 |                                                 |
| \\      /  F ield         | OpenFOAM: The Open Source CFD Toolbox           |
|  \\    /   O peration     | Version:  2.3.0                                 |
|   \\  /    A nd           | Web:      www.OpenFOAM.org                      |
|    \\/     M anipulation  |                                                 |
\*---------------------------------------------------------------------------*/
FoamFile
{
    version     2.0;
    format      ascii;
    class       volScalarField;
    location    "10000";
    object      nuTilda;
}
// * * * * * * * * * * * * * * * * * * * * * * * * * * * * * * * * * * * * * //

dimensions      [0 2 -1 0 0 0 0];

internalField   nonuniform List<scalar> 
120609
(
0.037032
0.0357616
0.0345119
0.0332817
0.0320728
0.0308856
0.0297194
0.0285743
0.0274514
0.0263504
0.0252707
0.0242131
0.0231765
0.0221611
0.0211664
0.0201927
0.0192394
0.0183068
0.0173939
0.0165009
0.0156276
0.0147732
0.0139379
0.0131217
0.0123232
0.0115429
0.0107809
0.0100366
0.00930992
0.00860071
0.00790939
0.00723588
0.00658072
0.00594344
0.00532726
0.00473175
0.00415881
0.00361274
0.00309639
0.00261397
0.00216848
0.00175664
0.00126747
0.0376184
0.0364614
0.0353226
0.0342007
0.0330951
0.0320061
0.0309338
0.0298788
0.0288408
0.0278187
0.0268145
0.025827
0.0248551
0.0238993
0.0229601
0.0220358
0.0211277
0.0202347
0.0193563
0.0184929
0.0176437
0.0168099
0.0159901
0.0151844
0.0143934
0.0136169
0.0128546
0.0121067
0.011374
0.0106575
0.0099568
0.00927313
0.00860705
0.0079611
0.00733723
0.00673671
0.00616291
0.00561924
0.00510953
0.0046358
0.00420393
0.00381473
0.00347168
0.0381756
0.0371219
0.0360835
0.0350577
0.0340441
0.0330439
0.0320565
0.0310825
0.0301203
0.0291708
0.0282347
0.0273105
0.0263988
0.0254996
0.0246116
0.0237356
0.0228712
0.0220178
0.021176
0.0203449
0.0195251
0.0187161
0.0179172
0.0171304
0.0163549
0.0155909
0.0148377
0.0140974
0.013371
0.0126579
0.011959
0.0112763
0.0106115
0.00996697
0.0093439
0.00874391
0.00817333
0.0076331
0.00712627
0.00665647
0.0062281
0.00584431
0.0055062
0.0387068
0.0377442
0.0367944
0.0358541
0.0349236
0.0340025
0.0330909
0.0321884
0.0312943
0.0304096
0.0295338
0.0286672
0.0278098
0.0269612
0.0261205
0.0252881
0.0244635
0.023647
0.0228387
0.0220382
0.0212455
0.0204605
0.0196834
0.0189149
0.0181547
0.0174038
0.0166619
0.0159311
0.015211
0.0145032
0.0138087
0.0131291
0.0124667
0.0118233
0.0112002
0.0106015
0.0100304
0.00948904
0.00898066
0.00850874
0.00807643
0.00768509
0.00733706
0.0391987
0.0383239
0.037455
0.0365921
0.0357351
0.0348843
0.0340401
0.0332015
0.0323681
0.0315407
0.0307188
0.0299029
0.0290935
0.0282899
0.0274914
0.0266982
0.0259099
0.0251264
0.0243483
0.0235752
0.0228074
0.0220442
0.0212872
0.0205354
0.0197898
0.0190505
0.0183196
0.0175969
0.0168834
0.0161806
0.0154898
0.0148121
0.0141508
0.0135074
0.0128841
0.0122839
0.0117102
0.011165
0.0106519
0.0101746
0.00973528
0.00933455
0.00897563
0.0396681
0.0388649
0.0380672
0.0372731
0.0364818
0.0356938
0.0349096
0.0341277
0.033348
0.0325707
0.0317957
0.0310243
0.030257
0.0294931
0.0287328
0.0279752
0.0272192
0.0264652
0.0257132
0.0249642
0.0242182
0.0234758
0.0227365
0.0220002
0.0212674
0.0205392
0.019817
0.0191012
0.0183936
0.0176942
0.0170058
0.0163301
0.0156691
0.0150243
0.0143995
0.0137972
0.0132194
0.0126689
0.0121502
0.0116666
0.0112191
0.0108097
0.0104417
0.0400984
0.0393658
0.0386327
0.0379
0.0371674
0.0364354
0.0357043
0.0349725
0.0342406
0.0335073
0.0327739
0.0320409
0.0313094
0.0305801
0.0298537
0.0291286
0.0284029
0.0276748
0.0269449
0.0262158
0.0254898
0.0247665
0.0240436
0.0233212
0.0225995
0.0218806
0.0211656
0.0204565
0.0197527
0.0190567
0.0183705
0.0176953
0.0170331
0.0163876
0.0157607
0.0151548
0.0145726
0.0140176
0.0134928
0.0130022
0.0125471
0.0121292
0.0117523
0.040509
0.0398317
0.0391543
0.0384759
0.0377958
0.0371131
0.0364287
0.0357425
0.0350534
0.034359
0.0336623
0.0329632
0.0322599
0.0315592
0.0308608
0.0301668
0.0294716
0.0287703
0.0280574
0.0273433
0.0266322
0.0259265
0.0252214
0.0245135
0.023799
0.0230877
0.0223792
0.0216748
0.0209753
0.0202812
0.0195975
0.0189209
0.0182581
0.0176109
0.0169825
0.0163727
0.0157868
0.0152263
0.0146957
0.0141986
0.0137361
0.0133097
0.0129239
0.0408872
0.0402618
0.0396331
0.0390026
0.038372
0.0377305
0.0370884
0.0364424
0.0357943
0.035132
0.0344677
0.0338022
0.0331174
0.0324417
0.03176
0.031094
0.0304297
0.0297685
0.0290649
0.0283607
0.0276523
0.0269633
0.0262771
0.0255951
0.0248794
0.0241747
0.0234687
0.0227695
0.022077
0.0213786
0.0207032
0.0200227
0.0193564
0.0187072
0.0180801
0.0174652
0.0168768
0.0163106
0.0157721
0.015271
0.0148007
0.0143653
0.0139725
0.00105916
0.00101846
0.00103499
0.00109502
0.00120018
0.00134546
0.00152204
0.00172107
0.00193474
0.0021575
0.00238666
0.00262011
0.00285702
0.00309722
0.00334067
0.00358775
0.00383887
0.00409388
0.00435349
0.00461784
0.00488742
0.00516242
0.00544338
0.00573085
0.00602481
0.00632622
0.00663529
0.00695239
0.00727843
0.00761368
0.00795867
0.00831419
0.00868078
0.00905903
0.00944972
0.00985344
0.0102708
0.0107027
0.0111498
0.0116128
0.0120923
0.0125886
0.013102
0.00320237
0.00305871
0.00297495
0.0029371
0.00294071
0.00298348
0.00305957
0.00316549
0.00329673
0.003449
0.00361902
0.0038037
0.00400105
0.0042094
0.00442708
0.00465267
0.00488567
0.00512573
0.00537217
0.00562526
0.00588451
0.0061508
0.00642374
0.00670304
0.00699005
0.00728412
0.00758632
0.00789632
0.00821442
0.00854164
0.00887758
0.00922327
0.00957882
0.00994476
0.0103214
0.0107096
0.0111095
0.0115217
0.0119466
0.0123849
0.0128368
0.0133027
0.0137836
0.00521585
0.00497435
0.00478735
0.00466227
0.0046224
0.00462583
0.00465676
0.00471241
0.00479322
0.00489729
0.00502199
0.00516411
0.00532344
0.00549645
0.00568244
0.0058801
0.00608842
0.00630663
0.00653391
0.00676966
0.00701406
0.00726596
0.0075257
0.00779341
0.00806873
0.00835129
0.00864167
0.00893966
0.00924593
0.00955995
0.00988269
0.0102135
0.0105531
0.010902
0.0112602
0.0116278
0.0120056
0.0123938
0.0127926
0.0132021
0.0136228
0.014055
0.0144994
0.00703054
0.00676583
0.00654171
0.00636427
0.00623489
0.0061491
0.00610641
0.00611295
0.00617176
0.00625776
0.00636149
0.00648286
0.00662041
0.00677429
0.00694181
0.00712193
0.00731395
0.00751642
0.00772901
0.00795076
0.00818104
0.0084205
0.00866745
0.00892244
0.00918462
0.00945458
0.00973171
0.0100163
0.0103077
0.0106069
0.010913
0.0112269
0.0115484
0.0118775
0.0122146
0.01256
0.0129138
0.013276
0.0136468
0.0140263
0.0144145
0.0148118
0.0152184
0.00865861
0.00837946
0.00814073
0.00794231
0.00778481
0.00766676
0.00758771
0.00754694
0.00754288
0.00757073
0.00763098
0.00772838
0.00785408
0.00799565
0.00815048
0.00831807
0.00849822
0.00868929
0.00889034
0.00910109
0.00932103
0.00954888
0.00978496
0.0100281
0.0102787
0.0105361
0.0108003
0.0110708
0.011348
0.0116314
0.0119215
0.0122179
0.0125209
0.0128304
0.0131467
0.0134698
0.0137998
0.0141367
0.0144799
0.0148299
0.0151862
0.0155492
0.0159191
0.010114
0.00982554
0.00957571
0.00936641
0.00919574
0.00906188
0.00896427
0.00890181
0.00887213
0.00887315
0.0089042
0.00896285
0.00904718
0.00915479
0.00928656
0.00944116
0.00961185
0.00979291
0.00998465
0.0101864
0.0103972
0.0106159
0.0108419
0.0110752
0.0113149
0.0115611
0.0118131
0.0120714
0.0123347
0.012604
0.012879
0.0131594
0.0134453
0.0137366
0.0140335
0.0143359
0.0146438
0.0149564
0.015274
0.0155958
0.0159224
0.0162531
0.0165888
0.0114156
0.0111182
0.0108611
0.0106433
0.0104634
0.0103199
0.0102108
0.0101352
0.0100909
0.0100765
0.01009
0.0101302
0.0101954
0.0102822
0.0103907
0.0105195
0.0106646
0.010827
0.0110055
0.0111972
0.0113989
0.0116087
0.0118254
0.0120488
0.0122791
0.012515
0.0127567
0.0130032
0.0132548
0.0135115
0.013773
0.014039
0.0143094
0.0145846
0.0148643
0.0151476
0.0154353
0.015726
0.0160187
0.0163148
0.0166142
0.0169157
0.0172212
0.0125789
0.0122764
0.0120136
0.0117874
0.011602
0.0114489
0.0113308
0.0112451
0.0111897
0.0111663
0.0111709
0.0112002
0.0112547
0.0113282
0.0114251
0.0115398
0.0116711
0.0118215
0.0119812
0.0121536
0.0123376
0.0125318
0.0127359
0.012951
0.0131705
0.0133972
0.013629
0.0138648
0.0141049
0.0143511
0.0146004
0.0148533
0.0151101
0.0153723
0.0156357
0.0159012
0.0161719
0.0164412
0.0167108
0.0169839
0.0172582
0.0175327
0.0178129
0.0136211
0.0133174
0.0130486
0.0128121
0.0126297
0.0124577
0.0123354
0.0122386
0.012173
0.0121503
0.0121498
0.0121675
0.0122238
0.0122789
0.0123782
0.0124809
0.0126024
0.0127533
0.0128867
0.0130526
0.0132206
0.0134014
0.0135908
0.0137969
0.0139971
0.0142176
0.0144357
0.0146592
0.0148881
0.0151282
0.0153619
0.0156056
0.0158491
0.0161032
0.0163466
0.0165962
0.0168567
0.0171013
0.0173489
0.0176045
0.0178554
0.0181021
0.0183545
0.0128851
0.0121682
0.0114819
0.0108252
0.0101969
0.0095961
0.00902178
0.00847301
0.00794889
0.00744852
0.00697106
0.00651567
0.00608162
0.0056682
0.00527475
0.00490063
0.00454518
0.00420775
0.00388774
0.00358453
0.00329761
0.00302651
0.0027708
0.00253019
0.00230459
0.00209417
0.00189946
0.00172182
0.00156358
0.00142648
0.00130768
0.00120162
0.00110394
0.0010114
0.000921663
0.000832923
0.00074376
0.000652968
0.000559441
0.000462278
0.000361345
0.000259814
0.000142852
0.012901
0.0122378
0.0116002
0.0109872
0.0103983
0.00983284
0.00928985
0.00876861
0.00826839
0.00778842
0.00732801
0.00688653
0.00646329
0.00605778
0.00566942
0.00529769
0.00494215
0.00460226
0.0042776
0.00396765
0.003672
0.00339031
0.00312222
0.00286749
0.00262594
0.00239759
0.00218271
0.00198201
0.00179696
0.00163076
0.00148542
0.00135703
0.00124152
0.00113532
0.00103527
0.000938667
0.000843245
0.000747145
0.000648795
0.000547072
0.000442032
0.00033741
0.000232046
0.0129203
0.0123081
0.0117171
0.0111465
0.0105957
0.0100645
0.00955185
0.00905728
0.00858022
0.00812007
0.00767633
0.00724845
0.00683593
0.00643834
0.00605521
0.00568617
0.00533089
0.00498906
0.00466027
0.00434425
0.00404069
0.00374928
0.00346982
0.00320209
0.00294601
0.00270157
0.00246888
0.00224836
0.00204099
0.00184927
0.00167794
0.00152517
0.00138795
0.00126353
0.00114896
0.0010411
0.00093699
0.000833944
0.000729699
0.000622699
0.000513085
0.000405603
0.000306343
0.0129394
0.0123742
0.0118263
0.0112949
0.0107796
0.0102798
0.00979528
0.00932557
0.0088701
0.00842854
0.00800044
0.00758543
0.00718316
0.00679328
0.00641544
0.00604937
0.00569486
0.00535168
0.00501963
0.00469849
0.00438806
0.00408817
0.00379871
0.00351954
0.00325066
0.00299205
0.00274385
0.00250634
0.00228026
0.00206735
0.00187248
0.00169657
0.00153719
0.00139263
0.00126079
0.00113895
0.00102391
0.000912382
0.000801357
0.000688704
0.000574462
0.000464345
0.000368141
0.0129571
0.0124358
0.0119274
0.011432
0.010949
0.0104781
0.0100194
0.00957245
0.00913692
0.00871252
0.00829899
0.00789604
0.00750342
0.00712089
0.00674822
0.00638527
0.00603184
0.00568783
0.00535313
0.00502769
0.00471135
0.0044041
0.00410584
0.00381659
0.00353637
0.00326523
0.00300336
0.00275102
0.00250877
0.00227792
0.00206219
0.00186545
0.00168533
0.0015207
0.00137057
0.00123308
0.0011054
0.000984043
0.000865445
0.000746809
0.000627955
0.00051525
0.000420707
0.0129751
0.0124933
0.0120208
0.0115578
0.0111044
0.0106602
0.010225
0.00979905
0.00938189
0.00897336
0.00857329
0.00818153
0.00779798
0.00742245
0.00705474
0.00669483
0.00634265
0.00599819
0.00566138
0.00533222
0.00501075
0.00469698
0.00439095
0.00409275
0.00380245
0.00352017
0.0032461
0.00298055
0.00272403
0.00247761
0.0022439
0.00202835
0.0018294
0.00164594
0.00147774
0.00132399
0.00118261
0.00105036
0.00092341
0.000798431
0.000674909
0.000559646
0.000466176
0.0129954
0.0125473
0.0121069
0.0116736
0.0112473
0.0108274
0.010414
0.0100071
0.00960673
0.00921283
0.00882524
0.00844393
0.00806892
0.00770011
0.00733729
0.0069802
0.00662913
0.00628444
0.00594598
0.00561366
0.00528755
0.00496788
0.00465482
0.00434855
0.00404924
0.00375698
0.00347194
0.00319449
0.00292521
0.00266497
0.00241582
0.00218314
0.00196725
0.00176663
0.00158146
0.00141176
0.00125637
0.00111263
0.00097677
0.000845124
0.000716814
0.000598881
0.000506174
0.0130116
0.0125964
0.0121861
0.0117804
0.0113789
0.0109812
0.0105878
0.0101987
0.00981376
0.00943307
0.00905719
0.00868564
0.00831866
0.00795672
0.00759987
0.00724568
0.0068944
0.00654952
0.0062103
0.0058758
0.00554533
0.00521971
0.00489972
0.00458543
0.00427778
0.00397742
0.00368292
0.00339462
0.00311359
0.0028406
0.00257734
0.00232864
0.002097
0.00188027
0.00167891
0.0014937
0.00132436
0.00116909
0.00102431
0.000886065
0.000753229
0.000633058
0.000541339
0.0130266
0.01264
0.0122584
0.0118788
0.0115002
0.0111231
0.0107486
0.0103764
0.0100056
0.00963662
0.00927211
0.00890995
0.00855063
0.00819391
0.00784897
0.00750395
0.00714446
0.00679798
0.00646001
0.0061288
0.00579565
0.0054622
0.00513461
0.00481119
0.0044888
0.00418746
0.00389095
0.00359501
0.00330588
0.00302425
0.00274997
0.00248669
0.00224302
0.00201207
0.00179453
0.00159259
0.00140701
0.00123601
0.00107861
0.000931139
0.000791151
0.000665636
0.000572849
7.81494e-05
8.29229e-05
0.000123379
0.000171021
0.000228392
0.000298058
0.000377185
0.000464991
0.000561112
0.000665489
0.000778216
0.00089945
0.00102939
0.00116829
0.00131643
0.00147415
0.00164173
0.00181952
0.00200782
0.00220687
0.00241688
0.00263784
0.00286956
0.00311158
0.00336302
0.00362279
0.00388942
0.00416133
0.00443685
0.00471437
0.00499236
0.0052694
0.00554416
0.00581549
0.00608229
0.00634351
0.00659816
0.00684523
0.00708365
0.00731234
0.00753009
0.00773563
0.00792754
0.000151101
0.000132586
0.000177533
0.000238801
0.000310212
0.000395228
0.000489951
0.000593395
0.000705333
0.000825759
0.000954699
0.00109224
0.00123851
0.00139365
0.0015578
0.00173113
0.00191378
0.00210579
0.00230718
0.00251778
0.00273739
0.00296553
0.00320154
0.00344455
0.00369354
0.00394728
0.00420451
0.00446386
0.00472408
0.00498397
0.00524242
0.00549843
0.00575105
0.00599949
0.00624296
0.00648071
0.006712
0.00693607
0.00715217
0.00735944
0.007557
0.00774388
0.00791893
0.000222399
0.000189775
0.000232879
0.000306821
0.000396215
0.000498044
0.000609969
0.000731249
0.000861222
0.000999583
0.0011463
0.00130143
0.00146501
0.00163702
0.0018174
0.00200605
0.0022028
0.0024074
0.00261948
0.00283859
0.00306408
0.00329534
0.00353142
0.00377142
0.00401431
0.00425905
0.00450459
0.00474992
0.0049941
0.00523628
0.00547572
0.00571168
0.00594355
0.00617074
0.00639274
0.006609
0.00681898
0.00702215
0.00721796
0.0074058
0.00758503
0.00775497
0.00791501
0.00028684
0.000249276
0.000292646
0.000379961
0.000487453
0.000609886
0.000741728
0.000882024
0.00103041
0.00118672
0.00135086
0.00152276
0.00170229
0.00188925
0.00208337
0.00228433
0.00249172
0.00270507
0.00292375
0.00314715
0.00337451
0.00360503
0.00383787
0.00407213
0.00430696
0.0045415
0.00477492
0.00500648
0.0052355
0.00546139
0.00568362
0.00590171
0.00611521
0.00632376
0.00652698
0.00672447
0.00691587
0.0071008
0.00727888
0.00744966
0.00761268
0.00776742
0.00791321
0.000344134
0.00030859
0.00035697
0.000459538
0.000586042
0.00072691
0.000877258
0.00103574
0.00120181
0.00137516
0.00155552
0.00174262
0.00193617
0.00213577
0.002341
0.00255138
0.00276634
0.00298528
0.00320752
0.00343233
0.00365896
0.00388667
0.00411466
0.00434217
0.00456847
0.00479292
0.00501487
0.00523375
0.00544909
0.00566049
0.00586757
0.00607003
0.00626757
0.00645995
0.00664689
0.00682812
0.0070034
0.00717247
0.00733508
0.00749093
0.00763972
0.0077811
0.00791475
0.000395214
0.000366519
0.000423857
0.000541481
0.000685565
0.000843685
0.00101125
0.00118659
0.00136893
0.0015577
0.00175248
0.0019528
0.00215819
0.00236813
0.00258207
0.00279944
0.00301965
0.00324198
0.00346577
0.00369032
0.00391491
0.00413884
0.00436147
0.00458215
0.00480027
0.00501532
0.00522682
0.00543435
0.00563757
0.00583622
0.00603009
0.00621897
0.00640272
0.00658115
0.00675403
0.00692119
0.00708246
0.00723773
0.00738684
0.00752962
0.00766585
0.00779531
0.00791774
0.000441264
0.000422435
0.000491258
0.0006233
0.000783374
0.000957513
0.00114087
0.00133149
0.00152835
0.00173073
0.00193796
0.00214946
0.00236463
0.00258286
0.00280354
0.00302601
0.00324967
0.00347389
0.00369802
0.00392135
0.00414322
0.00436308
0.00458037
0.00479458
0.00500519
0.00521172
0.00541383
0.00561129
0.00580384
0.00599131
0.00617362
0.00635076
0.00652269
0.00668915
0.00684989
0.00700478
0.00715384
0.00729706
0.00743441
0.00756572
0.00769088
0.0078098
0.00792236
0.000482798
0.000475634
0.000557585
0.000703632
0.000878416
0.00106706
0.00126446
0.00146863
0.00167831
0.00189264
0.00211057
0.00233146
0.00255464
0.00277942
0.00300518
0.00323119
0.00345695
0.00368202
0.00390578
0.00412738
0.00434624
0.00456199
0.00477426
0.00498261
0.00518641
0.00538525
0.00557897
0.0057675
0.00595063
0.00612815
0.00630029
0.00646738
0.00662943
0.00678572
0.00693583
0.00707985
0.00721821
0.00735092
0.00747803
0.00759932
0.00771467
0.00782418
0.00792781
0.000520866
0.000528717
0.000626286
0.000785355
0.000972798
0.00117246
0.00138079
0.001597
0.00181816
0.00204356
0.00227046
0.00249915
0.00272883
0.00295862
0.00318811
0.00341605
0.00364264
0.00386822
0.00409147
0.00431079
0.00452649
0.00473845
0.00494608
0.00514939
0.00534701
0.00553866
0.00572486
0.00590574
0.00608034
0.00624856
0.0064116
0.00657051
0.00672514
0.0068727
0.00701286
0.00714702
0.00727616
0.00739967
0.00751796
0.00763056
0.00773717
0.00783821
0.00793379
5.46406e-05
0.000351191
0.000749322
0.00119813
0.00168386
0.00219994
0.00274267
0.00330909
0.00389696
0.00450575
0.00513507
0.00578364
0.00645247
0.00714
0.0078476
0.00857459
0.00932122
0.0100887
0.0108763
0.0116845
0.0125136
0.0133642
0.0142362
0.0151293
0.0160451
0.016983
0.0179429
0.0189258
0.0199324
0.020962
0.022015
0.0230915
0.0241917
0.0253156
0.0264634
0.0276352
0.0288309
0.0300496
0.0312915
0.0325572
0.033845
0.035155
0.0364894
6.41558e-05
0.000293243
0.000607462
0.000979033
0.0013962
0.00185237
0.00234319
0.00286494
0.00341484
0.00399179
0.00459356
0.00521971
0.00586942
0.00654229
0.00723818
0.00795537
0.00869513
0.00945717
0.0102412
0.0110476
0.0118764
0.0127275
0.0136012
0.0144976
0.0154167
0.0163584
0.017323
0.0183113
0.0193234
0.0203589
0.0214184
0.0225017
0.0236091
0.024741
0.0258971
0.027077
0.0282813
0.0295087
0.0307598
0.0320339
0.033331
0.0346498
0.0359909
5.34511e-05
0.000247799
0.000520059
0.000847684
0.00122087
0.00163447
0.00208515
0.00256957
0.00308506
0.00363022
0.00420391
0.00480449
0.00543143
0.00608465
0.00676263
0.00746476
0.00819117
0.00894227
0.00971671
0.0105157
0.0113381
0.0121843
0.0130544
0.013948
0.0148656
0.0158072
0.0167729
0.0177627
0.0187767
0.0198154
0.0208781
0.0219652
0.0230769
0.0242136
0.0253748
0.0265601
0.0277697
0.0290038
0.0302609
0.031542
0.0328469
0.034175
0.0355297
4.68854e-05
0.000220216
0.000466295
0.000764654
0.00110722
0.0014896
0.00190887
0.00236253
0.00284838
0.00336508
0.00391192
0.00448747
0.00509106
0.00572238
0.00638072
0.00706473
0.00777523
0.00851175
0.00927401
0.0100619
0.0108745
0.0117123
0.0125753
0.013463
0.0143764
0.0153146
0.0162774
0.0172656
0.018279
0.0193175
0.0203813
0.0214696
0.0225832
0.0237224
0.0248867
0.0260754
0.0272891
0.0285272
0.0297896
0.0310759
0.0323858
0.0337199
0.0350801
4.31947e-05
0.000202496
0.000428855
0.000704711
0.00102322
0.00138041
0.00177408
0.00220198
0.0026625
0.00315429
0.00367698
0.0042298
0.00481126
0.00542197
0.00606071
0.0067271
0.00742092
0.00814211
0.00889093
0.00966585
0.0104667
0.0112948
0.0121489
0.0130293
0.013936
0.014868
0.0158265
0.0168115
0.0178219
0.0188586
0.0199209
0.0210088
0.022123
0.023263
0.0244287
0.0256194
0.0268353
0.0280765
0.0293422
0.0306321
0.0319457
0.0332826
0.0346431
3.96263e-05
0.000187076
0.000398632
0.000657729
0.000957639
0.00129492
0.00166795
0.00207452
0.00251341
0.0029839
0.0034854
0.00401715
0.00457869
0.00516984
0.00578981
0.00643885
0.00711577
0.00782147
0.00855525
0.00931629
0.0101054
0.0109223
0.0117662
0.0126373
0.0135357
0.0144611
0.0154134
0.0163929
0.0173992
0.0184324
0.0194922
0.0205788
0.0216915
0.022831
0.0239967
0.0251883
0.0264056
0.0276484
0.0289166
0.0302097
0.0315269
0.0328668
0.0342291
3.73524e-05
0.000176114
0.00037566
0.000620405
0.00090474
0.00122532
0.00158067
0.00196902
0.00238961
0.00284141
0.00332401
0.00383698
0.0043804
0.00495331
0.00555587
0.00618784
0.00684873
0.00753889
0.00825787
0.00900527
0.00978207
0.0105869
0.0114196
0.0122807
0.01317
0.0140875
0.0150327
0.0160058
0.0170069
0.0180356
0.0190919
0.0201749
0.0212855
0.0224233
0.0235881
0.0247795
0.0259972
0.0272413
0.0285112
0.0298068
0.0311281
0.0324761
0.0338572
3.54525e-05
0.000166512
0.000356072
0.00058909
0.000860451
0.00116727
0.00150776
0.00188072
0.00228498
0.00272014
0.00318614
0.0036823
0.00420875
0.00476536
0.00535157
0.00596728
0.00661252
0.00728788
0.00799246
0.00872644
0.00949
0.0102824
0.0111042
0.0119548
0.0128344
0.0137431
0.0146805
0.015647
0.0166417
0.0176647
0.0187159
0.0197952
0.0209024
0.0220378
0.0232004
0.0243906
0.025608
0.0268523
0.0281228
0.0294198
0.0307432
0.0320923
0.0334693
3.39686e-05
0.000158842
0.000339645
0.000562717
0.000822912
0.00111762
0.00144493
0.001804
0.00219392
0.00261463
0.00306588
0.00354668
0.00405788
0.00459942
0.00517075
0.00577155
0.00640227
0.00706298
0.00775375
0.00847451
0.00922502
0.0100056
0.0108156
0.0116557
0.0125255
0.0134245
0.0143534
0.015312
0.0162997
0.0173167
0.0183626
0.019437
0.0205405
0.0216721
0.0228323
0.0240204
0.0252361
0.0264798
0.0277502
0.0290475
0.0303712
0.0317204
0.0330955
3.26434e-05
0.00015216
0.000325408
0.000539823
0.000790355
0.00107425
0.00139003
0.00173693
0.00211426
0.00252205
0.00295967
0.00342699
0.00392446
0.00445176
0.00500886
0.00559604
0.00621287
0.00686005
0.00753772
0.00824554
0.00898379
0.00975211
0.0105505
0.01138
0.0122397
0.0131291
0.0140487
0.0149988
0.0159791
0.0169892
0.0180288
0.0190981
0.0201969
0.0213248
0.0224814
0.0236667
0.0248806
0.0261228
0.0273921
0.0286887
0.030012
0.0313606
0.0327339
3.1494e-05
0.000146368
0.000313041
0.000519933
0.000761736
0.00103628
0.00134199
0.00167791
0.00204407
0.00243996
0.00286525
0.00332029
0.00380492
0.00431909
0.00486337
0.00543739
0.00604136
0.00667593
0.00734097
0.00803619
0.00876233
0.00951902
0.0103064
0.0111249
0.0119742
0.012854
0.0137645
0.0147058
0.0156779
0.0166806
0.0177136
0.0187773
0.0198708
0.0209937
0.0221466
0.0233287
0.0245399
0.0257797
0.0270476
0.0283435
0.0296663
0.0310155
0.0323897
3.05666e-05
0.000141435
0.000302298
0.000502236
0.00073626
0.00100238
0.00129904
0.00162536
0.00198142
0.00236643
0.00278058
0.00322401
0.00369686
0.0041994
0.00473142
0.00529324
0.00588524
0.00650778
0.00716069
0.00784383
0.00855814
0.00930353
0.0100798
0.0108876
0.0117263
0.0125965
0.0134981
0.0144305
0.0153946
0.0163894
0.0174157
0.0184731
0.0195604
0.0206783
0.021827
0.023005
0.0242129
0.0254503
0.0267164
0.0280112
0.0293336
0.0306833
0.0320603
2.97561e-05
0.000136965
0.000292653
0.000486262
0.000713351
0.000971988
0.00126043
0.00157805
0.00192463
0.00229983
0.00270362
0.00313671
0.00359898
0.00409034
0.00461107
0.00516153
0.00574204
0.00635274
0.00699421
0.00766629
0.00836924
0.00910337
0.00986914
0.0106662
0.0114946
0.0123552
0.0132472
0.0141712
0.0151269
0.0161139
0.0171329
0.0181831
0.0192644
0.0203772
0.0215208
0.0226944
0.0238988
0.0251331
0.0263971
0.0276902
0.029012
0.0303621
0.0317424
2.93291e-05
0.000133108
0.000283958
0.000471876
0.000692954
0.000944502
0.00122532
0.00153499
0.00187298
0.00223923
0.0026339
0.00305715
0.00350921
0.0039903
0.00450066
0.00504042
0.00560983
0.00620969
0.00684038
0.00750163
0.00819372
0.00891743
0.00967251
0.0104591
0.0112779
0.0121284
0.0130111
0.0139263
0.0148732
0.0158527
0.0168639
0.017907
0.0189824
0.0200891
0.0212271
0.0223964
0.0235963
0.024827
0.0260881
0.027379
0.0286994
0.0300499
0.0314329
2.91238e-05
0.000129451
0.000275961
0.000458709
0.000674069
0.000919206
0.00119322
0.00149556
0.00182547
0.0021836
0.00256967
0.00298384
0.00342655
0.0038979
0.00439845
0.00492806
0.00548758
0.00607744
0.00669745
0.00734803
0.00802997
0.00874318
0.00948791
0.0102648
0.0110736
0.0119144
0.0127884
0.0136945
0.0146331
0.0156044
0.0166076
0.0176441
0.0187126
0.0198129
0.0209456
0.0221097
0.0233049
0.0245316
0.0257891
0.0270767
0.0283942
0.0297415
0.0311191
2.82699e-05
0.000125886
0.000268688
0.000446811
0.000656725
0.000896
0.00116372
0.00145911
0.0017819
0.00213246
0.00251043
0.0029163
0.00335043
0.00381276
0.00430371
0.00482381
0.005374
0.00595378
0.00656363
0.00720446
0.00787647
0.0085799
0.00931505
0.0100821
0.0108812
0.011713
0.0125777
0.0134751
0.0144052
0.015368
0.0163638
0.0173928
0.0184541
0.0195483
0.0206749
0.0218333
0.023024
0.0242461
0.0254993
0.026783
0.0280968
0.0294405
0.030813
2.74501e-05
0.000122623
0.000262165
0.000436049
0.000640901
0.000874884
0.00113678
0.00142575
0.00174181
0.00208533
0.00245562
0.00285361
0.00327949
0.00373325
0.0042155
0.00472677
0.00526776
0.00583831
0.00643891
0.00707021
0.00773261
0.00842645
0.00915223
0.00990964
0.0106997
0.0115223
0.0123778
0.0132664
0.0141882
0.0151429
0.016131
0.0171521
0.0182064
0.0192941
0.0204142
0.021567
0.0227526
0.0239696
0.025218
0.0264973
0.0278073
0.0291467
0.0305136
2.70248e-05
0.000119782
0.000256237
0.000426051
0.000626352
0.00085534
0.00111164
0.00139476
0.00170471
0.00204143
0.00240489
0.00279544
0.00321332
0.00365913
0.00413328
0.00463607
0.00516814
0.00573004
0.00632173
0.00694404
0.00759732
0.00828177
0.00899807
0.00974661
0.0105275
0.011341
0.0121877
0.0130678
0.0139811
0.0149278
0.0159083
0.0169217
0.0179688
0.0190497
0.0201634
0.0213104
0.0224903
0.0237019
0.0249455
0.0262206
0.0275261
0.0288612
0.0302245
2.66619e-05
0.000117027
0.000250611
0.000416747
0.000612802
0.000837011
0.00108815
0.00136584
0.00166991
0.0020003
0.0023572
0.00274075
0.00315133
0.0035898
0.00405624
0.00455094
0.00507483
0.00562845
0.00621152
0.00682508
0.00746954
0.00814518
0.00885266
0.00959218
0.0103641
0.0111692
0.0120072
0.0128786
0.0137834
0.0147222
0.0156949
0.0167009
0.0177411
0.0188149
0.019922
0.0210631
0.0222369
0.0234434
0.0246824
0.0259531
0.0272547
0.0285868
0.0299478
2.63834e-05
0.000114542
0.000245353
0.000408001
0.000600087
0.000819972
0.00106638
0.00133878
0.00163727
0.00196161
0.00231225
0.00268933
0.00309334
0.00352461
0.00398356
0.00447089
0.00498699
0.00553222
0.00610727
0.00671221
0.00734823
0.00801568
0.00871472
0.00944553
0.0102092
0.0110057
0.0118353
0.0126984
0.0135949
0.0145255
0.0154903
0.0164891
0.0175222
0.018589
0.0196899
0.0208243
0.0219927
0.0231938
0.0244278
0.0256944
0.026993
0.0283236
0.0296881
2.6162e-05
0.000112285
0.000240529
0.000400004
0.000588343
0.000804122
0.0010459
0.00131355
0.00160673
0.00192541
0.00227027
0.00264137
0.00303895
0.00346327
0.0039152
0.00439554
0.00490389
0.00544139
0.00600857
0.00660567
0.00723356
0.00789303
0.00858362
0.00930605
0.0100613
0.0108494
0.0116711
0.0125261
0.0134146
0.0143375
0.0152945
0.0162858
0.0173117
0.0183717
0.0194658
0.0205943
0.0217568
0.0229526
0.0241817
0.0254435
0.0267384
0.0280651
0.0294242
2.59879e-05
0.000110304
0.000236133
0.000392545
0.000577304
0.000789039
0.00102664
0.00128975
0.00157788
0.00189143
0.00223086
0.00259582
0.00298719
0.00340526
0.00385059
0.00432398
0.00482528
0.00535541
0.00591522
0.00650464
0.00712495
0.00777635
0.00845882
0.00917324
0.00992034
0.0107007
0.0115143
0.0123611
0.0132418
0.0141571
0.0151064
0.0160902
0.017109
0.0181621
0.0192499
0.0203721
0.0215286
0.0227192
0.0239434
0.0252007
0.0264913
0.0278144
0.0291694
2.57757e-05
0.000108308
0.000231783
0.000385252
0.000566737
0.000774799
0.00100847
0.00126713
0.00155071
0.00185941
0.00219348
0.00255285
0.00293838
0.00335046
0.00378941
0.00425599
0.00475042
0.00527367
0.00582627
0.00640849
0.00702112
0.00766474
0.00833975
0.00904646
0.00978605
0.0105585
0.0113641
0.0122031
0.0130763
0.0139839
0.0149259
0.0159027
0.0169142
0.0179604
0.0190419
0.020158
0.0213083
0.0224937
0.0237129
0.0249655
0.0262516
0.0275703
0.028921
2.55872e-05
0.000106427
0.000227719
0.000378503
0.00055682
0.000761362
0.000991086
0.00124556
0.00152476
0.00182887
0.00215788
0.00251202
0.00289197
0.00329823
0.00373134
0.00419148
0.00467943
0.00519602
0.00574176
0.00631704
0.00692228
0.00755874
0.00822616
0.00892531
0.00965723
0.0104221
0.0112201
0.0120517
0.0129173
0.0138175
0.0147525
0.015722
0.0167264
0.0177662
0.0188413
0.0199511
0.0210959
0.0222757
0.0234896
0.0247374
0.0260189
0.027333
0.0286795
2.53983e-05
0.000104694
0.000224032
0.000372223
0.000547516
0.00074862
0.00097481
0.00122546
0.00150041
0.00179991
0.00212403
0.00247329
0.00284811
0.00324884
0.00367607
0.0041301
0.00461192
0.00512205
0.0056613
0.0062298
0.00682829
0.00745751
0.00811764
0.00880976
0.00953438
0.0102917
0.0110821
0.0119064
0.0127648
0.013658
0.0145856
0.0155481
0.016546
0.0175792
0.0186477
0.0197514
0.0208904
0.0220646
0.0232736
0.024517
0.0257941
0.0271037
0.0284442
2.52892e-05
0.000103214
0.000220484
0.000366149
0.000538642
0.000736591
0.000959378
0.00120633
0.00147738
0.00177241
0.00209191
0.00243649
0.00280632
0.00320174
0.00362322
0.00407177
0.00454768
0.00505167
0.00558463
0.00614644
0.00673824
0.00736061
0.00801393
0.00869926
0.00941657
0.0101667
0.0109501
0.0117672
0.0126186
0.0135045
0.014425
0.0153809
0.016372
0.0173987
0.0184609
0.0195586
0.020692
0.0218607
0.0230649
0.024304
0.025578
0.0268873
0.0282349
2.51826e-05
0.000101718
0.000217067
0.000360466
0.000530241
0.000725225
0.000944619
0.00118811
0.0014554
0.00174621
0.00206152
0.0024015
0.00276627
0.0031565
0.00357291
0.00401616
0.00448626
0.00498442
0.00551105
0.00606641
0.00665198
0.00726784
0.0079147
0.00859303
0.00930359
0.0100469
0.0108233
0.0116333
0.0124775
0.0133565
0.0142705
0.0152195
0.016204
0.0172243
0.0182804
0.0193723
0.0204998
0.0216635
0.0228625
0.0240975
0.0253675
0.0266731
0.0280139
2.50469e-05
0.000100328
0.000213895
0.000355054
0.000522222
0.000714244
0.000930557
0.00117074
0.00143429
0.00172132
0.00203259
0.00236809
0.00272823
0.00311362
0.0035249
0.0039628
0.00442748
0.0049199
0.00544073
0.00599023
0.00656941
0.0071788
0.00781904
0.00849092
0.009195
0.0099314
0.010701
0.0115045
0.0123419
0.0132139
0.0141212
0.0150637
0.016042
0.0170558
0.0181055
0.0191914
0.0203138
0.0214717
0.0226659
0.023896
0.025162
0.0264639
0.0278026
2.50297e-05
9.93446e-05
0.00021101
0.00035014