/*--------------------------------*- C++ -*----------------------------------*\
| =========                 |                                                 |
| \\      /  F ield         | OpenFOAM: The Open Source CFD Toolbox           |
|  \\    /   O peration     | Version:  2.3.0                                 |
|   \\  /    A nd           | Web:      www.OpenFOAM.org                      |
|    \\/     M anipulation  |                                                 |
\*---------------------------------------------------------------------------*/
FoamFile
{
    version     2.0;
    format      ascii;
    class       volScalarField;
    location    "10000";
    object      p;
}
// * * * * * * * * * * * * * * * * * * * * * * * * * * * * * * * * * * * * * //

dimensions      [0 2 -2 0 0 0 0];

internalField   nonuniform List<scalar> 
120609
(
-0.000149636
0.0246722
0.973772
2.03522
2.99427
3.88179
4.70081
5.46388
6.16258
6.79452
7.35824
7.84544
8.26456
8.60763
8.8632
9.02729
9.10457
9.06169
8.90677
8.6283
8.20299
7.61804
6.85979
5.91248
4.73143
3.30837
1.5888
-0.458928
-2.90951
-5.81236
-9.27277
-13.3694
-18.2376
-24.0562
-31.0149
-39.4134
-49.5755
-61.9112
-77.0137
-95.6537
-118.823
-148.545
-192.935
-2.38124
-2.54626
-1.56571
-0.435507
0.617215
1.61593
2.56961
3.48626
4.34795
5.16611
5.93582
6.63744
7.28348
7.86493
8.37112
8.79883
9.14204
9.38848
9.5303
9.56333
9.47731
9.25233
8.87315
8.33178
7.58816
6.631
5.41985
3.92892
2.09902
-0.119703
-2.78573
-5.96862
-9.79251
-14.3301
-19.7225
-26.1304
-33.661
-42.5685
-52.9627
-65.1042
-79.0139
-94.7594
-112.383
-4.8336
-5.35452
-4.65609
-3.83183
-3.08103
-2.40021
-1.77183
-1.19617
-0.69158
-0.239167
0.137299
0.438562
0.658954
0.80149
0.848138
0.809978
0.667958
0.423942
0.0728799
-0.407178
-1.0149
-1.77891
-2.71258
-3.82314
-5.13919
-6.67658
-8.46592
-10.5305
-12.912
-15.6536
-18.8023
-22.403
-26.5242
-31.2401
-36.6163
-42.7492
-49.6998
-57.5721
-66.4206
-76.307
-87.2534
-99.2048
-111.988
-8.20875
-8.09951
-7.47364
-6.77807
-6.16176
-5.6077
-5.10589
-4.65231
-4.24991
-3.89669
-3.60765
-3.37178
-3.20247
-3.11131
-3.09983
-3.17692
-3.34456
-3.61206
-3.98032
-4.46561
-5.07909
-5.84862
-6.78006
-7.90651
-9.23177
-10.7921
-12.5986
-14.6881
-17.0959
-19.8576
-23.0186
-26.6305
-30.7293
-35.3905
-40.6658
-46.6092
-53.2728
-60.7149
-68.9519
-77.9798
-87.7603
-98.1988
-109.088
-9.7166
-10.2938
-9.87526
-9.36917
-8.92331
-8.51746
-8.15859
-7.84757
-7.57583
-7.36095
-7.20179
-7.09704
-7.05235
-7.08345
-7.19317
-7.40862
-7.71845
-8.13055
-8.64007
-9.24232
-9.95449
-10.8095
-11.832
-13.0549
-14.4706
-16.1
-17.9613
-20.0937
-22.5104
-25.2577
-28.3631
-31.8754
-35.8306
-40.2791
-45.2585
-50.8206
-57.0046
-63.835
-71.3223
-79.4475
-88.1648
-97.3863
-106.965
-12.562
-12.6561
-12.2132
-11.7774
-11.4154
-11.094
-10.8362
-10.6165
-10.4284
-10.3064
-10.232
-10.2034
-10.2236
-10.3014
-10.4426
-10.703
-11.0748
-11.5874
-12.1981
-12.8523
-13.5671
-14.4006
-15.4005
-16.6504
-18.1229
-19.7853
-21.646
-23.7825
-26.1904
-28.9108
-31.976
-35.4229
-39.2795
-43.5719
-48.3446
-53.638
-59.4867
-65.9019
-72.8922
-80.4232
-88.4459
-96.8895
-105.629
-13.6822
-14.498
-14.1771
-13.8595
-13.5996
-13.362
-13.215
-13.049
-12.9215
-12.8925
-12.9141
-12.9453
-13.0358
-13.1325
-13.2618
-13.5252
-13.8694
-14.479
-15.3515
-16.2041
-16.9239
-17.6637
-18.4808
-19.6943
-21.2639
-23.0489
-24.8823
-27.0011
-29.3417
-32.0012
-34.98
-38.348
-42.1111
-46.2425
-50.7965
-55.8397
-61.4007
-67.4701
-74.0791
-81.1629
-88.6706
-96.564
-104.729
-15.6002
-16.2182
-16.0092
-15.7793
-15.542
-15.3384
-15.3503
-15.2525
-15.0728
-15.0671
-15.2139
-15.2992
-15.515
-15.682
-15.764
-16.0596
-16.1955
-16.2823
-17.2444
-18.6971
-19.7781
-20.6216
-21.0769
-21.7122
-23.0313
-25.2357
-27.1373
-29.3962
-31.6742
-34.31
-37.1902
-40.5735
-44.3832
-48.3969
-52.7085
-57.503
-62.8252
-68.6322
-74.9982
-81.7402
-88.8552
-96.3951
-104.152
-16.0781
-17.6721
-17.2146
-17.3456
-17.4759
-16.7276
-17.1689
-17.7121
-17.6927
-17.1838
-17.5922
-17.9545
-18.4311
-19.4807
-18.9608
-20.4257
-21.3171
-21.0989
-20.8639
-22.5127
-23.8934
-26.3594
-26.4718
-27.0297
-26.5305
-29.1103
-29.8606
-32.3653
-34.5709
-36.9852
-39.5841
-42.3736
-46.3075
-50.4822
-54.8447
-59.25
-64.4581
-69.5192
-75.7013
-82.4146
-89.1391
-96.1624
-103.426
-249.774
-250.083
-246.852
-252.164
-258.73
-263.513
-267.083
-269.858
-271.933
-273.469
-274.512
-275.195
-275.572
-275.739
-275.692
-275.494
-275.118
-274.618
-274.03
-273.365
-272.689
-271.97
-271.234
-270.492
-269.707
-268.958
-268.13
-267.353
-266.564
-265.726
-264.934
-264.115
-263.304
-262.49
-261.688
-260.865
-260.073
-259.282
-258.496
-257.692
-256.914
-256.026
-256.372
-134.244
-156.645
-178.066
-197.171
-212.542
-224.046
-232.73
-239.197
-243.951
-247.468
-250.031
-251.93
-253.219
-254.126
-254.688
-255.08
-255.348
-255.493
-255.572
-255.586
-255.568
-255.497
-255.392
-255.298
-255.14
-255.019
-254.816
-254.635
-254.445
-254.229
-254.009
-253.784
-253.546
-253.288
-253.049
-252.776
-252.496
-252.221
-251.931
-251.611
-251.281
-250.897
-250.748
-125.551
-140.207
-154.571
-167.86
-179.783
-190.256
-199.35
-207.122
-213.68
-219.211
-223.847
-227.754
-230.956
-233.687
-236.023
-238.009
-239.688
-241.136
-242.344
-243.385
-244.233
-244.936
-245.558
-246.03
-246.42
-246.739
-246.987
-247.187
-247.31
-247.403
-247.458
-247.477
-247.476
-247.445
-247.4
-247.332
-247.247
-247.15
-247.033
-246.899
-246.746
-246.553
-246.066
-120.169
-131.402
-142.57
-153.417
-163.706
-173.234
-181.873
-189.59
-196.406
-202.393
-207.621
-212.159
-216.13
-219.571
-222.555
-225.134
-227.341
-229.282
-230.952
-232.418
-233.708
-234.814
-235.798
-236.669
-237.443
-238.121
-238.728
-239.267
-239.749
-240.165
-240.558
-240.889
-241.186
-241.453
-241.692
-241.888
-242.056
-242.201
-242.322
-242.407
-242.481
-242.524
-242.193
-116.749
-126.623
-136.439
-145.997
-155.123
-163.697
-171.627
-178.863
-185.407
-191.293
-196.543
-201.222
-205.386
-209.088
-212.352
-215.251
-217.812
-220.107
-222.147
-223.964
-225.581
-227.044
-228.341
-229.523
-230.581
-231.539
-232.404
-233.187
-233.891
-234.528
-235.11
-235.644
-236.13
-236.573
-236.979
-237.342
-237.664
-237.969
-238.237
-238.477
-238.696
-238.885
-238.797
-114.543
-123.531
-132.453
-141.165
-149.523
-157.442
-164.84
-171.679
-177.959
-183.69
-188.891
-193.578
-197.79
-201.58
-204.985
-208.03
-210.748
-213.215
-215.431
-217.432
-219.235
-220.871
-222.347
-223.699
-224.941
-226.07
-227.099
-228.037
-228.895
-229.679
-230.409
-231.097
-231.73
-232.325
-232.866
-233.357
-233.808
-234.237
-234.619
-234.988
-235.318
-235.618
-235.791
-113.043
-121.398
-129.678
-137.823
-145.644
-153.105
-160.085
-166.609
-172.676
-178.256
-183.339
-187.93
-192.141
-195.975
-199.394
-202.493
-205.285
-207.855
-210.21
-212.307
-214.197
-215.939
-217.525
-219.012
-220.37
-221.609
-222.753
-223.805
-224.744
-225.634
-226.477
-227.292
-228.03
-228.728
-229.356
-229.923
-230.478
-230.996
-231.463
-231.914
-232.32
-232.672
-232.949
-112.031
-119.911
-127.69
-135.464
-142.812
-149.962
-156.506
-162.744
-168.65
-174.08
-179.018
-183.457
-187.646
-191.488
-194.873
-198.021
-200.788
-203.426
-205.886
-208.008
-209.981
-211.798
-213.398
-215.033
-216.497
-217.799
-219.064
-220.184
-221.139
-222.142
-223.104
-224.037
-224.848
-225.663
-226.354
-226.946
-227.59
-228.166
-228.687
-229.236
-229.692
-230.036
-230.702
-111.044
-118.587
-125.706
-133.326
-140.416
-147.471
-153.526
-159.728
-165.904
-171.718
-176.419
-180.476
-185.204
-188.936
-192.508
-195.59
-197.928
-201.135
-203.804
-206.103
-208.079
-209.59
-211.089
-213.343
-214.588
-216.002
-217.449
-218.135
-218.847
-220.276
-221.296
-222.028
-222.758
-223.833
-224.289
-224.563
-225.342
-225.844
-226.316
-227.081
-227.413
-227.341
-227.652
-274.041
-275.41
-276.641
-277.855
-279.051
-280.224
-281.373
-282.5
-283.603
-284.682
-285.737
-286.768
-287.773
-288.752
-289.703
-290.627
-291.522
-292.386
-293.219
-294.02
-294.787
-295.519
-296.217
-296.881
-297.511
-298.111
-298.685
-299.238
-299.78
-300.318
-300.864
-301.427
-302.019
-302.652
-303.337
-304.087
-304.913
-305.825
-306.832
-307.936
-309.149
-310.487
-312.294
-274.46
-275.668
-276.761
-277.838
-278.903
-279.95
-280.98
-281.995
-282.995
-283.981
-284.956
-285.919
-286.873
-287.817
-288.753
-289.683
-290.606
-291.524
-292.437
-293.347
-294.253
-295.157
-296.057
-296.954
-297.848
-298.737
-299.622
-300.5
-301.37
-302.232
-303.082
-303.92
-304.743
-305.55
-306.337
-307.101
-307.837
-308.537
-309.194
-309.792
-310.33
-310.734
-311.412
-274.826
-275.926
-276.929
-277.92
-278.902
-279.872
-280.83
-281.778
-282.717
-283.646
-284.568
-285.483
-286.391
-287.293
-288.19
-289.082
-289.971
-290.857
-291.742
-292.626
-293.51
-294.395
-295.283
-296.173
-297.066
-297.962
-298.861
-299.763
-300.664
-301.565
-302.46
-303.349
-304.225
-305.083
-305.918
-306.721
-307.484
-308.197
-308.851
-309.437
-309.983
-310.439
-310.94
-275.18
-276.198
-277.141
-278.074
-279.002
-279.919
-280.828
-281.73
-282.623
-283.51
-284.39
-285.264
-286.133
-286.998
-287.858
-288.715
-289.567
-290.416
-291.262
-292.106
-292.949
-293.791
-294.632
-295.475
-296.318
-297.163
-298.01
-298.861
-299.714
-300.571
-301.429
-302.29
-303.149
-304.004
-304.851
-305.684
-306.498
-307.286
-308.044
-308.761
-309.466
-310.172
-310.801
-275.474
-276.429
-277.309
-278.18
-279.049
-279.912
-280.769
-281.62
-282.467
-283.31
-284.149
-284.984
-285.818
-286.652
-287.485
-288.318
-289.15
-289.98
-290.811
-291.643
-292.477
-293.312
-294.148
-294.986
-295.826
-296.668
-297.513
-298.362
-299.213
-300.067
-300.924
-301.784
-302.646
-303.507
-304.366
-305.217
-306.057
-306.88
-307.685
-308.465
-309.23
-310.045
-310.759
-275.717
-276.619
-277.438
-278.251
-279.065
-279.877
-280.684
-281.49
-282.295
-283.098
-283.9
-284.699
-285.499
-286.303
-287.109
-287.923
-288.74
-289.552
-290.366
-291.186
-292.012
-292.842
-293.678
-294.517
-295.36
-296.209
-297.061
-297.919
-298.782
-299.65
-300.521
-301.398
-302.278
-303.16
-304.042
-304.919
-305.787
-306.639
-307.473
-308.289
-309.084
-309.943
-310.717
-275.954
-276.796
-277.559
-278.315
-279.08
-279.846
-280.611
-281.376
-282.144
-282.914
-283.687
-284.453
-285.221
-285.997
-286.772
-287.569
-288.382
-289.179
-289.972
-290.777
-291.592
-292.417
-293.248
-294.081
-294.921
-295.769
-296.621
-297.482
-298.351
-299.224
-300.101
-300.983
-301.869
-302.758
-303.649
-304.537
-305.416
-306.283
-307.132
-307.974
-308.813
-309.772
-310.694
-276.144
-276.938
-277.648
-278.344
-279.065
-279.789
-280.514
-281.238
-281.971
-282.71
-283.462
-284.2
-284.928
-285.686
-286.419
-287.179
-288.019
-288.817
-289.58
-290.359
-291.161
-291.984
-292.828
-293.666
-294.513
-295.37
-296.213
-297.078
-297.957
-298.847
-299.741
-300.644
-301.559
-302.483
-303.414
-304.357
-305.287
-306.174
-307.024
-307.843
-308.646
-309.563
-310.488
-276.36
-277.133
-277.852
-278.488
-279.174
-279.872
-280.569
-281.254
-281.953
-282.642
-283.41
-284.147
-284.816
-285.589
-286.264
-286.929
-287.818
-288.668
-289.402
-290.164
-290.928
-291.689
-292.54
-293.353
-294.145
-295.074
-295.899
-296.756
-297.615
-298.498
-299.357
-300.22
-301.053
-301.926
-302.792
-303.653
-304.552
-305.462
-306.299
-307.082
-307.771
-309.068
-310.641
-313.66
-313.55
-313.472
-313.406
-313.35
-313.303
-313.263
-313.23
-313.202
-313.18
-313.162
-313.147
-313.135
-313.125
-313.117
-313.11
-313.102
-313.095
-313.087
-313.078
-313.068
-313.057
-313.043
-313.028
-313.011
-312.991
-312.969
-312.944
-312.917
-312.888
-312.856
-312.822
-312.786
-312.747
-312.706
-312.664
-312.619
-312.573
-312.526
-312.479
-312.431
-312.386
-312.369
-312.537
-312.583
-312.73
-312.781
-312.805
-312.816
-312.816
-312.807
-312.791
-312.771
-312.747
-312.72
-312.693
-312.664
-312.635
-312.606
-312.578
-312.55
-312.524
-312.499
-312.476
-312.454
-312.434
-312.416
-312.401
-312.387
-312.375
-312.365
-312.358
-312.352
-312.348
-312.346
-312.345
-312.346
-312.348
-312.35
-312.353
-312.357
-312.361
-312.365
-312.368
-312.367
-312.344
-312.074
-312.413
-312.609
-312.666
-312.702
-312.727
-312.743
-312.75
-312.752
-312.748
-312.741
-312.732
-312.721
-312.709
-312.696
-312.683
-312.671
-312.658
-312.646
-312.634
-312.622
-312.611
-312.599
-312.588
-312.577
-312.566
-312.555
-312.544
-312.533
-312.522
-312.512
-312.503
-312.494
-312.486
-312.479
-312.472
-312.467
-312.463
-312.46
-312.459
-312.458
-312.458
-312.473
-311.904
-312.4
-312.623
-312.696
-312.738
-312.766
-312.786
-312.8
-312.808
-312.812
-312.813
-312.811
-312.807
-312.801
-312.793
-312.785
-312.776
-312.766
-312.756
-312.745
-312.734
-312.723
-312.711
-312.699
-312.687
-312.675
-312.663
-312.652
-312.64
-312.63
-312.619
-312.61
-312.6
-312.59
-312.582
-312.574
-312.566
-312.56
-312.553
-312.547
-312.541
-312.532
-312.505
-311.798
-312.373
-312.645
-312.744
-312.79
-312.817
-312.836
-312.849
-312.858
-312.863
-312.865
-312.864
-312.861
-312.856
-312.85
-312.843
-312.835
-312.827
-312.817
-312.807
-312.796
-312.785
-312.774
-312.763
-312.751
-312.74
-312.729
-312.718
-312.707
-312.698
-312.689
-312.68
-312.671
-312.661
-312.653
-312.645
-312.638
-312.632
-312.626
-312.619
-312.613
-312.605
-312.616
-311.715
-312.348
-312.68
-312.805
-312.855
-312.881
-312.899
-312.91
-312.917
-312.921
-312.923
-312.922
-312.921
-312.917
-312.912
-312.906
-312.9
-312.892
-312.883
-312.873
-312.861
-312.85
-312.839
-312.828
-312.817
-312.806
-312.795
-312.784
-312.774
-312.764
-312.756
-312.748
-312.737
-312.726
-312.718
-312.711
-312.703
-312.697
-312.69
-312.68
-312.674
-312.672
-312.652
-311.757
-312.436
-312.787
-312.907
-312.947
-312.964
-312.972
-312.979
-312.983
-312.987
-312.99
-312.992
-312.991
-312.987
-312.982
-312.976
-312.97
-312.961
-312.95
-312.938
-312.926
-312.915
-312.909
-312.901
-312.889
-312.877
-312.861
-312.848
-312.837
-312.828
-312.825
-312.82
-312.8
-312.786
-312.78
-312.771
-312.761
-312.758
-312.752
-312.736
-312.734
-312.739
-312.756
-311.579
-312.355
-312.762
-312.929
-312.999
-313.033
-313.043
-313.048
-313.046
-313.044
-313.042
-313.04
-313.035
-313.025
-313.019
-313.018
-313.013
-312.996
-312.986
-312.979
-312.969
-312.956
-312.945
-312.919
-312.903
-312.887
-312.866
-312.856
-312.858
-312.864
-312.873
-312.853
-312.803
-312.801
-312.814
-312.809
-312.799
-312.806
-312.798
-312.763
-312.778
-312.796
-312.745
-312.508
-313.239
-313.202
-313.159
-313.162
-313.154
-313.099
-313.072
-313.069
-313.08
-313.117
-313.147
-313.168
-313.17
-313.188
-313.197
-313.178
-313.149
-313.162
-313.15
-313.108
-313.066
-313.074
-313.063
-313.113
-313.141
-313.145
-313.172
-313.193
-313.176
-313.162
-313.06
-312.986
-313.13
-313.165
-313.091
-313.073
-313.088
-313.031
-312.947
-313.048
-313.097
-312.953
33.5796
38.8636
39.9949
40.395
40.3782
40.1281
39.6941
39.2061
38.715
38.1819
37.68
37.1562
36.652
36.1403
35.6239
35.1
34.5153
33.9207
33.2523
32.5594
31.8088
30.9885
30.1368
29.2064
28.2267
27.1825
26.0944
24.9394
23.7378
22.4854
21.1795
19.8188
18.4045
16.9499
15.4512
13.899
12.3016
10.6819
9.00599
7.26771
5.44607
3.77102
2.95337
56.8347
55.5523
53.9217
52.3365
50.8344
49.4104
48.0605
46.7728
45.5689
44.4094
43.3257
42.2568
41.2445
40.2455
39.262
38.3061
37.332
36.3816
35.4161
34.4364
33.4641
32.443
31.4375
30.3886
29.3235
28.2283
27.1139
25.9655
24.7919
23.5718
22.3249
21.0413
19.7195
18.3569
16.9627
15.5304
14.0545
12.5484
11.006
9.40335
7.73283
6.25466
5.97623
74.0561
73.5289
72.6292
71.5943
70.4542
69.1887
67.816
66.3566
64.8218
63.2279
61.5956
59.9242
58.2285
56.5119
54.7953
53.0831
51.3586
49.6511
47.947
46.2419
44.5663
42.8797
41.2098
39.5392
37.8806
36.2293
34.5744
32.9049
31.2384
29.5711
27.9
26.2213
24.5337
22.834
21.1283
19.4098
17.6772
15.9276
14.163
12.3543
10.5049
8.84814
7.93053
77.1242
76.705
75.9128
74.9664
73.9241
72.7775
71.5306
70.2051
68.8156
67.3611
65.861
64.3264
62.7473
61.1433
59.5141
57.8733
56.2009
54.5262
52.8321
51.1292
49.4147
47.6877
45.9649
44.2236
42.4768
40.7186
38.9532
37.1931
35.4119
33.619
31.8269
30.0158
28.1934
26.3561
24.5109
22.6525
20.7726
18.8852
16.9876
15.0405
13.0491
11.2412
10.156
80.0679
79.7898
79.2566
78.5968
77.8433
76.985
76.0178
74.9457
73.7791
72.5217
71.1747
69.7543
68.2586
66.6953
65.0765
63.4083
61.691
59.9327
58.1393
56.323
54.4833
52.6173
50.7476
48.8522
46.951
45.0476
43.1245
41.1971
39.2682
37.3228
35.3777
33.4254
31.4712
29.5008
27.5268
25.5438
23.5521
21.5444
19.5312
17.4849
15.3747
13.4543
12.8301
80.3296
80.1212
79.6783
79.1137
78.473
77.7425
76.9177
76.0028
75.0003
73.9175
72.7486
71.5091
70.1922
68.8079
67.3543
65.8421
64.2727
62.6449
60.9683
59.2507
57.487
55.6854
53.8497
51.981
50.0874
48.1718
46.2268
44.2653
42.2839
40.2908
38.2872
36.2626
34.2266
32.1769
30.1213
28.0548
25.979
23.8946
21.8018
19.6793
17.5041
15.5498
14.9091
80.2286
80.0665
79.7204
79.2713
78.7549
78.1597
77.4787
76.7138
75.8639
74.9327
73.9188
72.8256
71.6512
70.4041
69.0783
67.6854
66.2232
64.6943
63.1095
61.4634
59.7628
58.0166
56.2248
54.3931
52.5166
50.6134
48.676
46.7087
44.7192
42.6976
40.6589
38.6015
36.5306
34.4374
32.3327
30.2143
28.0826
25.9409
23.7906
21.6092
19.4136
17.4565
16.232
79.2799
79.1378
78.8413
78.4561
78.013
77.5029
76.9193
76.2612
75.5299
74.7243
73.8447
72.8898
71.8597
70.757
69.5802
68.3306
67.0122
65.6212
64.1681
62.6449
61.0614
59.4215
57.7224
55.9745
54.1746
52.3271
50.4401
48.5099
46.5474
44.5456
42.5235
40.4672
38.3851
36.2835
34.156
32.0152
29.8562
27.6846
25.5107
23.3104
21.1005
19.082
18.0861
78.0816
77.9646
77.7183
77.3949
77.0201
76.5853
76.0848
75.5172
74.8827
74.1785
73.4055
72.5624
71.6468
70.6591
69.6015
68.4716
67.2699
65.997
64.6555
63.2468
61.7708
60.2318
58.6304
56.9678
55.2536
53.4826
51.6587
49.7893
47.8783
45.9233
43.9292
41.9036
39.8393
37.7506
35.6318
33.4895
31.3194
29.1328
26.9342
24.7013
22.4362
20.2449
18.6315
76.5981
76.4949
76.2809
75.9968
75.6683
75.2864
74.8469
74.3479
73.7885
73.1673
72.4832
71.7346
70.9198
70.0376
69.0868
68.0686
66.9808
65.8238
64.5959
63.3003
61.9347
60.5045
59.0079
57.4448
55.8244
54.1444
52.4033
50.6101
48.7627
46.8688
44.9284
42.9442
40.9222
38.8631
36.7649
34.6447
32.4893
30.3084
28.1043
25.8746
23.6204
21.3969
19.336
74.9311
74.8444
74.6584
74.412
74.1243
73.7896
73.4033
72.9628
72.4679
71.9168
71.3073
70.6386
69.9081
69.1156
68.258
67.3351
66.3458
65.2878
64.1641
62.9698
61.7078
60.3813
58.9845
57.5201
55.992
54.403
52.7513
51.0399
49.2705
47.4488
45.5737
43.6512
41.6776
39.6655
37.6098
35.5176
33.3842
31.227
29.0329
26.8025
24.5391
22.2892
20.0295
73.1475
73.0713
72.908
72.6882
72.4331
72.135
71.7906
71.3975
70.955
70.461
69.9143
69.3127
68.6545
67.9376
67.161
66.322
65.4211
64.4535
63.4222
62.3247
61.1572
59.9253
58.6252
57.2585
55.8253
54.325
52.7643
51.1378
49.4518
47.707
45.9005
44.0449
42.1375
40.1774
38.1727
36.1291
34.0368
31.9151
29.7538
27.5567
25.3215
23.1596
21.4988
71.2709
71.2041
71.0593
70.864
70.635
70.3692
70.0601
69.7076
69.3091
68.8646
68.3709
67.8269
67.2308
66.5796
65.8734
65.108
64.2835
63.3974
62.4483
61.437
60.3585
59.2153
58.0046
56.7285
55.3852
53.9741
52.4993
50.9578
49.3544
47.6886
45.9614
44.1757
42.3364
40.4412
38.4949
36.5007
34.4598
32.3781
30.2571
28.0992
25.8975
23.7835
22.255
69.3242
69.2683
69.1392
68.9629
68.7592
68.5198
68.241
67.9227
67.5629
67.1592
66.7121
66.2176
65.6747
65.0813
64.4355
63.7358
62.9793
62.165
61.2903
60.355
59.3565
58.2946
57.1671
55.9751
54.716
53.3923
51.9996
50.5442
49.0213
47.435
45.7879
44.0763
42.3069
40.4766
38.596
36.6591
34.6725
32.638
30.5577
28.4276
26.2541
24.132
22.225
67.3411
67.2895
67.1732
67.0152
66.8299
66.6127
66.3602
66.0714
65.7437
65.3771
64.9688
64.5175
64.0216
63.4779
62.8858
62.2427
61.5463
60.7954
59.9875
59.1216
58.1951
57.2078
56.1569
55.0426
53.863
52.6194
51.3065
49.9331
48.4886
46.9811
45.4093
43.772
42.0773
40.3167
38.4992
36.6277
34.6993
32.7194
30.6948
28.6178
26.4943
24.4262
22.8749
65.3254
65.2814
65.1753
65.0312
64.8631
64.665
64.4354
64.171
63.8718
63.5361
63.1624
62.748
62.2926
61.7931
61.248
60.655
60.0125
59.3186
58.5705
57.7675
56.906
55.9869
55.0056
53.9633
52.8575
51.6884
50.4516
49.1525
47.7852
46.3557
44.8582
43.2952
41.6707
39.982
38.2319
36.4217
34.5554
32.6307
30.653
28.623
26.5333
24.4458
22.675
63.274
63.2361
63.1426
63.0133
62.8604
62.681
62.4715
62.2306
61.9565
61.6494
61.306
60.9258
60.5065
60.046
59.5432
58.9951
58.4
57.7569
57.0623
56.3152
55.5135
54.6545
53.7387
52.7624
51.7244
50.625
49.46
48.2326
46.9394
45.5805
44.156
42.6676
41.1117
39.4927
37.8129
36.0648
34.2603
32.3946
30.467
28.4783
26.4237
24.3228
22.1178
61.2259
61.1923
61.1065
60.9863
60.8464
60.6823
60.4898
60.2675
60.0165
59.7328
59.4163
59.0653
58.6774
58.2517
57.7857
57.2783
56.726
56.1283
55.4829
54.7861
54.0389
53.2364
52.3782
51.4631
50.4884
49.4537
48.3563
47.1953
45.9713
44.6817
43.328
41.909
40.4226
38.8722
37.2595
35.5771
33.836
32.0298
30.1617
28.227
26.2222
24.1872
21.9784
59.1666
59.1359
59.0577
58.9485
58.8207
58.6689
58.4917
58.2878
58.0552
57.7939
57.5011
57.1765
56.817
56.4223
55.9901
55.518
55.0043
54.4476
53.8455
53.1955
52.4959
51.746
50.9415
50.0823
49.1659
48.1911
47.156
46.0589
44.9
43.6754
42.3885
41.0363
39.618
38.1347
36.5866
34.9725
33.2962
31.5571
29.7505
27.8843
25.9464
24.0255
22.4035
57.0899
57.0661
56.9973
56.8978
56.7813
56.6432
56.4809
56.2926
56.0788
55.8367
55.5664
55.2647
54.9321
54.5652
54.163
53.7237
53.2457
52.7257
52.1637
51.5559
50.901
50.1974
49.4429
48.6349
47.7721
46.8532
45.8754
44.8385
43.7406
42.5788
41.3556
40.0663
38.7131
37.296
35.8117
34.2631
32.6487
30.9756
29.2342
27.4324
25.5587
23.7266
22.4156
55.0338
55.0117
54.9463
54.8555
54.7473
54.6199
54.469
54.2948
54.0965
53.8716
53.6203
53.3407
53.0306
52.6893
52.3139
51.9046
51.4576
50.9718
50.4455
49.8764
49.2624
48.6018
47.8927
47.1323
46.3196
45.4526
44.5288
43.5475
42.5065
41.4042
40.2408
39.0127
37.7214
36.3657
34.9446
33.4596
31.9077
30.2939
28.6176
26.8751
25.0597
23.2418
21.8753
52.9756
52.9562
52.8978
52.8127
52.7134
52.5947
52.4554
52.2945
52.1095
51.9009
51.6676
51.4069
51.1178
50.7993
50.4493
50.066
49.6483
49.1931
48.7001
48.166
47.5895
46.9686
46.301
45.585
44.8181
43.9993
43.1256
42.1965
41.2086
40.162
39.0555
37.8857
36.6536
35.3584
33.9972
32.5712
31.0812
29.5239
27.9056
26.2157
24.4487
22.6241
21.0419
50.9151
50.8978
50.8451
50.7676
50.6769
50.5685
50.4404
50.2908
50.1198
49.9266
49.7089
49.4658
49.1965
48.8988
48.572
48.2135
47.8219
47.3957
46.9328
46.4315
45.8895
45.3049
44.6762
44.0005
43.2765
42.5024
41.6756
40.795
39.8583
38.8638
37.8107
36.6965
35.5208
34.2809
32.9789
31.6123
30.1799
28.6812
27.1201
25.4881
23.7831
22.0193
20.3433
48.8532
48.8413
48.7943
48.7261
48.643
48.5446
48.4261
48.2887
48.1303
47.9508
47.7489
47.5224
47.2713
46.9931
46.6871
46.3514
45.9838
45.584
45.1489
44.6777
44.1671
43.6165
43.0235
42.3857
41.7018
40.9692
40.1865
39.3508
38.4616
37.516
36.5134
35.4507
34.3293
33.1447
31.8973
30.5871
29.2122
27.771
26.2658
24.6922
23.0497
21.3683
19.7077
46.8175
46.8049
46.7644
46.6998
46.6238
46.5317
46.4225
46.2944
46.1475
45.9801
45.7911
45.58
45.3448
45.0847
44.7981
44.4829
44.1384
43.7622
43.3535
42.9094
42.4287
41.9094
41.3493
40.7465
40.0995
39.4056
38.6634
37.8711
37.0261
36.127
35.1722
34.1595
33.0878
31.9553
30.762
29.5051
28.1848
26.8009
25.3515
23.8323
22.2499
20.652
19.0474
44.7834
44.777
44.739
44.6795
44.6096
44.5253
44.4248
44.306
44.1692
44.0133
43.8367
43.64
43.4201
43.1766
42.9072
42.6115
42.2877
41.9336
41.5489
41.1305
40.6768
40.1868
39.6572
39.0877
38.4748
37.8177
37.1133
36.3608
35.5569
34.7018
33.7914
32.8256
31.8021
30.7191
29.5768
28.3726
27.1064
25.7767
24.3852
22.9263
21.4151
19.9241
18.5441
42.7785
42.7684
42.7309
42.6769
42.6111
42.5328
42.4381
42.3277
42.2005
42.0541
41.8893
41.7049
41.4988
41.2698
41.0171
40.7397
40.4347
40.1018
39.7392
39.3442
38.9161
38.4527
37.952
37.4126
36.8318
36.2083
35.5399
34.825
34.0604
33.2459
32.3784
31.4565
30.4787
29.4427
28.3485
27.1931
25.9778
24.701
23.3637
21.9634
20.5063
19.0549
17.8411
40.7442
40.7394
40.7137
40.6661
40.6089
40.538
40.4524
40.3519
40.2337
40.0984
39.9457
39.773
39.58
39.3659
39.1289
38.8677
38.5814
38.2674
37.9252
37.5526
37.148
36.71
36.2363
35.7252
35.175
34.5831
33.9477
33.2678
32.5403
31.7633
30.9364
30.0559
29.1214
28.1298
27.0808
25.9729
24.8045
23.5754
22.2841
20.9306
19.5095
18.0515
16.8079
38.7441
38.7443
38.7194
38.6762
38.6235
38.5591
38.4801
38.3869
38.2773
38.152
38.009
37.8483
37.6677
37.4668
37.2442
36.9986
36.7283
36.4333
36.1101
35.7585
35.3756
34.9609
34.5121
34.0274
33.5054
32.9432
32.3398
31.6925
31.0002
30.2595
29.4702
28.6287
27.7352
26.7859
25.7802
24.7159
23.5928
22.4086
21.1625
19.8519
18.4709
17.0233
15.6599
36.7782
36.7745
36.7513
36.7098
36.6605
36.5996
36.5262
36.4381
36.336
36.2179
36.0843
35.9327
35.7642
35.5749
35.3654
35.1341
34.8802
34.6008
34.2959
33.9632
33.6014
33.209
32.7836
32.3238
31.8276
31.2936
30.7194
30.103
29.4428
28.7365
27.9828
27.1786
26.3236
25.4143
24.4498
23.4284
22.3487
21.2081
20.0049
18.7376
17.4033
15.9971
14.5458
34.7839
34.7877
34.7707
34.7366
34.6945
34.64
34.5734
34.4933
34.3989
34.2898
34.1648
34.0244
33.8655
33.6884
33.4915
33.2743
33.0342
32.7709
32.4825
32.1683
31.8254
31.4535
31.05
30.6137
30.1427
29.6349
29.0886
28.5016
27.8721
27.1981
26.4781
25.7097
24.891
24.0202
23.0954
22.1144
21.0761
19.9788
18.8189
17.5937
16.3039
14.9554
13.5223
32.8187
32.8228
32.8121
32.7819
32.7433
32.6946
32.6347
32.5611
32.4744
32.3729
32.2571
32.1254
31.9765
31.8102
31.6256
31.4206
31.1943
30.9457
30.6735
30.3757
30.0516
29.6985
29.3158
28.9013
28.4529
27.9702
27.4498
26.8904
26.2902
25.6465
24.9586
24.2236
23.4402
22.6057
21.7186
20.7775
19.78
18.7247
17.6089
16.4313
15.1945
13.9211
12.5414
30.8745
30.8839
30.8737
30.8458
30.8112
30.767
30.7104
30.6428
30.5622
30.4677
30.3593
30.2358
30.0966
29.9403
29.7662
29.573
29.3597
29.125
28.8675
28.5861
28.2782
27.9434
27.5803
27.1865
26.7607
26.3006
25.8049
25.2718
24.6988
24.0846
23.4269
22.7238
21.9736
21.174
20.3231
19.4198
18.4615
17.4473
16.3728
15.2378
14.0424
12.8181
11.5192
28.9673
28.9707
28.9584
28.9329
28.8993
28.8565
28.8042
28.7403
28.6645
28.5755
28.4743
28.3583
28.2272
28.08
27.9157
27.7341
27.5324
27.3104
27.0666
26.7999
26.5085
26.1906
25.8457
25.4714
25.0658
24.6278
24.1555
23.647
23.1
22.5131
21.8841
21.2118
20.4932
19.727
18.9111
18.0441
17.1234
16.1496
15.119
14.0316
12.8885
11.7245
10.6454
27.0155
27.0246
27.0251
27.0062
26.9793
26.9437
26.8973
26.8408
26.7709
26.6896
26.5956
26.4876
26.3652
26.2271
26.0732
25.9015
25.7116
25.5015
25.2708
25.0179
24.7417
24.4401
24.1122
23.7564
23.3705
22.9534
22.5032
22.0179
21.496
20.935
20.3333
19.6895
19.0012
18.2664
17.4834
16.6511
15.7665
14.8291
13.8375
12.7899
11.6833
10.53
9.47968
25.1075
25.121
25.1198
25.1036
25.0794
25.0473
25.0061
24.9537
24.89
24.8153
24.7274
24.6264
24.5123
24.3828
24.2381
24.0765
23.8973
23.6987
23.4806
23.2413
22.9792
22.6929
22.3813
22.0427
21.6754
21.2776
20.8483
20.3853
19.8867
19.3505
18.7752
18.1585
17.499
16.7945
16.0425
15.2429
14.3923
13.4902
12.5338
11.5228
10.4537
9.32887
8.20513
23.2483
23.2538
23.2504
23.2321
23.2082
23.1773
23.1375
23.0874
23.0276
22.957
22.874
22.7794
22.6714
22.5499
22.413
22.2609
22.0911
21.9038
21.6968
21.47
21.2213
20.9496
20.6531
20.3311
19.9813
19.6026
19.1931
18.7507
18.2741
17.7613
17.2108
16.6204
15.9879
15.3124
14.5905
13.8218
13.0031
12.1342
11.2114
10.2325
9.19723
8.11358
6.94545
21.3438
21.3554
21.3573
21.3456
21.3277
21.3024
21.2667
21.2225
21.1686
21.1031
21.0269
20.9383
20.838
20.7235
20.5955
20.4519
20.2922
20.1149
19.9195
19.7042
19.4688
19.2106
18.9287
18.6219
18.2892
17.928
17.5373
17.1152
16.6598
16.1694
15.6423
15.0765
14.4702
13.8216
13.1289
12.3897
11.6027
10.7665
9.87944
8.9388
7.94761
6.92871
5.94971
19.4777
19.4883
19.4906
19.4804
19.4639
19.4405
19.4089
19.3693
19.3194
19.2597
19.1883
19.1069
19.0125
18.9059
18.7851
18.6505
18.4996
18.3325
18.1476
17.9439
17.7205
17.4759
17.208
16.9166
16.599
16.2548
15.8819
15.479
15.0435
14.5747
14.07
13.528
12.9467
12.324
11.6588
10.948
10.1907
9.38533
8.53024
7.62357
6.66258
5.65745
4.7577
17.6076
17.6178
17.6242
17.6172
17.6058
17.5866
17.5599
17.5246
17.4795
17.4247
17.3603
17.284
17.1969
17.0972
16.9845
16.8576
16.7158
16.558
16.3831
16.1901
15.9784
15.7461
15.4919
15.2141
14.9123
14.5842
14.2287
13.8433
13.427
12.9784
12.4952
11.9758
11.4185
10.8206
10.1815
9.49791
8.76881
7.99216
7.16615
6.28835
5.3533
4.35682
3.39612
15.7408
15.7567
15.7676
15.7659
15.7569
15.7422
15.7203
15.689
15.6492
15.5997
15.5399
15.47
15.3892
15.2966
15.1913
15.0718
14.9381
14.7898
14.6248
14.4425
14.2414
14.0213
13.7798
13.5159
13.228
12.9154
12.5762
12.2086
11.8109
11.3819
10.9192
10.4215
9.88674
9.31299
8.69867
8.04167
7.33943
6.59119
5.79325
4.94446
4.04026
3.07463
2.06985
13.9187
13.9318
13.9395
13.9372
13.9299
13.9171
13.8966
13.8687
13.8317
13.7868
13.7318
13.6668
13.5916
13.5054
13.4063
13.2946
13.1692
13.0295
12.8739
12.7013
12.5116
12.3026
12.073
11.8219
11.5481
11.2504
10.9267
10.5757
10.1955
9.78483
9.34234
8.86539
8.35265
7.80192
7.21192
6.58024
5.90435
5.18399
4.41417
3.59379
2.72314
1.80488
0.751827
12.1007
12.1133
12.1224
12.1202
12.1134
12.1022
12.0845
12.0583
12.0257
11.9837
11.9333
11.8732
11.8039
11.7234
11.6309
11.5262
11.4089
11.277
11.1301
10.967
10.7875
10.5889
10.3714
10.1328
9.87222
9.58825
9.28
8.94461
8.58164
8.18905
7.7653
7.30826
6.81658
6.28837
5.72191
5.11482
4.46544
3.77284
3.03433
2.24846
1.41879
0.56186
-0.292915
10.2633
10.2769
10.2904
10.2939
10.2927
10.2858
10.2724
10.2521
10.2235
10.1869
10.1412
10.087
10.0228
9.94806
9.86249
9.76498
9.65476
9.53143
9.39284
9.23948
9.06897
8.88113
8.67465
8.44812
8.20066
7.93051
7.63625
7.3163
6.9696
6.59445
6.1885
5.75085
5.27943
4.77266
4.22865
3.64533
3.02082
2.35356
1.64111
0.880145
0.0713588
-0.774019
-1.68685
8.43601
8.45386
8.47058
8.47789
8.4804
8.47827
8.46904
8.45316
8.42914
8.39749
8.35721
8.30823
8.24987
8.18144
8.10233
8.01133
7.90881
7.79251
7.66282
7.51803
7.35751
7.17966
6.98392
6.76913
6.53386
6.27681
5.99593
5.69077
5.35985
5.00105
4.61285
4.19367
3.74197
3.25566
2.73291
2.1726
1.57226
0.930269
0.244763
-0.486742
-1.26269
-2.07042
-2.91164
6.65233
6.66877
6.6853
6.6924
6.69436
6.69274
6.68489
6.67088
6.65007
6.62153
6.58579
6.54061
6.48685
6.42411
6.35098
6.26674
6.17021
6.06188