/*--------------------------------*- C++ -*----------------------------------*\
| =========                 |                                                 |
| \\      /  F ield         | OpenFOAM: The Open Source CFD Toolbox           |
|  \\    /   O peration     | Version:  2.3.0                                 |
|   \\  /    A nd           | Web:      www.OpenFOAM.org                      |
|    \\/     M anipulation  |                                                 |
\*---------------------------------------------------------------------------*/
FoamFile
{
    version     2.0;
    format      ascii;
    class       volVectorField;
    location    "10000";
    object      U;
}
// * * * * * * * * * * * * * * * * * * * * * * * * * * * * * * * * * * * * * //

dimensions      [0 1 -1 0 0 0 0];

internalField   nonuniform List<vector> 
120609
(
(9.18211 -4.01078 1.78664e-21)
(9.01835 -4.16111 3.01438e-23)
(8.8429 -4.30321 5.97048e-22)
(8.6664 -4.44841 0)
(8.48925 -4.59696 4.66916e-21)
(8.31114 -4.7485 0)
(8.13166 -4.90296 5.22009e-21)
(7.95062 -5.06042 7.19005e-21)
(7.76818 -5.22102 7.53727e-21)
(7.58415 -5.38486 -4.3885e-21)
(7.39813 -5.55225 -4.77319e-21)
(7.21018 -5.72327 4.8021e-21)
(7.01985 -5.89809 2.46476e-21)
(6.82701 -6.07705 2.63985e-21)
(6.63136 -6.26053 -5.81622e-21)
(6.4327 -6.44865 5.8949e-21)
(6.23069 -6.64189 5.91344e-21)
(6.02535 -6.84067 9.33572e-21)
(5.81598 -7.04524 0)
(5.60244 -7.25636 -6.74781e-21)
(5.38436 -7.47476 -4.49436e-21)
(5.16096 -7.70118 -5.43942e-21)
(4.93195 -7.93645 6.43906e-21)
(4.69681 -8.18163 -5.08537e-21)
(4.45428 -8.43801 -3.97697e-21)
(4.20397 -8.70689 2.097e-21)
(3.94518 -8.9899 -2.19035e-21)
(3.67674 -9.28902 2.12999e-21)
(3.39762 -9.60652 1.69301e-21)
(3.10653 -9.94514 7.51262e-22)
(2.80261 -10.3079 -1.64245e-21)
(2.48449 -10.6982 -3.55201e-20)
(2.15152 -11.1206 3.98474e-20)
(1.80151 -11.5804 0)
(1.43671 -12.0844 0)
(1.05538 -12.6402 -6.35982e-21)
(0.658201 -13.2567 0)
(0.25059 -13.9451 1.19316e-20)
(-0.1629 -14.7209 0)
(-0.570277 -15.6039 0)
(-0.951907 -16.6163 -6.39202e-19)
(-1.21883 -17.8177 1.60009e-18)
(-1.43248 -18.9645 -9.84676e-19)
(9.35906 -4.19807 -1.42708e-21)
(9.22035 -4.34267 1.54303e-21)
(9.07109 -4.47799 0)
(8.92226 -4.61652 -1.20904e-21)
(8.77351 -4.75849 -1.16075e-21)
(8.62449 -4.90361 3.06791e-22)
(8.47507 -5.0518 0)
(8.32529 -5.20321 2.39032e-21)
(8.17502 -5.35797 -1.36643e-21)
(8.02394 -5.51616 -2.21939e-21)
(7.87248 -5.67814 8.86031e-22)
(7.72027 -5.84415 0)
(7.56693 -6.01434 -2.41298e-21)
(7.41253 -6.18906 -6.37786e-21)
(7.25713 -6.36857 5.15399e-21)
(7.10029 -6.55314 -1.47939e-21)
(6.94241 -6.74316 6.0453e-21)
(6.7832 -6.93913 -9.21563e-21)
(6.62257 -7.14153 0)
(6.46068 -7.35091 1.50077e-21)
(6.29729 -7.568 -3.48716e-21)
(6.13284 -7.79358 1.64596e-20)
(5.96696 -8.02847 -8.26135e-21)
(5.79974 -8.2736 -3.85629e-22)
(5.6317 -8.53011 -1.91663e-22)
(5.46301 -8.79927 0)
(5.29387 -9.0826 0)
(5.12493 -9.3818 2.31884e-21)
(4.95722 -9.69884 -4.19249e-21)
(4.79208 -10.036 -7.12535e-22)
(4.63034 -10.396 1.54852e-21)
(4.4742 -10.7818 8.72568e-21)
(4.32583 -11.1968 4.88008e-21)
(4.18945 -11.6443 -2.8835e-20)
(4.06957 -12.1285 1.29945e-20)
(3.97117 -12.6536 5.63773e-21)
(3.90234 -13.2233 -1.11961e-19)
(3.87276 -13.8411 1.08333e-19)
(3.89607 -14.5092 0)
(3.98609 -15.2276 0)
(4.16969 -15.9891 0)
(4.47568 -16.7789 0)
(4.96715 -17.5532 2.74374e-20)
(9.52424 -4.36704 0)
(9.4039 -4.50278 -6.73809e-21)
(9.27522 -4.6328 8.92034e-21)
(9.1472 -4.76681 -3.19683e-21)
(9.01937 -4.90459 3.65504e-21)
(8.89169 -5.04581 -5.59375e-21)
(8.76395 -5.19038 -8.65569e-22)
(8.63625 -5.33844 0)
(8.50834 -5.49008 -2.54994e-21)
(8.38033 -5.64545 -2.04198e-21)
(8.25245 -5.80488 -8.68102e-22)
(8.1244 -5.96867 3.33565e-22)
(7.99619 -6.13706 -3.35533e-22)
(7.86778 -6.31041 -1.27586e-21)
(7.73882 -6.48908 0)
(7.60944 -6.6732 1.44822e-21)
(7.47973 -6.86312 3.4768e-22)
(7.34976 -7.05914 -3.53839e-22)
(7.21996 -7.2618 -1.1279e-22)
(7.09035 -7.47171 -4.9921e-22)
(6.96124 -7.68958 0)
(6.83267 -7.91629 0)
(6.70455 -8.15263 0)
(6.57767 -8.39919 1.50396e-21)
(6.45235 -8.65702 -1.23663e-21)
(6.32913 -8.92707 -1.79166e-21)
(6.20853 -9.21059 0)
(6.09203 -9.50865 3.58132e-21)
(5.98125 -9.82259 -8.36899e-21)
(5.87723 -10.1541 9.47033e-21)
(5.782 -10.5048 -2.60955e-20)
(5.69836 -10.876 2.18367e-20)
(5.62972 -11.2695 -2.41787e-20)
(5.58034 -11.6866 1.73028e-20)
(5.55468 -12.1288 -3.16181e-21)
(5.55801 -12.5972 -1.44818e-20)
(5.59919 -13.0907 -1.75222e-20)
(5.68542 -13.6087 -1.09536e-19)
(5.82608 -14.1484 1.73828e-19)
(6.03202 -14.704 1.62096e-20)
(6.31494 -15.2652 -1.32028e-19)
(6.68461 -15.8174 4.11138e-20)
(7.14571 -16.3444 -2.40453e-20)
(9.67383 -4.49942 4.69532e-22)
(9.57253 -4.6309 8.4634e-21)
(9.46335 -4.75654 -3.52673e-21)
(9.35412 -4.88503 -4.71905e-21)
(9.24512 -5.01676 3.42767e-21)
(9.13624 -5.1517 -1.04477e-21)
(9.02755 -5.28989 1.18445e-21)
(8.91904 -5.4314 5.48801e-21)
(8.81068 -5.5764 -1.10816e-21)
(8.70269 -5.72508 6.41173e-22)
(8.59513 -5.87762 0)
(8.48811 -6.0343 -1.59035e-21)
(8.38174 -6.19561 -9.47761e-22)
(8.27579 -6.36197 2.53027e-21)
(8.16998 -6.53378 2.56735e-21)
(8.0642 -6.71123 -3.65796e-21)
(7.95846 -6.8945 1.02702e-21)
(7.85312 -7.08368 0)
(7.74873 -7.27903 0)
(7.64578 -7.48114 -2.44571e-21)
(7.54469 -7.69083 4.25878e-21)
(7.44557 -7.90907 0)
(7.34858 -8.13666 0)
(7.25407 -8.37424 -5.0851e-21)
(7.16246 -8.62247 -2.47549e-21)
(7.07469 -8.88203 1.52092e-20)
(6.99161 -9.15385 -9.77484e-21)
(6.91475 -9.43868 1.04517e-21)
(6.84522 -9.73777 1.09405e-21)
(6.78483 -10.0519 9.59086e-21)
(6.73569 -10.3823 5.19953e-21)
(6.70023 -10.7296 7.6098e-21)
(6.68171 -11.0944 -7.80155e-21)
(6.68354 -11.4774 9.5123e-21)
(6.70954 -11.8787 -1.29461e-21)
(6.76493 -12.2973 1.3987e-20)
(6.85512 -12.7317 1.68652e-20)
(6.98539 -13.1794 2.02196e-20)
(7.16178 -13.6357 2.40905e-20)
(7.39023 -14.094 -2.9078e-20)
(7.67557 -14.5451 -3.36136e-20)
(8.01989 -14.978 -3.57446e-22)
(8.42201 -15.3793 4.36716e-20)
(9.82287 -4.62663 -4.9744e-21)
(9.73101 -4.74405 -5.66076e-21)
(9.63611 -4.86109 1.20392e-20)
(9.54204 -4.9825 4.66924e-21)
(9.44821 -5.10754 0)
(9.35458 -5.23585 0)
(9.26118 -5.3675 2.69145e-21)
(9.16807 -5.50242 -4.64674e-21)
(9.07525 -5.64087 4.69419e-22)
(8.98284 -5.78301 2.17964e-21)
(8.89094 -5.92892 0)
(8.79989 -6.07879 1.57189e-21)
(8.70998 -6.23312 4.68783e-21)
(8.62106 -6.3925 -1.53693e-21)
(8.53279 -6.55758 -3.27306e-21)
(8.44481 -6.72874 3.90193e-21)
(8.35688 -6.906 0)
(8.26904 -7.08938 3.16075e-21)
(8.18205 -7.27848 -3.4092e-21)
(8.09701 -7.47341 0)
(8.01495 -7.67497 9.39363e-22)
(7.93611 -7.88461 -8.09169e-21)
(7.86073 -8.10337 -4.49989e-21)
(7.78825 -8.33219 1.41653e-20)
(7.71915 -8.57099 0)
(7.65434 -8.82036 -6.81653e-21)
(7.59549 -9.08055 -9.0897e-21)
(7.54355 -9.35257 8.89364e-21)
(7.50002 -9.63698 -1.40782e-20)
(7.46664 -9.93459 7.27328e-21)
(7.44534 -10.2458 -1.31635e-20)
(7.43824 -10.5713 -7.53236e-21)
(7.44854 -10.9107 1.01012e-20)
(7.47934 -11.264 3.62547e-20)
(7.53414 -11.6307 3.25992e-20)
(7.61689 -12.0095 7.21033e-21)
(7.73176 -12.3984 -6.90786e-20)
(7.88262 -12.7945 0)
(8.07343 -13.1932 0)
(8.30767 -13.5884 2.8316e-20)
(8.58742 -13.9726 -7.2373e-20)
(8.91266 -14.3381 1.4158e-19)
(9.28131 -14.6749 -6.73534e-22)
(9.94504 -4.71649 3.62638e-21)
(9.87152 -4.83307 -3.79756e-21)
(9.79167 -4.94519 -6.26094e-21)
(9.71144 -5.06084 -3.65251e-21)
(9.63072 -5.17955 3.58172e-21)
(9.54996 -5.30135 3.51411e-21)
(9.46921 -5.42639 -3.07371e-21)
(9.38877 -5.55449 5.85091e-23)
(9.30882 -5.68618 4.14994e-22)
(9.22909 -5.82174 3.37015e-21)
(9.14963 -5.96096 2.96602e-21)
(9.07128 -6.10378 -5.96582e-21)
(8.99445 -6.25067 4.39494e-22)
(8.91927 -6.40231 3.08027e-21)
(8.84556 -6.55964 -6.19655e-21)
(8.77245 -6.72347 -3.22399e-21)
(8.69954 -6.89397 3.51257e-21)
(8.62615 -7.07144 -6.71765e-21)
(8.55222 -7.25505 -1.07985e-21)
(8.47972 -7.44341 0)
(8.41103 -7.63674 -4.74328e-21)
(8.34746 -7.83666 1.49202e-20)
(8.28906 -8.04535 3.53152e-22)
(8.23414 -8.26482 4.07506e-22)
(8.18199 -8.49463 0)
(8.13372 -8.73413 8.25921e-21)
(8.09174 -8.98329 -3.46876e-22)
(8.057 -9.24336 -6.22083e-21)
(8.0314 -9.51426 0)
(8.0162 -9.79717 1.42628e-20)
(8.01331 -10.0922 1.63506e-20)
(8.02463 -10.3996 -1.90003e-20)
(8.05253 -10.7185 2.06848e-20)
(8.10018 -11.0486 -8.24981e-22)
(8.17122 -11.3887 -1.35862e-20)
(8.26894 -11.7378 3.42298e-20)
(8.39618 -12.0941 -3.56694e-20)
(8.55608 -12.4545 0)
(8.75141 -12.8148 0)
(8.98434 -13.1692 0)
(9.25573 -13.5118 -3.21113e-20)
(9.56526 -13.8362 -3.63041e-20)
(9.91062 -14.1344 -4.07184e-20)
(10.0709 -4.80611 1.31601e-22)
(10.0042 -4.9111 3.76933e-21)
(9.93485 -5.01566 4.23062e-21)
(9.86531 -5.12513 7.8007e-21)
(9.79495 -5.23754 5.80095e-22)
(9.72482 -5.35286 -3.47879e-21)
(9.65406 -5.47163 4.06667e-21)
(9.58367 -5.59302 3.69159e-21)
(9.51449 -5.71799 -4.0282e-21)
(9.44537 -5.84736 -7.02672e-21)
(9.37584 -5.98052 -4.05947e-21)
(9.30725 -6.11698 0)
(9.24028 -6.25708 0)
(9.1756 -6.40119 -4.26997e-21)
(9.11385 -6.55081 3.91243e-21)
(9.05257 -6.70735 8.55513e-21)
(8.99225 -6.87001 2.18482e-21)
(8.93205 -7.04101 -2.22714e-21)
(8.86951 -7.22058 4.4457e-21)
(8.80556 -7.40512 -5.75389e-21)
(8.74495 -7.59237 1.20468e-20)
(8.6907 -7.7835 -4.92156e-21)
(8.64519 -7.98112 1.01099e-21)
(8.60518 -8.19046 -1.52375e-20)
(8.56742 -8.41194 7.83235e-21)
(8.53075 -8.64339 0)
(8.50048 -8.88259 0)
(8.47714 -9.13215 -1.1936e-21)
(8.46349 -9.39125 1.36449e-20)
(8.46089 -9.66119 -2.83345e-20)
(8.47103 -9.94214 -3.39037e-20)
(8.49489 -10.235 -1.42996e-21)
(8.53359 -10.5383 -3.34481e-20)
(8.59153 -10.8498 3.82561e-20)
(8.6724 -11.1689 0)
(8.779 -11.4951 0)
(8.91327 -11.8265 3.8505e-20)
(9.07842 -12.1602 0)
(9.27503 -12.4932 -5.18106e-20)
(9.50465 -12.8191 -2.64629e-21)
(9.76855 -13.133 -6.59081e-20)
(10.0658 -13.4298 -5.87268e-21)
(10.394 -13.7028 -6.16332e-21)
(10.1726 -4.87349 0)
(10.1214 -4.9742 -4.66746e-21)
(10.0647 -5.07291 -4.19506e-21)
(10.0047 -5.17756 -8.50163e-21)
(9.94231 -5.28446 -4.026e-21)
(9.88155 -5.3932 8.62698e-21)
(9.81859 -5.50635 -1.26218e-20)
(9.75566 -5.62142 3.90643e-23)
(9.69506 -5.73974 3.99173e-21)
(9.63567 -5.8632 8.55545e-21)
(9.57414 -5.99129 -2.89364e-22)
(9.51313 -6.12206 0)
(9.45353 -6.2568 0)
(9.39574 -6.3943 6.53747e-21)
(9.34486 -6.53594 -1.41818e-20)
(9.29239 -6.68784 -4.49716e-21)
(9.23996 -6.84246 2.46515e-21)
(9.18857 -7.00434 0)
(9.13773 -7.17987 0)
(9.08305 -7.36397 -4.17518e-21)
(9.02933 -7.54919 -6.90597e-21)
(8.97807 -7.73637 -1.00871e-20)
(8.94097 -7.92162 -1.08211e-20)
(8.90987 -8.11926 1.15074e-20)
(8.88573 -8.33285 -4.5676e-21)
(8.85787 -8.5595 -4.02445e-22)
(8.83881 -8.78834 2.27056e-20)
(8.82318 -9.02908 1.90611e-20)
(8.81794 -9.27675 0)
(8.82467 -9.53514 0)
(8.84448 -9.80242 -1.82992e-20)
(8.87969 -10.0829 4.01691e-20)
(8.92582 -10.3739 2.23466e-20)
(8.98902 -10.6712 -5.21053e-20)
(9.07483 -10.9737 3.08441e-20)
(9.18745 -11.2822 -3.20793e-20)
(9.32508 -11.5933 -7.6172e-20)
(9.49545 -11.9061 4.50991e-20)
(9.69204 -12.2191 -9.76537e-20)
(9.91662 -12.5243 1.07393e-19)
(10.1744 -12.8169 0)
(10.4625 -13.0931 0)
(10.7783 -13.3485 7.55886e-20)
(10.2678 -4.93486 -1.59113e-20)
(10.2272 -5.02857 9.30256e-21)
(10.1833 -5.12096 0)
(10.1317 -5.22209 -5.21768e-21)
(10.0735 -5.32435 0)
(10.0208 -5.42609 -4.90191e-21)
(9.96482 -5.53392 -5.20764e-21)
(9.91001 -5.64158 -2.54151e-21)
(9.85694 -5.75104 -2.77438e-21)
(9.80612 -5.8692 0)
(9.75114 -5.9934 -5.28718e-21)
(9.69524 -6.1185 -5.66812e-21)
(9.64586 -6.24757 2.84492e-21)
(9.59124 -6.37861 -9.28949e-21)
(9.55536 -6.50695 4.67725e-23)
(9.52021 -6.65444 0)
(9.48146 -6.80381 0)
(9.4332 -6.94308 -5.16172e-21)
(9.38127 -7.10948 7.06366e-21)
(9.33047 -7.29837 -1.04067e-21)
(9.29093 -7.48675 7.67164e-21)
(9.24428 -7.67834 -4.74908e-21)
(9.22409 -7.85515 8.32907e-21)
(9.19878 -8.02649 -4.3138e-21)
(9.17658 -8.23188 -1.03633e-20)
(9.1429 -8.46335 0)
(9.1317 -8.68727 -1.15272e-20)
(9.11958 -8.92532 -2.02271e-20)
(9.11766 -9.16293 2.27437e-20)
(9.13128 -9.41657 0)
(9.15145 -9.66887 1.83653e-20)
(9.19848 -9.94138 -2.04441e-20)
(9.24985 -10.2247 -2.54295e-20)
(9.31908 -10.5116 8.17708e-20)
(9.40599 -10.7981 0)
(9.52573 -11.0966 0)
(9.65654 -11.3878 7.80808e-20)
(9.8352 -11.686 -8.52315e-20)
(10.0321 -11.9864 9.61955e-20)
(10.2486 -12.2728 0)
(10.5015 -12.5511 0)
(10.7802 -12.8087 -6.96025e-20)
(11.0847 -13.0573 2.56667e-21)
(0.241404 -18.0714 -8.00489e-20)
(1.03428 -15.5728 3.0972e-20)
(1.67865 -13.2163 1.04334e-19)
(2.40608 -11.3815 2.08693e-18)
(3.00377 -9.92057 -4.2507e-18)
(3.42057 -8.75452 2.11008e-18)
(3.72469 -7.86779 1.21275e-19)
(3.97287 -7.227 -1.17332e-19)
(4.20037 -6.78665 -1.8885e-18)
(4.42431 -6.49471 1.88977e-18)
(4.66277 -6.31554 0)
(4.92182 -6.2174 0)
(5.2066 -6.17844 -1.49526e-18)
(5.51947 -6.18439 -3.48085e-19)
(5.85788 -6.22349 1.33863e-18)
(6.21847 -6.28553 -1.25587e-18)
(6.60013 -6.36438 1.19098e-18)
(6.9995 -6.45444 0)
(7.4153 -6.55314 -6.67077e-19)
(7.84237 -6.65675 6.42891e-19)
(8.27806 -6.76328 -1.1856e-19)
(8.71988 -6.87151 0)
(9.16821 -6.98196 -2.23172e-19)
(9.61934 -7.09277 4.35593e-19)
(10.0706 -7.20207 0)
(10.5226 -7.31068 2.01312e-19)
(10.9736 -7.4176 -2.00288e-19)
(11.4228 -7.5221 -3.85086e-19)
(11.8681 -7.62304 -3.74473e-19)
(12.3098 -7.72053 3.66981e-19)
(12.7466 -7.81364 -7.16403e-19)
(13.1776 -7.90185 8.77023e-19)
(13.6023 -7.98478 -3.48188e-19)
(14.0199 -8.06183 -1.02055e-18)
(14.4299 -8.13296 6.69404e-19)
(14.8316 -8.19787 -6.56904e-19)
(15.2244 -8.25617 3.22263e-19)
(15.6076 -8.3075 -6.43831e-19)
(15.9801 -8.35108 3.18779e-19)
(16.3418 -8.38729 -6.15045e-19)
(16.6918 -8.41444 1.51221e-18)
(17.0333 -8.44111 1.76982e-18)
(17.3308 -8.40907 -6.26329e-21)
(5.59806 -18.1695 6.37366e-19)
(6.30721 -18.3317 -6.21709e-19)
(7.02094 -18.1051 -5.67698e-20)
(7.71053 -17.5906 0)
(8.31836 -16.885 0)
(8.82599 -16.0893 5.76362e-20)
(9.2401 -15.274 -6.95724e-20)
(9.581 -14.4909 1.14074e-18)
(9.86824 -13.7695 -1.11094e-18)
(10.1183 -13.121 9.98616e-19)
(10.3459 -12.549 -6.4226e-19)
(10.5597 -12.0493 -1.15429e-18)
(10.7699 -11.6201 -2.19064e-21)
(10.9824 -11.2552 6.17705e-19)
(11.1982 -10.9444 1.23475e-19)
(11.4193 -10.6807 0)
(11.6471 -10.4592 -1.07419e-19)
(11.8822 -10.2751 0)
(12.1228 -10.1212 -2.07068e-19)
(12.3695 -9.99355 4.03079e-19)
(12.6199 -9.88641 1.96512e-19)
(12.8767 -9.79875 1.86037e-19)
(13.1375 -9.7261 3.70329e-19)
(13.3992 -9.6637 1.77094e-19)
(13.6656 -9.6127 -1.93519e-22)
(13.9323 -9.56822 -3.4606e-19)
(14.2008 -9.53069 -3.39207e-19)
(14.4699 -9.49777 6.6704e-19)
(14.738 -9.46783 -3.28469e-19)
(15.0067 -9.44155 3.23562e-19)
(15.2736 -9.41673 1.57388e-19)
(15.5395 -9.39338 -4.77436e-19)
(15.8029 -9.37029 -3.12906e-19)
(16.064 -9.34753 3.14065e-19)
(16.3218 -9.32403 -6.15549e-19)
(16.5763 -9.29986 6.07363e-19)
(16.8272 -9.27458 0)
(17.0734 -9.24745 -7.15516e-21)
(17.3143 -9.21786 3.01499e-19)
(17.5502 -9.1861 0)
(17.7801 -9.15122 2.87487e-19)
(18.0035 -9.11545 -1.15183e-18)
(18.22 -9.06432 -5.60138e-19)
(7.68875 -16.8276 -2.34025e-19)
(8.30438 -17.2201 2.06675e-19)
(8.96279 -17.4587 -6.85023e-20)
(9.62929 -17.5194 7.51208e-20)
(10.2709 -17.4136 0)
(10.8644 -17.1722 -1.34117e-19)
(11.3982 -16.8309 8.93262e-20)
(11.8694 -16.4241 -9.23147e-20)
(12.281 -15.982 5.04778e-19)
(12.6392 -15.5271 -3.94265e-19)
(12.9517 -15.0762 1.06058e-19)
(13.2253 -14.64 1.05444e-19)
(13.4702 -14.2293 -4.97573e-19)
(13.6913 -13.8446 2.95993e-19)
(13.8953 -13.4881 0)
(14.0864 -13.1594 -9.21657e-20)
(14.2692 -12.8581 1.8618e-19)
(14.4465 -12.5825 -8.86379e-20)
(14.62 -12.3302 -9.14002e-20)
(14.7916 -12.0992 0)
(14.963 -11.8882 -8.73768e-20)
(15.1347 -11.6947 -5.06555e-19)
(15.3075 -11.5174 -7.34437e-22)
(15.4817 -11.3544 1.58326e-19)
(15.6573 -11.2042 -1.55851e-19)
(15.8336 -11.0646 3.13118e-19)
(16.0113 -10.9353 -4.65655e-19)
(16.1896 -10.8144 3.04721e-19)
(16.3691 -10.7017 3.01464e-19)
(16.5487 -10.5954 -2.98421e-19)
(16.7291 -10.4954 -2.95712e-19)
(16.9086 -10.3999 -1.4902e-19)
(17.0879 -10.309 1.48019e-19)
(17.2665 -10.222 5.84481e-19)
(17.4438 -10.1381 -5.75271e-19)
(17.6193 -10.0565 -3.04185e-21)
(17.7931 -9.97734 -5.74066e-19)
(17.9648 -9.89979 -2.85448e-19)
(18.1338 -9.82343 -2.81445e-19)
(18.2998 -9.74786 2.82339e-19)
(18.4627 -9.67298 -5.57318e-19)
(18.6207 -9.5978 0)
(18.785 -9.52849 2.67235e-19)
(8.87808 -15.7397 0)
(9.38713 -16.0467 5.46432e-20)
(9.93552 -16.2868 6.41057e-20)
(10.5048 -16.4439 -1.35685e-19)
(11.0744 -16.5117 -2.97364e-19)
(11.6267 -16.4922 6.42605e-20)
(12.1497 -16.3928 5.58262e-19)
(12.6352 -16.226 -1.58448e-19)
(13.0788 -16.0062 0)
(13.4797 -15.7482 0)
(13.8401 -15.4649 3.53964e-19)
(14.1639 -15.1674 -2.62259e-19)
(14.4549 -14.8642 1.75997e-19)
(14.7186 -14.5628 -1.75524e-19)
(14.9588 -14.2671 -4.28997e-21)
(15.1794 -13.9804 8.45522e-19)
(15.3844 -13.7053 -4.16458e-19)
(15.5761 -13.4425 8.38667e-20)
(15.7572 -13.1926 -1.57707e-19)
(15.9298 -12.956 0)
(16.095 -12.7323 4.64553e-19)
(16.2552 -12.5217 -3.05306e-19)
(16.4107 -12.3228 0)
(16.5629 -12.1353 1.46151e-19)
(16.7119 -11.9579 -2.88633e-19)
(16.859 -11.7906 2.89073e-19)
(17.0041 -11.6323 -1.45526e-19)
(17.1478 -11.4822 0)
(17.2897 -11.3396 -4.20303e-19)
(17.4308 -11.2042 4.16911e-19)
(17.5704 -11.0747 -2.74415e-19)
(17.7091 -10.9509 4.13038e-19)
(17.8466 -10.8324 1.39851e-19)
(17.9828 -10.7185 -1.38841e-19)
(18.1173 -10.6087 2.77725e-19)
(18.2503 -10.5025 0)
(18.3818 -10.3998 0)
(18.5116 -10.2999 2.7627e-19)
(18.6395 -10.2023 2.75532e-19)
(18.7655 -10.1071 2.37503e-21)
(18.8895 -10.0141 2.70494e-19)
(19.0104 -9.92188 0)
(19.138 -9.8403 -2.6893e-19)
(9.68979 -14.9752 0)
(10.1344 -15.2343 -5.27024e-20)
(10.6088 -15.4438 1.78742e-19)
(11.1015 -15.5979 -1.74458e-19)
(11.6007 -15.6922 0)
(12.0952 -15.727 -2.16528e-19)
(12.575 -15.705 -1.28671e-20)
(13.0325 -15.632 2.18233e-19)
(13.4629 -15.5152 -3.15464e-19)
(13.8634 -15.3626 5.55517e-19)
(14.2331 -15.1818 -6.41733e-19)
(14.573 -14.9802 1.56942e-19)
(14.8848 -14.7643 -8.24025e-20)
(15.1702 -14.5401 -8.17147e-20)
(15.432 -14.312 -3.95677e-19)
(15.6727 -14.0833 3.07082e-19)
(15.8951 -13.8568 -1.5149e-19)
(16.1016 -13.6343 0)
(16.2941 -13.4172 -1.45211e-19)
(16.4746 -13.2069 4.4038e-19)
(16.645 -13.0039 -1.4695e-19)
(16.8066 -12.808 -2.84453e-19)
(16.9612 -12.6194 -1.4193e-19)
(17.1096 -12.4382 -2.43649e-21)
(17.253 -12.2647 -1.34702e-19)
(17.3919 -12.0983 1.36438e-19)
(17.5268 -11.9389 1.3572e-19)
(17.658 -11.7857 4.28873e-22)
(17.7861 -11.6387 1.79075e-21)
(17.9115 -11.4972 -2.6569e-19)
(18.0346 -11.3614 2.64574e-19)
(18.1553 -11.2307 -1.3205e-19)
(18.2739 -11.1047 1.31568e-19)
(18.3901 -10.9833 -2.52863e-21)
(18.5039 -10.8659 2.6345e-19)
(18.6155 -10.7521 -1.30143e-19)
(18.7252 -10.6417 -1.32728e-19)
(18.8331 -10.5343 0)
(18.9392 -10.4297 0)
(19.0436 -10.328 2.65339e-19)
(19.146 -10.2287 -3.92257e-21)
(19.2462 -10.1308 2.60809e-19)
(19.35 -10.0413 -2.60742e-19)
(10.2879 -14.4006 0)
(10.6945 -14.6301 -2.0384e-19)
(11.1243 -14.8186 2.61051e-19)
(11.569 -14.9618 -2.37205e-19)
(12.0199 -15.0584 2.38609e-19)
(12.4687 -15.1089 -3.31179e-19)
(12.9088 -15.1146 2.64857e-19)
(13.3342 -15.0796 0)
(13.7401 -15.0093 -1.46857e-19)
(14.1236 -14.9087 1.47938e-19)
(14.4831 -14.7825 7.36506e-20)
(14.8184 -14.6361 -7.53579e-20)
(15.1298 -14.4745 2.96667e-19)
(15.4183 -14.3018 0)
(15.685 -14.1212 2.22145e-19)
(15.9316 -13.9358 -7.48335e-20)
(16.1603 -13.748 1.47915e-19)
(16.3733 -13.56 0)
(16.5719 -13.3739 3.9119e-21)
(16.7576 -13.1904 -4.21133e-19)
(16.9323 -13.0101 1.37718e-19)
(17.0974 -12.8337 1.38377e-19)
(17.2547 -12.6619 0)
(17.405 -12.4952 1.33722e-19)
(17.5487 -12.3341 -1.30344e-19)
(17.6862 -12.1784 1.30385e-19)
(17.818 -12.0281 -1.28335e-19)
(17.9446 -11.8827 -1.29004e-19)
(18.0669 -11.7415 1.2924e-19)
(18.1856 -11.6049 -1.26146e-19)
(18.3011 -11.473 -1.431e-21)
(18.4133 -11.3458 0)
(18.5222 -11.2228 1.26908e-19)
(18.6276 -11.1038 -2.55724e-19)
(18.7296 -10.9883 1.26791e-19)
(18.8292 -10.8756 3.81562e-19)
(18.9268 -10.7662 -2.55661e-19)
(19.0225 -10.6597 2.55476e-19)
(19.1164 -10.5561 -5.11253e-19)
(19.2081 -10.4554 5.11454e-19)
(19.2976 -10.3571 -5.12056e-19)
(19.3852 -10.2601 1.26331e-19)
(19.4737 -10.1683 0)
(10.7494 -13.9468 8.32404e-20)
(11.1294 -14.1577 9.37628e-20)
(11.5297 -14.3315 1.05272e-19)
(11.9416 -14.4669 -1.103e-19)
(12.359 -14.5622 1.17371e-19)
(12.774 -14.6178 -1.23623e-19)
(13.1838 -14.6342 -5.39847e-21)
(13.5837 -14.6167 2.6096e-19)
(13.9678 -14.5699 -2.73094e-19)
(14.3326 -14.4971 2.07341e-19)
(14.677 -14.401 -7.1311e-20)
(15.0018 -14.2854 0)
(15.3055 -14.1562 -1.43704e-19)
(15.5878 -14.0159 0)
(15.8498 -13.8665 -1.42787e-19)
(16.0937 -13.7102 -1.38303e-19)
(16.3224 -13.5491 -1.39554e-19)
(16.5366 -13.3871 1.3644e-19)
(16.7361 -13.2254 3.07028e-21)
(16.9228 -13.0638 2.68572e-19)
(17.0994 -12.9034 1.31279e-19)
(17.2669 -12.7449 1.29788e-19)
(17.4271 -12.5893 0)
(17.5789 -12.4386 1.28687e-19)
(17.7227 -12.2922 -1.26688e-19)
(17.8593 -12.1497 0)
(17.9887 -12.0113 1.26183e-19)
(18.1119 -11.876 1.31388e-21)
(18.2311 -11.7434 1.239e-19)
(18.3464 -11.6148 1.23326e-19)
(18.458 -11.4907 -1.23704e-19)
(18.5651 -11.3708 2.45198e-19)
(18.668 -11.2547 -1.2244e-19)
(18.7661 -11.1423 -7.45879e-22)
(18.8605 -11.0321 -2.44979e-19)
(18.9533 -10.9238 -1.71179e-21)
(19.0442 -10.8191 2.46618e-19)
(19.133 -10.7173 -2.47114e-19)
(19.2196 -10.6184 1.23594e-19)
(19.3031 -10.5229 0)
(19.3835 -10.429 -2.48297e-19)
(19.4626 -10.3355 1.22665e-19)
(19.5408 -10.2454 0)
(11.117 -13.5775 1.68935e-19)
(11.4782 -13.7746 -2.68472e-19)
(11.8586 -13.9373 0)
(12.2455 -14.0673 1.9559e-21)
(12.6378 -14.1613 1.17303e-19)
(13.0245 -14.2178 -3.46714e-19)
(13.4125 -14.2376 0)
(13.7937 -14.2307 -2.54744e-19)
(14.1585 -14.2002 3.84505e-19)
(14.5043 -14.1464 0)
(14.8329 -14.0677 1.31779e-19)
(15.1468 -13.9698 1.32606e-19)
(15.439 -13.864 1.33368e-19)
(15.7103 -13.7449 0)
(15.9638 -13.6154 2.68174e-19)
(16.202 -13.4769 1.36766e-19)
(16.4302 -13.3322 -2.62789e-19)
(16.6423 -13.1919 0)
(16.8394 -13.0496 1.31503e-19)
(17.0265 -12.9043 -1.30164e-19)
(17.205 -12.7587 -6.47314e-20)
(17.3747 -12.614 -1.90328e-19)
(17.5374 -12.4727 6.27321e-20)
(17.6884 -12.3383 -6.16849e-20)
(17.8311 -12.2049 6.15882e-20)
(17.9654 -12.0748 6.05937e-20)
(18.0915 -11.9474 0)
(18.2124 -11.82 1.21254e-19)
(18.3304 -11.6949 -2.39715e-19)
(18.4437 -11.5755 -1.19566e-19)
(18.553 -11.4597 -1.19682e-19)
(18.6564 -11.3481 0)
(18.7546 -11.24 -1.1848e-19)
(18.8461 -11.1352 -1.18744e-19)
(18.9356 -11.0301 5.94123e-22)
(19.0258 -10.9266 -1.20118e-19)
(19.113 -10.8289 -1.34885e-21)
(19.1974 -10.7334 1.21552e-19)
(19.2794 -10.641 -1.35758e-21)
(19.3563 -10.5529 0)
(19.4293 -10.4645 3.65174e-19)
(19.503 -10.3753 -3.65425e-19)
(19.5749 -10.2873 2.33179e-19)
(11.4066 -13.2774 -2.42247e-19)
(11.7553 -13.4674 8.88294e-20)
(12.1226 -13.6212 0)
(12.4833 -13.7471 -1.04053e-19)
(12.8588 -13.8467 0)
(13.2186 -13.8932 6.96153e-22)
(13.6035 -13.9125 1.14781e-19)
(13.9773 -13.9102 0)
(14.3274 -13.8869 1.15953e-21)
(14.66 -13.841 -1.21685e-19)
(14.9741 -13.7675 -2.58509e-19)
(15.2788 -13.6801 -2.72776e-21)
(15.5562 -13.5983 -2.67111e-19)
(15.818 -13.4839 0)
(16.0636 -13.3668 -1.31218e-19)
(16.2975 -13.2359 -1.29555e-19)
(16.5273 -13.106 3.18447e-19)
(16.7353 -12.9913 -6.38925e-20)
(16.9347 -12.8527 -6.41761e-20)
(17.1241 -12.717 -6.083e-20)
(17.3028 -12.5825 0)
(17.4692 -12.455 6.06518e-20)
(17.6344 -12.3274 1.20028e-19)
(17.7806 -12.2077 -6.01768e-20)
(17.9214 -12.0823 -6.04819e-20)
(18.0493 -11.9653 -5.96019e-20)
(18.1713 -11.8451 1.20016e-19)
(18.2872 -11.7274 -1.80841e-19)
(18.4057 -11.6108 1.76626e-19)
(18.5171 -11.4999 0)
(18.6243 -11.3916 1.20454e-19)
(18.7199 -11.2926 0)
(18.8128 -11.1929 1.19786e-19)
(18.897 -11.0953 1.81933e-19)
(18.984 -10.9942 6.15653e-20)
(19.0729 -10.8988 1.20769e-19)
(19.1555 -10.8127 -1.19947e-19)
(19.2366 -10.7235 2.62968e-22)
(19.3146 -10.6383 -2.37883e-19)
(19.3847 -10.559 0)
(19.4483 -10.477 -1.26391e-19)
(19.5145 -10.3932 0)
(19.5835 -10.3125 -2.32935e-19)
(24.4356 5.32858 3.18922e-19)
(24.4883 5.3528 3.19796e-19)
(24.5389 5.38053 1.62828e-19)
(24.5886 5.40732 1.65104e-19)
(24.6372 5.4336 8.3732e-19)
(24.6846 5.45941 -1.18504e-18)
(24.731 5.48471 5.12789e-19)
(24.7763 5.50947 0)
(24.8204 5.53369 -1.75501e-19)
(24.8631 5.55735 1.78085e-19)
(24.9045 5.58041 0)
(24.9444 5.60285 1.84141e-19)
(24.9825 5.62463 8.47494e-19)
(25.0188 5.64571 -6.7158e-19)
(25.0528 5.66603 -9.82524e-20)
(25.0844 5.68551 0)
(25.1131 5.70405 -1.03799e-19)
(25.1385 5.72155 0)
(25.1601 5.73786 1.10712e-19)
(25.1773 5.75281 -1.14764e-19)
(25.1892 5.7662 -9.56144e-19)
(25.1951 5.77777 9.93748e-19)
(25.1937 5.78723 9.7554e-19)
(25.1837 5.7942 -1.15546e-18)
(25.1636 5.79823 0)
(25.1313 5.7988 -1.12992e-18)
(25.0844 5.79526 1.34977e-18)
(25.0201 5.78686 1.3469e-18)
(24.935 5.7728 -1.51495e-18)
(24.8258 5.75225 -9.50095e-20)
(24.6886 5.72435 -1.71496e-18)
(24.5193 5.68818 1.71898e-18)
(24.3136 5.64267 1.84603e-18)
(24.0658 5.58642 -1.92328e-18)
(23.7688 5.51768 -1.35625e-19)
(23.4132 5.43403 -7.43127e-20)
(22.986 5.33211 0)
(22.4679 5.20682 -9.24026e-20)
(21.8275 5.05013 3.43162e-18)
(21.0095 4.84679 -3.96308e-18)
(19.8958 4.56631 -7.62353e-20)
(18.1641 4.10397 -3.12752e-18)
(14.2024 3.15537 5.15237e-18)
(24.4597 5.27904 -6.59946e-19)
(24.5081 5.30132 4.97038e-19)
(24.5548 5.32594 6.462e-22)
(24.6007 5.34987 -1.02258e-18)
(24.6457 5.37336 6.87577e-19)
(24.6898 5.39647 -1.05818e-22)
(24.733 5.41917 -1.75714e-19)
(24.7754 5.44143 0)
(24.8169 5.46325 -1.79701e-19)
(24.8575 5.48461 -8.21372e-19)
(24.8972 5.5055 7.38399e-19)
(24.9358 5.5259 0)
(24.9732 5.54579 -9.56973e-20)
(25.0094 5.56515 9.77093e-20)
(25.0442 5.58394 9.02321e-19)
(25.0773 5.60211 -1.64315e-18)
(25.1085 5.6196 7.38075e-19)
(25.1375 5.63634 0)
(25.164 5.65224 0)
(25.1875 5.66719 1.16477e-19)
(25.2074 5.68104 1.09187e-18)
(25.223 5.69362 -1.0714e-18)
(25.2336 5.70469 6.59508e-20)
(25.238 5.71398 1.10678e-18)
(25.235 5.72112 -1.15914e-18)
(25.2229 5.72569 -7.63271e-20)
(25.1997 5.72712 1.29358e-18)
(25.163 5.72473 -8.14215e-20)
(25.1096 5.71768 -2.90534e-18)
(25.0359 5.70499 1.54295e-18)
(24.9375 5.68558 -1.54637e-18)
(24.8097 5.65824 3.40695e-18)
(24.6471 5.62163 -3.76639e-18)
(24.4433 5.57412 1.9597e-18)
(24.1904 5.51374 6.8115e-20)
(23.8779 5.43787 -2.38771e-18)
(23.4919 5.34304 2.6175e-18)
(23.0118 5.22417 1.54902e-18)
(22.4052 5.07344 -3.39189e-18)
(21.6153 4.87595 1.89461e-18)
(20.5189 4.60323 2.25686e-18)
(18.7825 4.14049 -2.82375e-18)
(15.1346 3.22792 -4.31012e-18)
(24.4815 5.23415 3.37587e-19)
(24.526 5.25465 -5.09737e-19)
(24.5695 5.27678 5.17868e-19)
(24.6123 5.29831 -5.21821e-19)
(24.6543 5.31945 -1.76003e-19)
(24.6957 5.34025 -7.3836e-24)
(24.7364 5.36072 -7.17953e-19)
(24.7765 5.38084 8.80661e-20)
(24.8159 5.4006 1.0055e-18)
(24.8546 5.41999 -9.27123e-20)
(24.8927 5.43898 -9.39637e-20)
(24.93 5.45758 0)
(24.9664 5.47575 1.23581e-22)
(25.002 5.49349 -9.93919e-20)
(25.0366 5.51077 0)
(25.0699 5.52754 0)
(25.102 5.54377 9.65611e-19)
(25.1324 5.55938 -8.82015e-19)
(25.161 5.57431 0)
(25.1874 5.58847 -1.18338e-19)
(25.2112 5.60175 -2.45558e-19)
(25.2318 5.61401 6.40045e-20)
(25.2487 5.62509 0)
(25.261 5.63477 0)
(25.2676 5.64277 -1.17554e-18)
(25.2673 5.64876 1.31104e-18)
(25.2583 5.65232 -1.22483e-18)
(25.2387 5.65287 8.22277e-20)
(25.2055 5.64972 1.46291e-18)
(25.1554 5.64199 9.74907e-20)
(25.0842 5.62859 1.6626e-18)
(24.9866 5.60825 -1.54794e-18)
(24.8568 5.57953 0)
(24.6877 5.54073 -1.2696e-19)
(24.4706 5.48977 1.36848e-19)
(24.1944 5.42401 -1.19029e-18)
(23.8443 5.33997 1.13454e-18)
(23.3992 5.23261 0)
(22.8261 5.0942 -9.95747e-20)
(22.067 4.90937 1.81895e-18)
(20.9945 4.64918 3.42479e-21)
(19.2617 4.20519 -2.90311e-18)
(15.7807 3.31474 2.184e-19)
(24.5014 5.19318 0)
(24.5425 5.21194 0)
(24.583 5.23194 0)
(24.6231 5.25143 0)
(24.6627 5.27059 -4.63897e-23)
(24.7018 5.2895 9.1121e-20)
(24.7403 5.30813 -1.82032e-19)
(24.7784 5.32647 -2.6352e-23)
(24.8159 5.34454 -9.31463e-20)
(24.853 5.36231 7.55276e-19)
(24.8896 5.37977 -6.67921e-19)
(24.9256 5.39691 9.70702e-20)
(24.961 5.4137 -7.92227e-19)
(24.9958 5.43015 1.61466e-18)
(25.0299 5.44624 -8.24655e-19)
(25.0631 5.46195 7.4232e-19)
(25.0953 5.47723 -1.84965e-18)
(25.1263 5.49201 -2.61695e-21)
(25.1559 5.50622 9.25317e-19)
(25.1838 5.5198 -9.61186e-19)
(25.2098 5.53266 2.11774e-18)
(25.2333 5.54469 -1.16545e-18)
(25.2539 5.55574 1.35202e-19)
(25.2708 5.56562 0)
(25.2833 5.57411 1.18985e-18)
(25.2902 5.58093 -1.24771e-18)
(25.2902 5.58571 -8.24644e-20)
(25.2814 5.58801 -1.48192e-18)
(25.2615 5.58722 2.21359e-18)
(25.2275 5.58258 -8.81053e-19)
(25.1753 5.57309 1.04253e-19)
(25.1 5.55755 -1.11427e-19)
(24.9954 5.53449 -1.18738e-19)
(24.854 5.50215 -8.92276e-19)
(24.6667 5.45841 8.19232e-19)
(24.4217 5.40057 1.47561e-19)
(24.1037 5.32508 -1.12414e-18)
(23.691 5.22685 2.80978e-18)
(23.15 5.09816 -1.16444e-18)
(22.4221 4.92339 0)
(21.3764 4.67078 0)
(19.6563 4.24217 -9.01908e-19)
(16.2759 3.379 1.17675e-18)
(24.5189 5.15568 -1.76772e-19)
(24.557 5.17273 1.78225e-19)
(24.5946 5.19096 -4.50513e-19)
(24.6321 5.20868 7.26307e-19)
(24.6692 5.22614 -1.82325e-19)
(24.706 5.2434 7.27714e-24)
(24.7425 5.26044 3.72145e-19)
(24.7786 5.27726 -4.67993e-19)
(24.8144 5.29389 0)
(24.8498 5.3103 0)
(24.8849 5.32647 -9.70719e-20)
(24.9197 5.34237 -9.87029e-20)
(24.954 5.35799 -2.01509e-19)
(24.988 5.37332 5.1188e-19)
(25.0216 5.3884 0)
(25.0545 5.40321 6.45684e-19)
(25.0868 5.41775 -3.30782e-19)
(25.1182 5.43189 0)
(25.1485 5.44557 4.71137e-19)
(25.1777 5.45872 -4.86475e-19)
(25.2054 5.47131 0)
(25.2312 5.48323 2.12636e-22)
(25.2547 5.49438 -2.22631e-22)
(25.2753 5.50457 5.7489e-19)
(25.2923 5.5136 -1.48604e-19)
(25.3048 5.52123 -6.31422e-19)
(25.3116 5.52713 -6.66963e-19)
(25.3112 5.53091 7.90276e-19)
(25.3014 5.53206 7.45568e-19)
(25.2797 5.52989 -1.48093e-18)
(25.2422 5.5235 6.28445e-19)
(25.1845 5.51174 8.94999e-19)
(25.1002 5.49318 -7.13547e-19)
(24.9819 5.46605 1.02031e-18)
(24.82 5.42816 -9.53812e-19)
(24.6022 5.37673 -1.4693e-19)
(24.3127 5.30809 0)
(23.929 5.21703 1.38328e-18)
(23.4172 5.09572 -1.51578e-18)
(22.7176 4.92876 2.11135e-19)
(21.6975 4.68132 0)
(19.9931 4.26192 1.13097e-18)
(16.6803 3.42591 -2.52859e-18)
(24.5349 5.12185 2.70157e-19)
(24.57 5.13702 -6.36319e-19)
(24.6048 5.15369 2.74983e-19)
(24.6397 5.16988 0)
(24.6745 5.18583 -4.65956e-19)
(24.7092 5.20166 3.7405e-19)
(24.7437 5.21735 0)