/*--------------------------------*- C++ -*----------------------------------*\
| =========                 |                                                 |
| \\      /  F ield         | OpenFOAM: The Open Source CFD Toolbox           |
|  \\    /   O peration     | Version:  2.3.0                                 |
|   \\  /    A nd           | Web:      www.OpenFOAM.org                      |
|    \\/     M anipulation  |                                                 |
\*---------------------------------------------------------------------------*/
FoamFile
{
    version     2.0;
    format      ascii;
    class       surfaceScalarField;
    location    "1000";
    object      phi;
}
// * * * * * * * * * * * * * * * * * * * * * * * * * * * * * * * * * * * * * //

dimensions      [0 3 -1 0 0 0 0];

internalField   nonuniform List<scalar> 
13269
(
-0.0207419
-0.0223059
0.0254548
0.0177526
-0.0232377
-0.0184539
0.0209503
-0.0251782
-0.0152383
0.0171792
-0.026551
-0.0125563
0.0139294
-0.0273497
-0.0103079
0.0111068
-0.0276057
-0.00841589
0.00867226
-0.0273882
-0.00683019
0.00661256
-0.0267939
-0.00550201
0.00490852
-0.0259251
-0.00439835
0.00352906
-0.0248626
-0.00349402
0.00243267
-0.0237061
-0.00276074
0.00160345
-0.00216849
-0.0227023
0.00116559
-0.0179785
-0.0199867
0.0156582
-0.019697
-0.0167357
-0.0209021
-0.0140334
-0.0216717
-0.0117869
-0.0220591
-0.00992074
-0.0220972
-0.00837776
-0.0218261
-0.00710158
-0.0212777
-0.00605017
-0.0204855
-0.00519098
-0.0194894
-0.00448981
-0.0183283
-0.0039222
-0.0034659
-0.0170306
-0.0157976
-0.0180702
0.0138803
-0.0171367
-0.0153969
-0.0179896
-0.0131809
-0.0184364
-0.0113402
-0.0185448
-0.00981273
-0.0183804
-0.00854218
-0.0179932
-0.00748912
-0.0174264
-0.00661693
-0.0167212
-0.00589644
-0.0159087
-0.00530221
-0.0150175
-0.00481355
-0.00441532
-0.014068
-0.0139277
-0.0164495
0.0123066
-0.0150361
-0.0142887
-0.0157246
-0.0124926
-0.0160644
-0.0110005
-0.0161195
-0.00975787
-0.0159406
-0.00872112
-0.0155721
-0.00785786
-0.0150525
-0.00713655
-0.0144146
-0.00653453
-0.0136827
-0.00603414
-0.0128795
-0.0056169
-0.00527192
-0.0120228
-0.0123296
-0.0150552
0.010935
-0.0132742
-0.0133443
-0.0138493
-0.0119177
-0.0141204
-0.0107295
-0.0141452
-0.00973333
-0.0139688
-0.00889753
-0.0136324
-0.00819449
-0.0131649
-0.0076041
-0.0125931
-0.00710645
-0.0119422
-0.00668497
-0.0112284
-0.00633083
-0.006033
-0.0104673
-0.010966
-0.0138311
0.00974167
-0.0117949
-0.0125154
-0.0122937
-0.011419
-0.012528
-0.0104953
-0.0125426
-0.00971877
-0.012381
-0.00905926
-0.0120759
-0.00849967
-0.0116553
-0.0080248
-0.0111426
-0.00761915
-0.0105556
-0.00727205
-0.00991047
-0.00697601
-0.0067229
-0.00922057
-0.0097963
-0.0127411
0.00870613
-0.010527
-0.0117848
-0.0109698
-0.0109764
-0.0111751
-0.0102902
-0.0111906
-0.00970332
-0.0110434
-0.00920654
-0.0107695
-0.0087736
-0.0103912
-0.00840321
-0.00992851
-0.00808188
-0.00939798
-0.0078026
-0.00881431
-0.00755974
-0.00734946
-0.00818776
-0.00878157
-0.0117701
0.00781055
-0.00943664
-0.0111298
-0.00983475
-0.0105783
-0.0100189
-0.0101061
-0.010028
-0.00969429
-0.00989974
-0.00933487
-0.00965255
-0.00902086
-0.00931175
-0.00874406
-0.00889336
-0.00850033
-0.00841284
-0.00828316
-0.00788316
-0.00808946
-0.00791902
-0.00731362
-0.00789317
-0.0108955
0.00701846
-0.00848561
-0.0105373
-0.00884328
-0.0102207
-0.00901141
-0.00993801
-0.0090208
-0.00968492
-0.00890174
-0.009454
-0.00867973
-0.00924292
-0.00837432
-0.00904951
-0.00799719
-0.00887751
-0.00756183
-0.00871857
-0.00707865
-0.00857266
-0.00843641
-0.0065613
-0.00711382
-0.0101055
0.00632389
-0.00765069
-0.0100004
-0.00797532
-0.00989606
-0.00812875
-0.00978456
-0.00813727
-0.00967645
-0.00803095
-0.00956033
-0.00783059
-0.0094433
-0.00755048
-0.00932967
-0.00721013
-0.00921793
-0.00681508
-0.00911366
-0.00637708
-0.00901069
-0.00590711
-0.00890638
-0.0202109
-0.00197354
-0.00051879
-0.0181079
-0.00215883
5.61693e-05
-0.0161517
-0.0024533
0.000496403
-0.0142903
-0.00286265
0.00100116
-0.0125359
-0.00340195
0.00164727
-0.010928
-0.00410162
0.00249346
-0.00953046
-0.00499244
0.00359481
-0.00842001
-0.0061186
0.00500793
-0.00767549
-0.00753246
0.00678793
-0.00737253
-0.00930005
0.00899703
-0.00758566
-0.0115022
0.0117151
-0.0142443
0.0150458
-0.00838725
-0.0156599
-0.00334474
-0.01429
-0.0035284
-0.0129623
-0.00378143
-0.0117043
-0.00412052
-0.0105435
-0.00456306
-0.00950856
-0.00513647
-0.00863259
-0.00586855
-0.00795272
-0.00679847
-0.00751439
-0.00797079
-0.00737684
-0.00943767
-0.00761517
-0.0112639
-0.0135365
-0.00832308
-0.0130996
-0.00431319
-0.0121411
-0.00448677
-0.0112046
-0.00471795
-0.0103039
-0.00502108
-0.00945612
-0.00541086
-0.00868624
-0.00590623
-0.0080237
-0.00653107
-0.00750712
-0.00731499
-0.00718752
-0.00829037
-0.00712313
-0.00950205
-0.0073853
-0.0110018
-0.0128613
-0.00806048
-0.0111603
-0.00517585
-0.0103301
-0.00531683
-0.00954242
-0.00550572
-0.00880702
-0.00575638
-0.0081385
-0.00607939
-0.0075534
-0.00649124
-0.00707572
-0.00700872
-0.00673436
-0.00765632
-0.00656549
-0.00845921
-0.00661639
-0.00945118
-0.00694594
-0.0106723
-0.0121789
-0.00762836
-0.00970352
-0.00593968
-0.00897887
-0.00604146
-0.00829928
-0.00618534
-0.00767656
-0.00637905
-0.00712127
-0.00663468
-0.00664964
-0.00696282
-0.00628002
-0.00737833
-0.00603946
-0.00789685
-0.00595906
-0.00853959
-0.0060793
-0.00933095
-0.00644923
-0.0103023
-0.0114951
-0.00713304
-0.00852956
-0.00663074
-0.00788025
-0.00669075
-0.00727922
-0.0067864
-0.00673473
-0.00692353
-0.00625873
-0.00711069
-0.00586485
-0.00735669
-0.00557161
-0.00767156
-0.00540014
-0.00806832
-0.00537872
-0.00856101
-0.00554258
-0.00916709
-0.00593517
-0.00990977
-0.0108196
-0.00661059
-0.00756222
-0.00725632
-0.00697678
-0.0072762
-0.0064382
-0.00732501
-0.00595581
-0.00740591
-0.00553998
-0.00752654
-0.00520359
-0.00769307
-0.00496199
-0.00791317
-0.00483699
-0.00819332
-0.00485246
-0.00854555
-0.00504084
-0.00897873
-0.00543881
-0.0095118
-0.0101618
-0.00609671
-0.00674484
-0.00782514
-0.00621411
-0.00780694
-0.00572975
-0.0078094
-0.00529836
-0.00783731
-0.00493039
-0.00789453
-0.00463805
-0.00798541
-0.00443601
-0.00811523
-0.00434264
-0.00828668
-0.00438097
-0.00850723
-0.00457979
-0.00877992
-0.00497411
-0.00911751
-0.00953078
-0.00560515
-0.00604452
-0.00834191
-0.005563
-0.00828851
-0.00512421
-0.00824818
-0.00473683
-0.00822473
-0.0044091
-0.00822225
-0.0041523
-0.00824223
-0.00397877
-0.00828875
-0.00390923
-0.00835625
-0.00396012
-0.00845633
-0.00416206
-0.00857798
-0.00454236
-0.00873723
-0.00893244
-0.00514074
-0.00543732
-0.00881172
-0.00500092
-0.0087249
-0.00460332
-0.00864583
-0.00425295
-0.00857509
-0.00395809
-0.00851713
-0.00373239
-0.00846792
-0.00358205
-0.00843912
-0.00352975
-0.00840854
-0.00358735
-0.00839875
-0.00378581
-0.00837953
-0.00414895
-0.00837412
-0.00471091
-0.00837051
0.00396595
-0.00153066
0.00169418
-0.00412975
0.00385706
-0.000816199
0.000924902
0.00377595
-0.000224705
0.000305706
0.00368942
0.000237192
-0.000150852
0.00356157
0.000589657
-0.000461892
0.00335768
0.000859662
-0.000656002
0.00304608
0.00107692
-0.000765359
0.00259264
0.00127358
-0.000820369
0.00195527
0.00148595
-0.000848686
0.00107381
0.00175506
-0.000873846
-0.000150443
0.00213837
-0.000914323
0.00272036
-0.00190847
-0.000962544
0.0035921
-0.00132078
-0.00380216
0.00341989
-0.000644091
0.0032645
-6.94164e-05
0.00309205
0.000409519
0.00286962
0.000811996
0.00256536
0.00116378
0.00215068
0.00149152
0.00159816
0.00182593
0.000887341
0.00219671
1.25224e-06
0.00264095
-0.00104628
0.00318584
0.00384359
-0.00216967
0.00307981
-0.00106425
-0.00333649
0.00286086
-0.000425231
0.00265483
0.000136519
0.00243475
0.000629533
0.00217331
0.00107335
0.00184661
0.00149041
0.00143351
0.00190455
0.000917296
0.00234206
0.000286054
0.00282792
-0.000459874
0.00338676
-0.00130739
0.00403333
0.00476019
-0.00222416
0.00256746
-0.000790189
-0.00284157
0.00233446
-0.000192286
0.00212074
0.000350173
0.00190178
0.000848446
0.00165427
0.00132079
0.00135806
0.00178658
0.00099454
0.00226803
0.00055019
0.00278635
1.3869e-05
0.00336422
-0.000619268
0.00401981
-0.00135036
0.0047644
0.00559283
-0.00218314
0.00211223
-0.000523432
-0.00237902
0.00189085
2.90632e-05
0.0016937
0.000547275
0.00149781
0.0010443
0.00128201
0.00153654
0.00102714
0.00204142
0.000716315
0.00257881
0.000335564
0.00316706
-0.000126804
0.00382656
-0.000680823
0.00457376
-0.00133621
0.00541976
0.00635591
-0.0020994
0.00172302
-0.00027825
-0.00196823
0.00152635
0.000225712
0.0013559
0.000717702
0.00118906
0.00121111
0.00100637
0.00171921
0.000788561
0.0022592
0.000521808
0.00284553
0.000191549
0.00349729
-0.000214786
0.00423287
-0.000709426
0.00506835
-0.00130402
0.00601433
0.00705933
-0.00200751
0.00139456
-6.44784e-05
-0.00160835
0.00122769
0.00039256
0.00108529
0.000860091
0.000946919
0.00134946
0.000794025
0.00187208
0.000608956
0.00244424
0.000376955
0.00307751
8.59481e-05
0.00378827
-0.000276243
0.00459504
-0.000722944
0.00551502
-0.00126526
0.00655663
0.00770583
-0.00191182
0.00112018
0.000114143
-0.00129883
0.000982674
0.000530063
0.000866701
0.000976049
0.000753109
0.00146304
0.000626982
0.00199819
0.000467836
0.00260337
0.000262732
0.0032826
3.12143e-06
0.00404786
-0.00032114
0.00491929
-0.000726569
0.00592043
-0.00122215
0.0070522
0.00830347
-0.00181981
0.000893342
0.000263795
-0.00104302
0.000780973
0.000642409
0.000687745
0.00106926
0.000594939
0.00155583
0.00049338
0.00209973
0.000356813
0.00273993
0.000173564
0.00346584
-6.02119e-05
0.00428163
-0.000351551
0.00521063
-0.000718085
0.00628696
-0.00117176
0.00750588
0.00885365
-0.00172195
0.000707719
0.00036687
-0.000810867
0.000615908
0.00073418
0.000540265
0.00114486
0.000467447
0.00162862
0.000392535
0.00217464
0.000273026
0.00285943
0.000100032
0.00363884
-0.000109264
0.00449092
-0.000365898
0.00546725
-0.000701687
0.00662274
-0.00111992
0.0079241
-0.00162525
0.00935898
-0.00269416
0.00398888
-0.00320341
-0.00384141
0.00557804
-0.00443095
-0.00505062
0.00685151
-0.00564242
-0.00610656
0.00802963
-0.00697383
-0.00695183
0.00934716
-0.00850196
-0.00753078
0.0108537
-0.0102749
-0.00779302
0.0126072
-0.0123451
-0.00769553
0.0146762
-0.0147738
-0.00716889
0.0171233
-0.0176502
-0.00613956
0.0200293
-0.0210587
-0.00451613
0.0234811
-0.0251046
0.0275898
-0.029906
-0.00220012
-0.00309678
0.00491597
-0.00406989
0.00655102
-0.00514798
0.0079296
-0.00609318
0.00897467
-0.00682529
0.0100792
-0.00730796
0.0113362
-0.00750807
0.0128072
-0.00737588
0.0145439
-0.00685616
0.0166035
-0.00587815
0.0190513
-0.00436073
0.0219636
0.0254276
-0.00219859
-0.00315627
0.00584803
-0.00403815
0.00743267
-0.0049709
0.00886228
-0.00582526
0.00982883
-0.00648209
0.010736
-0.00691722
0.0117712
-0.00709029
0.0129802
-0.00696125
0.0144148
-0.00647261
0.0161148
-0.00556864
0.0181472
-0.00416519
0.0205602
0.0234367
-0.00217442
-0.003069
0.00673386
-0.00391093
0.00827441
-0.00474017
0.00969147
-0.00550497
0.0105934
-0.00609746
0.0113284
-0.0064866
0.0121602
-0.00664088
0.0131344
-0.0065178
0.0142916
-0.00607059
0.0156675
-0.00523751
0.0173141
-0.00394927
0.0192719
0.0216119
-0.00212452
-0.00293036
0.00756479
-0.00372863
0.00907253
-0.004478
0.0104408
-0.0051671
0.0112824
-0.00570249
0.0118638
-0.00605391
0.0125116
-0.00619172
0.0132722
-0.00607703
0.0141769
-0.00566564
0.0152561
-0.00490196
0.0165504
-0.00372568
0.0180957
0.0199404
-0.00205424
-0.00277551
0.00833276
-0.00352064
0.00981756
-0.00420965
0.0111298
-0.00482792
0.0119006
-0.00531443
0.0123502
-0.005631
0.012828
-0.00575404
0.0133952
-0.00564608
0.0140689
-0.00526941
0.0148794
-0.00457047
0.0158514
-0.0034916
0.0170168
0.018413
-0.00196406
-0.00262101
0.00904193
-0.00331477
0.0105112
-0.00394337
0.0117583
-0.00449915
0.0124563
-0.00493582
0.0127869
-0.00522142
0.0131136
-0.00532939
0.0135031
-0.0052315
0.013971
-0.00488613
0.014534
-0.00424907
0.0152144
-0.00326395
0.0160317
0.0170169
-0.00186787
-0.00247276
0.00969486
-0.00310283
0.0111413
-0.00367709
0.0123326
-0.00417658
0.0129557
-0.00457019
0.0131805
-0.00482925
0.0133726
-0.00492855
0.0136024
-0.00483589
0.0138783
-0.00452048
0.0142186
-0.00393668
0.0146306
-0.00303767
0.0151327
0.0157446
-0.0017654
-0.0023246
0.0102975
-0.00290365
0.0117203
-0.00342624
0.0128552
-0.00387408
0.0134036
-0.00422784
0.0135342
-0.00446012
0.0136049
-0.00454539
0.0136876
-0.0044615
0.0137944
-0.00417171
0.0139287
-0.00364189
0.0141008
-0.00282482
0.0143157
0.0145835
-0.00166376
-0.00216977
0.0108421
-0.00267345
0.012224
-0.00314456
0.0133263
-0.00356358
0.0138226
-0.00389115
0.0138617
-0.00410955
0.0138233
-0.00418787
0.0137659
-0.00410727
0.0137137
-0.00384651
0.0136679
-0.00336203
0.0136163
-0.00261792
0.0135716
-0.00156305
0.0135287
0.00272882
-0.00156392
0.0052917
-0.000960129
0.00795912
-0.000234736
0.0106898
0.000798354
0.0133338
0.00226462
0.0156736
0.00427303
0.0175106
0.0068354
0.0186908
0.00992666
0.0191462
0.0134745
0.0189333
0.0173927
0.0182377
0.0216459
0.0263728
0.017319
-7.92777e-05
-0.00148631
0.000586943
-0.00162624
0.00183738
-0.00148669
0.00363969
-0.00100362
0.00595747
-5.41502e-05
0.00869999
0.00153082
0.0115833
0.00395199
0.0142167
0.00729328
0.0162113
0.0114801
0.0173151
0.0162892
0.0175204
0.0214402
0.0268302
0.0170625
-9.37859e-05
-0.00139328
-0.000127986
-0.00159192
2.95243e-05
-0.00164489
0.000560269
-0.00153393
0.00165844
-0.00115269
0.00349258
-0.000302794
0.00607236
0.00137221
0.00913873
0.0042271
0.0121832
0.00843597
0.0146141
0.0138582
0.0160174
0.0200369
0.0264784
0.016369
-7.89563e-06
-0.00138515
3.84506e-05
-0.00163748
0.000156481
-0.00176317
0.000400707
-0.00177753
0.000862637
-0.00161505
0.00170177
-0.00114125
0.00316655
-9.23324e-05
0.00543982
0.0019543
0.00838067
0.00549562
0.0114399
0.0107994
0.0138721
0.0176047
0.0251488
0.0152022
-1.30882e-05
-0.00137301
-6.41045e-06
-0.00164366
4.02477e-05
-0.00181063
0.000159734
-0.00189642
0.000400366
-0.00185583
0.000855611
-0.00159578
0.00169314
-0.000929528
0.00316419
0.000483969
0.00545933
0.0032012
0.00842575
0.00783351
0.0114228
0.0146083
0.0229219
0.0136495
-1.43537e-05
-0.0013581
-8.31708e-06
-0.00164836
2.60181e-05
-0.00184487
0.00010832
-0.00197789
0.000265819
-0.00201341
0.00055255
-0.00188174
0.00106849
-0.00144505
0.00198919
-0.000435924
0.00357882
0.00161236
0.00601072
0.00540249
0.00901398
0.0116048
0.0201447
0.0117916
-1.26702e-05
-0.00134571
-1.32467e-05
-0.00164686
4.14116e-06
-0.0018628
5.52245e-05
-0.00202821
0.000158875
-0.0021171
0.000350989
-0.00207317
0.000696124
-0.00178979
0.00131653
-0.00105564
0.00241632
0.000513476
0.00425561
0.00356351
0.00690066
0.00896004
0.0172254
0.00982052
-1.30367e-05
-0.0013318
-1.65518e-05
-0.00164183
-6.33265e-06
-0.00187279
2.84931e-05
-0.0020621
0.000101859
-0.00219041
0.0002393
-0.0022099
0.000484121
-0.00203422
0.000922992
-0.00149379
0.00170518
-0.000267952
0.00306681
0.00220238
0.00523876
0.00678876
0.0144209
0.00804346
-1.32891e-05
-0.00131851
-1.90734e-05
-0.00163492
-1.55532e-05
-0.00187669
7.54529e-06
-0.00208434
5.95126e-05
-0.00224234
0.000160396
-0.00231012
0.00034162
-0.00221509
0.000665995
-0.00181751
0.00124643
-0.000847814
0.00227384
0.0011757
0.00400923
0.00505322
0.0118845
0.00654605
-1.23667e-05
-0.00130541
-1.94913e-05
-0.00162621
-1.95979e-05
-0.00187651
-4.64267e-06
-0.00209825
3.26925e-05
-0.00227956
0.000108689
-0.00238547
0.000246637
-0.00235264
0.000493024
-0.00206342
0.000935241
-0.00128941
0.00172444
0.000386816
0.00309584
0.00368238
0.00970174
0.00527803
-1.17255e-05
-0.00129368
-1.94017e-05
-0.00161713
-2.2034e-05
-0.00187425
-1.21764e-05
-0.00210706
1.5899e-05
-0.00230766
7.52185e-05
-0.00244408
0.000183148
-0.00246019
0.000375148
-0.0022549
0.000718556
-0.00163208
0.00133321
-0.000226886
0.0024158
0.00259965
0.00791052
0.00420766
-1.03725e-05
-0.00128286
-1.74791e-05
-0.00160826
-2.14069e-05
-0.00187057
-1.4055e-05
-0.00211315
8.2276e-06
-0.00233002
5.74476e-05
-0.00249252
0.000147331
-0.00254972
0.000305817
-0.00241276
0.000586297
-0.00191161
0.00108502
-0.000725115
0.00196949
0.00171574
0.00634997
0.00353041
-9.58144e-06
-0.00127325
-1.71447e-05
-0.00159908
-2.25041e-05
-0.0018657
-1.80642e-05
-0.00211639
-6.10518e-07
-0.00234763
4.09003e-05
-0.00253326
0.000117349
-0.00262588
0.000250985
-0.00254584
0.00048288
-0.00214282
0.000890346
-0.00113194
0.00160605
0.00100021
0.00518997
0.00276639
-9.69772e-06
-0.00126329
-1.84407e-05
-0.00158863
-2.63032e-05
-0.00185816
-2.57352e-05
-0.00211577
-1.36423e-05
-0.00235983
2.04261e-05
-0.00256661
8.69864e-05
-0.00269212
0.000205097
-0.00266349
0.000410006
-0.00234707
0.000765611
-0.00148725
0.00138619
0.000379968
0.00403881
0.00253773
-1.21586e-05
-0.00125096
-2.45002e-05
-0.00157459
-3.77329e-05
-0.00184537
-4.40881e-05
-0.00210818
-4.15141e-05
-0.00236257
-1.9873e-05
-0.00258744
3.02989e-05
-0.00274195
0.000125568
-0.0027582
0.00029429
-0.00251526
0.000590118
-0.00178265
0.00110367
-0.000133683
0.00324473
0.00189779
-1.60433e-05
-0.00123479
-3.39226e-05
-0.00155503
-5.40232e-05
-0.00182571
-6.96958e-05
-0.0020913
-7.90814e-05
-0.00235332
-7.29695e-05
-0.00259276
-4.24903e-05
-0.00277209
2.79825e-05
-0.00282814
0.000164337
-0.00265098
0.000413259
-0.00203137
0.000858499
-0.000578931
0.00236237
0.00174087
-2.16298e-05
-0.00121276
-4.62112e-05
-0.00152868
-7.49197e-05
-0.00179736
-0.000101572
-0.00206343
-0.000125531
-0.0023295
-0.000138906
-0.00257857
-0.000135054
-0.00277561
-0.000101566
-0.00286107
-1.8938e-05
-0.00273308
0.000149449
-0.00219939
0.000464867
-0.000894464
0.00185971
0.000967568
-2.59303e-05
-0.00118666
-5.58774e-05
-0.00149724
-9.09625e-05
-0.00176263
-0.000125946
-0.00202731
-0.000160788
-0.0022947
-0.000189053
-0.00254953
-0.000204995
-0.00275936
-0.000197836
-0.00286773
-0.000150641
-0.00277972
-3.12649e-05
-0.00231851
0.000217549
-0.00114325
0.00141111
0.000666363
-2.85439e-05
-0.00115753
-6.19349e-05
-0.00146215
-0.000101251
-0.00172342
-0.000141981
-0.00198544
-0.000184385
-0.00225238
-0.000222574
-0.0025106
-0.000251776
-0.00272986
-0.000261416
-0.00285757
-0.000234761
-0.00280582
-0.000139033
-0.00241393
9.30839e-05
-0.0013752
0.000844015
0.000659644
-3.0294e-05
-0.00112687
-6.5903e-05
-0.00142515
-0.000107855
-0.0016817
-0.000152086
-0.00194015
-0.000199187
-0.00220528
-0.000244437
-0.0024646
-0.000283923
-0.00269003
-0.000308971
-0.00283196
-0.000305984
-0.00280813
-0.00024726
-0.00247213
-7.54881e-05
-0.00154715
0.000477389
0.000291375
-3.03549e-05
-0.0010958
-6.61469e-05
-0.00138761
-0.000108655
-0.00163923
-0.000153843
-0.00189375
-0.000202552
-0.00215659
-0.000250037
-0.00241628
-0.000293076
-0.00264657
-0.0003235
-0.00280087
-0.000329167
-0.0028017
-0.000285828
-0.00251503
-0.000142893
-0.00168964
0.000127255
0.000206735
-3.01721e-05
-0.00106535
-6.59153e-05
-0.00135048
-0.000108354
-0.00159701
-0.000153629
-0.00184738
-0.000202588
-0.00210756
-0.000250868
-0.00236712
-0.000295446
-0.00260153
-0.000328729
-0.00276686
-0.000339707
-0.0027899
-0.00030716
-0.0025469
-0.000188207
-0.00180864
-0.000152039
9.11575e-05
-2.93408e-05
-0.00103509
-6.44325e-05
-0.00131367
-0.000106341
-0.00155503
-0.000151398
-0.00180111
-0.000200424
-0.00205845
-0.00024909
-0.00231758
-0.000294477
-0.00255564
-0.000329482
-0.00273112
-0.000343614
-0.00277496
-0.000318407
-0.00257167
-0.000216979
-0.00190965
-0.000401931
3.26573e-05
-2.89236e-05
-0.00100571
-6.36779e-05
-0.00127758
-0.000105324
-0.00151344
-0.00015025
-0.00175515
-0.000199282
-0.00200925
-0.000248498
-0.00226751
-0.000295143
-0.00250853
-0.000332333
-0.0026932
-0.000350526
-0.00275601
-0.000332666
-0.00258889
-0.000245564
-0.00199689
-0.000614475
-3.28522e-05
-2.80889e-05
-0.000976384
-6.25476e-05
-0.00124136
-0.000103849
-0.00147187
-0.000148971
-0.00170885
-0.000198495
-0.00195956
-0.000248723
-0.00221645
-0.000297073
-0.00245965
-0.000337211
-0.00265239
-0.000359953
-0.00273252
-0.000350307
-0.00259826
-0.000278988
-0.00206791
-0.000801268
-9.23143e-05
-2.82487e-05
-0.000947605
-6.25752e-05
-0.0012057
-0.00010387
-0.00143058
-0.000149015
-0.00166269
-0.00019883
-0.00190954
-0.000250021
-0.00216442
-0.000300241
-0.00240898
-0.000343425
-0.00260854
-0.000370984
-0.00270432
-0.00036861
-0.00260015
-0.000309303
-0.00212745
-0.000973167
-0.000136967
-2.76401e-05
-0.000918638
-6.17768e-05
-0.00116981
-0.000103185
-0.00138886
-0.000148585
-0.00161613
-0.000199246
-0.00185868
-0.000251673
-0.00211122
-0.000303916
-0.00235627
-0.000350649
-0.00256126
-0.000383776
-0.00267063
-0.000390398
-0.00259338
-0.000344985
-0.00217231
-0.0011169
-0.000202032
-2.7807e-05
-0.000890345
-6.21056e-05
-0.00113415
-0.000103569
-0.00134743
-0.000149456
-0.00156928
-0.000200245
-0.00180774
-0.000253501
-0.00205723
-0.000307643
-0.00230184
-0.000357392
-0.00251103
-0.000395564
-0.00263196
-0.000410154
-0.00257826
-0.000379396
-0.00220368
-0.00123914
-0.000256839
-2.73709e-05
-0.000861534
-6.17029e-05
-0.00109797
-0.000103502
-0.00130534
-0.000149632
-0.00152201
-0.000201394
-0.00175592
-0.000255855
-0.00200211
-0.000311513
-0.00224587
-0.000364046
-0.00245809
-0.000406324
-0.00258917
-0.000427742
-0.00255686
-0.000406677
-0.00222393
-0.00134897
-0.000298285
-2.83835e-05
-0.000832948
-6.31212e-05
-0.00106193
-0.000105588
-0.00126314
-0.000152262
-0.00147444
-0.000204656
-0.00170355
-0.000260048
-0.00194607
-0.000317678
-0.00218809
-0.000373023
-0.00240232
-0.000420982
-0.00254084
-0.000452013
-0.00252536
-0.000450631
-0.00222598
-0.00139703
-0.000402798
-2.81469e-05
-0.00080349
-6.34451e-05
-0.00102487
-0.000106412
-0.00121997
-0.000153837
-0.00142601
-0.000207165
-0.00165025
-0.000263621
-0.00188907
-0.000322254
-0.00212925
-0.000379095
-0.00234521
-0.000428439
-0.00249106
-0.000462233
-0.00249173
-0.000463489
-0.00222415
-0.00148227
-0.000378987
-2.96216e-05
-0.000773869
-6.58656e-05
-0.000987613
-0.000109727
-0.00117654
-0.000158202
-0.00137683
-0.000212621
-0.0015959
-0.000270621
-0.00183056
-0.000331206
-0.00206858
-0.000390556
-0.0022855
-0.000443413
-0.0024379
-0.000481094
-0.00245361
-0.000490943
-0.00221494
-0.00150274
-0.000469744
-2.96662e-05
-0.000742893
-6.68224e-05
-0.000948788
-0.000111741
-0.00113125
-0.000161812
-0.00132582
-0.000218138
-0.0015395
-0.000278358
-0.00176981
-0.000341576
-0.00200515
-0.000404279
-0.00222243
-0.00046118
-0.00238061
-0.000503929
-0.00241098
-0.000517964
-0.00220059
-0.00155363
-0.000467289
-3.12021e-05
-0.000711734
-6.97282e-05
-0.000909395
-0.000115894
-0.00108536
-0.000167359
-0.00127368
-0.000224911
-0.0014819
-0.00028711
-0.0017071
-0.000353335
-0.0019387
-0.000420435
-0.00215493
-0.000483994
-0.00231682
-0.000536611
-0.00235819
-0.000566559
-0.00217147
-0.00156814
-0.000551828
-3.12945e-05
-0.000679077
-7.0477e-05
-0.000868635
-0.000117476
-0.00103795
-0.000169987
-0.00122031
-0.000228971
-0.00142272
-0.000292902
-0.00164269
-0.000360914
-0.00187045
-0.000430424
-0.00208521
-0.000497026
-0.00225003
-0.000554126
-0.00230144
-0.000590734
-0.00213518
-0.00157568
-0.00058326
-3.26715e-05
-0.000646393
-7.28508e-05
-0.000827727
-0.000120689
-0.000990347
-0.000173993
-0.00116647
-0.000233788
-0.00136285
-0.000298847
-0.00157734
-0.000368398
-0.00180076
-0.000439601
-0.00201385
-0.000508538
-0.00218102
-0.000568057
-0.00224193
-0.00060726
-0.00209638
-0.00156563
-0.000617083
-3.25769e-05
-0.000612189
-7.32628e-05
-0.000785399
-0.00012149
-0.000941606
-0.000175627
-0.00111158
-0.000236528
-0.00130186
-0.000302739
-0.00151073
-0.000373755
-0.0017296
-0.000446831
-0.00194061
-0.000517223
-0.00211044
-0.000577195
-0.00218192
-0.000614156
-0.00205967
-0.00159348
-0.000585822
-3.41858e-05
-0.000578145
-7.53371e-05
-0.000743697
-0.00012425
-0.000893112
-0.00017845
-0.00105684
-0.000239628
-0.00124067
-0.000306592
-0.00144341
-0.000379092
-0.00165693
-0.000455132
-0.00186429
-0.00053106
-0.00203435
-0.000600315
-0.00211289
-0.00064978
-0.00200976
-0.00157716
-0.000665249
-3.36671e-05
-0.000543212
-7.44497e-05
-0.00070138
-0.00012251
-0.000844525
-0.000176477
-0.00100219
-0.000236982
-0.00118005
-0.000303463
-0.00137652
-0.000375953
-0.00158433
-0.000452534
-0.00178744
-0.000530297
-0.00195639
-0.000603013
-0.00204005
-0.000660881
-0.00195214
-0.00154326
-0.000693932
-3.38036e-05
-0.000509671
-7.42049e-05
-0.000660727
-0.000121306
-0.000797928
-0.000173366
-0.000949775
-0.000231703
-0.00112172
-0.000295939
-0.0013121
-0.000366156
-0.00151401
-0.000441017
-0.00171236
-0.000517776
-0.0018796
-0.000591311
-0.00196694
-0.000649951
-0.00189232
-0.00152181
-0.000673166
-3.2263e-05
-0.000475839
-7.07806e-05
-0.000620741
-0.000115446
-0.00075258
-0.000165321
-0.00089946
-0.000220873
-0.00106606
-0.000282012
-0.00125083
-0.000348793
-0.00144725
-0.000420148
-0.00164095
-0.000493735
-0.00180601
-0.00056396
-0.00189649
-0.000622095
-0.00183552
-0.00149668
-0.00064594
-3.17994e-05
-0.000444343
-6.8881e-05
-0.000583687
-0.000111141
-0.00071081
-0.000157278
-0.000853191
-0.000208333
-0.001015
-0.000264604
-0.0011946
-0.000326195
-0.0013856
-0.000392588
-0.00157455
-0.00046217
-0.00173649
-0.000530872
-0.0018284
-0.000589079
-0.00177667
-0.00145765
-0.000628479
-2.95591e-05
-0.00041343
-6.36207e-05
-0.000548428
-0.000101756
-0.000671961
-0.000143779
-0.000810908
-0.000189769
-0.000968881
-0.000240115
-0.00114422
-0.00029518
-0.00133055
-0.000354783
-0.00151493
-0.000417688
-0.00167366
-0.000479879
-0.0017659
-0.000535086
-0.00172277
-0.00142656
-0.00056526
-2.78131e-05
-0.000385993
-5.91176e-05
-0.000517409
-9.33434e-05
-0.000638158
-0.000129687
-0.00077455
-0.000168937
-0.000929529
-0.000211743
-0.00110152
-0.00025816
-0.00128401
-0.00030883
-0.00146429
-0.00036272
-0.00161971
-0.000417587
-0.00171146
-0.000465714
-0.00167408
-0.00140065
-0.000492264
-2.43808e-05
-0.000359993
-5.13933e-05
-0.000489294
-7.99898e-05
-0.000608657
-0.000110677
-0.00074368
-0.000142804
-0.000897154
-0.000177326
-0.00106698
-0.000214437
-0.00124687
-0.000254426
-0.00142419
-0.000297268
-0.00157687
-0.0003406
-0.00166749
-0.000381473
-0.00163406
-0.00136926
-0.000412427
-2.17576e-05
-0.000338576
-4.49523e-05
-0.000466577
-6.83353e-05
-0.000585578
-9.187e-05
-0.000720185
-0.000115758
-0.000873076
-0.000140808
-0.00104198
-0.00016691
-0.00122055
-0.000194579
-0.00139645
-0.000222836
-0.00154835
-0.000250455
-0.0016402
-0.000271143
-0.00161209
-0.00136864
-0.000272101
-1.77494e-05
-0.000319164
-3.57644e-05
-0.000447577
-5.29531e-05
-0.000567385
-7.00078e-05
-0.000702912
-8.64279e-05
-0.000856294
-0.000102897
-0.00102536
-0.000119345
-0.00120393
-0.000135645
-0.00137985
-0.000151198
-0.00153262
-0.000163249
-0.00162741
-0.000167374
-0.00160817
-0.00138526
-0.000150586
-1.47894e-05
-0.000304445
-2.83952e-05
-0.000434336
-3.9764e-05
-0.000556162
-4.98179e-05
-0.000692786
-5.83803e-05
-0.000847419
-6.63647e-05
-0.00101728
-7.36649e-05
-0.00119631
-8.04197e-05
-0.0013729
-8.6172e-05
-0.00152665
-8.94981e-05
-0.00162419
-8.70736e-05
-0.00161025
-0.00138976
-8.30144e-05
-1.01498e-05
-0.00029197
-1.78101e-05
-0.000425383
-2.29334e-05
-0.000549885
-2.60101e-05
-0.000689346
-2.73136e-05
-0.00084569
-2.72877e-05
-0.00101717
-2.59064e-05
-0.00119755
-2.32527e-05
-0.00137548
-1.87183e-05
-0.00153105
-1.12118e-05
-0.0016317
2.60276e-06
-0.00162424
-0.00142084
3.3374e-05
-6.53307e-06
-0.000285302
-9.06433e-06
-0.000423128
-7.99562e-06
-0.000551009
-4.21698e-06
-0.000693235
2.09682e-06
-0.00085185
1.04002e-05
-0.00102557
2.0976e-05
-0.00120803
3.36277e-05
-0.00138802
4.89518e-05
-0.00154632
6.85305e-05
-0.00165115
9.56001e-05
-0.00165149
-0.0014645
0.000139939
-1.39349e-06
-0.000281382
1.98408e-06
-0.00042567
9.50314e-06
-0.00055752
1.9375e-05
-0.000702945
3.24558e-05
-0.000864623
4.80419e-05
-0.00104102
6.67378e-05
-0.0012265
8.86639e-05
-0.00140981
0.000114747
-0.00157215
0.000146399
-0.00168273
0.000187189
-0.00169161
-0.00151789
0.000241147
1.86897e-06
-0.00028387
1.04573e-05
-0.000434756
2.31325e-05
-0.000570321
3.91073e-05
-0.000718887
5.85002e-05
-0.000883599
8.08314e-05
-0.0010632
0.000106812
-0.00125221
0.000137368
-0.00144
0.000173701
-0.00160817
0.000218256
-0.00172684
0.000275381
-0.00174817
-0.00159692
0.000356256
7.70259e-06
-0.000289727
2.0829e-05
-0.000447284
3.81944e-05
-0.000586612
5.7749e-05
-0.000738246
8.1236e-05
-0.000906739
0.000107973
-0.00108971
0.000138965
-0.00128291
0.00017542
-0.00147613
0.000218699
-0.00165116
0.000271465
-0.00177914
0.000338168
-0.00181373
-0.00168939
0.000431199
1.10363e-05
-0.000302127
2.73601e-05
-0.000464667
4.7094e-05
-0.000606894
7.01508e-05
-0.000761617
9.64812e-05
-0.000932971
0.000126843
-0.00112009
0.00016144
-0.00131751
0.000201608
-0.00151617
0.000248938
-0.0016985
0.000305453
-0.0018351
0.000371271
-0.00188001
-0.0017515
0.000433935
1.56534e-05
-0.00031693
3.39664e-05
-0.000483031
5.61857e-05
-0.000628531
8.07799e-05
-0.000786413
0.000108685
-0.000960864
0.000140118
-0.00115175
0.000177184
-0.0013547
0.000220542
-0.0015597
0.000272644
-0.0017508
0.00033665
-0.00189935
0.000417654
-0.00196145
-0.00186935
0.000534794
1.7105e-05
-0.000335816
3.63187e-05
-0.000503612
5.85315e-05
-0.000651409
8.31962e-05
-0.000811735
0.000111405
-0.000989275
0.000143304
-0.00118395
0.000180232
-0.00139189
0.000223399
-0.00160322
0.000275166
-0.00180273
0.000337961
-0.00196279
0.000416294
-0.00204013
-0.00196465
0.000511052
1.92027e-05
-0.000354385
3.84457e-05
-0.000523149
6.02659e-05
-0.000672884
8.37613e-05
-0.000835549
0.000110363
-0.001016
0.000140491
-0.0012144
0.000175284
-0.00142691
0.000216716
-0.00164493
0.000266257
-0.00185255
0.000325947
-0.00202288
0.000398969
-0.00211284
-0.00205267
0.000486759
1.80998e-05
-0.000374449
3.60588e-05
-0.000542486
5.58924e-05
-0.000693371
7.74973e-05
-0.000857824
0.000102
-0.00104075
0.000129766
-0.00124252
0.000162066
-0.00145958
0.000200594
-0.00168366
0.00024694
-0.00189919
0.000303942
-0.00207981
0.000374015
-0.00218317
-0.00213829
0.000459633
1.80997e-05
-0.000392473
3.39062e-05
-0.000558911
5.11338e-05
-0.000710495
6.89801e-05
-0.000876148
8.9721e-05
-0.00106182
0.000113324
-0.00126643
0.000141307
-0.0014878
0.000175574
-0.00171817
0.000217943
-0.00194167
0.000271622
-0.00213383
0.000340039
-0.00225145
-0.00222749
0.000428533
1.5361e-05
-0.000409582
2.76345e-05
-0.000572629
4.05951e-05
-0.000724161
5.46581e-05
-0.000890864
7.00541e-05
-0.0010775
8.85348e-05
-0.00128518
0.000110785