/*--------------------------------*- C++ -*----------------------------------*\
| =========                 |                                                 |
| \\      /  F ield         | OpenFOAM: The Open Source CFD Toolbox           |
|  \\    /   O peration     | Version:  2.3.0                                 |
|   \\  /    A nd           | Web:      www.OpenFOAM.org                      |
|    \\/     M anipulation  |                                                 |
\*---------------------------------------------------------------------------*/
FoamFile
{
    version     2.0;
    format      ascii;
    class       volScalarField;
    location    "4000";
    object      p;
}
// * * * * * * * * * * * * * * * * * * * * * * * * * * * * * * * * * * * * * //

dimensions      [0 2 -2 0 0 0 0];

internalField   nonuniform List<scalar> 
6890
(
1.46058e-05
-0.0848995
-0.150361
-0.160867
-0.100059
0.0399574
0.261127
0.564181
0.952834
1.42798
2.00359
2.5794
0.340466
0.317949
0.299586
0.299522
0.330241
0.407507
0.548554
0.768817
1.07937
1.48776
2.00472
2.6311
0.655525
0.711354
0.794018
0.910871
1.06401
1.25244
1.47323
1.72203
1.99331
2.28039
2.57559
2.86882
0.886933
0.96075
1.052
1.1636
1.29707
1.45287
1.6304
1.82786
2.04213
2.26872
2.50195
2.73552
1.0712
1.15597
1.25475
1.36926
1.49899
1.64307
1.80008
1.96813
2.14472
2.32678
2.51069
2.6927
1.20876
1.29386
1.38753
1.49283
1.6091
1.73591
1.87228
2.01706
2.16844
2.3242
2.48171
2.63813
1.31429
1.39694
1.48456
1.58134
1.68642
1.80018
1.92128
2.0493
2.18281
2.31997
2.4589
2.59725
1.39849
1.47512
1.55522
1.64269
1.73705
1.83969
1.94896
2.06457
2.18531
2.30911
2.43501
2.5606
1.46373
1.53623
1.61079
1.69071
1.7794
1.87395
1.97455
2.08061
2.19062
2.30355
2.42049
2.53735
1.52149
1.58077
1.65283
1.73686
1.81747
1.91512
1.99963
2.09789
2.19896
2.30321
2.41391
2.52513
4.57172
5.97283
6.20861
6.3136
6.4054
6.43906
6.39798
6.28784
6.11474
5.88614
5.61571
5.34603
3.34332
4.05791
4.61705
5.02661
5.30798
5.47343
5.53564
5.51282
5.42558
5.29322
5.13208
4.96856
3.15966
3.45143
3.72873
3.98083
4.20058
4.38338
4.52556
4.62454
4.67895
4.68919
4.65864
4.60249
2.96722
3.19729
3.42075
3.62972
3.81745
3.97888
4.11065
4.21089
4.27914
4.3162
4.32454
4.31258
2.87165
3.04866
3.22166
3.38629
3.53852
3.67506
3.79339
3.89169
3.9687
4.02376
4.05712
4.0732
2.79222
2.94418
3.09232
3.23351
3.36493
3.48421
3.58957
3.67975
3.75399
3.81185
3.85295
3.88127
2.73373
2.86784
2.99815
3.12217
3.23793
3.34365
3.43819
3.52061
3.59061
3.64804
3.69146
3.7215
2.6845
2.80574
2.92359
3.03556
3.14037
3.23626
3.32284
3.39895
3.4651
3.52167
3.56625
3.60267
2.65302
2.76634
2.87548
2.97766
3.07403
3.16238
3.24118
3.30987
3.37118
3.42376
3.45918
3.49378
2.63783
2.74934
2.85315
2.94746
3.03695
3.11922
3.1888
3.2471
3.30174
3.34798
3.36472
3.39322
0.10156
0.0987535
0.145892
0.253097
0.407045
0.572774
0.711223
0.788177
0.785805
0.707929
0.45901
0.638509
0.133739
0.0977089
0.0589601
0.0079283
-0.0632577
-0.151886
-0.242679
-0.31851
-0.374979
-0.364309
-0.464255
-0.351076
0.139038
0.0725364
-0.0132962
-0.116016
-0.226942
-0.332689
-0.420622
-0.480871
-0.532859
-0.52609
-0.585992
-0.542745
0.179896
0.134372
0.0869957
0.0417069
0.00101491
-0.0340003
-0.064971
-0.0860234
-0.119581
-0.124476
-0.168269
-0.155391
0.239083
0.218962
0.198877
0.181064
0.16435
0.148123
0.129624
0.116794
0.0930395
0.0852695
0.0562708
0.0645235
0.291738
0.278534
0.262045
0.244732
0.225728
0.206051
0.183335
0.165035
0.139227
0.122193
0.0917552
0.0915399
0.333229
0.324678
0.311861
0.297867
0.280698
0.259313
0.231641
0.201813
0.164729
0.129685
0.0813035
0.0673081
0.373292
0.368994
0.364649
0.361884
0.354225
0.340853
0.314588
0.280891
0.239601
0.208813
0.140778
0.0414328
0.406346
0.410721
0.414343
0.419314
0.422543
0.399088
0.374595
0.29278
0.220194
0.16583
0.0719494
-0.081852
0.422055
0.430738
0.444582
0.484526
0.520041
0.545995
0.565507
0.498966
0.412333
0.616584
0.738195
-0.104974
0.660915
0.506296
0.784317
0.888903
0.917814
0.867349
0.75785
0.626502
0.515027
0.458575
0.464226
0.529374
-0.341604
-0.443161
-0.320442
-0.306088
-0.217654
-0.105635
0.0242563
0.152801
0.264351
0.35761
0.439285
0.527664
-0.531146
-0.555219
-0.469956
-0.451855
-0.369377
-0.275523
-0.151108
-0.00792218
0.14048
0.280983
0.404614
0.517194
-0.144852
-0.137486
-0.0690098
-0.0395972
0.02307
0.0750546
0.139162
0.208639
0.285177
0.367573
0.452425
0.540824
0.0741049
0.0856548
0.137991
0.170307
0.223114
0.266452
0.31713
0.366518
0.417816
0.47136
0.527556
0.589762
0.095074
0.108716
0.162493
0.20902
0.2688
0.320877
0.377104
0.430306
0.483391
0.53509
0.585409
0.636781
0.0715399
0.0988159
0.173627
0.246218
0.321049
0.382538
0.441225
0.493664
0.543453
0.590461
0.635171
0.67886
-0.0300315
0.0139907
0.157598
0.288979
0.391628
0.463183
0.522147
0.570599
0.613223
0.650818
0.686716
0.721091
-0.14249
0.05125
0.286289
0.44267
0.527767
0.576324
0.619855
0.659082
0.686212
0.71318
0.739313
0.765684
-0.913739
-0.496168
0.138125
0.484707
0.58528
0.626456
0.674077
0.712587
0.739667
0.756823
0.781562
0.804639
-14.4941
-11.9602
-10.0429
-8.31819
-6.67367
-5.13932
-3.79861
-2.69578
-1.83743
-1.19833
-0.732187
-0.412911
-2.63594
-3.92015
-4.0533
-3.92261
-3.70874
-3.39998
-2.98624
-2.49485
-1.97199
-1.46601
-1.01215
-0.655317
-0.870429
-1.65886
-1.47212
-1.50902
-1.60374
-1.66473
-1.66148
-1.58788
-1.4399
-1.2247
-0.961065
-0.706084
-2.2654
-2.01554
-1.72783
-1.72216
-1.67934
-1.60016
-1.50081
-1.3852
-1.24756
-1.0832
-0.888001
-0.695785
-2.21939
-1.72939
-1.70425
-1.71885
-1.65152
-1.56332
-1.46001
-1.33724
-1.19383
-1.03244
-0.852043
-0.677951
-1.49328
-1.22287
-1.32834
-1.31755
-1.27982
-1.24655
-1.20147
-1.13521
-1.04459
-0.929402
-0.787958
-0.640933
-1.08973
-0.991623
-1.06909
-1.02864
-1.00926
-0.994758
-0.970391
-0.932064
-0.876629
-0.80061
-0.698967
-0.583713
-0.928492
-0.896599
-0.924442
-0.884101
-0.872641
-0.856694
-0.832751
-0.799717
-0.754973
-0.695386
-0.616012
-0.522161
-0.804863
-0.792003
-0.795587
-0.768998
-0.761057
-0.745355
-0.724756
-0.697123
-0.659675
-0.609932
-0.544081
-0.464596
-0.686824
-0.679438
-0.675593
-0.659551
-0.65207
-0.638806
-0.623123
-0.601789
-0.572304
-0.532436
-0.479027
-0.416678
-0.589391
-0.584131
-0.578701
-0.56765
-0.559462
-0.548124
-0.535274
-0.51781
-0.493853
-0.461327
-0.416767
-0.361997
-0.511112
-0.507009
-0.501438
-0.492412
-0.483822
-0.473761
-0.462271
-0.446929
-0.426265
-0.398436
-0.360314
-0.311488
-0.446001
-0.442221
-0.435989
-0.427377
-0.418976
-0.40996
-0.399493
-0.385839
-0.36772
-0.343521
-0.310848
-0.269512
-0.391196
-0.38671
-0.378755
-0.369645
-0.361859
-0.353642
-0.344034
-0.331819
-0.315813
-0.294543
-0.265894
-0.229378
-0.343141
-0.337492
-0.327962
-0.318534
-0.311516
-0.303766
-0.294809
-0.283706
-0.269343
-0.250392
-0.224932
-0.19201
-0.298515
-0.292081
-0.282083
-0.272998
-0.266686
-0.259234
-0.250868
-0.240701
-0.2277
-0.21071
-0.188112
-0.158558
-0.25624
-0.24974
-0.240194
-0.231844
-0.226101
-0.21896
-0.21122
-0.201918
-0.190124
-0.174817
-0.154644
-0.128452
-0.216714
-0.210713
-0.201983
-0.194436
-0.189142
-0.18235
-0.175221
-0.166709
-0.156009
-0.142211
-0.124166
-0.101655
-0.180518
-0.175258
-0.167338
-0.160511
-0.15556
-0.149092
-0.142473
-0.134605
-0.124783
-0.112135
-0.0954094
-0.0743129
-0.148041
-0.14351
-0.136233
-0.1299
-0.125115
-0.118918
-0.112704
-0.105358
-0.0962578
-0.084599
-0.0691958
-0.0496761
-0.119585
-0.115602
-0.108706
-0.102367
-0.0974373
-0.0915222
-0.0856641
-0.0787738
-0.0703282
-0.0596132
-0.045653
-0.0280304
-0.0949669
-0.0912463
-0.0844171
-0.0775017
-0.072175
-0.0666052
-0.0610268
-0.0545036
-0.0465903
-0.0366018
-0.0236143
-0.00798763
-0.0731847
-0.0694398
-0.0624676
-0.0547866
-0.0491227
-0.043918
-0.038496
-0.0322437
-0.024754
-0.0153777
-0.00314354
0.0111811
-0.0530293
-0.0491021
-0.0419715
-0.0337624
-0.0280319
-0.0231365
-0.0177735
-0.0117307
-0.0045676
0.00432153
0.0159756
0.0302371
-0.0337401
-0.0296418
-0.0224777
-0.0141171
-0.00856577
-0.00390294
0.00141784
0.00725646
0.0141344
0.0225958
0.0335559
0.0473987
-0.0150737
-0.0109281
-0.00388946
0.00431516
0.00955446
0.014035
0.0192769
0.0248941
0.0314921
0.0395657
0.0498741
0.0632301
0.0029013
0.00694399
0.0137359
0.0215978
0.0264836
0.0308036
0.0359262
0.0413161
0.0476376
0.055355
0.0651153
0.077837
0.0199733
0.0237978
0.0302815
0.0377163
0.0422698
0.0464479
0.0514258
0.0565873
0.0626182
0.0699443
0.0791207
0.0904881
0.0358899
0.0394376
0.0456026
0.0526033
0.056921
0.0610146
0.0658393
0.0707852
0.076538
0.0834852
0.0922111
0.102797
0.050406
0.0536715
0.0595451
0.0661746
0.0704633
0.0745932
0.079253
0.0840101
0.0895345
0.0961831
0.104632
0.115014
0.0633766
0.0663997
0.072042
0.0784227
0.0829481
0.087238
0.0916957
0.0962872
0.101611
0.107983
0.116063
0.126209
0.074882
0.0777362
0.0832304
0.0895072
0.0944414
0.0989199
0.103146
0.107608
0.112747
0.118865
0.12655
0.136365
0.0852046
0.0879735
0.0933991
0.0996847
0.105023
0.109612
0.113621
0.118004
0.122976
0.12886
0.136167
0.14533
0.0946796
0.0974296
0.102833
0.109176
0.114787
0.119375
0.123219
0.127567
0.1324
0.138098
0.145135
0.15398
0.103577
0.10634
0.111727
0.118115
0.123835
0.128334
0.132066
0.136398
0.14112
0.146684
0.153538
0.162251
0.112052
0.114826
0.120171
0.126552
0.132239
0.136594
0.140245
0.144553
0.149171
0.154611
0.161255
0.169796
0.12016
0.122916
0.128182
0.134491
0.140043
0.144228
0.147807
0.15207
0.156582
0.161903
0.168357
0.176536
0.127878
0.130582
0.13573
0.141908
0.147265
0.151272
0.154778
0.158974
0.163366
0.168535
0.174782
0.1823
0.135136
0.137753
0.142759
0.148761
0.153896
0.157745
0.161191
0.165311
0.16959
0.174613
0.18071
0.18814
0.141831
0.144338
0.149185
0.154987
0.159902
0.16365
0.167069
0.171104
0.175273
0.180152
0.186085
0.192897
0.14785
0.150235
0.15492
0.160514
0.165239
0.168987
0.172437
0.176375
0.180453
0.185221
0.191059
0.198568
0.153099
0.155362
0.159893
0.165292
0.169878
0.173746
0.177283
0.181093
0.185077
0.189724
0.195308
0.201951
0.157542
0.159696
0.16409
0.169328
0.173841
0.177921
0.181564
0.185226
0.189131
0.193671
0.199156
0.205721
0.161213
0.163278
0.167562
0.172687
0.177192
0.181511
0.185244
0.188776
0.192655
0.197147
0.202656
0.209226
0.164173
0.166177
0.170377
0.175435
0.179975
0.184499
0.188275
0.191701
0.195572
0.199993
0.205405
0.211755
0.166488
0.168451
0.17259
0.177615
0.182208
0.186866
0.190641
0.193996
0.197888
0.202285
0.207702
0.214577
0.168211
0.170152
0.174242
0.179249
0.183888
0.188609
0.192347
0.195663
0.199586
0.203983
0.209378
0.216058
0.169377
0.171303
0.175348
0.180339
0.184999
0.189716
0.193393
0.196682
0.200616
0.204987
0.210341
0.216863
0.169999
0.171911
0.175906
0.180869
0.18552
0.190185
0.193787
0.197059
0.201004
0.205367
0.210744
0.217315
0.170068
0.171961
0.175898
0.180815
0.185429
0.190008
0.193534
0.196799
0.200759
0.205131
0.210545
0.217114
0.169547
0.171411
0.175281
0.180134
0.184683
0.189158
0.192611
0.195873
0.19984
0.204208
0.209624
0.21607
0.168373
0.170197
0.173992
0.178762
0.183229
0.18759
0.190987
0.19426
0.198237
0.202621
0.208087
0.214662
0.166465
0.168241
0.171955
0.176627
0.181
0.185251
0.188629
0.19194
0.195934
0.200358
0.205903
0.212514
0.163726
0.165449
0.169076
0.173641
0.177916
0.182071
0.185484
0.188864
0.192864
0.197319
0.202909
0.209365
0.160055
0.16172
0.16526
0.169715
0.173896
0.17798
0.181498
0.184989
0.189003
0.193537
0.199288
0.20599
0.15535
0.156957
0.160413
0.164761
0.168865
0.172914
0.176603
0.180241
0.184287
0.188956
0.194924
0.20183
0.149506
0.151059
0.154436
0.158688
0.162738
0.166793
0.170692
0.17449
0.178587
0.183427
0.189633
0.196735
0.142408
0.143913
0.14722
0.151393
0.155417
0.159517
0.163641
0.167608
0.17181
0.176918
0.183555
0.191403
0.133924
0.13539
0.138636
0.142749
0.146776
0.150951
0.155293
0.159428
0.163785
0.169205
0.176262
0.184608
0.123896
0.12533
0.128526
0.132597
0.136649
0.140923
0.145464
0.149768
0.154327
0.160092
0.167571
0.176439
0.112132
0.113543
0.116697
0.120745
0.124843
0.129232
0.133965
0.138466
0.143311
0.149528
0.157595
0.167148
0.0983947
0.0997896
0.102912
0.106953
0.111116
0.115644
0.120582
0.125343
0.130603
0.137456
0.146433
0.15736
0.0823667
0.0837511
0.0868473
0.0908978
0.0951446
0.0998337
0.105008
0.110111
0.115919
0.123582
0.133707
0.146221
0.0636215
0.064999
0.0680744
0.0721472
0.0764957
0.0813754
0.0868318
0.0923704
0.0988671
0.107502
0.118967
0.133701
0.0415898
0.0429632
0.0460235
0.0501346
0.054612
0.0597299
0.0655498
0.0716677
0.0790607
0.0889424
0.102004
0.120205
0.0155717
0.0169444
0.0199986
0.0241717
0.0288226
0.034258
0.0405745
0.047483
0.0560598
0.0675598
0.0823719
0.103529
-0.0155252
-0.0141455
-0.0110813
-0.00680276
-0.00189418
0.0040048
0.0110531
0.0191048
0.0293267
0.0430502
0.060323
0.0840484
-0.0527961
-0.051397
-0.0482927
-0.0438392
-0.038542
-0.0319531
-0.0238063
-0.014049
-0.00140681
0.0156021
0.0370666
0.0661764
-0.0993328
-0.0978781
-0.0946733
-0.0898883
-0.0839015
-0.0761275
-0.0661357
-0.053628
-0.0372683
-0.0155717
0.0113961
0.0461132
-0.155202
-0.153657
-0.150264
-0.144972
-0.138003
-0.128545
-0.115917
-0.099492
-0.0778903
-0.0497394
-0.0153985
0.0289667
-0.23598
-0.23416
-0.230233
-0.223661
-0.214208
-0.200738
-0.182241
-0.157875
-0.126624
-0.0878294
-0.0430658
0.010626
-0.317912
-0.315464
-0.311175
-0.303118
-0.291179
-0.273444
-0.248448
-0.215043
-0.172721
-0.121848
-0.0654975
-0.00203502
-0.523525
-0.52276
-0.513629
-0.498011
-0.471123
-0.431236
-0.377725
-0.311872
-0.237498
-0.159352
-0.0829417
-0.00672873
-0.549723
-0.534052
-0.538048
-0.516429
-0.481687
-0.43431
-0.373799
-0.301992
-0.223642
-0.143944
-0.0677441
0.00716915
-1.4307
-1.65052
-1.54344
-1.39303
-1.21116
-0.991644
-0.749939
-0.513915
-0.313337
-0.161834
-0.0533145
0.0303495
21.6345
19.8524
17.6476
15.6313
13.7389
11.961
10.3619
8.99584
7.87807
6.98908
6.28559
5.75433
11.3595
9.96189
10.0391
10.0776
9.89073
9.51745
9.01183
8.40553
7.74246
7.07497
6.44461
5.91289
7.34979
6.87987
7.30625
7.40042
7.41574
7.39758
7.32956
7.18139
6.94273
6.62013
6.23168
5.84406
6.97693
7.15692
7.32833
7.21118
7.11924
7.02053
6.89459
6.73286
6.5334
6.29232
6.00426
5.71075
6.60607
6.93453
6.90255
6.81503
6.76879
6.69489
6.58667
6.44438
6.26849
6.05902
5.81254
5.55679
6.09929
6.28263
6.1992
6.1943
6.1942
6.16576
6.11514
6.03862
5.92967
5.78401
5.59675
5.38634
5.73148
5.79463
5.73823
5.76315
5.76198
5.74411
5.71521
5.66979
5.60104
5.50317
5.36855
5.20428
5.45118
5.4701
5.44842
5.47096
5.46312
5.44836
5.42512
5.38892
5.33558
5.26083
5.15774
5.02565
5.18742
5.19796
5.19512
5.20956
5.2032
5.19435
5.17731
5.14946
5.10771
5.04843
4.96597
4.85652
4.94689
4.95652
4.95964
4.96868
4.96633
4.96201
4.95046
4.93062
4.89979
4.85472
4.79104
4.70908
4.74062
4.7489
4.75272
4.75924
4.7596
4.75725
4.74897
4.73435
4.71104
4.67622
4.62547
4.55617
4.56102
4.56742
4.57091
4.57645
4.5782
4.57679
4.57061
4.55922
4.54059
4.51237
4.47075
4.41012
4.39847
4.40329
4.40664
4.4119
4.4145
4.41394
4.40952
4.40068
4.38571
4.36258
4.32856
4.27914
4.24797
4.25207
4.25618
4.26182
4.26499
4.26524
4.26234
4.25565
4.24377
4.22487
4.19643
4.15555
4.10758
4.11213
4.11816
4.12477
4.12816
4.12909
4.12743
4.12252
4.11323
4.09803
4.07462
4.04102
3.97805
3.9837
3.99167
3.999
4.00233
4.00392
4.00326
3.99976
3.99251
3.98022
3.96076
3.93181
3.86027
3.86678
3.8756
3.88295
3.88614
3.88831
3.8884
3.88599
3.88034
3.87034
3.85419
3.82992
3.75323
3.75993
3.76858
3.77549
3.77859
3.78119
3.7818
3.78026
3.77599
3.76812
3.75539
3.73774
3.65484
3.6611
3.66912
3.67545
3.67847
3.68132
3.68224
3.68129
3.67794
3.67137
3.66014
3.64452
3.56304
3.56856
3.57586
3.58164
3.58458
3.58756
3.58867
3.58813
3.58542
3.57983
3.56978
3.55583
3.47632
3.48107
3.48777
3.49307
3.496
3.49909
3.50041
3.50027
3.49821
3.49368
3.48534
3.4732
3.39347
3.39757
3.40385
3.40899
3.41208
3.41529
3.41682
3.41709
3.41565
3.41206
3.40498
3.39601
3.31347
3.31716
3.32329
3.32879
3.33234
3.33559
3.33732
3.33797
3.33715
3.33456
3.32896
3.32098
3.23598
3.23956
3.2458
3.25211
3.25621
3.25939
3.26132
3.26228
3.26191
3.25998
3.25535
3.24603
3.16148
3.16519
3.17167
3.17877
3.18322
3.18628
3.18844
3.18967
3.18966
3.18822
3.18475
3.17619
3.09049
3.09442
3.10108
3.10864
3.11316
3.11613
3.11854
3.12
3.12032
3.11927
3.11664
3.10866
3.02314
3.02721
3.03391
3.04157
3.04595
3.04888
3.05148
3.05312
3.05371
3.05298
3.0509
3.04393
2.95915
2.96324
2.96981
2.97731
2.98145
2.98437
2.9871
2.98886
2.9897
2.98931
2.98771
2.9822
2.89806
2.90202
2.90836
2.91554
2.91942
2.92232
2.92514
2.92702
2.92812
2.92816
2.92721
2.92231
2.83932
2.84304
2.8491
2.85589
2.85953
2.86242
2.86529
2.86724
2.86852
2.86887
2.86842
2.8632
2.78238
2.78582
2.79159
2.79799
2.80146
2.80435
2.80724
2.80924
2.81063
2.81115
2.81118
2.80637
2.72674
2.72991
2.7354
2.74147
2.74494
2.74793
2.75081
2.75284
2.75432
2.75493
2.75521
2.75063
2.67204
2.67497
2.68024
2.68608
2.68981
2.69302
2.69585
2.69794
2.69953
2.70035
2.70102
2.69735
2.61812
2.62088
2.62602
2.63178
2.63596
2.63943
2.64218
2.64435
2.6461
2.64718
2.64838
2.64577
2.56503
2.5677
2.57279
2.57858
2.58322
2.58689
2.58955
2.59181
2.59368
2.59491
2.59633
2.59423
2.5129
2.51555
2.52064
2.52652
2.5315
2.53524
2.53782
2.54018
2.54211
2.54341
2.54489
2.5433
2.46188
2.46455
2.46964
2.47561
2.48076
2.48447
2.48701
2.48946
2.49142
2.49276
2.49411
2.49292
2.41203
2.41472
2.4198
2.42581
2.43099
2.43462
2.43716
2.4397
2.44173
2.4432
2.44454
2.44332
2.36333
2.36603
2.37106
2.37704
2.38215
2.38567
2.38823
2.39088
2.39301
2.39473
2.39648
2.39513
2.31566
2.31832
2.32326
2.32916
2.33413
2.33754
2.34013
2.34287
2.34514
2.34714
2.3495
2.34983
2.2688
2.27139
2.27621
2.28197
2.28676
2.29005
2.29264
2.29542
2.29775
2.29983
2.3023
2.30157
2.22253
2.22502
2.2297
2.23528
2.23986
2.24305
2.24563
2.24839
2.25068
2.25264
2.25487
2.25388
2.17667
2.17904
2.18357
2.18895
2.19335
2.1965
2.19912
2.20189
2.20424
2.20633
2.20888
2.20872
2.13102
2.13328
2.13765
2.14285
2.1471
2.15033
2.15307
2.15587
2.15833
2.16065
2.16359
2.16414
2.0854
2.08754
2.09177
2.0968
2.10096
2.10438
2.10729
2.11007
2.11262
2.11508
2.11829
2.11974
2.03965
2.04169
2.0458
2.05069
2.05482
2.0585
2.06155
2.06426
2.06685
2.06935
2.07253
2.07345
1.99373
1.99569
1.9997
2.0045
2.00866
2.01259
2.01575
2.01839
2.02102
2.02355
2.02677
2.0277
1.94765
1.94955
1.9535
1.95825
1.96247
1.96662
1.96985
1.97247
1.9752
1.97785
1.98134
1.98256
1.90142
1.90329
1.90718
1.91192
1.91622
1.92052
1.92379
1.92642
1.92928
1.93206
1.93579
1.93707
1.855
1.85686
1.86072
1.86545
1.86981
1.8742
1.87747
1.88014
1.88313
1.88602
1.88998
1.89143
1.80836
1.81021
1.81403
1.81877
1.82317
1.82758
1.83085
1.83357
1.8367
1.83973
1.84397
1.8458
1.76143
1.76327
1.76705
1.77178
1.77619
1.78058
1.78384
1.78665
1.78992
1.79314
1.79771
1.80014
1.7141
1.71593
1.71966
1.72435
1.72875
1.7331
1.73635
1.73924
1.74267
1.74609
1.75091
1.75379
1.66623
1.66803
1.6717
1.67635
1.68071
1.685
1.68825
1.69125
1.69485
1.69852
1.70366
1.7068
1.61764
1.6194
1.623
1.62759
1.6319
1.63613
1.6394
1.64253
1.64634
1.65033
1.65603
1.65959
1.5681
1.56982
1.57335
1.57786
1.58211
1.58629
1.58962
1.59291
1.59694
1.60128
1.60761
1.61137
1.51738
1.51905
1.5225
1.52692
1.53111
1.53524
1.53867
1.54216
1.54642
1.55109
1.5581
1.56208
1.46521
1.46682
1.47019
1.47451
1.47864
1.48275
1.48635
1.49006
1.49454
1.49952
1.50715
1.51181
1.41131
1.41286
1.41615
1.42038
1.42446
1.42858
1.43243
1.43643
1.44116
1.44653
1.45477
1.46094
1.3554
1.35689
1.36012
1.36427
1.36832
1.37251
1.37668
1.38103
1.38611
1.39206
1.40102
1.40897
1.29714
1.2986
1.30175
1.30584
1.30991
1.31423
1.31878
1.32353
1.32906
1.33577
1.34568
1.3552
1.23615
1.23756
1.24066
1.24472
1.24885
1.25335
1.25831
1.26352
1.26961
1.27725
1.28844
1.29979
1.17192
1.17331
1.17637
1.18041
1.18464
1.18938
1.19479
1.20052
1.20731
1.21603
1.22865
1.24247
1.10387
1.10524
1.10827
1.11234
1.11671
1.12175
1.12765
1.13403
1.14172
1.15177
1.16611
1.18364
1.03124
1.0326
1.03562
1.03975
1.04432
1.04974
1.05625
1.06346
1.07236
1.08413
1.10052
1.12385
0.953088
0.954447
0.957477
0.961705
0.966559
0.972471
0.979747
0.988076
0.99862
1.01272
1.03141
1.06193
0.867978
0.869357
0.872419
0.876816
0.88206
0.888654
0.896982
0.906869
0.919658
0.936986
0.958845
0.99418
0.774348
0.775764
0.778897
0.783551
0.789345
0.796888
0.806688
0.818775
0.834669
0.856409
0.883512
0.925295
0.668543
0.670039
0.673313
0.678407
0.685091
0.694141
0.706255
0.72173
0.742238
0.770061
0.804319
0.856289
0.54962
0.551242
0.554756
0.560501
0.568438
0.579609
0.594998
0.615264
0.642241
0.67831
0.721777
0.785258
0.401146
0.403071
0.407194
0.414436
0.425251
0.441062
0.463236
0.492676
0.530972
0.57995
0.636236
0.711265
0.244454
0.2469
0.251537
0.260609
0.274551
0.295663
0.325844
0.366329
0.41833
0.482773
0.554671
0.643105
-0.044655
-0.0433743
-0.0334446
-0.0160172
0.0142473
0.0595408
0.120927
0.197099
0.284843
0.380665
0.477317
0.583307
-0.172684
-0.156684
-0.159462
-0.134463
-0.0937464
-0.0372531
0.0359087
0.123682
0.221803
0.326104
0.429938
0.543933
-1.17102
-1.39046
-1.27844
-1.11816
-0.920722
-0.680553
-0.415132
-0.155082
0.0696359
0.248614
0.387622
0.514819
0.965189
0.97873
3.69521
1.15161
15.2603
1.52321
1.08036
-0.121008
3.88729
0.769613
-1.15756
0.472533
2.28408
0.87781
0.841973
1.33616
0.266651
2.85029
1.741
8.60704
1.90996
0.511781
1.46647
0.0131218
4.29713
0.214215
3.15985
0.902958
-0.46824
0.771103
1.33809
1.23223
3.75513
1.59351
0.418703
1.71917
0.641114
1.56348
1.14872
-1.08011
3.53588
1.74381
2.0834
-0.886788
1.05069
7.40027
2.02365
1.0234
1.23811
3.02035
3.30076
0.640127
1.56288
0.238286
2.41213
1.6889
2.26813
0.385632
1.63822
2.90299
0.634071
2.20897
0.955631
1.76328
14.8689
-2.05158
1.67723
2.5566
2.11404
0.898567
0.541998
3.14866
1.91253
1.50756
0.249864
2.27635
0.816155
-1.26959
0.800436
3.47681
0.0379633
0.168371
2.94674
3.65283
0.691047
2.84137
3.38341
1.02847
1.62791
2.45689
0.910347
0.633886
2.23016
0.956439
0.968791
0.473172
0.795299
1.51142
0.600816
2.04057
1.03133
-8.98889
0.175409
2.70209
1.59991
1.24125
0.295189
2.14982
2.13106
1.11434
2.31807
2.40091
1.081
2.07702
1.67987
0.384594
2.79605
0.245998
1.13728
1.58157
5.34175
3.59769
1.48632
1.4234
1.74218
0.221048
3.55493
0.817723
-4.24003
0.899284
1.78644
0.561958
1.77612
5.78527
0.513075
3.33206
2.36173
1.93317
1.89711
1.39735
0.0113741
4.08891
0.835918
0.264976
2.15596
3.15904
1.2886
3.21998
0.748288
2.06169
0.318249
1.96991
1.19944
7.56884
1.05869
1.49829
2.23347
2.33099
0.214201
2.27506
1.74681
2.0768
1.94951
1.48129
1.63806
0.985468
0.744391
0.527155
1.92282
-1.03775
0.863778
5.876
0.216387
1.67696
-8.54626
0.245078
3.01254
5.36165
2.77968
0.573051
1.98347
10.1621
2.83304
2.39382
0.870538
2.12355
2.12537
0.258211
0.226396
1.07044
-0.409941
4.87686
0.816602
1.02753
1.09722
1.49225
0.906684
1.54077
2.42618
2.11245
0.896864
2.1022
0.125525
3.2716
2.65019
3.70321
2.13087
0.459082
7.51686
2.59195
-0.0557787
3.7583
0.25624
3.40088
-1.77795
1.75066
0.436722
1.81082
6.85703
3.06989
2.00414
2.37778
3.50353
2.50818
3.87233
-5.78257
0.30547
1.1568
1.86313
0.241335
1.26481
-6.08797
1.53347
0.216229
1.41307
-0.221902
13.2195
0.931351
1.60559
0.176416
2.74398
2.71568
3.20256
1.93208
2.54936
1.12351
0.657877
3.53037
2.07121
2.30989
0.902672
0.37062
2.22197
0.184522
4.3292
1.5111
1.99904
0.756107
3.21548
0.150817
2.92056
0.0786157
3.10522
1.41096
2.00953
1.47041
0.842102
2.17792
0.399247
2.29672
0.756055
4.02595
2.28763
2.37235
2.1254
1.9809
1.98869
0.260847
2.36103
0.890282
2.764
2.13497
1.15671
2.42294
-0.320086
5.40496
1.5076
1.51919
3.03965
0.269985
1.98135
5.0036
1.70118
1.27304
0.606756
0.0391301
4.15298
0.347269
2.7563
1.41874
1.40748
-2.50083
0.517215
2.89868
1.85323
7.61403
2.56674
-15.6953
2.12107
3.15071
2.95952
0.174713
1.82967
0.328217
3.55267
0.243117
2.23578
1.95763
0.0735031
3.65054
-0.451324
2.15617
2.60223
0.272205
2.038
2.12664
0.798718
1.87147
2.05593
-3.61888
2.90659
0.773429
1.90389
1.94811
-6.60264
0.382952
0.435953
3.97847
1.17293
0.25848
2.03414
0.725568
2.2887
0.368425
3.75885
-0.0444874
0.885315
0.368759
1.77241
0.099424
3.8942
0.218884
2.8525
0.120422
3.67922
0.191152
3.66985
1.24939
3.23801
0.752281
1.13012
2.04504
2.10721
2.13315
2.10951
1.59973
3.39424
3.15068
1.23971
1.40406
1.51045
1.38939
5.3608
0.259573
3.6645
1.82599
8.49188
5.15624
1.93418
3.27777
2.38212
-0.462036
5.38638
2.48673
1.91904
1.22512
-0.546602
2.06909
-0.253933
0.224569
2.03727
-0.116783
4.58371
0.261006
1.6277
0.898483
2.32401
0.999395
0.231942
1.87449
2.65383
0.0673517
3.27825
2.27635
3.58067
2.16395
-0.0787141
4.07908
3.0748
1.54493
0.747101
3.30646
1.42657
0.89333
3.88137
1.7301
5.4703
3.06912
2.2051
1.5648
1.79698
2.5627
3.08001
2.87863
2.70603
1.83511
2.76062
1.61885
0.252845
1.67311
0.666557
0.123181
1.64596
1.07458
2.43963
-0.452819
5.03499
3.76689
1.70459
1.19856
1.05034
1.08691
0.255358
2.5046
1.01331
1.22686
1.83545
0.503114
3.26375
2.47647
0.301567
3.21428
0.244144
1.71249
2.6711
0.197044
1.17758
0.882292
0.52004
4.30741
1.70885
5.00584
1.82146
0.924315
2.70531
4.97081
0.376026
1.67077
3.59705
0.483444
0.315248
1.86414
0.753433
3.63121
0.243177
2.17239
0.370648
1.46407
2.16063
2.41908
1.27205
1.44492
0.907499
0.603703
2.30166
0.956205
2.92646
1.13964
1.1186
1.00579
5.26365
0.281203
0.811999
-17.0645
0.0845253
3.2361
9.171
1.88039
2.9749
0.497809
0.273187
2.10565
1.21012
0.720827
4.23105
-0.0739383
3.7084
0.268944
1.71346
0.90071
1.31664
2.30484
2.12005
0.349611
3.2544
1.96163
1.18811
4.57261
1.73149
0.668388
2.28853
4.0659
1.09064
3.54415
-0.149457
15.6858
2.22651
0.333241
1.62582
0.708611
0.147969
4.71113
0.386439
3.82346
0.935679
3.32563
0.226089
1.90261
2.14833
0.914976
1.04617
2.81505
0.450411
1.71859
2.82276
1.65875
3.35338
2.008
0.166617
1.0963
2.43038
1.95996
0.492448
2.00403
0.950292
3.37707
0.128994
3.33449
10.8554
0.734885
2.8918
5.98384
1.26412
1.66236
0.867015
2.04946
2.05974
1.09648
1.84045
2.39284
0.776454
0.21844
2.93975
0.778572
3.21649
3.12249
2.7555
1.05198
1.69195
0.554259
3.56807
1.45712
2.12625
1.28522
1.54017
2.39759
7.62211
5.86076
1.00228
-0.0529918
2.84658
0.443712
2.2466
1.50144
1.81945
3.04327
1.9759
1.62097
0.644939
2.09104
0.223719
1.81091
-0.111564
4.46186
0.731634
3.0046
-10.6596
0.646266
2.79579
2.55433
0.791545
0.905556
2.39875
-1.52284
-5.52279
2.37792
0.954032
0.504592
2.27942
1.02594
1.90102
2.03115
10.8137
0.188951
1.42641
0.820605
2.01256
-0.974173
2.98777
0.443299
0.720288
0.914978
0.465063
1.57644
1.44625
1.28438
0.389269
2.26611
0.235873
4.70525
2.59706
2.2561
2.55473
-0.953683
1.84559
-0.15733
1.09227
0.671645
3.37251
2.04627
0.486266
2.4489
2.50542
1.73475
1.36466
0.173202
2.83809
0.24151
2.10926
-0.238477
1.16528
0.234082
2.14991
2.38223
0.241311
1.87559
1.21543
2.1493
-0.464558
1.97459
1.6995
1.16376
2.20834
0.469858
2.29709
1.98335
0.61851
1.44777
2.31645
1.35055
0.760988
2.95115
1.8822
2.18979
-2.07662
2.18498
0.983959
1.73264
0.421629
2.66869
-9.17164
2.48928
-3.54595
1.30468
2.24492
4.36128
3.67516
1.14419
1.08286
1.89515
1.84849
2.5226
0.936211
0.609101
3.31469
0.740395
0.04415
3.36191
0.849061
3.62288
2.96624
0.0733351
0.886296
1.46254
1.02015
0.181048
2.61133
0.158213
2.76281
0.989386
2.3641
0.450428
3.63313
0.467853
2.99226
10.1022
1.52244
-0.0309125
4.67213
0.545839
0.609242
0.704934
2.29478
1.43438
3.43358
0.278742
1.9142
0.589114
-0.313477
0.160325
4.00673
0.709655
3.16792
1.66229
-3.3914
-5.0088
1.79565
0.292779
0.839685
2.4434
1.55882
1.03849
0.893971
2.05409
1.93184
-0.106894
5.08361
0.179535
2.54533
1.29486
0.534986
0.126718
1.98323
0.628417
2.43959
2.0138
0.871191
1.61797
2.06002
3.66272
1.4207
1.95249
0.695611
-0.0532927
4.13805
0.856199
0.305141
2.06362
2.00853
0.267393
3.56666
2.14592
0.249805
3.22151
1.7992
0.312153
3.30478
1.80164
0.193512
2.59693
0.285185
1.98256
1.69717
0.126409
2.86947
1.28254
1.45157
1.84154
3.01713
1.77982
0.698015
0.268608
2.68605
0.423991
1.90931
0.968484
3.13491
0.494129
0.233318
1.54945
4.08651
1.52184
1.24942
0.868258
6.50174
0.862246
3.82506
1.07577
0.269303
2.44358
1.54227
0.082028
4.00367
0.997485
0.561032
2.15033
1.03392
1.93572
2.87552
3.09158
2.70815
1.34027
-0.316591
4.78466
1.54084
2.20056
1.64162
2.81458
0.0122793
3.66765
2.44054
1.23346
3.478
0.0753262
-2.20235
0.328907
1.45583
1.35246
0.631684
1.23117
1.54154
0.653725
2.13917
1.64503
0.266672
1.57626
2.45095
0.0665117
3.81088
-0.0212969
3.74511
0.0539707
-12.3936
0.677111
0.868447
1.83565
2.44716
0.839912
0.66969
1.14153
0.239528
3.79624
0.235567
1.91728
1.77689
2.21322
0.792327
1.8294
3.08769
1.8797
0.830953
0.59299
3.06803
1.71576
-0.0472033
3.97251
0.848731
2.72605
-1.68158
0.370047
0.321076
2.32027
0.465906
1.69082
0.829353
0.202077
2.76953
3.45327
0.223419
2.74107
3.82977
1.1541
0.814025
0.769317
1.06253
2.44947
-0.523298
0.236159
2.85194
0.391212
1.45252
2.05697
1.23574
3.25246
1.02327
1.82395
0.994137
6.71083
-6.66789
0.722447
3.23367
0.976729
0.398635
3.44069
1.99016
2.21947
1.11604
2.81985
1.87641
0.21371
2.49702
-0.00796898
4.4333
-0.220112
4.21198
1.97052
1.87938
4.01852
1.37347
6.27872
2.52429
1.25265
3.12468
2.12215
3.07387
-0.346363
4.62248
1.68926
2.08523
0.328437
1.73825
2.4012
2.60099
0.648147
0.967733
6.5403
0.795487
2.16798
0.77293
4.72909
1.32092
0.210459
1.58457
0.358702
1.8621
0.393701
1.55162
0.750092
0.867176
1.2983
0.498069
4.05133
2.24517
0.526302
10.0507
0.589691
1.89227
3.39001
3.02219
0.823573
1.81241
0.427424
4.10538
1.66182
0.223821
2.65342
0.604453
0.824305
-0.0827613
4.63184
0.199766
2.36328
0.270511
3.47742
1.72474
4.24625
0.51184
1.32454
1.00252
1.28285
-1.18812
1.31603
1.61871
1.52583
1.84086
1.22863
1.88513
2.97396
0.257973
1.979
0.713279
0.833638
3.65676
2.56037
1.99086
0.691943
2.47941
2.22522
2.78967
0.25307
2.13127
-1.05126
3.77796
0.0584423
3.75156
1.15423
-2.73331
1.19035
4.49435
2.82323
0.796672
0.229184
1.69243
2.40751
1.54828
3.11186
1.87566
1.03269
0.127571
1.09639
0.15934
2.13821
3.35057
0.414286
2.22427
0.306719
2.19844
2.88212
2.19835
1.01628
1.80919
0.929499
3.5658
0.0920268
3.10629
2.36793
0.226081
1.94816
1.67196
4.23365
0.777769
0.160914
3.19962
0.0942745
3.03645
2.48683
0.957594
0.416929
-7.97975
1.89347
0.896352
1.91938
0.598523
3.78293
0.286389
2.76147
1.73901
1.12736
0.212516
-4.40708
1.54958
-0.323555
5.20233
0.397535
1.64712
0.249932
2.93083
2.34213
1.40799
1.0977
1.11846
0.35656
1.60419
0.919335
2.07278
-0.548621
6.29495
1.7337
2.06334
0.501599
2.16389
2.24763
2.58276