/*--------------------------------*- C++ -*----------------------------------*\
| =========                 |                                                 |
| \\      /  F ield         | OpenFOAM: The Open Source CFD Toolbox           |
|  \\    /   O peration     | Version:  2.3.0                                 |
|   \\  /    A nd           | Web:      www.OpenFOAM.org                      |
|    \\/     M anipulation  |                                                 |
\*---------------------------------------------------------------------------*/
FoamFile
{
    version     2.0;
    format      ascii;
    class       volScalarField;
    location    "300";
    object      nuTilda;
}
// * * * * * * * * * * * * * * * * * * * * * * * * * * * * * * * * * * * * * //

dimensions      [0 2 -1 0 0 0 0];

internalField   nonuniform List<scalar> 
7994
(
0.0670382
0.0619774
0.0572384
0.0528801
0.0489559
0.0455092
0.0425658
0.0401255
0.0381522
0.0365705
0.0352729
0.0341348
0.0330304
0.0318428
0.0304721
0.0729613
0.0693852
0.0661881
0.0634016
0.0610357
0.0590809
0.0575106
0.056286
0.0553606
0.0546857
0.0542147
0.0539056
0.0537226
0.0536367
0.0536255
0.0782763
0.075723
0.0735156
0.0716442
0.0700887
0.0688205
0.0678059
0.0670095
0.0663971
0.0659372
0.0656025
0.0653695
0.0652192
0.065136
0.0651074
0.0828067
0.080956
0.079381
0.0780591
0.0769647
0.0760704
0.0753487
0.074774
0.0743231
0.073976
0.0737156
0.0735278
0.0734012
0.0733264
0.073296
0.0866037
0.0852293
0.0840627
0.0830827
0.0822669
0.0815936
0.0810427
0.0805963
0.0802391
0.079958
0.079742
0.0795821
0.0794712
0.0794031
0.0793732
0.0897848
0.0887265
0.0878309
0.087074
0.0864373
0.0859048
0.0854623
0.0850976
0.0848004
0.084562
0.0843753
0.0842344
0.0841346
0.084072
0.0840432
0.0924247
0.0916036
0.0908984
0.0902943
0.089779
0.0893416
0.0889724
0.0886632
0.0884072
0.0881985
0.0880326
0.0879054
0.087814
0.0877556
0.0877281
0.0946469
0.0939987
0.0934277
0.0929309
0.0925008
0.0921304
0.0918131
0.0915436
0.0913172
0.0911303
0.0909797
0.090863
0.090778
0.090723
0.0906967
0.0965601
0.0960152
0.0955369
0.0951169
0.0947488
0.0944273
0.0941483
0.0939081
0.093704
0.0935335
0.0933947
0.0932861
0.0932062
0.0931541
0.0931288
0.0981747
0.0977166
0.09731
0.0969484
0.0966271
0.0963427
0.0960925
0.0958748
0.0956877
0.0955301
0.0954007
0.0952986
0.095223
0.0951732
0.0951488
0.0995519
0.0991633
0.0988134
0.0984975
0.0982126
0.0979568
0.097729
0.0975286
0.0973551
0.0972078
0.0970861
0.0969893
0.0969171
0.0968694
0.0968458
0.100733
0.100403
0.100099
0.0998191
0.0995633
0.0993298
0.0991193
0.0989327
0.0987699
0.098631
0.0985159
0.0984238
0.0983542
0.0983082
0.0982854
0.101757
0.101475
0.101206
0.100955
0.100723
0.100507
0.10031
0.100135
0.0999799
0.0998477
0.099739
0.099652
0.0995827
0.0995386
0.0995166
0.102651
0.102412
0.102167
0.101939
0.101727
0.101523
0.101336
0.101173
0.101023
0.100895
0.100792
0.100714
0.100639
0.100598
0.100576
0.0304856
0.0318792
0.0330687
0.0341681
0.0352994
0.0365918
0.0381716
0.0401469
0.042592
0.0455416
0.0489948
0.052925
0.057289
0.0620335
0.0670997
0.0536245
0.0536341
0.0537188
0.0539012
0.0542105
0.0546829
0.0553603
0.0562895
0.057519
0.0590951
0.0610565
0.0634295
0.0662235
0.0694284
0.0730131
0.0651077
0.065137
0.065221
0.0653723
0.0656065
0.0659428
0.0664046
0.0670193
0.0678185
0.0688365
0.0701087
0.0716689
0.0735458
0.0757597
0.0783203
0.0732964
0.0733278
0.0734036
0.0735313
0.0737202
0.073982
0.0743307
0.0747834
0.0753603
0.0760845
0.076982
0.0780802
0.0794068
0.0809878
0.0828456
0.0793736
0.0794043
0.0794732
0.0795851
0.079746
0.0799631
0.0802456
0.0806043
0.0810524
0.0816055
0.0822815
0.0831006
0.0840849
0.0852572
0.0866388
0.0840435
0.0840729
0.0841362
0.0842367
0.0843784
0.084566
0.0848054
0.0851038
0.0854699
0.0859143
0.0864492
0.0870889
0.08785
0.0887513
0.0898169
0.0877283
0.0877562
0.087815
0.0879069
0.0880346
0.0882012
0.0884106
0.0886676
0.088978
0.0893487
0.0897882
0.0903064
0.0909145
0.0916255
0.0924557
0.0906967
0.0907233
0.0907784
0.0908637
0.0909807
0.0911317
0.0913192
0.0915462
0.0918167
0.0921352
0.0925074
0.09294
0.0934405
0.0940165
0.0946715
0.0931287
0.093154
0.0932061
0.0932859
0.0933947
0.0935337
0.0937045
0.0939091
0.0941499
0.0944299
0.0947529
0.0951233
0.0955467
0.0960299
0.0965812
0.0951486
0.0951728
0.0952223
0.0952977
0.0953997
0.0955292
0.095687
0.0958742
0.0960923
0.096343
0.0966286
0.0969521
0.0973171
0.0977286
0.0981925
0.0968456
0.0968687
0.0969158
0.0969875
0.097084
0.0972059
0.0973533
0.0975268
0.097727
0.0979548
0.0982114
0.0984983
0.0988178
0.0991732
0.0995698
0.0982853
0.0983074
0.0983523
0.0984206
0.0985128
0.0986284
0.0987675
0.0989299
0.0991157
0.0993255
0.099559
0.0998168
0.1001
0.10041
0.100749
0.099517
0.0995382
0.0995804
0.0996457
0.0997346
0.0998451
0.0999776
0.100131
0.100305
0.1005
0.100715
0.100949
0.101204
0.101478
0.101769
0.100578
0.100599
0.100637
0.100698
0.100786
0.100892
0.101021
0.101166
0.101329
0.101516
0.101715
0.101929
0.102162
0.10241
0.102662
0.0137201
0.0108386
0.0085343
0.0067543
0.00557479
0.00473145
0.00406423
0.00349486
0.00298442
0.00251309
0.00207156
0.00165741
0.00127278
0.000919533
0.000660817
0.0137844
0.0111042
0.00893926
0.00725282
0.006047
0.00516297
0.00447598
0.00390426
0.00340033
0.00293782
0.00250288
0.00208969
0.00169666
0.00132365
0.00101926
0.013874
0.0113956
0.00936487
0.00777226
0.00655011
0.0056193
0.00489319
0.00429814
0.00378263
0.00331437
0.00287469
0.00245395
0.00204658
0.00164903
0.00131528
0.0139819
0.011688
0.00978118
0.00826585
0.00704463
0.00607489
0.00530286
0.0046708
0.00412985
0.00364463
0.00319221
0.00275898
0.00233529
0.00191434
0.00155625
0.014096
0.0119699
0.01018
0.0087246
0.00751369
0.00651649
0.00570067
0.00502561
0.00445015
0.00393955
0.00346824
0.00301899
0.00257813
0.00213553
0.00175526
0.0142258
0.0122392
0.0105566
0.00914981
0.00795189
0.00693643
0.00608274
0.00536426
0.00474962
0.00420785
0.00371291
0.00324484
0.00278625
0.00232343
0.00192249
0.0143303
0.0124903
0.0109055
0.00954304
0.00835864
0.0073309
0.00644568
0.00568648
0.00503139
0.00445513
0.00393317
0.00344409
0.0029673
0.00248537
0.00206513
0.0144617
0.0127268
0.0112257
0.00990518
0.00873476
0.00769862
0.00678729
0.0059913
0.00529677
0.00468473
0.00413367
0.00362201
0.00312666
0.00262654
0.00218824
0.0145391
0.0129415
0.011518
0.0102375
0.00908145
0.00803962
0.00710654
0.00627784
0.00554611
0.00489853
0.00431747
0.00378228
0.00326816
0.00275064
0.00229549
0.0146473
0.0131388
0.0117838
0.0105416
0.0094002
0.00835472
0.00740336
0.00654576
0.00577967
0.00509777
0.00448673
0.00392765
0.00339479
0.00286058
0.00238963
0.01472
0.0133175
0.0120253
0.010819
0.00969242
0.00864493
0.0076781
0.00679496
0.00599744
0.00528307
0.00464271
0.00405984
0.00350848
0.00295837
0.0024727
0.0148168
0.0134828
0.0122448
0.0110717
0.00995984
0.00891181
0.00793227
0.00702688
0.0062009
0.00545611
0.00478781
0.00418174
0.0036119
0.00304615
0.00254652
0.0148835
0.0136332
0.0124441
0.0113011
0.0102027
0.00915305
0.00815982
0.00723398
0.00638323
0.00561132
0.00491518
0.00428729
0.00370263
0.00312439
0.00261198
0.0149776
0.0137986
0.0126464
0.0115256
0.0104537
0.00942574
0.0084409
0.00748537
0.00659529
0.00578879
0.00507691
0.00441858
0.00379815
0.00319586
0.0026727
0.000662078
0.000917275
0.00126681
0.00164643
0.00205346
0.00248551
0.00294508
0.00344198
0.00399788
0.00465721
0.00551185
0.00674079
0.00854715
0.0108723
0.0137742
0.00101979
0.00131787
0.00168399
0.00206969
0.00247415
0.00289868
0.0033496
0.00384229
0.00440655
0.00509594
0.00599805
0.00723275
0.0089574
0.011141
0.0138303
0.00131517
0.00163993
0.00202781
0.00242581
0.00283659
0.00326568
0.00372381
0.00423203
0.00482623
0.00556143
0.00651101
0.00775654
0.00938708
0.0114341
0.0139236
0.00155563
0.00190225
0.00231114
0.00272386
0.00314655
0.00358913
0.00406677
0.0046049
0.00524146
0.00602619
0.00701481
0.00825914
0.00980688
0.0117292
0.0140346
0.00175421
0.00212078
0.00254934
0.00297813
0.0034169
0.00387986
0.00438595
0.00496274
0.00564619
0.0064768
0.00749305
0.00872567
0.0102045
0.0120118
0.0141415
0.00192108
0.00230635
0.00275352
0.0031994
0.00365759
0.00414616
0.00468654
0.00530605
0.00603567
0.0069053
0.0079391
0.00915484
0.0105758
0.0122828
0.0142883
0.00206344
0.00246628
0.00293128
0.00339513
0.00387533
0.0043931
0.00497091
0.00563372
0.00640591
0.00730733
0.00835161
0.00954952
0.0109218
0.0125375
0.014401
0.00218632
0.00260571
0.00308793
0.00357044
0.00407448
0.00462355
0.00523975
0.00594421
0.00675428
0.00768128
0.00873174
0.00991273
0.0112427
0.0127761
0.0145314
0.00229341
0.00272837
0.00322726
0.00372885
0.00425781
0.00483902
0.005493
0.00623627
0.00707946
0.00802724
0.00908146
0.0102469
0.0115389
0.0129977
0.0146391
0.00238738
0.00283701
0.00335208
0.00387294
0.00442724
0.00504041
0.00573056
0.00650929
0.00738135
0.00834636
0.009403
0.010554
0.0118107
0.0132006
0.0147357
0.00247053
0.00293393
0.00346454
0.0040045
0.00458399
0.00522825
0.00595241
0.00676326
0.00766052
0.00864006
0.00969822
0.0108355
0.0120585
0.0133836
0.0148167
0.00254352
0.00302006
0.00356609
0.00412512
0.00472935
0.00540322
0.00615868
0.00699816
0.00791764
0.0089098
0.00996883
0.0110928
0.0122838
0.0135513
0.0149086
0.00261249
0.00310122
0.00365988
0.00423563
0.00486257
0.00556457
0.00634993
0.007218
0.00815706
0.00915884
0.0102179
0.0113281
0.0124892
0.0137049
0.0149839
0.00265385
0.00315362
0.00373475
0.00433602
0.00499339
0.00572209
0.0065339
0.00739879
0.00834507
0.00936887
0.0104197
0.0115296
0.0126596
0.0138215
0.0150055
0.00128827
0.00387677
0.00673008
0.00980302
0.0130982
0.0166214
0.02039
0.02443
0.0287718
0.0334416
0.0384538
0.0438058
0.0494759
0.0554259
0.0616054
1.89363e-05
0.000431742
0.00172238
0.0038501
0.00634153
0.00931465
0.0127797
0.0167404
0.0211957
0.0261374
0.0315472
0.0373938
0.0436302
0.050194
0.0570076
0
0.000233478
0.00108703
0.00254529
0.00436754
0.00668781
0.00955088
0.0129924
0.0170374
0.0216959
0.0269594
0.0327977
0.0391567
0.0459592
0.0531084
4.48313e-05
0.000209581
0.00109268
0.00216532
0.00361995
0.00552521
0.00794275
0.0109321
0.0145455
0.0188214
0.0237783
0.0294081
0.0356719
0.042498
0.0497848
0.000116271
0.000519043
0.00105229
0.00194839
0.00319394
0.00484256
0.00696022
0.0096168
0.0128804
0.0168104
0.0214496
0.0268158
0.0328937
0.0396294
0.0469293
0.000356653
0.000623194
0.000984307
0.00177415
0.00288129
0.00435529
0.00626127
0.00867182
0.0116622
0.0153041
0.0196576
0.0247618
0.0306247
0.0372135
0.0444466
0.000405594
0.000602465
0.00097022
0.00163169
0.00263204
0.00397476
0.00572029
0.00794059
0.0107134
0.0141169
0.0182223
0.0230848
0.0287318
0.0351523
0.0422869
0.0003988
0.000570371
0.000958804
0.00151582
0.00242922
0.00366682
0.00528372
0.00735021
0.00994436
0.0131474
0.0170376
0.0216809
0.0271192
0.0333546
0.0403206
0.000390796
0.000552003
0.000933914
0.00141935
0.00226208
0.00341286
0.00492292
0.00686092
0.00930434
0.0123358
0.0160376
0.0204836
0.0257278
0.0317918
0.0386621
0.00038513
0.000541757
0.00090656
0.00134157
0.00212249
0.00320005
0.00461942
0.00644766
0.00876137
0.0116435
0.0151791
0.0194476
0.0245136
0.0304149
0.0371562
0.00038061
0.000536146
0.000889662
0.00130151
0.0020068
0.00301935
0.00436031
0.00609327
0.00829366
0.0110444
0.0144319
0.0185403
0.0234418
0.0291856
0.0357821
0.000376887
0.000533746
0.000883496
0.00128428
0.00191086
0.00286422
0.0041363
0.00578551
0.00788578
0.0105196
0.0137743
0.0177369
0.0224851
0.0280746
0.0345168
0.000373692
0.00053273
0.000881642
0.00127174
0.00182974
0.0027296
0.00394051
0.00551535
0.00752633
0.0100552
0.0131899
0.0170194
0.0216263
0.0270766
0.0334153
0.000370727
0.000531576
0.000879383
0.00125765
0.00176003
0.00261147
0.00376771
0.00527596
0.00720667
0.00964079
0.0126663
0.016374
0.0208507
0.0261703
0.0323843
0.000367862
0.00052992
0.000876172
0.00124462
0.00171035
0.00250805
0.00361403
0.00506214
0.0069202
0.0092682
0.012194
0.0157895
0.0201444
0.0253357
0.031407
0.000365164
0.000528375
0.000874155
0.00123784
0.0016864
0.00241887
0.00347669
0.00486986
0.00666174
0.00893099
0.0117651
0.0152566
0.0194967
0.0245646
0.0305085
0.000362717
0.000527406
0.000874272
0.00123657
0.00167478
0.00234188
0.00335342
0.00469596
0.00642715
0.00862401
0.0113735
0.0147683
0.0189014
0.0238574
0.0297081
0.000360506
0.000526882
0.000875632
0.00123722
0.00166517
0.00227427
0.00324222
0.00453787
0.00621312
0.00834312
0.0110141
0.0143189
0.0183523
0.0232039
0.0289517
0.000358448
0.000526382
0.000876856
0.00123709
0.00165401
0.0022145
0.00314131
0.00439347
0.00601692
0.00808495
0.010683
0.013904
0.0178442
0.0225967
0.0282412
0.000356466
0.000525627
0.000877228
0.00123562
0.00164264
0.00216768
0.00304997
0.00426104
0.00583632
0.00784668
0.0103766
0.013519
0.0173708
0.0220254
0.0275588
0.000354545
0.000524672
0.000877095
0.00123425
0.00163503
0.00214014
0.00296854
0.00413935
0.0056695
0.00762602
0.0100923
0.0131614
0.0169317
0.0215047
0.026997
0.000352714
0.000523753
0.000877204
0.00123435
0.00163234
0.00212598
0.00289647
0.00402739
0.00551494
0.00742103
0.00982775
0.0128277
0.01652
0.0210033
0.026348
0.000350999
0.000523026
0.00087793
0.00123604
0.00163277
0.00211679
0.00283219
0.00392417
0.00537135
0.00723005
0.00958071
0.0125155
0.0161337
0.020536
0.0258222
0.000349399
0.000522473
0.000879106
0.00123849
0.001634
0.00210792
0.00277411
0.00382873
0.00523763
0.00705164
0.00934946
0.0122227
0.0157711
0.0200979
0.0253071
0.000347888
0.000521966
0.000880299
0.00124077
0.0016345
0.0020979
0.00272185
0.00374021
0.00511278
0.00688457
0.00913247
0.0119475
0.0154294
0.019682
0.0248011
0.000346435
0.00052138
0.000881147
0.00124234
0.00163391
0.00208765
0.00267886
0.00365835
0.00499598
0.00672777
0.00892837
0.0116881
0.0151062
0.0192851
0.0243139
0.000345021
0.000520677
0.000881568
0.00124328
0.00163308
0.00207973
0.00264983
0.00358354
0.00488661
0.00658028
0.00873591
0.0114427
0.0147989
0.0189047
0.0238448
0.000343647
0.000519905
0.000881756
0.00124412
0.0016331
0.00207567
0.00263295
0.00351585
0.00478416
0.00644127
0.00855401
0.0112101
0.0145073
0.0185471
0.0234345
0.000342322
0.000519154
0.000881986
0.00124533
0.00163449
0.00207495
0.00262263
0.00345457
0.00468814
0.00631001
0.00838172
0.0109894
0.0142302
0.0182066
0.0230211
0.000341058
0.000518481
0.000882422
0.00124708
0.00163704
0.00207607
0.00261451
0.00339859
0.00459803
0.00618588
0.00821831
0.0107797
0.0139669
0.0178837
0.022636
0.000339855
0.000517892
0.000883057
0.00124921
0.00164013
0.00207759
0.00260635
0.00334701
0.00451326
0.00606831
0.00806307
0.0105801
0.0137153
0.0175702
0.0222347
0.000338706
0.00051735
0.000883764
0.00125141
0.00164314
0.0020786
0.0025974
0.00329978
0.00443339
0.00595679
0.00791536
0.0103897
0.0134752
0.0172741
0.0218947
0.000337599
0.000516805
0.000884384
0.00125336
0.00164564
0.00207879
0.0025881
0.00325879
0.00435823
0.00585085
0.00777464
0.0102081
0.0132456
0.0169889
0.0215359
0.000336524
0.000516221
0.000884808
0.00125493
0.00164755
0.0020785
0.00257991
0.00322741
0.00428804
0.00575016
0.00764038
0.0100343
0.0130252
0.0167133
0.0211936
0.000335473
0.000515588
0.00088502
0.00125613
0.00164913
0.00207847
0.00257432
0.00320644
0.00422313
0.00565446
0.00751214
0.00986807
0.0128145
0.0164529
0.0208945
0.000334447
0.000514926
0.000885088
0.00125716
0.00165074
0.00207932
0.00257174
0.00319315
0.00416337
0.00556351
0.00738953
0.0097087
0.0126117
0.0161983
0.020561
0.000333448
0.000514265
0.00088512
0.00125822
0.00165269
0.00208128
0.00257157
0.00318403
0.00410825
0.00547707
0.0072722
0.00955585
0.0124174
0.0159581
0.0202958
0.000332482
0.000513634
0.000885204
0.00125943
0.00165508
0.00208416
0.00257281
0.00317648
0.00405706
0.00539484
0.00715986
0.0094093
0.0122315
0.01573
0.020026
0.000331549
0.000513046
0.000885376
0.00126083
0.00165783
0.00208758
0.00257453
0.00316908
0.0040092
0.00531654
0.00705225
0.00926874
0.0120531
0.0155089
0.0197476
0.00033065
0.000512496
0.00088562
0.00126235
0.00166074
0.0020911
0.00257605
0.00316117
0.00396449
0.0052419
0.00694914
0.00913385
0.011882
0.0152975
0.0195001
0.000329781
0.000511969
0.000885886
0.00126388
0.00166358
0.00209438
0.00257702
0.00315277
0.00392358
0.00517078
0.00685031
0.00900442
0.0117179
0.0150956
0.0192593
0.000328937
0.000511446
0.000886113
0.00126529
0.00166619
0.00209723
0.00257742
0.00314443
0.00388831
0.00510323
0.00675554
0.00888007
0.0115597
0.0148973
0.0189984
0.000328115
0.000510912
0.000886252
0.00126651
0.00166847
0.00209964
0.00257754
0.00313719
0.00386071
0.0050395
0.00666468
0.00876046
0.0114072
0.014707
0.0187747
0.000327309
0.000510359
0.000886285
0.00126751
0.00167044
0.00210177
0.00257787
0.00313199
0.00384104
0.00497983
0.00657757
0.00864534
0.0112602
0.0145237
0.0185501
0.00032652
0.00050979
0.00088622
0.00126834
0.00167221
0.00210388
0.00257885
0.00312917
0.00382765
0.0049242
0.0064941
0.00853442
0.0111181
0.0143445
0.0183189
0.000325746
0.000509214
0.000886093
0.00126907
0.00167393
0.0021062
0.00258069
0.00312846
0.00381822
0.00487233
0.00641412
0.00842748
0.0109806
0.0141706
0.0181014
0.00032499
0.000508643
0.000885945
0.00126978
0.00167572
0.00210884
0.00258339
0.00312926
0.00381083
0.00482378
0.00633743
0.00832415
0.0108468
0.0139987
0.0178736
0.000324253
0.000508087
0.000885815
0.00127053
0.00167765
0.00211185
0.00258675
0.00313093
0.0038042
0.00477808
0.00626381
0.00822427
0.0107173
0.0138357
0.0176915
0.000323536
0.000507554
0.000885723
0.00127136
0.00167973
0.00211513
0.0025905
0.00313289
0.0037976
0.0047349
0.00619307
0.00812765
0.0105916
0.0136747
0.0174719
0.000322839
0.000507044
0.000885671
0.00127226
0.00168193
0.00211857
0.00259436
0.00313476
0.00379066
0.00469412
0.00612499
0.00803407
0.0104693
0.0135179
0.0172781
0.000322161
0.000506553
0.000885647
0.00127319
0.00168416
0.00212201
0.00259812
0.00313627
0.00378335
0.00465608
0.00605947
0.00794341
0.0103507
0.0133679
0.0171046
0.000321502
0.000506074
0.00088563
0.00127411
0.00168635
0.00212533
0.00260161
0.00313736
0.00377591
0.00462178
0.00599649
0.00785564
0.0102359
0.0132228
0.0169204
0.000320858
0.000505601
0.000885595
0.00127498
0.00168842
0.00212844
0.00260477
0.0031381
0.0037689
0.00459258
0.00593617
0.00777053
0.0101238
0.0130766
0.016715
0.000320229
0.000505127
0.000885524
0.00127576
0.00169032
0.00213129
0.00260763
0.00313876
0.00376299
0.00456946
0.00587871
0.00768813
0.0100154
0.0129413
0.016584
0.000319612
0.000504649
0.000885404
0.00127642
0.00169204
0.0021339
0.0026103
0.00313964
0.00375872
0.00455226
0.00582424
0.00760832
0.00990969
0.0128036
0.016371
0.000319008
0.000504166
0.000885234
0.00127698
0.0016936
0.00213635
0.00261295
0.00314101
0.00375628
0.0045398
0.00577277
0.00753103
0.00980682
0.0126711
0.016218
0.000318414
0.00050368
0.000885022
0.00127745
0.00169504
0.00213872
0.00261572
0.00314304
0.00375552
0.0045306
0.00572411
0.00745615
0.00970626
0.0125389
0.0160314
0.000317833
0.000503195
0.000884784
0.00127787
0.00169643
0.00214109
0.00261871
0.00314575
0.0037561
0.00452334
0.005678
0.00738353
0.00960789
0.0124096
0.0158691
0.000317263
0.000502716
0.000884535
0.00127826
0.0016978
0.00214354
0.00262198
0.00314905
0.00375758
0.00451705
0.00563412
0.00731305
0.00951187
0.0122846
0.0157189
0.000316708
0.000502246
0.000884292
0.00127866
0.00169921
0.00214611
0.00262552
0.00315281
0.00375957
0.00451106
0.0055922
0.00724465
0.00941842
0.012164
0.0155722
0.000316167
0.000501788
0.000884064
0.00127909
0.00170067
0.00214879
0.00262926
0.00315684
0.00376172
0.00450497
0.00555207
0.00717831
0.00932755
0.0120466
0.0154235
0.00031564
0.000501344
0.000883858
0.00127954
0.00170218
0.00215155
0.00263312
0.00316097
0.00376379
0.00449859
0.00551369
0.00711395
0.00923908
0.0119318
0.0152779
0.000315129
0.000500913
0.000883672
0.00128002
0.00170373
0.00215436
0.00263701
0.00316505
0.00376561
0.00449187
0.00547727
0.00705158
0.00915317
0.0118216
0.0151497
0.000314633
0.000500493
0.000883501
0.00128052
0.00170528
0.00215716
0.00264085
0.00316895
0.00376708
0.00448491
0.00544334
0.00699122
0.00906981
0.0117145
0.0150154
0.000314154
0.000500081
0.000883337
0.001281
0.00170681
0.0021599
0.00264455
0.00317262
0.00376824
0.00447801
0.00541275
0.00693296
0.00898888
0.0116101
0.0148827
0.00031369
0.000499674
0.000883171
0.00128147
0.00170829
0.00216253
0.00264808
0.00317603
0.00376917
0.00447156
0.00538643
0.00687695
0.0089103
0.0115082
0.0147528
0.000313244
0.000499271
0.000882997
0.0012819
0.00170968
0.00216503
0.00265141
0.00317921
0.00377005
0.00446604
0.0053649
0.00682333
0.0088339
0.0114081
0.0146227
0.000312818
0.000498867
0.000882807
0.00128228
0.00171098
0.00216738
0.00265456
0.00318225
0.0037711
0.0044618
0.00534804
0.00677221
0.00875974
0.0113112
0.0145047
0.00031241
0.000498466
0.000882614
0.00128262
0.00171221
0.00216962
0.00265758
0.00318527
0.00377253
0.00445903
0.00533519
0.00672366
0.00868792
0.0112174
0.0143891
0.000312045
0.000498053
0.000882381
0.00128289
0.00171333
0.00217173
0.00266051
0.00318835
0.00377447
0.00445771
0.0053254
0.00667768
0.00861853
0.0111263
0.014273
0.000311675
0.000497669
0.000882252
0.00128324
0.0017145
0.00217389
0.00266353
0.0031917
0.00377708
0.00445777
0.00531788
0.00663418
0.00855141
0.0110371
0.014157
0.000311504
0.000497183
0.000881902
0.00128341
0.0017156
0.0021761
0.00266678
0.00319552
0.00378056
0.00445914
0.00531198
0.00659349
0.00848734
0.010953
0.0140627
0.000310931
0.000496934
0.000881939
0.00128341
0.00171597
0.00217721
0.00266876
0.00319815
0.00378312
0.00445998
0.00530589
0.00655299
0.00842378
0.0108677
0.0139362
0.000312753
0.00049754
0.000885204
0.00129061
0.00172648
0.00219019
0.00268345
0.00321376
0.0037986
0.0044733
0.00531127
0.00652946
0.00837583
0.0107963
0.0138577
0.000295368
0.000474136
0.000841356
0.00123539
0.00166659
0.00213009
0.00262561
0.00315897
0.00374587
0.00441947
0.00524915
0.00642568
0.00825511
0.0106731
0.0137226
0.00128545
0.0038671
0.0067133
0.0097795
0.0130713
0.0165947
0.0203677
0.0244167
0.0287714
0.0334563
0.0384839
0.0438496
0.0495309
0.055489
0.0616732
1.88948e-05
0.000430266
0.0017162
0.00384053
0.00633032
0.00930367
0.0127712
0.0167375
0.0212018
0.0261554
0.0315791
0.0374399
0.0436892
0.0502633
0.0570853
0
0.000235163
0.00109401
0.00255213
0.00437505
0.00669738
0.00956352
0.0130095
0.0170607
0.0217274
0.0270012
0.0328509
0.0392212
0.0460335
0.053189
4.74062e-05
0.000221618
0.00109904
0.00217655
0.00363369
0.00554206
0.00796361
0.0109579
0.0145774
0.0188609
0.0238266
0.0294665
0.0357406
0.0425761
0.0498701
0.000116458
0.000519844
0.00105519
0.00195534
0.00320549
0.00485862
0.00698105
0.00964326
0.0129135
0.0168513
0.0214995
0.0268756
0.0329638
0.0397092
0.0470169
0.000357738
0.000617672
0.000984561
0.00177744
0.00288867
0.00436813
0.00628003
0.0086968
0.0116942
0.0153442
0.0197068
0.0248211
0.0306944
0.0372932
0.0445342
0.000407784
0.000593196
0.000951068
0.00163139
0.00263636
0.00398412
0.00573635
0.00796365
0.0107439
0.0141556
0.0182702
0.0231427
0.0288004
0.0352311
0.0423742
0.000400986
0.000562552
0.000939506
0.00151327
0.00243131
0.00367343
0.00529639
0.00737082
0.00997291
0.0131844
0.0170838
0.0217371
0.0271859
0.0334312
0.0404044
0.000393148
0.00054677
0.000919437
0.00141619
0.00226266
0.00341743
0.00493303
0.00687868
0.00933068
0.0123708
0.0160819
0.0205378
0.0257924
0.0318663
0.0387452
0.000387677
0.000538281
0.000895288
0.00133444
0.00212177
0.00320303
0.00462741
0.00646254
0.00878522
0.0116765
0.0152214
0.0194999
0.0245762
0.030488
0.0372403
0.000383079
0.000532654
0.000876257
0.00128
0.00200365
0.00302088
0.00436652
0.00610586
0.00831484
0.0110751
0.0144723
0.0185907
0.0235027
0.0292578
0.0358671
0.000379169
0.000529847
0.000868398
0.00125883
0.00190563
0.0028644
0.00414095
0.00579606
0.00790422
0.010548
0.0138127
0.0177855
0.0225446
0.0281459
0.0346022
0.000375883
0.00052906
0.000867393
0.00124906
0.00182348
0.00272865
0.00394379
0.00552414
0.00754255
0.0100812
0.0132263
0.0170664
0.0216845
0.0271474
0.0335011
0.000372956
0.000528706
0.000867465
0.0012391
0.00175293
0.0026097
0.00376984
0.00528324
0.00722098
0.00966434
0.0127007
0.0164194
0.0209077
0.0262404
0.0324695
0.000370144
0.000527739
0.000865796
0.00122671
0.00169324
0.00250455
0.00361507
0.00506809
0.00693279
0.00928953
0.0122264
0.0158334
0.0202002
0.0254047
0.0314909
0.000367413
0.000526325
0.000863535
0.00121713
0.00165708
0.00241266
0.00347656
0.0048746
0.00667281
0.00895047
0.0117955
0.0152989
0.0195515
0.0246333
0.0305952
0.000364868
0.000525197
0.000862903
0.00121397
0.00164225
0.00233343
0.00335213
0.00469959
0.00643689
0.00864187
0.0114019
0.014809
0.0189551
0.0239259
0.029795
0.000362573
0.000524655
0.00086424
0.00121512
0.00163493
0.00226462
0.00323992
0.0045405
0.00622165
0.00835949
0.0110406
0.0143582
0.0184051
0.0232717
0.029036
0.000360488
0.000524436
0.000866379
0.00121709
0.00162751
0.0022037
0.00313821
0.0043952
0.00602437
0.00809997
0.0107079
0.0139416
0.0178955
0.022662
0.0283184
0.000358524
0.000524119
0.00086803
0.00121771
0.00161792
0.00214973
0.00304552
0.00426192
0.0058428
0.00786053
0.0104002
0.0135552
0.0174213
0.0220918
0.0276453
0.000356616
0.000523488
0.0008687
0.0012169
0.00160832
0.00210897
0.00296148
0.00413927
0.00567507
0.00763879
0.0101145
0.0131954
0.0169783
0.0215569
0.0270119
0.00035476
0.000522654
0.000868886
0.00121631
0.00160266
0.00208681
0.00288656
0.00402622
0.00551962
0.00743274
0.00984849
0.0128595
0.0165634
0.0210543
0.0264139
0.00035299
0.000521872
0.000869365
0.00121725
0.00160175
0.00207651
0.00282021
0.00392193
0.00537516
0.00724066
0.00959985
0.0125446
0.0161725
0.0205762
0.0258306
0.000351334
0.000521292
0.000870478
0.00121972
0.00160367
0.00207009
0.0027609
0.00382553
0.00524054
0.00706111
0.00936687
0.0122491
0.0158054
0.0201333
0.0253363
0.00034979
0.000520882
0.000872028
0.00122289
0.00160615
0.00206345
0.00270712
0.00373615
0.0051148
0.00689283
0.00914803
0.0119708
0.0154588
0.0197091
0.0248016
0.000348331
0.000520509
0.000873575
0.00122582
0.00160775
0.00205532
0.00265832
0.00365301
0.00499705
0.00673475
0.00894197
0.0117082
0.0151306
0.0193064
0.0243201
0.000346925
0.000520047
0.000874746
0.00122797
0.00160809
0.00204647
0.00261743
0.0035758
0.00488657
0.00658591
0.00874748
0.0114598
0.0148191
0.0189228
0.0238571
0.000345553
0.000519449
0.000875439
0.00122937
0.00160794
0.00203947
0.00258968
0.00350495
0.00478278
0.00644549
0.00856355
0.0112244
0.0145242
0.0185639
0.0234505
0.000344214
0.000518762
0.000875835
0.00123055
0.00160845
0.00203614
0.00257429
0.0034407
0.00468529
0.00631278
0.00838933
0.0110012
0.0142447
0.0182227
0.0230397
0.00034292
0.000518078
0.000876226
0.00123204
0.00161028
0.00203625
0.0025659
0.00338253
0.0045937
0.00618721
0.00822414
0.0107894
0.0139797
0.0178994
0.022656
0.000341682
0.000517466
0.00087681
0.00123407
0.00161333
0.00203837
0.00255991
0.00332941
0.00450758
0.00606827
0.00806731
0.0105881
0.0137268
0.0175858
0.0222566
0.000340504
0.000516943
0.000877613
0.00123652
0.00161703
0.00204105
0.00255387
0.00328038
0.00442644
0.00595547
0.00791819
0.0103964
0.0134857
0.0172895
0.0219179
0.000339381
0.000516477
0.000878524
0.00123911
0.00162074
0.00204328
0.00254686
0.00323503
0.00434987
0.00584837
0.00777625
0.0102136
0.0132555
0.0170048
0.0215626
0.000338302
0.000516017
0.00087938
0.00124151
0.00162398
0.00204459
0.00253897
0.00319439
0.0042776
0.00574655
0.00764095
0.010039
0.0130347
0.0167297
0.0212222
0.000337253
0.00051552
0.000880049
0.00124351
0.00162656
0.00204512
0.00253137
0.00316167
0.00420976
0.00564967
0.00751181
0.00987206
0.0128239
0.0164706
0.0209278
0.000336229
0.000514966
0.00088048
0.00124509
0.00162862
0.00204553
0.00252577
0.0031393
0.00414676
0.00555749
0.00738841
0.00971221
0.0126212
0.016217
0.0205957
0.000335225
0.000514367
0.000880718
0.00124638
0.00163053
0.00204656
0.00252309
0.00312577
0.00408873
0.00546982
0.0072704
0.00955905
0.0124273
0.0159788
0.0203379
0.000334245
0.000513752
0.000880867
0.00124761
0.00163266
0.00204865
0.00252312
0.00311759
0.00403533
0.00538645
0.00715749
0.00941237
0.0122421
0.0157532
0.0200734
0.000333294
0.000513156
0.000881032
0.00124895
0.0016352
0.00205177
0.00252498
0.00311172
0.00398593
0.00530718
0.00704943
0.00927184
0.0120645
0.0155336
0.0197931
0.000332375
0.000512598
0.00088128
0.00125048
0.00163817
0.00205562
0.00252767
0.00310633
0.00393987
0.00523174
0.00694598
0.00913711
0.0118942
0.015324
0.0195505
0.000331489
0.000512084
0.000881618
0.00125217
0.00164141
0.00205977
0.0025304
0.00310052
0.00389669
0.00515987
0.00684691
0.00900793
0.011731
0.0151238
0.0193112
0.000330634
0.000511602
0.000882011
0.00125394
0.0016447
0.00206383
0.00253268
0.00309398
0.00385645
0.00509135
0.00675197
0.00888391
0.0115737
0.0149269
0.0190517
0.000329807
0.000511133
0.000882399
0.00125566
0.00164783
0.00206753
0.00253429
0.00308693
0.00382015
0.00502609
0.00666094
0.00876467
0.0114221
0.0147379
0.0188291
0.000329002
0.00051066
0.000882723
0.00125723
0.00165067
0.00207074
0.00253534
0.00308015
0.0037899
0.00496421
0.0065736
0.00864992
0.0112759
0.0145555
0.0186045
0.000328215
0.000510169
0.000882943
0.00125858
0.00165316
0.00207351
0.00253621
0.00307473
0.00376746
0.00490599
0.0064898
0.00853936
0.0111345
0.014377
0.0183726
0.000327444
0.000509657
0.000883051
0.00125971
0.00165535
0.00207606
0.0025374
0.00307146
0.00375245
0.00485162
0.0064094
0.00843271
0.0109975
0.0142033
0.0181536
0.000326687
0.000509129
0.000883065
0.00126067
0.00165737
0.00207865
0.00253932
0.00307052
0.0037429
0.00480101
0.00633224
0.00832959
0.0108641
0.0140314
0.017925
0.000325946
0.000508596
0.000883025
0.00126156
0.00165937
0.00208148
0.00254211
0.00307152
0.00373655
0.0047538
0.00625818
0.00822988
0.010735
0.0138692
0.0177464
0.000325222
0.00050807
0.000882975
0.00126245
0.00166146
0.00208466
0.00254573
0.00307384
0.00373168
0.00470956
0.00618703
0.0081333
0.0106091
0.0137056
0.0175106
0.000324517
0.000507562
0.000882951
0.00126339
0.00166371
0.0020882
0.00254994
0.00307684
0.0037272
0.00466783
0.0061186
0.00803974
0.0104872
0.0135541
0.0173712
0.000323832
0.000507077
0.000882968
0.00126441
0.00166612
0.00209199
0.00255448
0.00308001
0.0037225
0.00462829
0.00605273
0.00794931
0.0103703
0.0134116
0.0172094
0.000323166
0.000506615
0.000883027
0.00126551
0.00166863
0.00209592
0.00255908
0.00308297
0.0037173
0.00459085
0.00598934
0.00786204
0.0102576