/*--------------------------------*- C++ -*----------------------------------*\
| =========                 |                                                 |
| \\      /  F ield         | OpenFOAM: The Open Source CFD Toolbox           |
|  \\    /   O peration     | Version:  2.3.0                                 |
|   \\  /    A nd           | Web:      www.OpenFOAM.org                      |
|    \\/     M anipulation  |                                                 |
\*---------------------------------------------------------------------------*/
FoamFile
{
    version     2.0;
    format      ascii;
    class       volVectorField;
    location    "300";
    object      U;
}
// * * * * * * * * * * * * * * * * * * * * * * * * * * * * * * * * * * * * * //

dimensions      [0 1 -1 0 0 0 0];

internalField   nonuniform List<vector> 
7994
(
(20.0799 0.143998 -3.74427e-23)
(20.0823 0.157613 -4.33977e-22)
(20.0855 0.173551 1.90515e-21)
(20.0897 0.192396 -1.43656e-21)
(20.0944 0.213721 -1.02286e-20)
(20.0992 0.236637 2.52561e-20)
(20.1028 0.260066 -1.47522e-20)
(20.1041 0.282978 0)
(20.102 0.304524 0)
(20.0959 0.324058 -1.67856e-20)
(20.0853 0.341147 1.55503e-20)
(20.07 0.355511 -1.9728e-20)
(20.0501 0.366897 1.81443e-20)
(20.0252 0.372442 0)
(19.9962 0.375008 0)
(20.0659 0.142108 0)
(20.0634 0.150721 0)
(20.0597 0.159013 0)
(20.0545 0.167326 -3.76143e-21)
(20.0481 0.175835 7.81718e-21)
(20.0408 0.18461 7.04448e-22)
(20.0327 0.19356 -9.85327e-21)
(20.0242 0.202446 5.07446e-21)
(20.0154 0.210944 -7.1849e-21)
(20.0064 0.218716 -1.49112e-21)
(19.9973 0.225469 1.66796e-20)
(19.9881 0.230976 -1.34449e-20)
(19.979 0.235089 4.63413e-21)
(19.97 0.237694 0)
(19.9617 0.238685 1.10954e-35)
(20.0563 0.140426 0)
(20.0533 0.147667 0)
(20.0498 0.154645 8.22255e-21)
(20.0459 0.161175 -8.04795e-21)
(20.0415 0.16708 -1.05384e-20)
(20.0364 0.172213 -1.46111e-21)
(20.0309 0.176504 -1.42064e-21)
(20.0249 0.179944 1.17221e-20)
(20.0186 0.182562 0)
(20.0122 0.184403 0)
(20.0056 0.18552 0)
(19.9991 0.185966 0)
(19.9927 0.185798 0)
(19.9865 0.185075 0)
(19.9806 0.183849 0)
(20.0484 0.135925 0)
(20.0446 0.140815 -4.23182e-21)
(20.0403 0.145364 4.18295e-21)
(20.0357 0.149422 0)
(20.0309 0.153004 -1.06435e-20)
(20.0259 0.156089 1.02247e-20)
(20.0209 0.158668 -1.1637e-20)
(20.0159 0.160741 2.31487e-20)
(20.011 0.162317 -5.30785e-21)
(20.0062 0.163415 -5.91914e-21)
(20.0015 0.164058 0)
(19.9969 0.164278 0)
(19.9926 0.164105 0)
(19.9885 0.163574 -1.70712e-21)
(19.9845 0.162715 1.67169e-21)
(20.0431 0.131736 0)
(20.0395 0.135239 0)
(20.0358 0.138516 5.27197e-21)
(20.0319 0.141314 4.63081e-22)
(20.0279 0.143672 -5.44613e-21)
(20.0239 0.145596 -6.14983e-21)
(20.0199 0.147106 5.93584e-21)
(20.0159 0.148223 0)
(20.0119 0.148976 0)
(20.008 0.149391 0)
(20.0043 0.149494 0)
(20.0006 0.149311 0)
(19.997 0.148865 -3.63178e-21)
(19.9936 0.148179 3.55637e-21)
(19.9903 0.147273 -6.71731e-36)
(20.0392 0.127611 0)
(20.0358 0.130061 -2.6194e-21)
(20.0324 0.13238 2.58374e-21)
(20.0289 0.134309 0)
(20.0254 0.135902 0)
(20.0219 0.137175 6.26937e-21)
(20.0185 0.138149 -1.25586e-20)
(20.0151 0.138839 -3.4008e-22)
(20.0118 0.139266 -3.26658e-22)
(20.0085 0.139444 -3.13541e-22)
(20.0053 0.139391 6.84763e-21)
(20.0022 0.13912 0)
(19.9993 0.138646 0)
(19.9964 0.137982 -1.91863e-21)
(19.9936 0.137141 1.9083e-21)
(20.0363 0.123984 0)
(20.0334 0.125707 0)
(20.0303 0.127378 0)
(20.0273 0.128758 0)
(20.0243 0.129878 0)
(20.0213 0.130754 0)
(20.0183 0.131398 0)
(20.0154 0.131826 0)
(20.0125 0.132047 0)
(20.0097 0.132074 0)
(20.0069 0.131916 0)
(20.0042 0.131581 0)
(20.0016 0.131078 0)
(19.999 0.130416 0)
(19.9966 0.129603 0)
(20.0343 0.120555 -1.34402e-21)
(20.0317 0.121915 1.3468e-21)
(20.029 0.123151 0)
(20.0263 0.124171 0)
(20.0236 0.124987 0)
(20.021 0.125612 0)
(20.0184 0.126056 -6.79758e-21)
(20.0158 0.126327 6.72593e-21)
(20.0132 0.126432 0)
(20.0107 0.126377 0)
(20.0082 0.126166 -3.84316e-21)
(20.0058 0.125804 3.83331e-21)
(20.0034 0.125297 0)
(20.001 0.124648 0)
(19.9988 0.123863 3.85263e-36)
(20.0328 0.117448 1.37294e-21)
(20.0305 0.118643 -1.39365e-21)
(20.0281 0.119598 0)
(20.0257 0.120381 0)
(20.0233 0.120997 0)
(20.0209 0.121456 -3.35768e-21)
(20.0186 0.121767 6.79974e-21)
(20.0162 0.121935 -7.02867e-21)
(20.0139 0.121964 -1.30143e-22)
(20.0116 0.121857 3.69479e-21)
(20.0093 0.121615 3.95228e-21)
(20.0071 0.121239 -3.95849e-21)
(20.0049 0.120731 2.10881e-21)
(20.0028 0.120093 -1.02699e-21)
(20.0007 0.11933 -1.09286e-21)
(20.0317 0.114931 0)
(20.0295 0.1159 0)
(20.0274 0.116624 0)
(20.0253 0.117227 3.1948e-21)
(20.0232 0.117696 -3.17355e-21)
(20.021 0.118037 0)
(20.0189 0.118255 0)
(20.0167 0.118353 3.64121e-21)
(20.0146 0.118331 -3.64396e-21)
(20.0124 0.11819 -3.89982e-21)
(20.0103 0.11793 5.9319e-21)
(20.0082 0.117548 -2.02711e-21)
(20.0062 0.117043 0)
(20.0042 0.116416 1.11468e-21)
(20.0022 0.11567 -1.12142e-21)
(20.0308 0.112678 -7.30223e-22)
(20.0289 0.113519 2.24379e-21)
(20.027 0.11409 -1.50757e-21)
(20.0251 0.114565 3.22975e-21)
(20.0231 0.114931 -3.21713e-21)
(20.0212 0.115188 3.44289e-21)
(20.0192 0.115338 -3.44245e-21)
(20.0172 0.115385 0)
(20.0152 0.115326 0)
(20.0132 0.115161 -1.97482e-21)
(20.0112 0.11489 1.98567e-21)
(20.0092 0.114509 0)
(20.0073 0.11401 0)
(20.0054 0.113393 0)
(20.0035 0.112659 0)
(20.0301 0.110779 0)
(20.0284 0.11146 0)
(20.0267 0.11192 -1.57815e-21)
(20.025 0.112299 3.19792e-21)
(20.0232 0.112592 -1.62242e-21)
(20.0213 0.112787 0)
(20.0195 0.112887 0)
(20.0176 0.112897 0)
(20.0157 0.11281 1.91604e-21)
(20.0138 0.112624 -1.92704e-21)
(20.0119 0.112347 -2.05394e-21)
(20.0101 0.11197 2.06793e-21)
(20.0083 0.111481 0)
(20.0065 0.110871 0)
(20.0047 0.110143 0)
(20.0296 0.109186 0)
(20.0281 0.109672 0)
(20.0265 0.110045 1.58833e-21)
(20.0249 0.110342 -1.58279e-21)
(20.0232 0.110588 -1.68198e-21)
(20.0215 0.110751 3.41717e-21)
(20.0198 0.110811 -1.73841e-21)
(20.018 0.110794 1.85093e-21)
(20.0162 0.110679 -1.86039e-21)
(20.0144 0.110474 0)
(20.0126 0.110195 2.04911e-21)
(20.0108 0.109826 -2.06301e-21)
(20.009 0.109348 1.09555e-21)
(20.0073 0.108748 -1.1027e-21)
(20.0057 0.108008 0)
(20.0292 0.107644 0)
(20.0277 0.108073 0)
(20.0263 0.108419 0)
(20.0248 0.10863 -1.68213e-21)
(20.0233 0.108851 3.384e-21)
(20.0217 0.109018 -1.62882e-21)
(20.02 0.109039 0)
(20.0183 0.109001 0)
(20.0166 0.108868 0)
(20.0148 0.108634 0)
(20.0131 0.108345 0)
(20.0113 0.107983 1.04454e-21)
(20.0096 0.107517 -1.047e-21)
(20.008 0.106954 -2.7322e-22)
(20.0064 0.106198 2.80402e-22)
(19.9519 0.340897 0)
(19.9086 0.325963 0)
(19.8724 0.307408 3.59995e-20)
(19.8436 0.291248 -3.91853e-20)
(19.823 0.273918 4.31438e-20)
(19.8105 0.254803 -4.6615e-20)
(19.8061 0.233906 0)
(19.8091 0.211492 0)
(19.818 0.187999 -1.08289e-19)
(19.8312 0.164128 2.20947e-19)
(19.8468 0.140843 -1.11152e-19)
(19.863 0.11924 -5.26074e-20)
(19.8785 0.100281 1.01604e-19)
(19.8928 0.0845687 -2.53262e-20)
(19.9059 0.0710528 -2.18702e-20)
(19.9538 0.23812 -1.11297e-35)
(19.9464 0.235542 0)
(19.9395 0.230506 9.92881e-21)
(19.9329 0.223152 -3.39989e-20)
(19.9269 0.213581 5.20306e-20)
(19.9216 0.20201 1.51788e-21)
(19.9171 0.188791 -3.29081e-20)
(19.9135 0.17441 3.74291e-20)
(19.9108 0.159453 -8.00037e-20)
(19.9091 0.144528 1.4603e-22)
(19.9086 0.130174 8.72539e-20)
(19.9094 0.116749 -4.44866e-20)
(19.9119 0.10438 0)
(19.9161 0.093034 0)
(19.9217 0.0817794 0)
(19.9749 0.182181 0)
(19.969 0.179982 0)
(19.9631 0.17713 0)
(19.9571 0.173606 0)
(19.9513 0.169372 0)
(19.9458 0.164398 0)
(19.9408 0.158665 0)
(19.9364 0.152165 2.77077e-20)
(19.9328 0.144899 5.99271e-22)
(19.9301 0.136889 4.95282e-22)
(19.9287 0.128186 -3.34135e-20)
(19.9284 0.118904 -3.50445e-20)
(19.9293 0.109229 3.58035e-20)
(19.9314 0.0994448 0)
(19.9344 0.0892563 0)
(19.9807 0.161544 1.8312e-21)
(19.9769 0.159998 -1.8741e-21)
(19.9731 0.158 0)
(19.9693 0.155514 0)
(19.9655 0.152501 0)
(19.9618 0.148926 -1.06014e-20)
(19.9583 0.144762 -1.17895e-20)
(19.9551 0.139991 4.85607e-20)
(19.9521 0.134613 -2.57709e-20)
(19.9495 0.128646 2.80929e-20)
(19.9474 0.12213 -2.92493e-20)
(19.9459 0.115134 0)
(19.9451 0.107747 1.5873e-20)
(19.945 0.100073 -1.60577e-20)
(19.9459 0.0918016 0)
(19.9871 0.146154 6.73016e-36)
(19.984 0.144785 4.10123e-21)
(19.9808 0.143122 -4.18859e-21)
(19.9776 0.141146 0)
(19.9744 0.138831 0)
(19.9713 0.136153 0)
(19.9683 0.133089 0)
(19.9655 0.129616 0)
(19.9628 0.125714 1.20919e-20)
(19.9604 0.121365 -1.25299e-20)
(19.9584 0.116563 -1.34147e-20)
(19.9567 0.111311 -1.66453e-22)
(19.9556 0.10563 1.43268e-20)
(19.9549 0.0995575 0)
(19.955 0.0928421 0)
(19.9909 0.136126 2.03798e-21)
(19.9882 0.134908 -2.05273e-21)
(19.9855 0.133461 0)
(19.9829 0.131772 0)
(19.9802 0.129826 9.60417e-21)
(19.9777 0.127607 2.53642e-22)
(19.9752 0.1251 2.49683e-22)
(19.9728 0.122287 2.43072e-22)
(19.9705 0.119153 -2.28046e-20)
(19.9685 0.115683 1.1835e-20)
(19.9666 0.111865 0)
(19.965 0.107693 0)
(19.9637 0.10317 6.74368e-21)
(19.9627 0.0983137 -6.83682e-21)
(19.9621 0.09298 0)
(19.9941 0.128639 0)
(19.9917 0.127508 0)
(19.9893 0.126192 0)
(19.987 0.124682 0)
(19.9847 0.122971 0)
(19.9824 0.12105 0)
(19.9802 0.118908 0)
(19.9781 0.116534 0)
(19.9762 0.113918 0)
(19.9743 0.111047 0)
(19.9726 0.107908 0)
(19.9711 0.104488 0)
(19.9698 0.100777 0)
(19.9688 0.0967642 0)
(19.9681 0.0923147 0)
(19.9966 0.122944 -3.85866e-36)
(19.9944 0.121879 0)
(19.9922 0.120656 0)
(19.9901 0.119272 4.81447e-21)
(19.988 0.117722 -4.82698e-21)
(19.986 0.116002 0)
(19.9841 0.114106 0)
(19.9822 0.112029 1.06948e-20)
(19.9804 0.109763 -1.08093e-20)
(19.9788 0.107301 0)
(19.9772 0.104634 0)
(19.9759 0.101751 0)
(19.9746 0.0986442 0)
(19.9736 0.0953098 3.13335e-21)
(19.9728 0.0916943 -3.16083e-21)
(19.9986 0.118443 -1.15347e-21)
(19.9966 0.117426 -1.20719e-21)
(19.9946 0.116271 2.35038e-21)
(19.9926 0.114979 -4.91148e-21)
(19.9907 0.113547 4.90387e-21)
(19.9889 0.111972 5.11095e-21)
(19.9871 0.110254 9.85067e-23)
(19.9854 0.108389 -1.05581e-20)
(19.9838 0.106377 1.0797e-20)
(19.9823 0.104212 -5.48306e-21)
(19.9809 0.10189 0)
(19.9796 0.0994028 0)
(19.9785 0.0967443 0)
(19.9775 0.093916 -3.0327e-21)
(19.9766 0.0908898 3.0432e-21)
(20.0003 0.114807 -1.18113e-21)
(19.9984 0.113827 1.17561e-21)
(19.9965 0.112726 0)
(19.9947 0.111506 -2.49192e-21)
(19.9929 0.110163 7.5458e-21)
(19.9912 0.108698 -5.04691e-21)
(19.9895 0.107111 -5.22704e-21)
(19.988 0.105405 5.22319e-21)
(19.9865 0.10358 0)
(19.9851 0.101637 0)
(19.9839 0.0995727 -5.59907e-21)
(19.9827 0.0973832 5.63664e-21)
(19.9816 0.0950628 0)
(19.9807 0.0926115 0)
(19.9799 0.0899945 0)
(20.0017 0.111814 0)
(19.9999 0.110864 0)
(19.9981 0.109807 0)
(19.9964 0.108644 0)
(19.9947 0.107374 2.54506e-21)
(19.9931 0.105992 -2.53118e-21)
(19.9916 0.104506 0)
(19.9901 0.10292 0)
(19.9887 0.101239 -5.36118e-21)
(19.9875 0.099466 5.36195e-21)
(19.9863 0.0975999 -5.5169e-21)
(19.9852 0.0956397 5.53856e-21)
(19.9842 0.093582 -2.84475e-21)
(19.9833 0.0914285 4.30479e-21)
(19.9826 0.0891659 -1.44905e-21)
(20.0029 0.109312 0)
(20.0012 0.108389 0)
(19.9994 0.107369 0)
(19.9978 0.106256 2.50892e-21)
(19.9962 0.105043 -2.49197e-21)
(19.9947 0.103725 -2.56975e-21)
(19.9933 0.102315 2.5551e-21)
(19.9919 0.100822 0)
(19.9906 0.0992547 0)
(19.9894 0.0976178 0)
(19.9883 0.095907 -2.71985e-21)
(19.9873 0.0941276 5.48153e-21)
(19.9864 0.0922775 -2.76655e-21)
(19.9856 0.0903512 0)
(19.9848 0.0883422 0)
(20.0039 0.107191 0)
(20.0022 0.106295 -1.21175e-21)
(20.0006 0.10531 1.20393e-21)
(19.999 0.104244 -2.4898e-21)
(19.9975 0.103068 2.47301e-21)
(19.9961 0.101799 0)
(19.9947 0.10045 -2.57073e-21)
(19.9934 0.0990296 2.55771e-21)
(19.9922 0.0975576 -2.62146e-21)
(19.991 0.0960325 5.2642e-21)
(19.99 0.0944437 -2.64754e-21)
(19.9891 0.0928133 -2.71103e-21)
(19.9882 0.091137 2.72047e-21)
(19.9875 0.0894009 0)
(19.9868 0.0876466 0)
(20.0047 0.105411 3.02089e-22)
(20.0031 0.104537 -2.99264e-22)
(20.0015 0.103562 -1.22005e-21)
(19.9999 0.102546 1.1714e-21)
(19.9985 0.101397 0)
(19.9972 0.100182 0)
(19.9959 0.0988665 0)
(19.9947 0.0974825 0)
(19.9935 0.0960963 0)
(19.9925 0.0946595 -2.61918e-21)
(19.9915 0.093152 5.33494e-21)
(19.9906 0.0916559 -2.67838e-21)
(19.9898 0.0901225 0)
(19.9891 0.0884922 0)
(19.9884 0.0869457 0)
(20.0678 0.00998925 -9.0389e-21)
(20.027 0.00721709 1.01258e-20)
(19.9541 0.0040538 0)
(19.8317 0.00016397 0)
(19.6421 -0.00462285 0)
(19.3755 -0.0102888 0)
(19.0314 -0.0167726 -2.04954e-22)
(18.6134 -0.0241084 2.27611e-22)
(18.1252 -0.0322389 0)
(17.5657 -0.041048 0)
(16.9238 -0.0507954 -1.43495e-20)
(16.1684 -0.0616131 1.69751e-20)
(15.2294 -0.0753114 -2.58247e-21)
(13.9916 -0.0653315 3.16649e-21)
(12.6285 -0.0790185 2.63175e-22)
(20.0658 0.00789265 0)
(20.0302 0.00565548 -2.20754e-20)
(19.9695 0.00273241 2.43431e-20)
(19.8711 -0.00149527 0)
(19.7208 -0.00738769 0)
(19.5086 -0.0147338 0)
(19.2298 -0.0230867 0)
(18.8827 -0.03199 6.38308e-20)
(18.466 -0.0410467 -7.0727e-20)
(17.9743 -0.0500078 8.78059e-20)
(17.3927 -0.0591596 3.05326e-21)
(16.6871 -0.06865 -1.19628e-19)
(15.7943 -0.0805211 7.45096e-20)
(14.6643 -0.0763424 -4.62093e-20)
(13.5882 -0.0484343 -6.0671e-20)
(20.0643 0.00379224 0)
(20.0331 9.78848e-05 0)
(19.9817 -0.00452085 3.044e-20)
(19.9002 -0.0102136 -3.31712e-20)
(19.7772 -0.0168462 -4.34665e-20)
(19.6027 -0.0239581 -3.35414e-21)
(19.3698 -0.0311585 -2.82251e-21)
(19.0734 -0.0382464 6.33011e-20)
(18.7083 -0.0451899 0)
(18.2655 -0.0521027 0)
(17.7268 -0.0595079 0)
(17.0562 -0.0675214 0)
(16.1963 -0.0761495 0)
(15.1295 -0.0725553 0)
(14.1671 -0.0345959 0)
(20.0611 0.000514856 0)
(20.032 -0.00348044 -1.15221e-20)
(19.9858 -0.00804826 1.24913e-20)
(19.9148 -0.0132287 0)
(19.81 -0.0189335 -3.21655e-20)
(19.6623 -0.0249231 3.47629e-20)
(19.4633 -0.0310149 -3.83889e-20)
(19.2057 -0.0371318 8.36249e-20)
(18.8808 -0.0433033 -2.28398e-20)
(18.4767 -0.0496733 -2.53704e-20)
(17.9721 -0.0567265 0)
(17.3291 -0.0645996 0)
(16.4939 -0.0718073 0)
(15.4633 -0.067615 -1.18032e-20)
(14.55 -0.0288551 1.43377e-20)
(20.0572 -0.00116686 0)
(20.03 -0.00478029 0)
(19.9883 -0.0087969 1.11523e-20)
(19.9262 -0.0133079 1.36119e-22)
(19.8363 -0.0183013 1.18883e-22)
(19.71 -0.0236415 -2.83038e-20)
(19.5384 -0.029186 1.53097e-20)
(19.3121 -0.0348513 -1.67704e-20)
(19.0202 -0.0406578 -8.66686e-23)
(18.6481 -0.0467594 2.01169e-20)
(18.1722 -0.0535943 0)
(17.5527 -0.0613565 0)
(16.7375 -0.0679314 -1.50268e-20)
(15.7296 -0.0632456 1.77934e-20)
(14.84 -0.0257457 0)
(20.054 -0.00241186 0)
(20.0288 -0.00558917 0)
(19.9914 -0.00923744 1.0521e-20)
(19.937 -0.0133307 -2.26794e-20)
(19.859 -0.0178341 2.46942e-20)
(19.7496 -0.0226654 2.16841e-22)
(19.5996 -0.0277303 -2.92439e-20)
(19.3985 -0.0329756 1.58471e-20)
(19.1337 -0.0384406 -1.74617e-20)
(18.7884 -0.044298 3.82361e-20)
(18.3369 -0.0509452 -2.11471e-20)
(17.738 -0.0585777 0)
(16.9396 -0.0648668 0)
(15.9468 -0.0599273 0)
(15.0695 -0.0237252 0)
(20.0513 -0.00316964 0)
(20.028 -0.00610259 0)
(19.9942 -0.00953748 0)
(19.9458 -0.0133106 0)
(19.8771 -0.0174168 0)
(19.7808 -0.0218423 0)
(19.6478 -0.0265462 0)
(19.4669 -0.031503 0)
(19.2244 -0.0367568 0)
(18.9017 -0.042478 0)
(18.4714 -0.0490222 0)
(17.8906 -0.0565487 0)
(17.1065 -0.0626749 0)
(16.1246 -0.0575882 0)
(15.2536 -0.0223147 0)
(20.0489 -0.0038078 0)
(20.027 -0.00635603 4.34035e-21)
(19.9961 -0.00956354 -4.57078e-21)
(19.9525 -0.0130941 9.93025e-21)
(19.8912 -0.0169441 1.70073e-22)
(19.8053 -0.0211353 -2.2768e-20)
(19.6859 -0.025653 -2.25539e-22)
(19.5216 -0.0304821 -2.58369e-22)
(19.2977 -0.0356589 2.1905e-20)
(18.9944 -0.0413371 1.71469e-22)
(18.5826 -0.0478352 -8.87847e-21)
(18.018 -0.0552722 1.02626e-20)
(17.2464 -0.0612672 -1.73769e-20)
(16.2727 -0.0560482 6.72478e-21)
(15.4047 -0.0213612 0)
(20.0463 -0.00366838 1.92514e-21)
(20.0259 -0.00620609 -2.02347e-21)
(19.9975 -0.00934968 0)
(19.9579 -0.012762 0)
(19.9025 -0.0165087 0)
(19.8249 -0.0206346 -5.23111e-21)
(19.7165 -0.0251342 1.12232e-20)
(19.5659 -0.0299911 -1.22765e-20)
(19.3577 -0.035225 -2.28521e-22)
(19.0712 -0.0409663 7.38985e-21)
(18.6758 -0.0474823 0)
(18.1257 -0.0548117 0)
(17.3655 -0.0605863 5.61486e-21)
(16.3986 -0.0551096 -3.13469e-21)
(15.532 -0.0206481 -3.6567e-21)
(20.0441 -0.00374184 0)
(20.0249 -0.00602649 0)
(19.9986 -0.00900893 0)
(19.9622 -0.0123328 4.11864e-21)
(19.9115 -0.0160577 -4.30731e-21)
(19.8407 -0.0202306 0)
(19.7413 -0.0248508 0)
(19.6021 -0.0298877 5.70795e-21)
(19.4074 -0.0353327 -6.06605e-21)
(19.1355 -0.0412802 -7.21956e-21)
(18.7549 -0.0479746 1.18939e-20)
(18.2184 -0.0554043 -4.48448e-21)
(17.4686 -0.0610996 0)
(16.5074 -0.0552725 3.20338e-21)
(15.6411 -0.0206526 -3.59844e-21)
(20.042 -0.00309351 0)
(20.0239 -0.00551192 0)
(19.9993 -0.00845497 0)
(19.9655 -0.011741 3.68139e-21)
(19.9186 -0.015523 4.32489e-23)
(19.8531 -0.0198835 -8.21576e-21)
(19.7609 -0.0248201 4.37095e-21)
(19.631 -0.0302567 0)
(19.4476 -0.0361118 0)
(19.1883 -0.042524 -3.41804e-21)
(18.8204 -0.0496666 3.65937e-21)
(18.296 -0.0571796 0)
(17.5567 -0.0624921 0)
(16.6019 -0.055965 0)
(15.7363 -0.0204459 0)
(20.0402 -0.00271089 0)
(20.023 -0.00487097 1.57719e-21)
(19.9999 -0.00765914 -3.20063e-21)
(19.9682 -0.0108178 1.63071e-21)
(19.9244 -0.0145613 0)
(19.8634 -0.0190362 0)
(19.7775 -0.0243869 3.73917e-21)
(19.6559 -0.0304492 -3.92355e-21)
(19.4828 -0.036823 0)
(19.235 -0.0435526 -2.9496e-21)
(18.88 -0.0515536 -4.3812e-22)
(18.3677 -0.0608655 1.57791e-21)
(17.6378 -0.0671436 2.47977e-21)
(16.6869 -0.0597884 -1.75256e-21)
(15.8204 -0.0234451 1.94332e-21)
(20.0383 -0.0018019 0)
(20.0217 -0.0040594 0)
(19.9999 -0.00675105 0)
(19.97 -0.00976236 0)
(19.9281 -0.0135879 0)
(19.8697 -0.0184055 1.42236e-21)
(19.7868 -0.0244799 -1.48064e-21)
(19.6708 -0.0317731 0)
(19.5056 -0.0389056 0)
(19.266 -0.0463947 0)
(18.9152 -0.0554868 0)
(18.4106 -0.065649 -2.44369e-21)
(17.698 -0.0719111 2.65165e-21)
(16.7603 -0.0624153 0)
(15.8953 -0.0229476 0)
(20.0371 -0.000708675 0)
(20.0217 -0.00290397 0)
(20.0016 -0.00548762 0)
(19.9729 -0.00786291 -1.07522e-21)
(19.9344 -0.0110655 1.9882e-21)
(19.8814 -0.0149974 -9.07316e-22)
(19.8062 -0.0212435 0)
(19.6972 -0.0304878 0)
(19.5456 -0.0381855 0)
(19.3164 -0.0434605 0)
(18.9931 -0.0530507 0)
(18.4968 -0.0743576 0)
(17.7843 -0.0852476 0)
(16.8345 -0.0721368 -1.04428e-21)
(15.9626 -0.0409799 1.15025e-21)
(12.6861 0.0859963 -1.69933e-22)
(14.0908 0.0699954 4.58302e-21)
(15.3417 0.0796245 -3.42993e-21)
(16.2861 0.0659701 1.94882e-20)
(17.0445 0.0553787 -1.64806e-20)
(17.6876 0.0458747 0)
(18.246 0.0373438 0)
(18.7302 0.0295598 6.26014e-21)
(19.1406 0.022672 -5.63763e-21)
(19.4734 0.0167563 0)
(19.7253 0.0117785 0)
(19.8985 0.00785034 0)
(20.0052 0.00490227 0)
(20.0649 0.00274058 8.02295e-21)
(20.0947 0.000941317 -7.21936e-21)
(13.6346 0.0581522 -6.03092e-20)
(14.7622 0.0839061 -4.56134e-20)
(15.9102 0.0875861 7.38352e-20)
(16.8087 0.0757388 -1.17825e-19)
(17.5159 0.0665178 3.49039e-21)
(18.0969 0.0576228 8.61234e-20)
(18.5855 0.0489113 -6.82926e-20)
(18.9963 0.040128 6.16405e-20)
(19.3343 0.0315593 0)
(19.6012 0.023626 0)
(19.7992 0.0168033 0)
(19.9344 0.0115817 0)
(20.019 0.00810971 2.04705e-20)
(20.0678 0.00597551 -1.85662e-20)
(20.0934 0.00443675 0)
(14.2108 0.0464367 0)
(15.2275 0.0826201 0)
(16.3148 0.0855475 0)
(17.1801 0.0769007 0)
(17.8511 0.0691704 0)
(18.3873 0.0620478 0)
(18.8253 0.0553928 0)
(19.1829 0.0486965 6.04755e-20)
(19.4692 0.0418687 -3.32647e-21)
(19.6899 0.0349593 -3.85229e-21)
(19.8508 0.0282001 -4.03561e-20)
(19.9603 0.0220308 -2.94252e-20)
(20.0295 0.0168968 2.69953e-20)
(20.0703 0.0128938 0)
(20.0924 0.00978358 0)
(14.5934 0.042353 1.42035e-20)
(15.5623 0.0796034 -1.16739e-20)
(16.6144 0.0830664 0)
(17.4547 0.0758231 0)
(18.0967 0.0682291 0)
(18.5973 0.0614641 -2.42603e-20)
(18.995 0.0553451 -2.1415e-20)
(19.3111 0.0493965 7.87533e-20)
(19.5581 0.0434958 -3.59418e-20)
(19.7448 0.0376339 3.16509e-20)
(19.8798 0.0319199 -2.92763e-20)
(19.9723 0.02657 0)
(20.0322 0.0218184 1.06398e-20)
(20.0688 0.0177283 -9.81522e-21)
(20.0895 0.0142311 0)
(14.8839 0.040557 0)
(15.8299 0.0767046 1.74242e-20)
(16.8597 0.0806582 -1.47271e-20)
(17.6793 0.0740463 0)
(18.2965 0.0665608 0)
(18.767 0.0600174 1.90478e-20)
(19.1314 0.0541612 -2.85449e-22)
(19.4135 0.0485616 -1.56934e-20)
(19.6287 0.0430897 1.39244e-20)
(19.7883 0.0377502 -2.55226e-20)
(19.9026 0.0326552 3.2343e-22)
(19.9813 0.0279647 3.4398e-22)
(20.0334 0.0238025 9.57077e-21)
(20.0663 0.0201611 0)
(20.0859 0.0169775 0)
(15.1141 0.0396039 0)
(16.0485 0.0745522 0)
(17.0629 0.0787828 0)
(17.8651 0.0724676 0)
(18.4604 0.0651177 -2.01811e-20)
(18.9052 0.058769 3.63038e-20)
(19.2417 0.0531569 -1.649e-20)
(19.4961 0.0478935 1.45735e-20)
(19.6858 0.0428333 -2.66775e-20)
(19.8242 0.0379629 4.13069e-22)
(19.9224 0.0333565 2.17121e-20)
(19.99 0.0291138 -1.95006e-20)
(20.0353 0.0253013 8.9376e-21)
(20.0647 0.0219326 0)
(20.0828 0.0190671 0)
(15.2988 0.0391003 0)
(16.2275 0.0731782 0)
(17.2309 0.0775785 0)
(18.0179 0.071439 0)
(18.594 0.0642063 0)
(19.0165 0.057972 0)
(19.3294 0.0525042 0)
(19.561 0.0474584 0)
(19.7304 0.0426923 0)
(19.8521 0.0381849 0)
(19.9378 0.0339733 0)
(19.997 0.0300967 0)
(20.037 0.0265578 0)
(20.0633 0.0233464 0)
(20.0802 0.0206125 0)
(15.4506 0.0388214 0)
(16.3768 0.0723891 6.57314e-21)
(17.3716 0.0769755 -1.68885e-20)
(18.1452 0.0710081 9.94993e-21)
(18.7041 0.0638923 -8.42294e-21)
(19.1071 0.0577237 2.66691e-22)
(19.3999 0.0523156 2.02935e-20)
(19.6124 0.0473642 -4.5498e-22)
(19.7652 0.0427417 -4.24842e-22)
(19.8737 0.0384279 -1.99672e-20)
(19.9496 0.0344402 3.7356e-22)
(20.0021 0.0307853 8.39547e-21)
(20.0378 0.027431 -3.64667e-21)
(20.0618 0.024344 3.46184e-21)
(20.0776 0.021706 0)
(15.5786 0.0388057 -3.61512e-21)
(16.504 0.0721302 -3.03514e-21)
(17.4916 0.0769691 5.49113e-21)
(18.253 0.0712263 0)
(18.7963 0.0642461 0)
(19.1819 0.058103 6.89579e-21)
(19.4573 0.0526732 -3.25872e-22)
(19.6538 0.0476995 -1.11333e-20)
(19.7931 0.0430807 9.94793e-21)
(19.8909 0.0388083 -4.57918e-21)
(19.9589 0.0348871 0)
(20.006 0.0313103 0)
(20.0383 0.0280383 0)
(20.0602 0.0250238 -1.50233e-21)
(20.0749 0.0224478 1.44522e-21)
(15.688 0.0387793 -3.57761e-21)
(16.6133 0.0725614 3.1777e-21)
(17.5947 0.0779654 0)
(18.3449 0.0724646 -4.34536e-21)
(18.874 0.0654728 1.14227e-20)
(19.2442 0.0591865 -6.90085e-21)
(19.5045 0.0535684 -5.56362e-21)
(19.6874 0.048426 5.23531e-21)
(19.8154 0.0436838 0)
(19.9045 0.0393117 0)
(19.9662 0.0353231 -3.45639e-21)
(20.0089 0.0317142 3.30519e-21)
(20.0384 0.0284479 0)
(20.0586 0.0254809 0)
(20.0725 0.0230127 0)
(15.7854 0.0396993 0)
(16.7108 0.0740361 0)
(17.6853 0.0798851 0)
(18.4241 0.0744741 0)
(18.9397 0.0674553 3.47388e-21)
(19.296 0.0609289 -3.24592e-21)
(19.5431 0.054968 0)
(19.7147 0.0494887 0)
(19.8333 0.044414 3.68517e-21)
(19.9152 0.0397954 -6.7682e-21)
(19.9718 0.0356249 1.82777e-22)
(20.011 0.0319046 2.81764e-21)
(20.0382 0.0286023 0)
(20.0571 0.0256458 0)
(20.0702 0.023193 0)
(15.8673 0.0389438 2.02084e-21)
(16.7918 0.0773125 -1.81849e-21)
(17.76 0.0847866 2.54515e-21)
(18.4906 0.078797 1.66074e-21)
(18.9955 0.0707008 -5.39788e-22)
(19.339 0.0632668 -2.98307e-21)
(19.5749 0.0564795 0)
(19.7363 0.0504944 -3.55387e-21)
(19.8469 0.0452273 3.38695e-21)
(19.9232 0.0402227 0)
(19.9757 0.035734 0)
(20.0122 0.0318447 1.10747e-21)
(20.0376 0.0284691 -2.1299e-21)
(20.0555 0.0255589 1.02827e-21)
(20.068 0.0232183 0)
(15.9616 0.0443066 0)
(16.8841 0.0856085 0)
(17.8349 0.0903384 2.2363e-21)
(18.5514 0.080916 -2.06201e-21)
(19.0415 0.0736466 0)
(19.374 0.065985 0)
(19.5996 0.0582247 0)
(19.7552 0.0521707 0)
(19.8592 0.045835 -1.05982e-21)
(19.9298 0.0401527 1.01815e-21)
(19.9792 0.0353516 0)
(20.0132 0.0313114 0)
(20.0373 0.02798 0)
(20.0543 0.0251217 0)
(20.0664 0.022948 0)
(16.0005 0.0290967 1.60837e-21)
(16.9119 0.0970639 -1.45372e-21)
(17.8518 0.104696 0)
(18.5909 0.088463 0)
(19.0869 0.0793434 0)
(19.401 0.0682357 0)
(19.6262 0.0582586 0)
(19.7672 0.0517578 0)
(19.8611 0.0472312 0)
(19.9331 0.0401989 -6.52088e-22)
(19.9786 0.0348855 1.27268e-21)
(20.0133 0.0305965 -6.24605e-22)
(20.0356 0.0271866 0)
(20.0525 0.0244843 0)
(20.0638 0.022878 0)
(19.3997 0.140032 0)
(19.963 0.0879824 0)
(20.0665 0.102036 0)
(20.1197 0.111591 0)
(20.1496 0.121189 0)
(20.1656 0.129906 0)
(20.1719 0.138095 0)
(20.1708 0.145414 0)
(20.164 0.151313 0)
(20.153 0.155123 0)
(20.1397 0.156259 0)
(20.1259 0.154453 0)
(20.1132 0.149941 0)
(20.1026 0.143486 0)
(20.0944 0.135245 0)
(17.5781 -0.261761 0)
(19.9023 0.196336 0)
(19.9572 0.109277 0)
(20.0019 0.100096 0)
(20.0419 0.103479 0)
(20.0739 0.108492 0)
(20.098 0.113178 0)
(20.115 0.117644 0)
(20.1254 0.121751 0)
(20.1298 0.125233 0)
(20.1292 0.127807 0)
(20.1246 0.129192 0)
(20.1176 0.12914 0)
(20.1096 0.127622 0)
(20.1018 0.12379 0)
(15.6922 -0.145237 -1.25138e-37)
(19.887 0.217281 0)
(19.9828 0.107369 0)
(19.9971 0.108704 0)
(20.0258 0.111473 0)
(20.0538 0.112502 0)
(20.0772 0.113275 0)
(20.0953 0.114438 0)
(20.108 0.115751 0)
(20.1158 0.116931 0)
(20.119 0.117768 0)
(20.1186 0.118114 0)
(20.1153 0.117864 0)
(20.1102 0.117064 0)
(20.1042 0.114799 0)
(14.1684 -0.0585612 0)
(19.7482 0.146171 0)
(20.0178 0.0697309 0)
(20.0276 0.086828 0)
(20.0435 0.0897726 0)
(20.0633 0.0907639 0)
(20.0819 0.0921614 0)
(20.0971 0.0943335 0)
(20.1081 0.0969196 0)
(20.1149 0.099664 0)
(20.1178 0.102308 0)
(20.1175 0.104569 0)
(20.1148 0.106194 0)
(20.1105 0.107143 0)
(20.1053 0.106678 0)
(14.0828 0.0388758 0)
(19.1302 0.0244602 0)
(19.8709 0.035537 0)
(19.9965 0.0620094 0)
(20.0304 0.066047 0)
(20.0514 0.068675 0)
(20.0695 0.071719 0)
(20.085 0.0753393 0)
(20.0972 0.0793129 0)
(20.1058 0.0835012 0)
(20.1108 0.0876968 0)
(20.1126 0.0916331 0)
(20.1117 0.095016 0)
(20.1089 0.0977004 0)
(20.1049 0.0990151 0)
(14.7188 0.0719724 0)
(18.3399 -0.039536 0)
(19.5652 0.0331091 0)
(19.8973 0.0553461 0)
(19.9896 0.0606516 0)
(20.0259 0.0642193 0)
(20.0483 0.0672835 0)
(20.0659 0.0703519 0)
(20.0803 0.0736497 0)
(20.0913 0.0772162 0)
(20.0991 0.0809319 0)
(20.1037 0.0846093 0)
(20.1055 0.0880197 0)
(20.105 0.0910153 0)
(20.1028 0.0930697 0)
(15.0766 0.0320853 4.74335e-36)
(17.8271 -0.0253813 0)
(19.2438 0.0398732 0)
(19.7646 0.0552658 0)
(19.938 0.0635857 0)
(20.0022 0.0681507 0)
(20.0332 0.0708191 0)
(20.0534 0.0728105 0)
(20.0688 0.0748051 0)
(20.081 0.0770258 0)
(20.0901 0.0794722 0)
(20.0963 0.0820511 0)
(20.0997 0.0846119 0)
(20.1009 0.0870289 0)
(20.1003 0.089001 0)
(15.1224 0.00748831 0)
(17.5321 0.00123582 0)
(18.9714 0.039449 0)
(19.6215 0.0537747 0)
(19.8781 0.0650182 0)
(19.9784 0.0705972 0)
(20.0226 0.0734016 0)
(20.0469 0.074999 0)
(20.0634 0.0762817 0)
(20.0757 0.0776223 0)
(20.0851 0.0791435 0)
(20.0917 0.0808397 0)
(20.0959 0.0826266 0)
(20.098 0.08439 0)
(20.0983 0.0860064 0)
(14.99 0.0027592 -9.286e-36)
(17.3322 0.015359 0)
(18.7497 0.03638 0)
(19.4803 0.0516954 0)
(19.8098 0.0639607 0)
(19.949 0.0703273 0)
(20.0105 0.0736994 0)
(20.0413 0.0754762 0)
(20.0598 0.0765964 0)
(20.0727 0.0775579 0)
(20.0821 0.078592 0)
(20.0889 0.0797668 0)
(20.0934 0.0810578 0)
(20.0959 0.0823743 0)
(20.0967 0.0837543 0)
(14.8051 0.00379687 -9.42263e-36)
(17.1507 0.0191621 0)
(18.5613 0.034022 0)
(19.3468 0.0494855 0)
(19.7365 0.0615871 0)
(19.9138 0.0686437 0)
(19.9948 0.0727098 0)
(20.0343 0.0749021 0)
(20.0561 0.0761438 0)
(20.07 0.0770144 0)
(20.0798 0.0778264 0)
(20.0867 0.0787089 0)
(20.0914 0.0796881 0)
(20.0942 0.0807005 0)
(20.0954 0.0818291 0)
(14.6213 0.0046707 0)
(16.9711 0.0186384 0)
(18.3925 0.032109 0)
(19.2202 0.0468968 0)
(19.661 0.0586695 0)
(19.8745 0.0663724 0)
(19.976 0.0710467 0)
(20.0256 0.0736976 0)
(20.0518 0.0751895 0)
(20.0674 0.0761277 0)
(20.0778 0.0768756 0)
(20.0849 0.0776112 0)
(20.0898 0.0783998 0)
(20.0928 0.0792043 0)
(20.0943 0.0801059 0)
(14.4536 0.004731 9.42477e-36)
(16.7971 0.0170063 0)
(18.2355 0.0301084 0)
(19.098 0.0440636 0)
(19.5839 0.055711 0)
(19.8322 0.0639293 0)
(19.9546 0.0690697 0)
(20.0153 0.0721452 0)
(20.0469 0.0739247 0)
(20.0647 0.0750024 0)
(20.0759 0.0757718 0)
(20.0834 0.0764498 0)
(20.0885 0.077134 0)
(20.0917 0.0778137 0)
(20.0934 0.0785747 0)
(14.3026 0.00441624 0)
(16.633 0.0154315 0)
(18.0865 0.0280809 0)
(18.9786 0.0413433 0)
(19.5055 0.052975 0)
(19.7875 0.0615358 0)
(19.9309 0.0670338 0)
(20.0035 0.0704818 0)
(20.041 0.0725412 0)
(20.0617 0.0737807 0)
(20.074 0.0746099 0)
(20.082 0.0752768 0)
(20.0873 0.075908 0)
(20.0907 0.0765196 0)
(20.0926 0.0772174 0)
(14.1647 0.00403497 1.81267e-35)
(16.4798 0.0141942 0)
(17.9444 0.0262231 0)
(18.8621 0.0389096 0)
(19.4265 0.0505013 0)
(19.741 0.059265 0)
(19.9054 0.0650654 0)
(19.9902 0.068835 0)
(20.0344 0.0711502 0)
(20.0582 0.0725526 0)
(20.072 0.0734565 0)
(20.0807 0.0741327 0)
(20.0863 0.0747321 0)
(20.0898 0.0752932 0)
(20.0918 0.075912 0)
(14.0367 0.00370869 -1.78049e-35)
(16.3365 0.0132225 0)
(17.8088 0.0245591 0)
(18.7489 0.0366883 0)
(19.3473 0.0481815 0)
(19.693 0.057081 0)
(19.8783 0.0631912 0)
(19.9757 0.0672396 0)
(20.0269 0.0697849 0)
(20.0544 0.0713447 0)
(20.0699 0.07233 0)
(20.0793 0.0730257 0)
(20.0852 0.0736027 0)
(20.089 0.0741178 0)
(20.0912 0.0746629 0)
(13.9169 0.00345389 0)
(16.2025 0.0123546 0)
(17.6804 0.023002 0)
(18.6399 0.0345668 0)
(19.2678 0.0459068 0)
(19.6433 0.0549532 0)
(19.8498 0.0613987 0)
(19.9602 0.0656939 0)
(20.0188 0.068451 0)
(20.0502 0.0701644 0)
(20.0676 0.0712373 0)
(20.0779 0.0719639 0)
(20.0843 0.0725322 0)
(20.0882 0.0730181 0)
(20.0906 0.0735351 0)
(13.805 0.0032391 0)
(16.0771 0.0115078 0)
(17.5589 0.0215115 0)
(18.5349 0.0325385 0)
(19.1881 0.0436836 0)
(19.5919 0.0528998 0)
(19.8199 0.0596649 0)
(19.9436 0.0641874 0)
(20.0099 0.0671477 0)
(20.0456 0.0690135 0)
(20.0652 0.0701806 0)
(20.0765 0.0709492 0)
(20.0833 0.0715219 0)
(20.0875 0.0719903 0)
(20.0901 0.0724869 0)
(13.7011 0.00303427 1.70766e-35)
(15.9598 0.0107064 0)
(17.444 0.0201264 0)
(18.4333 0.0306691 0)
(19.1085 0.0415937 0)
(19.539 0.0509548 0)
(19.7887 0.0579883 0)
(19.926 0.0627263 0)
(20.0004 0.0658829 0)
(20.0406 0.0678978 0)
(20.0625 0.0691614 0)
(20.075 0.0699781 0)
(20.0824 0.0705618 0)
(20.0869 0.0710154 0)
(20.0896 0.0714873 0)
(13.6042 0.00283459 -1.67995e-35)
(15.85 0.0100072 0)
(17.3349 0.0189003 0)
(18.335 0.0290069 0)
(19.0295 0.0396831 0)
(19.4852 0.0491288 0)
(19.7563 0.0563698 0)
(19.9075 0.0613186 0)
(19.9903 0.0646634 0)
(20.0352 0.066822 0)
(20.0597 0.0681815 0)