/*--------------------------------*- C++ -*----------------------------------*\
| =========                 |                                                 |
| \\      /  F ield         | OpenFOAM: The Open Source CFD Toolbox           |
|  \\    /   O peration     | Version:  2.3.0                                 |
|   \\  /    A nd           | Web:      www.OpenFOAM.org                      |
|    \\/     M anipulation  |                                                 |
\*---------------------------------------------------------------------------*/
FoamFile
{
    version     2.0;
    format      ascii;
    class       volScalarField;
    location    "6000";
    object      nuTilda;
}
// * * * * * * * * * * * * * * * * * * * * * * * * * * * * * * * * * * * * * //

dimensions      [0 2 -1 0 0 0 0];

internalField   nonuniform List<scalar> 
6710
(
0.0562865
0.0506162
0.045751
0.0418415
0.0388457
0.0360919
0.0333258
0.0306412
0.0280402
0.025487
0.0230045
0.0210298
0.0639872
0.059793
0.0561423
0.0530181
0.0504378
0.0483967
0.0468661
0.0458017
0.045145
0.0448388
0.0448305
0.0450702
0.0705075
0.067497
0.06494
0.062806
0.061078
0.0597336
0.0587437
0.0580724
0.0576824
0.0575344
0.0575912
0.0578172
0.075987
0.0737796
0.071936
0.0704115
0.0691829
0.0682287
0.0675251
0.0670484
0.0667746
0.0666805
0.0667446
0.0669456
0.0805262
0.0788928
0.0775235
0.0763861
0.0754644
0.0747427
0.0742064
0.0738402
0.0736306
0.0735641
0.073628
0.0738096
0.084293
0.0830765
0.0820302
0.081149
0.0804259
0.079853
0.0794219
0.0791246
0.0789534
0.0789016
0.0789619
0.0791269
0.0874769
0.0865327
0.0857068
0.0850005
0.0844114
0.0839379
0.0835778
0.0833267
0.0831814
0.0831385
0.0831947
0.0833464
0.09016
0.0894091
0.0887394
0.0881577
0.0876628
0.0872579
0.0869467
0.086729
0.0866029
0.0865661
0.086618
0.0867586
0.0924249
0.0918262
0.0912656
0.0907782
0.0903534
0.0899945
0.0897172
0.0895241
0.0894137
0.0893831
0.0894293
0.0895602
0.094354
0.0938836
0.0933872
0.0929772
0.0926124
0.0922787
0.0920229
0.0918478
0.0917502
0.0917308
0.0917653
0.0918869
0.0226002
0.026388
0.0288336
0.0313652
0.0344074
0.0380698
0.0423429
0.0471732
0.0524918
0.058222
0.0642802
0.0706223
0.0454753
0.0460916
0.0470417
0.0483803
0.0501567
0.0524059
0.0551456
0.0583732
0.062065
0.0661789
0.0706631
0.0755001
0.0581731
0.0586855
0.0594194
0.0604062
0.0616759
0.0632571
0.0651734
0.0674405
0.0700644
0.0730393
0.0763501
0.0800079
0.0672622
0.0677102
0.0683245
0.0691232
0.070124
0.0713444
0.0728006
0.0745063
0.0764722
0.0787035
0.0812018
0.0839911
0.0740966
0.0744982
0.0750344
0.0757146
0.0765484
0.0775451
0.0787142
0.080064
0.0816025
0.0833365
0.0852726
0.0874369
0.0793896
0.0797551
0.0802348
0.0808329
0.0815534
0.0824004
0.0833775
0.0844888
0.0857382
0.0871297
0.0886693
0.0903867
0.0835893
0.0839263
0.0843631
0.0849007
0.0855396
0.0862797
0.087121
0.088064
0.0891094
0.0902576
0.0915108
0.0928862
0.0869853
0.087299
0.0877024
0.0881939
0.0887714
0.0894315
0.0901728
0.0909918
0.0918883
0.0928586
0.093904
0.0950356
0.0897736
0.0900686
0.0904448
0.0908998
0.0914303
0.0920272
0.092693
0.0934162
0.0942018
0.0950368
0.0959265
0.0968759
0.0920883
0.0923677
0.0927204
0.0931425
0.093634
0.0941746
0.0947843
0.0954275
0.0961326
0.0968623
0.0976339
0.098441
0.0702703
0.0600539
0.0514981
0.0440854
0.037431
0.03148
0.0264835
0.0227374
0.0196145
0.016528
0.0132525
0.00954211
0.0753419
0.0677199
0.0616375
0.0567783
0.0522241
0.0476796
0.0430721
0.038428
0.0337355
0.0289125
0.0238479
0.018424
0.0813033
0.0762717
0.072032
0.0677853
0.0633897
0.0588032
0.0540008
0.0489464
0.0435997
0.0379143
0.03184
0.0253292
0.0875793
0.0837906
0.0799545
0.0758787
0.0715206
0.0668606
0.0618727
0.0565196
0.0507566
0.0445333
0.0377983
0.0305066
0.0931577
0.0897001
0.0860276
0.0820449
0.0777151
0.07301
0.0678943
0.0623248
0.056251
0.049615
0.0423586
0.0344225
0.097603
0.0943398
0.0907888
0.086888
0.082595
0.0778703
0.0726682
0.0669366
0.060615
0.0536382
0.0459366
0.0374411
0.101147
0.0980364
0.0945995
0.0907811
0.0865333
0.0818063
0.0765438
0.0706835
0.0641567
0.0568878
0.0487974
0.0398095
0.104001
0.101029
0.097704
0.0939692
0.0897705
0.0850517
0.0797453
0.0737787
0.0670753
0.0595494
0.0511142
0.0416876
0.106323
0.103486
0.100271
0.0966201
0.092468
0.0877658
0.0824278
0.076372
0.069512
0.0617557
0.0530059
0.0431795
0.108258
0.105532
0.102416
0.0988584
0.0947368
0.0900607
0.0847033
0.0785762
0.0715777
0.0636115
0.0545608
0.0443262
0.00528443
0.00203429
0.00185591
0.00248299
0.00326566
0.0044098
0.00605778
0.00815666
0.0107747
0.0139911
0.017892
0.0225838
0.0123502
0.00589769
0.00271899
0.00313924
0.00414172
0.00547838
0.00723366
0.00937069
0.01195
0.0150353
0.0187028
0.0230315
0.0181338
0.0100857
0.0042504
0.00391981
0.00512317
0.00662615
0.00847251
0.0106386
0.0131714
0.0161217
0.0195488
0.0235057
0.0224403
0.0134316
0.00601037
0.00479648
0.00613655
0.00777609
0.0096975
0.0118828
0.0143651
0.0171861
0.0204053
0.0241428
0.0256233
0.0158963
0.00761858
0.00572222
0.00713423
0.0088921
0.0108751
0.0130715
0.0155055
0.0182145
0.0212529
0.0246786
0.0280038
0.017693
0.00894723
0.00664492
0.00809723
0.00995496
0.0119889
0.0141914
0.016582
0.0191901
0.0220494
0.0251731
0.0298104
0.0190138
0.0100115
0.00753002
0.009017
0.0109557
0.0130319
0.0152384
0.0175884
0.0200999
0.0227867
0.0256498
0.0311946
0.0199965
0.0108673
0.00835944
0.00988544
0.0118898
0.0140019
0.0162103
0.0185207
0.0209393
0.0234678
0.0261081
0.0322466
0.0207326
0.0115892
0.00912518
0.0106914
0.0127584
0.0149033
0.0171091
0.0193787
0.0217097
0.0240959
0.0265409
0.0329003
0.0209537
0.0118653
0.00982449
0.0115099
0.0135712
0.0156863
0.0178862
0.0201454
0.0223997
0.0246475
0.0269336
0.00100847
0.00347266
0.00749379
0.0120224
0.0166776
0.0213481
0.0259484
0.0303686
0.0346259
0.0390501
0.0437521
0.0494201
0.000747924
0.00218602
0.00549247
0.00913312
0.0129134
0.0169173
0.0211783
0.025619
0.030137
0.0347328
0.0394931
0.0448932
0.000453517
0.00138673
0.00351677
0.00676724
0.0112847
0.0156497
0.0198678
0.0240375
0.0282161
0.0324589
0.0368858
0.0418276
0.000477652
0.0011325
0.00288546
0.00558911
0.00957658
0.0143478
0.0190851
0.0236373
0.0279119
0.0319205
0.0358487
0.0401082
0.000435409
0.00099009
0.00251574
0.00485227
0.00827583
0.0130409
0.0181462
0.023176
0.027941
0.0322324
0.0360164
0.0396765
0.00042668
0.00089685
0.002269
0.00437907
0.00747297
0.0118663
0.0171487
0.0225366
0.0277911
0.0326282
0.0367502
0.0402172
0.000414492
0.000829984
0.00208902
0.00403124
0.00687395
0.0109129
0.0161944
0.0218297
0.0274593
0.0328196
0.0375193
0.0412585
0.000409204
0.000782739
0.00195963
0.00377962
0.0064389
0.0102146
0.0153483
0.0211374
0.0270599
0.0328526
0.0381455
0.042501
0.000406094
0.000749751
0.00186727
0.00359891
0.00612396
0.00970449
0.0146452
0.0205174
0.0266714
0.0328137
0.0386144
0.0435793
0.000405853
0.000726886
0.00180202
0.00346965
0.00589626
0.00933139
0.0140933
0.0200007
0.0263463
0.0327783
0.038996
0.0445373
0.000407226
0.000711142
0.00175617
0.0033777
0.00573164
0.00905714
0.01367
0.0195823
0.0260932
0.0327741
0.0393284
0.0453096
0.000409659
0.000700234
0.00172406
0.00331242
0.00561291
0.00885564
0.0133492
0.0192461
0.0259086
0.0328202
0.0396664
0.0460154
0.000412457
0.00069221
0.00170052
0.00326434
0.00552494
0.00870494
0.0131042
0.0189689
0.0257739
0.0329164
0.0400495
0.0467673
0.000415176
0.000685604
0.00168143
0.00322556
0.00545435
0.00858439
0.0129076
0.0187252
0.025655
0.0330234
0.0404356
0.0474941
0.000417601
0.000679674
0.00166454
0.00319155
0.00539286
0.00847995
0.0127375
0.018495
0.0255226
0.0330992
0.0407669
0.0481126
0.000419666
0.000674086
0.00164899
0.0031606
0.00533757
0.00838719
0.012588
0.0182829
0.0253883
0.0331695
0.0411111
0.0488279
0.000421304
0.000668562
0.00163379
0.00313055
0.00528442
0.00829888
0.0124469
0.0180756
0.0252303
0.0331951
0.041379
0.0493519
0.000422531
0.000663087
0.00161877
0.00310101
0.00523249
0.00821331
0.0123116
0.0178744
0.0250539
0.0331914
0.04163
0.049933
0.000423367
0.000657686
0.00160386
0.00307143
0.00518065
0.00812813
0.0121771
0.0176714
0.024844
0.0331278
0.0418021
0.0503836
0.000423882
0.000652494
0.00158955
0.00304213
0.00512957
0.00804476
0.0120463
0.0174736
0.0246148
0.0330144
0.041909
0.0507859
0.000424135
0.00064747
0.00157575
0.00301313
0.00507911
0.00796267
0.0119181
0.01728
0.0243728
0.0328555
0.0419396
0.0510634
0.000424239
0.000642699
0.00156256
0.00298554
0.00503114
0.00788478
0.011797
0.0170979
0.0241357
0.0326803
0.0419417
0.0513267
0.000424249
0.000638254
0.00155009
0.00295945
0.00498562
0.00781066
0.0116815
0.0169236
0.0238997
0.0324786
0.0418821
0.0514612
0.000424268
0.000634308
0.00153889
0.00293587
0.00494424
0.00774298
0.0115758
0.0167641
0.0236805
0.0322829
0.0418228
0.0516241
0.00042434
0.000630868
0.00152903
0.00291497
0.0049073
0.00768207
0.0114798
0.016618
0.0234756
0.0320895
0.0417493
0.0517399
0.000424445
0.000627862
0.00152048
0.00289682
0.00487519
0.00762878
0.011395
0.0164872
0.0232877
0.0319018
0.0416678
0.0518333
0.00042455
0.000625157
0.00151293
0.00288102
0.00484746
0.00758296
0.011322
0.0163741
0.0231225
0.0317318
0.0415977
0.0519371
0.000424687
0.000622627
0.00150601
0.00286678
0.00482298
0.00754316
0.0112594
0.0162775
0.0229813
0.0315855
0.0415507
0.0520768
0.000424809
0.000620116
0.00149928
0.00285313
0.00480002
0.00750682
0.0112034
0.0161928
0.0228579
0.0314561
0.0415126
0.0522197
0.000424808
0.000617513
0.00149241
0.00283928
0.00477689
0.00747075
0.0111496
0.016114
0.0227467
0.0313388
0.0414752
0.0523328
0.000424712
0.000614896
0.00148543
0.00282503
0.00475277
0.00743303
0.0110937
0.016034
0.0226371
0.0312252
0.041439
0.0524375
0.000424586
0.000612369
0.00147855
0.00281082
0.00472825
0.00739387
0.0110343
0.0159485
0.0225207
0.0311048
0.0414088
0.0525845
0.000424421
0.000609971
0.001472
0.00279708
0.00470408
0.00735423
0.0109723
0.0158547
0.0223849
0.0309429
0.0413176
0.0526668
0.000424149
0.000607683
0.00146578
0.0027841
0.0046812
0.00731666
0.0109131
0.015763
0.0222451
0.0307506
0.0411374
0.0525551
0.000423829
0.00060555
0.00145987
0.00277176
0.0046596
0.00728141
0.0108581
0.0156798
0.0221219
0.0305869
0.040999
0.0525257
0.000423509
0.000603651
0.00145448
0.00276046
0.00463955
0.00724849
0.0108065
0.015602
0.0220089
0.0304412
0.0408903
0.052576
0.000423202
0.000602037
0.00144984
0.00275044
0.00462138
0.00721793
0.0107578
0.0155271
0.0218977
0.0302921
0.0407599
0.0525546
0.000422949
0.000600807
0.00144615
0.00274218
0.00460594
0.00719146
0.0107147
0.015459
0.021793
0.0301433
0.0406096
0.0524828
0.000422821
0.000599978
0.00144347
0.00273595
0.00459388
0.00717018
0.0106794
0.0154031
0.0217067
0.0300198
0.040485
0.0524319
0.000422813
0.000599699
0.00144213
0.00273204
0.00458538
0.007154
0.0106511
0.0153566
0.0216347
0.0299204
0.0404005
0.0524485
0.000422878
0.000599929
0.00144219
0.0027308
0.00458104
0.00714386
0.0106311
0.0153207
0.021575
0.0298332
0.0403251
0.0524752
0.000423045
0.00060067
0.00144361
0.00273218
0.00458118
0.00714044
0.0106203
0.0152966
0.0215289
0.0297582
0.0402517
0.0524833
0.000423303
0.000601824
0.00144625
0.00273622
0.00458598
0.00714468
0.0106209
0.0152884
0.0215037
0.0297085
0.0402028
0.0525125
0.000423636
0.000603422
0.00145013
0.0027426
0.0045949
0.00715575
0.0106328
0.0152975
0.0215032
0.0296908
0.040187
0.0525674
0.000424025
0.000605452
0.00145511
0.00275095
0.00460702
0.00717219
0.0106537
0.015322
0.0215283
0.029713
0.0402247
0.0526619
0.000424502
0.00060801
0.00146125
0.00276129
0.00462209
0.00719274
0.0106806
0.0153562
0.0215707
0.0297678
0.0403281
0.0528671
0.000425045
0.000611192
0.00146889
0.00277404
0.0046404
0.00721715
0.0107115
0.0153944
0.0216175
0.0298298
0.0404541
0.053182
0.000425566
0.000615073
0.0014782
0.00278959
0.00466262
0.00724633
0.0107473
0.0154356
0.021662
0.0298763
0.0405272
0.0533504
0.000426063
0.000619735
0.00148945
0.00280873
0.00469037
0.0072831
0.0107925
0.0154869
0.0217157
0.0299286
0.0406048
0.0535612
0.000426555
0.000625103
0.00150259
0.00283166
0.00472455
0.00732973
0.0108513
0.0155556
0.0217881
0.0299953
0.0406771
0.0537414
0.000426957
0.000631154
0.00151755
0.0028581
0.0047648
0.00738616
0.0109252
0.0156458
0.0218896
0.0300971
0.0407766
0.0539197
0.000427237
0.000637844
0.00153419
0.00288764
0.00481031
0.00745133
0.0110132
0.0157582
0.0220246
0.0302477
0.0409424
0.0541701
0.000427423
0.000645238
0.00155252
0.00292016
0.00486047
0.00752343
0.0111119
0.0158877
0.0221877
0.0304438
0.0411793
0.0545328
0.000427474
0.00065362
0.0015728
0.00295567
0.00491474
0.00760103
0.0112174
0.0160264
0.0223647
0.0306637
0.0414494
0.0548813
0.00042723
0.000662681
0.00159491
0.00299459
0.0049742
0.0076849
0.0113298
0.0161712
0.0225466
0.0308909
0.0417535
0.0554268
0.000426684
0.000672839
0.00161978
0.00303815
0.00504021
0.00777746
0.0114524
0.0163252
0.0227305
0.0310991
0.0419792
0.0557815
0.000425885
0.000684059
0.00164701
0.0030859
0.0051133
0.00788107
0.01159
0.0164977
0.0229335
0.0313197
0.0421944
0.0560425
0.000424704
0.000696213
0.00167651
0.00313832
0.00519458
0.00799737
0.0117466
0.0166976
0.0231746
0.03159
0.0424655
0.0563284
0.000423075
0.00070957
0.00170884
0.00319541
0.00528272
0.00812406
0.0119196
0.0169233
0.0234567
0.0319256
0.0428408
0.0567558
0.000420936
0.000724326
0.00174405
0.0032568
0.00537718
0.00825955
0.012104
0.0171648
0.0237623
0.0323004
0.0432869
0.0572919
0.00041817
0.00074062
0.00178269
0.003324
0.00547995
0.00840507
0.0122991
0.0174155
0.0240743
0.0326807
0.0437516
0.0579216
0.000414753
0.000758997
0.00182573
0.00339828
0.00559259
0.00856307
0.012508
0.0176776
0.0243874
0.0330356
0.0441277
0.058287
0.000410524
0.000779396
0.00187333
0.00348089
0.00571871
0.00874022
0.0127416
0.0179687
0.0247292
0.0334091
0.0444972
0.0586158
0.00040538
0.000802351
0.00192662
0.00357331
0.00585974
0.00893898
0.0130052
0.0182999
0.0251213
0.0338379
0.0449023
0.058847
0.000399271
0.00082824
0.00198589
0.00367551
0.00601605
0.00916031
0.0133005
0.0186746
0.0255752
0.0343629
0.0454854
0.059506
0.000392191
0.000857188
0.00205115
0.00378812
0.00618815
0.00940316
0.0136234
0.0190825
0.0260663
0.0349242
0.0460835
0.0600664
0.000384695
0.000890424
0.0021244
0.00391333
0.00637823
0.00966957
0.0139755
0.0195251
0.0265962
0.0355285
0.0467416
0.0607667
0.000378286
0.000929214
0.00220706
0.00405328
0.00658949
0.00996404
0.0143606
0.0200021
0.0271567
0.0361479
0.0473742
0.0613306
0.000375162
0.000975492
0.00230218
0.00421308
0.00682933
0.0102954
0.0147898
0.0205268
0.0277623
0.0368039
0.0480313
0.0619341
0.000378619
0.00103243
0.00241458
0.00439999
0.0071071
0.0106757
0.0152773
0.0211146
0.0284279
0.0375031
0.0486889
0.0624208
0.000363737
0.0011001
0.00255284
0.00463057
0.0074453
0.0111326
0.0158543
0.0218001
0.0291914
0.0382926
0.0494326
0.0630407
0.000276916
0.00117584
0.00272965
0.00493229
0.00788646
0.0117182
0.0165782
0.0226411
0.0301033
0.0392066
0.0502491
0.0636209
0.000255827
0.00127659
0.00296826
0.0053479
0.00850477
0.0125467
0.0175964
0.0237937
0.0313102
0.0403778
0.0512724
0.0643869
0.000285299
0.00146433
0.00338814
0.00605774
0.00952874
0.0138842
0.0192144
0.0256112
0.0331899
0.0421257
0.0527144
0.0654083
0.000384132
0.00215818
0.00473275
0.00802387
0.0120327
0.0168206
0.0224661
0.0290263
0.0365544
0.0451749
0.0551735
0.0670665
0.00107112
0.00435098
0.00850402
0.0132965
0.0186375
0.0244677
0.0307258
0.0373501
0.0442751
0.0514288
0.0587521
0.0662161
0.000220415
0.00196181
0.00487757
0.00868173
0.0133291
0.0187631
0.0249124
0.0316725
0.0389312
0.0465664
0.0544574
0.0625009
0.000621105
0.00177496
0.00409934
0.00723348
0.0112057
0.0160204
0.0216636
0.0280837
0.0351931
0.0428692
0.0509651
0.0593451
0.000633655
0.00157098
0.00358815
0.00632535
0.00984461
0.0141931
0.0194
0.0254601
0.0323231
0.0398901
0.0480156
0.0565284
0.000649841
0.0013727
0.00316311
0.0056184
0.00881143
0.0128079
0.0176619
0.0233991
0.0300023
0.0374009
0.0454654
0.0540184
0.000656515
0.00122509
0.0028449
0.0050849
0.00802406
0.0117368
0.0162925
0.0217385
0.0280846
0.0352878
0.0432415
0.0517817
0.000659794
0.00111712
0.00260304
0.00467175
0.00740549
0.0108827
0.0151827
0.0203683
0.0264704
0.0334706
0.0412871
0.0497752
0.00066147
0.00103323
0.00240955
0.0043371
0.00690018
0.0101785
0.0142575
0.0192115
0.0250874
0.0318877
0.0395541
0.0479612
0.000663028
0.000965706
0.00225029
0.00405898
0.00647764
0.00958514
0.0134715
0.0182187
0.0238862
0.0304941
0.0380045
0.0463109
0.00066446
0.000910298
0.00211686
0.00382402
0.00611864
0.00907796
0.0127946
0.0173563
0.022833
0.0292602
0.0366217
0.0448479
0.000665681
0.000863987
0.00200306
0.00362205
0.005809
0.00863822
0.0122041
0.0165992
0.0219013
0.0281584
0.0353702
0.0434687
0.000666715
0.000824673
0.00190484
0.00344699
0.00553831
0.00825224
0.0116835
0.0159277
0.021069
0.0271651
0.0342279
0.0422004
0.00066764
0.000790976
0.00181928
0.00329374
0.0052992
0.00791011
0.0112201
0.015327
0.02032
0.026265
0.0331864
0.0410529
0.000668554
0.000762834
0.00174399
0.00315805
0.00508612
0.00760422
0.0108043
0.0147857
0.0196415
0.0254444
0.032229
0.0399708
0.000670464
0.000747243
0.00167711
0.00303676
0.00489471
0.00732869
0.0104286
0.0142947
0.0190231
0.0246926
0.0313467
0.0389746
0.00067404
0.000745945
0.00161726
0.00292753
0.0047216
0.00707893
0.0100872
0.0138472
0.018458
0.0240047
0.0305448
0.0381047
0.000678534
0.000751053
0.00156347
0.00282856
0.00456408
0.00685125
0.00977521
0.0134373
0.0179388
0.023369
0.0297887
0.0371917
0.000683045
0.000757094
0.00151493
0.00273837
0.00441996
0.00664262
0.00948884
0.0130602
0.0174597
0.0227806
0.029092
0.0364296
0.000687145
0.000762219
0.00147092
0.00265577
0.00428751
0.00645063
0.00922489
0.0127118
0.0170154
0.0222314
0.0284289
0.0356109
0.000690762
0.000766193
0.00143092
0.00258011
0.0041662
0.00627326
0.00898055
0.0123884
0.0166018
0.0217178
0.0278103
0.0349149
0.000693952
0.000769169
0.00139446
0.00251061
0.0040545
0.00610882
0.00875354
0.0120874
0.0162156
0.0212377
0.0272346
0.0342575
0.000696773
0.000771346
0.00136134
0.00244656
0.0039511
0.00595591
0.00854199
0.0118063
0.0158546
0.0207894
0.0266994
0.0336543
0.000699311
0.000773151
0.00133313
0.00238734
0.00385497
0.00581319
0.00834431
0.0115434
0.0155168
0.02037
0.0261977
0.0330711
0.000701772
0.000775831
0.00131596
0.00233261
0.00376528
0.00567965
0.00815915
0.011297
0.0152001
0.0199762
0.0257233
0.0325106
0.000704371
0.000780516
0.00131189
0.00228221
0.00368141
0.0055544
0.00798536
0.0110656
0.0149024
0.019605
0.0252725
0.0319718
0.000707186
0.000787089
0.00131578
0.00223588
0.00360286
0.00543673
0.00782195
0.0108477
0.0146215
0.019253
0.0248409
0.0314481
0.000710136
0.000794613
0.00132232
0.0021932
0.00352916
0.0053259
0.00766798
0.0106423
0.014356
0.0189193
0.0244336
0.0309802
0.000713078
0.000802102
0.00132865
0.00215367
0.00345988
0.00522135
0.00752263
0.0104481
0.0141046
0.0186032
0.024048
0.0305231
0.000715913
0.000809021
0.00133368
0.00211682
0.00339477
0.00512309
0.00738514
0.0102643
0.0138665
0.0183032
0.0236795
0.030074
0.000718556
0.000815108
0.00133724
0.00208241
0.00333355
0.00503073
0.0072551
0.01009
0.0136401
0.0180167
0.0233233
0.0296297
0.000721041
0.000820519
0.00133944
0.00205026
0.00327598
0.00494351
0.00713171
0.00992436
0.0134246
0.0177437
0.022988
0.0292547
0.000723439
0.000825194
0.00134041
0.00202003
0.00322169
0.00486103
0.0070145
0.00976677
0.0132193
0.0174837
0.0226682
0.0288642
0.000725673
0.000829261
0.00134038
0.00199161
0.00317041
0.00478276
0.00690292
0.00961662
0.0130236
0.0172355
0.0223608
0.0284857
0.000727746
0.000832766
0.00133953
0.00196489
0.00312176
0.00470834
0.00679668
0.00947343
0.0128366
0.0169969
0.0220607
0.0281023
0.000729725
0.000835962
0.00133812
0.00194018
0.00307569
0.00463756
0.00669527
0.00933651
0.0126576
0.0167693
0.0217826
0.0278121
0.000731704
0.000838856
0.00133649
0.0019187
0.00303201
0.00457007
0.00659832
0.0092056
0.0124862
0.0165506
0.021507
0.02743
0.000733615
0.000841585
0.00133549
0.00190307
0.00299071
0.00450572
0.00650569
0.00908035
0.0123222
0.0163417
0.0212526
0.0271873
0.000735485
0.000844499
0.00133617
0.00189528
0.00295197
0.00444432
0.00641712
0.00896049
0.0121654
0.0161424
0.0210078
0.0268675
0.000737416
0.000847802
0.00133907
0.00189441
0.00291583
0.0043858
0.00633236
0.00884582
0.0120152
0.0159519
0.0207728
0.0265928
0.000739473
0.000851699
0.00134413
0.00189792
0.00288218
0.00432998
0.00625136
0.0087361
0.0118718
0.0157696
0.0205457
0.026305
0.000741607
0.000855974
0.00135077
0.00190352
0.00285077
0.00427685
0.00617437
0.00863124
0.0117345
0.0155946
0.0203271
0.0260347
0.000743812
0.000860671
0.00135833
0.00190976
0.00282148
0.00422639
0.00610105
0.00853069
0.0116028
0.0154263
0.0201155
0.0257694
0.000746166
0.000865472
0.00136616
0.00191575
0.00279403
0.00417841
0.00603104
0.00843447
0.0114766
0.0152645
0.0199115
0.0255191
0.000748547
0.000870252
0.00137387
0.00192111
0.00276811
0.00413269
0.00596416
0.00834234
0.0113552
0.0151087
0.0197168
0.025289
0.000750943
0.000874871
0.00138122
0.00192571
0.00274368
0.00408923
0.00590039
0.00825382
0.0112384
0.0149588
0.0195295
0.025059
0.000753303
0.000879251
0.00138803
0.00192953
0.0027205
0.00404759
0.00583898
0.00816873
0.0111264
0.014815
0.0193478
0.024827
0.000755694
0.000883439
0.00139426
0.00193249
0.00269857
0.0040081
0.00578042
0.0080873
0.0110187
0.0146764
0.0191747
0.0246301
0.000758065
0.000887329
0.00139994
0.00193477
0.0026776
0.00397015
0.00572411
0.00800889
0.0109153
0.0145437
0.0190095
0.0244289
0.000760455
0.000891047
0.00140502
0.00193643
0.00265791
0.00393413
0.00567047
0.00793391
0.0108161
0.0144168
0.0188517
0.0242366
0.000762952
0.000894572
0.00140964
0.00193751
0.00263932
0.00389995
0.0056193
0.00786207
0.0107212
0.014295
0.0186978
0.024036
0.000765448
0.000898011
0.00141398
0.00193828
0.002622
0.00386711
0.00557007
0.00779332
0.0106305
0.0141782
0.0185501
0.0238557
0.000767946
0.000901155
0.00141782
0.00193883
0.00260672
0.00383607
0.00552337
0.00772779
0.0105436
0.0140663
0.0184091
0.0236847
0.000770536
0.000904223
0.00142144
0.00193946
0.00259409
0.00380683
0.00547894
0.00766501
0.0104605
0.0139593
0.0182746
0.0235204
0.000773211
0.000907367
0.00142514
0.00194068
0.00258501
0.00377904
0.00543632
0.00760516
0.0103814
0.0138572
0.0181449
0.0233516
0.000775892
0.00091029
0.00142878
0.00194287
0.00258026
0.0037534
0.00539624
0.00754859
0.010306
0.0137595
0.0180212
0.0231989
0.000778748
0.000913475
0.00143285
0.00194624
0.00257915
0.00372936
0.00535807
0.00749479
0.0102342
0.0136664
0.0179005
0.0230324
0.000781788
0.000916701
0.00143733
0.00195104
0.00258146
0.00370759
0.00532244
0.00744436
0.010166
0.0135778
0.017788
0.0229131
0.000784947
0.000920155
0.00144243
0.00195708
0.00258599
0.00368785
0.00528919
0.00739687
0.0101017
0.0134941
0.0176831
0.0227885
0.000788253
0.000923844
0.00144821
0.00196419
0.00259181
0.00366969
0.00525799
0.00735241
0.0100415
0.0134158
0.0175843
0.0226592
0.000791734
0.000927627
0.00145427
0.00197203
0.00259867
0.00365359
0.00522933
0.00731108
0.00998493
0.0133423
0.0174901
0.0225374
0.000795555
0.000931659
0.00146079
0.00198034
0.00260589
0.00363932
0.00520308
0.00727285
0.00993262
0.0132743
0.0174068
0.0224628
0.000799582
0.000935937
0.00146775
0.00198903
0.00261322
0.00362655
0.00517908
0.00723793
0.00988481
0.0132121
0.0173269
0.0223338
0.000803818
0.000940194
0.00147474
0.00199786
0.00262081
0.00361577
0.00515793
0.00720662
0.00984148
0.0131561
0.0172611
0.0223063
0.000808396
0.000944621
0.00148188
0.00200665
0.0026282
0.00360657
0.00513925
0.00717883
0.00980335
0.0131073
0.0172
0.0221853
0.000813303
0.000949136
0.00148904
0.00201548
0.00263581
0.00359948
0.00512374
0.0071554
0.00977063
0.0130648
0.0171435
0.0221112
0.000818555
0.00095374
0.00149629
0.00202423
0.00264343
0.00359454
0.00511164
0.00713639
0.00974377
0.0130293
0.0170973
0.0220606
0.000824302
0.000958681
0.00150373
0.00203305
0.00265118
0.00359169
0.00510288
0.00712229
0.00972348
0.0130017
0.017056
0.0219635
0.000830653
0.000963536
0.00151097
0.00204185
0.00265938
0.00359168
0.00509853
0.0071141
0.00971041
0.0129821
0.0170242
0.0219323
0.000837709
0.000968637
0.00151835
0.00205067
0.00266795
0.00359485
0.00509913
0.00711246
0.00970565
0.0129725
0.017007
0.0219205
0.000845625
0.00097417
0.00152616
0.00205986
0.00267723
0.00360166
0.00510553
0.00711884
0.00971112
0.0129755
0.0170071
0.0219222
0.00085463
0.000979682
0.00153384
0.0020693
0.00268764
0.00361337
0.0051194
0.00713501
0.00972868
0.0129933
0.017024
0.0219284
0.000865399
0.000986923
0.00154334
0.00208021
0.00270012
0.00363285
0.00514418
0.00716494
0.00976295
0.0130305
0.0170629
0.0219827
0.000875845
0.000988133
0.00154807
0.00208829
0.00271169
0.00365498
0.00517595
0.00720636
0.0098131
0.0130882
0.0171278
0.0220505
0.000932902
0.00103236
0.00158056
0.00211911
0.00274737
0.00372602
0.00526348
0.00730518
0.00991919
0.0131966
0.0172347
0.0221489
0.000285759
0.000835782
0.00151432
0.00205793
0.00267977
0.00365866
0.00520535
0.0072633
0.00990117
0.013213
0.0172933
0.0222379
0.138354
0.111365
0.12624
0.140079
0.104847
0.139235
0.10063
0.171436
0.0492068
0.135619
0.137884
0.129885
0.13508
0.0475418
0.147815
0.0819565
0.137613
0.051156
0.0720597
0.0541126
0.0741232
0.137053
0.0973608
0.118477
0.191329
0.139785
0.0361465
0.36396
0.10653
0.121167
0.120446
0.105845
0.108468
0.135351
0.131734
0.076607
0.092433
0.0580073
0.162253
0.126117
0.138066
0.116257
0.122468
0.119474
0.0874634
0.138353
0.139219
0.13306
0.140042
0.140537
0.1654
0.0565125
0.130976
0.132114
0.136552
0.0753882
0.138507
0.138707
0.0823789
0.133726
0.135952
0.129845
0.0577972
0.139564
0.109665
0.13638
0.133417
0.137817
0.13824
0.110581
0.124842
0.100353
0.0918196
0.138207
0.144305
0.103109
0.115026
0.128781
0.137509
0.140092
0.129804
0.107619
0.139028
0.130109
0.0538596
0.114552
0.136751
0.141024
0.135258
0.137755
0.0813599
0.106902
0.135887
0.107125
0.111415
0.150604
0.064637
0.113834
0.140081
0.0672734
0.105759
0.125244
0.110208
0.109954
0.137111
0.0989325
0.138502
0.134817
0.137444
0.173068
0.139999
0.106456
0.0672092
0.0382614
0.116491
0.139949
0.0826179
0.134403
0.0983608
0.108619
0.124742
0.132646
0.0455807
0.132113
0.114122
0.134038
0.140103
0.0960778
0.0640179
0.135517
0.141335
0.104638
0.107492
0.122232
0.061772
0.108143
0.0793141
0.137548
0.113639
0.138528
0.0745991
0.0976891
0.0985198
0.130751
0.137821
0.0978536
0.136464
0.136822
0.140188
0.0723833
0.099664
0.139057
0.102575
0.134192
0.0344653
0.133492
0.137617
0.0357131
0.12195
0.137747
0.100668
0.0751277
0.138674
0.089529
0.120699
0.140002
0.137938
0.0491512
0.0738548
0.116256
0.0911878
0.137751
0.112862
0.134838
0.138145
0.0919414
0.100188
0.122932
0.130037
0.262772
0.100685
0.135799
0.084405
0.125605
0.140009
0.138795
0.155507
0.0187943
0.0912607
0.129197
0.0538407
0.0520192
0.13063
0.131696
0.120839
0.105904
0.134662
0.097536
0.0536531
0.139639
0.128236
0.150692
0.133516
0.107689
0.133124
0.122093
0.138911
0.0889884
0.133355
0.138889
0.113663
0.0873978
0.0633559
0.108748
0.122114
0.137918
0.129122
0.0827493
0.0778432
0.133473
0.082049
0.12491
0.178802
0.139426
0.136268
0.0939114
0.126442
0.047601
0.187423
0.144917
0.136437
0.0439517
0.104052
0.0495097
0.0554515
0.051368
0.137422
0.135953
0.173314
0.0775523
0.111205
0.0924702
0.0913764
0.136648
0.0709504
0.101607
0.0599532
0.0545321
0.139938
0.268523
0.137868
0.122857
0.0935348
0.139152
0.140091
0.0780452
0.061706
0.116829
0.138736
0.0699004
0.137585
0.0666581
0.0509128
0.141616
0.0404932
0.122398
0.0906821
0.13137
0.0649558
0.0777171
0.0929893
0.134097
0.13627
0.0991331
0.140095
0.0796693
0.139566
0.027934
0.120114
0.0690968
0.0329686
0.0481087
0.138895
0.0983023
0.140016
0.156478
0.139885
0.0810983
0.0934134
0.0903947
0.206477
0.139969
0.0952716
0.123217
0.129869
0.115187
0.110355
0.138426
0.0561444
0.123452
0.122555
0.0899508
0.138764
0.109953
0.137902
0.1397
0.0845743
0.131323
0.110601
0.0927779
0.0407984
0.086326
0.109879
0.135432
0.120888
0.0935799
0.0905209
0.0996143
0.136092
0.117114
0.148319
0.113289
0.0716413
0.138461
0.0930315
0.13653
0.118388
0.112811
0.129579
0.12063
0.131694
0.0563078
0.340372
0.0576753
0.134898
0.116253
0.136893
0.139992
0.171469
0.12159
0.0318459
0.0890227
0.0775085
0.116278
0.120126
0.137368
0.0665478
0.16293
0.0912041
0.10371
0.0909259
0.134716
0.0646032
0.0570424
0.133827
0.0650264
0.115316
0.125146
0.136157
0.0966021
0.065355
0.138645
0.187108
0.129832
0.099294
0.164222
0.137635
0.129391
0.139735
0.0339987
0.134296
0.123777
0.13962
0.120519
0.0709557
0.335427
0.134709
0.134055
0.105257
0.0937309
0.0869087
0.0887042
0.132814
0.056637
0.114774
0.086545
0.115089
0.0529817
0.139361
0.060314
0.0889968
0.103887
0.161534
0.130061
0.138973
0.105967
0.150824
0.101444
0.134891
0.107173
0.138021
0.136949
0.137956
0.0914537
0.123382
0.0784916
0.143862
0.0445468
0.161629
0.134045
0.350755
0.0813697
0.128593
0.162073
0.101513
0.0798262
0.0543236
0.0654692
0.0375824
0.0955524
0.125448
0.0304626
0.0352749
0.0653449
0.123874
0.134642
0.0391813
0.113914
0.137682
0.0919301
0.0818092
0.134632
0.130186
0.138897
0.113097
0.134712
0.078201
0.137532
0.13659
0.095889
0.123339
0.0737837
0.13737
0.133122
0.13016
0.140332
0.13922
0.101075
0.0927171
0.0509259
0.0887048
0.106381
0.114139
0.144447
0.126219
0.136003
0.346216
0.0429827
0.156475
0.131867
0.057827
0.136201
0.13837
0.143947
0.138291
0.15545
0.132174
0.0858537
0.32239
0.027404
0.137671
0.165783
0.101553
0.134325
0.136331
0.123381
0.306564
0.136229
0.141389
0.123727
0.138005
0.086839
0.12241
0.117243
0.0656665
0.115061
0.100649
0.0651721
0.11761
0.140088
0.137238
0.137342
0.128001
0.142963
0.154748
0.150024
0.135973
0.135553
0.0501814
0.117692
0.115441
0.13734
0.119312
0.102986
0.133667
0.112398
0.0557916
0.0871313
0.031623
0.0860799
0.111883
0.139116
0.133823
0.11492
0.163919
0.0452622
0.0847305
0.0653069
0.139831
0.0294741
0.0891032
0.0607018
0.139296
0.136457
0.132086
0.137068
0.091206
0.137145
0.031541
0.0418378
0.137882
0.070264
0.138428
0.139831
0.103525
0.139964
0.120405
0.108902
0.0589691
0.0276299
0.111572
0.153024
0.0709998
0.143297
0.140059
0.11169
0.202644
0.13614
0.131204
0.0628147
0.0683713
0.110314
0.0436701
0.13418
0.138032
0.122919
0.106441
0.0415983
0.119731
0.132498
0.136971
0.0847525
0.0721094
0.128135
0.137194
0.114529
0.105542
0.124508
0.139603
0.138589
0.135145
0.13619
0.136309
0.127778
0.13975