/*--------------------------------*- C++ -*----------------------------------*\
| =========                 |                                                 |
| \\      /  F ield         | OpenFOAM: The Open Source CFD Toolbox           |
|  \\    /   O peration     | Version:  2.3.0                                 |
|   \\  /    A nd           | Web:      www.OpenFOAM.org                      |
|    \\/     M anipulation  |                                                 |
\*---------------------------------------------------------------------------*/
FoamFile
{
    version     2.0;
    format      ascii;
    class       volVectorField;
    location    "6000";
    object      U;
}
// * * * * * * * * * * * * * * * * * * * * * * * * * * * * * * * * * * * * * //

dimensions      [0 1 -1 0 0 0 0];

internalField   nonuniform List<vector> 
6710
(
(21.9649 9.70718 -2.24386e-21)
(21.6822 10.6115 2.37167e-21)
(21.3365 11.5345 1.4013e-19)
(20.8487 12.41 -9.15056e-20)
(20.1533 13.1888 5.08752e-20)
(19.2171 13.8486 7.8483e-20)
(18.0386 14.3876 -1.19241e-19)
(16.6353 14.8028 -6.58179e-20)
(15.0408 15.0871 0)
(13.3219 15.2783 -1.09258e-18)
(11.5678 15.4546 1.06905e-18)
(9.80641 15.4436 -2.13789e-18)
(21.1547 9.20675 -6.79981e-19)
(20.7038 9.79617 3.9285e-19)
(20.1999 10.3757 4.45611e-19)
(19.6468 10.9267 9.78604e-19)
(19.0429 11.4211 -1.38034e-18)
(18.3888 11.8291 7.13783e-20)
(17.69 12.1249 0)
(16.9579 12.2884 6.29094e-20)
(16.2118 12.3073 0)
(15.4775 12.1787 0)
(14.7728 11.9082 -2.49307e-18)
(14.0995 11.5072 5.19177e-18)
(20.6756 8.78591 3.58234e-19)
(20.2481 9.18695 -8.17058e-19)
(19.7679 9.53863 5.81212e-19)
(19.2462 9.84326 -2.89548e-19)
(18.6891 10.0905 9.46974e-19)
(18.1064 10.2748 1.899e-20)
(17.5098 10.3914 1.77489e-19)
(16.9127 10.4373 -1.60195e-18)
(16.3297 10.4124 -1.94942e-18)
(15.7759 10.3195 1.92196e-18)
(15.265 10.1639 0)
(14.8095 9.95157 -1.3422e-18)
(20.3231 8.36551 -8.41111e-19)
(19.9315 8.66605 -1.05815e-18)
(19.5137 8.90768 1.24808e-19)
(19.0795 9.10693 1.5026e-18)
(18.6339 9.25654 3.2901e-19)
(18.1826 9.35436 0)
(17.7315 9.39913 0)
(17.2875 9.39086 0)
(16.8575 9.33113 -2.58606e-19)
(16.4486 9.22323 0)
(16.0672 9.07201 0)
(15.7189 8.88374 3.08839e-19)
(20.0825 7.99702 -1.91027e-20)
(19.7292 8.20405 -1.22871e-18)
(19.3628 8.36968 1.23991e-18)
(18.9862 8.49941 1.49368e-18)
(18.6043 8.59124 -1.49832e-18)
(18.2211 8.64437 -2.16843e-19)
(17.841 8.65861 0)
(17.4685 8.6345 -2.05578e-18)
(17.1084 8.5732 2.3285e-18)
(16.7655 8.4769 1.17183e-18)
(16.444 8.34873 -8.736e-19)
(16.1477 8.19263 -1.62563e-19)
(19.9087 7.67697 5.66506e-19)
(19.5979 7.81248 0)
(19.2825 7.93393 0)
(18.9604 8.0229 3.93677e-19)
(18.6354 8.08206 4.40499e-19)
(18.3098 8.11065 -6.47673e-19)
(17.9863 8.1087 2.42842e-19)
(17.6677 8.07646 0)
(17.3575 8.01471 0)
(17.0593 7.92483 0)
(16.7766 7.80895 9.68986e-19)
(16.5124 7.66969 -9.66904e-19)
(19.7853 7.38955 0)
(19.5106 7.48772 -7.31817e-19)
(19.2354 7.57631 7.34346e-19)
(18.9543 7.63876 -3.98323e-19)
(18.6702 7.67793 4.28321e-19)
(18.3845 7.69282 9.5838e-19)
(18.0994 7.68299 -2.23727e-18)
(17.8169 7.64809 1.03421e-18)
(17.5394 7.58832 0)
(17.2702 7.50454 0)
(17.0124 7.39828 -1.30676e-18)
(16.7693 7.27145 1.33696e-18)
(19.6955 7.14476 -3.40183e-19)
(19.4557 7.21433 3.9001e-19)
(19.2137 7.27951 -7.72197e-19)
(18.965 7.32441 0)
(18.7126 7.35071 -9.2205e-19)
(18.457 7.35717 4.49747e-19)
(18.2008 7.34327 0)
(17.9457 7.30768 0)
(17.6931 7.24999 0)
(17.4452 7.17065 1.24869e-18)
(17.205 7.07105 -1.26553e-18)
(16.9763 6.95301 3.42963e-19)
(19.6269 6.92736 0)
(19.4149 6.98024 3.82403e-19)
(19.2025 7.03036 4.02507e-19)
(18.9796 7.06368 0)
(18.7521 7.08152 4.62644e-19)
(18.5192 7.08219 -1.00055e-18)
(18.2841 7.0667 -5.65514e-19)
(18.0501 7.03245 1.90055e-18)
(17.8169 6.97775 -8.56384e-19)
(17.5858 6.9019 0)
(17.3585 6.80624 0)
(17.1396 6.6946 3.40436e-19)
(19.5599 6.74348 -4.10207e-19)
(19.3774 6.78554 1.59664e-20)
(19.1915 6.82484 -1.28055e-18)
(18.9893 6.84755 -2.00384e-20)
(18.7836 6.86015 5.60854e-21)
(18.5709 6.85481 5.18443e-19)
(18.3506 6.83708 1.00014e-20)
(18.1318 6.80534 -2.61842e-19)
(17.9129 6.75569 -1.45485e-18)
(17.6946 6.68524 -6.00292e-21)
(17.4787 6.59126 6.58118e-19)
(17.2665 6.48377 -1.02027e-18)
(8.03902 14.6346 -9.55393e-19)
(7.67083 13.2187 3.13447e-18)
(7.6847 11.8618 -2.65698e-19)
(7.91376 10.5744 0)
(8.3022 9.35611 -3.32375e-19)
(8.80896 8.20491 7.65839e-19)
(9.39844 7.13828 -1.36094e-18)
(10.0347 6.17467 1.58318e-18)
(10.6845 5.3292 -1.55944e-18)
(11.3225 4.60796 -3.13278e-18)
(11.9333 3.98977 2.81193e-18)
(12.51 3.42012 4.60232e-18)
(13.4576 11.0008 -2.70859e-18)
(12.9263 10.3881 0)
(12.5159 9.70875 -1.49011e-18)
(12.2202 8.99818 1.81948e-18)
(12.0304 8.27933 8.21937e-19)
(11.9413 7.5698 1.29818e-18)
(11.9482 6.88288 -6.21465e-19)
(12.045 6.22689 -1.33075e-18)
(12.223 5.60622 1.33372e-18)
(12.4703 5.02291 -2.58463e-18)
(12.7709 4.46641 2.46431e-18)
(13.1132 3.90916 -2.33282e-18)
(14.4087 9.68506 1.21112e-18)
(14.0545 9.35411 -1.73977e-19)
(13.749 8.95717 -1.60496e-18)
(13.4999 8.50634 1.88917e-18)
(13.3124 8.01285 -5.04166e-19)
(13.1892 7.48776 4.88281e-20)
(13.1306 6.94227 -5.40118e-19)
(13.1343 6.38789 5.51803e-19)
(13.1962 5.83622 -3.68723e-20)
(13.3104 5.29815 2.51741e-20)
(13.4699 4.77504 -2.22547e-18)
(13.673 4.25661 6.2034e-18)
(15.4009 8.66201 1.37676e-18)
(15.1057 8.40213 2.4879e-19)
(14.8353 8.10198 -2.10824e-18)
(14.5959 7.76635 0)
(14.3926 7.40047 -4.36084e-19)
(14.2291 7.00992 9.633e-19)
(14.1084 6.6003 -9.91478e-19)
(14.0321 6.17717 5.0924e-19)
(14.0011 5.74601 -2.10579e-18)
(14.0149 5.31237 1.08263e-18)
(14.0717 4.87605 -2.07862e-18)
(14.1742 4.4286 -2.11763e-20)
(15.8747 8.01052 0)
(15.6202 7.79917 3.58774e-19)
(15.3854 7.557 -3.9091e-19)
(15.1746 7.28688 8.01094e-19)
(14.9911 6.99204 4.40922e-19)
(14.8373 6.67608 4.42948e-19)
(14.7151 6.34265 -4.60158e-19)
(14.6253 5.9955 0)
(14.5684 5.63833 1.00901e-18)
(14.5442 5.27507 0)
(14.5524 4.90644 9.6383e-19)
(14.596 4.52947 1.92355e-18)
(16.2664 7.50849 -3.47378e-19)
(16.0359 7.32385 -6.73187e-21)
(15.8221 7.11533 0)
(15.6281 6.88515 -4.0228e-19)
(15.4561 6.63582 4.18662e-19)
(15.3077 6.37018 -1.32484e-18)
(15.1842 6.09088 9.08482e-19)
(15.0862 5.80051 0)
(15.0138 5.50131 0)
(14.9667 5.19584 -1.88877e-18)
(14.945 4.88396 -2.14872e-20)
(14.9525 4.56084 0)
(16.5416 7.12519 -3.3919e-19)
(16.3284 6.95901 -3.76536e-19)
(16.131 6.77323 0)
(15.9516 6.56981 4.09865e-19)
(15.7915 6.35095 -4.33942e-19)
(15.6517 6.11943 8.62977e-19)
(15.5331 5.87753 -8.73622e-19)
(15.4356 5.62735 0)
(15.3594 5.37025 0)
(15.3027 5.10826 9.3036e-19)
(15.2659 4.84159 9.01216e-19)
(15.2515 4.56629 -8.87707e-19)
(16.7612 6.81745 1.08601e-18)
(16.5601 6.66454 -7.35431e-19)
(16.3745 6.49519 0)
(16.2063 6.31107 0)
(16.0556 6.11386 -4.18236e-19)
(15.922 5.90705 -2.14469e-19)
(15.8082 5.69308 2.30904e-19)
(15.7124 5.47316 8.71355e-19)
(15.636 5.24847 0)
(15.5745 5.02042 0)
(15.5297 4.7909 -9.15175e-19)
(15.5006 4.55677 1.78338e-18)
(16.9331 6.56719 3.68069e-19)
(16.7401 6.42443 -1.11059e-18)
(16.5628 6.26794 7.64546e-19)
(16.4034 6.09876 -3.96389e-19)
(16.2606 5.91724 4.06882e-19)
(16.1314 5.72752 8.30467e-19)
(16.0231 5.53628 6.42978e-19)
(15.9298 5.33838 -6.5581e-19)
(15.8577 5.13989 0)
(15.7947 4.93648 0)
(15.7478 4.7365 -4.4345e-19)
(15.7121 4.52983 -4.47154e-19)
(17.0667 6.36225 -1.08862e-18)
(16.8798 6.22702 -3.7577e-19)
(16.7083 6.08079 -1.1616e-18)
(16.5556 5.92471 1.97877e-19)
(16.4224 5.75812 -9.9147e-19)
(16.2945 5.57832 -1.64161e-18)
(16.1972 5.40942 -8.29581e-19)
(16.1062 5.22388 -1.05905e-18)
(16.0452 5.05004 -6.39089e-19)
(15.9802 4.86077 -8.57496e-19)
(15.9356 4.68798 -8.59156e-19)
(15.8974 4.50178 -1.7952e-18)
(-3.99298 -2.54333 -8.77283e-19)
(-3.73748 -2.55338 -5.73977e-19)
(-3.26891 -2.55678 6.38663e-19)
(-2.64571 -2.54285 7.20709e-19)
(-1.91339 -2.50211 -3.9967e-19)
(-1.09165 -2.4266 -2.06154e-19)
(-0.167321 -2.30634 2.06154e-19)
(0.905345 -2.13727 -1.02173e-19)
(2.2142 -1.92244 -8.48796e-19)
(3.9397 -1.67176 8.54423e-19)
(6.42851 -1.42008 1.52315e-18)
(10.3688 -1.45008 -2.75657e-18)
(-3.91248 -2.39596 7.93827e-19)
(-3.58577 -2.32229 -5.05669e-19)
(-3.05111 -2.23311 2.20828e-20)
(-2.34064 -2.11964 -3.06683e-19)
(-1.47105 -1.97837 0)
(-0.436881 -1.80688 3.06365e-19)
(0.789921 -1.60745 0)
(2.26362 -1.38907 -1.28043e-19)
(4.07424 -1.17635 -5.78652e-20)
(6.34939 -1.02088 0)
(9.24105 -1.01377 0)
(12.826 -1.29246 2.34262e-19)
(-3.69457 -2.16052 -3.69035e-19)
(-3.26725 -2.01389 -1.9075e-19)
(-2.63652 -1.85497 9.25802e-19)
(-1.82301 -1.67516 -2.34703e-19)
(-0.83057 -1.47592 0)
(0.353988 -1.26255 -4.67163e-19)
(1.76043 -1.04536 5.4712e-19)
(3.43546 -0.84295 -1.02681e-19)
(5.4389 -0.687655 5.24599e-20)
(7.83448 -0.631288 0)
(10.6602 -0.748015 -2.09682e-20)
(13.857 -1.11757 3.47342e-20)
(-3.38665 -1.89483 2.79282e-19)
(-2.87535 -1.70406 6.80611e-19)
(-2.17231 -1.50826 1.83114e-19)
(-1.28752 -1.30025 -1.89311e-19)
(-0.21817 -1.08472 1.7363e-19)
(1.05078 -0.870067 1.02167e-19)
(2.54612 -0.669399 -1.96779e-20)
(4.30446 -0.503738 -6.91538e-20)
(6.36677 -0.40453 1.15965e-19)
(8.76837 -0.415869 8.54812e-20)
(11.5147 -0.591936 -1.52149e-19)
(14.5444 -0.98192 -9.16376e-21)
(-3.03173 -1.63333 -2.70853e-19)
(-2.45744 -1.42799 -1.7704e-19)
(-1.7055 -1.21928 -1.3253e-19)
(-0.778701 -1.0049 -1.36475e-19)
(0.330183 -0.791533 -1.6758e-19)
(1.63781 -0.588571 -4.65122e-21)
(3.16902 -0.409906 -5.24462e-21)
(4.9551 -0.276023 1.69214e-20)
(7.02862 -0.21571 0)
(9.41381 -0.266526 -4.21559e-20)
(12.1086 -0.471518 -9.56452e-21)
(15.0541 -0.866991 -5.66422e-20)
(-2.65932 -1.39326 1.0068e-19)
(-2.04493 -1.1935 -1.19773e-19)
(-1.26507 -0.984398 1.33716e-20)
(-0.318276 -0.774002 2.40015e-19)
(0.806009 -0.569778 5.63652e-20)
(2.12713 -0.381151 -6.83924e-20)
(3.66904 -0.221481 -9.94332e-20)
(5.4608 -0.110531 9.75322e-20)
(7.53139 -0.0751218 0)
(9.90081 -0.148964 1.25405e-20)
(12.5632 -0.369309 9.54406e-21)
(15.4574 -0.766877 -1.09871e-19)
(-2.28389 -1.18493 0)
(-1.6522 -0.998552 7.56144e-20)
(-0.860539 -0.795629 4.48709e-20)
(0.0913431 -0.593142 -4.81327e-20)
(1.21605 -0.39961 -4.39053e-20)
(2.53699 -0.224328 2.16834e-20)
(4.07754 -0.0791076 -3.2052e-20)
(5.86544 0.0163954 5.58826e-20)
(7.92718 0.0360224 -1.26752e-20)
(10.2824 -0.0520212 -1.24903e-20)
(12.9214 -0.281013 0)
(15.7778 -0.678436 3.60573e-20)
(-1.92752 -1.00333 5.87367e-20)
(-1.28893 -0.835257 -1.37039e-19)
(-0.493978 -0.643106 5.85704e-20)
(0.455104 -0.44976 -1.20572e-19)
(1.57075 -0.26682 -1.67184e-20)
(2.88678 -0.103849 3.46354e-20)
(4.42262 0.0305466 3.43583e-21)
(6.2057 0.116623 -5.42306e-22)
(8.25801 0.127029 2.42826e-21)
(10.6039 0.0296725 -2.68561e-20)
(13.2297 -0.204255 2.36979e-21)
(16.0625 -0.602061 -3.56486e-20)
(-1.59854 -0.848838 0)
(-0.962713 -0.698803 3.32012e-20)
(-0.168827 -0.518845 -5.7699e-20)
(0.770058 -0.333275 9.39403e-20)
(1.86521 -0.16157 0)
(3.17092 -0.010623 -4.67456e-20)
(4.69687 0.115576 0)
(6.47125 0.19734 -2.65765e-21)
(8.5065 0.204478 -7.18195e-21)
(10.84 0.0980844 8.49077e-21)
(13.4439 -0.137662 1.00093e-19)
(16.2365 -0.526444 -1.93402e-19)
(-1.25079 -0.736847 -7.76646e-21)
(-0.63473 -0.590818 -2.50443e-20)
(0.149384 -0.415599 6.79356e-21)
(1.09745 -0.241525 -4.25848e-20)
(2.15886 -0.0870465 0)
(3.49381 0.0497988 0)
(5.02581 0.164834 0)
(6.81725 0.235165 0)
(8.82557 0.243555 -2.52665e-20)
(11.1498 0.129672 2.6886e-20)
(13.7847 -0.113205 -5.9119e-20)
(16.6189 -0.51947 6.3022e-20)
(16.817 -2.64495 1.12082e-18)
(20.7587 -3.90357 -2.58061e-19)
(22.1152 -4.35455 1.57049e-18)
(22.6103 -4.45197 -9.73692e-19)
(22.8383 -4.45837 0)
(22.8867 -4.41097 4.40513e-20)
(22.8251 -4.3247 -2.23088e-18)
(22.7013 -4.21385 2.09952e-18)
(22.5413 -4.08735 -2.89162e-19)
(22.3588 -3.95081 -2.60663e-18)
(22.1644 -3.8031 3.67663e-18)
(21.9606 -3.659 -1.17852e-18)
(16.8032 -2.07438 -2.73712e-19)
(20.6919 -3.24384 0)
(22.5827 -3.87365 -2.68929e-20)
(23.0099 -3.97036 0)
(23.124 -3.97975 -7.69894e-19)
(23.0991 -3.95432 7.74791e-19)
(22.9951 -3.90378 1.88941e-18)
(22.8474 -3.83574 3.58632e-19)
(22.6742 -3.75436 -5.87083e-19)
(22.4857 -3.6626 -1.1115e-18)
(22.29 -3.55903 0)
(22.0902 -3.44335 -1.32325e-18)
(17.2794 -1.79798 -4.00368e-20)
(20.696 -2.76707 0)
(22.7512 -3.45909 -7.84476e-19)
(23.1685 -3.59341 7.12718e-19)
(23.2028 -3.60257 -1.03203e-19)
(23.1404 -3.58825 1.15266e-19)
(23.0251 -3.55817 1.26183e-19)
(22.88 -3.51652 -2.79734e-19)
(22.7168 -3.46502 -1.23195e-18)
(22.5418 -3.40498 2.11791e-18)
(22.3591 -3.33414 -5.62704e-19)
(22.1714 -3.24778 6.35576e-19)
(17.7512 -1.60983 8.48569e-21)
(20.8481 -2.44626 0)
(22.8412 -3.11792 8.04771e-19)
(23.2567 -3.28596 -7.56436e-19)
(23.2354 -3.29826 0)
(23.147 -3.2942 0)
(23.0242 -3.27889 0)
(22.8825 -3.25499 -6.87093e-21)
(22.7294 -3.22325 -1.25959e-18)
(22.5685 -3.18405 1.4897e-18)
(22.3986 -3.13907 7.01062e-19)
(22.2171 -3.09171 -2.56903e-18)
(18.1315 -1.46617 -9.59536e-20)
(21.0189 -2.22346 2.4676e-19)
(22.8816 -2.84793 0)
(23.2847 -3.03165 0)
(23.2316 -3.04807 1.30144e-19)
(23.1298 -3.05189 0)
(23.0052 -3.04719 -1.19335e-18)
(22.8683 -3.03584 1.60591e-19)
(22.7243 -3.01831 2.46625e-18)
(22.5751 -2.99427 4.44333e-19)
(22.4183 -2.96569 -5.74946e-19)
(22.2483 -2.93861 -1.33107e-18)
(18.4435 -1.34833 1.20645e-19)
(21.1728 -2.05479 2.60784e-19)
(22.8954 -2.6326 -2.48604e-19)
(23.2702 -2.81953 -5.28159e-19)
(23.199 -2.84085 -6.31263e-20)
(23.0913 -2.85074 1.13026e-18)
(22.9687 -2.85374 -1.03346e-18)
(22.8385 -2.85125 9.04511e-19)
(22.7037 -2.84368 -3.27266e-19)
(22.5653 -2.83057 -6.91579e-19)
(22.4213 -2.81319 6.65304e-19)
(22.2682 -2.79821 1.0732e-18)
(18.6928 -1.24582 -5.9871e-20)
(21.2946 -1.91497 -3.66245e-19)
(22.8914 -2.45365 2.95111e-19)
(23.2336 -2.63987 7.05161e-19)
(23.1533 -2.66779 -8.2385e-19)
(23.0438 -2.68295 1.54821e-19)
(22.9246 -2.69188 -8.10065e-19)
(22.8009 -2.69577 6.34083e-19)
(22.6747 -2.6952 3.3363e-19)
(22.5459 -2.68986 -1.0728e-18)
(22.414 -2.68079 1.06366e-18)
(22.2772 -2.67418 -3.75344e-19)
(18.9222 -1.16228 -9.09328e-20)
(21.4128 -1.80888 1.65712e-19)
(22.8888 -2.3179 0)
(23.1901 -2.49642 4.66557e-19)
(23.1045 -2.52577 -1.06901e-18)
(22.9953 -2.54328 4.492e-19)
(22.8797 -2.55607 0)
(22.7619 -2.56445 -3.35753e-19)
(22.6429 -2.56864 3.57872e-19)
(22.5229 -2.56854 7.55714e-19)
(22.4015 -2.56536 -7.29938e-19)
(22.2781 -2.56478 0)
(19.0317 -1.06497 1.99586e-19)
(21.4261 -1.6811 -1.79282e-19)
(22.8322 -2.17413 -1.35493e-19)
(23.1367 -2.36525 2.83702e-19)
(23.0568 -2.40409 0)
(22.9481 -2.42458 0)
(22.8347 -2.44053 3.50807e-19)
(22.7222 -2.45241 0)
(22.61 -2.46003 -7.36378e-19)
(22.4976 -2.46321 0)
(22.3843 -2.4635 5.07531e-21)
(22.2718 -2.46755 -4.23694e-19)
(19.4068 -1.0838 8.46413e-20)
(21.6853 -1.71279 0)
(22.9055 -2.17837 -1.40688e-19)
(23.1072 -2.31104 -3.32636e-19)
(23.013 -2.31246 6.57638e-19)
(22.9047 -2.32343 0)
(22.7945 -2.34075 -3.53022e-19)
(22.6875 -2.35662 0)
(22.5797 -2.36594 7.75923e-19)
(22.4754 -2.37014 -3.87812e-19)
(22.3723 -2.37307 -8.45131e-19)
(22.2695 -2.38331 -1.79841e-20)
(1.46183 2.15829 0)
(3.87719 2.24243 2.28033e-19)
(6.74961 3.13784 1.12689e-17)
(9.68838 4.56911 -7.79102e-19)
(12.4517 6.10216 -5.59023e-18)
(15.0471 7.57732 -2.44421e-19)
(17.4172 8.89501 2.16461e-18)
(19.4433 9.92224 -6.48198e-19)
(21.0086 10.5377 -3.42858e-19)
(22.0531 10.6773 -2.69935e-19)
(22.6201 10.3668 -1.99524e-19)
(22.8693 9.71658 -5.42662e-19)
(-11.518 2.5157 0)
(-9.69099 2.43274 2.48783e-17)
(-7.14301 2.41412 -1.66031e-17)
(-3.95568 2.63483 6.93796e-19)
(0.0433496 3.12919 0)
(4.60339 3.95357 6.46184e-18)
(9.33379 5.0964 -3.83121e-18)
(13.8029 6.44778 3.84009e-18)
(17.6331 7.78074 -2.45388e-18)
(20.5332 8.8178 -9.29101e-19)
(22.3773 9.34595 -1.12093e-18)
(23.2909 9.26253 2.74069e-18)
(-5.90323 1.49822 0)
(-6.06956 1.34753 1.0638e-18)
(-5.44959 1.20302 0)
(-4.31256 1.10111 -1.72568e-17)
(-2.63949 1.16773 1.24615e-17)
(-0.281495 1.50995 9.3856e-18)
(3.0752 2.22662 -2.8015e-19)
(7.41405 3.36613 -2.23035e-19)
(12.2452 4.83756 -2.73843e-19)
(16.832 6.39729 8.45613e-19)
(20.4645 7.69912 -2.35087e-19)
(22.752 8.33924 1.52295e-20)
(-7.2311 1.78141 1.06727e-20)
(-7.30693 1.81452 7.34316e-17)
(-6.76245 1.71426 -2.43565e-17)
(-5.86636 1.58775 1.78587e-17)
(-4.61921 1.47634 -1.26199e-17)
(-2.94142 1.44112 0)
(-0.622963 1.56537 7.50509e-18)
(2.64925 1.98502 -8.3895e-18)
(7.03637 2.87542 4.52794e-18)
(12.1621 4.23129 -1.84322e-18)
(17.163 5.8182 -1.16579e-18)
(21.0516 7.03917 -1.21239e-18)
(-6.60594 1.64537 6.68719e-17)
(-6.89472 1.69836 -7.73532e-17)
(-6.57244 1.63401 2.69922e-17)
(-5.93851 1.52308 -1.15644e-18)
(-5.02995 1.40211 0)
(-3.81427 1.30406 0)
(-2.16884 1.27442 7.93986e-21)
(0.139152 1.39519 5.96678e-18)
(3.43727 1.81179 -1.78742e-19)
(7.94682 2.69435 -2.17373e-18)
(13.2922 4.10179 -1.33224e-18)
(18.354 5.56199 1.23748e-19)
(-6.69499 1.66257 -6.7258e-17)
(-7.07472 1.75531 4.01965e-17)
(-6.84502 1.7167 -8.52632e-19)
(-6.31759 1.62692 1.9045e-17)
(-5.55363 1.51566 -1.43056e-17)
(-4.54338 1.40251 -1.12315e-17)
(-3.21795 1.3135 1.06035e-17)
(-1.41168 1.28973 1.24758e-17)
(1.13986 1.41414 -1.34164e-19)
(4.7854 1.84716 -2.67609e-18)
(9.68636 2.80891 -1.74281e-19)
(15.2175 4.15559 -2.39707e-18)
(-6.60003 1.64394 6.80016e-17)
(-7.07293 1.7625 -4.09228e-17)
(-6.92483 1.74468 2.76629e-17)
(-6.48175 1.66924 -3.93442e-17)
(-5.82525 1.56741 1.48341e-17)
(-4.95873 1.45556 0)
(-3.8438 1.35103 0)
(-2.3667 1.27739 4.13682e-18)
(-0.315261 1.28412 -9.86033e-20)
(2.61261 1.46753 -1.36297e-19)
(6.78226 2.04316 1.88257e-18)
(12.1392 3.05747 -2.67788e-18)
(-6.61171 1.64776 0)
(-7.16514 1.79242 0)
(-7.07086 1.79078 -2.71652e-17)
(-6.68139 1.72845 1.74413e-20)
(-6.092 1.63738 2.14996e-20)
(-5.31503 1.53177 1.19185e-17)
(-4.32923 1.42401 -1.21152e-18)
(-3.05699 1.32954 1.24814e-17)
(-1.33463 1.27694 -6.85369e-20)
(1.09134 1.32455 -3.3271e-18)
(4.58164 1.62294 2.24858e-18)
(9.38594 2.1906 -2.68574e-19)
(-6.62729 1.65454 6.79055e-17)
(-7.2564 1.82198 -1.28568e-18)
(-7.20127 1.83188 -4.39782e-21)
(-6.85294 1.77957 -2.02798e-17)
(-6.31441 1.69764 2.98135e-17)
(-5.60385 1.59925 -1.21161e-17)
(-4.70945 1.49451 1.23263e-18)
(-3.57758 1.39448 4.14932e-18)
(-2.08216 1.31687 -5.59851e-18)
(-0.0112785 1.29949 -3.44352e-18)
(2.95887 1.45935 7.66966e-18)
(7.17763 1.69526 -2.316e-21)
(-6.68399 1.67067 1.3484e-16)
(-7.36836 1.8548 -3.98119e-17)
(-7.34365 1.87295 -8.87623e-19)
(-7.02728 1.82829 0)
(-6.52748 1.75348 1.64945e-17)
(-5.8666 1.6609 1.50932e-18)
(-5.03845 1.55926 -9.93716e-18)
(-4.00571 1.45708 8.3356e-18)
(-2.67109 1.36588 -3.71156e-18)
(-0.859971 1.30816 -6.76304e-18)
(1.70599 1.36495 -5.54019e-18)
(5.33965 1.40718 -1.91968e-19)
(-6.75985 1.69117 -6.67919e-17)
(-7.48346 1.8866 4.08876e-17)
(-7.48357 1.91069 0)
(-7.19349 1.87146 0)
(-6.72522 1.80163 0)
(-6.10397 1.71313 1.07771e-17)
(-5.32705 1.61379 -9.99948e-18)
(-4.36782 1.51058 4.17551e-18)
(-3.1501 1.41138 -3.61729e-18)
(-1.528 1.32996 1.82881e-20)
(0.738857 1.32187 5.99729e-18)
(3.9458 1.28051 4.19276e-18)
(-6.85008 1.71444 6.6072e-17)
(-7.59899 1.91648 -4.19008e-17)
(-7.62015 1.94469 0)
(-7.35232 1.90912 -1.2801e-18)
(-6.91048 1.84248 -9.77761e-19)
(-6.3221 1.75641 0)
(-5.58688 1.65811 0)
(-4.68542 1.55366 -2.08762e-18)
(-3.55734 1.44906 -1.75317e-22)
(-2.07931 1.35363 9.70378e-18)
(-0.0426406 1.30692 -1.22052e-17)
(2.82574 1.24016 4.43773e-18)
(-6.94331 1.73773 0)
(-7.70715 1.94267 2.52256e-18)
(-7.74716 1.97362 0)
(-7.49865 1.94012 1.28169e-18)
(-7.0794 1.87493 9.80443e-19)
(-6.51886 1.78944 -1.39539e-17)
(-5.81863 1.69032 1.00636e-17)
(-4.96429 1.58286 8.33514e-18)
(-3.90801 1.47164 -7.16122e-18)
(-2.54651 1.36189 6.35928e-18)
(-0.702864 1.27749 -2.8565e-20)
(1.86949 1.20236 3.84192e-20)
(-7.032 1.75943 -1.00748e-18)
(-7.80477 1.96514 -3.77483e-21)
(-7.8619 1.99804 0)
(-7.63025 1.96563 1.27607e-18)
(-7.23032 1.90082 1.46839e-17)
(-6.69318 1.81477 -1.08668e-17)
(-6.0218 1.71352 0)
(-5.20475 1.60143 0)
(-4.20318 1.48136 -3.8005e-21)
(-2.92863 1.35391 -3.13419e-18)
(-1.22623 1.2247 -5.77002e-18)
(1.14175 1.09467 -5.07183e-18)
(-7.11269 1.77902 3.68187e-21)
(-7.89135 1.98468 -1.24729e-18)
(-7.96406 2.01932 -2.79939e-17)
(-7.74745 1.98784 3.9524e-17)
(-7.36454 1.92339 -1.56428e-17)
(-6.84784 1.83713 -1.24084e-17)
(-6.20136 1.7348 7.50614e-21)
(-5.41552 1.62046 9.48694e-21)
(-4.45806 1.49685 5.29093e-18)
(-3.25213 1.36466 7.79303e-21)
(-1.65935 1.23085 8.43321e-18)
(0.533297 1.10687 -5.05317e-18)
(-7.18467 1.79629 1.97374e-18)
(-7.96673 2.00114 -3.95954e-17)
(-8.05401 2.03719 -2.78785e-17)
(-7.85103 2.00626 2.03447e-17)
(-7.48343 1.94177 4.21499e-21)
(-6.9851 1.85487 -1.23934e-17)
(-6.36109 1.75101 1.00621e-17)
(-5.60309 1.63394 -6.22531e-18)
(-4.68404 1.50603 7.00774e-18)
(-3.53725 1.36642 -3.03535e-18)
(-2.04004 1.21108 5.5125e-18)
(0.0102864 1.0584 1.12901e-20)
(-7.24672 1.81109 -9.79699e-19)
(-8.03106 2.01495 0)
(-8.13203 2.05238 -2.86258e-17)
(-7.94147 2.02195 1.90171e-17)
(-7.58762 1.95743 1.65517e-17)
(-7.10579 1.87001 1.53888e-18)
(-6.50202 1.76501 -4.96134e-21)
(-5.76902 1.64594 -1.03608e-17)
(-4.88372 1.5153 0)
(-3.7876 1.37338 -3.00356e-18)
(-2.36875 1.22304 0)
(-0.4445 1.07222 -1.28489e-20)
(-7.29893 1.82335 0)
(-8.08496 2.0261 0)
(-8.19892 2.06483 1.72722e-18)
(-8.01971 2.03473 1.26676e-18)
(-7.6783 1.96998 0)
(-7.21137 1.88181 -1.54792e-18)
(-6.62596 1.7753 1.12763e-17)
(-5.91574 1.65365 -1.65261e-17)
(-5.06072 1.51905 6.92531e-18)
(-4.00944 1.37069 5.95273e-18)
(-2.66095 1.20401 0)
(-0.849445 1.01732 4.71874e-18)
(-7.34101 1.83311 1.22703e-16)
(-8.12918 2.03506 -4.00723e-17)
(-8.2554 2.07517 -8.62481e-19)
(-8.08655 2.0455 -2.13928e-17)
(-7.75631 1.98067 3.09832e-17)
(-7.30271 1.89202 -2.46399e-17)
(-6.7338 1.78452 -5.13833e-21)
(-6.04432 1.66122 8.24632e-18)
(-5.21697 1.52444 0)
(-4.20634 1.37534 -1.17762e-17)
(-2.91815 1.21803 7.78791e-18)
(-1.19247 1.04554 -9.28086e-18)
(-7.37384 1.84057 6.07905e-17)
(-8.16512 2.0421 3.98227e-17)
(-8.30276 2.08358 -2.65246e-17)
(-8.14332 2.05427 1.2581e-18)
(-7.82307 1.9893 1.5439e-17)
(-7.38121 1.90002 -1.07558e-17)
(-6.82672 1.79114 -1.25236e-18)
(-6.15526 1.66525 0)
(-5.35186 1.5239 1.70786e-18)
(-4.37747 1.36638 2.08654e-20)
(-3.15107 1.18878 -2.56602e-18)
(-1.5433 0.980753 9.04034e-18)
(-7.39881 1.84634 6.02467e-17)
(-8.19487 2.04827 1.19381e-18)
(-8.34282 2.09133 -1.70162e-18)
(-8.19195 2.0628 0)
(-7.88071 1.99827 1.44224e-17)
(-7.44934 1.90923 -1.37796e-17)
(-6.90755 1.80039 1.23915e-18)
(-6.25172 1.67429 -8.19362e-18)
(-5.46835 1.53267 5.11417e-18)
(-4.52252 1.37583 2.17698e-20)
(-3.33932 1.20251 -5.03473e-18)
(-1.79414 1.0047 1.90476e-20)
(-7.41841 1.8508 -5.97134e-17)
(-8.21991 2.05345 3.80747e-17)
(-8.37736 2.09802 1.6919e-18)
(-8.23435 2.07024 1.86347e-17)
(-7.93139 2.00616 -1.53078e-17)
(-7.50965 1.91731 -1.06746e-17)
(-6.97954 1.80833 -2.47543e-18)
(-6.33821 1.68153 1.63296e-17)
(-5.57369 1.53827 -6.79254e-18)
(-4.65537 1.37829 2.33161e-20)
(-3.51634 1.19756 0)
(-2.04129 0.987066 -4.29691e-18)
(-7.43384 1.85442 6.01128e-17)
(-8.24187 2.05837 -1.18624e-18)
(-8.40773 2.10454 -8.44168e-19)
(-8.27186 2.07778 2.22359e-17)
(-7.97642 2.01452 -1.4285e-17)
(-7.56335 1.92641 -1.23832e-20)
(-7.0436 1.81805 2.46828e-18)
(-6.41492 1.69169 0)
(-5.66636 1.5486 -5.06951e-18)
(-4.77047 1.38866 5.71731e-18)
(-3.66613 1.20891 -4.89595e-18)
(-2.2449 1.00972 4.25539e-18)
(-7.44742 1.8577 -9.20452e-19)
(-8.26206 2.06311 1.16754e-18)
(-8.43541 2.11075 2.67253e-17)
(-8.30612 2.08504 -4.17569e-17)
(-8.0177 2.0227 1.51596e-17)
(-7.61275 1.93546 -1.20891e-17)
(-7.10277 1.82794 7.37073e-18)
(-6.48606 1.70235 0)
(-5.7526 1.56 -1.68629e-18)
(-4.87774 1.40094 8.47319e-18)
(-3.80606 1.22164 -1.20322e-20)
(-2.43839 1.01852 -8.2491e-18)
(-7.46004 1.86084 0)
(-8.28077 2.06768 -9.69567e-21)
(-8.46091 2.11672 0)
(-8.33769 2.09206 -1.82997e-17)
(-8.05578 2.03068 2.03324e-21)
(-7.65839 1.94438 2.40091e-17)
(-7.15747 1.83779 1.22343e-18)
(-6.55188 1.71307 -4.37765e-21)
(-5.83244 1.57148 -6.68093e-18)
(-4.97693 1.41324 0)
(-3.93438 1.23564 2.38225e-18)
(-2.60997 1.0339 0)
(-7.47226 1.86382 5.76121e-17)
(-8.29857 2.07194 -3.80734e-17)
(-8.48491 2.12231 0)
(-8.36728 2.09869 0)
(-8.09143 2.03826 0)
(-7.70107 1.95292 -1.34351e-17)
(-7.20858 1.84729 -2.41577e-18)
(-6.61328 1.72346 8.0054e-18)
(-5.90679 1.58262 -8.28729e-18)
(-5.06919 1.42496 2.79134e-18)
(-4.05407 1.24823 -2.37385e-18)
(-2.77295 1.04968 4.03625e-18)
(-7.48422 1.86686 -5.70898e-17)
(-8.31585 2.07618 1.13914e-18)
(-8.50759 2.12766 -2.61424e-17)
(-8.39512 2.10497 1.92568e-17)
(-8.12496 2.04544 1.48715e-17)
(-7.74124 1.96102 -1.18608e-17)
(-7.25667 1.85634 2.42371e-18)
(-6.67097 1.73347 0)
(-5.97643 1.59352 1.65544e-18)
(-5.15513 1.43677 2.24329e-20)
(-4.16498 1.26163 6.99558e-18)
(-2.92492 1.0667 -4.01718e-18)
(-7.49648 1.87005 0)
(-8.33192 2.08016 -9.72828e-21)
(-8.52864 2.13253 -8.07155e-19)
(-8.42107 2.11063 1.91154e-17)
(-8.15633 2.05186 -1.47673e-17)
(-7.77898 1.96822 0)
(-7.30201 1.86435 -9.58781e-18)
(-6.72547 1.74228 1.97008e-18)
(-6.04222 1.60306 6.55074e-18)
(-5.23607 1.447 1.09224e-17)
(-4.26899 1.27259 -2.32832e-18)
(-3.06718 1.07784 -7.79093e-18)
(-7.50828 1.87296 5.60204e-17)
(-8.34575 2.08335 -3.60046e-17)
(-8.54762 2.13663 5.22877e-17)
(-8.44472 2.11538 -1.89743e-17)
(-8.18513 2.05718 1.466e-17)
(-7.81385 1.97411 -2.33879e-17)
(-7.34417 1.87081 9.52226e-18)
(-6.77635 1.74926 5.87414e-18)
(-6.10367 1.61042 -1.3003e-17)
(-5.31148 1.4545 8.09285e-18)
(-4.36594 1.28007 2.29195e-18)
(-3.20112 1.08789 -2.3719e-20)
(-7.51849 1.87533 0)
(-8.35791 2.08592 3.45746e-17)
(-8.56447 2.13997 -5.33017e-22)
(-8.46587 2.11923 -1.88351e-17)
(-8.21112 2.06148 0)
(-7.8456 1.97885 0)
(-7.38277 1.87592 -9.45235e-18)
(-6.82305 1.75457 1.55761e-17)
(-6.15976 1.61553 -1.29042e-17)
(-5.37901 1.45835 2.65176e-18)
(-4.44945 1.27881 2.27001e-18)
(-3.30784 1.07114 -3.80821e-18)
(-7.52706 1.87736 -8.55242e-19)
(-8.36843 2.08812 3.42977e-17)
(-8.57908 2.14278 -5.06915e-17)
(-8.48448 2.12252 4.58994e-22)
(-8.23435 2.06521 1.44528e-17)
(-7.87438 1.98303 -1.15285e-17)
(-7.41828 1.88062 1.87722e-17)
(-6.86659 1.75989 -7.73247e-18)
(-6.21262 1.62179 -1.59356e-18)
(-5.44254 1.46663 -7.99379e-18)
(-4.52589 1.29348 2.22722e-18)
(-3.40446 1.09393 7.35453e-18)
(-7.53432 1.87914 -5.36089e-17)
(-8.37655 2.08979 1.10196e-18)
(-8.59101 2.14486 0)
(-8.50021 2.12488 1.85609e-17)
(-8.25446 2.0678 -1.43506e-17)
(-7.89984 1.9858 1.42442e-18)
(-7.45036 1.88351 0)
(-6.90682 1.76279 1.91056e-18)
(-6.26275 1.62451 1.59636e-18)
(-5.5048 1.46858 5.27614e-18)
(-4.60405 1.29175 -4.44288e-18)
(-3.50362 1.08562 -3.5743e-18)
(-7.53946 1.88025 -8.38767e-19)
(-8.38167 2.0906 -3.48015e-17)
(-8.60003 2.14621 2.49473e-17)
(-8.51274 2.12647 1.84217e-17)
(-8.27107 2.06957 -1.42478e-17)
(-7.92143 1.98774 -1.42796e-18)
(-7.47809 1.88556 -9.25758e-18)
(-6.94221 1.76482 -1.76296e-20)
(-6.30775 1.62633 7.88415e-18)
(-5.56198 1.47049 -2.60542e-18)
(-4.6762 1.2977 4.35489e-18)
(-3.58806 1.1033 7.30584e-18)
(-7.54198 1.88061 8.39072e-19)
(-8.38501 2.09088 -1.0727e-18)
(-8.60664 2.14692 2.55138e-17)
(-8.52247 2.12739 -3.65592e-17)
(-8.28453 2.07067 2.2324e-22)
(-7.93942 1.98895 1.12866e-17)
(-7.50159 1.88673 9.19129e-18)
(-6.97247 1.76565 -2.00882e-20)
(-6.34649 1.6261 -9.40521e-18)
(-5.61207 1.4676 5.1993e-18)
(-4.74429 1.2883 -2.17968e-18)
(-3.69174 1.08592 -3.70127e-18)
(-7.54265 1.88065 -1.05848e-16)
(-8.3872 2.09109 3.52655e-17)
(-8.61128 2.14748 -7.70674e-19)
(-8.52991 2.12827 0)
(-8.29545 2.0719 -1.40301e-17)
(-7.95461 1.99059 2.37923e-17)
(-7.52191 1.88882 -1.93795e-17)
(-6.99889 1.76823 1.31449e-17)
(-6.38012 1.6293 1.56176e-18)
(-5.65426 1.47195 -1.2906e-17)
(-4.79708 1.29525 4.29736e-18)
(-3.75884 1.09029 -3.60667e-18)
(-7.54219 1.88052 6.93587e-23)
(-8.38794 2.09117 6.66978e-17)
(-8.61407 2.14774 -2.35676e-17)
(-8.53529 2.12875 -1.11799e-18)
(-8.30417 2.07264 -8.65274e-19)
(-7.96748 1.99163 -1.25065e-17)
(-7.53983 1.89018 1.01881e-17)
(-7.02291 1.76986 9.31238e-18)
(-6.41159 1.63111 -1.23473e-17)
(-5.69533 1.47385 1.02288e-17)
(-4.85246 1.29722 -1.24102e-21)
(-3.84048 1.09479 -6.7611e-18)
(-7.54084 1.88013 0)
(-8.38766 2.09106 -3.24973e-17)
(-8.6153 2.14781 2.33458e-17)
(-8.53882 2.12907 2.22812e-18)
(-8.31083 2.07331 8.66985e-19)
(-7.97803 1.99273 1.10184e-17)
(-7.55501 1.89168 -1.00935e-17)
(-7.04352 1.77166 -1.85916e-18)
(-6.43858 1.63284 0)
(-5.72999 1.47439 5.06854e-18)
(-4.89704 1.29276 -8.4144e-18)
(-3.89362 1.08182 1.34544e-17)
(-7.53962 1.87977 0)
(-8.38712 2.09088 -1.0327e-18)
(-8.61571 2.14776 -2.38752e-17)
(-8.54125 2.12937 1.76513e-17)
(-8.31624 2.07412 0)
(-7.98722 1.99417 -1.09225e-17)
(-7.56871 1.8939 1.00181e-17)
(-7.0625 1.77481 -7.33384e-18)
(-6.46378 1.6372 6.07278e-18)
(-5.7626 1.4811 0)
(-4.93881 1.30721 0)
(-3.94936 1.11042 -6.73583e-18)
(-7.5394 1.87984 0)
(-8.38645 2.09093 1.03334e-18)
(-8.61537 2.14778 -2.36436e-17)
(-8.5427 2.1296 -1.09903e-18)
(-8.32056 2.07477 1.27069e-17)
(-7.99527 1.99536 -1.08221e-17)
(-7.5812 1.89569 1.01822e-21)
(-7.08015 1.77715 7.26954e-18)
(-6.48742 1.6399 6.01611e-18)
(-5.79369 1.48319 -3.36349e-21)
(-4.98126 1.30442 -4.12712e-18)
(-4.01384 1.09691 7.00006e-21)
(-7.53955 1.87994 -1.00595e-16)
(-8.38569 2.09091 3.48167e-23)
(-8.61445 2.14769 2.34052e-17)
(-8.5433 2.12975 -1.62446e-17)
(-8.32395 2.07542 1.50953e-17)
(-8.00238 1.99672 -1.33267e-18)
(-7.59277 1.89795 1.08607e-18)
(-7.09681 1.78053 -7.2001e-18)
(-6.50983 1.64475 1.66667e-21)
(-5.82248 1.49055 9.86437e-18)
(-5.01696 1.31782 -8.16507e-18)
(-4.05612 1.11775 3.3991e-18)
(-7.54028 1.88017 -4.97509e-17)
(-8.38513 2.09091 0)
(-8.6129 2.14731 7.19731e-19)
(-8.54303 2.12944 1.60626e-17)
(-8.32642 2.07547 -2.73943e-17)
(-8.00859 1.99729 1.33395e-18)
(-7.60348 1.89911 -1.0862e-18)
(-7.11272 1.78226 1.16362e-21)
(-6.53177 1.64687 5.90393e-18)
(-5.85191 1.49247 0)
(-5.05739 1.31774 0)
(-4.11601 1.11551 3.33163e-18)
(-7.54187 1.88058 4.91932e-17)
(-8.38455 2.09078 -3.1844e-17)
(-8.61064 2.14666 2.28953e-17)
(-8.54178 2.12888 -3.39034e-17)
(-8.32778 2.0753 9.82724e-23)
(-8.01361 1.99773 9.19257e-18)
(-7.61287 1.90029 -9.62162e-18)
(-7.12694 1.78425 5.30234e-18)
(-6.55122 1.64964 -5.84213e-18)
(-5.87718 1.49584 4.83439e-18)
(-5.08979 1.32146 -3.99158e-18)
(-4.1576 1.12001 6.09762e-21)
(-7.54454 1.88142 -4.86269e-17)
(-8.38355 2.0908 -1.43512e-22)
(-8.60748 2.14592 -8.04162e-21)