/*--------------------------------*- C++ -*----------------------------------*\
| =========                 |                                                 |
| \\      /  F ield         | OpenFOAM: The Open Source CFD Toolbox           |
|  \\    /   O peration     | Version:  2.3.0                                 |
|   \\  /    A nd           | Web:      www.OpenFOAM.org                      |
|    \\/     M anipulation  |                                                 |
\*---------------------------------------------------------------------------*/
FoamFile
{
    version     2.0;
    format      ascii;
    class       volScalarField;
    location    "3000";
    object      p;
}
// * * * * * * * * * * * * * * * * * * * * * * * * * * * * * * * * * * * * * //

dimensions      [0 2 -2 0 0 0 0];

internalField   nonuniform List<scalar> 
6694
(
1.35983e-05
-7.41024
-13.2071
-18.1208
-22.2289
-25.5011
-27.4512
-26.802
-22.294
-15.0166
-5.11359
20.927
17.0297
13.9668
12.5148
12.7346
15.2079
20.4543
28.8003
40.2584
54.5114
71.1184
89.9885
110.513
31.8123
32.3725
34.2894
37.3872
41.6368
47.0066
53.4723
60.9555
69.2943
78.2797
87.6788
97.1893
42.7167
44.6838
47.6263
51.4977
56.3021
61.9798
68.429
75.5021
83.0202
90.7749
98.545
106.104
51.4123
53.9136
57.1055
60.8785
65.216
70.0671
75.3696
81.0375
86.9716
93.0534
99.1565
105.158
58.143
60.7237
63.8573
67.4133
71.3885
75.7456
80.4375
85.4009
90.5608
95.8306
101.118
106.33
63.3972
65.8383
68.7747
72.0262
75.596
79.4664
83.6077
87.9763
92.5209
97.1779
101.868
106.524
67.3048
69.6583
72.4079
75.4104
78.6707
82.1766
85.9125
89.8445
93.933
98.152
102.407
106.673
70.9874
72.9952
75.4167
78.1349
81.0895
84.2663
87.683
91.3282
95.1587
99.0707
103.009
107.022
74.5213
76.3973
78.2576
80.5624
83.118
85.9425
89.1094
92.5605
96.3585
100.147
103.875
107.753
80.8995
111.808
134.841
154.011
169.874
182.009
190.273
194.794
195.986
194.491
191.296
187.589
129.24
144.447
156.565
166.038
173.109
177.974
180.914
182.263
182.353
181.463
179.94
178.148
106.66
116.225
125.661
134.645
142.913
150.242
156.447
161.399
165.04
167.394
168.64
169.046
113.372
120.429
127.25
133.685
139.604
144.907
149.525
153.418
156.567
158.974
160.706
161.85
111.041
116.868
122.593
128.106
133.305
138.102
142.429
146.235
149.485
152.16
154.272
155.838
111.435
116.459
121.366
126.08
130.531
134.661
138.428
141.798
144.758
147.299
149.403
151.071
111.109
115.615
120.006
124.218
128.197
131.901
135.308
138.381
141.125
143.53
145.58
147.308
110.905
115.052
119.077
122.917
126.528
129.895
133.026
135.85
138.387
140.615
142.549
144.251
110.956
114.779
118.523
122.097
125.455
128.59
131.475
133.999
136.238
138.234
140.002
141.668
111.341
114.781
118.235
121.539
124.671
127.69
130.447
132.398
134.389
136.264
137.884
139.42
93.4431
93.8002
94.026
94.1644
94.223
94.2158
94.1624
94.0838
93.9971
93.9277
93.9285
94.3669
94.0962
94.2854
94.3895
94.4743
94.5467
94.6105
94.6702
94.7292
94.7988
94.9351
95.2331
95.7408
94.6588
94.7977
94.8927
94.9895
95.0857
95.176
95.2589
95.3373
95.4326
95.6168
96.0383
96.7263
95.2727
95.4444
95.5759
95.6967
95.8046
95.898
95.9798
96.0597
96.1682
96.375
96.8167
97.5161
95.8237
95.9633
96.0861
96.1982
96.2988
96.3888
96.4731
96.5635
96.6933
96.928
97.3825
98.0717
96.17
96.3232
96.4366
96.541
96.6339
96.7192
96.8053
96.9061
97.057
97.3191
97.7903
98.4825
96.6002
96.651
96.7453
96.8378
96.9164
96.9867
97.0665
97.1652
97.326
97.6043
98.0833
98.774
96.8951
96.9029
96.992
97.0841
97.148
97.1916
97.2535
97.3289
97.5044
97.8293
98.3696
99.1301
97.2654
97.1592
97.2423
97.3572
97.413
97.3821
97.4668
97.4606
97.5944
97.8904
98.3995
99.1384
97.105
96.8314
97.1179
97.4779
97.5645
97.3923
97.369
97.1585
97.3978
98.0346
98.9764
100.279
95.8007
96.6807
97.871
98.9236
99.9421
100.905
101.831
102.762
103.742
104.794
105.907
107.09
96.6067
96.9693
97.6115
98.2837
99.1383
100.091
101.11
102.157
103.214
104.272
105.337
106.473
97.61
98.1108
98.7072
99.2766
99.9592
100.697
101.502
102.357
103.249
104.161
105.087
106.102
98.3513
98.9118
99.4875
100.042
100.662
101.3
101.973
102.676
103.414
104.178
104.974
105.872
98.8744
99.4408
99.972
100.497
101.071
101.657
102.269
102.901
103.558
104.232
104.927
105.742
99.2894
99.874
100.387
100.894
101.431
101.975
102.539
103.116
103.711
104.317
104.933
105.62
99.5928
100.213
100.742
101.258
101.778
102.294
102.817
103.344
103.883
104.428
104.977
105.587
100.022
100.659
101.152
101.636
102.121
102.596
103.077
103.561
104.052
104.545
105.038
105.553
100.007
100.681
101.275
101.898
102.384
102.844
103.297
103.748
104.201
104.652
105.097
105.578
101.582
101.963
102.073
102.48
102.758
103.102
103.499
103.923
104.356
104.788
105.203
105.642
-406.881
-371.526
-329.536
-293.658
-255.033
-212.113
-169.028
-129.044
-94.0592
-65.0145
-41.8541
-22.8306
-215.636
-214.192
-210.283
-204.78
-195.9
-182.191
-163.473
-140.221
-113.923
-86.9561
-61.7192
-38.7296
-182.281
-182.323
-181.427
-177.785
-170.803
-160.647
-147.288
-130.698
-111.28
-89.9903
-68.2809
-46.3272
-145.649
-145.688
-145.531
-144.644
-142.304
-137.758
-130.283
-119.362
-105.025
-87.955
-69.5178
-49.6358
-122.675
-122.822
-122.939
-122.642
-121.359
-118.53
-113.644
-106.183
-95.7896
-82.5175
-67.2708
-49.6879
-101.661
-101.79
-101.929
-101.891
-101.346
-99.8269
-96.8263
-91.8228
-84.4014
-74.3655
-62.2062
-47.5871
-84.6044
-84.7396
-84.9186
-84.9917
-84.7286
-83.7977
-81.8109
-78.3202
-72.8943
-65.244
-55.5698
-43.675
-69.8105
-69.935
-70.114
-70.2471
-70.1789
-69.6577
-68.3674
-65.9384
-61.9559
-56.0831
-48.329
-38.4302
-57.0956
-57.2109
-57.3862
-57.5423
-57.5684
-57.277
-56.4168
-54.6947
-51.7514
-47.2303
-41.0305
-32.9111
-45.9854
-46.0902
-46.2561
-46.421
-46.5048
-46.3643
-45.7946
-44.5582
-42.3628
-38.8759
-33.9423
-27.3101
-36.2265
-36.3218
-36.4767
-36.641
-36.7553
-36.7105
-36.3388
-35.4443
-33.7902
-31.089
-27.1684
-21.7703
-27.5866
-27.6724
-27.8167
-27.9759
-28.1054
-28.1217
-27.8867
-27.2354
-25.9717
-23.8506
-20.6846
-16.2461
-19.8903
-19.9672
-20.1013
-20.2528
-20.3879
-20.4423
-20.3017
-19.8246
-18.8456
-17.1541
-14.5516
-10.8311
-12.9906
-13.0593
-13.1838
-13.3268
-13.4624
-13.5408
-13.4668
-13.1181
-12.3537
-10.9915
-8.83492
-5.71608
-6.77221
-6.83373
-6.94922
-7.08356
-7.21686
-7.31059
-7.2855
-7.03579
-6.4409
-5.34667
-3.57122
-0.973863
-1.13858
-1.19516
-1.30168
-1.4272
-1.55649
-1.6592
-1.66899
-1.49369
-1.02871
-0.143602
1.32296
3.59952
3.98482
3.93177
3.83417
3.71748
3.59338
3.4859
3.45034
3.56629
3.92333
4.62901
5.80364
7.48325
8.66247
8.61304
8.52387
8.41576
8.29792
8.18962
8.13728
8.21049
8.48798
9.06013
10.0339
11.6058
12.9542
12.9081
12.8265
12.7265
12.6155
12.5093
12.4476
12.4919
12.7149
13.2015
14.0541
15.4163
16.9057
16.8627
16.7878
16.695
16.5905
16.4871
16.4184
16.4387
16.6131
17.0168
17.7383
18.843
20.5561
20.5162
20.4473
20.3611
20.2625
20.1622
20.0884
20.0888
20.2208
20.55
21.1563
22.071
23.9398
23.9035
23.8401
23.7602
23.6675
23.571
23.4946
23.4801
23.5789
23.8486
24.3615
25.1212
27.0884
27.0562
26.9977
26.9233
26.8362
26.7438
26.6667
26.6416
26.7151
26.9387
27.3774
28.0274
30.0276
29.999
29.9447
29.8754
29.7937
29.7058
29.6295
29.5974
29.6522
29.8418
30.2292
30.8049
32.7789
32.7529
32.7024
32.6377
32.5609
32.4773
32.4022
32.3644
32.4028
32.5608
32.895
33.3668
35.3596
35.3352
35.2885
35.228
35.1559
35.0766
35.0034
34.9623
34.9887
35.1225
35.4165
35.86
37.7853
37.7622
37.7191
37.6627
37.5951
37.5201
37.4494
37.4061
37.4232
37.5385
37.8018
38.1705
40.0712
40.0494
40.0094
39.9566
39.893
39.8219
39.7535
39.7086
39.717
39.8132
40.0436
40.3788
42.2293
42.2089
42.1718
42.1225
42.0627
41.9954
41.9293
41.8831
41.8838
41.964
42.1669
42.4587
44.273
44.2539
44.2194
44.1729
44.1164
44.0522
43.988
43.9399
43.9324
43.9938
44.1627
44.3901
46.2115
46.1936
46.1615
46.118
46.0648
46.0039
45.9421
45.894
45.8819
45.9307
46.0762
46.3657
48.0554
48.0389
48.0091
47.9683
47.9182
47.8605
47.801
47.7528
47.7365
47.7765
47.8947
47.9947
49.8116
49.7967
49.7689
49.7305
49.683
49.6278
49.5698
49.5199
49.4955
49.5172
49.6105
49.6414
51.4909
51.4777
51.4519
51.416
51.3716
51.3199
51.2655
51.2189
51.1972
51.2208
51.3263
51.5805
53.0988
53.0869
53.0629
53.0292
52.9873
52.9382
52.8858
52.839
52.8128
52.8259
52.8923
52.7938
54.6413
54.6305
54.6082
54.5766
54.5372
54.4908
54.4408
54.395
54.3664
54.3703
54.4372
54.5717
56.1253
56.1153
56.0945
56.065
56.028
55.9844
55.9371
55.8933
55.8652
55.8665
55.9123
55.8912
57.5559
57.5463
57.5269
57.4993
57.4647
57.4239
57.3798
57.3392
57.3137
57.317
57.3709
57.4559
58.9348
58.9257
58.9077
58.8819
58.8497
58.8117
58.7706
58.7327
58.7093
58.7154
58.7759
58.7803
60.2659
60.2572
60.2403
60.2161
60.1857
60.1499
60.111
60.0746
60.0506
60.0516
60.1026
60.1412
61.553
61.5447
61.5288
61.5061
61.4776
61.444
61.4077
61.3743
61.3534
61.3583
61.415
61.5063
62.7976
62.7898
62.7749
62.7534
62.7266
62.6947
62.6601
62.6274
62.6051
62.6036
62.6389
62.6604
64.0031
63.9957
63.9817
63.9614
63.9359
63.9058
63.8728
63.8415
63.8201
63.8185
63.8494
63.912
65.1728
65.1659
65.1527
65.1336
65.1096
65.0811
65.0499
65.0202
64.9997
65
65.0367
65.0513
66.3091
66.3024
66.2899
66.2716
66.2486
66.2212
66.1908
66.1608
66.1374
66.1278
66.141
66.1267
67.4132
67.407
67.3952
67.3782
67.3565
67.3307
67.3018
67.2732
67.2509
67.2429
67.2563
67.1894
68.4893
68.4834
68.4724
68.4563
68.436
68.4116
68.3844
68.3573
68.3356
68.3272
68.3485
68.2748
69.5389
69.5334
69.5231
69.5081
69.4892
69.4668
69.4424
69.4192
69.4032
69.4022
69.439
69.5688
70.5618
70.5566
70.547
70.5329
70.5152
70.4942
70.4712
70.4492
70.4339
70.4341
70.4584
70.3635
71.5592
71.5543
71.5451
71.5317
71.5147
71.4945
71.4721
71.4499
71.4321
71.4246
71.4452
71.4351
72.5335
72.5289
72.5203
72.5077
72.4918
72.4729
72.4523
72.4327
72.419
72.4174
72.4471
72.5619
73.4865
73.4821
73.474
73.4621
73.4472
73.4294
73.4102
73.3919
73.3797
73.3812
73.4032
73.3679
74.4172
74.413
74.4053
74.3937
74.3791
74.3615
74.3416
74.321
74.3027
74.2909
74.2934
74.226
75.3297
75.3258
75.3185
75.3076
75.2939
75.2774
75.2592
75.2414
75.2286
75.2264
75.252
75.4647
76.2254
76.2216
76.2146
76.2042
76.1909
76.1745
76.1556
76.1351
76.115
76.0976
76.0713
75.8162
77.1044
77.1009
77.0943
77.0844
77.0716
77.0555
77.0365
77.0149
76.9909
76.9627
76.936
76.9246
77.9732
77.97
77.9641
77.9553
77.9442
77.9309
77.9162
77.9023
77.8934
77.8961
77.9312
78.074
78.8286
78.8256
78.82
78.8119
78.8016
78.7893
78.7758
78.7625
78.7518
78.7474
78.7488
78.5885
79.6679
79.6651
79.66
79.6523
79.6427
79.6312
79.6187
79.6065
79.5973
79.594
79.6123
79.7448
80.4945
80.4918
80.4869
80.4797
80.4707
80.46
80.4484
80.4375
80.4303
80.4318
80.4449
80.3663
81.308
81.3054
81.3007
81.2938
81.2851
81.2747
81.2631
81.2515
81.2416
81.2365
81.2448
81.22
82.1086
82.1062
82.1019
82.0954
82.0871
82.0772
82.066
82.0546
82.0446
82.0384
82.0462
82.0519
82.899
82.8967
82.8926
82.8865
82.8787
82.8692
82.8583
82.847
82.8362
82.8265
82.8193
82.7874
83.6801
83.678
83.6742
83.6684
83.6612
83.6524
83.6425
83.6323
83.6236
83.6183
83.6192
83.6111
84.4522
84.4502
84.4466
84.4414
84.4347
84.4269
84.4182
84.4097
84.403
84.4009
84.409
84.3855
85.214
85.2122
85.209
85.2042
85.1982
85.191
85.1831
85.1751
85.1677
85.1613
85.1581
85.1032
85.9675
85.9658
85.9629
85.9587
85.9535
85.9476
85.9417
85.9368
85.935
85.9376
85.9527
86.0053
86.7123
86.7107
86.7079
86.7041
86.6998
86.6952
86.6913
86.6895
86.692
86.7016
86.719
86.6737
87.4427
87.4413
87.4389
87.4357
87.4323
87.4293
87.4277
87.429
87.4353
87.4492
87.4775
87.4686
88.162
88.1607
88.1587
88.1562
88.154
88.1528
88.1539
88.1586
88.1687
88.1845
88.21
88.1813
88.8536
88.8523
88.8506
88.8492
88.8496
88.8531
88.8613
88.8761
88.8991
88.9301
88.9711
88.9927
89.5477
89.5472
89.5472
89.5487
89.5535
89.5636
89.581
89.6074
89.6431
89.6856
89.7313
89.6884
90.0992
90.0949
90.0967
90.1067
90.1291
90.1656
90.2168
90.2816
90.3561
90.4318
90.5002
90.4786
90.8333
90.8475
90.8628
90.8967
90.9479
91.0146
91.0941
91.1815
91.2686
91.3447
91.4049
91.3824
90.3593
90.2431
90.4426
90.692
90.9391
91.1757
91.4022
91.6147
91.8078
91.9767
92.1226
92.1767
418.913
401.31
379.148
355.145
329.709
303.541
278.202
255.235
235.659
219.684
207.078
197.711
260.791
261.994
262.708
261.77
259.321
255.184
249.153
241.217
231.725
221.331
210.972
201.865
227.327
229.003
230.017
230.586
230.686
230.049
228.422
225.579
221.35
215.685
208.896
201.963
235.757
235.73
234.559
233.058
231.145
228.719
225.706
222.055
217.719
212.632
206.849
200.988
226.663
226.432
225.718
224.858
223.65
222.01
219.843
217.059
213.578
209.345
204.391
199.228
214.58
214.494
214.295
214.015
213.525
212.766
211.635
210.013
207.771
204.787
200.995
196.765
207.487
207.416
207.285
207.054
206.679
206.116
205.294
204.121
202.489
200.274
197.353
193.902
202.301
202.23
202.104
201.882
201.545
201.057
200.361
199.39
198.06
196.272
193.903
190.995
197.3
197.247
197.156
196.988
196.735
196.362
195.824
195.061
194
192.553
190.61
188.126
192.765
192.728
192.663
192.539
192.35
192.068
191.655
191.063
190.231
189.08
187.524
185.601
188.842
188.814
188.762
188.662
188.51
188.28
187.945
187.464
186.785
185.842
184.538
182.848
185.357
185.336
185.294
185.21
185.081
184.888
184.606
184.202
183.629
182.83
181.717
180.202
182.177
182.165
182.131
182.061
181.953
181.791
181.553
181.211
180.725
180.043
179.098
177.812
179.272
179.266
179.238
179.179
179.088
178.95
178.748
178.457
178.041
177.455
176.636
175.509
176.612
176.609
176.584
176.535
176.457
176.338
176.164
175.912
175.553
175.046
174.334
173.336
174.158
174.157
174.135
174.093
174.025
173.923
173.772
173.553
173.241
172.802
172.186
171.308
171.88
171.879
171.86
171.824
171.765
171.675
171.543
171.353
171.08
170.695
170.157
169.376
169.753
169.751
169.735
169.704
169.653
169.574
169.458
169.291
169.053
168.717
168.255
167.603
167.756
167.755
167.742
167.714
167.669
167.599
167.497
167.348
167.136
166.836
166.417
165.825
165.873
165.873
165.862
165.839
165.798
165.736
165.644
165.511
165.32
165.049
164.668
164.125
164.094
164.094
164.086
164.066
164.03
163.974
163.892
163.772
163.6
163.357
163.02
162.547
162.407
162.409
162.403
162.386
162.353
162.303
162.229
162.121
161.966
161.746
161.433
161.027
160.805
160.807
160.802
160.787
160.758
160.714
160.647
160.55
160.412
160.217
159.938
159.581
159.277
159.28
159.276
159.262
159.236
159.196
159.135
159.048
158.922
158.746
158.491
158.12
157.816
157.818
157.815
157.803
157.779
157.742
157.686
157.605
157.49
157.327
157.095
156.737
156.415
156.416
156.413
156.402
156.38
156.346
156.295
156.22
156.112
155.961
155.749
155.411
155.069
155.07
155.067
155.057
155.037
155.005
154.957
154.888
154.789
154.647
154.451
154.134
153.771
153.772
153.77
153.761
153.743
153.714
153.67
153.606
153.514
153.382
153.201
152.911
152.524
152.524
152.521
152.513
152.496
152.469
152.429
152.37
152.286
152.168
152.005
151.747
151.312
151.313
151.311
151.304
151.289
151.265
151.228
151.174
151.097
150.988
150.839
150.578
150.139
150.14
150.139
150.133
150.119
150.097
150.063
150.013
149.941
149.839
149.701
149.449
149.004
149.005
149.003
148.998
148.985
148.964
148.932
148.885
148.817
148.721
148.592
148.352
147.897
147.898
147.897
147.893
147.882
147.862
147.833
147.789
147.727
147.638
147.521
147.303
146.819
146.82
146.82
146.817
146.807
146.789
146.762
146.722
146.666
146.585
146.482
146.291
145.768
145.77
145.77
145.768
145.759
145.743
145.717
145.68
145.627
145.551
145.455
145.271
144.745
144.746
144.746
144.744
144.735
144.72
144.695
144.66
144.609
144.536
144.442
144.265
143.742
143.743
143.743
143.741
143.733
143.718
143.695
143.661
143.612
143.541
143.449
143.281
142.757
142.759
142.76
142.758
142.751
142.738
142.716
142.684
142.638
142.571
142.482
142.319
141.799
141.8
141.8
141.799
141.792
141.779
141.759
141.729
141.687
141.626
141.547
141.392
140.856
140.857
140.857
140.856
140.85
140.838
140.82
140.792
140.754
140.699
140.631
140.508
139.928
139.929
139.929
139.928
139.923
139.912
139.895
139.869
139.833
139.781
139.716
139.578
139.017
139.018
139.018
139.016
139.011
139
138.984
138.959
138.923
138.871
138.805
138.666
138.116
138.117
138.117
138.116
138.111
138.101
138.085
138.063
138.03
137.983
137.925
137.811
137.226
137.227
137.227
137.226
137.222
137.213
137.2
137.179
137.15
137.109
137.059
136.952
136.343
136.345
136.345
136.345
136.342
136.335
136.322
136.304
136.277
136.24
136.196
136.097
135.474
135.475
135.475
135.474
135.472
135.465
135.453
135.435
135.41
135.373
135.331
135.226
134.609
134.609
134.61
134.609
134.607
134.601
134.589
134.572
134.548
134.513
134.473
134.37
133.748
133.749
133.749
133.75
133.748
133.743
133.732
133.716
133.694
133.661
133.625
133.528
132.896
132.897
132.897
132.897
132.896
132.89
132.881
132.866
132.846
132.815
132.784
132.69
132.045
132.046
132.047
132.047
132.046
132.042
132.033
132.019
132.001
131.973
131.946
131.855
131.197
131.198
131.198
131.199
131.199
131.195
131.187
131.175
131.159
131.134
131.112
131.027
130.35
130.351
130.352
130.353
130.352
130.349
130.342
130.332
130.317
130.295
130.278
130.198
129.503
129.504
129.505
129.506
129.506
129.503
129.497
129.488
129.476
129.457
129.445
129.375
128.654
128.655
128.656
128.657
128.657
128.655
128.65
128.643
128.633
128.618
128.61
128.55
127.8
127.801
127.802
127.804
127.804
127.803
127.799
127.794
127.786
127.775
127.772
127.722
126.944
126.944
126.945
126.946
126.946
126.946
126.943
126.939
126.934
126.926
126.928
126.888
126.077
126.077
126.078
126.079
126.08
126.08
126.078
126.076
126.073
126.069
126.076
126.045
125.199
125.199
125.2
125.202
125.203
125.204
125.204
125.203
125.203
125.202
125.213
125.195
124.313
124.313
124.313
124.314
124.315
124.317
124.317
124.318
124.321
124.324
124.34
124.335
123.405
123.406
123.407
123.408
123.411
123.414
123.416
123.419
123.426
123.433
123.456
123.465
122.483
122.483
122.484
122.486
122.489
122.494
122.498
122.504
122.514
122.528
122.556
122.581
121.543
121.543
121.544
121.545
121.549
121.554
121.561
121.57
121.585
121.606
121.643
121.673
120.574
120.575
120.575
120.578
120.583
120.59
120.6
120.613
120.635
120.666
120.72
120.762
119.574
119.575
119.576
119.579
119.585
119.595
119.609
119.628
119.658
119.701
119.774
119.867
118.537
118.537
118.539
118.543
118.551
118.563
118.581
118.607
118.646
118.704
118.797
118.918
117.456
117.457
117.458
117.462
117.471
117.487
117.509
117.542
117.591
117.662
117.771
117.93
116.317
116.317
116.319
116.324
116.336
116.356
116.384
116.426
116.489
116.577
116.706
116.932
115.105
115.106
115.109
115.117
115.132
115.158
115.196
115.252
115.333
115.449
115.602
115.907
113.814
113.815
113.818
113.828
113.848
113.882
113.933
114.007
114.116
114.271
114.467
114.832
112.41
112.412
112.417
112.43
112.458
112.504
112.574
112.676
112.822
113.029
113.287
113.701
110.852
110.854
110.862
110.882
110.923
110.989
111.089
111.234
111.435
111.712
112.056
112.553
109.101
109.105
109.117
109.148
109.209
109.308
109.456
109.665
109.948
110.323
110.777
111.395
106.987
106.995
107.022
107.08
107.189
107.361
107.606
107.935
108.353
108.873
109.474
110.224
104.517
104.535
104.581
104.704
104.909
105.207
105.605
106.104
106.703
107.402
108.178
109.056
100.6
100.539
100.825
101.237
101.788
102.477
103.274
104.138
105.047
105.997
106.977
108.049
67.744
71.1722
80.2777
170.269
75.8
120.105
106.969
103.386
107.012
174.302
104.859
154.68
49.9784
112.182
53.1729
109.904
38.2371
107.207
125.508
105.501
123.977
120.787
125.005
147.967
129.952
110.359
120.302
105.4
84.7883
111.758
32.3704
127.732
112.674
106.522
85.026
120.191
97.2699
58.467
111.564
107.756
96.7494
84.889
97.8155
144.626
105.212
116.505
140.864
110.299
126.757
104.421
92.2254
113.925
108.473
152.525
149.231
85.1649
109.881
93.7356
111.062
100.553
151.551
53.8859
90.2366
78.5507
107.599
141.364
71.0375
109.039
138.142
101.496
145.31
97.6145
41.9362
86.6099
151.09
98.5254
106.273
110.484
110.727
71.7721
74.1559
123.666
108.764
99.2476
100.354
120.759
85.1903
63.7526
83.035
75.9223
109.735
52.5834
146.88
114.214
102.175
101.683
99.624
105.844
160.796
108.11
108.144
135.223
96.4683
0.91512
101.42
106.618
18.2121
110.274
102.43
65.5413
101.782
111.029
171.059
68.2577
65.8054
74.8878
50.7617
119.905
102.877
99.6003
96.099
86.4695
105.421
96.303
120.539
46.9275
108.761
94.0679
135.824
116.59
109.658
94.1059
95.3818
74.107
110.018
111.786
109.293
104.308
68.8295
105.819
109.165
131.599
93.4629
29.2026
41.3981
109.637
164.684
123.33
151.089
80.8383
116.28
87.7471
23.8452
97.5898
136.095
81.8707
75.7482
120.083
127.805
117.31
111.255
32.5883
107.436
128.192
27.6231
99.8272
83.5019
144.945
27.9349
109.857
187.565
104.732
102.414
106.774
157.108
163.441
79.1119
53.9218
157.769
114.171
95.7928
88.496
112.411
96.0007
113.174
129.52
104.987
135.475
167.402
99.6016
102.354
108.811
133.019
148.842
106.521
136.886
103.212
115.513
36.4037
126.058
106.536
108.297
99.8471
118.985
20.8792
66.2364
126.975
100.555
117.729
96.0773
100.938
59.7797
104.828
66.0409
115.669
104.822
147.522
171.512
27.056
95.5751
118.751
114.464
107.294
126.27
127.644
70.0328
158.629
103.813
119.647
107.297
114.697
80.8476
86.991
110.728
71.2582
-22.3867
150.924
155.127
114.132
108.328
72.8768
84.8761
113.271
135.019
96.5824
95.8889
91.7506
98.9133
92.6322
109.172
98.6157
119.466
98.8774
101.44
151.241
111.864
108.186
80.5347
108.447
90.9954
107.564
107.505
118.858
112.867
43.9654
94.9939
171.988
110.17
192.076
117.993
158.611
85.2924
48.6053
25.2531
151.311
101.444
105.608
101.224
111.185
51.8134
108.385
131.168
164.251
46.5973
108.619
119.298
84.4048
63.6584
163.86
83.7428
118.492
98.5424
103.998
54.7887
54.641
132.54
91.1088
93.9836
161.981
89.2402
69.4624
104.759
137.568
116.577
45.4126
45.3904
166.551
133.551
112.168
94.1305
51.1541
162.464
112.031
71.7941
108.485
101.066
104.019
148.787
90.9047
108.501
136.719
83.4611
133.712
103.715
149.365
108.371
107.48
107.452
105.125
115.521
120.641
-6.45443
109.286
111.237
102.564
107.503
101.985
93.4496
83.3028
161.415
102.645
113.476
121.768
106.949
117.746
90.2074
118.973
126.938
133.85
87.7433
109.076
94.7858
106.855
149.075
101.608
94.4915
123.716
111.637
94.6281
102.856
193.891
105.982
179.413
141.672
84.8997
110.514
109.11
83.135
125.409
115.558
12.8543
74.7641
43.2281
105.122
145.472
94.922
134.39
95.1004
35.7447
127.406
8.98134
172.303
151.58
124.524
21.1712
97.7799
158.055
79.2784
124.409
111.777
146.627
98.8725
131.234
93.2173
51.6817
137.228
99.8124
84.4158
92.6032
110.438
102.333
102.45
107.467
125.234
110.4
120.381
62.3784
151.569
112.85
93.3824
111.515
64.3895
102.783
101.273
69.6994
190.028
153.958
86.8597
103.065
126.048
92.8021
108.472
-2.10009
102.332
142.238
102.686
109.436
85.907
103.005
119.648
50.0797
110.434
107.488
61.6297
108.363
148.07
1.85107
79.0554
103.797
114.383
122.63
111.548
96.0932
92.1197
74.8526
97.6518
-13.2745
118.772
95.6694
94.8539
117.166
105.677
86.5996
32.4073
49.1912
109.362
121.813
136.489
109.366
97.3987
157.114
163.655
126.899
123.584
93.2656
107.917
122.841
96.5101
111.195
112.914
77.7961
122.289
162.014
166.861
143.01
110.841
124.567
70.1217
17.4897
89.5686
91.9105
108.922
110.697
106.37
114.715
123.933
99.3201
114.931
178.401
99.3309
114
104.038
134.755
32.2864
94.3156
96.5652
109.811
108.746
103.726
77.6236
105.942
135.588
100.044
94.1973
107.011
102.044
37.0471
110.968
108.053
83.5495
131.934
98.6
122.193
139.694
93.7321
98.5975
109.852
71.5689
135.939
101.997
117.57
155.779
106.23
101.579
112.658
106.117
158.318
97.8081
92.3543
114.54
101.623
127.762
101.046
109.912
42.6126
49.3543
119.405
101.878
104.084
113.92
69.7903
86.8082
143.82
117.887
149.97
96.1742
80.3356
141.145
111.876
98.5749
103.356
92.106
108.001
118.057
98.7069
101.426
113.024
178.211
100.135
98.4834
68.0037
109.09
89.7876
41.9421
105.816
32.0649
117.108
107.298
130.27
62.4348
110.024
71.8698
77.3693
106.503
111.181
10.3198
102.22
125.073
107.463
145.647
92.7707
151.268
101.425
103.213
121.953
101.388
110.093
106.834
100.71
97.9716
107.269
176.655
103.061
101.34
90.9475
66.8695
74.0159
110.53
109.532
109.227
95.7743
-1.72647
99.4157
135.068
101.663
88.8676
47.1311
108.678
121.832
48.4535
97.9278
16.7788
109.718
37.0105
88.1193
149.167
110.129
80.5485
132.101
101.663
106.588
96.5275
87.1953
111.445
101.971
110.314
78.25
88.4993
123.357
135.448
102.104
103.286
136.279
-12.6527
115.515
80.9899
152.156
107.213
132.337
131.094
121.85
124.542
110.414
105.529
110.644
119.089
142.119
92.8457
147.085
104.722
99.6445
63.2069
158.493
107.823
92.4115
101.937
75.6072
117.652
101.392
120.208
111.524
111.483
101.176
93.9377
100.741
179.338
159.763
103.009
65.9406
63.0808
168.468
125.152
41.4155
103.298
67.5354
141.663
110.474
103.778
148.201
83.5346
145.245
106.811
142.878
100.015
90.7674
80.7018
100.888
108.152
78.6293
103.931
109.646
114.964
111.007
69.7781
100.268
99.7303
88.8367
25.3908
104.296
104
85.0857
110.097
103.068
111.042
132.806
92.446
80.4662
185.956
91.4613
60.2977
118.57
105.708
104.584
126.928
131.032
114.941
50.4126
159.745
107.73
144.163
100.972
105.546
110.097
111.782
172.675
68.0884
42.3696
155.242
131.107
93.7494
110.853
34.502
83.5933
95.1977
154.198
161.452
122.715
144.547
107.546
45.0943
61.3873
102.037
64.6649
108.897
97.9017
114.662
155.66
129.5
137.805
90.5296
67.6506
100.869
85.2732
105.846
113.473
108.394
107.67
60.8752
107.55
150.501
159.509
144.832
95.7475
95.9788
104.429
58.4269
168.804
109.285
128.485
96.5686
145.101
133.473
148.917
94.3621
85.858
113.788
93.9771
79.4482
111.267
104.304
132.299
87.9956
-12.755
117.527
118.072
112.979
144.15
107.102
95.9735
95.3233
124.95
109.745
108.599
55.774
90.4853
101.621
185.092
99.5535
80.2808
140.908
164.893
131.398
109.563
104.456
98.9878
146.944
125.461
47.0354
93.5743
55.9313
54.128
33.8509
102.193
105.482
121.806
105.741
137.377
147.65
109.763
99.2223
117.214
166.573
83.1836
113.888
104.486
113.608
130.373
113.64
53.1578
83.8835
59.6328
91.0436
70.2239
3.10398
95.4104
69.3486
101.824
67.0063
85.7219
38.5573
170.308
29.366
93.1614
94.7059
87.0374
109.022
108.994
31.1191
114.809
101.651
110.216
152.509
137.233
116.925
113.467
85.0549
103.871
137.48
91.7513
132.606
133.042
132.054
7.14326
107.532
133.498
7.02471
155.635
107.177
121.104
107.513
104.54
147.57
143.631
101.906
108.032
146.791
104.05
109.089
128.536
148.374
122.775
128.116
137.824
93.6343
59.4447
175.417
91.4349
96.895
112.112
68.5438
80.7717
82.5792
108.367
119.354
123.744
118.975
120.126
93.1577
107.525
142.769
123.915
82.8077
100.763
176.321
101.97
96.7189
47.3273
116.295
103.428
183.457
107.128
35.8529
88.2098
153.91
69.7521
167.046
64.9668
92.1477
96.73
96.1631
158.397
107.558
179.737
35.6775
132.486
36.7702
82.392
102.648
108.658
61.7443
79.6338
134.81
99.8029
103.63
55.345
84.7734
88.5623
145.306
158.916
107.586
43.0744
91.2948
145.265
115.772
140.569
74.8716
128.123
48.823
143.55
93.5511
166.809
92.2682
111.088
108.364
109.959
111.131
98.5292
41.742
111.625
114.274
100.972
111.247
75.0903
55.2966
76.7058
122.374
102.197
132.73
122.678
56.255
69.6268
26.4322
135.632
72.4241
71.3968
23.7241
100.111
100.717
91.8722
100.472
101.804
141.148
128.044
112.016
58.6828
90.8629
49.6578
45.7207
68.4186
154.943
39.0828
103.841
14.2133
105.03
155.31
127.207
139.053
70.1886
132.643
101.288
132.739
126.906
125.266
131.795
108.772
109.187
148.794
153.807
100.803
94.9937
111.135
91.6402
112.219
97.2253
108.887
91.2843
107.608
106.758
91.3962
99.6517
189.723
106.43
110.066
94.5808
136.096
92.3727
112.902
100.58
82.6464
110.201
128.881
39.7766
113.382
110.682
114.648
106.66
87.5558
112.582
106.895
106.979
90.4384
162.58
78.6646
104.252
93.8212
114.436
110.129
129.121
114.736
110.13
114.975
110.724
53.2776
89.1758
110.301
115.511
104.108
113.321
101.454
108.584
100.842
-22.3268
112.395
163.343
130.37
122.927
73.1818
104.979
61.6327
103.031
74.7166
110.2
59.6724
123.862
98.8929
112.083
104.869
107.597
125.36
96.65
114.117
138.216
106.701
44.065
107.274
97.6631
152.953
116.393
107.471
92.0251
121.214
86.4713
70.3866
28.3913
146.403
143.224
116.929
90.9908
156.06
109.143
99.374
114.962
58.3032
87.3622
133.721
110.131
121.723
111.341
122.904
112.294
84.5171
44.7488
107.507
62.2555
114.1
98.1958
102.192
142.196
79.3859
108.049
108.927
33.014
99.5706
114.137
82.1648
112.994
134.522
101.903
136.382
103.036
117.317
101.777
187.157
95.8074
140.593
105.753
156.419
100.707
147.492
114.31
100.789
123.709
115.894
109.09
95.925
133.573
102.464
108.646
107.055
103.298
116.455
95.8922
91.2995
96.4406
48.286
139.36
39.1863
121.712
116.756
112.769
107.207
101.081
100.403
89.4496
111.231
153.755
44.4099
134.435
92.053
79.7246
154.737
97.2975
93.9004
148.513
62.6768
108.522
167.395
92.9729
102.772
79.6922
96.7996
106.911
93.1505
112.466
137.022
108.818
107.85
96.2984
32.547
126.873
101.171
110.018
111.9
73.5033
134.944
157.83
104.217
106.448
95.9555
115.657
125.033
123.284
105.046
85.3668
110.936
37.9566
99.7811
158.966
89.9557
129.422
116.659
120.508
109.912
75.2329
145.554
98.4697
102.901
61.5344
101.43
180.672
88.4109
102.511
109.369
127.877
114.641
103.162
99.9677
93.3887
99.1812
89.6671
105.581
99.3764
97.4671
102.282
79.1709
96.6695
134.41
106.997
151.204
100.854
95.0641
93.7105
111.143
86.4025
103.5
103.995
107.504
97.6829
63.3664
93.8752
60.8703
107.518
123.15
75.5535
142.338
110.437
99.1755
94.6856
159.386
101.072
120.062
104.792
175.368
111.874
109.116
140.31
66.9757
106.497
116.389
97.8152
22.5174
154.978
102.877
109.321
102.846
67.6724
115.721
125.469
97.6801
115.506
124.295
79.1724
113.033
93.5306
104.034
108.308
122.018
100.487
90.4357
108.705
114.626
97.9721
91.5948
123.265
89.7399
89.7948
165.679
108.181
62.4429
82.8045
94.3263
108.53
101.806
50.9182
110.093
149.72
83.4757
101.005
116.848
142.579
97.1225
138.624
186.997
69.6195
97.0332
113.454
130.658
102.755
137.212
92.2899
111.026
103.732
109.17
88.5227
110.816
109.802
161.413
97.9974
128.58
114.591
107.263
109.56
125.583
86.7541
92.572
118.307
100.023
64.6851
-24.2243
0.23437
157.483
90.7856
142.96
116.653
134.205
103.346
61.7242
115.53
116.85
86.9661
133.292
73.8327
114.189
111.664
30.649
111.134
98.6526
95.0518
94.1014
43.9457
114.996
132.072
-17.2942
109.73
82.3715
107.361
74.2021
50.6813
113.838
108.982
133.711
103.921
98.5982
104.337
104.775
80.8651
99.4857
103.77
117.789
99.1581
96.4401
96.3411
108.01
106.89
146.454
108.481
105.273
131.615