/*--------------------------------*- C++ -*----------------------------------*\
| =========                 |                                                 |
| \\      /  F ield         | OpenFOAM: The Open Source CFD Toolbox           |
|  \\    /   O peration     | Version:  2.3.0                                 |
|   \\  /    A nd           | Web:      www.OpenFOAM.org                      |
|    \\/     M anipulation  |                                                 |
\*---------------------------------------------------------------------------*/
FoamFile
{
    version     2.0;
    format      ascii;
    class       volScalarField;
    location    "400";
    object      nut;
}
// * * * * * * * * * * * * * * * * * * * * * * * * * * * * * * * * * * * * * //

dimensions      [0 2 -1 0 0 0 0];

internalField   nonuniform List<scalar> 
7826
(
0.0668647
0.0618171
0.0570897
0.0527482
0.0488496
0.0454363
0.0425308
0.0401264
0.0381803
0.0366125
0.0353146
0.0341682
0.0330577
0.0318817
0.0305849
0.0728494
0.0692852
0.0661037
0.0633356
0.0609904
0.0590561
0.0575043
0.0562947
0.0553801
0.0547117
0.0542425
0.0539322
0.0537456
0.0536547
0.0536382
0.0781933
0.0756515
0.0734567
0.0715975
0.0700534
0.0687955
0.06779
0.0670014
0.0663957
0.0659417
0.0656118
0.065383
0.0652364
0.0651562
0.0651305
0.082742
0.0809061
0.0793418
0.0780294
0.0769436
0.0760572
0.075343
0.074775
0.0743301
0.0739883
0.0737329
0.0735497
0.0734274
0.0733564
0.0733294
0.0865657
0.0851982
0.0840392
0.0830666
0.0822578
0.0815911
0.0810464
0.080606
0.0802541
0.0799778
0.0797664
0.0796109
0.079504
0.0794398
0.0794134
0.0897544
0.0887083
0.0878194
0.0870686
0.0864379
0.0859113
0.0854745
0.0851153
0.0848232
0.0845894
0.0844069
0.0842701
0.0841741
0.0841148
0.0840893
0.0924202
0.0915992
0.0908967
0.090297
0.0897871
0.0893553
0.0889916
0.0886877
0.0884366
0.0882325
0.0880706
0.0879472
0.0878593
0.087804
0.0877793
0.0946597
0.094001
0.0934313
0.0929388
0.0925143
0.0921496
0.091838
0.0915737
0.0913525
0.0911701
0.0910236
0.0909105
0.0908286
0.0907765
0.0907525
0.0965524
0.0960146
0.0955422
0.0951281
0.0947659
0.0944506
0.0941775
0.093943
0.0937442
0.0935785
0.0934439
0.0933388
0.0932618
0.0932121
0.0931886
0.0981672
0.097718
0.0973179
0.0969623
0.0966472
0.0963691
0.0961253
0.0959137
0.0957325
0.09558
0.095455
0.0953564
0.0952835
0.0952357
0.0952126
0.099554
0.0991692
0.0988241
0.0985137
0.098235
0.0979857
0.0977645
0.097571
0.0974039
0.0972623
0.0971452
0.0970521
0.0969826
0.0969365
0.0969135
0.100743
0.100412
0.100111
0.0998371
0.0995869
0.0993605
0.0991568
0.0989775
0.0988222
0.0986901
0.0985797
0.0984913
0.0984247
0.0983798
0.0983568
0.101768
0.101482
0.101218
0.100975
0.100746
0.10054
0.100348
0.10018
0.100035
0.0999122
0.0998069
0.0997228
0.0996589
0.0996147
0.0995911
0.102661
0.102411
0.102173
0.101962
0.101744
0.101561
0.101374
0.101216
0.101077
0.100966
0.100863
0.100783
0.100722
0.100678
0.100652
0.0306806
0.032113
0.0332904
0.0343552
0.0354487
0.0367124
0.038279
0.0402557
0.0427124
0.045679
0.0491504
0.0530978
0.0574776
0.0622361
0.0673137
0.0536314
0.0536358
0.0537175
0.0538999
0.0542128
0.054692
0.05538
0.0563233
0.0575701
0.0591659
0.0611487
0.0635445
0.0663608
0.0695859
0.0731889
0.0651334
0.0651656
0.0652529
0.0654084
0.0656481
0.0659908
0.06646
0.0670838
0.0678932
0.0689224
0.0702067
0.0717796
0.0736694
0.0758955
0.0784676
0.0733333
0.0733682
0.0734478
0.0735796
0.0737734
0.0740403
0.0743948
0.0748541
0.0754381
0.0761701
0.0770762
0.0781832
0.0795187
0.0811077
0.0829726
0.0794171
0.0794514
0.0795242
0.0796399
0.079805
0.0800266
0.0803139
0.0806779
0.0811315
0.0816906
0.0823732
0.0831989
0.0841894
0.0853665
0.0867501
0.0840927
0.0841254
0.0841921
0.084296
0.084441
0.0846323
0.0848757
0.0851782
0.0855488
0.0859981
0.0865382
0.0871834
0.0879497
0.0888546
0.0899173
0.0877822
0.0878128
0.0878744
0.087969
0.0880995
0.0882691
0.0884818
0.0887421
0.089056
0.0894308
0.0898747
0.0903978
0.0910113
0.091728
0.0925623
0.0907548
0.0907834
0.0908405
0.0909278
0.0910471
0.0912003
0.0913903
0.0916201
0.0918935
0.0922153
0.0925912
0.093028
0.0935336
0.0941169
0.0947855
0.0931902
0.0932169
0.0932701
0.0933513
0.0934616
0.0936022
0.0937749
0.0939817
0.0942249
0.0945077
0.0948336
0.0952074
0.0956346
0.0961224
0.0966803
0.0952133
0.0952379
0.0952878
0.0953638
0.0954667
0.0955972
0.0957564
0.0959455
0.0961657
0.0964188
0.0967068
0.0970328
0.0974004
0.0978143
0.0982809
0.0969133
0.096936
0.0969828
0.097054
0.0971506
0.0972731
0.0974218
0.097597
0.0977992
0.098029
0.0982876
0.0985765
0.0988977
0.0992542
0.099651
0.0983559
0.0983765
0.0984202
0.0984869
0.0985782
0.0986944
0.0988349
0.0989991
0.0991867
0.0993982
0.0996336
0.0998931
0.100178
0.100488
0.100826
0.0995905
0.0996079
0.0996496
0.099711
0.0997983
0.0999097
0.100044
0.100199
0.100375
0.100572
0.100789
0.101025
0.10128
0.101554
0.101847
0.100655
0.100665
0.10071
0.100763
0.100848
0.100957
0.101088
0.101233
0.101399
0.101585
0.101789
0.102005
0.102237
0.102482
0.102743
0.0136631
0.0108337
0.0086189
0.00709923
0.00600525
0.00514102
0.00441128
0.0037688
0.00318846
0.00265654
0.00216617
0.00171532
0.00130477
0.000932282
0.000655442
0.0137198
0.0110922
0.00903515
0.00755062
0.00644713
0.00558145
0.00486096
0.00423221
0.00366501
0.00314206
0.00265385
0.00219601
0.00176572
0.00135882
0.00102463
0.0137865
0.0113754
0.0094808
0.00802654
0.006909
0.00602635
0.00529681
0.00466512
0.00409677
0.00357093
0.00307557
0.00260381
0.00214926
0.0017049
0.00132973
0.01388
0.0116688
0.00990666
0.00849036
0.00736328
0.00645736
0.00570678
0.00505965
0.0044796
0.00394295
0.00343505
0.0029465
0.0024675
0.00198872
0.00157855
0.0140056
0.0119663
0.0103032
0.00892764
0.00779826
0.00686962
0.00609238
0.00542175
0.00482249
0.0042693
0.00374529
0.00323852
0.00273604
0.00222627
0.00178435
0.0141163
0.0122476
0.0106703
0.00933455
0.00820851
0.00726075
0.00645568
0.00575729
0.00513376
0.00455984
0.00401709
0.00349121
0.00296641
0.00242851
0.0019574
0.0142377
0.0125054
0.0110075
0.00971063
0.00859177
0.007629
0.0067975
0.0060699
0.00541919
0.00482167
0.00425822
0.00371273
0.0031666
0.00260298
0.00210505
0.0143819
0.0127455
0.0113165
0.0100567
0.00894743
0.00797344
0.00711801
0.00636158
0.00568252
0.00505968
0.00447429
0.00390885
0.00334233
0.00275504
0.00223244
0.0144924
0.0129659
0.0115998
0.0103746
0.00927603
0.00829377
0.00741735
0.00663354
0.00592617
0.00527737
0.00466931
0.00408385
0.00349778
0.00288858
0.00234336
0.0146073
0.0131672
0.0118589
0.0106661
0.0095787
0.00859046
0.00769574
0.00688661
0.00615184
0.00547713
0.00484632
0.004241
0.00363626
0.00300676
0.00244067
0.0147067
0.013351
0.0120959
0.010933
0.00985682
0.00886438
0.00795369
0.0071214
0.00636067
0.00566069
0.00500735
0.00438256
0.00375984
0.00311149
0.00252631
0.0147928
0.0135173
0.012312
0.0111774
0.0101122
0.00911682
0.00819257
0.00733954
0.00655469
0.00583066
0.00515569
0.00451208
0.00387273
0.00320638
0.00260299
0.0148774
0.013668
0.0125078
0.0113988
0.0103434
0.00934498
0.00840757
0.00753455
0.00672661
0.00597965
0.00528305
0.00462191
0.0039648
0.00328562
0.0026681
0.0149959
0.0138488
0.0127308
0.0116445
0.0106031
0.00960803
0.00866357
0.00777583
0.00694432
0.00617077
0.0054571
0.00477007
0.00410721
0.00338396
0.00274096
0.000665372
0.000909886
0.00124884
0.0016146
0.0020026
0.00241055
0.00284215
0.00330963
0.00383946
0.00448859
0.00538415
0.00678131
0.00866609
0.0110618
0.0140446
0.001027
0.001304
0.00164982
0.00201591
0.00239832
0.00279796
0.00322292
0.00369279
0.00424638
0.00495458
0.00592854
0.00729048
0.00909643
0.0113469
0.0141126
0.00132594
0.00162039
0.00197977
0.0023532
0.0027398
0.00314478
0.00358196
0.00407909
0.00468282
0.00546012
0.0064859
0.00781877
0.00954571
0.0116575
0.0142176
0.00156984
0.0018779
0.00225148
0.00263586
0.00303378
0.00345546
0.00392055
0.00446202
0.00512571
0.00596352
0.00701998
0.00833063
0.00998363
0.0119686
0.0143356
0.00177168
0.00209237
0.00248002
0.00287806
0.00329331
0.00374093
0.00424484
0.00483862
0.00556085
0.00644662
0.00752176
0.00881332
0.0103982
0.0122681
0.0144607
0.00194161
0.00227454
0.00267633
0.00309045
0.00352804
0.00400841
0.00455718
0.00520455
0.00597914
0.00690238
0.00798954
0.00926259
0.0107851
0.0125506
0.0145865
0.00208679
0.00243171
0.00284788
0.00328022
0.00374401
0.00426135
0.00485705
0.00555548
0.00637541
0.00732832
0.00842325
0.00967756
0.0111428
0.0128122
0.0147016
0.00221229
0.00256895
0.00299986
0.00345208
0.0039447
0.00450098
0.00514299
0.00588828
0.00674712
0.00772404
0.00882364
0.0100589
0.0114716
0.0130553
0.0148304
0.00232181
0.00268995
0.00313586
0.00360919
0.00413201
0.00472749
0.00541361
0.00620115
0.00709345
0.00809003
0.00919196
0.0104083
0.0117736
0.0132816
0.0149497
0.00241807
0.0027974
0.00325846
0.00375359
0.00430708
0.00494079
0.00566804
0.00649334
0.00741455
0.00842736
0.00952993
0.0107281
0.0120507
0.01349
0.0150547
0.00250325
0.00289361
0.00336989
0.003887
0.00447078
0.0051409
0.00590591
0.00676486
0.00771116
0.00873744
0.00983956
0.0110205
0.012304
0.013679
0.0151441
0.00257887
0.00297942
0.00347037
0.00400908
0.00462231
0.00532711
0.00612716
0.00701614
0.00798423
0.00902174
0.0101227
0.0112876
0.0125353
0.0138537
0.0152471
0.00264649
0.00305919
0.00356696
0.00412883
0.00477048
0.00550638
0.00633339
0.00724811
0.00823548
0.00928377
0.0103831
0.0115323
0.0127466
0.0140108
0.0153117
0.00270748
0.00312151
0.00363192
0.00420115
0.00486501
0.0056239
0.00651259
0.00745979
0.0084673
0.00950717
0.010594
0.0117277
0.0129229
0.0141288
0.015364
0.00129496
0.00391099
0.00679508
0.00990268
0.0132261
0.0167629
0.0205241
0.0245334
0.0288237
0.0334295
0.0383765
0.0436722
0.049301
0.0552231
0.0613777
9.4914e-08
0.000431931
0.00175328
0.00389376
0.00640173
0.00938659
0.0128534
0.0168003
0.021223
0.0261154
0.0314658
0.0372526
0.0434376
0.0499614
0.0567414
0
0.000210773
0.00108443
0.00254416
0.00436926
0.00669088
0.00955178
0.0129833
0.0170066
0.0216305
0.0268485
0.0326363
0.0389485
0.0457188
0.0528774
4.26801e-06
0.000210478
0.00109068
0.00215948
0.00360978
0.0055099
0.00791962
0.0108959
0.0144882
0.0187332
0.0236499
0.0292339
0.0354521
0.0422379
0.0494746
9.25349e-06
0.000567239
0.00105769
0.00195319
0.00319368
0.00483504
0.00694212
0.009583
0.0128236
0.0167222
0.0213218
0.0266425
0.0326737
0.039367
0.0466389
0.000336921
0.000666955
0.00106598
0.00179264
0.00289143
0.00435782
0.00625264
0.00864664
0.0116134
0.0152237
0.0195376
0.0245961
0.0304106
0.0369528
0.0441431
0.000385349
0.000634222
0.00106372
0.00165854
0.00264929
0.00398476
0.00571945
0.0079235
0.0106731
0.0140455
0.0181119
0.0229286
0.0285267
0.0349008
0.0420044
0.00037448
0.000588511
0.00103148
0.00155236
0.00245168
0.00368259
0.00528941
0.0073405
0.00991242
0.0130854
0.0169377
0.0215368
0.0269297
0.033131
0.0401155
0.000366351
0.000564454
0.000999374
0.00149549
0.00229194
0.00343364
0.00493427
0.00685785
0.00928018
0.012283
0.0159488
0.0203531
0.0255555
0.0315884
0.0384508
0.000361138
0.000553886
0.000976946
0.00145838
0.0021613
0.0032255
0.00463574
0.00645048
0.00874439
0.0115996
0.0151011
0.0193306
0.0243571
0.0302272
0.0369528
0.000357159
0.000548069
0.000960749
0.00142509
0.00205364
0.00304898
0.00438102
0.00610146
0.00828338
0.0110088
0.0143644
0.0184359
0.0232998
0.0290123
0.0355928
0.000353595
0.000543526
0.000948477
0.00139751
0.00197713
0.00289896
0.00416111
0.00579864
0.00788171
0.0104918
0.0137166
0.0176446
0.0223578
0.02792
0.034361
0.000350354
0.000539871
0.000940186
0.00137915
0.00193086
0.00277193
0.00396945
0.00553306
0.00752804
0.0100348
0.0131414
0.0169382
0.021511
0.0269294
0.0332284
0.000347453
0.000537084
0.000935048
0.00136738
0.00189892
0.0026635
0.003801
0.005298
0.00721374
0.00962715
0.0126261
0.0163023
0.0207446
0.0260278
0.0321993
0.00034482
0.000534797
0.000931346
0.00135807
0.00187155
0.00257143
0.00365184
0.00508826
0.0069322
0.00926067
0.0121611
0.0157262
0.0200471
0.0252046
0.031259
0.000342372
0.000532662
0.000927983
0.00134967
0.00184799
0.0025008
0.00351993
0.00489992
0.00667827
0.00892903
0.011739
0.0152012
0.0194089
0.024447
0.0303778
0.000340071
0.000530635
0.000924965
0.00134287
0.00183054
0.00245342
0.00340409
0.00473004
0.00644791
0.00862718
0.0113536
0.0147202
0.0188218
0.0237452
0.0295522
0.000337925
0.000528822
0.000922633
0.00133816
0.00181869
0.00242058
0.0033023
0.0045762
0.00623786
0.008351
0.0109998
0.0142772
0.0182782
0.0230907
0.028777
0.00033593
0.000527245
0.00092096
0.001335
0.00180988
0.00239385
0.00321247
0.00443629
0.00604544
0.00809713
0.0106737
0.0138676
0.017775
0.0224885
0.0280948
0.000334059
0.000525815
0.000919597
0.0013324
0.00180202
0.00236959
0.00313491
0.00430876
0.00586847
0.00786279
0.0103718
0.0134873
0.0173058
0.0219193
0.0273958
0.000332286
0.000524425
0.000918227
0.00132983
0.00179462
0.00234831
0.00307348
0.00419291
0.00570519
0.00764569
0.0100914
0.0131334
0.016869
0.0213957
0.0268146
0.000330591
0.000523043
0.000916799
0.00132737
0.00178829
0.0023316
0.00302895
0.00408839
0.00555422
0.00744393
0.00983013
0.0128029
0.0164596
0.0208966
0.0261875
0.00032897
0.00052171
0.000915455
0.00132536
0.00178359
0.00231943
0.00299633
0.00399422
0.00541439
0.0072559
0.00958598
0.0124934
0.0160751
0.0204285
0.0256428
0.000327429
0.000520468
0.000914329
0.00132397
0.00178036
0.00231033
0.00296987
0.0039091
0.00528462
0.00708022
0.00935721
0.0122026
0.0157132
0.0199871
0.0251134
0.000325965
0.000519319
0.000913412
0.00132303
0.00177803
0.00230267
0.00294611
0.00383238
0.00516394
0.00691569
0.0091423
0.0119288
0.015371
0.0195655
0.02459
0.000324568
0.000518234
0.000912595
0.00132226
0.00177595
0.00229545
0.00292402
0.00376523
0.00505172
0.00676126
0.00893988
0.0116701
0.0150465
0.0191652
0.0241131
0.000323226
0.000517178
0.000911763
0.00132144
0.00177383
0.00228857
0.0029043
0.00371022
0.00494777
0.00661608
0.00874886
0.0114255
0.0147405
0.0187949
0.0237054
0.000321934
0.000516112
0.00091085
0.00132051
0.00177176
0.00228248
0.00288805
0.00366784
0.00485202
0.00647947
0.00856832
0.011194
0.0144503
0.0184373
0.0232455
0.000320674
0.000515055
0.000909899
0.00131957
0.00176998
0.00227764
0.00287548
0.0036353
0.00476403
0.00635085
0.00839744
0.0109745
0.0141748
0.0180999
0.0228565
0.000319463
0.000514048
0.00090898
0.00131877
0.00176869
0.00227412
0.00286583
0.00360882
0.00468308
0.00622965
0.00823554
0.0107661
0.0139132
0.0177796
0.0224736
0.000318305
0.000513084
0.000908151
0.00131818
0.00176792
0.00227165
0.00285799
0.00358552
0.00460846
0.00611532
0.00808191
0.0105681
0.0136645
0.0174742
0.0221051
0.000317183
0.000512144
0.000907398
0.00131777
0.00176748
0.00226977
0.00285103
0.00356383
0.00454003
0.00600741
0.00793605
0.0103797
0.0134274
0.0171816
0.021745
0.000316092
0.000511258
0.000906703
0.00131745
0.0017672
0.0022681
0.00284437
0.00354333
0.00447876
0.00590561
0.00779736
0.0102
0.0132003
0.016898
0.0213872
0.000315049
0.000510403
0.000906026
0.00131712
0.0017669
0.0022664
0.00283792
0.00352451
0.00442637
0.00580989
0.00766537
0.0100285
0.0129831
0.0166301
0.021081
0.000314033
0.000509537
0.000905308
0.00131672
0.00176648
0.00226469
0.00283196
0.00350816
0.00438367
0.00572026
0.00753967
0.00986445
0.0127752
0.0163709
0.0207511
0.000313034
0.00050869
0.00090455
0.00131623
0.00176599
0.0022631
0.00282686
0.0034947
0.00434967
0.00563664
0.00741993
0.00970748
0.0125755
0.0161214
0.0204441
0.000312074
0.000507858
0.000903774
0.0013157
0.00176554
0.00226184
0.00282284
0.003484
0.00432206
0.00555867
0.00730581
0.00955699
0.0123833
0.01588
0.0201451
0.000311135
0.000507022
0.000902991
0.00131519
0.00176521
0.00226101
0.00281988
0.00347547
0.0042985
0.00548584
0.00719696
0.00941268
0.0121991
0.0156522
0.0198885
0.000310211
0.000506209
0.000902226
0.00131474
0.00176506
0.00226061
0.0028178
0.00346836
0.00427726
0.0054177
0.00709309
0.00927426
0.0120223
0.0154321
0.0196111
0.000309319
0.000505447
0.00090152
0.00131437
0.00176509
0.00226057
0.00281628
0.00346205
0.00425733
0.00535409
0.0069939
0.00914139
0.0118522
0.0152208
0.0193608
0.00030846
0.000504691
0.00090085
0.00131408
0.00176525
0.00226072
0.00281505
0.00345608
0.00423825
0.0052954
0.00689923
0.00901391
0.0116895
0.0150214
0.019136
0.00030761
0.000503961
0.000900206
0.00131382
0.00176546
0.00226095
0.0028139
0.00345027
0.00422012
0.00524258
0.00680904
0.00889162
0.0115331
0.014827
0.0188839
0.000306786
0.00050326
0.000899579
0.00131356
0.00176564
0.00226113
0.00281271
0.00344465
0.00420339
0.00519676
0.0067234
0.00877427
0.0113825
0.014638
0.018643
0.000305989
0.000502566
0.000898947
0.00131327
0.00176577
0.00226124
0.00281151
0.00343942
0.00418861
0.00515838
0.00664235
0.00866142
0.0112363
0.0144502
0.0183889
0.000305205
0.000501855
0.000898283
0.00131292
0.00176581
0.00226128
0.00281042
0.00343486
0.00417607
0.00512677
0.00656583
0.00855282
0.0110949
0.0142708
0.0181813
0.000304427
0.000501165
0.0008976
0.00131253
0.00176579
0.00226132
0.00280955
0.00343112
0.00416578
0.0051005
0.00649362
0.0084482
0.0109576
0.0140949
0.0179491
0.000303677
0.00050049
0.000896914
0.0013121
0.00176576
0.00226142
0.00280899
0.00342828
0.00415743
0.005078
0.00642539
0.00834733
0.0108244
0.0139239
0.0177349
0.000302938
0.000499803
0.000896215
0.00131167
0.00176574
0.00226165
0.00280881
0.00342626
0.00415053
0.00505793
0.00636076
0.00824995
0.010695
0.0137573
0.0175253
0.000302205
0.000499144
0.000895532
0.00131126
0.00176578
0.00226204
0.002809
0.00342489
0.00414464
0.00503933
0.00629946
0.00815599
0.0105697
0.0135981
0.0173404
0.0003015
0.000498508
0.00089488
0.00131089
0.0017659
0.0022626
0.00280947
0.003424
0.00413934
0.0050216
0.00624141
0.00806528
0.0104482
0.0134431
0.0171438
0.000300806
0.000497867
0.000894239
0.00131055
0.00176609
0.00226326
0.00281014
0.00342337
0.00413433
0.00500443
0.00618679
0.00797783
0.010331
0.0132957
0.0169759
0.000300118
0.000497242
0.000893618
0.00131023
0.00176631
0.00226401
0.00281093
0.00342285
0.00412943
0.0049878
0.00613617
0.00789361
0.0102175
0.0131504
0.0167807
0.00029945
0.000496655
0.000893021
0.00130994
0.00176656
0.00226477
0.00281171
0.00342232
0.0041246
0.00497194
0.00609033
0.00781263
0.0101074
0.01301
0.0166136
0.000298802
0.000496056
0.000892428
0.00130965
0.00176679
0.0022655
0.00281246
0.00342176
0.00411991
0.00495718
0.00604996
0.00773499
0.010001
0.0128748
0.0164507
0.000298155
0.00049547
0.000891831
0.00130934
0.00176699
0.00226618
0.00281313
0.00342118
0.0041155
0.0049439
0.00601528
0.0076608
0.00989814
0.0127432
0.0162841
0.000297523
0.000494901
0.000891235
0.001309
0.00176713
0.00226677
0.00281373
0.00342064
0.00411156
0.00493234
0.00598587
0.00759006
0.00979844
0.0126147
0.0161198
0.000296909
0.000494336
0.000890635
0.00130864
0.00176723
0.0022673
0.00281429
0.00342022
0.00410823
0.00492253
0.00596087
0.00752268
0.00970174
0.012489
0.0159592
0.0002963
0.000493752
0.000890012
0.00130824
0.00176726
0.00226778
0.00281487
0.00342003
0.00410557
0.00491434
0.00593922
0.00745844
0.00960797
0.0123664
0.0158037
0.000295692
0.000493191
0.000889387
0.00130782
0.00176726
0.00226824
0.00281552
0.00342009
0.00410361
0.00490752
0.00591999
0.00739713
0.00951683
0.0122462
0.0156462
0.000295107
0.000492629
0.000888755
0.00130738
0.00176726
0.00226872
0.00281625
0.00342045
0.00410227
0.00490175
0.00590236
0.00733845
0.00942814
0.0121282
0.0154951
0.000294519
0.000492072
0.000888126
0.00130695
0.00176725
0.00226923
0.00281712
0.0034211
0.00410144
0.00489676
0.00588579
0.00728228
0.00934206
0.0120148
0.015363
0.000293943
0.000491537
0.000887504
0.00130652
0.00176726
0.0022698
0.00281812
0.00342199
0.00410101
0.00489225
0.00586988
0.00722859
0.00925882
0.0119061
0.0152325
0.000293384
0.00049101
0.000886906
0.0013061
0.0017673
0.00227042
0.00281922
0.00342308
0.00410086
0.00488804
0.00585441
0.00717746
0.00917811
0.011799
0.0150893
0.000292834
0.000490472
0.000886311
0.00130572
0.00176737
0.00227109
0.00282041
0.0034243
0.00410085
0.00488398
0.00583932
0.00712915
0.00909999
0.0116951
0.0149622
0.000292286
0.000489947
0.00088573
0.00130533
0.00176746
0.0022718
0.00282166
0.00342559
0.00410091
0.00487998
0.00582465
0.0070841
0.00902432
0.0115939
0.0148334
0.000291759
0.00048945
0.000885169
0.00130497
0.00176756
0.00227252
0.00282291
0.00342689
0.00410099
0.00487605
0.0058106
0.00704288
0.00895122
0.0114955
0.0147084
0.000291253
0.000488961
0.000884627
0.00130462
0.00176768
0.00227324
0.00282417
0.00342818
0.00410105
0.00487224
0.00579741
0.00700589
0.00888046
0.0113977
0.0145736
0.000290751
0.000488452
0.000884072
0.00130427
0.00176777
0.00227395
0.0028254
0.00342943
0.00410111
0.00486864
0.00578532
0.00697336
0.00881233
0.0113039
0.014464
0.000290252
0.000487968
0.000883538
0.00130392
0.00176788
0.00227465
0.00282661
0.00343067
0.00410123
0.0048654
0.00577456
0.00694517
0.00874679
0.0112118
0.014339
0.000289801
0.000487472
0.000882982
0.00130354
0.00176793
0.00227529
0.00282776
0.00343189
0.00410145
0.00486263
0.00576522
0.00692082
0.00868385
0.0111221
0.0142244
0.000289325
0.000486994
0.000882545
0.00130329
0.0017681
0.00227603
0.00282901
0.00343323
0.00410192
0.00486048
0.00575737
0.00689978
0.0086236
0.011035
0.0141127
0.000289048
0.000486426
0.000881842
0.00130278
0.00176812
0.00227674
0.00283037
0.00343481
0.00410286
0.00485918
0.00575104
0.00688142
0.00856621
0.0109508
0.0140044
0.000288307
0.000486078
0.000881801
0.00130235
0.00176761
0.00227643
0.00283038
0.00343499
0.00410253
0.00485704
0.00574467
0.00686418
0.00850976
0.0108675
0.0138923
0.000290108
0.000486304
0.000884017
0.00130857
0.00177715
0.00228839
0.00284384
0.00344898
0.00411588
0.00486811
0.00575059
0.00685787
0.00846713
0.0107949
0.0137948
0.000270679
0.000463722
0.000839345
0.00124983
0.00171102
0.00221969
0.00277579
0.00338335
0.0040531
0.00480721
0.00568886
0.00678847
0.00835814
0.0106743
0.0136764
0.00127022
0.0038291
0.00665587
0.0097028
0.0129815
0.0165045
0.0202933
0.0243748
0.0287751
0.033513
0.0385941
0.0440078
0.0497278
0.0557135
0.0619208
8.78979e-08
0.000418412
0.00169808
0.00382077
0.00630518
0.00927817
0.0127529
0.016737
0.0212306
0.026224
0.0316945
0.0376036
0.0438969
0.0505054
0.0573558
0
0.000224262
0.0011357
0.00259446
0.00442477
0.00675535
0.0096309
0.0130897
0.0171591
0.021851
0.0271566
0.0330429
0.0394508
0.0462979
0.0534898
8.19503e-06
0.000264756
0.00113813
0.00223273
0.00370539
0.0056288
0.00806522
0.0110753
0.0147128
0.019018
0.0240103
0.0296812
0.0359891
0.0428584
0.0501859
6.77126e-05
0.000534885
0.00107978
0.00200313
0.00327293
0.0049441
0.00708489
0.00976622
0.0130571
0.0170181
0.021693
0.0270996
0.0332211
0.0400002
0.0473389
0.000353464
0.000597236
0.000999157
0.00181091
0.00294713
0.00444752
0.00637936
0.00881711
0.011837
0.0155117
0.0199021
0.0250472
0.0309543
0.0375877
0.0448618
0.000403954
0.000561032
0.000920142
0.00165335
0.0026843
0.00405738
0.0058313
0.0080804
0.010884
0.0143212
0.0184642
0.023368
0.0290597
0.0355259
0.0427024
0.000395822
0.000531097
0.000883063
0.00152539
0.00246894
0.00373935
0.00538718
0.00748392
0.0101096
0.0133469
0.0172748
0.0219595
0.0274425
0.0337234
0.0407295
0.000388007
0.00052129
0.000870178
0.00142255
0.00229325
0.00347518
0.00501832
0.00698811
0.00946381
0.0125297
0.0162692
0.0207565
0.0260454
0.0321558
0.0390711
0.000383186
0.000519238
0.000859584
0.00133837
0.00214678
0.00325201
0.00470628
0.00656804
0.00891493
0.0118318
0.0154048
0.0197144
0.0248247
0.0307722
0.0375547
0.00037904
0.000517545
0.000847186
0.00126777
0.00202306
0.00306308
0.00443856
0.00620651
0.00844112
0.0112269
0.014652
0.0188012
0.023747
0.0295382
0.0361849
0.000374877
0.000514541
0.000833558
0.00121051
0.00191736
0.00290094
0.0042059
0.00589132
0.00802698
0.0106964
0.0139888
0.017992
0.0227846
0.0284216
0.034913
0.000371008
0.000512377
0.000826726
0.0011862
0.00182818
0.00275969
0.0040013
0.00561347
0.00766105
0.0102263
0.0133988
0.017269
0.0219201
0.027418
0.0338054
0.000367736
0.000512269
0.000827724
0.00118164
0.00175329
0.00263581
0.00382088
0.00536637
0.0073348
0.00980617
0.0128699
0.0166183
0.021139
0.026506
0.0327678
0.00036494
0.000513243
0.000831533
0.00117954
0.00168934
0.00252664
0.00366097
0.00514498
0.00704168
0.00942781
0.0123923
0.0160286
0.0204273
0.0256654
0.0317845
0.000362347
0.000513922
0.000834147
0.00117424
0.00163332
0.00242965
0.00351782
0.00494524
0.00677651
0.00908481
0.0119582
0.0154906
0.0197744
0.0248895
0.0308857
0.000359764
0.000513639
0.000834165
0.0011656
0.00158528
0.00234268
0.00338846
0.0047637
0.00653512
0.008772
0.0115614
0.0149974
0.0191745
0.0241788
0.0300846
0.000357202
0.000512782
0.0008333
0.00115928
0.00155834
0.00226589
0.00327129
0.00459897
0.00631431
0.00848526
0.0111969
0.0145434
0.0186212
0.0235214
0.0293213
0.000354797
0.000512174
0.000833947
0.00115901
0.00155066
0.00219933
0.00316511
0.0044489
0.00611146
0.00822122
0.0108607
0.0141238
0.0181086
0.0229087
0.0286015
0.000352632
0.000512172
0.000836585
0.0011629
0.00154932
0.00214133
0.00306866
0.00431133
0.00592433
0.00797711
0.0105493
0.0137346
0.0176315
0.0223352
0.0279234
0.000350678
0.000512534
0.000840132
0.00116764
0.00154727
0.00208976
0.0029806
0.00418458
0.00575101
0.00775059
0.01026
0.013372
0.0171857
0.0217975
0.0272887
0.000348844
0.000512828
0.000843294
0.00117104
0.0015425
0.00204301
0.00289971
0.00406728
0.00559006
0.00753966
0.00999014
0.0130333
0.0167683
0.0212928
0.0266907
0.000347053
0.000512756
0.000845313
0.00117238
0.00153552
0.00200266
0.00282524
0.0039586
0.00544089
0.00734272
0.00973767
0.0127156
0.0163751
0.0208125
0.0261043
0.000345277
0.000512317
0.000846329
0.00117272
0.00152999
0.00197737
0.00275773
0.00385782
0.0053021
0.00715833
0.00950077
0.0124171
0.0160058
0.0203675
0.0256069
0.000343543
0.000511753
0.000847145
0.00117384
0.00152893
0.00196757
0.00269766
0.00376432
0.00517242
0.00698523
0.00927793
0.0121358
0.0156569
0.0199407
0.0250684
0.0003419
0.00051132
0.000848464
0.00117663
0.00153191
0.00196519
0.0026443
0.0036775
0.0050509
0.00682232
0.00906781
0.0118702
0.0153264
0.0195355
0.0245842
0.000340366
0.000511123
0.000850458
0.00118077
0.00153679
0.00196409
0.00259624
0.00359667
0.0049367
0.00666853
0.00886916
0.0116185
0.0150125
0.0191497
0.0241192
0.000338948
0.000511061
0.000852817
0.00118535
0.00154163
0.00196166
0.0025522
0.00352117
0.00482924
0.00652372
0.00868106
0.0113799
0.0147152
0.0187887
0.0237115
0.000337596
0.000511004
0.000855081
0.00118952
0.00154528
0.00195722
0.00251155
0.00345045
0.00472808
0.00638717
0.0085027
0.0111534
0.0144333
0.0184458
0.0232989
0.000336276
0.000510846
0.000856897
0.00119277
0.0015474
0.00195133
0.00247606
0.00338424
0.00463269
0.00625804
0.00833338
0.0109384
0.0141658
0.0181208
0.0229133
0.000334985
0.000510515
0.000858158
0.00119508
0.00154859
0.00194623
0.00245124
0.00332294
0.00454262
0.00613567
0.00817244
0.0107337
0.0139105
0.0178054
0.0225122
0.000333722
0.00051003
0.000859002
0.00119695
0.00155002
0.00194424
0.0024388
0.0032671
0.00445764
0.0060195
0.00801921
0.0105386
0.0136669
0.0175075
0.0221721
0.000332474
0.000509524
0.000859735
0.00119894
0.00155261
0.0019458
0.00243429
0.00321657
0.00437745
0.00590904
0.00787309
0.0103524
0.0134341
0.0172209
0.0218146
0.00033128
0.000509077
0.000860625
0.00120145
0.00155652
0.00194981
0.00243287
0.00317058
0.00430173
0.00580392
0.00773374
0.0101743
0.0132107
0.0169438
0.0214726
0.000330155
0.00050871
0.000861775
0.00120451
0.00156136
0.00195483
0.00243162
0.00312822
0.00423019
0.00570388
0.00760103
0.0100038
0.0129972
0.0166827
0.0211771
0.000329077
0.000508427
0.00086311
0.00120787
0.00156649
0.00195969
0.00242929
0.00308872
0.00416247
0.00560859
0.0074744
0.00984051
0.012792
0.0164278
0.0208464
0.000328035
0.000508201
0.000864493
0.00121122
0.00157137
0.00196372
0.00242554
0.0030518
0.00409824
0.00551777
0.00735336
0.00968388
0.0125952
0.0161861
0.0205721
0.000327047
0.000507942
0.000865767
0.00121428
0.00157562
0.00196664
0.00242062
0.00301842
0.00403731
0.00543108
0.0072375
0.00953358
0.0124063
0.0159541
0.0202932
0.000326076
0.000507619
0.000866804
0.00121687
0.00157911
0.00196863
0.00241567
0.00299169
0.00397987
0.00534826
0.00712645
0.00938936
0.0122255
0.0157346
0.0200437
0.000325113
0.000507245
0.000867572
0.00121898
0.00158198
0.00197035
0.00241237
0.00297442
0.00392636
0.00526918
0.00702
0.00925092
0.0120519
0.0155214
0.0197724
0.00032418
0.000506798
0.000868125
0.00122076
0.00158463
0.00197255
0.00241178
0.00296561
0.00387704
0.00519372
0.00691788
0.0091179
0.011885
0.0153154
0.0195195
0.000323261
0.00050632
0.000868558
0.00122243
0.00158743
0.00197573
0.00241387
0.00296201
0.00383172
0.00512177
0.00681989
0.00899009
0.0117234
0.0151119
0.0192501
0.000322356
0.000505872
0.000868991
0.00122418
0.00159062
0.00197996
0.00241783
0.00296064
0.00378987
0.00505317
0.0067258
0.00886718
0.0115671
0.0149172
0.0190251
0.000321489
0.00050546
0.000869518
0.00122614
0.00159427
0.00198499
0.00242276
0.00295965
0.00375087
0.00498772
0.00663544
0.0087488
0.0114159
0.0147281
0.0187874
0.000320664
0.00050507
0.000870146
0.00122831
0.00159827
0.00199044
0.00242783
0.0029581
0.00371423
0.00492522
0.00654859
0.00863466
0.0112697
0.0145451
0.0185628
0.000319855
0.000504736
0.000870856
0.0012306
0.00160241
0.00199592
0.00243252
0.0029556
0.00367963
0.00486543
0.006465
0.0085244
0.0111278
0.0143668
0.0183398
0.000319081
0.000504429
0.000871594
0.00123291
0.00160648
0.00200112
0.00243651
0.00295212
0.00364714
0.00480816
0.00638448
0.0084179
0.0109909
0.0141969
0.0181426
0.00031834
0.000504108
0.000872298
0.00123511
0.00161031
0.00200583
0.0024397
0.00294794
0.0036178
0.00475335
0.00630685
0.00831481
0.0108575
0.0140264
0.0179046
0.000317611
0.000503773
0.0008729
0.00123711
0.00161378
0.00200997
0.00244222
0.00294384
0.00359368
0.00470112
0.00623195
0.00821503
0.0107285
0.0138675
0.0177459
0.000316888
0.000503436
0.000873386
0.00123886
0.00161686
0.00201363
0.00244448
0.00294085
0.00357662
0.00465178
0.00615969
0.00811842
0.0106033
0.013709
0.01752
0.000316194
0.000503055
0.000873752
0.00124037
0.0016196
0.002017
0.00244697
0.00293984
0.00356644
0.00460559
0.00609004
0.00802477
0.0104815
0.0135535
0.0173252
0.000315509
0.000502647
0.000874014
0.0012417
0.00162215
0.00202036
0.00245008
0.00294099
0.00356132
0.0045625
0.00602291
0.00793398
0.0103633
0.0134036
0.0171449
0.000314826
0.000502249
0.000874208