/*--------------------------------*- C++ -*----------------------------------*\
| =========                 |                                                 |
| \\      /  F ield         | OpenFOAM: The Open Source CFD Toolbox           |
|  \\    /   O peration     | Version:  2.3.0                                 |
|   \\  /    A nd           | Web:      www.OpenFOAM.org                      |
|    \\/     M anipulation  |                                                 |
\*---------------------------------------------------------------------------*/
FoamFile
{
    version     2.0;
    format      ascii;
    class       volScalarField;
    location    "400";
    object      p;
}
// * * * * * * * * * * * * * * * * * * * * * * * * * * * * * * * * * * * * * //

dimensions      [0 2 -2 0 0 0 0];

internalField   nonuniform List<scalar> 
7826
(
-0.000197022
-0.777205
-1.298
-1.50301
-1.4118
-1.08279
-0.578193
0.0581081
0.818985
1.72932
2.82443
4.10259
5.48823
7.20507
10.5658
2.20388
1.75494
1.35542
1.06696
0.958099
1.09877
1.54554
2.32758
3.44611
4.87308
6.56295
8.45812
10.4979
12.6417
14.8621
4.50713
4.68679
5.02484
5.52128
6.15499
6.89393
7.70608
8.56485
9.45003
10.3463
11.2416
12.1273
12.9928
13.8335
14.6507
6.08811
6.36584
6.73029
7.17768
7.70565
8.30633
8.96875
9.68014
10.4268
11.1961
11.9746
12.7525
13.5188
14.267
14.9935
7.36818
7.73348
8.16427
8.64696
9.17178
9.72709
10.3026
10.8899
11.4818
12.0733
12.6598
13.2381
13.8048
14.3581
14.8976
8.31382
8.67655
9.08256
9.51743
9.97718
10.4559
10.9483
11.4498
11.9561
12.464
12.9705
13.473
13.9691
14.4567
14.9349
9.05285
9.39698
9.77649
10.1723
10.5831
11.0051
11.4352
11.8708
12.3094
12.7492
13.1883
13.6255
14.0588
14.4869
14.9088
9.63232
9.94197
10.2873
10.6424
11.0083
11.3833
11.7652
12.1527
12.5442
12.9382
13.3335
13.7289
14.1226
14.5136
14.9005
10.0967
10.3692
10.6808
11.0006
11.3299
11.6674
12.0118
12.3622
12.7174
13.0764
13.4381
13.8012
14.1645
14.5268
14.8864
10.4631
10.7061
10.9864
11.2763
11.576
11.8833
12.1987
12.5203
12.8477
13.18
13.5159
13.8542
14.1942
14.5344
14.8736
10.7328
10.9669
11.225
11.4911
11.7683
12.0512
12.3441
12.6427
12.9481
13.2593
13.5757
13.8942
14.2161
14.5392
14.8622
10.9303
11.1691
11.4125
11.6588
11.9194
12.1816
12.4571
12.7368
13.0252
13.3189
13.6216
13.9268
14.2381
14.5499
14.86
11.1545
11.3591
11.5751
11.8039
12.0499
12.2937
12.5552
12.8201
13.0983
13.3792
13.6631
13.9462
14.2365
14.5346
14.8357
11.3842
11.5434
11.7612
11.9415
12.204
12.392
12.6731
12.9089
13.1713
13.4395
13.7383
13.9318
14.1744
14.446
14.7371
17.3605
20.2888
21.8362
23.3924
24.9595
26.4271
27.7665
28.9724
30.0129
30.8265
31.3394
31.4879
31.2437
30.6447
29.8393
17.0737
19.2527
21.2947
23.1815
24.8779
26.3413
27.5317
28.4187
28.9908
29.2593
29.2569
29.0354
28.6546
28.1759
27.6653
15.4585
16.2818
17.1306
18.0084
18.9082
19.8213
20.7376
21.6423
22.5154
23.3308
24.0555
24.6529
25.0908
25.3596
25.4908
15.7073
16.4257
17.1576
17.8996
18.6443
19.3809
20.1002
20.7894
21.4372
22.0316
22.5614
23.0165
23.3897
23.6832
23.9015
15.4303
15.969
16.5195
17.0813
17.6519
18.2278
18.8054
19.3797
19.9444
20.492
21.0123
21.4938
21.9245
22.2981
22.5976
15.4073
15.8825
16.3639
16.8505
17.3401
17.8301
18.3178
18.8001
19.2735
19.7338
20.1761
20.595
20.9838
21.3413
21.6702
15.327
15.747
16.171
16.5979
17.0261
17.4538
17.8794
18.3007
18.716
19.1223
19.5169
19.896
20.2554
20.5919
20.8953
15.2847
15.6696
16.0563
16.4439
16.8304
17.2147
17.5953
17.9706
18.3395
18.7002
19.0509
19.3896
19.7134
20.019
20.3113
15.2443
15.6021
15.9605
16.3182
16.6736
17.0252
17.3724
17.7135
18.0476
18.3737
18.6904
18.9965
19.2889
19.5638
19.8412
15.2116
15.549
15.8862
16.2214
16.5532
16.88
17.2013
17.5159
17.8229
18.1215
18.4111
18.6907
18.9588
19.2132
19.4828
15.1854
15.5065
15.8279
16.1454
16.4579
16.7644
17.0652
17.3586
17.6441
17.9206
18.1883
18.4457
18.6928
18.927
19.1742
15.1717
15.4785
15.7867
16.088
16.3833
16.6719
16.9567
17.2324
17.5006
17.7589
18.0098
18.2481
18.4775
18.6944
18.9156
15.1357
15.4308
15.7235
16.0226
16.3128
16.5868
16.8584
17.1215
17.3774
17.6196
17.8552
18.0747
18.2879
18.4876
18.6934
15.0716
15.3188
15.6444
15.9584
16.2499
16.5046
16.7613
17.0168
17.2647
17.4917
17.7094
17.9111
18.1057
18.2786
18.4416
11.6949
11.8021
11.9513
12.15
12.3827
12.6252
12.8502
13.0365
13.1718
13.2537
13.2864
13.2747
13.2223
13.1232
13.1485
11.8111
11.8452
11.8603
11.8531
11.8209
11.7681
11.7041
11.6396
11.5835
11.5408
11.5121
11.4937
11.4853
11.4699
11.4863
11.8409
11.8267
11.7816
11.7241
11.6666
11.6192
11.5876
11.5721
11.5701
11.5768
11.587
11.5946
11.601
11.6099
11.6319
11.9408
11.9547
11.9627
11.9765
11.9977
12.0245
12.0543
12.0844
12.1127
12.1377
12.1578
12.1707
12.1778
12.1892
12.2108
12.0642
12.0986
12.128
12.1588
12.1896
12.2189
12.2466
12.2728
12.2974
12.3199
12.3392
12.3537
12.3635
12.3778
12.4018
12.1433
12.1809
12.2031
12.2239
12.2443
12.2645
12.285
12.3061
12.3272
12.3474
12.3652
12.3789
12.3889
12.4036
12.4288
12.2127
12.24
12.2581
12.2766
12.2953
12.3139
12.3326
12.3512
12.3693
12.3862
12.4007
12.4117
12.42
12.4338
12.4594
12.2789
12.3013
12.3194
12.3376
12.3552
12.3717
12.3871
12.4014
12.4144
12.4258
12.4351
12.4418
12.447
12.459
12.4848
12.3188
12.3524
12.3726
12.3904
12.406
12.4191
12.4298
12.4382
12.4442
12.4478
12.4485
12.4469
12.4453
12.4534
12.479
12.3861
12.4034
12.4214
12.4377
12.4514
12.4622
12.4697
12.4736
12.4733
12.4686
12.4585
12.4429
12.4273
12.4231
12.4435
12.4348
12.4525
12.4677
12.4817
12.4938
12.5029
12.5074
12.5059
12.4981
12.4834
12.4572
12.4179
12.3723
12.3512
12.3677
12.4791
12.499
12.5144
12.5294
12.5444
12.558
12.5676
12.5704
12.565
12.5556
12.5344
12.4676
12.3745
12.281
12.2614
12.5214
12.532
12.5419
12.5529
12.5648
12.5748
12.5786
12.5668
12.5401
12.5226
12.497
12.3927
12.1423
12.0533
12.0156
12.5987
12.6173
12.6258
12.6398
12.6725
12.7164
12.7711
12.8165
12.8061
12.8513
13.0592
12.9724
12.6151
12.0525
11.7385
13.2061
13.2496
13.415
13.5316
13.6136
13.6552
13.6496
13.5922
13.4896
13.3619
13.2406
13.1579
13.1409
13.197
13.3103
11.5155
11.5404
11.5991
11.6502
11.723
11.8205
11.9478
12.1038
12.2817
12.4695
12.6524
12.8173
12.9635
13.0994
13.233
11.6629
11.6973
11.742
11.7853
11.834
11.8895
11.9598
12.0508
12.1671
12.31
12.4754
12.6529
12.8313
13.002
13.1604
12.2394
12.2742
12.3162
12.3591
12.4008
12.4421
12.4865
12.5354
12.5906
12.6541
12.7285
12.8159
12.9176
13.0328
13.1585
12.4293
12.4611
12.4995
12.5394
12.5781
12.6177
12.6606
12.7078
12.7594
12.8154
12.876
12.942
13.0152
13.0976
13.1914
12.4562
12.4877
12.5271
12.5682
12.6085
12.6498
12.6943
12.7428
12.7961
12.8543
12.9175
12.9855
13.0579
13.1345
13.2168
12.4871
12.52
12.5627
12.608
12.6528
12.6987
12.7465
12.7969
12.8499
12.906
12.9654
13.0285
13.0953
13.1655
13.2403
12.5129
12.5477
12.5947
12.6458
12.6978
12.7508
12.8048
12.8597
12.915
12.9707
13.0271
13.0845
13.1432
13.2035
13.2668
12.5083
12.5473
12.6021
12.6632
12.7264
12.7904
12.8537
12.9154
12.9748
13.0317
13.0867
13.1403
13.193
13.2452
13.2998
12.4725
12.5174
12.5847
12.6627
12.7445
12.8257
12.9026
12.9727
13.0358
13.0928
13.1453
13.1946
13.2416
13.287
13.3336
12.4054
12.4695
12.5621
12.6679
12.7764
12.8796
12.9694
13.045
13.1073
13.1603
13.2071
13.2499
13.2899
13.3275
13.3643
12.3002
12.3774
12.4968
12.6422
12.7979
12.9394
13.0535
13.1316
13.1878
13.2312
13.2694
13.3045
13.3366
13.3661
13.3926
12.1554
12.3244
12.519
12.7339
12.9302
13.1086
13.193
13.2491
13.2775
13.3038
13.3313
13.3589
13.3819
13.4045
13.4257
11.9926
12.0666
12.2403
12.5118
12.8537
13.1351
13.3138
13.3507
13.3555
13.358
13.3762
13.402
13.4218
13.439
13.4527
-91.1623
-85.5397
-79.449
-73.2759
-66.5465
-59.1116
-51.1601
-42.968
-34.8582
-27.1855
-20.2887
-14.4203
-9.68126
-5.99072
-3.07015
-14.671
-15.8524
-16.6432
-17.2456
-17.7523
-18.1301
-18.2805
-18.0845
-17.4242
-16.2129
-14.4312
-12.1577
-9.57118
-6.90482
-4.25525
-8.77158
-9.31697
-9.37395
-9.45894
-9.61633
-9.75742
-9.83251
-9.81408
-9.67239
-9.36795
-8.85017
-8.06394
-6.97131
-5.58995
-3.94921
-12.7776
-12.7846
-12.4155
-12.1676
-11.9128
-11.5772
-11.144
-10.6018
-9.9363
-9.14031
-8.21796
-7.18016
-6.0348
-4.78593
-3.41624
-9.74442
-9.46123
-9.23393
-9.1461
-9.02625
-8.85988
-8.64451
-8.36474
-7.99592
-7.51163
-6.88863
-6.11319
-5.1865
-4.12762
-3.02212
-5.62957
-5.34899
-5.3533
-5.37925
-5.37936
-5.36892
-5.34415
-5.28969
-5.18723
-5.01509
-4.74702
-4.35425
-3.81086
-3.0956
-2.25684
-3.53806
-3.47252
-3.52413
-3.52833
-3.52722
-3.52619
-3.51739
-3.48897
-3.42917
-3.32394
-3.15594
-2.90465
-2.54721
-2.05403
-1.43632
-2.44068
-2.44659
-2.46077
-2.44488
-2.43355
-2.4203
-2.3994
-2.36361
-2.3044
-2.2107
-2.06913
-1.86433
-1.57972
-1.19244
-0.70407
-1.44613
-1.45586
-1.45009
-1.43541
-1.42358
-1.4091
-1.38878
-1.35845
-1.31166
-1.2396
-1.13116
-0.972955
-0.750121
-0.443032
-0.0485466
-0.556198
-0.557763
-0.547499
-0.535585
-0.52398
-0.510178
-0.491504
-0.465558
-0.427578
-0.370906
-0.286852
-0.164455
0.00944319
0.253158
0.58115
0.19974
0.202525
0.212293
0.223093
0.234501
0.247807
0.265479
0.28925
0.322855
0.371529
0.442154
0.543547
0.68665
0.887026
1.1651
0.862961
0.86677
0.875543
0.885876
0.897035
0.909585
0.925355
0.946361
0.975627
1.01741
1.07741
1.16297
1.28316
1.45024
1.68438
1.45865
1.4624
1.47059
1.48065
1.49156
1.50316
1.51678
1.53496
1.56
1.59537
1.64585
1.7176
1.8184
1.95833
2.15572
1.99559
1.99913
2.0069
2.01652
2.02683
2.03729
2.04915
2.0651
2.08675
2.11698
2.15976
2.22017
2.30462
2.42117
2.58722
2.48158
2.48488
2.49217
2.50118
2.51067
2.52024
2.53099
2.54526
2.56438
2.59085
2.62813
2.68069
2.75431
2.8563
3.01031
2.92426
2.9273
2.93409
2.94246
2.95128
2.96047
2.97065
2.9835
3.00058
3.02413
3.05721
3.10389
3.16954
3.26027
3.39889
3.32909
3.33192
3.33827
3.34614
3.35454
3.36365
3.37337
3.38488
3.40017
3.4211
3.45034
3.49146
3.54923
3.62835
3.74816
3.7012
3.70387
3.70987
3.71737
3.72543
3.7343
3.74341
3.75372
3.76747
3.78608
3.81188
3.84793
3.89846
3.96732
4.07059
4.04557
4.0481
4.05378
4.06091
4.06858
4.07697
4.08538
4.09477
4.10724
4.12393
4.14689
4.17883
4.22346
4.28396
4.37584
4.36595
4.36833
4.37369
4.38043
4.38765
4.39548
4.40338
4.41214
4.42356
4.43868
4.45938
4.48814
4.52845
4.58348
4.66542
4.66468
4.66691
4.67196
4.6783
4.6851
4.69247
4.70014
4.70851
4.71891
4.73258
4.75116
4.77683
4.81252
4.8608
4.93102
4.94421
4.9463
4.95107
4.95706
4.96351
4.97056
4.97815
4.98619
4.99563
5.00802
5.02475
5.04771
5.07965
5.12363
5.18244
5.20698
5.20895
5.21349
5.21921
5.22541
5.23226
5.23975
5.24743
5.25611
5.26754
5.28286
5.3038
5.33271
5.37321
5.43584
5.45504
5.45693
5.46128
5.46679
5.47279
5.47944
5.4867
5.494
5.50208
5.51276
5.52694
5.54624
5.57271
5.60905
5.66539
5.68999
5.6918
5.69596
5.70125
5.70704
5.71343
5.72036
5.72727
5.73491
5.74492
5.75809
5.77594
5.80036
5.83315
5.88342
5.91289
5.91461
5.91858
5.92364
5.92919
5.93529
5.94188
5.94854
5.9559
5.96536
5.97774
5.99452
6.01767
6.04893
6.09706
6.12426
6.1259
6.1297
6.13455
6.13986
6.14573
6.15207
6.15866
6.16588
6.17483
6.18654
6.20239
6.22436
6.25404
6.29855
6.32511
6.32667
6.33029
6.33492
6.34001
6.34563
6.35174
6.35829
6.3653
6.37359
6.3844
6.3989
6.41884
6.44544
6.47859
6.51632
6.51779
6.52127
6.5257
6.53058
6.536
6.54193
6.5484
6.5551
6.56273
6.57268
6.5859
6.60391
6.62831
6.6581
6.69898
6.7004
6.70376
6.70802
6.71275
6.71802
6.72382
6.73016
6.73657
6.74372
6.75311
6.76551
6.78237
6.80582
6.83307
6.87368
6.87507
6.87833
6.88249
6.88712
6.89231
6.898
6.90418
6.91035
6.91716
6.9261
6.93782
6.95356
6.97542
7.00068
7.04219
7.04348
7.04658
7.05056
7.055
7.05997
7.06543
7.07131
7.07716
7.08361
7.09204
7.10303
7.11775
7.13798
7.15614
7.20324
7.20452
7.20755
7.21143
7.21576
7.22062
7.22592
7.23158
7.23724
7.24345
7.25138
7.2616
7.27517
7.29458
7.30779
7.35837
7.35961
7.36254
7.36631
7.37051
7.37522
7.38035
7.38584
7.39147
7.39763
7.40528
7.41518
7.42829
7.44832
7.46844
7.50853
7.50967
7.51245
7.51602
7.52002
7.5245
7.5294
7.53469
7.54028
7.54631
7.55356
7.563
7.57528
7.59353
7.60853
7.65199
7.65314
7.65588
7.65939
7.66332
7.66773
7.67258
7.67781
7.68344
7.68936
7.69623
7.70518
7.71671
7.73396
7.75176
7.7908
7.79192
7.79456
7.79796
7.80177
7.80607
7.81081
7.81596
7.82158
7.82737
7.83391
7.84252
7.85359
7.86982
7.88757
7.92555
7.92659
7.92912
7.93238
7.93604
7.94018
7.94477
7.94977
7.95524
7.96077
7.96695
7.97513
7.98567
8.00065
8.01712
8.05534
8.05636
8.05884
8.06202
8.0656
8.06966
8.07416
8.07905
8.08432
8.08954
8.09526
8.10275
8.11224
8.12523
8.1322
8.18116
8.18217
8.18459
8.18769
8.19119
8.19516
8.19956
8.20431
8.20937
8.21432
8.21965
8.22652
8.23502
8.24737
8.25172
8.30377
8.30474
8.30708
8.31011
8.31354
8.31743
8.32174
8.32639
8.33133
8.3362
8.34152
8.34837
8.35696
8.37066
8.37861
8.42313
8.42407
8.42636
8.42932
8.43266
8.43647
8.44071
8.44528
8.45013
8.455
8.46035
8.46716
8.47553
8.48897
8.49824
8.53921
8.54013
8.54236
8.54524
8.5485
8.55222
8.55636
8.56082
8.56556
8.57044
8.57579
8.58246
8.5906
8.60341
8.61689
8.65174
8.65264
8.65482
8.65765
8.66085
8.6645
8.66856
8.67294
8.67761
8.68253
8.68783
8.69426
8.70219
8.71423
8.72855
8.76168
8.76253
8.76463
8.76735
8.77043
8.77396
8.77788
8.78215
8.78673
8.79165
8.79689
8.80312
8.81095
8.82237
8.84303
8.86826
8.86911
8.87118
8.87384
8.87686
8.88031
8.88416
8.88833
8.89278
8.89758
8.90247
8.90797
8.91465
8.92257
8.93211
8.97236
8.97319
8.97522
8.97782
8.98079
8.98417
8.98794
8.99204
8.99643
9.00116
9.00586
9.011
9.01745
9.02545
9.04111
9.07496
9.07573
9.07767
9.08018
9.08303
9.08631
9.08999
9.09403
9.09839
9.10313
9.10789
9.1132
9.1202
9.12884
9.14618
9.17462
9.1754
9.17734
9.17983
9.18268
9.18596
9.18964
9.1937
9.19807
9.20282
9.20756
9.21284
9.21988
9.22814
9.24471
9.2721
9.27289
9.27479
9.27724
9.28004
9.28327
9.28691
9.2909
9.29519
9.29978
9.30427
9.30914
9.31553
9.32264
9.33681
9.3681
9.36883
9.37065
9.37301
9.37572
9.37884
9.38235
9.38622
9.39037
9.39477
9.39908
9.40377
9.40997
9.41678
9.43334
9.46184
9.46255
9.46434
9.46666
9.46932
9.47238
9.47585
9.47964
9.48369
9.48793
9.4921
9.49656
9.50232
9.50788
9.51723
9.55343
9.55416
9.55594
9.55825
9.56089
9.56395
9.56741
9.57118
9.57521
9.57945
9.58369
9.58827
9.59424
9.60085
9.61551
9.6438
9.6445
9.64622
9.64847
9.65106
9.65405
9.65743
9.66116
9.66517
9.66942
9.67383
9.6787
9.6851
9.69254
9.70568
9.73226
9.73294
9.73463
9.73683
9.73935
9.74227
9.74559
9.74923
9.75314
9.75727
9.76164
9.7663
9.77209
9.77865
9.78868
9.81873
9.81939
9.82105
9.8232
9.82567
9.82853
9.83176
9.83532
9.83912
9.84314
9.84743
9.8519
9.85722
9.86349
9.87439
9.90333
9.904
9.90564
9.90777
9.91021
9.91304
9.91624
9.91976
9.92355
9.92756
9.9319
9.93638
9.94161
9.94782
9.9597
9.98716
9.98777
9.98933
9.99137
9.99372
9.99644
9.99954
10.003
10.0067
10.0107
10.015
10.0195
10.0246
10.0305
10.0418
10.0686
10.0692
10.0708
10.0728
10.0752
10.0779
10.081
10.0845
10.0882
10.0922
10.0965
10.1009
10.1058
10.1113
10.121
10.149
10.1496
10.1511
10.1531
10.1554
10.158
10.1611
10.1645
10.1682
10.1722
10.1766
10.1811
10.1863
10.1923
10.2044
10.2277
10.2283
10.2297
10.2317
10.2339
10.2366
10.2396
10.243
10.2468
10.2509
10.2554
10.2601
10.2658
10.2727
10.2861
10.3047
10.3052
10.3067
10.3086
10.3108
10.3134
10.3164
10.3197
10.3235
10.3275
10.332
10.3366
10.3421
10.3483
10.3579
10.3787
10.3794
10.3809
10.3828
10.3851
10.3877
10.3908
10.3942
10.398
10.402
10.4064
10.4108
10.4156
10.421
10.4295
10.4526
10.4532
10.4546
10.4564
10.4586
10.4611
10.4641
10.4675
10.4713
10.4754
10.4799
10.4847
10.4903
10.4972
10.5118
10.524
10.5246
10.526
10.5278
10.53
10.5325
10.5355
10.539
10.5429
10.5472
10.552
10.5572
10.5635
10.5707
10.5833
10.5929
10.5934
10.5948
10.5966
10.5988
10.6014
10.6044
10.608
10.612
10.6166
10.6217
10.6273
10.6341
10.6416
10.6549
10.6582
10.6588
10.6601
10.662
10.6642
10.6668
10.67
10.6737
10.6781
10.6831
10.6889
10.6955
10.7034
10.7124
10.7291
10.7208
10.7213
10.7226
10.7244
10.7266
10.7293
10.7326
10.7366
10.7414
10.7472
10.7541
10.7626
10.7733
10.7857
10.8121
10.7755
10.776
10.7773
10.7792
10.7815
10.7844
10.7882
10.7928
10.7986
10.8057
10.8146
10.8256
10.8395
10.8544
10.8766
10.826
10.8265
10.8279
10.8298
10.8323
10.8355
10.8396
10.8449
10.8518
10.8605
10.8717
10.8858
10.9035
10.9233
10.9502
10.8508
10.8513
10.8526
10.8546
10.8575
10.8617
10.8675
10.8753
10.8858
10.8995
10.917
10.9386
10.9646
10.9931
11.0247
10.8955
10.8961
10.8977
10.9
10.9033
10.9078
10.9142
10.9232
10.9356
10.9525
10.9746
11.0025
11.0357
11.072
11.1077
10.771
10.7711
10.7727
10.7768
10.7847
10.7976
10.8169
10.8438
10.8796
10.9244
10.9773
11.0357
11.0955
11.1522
11.1988
10.9799
10.9818
10.9817
10.987
10.9956
11.0074
11.0232
11.0443
11.072
11.107
11.1492
11.1966
11.2454
11.2912
11.3262
9.70871
9.63106
9.68958
9.76922
9.86621
9.98897
10.1434
10.3284
10.5369
10.7561
10.9685
11.1553
11.3012
11.401
11.4519
113.582
108.393
102.67
96.9411
90.7981
84.0683
76.8944
69.5
62.1499
55.1474
48.7976
43.3378
38.8723
35.3619
32.7445
44.2007
43.7218
44.434
45.1139
45.5977
45.9138
46.0334
45.8654
45.3041
44.2622
42.7054
40.6825
38.334
35.867
33.5996
37.2744
37.1971
37.6222
37.8072
37.9455
38.067
38.1434
38.1383
38.0239
37.7678
37.3253
36.6412
35.6678
34.3967
32.9894
39.3187
39.3214
39.4146
39.2769
39.1106
38.8988
38.6151
38.2368
37.7484
37.1398
36.4086
35.5576
34.587
33.486
32.3209
36.1356
36.3935
36.452
36.4014
36.3554
36.2861
36.1781
36.0159
35.7793
35.4424
34.9794
34.3707
33.6083
32.692
31.6776
33.46
33.7625
33.7417
33.7265
33.7229
33.7047
33.6659
33.6007
33.4977
33.3393
33.1026
32.7602
32.285
31.6522
30.8796
32.2933
32.3957
32.3378
32.3301
32.3159
32.2827
32.2306
32.1568
32.0541
31.9126
31.7191
31.4567
31.1045
30.636
30.0358
31.1301
31.1416
31.1196
31.1258
31.1156
31.0911
31.052
30.9945
30.9122
30.7968
30.6377
30.4217
30.1337
29.7554
29.2594
29.9353
29.9344
29.9383
29.9468
29.9432
29.9328
29.9123
29.8781
29.8255
29.7477
29.6355
29.4771
29.2589
28.9692
28.5958
28.9292
28.9316
28.941
28.9465
28.9458
28.9414
28.9293
28.9065
28.8698
28.8141
28.7322
28.6147
28.4497
28.2262
27.9354
28.0899
28.0942
28.1025
28.1067
28.1075
28.1054
28.0969
28.0799
28.0515
28.0077
27.9427
27.8488
27.7156
27.5323
27.2945
27.3501
27.3545
27.3618
27.3667
27.3689
27.3683
27.3626
27.35
27.3281
27.2934
27.2411
27.1646
27.0549
26.9013
26.704
26.684
26.6886
26.6961
26.7029
26.7065
26.7069
26.7034
26.6943
26.6776
26.6504
26.6089
26.5475
26.4589
26.3339
26.1765
26.0858
26.0906
26.0986
26.1065
26.1107
26.1117
26.1098
26.1033
26.0904
26.0688
26.0351
25.9849
25.9119
25.8069
25.6709
25.5473
25.552
25.5598
25.5676
25.5716
25.5729
25.572
25.5672
25.5569
25.5391
25.5109
25.4684
25.406
25.3152
25.1945
25.0575
25.0617
25.0689
25.0759
25.0796
25.0811
25.081
25.0774
25.0691
25.0544
25.0309
24.9952
24.9427
24.867
24.7708
24.6065
24.6102
24.6167
24.6232
24.6269
24.6289
24.6294
24.6268
24.6202
24.6081
24.5884
24.5583
24.5138
24.4493
24.3689
24.1868
24.1902
24.1964
24.2027
24.2073
24.21
24.2109
24.2091
24.2037
24.1936
24.1768
24.1506
24.1116
24.0537
23.9802
23.7952
23.7984
23.8046
23.8112
23.8166
23.8199
23.821
23.8199
23.8157
23.8073
23.7928
23.7702
23.7361
23.6853
23.6214
23.4305
23.4338
23.4399
23.4467
23.4524
23.4558
23.4572
23.4568
23.4536
23.4466
23.4344
23.4149
23.3855
23.3412
23.2867
23.0907
23.0938
23.0998
23.1063
23.1118
23.1151
23.1166
23.1168
23.1144
23.1086
23.0983
23.0816
23.0562
23.0177
22.9715
22.7719
22.7749
22.7804
22.7866
22.7917
22.7948
22.7964
22.7969
22.7951
22.7903
22.7814
22.7668
22.7445
22.7103
22.6691
22.4707
22.4734
22.4785
22.4843
22.489
22.4921
22.494
22.4947
22.4933
22.4892
22.4814
22.4684
22.4484
22.4174
22.3791
22.1841
22.1865
22.1914
22.1968
22.2014
22.205
22.2073
22.2082
22.2072
22.2037
22.1968
22.1852
22.1672
22.1395
22.1056
21.9107
21.913
21.9177
21.923
21.9278
21.932
21.9347
21.9357
21.9351
21.9323
21.9264
21.9163
21.9005
21.876
21.8513
21.6502
21.6524
21.657
21.6624
21.6674
21.6719
21.6747
21.6759
21.6758
21.6736
21.6687
21.66
21.6463
21.6245
21.6041
21.4015
21.4038
21.4083
21.4137
21.4187
21.4233
21.4262
21.4275
21.4278
21.4261
21.4219
21.4143
21.402
21.3818
21.3635
21.1644
21.1666
21.171
21.1762
21.1811
21.1855
21.1883
21.1897
21.1902
21.1889
21.1854
21.1786
21.1678
21.1495
21.1346
20.9378
20.9398
20.944
20.9489
20.9535
20.9576
20.9602
20.9616
20.9623
20.9613
20.9582
20.9523
20.9428
20.9265
20.9134
20.7185
20.7204
20.7244
20.7291
20.7335
20.7374
20.7401
20.7417
20.7426
20.7419
20.7392
20.7339
20.7253
20.7101
20.6965
20.5063
20.5081
20.5119
20.5164
20.5206
20.5245
20.5274
20.5294
20.5303
20.5298
20.5274
20.5225
20.5143
20.4993
20.4826
20.3013
20.303
20.3066
20.3109
20.315
20.3189
20.3222
20.3244
20.3254
20.3251
20.323
20.3186
20.3114
20.2982
20.2787
20.1032
20.1048
20.1082
20.1124
20.1164
20.1204
20.124
20.1263
20.1273
20.1272
20.1256
20.122
20.1159
20.1053
20.0873
19.9099
19.9115
19.9149
19.9191
19.9232
19.9274
19.9311
19.9336
19.9347
19.935
19.9337
19.9305
19.9249
19.9156
19.8914
19.7225
19.7241
19.7275
19.7316
19.7358
19.7399
19.7437
19.7461
19.7473
19.7477
19.7466
19.7434
19.7377
19.7293
19.7033
19.5422
19.5437
19.5469
19.5508
19.5548
19.5587
19.5623
19.5645
19.5657
19.5662
19.5652
19.5626
19.5574
19.5508
19.5331
19.3654
19.3669
19.37
19.3739
19.3779
19.3818
19.3853
19.3876
19.3889
19.3896
19.389
19.3867
19.3821
19.3756
19.3566
19.1931
19.1945
19.1976
19.2014
19.2053
19.2091
19.2125
19.2148
19.2164
19.2173
19.217
19.2153
19.2113
19.2057
19.1893
19.0259
19.0272
19.03
19.0336
19.0372
19.0408
19.044
19.0464
19.0481
19.0491
19.049
19.0477
19.0446
19.0404
19.0203
18.8606
18.8619
18.8647
18.8681
18.8717
18.8752
18.8785
18.8812
18.8831
18.8842
18.8843
18.8834
18.8808
18.8784
18.8642
18.698
18.6992
18.702
18.7053
18.7088
18.7123
18.7156
18.7187
18.7207
18.7219
18.7221
18.7213
18.7186
18.7159
18.6993
18.5391
18.5402
18.5428
18.546
18.5493
18.5527
18.556
18.5591
18.5612
18.5622
18.5624
18.5615
18.5585
18.5551
18.5403
18.3817
18.3828
18.3854
18.3885
18.3919
18.3954
18.3988
18.402
18.4042
18.4053
18.4057
18.4051
18.4027
18.4001
18.3867
18.2266
18.2278
18.2303
18.2335
18.2368
18.2404
18.244
18.2473
18.2496
18.251
18.2519
18.2519
18.2507
18.2498
18.2414
18.0747
18.0758
18.0782
18.0813
18.0846
18.0881
18.0916
18.0949
18.0972
18.0986
18.0997
18.0999
18.099
18.0983
18.0864
17.9247
17.9258
17.9281
17.9311
17.9343
17.9377
17.9411
17.9442
17.9464
17.9477
17.9486
17.9487
17.9475
17.9464
17.9342
17.7754
17.7764
17.7788
17.7818
17.7849
17.7883
17.7917
17.7948
17.7969
17.7983
17.7993
17.7994
17.7981
17.7973
17.7873
17.6282
17.6292
17.6315
17.6344
17.6375
17.6408
17.6441
17.6471
17.6493
17.6509
17.652
17.6524
17.6515
17.651
17.6462
17.4834
17.4843
17.4864
17.4891
17.4921
17.4952
17.4983
17.5012
17.5035
17.5052
17.5065
17.5072
17.5067
17.5064
17.5042
17.3382
17.3391
17.3412
17.3439
17.3468
17.35
17.3531
17.3561
17.3586
17.3606
17.3622
17.3633
17.3637
17.3638
17.3695
17.1934
17.1944
17.1964
17.1991
17.2019
17.205
17.2082
17.2113
17.2141
17.2164
17.2181
17.2195
17.2206
17.2204
17.219
17.05
17.0508
17.0527
17.0552
17.0579
17.0609
17.064
17.067
17.07
17.0723
17.0739
17.0754
17.0765
17.0769
17.0737
16.9056
16.9064
16.9084
16.9108
16.9135
16.9165
16.9196
16.9227
16.9258
16.9282
16.9299
16.9315
16.9329
16.9345
16.9352
16.7609
16.7617
16.7636
16.766
16.7687
16.7717
16.7749
16.7781
16.7814
16.7839
16.7858
16.7877
16.7893
16.7907
16.7891
16.6168
16.6176
16.6193
16.6217
16.6242
16.6271
16.6303
16.6335
16.6368
16.6393
16.6413
16.6432
16.6448
16.6462
16.6403
16.4712
16.472
16.4738
16.4761
16.4787
16.4816
16.4849
16.4882
16.4916
16.4944
16.4968
16.4995
16.5025
16.5068
16.5091
16.3244
16.3252
16.327
16.3293
16.3319
16.3349
16.3382
16.3417
16.3452
16.3483
16.3511
16.3544
16.358
16.3632
16.3561
16.1764
16.1772
16.1789
16.1812
16.1838
16.1867
16.19
16.1935
16.1971
16.2003
16.2033
16.2069
16.2106
16.2172
16.2163
16.0271
16.0278
16.0294
16.0315
16.034
16.0369
16.0401
16.0436
16.0471
16.0504
16.0538
16.0579
16.0623
16.07
16.0699
15.8741
15.8748
15.8764
15.8785
15.881
15.8839
15.8872
15.8907
15.8944
15.898
15.9018
15.9064
15.9116
15.9202
15.9205
15.7183
15.7189
15.7205
15.7225
15.725
15.7278
15.7311
15.7346
15.7385
15.7424
15.7468
15.7521
15.7583
15.7688
15.7716
15.5579
15.5586
15.5601
15.5621
15.5646
15.5674
15.5707
15.5744
15.5785
15.5829
15.5878
15.5939
15.6013
15.6134
15.6191
15.3934
15.394
15.3954
15.3973
15.3997
15.4025
15.4057
15.4095
15.4138
15.4188
15.4244
15.4315
15.4403
15.4549
15.4641
15.2221
15.2227
15.2241
15.2261
15.2284
15.2312
15.2346
15.2385
15.2431
15.2486
15.2548
15.2624
15.2718
15.2874
15.2919
15.0449
15.0454
15.0467
15.0485
15.0507
15.0535
15.0569
15.061
15.066
15.072
15.079
15.0876
15.098
15.1147
15.1351
14.8586
14.8591
14.8604
14.8623
14.8646
14.8675
14.8712
14.8757
14.8814
14.8886
14.8972
14.9082
14.9223
14.9429
14.9747
14.6618
14.6624
14.6637
14.6655
14.6679
14.6711
14.6752
14.6804
14.6871
14.6959
14.7067
14.7207
14.7393
14.7642
14.8035
14.4526
14.4531
14.4543
14.4562
14.4587
14.4621
14.4666
14.4727
14.4806
14.4912
14.5046
14.5223
14.5458
14.5763
14.6248
14.2249
14.2254
14.2265
14.2284
14.231
14.2348
14.2401
14.2474
14.2572
14.2706
14.288
14.3109
14.3417
14.3806
14.4406
13.9765
13.977
13.9782
13.9803
13.9833
13.9877
13.9941
14.0031
14.0157
14.0329
14.0559
14.0864
14.1273
14.1787
14.257
13.6835
13.684
13.6852
13.6875
13.6914
13.6974
13.7065
13.7196
13.7381
13.7636
13.7974
13.8413
13.8981
13.9665
14.0701
13.3808
13.3812
13.3825
13.3852
13.3897
13.3969
13.4081
13.4248
13.449
13.4829
13.5283
13.5873
13.6621
13.7479
13.8653
12.8758
12.8763
12.8783
12.8837
12.8944
12.9124
12.94
12.9799
13.0343
13.105
13.1921
13.2942
13.4101
13.5317
13.6773
12.6235
12.6242
12.6233
12.6302
12.6431
12.6634
12.6936
12.737
12.7966
12.8748
12.972
13.087
13.2184
13.3574
13.5034
10.8251
10.7511
10.8143
10.9015
11.0151
11.1666
11.3639
11.6065
11.8861
12.1859
12.483
12.7545
12.9901
13.1921
13.3675
11.9011
18.0756
13.6736
10.7756
4.01867
16.0296
13.9158
18.4963
3.64208
10.7313
9.4021
20.4701
7.16222
18.1602
15.242
13.6836
12.7948
12.5501
15.8874
10.7915
14.1641
15.0556
14.8474
25.6165
15.4872
11.1816
12.7071
12.6522
19.9553
12.5388
10.0777
14.3501
13.568
22.6834
13.3224
12.4778
7.5501
19.2016
4.6601
13.5726
18.1895
11.5274
17.7009
13.5951
15.2739
12.31
26.0166
11.928
13.319
15.9498
19.3989
14.7177
14.7449
16.1757
11.8164
13.762
9.77908
11.9217
21.4328
17.283
12.2636
21.3456
16.2389
13.9919
15.8233
7.00294
15.0775
19.681
9.93693
23.004
12.3316
11.4969
30.1772
15.9224
10.6529
14.5841
10.409
12.9577
14.8813
24.9077
12.5837
9.2178
12.031
13.5317
19.1353
8.99713
12.5117
9.05399
19.3599
13.4952
16.8026
13.3756
14.1871
18.526
6.54077
13.6707
16.0076
15.6547
15.0533
15.179
7.73602
24.5143
12.5151
9.65355
18.403
9.42627
13.0498
12.794
13.0164
21.3651
17.4209
13.2336
18.0243
11.8805
15.3108
10.6297
12.65
18.7556
5.8822
13.6084
6.99913
13.7636
8.68839
17.9404
12.068
12.3697
19.272
16.8153
4.92297
10.9718
21.8282
12.7588
3.12475
13.4744
15.2749
18.3502
4.05984
16.3428
16.4061
15.5106
12.3623
13.2937
12.2923
11.3649
19.6078
15.4748
11.8958
13.2282
15.874
18.0287
13.4672
10.9185
12.9538
19.7659
11.427
16.1611
12.9427
12.3971
16.1001
21.7178
12.5622
14.6181
12.6474
4.35186
14.1453
14.3018
13.8866
1.44262
16.5045
12.8598
15.0974
11.7843
14.8981
9.91522
13.4521
12.2741
13.2321
12.4848
21.5284
10.1863
8.49822
19.3792
20.0929
10.9732
11.7835
12.1803
12.8558
22.7532
12.8893
12.4346
20.6546
13.8021
5.71795
19.2039
13.538
20.7685
10.4539
12.1498
10.0505
21.818
11.3524
14.8011
12.374
14.2374
19.0784
17.1127
10.6073
23.3659
11.4661
14.6599
12.2845
14.6245
21.3119
8.4147
18.4057
24.8579
20.9261
13.6931
17.8264
20.2066
19.6557
15.7264
13.4977
13.6521
18.9676
6.47932
19.0118
12.3607
10.3446
13.2966
15.1364
6.8365
15.0848
14.725
8.63139
15.7398
14.0394
17.7875
14.2064
12.6708
12.0002
12.2544
13.6408
9.78216
11.4084
12.1793
6.85028
16.624
7.48328
11.3956
21.9429
15.3157
11.3084
15.8933
12.1282
17.9322
17.3416
16.5834
16.837
13.4832
9.30067
18.0023
6.25649
13.9151
11.2791
13.7907
11.5769
8.04791
16.5641
12.6994
24.3265
11.5313
19.6833
8.18233
13.4019
8.94883
16.0781
18.705
9.26448
14.8479
9.51243
13.3649
16.6378
13.3635
18.2212
13.2826
10.0431
6.5651
18.0367
3.47957
8.70869
15.6355
19.9267
14.0248
21.7671
1.96466
9.84546
12.7443
14.9845
15.295
15.2656
13.0583
17.5048
15.3492
13.1142
7.54359
13.1945
9.8152
13.4796
16.4227
13.503
13.4909
18.4333
12.1544
7.78021
14.6868
10.5232
26.363
12.538
9.79311
13.1774
18.0033
7.48287
12.9451
8.64455
13.9682
13.5639
13.2954
13.4091
5.85081
14.3642
10.3068
19.2205
16.5926
9.55302
13.2117
16.7471
15.2335
24.3873
11.4279
19.3607
12.8908
17.9123
13.9822
15.0732
10.0375
15.1385
10.2455
24.0428
14.1276
4.8688
9.96206
23.4807
16.2548
22.15
16.1888
16.1886
13.84
16.44
12.1679
14.0185
12.9876
13.0918
18.4505
14.5425
17.032
13.4116
15.1943
13.2432
13.9077
8.49065
12.1123
14.246
14.0365
12.1658
12.9802
14.851
20.167
2.17571
10.6845
20.0541
9.74311
11.9971
14.6928
19.0253
17.2414
14.1942
16.8776
13.2971
10.6338
15.2946
14.9164
15.0054
7.977
13.2782
5.9266
19.1655
16.2421
15.2325
11.6598
14.5608
6.65346
15.3809
23.3594
14.1337
7.21623
14.9412
13.6662
13.352
16.995
9.39159
9.98842
17.7819
22.8089
10.4323
14.8946
11.6884
13.3967
14.7751
16.7831
11.9978
18.4941
11.9788
12.6534
9.0722
19.2067
20.5947
13.8433
17.7348
16.8974
11.1559
15.612
6.08567
18.0393
13.9812
17.1132
11.0824
11.9301
5.46564
12.8271
16.2188
12.5701
14.0035
11.9301
12.0141
9.2521
21.2878
12.3143
9.0251
22.2531
16.4295
22.7554
15.879
14.6851
13.587
16.4646
1.22456
17.5356
17.0773
7.95004
8.51891
9.21618
12.9801
12.4365
12.1879
9.12146
20.8887
12.6356
12.149
11.1914
18.7269
12.5954
8.69219
19.3708
12.4587
9.87853
13.645
5.89184
26.1941
10.9168
14.9418
15.3677
16.0619
11.4728
10.5585
16.7571
19.5455
10.3452
15.362
23.4815
17.121
15.1535
13.0416
14.5506
18.9564
11.7484
14.4492
21.6071
7.56659
9.5043
16.0532
19.2622
14.4839
20.4185
18.4315
9.97296
7.90972
11.8176
9.37441
8.47804
8.87224
14.9991
13.3926
12.7373
12.4334
15.2956
8.31263
22.023
12.2525
21.0806
12.2921
20.6291
12.3546
20.5527
8.90487
17.7163
9.64261
13.6139
13.8364
1.69022
12.285
13.3819
12.9034
17.9689
15.695
13.4268
12.9844
16.0058
19.8912
15.6126
11.6573
21.1495
11.9862
18.0305
17.6835
14.9396
14.1996
12.88
16.7718
38.8399
20.6823
14.8653
11.7906
10.191
24.3614
13.1412
13.0552
13.769
15.9948
15.3771
11.7817
11.9034
10.9025
12.214
16.7973
22.2602
15.2252
15.1176
8.93523
8.98363
10.9426
13.8459
13.4277
19.7128
12.4623
13.2301