/*--------------------------------*- C++ -*----------------------------------*\
| =========                 |                                                 |
| \\      /  F ield         | OpenFOAM: The Open Source CFD Toolbox           |
|  \\    /   O peration     | Version:  2.3.0                                 |
|   \\  /    A nd           | Web:      www.OpenFOAM.org                      |
|    \\/     M anipulation  |                                                 |
\*---------------------------------------------------------------------------*/
FoamFile
{
    version     2.0;
    format      ascii;
    class       surfaceScalarField;
    location    "400";
    object      phi;
}
// * * * * * * * * * * * * * * * * * * * * * * * * * * * * * * * * * * * * * //

dimensions      [0 3 -1 0 0 0 0];

internalField   nonuniform List<scalar> 
15537
(
-0.00313647
-0.0203888
0.0222465
0.00127876
-0.0045803
-0.0171813
0.0186251
-0.0056858
-0.0145018
0.0156073
-0.00651009
-0.012265
0.0130893
-0.00709193
-0.0103984
0.0109802
-0.00745764
-0.00884007
0.00920578
-0.0076271
-0.00753749
0.00770694
-0.00761762
-0.00644758
0.0064381
-0.00744871
-0.00553383
0.00536491
-0.00713944
-0.0047678
0.00445853
-0.00671093
-0.00412511
0.0036966
-0.00618267
-0.00358642
0.00305817
-0.00557357
-0.00313509
0.00252598
-0.00490139
-0.00275699
0.00208481
-0.0024406
-0.00416073
0.00169994
-0.00284576
-0.0187437
0.00120063
-0.00408339
-0.0159437
-0.00498059
-0.0136046
-0.00559491
-0.0116507
-0.00597467
-0.0100186
-0.00615889
-0.00865585
-0.00617733
-0.00751904
-0.00605401
-0.00657089
-0.00580748
-0.00578036
-0.00545356
-0.00512173
-0.00500591
-0.00457275
-0.00447674
-0.00411559
-0.00387712
-0.0037347
-0.00321682
-0.00341729
-0.00315294
-0.00250448
-0.0025888
-0.0172639
0.00110908
-0.00369465
-0.0148378
-0.00448564
-0.0128137
-0.00501123
-0.0111251
-0.00531306
-0.0097168
-0.00542657
-0.00854234
-0.00538253
-0.00756309
-0.00520684
-0.00674658
-0.00492107
-0.00606613
-0.00454419
-0.00549861
-0.0040912
-0.00502575
-0.00357535
-0.00463144
-0.00300717
-0.00430288
-0.0023958
-0.00402866
-0.00380004
-0.00174871
-0.00232201
-0.0159412
0.00099925
-0.00330267
-0.0138572
-0.00399711
-0.0121192
-0.00445188
-0.0106703
-0.00470641
-0.00946226
-0.00479357
-0.00845518
-0.00474089
-0.00761576
-0.00457158
-0.00691589
-0.00430471
-0.00633301
-0.00395683
-0.00584649
-0.00354157
-0.00544101
-0.0030701
-0.0051029
-0.00255222
-0.00482076
-0.00199553
-0.00458535
-0.00438879
-0.00140678
-0.00208313
-0.0147525
0.00089447
-0.00296065
-0.0129796
-0.00357841
-0.0115015
-0.00397949
-0.0102692
-0.00419945
-0.0092423
-0.00426848
-0.00838615
-0.00421193
-0.00767232
-0.00405043
-0.00707738
-0.00380238
-0.00658106
-0.00348169
-0.00616717
-0.00310083
-0.00582186
-0.00267004
-0.0055337
-0.00219794
-0.00529287
-0.00169128
-0.00509201
-0.00492384
-0.00115623
-0.00186769
-0.0136824
0.00079754
-0.00265616
-0.0121912
-0.00320969
-0.0109479
-0.00356692
-0.00991197
-0.00376108
-0.00904815
-0.00381919
-0.00832804
-0.00376404
-0.00772747
-0.00361465
-0.00722677
-0.00338693
-0.00680879
-0.00309396
-0.00646013
-0.00274682
-0.00616901
-0.00235467
-0.00592585
-0.00192502
-0.00572251
-0.00146447
-0.00555257
-0.00541033
-0.000977971
-0.0016766
-0.0127162
0.000710405
-0.0023874
-0.0114804
-0.00288531
-0.01045
-0.00320598
-0.0095913
-0.00337905
-0.00887507
-0.00342925
-0.00827784
-0.00337689
-0.00777983
-0.00323976
-0.00736391
-0.0030315
-0.00701705
-0.00276429
-0.00672734
-0.00244817
-0.00648512
-0.00209138
-0.00628263
-0.00170053
-0.00611336
-0.00128169
-0.00597141
-0.00585256
-0.000839463
-0.00150685
-0.0118426
0.000633309
-0.00214907
-0.0108381
-0.00259851
-0.0100006
-0.00288767
-0.00930215
-0.00304295
-0.00871979
-0.00308691
-0.00823388
-0.00303823
-0.00782851
-0.00291245
-0.00748968
-0.00272254
-0.00720696
-0.00247925
-0.00697063
-0.00219142
-0.00677296
-0.00186688
-0.00660717
-0.00151161
-0.00646863
-0.00113079
-0.00635224
-0.00625464
-0.000728705
-0.00135607
-0.0110517
0.000565171
-0.0019375
-0.0102567
-0.00234412
-0.00959395
-0.00260498
-0.00904129
-0.00274482
-0.00857995
-0.0027837
-0.008195
-0.00273896
-0.00787325
-0.0026238
-0.00760484
-0.00245089
-0.00737986
-0.0022294
-0.00719213
-0.00196792
-0.00703444
-0.00167246
-0.00690263
-0.0013494
-0.00679169
-0.00100318
-0.00669846
-0.00662009
-0.000637731
-0.00122216
-0.0103349
0.000505313
-0.00174864
-0.00973025
-0.00211669
-0.0092259
-0.00235284
-0.00880514
-0.00247922
-0.00845357
-0.00251403
-0.00816018
-0.00247252
-0.00791477
-0.00236804
-0.00770933
-0.0022104
-0.0075375
-0.00200904
-0.00739349
-0.00177085
-0.00727263
-0.00150237
-0.00717111
-0.00120875
-0.00708531
-0.000893878
-0.00701333
-0.00695236
-0.000561604
-0.00110262
-0.00968477
0.000452523
-0.00157987
-0.00925299
-0.00191351
-0.00889226
-0.00212752
-0.00859113
-0.00224168
-0.00833941
-0.00227299
-0.00812887
-0.00223508
-0.00795267
-0.00213945
-0.00780496
-0.00199599
-0.00768096
-0.00181264
-0.00757683
-0.00159619
-0.00748908
-0.00135237
-0.00741493
-0.00108512
-0.00735255
-0.000798977
-0.00729947
-0.00725447
-0.000496873
-0.000995725
-0.00909502
0.000405978
-0.00142868
-0.00882004
-0.00173123
-0.00858972
-0.0019251
-0.00839726
-0.00202836
-0.00823615
-0.00205652
-0.00810071
-0.00202188
-0.00798731
-0.00193514
-0.0078917
-0.0018046
-0.00781151
-0.00163798
-0.00774344
-0.00144109
-0.00768598
-0.00121896
-0.00763706
-0.000976204
-0.0075953
-0.000715936
-0.00755974
-0.00752906
-0.000441344
-0.000899345
-0.0085599
0.000364225
-0.0012926
-0.00842678
-0.00156695
-0.00831537
-0.00174299
-0.00822122
-0.00183698
-0.00814217
-0.00186213
-0.00807556
-0.00183049
-0.00801895
-0.00175129
-0.0079709
-0.00163276
-0.00793004
-0.00148115
-0.00789506
-0.00130195
-0.00786518
-0.00110034
-0.00783867
-0.000879529
-0.00781611
-0.000642929
-0.00779634
-0.00777875
-0.000393239
-0.000813277
0.000326747
-0.00807337
-0.00117024
-0.00806981
-0.00141937
-0.00806624
-0.00157919
-0.00806139
-0.00166395
-0.00805742
-0.00168712
-0.00805238
-0.0016582
-0.00804787
-0.00158615
-0.00804294
-0.00147833
-0.00803786
-0.00134061
-0.00803278
-0.00117767
-0.00802812
-0.000994016
-0.00802233
-0.000793279
-0.00801685
-0.000578241
-0.00801138
-0.000351378
-0.00800561
-0.00326722
-0.00241824
0.00152474
-0.00243082
-0.00268287
0.00184647
-0.00163375
-0.00300419
0.00220712
-0.000875233
-0.00339352
0.002635
-0.000159608
-0.00386509
0.00314946
0.000503666
-0.00443563
0.00377236
0.00109891
-0.00512517
0.00452993
0.00160321
-0.00595821
0.00545391
0.0019845
-0.00696278
0.00658148
0.00220142
-0.008173
0.00795609
0.00220449
-0.00962979
0.00962671
0.00193697
-0.0113816
0.0116491
0.00133886
-0.0134891
0.0140872
0.000345721
-0.0160247
0.0170178
-0.0190774
0.0205345
-0.00111141
-0.00177862
-0.0031441
-0.00107382
-0.00338767
-0.000397764
-0.00368025
0.00023998
-0.00403126
0.00082764
-0.00445275
0.0013508
-0.00495879
0.00179191
-0.00556628
0.00212921
-0.00629552
0.00233837
-0.00717194
0.00239036
-0.008225
0.0022524
-0.00949183
0.00188683
-0.011016
0.00124868
-0.0128509
0.000283845
-0.0150599
-0.0177191
-0.00107449
-0.00110039
-0.00379242
-0.000483529
-0.00400453
9.56006e-05
-0.00425938
0.000629868
-0.00456553
0.00111033
-0.00493321
0.00152661
-0.00537507
0.00186585
-0.00590552
0.00211296
-0.00654262
0.0022489
-0.00730788
0.0022506
-0.00822669
0.00208957
-0.0093308
0.00173047
-0.0106569
0.00113006
-0.0122505
0.00023635
-0.0141661
-0.0164685
-0.0010142
-0.000816843
-0.00438236
-0.000256451
-0.00456492
0.000268757
-0.00478458
0.000751978
-0.00504875
0.00118482
-0.00536605
0.00155732
-0.00574757
0.0018574
-0.0062056
0.00207034
-0.00675555
0.00217883
-0.00741638
0.0021616
-0.00820945
0.00199261
-0.00916181
0.00164125
-0.0103056
0.00107
-0.0116793
0.000233121
-0.0133293
-0.0153118
-0.000923643
-0.000620821
-0.00491777
-0.000112849
-0.0050729
0.000362401
-0.00525983
0.000798393
-0.00548474
0.0011877
-0.00575536
0.00152067
-0.00608053
0.0017866
-0.00647153
0.00197246
-0.00694142
0.00206149
-0.00750541
0.00203503
-0.008183
0.00186995
-0.00899672
0.00153769
-0.0099733
0.00100489
-0.0111465
0.000230519
-0.0125549
-0.0142464
-0.000834882
-0.000491239
-0.0054045
-2.96579e-05
-0.00553448
0.000401832
-0.00569132
0.000797461
-0.00588037
0.0011499
-0.0061078
0.00145092
-0.00638156
0.00169041
-0.00671102
0.00185562
-0.00710662
0.00193243
-0.00758222
0.00190304
-0.00815361
0.00174606
-0.00883974
0.00143646
-0.00966369
0.000943051
-0.0106531
0.000228886
-0.0118407
-0.0132671
-0.000750386
-0.000397105
-0.00584686
2.23566e-05
-0.00595394
0.000414315
-0.00608328
0.000773296
-0.00623935
0.00109302
-0.00642752
0.00136556
-0.00665409
0.00158145
-0.00692691
0.00172999
-0.00725516
0.00179715
-0.00764937
0.00176734
-0.00812381
0.00162085
-0.00869325
0.00133449
-0.00937733
0.00088035
-0.0101989
0.000225183
-0.0111856
-0.0123701
-0.000671799
-0.000326608
-0.00624895
5.45982e-05
-0.00633514
0.000410747
-0.00643943
0.000736852
-0.00656546
0.00102707
-0.00671775
0.00127434
-0.00690136
0.00146971
-0.00712228
0.00160343
-0.00738889
0.00166341
-0.00770936
0.00163414
-0.00809454
0.00149858
-0.00855769
0.00123536
-0.00911411
0.000819063
-0.00978264
0.000218954
-0.0105854
-0.0115493
-0.000601866
-0.000272166
-0.00661452
7.4314e-05
-0.00668162
0.000397937
-0.00676305
0.000694288
-0.00686181
0.000957783
-0.00698124
0.00118199
-0.00712557
0.00135953
-0.00729982
0.00148033
-0.00750969
0.00153365
-0.00776268
0.00150591
-0.00806679
0.00138115
-0.00843293
0.00114002
-0.00887298
0.000759075
-0.0094017
0.000210677
-0.0100371
-0.0107998
-0.000538845
-0.000229238
-0.00694688
8.5681e-05
-0.00699654
0.000379818
-0.00705719
0.000649032
-0.00713102
0.000888521
-0.00722073
0.00109226
-0.00732931
0.00125296
-0.00746052
0.00136253
-0.00761926
0.00141017
-0.00781032
0.00138437
-0.00804099
0.00127001
-0.00831857
0.00104929
-0.00865226
0.000701277
-0.00905368
0.000200691
-0.00953647
-0.0101159
-0.000483161
-0.000194827
-0.00724893
9.14162e-05
-0.00728279
0.000358817
-0.00732459
0.000603594
-0.0073758
0.000821062
-0.0074382
0.00100605
-0.00751429
0.00115203
-0.0076065
0.00125119
-0.00771843
0.0012945
-0.00785362
0.00127033
-0.00801682
0.00116547
-0.00821371
0.000963973
-0.00845076
0.000646549
-0.00873626
0.000189864
-0.00907978
-0.00949247
-0.000433569
-0.000166743
-0.00752353
9.34644e-05
-0.00754299
0.000336481
-0.00756761
0.00055891
-0.00759823
0.000756601
-0.00763589
0.000924757
-0.00768245
0.00105724
-0.00773899
0.00114716
-0.00780834
0.00118609
-0.00789255
0.00116371
-0.00799444
0.00106787
-0.00811787
0.000884176
-0.00826707
0.000594877
-0.00844696
0.00017857
-0.00866347
-0.00892457
-0.000389334
-0.000143568
-0.0077732
9.29096e-05
-0.00777947
0.000313758
-0.00778846
0.000515969
-0.00780044
0.000695805
-0.00781572
0.000848327
-0.00783497
0.000968736
-0.0078594
0.00105032
-0.00788993
0.00108542
-0.00792766
0.00106486
-0.00797387
0.000977626
-0.00803064
0.000809965
-0.00809941
0.000546264
-0.00818326
0.000167246
-0.00828446
-0.00840707
-0.000350254
-0.000124243
-0.00800034
9.05482e-05
-0.00799426
0.000291325
-0.00798923
0.000475162
-0.00798428
0.000638377
-0.00797894
0.000777028
-0.00797362
0.000886469
-0.00796884
0.000960661
-0.00796412
0.000992577
-0.00795957
0.00097376
-0.00795506
0.000893986
-0.00795086
0.000741319
-0.00794674
0.000501161
-0.0079431
0.000156055
-0.00793935
-0.000314614
-0.0079364
0.00158106
0.0197006
-0.0213557
7.40311e-05
0.00278051
0.0165051
-0.0177046
0.00359519
0.0138272
-0.0146419
0.00408575
0.0115786
-0.0120691
0.00430557
0.00969088
-0.00991069
0.00430372
0.00810843
-0.00810658
0.00412437
0.00678489
-0.00660554
0.00380646
0.00568005
-0.00536214
0.00338355
0.00475872
-0.00433581
0.00288424
0.00398971
-0.00349041
0.00233305
0.00334506
-0.00279386
0.00175197
0.00279866
-0.00221758
0.00116112
0.00232589
-0.00173504
0.000571212
0.00190953
-0.00131962
0.00158025
-4.69223e-05
-0.00096212
0.00143225
0.0181983
7.00144e-05
0.00252291
0.0154145
0.00326828
0.0130818
0.00372319
0.0111237
0.00393573
0.00947834
0.00394855
0.00809561
0.00379905
0.00693438
0.0035205
0.0059586
0.00314172
0.00513751
0.00268776
0.00444367
0.00218098
0.00385184
0.00164136
0.00333827
0.00108648
0.00288078
0.000524749
0.00247126
0.00215999
-5.49913e-05
0.00130265
0.0168309
6.47657e-05
0.00229708
0.01442
0.00297909
0.0123998
0.00339876
0.010704
0.00359893
0.00927817
0.00361726
0.00807728
0.00348702
0.00706462
0.00323737
0.00620824
0.00289399
0.00548089
0.00247947
0.00485819
0.00201368
0.00431763
0.00151499
0.00383696
0.000999113
0.00339665
0.00047543
0.00299494
0.00269543
-6.00036e-05
0.00118337
0.0155884
5.91418e-05
0.00208803
0.0135154
0.00270923
0.0117786
0.00309307
0.0103202
0.00327857
0.00909266
0.0032993
0.00805655
0.00318512
0.00717881
0.00296156
0.0064318
0.00265126
0.00579119
0.0022741
0.00523535
0.00184817
0.00474356
0.00138984
0.00429529
0.000913879
0.00387262
0.0004303
0.00347852
0.00318745
-6.17263e-05
0.00107376
0.0144601
5.44994e-05
0.00189565
0.0126935
0.00246123
0.011213
0.00281222
0.00996918
0.00298371
0.00892117
0.00300626
0.008034
0.0029059
0.00727916
0.00270543
0.00663227
0.00242483
0.00607179
0.00208188
0.00557829
0.00169275
0.00513269
0.00127243
0.00471561
0.000834788
0.00431026
0.000390112
0.00392319
0.0036392
-6.16344e-05
0.00097424
0.0134346
5.13105e-05
0.00172183
0.0119459
0.00223676
0.0106981
0.00255714
0.00964879
0.00271545
0.00876286
0.00273849
0.00801096
0.00264972
0.00736794
0.00246948
0.00681251
0.00221548
0.00632579
0.00190364
0.00589013
0.00154844
0.0054879
0.00116371
0.00510034
0.000762187
0.00471178
0.000354063
0.00433132
0.00405353
-6.02679e-05
0.000884135
0.0125026
4.78591e-05
0.00156356
0.0112665
0.00203246
0.0102292
0.00232522
0.00935603
0.0024707
0.00861738
0.00249354
0.00798812
0.00241486
0.00744661
0.00225246
0.00697492
0.00202248
0.00655577
0.00173898
0.00617363
0.00141512
0.00581176
0.00106327
0.00545219
0.000695498
0.00507955
0.000321627
0.00470519
0.00443308
-5.79192e-05
0.0008028
0.0116562
4.35896e-05
0.00142055
0.0106487
0.00184704
0.00980272
0.00211402
0.00908906
0.00224763
0.00848376
0.00227
0.00796575
0.00219976
0.00751685
0.00205354
0.00712114
0.00184517
0.00676414
0.00158759
0.00643121
0.00129241
0.00610694
0.000971045
0.00577355
0.000634523
0.00541607
0.00029202
0.00504769
0.00478045
-5.53553e-05
0.000728473
0.010886
4.17343e-05
0.00129025
0.0100869
0.00167872
0.00941425
0.00192197
0.0088458
0.00204438
0.00836136
0.00206601
0.00794411
0.00200348
0.00757938
0.00187151
0.00725311
0.00168287
0.00695278
0.00144879
0.0066653
0.00117995
0.00637578
0.000886583
0.00606692
0.000578818
0.00572384
0.000265525
0.00536098
0.00509844
-5.24616e-05
0.000661233
0.0101865
3.82271e-05
0.0011721
0.00957608
0.00152553
0.00906083
0.00174757
0.00862376
0.00185956
0.00824938
0.00187993
0.00792375
0.0018243
0.007635
0.00170519
0.00737223
0.00153435
0.00712362
0.00132191
0.00687774
0.00107726
0.00662042
0.000809714
0.00633447
0.000528514
0.00600504
0.000241709
0.00564779
0.00538949
-4.9341e-05
0.000600389
0.0095507
3.54293e-05
0.00106496
0.0091115
0.00138646
0.00873933
0.00158862
0.0084216
0.00169132
0.00814668
0.00171058
0.00790449
0.00166073
0.00768485
0.00155336
0.0074796
0.00139867
0.00727831
0.00120595
0.00707046
0.000983701
0.00684267
0.000739911
0.00657826
0.000482638
0.00626231
0.000220032
0.0059104
0.00565647
-4.69512e-05
0.000545106
0.00897252
3.30747e-05
0.000967656
0.00868895
0.00126002
0.00844696
0.00144404
0.00823758
0.00153785
0.00805287
0.00155616
0.00788617
0.00151149
0.00772952
0.00141458
0.00757651
0.00127448
0.0074184
0.00109977
0.00724517
0.000898468
0.00704397
0.000677267
0.00679946
0.000443326
0.00649625
0.000202258
0.00615146
0.00590191
-4.31812e-05
0.000495072
0.00844715
3.03011e-05
0.00087917
0.00830485
0.0011452
0.00818093
0.00131293
0.00806986
0.00139827
0.00796753
0.00141548
0.00786896
0.00137538
0.00776963
0.00128784
0.00766404
0.00116083
0.00754541
0.0010025
0.00740351
0.000820779
0.00722569
0.000621412
0.00699883
0.000404745
0.00671292
0.00018388
0.00637233
0.00612948
-4.36847e-05
0.000449565
2.81669e-05
0.00796942
0.000798943
0.00795548
0.00104101
0.00793887
0.00119344
0.00791743
0.00127143
0.00788954
0.00128715
0.00785323
0.00125138
0.0078054
0.0011729
0.00774252
0.00105728
0.00766104
0.000911681
0.00754911
0.000749567
0.0073878
0.000572766
0.00717563
0.0003822
0.00690348
0.000176602
0.00657793
-3.99341e-05
0.00634601
-0.000663527
0.00163415
-0.00101755
-0.00128354
0.00202494
-0.00140493
-0.0019132
0.00247703
-0.00184737
-0.00253276
0.0029785
-0.00235894
-0.00311862
0.00355466
-0.0029688
-0.0036463
0.00423147
-0.00370379
-0.00408804
0.00503362
-0.00459188
-0.0044131
0.00598655
-0.00566149
-0.00458562
0.00711724
-0.00694472
-0.00456733
0.00845617
-0.00847446
-0.00431786
0.010039
-0.0102885
-0.00379515
0.0119104
-0.0124332
-0.00295206
0.0141294
-0.0149724
-0.00173286
0.0167708
-0.01799
0.0199231
-0.0215873
-6.8643e-05
-0.000641517
0.00222068
-0.0012312
0.00261463
-0.00182205
0.00306787
-0.00239714
0.00355359
-0.00293434
0.00409186
-0.00341129
0.00470841
-0.00380348
0.00542581
-0.00408411
0.00626718
-0.00422386
0.00725699
-0.00419075
0.00842307
-0.00395104
0.00979928
-0.00346747
0.0114269
-0.00269719
0.0133591
-0.00158704
0.0156607
0.0184092
-7.31104e-05
-0.000605403
0.00276608
-0.00115569
0.00316491
-0.00170459
0.00361677
-0.00223501
0.00408401
-0.00272718
0.00458403
-0.00316035
0.00514158
-0.00351306
0.00577853
-0.00376163
0.00651574
-0.00388079
0.00737615
-0.00384304
0.00838532
-0.00361831
0.00957455
-0.00317329
0.0109819
-0.00246859
0.0126544
-0.00145605
0.0146481
0.01703
-7.6874e-05
-0.000564926
0.00326928
-0.0010742
0.00367419
-0.00158045
0.00412301
-0.002067
0.00457056
-0.0025155
0.00503253
-0.00290756
0.00553364
-0.00322417
0.00609513
-0.00344475
0.00673632
-0.00354769
0.00747909
-0.00350899
0.00834661
-0.00330194
0.00936751
-0.00289604
0.010576
-0.00225448
0.0120128
-0.00133335
0.013727
0.0157756
-7.89567e-05
-0.000524372
0.00373201
-0.000993483
0.0041433
-0.00145884
0.00458838
-0.00190415
0.00501586
-0.00231252
0.00544091
-0.0026672
0.00588832
-0.00295141
0.00637935
-0.00314813
0.00693304
-0.0032375
0.00756846
-0.0031991
0.00830821
-0.00300906
0.00917747
-0.00263908
0.010206
-0.00205596
0.0114297
-0.00121868
0.0128897
0.014635
-7.80619e-05
-0.000485065
0.00415681
-0.000915928
0.00457416
-0.00134278
0.00501523
-0.00174966
0.00542274
-0.00212101
0.00581226
-0.00244217
0.00620949
-0.00269842
0.00663561
-0.00287387
0.00710849
-0.00295256
0.00764714
-0.00291555
0.00827121
-0.00274126
0.00900318
-0.00240446
0.00986917
-0.00187377
0.010899
-0.00111247
0.0121284
0.0135982
-7.5699e-05
-0.000447537
0.00454643
-0.000842854
0.00496948
-0.0012337
0.00540607
-0.00160484
0.00579389
-0.00194243
0.00614984
-0.00223322
0.00650028
-0.0024639
0.00686628
-0.00262132
0.00726591
-0.00269087
0.00771669
-0.0026556
0.00823594
-0.00249629
0.00884387
-0.00218958
0.00956246
-0.00170718
0.0104166
-0.00101508
0.0114363
0.0126555
-7.23788e-05
-0.000412245
0.00490332
-0.000774421
0.00533165
-0.00113168
0.00576333
-0.0014703
0.00613251
-0.00177699
0.00645653
-0.00204008
0.00676337
-0.0022483
0.0070745
-0.00238971
0.00740732
-0.00245132
0.0077783
-0.00241833
0.00820295
-0.00227275
0.00869829
-0.00199342
0.00928314
-0.00155462
0.0099778
-0.000925435
0.0108071
0.0117987
-6.85991e-05
-0.000379458
0.00523031
-0.000710797
0.00566299
-0.00103727
0.0060898
-0.00134564
0.00644088
-0.00162414
0.00673503
-0.00186249
0.00700172
-0.00205021
0.00726222
-0.00217763
0.00753475
-0.00223226
0.00783293
-0.00220132
0.00817201
-0.00206846
0.00856543
-0.00181424
0.00902891
-0.00141534
0.0095789
-0.000843253
0.010235
0.0110197
-6.42972e-05
-0.000348637
0.00552961
-0.00065229
0.00596664
-0.000950444
0.00638795
-0.00123129
0.00672173
-0.00148427
0.00698801
-0.00169975
0.00721721
-0.00186934
0.00743181
-0.0019834
0.0076488
-0.0020324
0.00788193
-0.00200342
0.00814304
-0.00188208
0.0084441
-0.00165082
0.00879765
-0.00128805
0.00921613
-0.000768158
0.00971516
0.0103117
-6.01116e-05
-0.000321173
0.00580383
-0.000598756
0.00624423
-0.000871029
0.00666022
-0.00112629
0.00697698
-0.00135548
0.0072172
-0.00155038
0.00741211
-0.00170335
0.00758478
-0.00180637
0.00775182
-0.00184985
0.00792541
-0.00182291
0.00811609
-0.00171241
0.0083336
-0.00150177
0.00858701
-0.00117198
0.00888634
-0.000699498
0.00924267
0.00966794
-5.57476e-05
-0.000294948
0.0060556
-0.000549472
0.00649875
-0.000798128
0.00690888
-0.00103075
0.00720961
-0.00123846
0.00742491
-0.00141428
0.00758792
-0.00155199
0.00772249
-0.00164414
0.00784397
-0.00168295
0.00796422
-0.00165805
0.00809119
-0.00155734
0.00823289
-0.00136602
0.00839569
-0.00106613
0.00858645
-0.000636564
0.00881311
0.00908284
-5.14636e-05
-0.00027427
0.00628618
-0.000506522
0.006731
-0.000732846
0.0071352
-0.00094326
0.00742002
-0.00113093
0.00761258
-0.00128861
0.00774561
-0.00141246
0.00784634
-0.00149583
0.00792733
-0.00153065
0.00799904
-0.0015081
0.00806863
-0.00141617
0.00814096
-0.00124193
0.00822145
-0.000969609
0.00831413
-0.000578921
0.00842242
0.00855127
-4.73564e-05
-0.000250165
0.00649642
-0.000464305
0.00694514
-0.000671893
0.00734279
-0.000864137
0.00761227
-0.00103307
0.00778151
-0.00117515
0.00788769
-0.00128561
0.0079568
-0.00136034
0.00800206
-0.00139178
0.00803048
-0.00137094
0.00804779
-0.00128768
0.00805771
-0.00112944
0.00806321
-0.000881611
0.0080663
-0.000526795
0.00806761
-4.32588e-05
0.00806773
0.000271899
0.00142804
0.000394441
0.00196227
0.000503882
0.00241654
0.000615494
0.00294655
0.000732907
0.00357919
0.000854386
0.00433705
0.00097474
0.00524456
0.00108625
0.00632659
0.00117923
0.00761396
0.00124393
0.00914109
0.00127347
0.0109507
0.00126624
0.0130965
0.001227
0.0156466
0.00116543
0.0186867
0.02232
0.00109195
0.000123628
0.00130441
0.000147912
0.00193799
0.000191555
0.0023729
0.000254444
0.00288367
0.00033065
0.00350298
0.000416293
0.00425141
0.000507904
0.00515295
0.00060144
0.00623306
0.000692214
0.00752319
0.00077512
0.00905818
0.000844935
0.0108809
0.000896933
0.0130445
0.000927764
0.0156157
0.000936238
0.0186782
0.0223344
0.000921805
0.000184761
0.00111968
0.000235018
0.00188773
0.000264845
0.00234307
0.000297121
0.00285139
0.000335641
0.00346446
0.000381449
0.00420561
0.000434615
0.00509978
0.000493612
0.00617406
0.00055553
0.00746127
0.00061641
0.0089973
0.000672061
0.0108252
0.00071903
0.0129975
0.000755152
0.0155796
0.000779603
0.0186538
0.0223211
0.000792906
7.27788e-05
0.00104711
0.000131542
0.00182897
0.000162363
0.00231219
0.000186237
0.00282749
0.000212713
0.00343795
0.000245395
0.00417292
0.000285862
0.0050593
0.00033422
0.0061257
0.000390021
0.00740546
0.000450005
0.00893732
0.000510288
0.0107649
0.000566249
0.0129416
0.000613915
0.015532
0.000650833
0.0186168
0.0222972
0.000674768
-4.45962e-05
0.00109195
2.68077e-05
0.00175756
6.96624e-05
0.00226926
9.64729e-05
0.00280065
0.000120769
0.00341361
0.00014854
0.00414514
0.000182185
0.00502563
0.000222874
0.00608501
0.00027063
0.00735769
0.000324418
0.00888353
0.000381921
0.0107074
0.000439776
0.0128837
0.000494164
0.0154776
0.000541917
0.0185691
0.0222561
0.000583057
-5.94234e-05
0.00115131
1.31447e-06
0.00169682
4.83561e-05
0.00222225
7.8445e-05
0.00277057
0.000101347
0.00339073
0.000123871
0.00412262
0.000150248
0.00499926
0.000181708
0.00605356
0.000219135
0.00732027
0.000262268
0.0088404
0.000310002
0.0106597
0.000360377
0.0128333
0.000410827
0.0154271
0.000458514
0.0185214
0.0222135
0.000501058
-2.52526e-05
0.0011764
9.13206e-06
0.00166243
4.88635e-05
0.00218256
7.88358e-05
0.00274061
0.000100715
0.00336887
0.000119994
0.00410334
0.000140615
0.00497865
0.000164894
0.00602928
0.000194052
0.00729112
0.000228401
0.00880605
0.000267436
0.0106207
0.000309966
0.0127908
0.000354221
0.0153829
0.000398149
0.0184775
0.0221718
0.000439822
-1.0902e-06
0.00117743
1.89382e-05
0.00164239
4.90028e-05
0.0021525
7.62699e-05
0.00271335
9.72604e-05
0.00334789
0.000114785
0.00408582
0.000132198
0.00496125
0.00015189
0.00600958
0.000175397
0.00726761
0.000203479
0.00877797
0.000236112
0.010588
0.000272551
0.0127544
0.00031156
0.0153439
0.000351515
0.0184375
0.0221328
0.000390535
9.52797e-06
0.00116787
2.45323e-05
0.00162738
4.77573e-05
0.00212929
7.18527e-05
0.00268926
9.21112e-05
0.00332764
0.000108838
0.00406909
0.000124547
0.00494554
0.00014145
0.00599268
0.000161247
0.00724782
0.00018481
0.0087544
0.000212479
0.0105604
0.000243977
0.0127229
0.000278511
0.0153093
0.000314994
0.018401
0.0220957
0.000352079
1.18935e-05
0.00115595
2.62578e-05
0.00161301
4.57923e-05
0.00210976
6.73142e-05
0.00266774
8.66236e-05
0.00330833
0.000102878
0.00405284
0.00011768
0.00493074
0.000132988
0.00597737
0.000150287
0.00723052
0.00017065
0.00873404
0.00019459
0.0105364
0.000222104
0.0126954
0.000252757
0.0152787
0.000285776
0.018368
0.0220614
0.000320154
1.14824e-05
0.00114446
2.57004e-05
0.00159879
4.32875e-05
0.00209217
6.28276e-05
0.0026482
8.11349e-05
0.00329003
9.69418e-05
0.00403703
0.00011121
0.00491647
0.000125412
0.00596317
0.000140975
0.00721496
0.000159019
0.008716
0.000180137
0.0105153
0.00020449
0.012671
0.000231856
0.0152513
0.000261643
0.0183382
0.02203
0.000293002
1.05194e-05
0.00113393
2.42364e-05
0.00158507
4.05836e-05
0.00207583
5.85936e-05
0.00263019
7.60504e-05
0.00327257
9.15374e-05
0.00402154
0.00010522
0.00490279
0.000118623
0.00594977
0.000132751
0.00720083
0.000149222
0.00869952
0.000168124
0.0104964
0.000189934
0.0126492
0.000214543
0.0152267
0.000241596
0.0183112
0.0220012
0.000270412
9.63743e-06
0.00112429
2.25811e-05
0.00157213
3.78892e-05
0.00206052
5.47099e-05
0.00261337
7.14513e-05
0.00325583
8.65172e-05
0.00400648
9.9919e-05
0.00488939
0.000112716
0.00593697
0.000126056
0.00718749
0.000140933
0.00868465
0.000158058
0.0104793
0.000177784
0.0126295
0.000200117
0.0152044
0.000224766
0.0182865
0.0219747
0.000251201
8.88478e-06
0.00111541
2.09504e-05
0.00156006
3.53136e-05
0.00204616
5.11929e-05
0.00259749
6.73383e-05
0.00323969
8.21226e-05
0.00399169
9.52373e-05
0.00487628
0.000107569
0.00592464
0.00012016
0.0071749
0.000133953
0.00867085
0.000149674
0.0104635
0.000167754
0.0126114
0.000188334
0.0151838
0.000211358
0.0182635
0.0219493
0.000236834
8.23314e-06
0.00110717
1.94672e-05
0.00154883
3.29743e-05
0.00203265
4.80621e-05
0.0025824
6.36513e-05
0.0032241
7.81575e-05
0.00397719
9.10494e-05
0.00486338
0.000103016
0.00591267
0.000115008
0.00716291
0.000127923
0.00865794
0.000142484
0.010449
0.000159165
0.0125947
0.000178191
0.0151648
0.000199574
0.0182421
0.0219257
0.000223104
7.67512e-06
0.0010995
1.81596e-05
0.00153834
3.08665e-05
0.00201994
4.5252e-05
0.00256802
6.02655e-05
0.00320908
7.45135e-05
0.00396294
8.72438e-05
0.00485065
9.89136e-05
0.005901
0.000110407
0.00715142
0.000122574
0.00864577
0.000136125
0.0104354
0.000151552
0.0125793
0.000169104
0.0151472
0.00018882
0.0182224
0.0219041
0.000210485
7.18852e-06
0.00109231
1.70084e-05
0.00152852
2.90161e-05
0.00200794
4.26662e-05
0.00255437
5.71274e-05
0.00319462
7.11335e-05
0.00394894
8.37595e-05
0.00483803
9.52011e-05
0.00588956
0.000106282
0.00714034
0.000117819
0.00863423
0.000130506
0.0104227
0.000144846
0.0125649
0.000161121
0.0151309
0.000179404
0.0182041
0.021884
0.000199523
6.73202e-06
0.00108558
1.59558e-05
0.0015193
2.7307e-05
0.00199659
4.03181e-05
0.00254136
5.42302e-05
0.00318071
6.7987e-05
0.00393518
8.05574e-05
0.00482546
9.18356e-05
0.00587828
0.000102589
0.00712958
0.000113607
0.00862321
0.000125573
0.0104108
0.000139
0.0125515
0.0001542
0.0151157
0.000171293
0.018187
0.021865
0.000190292
6.34668e-06
0.00107923
1.50187e-05
0.00151063
2.57417e-05
0.00198586
3.81554e-05
0.00252895
5.15942e-05
0.00316727
6.51302e-05
0.00392164
7.76068e-05
0.00481298
8.87699e-05
0.00586712
9.92693e-05
0.00711908
0.000109864
0.00861262
0.000121228
0.0103994
0.000133884
0.0125389
0.000148181
0.0151014
0.000164312
0.0181709
0.021847
0.000182303
5.97427e-06
0.00107326
1.41596e-05
0.00150244
2.43306e-05
0.00197569
3.62035e-05
0.00251707
4.91826e-05
0.00315429
6.24718e-05
0.00390836
7.48613e-05
0.00480059
8.59439e-05
0.00585604
9.624e-05
0.00710879
0.000106477
0.00860238
0.000117315
0.0103886
0.000129273
0.0125269
0.000142701
0.015088
0.000157763
0.0181558
0.0218302
0.00017452
5.65168e-06
0.00106761
1.3396e-05
0.0014947
2.307e-05
0.00196602
3.44439e-05
0.0025057
4.70218e-05
0.00314172
5.99981e-05
0.00389538
7.2297e-05
0.00478829
8.33383e-05
0.005845
9.34807e-05
0.00709864
0.000103424
0.00859244
0.000113817
0.0103782
0.000125187
0.0125155
0.000137911
0.0150753
0.000152238
0.0181415
0.0218142
0.000168257
5.37282e-06
0.00106224
1.27221e-05
0.00148735
2.19458e-05
0.0019568
3.28607e-05
0.00249479
4.50145e-05
0.00312956
5.76855e-05
0.00388271
6.98934e-05
0.00477608
8.09297e-05
0.00583396
9.09657e-05
0.00708861
0.000100673
0.00858273
0.000110696
0.0103682
0.000121572
0.0125047
0.00013369
0.0150632
0.000147319
0.0181279
0.0217985
0.000163056
5.11838e-06
0.00105712
1.21171e-05
0.00148035
2.09283e-05
0.00194798
3.13999e-05
0.00248432
4.31498e-05
0.00311781
5.55173e-05
0.00387034
6.76367e-05
0.00476397
7.86764e-05
0.00582292
8.8641e-05
0.00707864
9.81573e-05
0.00857322
0.000107865
0.0103585
0.000118301
0.0124942
0.000129878
0.0150516
0.000142869
0.0181149
0.0217839
0.000157467
4.87525e-06
0.00105224
1.15528e-05
0.00147368
1.99593e-05
0.00193958
3.0031e-05
0.00247424
4.1399e-05
0.00310644
5.34823e-05
0.00385826
6.55023e-05
0.00475195
7.65414e-05
0.00581188
8.64591e-05
0.00706873
9.58199e-05
0.00856386
0.000105256
0.010349
0.000115304
0.0124842
0.000126392
0.0150405
0.00013884
0.0181024
0.0217697
0.000153
4.65502e-06
0.00104759
1.10244e-05
0.00146731
1.90865e-05
0.00193152
2.87437e-05
0.00246459
3.97659e-05
0.00309542
5.15882e-05
0.00384644
6.34855e-05
0.00474005
7.45182e-05
0.00580085
8.44076e-05
0.00705884
9.36459e-05
0.00855462
0.00010285
0.0103398
0.000112569
0.0124745
0.00012325
0.0150298
0.000135266
0.0180904
0.0217561
0.000148851
4.44776e-06
0.00104314
1.05407e-05
0.00146122
1.82696e-05
0.00192379
2.75814e-05
0.00245528
3.82575e-05
0.00308475
4.98213e-05
0.00383487
6.15738e-05
0.0047283
7.25823e-05
0.00578984
8.24549e-05
0.00704896
9.15902e-05
0.00854548
0.000100589
0.0103308
0.000109998
0.012465
0.000120271
0.0150195
0.000131754
0.0180789
0.0217433
0.000144524
4.25173e-06
0.00103889
1.00951e-05
0.00145537
1.75147e-05
0.00191637
2.65027e-05
0.00244629