/*--------------------------------*- C++ -*----------------------------------*\
| =========                 |                                                 |
| \\      /  F ield         | OpenFOAM: The Open Source CFD Toolbox           |
|  \\    /   O peration     | Version:  2.3.0                                 |
|   \\  /    A nd           | Web:      www.OpenFOAM.org                      |
|    \\/     M anipulation  |                                                 |
\*---------------------------------------------------------------------------*/
FoamFile
{
    version     2.0;
    format      ascii;
    class       volVectorField;
    location    "400";
    object      U;
}
// * * * * * * * * * * * * * * * * * * * * * * * * * * * * * * * * * * * * * //

dimensions      [0 1 -1 0 0 0 0];

internalField   nonuniform List<vector> 
7826
(
(20.7467 0.607435 3.39709e-21)
(20.8072 0.718766 -2.52772e-21)
(20.8759 0.856744 4.23973e-21)
(20.9541 1.02028 3.59294e-20)
(21.0373 1.20424 -3.77946e-20)
(21.1151 1.40013 -2.69866e-21)
(21.1735 1.59859 0)
(21.1982 1.79134 0)
(21.178 1.97224 0)
(21.106 2.13702 0)
(20.9802 2.28282 0)
(20.8021 2.4086 -4.1182e-20)
(20.5756 2.51597 1.33013e-20)
(20.3054 2.60547 5.55928e-20)
(19.9997 2.66652 -3.08181e-20)
(20.6197 0.629792 -1.6265e-21)
(20.6266 0.710989 0)
(20.6213 0.794188 -1.53274e-20)
(20.6036 0.882179 1.5128e-20)
(20.5749 0.975801 -6.22938e-22)
(20.5375 1.07442 -1.4533e-20)
(20.4934 1.17549 1.34156e-20)
(20.4439 1.27509 0)
(20.3894 1.36884 3.8593e-20)
(20.3305 1.45274 -3.54592e-20)
(20.2677 1.52371 -5.94186e-20)
(20.2019 1.57967 -1.45413e-20)
(20.1342 1.61965 1.02869e-19)
(20.0662 1.6433 -3.61976e-20)
(19.9991 1.65017 -2.43679e-22)
(20.5269 0.644492 2.4335e-21)
(20.5222 0.716097 0)
(20.5116 0.785397 3.29111e-21)
(20.4943 0.851661 -3.42717e-21)
(20.4697 0.913118 -7.13493e-20)
(20.4378 0.968612 1.43661e-19)
(20.3991 1.01759 -1.53462e-19)
(20.3549 1.0599 7.67896e-20)
(20.3064 1.09559 -8.78758e-20)
(20.255 1.12485 -7.43499e-21)
(20.2019 1.14792 -6.70414e-21)
(20.1484 1.16508 8.73083e-20)
(20.0954 1.17672 -3.65302e-22)
(20.0437 1.18328 2.42743e-20)
(19.994 1.18508 -2.29361e-20)
(20.4462 0.630706 0)
(20.4298 0.684351 3.48079e-20)
(20.4082 0.734469 -3.89785e-20)
(20.3823 0.781227 -5.34452e-22)
(20.3529 0.824133 -2.4996e-22)
(20.3208 0.86273 0)
(20.2868 0.896701 9.2657e-20)
(20.2515 0.925893 6.14376e-21)
(20.2156 0.950314 -9.00673e-20)
(20.1793 0.970073 4.9669e-20)
(20.1432 0.985393 -4.76592e-20)
(20.1075 0.996544 0)
(20.0726 1.00385 -1.20222e-23)
(20.0387 1.00765 -8.1791e-22)
(20.0061 1.00825 -4.22067e-22)
(20.3881 0.61262 5.19281e-21)
(20.3696 0.653856 -4.04674e-22)
(20.3482 0.69156 -3.02127e-21)
(20.3243 0.725633 -4.60207e-20)
(20.2983 0.755958 4.71276e-20)
(20.2707 0.782504 -1.62007e-21)
(20.2419 0.805353 1.64696e-21)
(20.2124 0.824652 0)
(20.1825 0.840604 5.54034e-20)
(20.1525 0.853419 -5.28882e-20)
(20.1228 0.863308 0)
(20.0934 0.870489 -5.74991e-20)
(20.0646 0.875175 5.66345e-20)
(20.0365 0.87758 4.55e-22)
(20.0092 0.877874 4.69523e-22)
(20.3424 0.59104 3.06134e-20)
(20.3235 0.622862 -2.11854e-20)
(20.3027 0.651729 3.02197e-21)
(20.2804 0.677535 0)
(20.2571 0.700379 1.60202e-21)
(20.233 0.720334 1.64368e-21)
(20.2085 0.737517 -6.02456e-20)
(20.1836 0.752063 -2.48505e-21)
(20.1587 0.764124 5.56423e-20)
(20.1338 0.773855 6.10807e-20)
(20.109 0.781398 -5.90664e-20)
(20.0846 0.786887 -9.67674e-22)
(20.0605 0.790457 -3.30332e-20)
(20.0368 0.792241 1.63063e-20)
(20.0137 0.792344 1.73204e-20)
(20.3077 0.569995 2.71233e-20)
(20.2897 0.595025 -2.62498e-20)
(20.2706 0.617781 0)
(20.2506 0.637991 0)
(20.23 0.655852 0)
(20.209 0.671463 1.85732e-21)
(20.1876 0.684942 1.82242e-21)
(20.166 0.696401 6.18951e-20)
(20.1443 0.705955 -6.09797e-20)
(20.1225 0.713706 -9.81116e-22)
(20.1009 0.719754 -3.40642e-20)
(20.0794 0.724179 3.38098e-20)
(20.058 0.72706 -5.79333e-24)
(20.037 0.728482 -1.09252e-21)
(20.0163 0.72851 -9.1249e-21)
(20.2806 0.550405 -3.6576e-21)
(20.2638 0.570386 -2.8922e-20)
(20.2464 0.588799 2.67611e-20)
(20.2284 0.605133 -6.22963e-20)
(20.21 0.619629 5.95347e-20)
(20.1913 0.632367 -1.8974e-21)
(20.1724 0.643437 0)
(20.1533 0.652916 0)
(20.134 0.660872 6.59168e-20)
(20.1146 0.667373 -6.65548e-20)
(20.0952 0.672476 1.0779e-21)
(20.0759 0.676227 1.11596e-21)
(20.0566 0.678676 1.96907e-20)
(20.0376 0.679867 5.03189e-22)
(20.0187 0.679843 -2.03019e-20)
(20.259 0.532801 7.52877e-21)
(20.2437 0.548999 0)
(20.2279 0.564216 1.86928e-21)
(20.2117 0.577757 3.14494e-20)
(20.1952 0.589854 -1.07e-21)
(20.1784 0.600562 9.42097e-22)
(20.1613 0.609942 -1.12602e-21)
(20.144 0.618036 -3.33186e-20)
(20.1266 0.624879 1.07596e-21)
(20.109 0.630504 0)
(20.0912 0.634942 0)
(20.0735 0.63822 -4.04951e-20)
(20.0557 0.640367 3.82361e-20)
(20.038 0.641402 0)
(20.0205 0.64135 0)
(20.2419 0.517293 -3.83652e-21)
(20.2278 0.530606 0)
(20.2134 0.543339 0)
(20.1987 0.55478 4.01692e-21)
(20.1837 0.565093 3.32025e-20)
(20.1684 0.574316 -3.09677e-20)
(20.1528 0.58247 2.12732e-21)
(20.137 0.589559 -2.20832e-21)
(20.121 0.5956 0)
(20.1047 0.600585 0)
(20.0883 0.604527 1.19661e-21)
(20.0717 0.607455 1.22689e-21)
(20.0551 0.609376 0)
(20.0385 0.610296 0)
(20.0221 0.610225 0)
(20.2281 0.503597 0)
(20.2151 0.514788 0)
(20.202 0.5255 0)
(20.1885 0.535312 3.14491e-20)
(20.1747 0.544266 -6.75729e-20)
(20.1606 0.552363 3.19582e-20)
(20.1462 0.559603 -3.57665e-20)
(20.1315 0.565943 1.38998e-21)
(20.1166 0.571393 3.68149e-20)
(20.1015 0.575908 0)
(20.0861 0.579465 -2.11896e-20)
(20.0704 0.582108 1.75374e-20)
(20.0547 0.583853 2.11508e-20)
(20.039 0.58467 -1.04022e-20)
(20.0233 0.584579 -1.0953e-20)
(20.2166 0.491382 -1.94752e-21)
(20.205 0.500896 0)
(20.1929 0.510017 0)
(20.1803 0.5186 3.63342e-20)
(20.1676 0.52654 -3.19893e-20)
(20.1544 0.533773 3.78747e-20)
(20.141 0.540331 -3.57178e-20)
(20.1272 0.546096 -2.32337e-21)
(20.1132 0.551117 1.92472e-20)
(20.0989 0.555284 -4.16046e-20)
(20.0844 0.558523 1.99227e-20)
(20.0694 0.560924 -1.83817e-20)
(20.0544 0.562535 1.29929e-20)
(20.0393 0.563245 1.0864e-20)
(20.0242 0.563121 -2.82042e-21)
(20.2071 0.479852 4.77188e-23)
(20.1966 0.488363 -1.47491e-20)
(20.1856 0.496395 1.67675e-20)
(20.1735 0.504082 2.57071e-23)
(20.1619 0.511333 -2.206e-21)
(20.1492 0.517861 -2.03108e-20)
(20.1367 0.52394 1.81272e-20)
(20.1236 0.529203 -1.66404e-20)
(20.1103 0.533943 1.66589e-20)
(20.0968 0.537881 2.4711e-21)
(20.0832 0.540785 2.05756e-20)
(20.0687 0.542907 -2.07152e-20)
(20.0543 0.544463 -5.37097e-21)
(20.0398 0.545067 -2.82889e-21)
(20.0252 0.544939 8.45873e-21)
(20.1978 0.469215 -2.1772e-21)
(20.1889 0.477644 1.38899e-23)
(20.1792 0.484617 0)
(20.1673 0.491396 -4.3185e-21)
(20.1569 0.498315 2.21989e-21)
(20.1445 0.504148 -1.60778e-20)
(20.1329 0.509971 1.84001e-20)
(20.1203 0.51456 2.43752e-21)
(20.1076 0.519177 -2.52707e-24)
(20.0945 0.523245 -2.01802e-20)
(20.0822 0.525892 2.04108e-20)
(20.0684 0.52761 0)
(20.0551 0.529219 5.5082e-21)
(20.0414 0.529476 -8.6004e-21)
(20.0269 0.529474 5.68504e-21)
(19.6352 2.62694 0)
(19.3416 2.54108 -2.87449e-22)
(19.1044 2.43084 -9.25367e-20)
(18.9245 2.30967 1.05006e-19)
(18.8 2.17179 -1.17722e-21)
(18.7288 2.01584 2.46657e-21)
(18.707 1.84324 3.4343e-19)
(18.728 1.65704 -3.68138e-19)
(18.7829 1.46195 0)
(18.8609 1.26462 -2.82133e-21)
(18.9507 1.07332 0)
(19.0421 0.896799 0)
(19.1282 0.742239 4.05945e-19)
(19.206 0.613319 -4.2829e-19)
(19.2754 0.50191 1.84635e-20)
(19.9327 1.64258 0)
(19.8669 1.61994 2.46165e-22)
(19.8013 1.58029 -3.26709e-23)
(19.737 1.52524 9.22643e-20)
(19.6749 1.45612 -1.00235e-19)
(19.616 1.37489 -8.11893e-22)
(19.561 1.28409 1.83061e-21)
(19.5106 1.18692 0)
(19.4658 1.08694 2.23034e-21)
(19.4279 0.987575 -5.51067e-21)
(19.3986 0.891494 -5.07387e-21)
(19.3801 0.800162 -3.62917e-19)
(19.3741 0.713643 3.78588e-19)
(19.3811 0.63126 2.31164e-20)
(19.3995 0.547535 -4.19239e-20)
(19.9456 1.18287 0)
(19.8966 1.1765 8.76163e-22)
(19.8466 1.16518 -6.44678e-20)
(19.7962 1.14862 6.65337e-20)
(19.7464 1.12641 -7.96967e-20)
(19.6981 1.09824 -9.18103e-20)
(19.6524 1.06377 1.86518e-19)
(19.6106 1.02274 0)
(19.5737 0.974954 1.49361e-21)
(19.5429 0.920458 0)
(19.5191 0.859614 -2.75432e-19)
(19.5026 0.793367 1.4192e-19)
(19.4934 0.72331 7.01898e-21)
(19.4908 0.651522 1.63665e-19)
(19.4942 0.577171 -3.64861e-20)
(19.9741 1.006 7.30944e-21)
(19.9417 1.00085 -8.53707e-21)
(19.9085 0.992366 -3.40275e-20)
(19.8746 0.980314 3.76893e-20)
(19.8404 0.964394 -8.12367e-20)
(19.806 0.944363 8.48062e-20)
(19.772 0.920015 -9.54166e-20)
(19.7386 0.891189 9.99743e-20)
(19.7064 0.857847 -2.26257e-19)
(19.6759 0.820037 2.32999e-19)
(19.6479 0.777944 0)
(19.6231 0.731902 0)
(19.6024 0.682373 -8.96477e-21)
(19.5867 0.629775 -9.17326e-21)
(19.5766 0.573092 1.79599e-20)
(19.9824 0.876252 4.87966e-22)
(19.9553 0.872656 0)
(19.9277 0.866851 -3.65547e-20)
(19.8997 0.858685 -6.7751e-22)
(19.8715 0.84796 3.79657e-20)
(19.8432 0.834481 8.74019e-20)
(19.8151 0.818054 -1.80586e-19)
(19.7874 0.798475 -2.82758e-21)
(19.7605 0.775561 9.81574e-20)
(19.7348 0.749141 0)
(19.7106 0.719099 0)
(19.6884 0.685415 0)
(19.6686 0.648185 1.21356e-19)
(19.6518 0.607482 -1.22916e-19)
(19.6385 0.562875 0)
(19.9909 0.790881 -5.37833e-22)
(19.968 0.787818 3.67092e-20)
(19.9447 0.783017 -3.6261e-20)
(19.9211 0.776387 4.02609e-20)
(19.8975 0.767807 -1.25146e-19)
(19.8737 0.757152 1.72675e-19)
(19.8501 0.744302 -1.82703e-19)
(19.8266 0.729132 1.92082e-19)
(19.8035 0.711507 2.54625e-21)
(19.781 0.691296 -1.05148e-19)
(19.7593 0.668387 -1.12969e-19)
(19.7387 0.642695 1.15903e-19)
(19.7195 0.614194 7.78217e-21)
(19.702 0.582837 -4.7403e-20)
(19.6864 0.548662 3.77853e-20)
(19.9959 0.727213 9.19029e-21)
(19.9754 0.724568 2.42247e-21)
(19.9547 0.720486 -2.52719e-21)
(19.9339 0.714912 -4.35836e-20)
(19.913 0.707774 4.39928e-20)
(19.8922 0.698998 4.52751e-20)
(19.8715 0.68851 -4.58662e-20)
(19.851 0.676233 0)
(19.8308 0.662068 3.18521e-21)
(19.8111 0.645915 1.05763e-19)
(19.7919 0.627676 -1.07974e-19)
(19.7735 0.607247 3.49974e-21)
(19.7559 0.584547 0)
(19.7395 0.559472 -3.02521e-20)
(19.7248 0.532061 2.14569e-20)
(20 0.678646 0)
(19.9813 0.676261 -1.30289e-21)
(19.9625 0.672634 2.56048e-20)
(19.9437 0.667725 -2.16365e-20)
(19.9249 0.661498 -4.40512e-20)
(19.9063 0.653921 4.56478e-20)
(19.8877 0.644949 0)
(19.8694 0.634542 5.24451e-20)
(19.8514 0.622646 -4.99503e-20)
(19.8338 0.609194 0)
(19.8166 0.594117 3.33438e-21)
(19.7999 0.577335 -6.96606e-21)
(19.7839 0.558771 0)
(19.7686 0.538391 7.46757e-21)
(19.7545 0.516261 -7.37852e-21)
(20.0032 0.640234 0)
(19.9858 0.638045 -5.24529e-24)
(19.9684 0.634749 -2.68006e-20)
(19.951 0.630319 2.11317e-20)
(19.9338 0.624739 -1.46071e-21)
(19.9167 0.618007 -4.79766e-20)
(19.8998 0.610112 -9.60401e-22)
(19.8831 0.601029 4.29501e-20)
(19.8668 0.590738 0)
(19.8508 0.579202 5.25928e-20)
(19.8353 0.566379 -5.97841e-20)
(19.8202 0.552216 6.87963e-21)
(19.8055 0.536652 0)
(19.7914 0.519691 -1.45397e-20)
(19.7777 0.501045 2.90206e-20)
(20.0057 0.609174 -4.17004e-21)
(19.9893 0.607142 -3.12268e-23)
(19.9731 0.604098 6.02023e-24)
(19.9568 0.600019 2.37942e-20)
(19.9408 0.594911 -2.51754e-20)
(19.9249 0.588799 -4.90888e-20)
(19.9092 0.581694 9.57938e-20)
(19.8938 0.573587 -4.66975e-20)
(19.8788 0.564472 0)
(19.8641 0.554343 -3.24854e-21)
(19.8499 0.543188 3.36087e-21)
(19.8361 0.530991 4.81281e-20)
(19.8227 0.517724 -5.88351e-20)
(19.8099 0.503465 -1.43295e-20)
(19.7976 0.487681 -3.67184e-21)
(20.0077 0.583575 -1.45186e-21)
(19.9922 0.581676 4.34637e-21)
(19.9768 0.578849 4.63814e-24)
(19.9615 0.575036 1.50917e-21)
(19.9463 0.57028 1.53005e-21)
(19.9314 0.564645 0)
(19.9167 0.558152 6.26684e-21)
(19.9023 0.550787 0)
(19.8883 0.542556 5.19665e-20)
(19.8747 0.533484 -4.86871e-20)
(19.8616 0.523582 -5.36575e-20)
(19.8488 0.51286 5.72816e-20)
(19.8365 0.501315 6.91212e-21)
(19.8246 0.489038 0)
(19.8131 0.475377 -3.56476e-21)
(20.0093 0.562134 -5.82265e-21)
(19.9943 0.560362 -3.05302e-21)
(19.9797 0.557768 7.47889e-21)
(19.9653 0.554172 0)
(19.9509 0.549666 0)
(19.9366 0.544415 -3.11231e-21)
(19.9227 0.53842 -2.54714e-20)
(19.9092 0.531626 2.85155e-20)
(19.8961 0.524063 0)
(19.8833 0.5158 0)
(19.8711 0.506861 0)
(19.8592 0.497277 3.35582e-21)
(19.8478 0.487066 -6.8576e-21)
(19.8368 0.476274 0)
(19.8263 0.464362 0)
(20.0109 0.543932 2.91429e-21)
(19.9962 0.542301 0)
(19.9824 0.540045 0)
(19.9686 0.536621 -1.23378e-20)
(19.9548 0.532236 1.22548e-20)
(19.9409 0.527295 3.13053e-21)
(19.9277 0.521729 2.54199e-20)
(19.9149 0.515373 -3.1685e-20)
(19.9026 0.508295 0)
(19.8905 0.500657 -2.30134e-20)
(19.879 0.492474 -3.36594e-22)
(19.8678 0.48381 -3.68446e-21)
(19.8572 0.474668 3.04577e-20)
(19.847 0.46507 1.03819e-20)
(19.8376 0.454996 -7.08754e-21)
(20.0131 0.528335 2.95682e-21)
(19.9982 0.526861 -5.97998e-21)
(19.9854 0.525027 1.7953e-20)
(19.9719 0.52153 2.31448e-22)
(19.9582 0.517222 -9.22149e-21)
(19.9446 0.512659 0)
(19.9322 0.507477 -6.27022e-21)
(19.9199 0.501439 3.2262e-21)
(19.9082 0.494683 0)
(19.8966 0.487584 -3.32514e-20)
(19.8859 0.479997 2.64062e-20)
(19.8752 0.47211 -1.3387e-20)
(19.8655 0.463819 -3.5087e-21)
(19.8561 0.454989 1.38348e-20)
(19.8477 0.445341 0)
(19.964 -0.298826 0)
(19.8652 -0.30323 -2.91513e-19)
(19.7227 -0.308311 3.24467e-19)
(19.5227 -0.312546 0)
(19.2581 -0.315886 0)
(18.9292 -0.318303 6.70179e-21)
(18.5396 -0.319968 1.05186e-18)
(18.0934 -0.321025 -1.76435e-18)
(17.5922 -0.32154 -1.25456e-20)
(17.032 -0.321478 -3.16696e-21)
(16.3986 -0.320962 1.75728e-18)
(15.6588 -0.319602 -1.03984e-18)
(14.7451 -0.317265 -3.18506e-19)
(13.5658 -0.285118 2.06819e-19)
(12.3743 -0.267553 8.02831e-23)
(19.9592 -0.295855 -1.73598e-20)
(19.871 -0.298965 1.34682e-19)
(19.7481 -0.303228 -1.80224e-19)
(19.5799 -0.307691 1.15621e-20)
(19.3599 -0.312272 -4.11066e-19)
(19.0856 -0.31674 4.49175e-19)
(18.7574 -0.320795 4.86789e-19)
(18.3752 -0.324092 1.39092e-21)
(17.9372 -0.326338 -5.7682e-19)
(17.4363 -0.327318 -5.07216e-21)
(16.8558 -0.32715 3.6786e-19)
(16.1608 -0.325346 -2.28684e-21)
(15.296 -0.321764 -5.14494e-19)
(14.2464 -0.296773 5.24197e-21)
(13.3831 -0.244056 -2.06255e-19)
(19.9561 -0.295458 1.84412e-20)
(19.8773 -0.299818 1.81565e-19)
(19.7699 -0.305336 -1.6522e-19)
(19.6257 -0.310842 -1.19666e-20)
(19.438 -0.315907 6.4694e-21)
(19.2031 -0.320166 4.3708e-19)
(18.9185 -0.323369 -4.90497e-19)
(18.5818 -0.325393 -5.30298e-19)
(18.1885 -0.326223 -1.28725e-22)
(17.729 -0.325922 6.49206e-19)
(17.1844 -0.32472 0)
(16.5195 -0.32195 0)
(15.6889 -0.315419 0)
(14.7143 -0.291384 -2.3704e-21)
(13.9769 -0.232437 -1.8238e-19)
(19.9512 -0.29476 -7.845e-20)
(19.8788 -0.299031 9.65873e-20)
(19.782 -0.304124 1.74472e-19)
(19.6544 -0.308867 -2.01069e-19)
(19.4899 -0.312993 4.35233e-19)
(19.284 -0.316337 1.10814e-21)
(19.0324 -0.318791 -1.01133e-18)
(18.7307 -0.320307 2.76533e-19)
(18.3721 -0.320881 6.08677e-19)
(17.9447 -0.32056 -3.36628e-19)
(17.4276 -0.319472 -1.19011e-20)
(16.7856 -0.316864 -3.39604e-21)
(15.9793 -0.309155 0)
(15.0467 -0.284834 4.79932e-21)
(14.3647 -0.227099 -5.59129e-21)
(19.9464 -0.293499 -2.09317e-20)
(19.8793 -0.296674 1.04682e-22)
(19.7918 -0.300904 2.44811e-20)
(19.6783 -0.304887 0)
(19.5333 -0.308426 7.10205e-21)
(19.3513 -0.311392 2.51872e-19)
(19.127 -0.313649 -7.58486e-21)
(18.8541 -0.315105 -5.74631e-19)
(18.5239 -0.315728 3.10589e-19)
(18.1229 -0.315539 0)
(17.6286 -0.314585 5.86128e-21)
(17.0054 -0.31209 3.34392e-21)
(16.2174 -0.303953 1.24811e-19)
(15.3102 -0.279448 -1.52865e-19)
(14.6566 -0.224001 -8.20685e-20)
(19.9426 -0.291336 -5.4929e-20)
(19.8808 -0.294211 2.38974e-20)
(19.8017 -0.298061 6.76531e-23)
(19.7004 -0.301616 6.85051e-21)
(19.5713 -0.304791 -2.41101e-19)
(19.4088 -0.307484 2.34128e-19)
(19.2066 -0.309556 0)
(18.9571 -0.310919 4.51283e-21)
(18.6503 -0.311539 0)
(18.2712 -0.311429 0)
(17.7961 -0.31057 5.92536e-21)
(17.1889 -0.308135 -6.66671e-21)
(16.4153 -0.299866 -1.29729e-19)
(15.5243 -0.27535 1.43094e-19)
(14.8869 -0.221732 -5.18475e-21)
(19.9392 -0.289341 -2.30773e-20)
(19.8825 -0.292147 6.27232e-20)
(19.8105 -0.295654 -1.32994e-20)
(19.719 -0.298862 -7.05609e-21)
(19.6028 -0.301747 0)
(19.4559 -0.304228 7.9838e-21)
(19.2716 -0.306185 0)
(19.0413 -0.307528 4.59571e-21)
(18.7539 -0.30821 1.58526e-19)
(18.3934 -0.30822 -5.17613e-21)
(17.9347 -0.307479 -1.89198e-19)
(17.3412 -0.305091 6.57952e-21)
(16.5791 -0.29677 -1.74554e-23)
(15.699 -0.272261 -3.47008e-20)
(15.0712 -0.219844 -3.97967e-20)
(19.9368 -0.288275 -1.24215e-20)
(19.8839 -0.290515 1.05214e-19)
(19.8178 -0.293549 -1.1075e-19)
(19.7344 -0.296453 -7.32437e-21)
(19.6286 -0.299144 -1.15941e-19)
(19.4945 -0.301534 2.62016e-19)
(19.3249 -0.303496 -2.7869e-19)
(19.1106 -0.304926 2.93047e-19)
(18.8397 -0.305748 1.57175e-22)
(18.4951 -0.305916 -1.62016e-19)
(18.0508 -0.305295 -5.90041e-21)
(17.4694 -0.302928 0)
(16.7169 -0.294544 -7.1287e-24)
(15.8445 -0.269988 4.20756e-20)
(15.2227 -0.218273 -3.80115e-20)
(19.9343 -0.285588 -3.92146e-20)
(19.8852 -0.288479 8.2268e-20)
(19.8241 -0.29152 -5.74046e-20)
(19.7474 -0.294337 1.20607e-19)
(19.6502 -0.29699 -1.34646e-19)
(19.5267 -0.299421 0)
(19.3693 -0.301514 8.86864e-21)
(19.1684 -0.303147 -1.5065e-19)
(18.9116 -0.304214 -5.09703e-21)
(18.5807 -0.304629 1.73038e-19)
(18.1491 -0.304175 1.0555e-19)
(17.5785 -0.301805 -1.02946e-19)
(16.8344 -0.293199 7.17588e-21)
(15.9679 -0.268306 -8.15448e-21)
(15.3502 -0.216793 -3.65794e-20)
(19.9318 -0.284139 2.02478e-20)
(19.886 -0.286876 0)
(19.8294 -0.289722 -7.44137e-21)
(19.7585 -0.292486 1.31812e-19)
(19.6685 -0.295165 -1.29742e-19)
(19.5537 -0.297704 0)
(19.4066 -0.3 -8.96983e-21)
(19.2172 -0.301927 0)
(18.9725 -0.303359 5.04897e-21)
(18.6539 -0.304164 8.1045e-20)
(18.2339 -0.304077 -8.73965e-20)
(17.6735 -0.301871 -1.01428e-19)
(16.9375 -0.293232 4.92143e-20)
(16.0757 -0.267987 4.7402e-20)
(15.4604 -0.216089 1.75385e-20)
(19.9295 -0.282946 -7.15221e-21)
(19.8866 -0.285526 -7.42138e-21)
(19.8338 -0.288226 7.64864e-21)
(19.7676 -0.290933 0)
(19.6836 -0.293656 0)
(19.5759 -0.296369 0)
(19.4371 -0.298989 1.45526e-19)
(19.2572 -0.301363 -1.53337e-19)
(19.0227 -0.303331 0)
(18.7143 -0.304858 -8.61839e-20)
(18.3038 -0.305549 6.93364e-20)
(17.7525 -0.303943 -3.73229e-20)
(17.0234 -0.294685 6.16995e-20)
(16.1679 -0.267841 1.52901e-20)
(15.5558 -0.21468 1.69131e-20)
(19.9275 -0.281172 2.25574e-20)
(19.8874 -0.284101 -2.29981e-20)
(19.838 -0.286786 0)
(19.776 -0.289394 0)
(19.6971 -0.292046 0)
(19.5958 -0.294803 -8.80779e-21)
(19.4646 -0.297636 9.20979e-21)
(19.2935 -0.300414 -9.6624e-21)
(19.0686 -0.302866 0)
(18.7701 -0.304918 0)
(18.3701 -0.307131 2.29573e-20)
(17.8288 -0.30725 -2.46255e-20)
(17.1122 -0.300234 -1.32755e-20)
(16.2575 -0.273312 0)
(15.6452 -0.216561 -1.61936e-20)
(19.9244 -0.280271 0)
(19.8865 -0.283087 7.9399e-21)
(19.8399 -0.285693 0)
(19.7812 -0.288241 6.64395e-20)
(19.706 -0.290935 -5.99231e-20)
(19.6086 -0.293928 8.8838e-21)
(19.4817 -0.297331 -9.25328e-21)
(19.3153 -0.300826 9.67141e-21)
(19.0964 -0.303704 0)
(18.8027 -0.306719 0)
(18.4022 -0.311186 -1.13619e-20)
(17.8659 -0.316809 1.21154e-20)
(17.1487 -0.307164 2.61472e-20)
(16.3218 -0.273619 0)
(15.7215 -0.212026 0)
(19.9261 -0.279101 1.6412e-20)
(19.8907 -0.281867 -2.4554e-20)
(19.8476 -0.284414 0)
(19.7928 -0.286382 0)
(19.7231 -0.288357 -8.77282e-21)
(19.6331 -0.290718 0)
(19.5158 -0.293877 0)
(19.3621 -0.298462 8.84378e-20)
(19.1571 -0.301501 -1.74833e-19)
(18.8781 -0.300239 8.7154e-20)
(18.4981 -0.306164 -4.69039e-20)
(17.9723 -0.320099 1.10702e-19)
(17.3247 -0.330012 -5.43302e-20)
(16.4279 -0.302006 0)
(15.8259 -0.224608 0)
(12.871 -0.111791 2.7444e-19)
(14.4208 -0.162196 -8.15494e-19)
(15.713 -0.176238 6.30511e-19)
(16.6712 -0.206156 0)
(17.4355 -0.228945 -8.8632e-19)
(18.0783 -0.248406 -1.04817e-21)
(18.6288 -0.265139 6.81274e-19)
(19.0956 -0.279365 0)
(19.4779 -0.290874 1.07145e-18)
(19.7719 -0.299472 -9.76204e-19)
(19.9772 -0.305092 -3.85651e-23)
(20.1015 -0.307729 -4.01825e-19)
(20.1644 -0.308113 -1.13191e-20)
(20.187 -0.306753 4.55223e-19)
(20.1859 -0.304008 -1.07463e-19)
(13.7811 -0.144423 6.0416e-19)
(15.0897 -0.148308 -3.09087e-19)
(16.2948 -0.167069 -2.13403e-21)
(17.2071 -0.194293 -3.34524e-21)
(17.9152 -0.214533 2.89766e-21)
(18.4895 -0.232168 -2.75208e-21)
(18.9637 -0.247897 5.95477e-19)
(19.3514 -0.262088 -5.37642e-19)
(19.6574 -0.274456 -4.9863e-19)
(19.8846 -0.284521 4.51062e-19)
(20.0383 -0.291799 -4.23147e-19)
(20.1298 -0.295936 4.04021e-19)
(20.1755 -0.297337 1.34152e-22)
(20.1912 -0.296749 1.67023e-19)
(20.1886 -0.294851 -1.51715e-19)
(14.3507 -0.157569 1.78338e-19)
(15.5572 -0.147944 -5.97798e-19)
(16.7087 -0.166923 4.88735e-19)
(17.5867 -0.190395 3.24405e-21)
(18.2533 -0.208364 -7.35983e-19)
(18.7769 -0.223289 -3.42925e-21)
(19.1948 -0.236019 5.9e-19)
(19.5249 -0.247302 -5.44558e-19)
(19.7767 -0.257326 5.05875e-19)
(19.958 -0.266075 -4.52645e-19)
(20.0777 -0.273358 4.29152e-19)
(20.1479 -0.278846 0)
(20.1826 -0.282451 1.5256e-23)
(20.1938 -0.284356 -1.85474e-19)
(20.1903 -0.284843 1.80471e-19)
(14.736 -0.161794 3.6489e-19)
(15.8979 -0.149323 2.97264e-19)
(17.0165 -0.167269 -9.91944e-19)
(17.8669 -0.188848 4.27677e-19)
(18.4995 -0.206078 3.85376e-19)
(18.9822 -0.219924 -3.39929e-19)
(19.3551 -0.231396 0)
(19.6402 -0.241288 0)
(19.8512 -0.249878 5.26392e-19)
(19.9995 -0.25728 -4.85169e-19)
(20.0963 -0.263476 4.53848e-19)
(20.1536 -0.268382 -4.19835e-19)
(20.1824 -0.272009 1.22295e-20)
(20.1922 -0.274494 -1.72151e-19)
(20.1894 -0.275998 1.91319e-19)
(15.0314 -0.163494 4.22972e-19)
(16.172 -0.151099 8.06909e-22)
(17.2681 -0.168058 -2.43966e-19)
(18.0948 -0.188538 -6.67873e-21)
(18.6979 -0.205129 -5.90978e-21)
(19.1457 -0.218146 0)
(19.4813 -0.228752 0)
(19.7299 -0.237749 4.55229e-21)
(19.9085 -0.245466 5.32342e-19)
(20.0311 -0.252041 -1.01271e-18)
(20.1101 -0.25749 4.682e-19)
(20.1568 -0.261812 0)
(20.1809 -0.265079 0)
(20.1894 -0.267451 0)
(20.1874 -0.269135 0)
(15.2668 -0.164146 5.07257e-21)
(16.397 -0.152318 0)
(17.4764 -0.168544 2.31382e-19)
(18.282 -0.188274 -2.03586e-19)
(18.859 -0.204242 0)
(19.2768 -0.216546 -3.40459e-19)
(19.5812 -0.226408 3.22163e-19)
(19.8003 -0.234628 -2.99702e-19)
(19.9535 -0.241577 2.65271e-19)
(20.0563 -0.247443 -8.04495e-21)
(20.1217 -0.252308 0)
(20.1602 -0.256241 -2.34968e-19)
(20.18 -0.259334 2.13545e-19)
(20.187 -0.261711 -1.26268e-20)
(20.1853 -0.263571 1.19494e-20)
(15.4568 -0.164112 2.32887e-19)
(16.5821 -0.152704 -1.33674e-19)
(17.6484 -0.168346 7.27973e-21)
(18.4353 -0.187489 -6.5086e-21)
(18.9889 -0.20291 0)
(19.3807 -0.214664 -5.39979e-21)
(19.6589 -0.223979 3.16093e-19)
(19.8539 -0.231637 -2.97931e-19)
(19.9872 -0.23803 8.71693e-21)
(20.0749 -0.243369 8.19773e-21)
(20.1301 -0.247792 0)
(20.1624 -0.251423 7.32649e-21)
(20.179 -0.254377 0)
(20.1848 -0.256748 1.31756e-20)
(20.1834 -0.258695 -1.25532e-20)
(15.6138 -0.163696 0)
(16.7371 -0.152442 8.10918e-21)
(17.7925 -0.167502 -2.36028e-19)
(18.5623 -0.186061 2.11465e-19)
(19.0948 -0.200975 -5.8765e-21)
(19.4639 -0.212309 -5.43242e-21)
(19.7198 -0.221263 3.18798e-19)
(19.8951 -0.22859 -2.92477e-19)
(20.0124 -0.234672 2.76358e-19)
(20.0884 -0.239729 9.58454e-21)
(20.1357 -0.243923 -2.54433e-19)
(20.1633 -0.247401 0)
(20.1774 -0.250287 -7.2352e-21)
(20.1825 -0.25268 0)
(20.1814 -0.254817 0)
(15.7468 -0.162784 3.56756e-20)
(16.8697 -0.151411 -7.86003e-21)
(17.9153 -0.165865 6.98173e-21)
(18.6693 -0.183857 0)
(19.1827 -0.198334 1.9303e-19)
(19.5315 -0.209392 6.28373e-21)
(19.7683 -0.218176 -1.57207e-19)
(19.9272 -0.225394 1.4393e-19)
(20.0317 -0.231401 -1.4447e-19)
(20.0984 -0.236398 1.37707e-19)
(20.1395 -0.240552 -1.30573e-19)
(20.1634 -0.244016 -7.83111e-21)
(20.1756 -0.246919 1.34922e-19)
(20.18 -0.249344 -1.14608e-19)
(20.1791 -0.251513 -2.80187e-20)
(15.8615 -0.161887 -7.73065e-20)
(16.984 -0.149782 5.32044e-20)
(18.0205 -0.163249 0)
(18.7597 -0.1805 -2.00383e-19)
(19.2556 -0.194593 1.84789e-19)
(19.5865 -0.205608 0)
(19.8069 -0.214573 0)
(19.9522 -0.222042 0)
(20.0462 -0.228256 1.56522e-19)
(20.1056 -0.233404 -2.89001e-19)
(20.1419 -0.237656 2.59696e-19)
(20.1629 -0.241191 -1.12329e-19)
(20.1736 -0.244145 2.83035e-23)
(20.1776 -0.246596 5.98141e-20)
(20.1769 -0.24871 -2.91111e-20)
(15.9625 -0.159392 -2.46518e-20)
(17.0858 -0.146281 1.25841e-19)
(18.1138 -0.15897 8.42364e-22)
(18.8386 -0.17583 -2.09158e-19)
(19.3175 -0.189929 9.1674e-20)
(19.6318 -0.201359 -1.08787e-20)
(19.8375 -0.21088 0)
(19.9713 -0.218868 0)
(20.0569 -0.225516 0)
(20.1106 -0.230931 -1.34072e-19)
(20.1432 -0.235339 8.08483e-21)
(20.1619 -0.23896 1.15388e-19)
(20.1716 -0.24196 -1.59684e-20)
(20.1752 -0.244426 6.97884e-20)
(20.1749 -0.246433 -7.51496e-20)
(16.0522 -0.158332 1.57959e-20)
(17.1719 -0.14273 0)
(18.1899 -0.153245 -1.17579e-19)
(18.9008 -0.168791 1.09537e-20)
(19.3652 -0.182905 7.9261e-20)
(19.6654 -0.195312 -7.63091e-20)
(19.8604 -0.206469 2.48254e-19)
(19.9852 -0.215958 -3.15797e-19)
(20.0645 -0.223377 2.92842e-19)
(20.1138 -0.229147 -1.44881e-19)
(20.1435 -0.233657 -8.76514e-21)
(20.1606 -0.237318 1.69214e-20)
(20.1695 -0.240355 -2.83238e-23)
(20.173 -0.242874 -8.00092e-21)
(20.1728 -0.244967 -7.85884e-21)
(16.1348 -0.148692 0)
(17.2616 -0.132753 0)
(18.2736 -0.143955 5.1585e-20)
(18.9703 -0.160625 -1.56131e-19)
(19.4151 -0.176092 1.01885e-19)
(19.6992 -0.191386 1.09252e-20)
(19.8786 -0.204657 0)
(19.9958 -0.214687 0)
(20.0699 -0.222557 9.53043e-21)
(20.1161 -0.228217 6.45269e-20)
(20.1437 -0.232639 -1.42435e-19)
(20.1593 -0.236297 5.18028e-20)
(20.1675 -0.239306 -2.67477e-23)
(20.1708 -0.241743 0)
(20.1709 -0.243677 0)
(16.2072 -0.148636 1.45068e-20)
(17.305 -0.128848 -5.35376e-20)
(18.2968 -0.132944 6.11434e-20)
(18.9761 -0.145377 1.17065e-20)
(19.4207 -0.162184 9.01172e-20)
(19.6922 -0.17982 -1.84165e-19)
(19.8871 -0.199324 9.39807e-20)
(20.0008 -0.214173 -8.03317e-20)
(20.0741 -0.222613 7.78042e-20)
(20.1173 -0.228037 0)
(20.1427 -0.231976 8.98961e-21)
(20.157 -0.235398 8.77362e-21)
(20.1655 -0.238514 1.7262e-20)
(20.1687 -0.240901 8.47487e-21)
(20.1692 -0.242853 0)
(19.8865 0.249605 -1.21284e-18)
(20.9269 -0.0965031 1.90855e-21)
(21.1706 -0.0408104 -3.22142e-19)
(21.3585 0.0449809 2.63007e-19)
(21.5083 0.134173 0)
(21.6157 0.222817 -1.5548e-19)
(21.6743 0.313021 1.42952e-19)
(21.679 0.40075 1.00948e-19)
(21.6294 0.478754 -8.82032e-20)
(21.5319 0.53906 1.00817e-20)
(21.3999 0.575083 2.91891e-21)
(21.2515 0.583402 0)
(21.105 0.56553 9.71281e-21)
(20.9739 0.527286 -1.90793e-20)
(20.8625 0.485132 -2.40717e-21)
(16.4138 -0.564206 -1.18818e-18)
(19.3826 -0.195621 3.07879e-19)
(19.8175 -0.208805 5.30959e-21)
(20.1286 -0.182156 -1.29699e-19)
(20.4054 -0.13566 1.92113e-19)
(20.6554 -0.0785186 -7.34332e-20)
(20.8708 -0.0146903 6.66246e-20)
(21.0412 0.0530174 -6.64344e-20)
(21.1575 0.121405 4.52014e-20)
(21.215 0.186663 -5.69716e-20)
(21.2159 0.244627 -3.56175e-21)
(21.1696 0.290994 2.44353e-20)
(21.0914 0.322289 -2.20885e-20)
(20.9982 0.335586 5.81042e-21)
(20.9034 0.339245 1.34881e-21)
(13.9744 -0.411322 0)
(18.9122 -0.0832492 -2.29771e-19)
(19.4835 -0.147237 1.33721e-19)
(19.7731 -0.138167 -3.56695e-21)
(20.04 -0.113376 -1.49582e-21)
(20.2899 -0.0848069 5.26756e-20)
(20.5158 -0.0511376 -8.87583e-20)
(20.7092 -0.0118897 7.75176e-20)
(20.8619 0.0315298 -3.36896e-20)
(20.9675 0.0765039 1.34928e-21)
(21.0241 0.119908 2.41031e-20)
(21.0349 0.158668 -2.23689e-21)
(21.0086 0.190505 4.35323e-21)
(20.9569 0.212971 -2.8421e-21)
(20.8923 0.230402 -9.37088e-21)
(12.572 -0.302564 0)
(18.6649 -0.160198 -2.22851e-21)
(19.4485 -0.237498 -1.87539e-19)
(19.7403 -0.216876 2.59287e-19)
(19.9849 -0.199179 -2.32747e-21)
(20.2117 -0.18081 -1.43472e-19)
(20.4186 -0.157108 5.84169e-20)
(20.5999 -0.126524 0)
(20.7485 -0.0893877 -2.15835e-21)
(20.8586 -0.0471748 7.37268e-21)
(20.9269 -0.00251539 3.13739e-21)
(20.9548 0.0411266 -1.29139e-20)
(20.948 0.0804006 2.01207e-20)
(20.9155 0.112295 -1.90727e-20)
(20.8682 0.134173 7.07973e-21)
(12.6937 -0.205036 5.90012e-21)
(18.0037 -0.299485 2.23756e-19)
(19.1509 -0.3088 -1.29763e-21)
(19.5822 -0.27787 -5.98405e-22)
(19.852 -0.264018 0)
(20.0784 -0.249358 -2.22875e-21)
(20.2821 -0.230155 4.9676e-20)
(20.4633 -0.205216 -4.14916e-20)
(20.6172 -0.174298 2.33779e-21)
(20.7384 -0.137705 -3.75342e-21)
(20.823 -0.0966757 -2.27959e-21)
(20.8702 -0.0534948 -4.53571e-21)
(20.8834 -0.0110711 5.3403e-21)
(20.8693 0.0281684 0)
(20.8369 0.0573654 0)
(13.5729 -0.182336 2.07182e-19)
(17.1896 -0.35344 -1.20094e-21)
(18.7079 -0.307026 -8.28512e-20)
(19.3517 -0.28569 6.1369e-20)
(19.6922 -0.274869 0)
(19.9369 -0.263304 -4.0933e-20)
(20.1442 -0.248807 3.43499e-20)
(20.3272 -0.230312 2.72184e-20)
(20.4854 -0.20704 5.98825e-22)
(20.6153 -0.178732 -1.94857e-20)
(20.7132 -0.14583 1.58339e-20)
(20.7774 -0.109538 -1.31676e-21)
(20.8093 -0.0717644 -2.037e-20)
(20.8134 -0.0337754 1.31826e-20)
(20.7961 -0.00225766 -1.71235e-21)
(14.0543 -0.228367 1.27376e-19)
(16.7431 -0.324592 -7.51723e-20)
(18.3318 -0.290784 -5.64917e-20)
(19.1341 -0.282473 8.84353e-20)
(19.5603 -0.272601 -1.04446e-23)
(19.8351 -0.263 -2.58545e-20)
(20.0497 -0.25211 2.33478e-20)
(20.2326 -0.238594 -2.33195e-22)
(20.3905 -0.221251 -1.73589e-20)
(20.5224 -0.19951 1.43439e-20)
(20.6257 -0.173425 -1.05898e-20)
(20.6987 -0.143654 -6.36096e-21)
(20.742 -0.111504 8.86804e-21)
(20.759 -0.0776694 -8.96298e-21)
(20.7541 -0.0471487 3.34363e-21)
(14.1761 -0.247752 9.02056e-20)
(16.5082 -0.291062 5.09957e-22)
(18.051 -0.284787 -6.37235e-22)
(18.9387 -0.281774 -9.86054e-22)
(19.4413 -0.27272 0)
(19.7523 -0.264466 -2.00575e-20)
(19.9791 -0.255803 3.23053e-20)
(20.1641 -0.24539 -1.35929e-20)
(20.3211 -0.231965 1.09645e-20)
(20.4529 -0.214783 -1.08178e-20)
(20.5582 -0.1936 4.50838e-22)
(20.6357 -0.168701 -1.82496e-21)
(20.6858 -0.140986 0)
(20.7111 -0.110963 0)
(20.7153 -0.0822131 -8.05623e-22)
(14.0915 -0.246888 0)
(16.3517 -0.27395 0)
(17.8374 -0.282842 1.26095e-22)
(18.7616 -0.281546 1.92405e-20)
(19.3226 -0.274309 -1.37179e-22)
(19.671 -0.267056 -6.56841e-22)
(19.9144 -0.259649 -1.02892e-20)
(20.1046 -0.251037 7.91569e-21)
(20.2625 -0.240145 -1.97065e-23)
(20.3944 -0.226154 -5.91687e-21)
(20.501 -0.208633 4.30121e-21)
(20.5818 -0.18758 -5.90692e-22)
(20.6368 -0.163527 -3.49371e-21)
(20.6683 -0.136784 1.40132e-21)
(20.6796 -0.109399 -5.18866e-22)
(13.9474 -0.241523 0)
(16.2075 -0.267809 -3.16624e-23)