/*--------------------------------*- C++ -*----------------------------------*\
| =========                 |                                                 |
| \\      /  F ield         | OpenFOAM: The Open Source CFD Toolbox           |
|  \\    /   O peration     | Version:  2.3.0                                 |
|   \\  /    A nd           | Web:      www.OpenFOAM.org                      |
|    \\/     M anipulation  |                                                 |
\*---------------------------------------------------------------------------*/
FoamFile
{
    version     2.0;
    format      ascii;
    class       volScalarField;
    location    "7000";
    object      p;
}
// * * * * * * * * * * * * * * * * * * * * * * * * * * * * * * * * * * * * * //

dimensions      [0 2 -2 0 0 0 0];

internalField   nonuniform List<scalar> 
14050
(
-0.000231742
-1.2605
-2.44536
-3.55489
-4.56663
-5.45173
-6.19355
-6.76671
-7.16717
-7.37632
-7.36232
-7.09191
-6.49957
-5.4828
-3.87044
-1.48329
1.84931
6.31172
12.0799
20.0219
30.7872
41.857
48.9122
65.1984
10.0358
10.0332
10.16
10.4501
10.9031
11.5366
12.3712
13.4612
14.8685
16.6866
19.0241
22.002
25.7477
30.397
36.0952
43.0162
51.3052
61.0989
72.5187
85.6896
100.673
117.385
135.859
155.835
18.7223
19.4993
20.4161
21.5672
22.9535
24.599
26.5191
28.738
31.2781
34.1703
37.4498
41.1616
45.3491
50.0687
55.3728
61.3131
67.933
75.2541
83.2911
92.0069
101.333
111.156
121.384
131.832
26.1181
27.3753
28.771
30.3951
32.2409
34.3318
36.6876
39.3371
42.318
45.6604
49.4042
53.5875
58.245
63.4124
69.1156
75.3701
82.1851
89.5395
97.3972
105.688
114.311
123.117
131.942
140.571
32.131
33.847
35.5673
37.4626
39.5561
41.8612
44.399
47.1853
50.2465
53.5965
57.2635
61.2707
65.6397
70.3913
75.5398
81.0942
87.0567
93.4066
100.11
107.111
114.334
121.672
129.014
136.223
37.7682
39.3779
41.1852
43.1648
45.3391
47.7103
50.2915
53.1
56.1544
59.4724
63.075
66.9838
71.2114
75.7676
80.6581
85.8905
91.4579
97.339
103.493
109.875
116.41
123.022
129.609
136.069
42.3395
43.9483
45.7953
47.7917
49.9668
52.3209
54.8609
57.6103
60.5712
63.7631
67.2042
70.9161
74.9154
79.2075
83.7795
88.6468
93.8062
99.2458
104.916
110.778
116.77
122.829
128.866
134.797
46.1888
47.7888
49.6521
51.6337
53.7657
56.0431
58.4932
61.1648
64.0341
67.1175
70.4192
73.9451
77.7355
81.819
86.1607
90.7559
95.5932
100.673
105.97
111.439
117.027
122.678
128.322
133.868
49.6456
51.0698
52.7972
54.6757
56.783
59.0283
61.4375
63.9807
66.6848
69.6416
72.826
76.2126
79.8698
83.7684
87.8781
92.2028
96.8092
101.645
106.743
111.86
117.136
122.539
127.897
133.149
52.7705
53.7507
54.9396
56.3868
58.5421
61.321
63.7654
66.2088
68.5658
71.2315
74.1471
77.362
81.0381
85.2683
88.646
92.4117
96.8014
102.226
107.453
112.282
117.364
122.826
128.018
133.002
125.239
156.34
175.128
188.965
200.308
209.537
216.931
222.704
227.102
230.295
232.439
233.664
234.079
233.781
232.87
231.432
229.553
227.321
224.815
222.103
219.236
216.243
213.318
210.871
174.243
188.512
199.862
209.023
216.305
221.887
225.96
228.713
230.339
231.022
230.935
230.242
229.084
227.587
225.849
223.949
221.938
219.85
217.701
215.496
213.228
210.885
208.591
206.618
142.215
152.273
161.732
170.372
178.108
184.911
190.79
195.78
199.934
203.314
205.986
208.019
209.475
210.416
210.895
210.968
210.681
210.08
209.208
208.103
206.794
205.304
203.75
202.369
148.865
156.752
164.152
170.949
177.074
182.487
187.187
191.191
194.536
197.268
199.441
201.112
202.338
203.172
203.662
203.855
203.787
203.492
202.996
202.322
201.484
200.486
199.403
198.494
143.237
150.024
156.499
162.567
168.155
173.215
177.73
181.699
185.137
188.066
190.523
192.543
194.163
195.421
196.354
196.993
197.369
197.512
197.445
197.193
196.77
196.184
195.523
195.077
142.343
148.401
154.175
159.605
164.627
169.204
173.318
176.967
180.156
182.909
185.254
187.218
188.835
190.137
191.155
191.916
192.451
192.78
192.927
192.911
192.737
192.41
192.019
191.827
140.572
146.151
151.47
156.484
161.152
165.424
169.298
172.754
175.798
178.455
180.746
182.696
184.335
185.689
186.785
187.649
188.309
188.781
189.085
189.246
189.261
189.132
188.951
189.035
139.272
144.5
149.454
154.134
158.555
162.573
166.265
169.562
172.47
175.03
177.254
179.159
180.779
182.135
183.256
184.166
184.888
185.438
185.831
186.117
186.264
186.267
186.24
186.609
138.296
143.282
147.982
152.459
156.81
160.547
164.105
167.222
169.926
172.362
174.491
176.314
177.888
179.214
180.329
181.249
182.004
182.606
183.068
183.492
183.739
183.8
183.861
184.527
137.959
142.737
147.229
151.566
155.947
159.507
163.1
165.923
168.194
170.405
172.347
174.015
175.545
176.79
177.855
178.762
179.575
180.268
180.84
181.424
181.605
181.381
181.569
182.351
29.5681
29.1408
28.7157
28.2803
27.8354
27.384
26.9312
26.4832
26.0472
25.6306
25.241
24.8859
24.5728
24.3105
24.1108
23.9867
23.9601
24.0616
24.3194
24.7616
25.4238
26.3526
27.8912
31.6247
30.819
30.4958
30.034
29.5839
29.1525
28.7373
28.3382
27.9548
27.5868
27.2352
26.9034
26.5989
26.3329
26.1239
25.9947
25.9747
26.1047
26.4458
27.0859
28.1365
29.7491
32.1335
35.4288
39.4826
32.4539
32.0486
31.5963
31.1568
30.7261
30.3021
29.8867
29.4833
29.0969
28.735
28.4075
28.1284
27.9158
27.7941
27.7936
27.9533
28.3169
28.9381
29.8912
31.27
33.1846
35.7245
38.8799
42.4478
33.9094
33.4682
33.0833
32.6813
32.2811
31.8916
31.5164
31.1594
30.8266
30.5263
30.2689
30.0691
29.948
29.9299
30.0443
30.3243
30.8107
31.5568
32.623
34.0758
35.9748
38.342
41.1282
44.1814
35.3794
34.8688
34.5064
34.1377
33.77
33.4126
33.0712
32.7519
32.4612
32.2086
32.0055
31.8674
31.8159
31.8736
32.0668
32.4259
32.9904
33.8045
34.9186
36.3793
38.2286
40.4734
43.0614
45.8643
36.4199
36.1803
35.836
35.5006
35.1731
34.8508
34.5436
34.2603
34.0085
33.7972
33.6381
33.5476
33.5469
33.6557
33.9001
34.3051
34.9069
35.75
36.8703
38.3074
40.0986
42.2416
44.6989
47.3548
37.7096
37.3985
37.0832
36.7794
36.4863
36.1905
35.9081
35.6518
35.4299
35.2473
35.1223
35.0655
35.1052
35.2511
35.5434
35.9843
36.6062
37.4717
38.6022
40.0036
41.7293
43.7969
46.176
48.7397
38.782
38.464
38.2303
37.9609
37.7061
37.4308
37.1623
36.9231
36.7262
36.5596
36.4584
36.412
36.4856
36.6404
36.9702
37.4317
38.0225
38.8996
40.0552
41.3872
43.0206
44.9798
47.2944
49.7736
39.5751
39.5128
39.3065
39.0505
38.8592
38.5916
38.3
38.0372
37.874
37.7075
37.6517
37.5902
37.7415
37.8946
38.325
38.9005
39.416
40.3388
41.7242
42.9617
44.4464
46.3644
48.8122
51.3138
39.9314
40.2684
40.2276
40.0087
40.1067
39.9021
39.5444
39.1472
38.8561
38.5899
38.3234
37.9894
37.7473
37.2614
37.5219
38.3636
38.1669
38.9374
41.1652
42.7547
43.5966
44.4291
46.882
50.2668
39.9566
43.8441
46.3173
48.5723
50.7227
52.738
54.6194
56.3768
58.029
59.5984
61.1096
62.5877
64.0559
65.5304
67.0208
68.5319
70.0646
71.617
73.1856
74.768
76.362
77.9552
79.5343
81.277
44.0431
46.6301
48.0671
49.4299
50.8992
52.4705
54.1103
55.7868
57.4762
59.1604
60.8267
62.4668
64.0761
65.6538
67.2019
68.7243
70.2254
71.7104
73.1833
74.6488
76.112
77.5635
79.0023
80.5781
46.0343
49.1115
50.8957
52.2103
53.5094
54.8624
56.2635
57.6992
59.1562
60.6229
62.0913
63.5528
65.0028
66.4369
67.8538
69.2527
70.6345
72.0007
73.3534
74.6959
76.0324
77.3572
78.6722
80.0784
47.2947
50.2729
52.2473
53.6401
54.9798
56.3324
57.6976
59.0655
60.4288
61.7827
63.1256
64.4554
65.7722
67.0764
68.3685
69.6494
70.9203
72.1826
73.437
74.6848
75.9286
77.1647
78.3939
79.675
48.7147
51.4378
53.4202
54.8039
56.1202
57.4389
58.7639
60.0839
61.3921
62.6852
63.9621
65.2216
66.4641
67.6902
68.9012
70.0979
71.2822
72.4555
73.6194
74.7757
75.9256
77.067
78.2028
79.3712
50.0542
52.622
54.609
56.0082
57.3086
58.5908
59.8672
61.1303
62.3774
63.6073
64.8193
66.0131
67.1885
68.3454
69.485
70.6077
71.7152
72.8089
73.8896
74.9588
76.0175
77.0643
78.1065
79.1808
51.3243
53.774
55.7512
57.1707
58.4563
59.7022
60.9278
62.1326
63.3193
64.4885
65.6398
66.7724
67.8861
68.9801
70.0539
71.1091
72.1478
73.1709
74.1783
75.1701
76.147
77.1043
78.0543
79.0333
52.2658
54.6564
56.7071
58.2089
59.5019
60.7048
61.8721
63.0172
64.148
65.2669
66.3698
67.4524
68.5163
69.5594
70.5771
71.5755
72.558
73.5234
74.4687
75.3933
76.3
77.1779
78.0489
78.9667
53.677
55.9138
57.9824
59.4667
60.5867
61.6485
62.7146
63.7889
64.8697
65.9513
67.0207
68.0636
69.093
70.0989
71.0642
72.0131
72.9471
73.8632
74.7533
75.6155
76.4605
77.2595
78.0693
78.9453
52.7655
55.0048
58.3558
60.3032
61.4492
62.4027
63.4071
64.4316
65.4821
66.5493
67.6087
68.6042
69.6064
70.5859
71.469
72.3821
73.3009
74.1974
75.0508
75.8639
76.6786
77.3969
78.1671
79.0066
-207.125
-194.614
-181.337
-170.331
-158.492
-145.432
-132.243
-119.463
-107.106
-95.2363
-84.0109
-73.5488
-63.9507
-55.3082
-47.6617
-40.9897
-35.2325
-30.3037
-26.0661
-22.3721
-19.0909
-16.1166
-13.364
-10.6736
-121.26
-121.088
-119.836
-118.039
-116.469
-115.254
-113.812
-111.634
-108.586
-104.672
-99.9162
-94.3526
-88.0466
-81.1616
-73.9131
-66.5464
-59.3042
-52.3975
-45.9668
-40.0788
-34.736
-29.8916
-25.5114
-21.4866
-131.928
-131.798
-131.87
-131.804
-131.239
-129.953
-127.999
-125.555
-122.635
-119.103
-114.862
-109.923
-104.315
-98.0869
-91.3273
-84.154
-76.7418
-69.2856
-61.9862
-55.0031
-48.4407
-42.3396
-36.7199
-31.3976
-121.535
-121.467
-121.288
-121.02
-120.657
-120.174
-119.527
-118.644
-117.481
-116.056
-114.279
-111.965
-108.956
-105.132
-100.447
-94.915
-88.6446
-81.8143
-74.6582
-67.4178
-60.3074
-53.4793
-47.0437
-40.9492
-121.385
-121.362
-121.346
-121.295
-121.182
-120.977
-120.634
-120.094
-119.295
-118.181
-116.727
-114.895
-112.59
-109.718
-106.18
-101.891
-96.8068
-90.9608
-84.4745
-77.5455
-70.4065
-63.2854
-56.3658
-49.829
-118.468
-118.445
-118.397
-118.317
-118.196
-118.024
-117.784
-117.454
-117.001
-116.389
-115.56
-114.459
-113.019
-111.138
-108.703
-105.602
-101.736
-97.0473
-91.5477
-85.3436
-78.616
-71.602
-64.5087
-57.7438
-117.203
-117.187
-117.164
-117.122
-117.054
-116.949
-116.794
-116.57
-116.252
-115.811
-115.21
-114.401
-113.332
-111.931
-110.107
-107.756
-104.764
-101.03
-96.4872
-91.1343
-85.0619
-78.4513
-71.4766
-64.752
-115.658
-115.644
-115.621
-115.58
-115.52
-115.433
-115.31
-115.14
-114.909
-114.595
-114.172
-113.605
-112.848
-111.842
-110.511
-108.757
-106.468
-103.527
-99.833
-95.3189
-89.9925
-83.9569
-77.3032
-70.828
-114.458
-114.446
-114.429
-114.399
-114.353
-114.287
-114.193
-114.062
-113.884
-113.642
-113.316
-112.88
-112.299
-111.527
-110.504
-109.15
-107.367
-105.039
-102.046
-98.2805
-93.6867
-88.2957
-82.0883
-76.0125
-113.289
-113.279
-113.263
-113.237
-113.197
-113.141
-113.064
-112.957
-112.814
-112.622
-112.366
-112.026
-111.574
-110.973
-110.174
-109.116
-107.712
-105.858
-103.435
-100.318
-96.4031
-91.6707
-86.0094
-80.4751
-112.226
-112.218
-112.204
-112.181
-112.148
-112.101
-112.036
-111.948
-111.829
-111.671
-111.462
-111.185
-110.819
-110.335
-109.692
-108.842
-107.713
-106.216
-104.242
-101.664
-98.3554
-94.2559
-89.1891
-84.2679
-111.212
-111.205
-111.192
-111.171
-111.141
-111.1
-111.044
-110.969
-110.868
-110.735
-110.56
-110.33
-110.028
-109.63
-109.103
-108.406
-107.482
-106.257
-104.632
-102.494
-99.7084
-96.1858
-91.7042
-87.3106
-110.246
-110.24
-110.229
-110.21
-110.184
-110.148
-110.098
-110.033
-109.946
-109.831
-109.681
-109.486
-109.23
-108.895
-108.454
-107.872
-107.102
-106.083
-104.732
-102.945
-100.597
-97.5851
-93.6743
-89.8416
-109.32
-109.315
-109.304
-109.287
-109.263
-109.231
-109.186
-109.128
-109.051
-108.951
-108.82
-108.651
-108.431
-108.144
-107.769
-107.275
-106.624
-105.764
-104.625
-103.118
-101.13
-98.5549
-95.157
-91.8934
-108.429
-108.424
-108.414
-108.398
-108.376
-108.346
-108.306
-108.253
-108.184
-108.095
-107.979
-107.831
-107.638
-107.389
-107.065
-106.64
-106.082
-105.347
-104.377
-103.093
-101.394
-99.1769
-96.2058
-93.3219
-107.564
-107.56
-107.551
-107.536
-107.516
-107.488
-107.452
-107.404
-107.342
-107.261
-107.158
-107.026
-106.856
-106.637
-106.353
-105.984
-105.5
-104.865
-104.028
-102.923
-101.459
-99.5331
-96.9247
-94.5202
-106.725
-106.721
-106.712
-106.699
-106.68
-106.654
-106.621
-106.578
-106.521
-106.449
-106.356
-106.237
-106.086
-105.892
-105.642
-105.318
-104.895
-104.341
-103.615
-102.658
-101.394
-99.72
-97.4065
-95.4821
-105.902
-105.898
-105.89
-105.877
-105.86
-105.837
-105.807
-105.768
-105.717
-105.651
-105.568
-105.462
-105.326
-105.153
-104.931
-104.644
-104.271
-103.784
-103.144
-102.3
-101.181
-99.7089
-97.6794
-94.136
-105.09
-105.087
-105.08
-105.069
-105.053
-105.033
-105.006
-104.97
-104.925
-104.866
-104.791
-104.695
-104.574
-104.42
-104.222
-103.967
-103.636
-103.204
-102.639
-101.893
-100.905
-99.5934
-97.8773
-95.6085
-104.29
-104.286
-104.279
-104.269
-104.254
-104.236
-104.211
-104.179
-104.138
-104.086
-104.019
-103.933
-103.825
-103.687
-103.51
-103.282
-102.987
-102.602
-102.097
-101.433
-100.552
-99.377
-97.8164
-95.4764
-103.483
-103.481
-103.475
-103.466
-103.453
-103.437
-103.415
-103.387
-103.351
-103.304
-103.244
-103.168
-103.071
-102.947
-102.788
-102.584
-102.319
-101.973
-101.519
-100.92
-100.124
-99.0568
-97.6227
-95.3538
-102.676
-102.674
-102.668
-102.66
-102.649
-102.635
-102.616
-102.591
-102.558
-102.517
-102.463
-102.395
-102.308
-102.197
-102.054
-101.869
-101.629
-101.315
-100.902
-100.356
-99.6249
-98.6367
-97.3032
-95.152
-101.86
-101.859
-101.854
-101.847
-101.837
-101.824
-101.807
-101.785
-101.756
-101.719
-101.671
-101.61
-101.532
-101.431
-101.302
-101.134
-100.915
-100.629
-100.252
-99.7525
-99.0881
-98.1931
-96.9898
-95.0493
-101.035
-101.033
-101.028
-101.022
-101.013
-101.002
-100.987
-100.967
-100.942
-100.909
-100.866
-100.811
-100.74
-100.649
-100.531
-100.378
-100.178
-99.9163
-99.571
-99.1139
-98.508
-97.7036
-96.6653
-94.9447
-100.194
-100.193
-100.189
-100.183
-100.176
-100.166
-100.153
-100.136
-100.113
-100.084
-100.045
-99.996
-99.9322
-99.8497
-99.7423
-99.6022
-99.419
-99.1782
-98.8606
-98.4405
-97.885
-97.146
-96.1773
-94.7182
-99.3405
-99.3394
-99.3364
-99.3315
-99.325
-99.3162
-99.3046
-99.2894
-99.2694
-99.2431
-99.2088
-99.1642
-99.1065
-99.0315
-98.9337
-98.8054
-98.637
-98.4154
-98.1227
-97.7347
-97.2214
-96.5357
-95.6167
-94.3254
-98.4742
-98.473
-98.4702
-98.4658
-98.46
-98.4522
-98.4419
-98.4283
-98.4104
-98.3868
-98.356
-98.3157
-98.2632
-98.1947
-98.1047
-97.9865
-97.8307
-97.6248
-97.3519
-96.9889
-96.5063
-95.8591
-94.9641
-93.4062
-97.5922
-97.5914
-97.589
-97.5853
-97.5802
-97.5735
-97.5644
-97.5523
-97.5363
-97.515
-97.487
-97.4503
-97.4023
-97.3394
-97.2566
-97.1471
-97.0023
-96.8105
-96.5558
-96.2166
-95.7639
-95.1531
-94.3246
-93.0811
-96.6983
-96.6975
-96.6954
-96.6921
-96.6876
-96.6816
-96.6735
-96.6627
-96.6483
-96.6291
-96.6037
-96.5703
-96.5264
-96.4686
-96.3923
-96.2914
-96.1575
-95.9804
-95.7458
-95.4349
-95.0255
-94.4899
-93.7961
-92.8921
-95.7911
-95.7904
-95.7886
-95.7858
-95.782
-95.7767
-95.7696
-95.7599
-95.7469
-95.7295
-95.7063
-95.6756
-95.6351
-95.5817
-95.5108
-95.4164
-95.2908
-95.1238
-94.9015
-94.6046
-94.2105
-93.7031
-93.025
-91.2891
-94.8725
-94.872
-94.8705
-94.8681
-94.8648
-94.8602
-94.8539
-94.8454
-94.8338
-94.8181
-94.797
-94.7688
-94.7316
-94.6821
-94.6163
-94.5285
-94.4112
-94.2552
-94.0479
-93.772
-93.405
-92.921
-92.2918
-91.6132
-93.9433
-93.9428
-93.9415
-93.9396
-93.9368
-93.9329
-93.9276
-93.9201
-93.9098
-93.8957
-93.8766
-93.8509
-93.8167
-93.771
-93.7099
-93.6279
-93.5184
-93.3721
-93.1773
-92.9183
-92.5746
-92.1314
-91.5679
-90.6432
-93.0035
-93.0031
-93.0021
-93.0006
-92.9984
-92.9952
-92.9908
-92.9845
-92.9756
-92.9633
-92.9463
-92.9231
-92.892
-92.8502
-92.7939
-92.718
-92.6157
-92.4789
-92.2965
-92.0535
-91.7305
-91.3069
-90.7533
-90.0219
-92.053
-92.0528
-92.0521
-92.051
-92.0495
-92.0472
-92.0438
-92.0388
-92.0314
-92.0209
-92.0063
-91.9859
-91.9581
-91.9203
-91.8688
-91.7988
-91.7041
-91.5767
-91.4062
-91.1792
-90.8769
-90.4762
-89.9475
-89.2856
-91.0917
-91.0916
-91.0912
-91.0906
-91.0898
-91.0883
-91.086
-91.0824
-91.0768
-91.0684
-91.0562
-91.0388
-91.0146
-90.9811
-90.935
-90.8715
-90.7846
-90.667
-90.509
-90.2982
-90.0177
-89.6424
-89.1336
-88.4983
-90.1181
-90.1181
-90.1182
-90.1182
-90.118
-90.1176
-90.1165
-90.1143
-90.1106
-90.1044
-90.095
-90.0809
-90.0606
-90.0318
-89.9911
-89.9343
-89.8555
-89.7475
-89.6016
-89.4062
-89.1455
-88.7925
-88.301
-87.7825
-89.132
-89.132
-89.1324
-89.1329
-89.1335
-89.134
-89.1341
-89.1334
-89.1315
-89.1276
-89.1208
-89.1101
-89.0937
-89.0697
-89.0348
-88.9846
-88.9135
-88.8147
-88.679
-88.4945
-88.2454
-87.9197
-87.487
-86.6644
-88.1319
-88.1319
-88.1327
-88.1337
-88.135
-88.1363
-88.1375
-88.1383
-88.1382
-88.1366
-88.1326
-88.1253
-88.1131
-88.0941
-88.0653
-88.0226
-87.9606
-87.8726
-87.7509
-87.5854
-87.3619
-87.0689
-86.7313
-86.5586
-87.1172
-87.1173
-87.1183
-87.1197
-87.1216
-87.1237
-87.1259
-87.1278
-87.1292
-87.1294
-87.1278
-87.1234
-87.1149
-87.1005
-87.0775
-87.0417
-86.9878
-86.9098
-86.7999
-86.6486
-86.4432
-86.1671
-85.8078
-85.4771
-86.0878
-86.088
-86.0892
-86.091
-86.0933
-86.096
-86.0988
-86.1017
-86.1041
-86.1057
-86.1058
-86.1036
-86.0979
-86.0871
-86.0684
-86.0382
-85.9911
-85.9208
-85.8196
-85.6776
-85.4807
-85.2092
-84.8584
-84.5571
-85.0448
-85.045
-85.0465
-85.0485
-85.0511
-85.0541
-85.0574
-85.0607
-85.0637
-85.066
-85.067
-85.0659
-85.0617
-85.0529
-85.0371
-85.0105
-84.9683
-84.9042
-84.8112
-84.6807
-84.5003
-84.2548
-83.9714
-84.0477
-83.9905
-83.9907
-83.9923
-83.9945
-83.9972
-84.0004
-84.0038
-84.0071
-84.0102
-84.0126
-84.0136
-84.0124
-84.008
-83.9988
-83.9823
-83.9546
-83.91
-83.8411
-83.7375
-83.5838
-83.358
-83.0369
-82.5838
-81.3532
-82.9283
-82.9285
-82.9301
-82.9324
-82.9352
-82.9385
-82.942
-82.9455
-82.9487
-82.9511
-82.9521
-82.9509
-82.9463
-82.9369
-82.9201
-82.8921
-82.8472
-82.7781
-82.6751
-82.5264
-82.3142
-81.9767
-81.3692
-80.6875
-81.8596
-81.8598
-81.8616
-81.8641
-81.8671
-81.8706
-81.8744
-81.8783
-81.8819
-81.8848
-81.8864
-81.8858
-81.8822
-81.8738
-81.8584
-81.8326
-81.7913
-81.7283
-81.6363
-81.5073
-81.3317
-81.0895
-80.802
-80.7837
-80.786
-80.7862
-80.7881
-80.7908
-80.7941
-80.798
-80.8023
-80.8068
-80.8111
-80.8149
-80.8176
-80.8184
-80.8163
-80.8098
-80.7969
-80.7743
-80.7374
-80.6801
-80.5957
-80.4762
-80.3117
-80.0847
-79.7765
-79.485
-79.7069
-79.7072
-79.7093
-79.7123
-79.7161
-79.7205
-79.7254
-79.7306
-79.7359
-79.7409
-79.745
-79.7475
-79.7475
-79.7438
-79.7343
-79.7159
-79.6844
-79.6344
-79.5593
-79.4518
-79.3026
-79.0944
-78.7866
-78.4868
-78.6229
-78.6232
-78.6254
-78.6287
-78.6328
-78.6377
-78.6433
-78.6494
-78.6557
-78.6619
-78.6675
-78.6719
-78.6741
-78.673
-78.6667
-78.6522
-78.6252
-78.5802
-78.5102
-78.4062
-78.2567
-78.0491
-77.746
-77.0834
-77.5323
-77.5327
-77.5353
-77.539
-77.5435
-77.549
-77.5553
-77.5622
-77.5696
-77.5771
-77.5844
-77.5907
-77.5954
-77.5972
-77.5946
-77.5847
-77.5637
-77.5264
-77.467
-77.3785
-77.2516
-77.0717
-76.8386
-76.8257
-76.4368
-76.4371
-76.4397
-76.4435
-76.4484
-76.4542
-76.4611
-76.4687
-76.477
-76.4856
-76.4942
-76.5023
-76.509
-76.5134
-76.5139
-76.5078
-76.4913
-76.4593
-76.4057
-76.3227
-76.2003
-76.0283
-75.8086
-75.5267
-75.3336
-75.3341
-75.337
-75.3411
-75.3464
-75.3527
-75.36
-75.3683
-75.3774
-75.387
-75.3968
-75.4063
-75.4149
-75.4215
-75.4248
-75.4221
-75.4098
-75.3828
-75.335
-75.2591
-75.1459
-74.9871
-74.7735
-74.4502
-74.2264
-74.2266
-74.2295
-74.2336
-74.239
-74.2455
-74.2531
-74.2617
-74.2713
-74.2815
-74.2922
-74.3028
-74.3127
-74.321
-74.3263
-74.3262
-74.3172
-74.294
-74.2507
-74.1795
-74.0719
-73.9174
-73.7011
-73.3861
-73.1117
-73.1121
-73.1153
-73.1197
-73.1253
-73.1321
-73.1401
-73.1491
-73.1591
-73.1699
-73.1812
-73.1926
-73.2035
-73.213
-73.2198
-73.2217
-73.215
-73.1947
-73.1546
-73.0873
-72.983
-72.83
-72.613
-72.3149
-71.9943
-71.9949
-71.9981
-72.0026
-72.0083
-72.0152
-72.0233
-72.0325
-72.0427
-72.0538
-72.0654
-72.0772
-72.0887
-72.0991
-72.107
-72.1104
-72.1058
-72.0883
-72.0516
-71.9885
-71.8904
-71.7464
-71.5396
-71.2516
-70.8749
-70.8752
-70.8783
-70.8828
-70.8885
-70.8954
-70.9035
-70.9127
-70.923
-70.9342
-70.946
-70.9581
-70.97
-70.9808
-70.9895
-70.9939
-70.9907
-70.975
-70.941
-70.8813
-70.787
-70.6451
-70.4312
-70.1333
-69.7521
-69.7529
-69.7564
-69.7611
-69.767
-69.7741
-69.7823
-69.7916
-69.802
-69.8132
-69.825
-69.8372
-69.8491
-69.8602
-69.8693
-69.8745
-69.8725
-69.8588
-69.8274
-69.7713
-69.6819
-69.5446
-69.3312
-69.083
-68.6346
-68.6347
-68.6375
-68.6418
-68.6474
-68.6541
-68.6621
-68.6712
-68.6812
-68.6922
-68.7039
-68.7159
-68.7279
-68.739
-68.7483
-68.7537
-68.7525
-68.74
-68.7103
-68.6564
-68.5692
-68.435
-68.2354
-67.9915
-67.5126
-67.5132
-67.5165
-67.5211
-67.5269
-67.5339
-67.542
-67.5512
-67.5613
-67.5723
-67.584
-67.596
-67.6079
-67.619
-67.6282
-67.6341
-67.6336
-67.6224
-67.5952
-67.5448
-67.4632
-67.3419
-67.1719
-66.9302
-66.3963
-66.3968
-66.4002
-66.4048
-66.4106
-66.4176
-66.4255
-66.4346
-66.4446
-66.4556
-66.4671
-66.479
-66.4907
-66.5018
-66.5112
-66.5172
-66.5171
-66.507
-66.4808
-66.4318
-66.3519
-66.2305
-66.0523
-65.7729
-65.2845
-65.2848
-65.2879
-65.2924
-65.298
-65.3048
-65.3128
-65.3218
-65.3318
-65.3426
-65.3542
-65.3661
-65.378
-65.3892
-65.3989
-65.4053
-65.4062
-65.3974
-65.3741
-65.3302
-65.2582
-65.1459
-64.9732
-64.7911
-64.1748
-64.1753
-64.1785
-64.1832
-64.189
-64.1959
-64.2039
-64.213
-64.2231
-64.2341
-64.2457
-64.2577
-64.2697
-64.2811
-64.2911
-64.2982
-64.3
-64.2927
-64.2715
-64.23
-64.1606
-64.0547
-63.9061
-63.6884
-63.0721
-63.0724
-63.0755
-63.08
-63.0856
-63.0924
-63.1003
-63.1094
-63.1195
-63.1305
-63.1423
-63.1545
-63.1668
-63.1787
-63.1893
-63.1972
-63.2003
-63.1952
-63.1768
-63.14
-63.0782
-62.986
-62.8573
-62.6577
-61.9713
-61.9716
-61.9748
-61.9794
-61.9852
-61.9921
-62.0003
-62.0095
-62.0199
-62.0312
-62.0432
-62.0558
-62.0687
-62.081
-62.0923
-62.1012
-62.1055
-62.102
-62.0862
-62.0525
-61.9947
-61.9059
-61.7773
-61.5849
-60.8744
-60.8751
-60.8787
-60.8836
-60.8897
-60.8969
-60.9053
-60.9148
-60.9254
-60.937
-60.9494
-60.9625
-60.9757
-60.9886
-61.0007
-61.0105
-61.016
-61.0141
-61.0001
-60.9684
-60.9123
-60.8226
-60.688
-60.4826
-59.7869
-59.7869
-59.7899
-59.7944
-59.8001
-59.8071
-59.8154
-59.8249
-59.8356
-59.8474
-59.8601
-59.8736
-59.8875
-59.9013
-59.9144
-59.9254
-59.9328
-59.9333
-59.9227
-59.8963
-59.8485
-59.7692
-59.6421
-59.5343
-58.697
-58.6974
-58.7008
-58.7057
-58.7118
-58.7193
-58.728
-58.7379
-58.7491
-58.7613
-58.7747
-58.7888
-58.8035
-58.818
-58.832
-58.8444
-58.8531
-58.8553
-58.8467
-58.8221
-58.7747
-58.6973
-58.5851
-58.3928
-57.6122
-57.613
-57.6167
-57.6218
-57.6281
-57.6358
-57.6448
-57.6551
-57.6666
-57.6793
-57.6932
-57.7078
-57.7232
-57.7389
-57.7542
-57.768
-57.7788
-57.7837
-57.7786
-57.7587
-57.7186
-57.6533
-57.5564
-57.4044
-56.5338
-56.5339
-56.5372
-56.5421
-56.5484
-56.556
-56.5651
-56.5755
-56.5873
-56.6004
-56.6147
-56.6301
-56.6464
-56.6629
-56.6792
-56.6945
-56.707
-56.7139
-56.7116
-56.6949
-56.6585
-56.5943
-56.487
-56.3183
-55.4537
-55.4545
-55.4582
-55.4634
-55.47
-55.478
-55.4874
-55.4982
-55.5105
-55.5241
-55.539
-55.555
-55.5719
-55.5895
-55.6071
-55.6239
-55.6381
-55.6473
-55.6476
-55.6344
-55.6023
-55.5426
-55.4375
-55.2896
-54.3808
-54.3809
-54.3842
-54.3891
-54.3956
-54.4034
-54.4128
-54.4238
-54.4362
-54.4501
-54.4654
-54.4821
-54.4998
-54.5183
-54.5369
-54.5549
-54.5709
-54.5822
-54.5851
-54.575
-54.5467
-54.4931
-54.3989
-54.2267
-53.3044
-53.305
-53.3087
-53.314
-53.3209
-53.3291
-53.339
-53.3503
-53.3632
-53.3776
-53.3934
-53.4107
-53.4292
-53.4485
-53.4682
-53.4876
-53.5052
-53.5184
-53.524
-53.5172
-53.4932
-53.4457
-53.3589
-53.2195
-52.2327
-52.2332
-52.237
-52.2424
-52.2493
-52.2577
-52.2676
-52.2792
-52.2923
-52.307
-52.3233
-52.3411
-52.3601
-52.3802
-52.4009
-52.4214
-52.4404
-52.4556
-52.463
-52.4584
-52.4369
-52.3939
-52.3159
-52.0999
-51.1631
-51.1635
-51.1672
-51.1726
-51.1795
-51.1879
-51.198
-51.2097
-51.223
-51.238
-51.2547
-51.2729
-51.2926
-51.3134
-51.335
-51.3565
-51.3769
-51.3938
-51.4042
-51.4039
-51.3882
-51.35
-51.2853
-51.3235
-50.0939
-50.0944
-50.0983
-50.1039
-50.1109
-50.1196
-50.1298
-50.1417
-50.1554
-50.1707
-50.1876
-50.2062
-50.2261
-50.2473
-50.2694
-50.2916
-50.3125
-50.3298
-50.3397
-50.3368
-50.3152
-50.27
-50.1816
-49.8536
-49.0284
-49.0288
-49.0326
-49.0381
-49.0451
-49.0537
-49.0641
-49.0761
-49.0898
-49.1052
-49.1225
-49.1415
-49.1619
-49.1838
-49.2065
-49.2294
-49.2515
-49.2704
-49.2826
-49.2836
-49.2686
-49.2317
-49.1474
-48.9899
-47.9628
-47.9632
-47.9671
-47.9727
-47.9799
-47.9888
-47.9993
-48.0116
-48.0257
-48.0416
-48.0592
-48.0786
-48.0997
-48.122
-48.1455
-48.1694
-48.1924
-48.2123
-48.2259
-48.2279
-48.2127
-48.1727
-48.0836
-47.8559
-46.8979
-46.8986
-46.9028
-46.9088
-46.9163
-46.9255
-46.9363
-46.949
-46.9635
-46.9798
-46.998
-47.018
-47.0397
-47.063
-47.0876
-47.1128
-47.1377
-47.1605
-47.178
-47.1865
-47.1818
-47.1595
-47.1276
-47.1955
-45.8371
-45.8375
-45.8415
-45.8474
-45.8549
-45.8641
-45.8752
-45.8881
-45.9029
-45.9195
-45.9382
-45.9587
-45.9812
-46.0053
-46.0307
-46.0569
-46.0829
-46.1067
-46.1252
-46.1335
-46.1257
-46.0955
-46.0393
-45.9054
-44.7752
-44.7758
-44.7801
-44.7862
-44.794
-44.8035
-44.8149
-44.8281
-44.8433
-44.8604
-44.8796
-44.9009
-44.924
-44.9489
-44.9754
-45.0029
-45.0305
-45.0563
-45.0775
-45.0901
-45.0895
-45.0716
-45.0238
-44.9235
-43.7162
-43.7167
-43.7208
-43.7269
-43.7346
-43.7443
-43.7558
-43.7692
-43.7847
-43.8023
-43.8221
-43.8439
-43.8677
-43.8936
-43.9211
-43.9495
-43.9781
-44.005
-44.0267
-44.0383
-44.0338
-44.0068
-43.939
-43.6746
-42.6552
-42.6557
-42.6601
-42.6664
-42.6745
-42.6844
-42.6963
-42.7102
-42.7262
-42.7444
-42.7648
-42.7876
-42.8125
-42.8394
-42.8681
-42.8985
-42.9293
-42.959
-42.9851
-43.0037
-43.0101
-42.9976
-42.9657
-43.0464
-41.5942
-41.5951
-41.5998
-41.6064
-41.6148
-41.6251
-41.6374
-41.6517
-41.6682
-41.687
-41.708
-41.7315
-41.7572
-41.7853
-41.8154
-41.8472
-41.8799
-41.912
-41.9406
-41.9618
-41.9715
-41.9704
-41.9603
-41.8148
-40.537
-40.5372
-40.5415
-40.5479
-40.5562
-40.5664
-40.5787
-40.5933
-40.6101
-40.6292
-40.6508
-40.6749
-40.7016
-40.7307
-40.762
-40.7953
-40.8298
-40.864
-40.8953
-40.9195
-40.9323
-40.93
-40.9064
-40.8249
-39.4741
-39.4748
-39.4796
-39.4864
-39.4951
-39.5058
-39.5186
-39.5336
-39.5509
-39.5706
-39.5928
-39.6176
-39.645
-39.6749
-39.7073
-39.7418
-39.7777
-39.8136
-39.8471
-39.8745
-39.8915
-39.8925
-39.859
-39.7936
-38.4139
-38.4146
-38.4194
-38.4263
-38.4351
-38.4459
-38.4589
-38.4741
-38.4917
-38.5118
-38.5345
-38.5597
-38.5877
-38.6184
-38.6515
-38.6867
-38.7233
-38.7599
-38.7933
-38.8187
-38.8296
-38.8194
-38.7669
-38.4891
-37.3532
-37.3537
-37.3585
-37.3654
-37.3744
-37.3854
-37.3986
-37.4141
-37.4321
-37.4526
-37.4758
-37.5018
-37.5305
-37.562
-37.5961
-37.6327
-37.671
-37.7099
-37.7472
-37.7792
-37.8016
-37.8085
-37.7981
-37.8795
-36.2906
-36.2915
-36.2967
-36.3039
-36.3131
-36.3245
-36.338
-36.3539
-36.3724
-36.3933
-36.417
-36.4435
-36.4729
-36.5051
-36.5402
-36.5778
-36.6174
-36.6578
-36.6967
-36.7303
-36.7547
-36.7699
-36.7727
-36.6279
-35.2317
-35.232
-35.2369
-35.2439
-35.253
-35.2644
-35.278
-35.294
-35.3126
-35.3338
-35.358
-35.385
-35.415
-35.4481
-35.4839
-35.5225
-35.5633
-35.6051
-35.6457
-35.6816
-35.7085
-35.721
-35.7053
-35.6543
-34.168
-34.1687
-34.174
-34.1814
-34.1909
-34.2026
-34.2166
-34.233
-34.2521
-34.2738
-34.2984
-34.3261
-34.3567
-34.3903
-34.427
-34.4665
-34.5082
-34.5511
-34.593
-34.6304
-34.6585
-34.6709
-34.6543
-34.5964
-33.1068
-33.1076
-33.1129
-33.1205
-33.1301
-33.142
-33.1561
-33.1728
-33.1921
-33.2143
-33.2393
-33.2674
-33.2986
-33.333
-33.3704
-33.4107
-33.4535
-33.4976
-33.5407
-33.5796
-33.6098
-33.626
-33.6183
-33.5681
-32.0469
-32.0474
-32.0527
-32.0602
-32.0699
-32.0817
-32.0961
-32.1129
-32.1325
-32.1549
-32.1804
-32.209
-32.2408
-32.2759
-32.3141
-32.3553
-32.3991
-32.4443
-32.4891
-32.5301
-32.5629
-32.5814
-32.5745
-32.5325
-30.9863
-30.987
-30.9924
-31.0001
-31.01
-31.022
-31.0365
-31.0536
-31.0734
-31.0962
-31.1219
-31.151
-31.1832
-31.2189
-31.2579
-31.3002
-31.3452
-31.392
-31.4387
-31.4824
-31.5187
-31.5378
-31.5197
-31.5168
-29.9284
-29.929
-29.9344
-29.942
-29.9518
-29.9639
-29.9784
-29.9955
-30.0155
-30.0384
-30.0644
-30.0936
-30.1263
-30.1626
-30.2023
-30.2453
-30.2914
-30.3397
-30.3884
-30.4352
-30.4758
-30.4979
-30.4843
-30.6447
-28.8705
-28.8711
-28.8766
-28.8843
-28.8943
-28.9064
-28.9211
-28.9384
-28.9584
-28.9815
-29.0076
-29.0371
-29.07
-29.1063
-29.1462
-29.1896
-29.2359
-29.2844
-29.3331
-29.378
-29.4142
-29.4447
-29.4806
-29.3094
-27.8146
-27.8155
-27.8213
-27.8293
-27.8393
-27.8517
-27.8665
-27.8839
-27.904
-27.9271
-27.9533
-27.9828
-28.0156
-28.052
-28.0919
-28.1352
-28.1817
-28.2303
-28.2792
-28.3245
-28.3618
-28.3924
-28.4171
-28.2974
-26.7655
-26.7659
-26.7712
-26.7788
-26.7887
-26.8007
-26.8154
-26.8326
-26.8527
-26.8756
-26.9018
-26.9312
-26.9641
-27.0005
-27.0404
-27.0836
-27.1299
-27.1784
-27.227
-27.2721
-27.3087
-27.3323
-27.3311
-27.2116
-25.7151
-25.7157
-25.7214
-25.7293
-25.7394
-25.7518
-25.7666
-25.7841
-25.8042
-25.8274
-25.8537
-25.8833
-25.9163
-25.9528
-25.9928
-26.0362
-26.0828
-26.1317
-26.1814
-26.2291
-26.2696
-26.2954
-26.3084
-26.4334
-24.6698
-24.6707
-24.6766
-24.6846
-24.6948
-24.7073
-24.7223
-24.7398
-24.7601
-24.7834
-24.8098
-24.8395
-24.8726
-24.9093
-24.9495
-24.9931
-25.0398
-25.0889
-25.1383
-25.1847
-25.2221
-25.2444
-25.256
-25.236
-23.6309
-23.6313
-23.637
-23.6449
-23.655
-23.6674
-23.6823
-23.6999
-23.7203
-23.7437
-23.7702
-23.8002
-23.8337
-23.8706
-23.9112
-23.9554
-24.003
-24.0532
-24.1046
-24.1547
-24.1996
-24.2356
-24.2616
-24.2976
-22.593
-22.5939
-22.5998
-22.608
-22.6182
-22.6309
-22.646
-22.6638
-22.6845
-22.7081
-22.7349
-22.765
-22.7987
-22.836
-22.8771
-22.9219
-22.9699
-23.0206
-23.0726
-23.1225
-23.1659
-23.1989
-23.2242
-23.2103
-21.5627
-21.5632
-21.5688
-21.5767
-21.5869
-21.5994
-21.6146
-21.6324
-21.653
-21.6768
-21.7038
-21.7343
-21.7683
-21.8061
-21.8476
-21.8928
-21.9417
-21.9935
-22.0467
-22.0987
-22.1452
-22.1817
-22.2068
-22.2101
-20.5325
-20.5333
-20.5393
-20.5475
-20.558
-20.5708
-20.5862
-20.6043
-20.6253
-20.6493
-20.6766
-20.7074
-20.7419
-20.78
-20.822
-20.8678
-20.9172
-20.9697
-21.0239
-21.077
-21.1244
-21.1611
-21.1833
-21.1811
-19.5085