# Forces     
# CofR       : (0.000000e+00 0.000000e+00 0.000000e+00)
# Time       forces(pressure viscous porous) moment(pressure viscous porous)
5.000000e+00	((-7.329283e+01 -2.939618e+02 -2.839739e-18) (3.366994e-01 -7.943027e-02 -3.141811e-20) (0.000000e+00 0.000000e+00 0.000000e+00)) ((1.469809e+01 -3.664642e+00 -8.423540e+01) (3.971513e-03 1.683497e-02 1.457295e-03) (0.000000e+00 0.000000e+00 0.000000e+00))
1.000000e+01	((-1.557383e+01 -6.246334e+01 -1.921537e-18) (2.865439e-01 -1.197932e-01 2.392324e-20) (0.000000e+00 0.000000e+00 0.000000e+00)) ((3.123167e+00 -7.786916e-01 -2.651352e+01) (5.989660e-03 1.432720e-02 -1.369677e-02) (0.000000e+00 0.000000e+00 0.000000e+00))
1.500000e+01	((9.173206e+00 3.679172e+01 7.742075e-19) (2.459773e-01 -7.789299e-02 9.272087e-21) (0.000000e+00 0.000000e+00 0.000000e+00)) ((-1.839586e+00 4.586603e-01 6.099265e+00) (3.894650e-03 1.229887e-02 -5.257631e-03) (0.000000e+00 0.000000e+00 0.000000e+00))
2.000000e+01	((5.377089e+00 2.156633e+01 8.329244e-19) (2.180369e-01 -5.704244e-02 -1.249802e-20) (0.000000e+00 0.000000e+00 0.000000e+00)) ((-1.078316e+00 2.688545e-01 1.881555e+00) (2.852122e-03 1.090184e-02 -1.240713e-03) (0.000000e+00 0.000000e+00 0.000000e+00))
2.500000e+01	((4.722456e+00 1.894073e+01 7.790048e-19) (1.967225e-01 -4.874372e-02 -1.409063e-20) (0.000000e+00 0.000000e+00 0.000000e+00)) ((-9.470363e-01 2.361228e-01 -5.811170e-01) (2.437186e-03 9.836124e-03 -2.555039e-04) (0.000000e+00 0.000000e+00 0.000000e+00))
3.000000e+01	((6.728255e+00 2.698555e+01 8.232635e-19) (1.755043e-01 -4.310910e-02 -8.802669e-21) (0.000000e+00 0.000000e+00 0.000000e+00)) ((-1.349277e+00 3.364128e-01 1.822937e+00) (2.155455e-03 8.775217e-03 -5.174372e-05) (0.000000e+00 0.000000e+00 0.000000e+00))
3.500000e+01	((6.745210e+00 2.705355e+01 7.257747e-19) (1.567650e-01 -3.860009e-02 -7.154425e-21) (0.000000e+00 0.000000e+00 0.000000e+00)) ((-1.352678e+00 3.372605e-01 1.754047e+00) (1.930005e-03 7.838252e-03 -5.762776e-06) (0.000000e+00 0.000000e+00 0.000000e+00))
4.000000e+01	((6.917195e+00 2.774335e+01 6.817557e-19) (1.405355e-01 -3.476054e-02 -1.049313e-20) (0.000000e+00 0.000000e+00 0.000000e+00)) ((-1.387168e+00 3.458598e-01 1.185330e+00) (1.738027e-03 7.026774e-03 -4.445277e-05) (0.000000e+00 0.000000e+00 0.000000e+00))
4.500000e+01	((7.560762e+00 3.032455e+01 4.983195e-19) (1.244030e-01 -3.078382e-02 -8.141320e-21) (0.000000e+00 0.000000e+00 0.000000e+00)) ((-1.516228e+00 3.780381e-01 1.619916e+00) (1.539191e-03 6.220149e-03 -6.684500e-05) (0.000000e+00 0.000000e+00 0.000000e+00))
5.000000e+01	((7.643116e+00 3.065486e+01 3.661152e-19) (1.095884e-01 -2.708391e-02 -5.935600e-21) (0.000000e+00 0.000000e+00 0.000000e+00)) ((-1.532743e+00 3.821558e-01 1.364043e+00) (1.354195e-03 5.479419e-03 -6.644037e-05) (0.000000e+00 0.000000e+00 0.000000e+00))
5.500000e+01	((7.928201e+00 3.179827e+01 1.565548e-19) (9.583658e-02 -2.366048e-02 3.540145e-21) (0.000000e+00 0.000000e+00 0.000000e+00)) ((-1.589914e+00 3.964101e-01 1.268416e+00) (1.183024e-03 4.791829e-03 -7.272172e-05) (0.000000e+00 0.000000e+00 0.000000e+00))
6.000000e+01	((8.051989e+00 3.229476e+01 -6.849344e-20) (8.347641e-02 -2.053747e-02 2.508440e-20) (0.000000e+00 0.000000e+00 0.000000e+00)) ((-1.614738e+00 4.025994e-01 1.218753e+00) (1.026873e-03 4.173820e-03 -7.837515e-05) (0.000000e+00 0.000000e+00 0.000000e+00))
6.500000e+01	((8.168659e+00 3.276270e+01 -2.328039e-19) (7.277932e-02 -1.785970e-02 3.663286e-20) (0.000000e+00 0.000000e+00 0.000000e+00)) ((-1.638135e+00 4.084330e-01 1.138457e+00) (8.929848e-04 3.638966e-03 -8.749518e-05) (0.000000e+00 0.000000e+00 0.000000e+00))
7.000000e+01	((8.267382e+00 3.315865e+01 -4.650328e-19) (6.372422e-02 -1.557781e-02 4.094683e-20) (0.000000e+00 0.000000e+00 0.000000e+00)) ((-1.657933e+00 4.133691e-01 1.136399e+00) (7.788904e-04 3.186211e-03 -9.625464e-05) (0.000000e+00 0.000000e+00 0.000000e+00))
7.500000e+01	((8.313161e+00 3.334226e+01 -6.454366e-19) (5.626646e-02 -1.373011e-02 2.780174e-20) (0.000000e+00 0.000000e+00 0.000000e+00)) ((-1.667113e+00 4.156580e-01 1.113607e+00) (6.865053e-04 2.813323e-03 -1.013494e-04) (0.000000e+00 0.000000e+00 0.000000e+00))
8.000000e+01	((8.388473e+00 3.364432e+01 -8.130496e-19) (5.013747e-02 -1.219597e-02 3.223843e-20) (0.000000e+00 0.000000e+00 0.000000e+00)) ((-1.682216e+00 4.194236e-01 1.158000e+00) (6.097983e-04 2.506874e-03 -1.091225e-04) (0.000000e+00 0.000000e+00 0.000000e+00))
8.500000e+01	((8.432257e+00 3.381994e+01 -9.817442e-19) (4.507236e-02 -1.094330e-02 3.228303e-20) (0.000000e+00 0.000000e+00 0.000000e+00)) ((-1.690997e+00 4.216129e-01 1.221184e+00) (5.471649e-04 2.253618e-03 -1.129022e-04) (0.000000e+00 0.000000e+00 0.000000e+00))
9.000000e+01	((8.514532e+00 3.414992e+01 -1.077840e-18) (4.072339e-02 -9.861554e-03 3.547004e-20) (0.000000e+00 0.000000e+00 0.000000e+00)) ((-1.707496e+00 4.257266e-01 1.330543e+00) (4.930777e-04 2.036169e-03 -1.179229e-04) (0.000000e+00 0.000000e+00 0.000000e+00))
9.500000e+01	((8.596496e+00 3.447866e+01 -1.203027e-18) (3.698085e-02 -8.937467e-03 3.785123e-20) (0.000000e+00 0.000000e+00 0.000000e+00)) ((-1.723933e+00 4.298248e-01 1.483325e+00) (4.468734e-04 1.849043e-03 -1.203504e-04) (0.000000e+00 0.000000e+00 0.000000e+00))
1.000000e+02	((8.696478e+00 3.487967e+01 -1.246620e-18) (3.365847e-02 -8.107764e-03 3.793000e-20) (0.000000e+00 0.000000e+00 0.000000e+00)) ((-1.743983e+00 4.348239e-01 1.677932e+00) (4.053882e-04 1.682923e-03 -1.246459e-04) (0.000000e+00 0.000000e+00 0.000000e+00))
1.050000e+02	((8.829228e+00 3.541210e+01 -1.148729e-18) (3.061088e-02 -7.353711e-03 3.411914e-20) (0.000000e+00 0.000000e+00 0.000000e+00)) ((-1.770605e+00 4.414614e-01 1.930193e+00) (3.676855e-04 1.530544e-03 -1.273053e-04) (0.000000e+00 0.000000e+00 0.000000e+00))
1.100000e+02	((8.976940e+00 3.600454e+01 -9.615005e-19) (2.774615e-02 -6.636893e-03 2.879922e-20) (0.000000e+00 0.000000e+00 0.000000e+00)) ((-1.800227e+00 4.488470e-01 2.252364e+00) (3.318446e-04 1.387308e-03 -1.316713e-04) (0.000000e+00 0.000000e+00 0.000000e+00))
1.150000e+02	((9.135617e+00 3.664096e+01 -6.757203e-19) (2.499633e-02 -5.956580e-03 2.097022e-20) (0.000000e+00 0.000000e+00 0.000000e+00)) ((-1.832048e+00 4.567808e-01 2.594313e+00) (2.978290e-04 1.249816e-03 -1.337492e-04) (0.000000e+00 0.000000e+00 0.000000e+00))
1.200000e+02	((9.301748e+00 3.730727e+01 -3.041031e-19) (2.234622e-02 -5.293826e-03 1.202050e-20) (0.000000e+00 0.000000e+00 0.000000e+00)) ((-1.865364e+00 4.650874e-01 2.976439e+00) (2.646913e-04 1.117311e-03 -1.381614e-04) (0.000000e+00 0.000000e+00 0.000000e+00))
1.250000e+02	((9.485947e+00 3.804606e+01 1.127209e-19) (1.977704e-02 -4.661830e-03 2.607935e-21) (0.000000e+00 0.000000e+00 0.000000e+00)) ((-1.902303e+00 4.742974e-01 3.434029e+00) (2.330915e-04 9.888520e-04 -1.407872e-04) (0.000000e+00 0.000000e+00 0.000000e+00))
1.300000e+02	((9.671116e+00 3.878873e+01 5.387647e-19) (1.730127e-02 -4.044750e-03 -6.116211e-21) (0.000000e+00 0.000000e+00 0.000000e+00)) ((-1.939436e+00 4.835558e-01 3.909281e+00) (2.022375e-04 8.650635e-04 -1.466097e-04) (0.000000e+00 0.000000e+00 0.000000e+00))
1.350000e+02	((9.865777e+00 3.956947e+01 9.495308e-19) (1.490317e-02 -3.461062e-03 -1.404987e-20) (0.000000e+00 0.000000e+00 0.000000e+00)) ((-1.978474e+00 4.932889e-01 4.437064e+00) (1.730531e-04 7.451587e-04 -1.528197e-04) (0.000000e+00 0.000000e+00 0.000000e+00))
1.400000e+02	((1.005281e+01 4.031961e+01 1.310230e-18) (1.263591e-02 -2.899607e-03 -2.015566e-20) (0.000000e+00 0.000000e+00 0.000000e+00)) ((-2.015981e+00 5.026404e-01 4.983969e+00) (1.449803e-04 6.317955e-04 -1.611273e-04) (0.000000e+00 0.000000e+00 0.000000e+00))
1.450000e+02	((1.023107e+01 4.103460e+01 1.613870e-18) (1.059916e-02 -2.408140e-03 -2.525544e-20) (0.000000e+00 0.000000e+00 0.000000e+00)) ((-2.051730e+00 5.115537e-01 5.530414e+00) (1.204070e-04 5.299578e-04 -1.683752e-04) (0.000000e+00 0.000000e+00 0.000000e+00))
1.500000e+02	((1.035638e+01 4.153716e+01 1.818594e-18) (8.919277e-03 -1.993861e-03 -2.791686e-20) (0.000000e+00 0.000000e+00 0.000000e+00)) ((-2.076858e+00 5.178188e-01 6.005555e+00) (9.969305e-05 4.459639e-04 -1.752476e-04) (0.000000e+00 0.000000e+00 0.000000e+00))
1.550000e+02	((1.046388e+01 4.196834e+01 1.983732e-18) (7.592436e-03 -1.676946e-03 -3.020007e-20) (0.000000e+00 0.000000e+00 0.000000e+00)) ((-2.098417e+00 5.231940e-01 6.466352e+00) (8.384728e-05 3.796218e-04 -1.791660e-04) (0.000000e+00 0.000000e+00 0.000000e+00))
1.600000e+02	((1.050342e+01 4.212692e+01 2.061081e-18) (6.881544e-03 -1.500100e-03 -3.034879e-20) (0.000000e+00 0.000000e+00 0.000000e+00)) ((-2.106346e+00 5.251709e-01 6.830879e+00) (7.500498e-05 3.440772e-04 -1.831773e-04) (0.000000e+00 0.000000e+00 0.000000e+00))
1.650000e+02	((1.049852e+01 4.210726e+01 2.132701e-18) (6.840845e-03 -1.498201e-03 -3.125567e-20) (0.000000e+00 0.000000e+00 0.000000e+00)) ((-2.105363e+00 5.249259e-01 7.127521e+00) (7.491006e-05 3.420422e-04 -1.832875e-04) (0.000000e+00 0.000000e+00 0.000000e+00))
1.700000e+02	((1.039757e+01 4.170239e+01 2.153762e-18) (7.614162e-03 -1.684759e-03 -3.087605e-20) (0.000000e+00 0.000000e+00 0.000000e+00)) ((-2.085119e+00 5.198785e-01 7.316181e+00) (8.423797e-05 3.807081e-04 -1.802861e-04) (0.000000e+00 0.000000e+00 0.000000e+00))
1.750000e+02	((1.023445e+01 4.104816e+01 2.147655e-18) (9.187002e-03 -2.077472e-03 -3.034620e-20) (0.000000e+00 0.000000e+00 0.000000e+00)) ((-2.052408e+00 5.117227e-01 7.382367e+00) (1.038736e-04 4.593501e-04 -1.735662e-04) (0.000000e+00 0.000000e+00 0.000000e+00))
1.800000e+02	((9.996506e+00 4.009380e+01 2.139154e-18) (1.169280e-02 -2.685311e-03 -2.985274e-20) (0.000000e+00 0.000000e+00 0.000000e+00)) ((-2.004690e+00 4.998253e-01 7.346180e+00) (1.342656e-04 5.846401e-04 -1.648567e-04) (0.000000e+00 0.000000e+00 0.000000e+00))
1.850000e+02	((9.666676e+00 3.877093e+01 2.131892e-18) (1.496384e-02 -3.503296e-03 -2.993838e-20) (0.000000e+00 0.000000e+00 0.000000e+00)) ((-1.938546e+00 4.833338e-01 7.200209e+00) (1.751648e-04 7.481919e-04 -1.610811e-04) (0.000000e+00 0.000000e+00 0.000000e+00))
1.900000e+02	((9.266912e+00 3.716756e+01 2.087226e-18) (1.891183e-02 -4.485277e-03 -2.885346e-20) (0.000000e+00 0.000000e+00 0.000000e+00)) ((-1.858378e+00 4.633456e-01 6.975924e+00) (2.242639e-04 9.455917e-04 -1.543521e-04) (0.000000e+00 0.000000e+00 0.000000e+00))
1.950000e+02	((8.814002e+00 3.535104e+01 2.077281e-18) (2.339499e-02 -5.622072e-03 -2.926257e-20) (0.000000e+00 0.000000e+00 0.000000e+00)) ((-1.767552e+00 4.407001e-01 6.686456e+00) (2.811036e-04 1.169750e-03 -1.568413e-04) (0.000000e+00 0.000000e+00 0.000000e+00))
2.000000e+02	((8.354704e+00 3.350889e+01 2.018188e-18) (2.838824e-02 -6.855880e-03 -2.776736e-20) (0.000000e+00 0.000000e+00 0.000000e+00)) ((-1.675445e+00 4.177352e-01 6.374012e+00) (3.427940e-04 1.419412e-03 -1.478682e-04) (0.000000e+00 0.000000e+00 0.000000e+00))
2.050000e+02	((7.789743e+00 3.124296e+01 2.007198e-18) (3.373531e-02 -8.205308e-03 -2.850729e-20) (0.000000e+00 0.000000e+00 0.000000e+00)) ((-1.562148e+00 3.894871e-01 5.970740e+00) (4.102654e-04 1.686766e-03 -1.458889e-04) (0.000000e+00 0.000000e+00 0.000000e+00))
2.100000e+02	((7.255166e+00 2.909889e+01 1.949495e-18) (3.933066e-02 -9.595242e-03 -2.732123e-20) (0.000000e+00 0.000000e+00 0.000000e+00)) ((-1.454944e+00 3.627583e-01 5.592451e+00) (4.797621e-04 1.966533e-03 -1.376295e-04) (0.000000e+00 0.000000e+00 0.000000e+00))
2.150000e+02	((6.737597e+00 2.702303e+01 1.887619e-18) (4.509913e-02 -1.104996e-02 -2.584680e-20) (0.000000e+00 0.000000e+00 0.000000e+00)) ((-1.351151e+00 3.368798e-01 5.222180e+00) (5.524979e-04 2.254956e-03 -1.339175e-04) (0.000000e+00 0.000000e+00 0.000000e+00))
2.200000e+02	((6.192535e+00 2.483691e+01 1.857671e-18) (5.092501e-02 -1.249901e-02 -2.599760e-20) (0.000000e+00 0.000000e+00 0.000000e+00)) ((-1.241845e+00 3.096268e-01 4.824795e+00) (6.249505e-04 2.546251e-03 -1.250606e-04) (0.000000e+00 0.000000e+00 0.000000e+00))
2.250000e+02	((5.716229e+00 2.292655e+01 1.778797e-18) (5.669650e-02 -1.395653e-02 -2.390568e-20) (0.000000e+00 0.000000e+00 0.000000e+00)) ((-1.146327e+00 2.858115e-01 4.482709e+00) (6.978267e-04 2.834825e-03 -1.216495e-04) (0.000000e+00 0.000000e+00 0.000000e+00))
2.300000e+02	((5.270586e+00 2.113917e+01 1.720936e-18) (6.232383e-02 -1.536228e-02 -2.274537e-20) (0.000000e+00 0.000000e+00 0.000000e+00)) ((-1.056959e+00 2.635293e-01 4.158854e+00) (7.681141e-04 3.116192e-03 -1.113822e-04) (0.000000e+00 0.000000e+00 0.000000e+00))
2.350000e+02	((4.871032e+00 1.953664e+01 1.650191e-18) (6.775242e-02 -1.671470e-02 -2.162878e-20) (0.000000e+00 0.000000e+00 0.000000e+00)) ((-9.768322e-01 2.435516e-01 3.860479e+00) (8.357350e-04 3.387621e-03 -1.020395e-04) (0.000000e+00 0.000000e+00 0.000000e+00))
2.400000e+02	((4.523603e+00 1.814319e+01 1.564327e-18) (7.293076e-02 -1.802105e-02 -1.960165e-20) (0.000000e+00 0.000000e+00 0.000000e+00)) ((-9.071593e-01 2.261802e-01 3.589263e+00) (9.010525e-04 3.646538e-03 -9.752255e-05) (0.000000e+00 0.000000e+00 0.000000e+00))
2.450000e+02	((4.240629e+00 1.700824e+01 1.482855e-18) (7.784414e-02 -1.924120e-02 -1.888842e-20) (0.000000e+00 0.000000e+00 0.000000e+00)) ((-8.504119e-01 2.120314e-01 3.345306e+00) (9.620598e-04 3.892207e-03 -1.012993e-04) (0.000000e+00 0.000000e+00 0.000000e+00))
2.500000e+02	((3.986428e+00 1.598869e+01 1.385241e-18) (8.249066e-02 -2.037725e-02 -1.676702e-20) (0.000000e+00 0.000000e+00 0.000000e+00)) ((-7.994346e-01 1.993214e-01 3.091426e+00) (1.018863e-03 4.124533e-03 -1.000111e-04) (0.000000e+00 0.000000e+00 0.000000e+00))
2.550000e+02	((3.761551e+00 1.508676e+01 1.269271e-18) (8.682916e-02 -2.143588e-02 -1.341790e-20) (0.000000e+00 0.000000e+00 0.000000e+00)) ((-7.543381e-01 1.880776e-01 2.823031e+00) (1.071794e-03 4.341458e-03 -1.016038e-04) (0.000000e+00 0.000000e+00 0.000000e+00))
2.600000e+02	((3.562850e+00 1.428981e+01 1.160081e-18) (9.076760e-02 -2.239794e-02 -1.172391e-20) (0.000000e+00 0.000000e+00 0.000000e+00)) ((-7.144907e-01 1.781425e-01 2.534425e+00) (1.119897e-03 4.538380e-03 -1.066530e-04) (0.000000e+00 0.000000e+00 0.000000e+00))
2.650000e+02	((3.420101e+00 1.371728e+01 1.069814e-18) (9.422275e-02 -2.324432e-02 -1.346357e-20) (0.000000e+00 0.000000e+00 0.000000e+00)) ((-6.858640e-01 1.710051e-01 2.267077e+00) (1.162216e-03 4.711137e-03 -1.069061e-04) (0.000000e+00 0.000000e+00 0.000000e+00))
2.700000e+02	((3.300344e+00 1.323696e+01 9.599673e-19) (9.715153e-02 -2.394376e-02 -1.832155e-20) (0.000000e+00 0.000000e+00 0.000000e+00)) ((-6.618480e-01 1.650172e-01 1.996075e+00) (1.197188e-03 4.857577e-03 -1.047872e-04) (0.000000e+00 0.000000e+00 0.000000e+00))
2.750000e+02	((3.211048e+00 1.287881e+01 8.503794e-19) (9.935006e-02 -2.448772e-02 -1.781824e-20) (0.000000e+00 0.000000e+00 0.000000e+00)) ((-6.439406e-01 1.605524e-01 1.724265e+00) (1.224386e-03 4.967503e-03 -1.000857e-04) (0.000000e+00 0.000000e+00 0.000000e+00))
2.800000e+02	((3.184224e+00 1.277123e+01 7.768527e-19) (1.009639e-01 -2.488101e-02 -1.417863e-20) (0.000000e+00 0.000000e+00 0.000000e+00)) ((-6.385613e-01 1.592112e-01 1.490983e+00) (1.244050e-03 5.048193e-03 -1.047295e-04) (0.000000e+00 0.000000e+00 0.000000e+00))
2.850000e+02	((3.200260e+00 1.283554e+01 7.060858e-19) (1.018298e-01 -2.511670e-02 -9.350283e-21) (0.000000e+00 0.000000e+00 0.000000e+00)) ((-6.417771e-01 1.600130e-01 1.298424e+00) (1.255835e-03 5.091488e-03 -1.075402e-04) (0.000000e+00 0.000000e+00 0.000000e+00))
2.900000e+02	((3.264981e+00 1.309513e+01 6.724007e-19) (1.020322e-01 -2.516191e-02 -7.039840e-21) (0.000000e+00 0.000000e+00 0.000000e+00)) ((-6.547563e-01 1.632491e-01 1.158623e+00) (1.258096e-03 5.101612e-03 -1.035780e-04) (0.000000e+00 0.000000e+00 0.000000e+00))
2.950000e+02	((3.385328e+00 1.357781e+01 6.469167e-19) (1.015411e-01 -2.506511e-02 -4.148140e-21) (0.000000e+00 0.000000e+00 0.000000e+00)) ((-6.788904e-01 1.692664e-01 1.078446e+00) (1.253256e-03 5.077057e-03 -1.005456e-04) (0.000000e+00 0.000000e+00 0.000000e+00))
3.000000e+02	((3.550267e+00 1.423934e+01 6.048007e-19) (1.005772e-01 -2.482789e-02 -3.418543e-21) (0.000000e+00 0.000000e+00 0.000000e+00)) ((-7.119671e-01 1.775133e-01 1.050246e+00) (1.241394e-03 5.028858e-03 -9.972968e-05) (0.000000e+00 0.000000e+00 0.000000e+00))
3.050000e+02	((3.751180e+00 1.504516e+01 5.967215e-19) (9.905291e-02 -2.447388e-02 -2.163643e-21) (0.000000e+00 0.000000e+00 0.000000e+00)) ((-7.522580e-01 1.875590e-01 1.075836e+00) (1.223694e-03 4.952645e-03 -9.388664e-05) (0.000000e+00 0.000000e+00 0.000000e+00))
3.100000e+02	((3.976021e+00 1.594695e+01 5.984223e-19) (9.717557e-02 -2.400359e-02 -3.053131e-21) (0.000000e+00 0.000000e+00 0.000000e+00)) ((-7.973474e-01 1.988010e-01 1.136487e+00) (1.200180e-03 4.858778e-03 -9.311398e-05) (0.000000e+00 0.000000e+00 0.000000e+00))
3.150000e+02	((4.237659e+00 1.699632e+01 5.762416e-19) (9.488124e-02 -2.343955e-02 -4.982765e-21) (0.000000e+00 0.000000e+00 0.000000e+00)) ((-8.498161e-01 2.118830e-01 1.234927e+00) (1.171978e-03 4.744062e-03 -9.124270e-05) (0.000000e+00 0.000000e+00 0.000000e+00))
3.200000e+02	((4.504450e+00 1.806636e+01 5.764831e-19) (9.236996e-02 -2.279820e-02 -4.884590e-21) (0.000000e+00 0.000000e+00 0.000000e+00)) ((-9.033181e-01 2.252225e-01 1.347725e+00) (1.139910e-03 4.618498e-03 -9.348801e-05) (0.000000e+00 0.000000e+00 0.000000e+00))
3.250000e+02	((4.775663e+00 1.915414e+01 5.716552e-19) (8.957632e-02 -2.211169e-02 -3.016725e-21) (0.000000e+00 0.000000e+00 0.000000e+00)) ((-9.577069e-01 2.387832e-01 1.470919e+00) (1.105585e-03 4.478816e-03 -8.910365e-05) (0.000000e+00 0.000000e+00 0.000000e+00))
3.300000e+02	((5.059125e+00 2.029104e+01 5.535443e-19) (8.670702e-02 -2.139194e-02 -3.431924e-21) (0.000000e+00 0.000000e+00 0.000000e+00)) ((-1.014552e+00 2.529562e-01 1.607279e+00) (1.069597e-03 4.335351e-03 -8.584004e-05) (0.000000e+00 0.000000e+00 0.000000e+00))
3.350000e+02	((5.346586e+00 2.144399e+01 5.283143e-19) (8.376029e-02 -2.064871e-02 -9.066676e-22) (0.000000e+00 0.000000e+00 0.000000e+00)) ((-1.072199e+00 2.673293e-01 1.743987e+00) (1.032435e-03 4.188014e-03 -8.323405e-05) (0.000000e+00 0.000000e+00 0.000000e+00))
3.400000e+02	((5.622725e+00 2.255152e+01 4.795888e-19) (8.079844e-02 -1.989152e-02 7.288707e-22) (0.000000e+00 0.000000e+00 0.000000e+00)) ((-1.127576e+00 2.811362e-01 1.875284e+00) (9.945759e-04 4.039922e-03 -8.563297e-05) (0.000000e+00 0.000000e+00 0.000000e+00))
3.450000e+02	((5.884863e+00 2.360290e+01 4.522750e-19) (7.773984e-02 -1.913063e-02 2.300859e-21) (0.000000e+00 0.000000e+00 0.000000e+00)) ((-1.180145e+00 2.942431e-01 1.996766e+00) (9.565314e-04 3.886992e-03 -8.587775e-05) (0.000000e+00 0.000000e+00 0.000000e+00))
3.500000e+02	((6.130571e+00 2.458838e+01 4.232775e-19) (7.463465e-02 -1.835294e-02 3.916196e-21) (0.000000e+00 0.000000e+00 0.000000e+00)) ((-1.229419e+00 3.065285e-01 2.108781e+00) (9.176468e-04 3.731732e-03 -8.922669e-05) (0.000000e+00 0.000000e+00 0.000000e+00))
3.550000e+02	((6.368937e+00 2.554441e+01 3.782979e-19) (7.146028e-02 -1.755781e-02 4.995621e-21) (0.000000e+00 0.000000e+00 0.000000e+00)) ((-1.277221e+00 3.184468e-01 2.216169e+00) (8.778903e-04 3.573014e-03 -9.495324e-05) (0.000000e+00 0.000000e+00 0.000000e+00))
3.600000e+02	((6.593295e+00 2.644426e+01 3.398211e-19) (6.821600e-02 -1.674842e-02 5.750614e-21) (0.000000e+00 0.000000e+00 0.000000e+00)) ((-1.322213e+00 3.296648e-01 2.322854e+00) (8.374209e-04 3.410800e-03 -1.025590e-04) (0.000000e+00 0.000000e+00 0.000000e+00))
3.650000e+02	((6.804968e+00 2.729324e+01 3.107975e-19) (6.491828e-02 -1.592877e-02 6.534772e-21) (0.000000e+00 0.000000e+00 0.000000e+00)) ((-1.364662e+00 3.402484e-01 2.432133e+00) (7.964384e-04 3.245914e-03 -1.105319e-04) (0.000000e+00 0.000000e+00 0.000000e+00))
3.700000e+02	((6.996000e+00 2.805942e+01 2.856168e-19) (6.160626e-02 -1.511033e-02 7.190529e-21) (0.000000e+00 0.000000e+00 0.000000e+00)) ((-1.402971e+00 3.498000e-01 2.545253e+00) (7.555163e-04 3.080313e-03 -1.192238e-04) (0.000000e+00 0.000000e+00 0.000000e+00))
3.750000e+02	((7.187251e+00 2.882649e+01 2.779209e-19) (5.829741e-02 -1.428929e-02 7.386958e-21) (0.000000e+00 0.000000e+00 0.000000e+00)) ((-1.441325e+00 3.593626e-01 2.675874e+00) (7.144643e-04 2.914871e-03 -1.253648e-04) (0.000000e+00 0.000000e+00 0.000000e+00))
3.800000e+02	((7.373421e+00 2.957318e+01 2.946059e-19) (5.505362e-02 -1.348285e-02 6.913737e-21) (0.000000e+00 0.000000e+00 0.000000e+00)) ((-1.478659e+00 3.686710e-01 2.824791e+00) (6.741426e-04 2.752681e-03 -1.300839e-04) (0.000000e+00 0.000000e+00 0.000000e+00))
3.850000e+02	((7.552829e+00 3.029274e+01 3.397947e-19) (5.190338e-02 -1.270142e-02 5.814946e-21) (0.000000e+00 0.000000e+00 0.000000e+00)) ((-1.514637e+00 3.776415e-01 2.992024e+00) (6.350709e-04 2.595169e-03 -1.340076e-04) (0.000000e+00 0.000000e+00 0.000000e+00))
3.900000e+02	((7.726676e+00 3.099001e+01 4.151649e-19) (4.888023e-02 -1.194699e-02 3.614973e-21) (0.000000e+00 0.000000e+00 0.000000e+00)) ((-1.549500e+00 3.863338e-01 3.179937e+00) (5.973497e-04 2.444011e-03 -1.381985e-04) (0.000000e+00 0.000000e+00 0.000000e+00))
3.950000e+02	((7.895729e+00 3.166804e+01 5.209256e-19) (4.600700e-02 -1.123755e-02 1.234899e-21) (0.000000e+00 0.000000e+00 0.000000e+00)) ((-1.583402e+00 3.947864e-01 3.390659e+00) (5.618775e-04 2.300350e-03 -1.406714e-04) (0.000000e+00 0.000000e+00 0.000000e+00))
4.000000e+02	((8.063828e+00 3.234225e+01 6.370196e-19) (4.332608e-02 -1.056646e-02 -1.605917e-21) (0.000000e+00 0.000000e+00 0.000000e+00)) ((-1.617113e+00 4.031914e-01 3.627235e+00) (5.283231e-04 2.166304e-03 -1.448257e-04) (0.000000e+00 0.000000e+00 0.000000e+00))
4.050000e+02	((8.222564e+00 3.297891e+01 7.854669e-19) (4.082095e-02 -9.950781e-03 -4.780988e-21) (0.000000e+00 0.000000e+00 0.000000e+00)) ((-1.648945e+00 4.111282e-01 3.892731e+00) (4.975390e-04 2.041047e-03 -1.462518e-04) (0.000000e+00 0.000000e+00 0.000000e+00))
4.100000e+02	((8.368235e+00 3.356316e+01 9.462855e-19) (3.850505e-02 -9.370372e-03 -8.363845e-21) (0.000000e+00 0.000000e+00 0.000000e+00)) ((-1.678158e+00 4.184118e-01 4.156103e+00) (4.685186e-04 1.925252e-03 -1.507811e-04) (0.000000e+00 0.000000e+00 0.000000e+00))
4.150000e+02	((8.517299e+00 3.416102e+01 1.101628e-18) (3.646346e-02 -8.869917e-03 -1.135623e-20) (0.000000e+00 0.000000e+00 0.000000e+00)) ((-1.708051e+00 4.258649e-01 4.457359e+00) (4.434959e-04 1.823173e-03 -1.528053e-04) (0.000000e+00 0.000000e+00 0.000000e+00))
4.200000e+02	((8.641116e+00 3.465763e+01 1.264400e-18) (3.463434e-02 -8.411321e-03 -1.460319e-20) (0.000000e+00 0.000000e+00 0.000000e+00)) ((-1.732881e+00 4.320558e-01 4.749611e+00) (4.205661e-04 1.731717e-03 -1.559107e-04) (0.000000e+00 0.000000e+00 0.000000e+00))
4.250000e+02	((8.756161e+00 3.511905e+01 1.392745e-18) (3.315688e-02 -8.050510e-03 -1.672866e-20) (0.000000e+00 0.000000e+00 0.000000e+00)) ((-1.755952e+00 4.378081e-01 5.049648e+00) (4.025255e-04 1.657844e-03 -1.571470e-04) (0.000000e+00 0.000000e+00 0.000000e+00))
4.300000e+02	((8.837610e+00 3.544572e+01 1.515837e-18) (3.198358e-02 -7.755334e-03 -1.890963e-20) (0.000000e+00 0.000000e+00 0.000000e+00)) ((-1.772286e+00 4.418805e-01 5.317117e+00) (3.877667e-04 1.599179e-03 -1.591390e-04) (0.000000e+00 0.000000e+00 0.000000e+00))
4.350000e+02	((8.898519e+00 3.569001e+01 1.594274e-18) (3.125926e-02 -7.580781e-03 -1.995877e-20) (0.000000e+00 0.000000e+00 0.000000e+00)) ((-1.784501e+00 4.449259e-01 5.563330e+00) (3.790390e-04 1.562963e-03 -1.591723e-04) (0.000000e+00 0.000000e+00 0.000000e+00))
4.400000e+02	((8.907811e+00 3.572729e+01 1.657498e-18) (3.093264e-02 -7.495021e-03 -2.073603e-20) (0.000000e+00 0.000000e+00 0.000000e+00)) ((-1.786364e+00 4.453906e-01 5.764277e+00) (3.747510e-04 1.546632e-03 -1.578604e-04) (0.000000e+00 0.000000e+00 0.000000e+00))
4.450000e+02	((8.889652e+00 3.565445e+01 1.690586e-18) (3.112843e-02 -7.546238e-03 -2.105167e-20) (0.000000e+00 0.000000e+00 0.000000e+00)) ((-1.782723e+00 4.444826e-01 5.903157e+00) (3.773119e-04 1.556422e-03 -1.545642e-04) (0.000000e+00 0.000000e+00 0.000000e+00))
4.500000e+02	((8.819956e+00 3.537492e+01 1.740275e-18) (3.183487e-02 -7.707567e-03 -2.204472e-20) (0.000000e+00 0.000000e+00 0.000000e+00)) ((-1.768746e+00 4.409978e-01 5.995484e+00) (3.853783e-04 1.591743e-03 -1.468902e-04) (0.000000e+00 0.000000e+00 0.000000e+00))
4.550000e+02	((8.691968e+00 3.486159e+01 1.754879e-18) (3.305732e-02 -8.024254e-03 -2.232810e-20) (0.000000e+00 0.000000e+00 0.000000e+00)) ((-1.743079e+00 4.345984e-01 6.014571e+00) (4.012127e-04 1.652866e-03 -1.481185e-04) (0.000000e+00 0.000000e+00 0.000000e+00))
4.600000e+02	((8.522164e+00 3.418054e+01 1.736006e-18) (3.476108e-02 -8.444797e-03 -2.158374e-20) (0.000000e+00 0.000000e+00 0.000000e+00)) ((-1.709027e+00 4.261082e-01 5.974179e+00) (4.222398e-04 1.738054e-03 -1.461769e-04) (0.000000e+00 0.000000e+00 0.000000e+00))
4.650000e+02	((8.296221e+00 3.327433e+01 1.740920e-18) (3.692304e-02 -8.987336e-03 -2.193486e-20) (0.000000e+00 0.000000e+00 0.000000e+00)) ((-1.663717e+00 4.148110e-01 5.869630e+00) (4.493668e-04 1.846152e-03 -1.399395e-04) (0.000000e+00 0.000000e+00 0.000000e+00))
4.700000e+02	((8.044743e+00 3.226571e+01 1.714901e-18) (3.949464e-02 -9.622783e-03 -2.137222e-20) (0.000000e+00 0.000000e+00 0.000000e+00)) ((-1.613285e+00 4.022372e-01 5.728412e+00) (4.811391e-04 1.974732e-03 -1.369532e-04) (0.000000e+00 0.000000e+00 0.000000e+00))
4.750000e+02	((7.752074e+00 3.109188e+01 1.710964e-18) (4.239412e-02 -1.036088e-02 -2.155638e-20) (0.000000e+00 0.000000e+00 0.000000e+00)) ((-1.554594e+00 3.876037e-01 5.542689e+00) (5.180438e-04 2.119706e-03 -1.375306e-04) (0.000000e+00 0.000000e+00 0.000000e+00))
4.800000e+02	((7.429950e+00 2.979991e+01 1.705458e-18) (4.561834e-02 -1.116225e-02 -2.207709e-20) (0.000000e+00 0.000000e+00 0.000000e+00)) ((-1.489995e+00 3.714975e-01 5.323108e+00) (5.581123e-04 2.280917e-03 -1.375374e-04) (0.000000e+00 0.000000e+00 0.000000e+00))
4.850000e+02	((7.093116e+00 2.844894e+01 1.669074e-18) (4.903630e-02 -1.202455e-02 -2.114086e-20) (0.000000e+00 0.000000e+00 0.000000e+00)) ((-1.422447e+00 3.546558e-01 5.094853e+00) (6.012274e-04 2.451815e-03 -1.314471e-04) (0.000000e+00 0.000000e+00 0.000000e+00))
4.900000e+02	((6.773027e+00 2.716513e+01 1.632106e-18) (5.263731e-02 -1.292050e-02 -2.047435e-20) (0.000000e+00 0.000000e+00 0.000000e+00)) ((-1.358257e+00 3.386514e-01 4.876288e+00) (6.460248e-04 2.631865e-03 -1.294912e-04) (0.000000e+00 0.000000e+00 0.000000e+00))
4.950000e+02	((6.427384e+00 2.577884e+01 1.617723e-18) (5.633055e-02 -1.384703e-02 -2.060114e-20) (0.000000e+00 0.000000e+00 0.000000e+00)) ((-1.288942e+00 3.213692e-01 4.633243e+00) (6.923515e-04 2.816527e-03 -1.236879e-04) (0.000000e+00 0.000000e+00 0.000000e+00))
5.000000e+02	((6.115607e+00 2.452836e+01 1.570781e-18) (6.009813e-02 -1.479290e-02 -1.944837e-20) (0.000000e+00 0.000000e+00 0.000000e+00)) ((-1.226418e+00 3.057803e-01 4.414144e+00) (7.396452e-04 3.004907e-03 -1.206091e-04) (0.000000e+00 0.000000e+00 0.000000e+00))
5.050000e+02	((5.808747e+00 2.329762e+01 1.538471e-18) (6.384058e-02 -1.572211e-02 -1.876509e-20) (0.000000e+00 0.000000e+00 0.000000e+00)) ((-1.164881e+00 2.904373e-01 4.192353e+00) (7.861055e-04 3.192029e-03 -1.055055e-04) (0.000000e+00 0.000000e+00 0.000000e+00))
5.100000e+02	((5.520305e+00 2.214074e+01 1.497013e-18) (6.756873e-02 -1.666179e-02 -1.803041e-20) (0.000000e+00 0.000000e+00 0.000000e+00)) ((-1.107037e+00 2.760153e-01 3.972478e+00) (8.330895e-04 3.378436e-03 -1.050399e-04) (0.000000e+00 0.000000e+00 0.000000e+00))
5.150000e+02	((5.257325e+00 2.108598e+01 1.447801e-18) (7.121559e-02 -1.757590e-02 -1.760981e-20) (0.000000e+00 0.000000e+00 0.000000e+00)) ((-1.054299e+00 2.628662e-01 3.760463e+00) (8.787951e-04 3.560779e-03 -1.072744e-04) (0.000000e+00 0.000000e+00 0.000000e+00))
5.200000e+02	((5.016243e+00 2.011905e+01 1.386376e-18) (7.474693e-02 -1.846072e-02 -1.667618e-20) (0.000000e+00 0.000000e+00 0.000000e+00)) ((-1.005953e+00 2.508121e-01 3.550028e+00) (9.230358e-04 3.737346e-03 -9.998341e-05) (0.000000e+00 0.000000e+00 0.000000e+00))
5.250000e+02	((4.799308e+00 1.924898e+01 1.329483e-18) (7.809670e-02 -1.930193e-02 -1.573512e-20) (0.000000e+00 0.000000e+00 0.000000e+00)) ((-9.624488e-01 2.399654e-01 3.340295e+00) (9.650966e-04 3.904835e-03 -9.658188e-05) (0.000000e+00 0.000000e+00 0.000000e+00))
5.300000e+02	((4.611080e+00 1.849404e+01 1.262402e-18) (8.127206e-02 -2.007285e-02 -1.543966e-20) (0.000000e+00 0.000000e+00 0.000000e+00)) ((-9.247018e-01 2.305540e-01 3.133889e+00) (1.003643e-03 4.063603e-03 -8.898717e-05) (0.000000e+00 0.000000e+00 0.000000e+00))
5.350000e+02	((4.446194e+00 1.783271e+01 1.187346e-18) (8.415956e-02 -2.080767e-02 -1.441237e-20) (0.000000e+00 0.000000e+00 0.000000e+00)) ((-8.916357e-01 2.223097e-01 2.927289e+00) (1.040383e-03 4.207978e-03 -9.653912e-05) (0.000000e+00 0.000000e+00 0.000000e+00))
5.400000e+02	((4.307668e+00 1.727712e+01 1.106354e-18) (8.673082e-02 -2.144416e-02 -1.340360e-20) (0.000000e+00 0.000000e+00 0.000000e+00)) ((-8.638558e-01 2.153834e-01 2.724456e+00) (1.072208e-03 4.336541e-03 -9.401750e-05) (0.000000e+00 0.000000e+00 0.000000e+00))
5.450000e+02	((4.196028e+00 1.682935e+01 1.038671e-18) (8.890506e-02 -2.198613e-02 -1.309847e-20) (0.000000e+00 0.000000e+00 0.000000e+00)) ((-8.414675e-01 2.098014e-01 2.530166e+00) (1.099306e-03 4.445253e-03 -9.508471e-05) (0.000000e+00 0.000000e+00 0.000000e+00))
5.500000e+02	((4.122955e+00 1.653627e+01 9.779915e-19) (9.069287e-02 -2.242469e-02 -1.298730e-20) (0.000000e+00 0.000000e+00 0.000000e+00)) ((-8.268136e-01 2.061477e-01 2.350971e+00) (1.121234e-03 4.534643e-03 -9.348638e-05) (0.000000e+00 0.000000e+00 0.000000e+00))
5.550000e+02	((4.084803e+00 1.638325e+01 9.106284e-19) (9.204419e-02 -2.274795e-02 -1.260198e-20) (0.000000e+00 0.000000e+00 0.000000e+00)) ((-8.191625e-01 2.042401e-01 2.200545e+00) (1.137397e-03 4.602209e-03 -8.605042e-05) (0.000000e+00 0.000000e+00 0.000000e+00))