/*--------------------------------*- C++ -*----------------------------------*\
| =========                 |                                                 |
| \\      /  F ield         | OpenFOAM: The Open Source CFD Toolbox           |
|  \\    /   O peration     | Version:  2.3.0                                 |
|   \\  /    A nd           | Web:      www.OpenFOAM.org                      |
|    \\/     M anipulation  |                                                 |
\*---------------------------------------------------------------------------*/
FoamFile
{
    version     2.0;
    format      ascii;
    class       volScalarField;
    location    "10000";
    object      nut;
}
// * * * * * * * * * * * * * * * * * * * * * * * * * * * * * * * * * * * * * //

dimensions      [0 2 -1 0 0 0 0];

internalField   nonuniform List<scalar> 
14767
(
0.0490401
0.0459806
0.043039
0.0402511
0.0376414
0.0352395
0.0330752
0.0311248
0.0292321
0.0274063
0.0256731
0.0240388
0.0224996
0.0210457
0.0196665
0.0183532
0.0170969
0.0158924
0.0147367
0.0136275
0.0125641
0.0115463
0.0105985
0.00993539
0.0530909
0.0505296
0.0480632
0.0457014
0.0434501
0.0413112
0.0392893
0.0373835
0.0355889
0.0339058
0.0323375
0.0308889
0.0295649
0.0283684
0.0273052
0.0263785
0.0255947
0.0249584
0.0244745
0.0241475
0.0239802
0.0239732
0.0241277
0.024439
0.056735
0.0545956
0.0525417
0.0505777
0.0487055
0.0469269
0.0452441
0.0436574
0.0421691
0.0407809
0.0394947
0.0383145
0.0372436
0.0362863
0.0354457
0.0347271
0.0341333
0.0336688
0.0333369
0.0331384
0.0330741
0.0331415
0.0333348
0.0336477
0.0599845
0.0581919
0.0564743
0.0548324
0.0532673
0.0517801
0.0503719
0.0490438
0.0477979
0.0466351
0.0455586
0.0445721
0.0436773
0.0428787
0.0421807
0.0415868
0.0411
0.0407247
0.0404633
0.0403171
0.0402872
0.0403716
0.040567
0.0408686
0.0628719
0.0613594
0.0599125
0.0585275
0.0572051
0.0559457
0.0547507
0.0536214
0.0525589
0.051565
0.050643
0.0497946
0.0490249
0.0483361
0.0477343
0.0472218
0.0468039
0.0464835
0.0462641
0.0461478
0.0461353
0.0462271
0.0464207
0.0467126
0.065418
0.0641416
0.0629143
0.061735
0.0606045
0.0595234
0.058494
0.057518
0.0565962
0.0557309
0.0549249
0.0541801
0.053501
0.0528923
0.0523575
0.0519019
0.0515299
0.0512453
0.0510525
0.050954
0.0509517
0.0510456
0.0512359
0.0515191
0.0676724
0.0665868
0.0655368
0.0645225
0.0635447
0.0626047
0.0617045
0.0608473
0.0600352
0.0592699
0.0585535
0.0578886
0.057279
0.056729
0.0562439
0.0558289
0.055489
0.0552294
0.0550538
0.0549663
0.0549693
0.0550639
0.0552502
0.0555265
0.0696689
0.0687375
0.0678304
0.0669501
0.0660959
0.0652684
0.0644701
0.0637056
0.0629788
0.0622924
0.0616478
0.0610465
0.0604918
0.0599878
0.0595404
0.059156
0.05884
0.0585971
0.0584321
0.0583512
0.0583569
0.0584507
0.0586335
0.0589035
0.0714344
0.0706336
0.0698394
0.0690686
0.0683169
0.0675808
0.0668659
0.0661712
0.0655105
0.0648857
0.0642992
0.0637515
0.0632423
0.0627787
0.0623579
0.0619973
0.0617004
0.0614717
0.0613105
0.0612323
0.0612383
0.0613308
0.0615104
0.0617757
0.0730029
0.0723202
0.0716008
0.0709187
0.0702569
0.0695929
0.0689548
0.0683073
0.0676954
0.0671165
0.066572
0.0660753
0.0656039
0.0651905
0.064783
0.064441
0.0641562
0.063947
0.063782
0.063705
0.063708
0.0637969
0.0639736
0.0642362
0.0109937
0.0131636
0.0146531
0.0161274
0.0177323
0.019498
0.0214188
0.0234846
0.0256839
0.0280064
0.0304426
0.0329842
0.0356249
0.0383586
0.0411797
0.0440829
0.0470623
0.0501118
0.053225
0.0563947
0.0596132
0.0628719
0.0661621
0.0694772
0.0248913
0.0254991
0.0262858
0.0272543
0.0284011
0.0297198
0.0312015
0.0328345
0.0346059
0.0365043
0.0385181
0.0406364
0.0428502
0.0451512
0.0475317
0.0499859
0.0525077
0.0550914
0.0577321
0.0604242
0.0631631
0.0659434
0.0687598
0.0716086
0.0340692
0.034612
0.0352959
0.0361225
0.0370912
0.0381974
0.039436
0.0407993
0.042279
0.0438666
0.0455538
0.0473317
0.0491934
0.0511318
0.0531405
0.0552141
0.0573479
0.059537
0.0617774
0.0640649
0.0663962
0.0687683
0.0711785
0.0736262
0.0412702
0.0417792
0.0424078
0.0431557
0.0440217
0.0450023
0.0460921
0.047285
0.0485743
0.049953
0.0514138
0.0529499
0.0545547
0.0562232
0.0579495
0.059729
0.061558
0.0634328
0.0653503
0.0673077
0.0693025
0.0713327
0.073396
0.0754836
0.0470993
0.0475849
0.0481762
0.0488718
0.0496695
0.0505654
0.0515538
0.0526288
0.0537842
0.0550131
0.0563093
0.0576667
0.0590797
0.0605433
0.062053
0.0636048
0.0651953
0.0668214
0.0684807
0.0701713
0.0718913
0.0736402
0.0754156
0.077202
0.0518929
0.0523602
0.0529237
0.0535812
0.0543297
0.055164
0.0560785
0.0570671
0.0581233
0.0592406
0.0604132
0.0616357
0.0629026
0.0642095
0.0655521
0.0669265
0.0683298
0.069759
0.0712119
0.0726872
0.0741839
0.0757022
0.0772426
0.0787892
0.0558897
0.0563418
0.0568838
0.0575123
0.0582234
0.0590113
0.0598698
0.0607919
0.061771
0.0628016
0.0638783
0.0649957
0.0661488
0.067333
0.0685446
0.0697793
0.071034
0.072306
0.0735929
0.0748937
0.0762076
0.077535
0.0788773
0.0802479
0.0592585
0.059698
0.0602219
0.0608277
0.0615105
0.0622628
0.0630774
0.0639468
0.0648641
0.065825
0.0668244
0.0678581
0.0689207
0.0700073
0.0711144
0.0722378
0.0733736
0.074519
0.0756711
0.0768288
0.077992
0.0791623
0.08034
0.0815366
0.0621232
0.0625525
0.06306
0.063647
0.0643096
0.0650358
0.0658154
0.0666406
0.0675058
0.0684093
0.0693433
0.0703106
0.0713
0.0723072
0.0733313
0.0743644
0.0754041
0.0764465
0.0774883
0.0785269
0.079564
0.0806052
0.0816461
0.0826794
0.0645737
0.0649954
0.0654847
0.0660569
0.0667066
0.0674091
0.0681582
0.0689449
0.0697631
0.0706168
0.0714852
0.0724056
0.0733341
0.074279
0.0752396
0.0761971
0.0771606
0.0781191
0.0790704
0.0800067
0.0809319
0.0818714
0.0828332
0.083749
0.0805551
0.0746743
0.0690331
0.0636038
0.0583859
0.0533849
0.0486087
0.0440653
0.0397615
0.0357027
0.0318924
0.0283313
0.0250164
0.0219465
0.0191197
0.0165342
0.0141844
0.0120614
0.0101657
0.0085338
0.00727406
0.00606576
0.00477797
0.00329737
0.0842028
0.0790561
0.0740972
0.0692884
0.0646258
0.0601131
0.0557584
0.0515707
0.0475597
0.0437335
0.0400974
0.0366568
0.033415
0.0303747
0.0275446
0.0249583
0.0226611
0.0205875
0.0185801
0.0165549
0.0144748
0.012293
0.00994505
0.00734585
0.0880283
0.0836198
0.0793298
0.0751359
0.0710364
0.0670359
0.063142
0.0593655
0.0557178
0.0522118
0.0488633
0.045687
0.042689
0.039852
0.0371394
0.0345089
0.0319239
0.0293487
0.0267388
0.0240468
0.0212234
0.0182226
0.0149959
0.0114911
0.0920435
0.0882923
0.0846178
0.0809985
0.077433
0.0739248
0.0704811
0.067109
0.0638164
0.0606076
0.0574817
0.0544335
0.0514544
0.048528
0.0456314
0.0427343
0.039807
0.0368157
0.0337264
0.0304984
0.0270894
0.0234554
0.0195497
0.0153334
0.0961025
0.0928998
0.089729
0.0865703
0.0834218
0.0802861
0.0771671
0.0740681
0.0709922
0.0679404
0.0649074
0.0618848
0.0588637
0.0558292
0.0527605
0.0496374
0.0464316
0.043113
0.0396485
0.0360004
0.0321273
0.0279867
0.0235351
0.0187318
0.0999634
0.0971673
0.0943654
0.0915415
0.0886951
0.0858262
0.0829353
0.0800245
0.0770942
0.0741431
0.0711645
0.0681499
0.0650885
0.0619658
0.0587651
0.055465
0.0520406
0.0484628
0.044698
0.040709
0.0364563
0.0318967
0.0269866
0.0216846
0.103462
0.100965
0.0984379
0.0958651
0.0932461
0.0905776
0.0878586
0.0850885
0.0822677
0.0793936
0.076458
0.0734506
0.0703593
0.0671708
0.0638678
0.06043
0.0568321
0.0530448
0.0490342
0.0447626
0.0401909
0.0352749
0.0299706
0.0242362
0.106529
0.104285
0.101977
0.0996024
0.0971629
0.0946527
0.0920686
0.0894101
0.0866762
0.0838662
0.0809718
0.0779755
0.074864
0.0716245
0.0682409
0.0646935
0.0609569
0.0569985
0.0527827
0.0482722
0.0434277
0.0382044
0.032558
0.0264448
0.109241
0.10718
0.105049
0.102838
0.100545
0.0981625
0.0956869
0.0931189
0.0904557
0.0876996
0.0848496
0.0818737
0.0787477
0.0754645
0.072013
0.068377
0.0645314
0.0604357
0.056046
0.0513275
0.0462474
0.0407599
0.0348169
0.0283723
0.111584
0.109687
0.107712
0.105649
0.103476
0.1012
0.0988095
0.0963172
0.0937114
0.090992
0.0881981
0.0852664
0.0821272
0.0787978
0.0752822
0.0715673
0.0676441
0.0634503
0.0589057
0.0539957
0.0487124
0.0430008
0.036806
0.0300929
0.00162273
0.000873799
0.00112005
0.00141113
0.00169351
0.00198391
0.00230486
0.00268832
0.00317533
0.00379135
0.00451065
0.00533004
0.00625199
0.00728238
0.00842875
0.00969858
0.0110995
0.0126402
0.0143295
0.0161778
0.0181952
0.0203935
0.0227834
0.0253672
0.00442016
0.00196639
0.00144533
0.00171385
0.00203174
0.0023852
0.00279964
0.00329824
0.00389763
0.00460705
0.0054025
0.00628409
0.00725508
0.00832041
0.00948573
0.0107566
0.0121391
0.0136405
0.0152685
0.0170316
0.0189391
0.0209999
0.0232222
0.0256148
0.00764208
0.00380145
0.00194023
0.00202251
0.00239944
0.00284212
0.00336241
0.0039682
0.00466396
0.00545263
0.00631448
0.00725081
0.00826425
0.00935847
0.0105373
0.0118048
0.0131658
0.0146263
0.0161928
0.0178722
0.0196716
0.021598
0.0236588
0.0258614
0.0107335
0.0059138
0.00268644
0.00234914
0.00278872
0.00332711
0.00394571
0.00464243
0.00542371
0.00628012
0.00719964
0.00818325
0.00923268
0.01035
0.0115376
0.0127989
0.0141377
0.0155583
0.0170659
0.0186659
0.0203637
0.0221646
0.0240731
0.0260888
0.0135073
0.00795494
0.00361592
0.00270639
0.00318951
0.00381853
0.00452391
0.00530048
0.00615548
0.00707089
0.00804086
0.00906532
0.0101453
0.0112811
0.0124746
0.0137281
0.0150445
0.0164272
0.0178797
0.0194059
0.0210098
0.0226955
0.0244681
0.026339
0.0159276
0.00978539
0.00460536
0.0030951
0.00359105
0.00430159
0.00508353
0.00593187
0.00684927
0.00781689
0.00883116
0.00989148
0.010997
0.012148
0.0133453
0.0145905
0.0158853
0.0172321
0.0186333
0.0200916
0.02161
0.023192
0.0248433
0.0265722
0.0180154
0.011377
0.00555934
0.00350405
0.00398436
0.00476594
0.00561435
0.00652894
0.00750061
0.00851482
0.00956833
0.0106595
0.0117871
0.0129506
0.0141504
0.0153869
0.0166613
0.0179747
0.0193288
0.0207252
0.0221662
0.023655
0.0251965
0.0267989
0.0198146
0.012749
0.00643347
0.00391778
0.00436363
0.00520689
0.00611552
0.00708864
0.00810822
0.0091637
0.0102519
0.0113702
0.0125168
0.0136907
0.014892
0.0161201
0.0173752
0.018658
0.0199688
0.0213089
0.0226801
0.0240843
0.0255243
0.0270018
0.0213808
0.0139362
0.00721057
0.00432016
0.00472475
0.00562142
0.00658585
0.00760997
0.00867196
0.00976387
0.0108831
0.0120257
0.0131889
0.0143718
0.0155739
0.0167941
0.0180314
0.0192853
0.0205556
0.0218436
0.0231512
0.0244788
0.0258268
0.0271974
0.0227984
0.0150199
0.00794615
0.00471502
0.00506304
0.00601724
0.00703033
0.00809155
0.00918796
0.0103229
0.0114786
0.0126385
0.0138108
0.0150016
0.016207
0.0174184
0.018637
0.0198577
0.0210803
0.0223162
0.0235706
0.0248321
0.0260993
0.0273913
0.000348166
0.00119638
0.00253476
0.00413724
0.00576039
0.0073729
0.00899136
0.0106282
0.0122834
0.0139578
0.0156546
0.0173798
0.0191428
0.0209558
0.0228315
0.0247789
0.0267982
0.0288916
0.0311159
0.033512
0.0360495
0.0387987
0.0418649
0.0451448
0.000255196
0.000681797
0.00158374
0.00282793
0.00431312
0.00580063
0.00728722
0.00877072
0.0102662
0.0117905
0.0133558
0.0149665
0.0166279
0.0183472
0.020134
0.021999
0.0239525
0.0260055
0.0281807
0.0305093
0.033004
0.0357034
0.0386561
0.041753
7.11822e-05
0.000409392
0.000979308
0.00179018
0.002866
0.00422646
0.00590404
0.00765593
0.00935957
0.0110142
0.0126298
0.0142217
0.0158057
0.0173979
0.0190169
0.0206846
0.0224255
0.024266
0.0262345
0.0283643
0.030688
0.0332397
0.0360484
0.039072
9.47602e-05
0.000340049
0.000803033
0.00144868
0.00230604
0.00340146
0.0047687
0.00644465
0.00828341
0.0101254
0.0119393
0.0137167
0.015449
0.0171324
0.0187702
0.020376
0.0219756
0.0236057
0.0253128
0.0271508
0.0291775
0.0314479
0.0340056
0.0368566
5.1978e-05
0.000293554
0.000692684
0.00124423
0.00198044
0.00291847
0.00408625
0.00551667
0.00724622
0.00919296
0.0111594
0.0131014
0.0150079
0.0168675
0.0186661
0.0203916
0.0220417
0.023631
0.0251956
0.0267949
0.0285073
0.0304214
0.0326211
0.0351587
4.83642e-05
0.00027278
0.0006257
0.00111751
0.00177132
0.00260605
0.00364519
0.00491901
0.00646259
0.00831188
0.0103463
0.0124089
0.0144572
0.0164753
0.0184468
0.020351
0.0221653
0.0238738
0.0254777
0.0270061
0.0285236
0.0301301
0.0319481
0.0341049
4.02398e-05
0.000265168
0.000574498
0.00102283
0.00161669
0.00237754
0.00332403
0.00448319
0.00588674
0.00757126
0.009561
0.0116956
0.0138538
0.0160003
0.0181176
0.0201854
0.0221782
0.0240664
0.0258241
0.0274409
0.0289392
0.030388
0.0319077
0.0336427
3.7187e-05
0.000259395
0.000536871
0.000952108
0.00150036
0.00220438
0.0030802
0.00415232
0.00545038
0.0070087
0.00886553
0.0109968
0.0132275
0.0154758
0.0177132
0.01992
0.0220718
0.0241375
0.0260811
0.0278686
0.0294821
0.0309407
0.0323199
0.0337473
3.40297e-05
0.000255129
0.000507121
0.000896451
0.00140921
0.00206735
0.00288708
0.00389025
0.00510425
0.00656138
0.00829835
0.0103477
0.0126051
0.014929
0.0172644
0.0195873
0.0218747
0.0240975
0.0262186
0.0281957
0.0299881
0.0315731
0.0329691
0.0342484
3.20049e-05
0.000251128
0.000483812
0.000852525
0.00133698
0.00195765
0.00273192
0.00367912
0.00482485
0.00619936
0.00783776
0.00977888
0.012011
0.0143805
0.0167936
0.0192129
0.021615
0.023973
0.0262522
0.0284088
0.0303937
0.0321603
0.0336822
0.0349757
3.057e-05
0.000247889
0.000465557
0.000817274
0.00127882
0.00186902
0.00260629
0.00350768
0.00459725
0.00590371
0.00746034
0.00930534
0.0114677
0.0138493
0.0163196
0.0188185
0.0213174
0.0237909
0.026207
0.0285244
0.0306922
0.0326535
0.0343559
0.0357694
2.98861e-05
0.000245764
0.000452244
0.000789213
0.00123203
0.0017974
0.00250436
0.00336815
0.00441133
0.00566122
0.00714972
0.00891351
0.010991
0.0133526
0.0158582
0.0184214
0.0210021
0.0235743
0.0261086
0.0285667
0.0308996
0.0330478
0.0349467
0.036538
2.97234e-05
0.000244784
0.000443558
0.000766997
0.00119449
0.00173956
0.00242163
0.00325445
0.00425945
0.00546244
0.00689402
0.00858947
0.0105883
0.0129034
0.015423
0.0180357
0.0206858
0.023343
0.0259795
0.0285601
0.0310392
0.0333588
0.035451
0.037248
3.00525e-05
0.0002447
0.000438435
0.000749359
0.00116439
0.00169311
0.00235443
0.00316189
0.00413542
0.00529976
0.0066841
0.00832249
0.0102537
0.0125094
0.0150239
0.0176724
0.0203815
0.0231129
0.0258389
0.0285271
0.0311351
0.0336089
0.0358815
0.0378795
3.07321e-05
0.000245096
0.000435561
0.000735204
0.00113996
0.00165546
0.00229951
0.00308611
0.00403373
0.00516613
0.0065114
0.0081022
0.00997632
0.012172
0.0146662
0.0173383
0.0200974
0.0228951
0.0257011
0.0284849
0.031208
0.0338194
0.0362555
0.0384392
3.16106e-05
0.000245603
0.000433807
0.000723526
0.00111974
0.00162425
0.002254
0.00302326
0.00394952
0.00505552
0.00636825
0.0079194
0.00974568
0.011887
0.0143504
0.0170354
0.019837
0.022695
0.0255743
0.0284453
0.0312722
0.0340083
0.0365936
0.0389551
3.26587e-05
0.000246123
0.000432691
0.000713736
0.00110268
0.00159798
0.00221565
0.00297051
0.00387886
0.00496276
0.0062483
0.00776616
0.00955211
0.0116463
0.0140732
0.0167619
0.0195993
0.0225127
0.0254606
0.0284127
0.0313353
0.0341854
0.0369069
0.0394294
3.38081e-05
0.000246602
0.000431928
0.000705435
0.00108804
0.00157539
0.00218272
0.00292522
0.00381838
0.00488336
0.00614576
0.00763542
0.00938697
0.0114402
0.0138291
0.0165134
0.0193802
0.0223447
0.0253576
0.028386
0.0313982
0.0343536
0.0371996
0.0398686
3.50736e-05
0.000247011
0.000431369
0.000698188
0.00107526
0.00155561
0.00215389
0.00288555
0.00376541
0.00481402
0.00605623
0.00752133
0.00924304
0.0112604
0.0136122
0.0162849
0.0191744
0.0221854
0.0252597
0.0283607
0.0314568
0.0345101
0.0374707
0.0402738
3.64083e-05
0.000247402
0.00043098
0.000691744
0.00106382
0.00153794
0.00212807
0.00285012
0.00371811
0.00475211
0.00597648
0.00741975
0.00911495
0.0111004
0.0134168
0.0160716
0.0189769
0.0220293
0.0251611
0.028331
0.0315062
0.0346503
0.0377156
0.0406381
3.76786e-05
0.000247696
0.000430574
0.000685933
0.00105343
0.0015218
0.00210452
0.00281773
0.00367497
0.0046957
0.00590384
0.00732734
0.00899856
0.0109551
0.0132383
0.01587
0.0187838
0.021872
0.0250573
0.0282922
0.0315423
0.034772
0.0379362
0.0409764
3.89617e-05
0.000247935
0.00043018
0.000680556
0.00104381
0.00150689
0.00208271
0.0027878
0.00363508
0.00464363
0.00583677
0.00724204
0.00889115
0.010821
0.0130729
0.015678
0.0185929
0.0217106
0.0249448
0.028241
0.0315616
0.034871
0.0381244
0.0412601
4.02677e-05
0.000248186
0.0004299
0.000675632
0.00103485
0.00149291
0.00206231
0.00275981
0.00359773
0.00459484
0.00577407
0.00716229
0.00879079
0.0106957
0.0129181
0.0154947
0.0184036
0.0215442
0.0248224
0.0281761
0.0315638
0.0349493
0.0382896
0.0415284
4.15236e-05
0.000248403
0.000429626
0.000671073
0.00102646
0.00147978
0.00204305
0.0027333
0.00356239
0.00454873
0.0057148
0.00708703
0.00869614
0.0105776
0.0127721
0.0153194
0.018216
0.0213728
0.0246897
0.028097
0.0315485
0.0350066
0.0384289
0.0417584
4.27545e-05
0.000248632
0.000429424
0.000666879
0.00101859
0.00146742
0.00202486
0.00270814
0.00352881
0.00450488
0.00565845
0.00701551
0.00860629
0.0104656
0.0126336
0.0151518
0.0180309
0.0211971
0.0245472
0.028004
0.0315161
0.035044
0.0385468
0.0419728
4.39468e-05
0.000248871
0.000429266
0.000663018
0.00101117
0.00145576
0.00200778
0.00268417
0.00349674
0.00446299
0.00560465
0.00694729
0.00852061
0.0103589
0.0125017
0.0149913
0.0178491
0.0210183
0.0243958
0.0278976
0.0314666
0.0350608
0.0386387
0.0421482
4.50875e-05
0.000249127
0.000429162
0.000659499
0.0010041
0.00144461
0.00199145
0.00266126
0.00346607
0.00442293
0.00555321
0.00688207
0.00843874
0.010257
0.0123758
0.0148377
0.0176717
0.020838
0.0242372
0.0277794
0.0314019
0.0350594
0.0387102
0.0423037
4.61914e-05
0.000249419
0.000429135
0.000656359
0.00099742
0.001434
0.00197589
0.0026394
0.00343682
0.00438472
0.00550411
0.00681978
0.00836052
0.0101597
0.0122555
0.0146906
0.0174993
0.0206576
0.0240728
0.0276508
0.0313232
0.0350413
0.0387626
0.042437
4.72772e-05
0.000249747
0.000429205
0.000653626
0.000991133
0.00142393
0.00196109
0.00261861
0.00340899
0.00434835
0.00545736
0.00676042
0.00828596
0.0100668
0.0121407
0.0145501
0.0173327
0.0204787
0.0239044
0.0275132
0.0312317
0.0350079
0.0387989
0.0425586
4.83731e-05
0.000250137
0.000429409
0.000651334
0.000985259
0.00141444
0.0019471
0.00259894
0.00338264
0.00431391
0.00541305
0.00670413
0.00821518
0.0099786
0.0120316
0.0144163
0.0171727
0.0203027
0.0237336
0.0273683
0.0311284
0.0349583
0.0388147
0.0426564
4.94713e-05
0.000250575
0.000429731
0.00064946
0.000979784
0.0014055
0.00193393
0.00258039
0.00335778
0.00428142
0.00537124
0.006651
0.00814833
0.00989519
0.0119283
0.0142894
0.0170199
0.0201313
0.0235627
0.027218
0.0310147
0.0348926
0.0388056
0.0427076
5.05858e-05
0.000251068
0.00043018
0.000648001
0.000974726
0.00139715
0.00192157
0.00256298
0.00333446
0.00425092
0.005332
0.0066011
0.00808553
0.00981677
0.0118311
0.0141698
0.0168754
0.0199665
0.0233944
0.0270657
0.0308945
0.0348166
0.0387832
0.0427491
5.17055e-05
0.000251609
0.000430742
0.000646912
0.000970064
0.00138936
0.00191004
0.00254672
0.00331267
0.00422241
0.0052953
0.00655444
0.00802679
0.00974345
0.0117402
0.014058
0.0167396
0.0198098
0.0232311
0.0269145
0.0307716
0.0347343
0.0387513
0.0427767
5.28242e-05
0.000252173
0.000431374
0.00064614
0.000965789
0.00138215
0.00189932
0.00253159
0.00329238
0.00419586
0.00526109
0.00651093
0.00797204
0.00967511
0.0116555
0.0139537
0.0166129
0.0196624
0.0230751
0.0267675
0.0306498
0.03465
0.0387135
0.0427924
5.3967e-05
0.000252767
0.00043209
0.000645649
0.0009619
0.00137551
0.00188943
0.00251759
0.00327359
0.00417122
0.00522932
0.00647053
0.00792115
0.00961156
0.0115768
0.0138568
0.0164951
0.0195245
0.0229276
0.0266272
0.0305328
0.0345692
0.0386791
0.0428143
5.51252e-05
0.000253381
0.000432862
0.000645395
0.000958393
0.00136943
0.00188033
0.0025047
0.00325626
0.00414848
0.00519996
0.0064331
0.00787392
0.00955253
0.0115036
0.0137667
0.0163855
0.0193956
0.0227886
0.026494
0.0304216
0.0344934
0.0386496
0.0428414
5.62985e-05
0.000254011
0.000433683
0.000645332
0.000955227
0.00136388
0.00187201
0.00249289
0.00324036
0.00412758
0.00517293
0.00639857
0.00783027
0.00949784
0.0114356
0.0136829
0.0162833
0.0192748
0.0226569
0.0263667
0.030315
0.0344213
0.038623
0.0428695
5.74898e-05
0.00025465
0.000434538
0.000645423
0.000952376
0.00135884
0.00186442
0.0024821
0.00322581
0.00410844
0.00514815
0.00636685
0.00779006
0.00944734
0.0113727
0.013605
0.0161879
0.0191612
0.0225315
0.0262439
0.0302111
0.0343508
0.0385978
0.0428997
5.86958e-05
0.000255293
0.000435415
0.000645632
0.000949804
0.00135424
0.0018575
0.00247225
0.00321252
0.00409096
0.00512551
0.00633782
0.00775322
0.00940095
0.0113147
0.013533
0.0160993
0.0190548
0.0224122
0.0261248
0.0301081
0.0342784
0.0385688
0.0429278
5.9912e-05
0.000255937
0.000436301
0.00064593
0.000947482
0.00135004
0.00185118
0.00246326
0.00320041
0.00407504
0.00510488
0.00631137
0.00771961
0.00935855
0.0112615
0.0134669
0.0160176
0.018956
0.0222999
0.0260105
0.0300066
0.0342034
0.0385304
0.0429333
6.11362e-05
0.000256574
0.000437185
0.000646288
0.000945378
0.00134621
0.0018454
0.00245503
0.00318935
0.00406051
0.00508605
0.00628725
0.00768897
0.00931991
0.0112131
0.0134065
0.0159429
0.0188652
0.0221958
0.0259033
0.0299103
0.0341308
0.0384913
0.0429316
6.23664e-05
0.000257202
0.000438057
0.000646684
0.000943463
0.0013427
0.00184011
0.0024475
0.00317922
0.00404721
0.00506885
0.00626525
0.00766106
0.00928472
0.011169
0.0133516
0.0158748
0.0187824
0.0221004
0.0258045
0.0298216
0.0340654
0.0384598
0.0429415
6.35903e-05
0.000257822
0.000438909
0.000647111
0.000941727
0.00133949
0.00183524
0.00244058
0.00316993
0.00403503
0.00505311
0.00624513
0.00763554
0.0092526
0.0111288
0.0133015
0.0158128
0.018707
0.0220132
0.0257141
0.0297409
0.0340083
0.0384383
0.0429679
6.48194e-05
0.000258425
0.000439742
0.00064756
0.000940145
0.00133653
0.00183075
0.00243419
0.00316137
0.00402382
0.00503864
0.00622665
0.00761215
0.00922319
0.011092
0.0132557
0.0157562
0.018638
0.0219333
0.0256308
0.0296668
0.0339566
0.038421
0.0429952
6.60674e-05
0.000259012
0.000440568
0.000648029
0.000938712
0.00133382
0.00182662
0.0024283
0.00315345
0.00401344
0.00502527
0.00620959
0.00759059
0.00919612
0.0110582
0.0132137
0.0157044
0.0185749
0.0218599
0.0255541
0.0295987
0.0339099
0.0384068
0.0430225
6.7327e-05
0.000259594
0.00044139
0.00064852
0.000937429
0.00133133
0.00182282
0.00242284
0.00314609
0.0040038
0.00501283
0.00619376
0.0075706
0.00917105
0.011027
0.013175
0.0156566
0.0185167
0.0217922
0.0254832
0.0295362
0.0338688
0.038399
0.0430558
6.85824e-05
0.000260168
0.000442201
0.000649023
0.000936286
0.00132907
0.00181932
0.0024178
0.00313926
0.00399481
0.00500122
0.00617895
0.0075519
0.00914766
0.0109979
0.013139
0.0156123
0.0184628
0.0217292
0.0254168
0.0294775
0.0338307
0.0383938
0.0430964
6.98175e-05
0.000260722
0.000442989
0.000649532
0.000935271
0.00132702
0.00181612
0.00241313
0.00313291
0.00398641
0.00499032
0.00616501
0.00753429
0.00912562
0.0109705
0.0131052
0.0155707
0.0184124
0.0216703
0.0253544
0.0294219
0.0337942
0.0383882
0.0431322
7.10469e-05
0.000261261
0.000443765
0.00065005
0.000934381
0.00132519
0.00181321
0.00240886
0.00312703
0.00397858
0.00498007
0.00615184
0.00751759
0.00910468
0.0109445
0.0130731
0.0155315
0.0183649
0.0216148
0.0252956
0.0293694
0.0337594
0.0383816
0.0431635
7.22632e-05
0.000261788
0.000444523
0.000650574
0.000933633
0.00132358
0.0018106
0.00240497
0.00312164
0.0039713
0.00497048
0.00613942
0.00750174
0.0090847
0.0109196
0.0130423
0.0154938
0.0183194
0.021562
0.0252398
0.0293202
0.0337279
0.0383764
0.0431847
7.34544e-05
0.000262305
0.000445266
0.000651124
0.000933031
0.00132218
0.0018083
0.0024015
0.00311674
0.00396462
0.00496158
0.00612777
0.00748673
0.00906562
0.0108956
0.0130126
0.0154573
0.0182752
0.0215104
0.0251853
0.0292726
0.0337003
0.0383824
0.0432404
7.46329e-05
0.000262821
0.000446001
0.000651693
0.000932565
0.00132102
0.00180632
0.00239843
0.00311234
0.00395856
0.00495342
0.00611695
0.00747263
0.00904751
0.0108727
0.0129838
0.0154216
0.0182316
0.0214591
0.0251301
0.029223
0.0336685
0.0383802
0.0432764
7.58268e-05
0.000263332
0.000446748
0.000652288
0.000932228
0.00132006
0.00180465
0.00239576
0.00310847
0.00395317
0.00494602
0.00610702
0.00745957
0.00903051
0.0108509
0.0129561
0.0153869
0.0181888
0.021408
0.0250738
0.0291706
0.033633
0.038374
0.0433107
7.70271e-05
0.000263841
0.000447498
0.000652901
0.000932011
0.00131931
0.00180326
0.00239352
0.00310511
0.00394841
0.00493943
0.00609806
0.00744759
0.00901484
0.0108304
0.01293
0.0153536
0.0181472
0.0213572
0.0250166
0.0291152
0.0335922
0.0383612
0.0433369
7.81762e-05
0.000264343
0.000448227
0.000653516
0.000931895
0.00131874
0.00180212
0.00239163
0.00310228
0.00394423
0.0049336
0.00609013
0.00743686
0.00900051
0.0108117
0.0129055
0.0153223
0.0181074
0.0213081
0.0249595
0.0290576
0.0335458
0.0383388
0.0433482
7.93219e-05
0.000264818
0.000448927
0.000654151
0.000931925
0.00131837
0.00180131
0.00239011
0.00309991
0.00394074
0.00492855
0.00608307
0.00742729
0.00898766
0.0107947
0.0128833
0.0152935
0.0180705
0.0212617
0.0249046
0.029
0.0334968
0.0383117
0.0433556
8.04989e-05
0.000265333
0.000449684
0.000654804
0.000932088
0.00131826
0.00180078
0.00238903
0.00309805
0.00393783
0.00492432
0.00607706
0.00741892
0.00897639
0.0107796
0.0128635
0.0152676
0.0180369
0.0212191
0.0248536
0.0289455
0.0334487
0.0382826
0.0433597
8.15546e-05
0.000265807
0.000450357
0.000655479
0.000932396
0.00131834
0.00180055
0.00238827
0.00309664
0.0039355
0.00492075
0.0060719
0.00741172
0.00896643
0.0107662
0.0128457
0.0152443
0.0180069
0.0211812
0.0248079
0.0288966
0.0334053
0.038255
0.0433581
8.26535e-05
0.000266272
0.000451034
0.000656177
0.000932833
0.00131864
0.00180063
0.002388
0.00309577
0.00393386
0.00491799
0.00606766
0.00740556
0.00895788
0.0107545
0.01283
0.0152236
0.0179799
0.0211471
0.0247674
0.0288537
0.033369
0.0382351
0.0433594
8.38239e-05
0.000266788
0.000451817
0.000656947
0.00093343
0.00131921
0.00180111
0.00238823
0.00309549
0.00393289
0.00491611
0.00606446
0.00740058
0.00895057
0.0107443
0.0128161
0.0152051
0.0179558
0.0211164
0.0247308
0.028816
0.0333393
0.0382268
0.0433892
8.49306e-05
0.00026727
0.000452524
0.000657717
0.000934213
0.00132004
0.00180195
0.00238885
0.00309576
0.00393261
0.00491496
0.00606212
0.00739669
0.00894456
0.0107357
0.012804
0.0151887
0.0179341
0.0210885
0.024697
0.0287803
0.0333109
0.0382171
0.0434105
8.60308e-05
0.000267756
0.000453254
0.000658502
0.000935131
0.00132116
0.00180314
0.00239005
0.0030967
0.00393315
0.00491481
0.00606092
0.00739405
0.00894008
0.0107286
0.0127938
0.0151744
0.0179147
0.0210631
0.0246659
0.0287467
0.0332826
0.0382046
0.043424
8.7066e-05
0.000268232
0.000453954
0.000659335
0.00093622
0.00132253
0.00180475
0.00239172
0.00309833
0.00393443
0.00491557
0.0060609
0.00739276
0.00893701
0.0107233
0.0127854
0.0151622
0.0178977
0.0210407
0.024638
0.0287167
0.0332575
0.0381935
0.0434346
8.81396e-05
0.000268696
0.000454653
0.000660202
0.000937509
0.00132418
0.00180673
0.00239395
0.00310064
0.00393666
0.00491739
0.00606202
0.00739286
0.00893554
0.0107197
0.012779
0.0151521
0.0178832
0.0210209
0.0246133
0.0286903
0.0332374
0.0381901
0.0434552
8.92405e-05
0.000269202
0.000455417
0.000661122
0.000939012
0.0013262
0.00180918
0.00239681
0.00310372
0.00393978
0.00492043
0.00606462
0.00739455
0.00893599
0.0107182
0.0127749
0.0151446
0.0178712
0.0210035
0.024591
0.0286663
0.0332203
0.0381933
0.0434978
9.02403e-05
0.000269669
0.000456099
0.000662069
0.000940699
0.00132849
0.00181206
0.00240017
0.00310749
0.00394381
0.00492453
0.00606854
0.007398
0.00893834
0.010719
0.0127732
0.0151396
0.0178619
0.020989
0.0245706
0.028643
0.0332015
0.0381901
0.0435212
9.13007e-05
0.000270132
0.000456793
0.000663048
0.000942573
0.00133112
0.00181538
0.00240417
0.00311207
0.0039489
0.00492988
0.00607395
0.00740314
0.00894289
0.0107222
0.0127745
0.0151379
0.0178561
0.0209779
0.0245537
0.0286215
0.0331818
0.0381829
0.0435378
9.23961e-05
0.000270637
0.000457565
0.000664099
0.000944656
0.00133408
0.00181921
0.00240885
0.00311748
0.00395496
0.00493653
0.00608095
0.00741017
0.00894954
0.010728
0.0127788
0.0151398
0.0178544
0.0209714
0.0245414
0.0286049
0.0331659
0.0381775
0.0435562
9.34684e-05
0.000271109
0.000458297
0.000665198
0.000947001
0.00133742
0.00182354
0.00241412
0.00312368
0.00396203
0.00494432
0.00608934
0.007419
0.00895841
0.0107366
0.0127864
0.0151456
0.0178574
0.0209702
0.0245351
0.0285941
0.0331557
0.0381773
0.0435796
9.45737e-05
0.000271612
0.000459093
0.000666339
0.000949561
0.00134116
0.0018284
0.00242015
0.00313084
0.00397022
0.00495349
0.00609934
0.0074297
0.00896963
0.0107478
0.0127972
0.0151554
0.0178651
0.0209746
0.0245354
0.0285905
0.0331518
0.0381802
0.0435998
9.5583e-05
0.00027208
0.00045981
0.000667501
0.000952338
0.00134525
0.00183378
0.00242679
0.00313881
0.00397944
0.00496394
0.00611099
0.0074423
0.00898296
0.0107617
0.0128111
0.0151688
0.0178774
0.0209849
0.0245428
0.0285956
0.0331569
0.038189
0.0436141
9.66379e-05
0.000272538
0.000460531
0.000668734
0.000955432
0.00134975
0.00183971
0.00243423
0.00314776
0.00398992
0.00497582
0.00612424
0.0074568
0.0089985
0.0107781
0.012828
0.0151858
0.017894
0.0210006
0.0245573
0.0286101
0.0331754
0.0382148
0.0436356
9.7723e-05
0.000273031
0.000461313
0.000670022
0.000958796
0.00135475
0.00184631
0.00244255
0.00315776
0.00400161
0.0049893
0.00613936
0.00747348
0.00901661
0.0107973
0.0128481
0.0152064
0.0179145
0.0210207
0.0245774
0.0286324
0.0332069
0.0382697
0.043743
9.87141e-05
0.000273498
0.000462018
0.000671346
0.000962433
0.00136016
0.00185353
0.0024516
0.00316876
0.0040146
0.00500423
0.00615624
0.00749229
0.00903716
0.0108194
0.0128714
0.0152304
0.0179388
0.0210449
0.0246011
0.0286578
0.03324
0.0383221
0.0438312
9.97794e-05
0.000273946
0.000462731
0.0006727
0.00096633
0.00136604
0.00186137
0.00246157
0.00318089
0.00402901
0.00502094
0.0061752
0.0075135
0.00906056
0.0108446
0.0128983
0.0152583
0.0179672
0.0210731
0.0246291
0.028686
0.0332727
0.0383665
0.0438914
0.000100857
0.000274392
0.000463472
0.000674126
0.000970502
0.00137236
0.0018699
0.00247246
0.00319415
0.00404472
0.00503929
0.0061963
0.00753722
0.00908681
0.0108733
0.0129289
0.0152906
0.0180005
0.0211066
0.0246622
0.0287198
0.0333116
0.0384196
0.0439713
0.000101902
0.000274802
0.000464141
0.000675576
0.000974992
0.00137915
0.00187908
0.00248415
0.00320849
0.00406184
0.00505935
0.00621939
0.00756346
0.00911608
0.0109055
0.0129638