/*--------------------------------*- C++ -*----------------------------------*\
| =========                 |                                                 |
| \\      /  F ield         | OpenFOAM: The Open Source CFD Toolbox           |
|  \\    /   O peration     | Version:  2.3.0                                 |
|   \\  /    A nd           | Web:      www.OpenFOAM.org                      |
|    \\/     M anipulation  |                                                 |
\*---------------------------------------------------------------------------*/
FoamFile
{
    version     2.0;
    format      ascii;
    class       volScalarField;
    location    "7000";
    object      nuTilda;
}
// * * * * * * * * * * * * * * * * * * * * * * * * * * * * * * * * * * * * * //

dimensions      [0 2 -1 0 0 0 0];

internalField   nonuniform List<scalar> 
6748
(
0.0586048
0.0527576
0.0475583
0.043182
0.0397193
0.0370772
0.0345503
0.0319801
0.029391
0.0267505
0.0240832
0.0218662
0.0659986
0.0617665
0.0580523
0.054843
0.0521586
0.0500104
0.0483792
0.0472214
0.0464854
0.0461082
0.0460342
0.0462108
0.0722378
0.0691982
0.0665903
0.0643952
0.0625995
0.061185
0.060125
0.0593858
0.0589306
0.0587214
0.0587202
0.058892
0.0774957
0.0752661
0.0733829
0.0718119
0.0705329
0.0695255
0.068768
0.0682374
0.0679108
0.0677653
0.0677794
0.0679318
0.0818612
0.0802058
0.0788031
0.0776293
0.0766678
0.0759039
0.0753233
0.0749125
0.0746582
0.0745472
0.0745674
0.0747059
0.085505
0.0842466
0.0831698
0.0822594
0.0815047
0.0808973
0.0804293
0.0800932
0.0798831
0.0797922
0.0798137
0.0799403
0.0885575
0.0875761
0.0867266
0.0859976
0.0853838
0.0848827
0.0844911
0.0842057
0.0840246
0.0839462
0.0839679
0.0840853
0.0911222
0.0903413
0.0896567
0.0890585
0.0885429
0.0881172
0.087781
0.0875322
0.087371
0.0872999
0.0873209
0.0874314
0.0932903
0.0926563
0.0920945
0.0915998
0.0911499
0.0907785
0.090485
0.090266
0.0901191
0.0900496
0.0900687
0.0901748
0.0951429
0.0946125
0.094138
0.0937409
0.0933246
0.0929931
0.0927332
0.0925418
0.0924095
0.0923326
0.0923478
0.0924502
0.0233763
0.0271991
0.0296181
0.0321099
0.0351085
0.0387263
0.0429525
0.0477314
0.0529936
0.058663
0.064658
0.0709183
0.0465555
0.0471098
0.0479948
0.0492678
0.0509767
0.0531568
0.0558264
0.0589821
0.0626004
0.066641
0.0710545
0.0758192
0.0591955
0.0596546
0.060332
0.0612592
0.0624668
0.063983
0.0658319
0.0680292
0.0705813
0.0734845
0.0767279
0.0803383
0.068201
0.0686002
0.0691631
0.0699082
0.0708527
0.0720141
0.0734089
0.0750507
0.0769501
0.0791141
0.0815497
0.084305
0.0749495
0.0753063
0.0757957
0.0764272
0.0772103
0.078154
0.0792676
0.0805592
0.0820364
0.0837059
0.085578
0.0877023
0.0801636
0.0804883
0.0809253
0.0814791
0.0821539
0.0829533
0.0838807
0.0849395
0.0861325
0.0874627
0.0889346
0.0905703
0.0842929
0.0845929
0.084991
0.0854884
0.086086
0.0867838
0.0875812
0.0884777
0.0894718
0.090563
0.0917545
0.0930667
0.0876271
0.0879077
0.0882758
0.0887306
0.0892705
0.0898937
0.0905971
0.0913765
0.0922268
0.0931435
0.094125
0.0951831
0.0903622
0.0906262
0.0909709
0.0913924
0.0918873
0.0924541
0.0930876
0.09378
0.0945235
0.0953113
0.0961352
0.0970053
0.0926342
0.0928789
0.0932047
0.093599
0.0940563
0.0945782
0.0951587
0.095781
0.0964385
0.0971293
0.0978606
0.0985739
0.0648742
0.0535137
0.0444259
0.0371945
0.0313362
0.026442
0.0224394
0.0196492
0.0172509
0.0147405
0.0119579
0.00870893
0.0673458
0.0579391
0.0507912
0.0454755
0.0417671
0.0386539
0.0354322
0.0320296
0.0284422
0.0246132
0.0204588
0.0158771
0.0701922
0.0627629
0.0574331
0.0539326
0.0507879
0.0475441
0.0440726
0.0403009
0.0361798
0.031665
0.0267099
0.0212693
0.0732664
0.0675352
0.0637673
0.0606494
0.0574906
0.0541109
0.050423
0.0463634
0.0418765
0.036909
0.031407
0.0253209
0.0763714
0.0719664
0.0688858
0.0658722
0.0626843
0.0592092
0.0553691
0.0510979
0.0463335
0.0410113
0.0350659
0.0284322
0.079344
0.0759859
0.0730469
0.0700586
0.0668465
0.0633064
0.0593575
0.0549264
0.0499396
0.0443218
0.0379947
0.0308795
0.0820666
0.0792116
0.0764138
0.0734671
0.070251
0.066671
0.0626431
0.0580861
0.0529164
0.0470465
0.0403848
0.0328412
0.084602
0.0819128
0.079195
0.0762876
0.0730793
0.0694753
0.0653881
0.0607301
0.0554078
0.0493212
0.0423656
0.0344407
0.0866916
0.0841464
0.0815064
0.0786444
0.0754544
0.0718391
0.0677049
0.0629619
0.0575113
0.0512459
0.044044
0.035785
0.0884228
0.0859922
0.0834317
0.0806241
0.0774628
0.0738487
0.0696743
0.0648504
0.0592845
0.0528894
0.0455265
0.0370245
0.00490635
0.00200276
0.00185136
0.00243931
0.00315608
0.00418808
0.00574292
0.00773907
0.01024
0.0133245
0.0170707
0.021557
0.0106312
0.00509357
0.0025856
0.00302192
0.00393349
0.00517092
0.00682558
0.00885906
0.0113229
0.0142783
0.0177897
0.0219211
0.0151366
0.00828534
0.00372571
0.00370781
0.00481379
0.00621791
0.00796311
0.0100247
0.0124435
0.0152647
0.0185381
0.0223118
0.0184663
0.0108099
0.0049947
0.00446306
0.00572576
0.00726375
0.00908372
0.0111638
0.0135327
0.0162255
0.0192989
0.0228908
0.0209504
0.0126796
0.00617026
0.00525074
0.00662859
0.00827587
0.0101558
0.0122465
0.0145674
0.0171522
0.0200602
0.0233702
0.0228429
0.0140681
0.0071781
0.00603546
0.00749718
0.00923673
0.0111659
0.0132623
0.0155409
0.0180324
0.0207783
0.0238011
0.0243113
0.0151163
0.00802218
0.00678859
0.00831462
0.0101377
0.0121083
0.0142086
0.0164504
0.0188547
0.0214407
0.0242041
0.0254714
0.0159233
0.0087337
0.00749918
0.0090836
0.0109758
0.0129818
0.0150853
0.0172924
0.0196124
0.0220466
0.0245829
0.0264206
0.0165544
0.00932856
0.00815881
0.00980049
0.0117547
0.0137927
0.0158956
0.0180669
0.0203053
0.0226
0.0249393
0.0273993
0.0173977
0.00998342
0.00878403
0.0104833
0.012459
0.0144845
0.0165909
0.0187576
0.0209248
0.0230823
0.025249
0.00109946
0.00381127
0.0081194
0.0129332
0.0178077
0.0225843
0.0271476
0.0314671
0.0358039
0.0403726
0.0453257
0.0516833
0.000761402
0.0024708
0.00614776
0.0098816
0.0137695
0.0179212
0.0222893
0.0267729
0.0313194
0.0359805
0.0409098
0.0466103
0.000443124
0.00163151
0.00413051
0.00790778
0.0124501
0.016757
0.0209438
0.0250926
0.029265
0.0335541
0.0381358
0.0433562
0.000531889
0.00134946
0.00340879
0.0065584
0.011064
0.015844
0.0204883
0.024872
0.0289527
0.0328395
0.0368234
0.0413649
0.000498245
0.00120269
0.00303112
0.00580779
0.00984986
0.0148663
0.0199181
0.0247793
0.0292464
0.0331858
0.0367612
0.0405513
0.000491411
0.00109523
0.002763
0.00529022
0.0089682
0.0139313
0.019261
0.0245291
0.0294972
0.0338661
0.037486
0.0407557
0.000479738
0.00101949
0.00257411
0.00492536
0.00834061
0.0130962
0.0185874
0.0241661
0.029565
0.0344611
0.0384878
0.0416494
0.00047473
0.000965226
0.00243301
0.00465341
0.00787521
0.0123975
0.017943
0.023759
0.0295103
0.0348909
0.0394737
0.0429706
0.000471754
0.000926947
0.00232747
0.00444849
0.00752122
0.0118418
0.0173703
0.0233665
0.0294082
0.0352025
0.0403327
0.0443321
0.000471585
0.000899829
0.0022514
0.00429883
0.00725952
0.0114214
0.0168958
0.0230319
0.0293225
0.0354685
0.0410828
0.0456488
0.00047306
0.00088108
0.00219769
0.00419165
0.00706927
0.0111097
0.0165184
0.0227689
0.0292801
0.0357272
0.0417456
0.0467948
0.000475705
0.000868257
0.00216028
0.00411566
0.00693192
0.0108799
0.0162226
0.0225732
0.029291
0.0360056
0.0423645
0.0478239
0.00047878
0.000859277
0.00213391
0.00406142
0.0068324
0.0107099
0.0159898
0.0224326
0.0293574
0.0363343
0.0430118
0.0488695
0.000481682
0.000852232
0.0021135
0.00401925
0.0067549
0.010577
0.0157973
0.0223177
0.0294469
0.0366875
0.0436771
0.049906
0.000484144
0.000846024
0.00209567
0.00398243
0.00668722
0.0104606
0.01562
0.0221906
0.0295032
0.0369883
0.0442569
0.0507916
0.000486147
0.000840438
0.00207993
0.00395012
0.00662815
0.0103594
0.015462
0.0220632
0.0295463
0.0372743
0.0448354
0.0517525
0.00048759
0.000834978
0.00206492
0.00391966
0.00657306
0.0102658
0.0153138
0.0219242
0.0295601
0.0375173
0.0453388
0.0525292
0.000488447
0.000829473
0.00205007
0.00388989
0.00651996
0.010177
0.0151737
0.0217772
0.0295552
0.0377479
0.0458549
0.0534025
0.000488654
0.000823662
0.00203451
0.0038589
0.00646496
0.0100855
0.0150285
0.0216009
0.0294926
0.0379054
0.0462774
0.054107
0.000488275
0.000817657
0.00201848
0.00382729
0.00640941
0.00999396
0.0148843
0.0214108
0.0293862
0.0380054
0.0466499
0.0548261
0.000487366
0.000811422
0.00200166
0.00379442
0.00635213
0.0099003
0.0147374
0.0212065
0.0292286
0.0380181
0.0468972
0.0553467
0.000486114
0.000805273
0.00198502
0.00376227
0.00629669
0.00981066
0.0145984
0.0210103
0.0290597
0.0380008
0.0471107
0.0558686
0.000484646
0.00079902
0.00196832
0.00373022
0.00624185
0.00972282
0.0144634
0.0208176
0.0288757
0.0379434
0.0472508
0.0562404
0.000483045
0.000792921
0.00195203
0.00369895
0.0061885
0.00963784
0.0143339
0.0206326
0.02869
0.0378749
0.0473812
0.0566377
0.000481336
0.000787009
0.00193621
0.00366841
0.00613619
0.00955432
0.0142065
0.0204492
0.0284933
0.0377817
0.0474747
0.0569669
0.000479575
0.000781432
0.00192124
0.00363928
0.00608586
0.0094733
0.0140819
0.0202669
0.0282828
0.0376555
0.0475218
0.0572377
0.000477816
0.000776292
0.00190742
0.00361229
0.00603903
0.00939738
0.0139643
0.0200927
0.0280703
0.0375091
0.0475365
0.057471
0.000476074
0.000771591
0.00189487
0.00358784
0.00599653
0.00932845
0.0138571
0.0199329
0.0278687
0.0373594
0.0475379
0.0576918
0.000474344
0.000767244
0.0018834
0.00356569
0.00595834
0.00926673
0.0137615
0.0197899
0.0276838
0.0372141
0.0475291
0.0578867
0.000472631
0.000763185
0.00187275
0.00354525
0.0059235
0.00921117
0.0136764
0.0196641
0.0275209
0.0370842
0.0475228
0.0580713
0.00047094
0.000759331
0.00186268
0.0035259
0.00589063
0.00915914
0.0135976
0.0195489
0.0273723
0.0369621
0.0475023
0.0581927
0.000469245
0.000755764
0.00185326
0.0035076
0.00585933
0.00910958
0.0135231
0.0194421
0.0272395
0.0368705
0.0475374
0.0584288
0.00046749
0.000752393
0.00184434
0.00349004
0.00582879
0.00906013
0.0134467
0.0193289
0.02709
0.0367493
0.0475352
0.058597
0.000465657
0.000749168
0.00183587
0.0034734
0.00579989
0.00901299
0.0133728
0.0192161
0.0269304
0.0365904
0.047462
0.0586402
0.000463755
0.000745992
0.00182765
0.00345739
0.00577231
0.0089686
0.0133042
0.0191129
0.0267857
0.0364455
0.0474044
0.0587337
0.000461792
0.000742924
0.00181973
0.00344195
0.00574584
0.00892638
0.01324
0.0190184
0.0266566
0.0363229
0.0473768
0.0588806
0.000459753
0.000739956
0.001812
0.00342671
0.00571948
0.00888411
0.0131755
0.0189238
0.0265284
0.0362022
0.0473592
0.0590548
0.000457646
0.000737089
0.00180457
0.00341193
0.00569361
0.00884197
0.0131098
0.0188243
0.0263846
0.0360382
0.0472505
0.0590359
0.000455486
0.000734431
0.00179764
0.00339805
0.00566933
0.00880257
0.0130487
0.0187325
0.0262536
0.0358908
0.0471701
0.0591046
0.000453275
0.000731922
0.0017911
0.00338483
0.00564599
0.00876441
0.0129892
0.018643
0.0261251
0.0357415
0.0470745
0.0591197
0.000451022
0.000729672
0.00178521
0.00337279
0.00562451
0.0087289
0.0129334
0.0185583
0.0260026
0.0355965
0.0469851
0.0591734
0.00044871
0.000727604
0.00177992
0.00336194
0.00560501
0.0086963
0.0128813
0.0184779
0.0258834
0.0354463
0.0468695
0.059162
0.000446385
0.000725701
0.00177524
0.00335246
0.00558813
0.00866818
0.0128364
0.018408
0.0257787
0.0353119
0.0467604
0.0591447
0.00044404
0.000723904
0.00177087
0.00334377
0.00557305
0.00864371
0.012798
0.0183491
0.0256914
0.0352022
0.0466767
0.0591384
0.000441603
0.000722027
0.00176642
0.0033351
0.00555837
0.00862059
0.0127631
0.0182976
0.0256179
0.0351171
0.0466345
0.0591905
0.000439031
0.000720017
0.00176158
0.00332555
0.00554222
0.00859545
0.0127258
0.0182442
0.025545
0.0350384
0.0466201
0.0593217
0.000436314
0.000717862
0.00175627
0.00331486
0.00552382
0.00856626
0.0126818
0.0181799
0.025454
0.0349265
0.0465488
0.0593626
0.000433487
0.000715747
0.00175089
0.0033037
0.00550406
0.00853435
0.0126329
0.0181077
0.0253508
0.0347951
0.0464472
0.0593508
0.000430605
0.000713874
0.00174598
0.00329302
0.00548445
0.00850147
0.0125809
0.0180289
0.0252355
0.034642
0.0463121
0.0593159
0.000427724
0.000712519
0.00174221
0.00328418
0.0054673
0.00847144
0.0125317
0.0179516
0.0251186
0.0344794
0.0461551
0.0592595
0.000424878
0.000711821
0.00174003
0.00327806
0.00545421
0.00844693
0.0124893
0.0178822
0.02501
0.0343228
0.0459943
0.0591906
0.00042209
0.000711897
0.00173976
0.00327547
0.00544672
0.00843041
0.0124575
0.0178261
0.0249166
0.0341809
0.0458364
0.0591007
0.000419306
0.000712791
0.00174156
0.00327672
0.00544565
0.00842385
0.0124401
0.0177896
0.0248493
0.0340722
0.04572
0.059094
0.000416477
0.000714217
0.00174489
0.00328107
0.00545013
0.00842635
0.0124366
0.0177729
0.0248079
0.0339925
0.0456127
0.0589857
0.000413619
0.000716236
0.00174962
0.00328808
0.00545938
0.00843708
0.0124467
0.0177779
0.0247994
0.0339587
0.0455592
0.0589242
0.000410605
0.000718873
0.00175571
0.00329731
0.00547208
0.00845333
0.0124664
0.0178007
0.0248257
0.0339966
0.0456674
0.0592457
0.000407433
0.00072209
0.00176304
0.00330824
0.00548649
0.00847042
0.0124845
0.0178172
0.0248371
0.0340029
0.0457095
0.059414
0.00040416
0.000726329
0.00177267
0.00332305
0.00550634
0.008494
0.0125086
0.017836
0.0248407
0.033978
0.0456691
0.0594435
0.000400738
0.000731641
0.0017849
0.00334284
0.00553429
0.00852956
0.0125492
0.0178756
0.0248684
0.0339769
0.045643
0.0594824
0.000397052
0.000737918
0.00179967
0.00336735
0.00557033
0.00857793
0.0126092
0.0179439
0.024937
0.0340326
0.0456852
0.0595667
0.000393093
0.000745428
0.0018169
0.00339574
0.0056125
0.00863565
0.0126832
0.0180336
0.0250395
0.0341437
0.0458229
0.059797
0.000388752
0.000754149
0.00183664
0.00342804
0.00565973
0.00869967
0.0127645
0.018131
0.0251498
0.0342632
0.0459728
0.0601021
0.00038394
0.000764477
0.00185979
0.00346593
0.0057144
0.00877227
0.012854
0.0182329
0.0252548
0.0343544
0.0460404
0.0602697
0.000378647
0.000777072
0.00188784
0.00351206
0.00578129
0.00886097
0.0129629
0.0183559
0.0253793
0.0344565
0.0460902
0.0603503
0.000372764
0.000792526
0.00192211
0.00356885
0.00586417
0.0089716
0.0131001
0.0185137
0.0255446
0.0346072
0.0462029
0.0605268
0.000366072
0.000811557
0.00196407
0.00363899
0.00596738
0.00911026
0.0132735
0.0187156
0.0257607
0.0348121
0.0463611
0.0606981
0.000358065
0.000834735
0.00201525
0.0037252
0.00609497
0.00928266
0.0134906
0.0189708
0.0260373
0.0350814
0.0465846
0.0609412
0.000347694
0.000863133
0.00207795
0.00383077
0.00625171
0.00949631
0.0137621
0.0192941
0.0263949
0.0354384
0.0468769
0.0611157
0.000332079
0.000896845
0.00215276
0.00395723
0.00643948
0.00975253
0.0140886
0.0196858
0.0268377
0.0359095
0.0473568
0.0616637
0.000303581
0.00093644
0.00224291
0.00410975
0.00666427
0.010056
0.0144703
0.0201355
0.0273328
0.0364111
0.0478108
0.0620372
0.000255015
0.000983558
0.00235321
0.00429649
0.00693756
0.01042
0.0149198
0.0206516
0.0278786
0.036927
0.0482075
0.0622069
0.000231148
0.00104952
0.00249181
0.00453054
0.00727932
0.0108717
0.0154705
0.0212731
0.0285222
0.0375212
0.0486542
0.0623893
0.00023333
0.00114658
0.0026773
0.00484063
0.00772912
0.0114586
0.016173
0.0220486
0.029307
0.0382337
0.0492014
0.062696
0.000243009
0.0013352
0.00304923
0.00541359
0.00850334
0.0124045
0.0172374
0.0231559
0.0303644
0.0391416
0.0498473
0.0629475
0.000384635
0.00200836
0.00430951
0.00718403
0.0106224
0.0147004
0.0195542
0.0253277
0.0322387
0.0406357
0.0508748
0.0634013
0.00116136
0.00459506
0.00886121
0.0137135
0.0190934
0.0249432
0.0312034
0.0378124
0.0447055
0.0518148
0.0590814
0.0664696
0.000125218
0.00191879
0.00491467
0.00877601
0.0134866
0.0189789
0.025176
0.031967
0.039236
0.0468601
0.0547207
0.0627308
0.000643038
0.00175616
0.00410161
0.00726097
0.0112744
0.0161343
0.0218204
0.0282752
0.0354047
0.0430813
0.0511528
0.0594601
0.000658639
0.00157956
0.00360563
0.00635597
0.00990034
0.0142776
0.0195131
0.0255972
0.0324744
0.0400393
0.0481394
0.0565894
0.000673796
0.00138689
0.00318425
0.00564765
0.00885738
0.0128728
0.0177455
0.023498
0.030109
0.0375028
0.0455451
0.0540596
0.000676053
0.00123628
0.00286208
0.00510749
0.00805858
0.0117844
0.0163526
0.0218081
0.0281576
0.0353546
0.0432911
0.0518137
0.000677583
0.00112581
0.00261618
0.00468808
0.00743031
0.0109165
0.0152245
0.0204154
0.0265178
0.0335115
0.0413145
0.0497853
0.000677781
0.0010401
0.00241931
0.00434815
0.00691711
0.0102013
0.0142851
0.0192418
0.0251176
0.031917
0.0395919
0.0480451
0.000678259
0.000971191
0.00225716
0.0040656
0.00648815
0.00959948
0.0134888
0.0182382
0.0239087
0.0305262
0.038071
0.0464721
0.000678804
0.00091473
0.00212146
0.00382727
0.00612393
0.00908562
0.0128043
0.0173685
0.0228504
0.0292895
0.0366725
0.044882
0.000679205
0.000867685
0.0020063
0.00362389
0.00581018
0.00864064
0.0122079
0.0166053
0.0219122
0.028178
0.0354004
0.043508
0.00067949
0.000827904
0.00190718
0.00344764
0.00553633
0.00825046
0.0116823
0.015928
0.0210725
0.0271736
0.0342413
0.0422195
0.0006797
0.000793974
0.00182078
0.00329293
0.00529458
0.00790469
0.0112143
0.0153214
0.0203153
0.0262617
0.0331838
0.0410489
0.000680352
0.000769131
0.00174463
0.00315571
0.0050791
0.00759543
0.010794
0.014774
0.0196285
0.0254303
0.0322143
0.0399614
0.000682638
0.000760568
0.00167692
0.00303294
0.00488541
0.00731661
0.0104137
0.0142768
0.0190019
0.0246677
0.0313177
0.0389375
0.000686322
0.000762739
0.00161635
0.00292231
0.00471008
0.00706359
0.0100677
0.0138229
0.0184279
0.0239668
0.0304933
0.0380161
0.000690392
0.000767972
0.0015619
0.00282193
0.00455028
0.00683262
0.009751
0.0134063
0.017899
0.0233167
0.029715
0.0370767
0.000694174
0.000772875
0.0015128
0.00273057
0.0044046
0.00662079
0.00945995
0.0130224
0.0174101
0.0227143
0.0290003
0.0363019
0.000697469
0.000776658
0.00146837
0.00264721
0.00427139
0.00642577
0.00919137
0.0126673
0.0169565
0.0221526
0.0283223
0.0354683
0.000700301
0.000779372
0.00142804
0.00257088
0.00414893
0.00624551
0.00894259
0.0123376
0.016534
0.0216273
0.0276889
0.0347501
0.000702734
0.000781208
0.0013914
0.00250066
0.00403577
0.0060783
0.00871134
0.0120305
0.0161394
0.0211357
0.0270961
0.034062
0.000704844
0.000782517
0.00135941
0.00243582
0.00393075
0.00592262
0.00849568
0.0117435
0.0157702
0.0206758
0.0265449
0.0334402
0.000706822
0.000784447
0.00133799
0.00237595
0.003833
0.00577724
0.00829402
0.0114749
0.0154244
0.0202453
0.0260279
0.0328361
0.000708922
0.000788398
0.00133078
0.00232087
0.00374173
0.00564112
0.00810501
0.0112229
0.0150997
0.0198399
0.025536
0.0322469
0.000711246
0.000794392
0.00133286
0.00227027
0.00365638
0.00551335
0.00792745
0.0109861
0.0147945
0.0194596
0.0250822
0.03176
0.000713719
0.00080151
0.00133834
0.00222365
0.00357635
0.00539315
0.00776035
0.0107631
0.0145068
0.0190998
0.0246411
0.0311818
0.00071617
0.000808669
0.00134383
0.00218051
0.00350125
0.00528021
0.00760281
0.0105527
0.0142348
0.0187575
0.0242183
0.0306792
0.000718531
0.000815336
0.00134809
0.00214042
0.0034308
0.00517422
0.00745407
0.0103537
0.013977
0.0184325
0.0238198
0.0302205
0.000720775
0.000821184
0.00135082
0.00210304
0.00336465
0.00507448
0.00731339
0.0101652
0.0137323
0.0181234
0.0234404
0.029764
0.000722808
0.000826183
0.0013521
0.00206808
0.00330244
0.00498033
0.00718007
0.00998626
0.0134997
0.0178293
0.0230793
0.0293363
0.000724669
0.000830459
0.00135213
0.00203525
0.00324376
0.00489125
0.00705353
0.00981617
0.0132783
0.0175494
0.0227354
0.0289264
0.000726382
0.000834093
0.00135112
0.00200441
0.00318836
0.00480679
0.00693326
0.00965432
0.0130675
0.0172825
0.0224065
0.0285288
0.000727975
0.000837218
0.00134928
0.0019755
0.0031359
0.0047266
0.0068188
0.00950015
0.0128666
0.0170278
0.0220921
0.0281522
0.000729465
0.000839916
0.00134689
0.00194904
0.00308621
0.00465035
0.0067097
0.00935309
0.0126747
0.0167843
0.0217906
0.0277848
0.000730875
0.00084233
0.00134452
0.001927
0.00303916
0.00457774
0.00660559
0.00921265
0.0124913
0.016551
0.0215004
0.027429
0.000732249
0.000844716
0.00134322
0.00191242
0.00299484
0.00450854
0.00650615
0.00907837
0.0123157
0.0163272
0.0212221
0.0270958
0.000733641
0.000847377
0.00134402
0.00190627
0.00295337
0.00444257
0.00641106
0.00894989
0.0121476
0.016113
0.0209566
0.0267811
0.000735103
0.00085055
0.00134726
0.00190651
0.0029147
0.0043797
0.00632025
0.0088269
0.0119866
0.0159078
0.0207025
0.0264734
0.000736666
0.000854258
0.00135255
0.00191029
0.00287869
0.00431983
0.00623376
0.00870909
0.0118322
0.0157107
0.0204557
0.0261621
0.000738324
0.000858419
0.00135919
0.00191542
0.00284505
0.00426287
0.00615127
0.00859618
0.0116841
0.0155219
0.0202239
0.0259142
0.000740054
0.000862816
0.00136643
0.00192066
0.00281355
0.00420865
0.00607248
0.00848796
0.0115421
0.0153412
0.0200021
0.0256423
0.000741828
0.000867253
0.00137374
0.00192538
0.00278389
0.00415701
0.00599715
0.00838421
0.0114061
0.0151685
0.0197891
0.0253872
0.000743624
0.000871586
0.00138074
0.00192931
0.00275589
0.00410781
0.00592505
0.00828474
0.0112757
0.0150029
0.0195852
0.0251441
0.000745424
0.000875709
0.00138724
0.00193237
0.00272937
0.00406086
0.0058561
0.0081894
0.0111507
0.0148443
0.0193895
0.0249063
0.000747221
0.000879583
0.00139311
0.00193454
0.00270415
0.00401603
0.00579004
0.00809802
0.0110309
0.0146918
0.0191987
0.0246579
0.000749011
0.000883174
0.00139835
0.00193591
0.00268018
0.00397319
0.00572678
0.00801039
0.0109158
0.0145446
0.019012
0.0244176
0.000750796
0.000886524
0.001403
0.00193655
0.00265739
0.00393227
0.00566628
0.00792631
0.0108051
0.0144027
0.0188333
0.0242071
0.000752579
0.000889633
0.00140709
0.00193658
0.0026359
0.00389315
0.00560821
0.00784552
0.0106988
0.0142659
0.0186585
0.0239774
0.000754367
0.000892531
0.00141069
0.00193617
0.00261607
0.00385591
0.00555267
0.00776808
0.0105966
0.0141346
0.018498
0.023832
0.00075617
0.000895257
0.0014139
0.0019356
0.00259866
0.00382031
0.00549935
0.00769355
0.0104983
0.0140085
0.0183409
0.0236072
0.000757998
0.000897866
0.00141691
0.00193534
0.00258488
0.00378648
0.00544824
0.00762196
0.0104038
0.0138873
0.0181888
0.0234265
0.000759834
0.000900367
0.00141989
0.00193589
0.00257574
0.00375452
0.00539932
0.00755338
0.0103131
0.0137709
0.0180411
0.0232337
0.000761724
0.000902908
0.0014231
0.00193774
0.00257159
0.00372475
0.00535287
0.00748821
0.0102263
0.0136591
0.0178997
0.0230637
0.000763733
0.000905542
0.00142677
0.00194122
0.00257155
0.00369701
0.0053086
0.00742609
0.0101434
0.013552
0.0177648
0.0228994
0.00076587
0.000908338
0.00143109
0.00194621
0.00257433
0.00367123
0.00526651
0.00736683
0.0100639
0.0134497
0.0176364
0.0227463
0.000768164
0.000911441
0.00143608
0.00195237
0.0025789
0.00364754
0.0052268
0.0073106
0.00998813
0.0133519
0.0175139
0.0225963
0.000770543
0.000914652
0.00144157
0.00195945
0.00258445
0.00362558
0.00518918
0.00725707
0.00991586
0.0132586
0.0173967
0.0224485
0.000773051
0.000918014
0.00144749
0.00196711
0.0025904
0.00360525
0.00515365
0.00720628
0.00984715
0.0131698
0.0172841
0.0223024
0.000775709
0.000921575
0.00145374
0.00197511
0.00259657
0.00358664
0.0051204
0.00715842
0.00978197
0.0130853
0.0171759
0.0221623
0.000778444
0.000924932
0.00146007
0.00198323
0.00260254
0.00356942
0.00508915
0.00711329
0.00972057
0.0130052
0.0170725
0.0220275
0.000781313
0.000928627
0.00146647
0.00199122
0.00260827
0.0035536
0.00506
0.00707092
0.00966265
0.0129296
0.0169744
0.0219017
0.000784686
0.000932538
0.0014731
0.00199919
0.00261378
0.00353938
0.00503323
0.0070317
0.00960862
0.0128584
0.0168815
0.021781
0.000788111
0.000936314
0.00147958
0.00200693
0.00261908
0.00352654
0.00500867
0.00699542
0.0095584
0.0127919
0.0167949
0.0216738
0.000791767
0.000940136
0.00148594
0.00201445
0.00262422
0.0035152
0.00498649
0.00696237
0.00951234
0.0127306
0.0167149
0.0215703
0.000795714
0.000943931
0.00149217
0.00202175
0.00262925
0.00350543
0.00496682
0.00693277
0.0094707
0.012675
0.0166426
0.0214828
0.000799937
0.000947834
0.00149834
0.00202899
0.00263444
0.00349752
0.0049501
0.00690708
0.00943394
0.0126256
0.0165774
0.0213932
0.000804416
0.000951431
0.0015043
0.00203598
0.00263961
0.00349145
0.00493634
0.00688552
0.00940286
0.0125833
0.016522
0.0213347
0.00080934
0.000955494
0.00151034
0.00204301
0.00264497
0.00348754
0.00492606
0.00686872
0.00937795
0.0125493
0.0164778
0.0212803
0.000815238
0.000959862
0.00151655
0.00205008
0.00265082
0.00348642
0.00492012
0.00685778
0.00936061
0.0125245
0.0164442
0.0212285
0.000821687
0.000964316
0.00152289
0.00205741
0.00265742
0.0034885
0.00491922
0.00685364
0.00935206
0.0125106
0.0164227
0.0211945
0.000829061
0.00096889
0.00152929
0.00206501
0.00266493
0.00349434
0.00492432
0.00685774
0.00935412
0.0125093
0.016414
0.0211643
0.000837884
0.000974967
0.00153739
0.00207424
0.00267487
0.00350712
0.00493924
0.00687408
0.00937053
0.0125243
0.0164254
0.0211868
0.00084679
0.000975421
0.00154096
0.00208079
0.00268355
0.0035212
0.00495904
0.00689929
0.00940021
0.0125565
0.0164555
0.0211848
0.000889012
0.00101593
0.00157128
0.0021092
0.00271609
0.00357888
0.00502912
0.00697652
0.00948002
0.012633
0.0165224
0.0212633
0.00044651
0.000824258
0.0015032
0.0020524
0.00265253
0.00350608
0.00495896
0.00691623
0.00943707
0.0126156
0.0165401
0.0213079
0.137515
0.131245
0.112613
0.140076
0.133623
0.0381845
0.117671
0.138732
0.135041
0.0744164
0.0698689
0.0549322
0.127952
0.137268
0.128479
0.101682
0.131877
0.0391539
0.132179
0.179341
0.0765088
0.138025
0.121536
0.0826061
0.137744
0.121274
0.13894
0.102094
0.0811821
0.135065
0.137762
0.0611456
0.116079
0.103741
0.13773
0.03051
0.110461
0.0928745
0.135412
0.120456
0.106171
0.135235
0.126934
0.0973004
0.132913
0.0781135
0.110254
0.138398
0.139062
0.127426
0.140026
0.118221
0.139534
0.0939599
0.0811815
0.347162
0.12738
0.107864
0.078323
0.124716
0.140072
0.101816
0.089403
0.118209
0.134798
0.111727
0.123927
0.0981772
0.136298
0.106496
0.276883
0.104472
0.0743254
0.331602
0.0804692
0.0578295
0.10017
0.130755
0.0553004
0.0874137
0.12562
0.125259
0.117152
0.139959
0.128356
0.100422
0.127098
0.120345
0.282428
0.0977296
0.137932
0.139801
0.139949
0.121004
0.139869
0.0920007
0.13888
0.116172
0.136365
0.0698086
0.0805537
0.0556767
0.0737472
0.109205
0.109786
0.116915
0.135381
0.138934
0.0949411
0.128344
0.0475525
0.137764
0.1382
0.0175655
0.121706
0.142107
0.123354
0.0840837
0.0939957
0.248132
0.138924
0.0972483
0.0702056
0.119376
0.0716541
0.121349
0.105776
0.0278832
0.138689
0.10822
0.113286
0.0599615
0.140003
0.128762
0.099096
0.13642
0.0962672
0.136009
0.122883
0.12613
0.138556
0.139364
0.138435
0.126156
0.10727
0.0868518
0.113218
0.131582
0.0685647
0.103698
0.145589
0.13576
0.116259
0.138216
0.0331596
0.135304
0.118384
0.126859
0.106172
0.12892
0.098029
0.0841118
0.104298
0.0591144
0.129173
0.309526
0.0970748
0.123542
0.108675
0.067317
0.0493027
0.1347
0.135501
0.0704068
0.0486219
0.138425
0.116046
0.0887288
0.132977
0.137465
0.122806
0.0918213
0.137502
0.130104
0.139888
0.177655
0.136639
0.0862623
0.138345
0.293961
0.136445
0.113626
0.0847436
0.110022
0.114849
0.0794381
0.103385
0.0727738
0.121514
0.102124
0.137187
0.120824
0.138272
0.0825828
0.106517
0.117322
0.13608
0.0862934
0.107506
0.177155
0.112633
0.11055
0.118271
0.136972
0.091711
0.0158811
0.0707555
0.121605
0.0433831
0.0733741
0.117333
0.132537
0.129376
0.125921
0.116358
0.138632
0.0876194
0.124785
0.138188
0.0382781
0.110245
0.113932
0.128958
0.0497751
0.0897524
0.12987
0.095269
0.101316
0.137169
0.139594
0.131198
0.0750721
0.135759
0.140035
0.11064
0.0528416
0.139929
0.117103
0.107282
0.139106
0.124683
0.120308
0.0767226
0.12686
0.125746
0.0945349
0.0435092
0.130653
0.0915946
0.101248
0.108695
0.137195
0.125164
0.105003
0.074474
0.127989
0.135839
0.137325
0.14008
0.0946324
0.126626
0.136812
0.12125
0.0668804
0.0667319
0.0977708
0.133384
0.104562
0.136884
0.0629451
0.0824938
0.0496283
0.139904
0.0713433
0.0933646
0.136308
0.128535
0.138585
0.13676
0.0265332
0.0521701
0.122494
0.11975
0.111186
0.113045
0.131851
0.120934
0.140036
0.0895006
0.0584156
0.0685645
0.106839
0.0516093
0.115816
0.138007
0.138326
0.121265
0.136688
0.0726919
0.0496482
0.117843
0.0925479
0.136624
0.0426465
0.22878
0.136165
0.0339176
0.135696
0.139361
0.0778817
0.121302
0.120265
0.126058
0.138003
0.131705
0.0780454
0.135818
0.139347
0.0564085
0.134908
0.131266
0.0959702
0.0539492
0.125883
0.111353
0.0849676
0.0839427
0.142371
0.140456
0.135406
0.175864
0.12057
0.118822
0.263805
0.111101
0.0939769
0.135956
0.119139
0.145405
0.12777
0.136606
0.140041
0.122048
0.0361558
0.126435
0.138982
0.136868
0.138001
0.219393
0.0883594
0.10285
0.13784
0.120238
0.134152
0.0567504
0.190477
0.129609
0.110336
0.137183
0.085646
0.12851
0.0904774
0.137303
0.13952
0.0320214
0.0773197
0.0493248
0.074417
0.156593
0.0559506
0.137259
0.114763
0.131016
0.136851
0.103426
0.136738
0.0750459
0.0428389
0.0928724
0.111713
0.0708709
0.0555501
0.140018
0.125642
0.132505
0.137178
0.0875183
0.0672165
0.129873
0.089312
0.131449
0.0625342
0.0570344
0.111743
0.136449
0.112588
0.0877157
0.0389386
0.112211
0.0299101
0.0631118
0.107948
0.139927
0.136521
0.112222
0.0756933
0.065485
0.137928
0.137928
0.139007
0.134802
0.120958
0.138387
0.111016
0.137213
0.138193
0.0931869
0.134169
0.121101
0.111668
0.135304
0.0508912
0.126796
0.0916389
0.13095
0.0866248
0.0491145
0.137297
0.0755793
0.108804
0.084238
0.0898724
0.138207
0.116219
0.132222
0.0946642
0.139488
0.129942
0.0986103
0.122008
0.123655
0.135021
0.0560905
0.158789
0.0919509
0.0760424
0.14004
0.13389
0.0859846
0.138605
0.135691
0.109376
0.138494
0.0816603
0.0801193
0.140061
0.137192
0.086977
0.0277714
0.105244
0.0835019
0.079979
0.131646
0.0376654
0.068993
0.083315
0.0755675
0.0738064
0.140082
0.119072
0.108215
0.126629
0.107092
0.086155
0.110084
0.132086
0.134164
0.106754
0.138483
0.139001
0.0735647
0.137014
0.0534374
0.138637
0.135164
0.136114
0.120899
0.0978621
0.133493
0.117863
0.139114
0.0875492
0.13872
0.126217
0.110117
0.1396
0.110319
0.134158
0.0602746
0.134617
0.114739
0.118188
0.0975484
0.113648
0.0404191
0.093861
0.0766673
0.138075
0.140073
0.0903753
0.262037
0.133377
0.0767504
0.128806
0.140029
0.114052
0.103875
0.0452574
0.0422829
0.0713442
0.0828671
0.118872
0.0821932
0.0628315
0.137981
0.0708838
0.135247
0.0678092
0.0869155
0.0897344
0.0302898
0.137994
0.109428
0.104471
0.0405468
0.140049
0.120583
0.0265887
0.0928507
0.122248
0.127664
0.102259
0.0339135
0.13541
0.0923994
0.139266
0.138686
0.0340044
0.0686644
0.0423164
0.133533
0.132455
0.125562
0.101609
0.124444
0.139867
0.0877106
0.134331
0.115025
0.0407845
0.137081
0.120226
0.125746
0.0903044