/*--------------------------------*- C++ -*----------------------------------*\
| =========                 |                                                 |
| \\      /  F ield         | OpenFOAM: The Open Source CFD Toolbox           |
|  \\    /   O peration     | Version:  2.3.0                                 |
|   \\  /    A nd           | Web:      www.OpenFOAM.org                      |
|    \\/     M anipulation  |                                                 |
\*---------------------------------------------------------------------------*/
FoamFile
{
    version     2.0;
    format      ascii;
    class       surfaceScalarField;
    location    "7000";
    object      phi;
}
// * * * * * * * * * * * * * * * * * * * * * * * * * * * * * * * * * * * * * //

dimensions      [0 3 -1 0 0 0 0];

internalField   nonuniform List<scalar> 
13381
(
-0.021585
-0.0237004
0.0269908
0.0182947
-0.0242166
-0.0195239
0.0221555
-0.0262335
-0.0160718
0.0180887
-0.0276306
-0.0132005
0.0145976
-0.0284092
-0.0108032
0.0115818
-0.0286145
-0.00879727
0.0090025
-0.0283309
-0.00712104
0.00683748
-0.0276678
-0.0057254
0.00506228
-0.0267308
-0.00457129
0.00363431
-0.0256078
-0.0036291
0.00250618
-0.0243952
-0.00287035
0.00165774
-0.00225859
-0.0233427
0.00120604
-0.0185343
-0.0211729
0.0160068
-0.0203687
-0.0176896
-0.0216433
-0.0147972
-0.0224433
-0.0124005
-0.0228281
-0.0104184
-0.0228437
-0.00878165
-0.0225295
-0.00743519
-0.0219243
-0.00633067
-0.0210687
-0.00542688
-0.0200026
-0.00469519
-0.018771
-0.00410196
-0.00362841
-0.0174011
-0.0161644
-0.0191072
0.0140987
-0.017593
-0.016261
-0.0184978
-0.0138924
-0.018964
-0.0119343
-0.0190722
-0.0103101
-0.0188881
-0.00896576
-0.0184681
-0.00785519
-0.0178626
-0.00693609
-0.0171102
-0.00617929
-0.0162485
-0.00555694
-0.0153028
-0.00504765
-0.00463227
-0.0142989
-0.0141383
-0.017369
0.0124
-0.0153289
-0.0150704
-0.0160603
-0.013161
-0.0164206
-0.011574
-0.0164755
-0.0102552
-0.0162817
-0.00915959
-0.0158892
-0.00824768
-0.0153373
-0.00748804
-0.0146592
-0.00685735
-0.0138838
-0.00633233
-0.0130348
-0.0058967
-0.00553828
-0.0121288
-0.012421
-0.0158718
0.0109238
-0.0134339
-0.0140575
-0.0140496
-0.0125453
-0.0143382
-0.0112854
-0.014364
-0.0102294
-0.0141773
-0.00934622
-0.013819
-0.00860601
-0.0133249
-0.00798215
-0.0127224
-0.0074599
-0.012035
-0.00701966
-0.0112819
-0.0066498
-0.006341
-0.0104792
-0.0109639
-0.0145553
0.00964742
-0.0118501
-0.0131713
-0.0123868
-0.0120086
-0.012637
-0.0110353
-0.0126552
-0.0102112
-0.0124855
-0.00951593
-0.0121643
-0.00892718
-0.0117195
-0.0084269
-0.0111794
-0.00800004
-0.0105617
-0.00763738
-0.00988247
-0.007329
-0.00706676
-0.00915671
-0.00971656
-0.0133879
0.00854908
-0.0105034
-0.0123844
-0.0109793
-0.0115326
-0.0112031
-0.0108115
-0.0112184
-0.0101959
-0.0110656
-0.00966872
-0.0107771
-0.00921573
-0.0103798
-0.00882421
-0.00989213
-0.00848767
-0.00933502
-0.00819449
-0.00872216
-0.00794187
-0.00772444
-0.00806448
-0.0086448
-0.0123497
0.00760665
-0.00935031
-0.0116789
-0.00977567
-0.0111073
-0.00997662
-0.0106105
-0.00999129
-0.0101812
-0.0098575
-0.0098025
-0.00959877
-0.00947447
-0.00923914
-0.00918384
-0.00880063
-0.00892618
-0.00829635
-0.00869876
-0.00774044
-0.00849778
-0.00832137
-0.0071435
-0.00771337
-0.011418
0.00678159
-0.00834563
-0.0110467
-0.00873269
-0.0107202
-0.0089158
-0.0104274
-0.00893238
-0.0101647
-0.00881028
-0.0099246
-0.00857849
-0.00970625
-0.00825581
-0.00950652
-0.00785835
-0.00932364
-0.00740153
-0.00915559
-0.00689737
-0.00900193
-0.00886287
-0.00635587
-0.00690257
0.00605624
-0.0105716
-0.00747193
-0.0104773
-0.00782156
-0.0103706
-0.00799069
-0.0102583
-0.00800364
-0.0101517
-0.00789618
-0.0100321
-0.00768853
-0.0099139
-0.00739823
-0.00979682
-0.00703837
-0.0096835
-0.00662316
-0.0095708
-0.00616625
-0.00945884
-0.0056747
-0.00935442
-0.020762
-0.00206364
-0.000517004
-0.0185721
-0.00226309
7.31735e-05
-0.0165282
-0.00257566
0.000531727
-0.0145788
-0.00300737
0.0010579
-0.012737
-0.00357471
0.00173296
-0.0110456
-0.00430476
0.00261334
-0.00956974
-0.00523293
0.00375708
-0.0083882
-0.00640257
0.00522104
-0.00758341
-0.00786782
0.00706302
-0.00723352
-0.00969604
0.00934616
-0.00741144
-0.011973
0.0121509
-0.0148126
0.0155932
-0.00819208
-0.0159597
-0.00350505
-0.0145222
-0.00370061
-0.0131268
-0.00397107
-0.0118059
-0.00432824
-0.0105851
-0.00479559
-0.00949466
-0.00539516
-0.0085683
-0.00615929
-0.00784356
-0.00712731
-0.00736775
-0.00834363
-0.00720037
-0.00986342
-0.00741863
-0.0117547
-0.0141093
-0.00812186
-0.0132755
-0.00452851
-0.0122611
-0.00471499
-0.0112713
-0.00496081
-0.0103192
-0.00528038
-0.00942313
-0.00569164
-0.00860795
-0.00621034
-0.00790336
-0.00686389
-0.00735167
-0.007679
-0.00700249
-0.00869281
-0.00691731
-0.0099486
-0.00716945
-0.0115026
-0.0134345
-0.00784433
-0.0112167
-0.00544052
-0.0103397
-0.00559205
-0.00950654
-0.00579395
-0.00872879
-0.00605813
-0.00802108
-0.00639934
-0.00740158
-0.00682984
-0.00689429
-0.00737117
-0.00652865
-0.00804465
-0.00634221
-0.00887924
-0.00638267
-0.00990814
-0.00671222
-0.011173
-0.0127306
-0.00741613
-0.00967314
-0.00624657
-0.00890831
-0.00635688
-0.00819153
-0.00651073
-0.00753296
-0.0067167
-0.00694609
-0.00698621
-0.00644603
-0.0073299
-0.00605402
-0.00776319
-0.00579506
-0.00830361
-0.00570178
-0.00897252
-0.00581566
-0.00979426
-0.0061872
-0.0108015
-0.0120421
-0.00687567
-0.00842979
-0.00697349
-0.00774664
-0.00704003
-0.00711249
-0.00714488
-0.00653839
-0.0072908
-0.00603626
-0.00748834
-0.00562
-0.00774616
-0.00530835
-0.00807483
-0.00512535
-0.00848661
-0.00509885
-0.00899901
-0.00526427
-0.00962885
-0.00566464
-0.0104011
-0.0113425
-0.00636425
-0.0074083
-0.00762967
-0.00679221
-0.00765611
-0.0062271
-0.00771
-0.00571967
-0.00779822
-0.00528147
-0.00792654
-0.00492679
-0.00810083
-0.00467265
-0.00832897
-0.00453907
-0.00862019
-0.00455278
-0.0089853
-0.00474551
-0.00943611
-0.00515576
-0.00999085
-0.0106706
-0.00582766
-0.00654721
-0.00822597
-0.00599187
-0.00821145
-0.00548349
-0.00821838
-0.00503035
-0.00825136
-0.00464464
-0.00831225
-0.00433751
-0.00840796
-0.00412567
-0.00854081
-0.00402733
-0.00871853
-0.00406627
-0.00894637
-0.00427339
-0.00922899
-0.00468146
-0.00958278
-0.0100184
-0.00533366
-0.00581391
-0.00876793
-0.00530996
-0.0087154
-0.00485132
-0.00867701
-0.00444553
-0.00865715
-0.00410238
-0.00865541
-0.00383431
-0.00867604
-0.0036551
-0.00872002
-0.00358144
-0.00879218
-0.00363558
-0.00889223
-0.00384584
-0.00901873
-0.0042432
-0.00918542
-0.0093961
-0.00486548
-0.00518202
-0.0092606
-0.0047256
-0.00917183
-0.00431099
-0.00909162
-0.00394592
-0.00902222
-0.00363949
-0.00896183
-0.00340338
-0.00891215
-0.00324944
-0.00887395
-0.00319622
-0.00884541
-0.00325908
-0.00882937
-0.00346465
-0.00881316
-0.0038421
-0.00880797
-0.00881105
-0.00442715
0.00368033
-0.00158405
0.00159636
-0.00369264
0.00360133
-0.00164051
0.00171951
0.00351444
-0.00143648
0.00152338
0.00342671
-0.00109627
0.001184
0.00331762
-0.000700058
0.000809148
0.00315323
-0.000292739
0.000457128
0.00289272
0.000107846
0.000152659
0.00249048
0.000503444
-0.000101202
0.00189364
0.000907677
-0.000310837
0.00103494
0.00134782
-0.000489114
-0.000179561
0.00186567
-0.00065117
0.00252501
-0.00190747
-0.000797097
0.00324724
-0.00146564
-0.00336565
0.00306278
-0.00145606
0.00285128
-0.00122498
0.00262363
-0.000868628
0.00237091
-0.000447334
0.00207133
6.84514e-06
0.00169641
0.000482767
0.00121457
0.000985279
0.000593976
0.00152827
-0.000191769
0.00213356
-0.00114425
0.00281815
0.0035743
-0.00219354
0.00272943
-0.00127626
-0.00291881
0.00247719
-0.00120382
0.00220157
-0.000949366
0.00191611
-0.000583169
0.00161784
-0.000149059
0.00129202
0.000332661
0.0009171
0.00085769
0.000470027
0.00143235
-7.11569e-05
0.00206945
-0.000720125
0.00278253
-0.00147986
0.00357789
0.00443503
-0.00234059
0.00223272
-0.00104661
-0.00246237
0.00195913
-0.000930226
0.00167503
-0.000665268
0.00139297
-0.000301113
0.00110918
0.000134732
0.000810434
0.00063141
0.000478359
0.00118977
9.18806e-05
0.00181883
-0.000368191
0.00252953
-0.000922028
0.00333637
-0.00158315
0.00423901
0.00522143
-0.00236954
0.00180312
-0.000809113
-0.00204062
0.00153942
-0.000666523
0.00127661
-0.000402459
0.00102191
-4.64137e-05
0.000770172
0.000386473
0.000508722
0.000892861
0.000220541
0.00147795
-0.000113148
0.00215252
-0.000514218
0.0029306
-0.00100183
0.00382397
-0.00159982
0.004837
0.00594696
-0.00232535
0.00144329
-0.000583862
-0.00166855
0.00120789
-0.000431115
0.000978048
-0.00017262
0.000757431
0.000174203
0.000539784
0.00060412
0.000313564
0.00111908
6.29743e-05
0.00172854
-0.000230185
0.00244568
-0.000586089
0.0032865
-0.00102506
0.00426294
-0.0015685
0.00538044
0.00661392
-0.00223546
0.00115678
-0.00038332
-0.00135732
0.000952479
-0.000226816
0.000755845
2.40137e-05
0.000567181
0.000362867
0.000380011
0.000791291
0.000182862
0.00131623
-3.76132e-05
0.00194901
-0.000298038
0.0027061
-0.000616857
0.00360532
-0.00101569
0.00466178
-0.00151259
0.00587734
0.00722806
-0.00212673
0.000927747
-0.000209262
-0.00110181
0.000753952
-5.30212e-05
0.000587962
0.000190004
0.000428533
0.000522296
0.000267621
0.000952203
9.52233e-05
0.00148863
-0.000101405
0.00214564
-0.000334417
0.00293912
-0.000623976
0.00389488
-0.000988178
0.00502598
-0.00144209
0.00633125
0.00778899
-0.00200301
0.000742736
-6.27093e-05
-0.000889289
0.000596935
9.27803e-05
0.000458289
0.000328649
0.000325294
0.000655291
0.000188847
0.00108865
3.67429e-05
0.00164073
-0.000141445
0.00232383
-0.000354736
0.00315241
-0.000618841
0.00415898
-0.000949061
0.0053562
-0.00136118
0.00674337
0.00830075
-0.00187295
0.000598817
5.60663e-05
-0.000717593
0.000473283
0.000218314
0.000353737
0.000448195
0.000243582
0.000765446
0.000127033
0.0012052
-6.1891e-06
0.00177395
-0.000174145
0.00249178
-0.000373548
0.00335181
-0.00061175
0.00439718
-0.000923661
0.00566811
-0.0013002
0.00711991
-0.00176901
0.00876956
-0.00263355
0.00375649
-0.00303041
-0.00372474
0.00531404
-0.00422285
-0.00489232
0.00655718
-0.0053896
-0.00591721
0.007685
-0.00666011
-0.00672974
0.0089341
-0.00812157
-0.00727916
0.0103605
-0.00981105
-0.00752312
0.0120156
-0.0117716
-0.00740978
0.013961
-0.0140743
-0.00688227
0.0162553
-0.0167828
-0.00586875
0.0189724
-0.0199859
-0.00429227
0.0221999
-0.0237764
0.026031
-0.0282673
-0.00205605
-0.00311377
0.00467672
-0.00408704
0.00628731
-0.00512872
0.00759887
-0.00602705
0.00858333
-0.00671087
0.00961792
-0.00714893
0.0107985
-0.00731017
0.0121768
-0.00714829
0.0137991
-0.00661558
0.0157226
-0.00564942
0.0180063
-0.00416716
0.0207177
0.0239487
-0.00208481
-0.00326729
0.00560342
-0.00417229
0.00719232
-0.00508032
0.00850689
-0.0058636
0.00936662
-0.00645271
0.010207
-0.00682621
0.011172
-0.00694674
0.0122973
-0.00677799
0.0136304
-0.00627007
0.0152147
-0.00536604
0.0171022
-0.00399734
0.019349
0.0220199
-0.00206855
-0.00324781
0.00648168
-0.00410414
0.00804865
-0.00490622
0.00930897
-0.00559163
0.010052
-0.00610683
0.0107222
-0.00642649
0.0114917
-0.00652191
0.0123928
-0.00635528
0.0134637
-0.00588407
0.0147434
-0.00505053
0.0162687
-0.00379031
0.0180888
0.0202556
-0.00202598
-0.00313894
0.00729527
-0.0039356
0.00884531
-0.00465601
0.0100294
-0.00526086
0.0106569
-0.00571667
0.011178
-0.0059951
0.0117701
-0.00607209
0.0124697
-0.00591677
0.0133084
-0.00548208
0.0143087
-0.00471757
0.0155042
-0.0035652
0.0169364
0.0186468
-0.00195643
-0.00298676
0.00804657
-0.00371728
0.00957583
-0.00436644
0.0106785
-0.00490596
0.0111964
-0.00530777
0.0115799
-0.00555441
0.0120168
-0.00562457
0.0125399
-0.00547738
0.0131612
-0.00507837
0.0139097
-0.0043846
0.0148104
-0.00333522
0.015887
0.0171813
-0.00186977
-0.0028142
0.00873404
-0.00348056
0.0102422
-0.00406215
0.0112601
-0.00454019
0.0116744
-0.00490057
0.0119402
-0.00512447
0.0122407
-0.00518344
0.0125989
-0.00505074
0.0130285
-0.00469143
0.0135504
-0.00405716
0.0141761
-0.00310533
0.0149352
0.0158441
-0.00176814
-0.00263339
0.00936442
-0.00323988
0.0108487
-0.00376107
0.0117813
-0.00418984
0.0121032
-0.00451049
0.0122609
-0.00471109
0.0124413
-0.00476179
0.0126496
-0.00464204
0.0129088
-0.00431384
0.0132222
-0.00374185
0.0136041
-0.00287647
0.0140698
0.0146303
-0.00166261
-0.00244798
0.00993944
-0.00299324
0.0113939
-0.0034596
0.0122477
-0.0038432
0.0124868
-0.00413794
0.0125556
-0.00431721
0.0126205
-0.00436696
0.0126993
-0.0042586
0.0128004
-0.00396164
0.0129253
-0.00344333
0.0130858
-0.00265735
0.0132838
0.0135295
-0.00155661
-0.00230204
0.0104725
-0.00279663
0.0118885
-0.00318531
0.0126363
-0.0035212
0.0128227
-0.00378725
0.0128217
-0.00395268
0.012786
-0.00399697
0.0127436
-0.00389888
0.0127023
-0.00363308
0.0126595
-0.00316373
0.0126165
-0.00245032
0.0125704
0.0125295
-0.00145024
0.00279976
-0.00159372
0.00542718
-0.000969659
0.00816336
-0.000230015
0.0109785
0.000819191
0.0137255
0.00231523
0.0161849
0.00437812
0.0181489
0.00703849
0.0194451
0.0102856
0.0199808
0.0140619
0.0197902
0.0182793
0.0190511
0.0228946
0.0280289
0.018013
-0.000103306
-0.00149043
0.000564031
-0.00163705
0.00183605
-0.00150201
0.00367467
-0.00101943
0.00605286
-6.2945e-05
0.00888846
0.00154253
0.0119088
0.00401813
0.0147146
0.00747982
0.0168878
0.0118887
0.0181296
0.0170376
0.0183865
0.0226377
0.02854
0.0178753
-9.96669e-05
-0.00139071
-0.000137102
-0.00159956
2.33493e-05
-0.00166247
0.000560536
-0.00155662
0.0016732
-0.00117562
0.00353784
-0.00032212
0.00618678
0.00136919
0.00938419
0.00428242
0.0126249
0.00864799
0.0152764
0.014386
0.0168512
0.0210629
0.0281416
0.0172496
-6.57213e-06
-0.00138409
4.59943e-05
-0.0016521
0.000174609
-0.0017911
0.000431314
-0.00181333
0.000908903
-0.00165322
0.00176318
-0.0011764
0.00325052
-0.000118158
0.00557866
0.00195428
0.00864686
0.00557979
0.0119183
0.0111146
0.0145993
0.0183819
0.026638
0.0161029
-5.40375e-06
-0.00137869
1.35791e-05
-0.00167108
7.69481e-05
-0.00185447
0.000213845
-0.00195023
0.000473321
-0.0019127
0.000946637
-0.00164972
0.00180205
-0.000973577
0.00329603
0.000460294
0.00564982
0.00322601
0.00875945
0.00800499
0.0119887
0.0151526
0.0241648
0.0144618
-4.77297e-06
-0.00137392
1.89206e-05
-0.00169478
7.58846e-05
-0.00191144
0.000181709
-0.00205606
0.000364296
-0.00209529
0.000675056
-0.00196049
0.00121353
-0.00151205
0.00215388
-0.000480053
0.00376933
0.00161056
0.00627207
0.00550224
0.0094401
0.0119846
0.0211962
0.0124087
1.46488e-06
-0.00137539
2.43748e-05
-0.0017177
7.12331e-05
-0.0019583
0.000152532
-0.00213736
0.000288312
-0.00223107
0.000511934
-0.00218411
0.000888103
-0.00188822
0.00153733
-0.00112928
0.00266554
0.000482352
0.00455604
0.00361174
0.00734058
0.00920008
0.0179626
0.0105741
4.60833e-06
-0.00138
3.02521e-05
-0.00174334
7.52528e-05
-0.0020033
0.000147666
-0.00220977
0.000261219
-0.00234463
0.000439143
-0.00236204
0.000724666
-0.00217375
0.00120205
-0.00160667
0.00202058
-0.000336183
0.00342638
0.00220595
0.00568616
0.0069403
0.0150073
0.00864145
1.00346e-05
-0.00139004
3.73928e-05
-0.0017707
8.11254e-05
-0.00204703
0.000147318
-0.00227597
0.000247127
-0.00244443
0.000397465
-0.00251238
0.000629658
-0.00240594
0.00100401
-0.00198102
0.00163228
-0.000964453
0.00270591
0.00113231
0.00450376
0.00514245
0.0122732
0.00723794
1.4145e-05
-0.00140418
4.25337e-05
-0.00179909
8.51367e-05
-0.00208964
0.000147568
-0.0023384
0.000238255
-0.00253512
0.000370726
-0.00264485
0.000567945
-0.00260316
0.000874409
-0.00228748
0.00137393
-0.00146397
0.0022151
0.000291136
0.00363784
0.00371971
0.0100115
0.00589953
1.70347e-05
-0.00142121
4.52045e-05
-0.00182726
8.61207e-05
-0.00213055
0.000144211
-0.00239649
0.000227339
-0.00261825
0.000346058
-0.00276357
0.000517967
-0.00277507
0.000776832
-0.00254635
0.00118567
-0.00187281
0.00185861
-0.000381811
0.00298865
0.00258967
0.00815205
0.00484806
1.87265e-05
-0.00143994
4.53861e-05
-0.00185392
8.35331e-05
-0.0021687
0.000137373
-0.00245033
0.000213106
-0.00269398
0.000319929
-0.00287039
0.000472363
-0.0029275
0.000696655
-0.00277064
0.00104305
-0.0022192
0.0016024
-0.000941162
0.00253696
0.00165511
0.00657041
0.0041186
1.83349e-05
-0.00145827
4.23605e-05
-0.00187794
7.66587e-05
-0.002203
0.000124636
-0.00249831
0.000191976
-0.00276132
0.000286567
-0.00296498
0.000420158
-0.00306109
0.000614292
-0.00296477
0.000909613
-0.00251453
0.0013809
-0.00141244
0.00216062
0.000875386
0.00526164
0.0034694
1.63219e-05
-0.00147459
3.67633e-05
-0.00189838
6.60829e-05
-0.00223232
0.000107457
-0.00253968
0.000165382
-0.00281925
0.000246445
-0.00304604
0.00036024
-0.00317489
0.000522881
-0.00312741
0.000765128
-0.00275677
0.00114264
-0.00178996
0.00175327
0.000264754
0.00429799
0.00271692
1.42436e-05
-0.00148884
3.1396e-05
-0.00191553
5.62483e-05
-0.00225717
9.17243e-05
-0.00257515
0.000141788
-0.00286931
0.000212404
-0.00311666
0.000311625
-0.00327411
0.00045351
-0.0032693
0.000663775
-0.00296704
0.00098939
-0.00211557
0.00151536
-0.000261212
0.00336995
0.00244339
1.18833e-05
-0.00150072
2.56259e-05
-0.00192928
4.62869e-05
-0.00227783
7.59312e-05
-0.0026048
0.000118524
-0.0029119
0.000178994
-0.00317713
0.00026495
-0.00336006
0.000387879
-0.00339223
0.000569743
-0.0031489
0.000851275
-0.0023971
0.00130612
-0.000716059
0.00267345
0.00200263
9.61888e-06
-0.00151034
2.03022e-05
-0.00193996
3.68446e-05
-0.00229437
6.14771e-05
-0.00262943
9.71724e-05
-0.0029476
0.00014906
-0.00322902
0.000223801
-0.00343481
0.000332563
-0.00350099
0.000495106
-0.00331144
0.000747632
-0.00264963
0.00115549
-0.00112392
0.00192676
0.00190218
6.96259e-06
-0.0015173
1.44074e-05
-0.0019474
2.70009e-05
-0.00230696
4.61493e-05
-0.00264858
7.48984e-05
-0.00297635
0.000117243
-0.00327136
0.000179645
-0.00349721
0.000271248
-0.00359259
0.000409282
-0.00344948
0.000625508
-0.00286586
0.000974728
-0.00147314
0.00142984
0.00147165
4.35137e-06
-0.00152165
9.07865e-06
-0.00195213
1.80889e-05
-0.00231597
3.26307e-05
-0.00266312
5.50458e-05
-0.00299876
8.94161e-05
-0.00330573
0.00014115
-0.00354894
0.000219398
-0.00367084
0.000340243
-0.00357032
0.000534242
-0.00305985
0.000858623
-0.00179752
0.000797167
0.00149129
1.50541e-06
-0.00152316
3.7713e-06
-0.0019544
9.38303e-06
-0.00232159
1.93436e-05
-0.00267308
3.57523e-05
-0.00301517
6.17188e-05
-0.0033317
0.000102003
-0.00358922
0.000163288
-0.00373213
0.00025826
-0.0036653
0.00041109
-0.00321268
0.000666818
-0.00205325
0.000395156
0.00106883
-4.28125e-07
-0.00152273
3.74118e-07
-0.0019552
3.6761e-06
-0.00232489
1.05788e-05
-0.00267998
2.29654e-05
-0.00302756
4.3713e-05
-0.00335244
7.70897e-05
-0.0036226
0.000129508
-0.00378454
0.000212405
-0.00374819
0.000347972
-0.00334825
0.000578125
-0.0022834
-2.98155e-05
0.0010031
-1.75895e-06
-0.00152097
-2.44665e-06
-0.00195451
-1.16945e-06
-0.00232616
3.0648e-06
-0.00268422
1.19778e-05
-0.00303647
2.81755e-05
-0.00336864
5.53725e-05
-0.0036498
9.93651e-05
-0.00382854
0.00016982
-0.00381865
0.000285933
-0.00346436
0.000484318
-0.00248179
-0.000367392
0.000821894
-2.49713e-06
-0.00151847
-4.20151e-06
-0.00195281
-4.40956e-06
-0.00232596
-2.13259e-06
-0.0026865
4.22968e-06
-0.00304283
1.70406e-05
-0.00338145
3.99054e-05
-0.00367266
7.81075e-05
-0.00386674
0.000140929
-0.00388147
0.000245429
-0.00356886
0.000422714
-0.00265907
-0.000680264
0.000735586
-3.10486e-06
-0.00151537
-5.80706e-06
-0.0019501
-7.31645e-06
-0.00232445
-6.71791e-06
-0.00268709
-2.67266e-06
-0.00304688
7.05115e-06
-0.00339118
2.57968e-05
-0.00369141
5.87404e-05
-0.00389968
0.000114235
-0.00393696
0.000208587
-0.00366322
0.000372289
-0.00282277
-0.000960278
0.000652304
-3.66983e-06
-0.0015117
-7.19093e-06
-0.00194658
-9.70961e-06
-0.00232193
-1.07101e-05
-0.00268609
-8.79365e-06
-0.00304879
-2.02978e-06
-0.00339794
1.26794e-05
-0.00370612
3.99e-05
-0.0039269
8.75906e-05
-0.00398465
0.000170096
-0.00374572
0.000314169
-0.00296685
-0.00121515
0.000569043
-4.05314e-06
-0.00150764
-8.18204e-06
-0.00194245
-1.17892e-05
-0.00231832
-1.39768e-05
-0.00268391
-1.38563e-05
-0.00304891
-9.54409e-06
-0.00340225
1.58911e-06
-0.00371725
2.37696e-05
-0.00394908
6.40303e-05
-0.00402491
0.000135951
-0.00381764
0.00026511
-0.00309601
-0.0014462
0.000496159
-4.32001e-06
-0.00150332
-8.98517e-06
-0.00193779
-1.3044e-05
-0.00231426
-1.64447e-05
-0.0026805
-1.75396e-05
-0.00304782
-1.53883e-05
-0.0034044
-7.10726e-06
-0.00372553
1.09172e-05
-0.00396711
4.48563e-05
-0.00405885
0.000107074
-0.00387986
0.000221555
-0.00321049
-0.0016605
0.000435857
-4.48922e-06
-0.00149883
-9.49146e-06
-0.00193279
-1.42258e-05
-0.00230953
-1.81088e-05
-0.00267662
-2.05909e-05
-0.00304534
-1.95959e-05
-0.0034054
-1.34893e-05
-0.00373164
1.18198e-06
-0.00398178
2.9942e-05
-0.00408761
8.3372e-05
-0.00393329
0.000183147
-0.00331026
-0.00184954
0.000372183
-4.61427e-06
-0.00149422
-9.71265e-06
-0.00192769
-1.49872e-05
-0.00230425
-1.95993e-05
-0.00267201
-2.27504e-05
-0.00304219
-2.30515e-05
-0.0034051
-1.86405e-05
-0.00373605
-6.41095e-06
-0.00399401
1.85566e-05
-0.00411258
6.57607e-05
-0.00398049
0.000154512
-0.00339901
-0.00202472
0.000329696
-4.72775e-06
-0.00148949
-1.01698e-05
-0.00192225
-1.56937e-05
-0.00229873
-2.09218e-05
-0.00266678
-2.49254e-05
-0.00303818
-2.65275e-05
-0.0034035
-2.37228e-05
-0.00373885
-1.40784e-05
-0.00400365
6.3547e-06
-0.00413301
4.47883e-05
-0.00401893
0.000114419
-0.00346864
-0.00212847
0.000218171
-4.70411e-06
-0.00148479
-1.02867e-05
-0.00191666
-1.62913e-05
-0.00229272
-2.1974e-05
-0.0026611
-2.65725e-05
-0.00303358
-2.87144e-05
-0.00340135
-2.6656e-05
-0.00374091
-1.73216e-05
-0.00401299
3.50024e-06
-0.00415384
4.30524e-05
-0.00405848
0.000115741
-0.00354133
-0.00229036
0.000277629
-4.94256e-06
-0.00147984
-1.09401e-05
-0.00191067
-1.73844e-05
-0.00228628
-2.39941e-05
-0.00265449
-2.96384e-05
-0.00302794
-3.34154e-05
-0.00339758
-3.31399e-05
-0.00374119
-2.62282e-05
-0.0040199
-8.17928e-06
-0.00417188
2.8688e-05
-0.00409535
9.75477e-05
-0.00361019
-0.00238303
0.000190218
-5.26337e-06
-0.00147458
-1.17795e-05
-0.00190415
-1.9322e-05
-0.00227874
-2.65792e-05
-0.00264723
-3.37215e-05
-0.0030208
-3.91448e-05
-0.00339215
-4.14273e-05
-0.00373891
-3.75964e-05
-0.00402373
-2.35069e-05
-0.00418597
8.63279e-06
-0.00412749
7.3813e-05
-0.00367537
-0.00253014
0.000220925
-5.74297e-06
-0.00146884
-1.2907e-05
-0.00189698
-2.09457e-05
-0.0022707
-2.96719e-05
-0.00263851
-3.82241e-05
-0.00301225
-4.57763e-05
-0.0033846
-5.09534e-05
-0.00373373
-5.17065e-05
-0.00402298
-4.48713e-05
-0.00419281
-2.48195e-05
-0.00414754
1.89317e-05
-0.00371912
-0.00260515
9.39358e-05
-5.9705e-06
-0.00146287
-1.36246e-05
-0.00188933
-2.2331e-05
-0.00226199
-3.16531e-05
-0.00262918
-4.11779e-05
-0.00300272
-5.0017e-05
-0.00337576
-5.66129e-05
-0.00372713
-5.92487e-05
-0.00402034
-5.4731e-05
-0.00419733
-3.80972e-05
-0.00416417
1.04733e-06
-0.00375827
-0.00269063
8.65297e-05
-6.32391e-06
-0.00145654
-1.43219e-05
-0.00188133
-2.38054e-05
-0.00225251
-3.4089e-05
-0.0026189
-4.47105e-05
-0.0029921
-5.47483e-05
-0.00336572
-6.30785e-05
-0.0037188
-6.73309e-05
-0.00401609
-6.44745e-05
-0.00420018
-4.86457e-05
-0.00418
-8.43386e-06
-0.00379848
-0.00279099
9.19236e-05
-6.694e-06
-0.00144985
-1.54158e-05
-0.00187261
-2.54719e-05
-0.00224245
-3.67301e-05
-0.00260764
-4.86319e-05
-0.0029802
-6.0535e-05
-0.00335382
-7.10877e-05
-0.00370825
-7.88151e-05
-0.00400836
-8.0753e-05
-0.00419825
-7.22688e-05
-0.00418848
-4.54821e-05
-0.00382527
-0.00281783
-1.86424e-05
-7.02e-06
-0.00144283
-1.60616e-05
-0.00186357
-2.69452e-05
-0.00223157
-3.90311e-05
-0.00259556
-5.19665e-05
-0.00296726
-6.50105e-05
-0.00334078
-7.72926e-05
-0.00369597
-8.67699e-05
-0.00399888
-9.08289e-05
-0.00419419
-8.4482e-05
-0.00419483
-5.71375e-05
-0.00385261
-0.00292228
4.73191e-05
-7.41098e-06
-0.00143542
-1.70911e-05
-0.00185389
-2.85258e-05
-0.00222013
-4.16125e-05
-0.00258247
-5.56479e-05
-0.00295323
-7.03962e-05
-0.00332603
-8.46815e-05
-0.00368168
-9.73941e-05
-0.00398617
-0.000106101
-0.00418548
-0.000106987
-0.00419394
-9.29755e-05
-0.00386662
-0.00293874
-7.65204e-05
-7.66898e-06
-0.00142775
-1.7767e-05
-0.00184379
-2.99433e-05
-0.00220796
-4.35903e-05
-0.00256882
-5.86813e-05
-0.00293814
-7.43853e-05
-0.00331032
-9.01603e-05
-0.00366591
-0.000104364
-0.00397197
-0.00011499
-0.00417485
-0.000117966
-0.00419097
-0.000105035
-0.00387955
-0.00299892
-4.48548e-05
-8.05007e-06
-0.0014197
-1.86467e-05
-0.00183319
-3.13061e-05
-0.0021953
-4.59379e-05
-0.00255419
-6.19015e-05
-0.00292217
-7.90749e-05
-0.00329315
-9.64926e-05
-0.00364849
-0.000113369
-0.00395509
-0.000127756
-0.00416047
-0.000136736
-0.00418199
-0.000134048
-0.00388224
-0.00301952
-0.000113445
-8.40925e-06
-0.00141129
-1.92569e-05
-0.00182235
-3.24868e-05
-0.00218207
-4.75712e-05
-0.00253911
-6.44395e-05
-0.0029053
-8.24345e-05
-0.00327516
-0.000101012
-0.00362991
-0.000119237
-0.00393687
-0.000135665
-0.00414404
-0.000147782
-0.00416987
-0.000150436
-0.00387959
-0.00303851
-0.000131444
-8.45538e-06
-0.00140283
-1.96679e-05
-0.00181113
-3.34585e-05
-0.00216828
-4.92139e-05
-0.00252335
-6.66948e-05
-0.00288782
-8.53938e-05
-0.00325646
-0.000104883
-0.00361042
-0.000123974
-0.00391778
-0.000141588
-0.00412642
-0.000155327
-0.00415613
-0.000160711
-0.0038742
-0.00304799
-0.000151234
-8.62366e-06
-0.00139421
-2.03158e-05
-0.00179944
-3.43925e-05
-0.0021542
-5.07202e-05
-0.00250702
-6.88686e-05
-0.00286967
-8.84262e-05
-0.0032369
-0.000108445
-0.0035904
-0.000128228
-0.00389799
-0.000145645
-0.00410901
-0.000158742
-0.00414303
-0.000162398
-0.00387055
-0.00306563
-0.000144757
-8.94446e-06
-0.00138527
-2.0967e-05
-0.00178742
-3.58716e-05
-0.0021393
-5.30174e-05
-0.00248988
-7.21362e-05
-0.00285055
-9.26516e-05
-0.00321638
-0.000113961
-0.00356909
-0.000134532
-0.00387742
-0.000152759
-0.00409078
-0.000165148
-0.00413065
-0.00016681
-0.00386889
-0.00308993
-0.000142512
-9.41885e-06
-0.00137585
-2.22067e-05
-0.00177463
-3.78324e-05
-0.00212367
-5.616e-05
-0.00247155
-7.65695e-05
-0.00283015
-9.89269e-05
-0.00319403
-0.000122229
-0.00354579
-0.000145619
-0.00385403
-0.000167203
-0.0040692
-0.000184504
-0.00411334
-0.000192071
-0.00386132
-0.00309375
-0.000188253
-9.89675e-06
-0.00136595
-2.33961e-05
-0.00176113
-4.01121e-05
-0.00210695
-5.95939e-05
-0.00245207
-8.14134e-05
-0.00280833
-0.000105372
-0.00317007
-0.000130956
-0.00352021
-0.000156842
-0.00382815
-0.000181644
-0.0040444
-0.000202832
-0.00409216
-0.000216199
-0.00384795
-0.00310789
-0.000202054
-1.04279e-05
-0.00135552
-2.46863e-05
-0.00174687
-4.22102e-05
-0.00208943
-6.28765e-05
-0.0024314
-8.61675e-05
-0.00278503
-0.0001121
-0.00314414
-0.0001399
-0.00349241
-0.000168995
-0.00379905
-0.000197858
-0.00401553
-0.000224638
-0.00406538
-0.000246727
-0.00382586
-0.00307826
-0.000276356
-1.07683e-05
-0.00134475
-2.56146e-05
-0.00173203
-4.40868e-05
-0.00207096
-6.55654e-05
-0.00240992
-9.01673e-05
-0.00276043
-0.000117414
-0.00311689
-0.000146924
-0.0034629
-0.000177847
-0.00376813
-0.000208749
-0.00398463
-0.000237343
-0.00403678
-0.000258773
-0.00380443
-0.00308424
-0.000252791
-1.11541e-05
-0.0013336
-2.66276e-05
-0.00171655
-4.57559e-05
-0.00205183
-6.83702e-05
-0.00238731
-9.40588e-05
-0.00273474
-0.000122624
-0.00308832
-0.000153881
-0.00343164
-0.000186811
-0.0037352
-0.000220198
-0.00395124
-0.000251062
-0.00400592
-0.000273607
-0.00378189
-0.00308466
-0.000273194
-1.1428e-05
-0.00132217
-2.77024e-05
-0.00170028
-4.75104e-05
-0.00203202
-7.09066e-05
-0.00236391
-9.7707e-05
-0.00270794
-0.000127743
-0.00305829
-0.000160539
-0.00339885
-0.000195807
-0.00369993
-0.000232274
-0.00391478
-0.000268117
-0.00397007
-0.000299675
-0.00375033
-0.0030561
-0.000328228
-1.16398e-05
-0.00131053
-2.82098e-05
-0.00168371
-4.90708e-05
-0.00201116
-7.3491e-05
-0.00233949
-0.000101349
-0.00268009
-0.000132399
-0.00302724
-0.000166556
-0.00336469
-0.000203019
-0.00366347
-0.000240931
-0.00387686
-0.000277924
-0.00393308
-0.000308311
-0.00371994
-0.00305202
-0.0003124
-1.22865e-05
-0.00129824
-2.97091e-05
-0.00166629
-5.14146e-05
-0.00198946
-7.70177e-05
-0.00231389
-0.000106238
-0.00265087
-0.000138984
-0.00299449
-0.000174852
-0.00332882
-0.000213732
-0.00362459
-0.000254737
-0.00383586
-0.000296701
-0.00389112
-0.000335819
-0.00368083
-0.00303451
-0.00035332
-1.27682e-05
-0.00128548
-3.10299e-05
-0.00164802
-5.39727e-05
-0.00196651
-8.08567e-05
-0.002287
-0.000111539
-0.00262018
-0.000145803
-0.00296023
-0.0001837
-0.00329092
-0.000224874
-0.00358341
-0.000269558
-0.00379118
-0.000317734
-0.00384294
-0.000371104
-0.00362746
-0.00294561
-0.00046001
-1.32128e-05
-0.00127226
-3.24601e-05
-0.00162878
-5.64762e-05
-0.0019425
-8.48168e-05
-0.00225866
-0.000116894
-0.00258811
-0.000152697
-0.00292442
-0.000191547
-0.00325207
-0.000232993
-0.00354197
-0.000275688
-0.00374848
-0.000318099
-0.00380053
-0.000355345
-0.00359021
-0.00295187
-0.000349086
-1.44932e-05
-0.00125777
-3.50554e-05
-0.00160821
-6.09684e-05
-0.00191658
-9.12385e-05
-0.00222839
-0.000125877
-0.00255347
-0.000164379
-0.00288592
-0.000206688
-0.00320976
-0.000252052
-0.0034966
-0.000299877
-0.00370066
-0.000348543
-0.00375186
-0.000395517
-0.00354324
-0.00289789
-0.00044949
-1.54392e-05
-0.00124233
-3.76853e-05
-0.00158597
-6.55738e-05
-0.00188869
-9.83005e-05
-0.00219567
-0.000135534
-0.00251623
-0.000177169
-0.00284429
-0.000222996
-0.00316394
-0.000272702
-0.0034469
-0.000325837
-0.00364752
-0.000381896
-0.0036958
-0.000440819
-0.00348431
-0.0028385
-0.000500212
-1.66865e-05
-0.00122564
-4.06979e-05
-0.00156196
-7.05858e-05
-0.00185881
-0.000105862
-0.00216039
-0.0001459
-0.0024762
-0.000190716
-0.00279947
-0.000239928
-0.00311473
-0.000293497
-0.00339333
-0.000350834
-0.00359018
-0.000411538
-0.0036351
-0.000473989
-0.00342186
-0.0027778
-0.000534692
-1.80214e-05
-0.00120762
-4.46725e-05
-0.00153531
-7.63117e-05
-0.00182717
-0.000114207
-0.0021225
-0.000157469
-0.00243293
-0.00020552
-0.00275142
-0.000258365
-0.00306188
-0.00031534
-0.00333635
-0.000376043
-0.00352948
-0.000439368
-0.00357178
-0.00050311
-0.00335812
-0.00272361
-0.0005573
-1.99676e-05
-0.00118766
-4.76873e-05
-0.00150759
-8.37033e-05
-0.00179115
-0.000124335
-0.00208186
-0.000171228
-0.00238604
-0.000223719
-0.00269893
-0.000280957
-0.00300464
-0.000342504
-0.00327481
-0.000407506
-0.00346448
-0.000474835
-0.00350445
-0.000543565
-0.00328939
-0.0026519
-0.000615269
-2.17406e-05
-0.00116591
-5.30457e-05