/*--------------------------------*- C++ -*----------------------------------*\
| =========                 |                                                 |
| \\      /  F ield         | OpenFOAM: The Open Source CFD Toolbox           |
|  \\    /   O peration     | Version:  2.3.0                                 |
|   \\  /    A nd           | Web:      www.OpenFOAM.org                      |
|    \\/     M anipulation  |                                                 |
\*---------------------------------------------------------------------------*/
FoamFile
{
    version     2.0;
    format      ascii;
    class       volVectorField;
    location    "7000";
    object      U;
}
// * * * * * * * * * * * * * * * * * * * * * * * * * * * * * * * * * * * * * //

dimensions      [0 1 -1 0 0 0 0];

internalField   nonuniform List<vector> 
6748
(
(22.4434 9.205 6.16569e-21)
(22.2068 10.1367 0)
(21.9256 11.1147 0)
(21.5218 12.074 -1.72109e-19)
(20.919 12.9537 1.45246e-19)
(20.0681 13.7132 -4.0011e-20)
(18.9552 14.3373 0)
(17.5898 14.8167 0)
(16.0019 15.144 7.71653e-19)
(14.2542 15.3542 -8.28407e-19)
(12.4295 15.5133 -2.37975e-20)
(10.5671 15.4569 2.4143e-20)
(21.6257 8.75549 -3.13121e-19)
(21.2052 9.35824 0)
(20.7276 9.95705 0)
(20.1981 10.5344 1.20831e-19)
(19.6166 11.0636 0)
(18.9822 11.514 -7.20447e-20)
(18.2981 11.8562 0)
(17.5748 12.0666 -1.50644e-18)
(16.8318 12.129 1.58039e-18)
(16.0954 12.0379 -2.03852e-18)
(15.3847 11.7955 -4.56139e-19)
(14.7061 11.4107 2.3136e-18)
(21.1211 8.37002 1.02252e-18)
(20.7216 8.79042 -7.05695e-19)
(20.2668 9.16455 2.49966e-19)
(19.7675 9.49215 8.83804e-19)
(19.2289 9.76296 -1.09749e-18)
(18.6605 9.97119 0)
(18.0738 10.1114 0)
(17.4822 10.1798 -9.70807e-20)
(16.9003 10.1758 0)
(16.3437 10.1015 1.81765e-18)
(15.827 9.96195 -1.89946e-18)
(15.3642 9.76336 -9.59731e-19)
(20.7449 7.97128 2.79838e-20)
(20.3727 8.28796 0)
(19.9706 8.54841 -2.52896e-19)
(19.5507 8.76812 3.34514e-19)
(19.1168 8.93821 1.48996e-18)
(18.6747 9.0566 -1.49031e-18)
(18.2305 9.12155 2.19826e-19)
(17.791 9.13269 0)
(17.3635 9.09116 2.12331e-18)
(16.9554 8.99999 -2.11969e-18)
(16.5734 8.86381 0)
(16.2236 8.68889 -3.06147e-19)
(20.481 7.61035 0)
(20.1465 7.84211 6.15844e-19)
(19.7927 8.02227 -1.97878e-18)
(19.4283 8.16961 1.02609e-18)
(19.0561 8.27829 0)
(18.6805 8.34817 0)
(18.3062 8.37892 -2.23726e-19)
(17.9379 8.37076 0)
(17.5805 8.32474 0)
(17.2389 8.24286 -1.41369e-19)
(16.9176 8.12807 0)
(16.6205 7.98438 -1.30184e-18)
(20.2877 7.28925 0)
(19.9939 7.46514 -3.43762e-19)
(19.6884 7.59627 3.21554e-19)
(19.3765 7.70071 0)
(19.0595 7.77442 0)
(18.7402 7.81767 -2.26356e-19)
(18.4216 7.83024 9.92186e-19)
(18.1069 7.81233 -1.25867e-18)
(17.7997 7.76451 -1.13361e-18)
(17.5036 7.688 1.43722e-18)
(17.2221 7.5847 0)
(16.9582 7.45721 -5.09412e-19)
(20.1426 7.0139 0)
(19.8871 7.14847 -7.1201e-19)
(19.6216 7.24567 3.71857e-19)
(19.3501 7.32208 -4.13681e-19)
(19.0733 7.37421 0)
(18.7933 7.40222 2.29824e-19)
(18.5126 7.40537 0)
(18.2333 7.38354 5.29879e-19)
(17.9588 7.33685 0)
(17.6921 7.26585 -9.31671e-19)
(17.4363 7.1717 2.21698e-18)
(17.1944 7.05619 2.76873e-20)
(20.0369 6.77826 3.70712e-19)
(19.8146 6.88221 1.16855e-18)
(19.5824 6.95538 -1.19763e-18)
(19.3433 7.01272 1.24456e-18)
(19.098 7.05043 0)
(18.848 7.06918 0)
(18.5964 7.06709 0)
(18.3438 7.04348 -1.64922e-18)
(18.0933 6.99817 2.30039e-18)
(17.8478 6.93131 -1.80404e-18)
(17.6106 6.8439 -6.46178e-19)
(17.3845 6.73699 -1.03457e-18)
(19.9586 6.57832 3.81009e-19)
(19.7631 6.65593 -7.78937e-19)
(19.5565 6.71233 -4.11032e-19)
(19.3421 6.757 0)
(19.1231 6.78412 0)
(18.8949 6.7969 0)
(18.6651 6.79276 5.29019e-19)
(18.4322 6.76924 1.24341e-20)
(18.2004 6.72564 -5.92691e-19)
(17.971 6.6613 1.21525e-18)
(17.7476 6.57925 -3.35791e-19)
(17.5336 6.47944 2.04696e-18)
(19.8951 6.40248 -1.71252e-20)
(19.7195 6.4617 4.04398e-19)
(19.5306 6.50588 0)
(19.3398 6.54552 0)
(19.1434 6.56585 0)
(18.929 6.57048 0)
(18.7162 6.56577 -2.68063e-19)
(18.4989 6.54511 -2.81363e-19)
(18.2832 6.50598 0)
(18.0677 6.44174 -9.29542e-19)
(17.8527 6.36289 1.29489e-18)
(17.6463 6.26984 -6.61446e-19)
(8.70089 14.6157 -8.71161e-20)
(8.26192 13.1889 1.90331e-18)
(8.23852 11.8294 -1.70917e-18)
(8.45902 10.5419 -2.13147e-19)
(8.84639 9.31825 4.45094e-19)
(9.35453 8.16241 1.64584e-18)
(9.94476 7.09387 -2.79904e-18)
(10.5795 6.13234 1.91075e-18)
(11.2247 5.29276 1.5457e-18)
(11.855 4.58016 -1.48058e-18)
(12.4573 3.97626 2.7876e-18)
(13.0298 3.43636 2.46584e-18)
(14.0621 10.9108 -1.49735e-18)
(13.5267 10.301 -1.14641e-19)
(13.1078 9.62219 1.60453e-18)
(12.8012 8.91166 0)
(12.5997 8.19391 -2.6416e-19)
(12.4985 7.48712 0)
(12.4932 6.80485 5.86272e-20)
(12.5779 6.1555 -1.15438e-19)
(12.7438 5.5433 1.26632e-18)
(12.9793 4.97026 -2.52621e-18)
(13.2705 4.42881 1.22342e-18)
(13.6058 3.89457 -4.38905e-18)
(14.9557 9.50921 1.19802e-18)
(14.5939 9.19025 1.7249e-19)
(14.2807 8.80509 2.10614e-19)
(14.0244 8.36573 0)
(13.83 7.88337 2.51172e-19)
(13.7001 7.36928 0)
(13.635 6.83479 4.82238e-20)
(13.632 6.29147 -9.13824e-20)
(13.6866 5.75107 -1.76703e-18)
(13.7929 5.22514 2.85907e-18)
(13.9455 4.71591 0)
(14.1454 4.20701 2.12089e-18)
(15.9034 8.47914 -1.63632e-19)
(15.6056 8.23057 -1.79622e-19)
(15.3319 7.94139 -9.84347e-19)
(15.0889 7.61641 8.19378e-19)
(14.8816 7.26098 0)
(14.7138 6.88085 4.6026e-19)
(14.5883 6.48165 5.07701e-19)
(14.5067 6.06909 -1.05435e-18)
(14.4693 5.64885 0)
(14.4755 5.22768 -2.10793e-18)
(14.523 4.80755 0)
(14.6113 4.37209 1.89789e-18)
(16.3462 7.81397 1.66282e-18)
(16.0899 7.61397 -3.78685e-19)
(15.8529 7.38307 1.66256e-19)
(15.6396 7.12406 1.20151e-18)
(15.4534 6.84024 -2.05261e-19)
(15.2968 6.53524 -8.97491e-19)
(15.1716 6.21261 -6.90811e-19)
(15.0783 5.876 2.3063e-19)
(15.0171 5.52905 1.21105e-18)
(14.9873 5.17588 1.01241e-18)
(14.9878 4.81538 9.62104e-19)
(15.0239 4.43239 -1.87423e-18)
(16.7118 7.30726 -2.04292e-19)
(16.4804 7.1336 3.51119e-19)
(16.2654 6.93597 -3.84238e-19)
(16.0698 6.71667 -8.13808e-19)
(15.8962 6.47822 8.48435e-19)
(15.7462 6.22338 5.57423e-19)
(15.621 5.95478 3.48628e-19)
(15.5211 5.67485 -3.55034e-19)
(15.4461 5.38599 -1.07654e-18)
(15.3956 5.09134 -9.34508e-19)
(15.3683 4.79198 -9.88269e-21)
(15.3632 4.47937 -8.83843e-19)
(16.9669 6.92068 -6.97031e-19)
(16.7532 6.76498 -3.7924e-19)
(16.5547 6.5896 3.90074e-19)
(16.3739 6.3967 4.09629e-19)
(16.2125 6.1886 -2.1195e-19)
(16.0718 5.96769 1.04862e-19)
(15.9523 5.73618 2.20963e-19)
(15.854 5.49588 -1.11581e-19)
(15.7758 5.24841 9.02277e-19)
(15.7168 4.99642 9.30798e-19)
(15.6775 4.73902 -9.02029e-19)
(15.656 4.46839 8.49206e-19)
(17.1706 6.61161 7.03084e-19)
(16.9694 6.46839 -3.80178e-19)
(16.7825 6.30866 7.74904e-19)
(16.6122 6.13442 -6.039e-19)
(16.4598 5.94803 4.06154e-19)
(16.3265 5.75177 -6.40588e-19)
(16.2126 5.54768 0)
(16.1177 5.33704 0)
(16.0397 5.12077 -1.12444e-18)
(15.9763 4.90226 -2.27875e-19)
(15.9316 4.68153 1.34576e-18)
(15.9027 4.45288 -1.92507e-20)
(17.3301 6.36164 -3.45247e-19)
(17.1381 6.22683 -3.78137e-19)
(16.9599 6.07835 7.65122e-19)
(16.7977 5.91766 4.00846e-19)
(16.6524 5.74734 -4.11819e-19)
(16.5256 5.5698 4.21182e-19)
(16.4171 5.38674 0)
(16.3269 5.19894 0)
(16.252 5.00648 -1.09648e-19)
(16.1864 4.81297 1.08788e-19)
(16.1422 4.62041 4.39813e-19)
(16.1105 4.4213 -4.30957e-19)
(17.4497 6.15994 -1.04759e-18)
(17.2654 6.0312 0)
(17.0944 5.89155 -3.86455e-19)
(16.9402 5.74085 0)
(16.8016 5.58193 0)
(16.6807 5.41883 0)
(16.5765 5.25242 -4.24269e-19)
(16.4919 5.0833 0)
(16.4243 4.91302 0)
(16.359 4.73948 2.20145e-19)
(16.3209 4.56072 -2.14812e-19)
(16.2909 4.37985 3.96613e-19)
(-1.81588 -2.42389 -1.06553e-19)
(-2.15866 -2.42918 0)
(-2.24429 -2.43475 8.41329e-20)
(-2.10448 -2.42332 -2.15925e-20)
(-1.77083 -2.38213 -1.09941e-19)
(-1.2637 -2.30095 0)
(-0.576406 -2.1699 3.13198e-20)
(0.330945 -1.98202 0)
(1.53632 -1.74054 3.43602e-20)
(3.2057 -1.45028 -1.87571e-20)
(5.66545 -1.13713 6.99709e-19)
(9.57213 -1.05095 -8.43802e-19)
(-1.87732 -2.38412 1.96084e-19)
(-2.12961 -2.3178 -1.09258e-19)
(-2.1303 -2.2299 1.64046e-20)
(-1.88675 -2.10827 0)
(-1.4053 -1.94724 4.99573e-20)
(-0.684623 -1.7469 3.7559e-20)
(0.295363 -1.51077 -6.22383e-20)
(1.58094 -1.24961 0)
(3.25577 -0.98649 -1.66963e-19)
(5.44248 -0.769962 1.6863e-19)
(8.28938 -0.685138 -5.47545e-19)
(11.8715 -0.86101 2.10202e-18)
(-1.81345 -2.23897 4.61902e-19)
(-1.94789 -2.10706 0)
(-1.82423 -1.94577 -1.00763e-19)
(-1.44903 -1.74979 -1.39715e-19)
(-0.828123 -1.52236 -1.41667e-19)
(0.0461953 -1.27046 0)
(1.19848 -1.00597 7.93539e-20)
(2.67216 -0.747827 0)
(4.52569 -0.527905 0)
(6.82341 -0.396904 -5.08515e-19)
(9.60661 -0.428544 -1.80107e-19)
(12.8181 -0.703983 2.75244e-20)
(-1.66596 -2.0477 0)
(-1.68064 -1.87098 -1.49612e-19)
(-1.44907 -1.66848 2.30766e-19)
(-0.977665 -1.4401 5.53286e-20)
(-0.265993 -1.19226 1.34727e-19)
(0.697803 -0.934605 9.31052e-20)
(1.93768 -0.681074 -1.6892e-19)
(3.48933 -0.452823 2.06693e-19)
(5.39523 -0.281336 0)
(7.6945 -0.211002 0)
(10.3985 -0.297834 7.53436e-20)
(13.4492 -0.595351 -1.96327e-19)
(-1.45455 -1.84925 0)
(-1.37052 -1.6506 0)
(-1.05887 -1.43157 -1.98294e-19)
(-0.52286 -1.19483 0)
(0.242532 -0.947275 -1.04989e-19)
(1.25187 -0.699024 -3.86508e-20)
(2.52908 -0.464552 -1.08821e-19)
(4.10646 -0.264567 -4.77319e-20)
(6.02014 -0.128059 4.14824e-19)
(8.30033 -0.0937777 -6.21785e-19)
(10.9526 -0.207689 5.32595e-19)
(13.9236 -0.511376 -3.03551e-19)
(-1.21576 -1.64977 -3.9152e-19)
(-1.05406 -1.45306 -3.17573e-19)
(-0.685946 -1.23408 7.55465e-20)
(-0.109359 -1.0017 -2.69066e-20)
(0.685151 -0.763175 1.29291e-19)
(1.71473 -0.528517 0)
(3.00453 -0.312033 -6.43134e-20)
(4.58629 -0.133685 -6.16465e-20)
(6.49433 -0.0205077 1.58496e-19)
(8.75572 -0.00751472 -1.6487e-19)
(11.374 -0.135584 1.87974e-19)
(14.2957 -0.441221 0)
(-0.968932 -1.50118 2.03509e-19)
(-0.747996 -1.28859 1.00532e-19)
(-0.34132 -1.07393 6.33233e-19)
(0.259624 -0.850194 -5.89654e-20)
(1.06869 -0.622815 -1.28878e-19)
(2.10557 -0.400858 1.35599e-19)
(3.39683 -0.198535 7.42051e-20)
(4.97514 -0.0357257 1.51532e-19)
(6.87512 0.0617148 -2.53365e-19)
(9.12249 0.061148 0)
(11.7185 -0.0760599 2.20262e-19)
(14.6069 -0.38372 3.40262e-20)
(-0.717703 -1.35447 -2.34647e-19)
(-0.457176 -1.14845 1.20778e-19)
(-0.0274774 -0.942256 -3.61711e-19)
(0.584991 -0.729445 0)
(1.39855 -0.514229 2.47701e-19)
(2.43447 -0.303717 -1.16181e-19)
(3.71955 -0.111426 -2.19466e-19)
(5.28673 0.0413499 7.90244e-20)
(7.17333 0.128418 3.52651e-19)
(9.40392 0.120183 1.3483e-20)
(11.9784 -0.0216059 2.13784e-19)
(14.84 -0.329161 0)
(-0.474371 -1.22543 2.49789e-19)
(-0.182548 -1.02709 0)
(0.264137 -0.830237 1.33469e-19)
(0.883855 -0.630143 0)
(1.70395 -0.429241 -1.29504e-20)
(2.74543 -0.231043 -1.65748e-19)
(4.03379 -0.0457001 2.34766e-19)
(5.59877 0.103686 4.60012e-20)
(7.48564 0.183654 -2.72862e-19)
(9.72053 0.16692 -3.98152e-19)
(12.2832 0.0136396 0)
(15.1208 -0.30231 0)
(-0.240872 -1.12493 -1.30899e-19)
(0.0465066 -0.923615 0)
(0.472392 -0.726969 -1.68056e-19)
(1.06647 -0.538023 1.77096e-20)
(1.85671 -0.349524 -1.24539e-19)
(2.87142 -0.164628 1.65457e-19)
(4.12963 0.0178372 -3.43362e-19)
(5.65402 0.185722 0)
(7.49206 0.268381 2.69433e-19)
(9.65703 0.272493 1.04857e-19)
(12.1899 0.135307 -2.24725e-19)
(15.0614 -0.183742 2.36143e-19)
(15.9405 -2.0122 2.43745e-18)
(19.8347 -3.11425 -2.80648e-18)
(21.2364 -3.52613 2.21735e-20)
(21.7862 -3.62416 -2.92429e-19)
(22.066 -3.64486 -1.944e-19)
(22.1616 -3.61921 -5.36704e-18)
(22.1367 -3.55916 -3.59767e-19)
(22.0418 -3.47733 4.46425e-18)
(21.9063 -3.38189 -4.64609e-18)
(21.7459 -3.27831 4.15904e-18)
(21.5713 -3.16852 3.17883e-18)
(21.3898 -3.04903 -3.89221e-18)
(15.8743 -1.51786 3.09421e-19)
(19.7799 -2.54753 -2.32927e-18)
(21.6692 -3.09796 -9.92089e-20)
(22.1508 -3.19737 -2.47413e-18)
(22.3169 -3.22407 2.63409e-18)
(22.3346 -3.21949 0)
(22.264 -3.1923 0)
(22.1443 -3.14929 1.78225e-18)
(21.9965 -3.09441 -2.71081e-18)
(21.832 -3.03103 0)
(21.6589 -2.95932 1.04968e-18)
(21.4841 -2.87148 1.07433e-18)
(16.3012 -1.2845 2.91336e-18)
(19.7875 -2.14445 7.6615e-20)
(21.8307 -2.74552 -5.42415e-18)
(22.2854 -2.87355 2.55484e-18)
(22.3713 -2.90167 -1.60904e-19)
(22.3481 -2.90723 0)
(22.2639 -2.89833 0)
(22.1458 -2.87879 -5.95179e-19)
(22.0077 -2.85046 -5.76681e-19)
(21.857 -2.81501 5.60544e-19)
(21.6985 -2.77128 -1.09464e-18)
(21.5369 -2.71127 1.06344e-18)
(16.7331 -1.13162 1.01914e-18)
(19.9215 -1.87767 -2.23616e-18)
(21.9154 -2.46578 1.32914e-18)
(22.3501 -2.61857 0)
(22.3791 -2.64966 0)
(22.3284 -2.66414 -2.6582e-18)
(22.2363 -2.6679 2.43887e-18)
(22.1217 -2.66349 6.01625e-19)
(21.9938 -2.6519 1.18481e-18)
(21.8574 -2.63388 -1.15959e-18)
(21.7129 -2.61079 5.68384e-19)
(21.5586 -2.58274 0)
(17.0877 -1.0236 0)
(20.0765 -1.70161 3.11885e-19)
(21.9529 -2.25317 0)
(22.3626 -2.41643 3.63357e-19)
(22.3569 -2.44969 0)
(22.2913 -2.47029 2.71266e-18)
(22.1967 -2.4824 -2.51222e-18)
(22.0868 -2.48796 -3.1639e-19)
(21.9682 -2.48758 -2.49063e-18)
(21.8438 -2.48126 2.34991e-18)
(21.7124 -2.4704 -5.91583e-19)
(21.57 -2.45854 0)
(17.3749 -0.937959 0)
(20.2131 -1.57151 -6.23024e-19)
(21.9607 -2.08591 0)
(22.3383 -2.25194 -3.55685e-19)
(22.3116 -2.28855 -1.44206e-18)
(22.2389 -2.31387 1.33778e-18)
(22.1458 -2.3318 -3.36104e-19)
(22.0423 -2.344 1.31242e-18)
(21.933 -2.35101 -1.23687e-18)
(21.8195 -2.35271 6.22935e-19)
(21.7009 -2.35008 0)
(21.5747 -2.3481 0)
(17.621 -0.870495 -5.35672e-19)
(20.3342 -1.47285 1.30119e-18)
(21.9567 -1.95457 -2.866e-18)
(22.2966 -2.11843 1.45319e-18)
(22.2568 -2.15845 0)
(22.1811 -2.18744 1.78763e-18)
(22.0912 -2.20953 -6.6055e-19)
(21.9944 -2.22614 -6.59515e-21)
(21.8936 -2.23793 -6.54146e-19)
(21.7898 -2.24498 -6.67362e-19)
(21.6828 -2.24804 1.92192e-18)
(21.5719 -2.25159 0)
(17.802 -0.805038 0)
(20.4138 -1.38061 6.55272e-19)
(21.9334 -1.83861 -7.13084e-19)
(22.2442 -2.0055 0)
(22.1997 -2.05215 0)
(22.1246 -2.08476 -3.56258e-19)
(22.0386 -2.10992 -3.48499e-19)
(21.9479 -2.12937 3.42601e-19)
(21.8545 -2.14398 -1.03978e-18)
(21.7593 -2.1541 2.03302e-18)
(21.6622 -2.16054 -2.00392e-18)
(21.5638 -2.167 6.77712e-19)
(18.0353 -0.775628 -2.89089e-19)
(20.5376 -1.33437 3.28019e-19)
(21.9222 -1.76482 7.63124e-19)
(22.1902 -1.92444 -7.615e-19)
(22.1438 -1.9708 0)
(22.0709 -2.00295 3.72428e-19)
(21.9887 -2.0287 0)
(21.9039 -2.04935 0)
(21.8173 -2.06529 -3.49397e-19)
(21.7294 -2.0768 -7.09388e-19)
(21.6405 -2.08483 6.94538e-19)
(21.5527 -2.09323 3.75281e-21)
(17.9653 -0.628808 2.83018e-19)
(20.4249 -1.1556 0)
(21.8136 -1.62858 0)
(22.1195 -1.84347 0)
(22.0933 -1.9044 7.76266e-19)
(22.0244 -1.9345 -1.11397e-18)
(21.9462 -1.96033 0)
(21.8664 -1.9825 0)
(21.7841 -1.99869 0)
(21.7032 -2.01009 0)
(21.6228 -2.0191 0)
(21.543 -2.03166 -1.11331e-18)
(1.97674 2.27551 3.55355e-19)
(4.9961 2.40007 -1.40044e-19)
(8.28364 3.39769 -1.65868e-19)
(11.3928 4.97602 2.08735e-19)
(14.2297 6.58659 -5.35647e-18)
(16.8066 8.0585 3.75958e-18)
(19.0605 9.28944 1.96551e-19)
(20.8846 10.1567 8.15918e-19)
(22.1894 10.5615 1.81583e-19)
(22.9624 10.4791 0)
(23.3016 9.98241 0)
(23.3994 9.21626 0)
(-12.3698 2.31112 -2.77341e-19)
(-10.0057 2.27289 1.1909e-19)
(-6.83861 2.34297 1.04007e-19)
(-2.85058 2.65103 -4.70474e-20)
(1.81522 3.31254 1.05649e-18)
(6.87866 4.30543 4.65536e-21)
(11.8266 5.57419 3.34898e-20)
(16.2298 6.94689 -1.55095e-18)
(19.7494 8.1609 0)
(22.1792 8.95597 0)
(23.5242 9.18929 0)
(24.0407 8.85978 0)
(-6.64686 1.44351 -1.62574e-20)
(-6.45444 1.22176 -3.4208e-17)
(-5.41348 1.04807 2.37541e-17)
(-3.83745 0.978103 -2.63381e-21)
(-1.66185 1.13475 -1.52144e-18)
(1.29161 1.63149 -8.09368e-18)
(5.32847 2.55151 6.86699e-18)
(10.1606 3.86337 -5.29267e-20)
(15.1082 5.40122 0)
(19.3826 6.84912 0)
(22.3916 7.8607 2.43739e-18)
(23.9966 8.15171 -2.36486e-18)
(-8.08586 1.70833 -1.25926e-16)
(-7.88466 1.68681 3.56884e-17)
(-6.99701 1.55831 0)
(-5.73475 1.42778 -1.68881e-17)
(-4.09232 1.34417 1.3315e-17)
(-1.93714 1.37508 0)
(1.00844 1.60714 -2.14631e-18)
(5.04215 2.22405 3.09004e-18)
(10.0452 3.32551 0)
(15.3461 4.78249 1.53614e-18)
(19.9467 6.23703 -9.89721e-19)
(23.0422 7.1244 0)
(-7.51068 1.59986 -1.01335e-18)
(-7.54143 1.59678 5.94568e-19)
(-6.9029 1.49332 -2.57985e-17)
(-5.94424 1.36188 1.81856e-17)
(-4.69311 1.2389 0)
(-3.08641 1.16291 0)
(-0.944829 1.1907 2.38586e-18)
(2.00137 1.42865 -3.82141e-18)
(6.08718 2.04274 0)
(11.2423 3.14111 -1.84311e-18)
(16.6877 4.6179 1.30191e-18)
(21.1716 5.89382 1.8153e-18)
(-7.65098 1.62214 -6.39366e-17)
(-7.80142 1.65887 -5.89853e-19)
(-7.27798 1.57833 1.80569e-20)
(-6.45333 1.46275 -1.26653e-20)
(-5.377 1.34004 -1.44693e-17)
(-4.02473 1.23233 9.63278e-18)
(-2.2803 1.16937 -1.06309e-17)
(0.0778681 1.20573 1.06709e-17)
(3.35317 1.45328 0)
(7.82355 2.09574 0)
(13.2948 3.2617 4.29459e-20)
(18.6992 4.62224 -2.00442e-18)
(-7.58397 1.61239 0)
(-7.8465 1.67379 9.77357e-21)
(-7.41491 1.60945 8.15201e-19)
(-6.69196 1.50289 -5.81011e-19)
(-5.74513 1.3821 1.74698e-18)
(-4.56918 1.26396 2.10098e-20)
(-3.08971 1.16778 0)
(-1.13801 1.12519 -8.53843e-18)
(1.54045 1.20386 7.29916e-18)
(5.27726 1.53513 0)
(10.2684 2.33478 2.68243e-20)
(15.9826 3.53801 -2.26706e-18)
(-7.61927 1.62023 6.23729e-17)
(-7.97667 1.70618 -3.82709e-17)
(-7.60748 1.65526 -8.08323e-19)
(-6.95089 1.55919 5.78802e-19)
(-6.0874 1.44513 -1.77103e-18)
(-5.02224 1.32663 1.87511e-20)
(-3.70811 1.21717 1.17493e-18)
(-2.01844 1.13534 0)
(0.258801 1.12317 -1.92272e-18)
(3.41815 1.26424 0)
(7.78751 1.74645 1.1752e-20)
(13.3098 2.56831 0)
(-7.65304 1.63006 9.8562e-19)
(-8.09159 1.73615 5.98371e-19)
(-7.76959 1.69535 8.19509e-19)
(-7.1637 1.60745 -1.93252e-17)
(-6.36302 1.49957 1.51853e-17)
(-5.37916 1.38382 1.49181e-20)
(-4.18225 1.27062 -2.36059e-18)
(-2.67681 1.17203 -2.06544e-18)
(-0.687507 1.11489 1.93498e-18)
(2.04045 1.1543 0)
(5.85176 1.44612 -2.2212e-18)
(10.9531 1.92674 2.85809e-18)
(-7.72353 1.64679 0)
(-8.22264 1.76808 0)
(-7.93733 1.73489 0)
(-7.37084 1.65369 0)
(-6.61795 1.55135 1.432e-17)
(-5.69444 1.43893 1.40768e-18)
(-4.5818 1.32497 -8.24455e-18)
(-3.20765 1.21781 8.17865e-18)
(-1.42756 1.13415 -1.92278e-18)
(0.977941 1.10967 -3.38022e-18)
(4.32706 1.25951 0)
(8.89894 1.47523 -3.26019e-18)
(-7.81054 1.66678 -9.48877e-19)
(-8.35312 1.7984 0)
(-8.0974 1.77054 0)
(-7.56342 1.69411 -5.83108e-19)
(-6.84941 1.59571 -1.52153e-17)
(-5.97368 1.4857 9.97869e-18)
(-4.9249 1.37142 0)
(-3.64739 1.25896 4.04242e-18)
(-2.02111 1.15829 -3.63392e-18)
(0.143964 1.09228 3.4503e-18)
(3.13379 1.1453 -5.11813e-18)
(7.25068 1.2106 7.06648e-18)
(-7.91168 1.68912 9.4103e-19)
(-8.48174 1.82666 5.74932e-19)
(-8.25089 1.8024 7.99665e-19)
(-7.74481 1.72928 5.84917e-19)
(-7.06379 1.63351 -1.33898e-17)
(-6.22785 1.52491 1.27991e-17)
(-5.23011 1.41012 -1.16321e-18)
(-4.02717 1.29418 -2.00317e-18)
(-2.51792 1.1835 -1.7947e-18)
(-0.535442 1.09406 0)
(2.17451 1.08662 0)
(5.91086 1.08926 7.57809e-18)
(-8.01563 1.71124 0)
(-8.59971 1.8506 3.65054e-17)
(-8.39122 1.82849 -5.09625e-17)
(-7.9098 1.75702 1.91123e-17)
(-7.25768 1.66207 -1.42236e-17)
(-6.45638 1.55305 1.13295e-17)
(-5.50197 1.43602 1.1648e-18)
(-4.36067 1.31546 0)
(-2.9475 1.19562 1.74808e-18)
(-1.11642 1.0871 6.50894e-18)
(1.35697 1.03076 -8.46052e-18)
(4.75551 1.00902 0)
(-8.11233 1.73105 -5.80247e-17)
(-8.70242 1.86958 -5.66329e-19)
(-8.51411 1.84847 -7.92564e-19)
(-8.05435 1.77727 1.78166e-17)
(-7.42716 1.68152 -7.36411e-21)
(-6.65522 1.57014 -1.41077e-18)
(-5.73637 1.44834 -1.15987e-18)
(-4.6437 1.3195 -1.57528e-20)
(-3.30475 1.1849 -1.75089e-18)
(-1.58947 1.04702 -6.3636e-18)
(0.702722 0.920349 1.99852e-20)
(3.85775 0.809143 0)
(-8.19689 1.74827 0)
(-8.78945 1.88522 0)
(-8.6192 1.865 7.77332e-19)
(-8.17874 1.79407 0)
(-7.57362 1.6978 0)
(-6.82732 1.58486 2.79726e-18)
(-5.93862 1.46009 1.1292e-20)
(-4.88553 1.32653 1.91998e-18)
(-3.60537 1.18496 0)
(-1.98049 1.03666 3.07475e-18)
(0.172968 0.896658 2.93344e-18)
(3.1175 0.778059 8.39815e-18)
(-8.26957 1.76286 5.61383e-17)
(-8.86123 1.89743 -3.52224e-17)
(-8.70763 1.87777 -8.79849e-21)
(-8.2848 1.8068 -5.61696e-19)
(-7.6998 1.70974 1.39228e-17)
(-6.97692 1.59507 -2.7822e-18)
(-6.11557 1.46729 -9.07529e-18)
(-5.09726 1.32924 -1.91723e-18)
(-3.86746 1.18123 8.28119e-18)
(-2.31956 1.02157 -9.05443e-18)
(-0.285626 0.850258 0)
(2.4886 0.690504 -3.26913e-20)
(-8.32934 1.77469 0)
(-8.91819 1.90661 -3.42467e-17)
(-8.78012 1.88754 2.37205e-17)
(-8.37344 1.81657 5.62883e-19)
(-7.80692 1.71888 0)
(-7.10579 1.6029 1.38468e-18)
(-6.27 1.47299 1.13204e-18)
(-5.28373 1.33206 -1.8732e-18)
(-4.09945 1.18102 -3.26117e-18)
(-2.62058 1.01981 2.91755e-18)
(-0.692647 0.856946 0)
(1.91111 0.706529 -4.15362e-20)
(-8.37578 1.78345 5.35064e-17)
(-8.96034 1.91229 -5.40792e-19)
(-8.83716 1.89364 -2.42197e-17)
(-8.44521 1.82227 -1.7722e-17)
(-7.89555 1.72343 1.3669e-17)
(-7.2145 1.60542 0)
(-6.40264 1.47229 1.00253e-17)
(-5.44603 1.32663 -5.58047e-18)
(-4.30279 1.1691 -4.79419e-18)
(-2.88469 0.997176 8.57561e-18)
(-1.04789 0.806305 -8.00034e-18)
(1.4267 0.597308 -4.52715e-20)
(-8.40702 1.78895 1.27268e-20)
(-8.9884 1.91516 -3.39186e-17)
(-8.87918 1.89717 4.86246e-17)
(-8.50047 1.82549 -1.69898e-17)
(-7.96598 1.72573 0)
(-7.3032 1.60615 0)
(-6.51352 1.47059 -1.11235e-18)
(-5.58471 1.32154 0)
(-4.4802 1.16022 1.56598e-18)
(-3.11959 0.987049 -2.77915e-18)
(-1.3661 0.81081 5.16493e-18)
(0.989886 0.6339 -4.47443e-18)
(-8.42304 1.79112 5.43041e-17)
(-9.00408 1.91533 -3.45118e-17)
(-8.90748 1.89788 4.58277e-17)
(-8.54038 1.82563 -3.46774e-17)
(-8.01923 1.72469 2.59382e-17)
(-7.37248 1.60307 1.32443e-18)
(-6.60225 1.46416 -1.08681e-18)
(-5.69773 1.30974 -5.0764e-21)
(-4.62712 1.14008 -1.57555e-18)
(-3.31879 0.95242 2.74717e-18)
(-1.65074 0.742713 -2.56354e-18)
(0.555913 0.504266 -4.49031e-18)
(-8.42502 1.7908 1.54695e-16)
(-9.01119 1.9148 -3.19716e-17)
(-8.92479 1.8981 -2.26165e-17)
(-8.56787 1.82598 -1.76651e-17)
(-8.05861 1.72486 8.3408e-19)
(-7.42604 1.60275 9.24271e-18)
(-6.67271 1.46284 8.66489e-18)
(-5.78871 1.30682 -8.97972e-18)
(-4.74577 1.13508 0)
(-3.47877 0.945799 0)
(-1.87371 0.738169 0)
(0.237307 0.510699 0)
(-8.41812 1.78885 -7.89639e-19)
(-9.0117 1.91334 5.03277e-19)
(-8.93381 1.8971 2.30245e-17)
(-8.58619 1.82519 -1.58573e-17)
(-8.08797 1.72408 1.30648e-17)
(-7.46865 1.60171 -2.21882e-17)
(-6.73122 1.4611 8.56321e-18)
(-5.86653 1.30373 1.79145e-18)
(-4.84943 1.12985 1.49191e-18)
(-3.6211 0.937087 0)
(-2.07654 0.720905 0)
(-0.0581186 0.474263 -4.29109e-18)
(-8.40627 1.78611 -4.9391e-17)
(-9.00599 1.91122 3.15001e-17)
(-8.93601 1.89566 0)
(-8.59704 1.8243 -1.56722e-18)
(-8.10905 1.72365 0)
(-7.502 1.60162 -1.02897e-17)
(-6.77927 1.46118 1.05441e-17)
(-5.93227 1.30375 0)
(-4.93821 1.12966 4.42672e-18)
(-3.74345 0.936876 -7.70299e-18)
(-2.25017 0.721921 -2.29053e-18)
(-0.310452 0.489217 0)
(-8.39073 1.78255 0)
(-8.99583 1.90819 -3.15059e-17)
(-8.93306 1.89332 2.16491e-17)
(-8.60212 1.82255 5.17963e-19)
(-8.12374 1.72241 0)
(-7.52834 1.60081 1.28397e-18)
(-6.81977 1.46064 6.2419e-18)
(-5.99001 1.3033 -6.91182e-18)
(-5.01823 1.12931 0)
(-3.85536 0.936953 4.70653e-20)
(-2.41041 0.721332 6.76571e-18)
(-0.544398 0.480966 -4.76938e-20)
(-8.37184 1.77836 -9.71181e-17)
(-8.98152 1.90449 6.20119e-17)
(-8.92532 1.89025 -2.06222e-17)
(-8.60176 1.82004 0)
(-8.13222 1.72039 7.74628e-19)
(-7.54762 1.59916 0)
(-6.85226 1.45914 -6.15655e-18)
(-6.03872 1.30157 5.12815e-18)
(-5.08794 1.12691 7.15611e-18)
(-3.95484 0.933632 -2.45196e-18)
(-2.55351 0.717413 0)
(-0.748296 0.4731 -3.98924e-18)
(-8.35028 1.77361 0)
(-8.96383 1.90017 4.71855e-19)
(-8.91355 1.88658 -2.23355e-17)
(-8.59677 1.81698 1.59195e-17)
(-8.13534 1.71792 1.07843e-17)
(-7.56058 1.59718 -1.10959e-17)
(-6.87727 1.45745 -1.02134e-18)
(-6.07863 1.29979 8.41159e-18)
(-5.14722 1.12453 -1.43027e-18)
(-4.04182 0.930154 -2.4518e-18)
(-2.68185 0.712918 2.12085e-18)
(-0.937615 0.47106 3.80538e-18)
(-8.3269 1.76859 7.25987e-19)
(-8.94356 1.89555 -4.73585e-19)
(-8.89864 1.88264 -6.58908e-19)
(-8.58809 1.81371 -4.84602e-19)
(-8.13414 1.71534 7.65887e-19)
(-7.56838 1.59525 2.42972e-18)
(-6.89601 1.45603 8.94746e-18)
(-6.11086 1.29859 -6.61495e-18)
(-5.19703 1.1231 -5.55434e-18)
(-4.11704 0.928162 -4.07824e-20)
(-2.79626 0.710564 2.07493e-18)
(-1.11422 0.469139 -7.46327e-18)
(-8.30233 1.76328 -1.5002e-20)
(-8.92156 1.89059 -4.56108e-19)
(-8.88145 1.8784 6.61499e-19)
(-8.57669 1.81023 4.86607e-19)
(-8.12971 1.71268 1.19331e-17)
(-7.5723 1.59342 -1.07684e-17)
(-6.90998 1.45498 -9.89343e-19)
(-6.13707 1.29812 -1.61045e-18)
(-5.23896 1.12285 5.46282e-18)
(-4.18156 0.927672 -7.02352e-18)
(-2.89583 0.709298 2.02147e-18)
(-1.26992 0.464544 7.11084e-18)
(-8.27703 1.7579 -1.49899e-20)
(-8.8982 1.88552 9.58609e-21)
(-8.86237 1.87395 6.36774e-19)
(-8.56301 1.80651 0)
(-8.12264 1.70978 7.255e-19)
(-7.57315 1.59143 1.16258e-18)
(-6.92024 1.45391 9.52467e-19)
(-6.15866 1.29797 -3.19836e-18)
(-5.27495 1.1235 1.07395e-17)
(-4.23832 0.929035 -4.57649e-18)
(-2.98586 0.711499 -4.18569e-20)
(-1.41666 0.473207 -3.48581e-18)
(-8.25121 1.75238 -1.49239e-20)
(-8.87372 1.88015 9.54598e-21)
(-8.84168 1.86913 -6.39167e-19)
(-8.54735 1.80236 0)
(-8.11325 1.7064 -1.54391e-20)
(-7.57126 1.58888 -1.15444e-17)
(-6.92714 1.45217 -9.5531e-19)
(-6.17575 1.29686 9.42371e-18)
(-5.30428 1.12254 -5.2725e-18)
(-4.28417 0.926731 2.21789e-18)
(-3.05628 0.70219 -5.8545e-18)
(-1.51927 0.442638 6.7703e-18)
(-8.22541 1.7469 -1.48921e-20)
(-8.84859 1.87473 9.52669e-21)
(-8.81985 1.86422 6.14424e-19)
(-8.53027 1.79817 -4.52061e-19)
(-8.10226 1.70309 -1.41556e-18)
(-7.56772 1.58664 1.14632e-18)
(-6.93242 1.45126 0)
(-6.19123 1.29766 -6.13656e-18)
(-5.33157 1.12578 5.17482e-18)
(-4.32644 0.93442 -6.60774e-18)
(-3.11998 0.720777 3.80867e-18)
(-1.62198 0.476827 -3.26985e-18)
(-8.19898 1.74124 -1.4964e-20)
(-8.82219 1.86886 4.33818e-19)
(-8.79632 1.85855 -1.95298e-17)
(-8.51123 1.79292 1.4368e-17)
(-8.0892 1.69835 7.02565e-19)
(-7.56215 1.5825 -1.10083e-18)
(-6.936 1.44775 9.01561e-19)
(-6.20574 1.29486 1.53017e-18)
(-5.35913 1.12385 -5.07197e-18)
(-4.37056 0.933287 4.30106e-18)
(-3.18718 0.71749 0)
(-1.72032 0.469171 0)
(-8.17073 1.73509 -6.65279e-19)
(-8.79341 1.86225 0)
(-8.76998 1.85195 -1.19667e-18)
(-8.48906 1.78657 8.80479e-19)
(-8.07265 1.6923 6.73923e-19)
(-7.55271 1.57678 2.18427e-18)
(-6.93536 1.4423 -1.78864e-18)
(-6.21592 1.28953 1.46753e-18)
(-5.38274 1.11848 -4.97239e-18)
(-4.41163 0.928488 2.13031e-18)
(-3.25072 0.718335 0)
(-1.80624 0.483405 -3.11488e-18)
(-8.14021 1.72847 -8.25526e-17)
(-8.76187 1.85501 2.6005e-17)
(-8.74049 1.84455 1.38381e-20)
(-8.46337 1.77926 -1.01778e-20)
(-8.05212 1.68509 -1.5754e-20)
(-7.53866 1.56961 -1.08336e-18)
(-6.92917 1.43493 8.87072e-19)
(-6.21926 1.28143 -7.29216e-18)
(-5.39789 1.10857 4.86922e-18)
(-4.44301 0.914572 2.08275e-18)
(-3.3079 0.694957 -3.53633e-18)
(-1.91186 0.444551 6.35165e-18)
(-8.10789 1.7215 0)
(-8.72804 1.84744 8.09061e-19)
(-8.70836 1.83695 5.81982e-19)
(-8.43478 1.7719 -4.28179e-19)
(-8.02844 1.67811 -1.11459e-17)
(-7.52108 1.56309 8.39383e-18)
(-6.91887 1.42892 0)
(-6.21738 1.27593 -7.11175e-18)
(-5.40565 1.10361 4.76899e-18)
(-4.46231 0.910454 0)
(-3.34205 0.692229 0)
(-1.96452 0.433951 0)
(-8.07396 1.7142 0)
(-8.69211 1.83941 -7.92581e-19)
(-8.67383 1.82875 -5.56261e-19)
(-8.40365 1.76382 4.09222e-19)
(-8.00214 1.6703 -1.0901e-17)
(-7.50095 1.55565 7.20544e-18)
(-6.90627 1.42194 8.30897e-19)
(-6.2138 1.26956 1.41315e-18)
(-5.41286 1.09823 -4.66834e-18)
(-4.48341 0.907075 7.87053e-18)
(-3.38385 0.693872 -4.28442e-20)
(-2.04569 0.448046 0)
(-8.03797 1.70639 5.98678e-19)
(-8.65365 1.83069 -2.44393e-17)
(-8.63647 1.81975 1.82026e-17)
(-8.36946 1.75485 -1.03932e-20)
(-7.97253 1.66145 1.60778e-20)
(-7.47718 1.54691 2.57184e-20)
(-6.88966 1.41318 -8.33805e-19)
(-6.20576 1.26051 -1.34829e-18)
(-5.41506 1.08829 0)
(-4.49828 0.894688 1.89628e-18)
(-3.41499 0.673471 -4.97781e-18)
(-2.08771 0.416418 2.74544e-18)
(-8.00004 1.69825 3.73852e-17)
(-8.61277 1.82164 -2.39225e-17)
(-8.59641 1.81042 -1.77974e-17)
(-8.33237 1.74559 2.49952e-17)
(-7.93983 1.65241 -9.81227e-18)
(-7.45008 1.53817 2.59229e-20)
(-6.86939 1.4048 -7.94762e-19)
(-6.19374 1.25248 1.3534e-18)
(-5.413 1.08072 -3.363e-18)
(-4.50881 0.888828 3.70346e-18)
(-3.44267 0.676378 -3.19947e-18)
(-2.14525 0.435079 0)
(-7.96015 1.68961 -7.43042e-17)
(-8.5695 1.81194 2.30139e-17)
(-8.55371 1.80034 5.34551e-19)
(-8.2925 1.7355 -1.27968e-17)
(-7.90417 1.64242 1.02149e-17)
(-7.41979 1.52828 -6.71957e-18)
(-6.84563 1.39491 7.86919e-18)
(-6.17778 1.24233 0)
(-5.40643 1.06976 -1.10462e-18)
(-4.51428 0.875443 -1.85517e-18)
(-3.46616 0.654397 -1.53053e-18)
(-2.19823 0.397797 5.20338e-18)
(-7.91847 1.6806 0)
(-8.52398 1.80187 1.01761e-20)
(-8.50852 1.78993 -1.69968e-17)
(-8.24997 1.72516 1.2508e-17)
(-7.86571 1.63232 0)
(-7.38649 1.51852 0)
(-6.81854 1.38553 -1.53749e-18)
(-6.15803 1.23334 0)
(-5.39531 1.06124 0)
(-4.51357 0.86814 -3.57296e-18)
(-3.47839 0.651635 3.03306e-18)
(-2.22613 0.398722 -2.65639e-18)
(-7.87497 1.67121 0)
(-8.47627 1.79134 1.02424e-20)
(-8.4609 1.77894 1.45407e-20)
(-8.20491 1.71417 0)
(-7.82461 1.62146 0)
(-7.35043 1.50785 0)
(-6.78851 1.37497 1.50022e-18)
(-6.1351 1.22269 1.226e-18)
(-5.38085 1.05005 -4.15328e-18)
(-4.50993 0.855419 3.4797e-18)
(-3.49059 0.634853 1.45317e-18)
(-2.26441 0.375786 2.44254e-20)
(-7.8297 1.66144 0)
(-8.42659 1.78048 -2.21047e-17)
(-8.41105 1.76769 1.61907e-17)
(-8.15746 1.70301 1.11851e-17)
(-7.78101 1.61059 -1.78586e-17)
(-7.31169 1.49738 6.26675e-18)
(-6.75544 1.36495 -5.874e-18)
(-6.10843 1.21311 3.61897e-18)
(-5.36143 1.04075 0)
(-4.49911 0.846056 0)
(-3.49113 0.625046 -1.45503e-18)
(-2.28019 0.365702 7.33248e-20)
(-7.78368 1.65161 0)
(-8.37543 1.76938 1.03057e-20)
(-8.35945 1.75616 -4.70637e-19)
(-8.10818 1.69156 1.07371e-20)
(-7.7356 1.59947 0)
(-7.27121 1.48673 2.65539e-20)
(-6.72069 1.3549 -1.42468e-18)
(-6.08006 1.20375 0)
(-5.34004 1.03212 0)
(-4.48572 0.838059 0)
(-3.4881 0.617322 -2.78532e-18)
(-2.29142 0.357887 9.44231e-18)
(-7.73663 1.64155 0)
(-8.3229 1.7579 6.56306e-19)
(-8.30625 1.74424 -1.44208e-17)
(-8.05724 1.67973 1.1288e-17)
(-7.68858 1.58799 0)
(-7.22931 1.4758 -5.91703e-18)
(-6.68482 1.34471 6.92919e-18)
(-6.05093 1.19452 -1.13156e-18)
(-5.31816 1.02417 -3.83649e-18)
(-4.47175 0.831953 3.20853e-18)
(-3.48335 0.614852 -1.37238e-18)
(-2.29754 0.363089 -2.28161e-18)
(-7.68826 1.63122 0)
(-8.26855 1.74598 -6.38792e-19)