/*--------------------------------*- C++ -*----------------------------------*\
| =========                 |                                                 |
| \\      /  F ield         | OpenFOAM: The Open Source CFD Toolbox           |
|  \\    /   O peration     | Version:  2.3.0                                 |
|   \\  /    A nd           | Web:      www.OpenFOAM.org                      |
|    \\/     M anipulation  |                                                 |
\*---------------------------------------------------------------------------*/
FoamFile
{
    version     2.0;
    format      ascii;
    class       volVectorField;
    location    "350";
    object      U;
}
// * * * * * * * * * * * * * * * * * * * * * * * * * * * * * * * * * * * * * //

dimensions      [0 1 -1 0 0 0 0];

internalField   nonuniform List<vector> 
7991
(
(20.0791 0.143905 -4.14813e-23)
(20.0815 0.157546 -4.42123e-22)
(20.0847 0.173503 1.93233e-21)
(20.0889 0.192368 -1.45119e-21)
(20.0937 0.213712 -1.02581e-20)
(20.0984 0.236647 2.5312e-20)
(20.102 0.260092 -1.47782e-20)
(20.1033 0.283018 0)
(20.1012 0.304575 0)
(20.0951 0.32412 -1.6786e-20)
(20.0845 0.341215 1.55506e-20)
(20.0692 0.355585 -1.97201e-20)
(20.0492 0.366973 1.8137e-20)
(20.0243 0.372521 0)
(19.9953 0.375088 0)
(20.065 0.141987 0)
(20.0626 0.150617 0)
(20.0588 0.158926 0)
(20.0537 0.167254 -3.77597e-21)
(20.0473 0.175779 7.84508e-21)
(20.0399 0.184569 7.03415e-22)
(20.0319 0.193533 -9.87476e-21)
(20.0234 0.202431 5.08381e-21)
(20.0146 0.210939 -7.18919e-21)
(20.0056 0.218719 -1.48825e-21)
(19.9964 0.225478 1.66784e-20)
(19.9873 0.230991 -1.34401e-20)
(19.9781 0.235106 4.63152e-21)
(19.9692 0.237712 0)
(19.9608 0.238703 1.1081e-35)
(20.0554 0.140276 0)
(20.0524 0.147528 0)
(20.049 0.154518 8.23665e-21)
(20.0451 0.16106 -8.06175e-21)
(20.0406 0.166977 -1.0552e-20)
(20.0356 0.172121 -1.4602e-21)
(20.03 0.176421 -1.41908e-21)
(20.0241 0.17987 1.17315e-20)
(20.0178 0.182494 0)
(20.0113 0.184341 0)
(20.0048 0.185461 0)
(19.9983 0.18591 0)
(19.9919 0.185743 0)
(19.9857 0.18502 0)
(19.9798 0.183794 0)
(20.0475 0.135744 0)
(20.0437 0.140639 -4.23742e-21)
(20.0394 0.145196 4.18848e-21)
(20.0348 0.149262 0)
(20.03 0.152851 -1.06545e-20)
(20.025 0.155944 1.02351e-20)
(20.02 0.15853 -1.16442e-20)
(20.015 0.160609 2.31603e-20)
(20.0101 0.162189 -5.31141e-21)
(20.0053 0.16329 -5.92002e-21)
(20.0006 0.163936 0)
(19.9961 0.164157 0)
(19.9917 0.163984 0)
(19.9876 0.163454 -1.70519e-21)
(19.9837 0.162594 1.6698e-21)
(20.0422 0.131524 0)
(20.0386 0.135026 0)
(20.0349 0.138309 5.27659e-21)
(20.031 0.141111 4.63057e-22)
(20.027 0.143474 -5.4505e-21)
(20.023 0.145403 -6.15305e-21)
(20.019 0.146916 5.93895e-21)
(20.015 0.148037 0)
(20.011 0.148792 0)
(20.0072 0.149209 0)
(20.0034 0.149313 0)
(19.9997 0.14913 0)
(19.9962 0.148683 -3.62832e-21)
(19.9928 0.147997 3.55297e-21)
(19.9895 0.14709 -6.70781e-36)
(20.0383 0.127369 0)
(20.0349 0.129811 -2.62088e-21)
(20.0315 0.132135 2.58522e-21)
(20.028 0.134067 0)
(20.0245 0.135663 0)
(20.021 0.136939 6.27104e-21)
(20.0176 0.137914 -1.2561e-20)
(20.0142 0.138606 -3.38938e-22)
(20.0109 0.139033 -3.25348e-22)
(20.0076 0.139212 -3.12082e-22)
(20.0045 0.139158 6.84447e-21)
(20.0014 0.138886 0)
(19.9984 0.138411 0)
(19.9955 0.137746 -1.91616e-21)
(19.9927 0.136904 1.90584e-21)
(20.0354 0.123717 0)
(20.0324 0.125424 0)
(20.0294 0.1271 0)
(20.0264 0.128483 0)
(20.0234 0.129605 0)
(20.0204 0.13048 0)
(20.0174 0.131125 0)
(20.0145 0.131552 0)
(20.0116 0.131773 0)
(20.0088 0.131798 0)
(20.0061 0.131638 0)
(20.0034 0.131301 0)
(20.0007 0.130797 0)
(19.9982 0.130133 0)
(19.9957 0.129318 0)
(20.0334 0.120286 -1.36128e-21)
(20.0308 0.121618 1.34773e-21)
(20.0281 0.122851 0)
(20.0254 0.12387 0)
(20.0227 0.124686 0)
(20.0201 0.125309 0)
(20.0175 0.125751 -6.79527e-21)
(20.0149 0.126019 6.72364e-21)
(20.0123 0.126122 0)
(20.0098 0.126064 0)
(20.0073 0.12585 -3.83948e-21)
(20.0049 0.125486 3.82963e-21)
(20.0025 0.124976 0)
(20.0002 0.124325 0)
(19.9979 0.123538 3.8465e-36)
(20.032 0.117152 1.40043e-21)
(20.0296 0.11833 -1.39397e-21)
(20.0272 0.119281 0)
(20.0248 0.12006 0)
(20.0224 0.120671 0)
(20.02 0.121127 -3.35623e-21)
(20.0177 0.121434 6.79641e-21)
(20.0153 0.121598 -7.02436e-21)
(20.013 0.121624 -1.29564e-22)
(20.0107 0.121513 3.6918e-21)
(20.0085 0.121267 3.94798e-21)
(20.0062 0.120888 -3.95418e-21)
(20.0041 0.120377 2.10592e-21)
(20.0019 0.119736 -1.02573e-21)
(19.9998 0.118971 -1.09121e-21)
(20.0308 0.114627 0)
(20.0287 0.115573 0)
(20.0265 0.11629 0)
(20.0244 0.116886 3.19314e-21)
(20.0223 0.11735 -3.17191e-21)
(20.0201 0.117686 0)
(20.018 0.117898 0)
(20.0158 0.117991 3.63814e-21)
(20.0137 0.117965 -3.64089e-21)
(20.0116 0.117819 -3.89562e-21)
(20.0095 0.117555 5.92526e-21)
(20.0074 0.11717 -2.02468e-21)
(20.0054 0.116662 0)
(20.0033 0.116032 1.11294e-21)
(20.0014 0.115283 -1.11966e-21)
(20.0299 0.112345 -7.3046e-22)
(20.028 0.11317 2.24227e-21)
(20.0261 0.113736 -1.50652e-21)
(20.0242 0.114206 3.22745e-21)
(20.0222 0.114566 -3.21484e-21)
(20.0203 0.114817 3.44009e-21)
(20.0183 0.114962 -3.43965e-21)
(20.0163 0.115003 0)
(20.0143 0.114939 0)
(20.0123 0.114769 -1.97248e-21)
(20.0103 0.114494 1.98332e-21)
(20.0084 0.114108 0)
(20.0065 0.113606 0)
(20.0046 0.112986 0)
(20.0027 0.11225 0)
(20.0293 0.110421 0)
(20.0275 0.111096 0)
(20.0258 0.11155 -1.57682e-21)
(20.0241 0.111924 3.1952e-21)
(20.0223 0.112211 -1.62102e-21)
(20.0205 0.112399 0)
(20.0186 0.112493 0)
(20.0167 0.112498 0)
(20.0149 0.112405 1.91379e-21)
(20.013 0.112215 -1.92478e-21)
(20.0111 0.111933 -2.05115e-21)
(20.0092 0.111551 2.06511e-21)
(20.0074 0.111059 0)
(20.0056 0.110447 0)
(20.0039 0.109716 0)
(20.0288 0.108817 0)
(20.0272 0.109297 0)
(20.0256 0.109663 1.58682e-21)
(20.024 0.109955 -1.58128e-21)
(20.0223 0.110194 -1.68029e-21)
(20.0207 0.11035 3.41366e-21)
(20.0189 0.110404 -1.73658e-21)
(20.0171 0.110381 1.84875e-21)
(20.0153 0.110261 -1.8582e-21)
(20.0135 0.110051 0)
(20.0117 0.109767 2.04619e-21)
(20.0099 0.109394 -2.06007e-21)
(20.0082 0.108912 1.09379e-21)
(20.0065 0.108309 -1.10092e-21)
(20.0048 0.107568 0)
(20.0283 0.107268 0)
(20.0268 0.10769 0)
(20.0254 0.108029 0)
(20.0239 0.108233 -1.68038e-21)
(20.0224 0.108447 3.38042e-21)
(20.0208 0.108608 -1.62707e-21)
(20.0192 0.108623 0)
(20.0174 0.108579 0)
(20.0157 0.10844 0)
(20.014 0.1082 0)
(20.0122 0.107907 0)
(20.0104 0.107541 1.0429e-21)
(20.0088 0.107072 -1.04536e-21)
(20.0072 0.106506 -2.72741e-22)
(20.0056 0.105748 2.7991e-22)
(19.951 0.340976 0)
(19.9076 0.326039 0)
(19.8714 0.30748 3.59597e-20)
(19.8427 0.291315 -3.91419e-20)
(19.822 0.273977 4.30882e-20)
(19.8096 0.254852 -4.65549e-20)
(19.8052 0.233942 0)
(19.8081 0.211514 0)
(19.817 0.188004 -1.08125e-19)
(19.8303 0.164114 2.20608e-19)
(19.8459 0.140808 -1.10979e-19)
(19.8621 0.119182 -5.2522e-20)
(19.8776 0.100199 1.01437e-19)
(19.892 0.0844612 -2.52849e-20)
(19.9051 0.0709183 -2.18326e-20)
(19.9529 0.238137 -1.11152e-35)
(19.9455 0.235555 0)
(19.9386 0.230514 9.91282e-21)
(19.932 0.223154 -3.39434e-20)
(19.926 0.213576 5.19445e-20)
(19.9207 0.201995 1.51498e-21)
(19.9162 0.188765 -3.28529e-20)
(19.9126 0.174372 3.73652e-20)
(19.9099 0.159399 -7.98661e-20)
(19.9082 0.14446 1.47016e-22)
(19.9077 0.130089 8.70988e-20)
(19.9086 0.116646 -4.44068e-20)
(19.9111 0.104258 0)
(19.9153 0.0928929 0)
(19.921 0.0816185 0)
(19.974 0.182123 0)
(19.9681 0.179922 0)
(19.9622 0.177066 0)
(19.9563 0.173538 0)
(19.9505 0.169298 0)
(19.945 0.164318 0)
(19.9399 0.158577 0)
(19.9355 0.152067 2.76467e-20)
(19.9319 0.144791 5.97731e-22)
(19.9293 0.136769 4.94375e-22)
(19.9279 0.128055 -3.334e-20)
(19.9276 0.118759 -3.49686e-20)
(19.9285 0.109071 3.5726e-20)
(19.9306 0.0992713 0)
(19.9337 0.0890673 0)
(19.9799 0.16142 1.82824e-21)
(19.9761 0.159872 -1.87107e-21)
(19.9723 0.157871 0)
(19.9684 0.155381 0)
(19.9647 0.152363 0)
(19.961 0.148783 -1.05773e-20)
(19.9575 0.144613 -1.17617e-20)
(19.9542 0.139836 4.84476e-20)
(19.9513 0.13445 -2.57106e-20)
(19.9487 0.128475 2.80268e-20)
(19.9466 0.121951 -2.91806e-20)
(19.9451 0.114947 0)
(19.9443 0.107551 1.58367e-20)
(19.9443 0.0998673 -1.6021e-20)
(19.9452 0.0915847 0)
(19.9863 0.145969 6.72062e-36)
(19.9831 0.144598 4.09375e-21)
(19.9799 0.142933 -4.18094e-21)
(19.9768 0.140953 0)
(19.9736 0.138635 0)
(19.9705 0.135954 0)
(19.9675 0.132886 0)
(19.9647 0.129409 0)
(19.9621 0.125501 1.20623e-20)
(19.9597 0.121148 -1.24992e-20)
(19.9576 0.116341 -1.33819e-20)
(19.956 0.111084 -1.66346e-22)
(19.9548 0.105399 1.42922e-20)
(19.9542 0.0993218 0)
(19.9542 0.0925978 0)
(19.99 0.135886 2.03455e-21)
(19.9874 0.134667 -2.04927e-21)
(19.9847 0.133219 0)
(19.982 0.131527 0)
(19.9794 0.129579 9.58263e-21)
(19.9769 0.127358 2.52216e-22)
(19.9744 0.124848 2.48421e-22)
(19.972 0.122033 2.41993e-22)
(19.9698 0.118897 -2.27487e-20)
(19.9677 0.115425 1.18059e-20)
(19.9659 0.111604 0)
(19.9642 0.107431 0)
(19.9629 0.102908 6.72757e-21)
(19.962 0.0980534 -6.82056e-21)
(19.9614 0.0927122 0)
(19.9933 0.128353 0)
(19.9909 0.127221 0)
(19.9885 0.125902 0)
(19.9862 0.124392 0)
(19.9839 0.12268 0)
(19.9816 0.120757 0)
(19.9795 0.118614 0)
(19.9774 0.11624 0)
(19.9754 0.113623 0)
(19.9736 0.110751 0)
(19.9719 0.107611 0)
(19.9704 0.104192 0)
(19.9691 0.100484 0)
(19.9681 0.096477 0)
(19.9674 0.0920184 0)
(19.9957 0.122618 -3.85249e-36)
(19.9936 0.121551 0)
(19.9914 0.120327 0)
(19.9893 0.118942 4.80434e-21)
(19.9872 0.117392 -4.81682e-21)
(19.9852 0.115672 0)
(19.9833 0.113776 0)
(19.9814 0.111698 1.06694e-20)
(19.9797 0.109433 -1.07835e-20)
(19.978 0.106971 0)
(19.9765 0.104303 0)
(19.9751 0.101421 0)
(19.9739 0.098315 0)
(19.9729 0.0949809 3.12709e-21)
(19.9721 0.0913499 -3.11658e-21)
(19.9978 0.118083 -1.15143e-21)
(19.9958 0.117064 -1.20478e-21)
(19.9938 0.115909 2.34593e-21)
(19.9918 0.114617 -4.90119e-21)
(19.9899 0.113185 4.89358e-21)
(19.9881 0.111611 5.09943e-21)
(19.9863 0.109893 9.7985e-23)
(19.9846 0.108029 -1.05334e-20)
(19.9831 0.106017 1.07713e-20)
(19.9816 0.103852 -5.46995e-21)
(19.9802 0.101529 0)
(19.9789 0.0990412 0)
(19.9778 0.096381 0)
(19.9768 0.0935492 -3.02591e-21)
(19.9759 0.090505 2.9774e-21)
(19.9995 0.114419 -1.179e-21)
(19.9976 0.113438 1.17349e-21)
(19.9957 0.112337 0)
(19.9939 0.111116 -2.4867e-21)
(19.9921 0.109775 7.52958e-21)
(19.9904 0.10831 -5.03592e-21)
(19.9888 0.106725 -5.21501e-21)
(19.9872 0.10502 5.21115e-21)
(19.9858 0.103196 0)
(19.9844 0.101254 0)
(19.9831 0.0991894 -5.58538e-21)
(19.982 0.0969985 5.62288e-21)
(19.9809 0.0946759 0)
(19.98 0.0922231 0)
(19.9792 0.0896067 0)
(20.0009 0.111404 0)
(19.9991 0.110453 0)
(19.9973 0.109395 0)
(19.9956 0.108233 0)
(19.9939 0.106964 2.53953e-21)
(19.9923 0.105584 -2.52567e-21)
(19.9908 0.104099 0)
(19.9894 0.102515 0)
(19.988 0.100836 -5.34832e-21)
(19.9867 0.0990655 5.34908e-21)
(19.9855 0.0972004 -5.50324e-21)
(19.9845 0.0952396 5.5249e-21)
(19.9835 0.0931802 -2.8375e-21)
(19.9826 0.0910251 4.29379e-21)
(19.9818 0.0887584 -1.44391e-21)
(20.0021 0.108884 0)
(20.0003 0.10796 0)
(19.9986 0.10694 0)
(19.997 0.105828 2.50364e-21)
(19.9954 0.104616 -2.48672e-21)
(19.9939 0.1033 -2.56399e-21)
(19.9925 0.101893 2.54936e-21)
(19.9911 0.100403 0)
(19.9899 0.098839 0)
(19.9887 0.0972049 0)
(19.9876 0.0954963 -2.71375e-21)
(19.9866 0.0937178 5.46921e-21)
(19.9857 0.0918671 -2.76035e-21)
(19.9848 0.0899408 0)
(19.9841 0.0879304 0)
(20.0031 0.106749 0)
(20.0014 0.105852 -1.20937e-21)
(19.9998 0.104868 1.20156e-21)
(19.9982 0.103802 -2.48452e-21)
(19.9967 0.102628 2.46776e-21)
(19.9953 0.101362 0)
(19.9939 0.100016 -2.56489e-21)
(19.9926 0.0985992 2.55188e-21)
(19.9914 0.0971302 -2.6155e-21)
(19.9903 0.0956072 5.2523e-21)
(19.9893 0.0940186 -2.64159e-21)
(19.9883 0.0923947 -2.70505e-21)
(19.9875 0.0907231 2.71452e-21)
(19.9867 0.0889877 0)
(19.9861 0.0872175 0)
(20.0039 0.104959 3.01511e-22)
(20.0023 0.104085 -2.98689e-22)
(20.0007 0.10311 -1.21752e-21)
(19.9991 0.102095 1.16897e-21)
(19.9978 0.100948 0)
(19.9964 0.0997358 0)
(19.9952 0.098424 0)
(19.9939 0.0970437 0)
(19.9928 0.0956595 0)
(19.9917 0.0942222 -2.6145e-21)
(19.9908 0.0927033 5.37666e-21)
(19.9899 0.0912119 -2.69049e-21)
(19.9891 0.0897016 0)
(19.9884 0.0881115 0)
(19.9877 0.086519 0)
(20.0666 0.010026 -8.96372e-21)
(20.0259 0.0073636 1.00397e-20)
(19.953 0.00411231 0)
(19.8306 0.000230569 0)
(19.6408 -0.00457763 0)
(19.3741 -0.0102556 0)
(19.0299 -0.0167501 -8.09736e-22)
(18.6117 -0.0240955 8.99246e-22)
(18.1233 -0.032232 0)
(17.5637 -0.0410445 0)
(16.9218 -0.050793 -1.48564e-20)
(16.1663 -0.0616097 1.75746e-20)
(15.2273 -0.0753058 -2.95689e-21)
(13.9896 -0.0653247 3.89834e-21)
(12.6266 -0.0789933 -7.01681e-23)
(20.0645 0.0079673 0)
(20.029 0.00579367 -2.18743e-20)
(19.9684 0.00281325 2.41219e-20)
(19.8699 -0.00142496 0)
(19.7196 -0.00733142 0)
(19.5073 -0.0146893 0)
(19.2283 -0.023051 0)
(18.8811 -0.031961 6.34572e-20)
(18.4643 -0.041022 -7.03128e-20)
(17.9724 -0.0499852 8.73321e-20)
(17.3907 -0.0591379 3.04936e-21)
(16.685 -0.068628 -1.18995e-19)
(15.7921 -0.0804996 7.41261e-20)
(14.6622 -0.0763224 -4.59691e-20)
(13.5862 -0.0484083 -6.03581e-20)
(20.063 0.00389797 0)
(20.0319 0.000233559 0)
(19.9805 -0.00442427 3.01996e-20)
(19.899 -0.0101329 -3.29101e-20)
(19.7759 -0.0167769 -4.3174e-20)
(19.6014 -0.0238988 -3.34919e-21)
(19.3683 -0.0311065 -2.81723e-21)
(19.0718 -0.0381997 6.29111e-20)
(18.7065 -0.0451472 0)
(18.2636 -0.0520627 0)
(17.7249 -0.0594702 0)
(17.0541 -0.0674851 0)
(16.1942 -0.0761158 0)
(15.1274 -0.0725257 0)
(14.1651 -0.0345665 0)
(20.0598 0.000640453 0)
(20.0308 -0.00334131 -1.14047e-20)
(19.9846 -0.00793651 1.23642e-20)
(19.9136 -0.0131327 0)
(19.8088 -0.0188484 -3.18535e-20)
(19.6609 -0.0248472 3.44261e-20)
(19.4619 -0.0309462 -3.80125e-20)
(19.2041 -0.0370691 8.28011e-20)
(18.8791 -0.0432461 -2.26151e-20)
(18.4749 -0.0496211 -2.51175e-20)
(17.9701 -0.0566784 0)
(17.327 -0.0645551 0)
(16.4918 -0.0717669 0)
(15.4611 -0.0675803 -1.16874e-20)
(14.5479 -0.0288233 1.41963e-20)
(20.0559 -0.00102486 0)
(20.0287 -0.00463329 0)
(19.987 -0.00866984 1.10161e-20)
(19.925 -0.0131951 1.33379e-22)
(19.835 -0.0181993 1.16191e-22)
(19.7087 -0.0235489 -2.79534e-20)
(19.5369 -0.0291014 1.51196e-20)
(19.3105 -0.0347738 -1.65599e-20)
(19.0186 -0.0405871 -8.45329e-23)
(18.6464 -0.046695 1.98629e-20)
(18.1703 -0.0535357 0)
(17.5507 -0.0613031 0)
(16.7354 -0.067884 -1.48379e-20)
(15.7274 -0.0632058 1.75695e-20)
(14.8379 -0.0257113 0)
(20.0527 -0.00226016 0)
(20.0275 -0.00543541 0)
(19.9902 -0.0090983 1.03799e-20)
(19.9358 -0.0132039 -2.2377e-20)
(19.8578 -0.0177179 2.43683e-20)
(19.7483 -0.0225587 2.15063e-22)
(19.5982 -0.0276318 -2.8863e-20)
(19.397 -0.0328847 1.56409e-20)
(19.1321 -0.0383568 -1.72337e-20)
(18.7867 -0.044221 3.77354e-20)
(18.335 -0.0508745 -2.08694e-20)
(17.736 -0.0585131 0)
(16.9374 -0.0648096 0)
(15.9446 -0.0598796 0)
(15.0674 -0.0236856 0)
(20.05 -0.00300825 0)
(20.0267 -0.00594336 0)
(19.9929 -0.00938998 0)
(19.9445 -0.0131739 0)
(19.8758 -0.0172902 0)
(19.7795 -0.0217248 0)
(19.6464 -0.0264366 0)
(19.4655 -0.0314006 0)
(19.2228 -0.0366608 0)
(18.9001 -0.0423882 0)
(18.4696 -0.0489385 0)
(17.8886 -0.0564712 0)
(17.1043 -0.0626057 0)
(16.1223 -0.05753 0)
(15.2514 -0.022267 0)
(20.0476 -0.00364478 0)
(20.0257 -0.00619544 4.26914e-21)
(19.9948 -0.00941167 -4.49581e-21)
(19.9513 -0.0129514 9.77224e-21)
(19.8899 -0.0168104 1.69707e-22)
(19.804 -0.0210098 -2.24135e-20)
(19.6845 -0.0255344 -2.2439e-22)
(19.5201 -0.0303695 -2.56673e-22)
(19.2962 -0.0355514 2.1575e-20)
(18.9928 -0.0412345 1.69971e-22)
(18.5808 -0.0477376 -8.7465e-21)
(18.0161 -0.0551806 1.0113e-20)
(17.2443 -0.0611846 -1.71243e-20)
(16.2704 -0.0559781 6.62757e-21)
(15.4025 -0.0213038 0)
(20.045 -0.00350269 1.8898e-21)
(20.0246 -0.00604468 -1.98635e-21)
(19.9962 -0.00919566 0)
(19.9566 -0.0126158 0)
(19.9012 -0.0163702 0)
(19.8236 -0.0205031 -5.14075e-21)
(19.7152 -0.0250084 1.10315e-20)
(19.5644 -0.0298698 -1.20714e-20)
(19.3562 -0.0351073 -2.27357e-22)
(19.0696 -0.0408519 7.27044e-21)
(18.674 -0.0473715 0)
(18.1238 -0.0547059 0)
(17.3634 -0.0604891 5.53146e-21)
(16.3963 -0.0550259 -3.08798e-21)
(15.5298 -0.0205791 -3.60232e-21)
(20.0428 -0.00357696 0)
(20.0236 -0.00586544 0)
(19.9973 -0.00885398 0)
(19.9609 -0.0121845 4.03525e-21)
(19.9102 -0.0159158 -4.22012e-21)
(19.8394 -0.0200942 0)
(19.74 -0.0247187 0)
(19.6007 -0.0297584 5.60349e-21)
(19.4059 -0.0352047 -5.955e-21)
(19.1339 -0.0411523 -7.09729e-21)
(18.7532 -0.0478474 1.1695e-20)
(18.2165 -0.0552821 -4.4114e-21)
(17.4665 -0.0609882 0)
(16.5052 -0.0551766 3.15561e-21)
(15.6388 -0.020573 -3.54464e-21)
(20.0406 -0.00292698 0)
(20.0225 -0.00535074 0)
(19.998 -0.00829954 0)
(19.9642 -0.0115912 3.59677e-21)
(19.9173 -0.0153783 4.28354e-23)
(19.8518 -0.0197431 -8.03018e-21)
(19.7596 -0.0246829 4.27325e-21)
(19.6297 -0.0301212 0)
(19.4461 -0.0359761 0)
(19.1867 -0.0423872 -3.35704e-21)
(18.8186 -0.0495277 3.59401e-21)
(18.2941 -0.0570385 0)
(17.5546 -0.0623568 0)
(16.5996 -0.0558477 0)
(15.7341 -0.0203503 0)
(20.0388 -0.00254535 0)
(20.0216 -0.00471071 1.53747e-21)
(19.9985 -0.00750411 -3.11911e-21)
(19.9669 -0.0106675 1.58869e-21)
(19.9231 -0.0144145 0)
(19.8621 -0.018892 0)
(19.7762 -0.0242442 3.64141e-21)
(19.6545 -0.0303063 -3.82096e-21)
(19.4814 -0.0366762 0)
(19.2334 -0.0433922 -2.88819e-21)
(18.8783 -0.051377 -4.34238e-22)
(18.3659 -0.0606951 1.54262e-21)
(17.6357 -0.0669967 2.43681e-21)
(16.6846 -0.0596659 -1.72764e-21)
(15.8181 -0.0233437 1.91561e-21)
(20.0369 -0.00163756 0)
(20.0204 -0.00390069 0)
(19.9986 -0.00659726 0)
(19.9687 -0.00961219 0)
(19.9268 -0.0134391 0)
(19.8684 -0.0182577 1.37753e-21)
(19.7854 -0.0243329 -1.43397e-21)
(19.6694 -0.0316281 0)
(19.5042 -0.0387646 0)
(19.2645 -0.0462589 0)
(18.9135 -0.0553239 0)
(18.4086 -0.0654272 -2.40816e-21)
(17.6958 -0.0716897 2.61307e-21)
(16.758 -0.0622412 0)
(15.8929 -0.0228185 0)
(20.0357 -0.000546389 0)
(20.0203 -0.00274919 0)
(20.0003 -0.00533764 0)
(19.9716 -0.00771768 -1.03587e-21)
(19.9331 -0.0109172 1.90697e-21)
(19.8801 -0.0148449 -8.65395e-22)
(19.8048 -0.021088 0)
(19.6958 -0.0303346 0)
(19.5442 -0.0380258 0)
(19.315 -0.0432618 0)
(18.9919 -0.0527726 0)
(18.4956 -0.0740776 0)
(17.7824 -0.0850265 0)
(16.8322 -0.0720056 -1.03075e-21)
(15.9602 -0.040873 1.13532e-21)
(12.6848 0.0860149 -5.04987e-22)
(14.0895 0.0700122 5.32158e-21)
(15.3403 0.0796364 -3.80903e-21)
(16.2847 0.06598 2.01069e-20)
(17.0431 0.0553858 -1.70039e-20)
(17.6861 0.0458787 0)
(18.2445 0.0373439 0)
(18.7287 0.0295557 6.98763e-21)
(19.139 0.0226629 -6.29277e-21)
(19.4718 0.0167423 0)
(19.7238 0.0117596 0)
(19.8969 0.00782673 0)
(20.0036 0.0048739 0)
(20.0633 0.00270549 7.92091e-21)
(20.093 0.000905224 -7.12614e-21)
(13.6331 0.0581747 -5.99926e-20)
(14.7608 0.0839207 -4.53676e-20)
(15.9087 0.0875978 7.34411e-20)
(16.8072 0.0757492 -1.17172e-19)
(17.5144 0.0665259 3.48867e-21)
(18.0953 0.0576282 8.56305e-20)
(18.584 0.0489132 -6.78546e-20)
(18.9947 0.040126 6.12451e-20)
(19.3327 0.031553 0)
(19.5996 0.0236152 0)
(19.7976 0.0167878 0)
(19.9328 0.0115617 0)
(20.0174 0.00808449 2.02202e-20)
(20.0662 0.00594347 -1.83388e-20)
(20.0917 0.00440382 0)
(14.2092 0.0464603 0)
(15.226 0.0826335 0)
(16.3133 0.0855581 0)
(17.1786 0.0769095 0)
(17.8496 0.0691768 0)
(18.3858 0.0620516 0)
(18.8237 0.0553934 0)
(19.1813 0.0486936 6.00546e-20)
(19.4677 0.0418619 -3.3259e-21)
(19.6884 0.0349483 -3.85183e-21)
(19.8492 0.028185 -4.00311e-20)
(19.9587 0.0220114 -2.9127e-20)
(20.0278 0.0168721 2.67213e-20)
(20.0686 0.0128622 0)
(20.0906 0.00975307 0)
(14.5918 0.0423773 1.40612e-20)
(15.5608 0.079617 -1.15565e-20)
(16.6129 0.0830767 0)
(17.4531 0.0758311 0)
(18.0951 0.0682344 0)
(18.5957 0.0614665 -2.3996e-20)
(18.9934 0.0553441 -2.11758e-20)
(19.3096 0.0493918 7.78783e-20)
(19.5565 0.0434872 -3.55393e-20)
(19.7432 0.0376214 3.12798e-20)
(19.8782 0.0319032 -2.89327e-20)
(19.9706 0.0265493 0)
(20.0305 0.0217929 1.04929e-20)
(20.0671 0.0176958 -9.67953e-21)
(20.0878 0.0141953 0)
(14.8822 0.0405815 0)
(15.8284 0.0767173 1.71965e-20)
(16.8581 0.0806667 -1.45345e-20)
(17.6778 0.0740519 0)
(18.2949 0.0665634 0)
(18.7654 0.0600168 1.878e-20)
(19.1298 0.0541571 -2.85239e-22)
(19.412 0.048554 -1.54691e-20)
(19.6271 0.0430784 1.37174e-20)
(19.7867 0.0377353 -2.51385e-20)
(19.901 0.0326366 3.23365e-22)
(19.9797 0.0279425 3.43968e-22)
(20.0317 0.0237766 9.41551e-21)
(20.0646 0.0201305 0)
(20.0842 0.0169402 0)
(15.1123 0.039631 0)
(16.0469 0.0745659 0)
(17.0614 0.0787907 0)
(17.8635 0.0724716 0)
(18.4588 0.0651179 -1.98845e-20)
(18.9037 0.0587654 3.57653e-20)
(19.2401 0.0531496 -1.6243e-20)
(19.4945 0.0478828 1.43456e-20)
(19.6842 0.0428192 -2.6254e-20)
(19.8226 0.0379456 4.13068e-22)
(19.9207 0.033336 2.13425e-20)
(19.9884 0.0290901 -1.91537e-20)
(20.0336 0.0252739 8.77476e-21)
(20.063 0.0219006 0)
(20.0811 0.019026 0)
(15.297 0.0391329 0)
(16.2259 0.0731955 0)
(17.2293 0.0775883 0)
(18.0163 0.0714433 0)
(18.5924 0.0642057 0)
(19.0149 0.0579669 0)
(19.3278 0.052495 0)
(19.5594 0.0474456 0)
(19.7288 0.0426764 0)
(19.8505 0.0381662 0)
(19.9362 0.0339521 0)
(19.9953 0.0300731 0)
(20.0353 0.0265312 0)
(20.0616 0.0233172 0)
(20.0784 0.0205844 0)
(15.4488 0.0388615 0)
(16.3752 0.0724122 6.472e-21)
(17.37 0.0769894 -1.66212e-20)
(18.1436 0.071015 9.79023e-21)
(18.7025 0.063893 -8.2755e-21)
(19.1055 0.0577188 2.67563e-22)
(19.3983 0.0523058 1.99128e-20)
(19.6108 0.0473503 -4.55985e-22)
(19.7636 0.0427247 -4.25608e-22)
(19.8721 0.0384087 -1.95447e-20)
(19.948 0.0344196 3.74333e-22)
(20.0004 0.0307638 8.20535e-21)
(20.0361 0.0274092 -3.55503e-21)
(20.0601 0.0243222 3.37492e-21)
(20.0758 0.021686 0)
(15.5769 0.038855 -3.55963e-21)
(16.5024 0.0721608 -2.98506e-21)
(17.49 0.0769886 5.40359e-21)
(18.2514 0.0712369 0)
(18.7947 0.0642489 0)
(19.1803 0.0580991 6.75673e-21)
(19.4557 0.0526641 -3.26867e-22)
(19.6522 0.0476864 -1.08877e-20)
(19.7915 0.0430643 9.71544e-21)
(19.8892 0.0387896 -4.46901e-21)
(19.9573 0.0348675 0)
(20.0043 0.0312912 0)
(20.0366 0.0280212 0)
(20.0585 0.0250094 -1.45564e-21)
(20.0732 0.022434 1.39931e-21)
(15.6862 0.0388382 -3.52263e-21)
(16.6116 0.0726008 3.12874e-21)
(17.5931 0.0779924 0)
(18.3433 0.0724817 -4.26317e-21)
(18.8724 0.0654814 1.11938e-20)
(19.2426 0.0591876 -6.75843e-21)
(19.5029 0.053562 -5.42747e-21)
(19.6858 0.0484118 5.10714e-21)
(19.8138 0.0436644 0)
(19.9028 0.0392907 0)
(19.9645 0.0353026 -3.34583e-21)
(20.0072 0.031696 3.19945e-21)
(20.0367 0.0284337 0)
(20.0569 0.0254718 0)
(20.0707 0.0230056 0)
(15.7836 0.0397698 0)
(16.7091 0.0740841 0)
(17.6836 0.0799177 0)
(18.4224 0.0744932 0)
(18.9381 0.067462 3.39573e-21)
(19.2944 0.0609254 -3.17288e-21)
(19.5414 0.054959 0)
(19.713 0.049479 0)
(19.8317 0.0444002 3.5588e-21)
(19.9135 0.0397755 -6.52724e-21)
(19.9701 0.0356039 1.82618e-22)
(20.0093 0.0318866 2.70702e-21)
(20.0365 0.02859 0)
(20.0554 0.0256405 0)
(20.0685 0.0231916 0)
(15.8655 0.0390225 1.99257e-21)
(16.7902 0.0773687 -1.79297e-21)
(17.7583 0.0848252 2.49818e-21)
(18.489 0.0788223 1.61696e-21)
(18.9938 0.0707196 -5.40625e-22)
(19.3374 0.063286 -2.90635e-21)
(19.5733 0.056493 0)
(19.7347 0.0504756 -3.40864e-21)
(19.8453 0.0451815 3.2485e-21)
(19.9215 0.0401818 0)
(19.974 0.0357047 0)
(20.0105 0.0318236 1.05024e-21)
(20.036 0.0284577 -2.019e-21)
(20.0538 0.0255574 9.74333e-22)
(20.0663 0.023223 0)
(15.9597 0.0443991 0)
(16.8824 0.0856693 0)
(17.8332 0.0903752 2.18847e-21)
(18.5497 0.0809319 -2.01789e-21)
(19.0398 0.0736405 0)
(19.3723 0.0659585 0)
(19.5978 0.0581914 0)
(19.7532 0.0521774 0)
(19.8574 0.0458489 -9.9645e-22)
(19.9282 0.040139 9.57267e-22)
(19.9775 0.0353294 0)
(20.0115 0.0312916 0)
(20.0356 0.0279721 0)
(20.0526 0.025126 0)
(20.0646 0.0229607 0)
(15.9985 0.0291954 1.5936e-21)
(16.9102 0.0971315 -1.44031e-21)
(17.8501 0.104731 0)
(18.5892 0.0884764 0)
(19.0852 0.0793592 0)
(19.3994 0.0683056 0)
(19.6248 0.0583794 0)
(19.7665 0.0516494 0)
(19.86 0.0469709 0)
(19.9316 0.0400491 -5.85683e-22)
(19.977 0.0348456 1.14462e-21)
(20.0117 0.0305632 -5.62851e-22)
(20.0339 0.027178 0)
(20.0508 0.0244959 0)
(20.0621 0.0228993 0)
(19.3988 0.140013 0)
(19.9621 0.0879532 0)
(20.0657 0.10201 0)
(20.1188 0.11157 0)
(20.1488 0.12117 0)
(20.1649 0.12989 0)
(20.1712 0.13808 0)
(20.1701 0.145401 0)
(20.1633 0.1513 0)
(20.1523 0.155109 0)
(20.139 0.156239 0)
(20.1252 0.154425 0)
(20.1125 0.149901 0)
(20.1018 0.143431 0)
(20.0936 0.135169 0)
(17.5773 -0.261773 0)
(19.9013 0.196315 0)
(19.9562 0.109268 0)
(20.001 0.100089 0)
(20.0411 0.103472 0)
(20.0731 0.108484 0)
(20.0972 0.11317 0)
(20.1142 0.117635 0)
(20.1246 0.121741 0)
(20.1291 0.125219 0)
(20.1284 0.127788 0)
(20.1239 0.129167 0)
(20.1169 0.129106 0)
(20.1088 0.127574 0)
(20.101 0.123726 0)
(15.6915 -0.145239 -1.24931e-37)
(19.8861 0.217282 0)
(19.9819 0.107376 0)
(19.9963 0.108708 0)
(20.025 0.111476 0)
(20.053 0.112504 0)
(20.0764 0.113277 0)
(20.0945 0.114439 0)
(20.1073 0.115749 0)
(20.1151 0.116926 0)
(20.1183 0.117758 0)
(20.1179 0.118096 0)
(20.1146 0.117837 0)
(20.1095 0.117025 0)
(20.1034 0.114745 0)
(14.1677 -0.0585565 0)
(19.7472 0.146171 0)
(20.0169 0.0697323 0)
(20.0267 0.0868262 0)
(20.0426 0.0897709 0)
(20.0625 0.0907622 0)
(20.0811 0.0921595 0)
(20.0963 0.094331 0)
(20.1074 0.0969159 0)
(20.1142 0.0996583 0)
(20.1171 0.102299 0)
(20.1168 0.104555 0)
(20.1141 0.106172 0)
(20.1098 0.107111 0)
(20.1045 0.106633 0)
(14.0821 0.0388774 0)
(19.1293 0.0244579 0)
(19.87 0.0355339 0)
(19.9956 0.0620051 0)
(20.0296 0.0660435 0)
(20.0506 0.0686718 0)
(20.0687 0.0717157 0)
(20.0843 0.0753355 0)
(20.0965 0.0793082 0)
(20.1051 0.083495 0)
(20.1101 0.0876878 0)
(20.1119 0.0916199 0)
(20.111 0.0949967 0)
(20.1082 0.0976726 0)
(20.1041 0.0989761 0)
(14.7182 0.0719699 0)
(18.339 -0.0395346 0)
(19.5643 0.033106 0)
(19.8965 0.0553425 0)
(19.9888 0.0606489 0)
(20.0251 0.0642169 0)
(20.0476 0.0672813 0)
(20.0652 0.0703496 0)
(20.0796 0.0736468 0)
(20.0907 0.077212 0)
(20.0984 0.0809251 0)
(20.103 0.0845988 0)
(20.1048 0.0880036 0)
(20.1043 0.0909913 0)
(20.1021 0.0930354 0)
(15.0759 0.0320821 4.7379e-36)
(17.8263 -0.0253794 0)
(19.2429 0.0398698 0)
(19.7637 0.0552625 0)
(19.9372 0.0635831 0)
(20.0014 0.0681488 0)
(20.0324 0.0708178 0)
(20.0526 0.0728094 0)
(20.0681 0.0748037 0)
(20.0803 0.0770235 0)
(20.0894 0.0794678 0)
(20.0956 0.0820435 0)
(20.0991 0.0845991 0)
(20.1003 0.0870089 0)
(20.0996 0.0889713 0)
(15.1216 0.00748619 0)
(17.5312 0.00123574 0)
(18.9705 0.0394453 0)
(19.6206 0.0537712 0)
(19.8773 0.0650152 0)
(19.9776 0.0705949 0)
(20.0218 0.0734 0)
(20.0462 0.0749979 0)
(20.0626 0.0762806 0)
(20.0751 0.0776207 0)
(20.0844 0.0791405 0)
(20.0911 0.080834 0)
(20.0952 0.0826166 0)
(20.0973 0.0843735 0)
(20.0976 0.0859811 0)
(14.9893 0.00275762 -9.27661e-36)
(17.3314 0.0153579 0)
(18.7489 0.0363772 0)
(19.4795 0.0516926 0)
(19.8089 0.0639582 0)
(19.9482 0.0703255 0)
(20.0097 0.0736983 0)
(20.0406 0.0754757 0)
(20.0591 0.076596 0)
(20.072 0.0775571 0)
(20.0814 0.0785901 0)
(20.0882 0.0797628 0)
(20.0927 0.08105 0)
(20.0952 0.0823609 0)
(20.096 0.083733 0)
(14.8043 0.0037957 -9.41345e-36)
(17.1499 0.019161 0)
(18.5604 0.0340201 0)
(19.3459 0.0494833 0)
(19.7357 0.0615851 0)
(19.913 0.0686422 0)
(19.9941 0.072709 0)
(20.0336 0.0749018 0)
(20.0554 0.0761439 0)
(20.0693 0.0770145 0)
(20.0791 0.0778256 0)
(20.0861 0.0787064 0)
(20.0907 0.0796824 0)
(20.0935 0.0806898 0)
(20.0947 0.081811 0)
(14.6206 0.00466993 0)
(16.9703 0.0186376 0)
(18.3916 0.0321076 0)
(19.2193 0.046895 0)
(19.6601 0.0586678 0)
(19.8737 0.0663714 0)
(19.9752 0.0710463 0)
(20.0249 0.0736978 0)
(20.0511 0.0751901 0)
(20.0667 0.0761285 0)
(20.0771 0.076876 0)
(20.0843 0.0776103 0)
(20.0891 0.0783962 0)
(20.0921 0.0791963 0)
(20.0936 0.0800911 0)
(14.4529 0.00473044 9.41569e-36)
(16.7963 0.0170056 0)
(18.2346 0.030107 0)
(19.0971 0.0440618 0)
(19.583 0.0557093 0)
(19.8314 0.0639281 0)
(19.9538 0.0690691 0)
(20.0146 0.0721455 0)
(20.0462 0.0739256 0)
(20.064 0.0750038 0)
(20.0753 0.0757731 0)
(20.0828 0.0764504 0)
(20.0878 0.0771325 0)
(20.091 0.0778086 0)
(20.0927 0.0785633 0)
(14.3019 0.00441586 0)
(16.6322 0.0154312 0)
(18.0857 0.02808 0)
(18.9778 0.0413421 0)
(19.5046 0.052974 0)
(19.7867 0.0615353 0)
(19.9301 0.0670341 0)
(20.0027 0.070483 0)
(20.0403 0.0725432 0)
(20.061 0.0737834 0)
(20.0734 0.0746128 0)
(20.0814 0.0752794 0)
(20.0867 0.075909 0)
(20.09 0.0765176 0)
(20.0919 0.0772099 0)
(14.164 0.00403494 1.81053e-35)
(16.479 0.0141946 0)
(17.9435 0.0262231 0)
(18.8612 0.0389093 0)
(19.4256 0.0505013 0)
(19.7402 0.0592658 0)
(19.9046 0.0650672 0)
(19.9895 0.0688379 0)
(20.0336 0.0711541 0)
(20.0575 0.0725573 0)
(20.0714 0.0734617 0)
(20.08 0.0741378 0)
(20.0856 0.074736 0)
(20.0892 0.0752944 0)
(20.0912 0.0759075 0)
(14.036 0.0037098 -1.77816e-35)
(16.3357 0.0132247 0)
(17.808 0.0245613 0)
(18.7481 0.0366907 0)
(19.3464 0.0481845 0)
(19.6921 0.0570852 0)
(19.8775 0.0631966 0)
(19.975 0.0672462 0)
(20.0262 0.0697923 0)
(20.0537 0.071353 0)
(20.0692 0.0723387 0)
(20.0786 0.0730345 0)
(20.0846 0.0736105 0)
(20.0884 0.0741232 0)
(20.0905 0.0746625 0)
(13.9161 0.00345701 0)
(16.2017 0.0123593 0)
(17.6795 0.023007 0)
(18.639 0.0345722 0)
(19.2669 0.045913 0)
(19.6424 0.0549606 0)
(19.849 0.0614075 0)
(19.9594 0.0657041 0)
(20.018 0.0684623 0)
(20.0495 0.0701769 0)
(20.067 0.0712505 0)
(20.0772 0.0719775 0)
(20.0836 0.0725454 0)
(20.0876 0.0730295 0)
(20.09 0.0735388 0)
(13.8043 0.00324523 0)
(16.0763 0.0115163 0)
(17.5581 0.0215211 0)
(18.534 0.0325493 0)
(19.1872 0.0436957 0)
(19.591 0.0529134 0)
(19.8191 0.0596799 0)
(19.9428 0.0642036 0)
(20.0092 0.0671649 0)
(20.0449 0.0690318 0)
(20.0645 0.0701996 0)
(20.0758 0.0709689 0)
(20.0827 0.0715418 0)
(20.0869 0.0720101 0)
(20.0895 0.072495 0)
(13.7003 0.0030441 1.70635e-35)
(15.959 0.0107188 0)
(17.4432 0.0201403 0)
(18.4324 0.0306845 0)
(19.1076 0.0416103 0)
(19.5382 0.0509726 0)
(19.7879 0.0580074 0)
(19.9253 0.0627466 0)
(19.9997 0.0659043 0)
(20.0399 0.0679206 0)
(20.0619 0.0691854 0)
(20.0743 0.0700034 0)
(20.0817 0.0705883 0)
(20.0862 0.0710456 0)
(20.089 0.0715025 0)
(13.6035 0.00284763 -1.67935e-35)
(15.8492 0.0100228 0)
(17.334 0.0189184 0)
(18.3341 0.0290271 0)
(19.0286 0.0397051 0)
(19.4843 0.0491522 0)
(19.7555 0.0563942 0)
(19.9068 0.0613439 0)
(19.9896 0.0646896 0)
(20.0345 0.0668493 0)
(20.059 0.0682102 0)