/*--------------------------------*- C++ -*----------------------------------*\
| =========                 |                                                 |
| \\      /  F ield         | OpenFOAM: The Open Source CFD Toolbox           |
|  \\    /   O peration     | Version:  2.3.0                                 |
|   \\  /    A nd           | Web:      www.OpenFOAM.org                      |
|    \\/     M anipulation  |                                                 |
\*---------------------------------------------------------------------------*/
FoamFile
{
    version     2.0;
    format      ascii;
    class       volScalarField;
    location    "2000";
    object      nuTilda;
}
// * * * * * * * * * * * * * * * * * * * * * * * * * * * * * * * * * * * * * //

dimensions      [0 2 -1 0 0 0 0];

internalField   nonuniform List<scalar> 
38375
(
0.0431872
0.0415728
0.0399971
0.0384658
0.0369826
0.0355475
0.0341472
0.0327736
0.0314297
0.030121
0.028851
0.0276206
0.0264275
0.0252676
0.0241386
0.0230391
0.0219714
0.0209366
0.0199355
0.018968
0.0180336
0.0171301
0.0162565
0.0154098
0.0145879
0.0137877
0.0130061
0.0122404
0.011488
0.0107458
0.0100123
0.00928625
0.00856902
0.00786153
0.0071713
0.00650476
0.0058738
0.00529486
0.00478087
0.00434083
0.00397952
0.00371524
0.00365278
0.0452946
0.0438494
0.0424366
0.041053
0.039698
0.0383711
0.0370704
0.0357952
0.0345473
0.0333286
0.0321422
0.0309924
0.0298821
0.0288063
0.0277543
0.0267206
0.0257066
0.024714
0.0237456
0.0228031
0.0218887
0.0210023
0.0201453
0.0193177
0.0185201
0.0177527
0.0170159
0.0163091
0.0156336
0.0149889
0.0143742
0.0137918
0.0132411
0.0127234
0.0122384
0.0117904
0.011381
0.0110161
0.0107016
0.0104538
0.0103132
0.0103601
0.0106651
0.0472221
0.0459415
0.0446826
0.0434448
0.0422277
0.041031
0.0398548
0.0386982
0.0375623
0.0364471
0.0353534
0.0342815
0.0332317
0.0322034
0.031195
0.0302046
0.0292333
0.0282809
0.027348
0.0264364
0.0255474
0.0246815
0.0238412
0.0230254
0.022237
0.0214763
0.0207454
0.0200459
0.0193798
0.0187494
0.0181586
0.0176095
0.0171066
0.0166557
0.0162625
0.0159315
0.0156714
0.0154903
0.0153979
0.0154033
0.0155162
0.015744
0.0160864
0.0489848
0.0478453
0.0467232
0.0456165
0.0445253
0.0434493
0.042389
0.0413439
0.0403145
0.0393007
0.0383031
0.0373216
0.036356
0.0354068
0.0344727
0.0335548
0.0326523
0.0317658
0.0308958
0.0300431
0.0292097
0.0283965
0.0276041
0.0268349
0.0260899
0.0253714
0.0246812
0.0240215
0.023395
0.022804
0.0222524
0.0217446
0.0212853
0.0208784
0.0205305
0.020248
0.0200369
0.0199049
0.0198583
0.0199035
0.0200449
0.0202856
0.0206252
0.050581
0.0495682
0.0485658
0.0475741
0.0465931
0.0456231
0.0446643
0.0437166
0.0427805
0.0418565
0.0409442
0.0400442
0.0391562
0.0382808
0.0374177
0.0365675
0.0357302
0.0349055
0.0340943
0.0332975
0.032516
0.0317511
0.0310044
0.0302773
0.0295727
0.028892
0.0282373
0.0276115
0.0270175
0.0264581
0.0259367
0.0254585
0.025027
0.0246471
0.0243259
0.0240672
0.0238785
0.0237664
0.0237357
0.0237914
0.0239384
0.0241778
0.0245097
0.0520284
0.0511239
0.0502251
0.049333
0.0484476
0.047569
0.0466981
0.0458345
0.0449789
0.0441314
0.0432928
0.0424625
0.0416406
0.040829
0.0400275
0.0392356
0.0384538
0.0376825
0.0369226
0.0361743
0.0354388
0.0347159
0.0340074
0.0333172
0.0326463
0.0319964
0.0313702
0.0307713
0.0302025
0.0296679
0.0291696
0.0287126
0.028301
0.0279396
0.027635
0.0273916
0.0272164
0.0271144
0.0270913
0.027151
0.0272979
0.0275339
0.0278591
0.0533408
0.0525275
0.0517177
0.0509121
0.0501097
0.0493093
0.0485141
0.0477231
0.0469364
0.046154
0.0453776
0.0446078
0.0438425
0.0430834
0.0423329
0.0415908
0.0408565
0.0401302
0.0394126
0.0387054
0.0380097
0.0373247
0.03665
0.0359892
0.0353472
0.0347235
0.0341212
0.0335432
0.0329933
0.0324772
0.0319975
0.0315579
0.0311609
0.0308134
0.0305198
0.0302874
0.030121
0.0300261
0.0300072
0.0300685
0.0302144
0.0304468
0.0307666
0.0545274
0.0537928
0.0530595
0.0523282
0.0516013
0.0508649
0.0501359
0.0494068
0.0486809
0.0479544
0.0472283
0.0465113
0.0457967
0.0450793
0.0443706
0.0436695
0.042976
0.0422885
0.0416056
0.0409311
0.0402689
0.0396189
0.0389773
0.0383391
0.0377205
0.0371217
0.036539
0.0359817
0.0354422
0.0349396
0.0344741
0.0340488
0.0336662
0.0333283
0.0330419
0.0328174
0.032658
0.0325685
0.0325526
0.0326166
0.0327593
0.0329878
0.033302
0.055601
0.0549304
0.054264
0.0535921
0.0529497
0.0522545
0.0515845
0.0509034
0.0502326
0.0495627
0.0488668
0.0481905
0.0475294
0.0468476
0.0461727
0.045502
0.0448404
0.0441872
0.0435384
0.0428858
0.0422475
0.0416257
0.0410332
0.0404094
0.0398036
0.0392335
0.0386553
0.0381366
0.0375975
0.0371037
0.0366474
0.0362317
0.0358628
0.0355408
0.0352523
0.035036
0.0348799
0.034799
0.0347814
0.0348534
0.0349877
0.035217
0.0355157
0.00440408
0.0057623
0.00676688
0.0078105
0.00892477
0.010099
0.0113205
0.0125799
0.0138688
0.0151809
0.0165139
0.0178645
0.019232
0.0206142
0.0220114
0.0234204
0.0248435
0.0262777
0.0277249
0.0291837
0.0306544
0.0321369
0.0336308
0.0351363
0.0366532
0.0381811
0.03972
0.0412696
0.0428295
0.0443994
0.0459788
0.0475674
0.0491649
0.0507704
0.0523835
0.0540039
0.0556305
0.0572628
0.0588999
0.0605409
0.0621848
0.0638308
0.0654777
0.0111563
0.0118008
0.0125563
0.0134146
0.0143674
0.0153995
0.0164992
0.0176538
0.0188522
0.0200863
0.0213497
0.0226362
0.0239408
0.02526
0.026593
0.0279376
0.0292908
0.0306541
0.0320246
0.0334027
0.0347876
0.0361789
0.0375765
0.03898
0.0403897
0.041805
0.0432256
0.0446516
0.0460829
0.047519
0.04896
0.0504057
0.051856
0.0533103
0.0547685
0.0562306
0.0576959
0.0591643
0.0606353
0.0621082
0.0635828
0.0650583
0.0665324
0.0165391
0.0171
0.0177689
0.0185381
0.019397
0.0203352
0.0213416
0.0224052
0.0235172
0.0246689
0.025851
0.0270594
0.0282887
0.029535
0.0307937
0.0320637
0.0333423
0.0346276
0.0359186
0.0372142
0.0385136
0.0398164
0.0411219
0.0424298
0.0437398
0.0450516
0.046365
0.0476798
0.0489961
0.0503136
0.0516323
0.0529523
0.0542732
0.055595
0.056918
0.0582419
0.0595663
0.0608916
0.0622174
0.0635433
0.0648692
0.0661947
0.0675187
0.0210599
0.0215917
0.0222201
0.0229412
0.0237456
0.0246247
0.0255699
0.0265711
0.0276191
0.0287072
0.0298273
0.0309728
0.0321389
0.0333217
0.0345173
0.0357214
0.0369336
0.0381505
0.0393708
0.0405935
0.0418175
0.0430422
0.0442666
0.0454906
0.0467137
0.0479355
0.0491557
0.0503742
0.0515905
0.0528053
0.0540181
0.0552289
0.0564378
0.057645
0.0588507
0.0600549
0.0612574
0.0624582
0.0636576
0.0648552
0.0660512
0.0672458
0.0684391
0.0249321
0.0254456
0.02605
0.026739
0.0275075
0.0283468
0.0292484
0.0302038
0.0312047
0.0322437
0.0333135
0.0344087
0.0355231
0.0366527
0.0377937
0.0389428
0.0400974
0.0412553
0.0424146
0.0435743
0.0447333
0.0458904
0.0470451
0.0481971
0.0493456
0.05049
0.05163
0.0527657
0.0538965
0.0550225
0.056144
0.0572607
0.0583731
0.0594816
0.0605862
0.0616872
0.062784
0.063877
0.0649661
0.0660518
0.0671342
0.0682135
0.0692909
0.0282727
0.0287733
0.0293595
0.0300268
0.0307687
0.031578
0.0324472
0.0333676
0.034332
0.0353323
0.0363626
0.0374158
0.0384877
0.039573
0.0406692
0.0417718
0.0428778
0.0439851
0.0450918
0.0461975
0.0473009
0.0484008
0.0494965
0.0505872
0.0516721
0.0527504
0.0538217
0.0548864
0.0559439
0.0569936
0.0580361
0.059072
0.0601016
0.0611254
0.0621434
0.0631551
0.0641606
0.06516
0.0661534
0.0671413
0.068124
0.0691022
0.0700774
0.0311733
0.0316647
0.0322374
0.0328866
0.0336076
0.0343944
0.0352374
0.0361305
0.0370657
0.0380353
0.0390318
0.040051
0.0410873
0.0421362
0.0431942
0.0442577
0.0453222
0.0463854
0.0474469
0.0485063
0.0495629
0.0506146
0.0516605
0.0526993
0.0537299
0.0547512
0.0557636
0.0567681
0.0577624
0.0587457
0.0597198
0.0606862
0.0616452
0.0625966
0.0635401
0.0644746
0.0654012
0.0663192
0.067229
0.0681315
0.0690271
0.0699166
0.070802
0.0337057
0.0341905
0.034754
0.035385
0.0360896
0.0368585
0.0376801
0.0385502
0.0394624
0.0404069
0.0413743
0.0423634
0.0433707
0.0443894
0.0454164
0.046446
0.047474
0.0484978
0.0495197
0.0505402
0.051559
0.0525689
0.0535735
0.0545688
0.0555516
0.0565233
0.0574852
0.0584414
0.059379
0.0603026
0.0612177
0.0621251
0.0630241
0.0639142
0.0647931
0.0656599
0.0665194
0.0673659
0.0682021
0.06903
0.0698497
0.0706613
0.0714665
0.0359259
0.0364039
0.0369639
0.0375671
0.03826
0.0390188
0.0398172
0.040669
0.0415626
0.0424876
0.043424
0.0443888
0.0453714
0.0463655
0.0473673
0.0483673
0.0493618
0.0503477
0.0513391
0.0523277
0.0533215
0.0542896
0.055267
0.0562227
0.0571615
0.0580921
0.0590118
0.0599386
0.0608111
0.0616817
0.0625481
0.0634068
0.064255
0.0650957
0.0659177
0.0667222
0.0675291
0.0683089
0.0690809
0.0698446
0.0705988
0.0713442
0.0720789
0.0869751
0.0826574
0.0784773
0.0744354
0.0705317
0.0667643
0.0631327
0.0596351
0.0562684
0.0530297
0.0499173
0.0469275
0.0440577
0.0413043
0.038665
0.0361363
0.0337147
0.0313972
0.0291822
0.0270646
0.0250426
0.0231134
0.0212745
0.0195225
0.0178561
0.016271
0.0147662
0.0133403
0.0119906
0.0107149
0.00951231
0.00838079
0.00732035
0.00632982
0.00540843
0.00455675
0.00377495
0.00306454
0.00242627
0.00186812
0.00143756
0.00103253
0.000603416
0.0885931
0.0845958
0.0807113
0.0769391
0.0732801
0.0697333
0.0662974
0.0629713
0.0597523
0.0566393
0.0536299
0.0507221
0.0479144
0.0452037
0.0425878
0.0400645
0.0376319
0.0352888
0.0330316
0.0308593
0.0287696
0.0267605
0.02483
0.0229778
0.0212007
0.0194983
0.0178696
0.0163128
0.0148269
0.0134118
0.0120665
0.0107918
0.0095871
0.0084535
0.00739185
0.00640414
0.00549412
0.00467002
0.00396785
0.00329684
0.00262809
0.00191699
0.00109713
0.0901942
0.0864916
0.0828814
0.0793627
0.0759354
0.0725989
0.0693526
0.0661948
0.0631241
0.060139
0.0572381
0.0544202
0.0516839
0.0490274
0.0464487
0.0439469
0.0415205
0.0391679
0.0368882
0.0346797
0.0325423
0.0304733
0.0284726
0.0265404
0.0246748
0.0228753
0.0211419
0.019474
0.0178721
0.0163364
0.0148675
0.0134661
0.0121348
0.0108758
0.00969228
0.00859334
0.00759783
0.00667688
0.0057667
0.00483775
0.00385495
0.00275065
0.0015144
0.0917665
0.088332
0.0849741
0.0816896
0.0784776
0.0753373
0.072269
0.0692703
0.066341
0.0634798
0.0606852
0.0579571
0.0552947
0.0526961
0.0501608
0.0476873
0.0452752
0.042924
0.0406326
0.0384009
0.0362281
0.0341133
0.032058
0.0300611
0.0281225
0.0262429
0.0244229
0.0226631
0.0209641
0.0193277
0.0177557
0.0162498
0.014815
0.0134549
0.0121803
0.0110098
0.00987118
0.00873145
0.00756417
0.00633943
0.00501395
0.00350748
0.00187788
0.0932903
0.0901041
0.086979
0.0839111
0.0808983
0.0779407
0.0750375
0.072188
0.0693918
0.0666478
0.0639558
0.0613152
0.0587252
0.0561859
0.0536954
0.0512535
0.0488613
0.046518
0.0442229
0.0419766
0.0397782
0.0376283
0.0355288
0.0334795
0.031481
0.0295352
0.0276443
0.0258077
0.0240287
0.0223106
0.0206547
0.0190664
0.0175521
0.0161259
0.0147659
0.0134266
0.01208
0.0107033
0.0092698
0.00774649
0.00608073
0.00419108
0.0021994
0.0947426
0.0917966
0.0888896
0.0860214
0.0831925
0.0804028
0.0776527
0.0749417
0.0722695
0.0696361
0.0670409
0.0644839
0.0619645
0.0594825
0.0570378
0.0546301
0.0522601
0.0499281
0.0476349
0.0453804
0.0431645
0.0409885
0.0388532
0.03676
0.034712
0.0327119
0.0307609
0.0288623
0.027019
0.0252345
0.0235133
0.0218638
0.0202908
0.0187602
0.0172433
0.0157159
0.0141574
0.0125456
0.0108525
0.00904103
0.00705259
0.00480811
0.00248634
0.0961517
0.0934131
0.0907021
0.0880168
0.0853569
0.0827214
0.0801123
0.0775293
0.0749722
0.0724414
0.069937
0.067459
0.0650065
0.0625804
0.0601808
0.0578076
0.0554608
0.0531425
0.0508542
0.0485976
0.0463712
0.0441761
0.0420122
0.0398826
0.0377919
0.0357443
0.0337448
0.031796
0.0299011
0.0280644
0.0262941
0.0245831
0.0229042
0.0212345
0.0195534
0.0178417
0.0160795
0.0142429
0.0123036
0.0102216
0.00793307
0.00536133
0.00274198
0.0974851
0.094943
0.0924135
0.0898961
0.0873915
0.0848954
0.082416
0.0799516
0.0775005
0.0750641
0.0726431
0.0702398
0.0678513
0.0654766
0.0631219
0.0607849
0.0584628
0.0561563
0.0538742
0.0516182
0.0493882
0.0471829
0.0449986
0.0428371
0.0407076
0.0386175
0.0365754
0.0345871
0.0326535
0.0307723
0.0289354
0.0271287
0.0253294
0.0235202
0.0216823
0.019796
0.0178409
0.015794
0.0136234
0.0112942
0.00873697
0.00586275
0.00296415
0.0987712
0.0963873
0.0940237
0.0916578
0.0893005
0.0869248
0.084564
0.0822121
0.0798574
0.0775086
0.0751607
0.0728287
0.0705056
0.0681732
0.0658615
0.0635622
0.0612712
0.0589716
0.056693
0.0544377
0.052207
0.0500038
0.0478125
0.0456223
0.0434555
0.0413222
0.0392383
0.037216
0.0352481
0.0333082
0.0313833
0.0294727
0.0275527
0.0256141
0.0236328
0.0215813
0.0194438
0.0172019
0.014814
0.0122573
0.00950145
0.00640626
0.00326006
0.000466813
0.000527071
0.000704763
0.000873795
0.00104599
0.00123525
0.00145712
0.00172657
0.00203534
0.00237599
0.00274581
0.0031429
0.00356702
0.00401779
0.00449541
0.00500038
0.00553294
0.00609375
0.00668336
0.00730245
0.00795134
0.0086307
0.00934123
0.0100837
0.0108587
0.0116671
0.0125092
0.0133865
0.0142992
0.0152485
0.0162351
0.0172598
0.0183236
0.0194268
0.0205707
0.0217564
0.0229843
0.0242557
0.0255715
0.0269334
0.0283433
0.0298026
0.0313111
0.000627088
0.000679236
0.00086985
0.0010694
0.00129113
0.00154737
0.00184434
0.00218386
0.0025609
0.00296569
0.00339665
0.00385274
0.00433326
0.00483834
0.00536748
0.00592121
0.00649929
0.00710224
0.00773007
0.00838336
0.0090621
0.00976688
0.0104981
0.0112561
0.0120415
0.0128549
0.0136969
0.0145679
0.0154688
0.0164001
0.0173624
0.0183565
0.019383
0.0204425
0.0215358
0.022664
0.0238278
0.0250278
0.0262654
0.0275417
0.0288572
0.0302114
0.0316041
0.000786453
0.000828608
0.00104877
0.00129619
0.00158108
0.0019074
0.00227303
0.00267711
0.00311538
0.00357911
0.00406669
0.00457717
0.00511016
0.005665
0.00624149
0.00683959
0.00745903
0.00809993
0.00876206
0.00944547
0.0101508
0.0108776
0.0116265
0.0123974
0.0131913
0.014008
0.0148478
0.0157117
0.0165997
0.0175123
0.0184501
0.0194137
0.0204035
0.0214202
0.0224644
0.0235367
0.0246381
0.0257689
0.0269299
0.0281217
0.0293439
0.0305959
0.0318764
0.000935149
0.00097761
0.00124091
0.00154534
0.00189438
0.00228436
0.00271015
0.00317421
0.0036674
0.00418405
0.00472269
0.00528215
0.005862
0.00646159
0.00708017
0.00771763
0.00837333
0.00904744
0.00973955
0.0104493
0.011177
0.0119224
0.0126859
0.0134672
0.0142669
0.015085
0.0159215
0.0167771
0.017652
0.0185463
0.0194605
0.0203951
0.0213505
0.0223271
0.0233253
0.0243456
0.0253887
0.0264548
0.0275441
0.0286569
0.0297926
0.0309501
0.0321289
0.00107366
0.00112995
0.00144408
0.0018066
0.00221486
0.00266121
0.00314173
0.00365924
0.00420197
0.00476645
0.00535105
0.00595474
0.00657674
0.00721602
0.00787185
0.00854409
0.00923188
0.00993487
0.0106527
0.0113853
0.012132
0.012893
0.0136684
0.014458
0.0152619
0.01608
0.0169126
0.0177597
0.0186218
0.0194986
0.0203906
0.0212981
0.0222213
0.0231607
0.0241164
0.0250887
0.0260781
0.0270844
0.0281077
0.0291478
0.0302042
0.0312762
0.0323634
0.00120504
0.00128606
0.0016531
0.00207043
0.00253183
0.00302859
0.00355958
0.00412423
0.00471175
0.00531946
0.00594549
0.00658871
0.00724821
0.00792315
0.00861239
0.00931549
0.0100315
0.0107599
0.0115002
0.0122523
0.0130156
0.01379
0.0145753
0.0153714
0.0161782
0.0169959
0.017824
0.0186628
0.0195123
0.0203727
0.021244
0.0221263
0.02302
0.0239251
0.0248417
0.0257697
0.0267092
0.0276605
0.0286234
0.0295974
0.030582
0.031577
0.0325826
0.00133132
0.00144382
0.0018626
0.00232994
0.0028382
0.00337977
0.0039578
0.00456478
0.00519258
0.00583917
0.00650266
0.0071816
0.00787502
0.00858172
0.00930076
0.0100312
0.0107724
0.0115233
0.0122835
0.0130527
0.0138304
0.0146163
0.0154103
0.0162118
0.0170207
0.017837
0.0186606
0.0194916
0.0203296
0.0211743
0.0220258
0.0228848
0.0237511
0.0246246
0.0255053
0.0263926
0.0272865
0.0281873
0.0290949
0.0300087
0.0309285
0.0318545
0.0327877
0.00145287
0.00160495
0.00206952
0.00258037
0.00313044
0.00371353
0.00433357
0.00497858
0.00564291
0.00632446
0.00702161
0.00773316
0.00845809
0.00919452
0.00994023
0.0106951
0.0114586
0.0122297
0.0130075
0.013792
0.0145824
0.0153786
0.0161802
0.0169862
0.0177958
0.0186102
0.0194299
0.0202539
0.0210805
0.0219093
0.0227415
0.0235786
0.0244205
0.0252656
0.0261133
0.0269623
0.0278136
0.0286685
0.0295259
0.0303853
0.0312467
0.0321107
0.0329803
0.00157894
0.00174105
0.00225645
0.00281612
0.00340721
0.00402825
0.00468354
0.00536266
0.00606266
0.00677923
0.00750976
0.00826137
0.009025
0.00978707
0.01055
0.0113253
0.0121068
0.0128936
0.0136864
0.0144834
0.0152849
0.016091
0.0168996
0.0177066
0.0185122
0.0193235
0.0201428
0.0209639
0.0217749
0.0225819
0.0233946
0.0242125
0.0250358
0.0258563
0.0266739
0.0274834
0.0282934
0.0291076
0.0299198
0.0307298
0.0315378
0.0323433
0.0331523
0.000124735
0.000473196
0.00107107
0.00174415
0.00241183
0.00307323
0.00372408
0.00436932
0.00501655
0.00567066
0.00633559
0.00701472
0.00770936
0.00841853
0.00914105
0.00987723
0.0106272
0.0113924
0.0121743
0.0129754
0.0137985
0.0146468
0.0155235
0.0164319
0.0173751
0.0183553
0.0193751
0.0204351
0.0215361
0.0226771
0.0238574
0.0250776
0.026339
0.0276428
0.0289891
0.0303762
0.0317994
0.0332536
0.034737
0.0362541
0.0378191
0.0394504
0.0411433
6.92314e-05
0.000261913
0.000570734
0.00100056
0.00154904
0.00222274
0.00292229
0.00362645
0.00433659
0.00504715
0.00575059
0.00644289
0.00712491
0.00780111
0.00847632
0.00915471
0.00983933
0.0105331
0.0112387
0.0119597
0.0126997
0.0134623
0.0142516
0.015072
0.0159277
0.0168231
0.0177618
0.0187467
0.0197807
0.0208645
0.0219987
0.0231836
0.0244188
0.0257043
0.0270398
0.0284239
0.0298527
0.0313219
0.0328274
0.0343687
0.0359513
0.0375843
0.0392719
4.19802e-05
0.000197757
0.000389762
0.000684453
0.00106601
0.00154017
0.00210722
0.00276727
0.00352424
0.00434077
0.00514487
0.00593115
0.0066991
0.00745076
0.00818693
0.00890769
0.00961609
0.0103146
0.0110065
0.0116957
0.0123864
0.0130833
0.0137922
0.014519
0.0152705
0.0160535
0.0168744
0.0177397
0.0186557
0.0196265
0.0206559
0.0217463
0.022899
0.0241145
0.0253926
0.0267314
0.0281282
0.0295786
0.0310778
0.0326226
0.0342132
0.0358522
0.0375424
4.16348e-05
0.000174784
0.000350004
0.000598183
0.000913563
0.00130211
0.00176848
0.00231555
0.00294751
0.00366858
0.00448179
0.00532438
0.00616326
0.00698985
0.00780149
0.00859779
0.00937845
0.0101431
0.0108916
0.0116245
0.0123434
0.0130503
0.0137489
0.0144441
0.0151422
0.0158505
0.0165774
0.0173322
0.0181243
0.0189627
0.0198561
0.0208117
0.0218351
0.022931
0.0241012
0.0253464
0.026665
0.0280538
0.0295084
0.0310242
0.0325977
0.0342278
0.0359162
3.91859e-05
0.000172105
0.000314583
0.000534556
0.000812666
0.00115221
0.00155854
0.00203566
0.00258631
0.00321407
0.00392254
0.00471615
0.0055882
0.00647346
0.00735022
0.00821314
0.00906073
0.00989272
0.0107083
0.0115068
0.0122874
0.0130495
0.0137933
0.0145197
0.0152315
0.0159328
0.0166294
0.0173295
0.0180427
0.0187798
0.0195526
0.0203733
0.0212531
0.022202
0.0232284
0.0243375
0.0255327
0.026814
0.0281792
0.0296239
0.031144
0.0327356
0.0343957
3.84351e-05
0.000164811
0.000295573
0.000495669
0.000748328
0.0010553
0.00142085
0.0018502
0.00234548
0.00291025
0.00354857
0.0042652
0.0050641
0.00594649
0.00686231
0.00777749
0.00868222
0.00957375
0.0104505
0.0113118
0.0121561
0.012982
0.0137879
0.0145728
0.0153361
0.016078
0.0168002
0.0175067
0.0182035
0.0188989
0.0196034
0.0203298
0.0210922
0.0219053
0.0227832
0.0237383
0.0247808
0.0259171
0.0271506
0.0284812
0.0299063
0.0314227
0.0330321
3.75488e-05
0.000161631
0.000282453
0.000465297
0.000699148
0.000982602
0.00131883
0.00171234
0.00216709
0.00268566
0.00327162
0.00392909
0.00466246
0.00547645
0.0063739
0.00731734
0.00826704
0.00920919
0.0101395
0.0110565
0.0119585
0.0128441
0.0137112
0.014558
0.0153826
0.0161832
0.0169588
0.0177093
0.0184363
0.0191436
0.0198375
0.0205273
0.0212251
0.0219456
0.0227052
0.0235215
0.024411
0.0253878
0.0264635
0.027645
0.0289356
0.0303352
0.0318407
3.71179e-05
0.000158919
0.000274213
0.000442541
0.00066147
0.000926588
0.00124014
0.00160608
0.00202919
0.00251158
0.00305655
0.00366796
0.00435018
0.00510737
0.00594467
0.00686484
0.00783506
0.00881572
0.00979144
0.010757
0.01171
0.0126492
0.0135724
0.0144773
0.0153617
0.0162231
0.0170593
0.0178681
0.0186482
0.0193995
0.0201238
0.0208257
0.0215121
0.0221943
0.0228863
0.0236056
0.0243714
0.0252035
0.0261204
0.0271381
0.0282681
0.0295178
0.0308883
3.67205e-05
0.000157166
0.000268565
0.000424113
0.000630935
0.000881312
0.00117692
0.00152125
0.00191847
0.00237175
0.0028838
0.00345826
0.00409874
0.00480974
0.00559611
0.00646245
0.00741111
0.0084093
0.00941959
0.0104263
0.0114242
0.012411
0.0133841
0.0143417
0.0152814
0.0162003
0.0170959
0.0179651
0.0188051
0.0196137
0.0203895
0.0211331
0.0218468
0.0225364
0.0232111
0.0238843
0.0245734
0.0252986
0.0260822
0.0269466
0.0279119
0.0289945
0.0302058
3.63917e-05
0.000155621
0.000264039
0.000409295
0.000605919
0.000844123
0.00112495
0.0014514
0.00182726
0.00225647
0.00274134
0.00328518
0.00389128
0.00456398
0.00530792
0.00612775
0.00702855
0.0080099
0.00903669
0.0100755
0.011112
0.0121404
0.0131581
0.0141628
0.0151526
0.0161244
0.0170751
0.0180019
0.0189014
0.0197701
0.0206051
0.0214042
0.0221665
0.0228933
0.0235885
0.0242601
0.0249205
0.0255864
0.0262789
0.0270222
0.0278415
0.0287605
0.0297969
3.61498e-05
0.000154426
0.00026048
0.000397495
0.000585096
0.000813007
0.00108148
0.00139318
0.00175139
0.00215992
0.0026218
0.00313966
0.00371688
0.00435744
0.00506552
0.00584574
0.00670324
0.00764226
0.00865878
0.00971519
0.0107819
0.0118465
0.0129038
0.013951
0.0149857
0.0160051
0.0170064
0.0179865
0.018942
0.0198691
0.0207638
0.0216226
0.0224426
0.0232221
0.0239609
0.0246621
0.0253324
0.0259829
0.0266301
0.0272956
0.0280045
0.028784
0.0296568
3.59677e-05
0.000153539
0.00025775
0.000388392
0.000567535
0.000786584
0.00104454
0.00134351
0.00168662
0.00207766
0.00251995
0.00301572
0.00356819
0.00418106
0.00485849
0.00560492
0.00642485
0.00732307
0.00830428
0.00935709
0.0104428
0.011537
0.0126292
0.0137141
0.014789
0.0158516
0.0168989
0.0179279
0.0189351
0.0199167
0.0208687
0.0217865
0.0226664
0.0235046
0.0242987
0.0250477
0.0257536
0.0264221
0.0270636
0.0276945
0.0283359
0.0290139
0.029755
3.58445e-05
0.00015291
0.000255685
0.000381534
0.000552578
0.000763763
0.00101255
0.00130064
0.00163093
0.00200678
0.00243204
0.00290881
0.00344
0.00402881
0.00467963
0.00539669
0.00618393
0.00704622
0.00798935
0.009016
0.0101044
0.0112191
0.0123403
0.0134588
0.0145702
0.0156717
0.0167607
0.0178342
0.0188888
0.0199209
0.0209263
0.0219004
0.0228386
0.0237367
0.0245901
0.0253957
0.0261522
0.0268604
0.0275256
0.0281576
0.028772
0.0293903
0.030039
3.57429e-05
0.00015249
0.000254091
0.000376195
0.000539739
0.000743932
0.00098471
0.00126341
0.00158262
0.00194555
0.00235558
0.00281565
0.00332828
0.00389637
0.0045238
0.00521493
0.00597368
0.00680482
0.00771376
0.00870501
0.00977711
0.0109001
0.0120433
0.0131906
0.0143348
0.0154718
0.0165987
0.0177128
0.0188108
0.0198893
0.0209442
0.0219708
0.0229645
0.0239206
0.0248336
0.0256988
0.0265129
0.0272735
0.027981
0.0286402
0.02926
0.029856
0.0304489
3.5633e-05
0.000152047
0.000252759
0.000371972
0.000528549
0.00072637
0.000960126
0.00123063
0.0015401
0.00189159
0.00228842
0.00273377
0.00323
0.00377991
0.00438694
0.00505535
0.00578901
0.00659257
0.00747089
0.00842915
0.00947145
0.0105878
0.0117438
0.0129144
0.0140875
0.0152567
0.0164184
0.0175697
0.0187076
0.0198287
0.0209293
0.0220048
0.0230506
0.0240615
0.0250323
0.0259572
0.0268312
0.02765
0.0284109
0.0291141
0.0297631
0.030366
0.0309374
3.55265e-05
0.000151625
0.000251617
0.000368388
0.000518707
0.000710825
0.000938296
0.00120143
0.00150222
0.00184355
0.00222875
0.00266106
0.00314274
0.00367642
0.00426542
0.00491381
0.00562532
0.00640438
0.00725568
0.00818436
0.00919557
0.0102905
0.0114478
0.012635
0.0138325
0.0150306
0.0162242
0.0174096
0.0185843
0.0197449
0.0208876
0.0220085
0.0231029
0.0241657
0.0251914
0.0261741
0.0271078
0.027987
0.0288072
0.0295651
0.0302596
0.0308922
0.0314667
3.54755e-05
0.000151343
0.000250668
0.00036541
0.00051018
0.000696914
0.000918662
0.00117521
0.00146841
0.00180085
0.0021756
0.00259612
0.00306477
0.00358401
0.00415693
0.00478745
0.00547928
0.00623646
0.0070637
0.00796609
0.00894845
0.0100153
0.0111613
0.0123563
0.0135732
0.0147969
0.0160196
0.0172367
0.0184454
0.0196424
0.0208244
0.0219875
0.0231271
0.0242385
0.0253161
0.026354
0.027346
0.0282859
0.0291678
0.0299867
0.030739
0.0314216
0.0320199
3.54276e-05
0.000151139
0.000249904
0.00036287
0.00050292
0.00068449
0.000900923
0.00115144
0.0014377
0.00176215
0.0021276
0.00253739
0.00299436
0.00350067
0.00405935
0.00467392
0.00534784
0.0060853
0.00689111
0.00776978
0.00872608
0.00976548
0.0108901
0.012083
0.0133129
0.0145581
0.0158067
0.0170533
0.0182937
0.0195247
0.0207433
0.0219457
0.0231277
0.0242845
0.025411
0.0265014
0.0275493
0.0285484
0.0294919
0.0303739
0.0311885
0.0319296
0.0325826
3.5368e-05
0.000150911
0.000249169
0.00036067
0.000496751
0.000673159
0.000884657
0.00112974
0.00140962
0.00172666
0.00208364
0.00248377
0.00293015
0.00342477
0.0039705
0.00457055
0.00522853
0.00594828
0.00673468
0.0075918
0.00852453
0.0095385
0.010638
0.0118188
0.0130541
0.0143158
0.0155876
0.016861
0.018131
0.0193938
0.0206466
0.0218858
0.0231074
0.0243068
0.0254792
0.0266189
0.0277199
0.0287751
0.0297778
0.0307209
0.0315963
0.032395
0.0331045
3.53408e-05
0.000150777
0.000248614
0.000358887
0.00049156
0.000662948
0.000869779
0.00110976
0.00138388
0.00169415
0.00204344
0.00243482
0.00287142
0.00335521
0.00388907
0.00447601
0.00511936
0.00582324
0.00659175
0.00742933
0.00834059
0.00933114
0.0104061
0.0115673
0.0127994
0.0140722
0.0153634
0.0166611
0.0179586
0.0192512
0.020536
0.0218097
0.0230682
0.0243075
0.0255227
0.0267088
0.0278592
0.0289673
0.0300258
0.0310267
0.0319609
0.0328178
0.0335855
3.53035e-05
0.000150705
0.00024823
0.000357386
0.000487186
0.000653657
0.000855998
0.00109116
0.00135991
0.00166413
0.00200638
0.00238965
0.00281725
0.00329118
0.00381402
0.00438874
0.00501882
0.00570799
0.00646016
0.00727991
0.00817182
0.0091409
0.0101926
0.0113311
0.012552
0.0138291
0.0151354
0.0164546
0.0177774
0.0190979
0.0204127
0.0217184
0.0230116
0.0242883
0.0255438
0.0267729
0.0279694
0.0291268
0.0302377
0.0312934
0.0322844
0.0331996
0.0340272
3.5311e-05
0.000150627
0.000247825
0.000356041
0.000483329
0.000644973
0.000843111
0.00107387
0.0013376
0.00163604
0.00197168
0.00234751
0.00276674
0.00323155
0.00374415
0.00430774
0.00492548
0.00560094
0.0063382
0.00714156
0.00801554
0.00896492
0.00999515
0.011111
0.0123142
0.0135888
0.0149054
0.0162427
0.0175881
0.0189344
0.0202774
0.0216134
0.022939
0.0242506
0.0255436
0.0268127
0.0280525
0.0292562
0.0304162
0.0315241
0.03257
0.0335429
0.0344309
3.52688e-05
0.00015048
0.000247449
0.000354841
0.000479945
0.000637017
0.000831141
0.00105766
0.00131654
0.00160963
0.00193925
0.00230809
0.00271934
0.00317553
0.00367883
0.00423206
0.00483829
0.00550115
0.00622463
0.00701263
0.00786973
0.00880097
0.0098111
0.0109054
0.0120883
0.0133534
0.0146745
0.0160259
0.0173913
0.0187616
0.0201309
0.0214954
0.0228517
0.0241958
0.0255237
0.0268306
0.0281107
0.0293578
0.0305643
0.0317217
0.0328208
0.0338504
0.0347989
3.52717e-05
0.00015045
0.000247144
0.000353801
0.00047695
0.000629741
0.000819929
0.00104237
0.00129679
0.00158488
0.00190869
0.00227092
0.0026747
0.00312296
0.00361756
0.00416107
0.00475656
0.00540768
0.00611822
0.00689199
0.00773343
0.00864751
0.00963891
0.0107131
0.011875
0.0131249
0.0144447
0.0158058
0.0171885
0.0185805
0.0199742
0.0213655
0.0227504
0.0241253
0.0254861
0.0268284
0.0281466
0.0294347
0.0306853
0.0318902
0.0330405
0.0341259
0.0351364
3.52688e-05
0.000150457
0.000246918
0.000352827
0.000474178
0.000623098
0.000809431
0.00102797
0.00127822
0.00156149
0.00187992
0.00223602
0.00263269
0.00307325
0.00355951
0.00409389
0.00467953
0.0053197
0.00601799
0.00677845
0.00760526
0.00850324
0.00947729
0.0105323
0.0116738
0.0129055
0.0142176
0.0155841
0.0169806
0.0183917
0.0198082
0.0212246
0.0226364
0.0240404
0.0254323
0.0268079
0.0281623
0.029489
0.0307816
0.0320321
0.0332317
0.0343711
0.0354408
3.52924e-05
0.000150527
0.000246728
0.000351982
0.000471791
0.000617107
0.00079947
0.00101426
0.00126045
0.00153915
0.00185253
0.00220288
0.00259299
0.0030262
0.00350461
0.00403039
0.00460653
0.00523626
0.00592308
0.00667093
0.00748406
0.00836711
0.00932476
0.0103619
0.011484
0.0126959
0.0139957
0.0153621
0.0167688
0.0181964
0.0196337
0.0210734
0.0225109
0.0239424
0.025364
0.0267714
0.0281597
0.0295234
0.0308558
0.0321494
0.0333961
0.0345866
0.0357106
3.53666e-05
0.000150739
0.000246624
0.000351258
0.000469648
0.00061167
0.000790165
0.00100136
0.00124365
0.00151804
0.00182644
0.00217119
0.00255516
0.00298154
0.00345245
0.0039701
0.00453723
0.00515706
0.00583303
0.0065691
0.00736936
0.00823819
0.00918018
0.0102004
0.0113041
0.0124967
0.0137805
0.0151421
0.0165547
0.017996
0.0194518
0.0209134
0.0223751
0.0238327
0.0252825
0.02672
0.0281407
0.0295395
0.0309099
0.0322446
0.0335358
0.0347745
0.0359496
3.58663e-05
0.000151277
0.000246661
0.000350668
0.000467746
0.000606829
0.000781386
0.000988936
0.00122749
0.00149772
0.00180144
0.002141
0.0025192
0.00293898
0.00340262
0.00391246
0.00447108
0.00508147
0.00574726
0.00647227
0.00726023
0.00811546
0.00904282
0.010047
0.0111333
0.0123076
0.0135735
0.0149254
0.0163399
0.0177919
0.0192641
0.0207458
0.0222302
0.0237126
0.0251889
0.0266551
0.0281068
0.0295388
0.0309453
0.0323194
0.0336532
0.0349384
0.0361652
3.86332e-05
0.000152288
0.000246838
0.000350171
0.000466036
0.000602461
0.000773112
0.000977197
0.0012121
0.00147837
0.00177768
0.00211218
0.00248469
0.00289815
0.00335489
0.00385721
0.00440787
0.00500953
0.00566552
0.00637978
0.00715609
0.00799857
0.00891185
0.00990093
0.0109711
0.0121274
0.013375
0.0147135
0.0161257
0.0175847
0.0190709
0.020571
0.0220767
0.0235826
0.0250844
0.0265779
0.0280592
0.029523
0.030964
0.0323755
0.0337503
0.0350799
0.0363552
5.00397e-05
0.000154155
0.000247146
0.000349753
0.000464518
0.00059857
0.000765344
0.000965981
0.00119738
0.00145975
0.00175475
0.00208455
0.00245168
0.00285905
0.00330934
0.00380448
0.00434732
0.00494055
0.00558716
0.0062912
0.00705645
0.00788683
0.00878702
0.00976178
0.010816
0.0119553
0.013185
0.0145077
0.0159132
0.0173759
0.0188734
0.0203899
0.0219156
0.0234437
0.0249696
0.0264895
0.027999
0.0294933
0.0309673
0.0324145
0.0338279
0.0351995
0.0365198
5.10138e-05
0.000154388