# Forces     
# CofR       : (0.000000e+00 0.000000e+00 0.000000e+00)
# Time       forces(pressure viscous porous) moment(pressure viscous porous)
5.000000e+00	((-2.594694e+01 -1.846219e+02 -9.942019e-19) (3.561431e-01 -5.471355e-02 9.380378e-20) (0.000000e+00 0.000000e+00 0.000000e+00)) ((9.231095e+00 -1.297347e+00 -5.537915e+01) (2.735678e-03 1.780716e-02 -1.128314e-03) (0.000000e+00 0.000000e+00 0.000000e+00))
1.000000e+01	((-2.909415e+00 -2.070154e+01 3.871075e-20) (3.144698e-01 -7.833251e-02 2.626964e-20) (0.000000e+00 0.000000e+00 0.000000e+00)) ((1.035077e+00 -1.454707e-01 -1.037674e+01) (3.916625e-03 1.572349e-02 -9.795302e-03) (0.000000e+00 0.000000e+00 0.000000e+00))
1.500000e+01	((3.827950e+00 2.723725e+01 -2.921535e-19) (2.769979e-01 -4.847684e-02 -1.643162e-21) (0.000000e+00 0.000000e+00 0.000000e+00)) ((-1.361863e+00 1.913975e-01 6.439791e+00) (2.423842e-03 1.384989e-02 -3.206210e-03) (0.000000e+00 0.000000e+00 0.000000e+00))
2.000000e+01	((1.719311e+00 1.223352e+01 -5.613544e-19) (2.512949e-01 -3.540072e-02 2.322064e-20) (0.000000e+00 0.000000e+00 0.000000e+00)) ((-6.116758e-01 8.596553e-02 5.818444e-01) (1.770036e-03 1.256474e-02 -5.941805e-04) (0.000000e+00 0.000000e+00 0.000000e+00))
2.500000e+01	((2.158072e+00 1.535547e+01 -2.995701e-19) (2.293390e-01 -3.114524e-02 1.495015e-20) (0.000000e+00 0.000000e+00 0.000000e+00)) ((-7.677733e-01 1.079036e-01 -1.417419e-01) (1.557262e-03 1.146695e-02 -2.734785e-04) (0.000000e+00 0.000000e+00 0.000000e+00))
3.000000e+01	((2.760342e+00 1.964084e+01 -5.962545e-19) (2.095026e-01 -2.840345e-02 2.321597e-20) (0.000000e+00 0.000000e+00 0.000000e+00)) ((-9.820420e-01 1.380171e-01 1.685729e+00) (1.420173e-03 1.047513e-02 -1.517195e-04) (0.000000e+00 0.000000e+00 0.000000e+00))
3.500000e+01	((2.517593e+00 1.791359e+01 -8.163206e-19) (1.933103e-01 -2.650834e-02 3.313768e-20) (0.000000e+00 0.000000e+00 0.000000e+00)) ((-8.956793e-01 1.258796e-01 7.615460e-01) (1.325417e-03 9.665514e-03 -1.016204e-04) (0.000000e+00 0.000000e+00 0.000000e+00))
4.000000e+01	((2.813055e+00 2.001591e+01 -8.419395e-19) (1.773465e-01 -2.454710e-02 3.175469e-20) (0.000000e+00 0.000000e+00 0.000000e+00)) ((-1.000796e+00 1.406528e-01 8.635562e-01) (1.227355e-03 8.867325e-03 -1.071002e-04) (0.000000e+00 0.000000e+00 0.000000e+00))
4.500000e+01	((2.903817e+00 2.066172e+01 -1.099163e-18) (1.624839e-01 -2.252341e-02 3.910470e-20) (0.000000e+00 0.000000e+00 0.000000e+00)) ((-1.033086e+00 1.451908e-01 9.263472e-01) (1.126170e-03 8.124194e-03 -8.388910e-05) (0.000000e+00 0.000000e+00 0.000000e+00))
5.000000e+01	((2.951307e+00 2.099963e+01 -1.183530e-18) (1.492771e-01 -2.076421e-02 4.033649e-20) (0.000000e+00 0.000000e+00 0.000000e+00)) ((-1.049981e+00 1.475654e-01 6.690579e-01) (1.038210e-03 7.463853e-03 -7.406899e-05) (0.000000e+00 0.000000e+00 0.000000e+00))
5.500000e+01	((3.035162e+00 2.159628e+01 -1.293079e-18) (1.369299e-01 -1.903330e-02 4.448551e-20) (0.000000e+00 0.000000e+00 0.000000e+00)) ((-1.079814e+00 1.517581e-01 6.087185e-01) (9.516651e-04 6.846496e-03 -7.089961e-05) (0.000000e+00 0.000000e+00 0.000000e+00))
6.000000e+01	((3.067751e+00 2.182817e+01 -1.373028e-18) (1.264519e-01 -1.757580e-02 4.875655e-20) (0.000000e+00 0.000000e+00 0.000000e+00)) ((-1.091408e+00 1.533876e-01 5.169679e-01) (8.787899e-04 6.322597e-03 -6.341523e-05) (0.000000e+00 0.000000e+00 0.000000e+00))
6.500000e+01	((3.083956e+00 2.194347e+01 -1.385350e-18) (1.173993e-01 -1.627838e-02 5.054439e-20) (0.000000e+00 0.000000e+00 0.000000e+00)) ((-1.097174e+00 1.541978e-01 4.279133e-01) (8.139188e-04 5.869965e-03 -7.441415e-05) (0.000000e+00 0.000000e+00 0.000000e+00))
7.000000e+01	((3.100207e+00 2.205910e+01 -1.405179e-18) (1.097712e-01 -1.520628e-02 5.357407e-20) (0.000000e+00 0.000000e+00 0.000000e+00)) ((-1.102955e+00 1.550103e-01 3.957049e-01) (7.603142e-04 5.488560e-03 -7.690783e-05) (0.000000e+00 0.000000e+00 0.000000e+00))
7.500000e+01	((3.104203e+00 2.208754e+01 -1.378366e-18) (1.036494e-01 -1.432208e-02 5.323806e-20) (0.000000e+00 0.000000e+00 0.000000e+00)) ((-1.104377e+00 1.552102e-01 3.624737e-01) (7.161039e-04 5.182471e-03 -8.586508e-05) (0.000000e+00 0.000000e+00 0.000000e+00))
8.000000e+01	((3.112022e+00 2.214317e+01 -1.340867e-18) (9.858100e-02 -1.362635e-02 5.355350e-20) (0.000000e+00 0.000000e+00 0.000000e+00)) ((-1.107159e+00 1.556011e-01 3.562174e-01) (6.813174e-04 4.929050e-03 -8.793708e-05) (0.000000e+00 0.000000e+00 0.000000e+00))
8.500000e+01	((3.123337e+00 2.222369e+01 -1.285078e-18) (9.447019e-02 -1.304144e-02 5.160710e-20) (0.000000e+00 0.000000e+00 0.000000e+00)) ((-1.111184e+00 1.561669e-01 3.714985e-01) (6.520719e-04 4.723509e-03 -9.270401e-05) (0.000000e+00 0.000000e+00 0.000000e+00))
9.000000e+01	((3.138824e+00 2.233388e+01 -1.229583e-18) (9.114446e-02 -1.259166e-02 4.975271e-20) (0.000000e+00 0.000000e+00 0.000000e+00)) ((-1.116694e+00 1.569412e-01 3.982727e-01) (6.295830e-04 4.557223e-03 -9.287729e-05) (0.000000e+00 0.000000e+00 0.000000e+00))
9.500000e+01	((3.158842e+00 2.247632e+01 -1.176652e-18) (8.838842e-02 -1.219673e-02 4.826106e-20) (0.000000e+00 0.000000e+00 0.000000e+00)) ((-1.123816e+00 1.579421e-01 4.364742e-01) (6.098366e-04 4.419421e-03 -9.716767e-05) (0.000000e+00 0.000000e+00 0.000000e+00))
1.000000e+02	((3.180251e+00 2.262865e+01 -1.129524e-18) (8.605966e-02 -1.187665e-02 4.860558e-20) (0.000000e+00 0.000000e+00 0.000000e+00)) ((-1.131432e+00 1.590125e-01 4.834117e-01) (5.938323e-04 4.302983e-03 -9.775745e-05) (0.000000e+00 0.000000e+00 0.000000e+00))
1.050000e+02	((3.203117e+00 2.279135e+01 -1.089751e-18) (8.405497e-02 -1.158721e-02 4.898860e-20) (0.000000e+00 0.000000e+00 0.000000e+00)) ((-1.139567e+00 1.601558e-01 5.404830e-01) (5.793605e-04 4.202748e-03 -1.013888e-04) (0.000000e+00 0.000000e+00 0.000000e+00))
1.100000e+02	((3.225867e+00 2.295322e+01 -1.057509e-18) (8.224760e-02 -1.134101e-02 4.999827e-20) (0.000000e+00 0.000000e+00 0.000000e+00)) ((-1.147661e+00 1.612934e-01 6.016810e-01) (5.670506e-04 4.112380e-03 -1.012464e-04) (0.000000e+00 0.000000e+00 0.000000e+00))
1.150000e+02	((3.250023e+00 2.312510e+01 -1.031129e-18) (8.062112e-02 -1.110868e-02 5.019506e-20) (0.000000e+00 0.000000e+00 0.000000e+00)) ((-1.156255e+00 1.625012e-01 6.692763e-01) (5.554340e-04 4.031056e-03 -1.032945e-04) (0.000000e+00 0.000000e+00 0.000000e+00))
1.200000e+02	((3.274752e+00 2.330106e+01 -1.009376e-18) (7.908443e-02 -1.089742e-02 5.098115e-20) (0.000000e+00 0.000000e+00 0.000000e+00)) ((-1.165053e+00 1.637376e-01 7.443809e-01) (5.448710e-04 3.954221e-03 -1.035328e-04) (0.000000e+00 0.000000e+00 0.000000e+00))
1.250000e+02	((3.299359e+00 2.347614e+01 -9.905062e-19) (7.767317e-02 -1.069386e-02 4.971373e-20) (0.000000e+00 0.000000e+00 0.000000e+00)) ((-1.173807e+00 1.649679e-01 8.217431e-01) (5.346929e-04 3.883659e-03 -1.052717e-04) (0.000000e+00 0.000000e+00 0.000000e+00))
1.300000e+02	((3.324304e+00 2.365364e+01 -9.717346e-19) (7.632263e-02 -1.050937e-02 4.980971e-20) (0.000000e+00 0.000000e+00 0.000000e+00)) ((-1.182682e+00 1.662152e-01 9.054349e-01) (5.254686e-04 3.816131e-03 -1.049974e-04) (0.000000e+00 0.000000e+00 0.000000e+00))
1.350000e+02	((3.348769e+00 2.382771e+01 -9.529769e-19) (7.508604e-02 -1.032929e-02 4.885232e-20) (0.000000e+00 0.000000e+00 0.000000e+00)) ((-1.191386e+00 1.674384e-01 9.920173e-01) (5.164643e-04 3.754302e-03 -1.065300e-04) (0.000000e+00 0.000000e+00 0.000000e+00))
1.400000e+02	((3.373226e+00 2.400174e+01 -9.315815e-19) (7.390721e-02 -1.016845e-02 4.994232e-20) (0.000000e+00 0.000000e+00 0.000000e+00)) ((-1.200087e+00 1.686613e-01 1.083998e+00) (5.084224e-04 3.695361e-03 -1.056136e-04) (0.000000e+00 0.000000e+00 0.000000e+00))
1.450000e+02	((3.395066e+00 2.415714e+01 -9.080854e-19) (7.284841e-02 -1.001306e-02 5.081253e-20) (0.000000e+00 0.000000e+00 0.000000e+00)) ((-1.207857e+00 1.697533e-01 1.173029e+00) (5.006532e-04 3.642421e-03 -1.070260e-04) (0.000000e+00 0.000000e+00 0.000000e+00))
1.500000e+02	((3.415986e+00 2.430599e+01 -8.819989e-19) (7.185670e-02 -9.878501e-03 5.224258e-20) (0.000000e+00 0.000000e+00 0.000000e+00)) ((-1.215299e+00 1.707993e-01 1.262900e+00) (4.939250e-04 3.592835e-03 -1.061593e-04) (0.000000e+00 0.000000e+00 0.000000e+00))
1.550000e+02	((3.434759e+00 2.443956e+01 -8.534927e-19) (7.098607e-02 -9.749644e-03 5.042915e-20) (0.000000e+00 0.000000e+00 0.000000e+00)) ((-1.221978e+00 1.717379e-01 1.351632e+00) (4.874822e-04 3.549303e-03 -1.073500e-04) (0.000000e+00 0.000000e+00 0.000000e+00))
1.600000e+02	((3.450936e+00 2.455467e+01 -8.233245e-19) (7.017996e-02 -9.641124e-03 4.930740e-20) (0.000000e+00 0.000000e+00 0.000000e+00)) ((-1.227733e+00 1.725468e-01 1.436661e+00) (4.820562e-04 3.508998e-03 -1.062283e-04) (0.000000e+00 0.000000e+00 0.000000e+00))
1.650000e+02	((3.464982e+00 2.465462e+01 -7.923790e-19) (6.949261e-02 -9.538023e-03 4.667608e-20) (0.000000e+00 0.000000e+00 0.000000e+00)) ((-1.232731e+00 1.732491e-01 1.518337e+00) (4.769011e-04 3.474631e-03 -1.072131e-04) (0.000000e+00 0.000000e+00 0.000000e+00))
1.700000e+02	((3.474659e+00 2.472347e+01 -7.605612e-19) (6.886106e-02 -9.454520e-03 4.497421e-20) (0.000000e+00 0.000000e+00 0.000000e+00)) ((-1.236174e+00 1.737330e-01 1.591159e+00) (4.727260e-04 3.443053e-03 -1.059966e-04) (0.000000e+00 0.000000e+00 0.000000e+00))
1.750000e+02	((3.482153e+00 2.477679e+01 -7.290111e-19) (6.833107e-02 -9.375503e-03 4.205667e-20) (0.000000e+00 0.000000e+00 0.000000e+00)) ((-1.238839e+00 1.741076e-01 1.661333e+00) (4.687752e-04 3.416553e-03 -1.077129e-04) (0.000000e+00 0.000000e+00 0.000000e+00))
1.800000e+02	((3.486175e+00 2.480541e+01 -6.985506e-19) (6.784696e-02 -9.314350e-03 4.017061e-20) (0.000000e+00 0.000000e+00 0.000000e+00)) ((-1.240270e+00 1.743087e-01 1.721969e+00) (4.657175e-04 3.392348e-03 -1.074294e-04) (0.000000e+00 0.000000e+00 0.000000e+00))
1.850000e+02	((3.487299e+00 2.481341e+01 -6.686838e-19) (6.745570e-02 -9.255008e-03 3.684812e-20) (0.000000e+00 0.000000e+00 0.000000e+00)) ((-1.240670e+00 1.743650e-01 1.778050e+00) (4.627504e-04 3.372785e-03 -1.092831e-04) (0.000000e+00 0.000000e+00 0.000000e+00))
1.900000e+02	((3.484881e+00 2.479620e+01 -6.392363e-19) (6.710156e-02 -9.213129e-03 3.460864e-20) (0.000000e+00 0.000000e+00 0.000000e+00)) ((-1.239810e+00 1.742441e-01 1.825789e+00) (4.606565e-04 3.355078e-03 -1.090849e-04) (0.000000e+00 0.000000e+00 0.000000e+00))
1.950000e+02	((3.479982e+00 2.476135e+01 -6.107750e-19) (6.683715e-02 -9.172077e-03 3.166827e-20) (0.000000e+00 0.000000e+00 0.000000e+00)) ((-1.238067e+00 1.739991e-01 1.869673e+00) (4.586039e-04 3.341858e-03 -1.113523e-04) (0.000000e+00 0.000000e+00 0.000000e+00))
2.000000e+02	((3.472358e+00 2.470710e+01 -5.826419e-19) (6.660606e-02 -9.148561e-03 2.971805e-20) (0.000000e+00 0.000000e+00 0.000000e+00)) ((-1.235355e+00 1.736179e-01 1.907003e+00) (4.574280e-04 3.330303e-03 -1.111602e-04) (0.000000e+00 0.000000e+00 0.000000e+00))
2.050000e+02	((3.462406e+00 2.463629e+01 -5.553856e-19) (6.646366e-02 -9.124151e-03 2.717508e-20) (0.000000e+00 0.000000e+00 0.000000e+00)) ((-1.231814e+00 1.731203e-01 1.941200e+00) (4.562075e-04 3.323183e-03 -1.134922e-04) (0.000000e+00 0.000000e+00 0.000000e+00))
2.100000e+02	((3.450608e+00 2.455234e+01 -5.283874e-19) (6.635220e-02 -9.118516e-03 2.561407e-20) (0.000000e+00 0.000000e+00 0.000000e+00)) ((-1.227617e+00 1.725304e-01 1.970501e+00) (4.559258e-04 3.317610e-03 -1.128997e-04) (0.000000e+00 0.000000e+00 0.000000e+00))
2.150000e+02	((3.436897e+00 2.445478e+01 -5.022237e-19) (6.633167e-02 -9.110025e-03 2.341596e-20) (0.000000e+00 0.000000e+00 0.000000e+00)) ((-1.222739e+00 1.718449e-01 1.997755e+00) (4.555013e-04 3.316583e-03 -1.152273e-04) (0.000000e+00 0.000000e+00 0.000000e+00))
2.200000e+02	((3.422134e+00 2.434973e+01 -4.764252e-19) (6.633662e-02 -9.122506e-03 2.215575e-20) (0.000000e+00 0.000000e+00 0.000000e+00)) ((-1.217487e+00 1.711067e-01 2.021345e+00) (4.561253e-04 3.316831e-03 -1.143230e-04) (0.000000e+00 0.000000e+00 0.000000e+00))
2.250000e+02	((3.405890e+00 2.423415e+01 -4.514848e-19) (6.643359e-02 -9.129110e-03 2.023612e-20) (0.000000e+00 0.000000e+00 0.000000e+00)) ((-1.211708e+00 1.702945e-01 2.043679e+00) (4.564555e-04 3.321679e-03 -1.170012e-04) (0.000000e+00 0.000000e+00 0.000000e+00))
2.300000e+02	((3.389204e+00 2.411542e+01 -4.271500e-19) (6.654950e-02 -9.158629e-03 1.916008e-20) (0.000000e+00 0.000000e+00 0.000000e+00)) ((-1.205771e+00 1.694602e-01 2.062980e+00) (4.579315e-04 3.327475e-03 -1.154268e-04) (0.000000e+00 0.000000e+00 0.000000e+00))
2.350000e+02	((3.371156e+00 2.398700e+01 -4.039691e-19) (6.676341e-02 -9.179418e-03 1.749664e-20) (0.000000e+00 0.000000e+00 0.000000e+00)) ((-1.199350e+00 1.685578e-01 2.080359e+00) (4.589709e-04 3.338170e-03 -1.181350e-04) (0.000000e+00 0.000000e+00 0.000000e+00))
2.400000e+02	((3.353332e+00 2.386018e+01 -3.817168e-19) (6.698521e-02 -9.225216e-03 1.660268e-20) (0.000000e+00 0.000000e+00 0.000000e+00)) ((-1.193009e+00 1.676666e-01 2.094881e+00) (4.612608e-04 3.349261e-03 -1.161084e-04) (0.000000e+00 0.000000e+00 0.000000e+00))
2.450000e+02	((3.334710e+00 2.372768e+01 -3.612110e-19) (6.731131e-02 -9.260187e-03 1.513910e-20) (0.000000e+00 0.000000e+00 0.000000e+00)) ((-1.186384e+00 1.667355e-01 2.107273e+00) (4.630094e-04 3.365565e-03 -1.191766e-04) (0.000000e+00 0.000000e+00 0.000000e+00))
2.500000e+02	((3.315138e+00 2.358842e+01 -3.412416e-19) (6.763407e-02 -9.320351e-03 1.455799e-20) (0.000000e+00 0.000000e+00 0.000000e+00)) ((-1.179421e+00 1.657569e-01 2.116177e+00) (4.660176e-04 3.381703e-03 -1.170310e-04) (0.000000e+00 0.000000e+00 0.000000e+00))
2.550000e+02	((3.294367e+00 2.344063e+01 -3.228104e-19) (6.805395e-02 -9.367185e-03 1.331410e-20) (0.000000e+00 0.000000e+00 0.000000e+00)) ((-1.172031e+00 1.647184e-01 2.121873e+00) (4.683592e-04 3.402698e-03 -1.200977e-04) (0.000000e+00 0.000000e+00 0.000000e+00))
2.600000e+02	((3.273299e+00 2.329072e+01 -3.044766e-19) (6.848580e-02 -9.429284e-03 1.334690e-20) (0.000000e+00 0.000000e+00 0.000000e+00)) ((-1.164536e+00 1.636650e-01 2.124015e+00) (4.714642e-04 3.424290e-03 -1.204261e-04) (0.000000e+00 0.000000e+00 0.000000e+00))
2.650000e+02	((3.253322e+00 2.314857e+01 -2.896921e-19) (6.898308e-02 -9.490014e-03 1.216727e-20) (0.000000e+00 0.000000e+00 0.000000e+00)) ((-1.157429e+00 1.626661e-01 2.123087e+00) (4.745007e-04 3.449154e-03 -1.225742e-04) (0.000000e+00 0.000000e+00 0.000000e+00))
2.700000e+02	((3.231281e+00 2.299174e+01 -2.749322e-19) (6.945662e-02 -9.569176e-03 1.200958e-20) (0.000000e+00 0.000000e+00 0.000000e+00)) ((-1.149587e+00 1.615640e-01 2.117538e+00) (4.784588e-04 3.472831e-03 -1.200848e-04) (0.000000e+00 0.000000e+00 0.000000e+00))
2.750000e+02	((3.208399e+00 2.282893e+01 -2.620451e-19) (7.000887e-02 -9.635155e-03 1.103917e-20) (0.000000e+00 0.000000e+00 0.000000e+00)) ((-1.141447e+00 1.604200e-01 2.107454e+00) (4.817577e-04 3.500443e-03 -1.225438e-04) (0.000000e+00 0.000000e+00 0.000000e+00))
2.800000e+02	((3.185792e+00 2.266807e+01 -2.505953e-19) (7.053432e-02 -9.721278e-03 1.105752e-20) (0.000000e+00 0.000000e+00 0.000000e+00)) ((-1.133404e+00 1.592896e-01 2.093936e+00) (4.860639e-04 3.526716e-03 -1.198421e-04) (0.000000e+00 0.000000e+00 0.000000e+00))
2.850000e+02	((3.162620e+00 2.250320e+01 -2.408046e-19) (7.112929e-02 -9.792329e-03 1.024174e-20) (0.000000e+00 0.000000e+00 0.000000e+00)) ((-1.125160e+00 1.581310e-01 2.076476e+00) (4.896165e-04 3.556464e-03 -1.222444e-04) (0.000000e+00 0.000000e+00 0.000000e+00))
2.900000e+02	((3.139342e+00 2.233757e+01 -2.321424e-19) (7.168488e-02 -9.882764e-03 1.044053e-20) (0.000000e+00 0.000000e+00 0.000000e+00)) ((-1.116878e+00 1.569671e-01 2.055929e+00) (4.941382e-04 3.584244e-03 -1.193032e-04) (0.000000e+00 0.000000e+00 0.000000e+00))
2.950000e+02	((3.115682e+00 2.216921e+01 -2.251202e-19) (7.230342e-02 -9.956536e-03 9.784948e-21) (0.000000e+00 0.000000e+00 0.000000e+00)) ((-1.108461e+00 1.557841e-01 2.032079e+00) (4.978268e-04 3.615171e-03 -1.216611e-04) (0.000000e+00 0.000000e+00 0.000000e+00))
3.000000e+02	((3.093932e+00 2.201446e+01 -2.195609e-19) (7.287209e-02 -1.004863e-02 1.016415e-20) (0.000000e+00 0.000000e+00 0.000000e+00)) ((-1.100723e+00 1.546966e-01 2.007864e+00) (5.024313e-04 3.643605e-03 -1.185862e-04) (0.000000e+00 0.000000e+00 0.000000e+00))
3.050000e+02	((3.072016e+00 2.185852e+01 -2.167083e-19) (7.350105e-02 -1.012265e-02 9.788915e-21) (0.000000e+00 0.000000e+00 0.000000e+00)) ((-1.092926e+00 1.536008e-01 1.980579e+00) (5.061326e-04 3.675053e-03 -1.209114e-04) (0.000000e+00 0.000000e+00 0.000000e+00))
3.100000e+02	((3.049010e+00 2.169482e+01 -2.136524e-19) (7.407330e-02 -1.021525e-02 1.033547e-20) (0.000000e+00 0.000000e+00 0.000000e+00)) ((-1.084741e+00 1.524505e-01 1.949800e+00) (5.107624e-04 3.703665e-03 -1.176518e-04) (0.000000e+00 0.000000e+00 0.000000e+00))
3.150000e+02	((3.026253e+00 2.153290e+01 -2.116959e-19) (7.469535e-02 -1.028871e-02 9.962417e-21) (0.000000e+00 0.000000e+00 0.000000e+00)) ((-1.076645e+00 1.513127e-01 1.917923e+00) (5.144357e-04 3.734768e-03 -1.199679e-04) (0.000000e+00 0.000000e+00 0.000000e+00))
3.200000e+02	((3.006521e+00 2.139249e+01 -2.118375e-19) (7.524954e-02 -1.037857e-02 1.075579e-20) (0.000000e+00 0.000000e+00 0.000000e+00)) ((-1.069625e+00 1.503260e-01 1.888378e+00) (5.189285e-04 3.762477e-03 -1.165007e-04) (0.000000e+00 0.000000e+00 0.000000e+00))
3.250000e+02	((2.986289e+00 2.124853e+01 -2.131107e-19) (7.585564e-02 -1.044882e-02 1.060759e-20) (0.000000e+00 0.000000e+00 0.000000e+00)) ((-1.062427e+00 1.493144e-01 1.856453e+00) (5.224410e-04 3.792782e-03 -1.187191e-04) (0.000000e+00 0.000000e+00 0.000000e+00))
3.300000e+02	((2.967227e+00 2.111291e+01 -2.148575e-19) (7.638566e-02 -1.053568e-02 1.151547e-20) (0.000000e+00 0.000000e+00 0.000000e+00)) ((-1.055645e+00 1.483614e-01 1.824785e+00) (5.267840e-04 3.819283e-03 -1.152168e-04) (0.000000e+00 0.000000e+00 0.000000e+00))
3.350000e+02	((2.949721e+00 2.098834e+01 -2.180321e-19) (7.696389e-02 -1.060167e-02 1.144282e-20) (0.000000e+00 0.000000e+00 0.000000e+00)) ((-1.049417e+00 1.474860e-01 1.794109e+00) (5.300833e-04 3.848195e-03 -1.174454e-04) (0.000000e+00 0.000000e+00 0.000000e+00))
3.400000e+02	((2.933492e+00 2.087286e+01 -2.214475e-19) (7.745916e-02 -1.068366e-02 1.244574e-20) (0.000000e+00 0.000000e+00 0.000000e+00)) ((-1.043643e+00 1.466746e-01 1.764289e+00) (5.341832e-04 3.872958e-03 -1.138229e-04) (0.000000e+00 0.000000e+00 0.000000e+00))
3.450000e+02	((2.918651e+00 2.076727e+01 -2.262346e-19) (7.800101e-02 -1.074420e-02 1.243078e-20) (0.000000e+00 0.000000e+00 0.000000e+00)) ((-1.038363e+00 1.459326e-01 1.735113e+00) (5.372102e-04 3.900051e-03 -1.160517e-04) (0.000000e+00 0.000000e+00 0.000000e+00))
3.500000e+02	((2.905130e+00 2.067106e+01 -2.311016e-19) (7.845368e-02 -1.082036e-02 1.352253e-20) (0.000000e+00 0.000000e+00 0.000000e+00)) ((-1.033553e+00 1.452565e-01 1.706938e+00) (5.410182e-04 3.922684e-03 -1.123607e-04) (0.000000e+00 0.000000e+00 0.000000e+00))
3.550000e+02	((2.893095e+00 2.058543e+01 -2.372273e-19) (7.895193e-02 -1.087452e-02 1.354446e-20) (0.000000e+00 0.000000e+00 0.000000e+00)) ((-1.029272e+00 1.446548e-01 1.679688e+00) (5.437259e-04 3.947597e-03 -1.145889e-04) (0.000000e+00 0.000000e+00 0.000000e+00))
3.600000e+02	((2.881849e+00 2.050541e+01 -2.438100e-19) (7.935250e-02 -1.094356e-02 1.481297e-20) (0.000000e+00 0.000000e+00 0.000000e+00)) ((-1.025270e+00 1.440924e-01 1.652440e+00) (5.471782e-04 3.967625e-03 -1.108318e-04) (0.000000e+00 0.000000e+00 0.000000e+00))
3.650000e+02	((2.873266e+00 2.044433e+01 -2.517945e-19) (7.980103e-02 -1.099055e-02 1.500843e-20) (0.000000e+00 0.000000e+00 0.000000e+00)) ((-1.022217e+00 1.436633e-01 1.627992e+00) (5.495276e-04 3.990051e-03 -1.131207e-04) (0.000000e+00 0.000000e+00 0.000000e+00))
3.700000e+02	((2.865095e+00 2.038619e+01 -2.589120e-19) (8.014821e-02 -1.105230e-02 1.631946e-20) (0.000000e+00 0.000000e+00 0.000000e+00)) ((-1.019310e+00 1.432547e-01 1.603972e+00) (5.526151e-04 4.007410e-03 -1.092510e-04) (0.000000e+00 0.000000e+00 0.000000e+00))
3.750000e+02	((2.857856e+00 2.033469e+01 -2.677757e-19) (8.053908e-02 -1.109102e-02 1.655147e-20) (0.000000e+00 0.000000e+00 0.000000e+00)) ((-1.016734e+00 1.428928e-01 1.579551e+00) (5.545510e-04 4.026954e-03 -1.114561e-04) (0.000000e+00 0.000000e+00 0.000000e+00))
3.800000e+02	((2.851742e+00 2.029118e+01 -2.762565e-19) (8.082759e-02 -1.114482e-02 1.797120e-20) (0.000000e+00 0.000000e+00 0.000000e+00)) ((-1.014559e+00 1.425871e-01 1.555697e+00) (5.572408e-04 4.041379e-03 -1.075986e-04) (0.000000e+00 0.000000e+00 0.000000e+00))
3.850000e+02	((2.847279e+00 2.025943e+01 -2.855440e-19) (8.116132e-02 -1.117542e-02 1.820116e-20) (0.000000e+00 0.000000e+00 0.000000e+00)) ((-1.012971e+00 1.423639e-01 1.534321e+00) (5.587709e-04 4.058066e-03 -1.098281e-04) (0.000000e+00 0.000000e+00 0.000000e+00))
3.900000e+02	((2.843339e+00 2.023139e+01 -2.945828e-19) (8.138444e-02 -1.122061e-02 1.974057e-20) (0.000000e+00 0.000000e+00 0.000000e+00)) ((-1.011570e+00 1.421669e-01 1.512877e+00) (5.610305e-04 4.069222e-03 -1.060568e-04) (0.000000e+00 0.000000e+00 0.000000e+00))
3.950000e+02	((2.840630e+00 2.021212e+01 -3.044631e-19) (8.165651e-02 -1.124270e-02 1.997414e-20) (0.000000e+00 0.000000e+00 0.000000e+00)) ((-1.010606e+00 1.420315e-01 1.492364e+00) (5.621349e-04 4.082826e-03 -1.084940e-04) (0.000000e+00 0.000000e+00 0.000000e+00))
4.000000e+02	((2.838603e+00 2.019769e+01 -3.138164e-19) (8.181694e-02 -1.127927e-02 2.156668e-20) (0.000000e+00 0.000000e+00 0.000000e+00)) ((-1.009885e+00 1.419301e-01 1.472776e+00) (5.639636e-04 4.090847e-03 -1.046817e-04) (0.000000e+00 0.000000e+00 0.000000e+00))
4.050000e+02	((2.837821e+00 2.019213e+01 -3.239199e-19) (8.202874e-02 -1.129287e-02 2.181148e-20) (0.000000e+00 0.000000e+00 0.000000e+00)) ((-1.009607e+00 1.418911e-01 1.454675e+00) (5.646437e-04 4.101437e-03 -1.071941e-04) (0.000000e+00 0.000000e+00 0.000000e+00))
4.100000e+02	((2.837786e+00 2.019188e+01 -3.335352e-19) (8.213094e-02 -1.132159e-02 2.348886e-20) (0.000000e+00 0.000000e+00 0.000000e+00)) ((-1.009594e+00 1.418893e-01 1.437900e+00) (5.660793e-04 4.106547e-03 -1.035031e-04) (0.000000e+00 0.000000e+00 0.000000e+00))
4.150000e+02	((2.838580e+00 2.019753e+01 -3.434049e-19) (8.228577e-02 -1.132736e-02 2.366211e-20) (0.000000e+00 0.000000e+00 0.000000e+00)) ((-1.009877e+00 1.419290e-01 1.422289e+00) (5.663679e-04 4.114288e-03 -1.061407e-04) (0.000000e+00 0.000000e+00 0.000000e+00))
4.200000e+02	((2.839946e+00 2.020725e+01 -3.524082e-19) (8.233215e-02 -1.134869e-02 2.523270e-20) (0.000000e+00 0.000000e+00 0.000000e+00)) ((-1.010363e+00 1.419973e-01 1.408012e+00) (5.674347e-04 4.116608e-03 -1.025370e-04) (0.000000e+00 0.000000e+00 0.000000e+00))
4.250000e+02	((2.842368e+00 2.022449e+01 -3.621381e-19) (8.243418e-02 -1.134712e-02 2.539537e-20) (0.000000e+00 0.000000e+00 0.000000e+00)) ((-1.011224e+00 1.421184e-01 1.395019e+00) (5.673561e-04 4.121709e-03 -1.053356e-04) (0.000000e+00 0.000000e+00 0.000000e+00))
4.300000e+02	((2.845248e+00 2.024498e+01 -3.707888e-19) (8.243053e-02 -1.136166e-02 2.694203e-20) (0.000000e+00 0.000000e+00 0.000000e+00)) ((-1.012249e+00 1.422624e-01 1.383691e+00) (5.680830e-04 4.121527e-03 -1.018174e-04) (0.000000e+00 0.000000e+00 0.000000e+00))
4.350000e+02	((2.848941e+00 2.027126e+01 -3.799327e-19) (8.248439e-02 -1.135338e-02 2.706717e-20) (0.000000e+00 0.000000e+00 0.000000e+00)) ((-1.013563e+00 1.424471e-01 1.373552e+00) (5.676689e-04 4.124220e-03 -1.046920e-04) (0.000000e+00 0.000000e+00 0.000000e+00))
4.400000e+02	((2.853121e+00 2.030100e+01 -3.880239e-19) (8.243791e-02 -1.136219e-02 2.852398e-20) (0.000000e+00 0.000000e+00 0.000000e+00)) ((-1.015050e+00 1.426561e-01 1.365084e+00) (5.681094e-04 4.121895e-03 -1.012368e-04) (0.000000e+00 0.000000e+00 0.000000e+00))
4.450000e+02	((2.857865e+00 2.033475e+01 -3.964070e-19) (8.244825e-02 -1.134778e-02 2.863055e-20) (0.000000e+00 0.000000e+00 0.000000e+00)) ((-1.016738e+00 1.428933e-01 1.357849e+00) (5.673892e-04 4.122412e-03 -1.041784e-04) (0.000000e+00 0.000000e+00 0.000000e+00))
4.500000e+02	((2.863258e+00 2.037313e+01 -4.037789e-19) (8.236652e-02 -1.135190e-02 2.988423e-20) (0.000000e+00 0.000000e+00 0.000000e+00)) ((-1.018656e+00 1.431629e-01 1.351855e+00) (5.675948e-04 4.118326e-03 -1.008018e-04) (0.000000e+00 0.000000e+00 0.000000e+00))
4.550000e+02	((2.868858e+00 2.041297e+01 -4.114476e-19) (8.233780e-02 -1.133193e-02 2.988624e-20) (0.000000e+00 0.000000e+00 0.000000e+00)) ((-1.020649e+00 1.434429e-01 1.347222e+00) (5.665967e-04 4.116890e-03 -1.038182e-04) (0.000000e+00 0.000000e+00 0.000000e+00))
4.600000e+02	((2.874690e+00 2.045447e+01 -4.180784e-19) (8.222559e-02 -1.133207e-02 3.102630e-20) (0.000000e+00 0.000000e+00 0.000000e+00)) ((-1.022724e+00 1.437345e-01 1.343836e+00) (5.666037e-04 4.111280e-03 -1.004647e-04) (0.000000e+00 0.000000e+00 0.000000e+00))
4.650000e+02	((2.881363e+00 2.050195e+01 -4.250170e-19) (8.216371e-02 -1.130741e-02 3.084427e-20) (0.000000e+00 0.000000e+00 0.000000e+00)) ((-1.025098e+00 1.440682e-01 1.341377e+00) (5.653705e-04 4.108186e-03 -1.035511e-04) (0.000000e+00 0.000000e+00 0.000000e+00))
4.700000e+02	((2.887707e+00 2.054709e+01 -4.308029e-19) (8.202694e-02 -1.130430e-02 3.188835e-20) (0.000000e+00 0.000000e+00 0.000000e+00)) ((-1.027355e+00 1.443854e-01 1.340028e+00) (5.652148e-04 4.101347e-03 -1.002397e-04) (0.000000e+00 0.000000e+00 0.000000e+00))
4.750000e+02	((2.894920e+00 2.059841e+01 -4.369987e-19) (8.193618e-02 -1.127552e-02 3.163611e-20) (0.000000e+00 0.000000e+00 0.000000e+00)) ((-1.029921e+00 1.447460e-01 1.339626e+00) (5.637762e-04 4.096809e-03 -1.034057e-04) (0.000000e+00 0.000000e+00 0.000000e+00))
4.800000e+02	((2.901976e+00 2.064862e+01 -4.420270e-19) (8.177806e-02 -1.126949e-02 3.250562e-20) (0.000000e+00 0.000000e+00 0.000000e+00)) ((-1.032431e+00 1.450988e-01 1.340178e+00) (5.634743e-04 4.088903e-03 -1.001444e-04) (0.000000e+00 0.000000e+00 0.000000e+00))
4.850000e+02	((2.908681e+00 2.069633e+01 -4.472562e-19) (8.166534e-02 -1.123772e-02 3.227053e-20) (0.000000e+00 0.000000e+00 0.000000e+00)) ((-1.034816e+00 1.454341e-01 1.341176e+00) (5.618861e-04 4.083267e-03 -1.033521e-04) (0.000000e+00 0.000000e+00 0.000000e+00))
4.900000e+02	((2.915962e+00 2.074814e+01 -4.515176e-19) (8.149039e-02 -1.122940e-02 3.303843e-20) (0.000000e+00 0.000000e+00 0.000000e+00)) ((-1.037407e+00 1.457981e-01 1.343342e+00) (5.614699e-04 4.074520e-03 -1.001317e-04) (0.000000e+00 0.000000e+00 0.000000e+00))
4.950000e+02	((2.923060e+00 2.079864e+01 -4.558556e-19) (8.136026e-02 -1.119522e-02 3.265788e-20) (0.000000e+00 0.000000e+00 0.000000e+00)) ((-1.039932e+00 1.461530e-01 1.345953e+00) (5.597609e-04 4.068013e-03 -1.033794e-04) (0.000000e+00 0.000000e+00 0.000000e+00))
5.000000e+02	((2.929968e+00 2.084779e+01 -4.591737e-19) (8.117254e-02 -1.118514e-02 3.333223e-20) (0.000000e+00 0.000000e+00 0.000000e+00)) ((-1.042389e+00 1.464984e-01 1.349218e+00) (5.592572e-04 4.058627e-03 -1.002028e-04) (0.000000e+00 0.000000e+00 0.000000e+00))
5.050000e+02	((2.937006e+00 2.089787e+01 -4.626326e-19) (8.102931e-02 -1.114928e-02 3.289130e-20) (0.000000e+00 0.000000e+00 0.000000e+00)) ((-1.044894e+00 1.468503e-01 1.353185e+00) (5.574638e-04 4.051466e-03 -1.034569e-04) (0.000000e+00 0.000000e+00 0.000000e+00))
5.100000e+02	((2.943342e+00 2.094295e+01 -4.649751e-19) (8.083366e-02 -1.113799e-02 3.347013e-20) (0.000000e+00 0.000000e+00 0.000000e+00)) ((-1.047148e+00 1.471671e-01 1.357351e+00) (5.568997e-04 4.041683e-03 -1.003283e-04) (0.000000e+00 0.000000e+00 0.000000e+00))
5.150000e+02	((2.950403e+00 2.099319e+01 -4.674730e-19) (8.068214e-02 -1.110119e-02 3.291198e-20) (0.000000e+00 0.000000e+00 0.000000e+00)) ((-1.049660e+00 1.475201e-01 1.362627e+00) (5.550594e-04 4.034107e-03 -1.035781e-04) (0.000000e+00 0.000000e+00 0.000000e+00))
5.200000e+02	((2.957531e+00 2.104391e+01 -4.694576e-19) (8.048166e-02 -1.108896e-02 3.342785e-20) (0.000000e+00 0.000000e+00 0.000000e+00)) ((-1.052196e+00 1.478765e-01 1.368706e+00) (5.544481e-04 4.024083e-03 -1.004982e-04) (0.000000e+00 0.000000e+00 0.000000e+00))
5.250000e+02	((2.963690e+00 2.108774e+01 -4.712230e-19) (8.032854e-02 -1.105197e-02 3.284372e-20) (0.000000e+00 0.000000e+00 0.000000e+00)) ((-1.054387e+00 1.481845e-01 1.374074e+00) (5.525983e-04 4.016427e-03 -1.037740e-04) (0.000000e+00 0.000000e+00 0.000000e+00))
5.300000e+02	((2.969854e+00 2.113160e+01 -4.721764e-19) (8.012777e-02 -1.103976e-02 3.327777e-20) (0.000000e+00 0.000000e+00 0.000000e+00)) ((-1.056580e+00 1.484927e-01 1.380476e+00) (5.519881e-04 4.006389e-03 -1.007542e-04) (0.000000e+00 0.000000e+00 0.000000e+00))
5.350000e+02	((2.975724e+00 2.117336e+01 -4.732454e-19) (7.997487e-02 -1.100298e-02 3.266262e-20) (0.000000e+00 0.000000e+00 0.000000e+00)) ((-1.058668e+00 1.487862e-01 1.386871e+00) (5.501491e-04 3.998744e-03 -1.040095e-04) (0.000000e+00 0.000000e+00 0.000000e+00))
5.400000e+02	((2.981332e+00 2.121326e+01 -4.733445e-19) (7.977857e-02 -1.099125e-02 3.297535e-20) (0.000000e+00 0.000000e+00 0.000000e+00)) ((-1.060663e+00 1.490666e-01 1.393776e+00) (5.495627e-04 3.988928e-03 -1.010335e-04) (0.000000e+00 0.000000e+00 0.000000e+00))
5.450000e+02	((2.986868e+00 2.125266e+01 -4.737464e-19) (7.962902e-02 -1.095511e-02 3.233607e-20) (0.000000e+00 0.000000e+00 0.000000e+00)) ((-1.062633e+00 1.493434e-01 1.400981e+00) (5.477554e-04 3.981451e-03 -1.042739e-04) (0.000000e+00 0.000000e+00 0.000000e+00))
5.500000e+02	((2.992069e+00 2.128966e+01 -4.732675e-19) (7.943933e-02 -1.094414e-02 3.260725e-20) (0.000000e+00 0.000000e+00 0.000000e+00)) ((-1.064483e+00 1.496034e-01 1.408515e+00) (5.472070e-04 3.971967e-03 -1.013386e-04) (0.000000e+00 0.000000e+00 0.000000e+00))
5.550000e+02	((2.997070e+00 2.132525e+01 -4.730841e-19) (7.929724e-02 -1.090918e-02 3.195159e-20) (0.000000e+00 0.000000e+00 0.000000e+00)) ((-1.066262e+00 1.498535e-01 1.416098e+00) (5.454588e-04 3.964862e-03 -1.045662e-04) (0.000000e+00 0.000000e+00 0.000000e+00))