/*--------------------------------*- C++ -*----------------------------------*\
| =========                 |                                                 |
| \\      /  F ield         | OpenFOAM: The Open Source CFD Toolbox           |
|  \\    /   O peration     | Version:  2.3.0                                 |
|   \\  /    A nd           | Web:      www.OpenFOAM.org                      |
|    \\/     M anipulation  |                                                 |
\*---------------------------------------------------------------------------*/
FoamFile
{
    version     2.0;
    format      ascii;
    class       volScalarField;
    location    "1000";
    object      nut;
}
// * * * * * * * * * * * * * * * * * * * * * * * * * * * * * * * * * * * * * //

dimensions      [0 2 -1 0 0 0 0];

internalField   nonuniform List<scalar> 
37496
(
0.0708452
0.0692018
0.0675556
0.0659067
0.064255
0.0626012
0.0609457
0.0592894
0.0576329
0.0559767
0.0543217
0.0526686
0.0510181
0.0493713
0.0477287
0.0460909
0.044459
0.042834
0.0412163
0.0396069
0.0380065
0.0364163
0.0348372
0.0332697
0.0317151
0.0301747
0.0286503
0.0271434
0.0256558
0.0241905
0.0227525
0.0213473
0.0199824
0.0186685
0.0174173
0.0162425
0.0151626
0.0141905
0.0132828
0.0122957
0.0110792
0.0095352
0.00791242
0.0720142
0.0705602
0.0691049
0.0676482
0.06619
0.0647303
0.0632695
0.0618076
0.0603454
0.0588829
0.0574205
0.0559588
0.0544981
0.0530393
0.0515825
0.0501282
0.0486773
0.0472302
0.0457877
0.0443508
0.04292
0.0414966
0.0400818
0.0386763
0.0372815
0.0358993
0.0345316
0.0331802
0.0318479
0.0305377
0.0292543
0.0280032
0.0267904
0.0256235
0.0245133
0.0234715
0.0225125
0.0216527
0.0209102
0.0203001
0.0198368
0.0195369
0.0194161
0.0730973
0.071804
0.070511
0.0692173
0.0679222
0.0666254
0.0653268
0.0640268
0.0627256
0.0614228
0.0601188
0.0588142
0.0575089
0.0562034
0.0548978
0.0535929
0.0522885
0.0509854
0.0496844
0.0483864
0.0470922
0.0458026
0.044519
0.043243
0.0419762
0.0407199
0.0394773
0.0382508
0.0370432
0.0358587
0.0347019
0.0335786
0.0324956
0.0314612
0.0304842
0.0295753
0.0287469
0.0280121
0.0273845
0.0268768
0.0265003
0.0262644
0.0261735
0.0740938
0.0729395
0.071787
0.0706328
0.0694765
0.0683177
0.0671565
0.0659927
0.0648262
0.0636569
0.062485
0.0613104
0.0601336
0.0589548
0.0577741
0.056592
0.0554082
0.0542234
0.0530382
0.0518538
0.0506708
0.0494898
0.0483126
0.0471409
0.0459762
0.0448206
0.0436764
0.0425473
0.0414358
0.0403468
0.0392849
0.0382552
0.0372647
0.036321
0.0354334
0.0346109
0.0338637
0.0332036
0.0326413
0.0321875
0.0318508
0.0316384
0.031553
0.0749973
0.073973
0.0729431
0.0719091
0.0708714
0.0698302
0.0687853
0.0677365
0.0666836
0.0656264
0.0645648
0.0634987
0.0624286
0.0613548
0.0602775
0.0591966
0.0581124
0.0570252
0.0559353
0.0548436
0.0537511
0.0526591
0.0515685
0.0504815
0.0493989
0.048323
0.0472573
0.0462043
0.0451675
0.0441515
0.0431612
0.0422016
0.0412791
0.0404011
0.0395759
0.038812
0.038119
0.037507
0.0369856
0.0365639
0.0362502
0.0360499
0.0359653
0.0758359
0.0749162
0.0739907
0.0730594
0.0721232
0.0711819
0.0702357
0.0692845
0.0683277
0.0673652
0.0663965
0.0654213
0.0644402
0.0634537
0.0624621
0.0614653
0.0604634
0.0594569
0.058446
0.0574307
0.0564125
0.055393
0.0543737
0.053356
0.0523405
0.0513294
0.0503261
0.049334
0.0483562
0.0473973
0.0464624
0.0455562
0.0446853
0.0438566
0.0430775
0.0423562
0.0417011
0.0411224
0.0406283
0.0402276
0.0399277
0.0397337
0.0396483
0.0766035
0.0757744
0.0749387
0.0740959
0.0732461
0.0723902
0.0715281
0.0706598
0.0697843
0.0689022
0.0680128
0.0671147
0.0662076
0.0652933
0.0643734
0.063447
0.0625134
0.0615738
0.060629
0.059678
0.0587214
0.0577611
0.0567996
0.055839
0.0548804
0.0539232
0.0529702
0.0520272
0.051097
0.0501835
0.0492928
0.0484289
0.0475967
0.0468059
0.0460624
0.0453737
0.044747
0.0441918
0.0437169
0.0433306
0.0430401
0.0428499
0.0427634
0.077304
0.0765531
0.0757955
0.0750297
0.0742535
0.073471
0.0726804
0.0718831
0.0710764
0.0702612
0.0694403
0.0686095
0.0677652
0.0669092
0.066049
0.0651829
0.0643069
0.0634217
0.0625323
0.0616366
0.0607325
0.0598212
0.0589063
0.0579903
0.0570809
0.0561726
0.0552594
0.0543569
0.0534664
0.0525891
0.0517327
0.0509059
0.0501008
0.0493397
0.048625
0.0479634
0.0473599
0.0468212
0.0463598
0.0459841
0.0457
0.045512
0.0454241
0.0779477
0.0772587
0.0765655
0.0758703
0.0751576
0.0744418
0.0737068
0.0729684
0.0722214
0.0714574
0.0706919
0.0699217
0.0691388
0.0683282
0.0675135
0.0666972
0.0658753
0.0650316
0.0641856
0.0633379
0.062483
0.0616126
0.0607413
0.0598523
0.0589764
0.0581228
0.0572444
0.0563771
0.0555216
0.0546787
0.0538324
0.0530535
0.0522634
0.0515259
0.0508328
0.0501958
0.0496187
0.0490911
0.0486395
0.048272
0.0479921
0.0478043
0.0477136
0.00850522
0.0105254
0.0116864
0.0127824
0.0139401
0.0151696
0.0164547
0.0177806
0.0191348
0.0205095
0.0218995
0.0232998
0.0247085
0.0261245
0.0275449
0.0289705
0.0303996
0.0318324
0.0332686
0.0347077
0.0361498
0.0375947
0.0390427
0.0404929
0.041946
0.0434017
0.0448598
0.0463204
0.0477831
0.0492481
0.050715
0.0521835
0.0536536
0.0551249
0.0565974
0.0580706
0.0595446
0.0610189
0.0624931
0.0639669
0.0654395
0.0669098
0.0683777
0.0194844
0.0197491
0.020199
0.0208172
0.0215817
0.0224671
0.0234503
0.0245097
0.0256293
0.0267953
0.0279959
0.029224
0.0304728
0.0317361
0.0330119
0.0342958
0.0355865
0.0368822
0.0381813
0.0394828
0.0407865
0.0420916
0.0433975
0.0447045
0.0460122
0.0473201
0.0486283
0.049937
0.0512456
0.0525544
0.0538633
0.055172
0.0564804
0.0577889
0.0590973
0.0604056
0.0617138
0.0630219
0.0643298
0.0656373
0.0669444
0.0682508
0.0695589
0.0262265
0.0264245
0.0267699
0.0272541
0.0278641
0.0285842
0.0293981
0.0302912
0.0312495
0.03226
0.033312
0.0343979
0.0355094
0.0366417
0.0377891
0.038948
0.0401155
0.0412892
0.0424672
0.043648
0.0448307
0.0460141
0.0471982
0.0483818
0.0495646
0.0507464
0.0519275
0.0531069
0.0542848
0.0554612
0.0566362
0.0578096
0.0589815
0.060152
0.0613212
0.0624893
0.0636565
0.0648229
0.0659885
0.0671533
0.0683175
0.069481
0.0706452
0.0315932
0.0317591
0.0320515
0.0324644
0.0329887
0.0336124
0.0343241
0.0351118
0.0359629
0.036866
0.0378126
0.0387942
0.0398034
0.0408341
0.0418814
0.0429413
0.0440102
0.0450856
0.0461651
0.047247
0.04833
0.0494136
0.0504964
0.0515776
0.0526571
0.0537345
0.0548092
0.0558808
0.0569493
0.0580151
0.0590778
0.0601377
0.0611946
0.0622485
0.0632998
0.0643491
0.0653964
0.0664419
0.0674857
0.068528
0.0695687
0.0706076
0.0716445
0.035996
0.036142
0.0364012
0.0367694
0.0372394
0.0378013
0.0384454
0.0391607
0.0399366
0.0407635
0.0416328
0.0425363
0.0434671
0.0444193
0.0453884
0.0463699
0.0473599
0.048356
0.0493552
0.0503562
0.051358
0.052359
0.0533586
0.054356
0.0553504
0.0563409
0.0573271
0.0583086
0.059286
0.0602592
0.0612284
0.0621928
0.0631526
0.0641081
0.0650599
0.0660084
0.0669537
0.067896
0.0688354
0.0697724
0.0707069
0.0716387
0.0725688
0.0396721
0.0398036
0.0400404
0.0403782
0.0408105
0.0413291
0.0419243
0.0425872
0.0433081
0.044078
0.0448887
0.0457326
0.0466029
0.0474939
0.0484013
0.04932
0.0502463
0.0511777
0.0521116
0.0530466
0.0539814
0.0549151
0.055847
0.0567756
0.0576993
0.0586171
0.0595291
0.0604356
0.061337
0.0622334
0.0631241
0.064008
0.0648855
0.0657578
0.0666254
0.0674885
0.068347
0.0692009
0.0700508
0.0708973
0.0717403
0.0725793
0.0734137
0.0427812
0.0429026
0.0431244
0.0434398
0.043844
0.0443296
0.0448881
0.0455111
0.0461903
0.0469164
0.0476813
0.0484781
0.0493008
0.0501437
0.0510017
0.0518698
0.0527436
0.0536211
0.054501
0.0553814
0.0562612
0.0571402
0.0580171
0.058889
0.0597529
0.0606087
0.0614581
0.062302
0.0631406
0.0639733
0.0647979
0.0656129
0.0664201
0.0672218
0.0680181
0.0688091
0.0695937
0.0703714
0.0711443
0.0719132
0.0726776
0.0734364
0.0741888
0.0454372
0.0455514
0.0457653
0.0460616
0.046444
0.0469032
0.0474322
0.0480228
0.048671
0.0493619
0.0500898
0.0508491
0.0516346
0.0524386
0.0532563
0.0540824
0.0549115
0.0557428
0.0565785
0.0574133
0.0582479
0.0590829
0.059917
0.0607405
0.0615508
0.0623531
0.0631498
0.0639422
0.0647302
0.0655106
0.0662782
0.0670316
0.0677785
0.0685218
0.0692585
0.0699887
0.070709
0.0714202
0.0721269
0.0728298
0.0735275
0.0742172
0.0748967
0.0477232
0.0478284
0.0480436
0.0483156
0.0486826
0.0491197
0.0496203
0.0501785
0.0508079
0.0514697
0.0521638
0.0528922
0.0536489
0.0544182
0.0552027
0.0559929
0.0567809
0.0575747
0.0583774
0.059171
0.0599722
0.0607735
0.0615747
0.0623478
0.0631085
0.0638673
0.0646224
0.0653756
0.066124
0.0668612
0.0675747
0.0682705
0.0689725
0.0696704
0.0703551
0.0710351
0.0716964
0.0723514
0.0730056
0.0736556
0.0742996
0.0749326
0.0755488
0.0244847
0.0236935
0.022912
0.0221397
0.0213769
0.0206238
0.0198807
0.0191479
0.0184257
0.0177142
0.0170137
0.016324
0.0156453
0.0149775
0.0143205
0.0136744
0.0130389
0.0124138
0.0117989
0.0111941
0.0105991
0.0100135
0.0094372
0.00886989
0.0083113
0.0077612
0.00721947
0.00668599
0.00616077
0.00564406
0.0051363
0.00463821
0.00415089
0.0036761
0.00321597
0.0027732
0.002351
0.00195232
0.00157936
0.00122983
0.000887036
0.000631924
0.000410158
0.0244492
0.023712
0.0229866
0.0222703
0.0215623
0.0208623
0.0201704
0.0194866
0.0188111
0.0181439
0.0174851
0.0168345
0.0161923
0.0155583
0.0149325
0.0143146
0.0137046
0.0131022
0.0125073
0.0119196
0.011339
0.0107651
0.0101978
0.00963679
0.00908197
0.00853308
0.00799018
0.00745316
0.00692215
0.00639752
0.00587988
0.00536995
0.00486899
0.00437843
0.0039002
0.00343652
0.00298909
0.00255915
0.00214519
0.00174252
0.00136496
0.0010367
0.000704797
0.0244129
0.0237335
0.0230628
0.0223998
0.0217433
0.0210933
0.0204493
0.0198113
0.0191792
0.018553
0.0179327
0.0173182
0.0167094
0.0161063
0.0155087
0.0149164
0.0143293
0.0137473
0.0131701
0.0125976
0.0120296
0.0114658
0.0109061
0.0103504
0.00979838
0.00925012
0.00870562
0.00816482
0.00762796
0.00709549
0.00656793
0.00604609
0.00553104
0.00502392
0.00452617
0.00403897
0.00356248
0.00309461
0.00262808
0.0021489
0.00174913
0.00136093
0.000925176
0.0243707
0.0237505
0.0231322
0.0225181
0.0219085
0.0213033
0.0207022
0.0201051
0.0195117
0.018922
0.0183359
0.0177533
0.0171742
0.0165983
0.0160255
0.0154557
0.0148888
0.0143245
0.0137628
0.0132034
0.0126462
0.012091
0.0115378
0.0109863
0.0104364
0.0098882
0.00934171
0.00879693
0.00825422
0.0077139
0.00717652
0.00664283
0.00611361
0.00558988
0.00507235
0.00456133
0.00405547
0.00355099
0.00304194
0.00253893
0.00208248
0.00162128
0.00109774
0.0243351
0.0237645
0.0231937
0.0226244
0.0220571
0.0214922
0.0209293
0.0203685
0.0198095
0.0192522
0.0186964
0.018142
0.0175889
0.0170369
0.016486
0.015936
0.0153866
0.0148379
0.0142896
0.0137415
0.0131936
0.0126457
0.0120978
0.0115497
0.0110013
0.0104526
0.0099038
0.00935493
0.00880634
0.00825825
0.00771123
0.00716591
0.00662297
0.00608305
0.00554626
0.00501192
0.00447731
0.00393713
0.0033866
0.002864
0.00236447
0.0018347
0.00123718
0.0243029
0.0237763
0.0232482
0.0227194
0.0221904
0.0216616
0.0211331
0.0206046
0.0200761
0.0195475
0.0190185
0.018489
0.0179589
0.0174281
0.0168964
0.0163639
0.01583
0.0152949
0.0147583
0.0142201
0.0136801
0.0131385
0.012595
0.0120495
0.011502
0.0109526
0.0104013
0.00984835
0.00929389
0.00873826
0.00818199
0.0076256
0.00706959
0.00651422
0.00595901
0.00540227
0.00483968
0.00426333
0.00366356
0.0031275
0.0025974
0.00201021
0.00135121
0.0242726
0.0237861
0.0232964
0.0228041
0.0223099
0.0218138
0.0213159
0.0208162
0.0203149
0.0198118
0.0193068
0.0187994
0.0182896
0.0177775
0.0172629
0.0167459
0.0162261
0.0157032
0.0151771
0.0146474
0.0141144
0.0135781
0.0130384
0.012495
0.0119481
0.0113978
0.0108441
0.0102871
0.00972706
0.00916432
0.00859935
0.00803252
0.00746415
0.00689418
0.00632157
0.00574391
0.00515559
0.00454763
0.00391193
0.00335204
0.0027922
0.00215528
0.0014454
0.0242451
0.0237943
0.0233389
0.0228798
0.022417
0.0219506
0.0214803
0.021006
0.0205285
0.0200485
0.0195656
0.0190781
0.018586
0.0180902
0.0175909
0.0170879
0.0165809
0.0160699
0.0155538
0.0150322
0.0145052
0.0139731
0.0134367
0.012896
0.0123494
0.011798
0.0112425
0.0106822
0.0101171
0.00954767
0.00897455
0.00839804
0.00781811
0.00723424
0.00664546
0.00604832
0.00543687
0.00480354
0.00415092
0.00355621
0.00296107
0.00227443
0.00151976
0.0242216
0.0238019
0.0233764
0.0229467
0.0225127
0.0220744
0.0216299
0.0211776
0.0207193
0.0202584
0.0197983
0.0193309
0.0188537
0.0183709
0.0178846
0.0173946
0.0168999
0.0164018
0.0158974
0.0153848
0.014864
0.0143346
0.0137992
0.0132647
0.0127202
0.0121657
0.0116097
0.0110481
0.01048
0.00990456
0.00932407
0.0087396
0.00814935
0.00755242
0.0069483
0.00633322
0.00569986
0.00504537
0.00438181
0.00375913
0.003133
0.00240799
0.00160656
0.000373484
0.000481038
0.000674926
0.000858505
0.00103393
0.00120294
0.00136735
0.00152963
0.00169333
0.00186377
0.00204863
0.00225687
0.00249438
0.00276212
0.00305907
0.00338292
0.0037322
0.00410606
0.0045043
0.00492707
0.00537457
0.00584719
0.00634568
0.00687031
0.00742185
0.00800061
0.00860728
0.00924223
0.00990623
0.0105999
0.0113242
0.0120798
0.0128677
0.0136888
0.0145439
0.015434
0.0163601
0.0173231
0.018324
0.0193637
0.0204433
0.0215642
0.0227298
0.000529312
0.000636421
0.000834137
0.00102737
0.00121252
0.00139175
0.00156876
0.00174866
0.00193767
0.00214297
0.00237166
0.0026302
0.00292126
0.0032395
0.00358193
0.00394718
0.00433423
0.00474275
0.00517263
0.00562383
0.00609672
0.00659167
0.00710889
0.0076486
0.00821092
0.00879638
0.0094055
0.0100386
0.0106962
0.011379
0.0120877
0.0128229
0.0135852
0.0143754
0.0151942
0.0160426
0.0169215
0.0178314
0.0187734
0.019748
0.0207568
0.0218014
0.0228856
0.000673951
0.000776299
0.000980208
0.00118371
0.00138042
0.0015742
0.00177118
0.00197851
0.0022032
0.00245111
0.00272668
0.00303378
0.00337167
0.00373289
0.00411491
0.00451667
0.00493757
0.00537722
0.00583554
0.00631255
0.00680826
0.00732276
0.00785632
0.00840871
0.00898001
0.00957061
0.0101809
0.0108111
0.0114618
0.0121332
0.0128261
0.0135407
0.0142778
0.0150379
0.0158216
0.0166294
0.0174622
0.0183206
0.0192054
0.0201174
0.0210577
0.0220275
0.0230289
0.000799581
0.000899052
0.00111047
0.00132506
0.00153593
0.00174904
0.00197233
0.00221334
0.00247763
0.0027685
0.00308798
0.00343928
0.00381707
0.00421508
0.00463139
0.00506507
0.00551555
0.0059826
0.00646604
0.00696546
0.00748082
0.0080122
0.00855913
0.00912179
0.00970008
0.0102942
0.0109045
0.0115311
0.0121743
0.0128345
0.0135119
0.0142071
0.0149202
0.0156519
0.0164027
0.0171729
0.0179631
0.0187738
0.0196058
0.0204597
0.0213363
0.0222362
0.0231599
0.000906767
0.00100672
0.00122698
0.00145407
0.00168199
0.00191851
0.0021721
0.00244901
0.00275242
0.00308323
0.0034426
0.00383299
0.00424537
0.00467553
0.00512196
0.00558377
0.00606045
0.00655149
0.00705678
0.00757578
0.00810805
0.00865334
0.00921178
0.00978272
0.0103665
0.0109632
0.0115726
0.0121952
0.012831
0.0134801
0.0141429
0.0148196
0.0155106
0.016216
0.0169364
0.0176718
0.0184229
0.0191901
0.0199736
0.0207743
0.0215925
0.0224288
0.0232853
0.000998391
0.00110198
0.00133227
0.00157346
0.00182099
0.00208359
0.00236898
0.00268122
0.00302111
0.00338815
0.00378411
0.00420809
0.00465081
0.00510945
0.00558263
0.00606944
0.00656933
0.00708172
0.00760621
0.00814218
0.00868904
0.00924655
0.00981444
0.0103924
0.0109806
0.0115788
0.0121871
0.0128055
0.013434
0.0140727
0.0147218
0.0153815
0.0160518
0.016733
0.0174255
0.0181291
0.0188442
0.0195714
0.0203107
0.0210624
0.0218268
0.0226033
0.0233906
0.00107703
0.00118659
0.00142813
0.00168501
0.00195404
0.00224391
0.0025607
0.00290615
0.00327914
0.00367872
0.00410815
0.00456137
0.00503109
0.00551506
0.00601215
0.00652138
0.00704207
0.00757352
0.00811504
0.00866574
0.00922537
0.00979341
0.0103697
0.0109537
0.0115454
0.0121448
0.0127514
0.0133655
0.0139871
0.0146161
0.0152526
0.0158964
0.0165478
0.0172066
0.0178733
0.0185477
0.0192299
0.0199204
0.0206189
0.0213257
0.0220406
0.0227627
0.0234912
0.00114613
0.0012654
0.0015184
0.00179129
0.00208175
0.00239821
0.00274484
0.00312075
0.00352347
0.00395268
0.00441179
0.00489102
0.0053852
0.0058923
0.00641096
0.00694058
0.00748013
0.00802867
0.00858534
0.00914955
0.00972103
0.010299
0.0108824
0.0114718
0.0120666
0.0126662
0.0132705
0.01388
0.0144953
0.0151155
0.0157398
0.0163686
0.0170025
0.0176411
0.0182838
0.0189309
0.0195825
0.0202388
0.0209001
0.0215662
0.0222362
0.0229088
0.0235846
0.00120227
0.00132241
0.00158993
0.00188201
0.00219948
0.00254691
0.00292192
0.00332507
0.00375605
0.0042146
0.00470107
0.00520608
0.00572455
0.00625221
0.00678946
0.00733897
0.00789741
0.00846082
0.00903084
0.00960791
0.010194
0.0107808
0.0113666
0.0119616
0.0125583
0.0131532
0.0137512
0.0143559
0.0149678
0.0155801
0.0161902
0.0168036
0.0174225
0.018043
0.0186617
0.0192818
0.019904
0.020528
0.0211554
0.0217857
0.0224169
0.023043
0.0236719
0.000566917
0.00216832
0.00411724
0.00597024
0.00763645
0.00913
0.0104988
0.0117829
0.0130034
0.0141734
0.0153527
0.0166693
0.0181036
0.0196164
0.0211803
0.0227791
0.0244035
0.0260488
0.0277114
0.029389
0.0310795
0.0327815
0.0344945
0.0362176
0.0379489
0.0396883
0.0414352
0.0431885
0.0449475
0.046711
0.0484786
0.0502495
0.0520226
0.0537973
0.0555727
0.0573477
0.059122
0.0608944
0.0626641
0.0644303
0.0661923
0.0679494
0.0696998
0.00042147
0.00200605
0.00362319
0.00502691
0.00635009
0.00762388
0.00885439
0.0100447
0.0112007
0.0123352
0.0134768
0.0146633
0.0158976
0.0171603
0.0184904
0.019979
0.0215756
0.0232383
0.0249444
0.0266801
0.028438
0.0302129
0.032002
0.0338024
0.0356122
0.0374304
0.0392557
0.0410866
0.0429221
0.0447616
0.0466038
0.0484479
0.0502933
0.0521385
0.0539829
0.055826
0.0576664
0.0595033
0.0613362
0.0631637
0.0649854
0.0668001
0.0686069
0.000294967
0.00147078
0.0031528
0.00485675
0.00628857
0.00753141
0.00865714
0.00971385
0.010735
0.0117456
0.0127666
0.0138137
0.0148966
0.0160198
0.0171956
0.0184386
0.0197519
0.0212372
0.0228561
0.0245594
0.0263169
0.028111
0.0299313
0.031771
0.0336258
0.0354927
0.0373689
0.0392523
0.0411419
0.043036
0.0449328
0.0468318
0.0487315
0.0506308
0.052529
0.054425
0.0563176
0.0582061
0.0600894
0.0619664
0.0638365
0.0656977
0.0675473
0.000289579
0.00134489
0.00288679
0.00466221
0.00626439
0.00764001
0.00883491
0.00989746
0.0108717
0.0117964
0.0127041
0.0136202
0.0145643
0.0155505
0.016588
0.0176817
0.0188395
0.0200812
0.0214282
0.0229639
0.0246305
0.02638
0.0281842
0.030026
0.0318948
0.0337838
0.0356879
0.0376038
0.0395292
0.0414611
0.043398
0.0453382
0.0472802
0.0492227
0.0511644
0.0531041
0.0550407
0.0569728
0.0588996
0.06082
0.0627328
0.0646373
0.0665348
0.000250828
0.00122738
0.00262547
0.0043149
0.00603887
0.00758096
0.00892114
0.0100903
0.0111241
0.012059
0.0129312
0.0137744
0.0146184
0.0154876
0.0163994
0.0173653
0.0183937
0.0194902
0.0206645
0.0219419
0.0233919
0.0250115
0.0267416
0.0285438
0.0303949
0.0322805
0.0341913
0.0361213
0.0380659
0.0400215
0.0419852
0.043955
0.0459287
0.0479047
0.0498811
0.0518567
0.0538297
0.055799
0.0577633
0.0597211
0.0616716
0.0636135
0.0655457
0.000231571
0.00115781
0.00247185
0.00407263
0.00580919
0.00744427
0.00890001
0.0101805
0.0113082
0.0123095
0.0132131
0.0140503
0.0148526
0.01565
0.0164681
0.0173272
0.0182417
0.0192206
0.020271
0.0214013
0.0226343
0.0240226
0.0256047
0.0273173
0.0291151
0.0309709
0.0328676
0.0347943
0.0367432
0.038709
0.040688
0.0426767
0.0446724
0.0466728
0.0486759
0.0506797
0.0526825
0.0546827
0.0566787
0.058669
0.060652
0.0626258
0.0645877
0.000209346
0.00109254
0.00232964
0.00383908
0.00554007
0.00723419
0.00878553
0.0101677
0.0113916
0.0124764
0.013444
0.0143192
0.0151293
0.0159035
0.0166703
0.0174554
0.0182799
0.0191596
0.0201051
0.0211241
0.0222248
0.0234272
0.0247843
0.0263467
0.0280497
0.0298463
0.0317071
0.0336132
0.0355523
0.0375165
0.0395
0.0414979
0.0435066
0.0455236
0.0475458
0.0495711
0.0515974
0.0536227
0.055645
0.0576624
0.0596732
0.0616751
0.0636649
0.000194259
0.00104026
0.00221628
0.00365128
0.00529304
0.00699922
0.00861456
0.0100792
0.0113889
0.0125558
0.0135963
0.0145293
0.015377
0.0161641
0.0169175
0.0176641
0.0184288
0.0192323
0.0200909
0.0210157
0.022015
0.0230979
0.0242853
0.025637
0.027197
0.0289012
0.0307021
0.0325698
0.0344854
0.0364365
0.0384143
0.0404125
0.0424268
0.0444527
0.0464873
0.0485279
0.0505719
0.0526167
0.0546602
0.0567005
0.0587351
0.0607616
0.0627771
0.000181147
0.000992804
0.00211436
0.00348244
0.00505881
0.00674908
0.00840331
0.0099337
0.0113179
0.01256
0.0136721
0.014669
0.015568
0.0163896
0.0171568
0.0178945
0.0186281
0.0193812
0.0201738
0.0210216
0.0219361
0.0229261
0.0240023
0.0251901
0.0265585
0.0281319
0.0298463
0.031657
0.0335349
0.0354616
0.0374246
0.0394154
0.0414274
0.043456
0.045497
0.0475472
0.0496035
0.051663
0.0537233
0.055782
0.0578366
0.0598843
0.061923
0.000169382
0.000950913
0.0020244
0.0033337
0.00484713
0.00650148
0.00816996
0.00974807
0.0111942
0.0125032
0.0136819
0.0147419
0.0156971
0.0165637
0.0173611
0.0181112
0.0188375
0.0195636
0.0203117
0.0211009
0.0219463
0.0228591
0.0238488
0.0249286
0.0261311
0.0275363
0.0291357
0.0308688
0.0326941
0.0345853
0.0365247
0.0385002
0.0405038
0.0425289
0.0445708
0.0466255
0.0486895
0.0507592
0.0528321
0.0549055
0.0569764
0.0590425
0.0611016
0.000158549
0.000912921
0.0019431
0.00319952
0.00465416
0.00626288
0.00792636
0.0095351
0.0110312
0.012398
0.0136371
0.0147568
0.0157678
0.0166837
0.0175202
0.018296
0.0190319
0.0197503
0.0204736
0.0212222
0.0220142
0.0228637
0.0237819
0.0247793
0.0258732
0.0271089
0.0285656
0.0301999
0.0319574
0.0338016
0.0357084
0.0376617
0.0396506
0.0416671
0.0437051
0.0457598
0.047827
0.0499031
0.0519848
0.0540692
0.0561534
0.0582345
0.0603102
0.000148393
0.000878219
0.0018691
0.00307757
0.00447801
0.00603789
0.0076815
0.00930548
0.0108394
0.0122552
0.0135479
0.0147224
0.0157871
0.0167526
0.0176323
0.0184415
0.0191985
0.0199235
0.0206377
0.0213621
0.0221159
0.0229158
0.0237751
0.0247052
0.0257186
0.0268396
0.0281327
0.0296462
0.0313197
0.0331052
0.0349705
0.0368948
0.0388634
0.0408664
0.0428961
0.0449467
0.0470135
0.0490922
0.0511795
0.0532718
0.0553662
0.0574597
0.0595495
0.00013896
0.000846431
0.00180134
0.00296604
0.00431664
0.00582735
0.00744162
0.00906738
0.0106277
0.0120836
0.0134232
0.0146474
0.0157621
0.0167758
0.0176996
0.0185463
0.0193314
0.0200729
0.0207903
0.0215039
0.0222333
0.0229965
0.0238088
0.0246832
0.0256314
0.0266695
0.0278333
0.0292047
0.030777
0.0324913
0.0343065
0.0361949
0.0381377
0.0401225
0.0421399
0.0441829
0.0462457
0.0483241
0.0504139
0.0525115
0.0546136
0.0567177
0.0588228
0.000130183
0.000817182
0.00173905
0.00286358
0.00416809
0.00563156
0.00721065
0.00882747
0.0104033
0.0118908
0.0132705
0.0145391
0.0156997
0.0167592
0.0177263
0.0186119
0.0194293
0.0201939
0.0209234
0.0216368
0.0223533
0.0230914
0.0238678
0.0246969
0.0255911
0.026564
0.0276381
0.0288687
0.0303249
0.0319561
0.0337121
0.0355576
0.0374696
0.0394319
0.0414332
0.0434651
0.0455212
0.0475964
0.049686
0.0517862
0.053894
0.056007
0.0581242
0.000121999
0.000790103
0.00168138
0.00276878
0.00403081
0.00544919
0.00699057
0.0085901
0.0101722
0.0116829
0.0130964
0.014404
0.0156064
0.0167084
0.0177172
0.0186417
0.019493
0.0202849
0.0210327
0.021754
0.0224671
0.0231902
0.0239406
0.0247339
0.0255837
0.026503
0.0275088
0.0286349
0.0299605
0.0314962
0.0331834
0.0349793
0.036855
0.0387907
0.0407725
0.0427906
0.0448373
0.0469066
0.0489936
0.0510944
0.0532057
0.0553249
0.057452
0.000114369
0.000764896
0.00162785
0.00268093
0.00390349
0.00527944
0.00678221
0.00835858
0.0099386
0.0114653
0.012906
0.0142475
0.0154875
0.0166288
0.0176769
0.0186391
0.0195251
0.0203464
0.0211167
0.0218518
0.0225687
0.0232851
0.0240183
0.0247846
0.0255986
0.0264735
0.0274242
0.0284742
0.0296781
0.0311075
0.032717
0.0344565
0.0362909
0.0381959
0.0401552
0.0421564
0.0441912
0.0462525
0.0483349
0.0504339
0.0525461
0.0546679
0.0567959
0.000108089
0.00074145
0.00157814
0.00259935
0.00378527
0.00512121
0.00658562
0.00813489
0.00970651
0.0112419
0.0127039
0.0140744
0.0153479
0.016525
0.0176097
0.0186082
0.0195283
0.02038
0.0211754
0.0219284
0.0226547
0.0233712
0.0240947
0.0248418
0.0256275
0.0264659
0.0273711
0.0283615
0.0294736
0.0307871
0.03231
0.0339863
0.0357742
0.0376447
0.039578
0.0415602
0.0435806
0.0456318
0.0477075
0.049803
0.0519137
0.0540359
0.0561647
0.000103113
0.000719428
0.00153166
0.00252308
0.00367472
0.00497312
0.00640013
0.00792024
0.00947802
0.0110161
0.0124938
0.0138885
0.0151914
0.0164009
0.0175197
0.0185524
0.0195056
0.0203879
0.0212096
0.0219834
0.0227234
0.0234452
0.0241652
0.0248997
0.0256641
0.0264731
0.0273404
0.0282826
0.0293261
0.0305303
0.0319592
0.0335658
0.0353021
0.0371344
0.0390389
0.0409992
0.0430033
0.0450425
0.0471098
0.0491997
0.0513074
0.0534287
0.055559
9.83798e-05
0.000698838
0.00148811
0.00245177
0.00357135
0.00483448
0.0062256
0.00771526
0.00925529
0.0107909
0.0122789
0.0136932
0.0150217
0.0162605
0.0174105
0.0184752
0.0194601
0.0203724
0.0212211
0.0220173
0.0227739
0.0235052
0.0242268
0.0249544
0.0257036
0.0264892
0.0273255
0.0282275
0.0292166
0.0303343
0.0316621
0.0331925
0.0348724
0.0366624
0.0385351
0.0404714
0.0424572
0.0444826
0.0465398
0.0486225
0.0507257
0.0528446
0.0549752
9.39384e-05
0.000679429
0.00144736
0.00238485
0.00347449
0.00470452
0.00606116
0.00752012
0.00903943
0.0105681
0.0120619
0.0134915
0.0148418
0.0161065
0.0172851
0.0183797
0.0193946
0.020336
0.0212116
0.0220313
0.0228065
0.0235504
0.0242775
0.0250029
0.0257421
0.0265101
0.027321
0.0281897
0.0291345
0.0301869
0.031415
0.0328638
0.0344825
0.0362267
0.0380649
0.0399746
0.0419403
0.0439502
0.0459957
0.0480701
0.0501672
0.0522822
0.0544098
8.97232e-05
0.00066131
0.00140907
0.002322
0.00338355
0.00458234
0.00590631
0.00733469
0.00883137
0.0103495
0.0118448
0.0132857
0.0146541
0.0159418
0.0171462
0.0182684
0.0193116
0.0202809
0.0211831
0.0220265
0.0228216
0.0235804
0.0243161
0.0250434
0.0257772
0.0265322
0.027323
0.028164
0.029072
0.0300723
0.0312152
0.0325775
0.0341305
0.0358252
0.0376259
0.0395071
0.0414508
0.0434437
0.0454764
0.0475407
0.0496308
0.0517404
0.0538642
8.57819e-05
0.000644331
0.00137308
0.00226298
0.003298
0.0044673
0.00576021
0.00715858
0.00863148
0.0101361
0.0116292
0.0130777
0.0144611
0.0157687
0.0169963
0.018144
0.0192136
0.0202096
0.0211373
0.0220046
0.0228203
0.0235954
0.0243423
0.0250746
0.0258067
0.0265531
0.0273283
0.0281466
0.0290239
0.0299815
0.0310582
0.0323313
0.0338143
0.0354561
0.0372167
0.0390672
0.040987
0.0429618
0.04498
0.0470336
0.0491152
0.0512192
0.0533397
8.2088e-05
0.000628271
0.0013392
0.00220749
0.0032174
0.00435892
0.00562212
0.00699145
0.00843981
0.00992868
0.0114165
0.0128694
0.0142646
0.0155892
0.0168377
0.0180084
0.0191028
0.0201238
0.0210764
0.0219669
0.0228035
0.0235961
0.024356
0.0250958
0.0258294
0.0265708
0.0273343
0.0281344
0.028986
0.0299084
0.0309326
0.0321221
0.0335319
0.0351177
0.0368355
0.0386532
0.0405478
0.0425027
0.0445056
0.0465473
0.0486202
0.0507191
0.0528395
7.85361e-05
0.000613103
0.00130724
0.00215497
0.00314131
0.00425654
0.00549159
0.00683275
0.00825641
0.00972783
0.0112079
0.012662
0.014066
0.0154052
0.016672
0.0178638
0.0189809
0.0200255
0.0210017
0.021915
0.0227726
0.0235832
0.0243573
0.0251067
0.0258444
0.0265839
0.0273393
0.0281248
0.0289553
0.0298481
0.0308293
0.0319484
0.0332817
0.0348084
0.0364809
0.0382637
0.0401314
0.0420653
0.0440519
0.0460808
0.0481444
0.0502369
0.0523543
7.51895e-05
0.000598796
0.00127699
0.00210533
0.00306938
0.00415973
0.00536798
0.006682
0.008081
0.00953385
0.0110038
0.0124567
0.0138668
0.0152179
0.0165007
0.0177115
0.0188496
0.0199164
0.0209151
0.0218504
0.0227286
0.0235576
0.0243468
0.0251073
0.0258511
0.0265914
0.0273418
0.0281163
0.0289292
0.0297972
0.0307427
0.0318057
0.0330619
0.0345265
0.0361514
0.0378977
0.0397369
0.0416485
0.0436178
0.0456332
0.047687
0.0497729
0.0518878
7.20365e-05
0.00058526
0.00124834
0.00205834
0.00300123
0.00406805
0.00525083
0.00653868
0.00791321
0.00934678
0.0108049
0.0122541
0.013668
0.0150287
0.0163254
0.0175533
0.0187107
0.0197981
0.020818
0.0217744
0.0226728
0.0235201
0.0243251
0.0250977
0.0258495
0.0265928
0.0273408
0.028107
0.028906
0.0297531
0.0306689
0.0316864
0.0328701
0.0342707
0.0358459
0.0375537
0.039363
0.0412513
0.043202
0.0452034
0.0472462
0.0493231
0.0514283
6.91245e-05
0.000572442
0.00122124
0.00201385
0.00293668
0.00398106
0.0051396
0.00640231
0.00775307
0.00916679
0.0106116
0.0120552
0.0134706
0.0148386
0.0161473
0.0173904
0.0185653
0.0196718
0.0207117
0.0216883
0.0226063
0.0234719
0.0242928
0.0250785
0.0258394
0.0265875
0.0273353
0.0280961
0.0288839
0.0297138
0.0306044
0.0315838
0.0327051
0.0340397
0.0355629
0.0372305
0.0390086
0.0408723
0.0428039
0.0447901
0.0468208
0.0488881
0.0509851
6.67347e-05
0.00056034
0.00119563
0.00197169
0.00287551
0.0038986
0.00503398
0.00627263
0.00760005
0.00899371
0.0104242
0.0118605
0.0132754
0.0146487
0.0159673
0.0172238
0.0184146
0.0195389
0.0205975
0.0215933
0.0225301
0.0234136
0.0242507
0.0250499
0.0258211
0.0265754
0.0273249
0.0280826
0.0288618
0.0296774
0.0305467
0.0314944
0.0325643
0.033832
0.0353016
0.0369273
0.0386727
0.0405109
0.0424224
0.0443926
0.0464105
0.0484679
0.0505572
6.56473e-05
0.000548774
0.00117129
0.00193165
0.00281731
0.00382017
0.00493349
0.00614904
0.00745374
0.00882735
0.0102428
0.0116703
0.0130828
0.0144596
0.0157864
0.0170546
0.0182597
0.0194002
0.0204765
0.0214904
0.0224454
0.0233464
0.0241995
0.0250126
0.0257948
0.0265565
0.0273094
0.0280658
0.0288389
0.0296429
0.0304943
0.0314152
0.0324429
0.0336462
0.0350605
0.036643
0.0383545
0.0401661
0.0420566
0.0440101
0.0460147
0.0480617
0.0501447
6.69446e-05
0.000537733
0.00114809
0.00189349
0.00276193
0.00374547
0.00483778
0.0060312
0.00731389
0.00866757
0.0100672
0.0114848
0.0128934
0.014272
0.0156052
0.0168835
0.0181016
0.0192571
0.0203496
0.0213807
0.022353
0.0232709
0.0241399
0.024967
0.0257608
0.026531
0.0272885
0.0280453
0.0288142
0.029609
0.0304454
0.0313437
0.0323358
0.033481
0.0348389
0.0363766
0.038053
0.0398371
0.0417056
0.0436417
0.0456324
0.0476683
0.0497417
7.09382e-05
0.000527187
0.00112615
0.00185725
0.00270928
0.00367439
0.00474655
0.00591874
0.00718007
0.00851391
0.00989753
0.0113041
0.0127076
0.0140864
0.0154245
0.0167114
0.017941
0.0191101
0.0202179
0.021265
0.0222539
0.0231881
0.0240726
0.0249138
0.0257195
0.0264988
0.0272621
0.0280209
0.0287873
0.029575
0.030399
0.0312779
0.0322399
0.0333353
0.0346357
0.0361274