/*--------------------------------*- C++ -*----------------------------------*\
| =========                 |                                                 |
| \\      /  F ield         | OpenFOAM: The Open Source CFD Toolbox           |
|  \\    /   O peration     | Version:  2.3.0                                 |
|   \\  /    A nd           | Web:      www.OpenFOAM.org                      |
|    \\/     M anipulation  |                                                 |
\*---------------------------------------------------------------------------*/
FoamFile
{
    version     2.0;
    format      ascii;
    class       volScalarField;
    location    "1000";
    object      p;
}
// * * * * * * * * * * * * * * * * * * * * * * * * * * * * * * * * * * * * * //

dimensions      [0 2 -2 0 0 0 0];

internalField   nonuniform List<scalar> 
37496
(
0.00174143
-2.50696
-5.11183
-7.77574
-10.5144
-13.3311
-16.2288
-19.2094
-22.275
-25.4308
-28.6797
-32.0214
-35.4596
-38.9933
-42.6283
-46.3585
-50.1811
-54.0989
-58.0954
-62.1727
-66.3179
-70.5162
-74.7606
-79.0394
-83.3436
-87.6646
-92.0008
-96.341
-100.701
-105.061
-109.399
-113.694
-117.897
-121.843
-125.407
-128.275
-130.206
-130.378
-126.804
-117.742
-107.384
-100.812
-64.3499
4.62112
2.79254
0.73292
-1.39889
-3.57567
-5.78801
-8.04003
-10.3283
-12.6517
-15.0131
-17.407
-19.8379
-22.2975
-24.7907
-27.3148
-29.8686
-32.4527
-35.0662
-37.7044
-40.366
-43.0469
-45.7252
-48.3948
-51.0251
-53.5901
-56.0288
-58.296
-60.3058
-61.965
-63.1371
-63.6517
-63.3313
-61.9035
-59.0605
-54.4499
-47.6186
-38.1463
-25.3991
-8.77741
12.3947
38.9343
72.678
114.327
9.17666
7.82561
6.20323
4.5522
2.88555
1.20931
-0.478258
-2.1723
-3.86971
-5.57465
-7.27254
-8.97187
-10.6541
-12.327
-13.9666
-15.577
-17.1453
-18.6562
-20.0994
-21.4562
-22.7197
-23.8603
-24.8646
-25.7026
-26.3473
-26.7722
-26.9128
-26.7455
-26.1916
-25.1889
-23.6393
-21.4313
-18.4339
-14.4957
-9.42057
-3.02172
4.93471
14.6624
26.3431
40.0715
55.938
74.0705
94.1365
13.3397
12.3027
11.0451
9.74887
8.45082
7.16057
5.87642
4.59945
3.33572
2.08345
0.851695
-0.364101
-1.54734
-2.70651
-3.81784
-4.88621
-5.89689
-6.84411
-7.70724
-8.46836
-9.11747
-9.63476
-9.97991
-10.1303
-10.0519
-9.70152
-9.01631
-7.96161
-6.44808
-4.39292
-1.72766
1.67411
5.898
11.093
17.3743
24.858
33.6805
43.8999
55.5817
68.6337
82.9396
98.1482
113.764
17.067
16.3343
15.3318
14.3241
13.3288
12.3452
11.3767
10.4222
9.49158
8.5853
7.70901
6.86605
6.06399
5.3023
4.60173
3.95962
3.3925
2.9073
2.51959
2.24705
2.10805
2.11462
2.30438
2.69481
3.30972
4.19867
5.39104
6.93308
8.88345
11.3179
14.2803
17.868
22.1487
27.2215
33.175
40.069
47.9973
56.9664
66.9826
77.9589
89.772
102.142
114.75
20.4057
19.8743
19.1115
18.3454
17.5911
16.8395
16.1107
15.3949
14.711
14.0556
13.434
12.8575
12.3211
11.8315
11.399
11.0406
10.7558
10.5593
10.4561
10.4698
10.6238
10.9284
11.4225
12.1208
13.0496
14.26
15.7658
17.6041
19.8413
22.5376
25.7364
29.4965
33.8939
38.9509
44.7956
51.4234
58.9265
67.2659
76.4106
86.2897
96.7539
107.599
118.568
23.4457
23.0612
22.4709
21.8878
21.3256
20.7566
20.2188
19.6785
19.1903
18.7283
18.2988
17.9257
17.5962
17.3074
17.0719
16.9316
16.8716
16.8949
17.0013
17.2326
17.5899
18.099
18.7814
19.6872
20.8129
22.2327
23.9242
25.8827
28.2429
31.0422
34.3298
38.1057
42.4713
47.3572
52.9818
59.2238
66.2093
73.9293
82.3099
91.3299
100.807
110.594
120.426
26.1758
25.9577
25.4558
24.9735
24.5558
24.1576
23.7962
23.3562
23.0122
22.6934
22.3864
22.174
22.0234
21.889
21.7425
21.7361
21.8684
22.0708
22.302
22.6863
23.1964
23.8468
24.6114
25.6153
26.7478
28.3423
30.2712
32.311
34.7232
37.5631
40.7919
44.5809
48.9902
53.6662
59.1182
65.1179
71.813
79.1162
86.8614
95.2511
103.947
112.911
121.954
28.7157
28.6623
28.1657
27.7567
27.5421
27.1509
26.9308
26.4644
26.1696
25.8945
25.6087
25.5059
25.5202
25.5634
25.3858
25.3052
25.5234
25.9033
26.1647
26.6072
27.1981
27.95
28.7386
29.832
30.6567
32.2805
34.9143
36.9566
39.2751
42.1147
45.1229
48.6038
53.7388
57.7877
62.7817
68.7323
75.777
83.2311
90.5888
98.4637
106.286
114.231
122.685
67.2913
127.651
159.917
182.305
199.582
212.706
222.617
230.068
235.658
239.821
242.849
245.027
246.523
247.459
247.98
248.137
248.018
247.673
247.148
246.484
245.709
244.848
243.919
242.946
241.935
240.9
239.853
238.797
237.74
236.687
235.64
234.602
233.574
232.557
231.552
230.559
229.578
228.611
227.656
226.711
225.77
224.864
224.342
153.099
179.449
198.635
213.228
224.341
232.634
238.675
242.953
245.85
247.68
248.695
249.096
249.03
248.636
247.997
247.194
246.286
245.303
244.271
243.216
242.151
241.085
240.031
238.988
237.961
236.951
235.96
234.982
234.021
233.077
232.145
231.227
230.323
229.433
228.554
227.688
226.836
225.997
225.17
224.353
223.54
222.767
222.386
114.515
133.568
150.569
165.286
177.791
188.281
196.988
204.155
209.999
214.738
218.56
221.616
224.038
225.939
227.409
228.523
229.342
229.92
230.297
230.512
230.585
230.542
230.399
230.173
229.881
229.529
229.127
228.684
228.207
227.702
227.171
226.622
226.056
225.478
224.889
224.293
223.691
223.085
222.476
221.861
221.237
220.622
220.195
129.051
143.418
156.511
168.173
178.341
187.089
194.517
200.752
205.942
210.228
213.737
216.584
218.879
220.711
222.16
223.285
224.146
224.784
225.233
225.529
225.697
225.756
225.725
225.621
225.459
225.245
224.987
224.691
224.366
224.013
223.636
223.241
222.828
222.401
221.964
221.518
221.065
220.607
220.144
219.678
219.211
218.765
218.545
127.217
139.205
150.431
160.714
169.931
178.077
185.189
191.329
196.577
201.038
204.802
207.961
210.6
212.791
214.611
216.098
217.318
218.303
219.09
219.708
220.18
220.527
220.775
220.934
221.019
221.041
221.002
220.912
220.777
220.604
220.398
220.164
219.904
219.623
219.326
219.016
218.698
218.367
218.025
217.677
217.323
216.985
216.817
129.407
139.873
149.771
158.938
167.266
174.732
181.347
187.138
192.155
196.479
200.168
203.306
205.97
208.221
210.12
211.707
213.039
214.139
215.038
215.773
216.357
216.819
217.184
217.471
217.679
217.823
217.895
217.912
217.881
217.813
217.716
217.585
217.422
217.237
217.041
216.834
216.621
216.385
216.134
215.875
215.611
215.349
215.216
130.075
139.447
148.432
156.845
164.579
171.58
177.853
183.434
188.316
192.538
196.149
199.263
201.943
204.241
206.215
207.898
209.334
210.538
211.54
212.369
213.049
213.623
214.106
214.508
214.829
215.076
215.23
215.331
215.386
215.405
215.408
215.352
215.253
215.148
215.045
214.93
214.807
214.628
214.438
214.249
214.068
213.889
213.852
130.883
139.696
148.329
156.147
163.467
170.036
175.953
181.373
186.11
190.016
193.402
196.433
199.075
201.375
203.391
205.14
206.619
207.826
208.868
209.72
210.427
211.085
211.658
212.131
212.532
212.835
213.014
213.163
213.265
213.359
213.448
213.407
213.336
213.321
213.324
213.283
213.207
213.023
212.885
212.763
212.661
212.562
212.653
131.786
141.694
150.128
157.735
163.999
170.364
176.676
181.65
185.285
189.088
192.273
195.193
197.813
200.056
201.99
203.657
204.998
205.949
206.985
207.652
208.167
208.706
209.411
210.077
210.611
210.946
211.004
211.154
211.241
211.435
211.673
211.533
211.448
211.543
211.594
211.488
211.63
211.488
211.463
211.45
211.441
211.394
211.604
105.324
105.616
105.861
106.111
106.356
106.592
106.819
107.036
107.242
107.437
107.619
107.789
107.944
108.085
108.21
108.32
108.412
108.486
108.542
108.579
108.596
108.594
108.571
108.528
108.464
108.38
108.276
108.152
108.01
107.849
107.672
107.478
107.269
107.048
106.815
106.574
106.328
106.081
105.842
105.627
105.472
105.483
105.953
106.192
106.2
106.296
106.39
106.475
106.552
106.619
106.677
106.726
106.767
106.8
106.828
106.85
106.869
106.885
106.9
106.914
106.928
106.943
106.959
106.977
106.997
107.019
107.043
107.069
107.097
107.126
107.157
107.188
107.221
107.254
107.288
107.322
107.356
107.391
107.427
107.466
107.509
107.566
107.673
107.929
108.525
109.344
106.804
106.837
106.905
106.969
107.034
107.102
107.169
107.236
107.301
107.365
107.427
107.488
107.548
107.606
107.663
107.719
107.773
107.827
107.879
107.93
107.98
108.029
108.077
108.123
108.168
108.212
108.255
108.297
108.337
108.376
108.415
108.454
108.492
108.53
108.569
108.609
108.652
108.705
108.786
108.94
109.283
110.017
111.195
107.339
107.474
107.574
107.671
107.768
107.864
107.959
108.052
108.143
108.23
108.314
108.394
108.471
108.545
108.614
108.681
108.745
108.809
108.87
108.929
108.986
109.041
109.095
109.149
109.202
109.254
109.305
109.354
109.402
109.447
109.492
109.534
109.576
109.616
109.655
109.695
109.738
109.796
109.893
110.082
110.485
111.213
112.366
107.892
108.02
108.128
108.234
108.339
108.439
108.536
108.63
108.723
108.812
108.895
108.975
109.055
109.131
109.201
109.268
109.334
109.401
109.468
109.532
109.596
109.659
109.721
109.783
109.847
109.913
109.98
110.045
110.108
110.168
110.226
110.283
110.338
110.392
110.445
110.499
110.56
110.639
110.767
111
111.46
112.201
113.325
108.419
108.516
108.611
108.714
108.819
108.92
109.016
109.112
109.21
109.305
109.391
109.473
109.558
109.644
109.718
109.785
109.85
109.92
109.992
110.061
110.129
110.197
110.262
110.322
110.384
110.457
110.536
110.614
110.687
110.756
110.821
110.883
110.945
111.005
111.065
111.129
111.204
111.303
111.458
111.727
112.23
113.002
114.152
108.854
108.944
109.034
109.138
109.253
109.361
109.459
109.554
109.659
109.769
109.862
109.942
110.037
110.15
110.239
110.304
110.363
110.438
110.528
110.61
110.687
110.765
110.84
110.893
110.939
111.012
111.112
111.209
111.293
111.364
111.425
111.484
111.545
111.601
111.655
111.714
111.787
111.878
112.015
112.265
112.734
113.463
114.633
109.28
109.33
109.423
109.527
109.654
109.763
109.842
109.917
110.028
110.168
110.251
110.272
110.312
110.463
110.587
110.643
110.646
110.666
110.744
110.824
110.893
110.98
111.1
111.153
111.13
111.144
111.258
111.405
111.532
111.638
111.712
111.771
111.849
111.922
111.984
112.058
112.181
112.325
112.503
112.816
113.35
114.144
115.497
109.387
109.358
109.521
109.742
110.024
110.259
110.346
110.332
110.449
110.78
111.163
111.236
111.12
111.342
111.642
111.873
111.954
112.008
112.124
112.245
112.286
112.297
112.489
112.774
112.698
112.581
112.618
112.745
112.844
112.921
112.962
112.948
112.976
113
112.999
112.937
112.937
112.95
112.856
112.792
112.781
112.907
114.4
109.255
111.994
114.709
117.054
119.188
121.12
122.882
124.499
125.994
127.386
128.692
129.925
131.096
132.215
133.289
134.329
135.339
136.325
137.291
138.241
139.176
140.099
141.01
141.912
142.805
143.689
144.565
145.432
146.29
147.139
147.98
148.812
149.634
150.447
151.25
152.043
152.827
153.599
154.361
155.112
155.845
156.579
157.381
111.247
112.577
114.282
116.011
117.808
119.58
121.305
122.968
124.562
126.087
127.545
128.939
130.275
131.558
132.79
133.978
135.123
136.229
137.299
138.334
139.338
140.312
141.258
142.178
143.074
143.946
144.798
145.63
146.443
147.238
148.018
148.782
149.532
150.268
150.993
151.706
152.408
153.099
153.782
154.455
155.111
155.769
156.521
113.062
114.488
116.085
117.622
119.2
120.765
122.313
123.829
125.305
126.735
128.117
129.45
130.734
131.971
133.161
134.309
135.416
136.483
137.514
138.511
139.476
140.411
141.318
142.2
143.057
143.891
144.704
145.497
146.272
147.029
147.771
148.496
149.207
149.903
150.586
151.257
151.916
152.564
153.201
153.827
154.436
155.044
155.744
114.012
115.466
117.027
118.541
120.079
121.593
123.081
124.532
125.94
127.303
128.619
129.887
131.109
132.286
133.42
134.513
135.568
136.586
137.57
138.522
139.445
140.34
141.209
142.054
142.876
143.677
144.458
145.22
145.965
146.693
147.406
148.103
148.785
149.455
150.111
150.755
151.387
152.008
152.619
153.219
153.801
154.389
155.082
114.847
116.26
117.737
119.204
120.696
122.166
123.612
125.02
126.387
127.71
128.987
130.219
131.406
132.551
133.655
134.719
135.746
136.738
137.697
138.624
139.522
140.392
141.235
142.052
142.847
143.62
144.372
145.105
145.82
146.517
147.198
147.862
148.512
149.147
149.77
150.38
150.978
151.566
152.144
152.711
153.257
153.808
154.463
115.675
117.096
118.529
119.953
121.388
122.803
124.195
125.553
126.875
128.156
129.395
130.592
131.748
132.864
133.941
134.98
135.983
136.951
137.886
138.79
139.664
140.507
141.324
142.115
142.883
143.628
144.353
145.059
145.746
146.414
147.063
147.697
148.316
148.919
149.508
150.085
150.651
151.207
151.752
152.285
152.797
153.305
153.893
116.274
117.807
119.27
120.68
122.07
123.432
124.77
126.078
127.353
128.591
129.793
130.956
132.08
133.168
134.22
135.234
136.212
137.154
138.066
138.95
139.8
140.616
141.408
142.176
142.92
143.641
144.343
145.027
145.69
146.329
146.951
147.559
148.15
148.724
149.283
149.832
150.37
150.899
151.416
151.92
152.401
152.882
153.42
117.29
118.808
120.137
121.426
122.707
123.99
125.271
126.534
127.768
128.973
130.143
131.281
132.38
133.446
134.484
135.481
136.442
137.363
138.259
139.139
139.961
140.748
141.52
142.273
142.992
143.686
144.364
145.035
145.677
146.284
146.875
147.463
148.03
148.57
149.097
149.619
150.132
150.634
151.125
151.603
152.046
152.504
153
117.167
119.275
120.71
121.962
123.203
124.457
125.693
126.922
128.119
129.299
130.438
131.556
132.623
133.676
134.72
135.678
136.619
137.494
138.381
139.284
140.029
140.768
141.559
142.283
142.964
143.648
144.34
145.03
145.624
146.171
146.751
147.354
147.893
148.385
148.897
149.412
149.919
150.42
150.903
151.375
151.759
152.225
152.713
-633.628
-591.886
-546.014
-509.638
-473.625
-435.853
-398.819
-363.872
-331.38
-301.482
-274.313
-249.863
-228.038
-208.604
-191.25
-175.744
-161.853
-149.366
-138.07
-127.802
-118.409
-109.77
-101.767
-94.3106
-87.3235
-80.7468
-74.5328
-68.6386
-63.0321
-57.6864
-52.5822
-47.6976
-43.0175
-38.5311
-34.2249
-30.088
-26.112
-22.2882
-18.6095
-15.0713
-11.6652
-8.38577
-5.25749
-448.552
-445.811
-439.215
-430.811
-419.965
-406.088
-389.669
-371.253
-351.396
-330.619
-309.488
-288.477
-268.023
-248.436
-229.892
-212.528
-196.383
-181.432
-167.613
-154.869
-143.109
-132.249
-122.197
-112.88
-104.219
-96.1373
-88.5825
-81.4985
-74.836
-68.5533
-62.619
-56.995
-51.6586
-46.5855
-41.7541
-37.146
-32.7468
-28.5396
-24.5136
-20.6579
-16.9604
-13.4141
-10.1437
-421.447
-421.447
-420.529
-416.711
-409.98
-400.712
-389.248
-375.768
-360.545
-343.904
-326.279
-308.078
-289.695
-271.484
-253.718
-236.588
-220.229
-204.722
-190.106
-176.384
-163.539
-151.532
-140.316
-129.84
-120.05
-110.885
-102.305
-94.252
-86.6844
-79.5616
-72.8492
-66.5063
-60.5121
-54.8322
-49.4435
-44.325
-39.4572
-34.819
-30.3972
-26.1725
-22.134
-18.2715
-14.7485
-370.432
-370.452
-370.114
-368.955
-366.544
-362.737
-357.391
-350.397
-341.713
-331.372
-319.54
-306.46
-292.418
-277.743
-262.749
-247.721
-232.87
-218.382
-204.368
-190.901
-178.049
-165.833
-154.261
-143.329
-133.007
-123.27
-114.096
-105.434
-97.265
-89.5504
-82.2626
-75.3671
-68.8414
-62.6567
-56.7904
-51.2182
-45.9234
-40.8839
-36.0833
-31.5024
-27.128
-22.9388
-19.1822
-338.999
-339.304
-339.655
-339.551
-338.578
-336.418
-332.969
-328.212
-322.142
-314.767
-306.141
-296.358
-285.548
-273.908
-261.655
-248.999
-236.162
-223.317
-210.628
-198.187
-186.086
-174.378
-163.111
-152.324
-142.02
-132.202
-122.867
-113.985
-105.557
-97.5502
-89.9506
-82.7335
-75.8778
-69.3648
-63.1726
-57.2822
-51.6774
-46.3375
-41.2484
-36.3931
-31.7557
-27.3147
-23.289
-307.38
-307.689
-308.049
-308.181
-307.877
-306.897
-305.071
-302.295
-298.497
-293.626
-287.678
-280.68
-272.68
-263.796
-254.154
-243.902
-233.226
-222.275
-211.206
-200.15
-189.2
-178.434
-167.899
-157.662
-147.759
-138.212
-129.041
-120.241
-111.82
-103.764
-96.0666
-88.7197
-81.7055
-75.014
-68.6285
-62.5371
-56.7247
-51.1747
-45.8776
-40.8158
-35.9776
-31.341
-27.1012
-281.227
-281.571
-282.032
-282.374
-282.425
-282.004
-280.947
-279.166
-276.601
-273.204
-268.943
-263.81
-257.816
-251.011
-243.46
-235.262
-226.534
-217.39
-207.96
-198.36
-188.692
-179.048
-169.471
-160.032
-150.775
-141.742
-132.969
-124.473
-116.269
-108.356
-100.742
-93.4273
-86.4002
-79.6629
-73.2039
-67.0141
-61.0883
-55.4122
-49.9783
-44.7731
-39.7888
-35.0034
-30.6379
-257.673
-258.008
-258.469
-258.868
-259.095
-259.017
-258.497
-257.431
-255.758
-253.435
-250.416
-246.675
-242.204
-237.017
-231.147
-224.645
-217.588
-210.055
-202.144
-193.951
-185.562
-177.072
-168.534
-160.008
-151.536
-143.169
-134.95
-126.91
-119.075
-111.456
-104.068
-96.916
-90.0036
-83.3352
-76.909
-70.7181
-64.7657
-59.0418
-53.5428
-48.2581
-43.1845
-38.3046
-33.8835
-237.144
-237.466
-237.929
-238.363
-238.685
-238.802
-238.597
-237.974
-236.873
-235.252
-233.074
-230.313
-226.948
-222.968
-218.39
-213.234
-207.546
-201.377
-194.796
-187.872
-180.679
-173.294
-165.772
-158.177
-150.542
-142.914
-135.335
-127.846
-120.478
-113.254
-106.193
-99.3047
-92.6048
-86.098
-79.7907
-73.6823
-67.7796
-62.0783
-56.5764
-51.2703
-46.1574
-41.2184
-36.7754
-218.964
-219.27
-219.712
-220.149
-220.517
-220.749
-220.754
-220.44
-219.743
-218.628
-217.065
-215.022
-212.475
-209.411
-205.829
-201.733
-197.146
-192.104
-186.65
-180.83
-174.705
-168.332
-161.763
-155.057
-148.246
-141.371
-134.464
-127.573
-120.728
-113.958
-107.289
-100.737
-94.3174
-88.0424
-81.9222
-75.9626
-70.1716
-64.5513
-59.1037
-53.8269
-48.7229
-43.77
-39.3575
-202.94
-203.226
-203.648
-204.077
-204.461
-204.753
-204.886
-204.773
-204.356
-203.598
-202.472
-200.951
-199.013
-196.639
-193.822
-190.557
-186.854
-182.728
-178.208
-173.327
-168.129
-162.655
-156.951
-151.061
-145.026
-138.876
-132.639
-126.353
-120.053
-113.768
-107.53
-101.354
-95.2625
-89.2682
-83.3854
-77.6242
-71.9953
-66.5038
-61.1576
-55.9563
-50.9092
-45.9935
-41.6918
-188.742
-189.008
-189.404
-189.817
-190.202
-190.527
-190.738
-190.763
-190.544
-190.048
-189.245
-188.113
-186.632
-184.782
-182.553
-179.937
-176.932
-173.549
-169.8
-165.706
-161.297
-156.606
-151.666
-146.514
-141.186
-135.71
-130.111
-124.417
-118.657
-112.866
-107.071
-101.294
-95.5557
-89.8739
-84.2621
-78.7357
-73.305
-67.9798
-62.7701
-57.6767
-52.7131
-47.8562
-43.6656
-176.151
-176.396
-176.767
-177.16
-177.537
-177.873
-178.127
-178.242
-178.164
-177.856
-177.29
-176.451
-175.316
-173.869
-172.098
-169.99
-167.54
-164.753
-161.632
-158.192
-154.45
-150.429
-146.156
-141.658
-136.964
-132.101
-127.091
-121.957
-116.72
-111.41
-106.057
-100.684
-95.3108
-89.9569
-84.6369
-79.3681
-74.1618
-69.0299
-63.985
-59.0312
-54.184
-49.4168
-45.351
-164.948
-165.175
-165.522
-165.893
-166.255
-166.591
-166.869
-167.041
-167.06
-166.889
-166.503
-165.884
-165.013
-163.876
-162.461
-160.754
-158.748
-156.44
-153.832
-150.932
-147.748
-144.297
-140.599
-136.673
-132.54
-128.227
-123.752
-119.133
-114.388
-109.538
-104.614
-99.6374
-94.6288
-89.6072
-84.5887
-79.5904
-74.6235
-69.704
-64.8417
-60.0448
-55.327
-50.6615
-46.6311
-154.96
-155.167
-155.49
-155.839
-156.184
-156.512
-156.799
-157.006
-157.091
-157.019
-156.767
-156.314
-155.647
-154.752
-153.616
-152.226
-150.574
-148.655
-146.467
-144.013
-141.294
-138.325
-135.116
-131.686
-128.047
-124.221
-120.226
-116.075
-111.783
-107.366
-102.849
-98.2527
-93.5998
-88.9065
-84.1901
-79.4668
-74.748
-70.0507
-65.3872
-60.763
-56.1995
-51.6645
-47.7039
-146.026
-146.214
-146.517
-146.844
-147.169
-147.485
-147.773
-147.999
-148.128
-148.129
-147.977
-147.653
-147.144
-146.438
-145.521
-144.382
-143.014
-141.409
-139.562
-137.474
-135.147
-132.584
-129.794
-126.79
-123.581
-120.184
-116.615
-112.885
-109.004
-104.988
-100.851
-96.6155
-92.3029
-87.9277
-83.5068
-79.0568
-74.5889
-70.1171
-65.6568
-61.2112
-56.7997
-52.3844
-48.3584
-138.015
-138.184
-138.468
-138.774
-139.08
-139.381
-139.662
-139.896
-140.055
-140.106
-140.028
-139.803
-139.416
-138.857
-138.115
-137.18
-136.041
-134.691
-133.126
-131.341
-129.338
-127.116
-124.682
-122.044
-119.209
-116.189
-112.995
-109.639
-106.131
-102.478
-98.6947
-94.7957
-90.8045
-86.7327
-82.5981
-78.4134
-74.1935
-69.9492
-65.6949
-61.4365
-57.1896
-52.927
-48.9521
-130.814
-130.966
-131.231
-131.516
-131.802
-132.088
-132.359
-132.595
-132.77
-132.858
-132.835
-132.684
-132.395
-131.953
-131.349
-130.575
-129.622
-128.48
-127.145
-125.612
-123.879
-121.946
-119.814
-117.49
-114.978
-112.286
-109.423
-106.399
-103.222
-99.8995
-96.4383
-92.8527
-89.1605
-85.3754
-81.5131
-77.5856
-73.6064
-69.5872
-65.5406
-61.4759
-57.4061
-53.3212
-49.5291
-124.317
-124.458
-124.704
-124.968
-125.235
-125.504
-125.764
-125.997
-126.181
-126.292
-126.31
-126.217
-126.001
-125.652
-125.162
-124.519
-123.716
-122.745
-121.601
-120.276
-118.77
-117.08
-115.205
-113.149
-110.915
-108.51
-105.938
-103.207
-100.326
-97.2982
-94.1305
-90.8324
-87.4173
-83.9007
-80.2951
-76.6125
-72.8654
-69.0649
-65.2236
-61.3516
-57.4632
-53.5526
-49.9617
-118.448
-118.582
-118.809
-119.053
-119.302
-119.555
-119.802
-120.029
-120.216
-120.342
-120.388
-120.339
-120.182
-119.907
-119.505
-118.967
-118.287
-117.457
-116.469
-115.318
-114.001
-112.515
-110.859
-109.034
-107.041
-104.883
-102.566
-100.095
-97.4749
-94.7121
-91.8092
-88.7725
-85.6136
-82.3454
-78.9796
-75.5283
-72.0012
-68.4105
-64.7652
-61.076
-57.3509
-53.5768
-50.0753
-113.135
-113.262
-113.47
-113.694
-113.926
-114.163
-114.396
-114.613
-114.798
-114.933
-115
-114.983
-114.871
-114.654
-114.325
-113.874
-113.293
-112.578
-111.721
-110.717
-109.56
-108.247
-106.776
-105.147
-103.362
-101.42
-99.3259
-97.0827
-94.6945
-92.1675
-89.5024
-86.7033
-83.7791
-80.7399
-77.5977
-74.362
-71.044
-67.6518
-64.1971
-60.6885
-57.1359
-53.5271
-50.2033
-108.312
-108.432
-108.623
-108.829
-109.045
-109.266
-109.486
-109.692
-109.873
-110.012
-110.091
-110.097
-110.02
-109.85
-109.577
-109.196
-108.699
-108.08
-107.331
-106.447
-105.425
-104.259
-102.947
-101.488
-99.8806
-98.1265
-96.2272
-94.1847
-92.0026
-89.6848
-87.2323
-84.6483
-81.9378
-79.109
-76.1732
-73.1391
-70.0163
-66.8131
-63.5395
-60.2027
-56.8137
-53.3603
-50.2014
-103.922
-104.035
-104.21
-104.401
-104.6
-104.806
-105.012
-105.207
-105.381
-105.52
-105.608
-105.632
-105.582
-105.447
-105.221
-104.897
-104.468
-103.928
-103.269
-102.489
-101.58
-100.538
-99.3617
-98.0488
-96.5968
-95.0057
-93.276
-91.4099
-89.41
-87.2781
-85.016
-82.6252
-80.1089
-77.4728
-74.7269
-71.88
-68.9384
-65.9138
-62.8113
-59.6423
-56.416
-53.12
-50.1399
-99.9186
-100.024
-100.185
-100.361
-100.546
-100.738
-100.93
-101.114
-101.28
-101.416
-101.508
-101.544
-101.513
-101.408
-101.22
-100.943
-100.569
-100.095
-99.5125
-98.8167
-98.0037
-97.0692
-96.0088
-94.8207
-93.5021
-92.0535
-90.4727
-88.7627
-86.9231
-84.9565
-82.8644
-80.6474
-78.3068
-75.8467
-73.2752
-70.6001
-67.828
-64.9675
-62.0252
-59.0089
-55.9271
-52.7639
-49.8761
-96.2599
-96.3583
-96.5061
-96.6681
-96.8395
-97.0176
-97.1965
-97.3696
-97.5271
-97.6581
-97.7515
-97.7957
-97.7803
-97.6968
-97.5382
-97.2984
-96.9716
-96.5512
-96.0329
-95.4109
-94.6795
-93.8351
-92.8742
-91.7941
-90.5916
-89.2665
-87.8162
-86.2429
-84.5459
-82.7264
-80.7864
-78.7249
-76.5426
-74.2426
-71.8311
-69.3134
-66.6986
-63.9908
-61.1986
-58.3269
-55.3868
-52.3585
-49.6208
-92.9077
-92.9995
-93.1354
-93.2849
-93.4434
-93.6084
-93.7747
-93.9358
-94.0841
-94.2102
-94.3029
-94.3507
-94.3458
-94.2802
-94.1455
-93.9364
-93.6479
-93.2735
-92.8082
-92.2477
-91.5867
-90.8202
-89.9449
-88.958
-87.8565
-86.6392
-85.3041
-83.8509
-82.2799
-80.591
-78.7862
-76.8643
-74.8256
-72.6706
-70.4047
-68.0324
-65.5616
-62.9956
-60.3423
-57.6038
-54.7899
-51.8741
-49.187
-89.8328
-89.9176
-90.0421
-90.1797
-90.3261
-90.4788
-90.6331
-90.7828
-90.921
-91.0397
-91.1295
-91.1805
-91.1835
-91.1305
-91.0151
-90.8318
-90.5748
-90.2387
-89.8183
-89.3094
-88.7071
-88.0076
-87.2069
-86.301
-85.2878
-84.1646
-82.9299
-81.583
-80.1241
-78.5514
-76.8674
-75.0703
-73.1605
-71.1378
-69.0046
-66.766
-64.4278
-61.9938
-59.4696
-56.8579
-54.1658
-51.3663
-48.7642
-87.0051
-87.0831
-87.1974
-87.3239
-87.4587
-87.5996
-87.742
-87.8808
-88.0103
-88.1219
-88.2074
-88.2584
-88.2661
-88.2228
-88.1225
-87.9595
-87.7279
-87.4235
-87.0421
-86.5781
-86.0267
-85.3842
-84.6467
-83.8112
-82.8748
-81.8343
-80.6883
-79.4353
-78.0753
-76.6069
-75.0306
-73.3458
-71.5524
-69.6491
-67.6374
-65.521
-63.3058
-60.9942
-58.5921
-56.1021
-53.5312
-50.8574
-48.344
-84.399
-84.4688
-84.5739
-84.6904
-84.8148
-84.945
-85.0768
-85.205
-85.3243
-85.4287
-85.5101
-85.5599
-85.5701
-85.5337
-85.4449
-85.2986
-85.0894
-84.8121
-84.462
-84.0355
-83.5279
-82.9354
-82.2534
-81.4785
-80.6087
-79.641
-78.5732
-77.4039
-76.1315
-74.7556
-73.2759
-71.692
-70.0033
-68.2082
-66.3077
-64.3034
-62.201
-60.0031
-57.7149
-55.3394
-52.8837
-50.3312
-47.9054
-81.9979
-82.0574
-82.1534
-82.2604
-82.3748
-82.4941
-82.615
-82.7331
-82.8432
-82.9397
-83.0153
-83.0624
-83.0739
-83.0432
-82.9638
-82.8302
-82.6381
-82.3836
-82.0615
-81.6672
-81.1966
-80.6463
-80.0128
-79.2923
-78.4812
-77.5774
-76.578
-75.4822
-74.2884
-72.9956
-71.6025
-70.109
-68.5145
-66.8174
-65.0176
-63.1163
-61.1177
-59.024
-56.8403
-54.5684
-52.2142
-49.7595
-47.3766
-79.7735
-79.8234
-79.9114
-80.0098
-80.1152
-80.2252
-80.3366
-80.4454
-80.5469
-80.6353
-80.7053
-80.7494
-80.7607
-80.7324
-80.6597
-80.5372
-80.36
-80.124
-79.8247
-79.4586
-79.0212
-78.5085
-77.9164
-77.2418
-76.4822
-75.6349
-74.6965
-73.6662
-72.542
-71.3232
-70.0076
-68.596
-67.0864
-65.4782
-63.7701
-61.9627
-60.0591
-58.0619
-55.9747
-53.7998
-51.5421
-49.1885
-46.8719
-77.711
-77.7533
-77.8341
-77.9245
-78.0211
-78.122
-78.2239
-78.3232
-78.4158
-78.4968
-78.5608
-78.6014
-78.6119
-78.5865
-78.5192
-78.4053
-78.2401
-78.0201
-77.7405
-77.3973
-76.9871
-76.5061
-75.9508
-75.3178
-74.6035
-73.8058
-72.922
-71.9504
-70.888
-69.7354
-68.4898
-67.1514
-65.7187
-64.191
-62.5661
-60.8449
-59.0285
-57.1202
-55.1221
-53.037
-50.8676
-48.6038
-46.3589
-75.7965
-75.8326
-75.9067
-75.9898
-76.0783
-76.1705
-76.2637
-76.3545
-76.4391
-76.5128
-76.5705
-76.6066
-76.6149
-76.5895
-76.5256
-76.4183
-76.2633
-76.0563
-75.7936
-75.4715
-75.0858
-74.6327
-74.1092
-73.5121
-72.8379
-72.0842
-71.2479
-70.3278
-69.3214
-68.2277
-67.0449
-65.773
-64.41
-62.9549
-61.4063
-59.7636
-58.0275
-56.2015
-54.2865
-52.2848
-50.1997
-48.0246
-45.9232
-74.0162
-74.0475
-74.1151
-74.191
-74.2719
-74.356
-74.4408
-74.5235
-74.6
-74.6663
-74.7181
-74.7498
-74.7556
-74.7305
-74.6693
-74.5672
-74.4199
-74.2238
-73.975
-73.6699
-73.3052
-72.8769
-72.3811
-71.8152
-71.1763
-70.4616
-69.6685
-68.7948
-67.8384
-66.7981
-65.6719
-64.4595
-63.1592
-61.7704
-60.2909
-58.72
-57.0578
-55.3076
-53.4701
-51.5483
-49.5458
-47.4554
-45.5057
-72.3605
-72.3877
-72.4489
-72.518
-72.5916
-72.6681
-72.7449
-72.8192
-72.8879
-72.9472
-72.9927
-73.0197
-73.0224
-72.9961
-72.936
-72.8376
-72.6966
-72.5097
-72.2731
-71.9831
-71.6359
-71.2286
-70.7579
-70.2203
-69.613
-68.9325
-68.1771
-67.3449
-66.4332
-65.4405
-64.3654
-63.2073
-61.9641
-60.6353
-59.219
-57.7137
-56.1192
-54.438
-52.671
-50.8201
-48.8861
-46.8519
-44.9217
-70.8162
-70.8395
-70.8949
-70.9576
-71.0245
-71.0938
-71.1634
-71.2301
-71.2912
-71.3436
-71.3831
-71.4048
-71.4045
-71.3771
-71.3174
-71.2215
-71.0859
-70.9066
-70.6802
-70.4027
-70.0712
-69.6825
-69.2327
-68.7197
-68.1401
-67.4906
-66.7694
-65.974
-65.1022
-64.1529
-63.124
-62.0145
-60.8232
-59.5489
-58.1897
-56.7446
-55.2122
-53.5946
-51.8925
-50.1069
-48.2391
-46.2699
-44.3792
-69.3767
-69.3965
-69.4464
-69.5031
-69.5635
-69.6259
-69.6882
-69.7476
-69.8016
-69.8473
-69.8806
-69.8973
-69.8929
-69.8631
-69.8035
-69.7094
-69.5776
-69.4042
-69.1859
-68.9198
-68.602
-68.2292
-67.7986
-67.3072
-66.7519
-66.1301
-65.4392
-64.6771
-63.8416
-62.9309
-61.9437
-60.8786
-59.7343
-58.5095
-57.2028
-55.8125
-54.3374
-52.7787
-51.1374
-49.4138
-47.6115
-45.7132
-43.885
-68.0307
-68.0469
-68.0912
-68.1421
-68.1964
-68.2521
-68.3076
-68.3603
-68.4077
-68.4466
-68.4738
-68.4857
-68.4777
-68.4453
-68.3843
-68.2912
-68.1623
-67.9943
-67.7834
-67.5264
-67.2201
-66.8615
-66.4475
-65.9754
-65.4421
-64.8445
-64.1811
-63.4489
-62.6462
-61.771
-60.8215
-59.7967
-58.6951
-57.5154
-56.2566
-54.9166
-53.4943
-51.9902
-50.4048
-48.7394
-46.9969
-45.1632
-43.395
-66.771
-66.7844
-66.8238
-66.8694
-66.9178
-66.9675
-67.0162
-67.0621
-67.1028
-67.1356
-67.1572
-67.1641
-67.152
-67.117
-67.0556
-66.9633
-66.8366
-66.672
-66.4666
-66.2175
-65.9213
-65.5751
-65.1758
-64.7208
-64.2071
-63.6316
-62.9922
-62.2868
-61.5131
-60.6692
-59.754
-58.7659
-57.7033
-56.5651
-55.35
-54.056
-52.6821
-51.2277
-49.694
-48.0808
-46.3899
-44.6056
-42.8699
-65.5884
-65.5988
-65.6338
-65.6746
-65.7178
-65.7618
-65.805
-65.8449
-65.8792
-65.9059
-65.922
-65.9237
-65.9074
-65.8696
-65.8059
-65.7128
-65.5876
-65.4266
-65.2266
-64.9844
-64.6971
-64.3619
-63.9755
-63.5352
-63.0383
-62.4825
-61.8653
-61.1844
-60.4376
-59.6231
-58.7388
-57.784
-56.7567
-55.6566
-54.4812
-53.2298
-51.9003
-50.4919
-49.006
-47.442
-45.8023
-44.0725
-42.3825
-64.4805
-64.4882
-64.5188
-64.5548
-64.593
-64.6313
-64.6683
-64.7023
-64.7311
-64.7521
-64.7625
-64.7594
-64.7393
-64.6982
-64.633
-64.5399
-64.4152
-64.2562
-64.0601
-63.8236
-63.5436
-63.2178
-62.8429
-62.4164
-61.9355
-61.3974
-60.7996
-60.14
-59.4172
-58.6288
-57.7728
-56.8481
-55.8535
-54.7878
-53.6492
-52.4365
-51.1481
-49.7826
-48.3411
-46.8227
-45.2294
-43.5485
-41.9012
-63.443
-63.4475
-63.4736
-63.5046
-63.5372
-63.5702
-63.6016
-63.6296
-63.6522
-63.6674
-63.6724
-63.6642
-63.6398
-63.5954
-63.528
-63.4339
-63.3099
-63.153
-62.96
-62.7286
-62.4555
-62.1374
-61.7723
-61.3574
-60.8901
-60.3677
-59.788
-59.1487
-58.4474
-57.6827
-56.8527
-55.9563
-54.9912
-53.9571
-52.8523
-51.6752
-50.4246
-49.099
-47.6986
-46.2229
-44.6732
-43.0389
-41.4621
-62.4613
-62.4637
-62.4864
-62.5135
-62.5418
-62.5697
-62.596
-62.6188
-62.6363
-62.6464
-62.6465
-62.6338
-62.6053
-62.5576
-62.4876
-62.3922
-62.268
-62.1126
-61.9224
-61.6946
-61.4266
-61.1162
-60.7601
-60.3559
-59.9011
-59.3933
-58.8295
-58.2078
-57.5267
-56.7838
-55.9769
-55.1054
-54.1678
-53.1627
-52.0889
-50.9447
-49.729
-48.4403
-47.0788
-45.6442
-44.1394
-42.5544
-41.0602
-61.538
-61.5381
-61.5574
-61.5804
-61.6045
-61.6279
-61.6494
-61.6672
-61.6794
-61.6839
-61.6786
-61.6615
-61.6291
-61.5783
-61.5059
-61.409
-61.2845
-61.1294
-60.9411
-60.7172
-60.4546
-60.1505
-59.8023
-59.4076
-58.9637
-58.4681
-57.9188
-57.3133
-56.6498
-55.9266
-55.1417
-54.2937
-53.3809
-52.4024
-51.3573
-50.2432
-49.0597
-47.8046
-46.4783
-45.0796
-43.6103