/*--------------------------------*- C++ -*----------------------------------*\
| =========                 |                                                 |
| \\      /  F ield         | OpenFOAM: The Open Source CFD Toolbox           |
|  \\    /   O peration     | Version:  2.3.0                                 |
|   \\  /    A nd           | Web:      www.OpenFOAM.org                      |
|    \\/     M anipulation  |                                                 |
\*---------------------------------------------------------------------------*/
FoamFile
{
    version     2.0;
    format      ascii;
    class       volVectorField;
    location    "1000";
    object      U;
}
// * * * * * * * * * * * * * * * * * * * * * * * * * * * * * * * * * * * * * //

dimensions      [0 1 -1 0 0 0 0];

internalField   nonuniform List<vector> 
37496
(
(24.4902 7.60696 1.24274e-21)
(24.5271 7.79897 -1.68686e-21)
(24.562 7.99625 2.38336e-21)
(24.5951 8.19906 8.70208e-21)
(24.6265 8.40758 5.05571e-21)
(24.6564 8.62213 -8.68428e-21)
(24.6845 8.84303 -1.31704e-20)
(24.7107 9.0706 5.46666e-20)
(24.7348 9.30526 -8.5894e-20)
(24.7564 9.54737 1.67244e-19)
(24.7752 9.79748 -1.05649e-19)
(24.7909 10.0561 1.18376e-19)
(24.8031 10.324 1.21553e-20)
(24.8113 10.6018 -1.29445e-19)
(24.8153 10.8903 0)
(24.8147 11.1906 -1.67727e-19)
(24.8088 11.5035 3.50014e-19)
(24.7972 11.8305 -1.82756e-19)
(24.7791 12.1728 0)
(24.7537 12.532 -2.11862e-19)
(24.7202 12.91 -2.73124e-20)
(24.6776 13.3088 2.51312e-19)
(24.6245 13.7308 2.64934e-19)
(24.56 14.1782 -3.08839e-19)
(24.4822 14.6538 0)
(24.3893 15.1601 0)
(24.2785 15.6999 3.87512e-19)
(24.1464 16.2754 -3.81068e-19)
(23.9885 16.8884 3.1094e-20)
(23.7982 17.5394 0)
(23.5657 18.2275 -2.86538e-19)
(23.2783 18.9497 -1.034e-20)
(22.9185 19.6997 3.24434e-19)
(22.4619 20.4672 -3.25748e-19)
(21.8773 21.2356 3.39405e-19)
(21.1257 21.9846 2.22915e-20)
(20.1603 22.6867 -2.50167e-20)
(18.9238 23.3062 1.00018e-19)
(17.3471 23.7832 -1.29363e-19)
(15.3518 24.042 -1.35789e-20)
(12.8531 24.0779 9.92121e-20)
(9.76378 23.9483 -1.04441e-19)
(6.13995 23.1589 5.23119e-20)
(24.2844 7.63659 -1.77357e-21)
(24.3061 7.82115 7.15452e-21)
(24.3251 8.00161 1.40455e-21)
(24.3414 8.18694 -3.93933e-21)
(24.3554 8.37692 2.39167e-21)
(24.367 8.57191 8.81176e-21)
(24.3762 8.77212 0)
(24.3828 8.9778 0)
(24.3865 9.1892 -2.88614e-20)
(24.3869 9.40663 2.0427e-20)
(24.3837 9.6304 1.01395e-20)
(24.3764 9.86086 6.24429e-21)
(24.3645 10.0984 0)
(24.3475 10.3435 -8.3373e-20)
(24.3249 10.5966 1.91226e-19)
(24.2961 10.8581 -9.02851e-20)
(24.2605 11.1286 -5.3511e-21)
(24.2173 11.4086 -1.22424e-19)
(24.1655 11.6986 2.67737e-19)
(24.1039 11.9992 -1.46718e-19)
(24.0313 12.3112 -1.48706e-19)
(23.9458 12.6351 3.36473e-19)
(23.8457 12.9719 -1.76073e-19)
(23.7286 13.3226 -1.84099e-19)
(23.5922 13.6882 1.94168e-19)
(23.4335 14.0698 0)
(23.249 14.4687 0)
(23.0352 14.886 -1.1271e-20)
(22.7875 15.3229 -1.09157e-20)
(22.501 15.7797 0)
(22.1696 16.2562 -6.19704e-21)
(21.7864 16.7511 6.22183e-21)
(21.3439 17.2611 0)
(20.8338 17.7801 0)
(20.2469 18.2981 5.18887e-21)
(19.5744 18.8 0)
(18.8083 19.2651 0)
(17.9427 19.6642 8.85011e-22)
(16.976 19.9578 0)
(15.9188 20.0976 1.02611e-20)
(14.7989 20.0252 -3.31428e-21)
(13.6483 19.6605 -1.51728e-20)
(12.4889 18.9073 2.45913e-19)
(24.1014 7.66396 0)
(24.1118 7.82967 -5.39412e-21)
(24.1193 7.99459 -2.2477e-21)
(24.1239 8.16386 -1.40177e-21)
(24.1259 8.33711 -2.97915e-21)
(24.1253 8.51453 1.5987e-21)
(24.1219 8.69637 -1.0201e-21)
(24.1155 8.88278 0)
(24.1059 9.07396 3.67478e-21)
(24.0928 9.27019 4.55119e-21)
(24.0757 9.47163 0)
(24.0541 9.67861 -4.31475e-21)
(24.0276 9.89139 -4.3399e-20)
(23.9956 10.1104 -1.39038e-20)
(23.9576 10.3359 4.64109e-20)
(23.9129 10.5683 4.79042e-20)
(23.8611 10.8081 -5.25159e-20)
(23.8014 11.0556 -8.64968e-21)
(23.7332 11.3113 0)
(23.6554 11.5754 8.67813e-20)
(23.567 11.8483 -8.08434e-20)
(23.4668 12.1302 -9.42443e-20)
(23.353 12.4211 5.59149e-22)
(23.2237 12.7212 9.7217e-20)
(23.0766 13.0303 -4.24615e-20)
(22.9094 13.3485 5.33298e-20)
(22.7188 13.6751 5.52257e-20)
(22.5016 14.0096 1.05616e-20)
(22.2541 14.3509 -1.13424e-19)
(21.9719 14.6974 1.0822e-19)
(21.6502 15.0467 -1.02306e-19)
(21.2838 15.3956 5.04037e-20)
(20.8669 15.7392 4.06149e-20)
(20.3939 16.0713 -4.18126e-20)
(19.8591 16.3836 3.02385e-21)
(19.2578 16.6655 -8.46021e-21)
(18.5869 16.9033 3.49153e-21)
(17.8462 17.0807 -6.29325e-21)
(17.0399 17.1791 0)
(16.179 17.1789 -5.12665e-21)
(15.2834 17.0609 -1.3779e-20)
(14.385 16.8063 3.21474e-20)
(13.5348 16.4031 -2.12649e-20)
(23.9371 7.66799 -6.21576e-21)
(23.9374 7.82585 1.35647e-20)
(23.9361 7.9768 0)
(23.9319 8.13129 0)
(23.925 8.28902 2.82505e-21)
(23.9153 8.45034 0)
(23.9027 8.61539 1.362e-21)
(23.887 8.78439 -7.40418e-21)
(23.8681 8.95748 7.32271e-21)
(23.8455 9.13487 2.67328e-21)
(23.819 9.31664 -2.22032e-21)
(23.7881 9.50306 -4.15978e-21)
(23.7521 9.69425 1.62826e-21)
(23.7106 9.89053 9.64978e-21)
(23.663 10.0921 -5.83224e-21)
(23.6086 10.2991 0)
(23.5466 10.512 -1.16535e-20)
(23.4766 10.7311 1.42932e-20)
(23.3976 10.9567 -5.3353e-22)
(23.3089 11.1889 1.54794e-20)
(23.2096 11.4281 -3.37479e-20)
(23.0988 11.6743 2.15359e-20)
(22.975 11.9276 -3.23955e-21)
(22.8366 12.1877 8.38336e-22)
(22.6818 12.4544 0)
(22.5085 12.7272 0)
(22.3143 13.0055 0)
(22.0967 13.2883 -5.56759e-23)
(21.853 13.5744 0)
(21.58 13.8617 4.0841e-21)
(21.2745 14.1477 0)
(20.9335 14.4293 -2.85302e-21)
(20.5537 14.702 4.46544e-21)
(20.1323 14.9602 -6.4641e-21)
(19.6669 15.1963 -8.49983e-21)
(19.1563 15.4023 2.01148e-20)
(18.6011 15.5675 -5.17562e-20)
(18.0039 15.6803 1.56002e-20)
(17.3711 15.7279 1.28525e-20)
(16.7132 15.6979 -2.27581e-20)
(16.0452 15.5794 -6.99255e-21)
(15.3876 15.3652 1.9005e-20)
(14.7658 15.0561 0)
(23.7888 7.67695 -1.29919e-20)
(23.7823 7.81592 -1.21824e-20)
(23.7745 7.95317 0)
(23.7642 8.09376 0)
(23.7511 8.23737 1.25214e-20)
(23.7352 8.38412 -1.23757e-20)
(23.7164 8.53422 6.61356e-21)
(23.6945 8.68783 1.5525e-20)
(23.6694 8.8451 -9.27919e-21)
(23.6408 9.00615 -1.50436e-20)
(23.6084 9.17114 1.49252e-20)
(23.5718 9.34017 0)
(23.5304 9.51332 -1.11324e-21)
(23.4837 9.69088 0)
(23.4311 9.87294 0)
(23.3721 10.0596 -8.39109e-21)
(23.3059 10.2511 6.91296e-21)
(23.2315 10.4476 1.58206e-21)
(23.1485 10.6494 -9.9771e-22)
(23.056 10.8567 4.72587e-21)
(22.9532 11.0696 -5.6617e-21)
(22.8393 11.2882 0)
(22.7134 11.5124 -8.68493e-22)
(22.574 11.7418 5.11625e-21)
(22.4197 11.9761 -1.37167e-20)
(22.2488 12.2145 1.02479e-20)
(22.0587 12.4562 2.87058e-21)
(21.8477 12.7001 5.66409e-23)
(21.6134 12.9448 -2.26658e-20)
(21.3531 13.1879 -6.23095e-21)
(21.0641 13.4272 5.31474e-21)
(20.7442 13.6595 5.15604e-20)
(20.391 13.881 -5.21136e-20)
(20.0031 14.0869 1.00099e-20)
(19.5793 14.271 4.92449e-20)
(19.1198 14.4266 4.65082e-20)
(18.6259 14.5457 -5.06858e-20)
(18.1013 14.6198 -4.57303e-20)
(17.5521 14.6406 2.34384e-20)
(16.9876 14.6 1.42347e-20)
(16.4202 14.4919 -3.70011e-20)
(15.8653 14.3136 0)
(15.3399 14.0677 9.92058e-20)
(23.6561 7.67535 -5.46865e-21)
(23.645 7.80051 4.10578e-21)
(23.6324 7.92539 -1.51497e-20)
(23.6175 8.05351 4.64548e-21)
(23.6001 8.18443 0)
(23.5799 8.3183 0)
(23.5569 8.45519 -2.17813e-20)
(23.5307 8.59528 8.76177e-21)
(23.5016 8.73875 2.15452e-20)
(23.469 8.88561 -5.94909e-22)
(23.4328 9.03616 -1.27158e-20)
(23.3926 9.1904 0)
(23.3479 9.34829 0)
(23.298 9.51009 0)
(23.2426 9.676 0)
(23.1813 9.84604 -1.4819e-21)
(23.1132 10.0201 -3.21994e-21)
(23.0371 10.1983 1.61663e-21)
(22.9524 10.3809 2.11726e-20)
(22.8586 10.5682 -1.98257e-20)
(22.7547 10.76 -2.25435e-20)
(22.6399 10.9566 2.10117e-20)
(22.5135 11.1577 0)
(22.3746 11.3633 4.06114e-21)
(22.2222 11.573 -3.2595e-20)
(22.055 11.7858 5.80236e-20)
(21.8706 12.0007 -3.53842e-20)
(21.6672 12.2169 2.07657e-20)
(21.4435 12.4328 -2.82201e-20)
(21.1971 12.6459 0)
(20.9256 12.854 6.09783e-21)
(20.627 13.0542 -7.41998e-21)
(20.2998 13.2431 -5.56249e-20)
(19.9427 13.4166 3.70409e-20)
(19.5562 13.5698 -4.93437e-20)
(19.1405 13.6965 -4.0421e-20)
(18.6974 13.7904 5.90674e-20)
(18.2302 13.8445 2.30648e-20)
(17.7443 13.8533 3.01923e-20)
(17.248 13.8109 0)
(16.7508 13.7131 3.57955e-20)
(16.2645 13.5586 4.13707e-20)
(15.8014 13.3498 0)
(23.537 7.6663 -1.87252e-20)
(23.5233 7.78076 -5.89534e-21)
(23.5073 7.89492 1.05152e-20)
(23.4892 8.01204 -5.38789e-21)
(23.4688 8.13193 1.57188e-20)
(23.4457 8.25458 -1.02704e-20)
(23.42 8.37999 -1.06749e-20)
(23.391 8.5083 1.03337e-20)
(23.3593 8.6399 -8.08477e-21)
(23.3242 8.77446 0)
(23.2854 8.91253 -4.77244e-21)
(23.2432 9.05429 0)
(23.1969 9.19947 1.61678e-20)
(23.1454 9.34805 -1.61535e-20)
(23.0884 9.50048 0)
(23.0261 9.65693 3.28431e-21)
(22.9578 9.81704 3.26245e-21)
(22.882 9.98056 -3.26696e-21)
(22.7976 10.1478 4.69816e-21)
(22.7043 10.3192 4.82612e-21)
(22.6014 10.4944 3.8235e-20)
(22.4878 10.6733 -4.05137e-20)
(22.3627 10.8561 0)
(22.2254 11.0424 -1.90401e-20)
(22.075 11.2323 3.1411e-21)
(21.912 11.4254 4.7701e-20)
(21.7334 11.6196 1.99858e-21)
(21.5366 11.8144 -3.61579e-20)
(21.3221 12.009 6.97366e-21)
(21.0877 12.2003 2.84901e-20)
(20.8304 12.3855 4.29706e-21)
(20.549 12.5628 1.80674e-20)
(20.2425 12.7289 -5.18842e-20)
(19.908 12.88 -1.67764e-20)
(19.5489 13.0127 1.67261e-20)
(19.1652 13.1206 1.94576e-20)
(18.7589 13.1987 0)
(18.3322 13.2408 -1.4457e-20)
(17.8891 13.2432 -1.94481e-20)
(17.4381 13.2016 4.21272e-21)
(16.9868 13.1126 2.71436e-21)
(16.5453 12.9753 3.95268e-21)
(16.1233 12.7914 -4.72257e-20)
(23.4298 7.65273 1.91246e-20)
(23.4148 7.75885 -1.36114e-20)
(23.3969 7.8635 -6.79648e-21)
(23.3767 7.97067 -6.62257e-21)
(23.3545 8.08096 1.20727e-20)
(23.3291 8.19376 -1.8623e-22)
(23.302 8.30953 -1.23485e-20)
(23.2711 8.42751 9.40842e-22)
(23.238 8.54903 -5.87812e-21)
(23.2016 8.67314 -2.13181e-20)
(23.1611 8.80013 2.59987e-20)
(23.1173 8.93122 -2.06939e-20)
(23.0702 9.06584 2.06441e-20)
(23.0187 9.20357 0)
(22.9608 9.34432 2.0336e-20)
(22.8978 9.48933 -2.595e-20)
(22.8297 9.63812 0)
(22.7552 9.79012 -5.72638e-21)
(22.6721 9.94492 1.68511e-20)
(22.5802 10.1036 -2.67258e-20)
(22.479 10.2657 -2.31508e-20)
(22.3679 10.4308 4.649e-20)
(22.2452 10.599 -2.462e-20)
(22.1116 10.7698 -5.89482e-21)
(21.9625 10.9429 0)
(21.8028 11.1202 -8.19411e-21)
(21.6307 11.2991 0)
(21.439 11.4763 5.59201e-20)
(21.2317 11.6548 3.04042e-21)
(21.0081 11.8298 -4.4569e-20)
(20.7643 11.9981 0)
(20.4962 12.158 1.62813e-21)
(20.2089 12.3091 -4.96087e-20)
(19.8914 12.4432 5.06892e-20)
(19.5536 12.5628 -2.14791e-20)
(19.1942 12.6589 1.94569e-20)
(18.8163 12.7274 -1.93534e-21)
(18.4219 12.7612 -1.52237e-20)
(18.0104 12.7588 -1.77604e-20)
(17.5925 12.7188 4.67299e-20)
(17.1745 12.6372 -9.73502e-21)
(16.7654 12.5137 -4.51444e-20)
(16.3729 12.3485 4.92642e-20)
(23.3307 7.63139 -7.32815e-21)
(23.3167 7.73587 7.00641e-21)
(23.2986 7.83375 6.81003e-21)
(23.2775 7.93105 6.48844e-21)
(23.2549 8.03203 7.29617e-21)
(23.227 8.13508 1.36461e-20)
(23.1999 8.2445 -2.70558e-20)
(23.1679 8.35407 7.15927e-21)
(23.1342 8.46698 1.89026e-20)
(23.0989 8.58339 0)
(23.0579 8.70049 0)
(23.0127 8.82214 -6.54321e-21)
(22.9644 8.94701 -2.39853e-20)
(22.9143 9.07697 2.40192e-20)
(22.8571 9.20802 -3.06268e-20)
(22.7942 9.34347 2.98967e-20)
(22.7261 9.4817 0)
(22.6539 9.6257 -1.0033e-21)
(22.5732 9.77046 2.56821e-20)
(22.4836 9.91896 -2.59314e-20)
(22.3841 10.0704 7.33776e-21)
(22.2772 10.2253 -1.1975e-21)
(22.1556 10.3816 -7.99436e-21)
(22.0303 10.5425 -4.07276e-20)
(21.8846 10.7009 3.28987e-20)
(21.7249 10.8621 -2.81742e-20)
(21.5592 11.0303 2.58916e-20)
(21.3706 11.1906 -2.106e-20)
(21.1672 11.357 -1.22049e-20)
(20.9514 11.5204 1.18727e-20)
(20.7262 11.6788 -1.51823e-20)
(20.4652 11.8202 1.47032e-21)
(20.195 11.9641 -3.43302e-20)
(19.8911 12.0823 -3.99326e-20)
(19.5725 12.1939 -2.44633e-20)
(19.2308 12.2816 -1.93414e-21)
(18.8676 12.3442 -2.88926e-20)
(18.497 12.3723 2.87476e-20)
(18.1067 12.3642 3.32118e-20)
(17.7132 12.3257 -3.72813e-20)
(17.3225 12.2509 2.04077e-20)
(16.9432 12.1391 6.67833e-20)
(16.5738 11.988 6.0551e-22)
(2.83493 20.4683 0)
(3.10122 17.9534 -6.42242e-19)
(3.69034 16.1128 6.2777e-19)
(4.34429 14.6911 -1.59989e-18)
(5.00112 13.5545 1.60485e-18)
(5.64095 12.6168 -1.72135e-18)
(6.24984 11.8316 1.75828e-18)
(6.82184 11.1676 -1.81301e-18)
(7.35431 10.6004 1.65801e-18)
(7.84751 10.111 -1.71112e-18)
(8.30289 9.6853 1.76295e-18)
(8.72196 9.31097 -1.56959e-18)
(9.10765 8.97874 1.61417e-18)
(9.46277 8.6819 4.77429e-20)
(9.78964 8.41366 1.48024e-18)
(10.0914 8.1699 -4.35581e-18)
(10.3702 7.94656 2.77713e-18)
(10.6287 7.7405 -8.29145e-20)
(10.869 7.54916 2.56298e-18)
(11.0932 7.3704 -5.11433e-18)
(11.303 7.2025 2.40887e-18)
(11.5001 7.04392 -2.33301e-18)
(11.6861 6.89354 2.351e-18)
(11.8619 6.75007 -6.89944e-20)
(12.0289 6.61282 2.1127e-18)
(12.1879 6.48101 -7.5914e-20)
(12.3398 6.35393 -2.12705e-18)
(12.4853 6.23107 -1.9619e-18)
(12.6249 6.11189 2.08926e-18)
(12.7593 5.99607 0)
(12.8887 5.88325 -3.16793e-21)
(13.0135 5.77311 2.59155e-19)
(13.1342 5.66547 0)
(13.251 5.5601 -1.28561e-19)
(13.3643 5.45684 9.05653e-19)
(13.4744 5.35552 -7.8204e-19)
(13.5814 5.256 -2.64332e-19)
(13.6856 5.15806 -7.84019e-19)
(13.7872 5.06151 4.39648e-21)
(13.8862 4.96624 1.84295e-18)
(13.9825 4.87213 -7.88508e-19)
(14.076 4.7799 0)
(14.1684 4.68108 3.85466e-22)
(11.3938 17.8039 -2.32571e-19)
(10.6571 16.6024 -7.07194e-19)
(10.2064 15.4895 7.22872e-19)
(9.95907 14.4902 -7.53139e-19)
(9.8513 13.6006 7.93721e-19)
(9.84069 12.8116 1.59531e-18)
(9.89721 12.1137 3.65373e-20)
(9.99921 11.4966 -3.35824e-18)
(10.1317 10.9503 -1.3151e-20)
(10.2835 10.4656 1.62382e-18)
(10.4465 10.0339 -4.91784e-20)
(10.6153 9.64774 -4.80388e-20)
(10.786 9.30058 -9.14343e-20)
(10.9556 8.98679 -2.0579e-21)
(11.1227 8.70159 -1.41676e-18)
(11.286 8.44073 2.78443e-18)
(11.445 8.2008 -1.31968e-18)
(11.5994 7.9788 7.95655e-20)
(11.7489 7.77226 -1.22033e-18)
(11.8935 7.57914 2.44218e-18)
(12.0335 7.39774 -2.15674e-18)
(12.1688 7.22659 -6.55876e-20)
(12.2997 7.06446 1.02767e-18)
(12.4265 6.91031 -1.0025e-18)
(12.5493 6.76324 1.12291e-18)
(12.6683 6.62243 1.58188e-21)
(12.7837 6.48729 -6.32476e-20)
(12.8958 6.35718 0)
(13.0045 6.2316 1.24942e-19)
(13.1102 6.1102 0)
(13.2128 5.99258 -2.51447e-19)
(13.3127 5.87844 -1.2698e-19)
(13.4099 5.7675 0)
(13.5047 5.65957 -8.86102e-19)
(13.5972 5.5544 8.96739e-19)
(13.6878 5.45176 0)
(13.7764 5.35143 -9.04052e-19)
(13.8633 5.25316 9.13378e-19)
(13.9484 5.15672 0)
(14.0318 5.06191 0)
(14.1132 4.96861 2.59146e-19)
(14.1925 4.87722 -5.14663e-19)
(14.2702 4.77982 2.46197e-19)
(12.8013 15.8654 -1.80766e-19)
(12.2313 15.2375 2.42303e-19)
(11.8094 14.5686 -6.09266e-19)
(11.5138 13.8967 1.08962e-18)
(11.3216 13.2456 3.94014e-20)
(11.2118 12.6287 3.73573e-20)
(11.1664 12.0526 6.77433e-20)
(11.1705 11.52 -7.04164e-19)
(11.2118 11.0304 -1.37152e-18)
(11.28 10.5821 1.38766e-18)
(11.3675 10.1721 0)
(11.4684 9.79719 8.26457e-20)
(11.5781 9.45379 -1.28104e-18)
(11.6931 9.13886 2.54988e-18)
(11.8111 8.8491 7.23249e-21)
(11.9299 8.58168 -1.23417e-18)
(12.0484 8.33406 7.40753e-20)
(12.1656 8.10397 1.16555e-18)
(12.2808 7.88936 7.14636e-20)
(12.3937 7.68852 -1.03578e-18)
(12.504 7.4999 8.76642e-19)
(12.6117 7.32215 -1.05694e-18)
(12.7167 7.1542 0)
(12.819 6.99495 -1.02035e-18)
(12.9186 6.84349 1.00788e-18)
(13.0158 6.69902 6.32061e-20)
(13.1106 6.56087 -9.23761e-19)
(13.2029 6.42835 -5.8788e-20)
(13.2928 6.30095 8.54719e-19)
(13.3804 6.17829 0)
(13.4659 6.05995 2.44277e-19)
(13.5493 5.94556 9.77191e-19)
(13.6309 5.83483 -1.24363e-19)
(13.7108 5.72747 -2.55694e-21)
(13.7891 5.62321 -8.70705e-19)
(13.8661 5.52181 1.24457e-19)
(13.9418 5.42298 -1.27101e-19)
(14.0163 5.32643 1.28013e-19)
(14.0895 5.2319 0)
(14.1615 5.13922 0)
(14.2322 5.04818 0)
(14.3017 4.95882 -2.53025e-19)
(14.3715 4.86485 2.46479e-19)
(14.2042 14.6634 1.2655e-21)
(13.7193 14.2074 0)
(13.3168 13.7118 3.2418e-20)
(12.9957 13.1991 0)
(12.7495 12.6864 -6.16786e-19)
(12.5686 12.186 1.21904e-20)
(12.4435 11.7058 -6.31358e-20)
(12.3647 11.2506 2.26069e-20)
(12.3232 10.8228 -5.40574e-20)
(12.3111 10.4233 1.27601e-18)
(12.3224 10.0517 -6.50176e-19)
(12.3519 9.70686 -1.61448e-19)
(12.3953 9.38711 -7.84543e-20)
(12.4493 9.09061 -1.34131e-18)
(12.5112 8.81532 2.45952e-18)
(12.579 8.5593 -1.19143e-18)
(12.6509 8.32066 -1.23585e-18)
(12.7255 8.0977 2.25874e-18)
(12.8019 7.88885 -1.2373e-18)
(12.8792 7.69275 -6.78996e-20)
(12.9568 7.50814 1.97694e-19)
(13.0345 7.33396 0)
(13.1119 7.16916 0)
(13.1888 7.01282 -9.97112e-19)
(13.2651 6.86409 9.84762e-19)
(13.3406 6.7222 -9.73249e-19)
(13.4151 6.58644 1.18822e-21)
(13.4883 6.45627 1.02116e-18)
(13.5601 6.33125 -9.5566e-19)
(13.6307 6.21104 1.07408e-18)
(13.7002 6.09523 -1.80404e-21)
(13.7685 5.98348 1.18863e-19)
(13.8358 5.87542 1.08223e-18)
(13.9021 5.77083 -9.68719e-19)
(13.9675 5.66946 -9.73741e-19)
(14.0322 5.57104 8.59927e-19)
(14.0962 5.47523 -4.94879e-19)
(14.1595 5.38175 9.99108e-19)
(14.2218 5.29042 -5.03922e-19)
(14.2833 5.20114 6.32021e-19)
(14.3438 5.11379 -1.01226e-18)
(14.403 5.02866 6.25294e-19)
(14.4607 4.94249 -1.23992e-19)
(14.8589 13.7612 -1.27074e-19)
(14.4317 13.4049 0)
(14.064 13.0126 0)
(13.7572 12.5991 6.7439e-20)
(13.5091 12.177 -5.85142e-19)
(13.3147 11.7568 5.80346e-19)
(13.1678 11.346 -6.2061e-19)
(13.0615 10.9496 6.88225e-19)
(12.989 10.5712 8.01984e-20)
(12.9443 10.213 6.34608e-19)
(12.9226 9.8758 -6.21131e-19)
(12.9195 9.55956 -5.46983e-19)
(12.9316 9.26369 1.30931e-18)
(12.9559 8.98707 -5.99891e-19)
(12.9901 8.72838 0)
(13.0317 8.48622 0)
(13.0791 8.25928 1.05601e-18)
(13.1307 8.04626 -6.1237e-19)
(13.1853 7.84596 -4.00464e-19)
(13.2422 7.65728 -1.04924e-18)
(13.3007 7.47926 -3.26349e-21)
(13.3604 7.311 2.01707e-18)
(13.4209 7.15163 -9.91708e-19)
(13.4821 7.00026 0)
(13.5435 6.85608 0)
(13.6047 6.71836 -1.01563e-18)
(13.6654 6.5865 -5.85937e-20)
(13.7252 6.4601 1.00236e-18)
(13.7841 6.33888 0)
(13.8424 6.22247 3.50959e-19)
(13.9002 6.11046 -5.88129e-19)
(13.9573 6.00239 -1.18504e-19)
(14.0137 5.898 0)
(14.0695 5.79714 -3.5714e-19)
(14.1249 5.69956 3.60318e-19)
(14.18 5.60492 3.62581e-19)
(14.2348 5.51284 -4.8765e-19)
(14.2889 5.42302 -6.13491e-19)
(14.3423 5.33537 4.96015e-19)
(14.395 5.2498 -1.25296e-19)
(14.447 5.16607 0)
(14.498 5.08408 -1.24086e-19)
(14.5486 5.00019 1.21675e-19)
(15.3719 13.092 1.11974e-19)
(14.984 12.7929 -4.14136e-19)
(14.6423 12.462 -1.60474e-20)
(14.349 12.1097 4.66868e-19)
(14.1036 11.7464 -2.73185e-19)
(13.9034 11.3806 -7.18932e-20)
(13.7443 11.0185 6.04944e-19)
(13.6209 10.6648 -6.72682e-19)
(13.5275 10.3237 7.56242e-20)
(13.4595 9.99774 0)
(13.4135 9.68846 0)
(13.3863 9.39658 0)
(13.3751 9.12175 7.43822e-20)
(13.3773 8.86314 1.51026e-21)
(13.3903 8.61989 0)
(13.4118 8.39104 0)
(13.4398 8.17567 6.94423e-20)
(13.473 7.97277 -4.7124e-19)
(13.5103 7.78148 -6.84134e-20)
(13.5507 7.60084 5.79029e-19)
(13.5937 7.43006 -6.38138e-20)
(13.6388 7.26849 0)
(13.6859 7.11535 0)
(13.7344 6.96962 -5.43085e-19)
(13.7836 6.8306 9.54343e-19)
(13.8331 6.69765 -4.71537e-19)
(13.8821 6.57031 7.73046e-22)
(13.9306 6.44844 -5.24691e-19)
(13.9789 6.33177 5.77977e-20)
(14.0271 6.2199 4.63574e-19)
(14.0755 6.11223 0)
(14.1234 6.00825 4.64531e-19)
(14.1708 5.90794 -1.04898e-18)
(14.218 5.81128 2.34729e-19)
(14.2652 5.71789 1.1869e-19)
(14.3125 5.62738 2.38099e-19)
(14.3597 5.53931 0)
(14.4062 5.45338 2.42337e-19)
(14.452 5.36972 0)
(14.4974 5.2882 2.4603e-19)
(14.5425 5.20845 -3.69507e-19)
(14.587 5.13035 -3.66368e-19)
(14.6312 5.05123 3.62121e-19)
(15.7293 12.5658 0)
(15.3709 12.3045 5.81089e-20)
(15.0512 12.0143 0)
(14.7712 11.7031 0)
(14.5312 11.3813 0)
(14.3316 11.0549 7.12194e-20)
(14.169 10.7283 -2.93958e-19)
(14.0372 10.4064 2.16677e-19)
(13.9308 10.0941 -1.18054e-21)
(13.8482 9.79387 0)
(13.7866 9.50756 0)
(13.7443 9.23638 0)
(13.7189 8.97958 -1.46553e-19)
(13.7071 8.7364 7.2468e-20)
(13.7062 8.50659 0)
(13.7139 8.28964 -5.52842e-19)
(13.7284 8.08492 4.70726e-19)
(13.7485 7.89161 -6.56268e-20)
(13.7736 7.70894 0)
(13.8024 7.53595 4.45215e-19)
(13.8342 7.37213 6.34935e-20)
(13.8689 7.21727 -4.29538e-19)
(13.9065 7.07008 6.01364e-20)
(13.9459 6.92977 6.00904e-20)
(13.9861 6.79591 -4.72429e-19)
(14.0264 6.66777 4.68036e-19)
(14.0661 6.54506 -4.05743e-19)
(14.1057 6.42801 9.22473e-19)
(14.1457 6.31617 -5.74274e-19)
(14.1865 6.20894 0)
(14.2278 6.10558 -4.01453e-19)
(14.2684 6.00556 4.59461e-19)
(14.3084 5.90938 1.73152e-19)
(14.3487 5.81701 1.16394e-19)
(14.3896 5.72785 0)
(14.4306 5.64145 -1.18052e-19)
(14.4717 5.55742 0)
(14.5117 5.47544 -1.20069e-19)
(14.5513 5.39591 0)
(14.5907 5.31856 0)
(14.6301 5.24298 1.22253e-19)
(14.6688 5.1692 1.21483e-19)
(14.7071 5.09508 -1.20726e-19)
(16.0031 12.1463 1.10028e-19)
(15.6674 11.9097 -1.10681e-19)
(15.3634 11.6476 -1.24814e-19)
(15.0948 11.3613 6.03844e-20)
(14.8573 11.0714 -6.67232e-20)
(14.6619 10.7759 0)
(14.5016 10.4744 0)
(14.3635 10.1756 7.19779e-20)
(14.2458 9.88824 2.19619e-19)
(14.1555 9.60879 -5.80359e-19)
(14.0832 9.34184 2.87519e-19)
(14.0316 9.08835 -2.90326e-19)
(13.9975 8.84635 7.11833e-19)
(13.9763 8.61524 -2.78212e-19)
(13.9648 8.39668 5.519e-19)
(13.9619 8.19002 -1.01142e-18)
(13.9661 7.99511 5.94128e-19)
(13.9764 7.81052 5.86078e-19)
(13.9928 7.63596 -5.08728e-19)
(14.0129 7.46942 5.01878e-19)
(14.0358 7.31159 -5.53765e-19)
(14.0629 7.16323 -6.09848e-20)
(14.0942 7.02096 -6.01271e-20)
(14.1263 6.88581 0)
(14.1589 6.75715 0)
(14.1916 6.63368 5.81641e-20)
(14.2232 6.51527 0)
(14.2558 6.40322 0)
(14.2898 6.29615 5.71208e-20)
(14.3251 6.19316 -4.5398e-19)
(14.3612 6.09401 3.96739e-19)
(14.3954 5.99746 4.54379e-19)
(14.429 5.90527 -5.13197e-19)
(14.4641 5.81692 0)
(14.4998 5.73174 0)
(14.5355 5.64927 -2.32317e-19)
(14.5722 5.56966 1.43041e-22)
(14.6068 5.49151 4.72684e-19)
(14.6412 5.41592 -4.7677e-19)
(14.6757 5.34254 2.40354e-19)
(14.7104 5.27073 -1.80568e-19)
(14.7441 5.20065 2.40001e-19)
(14.7783 5.12988 -1.20354e-19)
(16.2093 11.8045 5.00543e-20)
(15.8767 11.5781 0)
(15.5779 11.3429 0)
(15.3206 11.0654 2.55504e-19)
(15.0814 10.8081 2.12163e-22)
(14.8957 10.5409 -2.66219e-19)
(14.7405 10.2523 4.68673e-19)
(14.5973 9.96938 6.84157e-21)
(14.4731 9.71356 5.75471e-21)
(14.3855 9.4494 -2.07195e-19)
(14.3041 9.1972 2.86117e-19)
(14.2498 8.95841 -2.80453e-19)
(14.2123 8.72773 2.08478e-19)
(14.1848 8.50462 2.09145e-19)
(14.1658 8.29652 -4.72018e-19)
(14.156 8.09876 1.99806e-19)
(14.1541 7.91504 -2.60229e-19)
(14.1604 7.73685 6.34096e-20)
(14.1722 7.57058 0)
(14.1879 7.40771 0)
(14.2053 7.25392 0)
(14.2282 7.11311 0)
(14.2556 6.97363 5.69397e-20)
(14.2791 6.84504 5.79458e-20)
(14.3057 6.72101 0)
(14.3326 6.60163 0)
(14.3576 6.48616 5.7244e-20)
(14.386 6.37995 0)
(14.4165 6.2766 2.29522e-19)
(14.4479 6.17698 -4.57504e-19)
(14.4794 6.08318 2.26746e-19)
(14.5077 5.98828 0)
(14.5366 5.89935 5.74463e-20)
(14.5682 5.8138 2.31995e-19)
(14.5993 5.73265 -5.13964e-19)
(14.6307 5.65465 2.30029e-19)
(14.664 5.58081 5.94501e-20)
(14.6927 5.50469 0)
(14.7227 5.43172 0)
(14.7529 5.36158 6.03666e-20)
(14.7837 5.29259 1.21773e-19)
(14.8132 5.22499 -2.43188e-19)
(14.8469 5.15491 1.8565e-19)
(16.0795 -3.71229 1.48085e-18)
(15.8144 -3.70163 -5.25784e-19)
(15.5496 -3.68651 0)
(15.2838 -3.66945 0)
(15.0173 -3.6509 5.44892e-19)
(14.75 -3.63101 5.45608e-19)
(14.4822 -3.60984 -5.41224e-19)
(14.2138 -3.58747 8.16299e-19)
(13.9452 -3.56393 0)
(13.6763 -3.53925 0)
(13.4072 -3.51348 8.34241e-19)
(13.1381 -3.48662 -1.1279e-18)
(12.8689 -3.4587 5.70146e-19)
(12.5996 -3.42976 -2.84163e-19)
(12.3303 -3.39978 2.88604e-19)
(12.0611 -3.36883 3.05772e-19)
(11.7918 -3.33687 -6.12359e-19)
(11.5224 -3.30396 4.72201e-19)
(11.2529 -3.27008 -1.13269e-18)
(10.9832 -3.23525 1.16577e-18)
(10.7132 -3.19946 1.70802e-19)
(10.4428 -3.16268 -1.60351e-18)
(10.1719 -3.12492 5.59739e-19)
(9.90015 -3.08611 -1.93178e-19)
(9.62739 -3.04627 -1.01596e-18)
(9.35331 -3.00533 4.37243e-19)
(9.07751 -2.9632 0)
(8.79956 -2.91982 4.84771e-19)
(8.51885 -2.8751 -6.48401e-19)
(8.23471 -2.82891 6.94217e-19)
(7.94626 -2.78103 -6.04885e-19)
(7.65242 -2.73128 1.64559e-19)
(7.35179 -2.67931 -4.51911e-20)
(7.0427 -2.62475 2.50527e-19)
(6.72288 -2.56689 -2.24774e-19)
(6.38941 -2.5048 0)
(6.03852 -2.43721 1.50242e-19)
(5.66531 -2.36154 -2.71279e-18)
(5.26468 -2.27377 3.63576e-18)
(4.83726 -2.16634 -2.41452e-19)
(4.42908 -2.02707 0)
(4.40909 -1.89439 -7.06993e-18)
(6.90573 -2.14068 2.0229e-17)
(16.0105 -3.69532 0)
(15.7665 -3.67898 0)
(15.5235 -3.66379 0)
(15.2797 -3.64857 5.64759e-19)
(15.0351 -3.63249 -5.62536e-19)
(14.7895 -3.61535 -5.449e-19)
(14.5431 -3.59716 5.27269e-20)
(14.2959 -3.5779 -6.33981e-19)
(14.048 -3.5576 2.82512e-19)
(13.7994 -3.53622 -7.90099e-22)
(13.5501 -3.51378 -2.84141e-19)
(13.3001 -3.49025 -8.59746e-19)
(13.0494 -3.46562 5.78053e-19)
(12.7978 -3.43989 0)
(12.5454 -3.41302 0)
(12.292 -3.38501 3.03433e-19)
(12.0375 -3.35584 0)
(11.7818 -3.32551 1.59059e-19)
(11.5248 -3.29401 4.86032e-19)
(11.2663 -3.26129 -5.00456e-19)
(11.0062 -3.22735 -1.74201e-19)
(10.7441 -3.19212 0)
(10.48 -3.15559 3.32151e-22)
(10.2134 -3.1177 -5.85493e-19)
(9.94402 -3.07839 6.14934e-19)
(9.67151 -3.03758 2.17773e-19)
(9.39543 -2.99514 -2.30617e-19)
(9.11516 -2.95097 4.88286e-19)
(8.83004 -2.90488 -3.91108e-19)
(8.53926 -2.85666 0)
(8.24187 -2.80603 0)
(7.93657 -2.75265 7.881e-22)
(7.6219 -2.69603 4.53228e-20)
(7.29598 -2.63552 -5.00376e-20)
(6.95656 -2.57025 -4.46038e-19)
(6.60101 -2.49887 1.00316e-18)
(6.2267 -2.4194 -8.53775e-19)
(5.83328 -2.32877 -1.6452e-18)
(5.43002 -2.22194 1.1587e-18)
(5.06421 -2.09485 -4.17289e-18)
(4.93003 -1.964 9.71936e-18)
(5.7327 -1.99529 3.77316e-19)
(9.54885 -2.66559 -4.59759e-18)
(15.9507 -3.67872 -5.40907e-19)
(15.7228 -3.65928 -2.85694e-19)
(15.4966 -3.64316 -2.90181e-19)
(15.2702 -3.62783 -5.78362e-19)
(15.0428 -3.61216 1.44776e-19)
(14.8142 -3.59574 -1.62535e-19)
(14.5845 -3.57844 1.80379e-20)
(14.3534 -3.5602 4.32437e-19)
(14.1211 -3.54097 -2.87209e-19)
(13.8876 -3.52074 1.44145e-19)
(13.6528 -3.49947 2.91512e-19)
(13.4166 -3.47714 -9.36587e-22)
(13.1791 -3.45374 2.96631e-19)
(12.94 -3.42922 2.99208e-19)
(12.6995 -3.40357 -1.22015e-18)
(12.4572 -3.37673 -4.94159e-22)
(12.2131 -3.3487 0)
(11.9671 -3.31946 -4.8679e-19)
(11.7188 -3.28897 1.50177e-18)
(11.4683 -3.25721 -6.88341e-19)
(11.2151 -3.2241 1.78935e-19)
(10.9591 -3.18961 1.85766e-19)
(10.7001 -3.15366 1.91718e-19)
(10.4375 -3.11618 -2.02394e-19)
(10.1712 -3.07708 2.10427e-19)
(9.90054 -3.03627 4.45962e-19)
(9.62517 -2.99361 -7.09134e-19)
(9.34444 -2.94891 1.00362e-18)
(9.05763 -2.90195 2.69635e-19)
(8.76393 -2.85244 -5.75554e-19)
(8.46228 -2.80003 3.1232e-19)
(8.15142 -2.74428 -3.36494e-19)
(7.82986 -2.68462 1.61219e-19)
(7.49579 -2.62026 -7.60525e-20)
(7.14734 -2.55015 1.10108e-19)
(6.78292 -2.47274 -2.49983e-19)
(6.40292 -2.38568 0)
(6.0148 -2.28577 3.23512e-19)
(5.64829 -2.16944 0)
(5.40229 -2.03891 -3.1721e-18)
(5.58776 -1.93782 3.8046e-18)
(7.01989 -2.07113 -5.97284e-19)
(11.1293 -2.90864 0)
(15.8976 -3.65456 2.81399e-19)
(15.6839 -3.6377 2.91481e-19)
(15.4719 -3.62192 0)
(15.26 -3.60642 0)
(15.0472 -3.59079 2.98571e-19)
(14.8332 -3.5747 1.85865e-20)
(14.6178 -3.55792 -3.53373e-19)
(14.4008 -3.54037 3.7093e-20)
(14.1821 -3.52199 -2.96209e-19)
(13.9618 -3.50274 2.99142e-19)
(13.7398 -3.48254 0)
(13.5159 -3.46135 0)
(13.2901 -3.43914 6.11473e-19)
(13.0623 -3.41589 -1.16474e-21)
(12.8324 -3.39153 0)
(12.6002 -3.36593 3.18435e-19)
(12.3655 -3.33907 3.27556e-19)
(12.128 -3.31094 5.03004e-19)
(11.8876 -3.28151 -8.60412e-19)
(11.644 -3.25073 1.77914e-19)
(11.3971 -3.21852 -1.82737e-19)
(11.1465 -3.18477 -5.70832e-19)
(10.8919 -3.1494 3.96936e-19)
(10.6328 -3.11228 2.06618e-19)
(10.3689 -3.07332 -2.18478e-19)
(10.0996 -3.03246 0)
(9.82455 -2.98957 0)
(9.543 -2.94443 2.58807e-19)
(9.25433 -2.8968 -5.49332e-19)
(8.95765 -2.84629 2.95047e-19)
(8.6519 -2.79253 -4.75537e-19)
(8.33583 -2.73499 -6.62887e-23)
(8.00795 -2.67304 1.64215e-19)
(7.66672 -2.60583 4.39024e-19)
(7.31078 -2.53211 -2.3133e-19)
(6.9401 -2.4502 5.09791e-19)
(6.55878 -2.3576 0)
(6.18332 -2.25141 1.9527e-18)
(5.86425 -2.13034 -2.2595e-18)
(5.74552 -2.00523 8.87467e-19)
(6.20224 -1.94355 0)
(8.04961 -2.15844 1.60328e-18)
(12.2007 -3.06242 -4.44206e-19)
(15.8462 -3.63155 3.05853e-22)
(15.6488 -3.61688 -3.01165e-19)
(15.4512 -3.60197 3.07513e-19)
(15.253 -3.58684 0)
(15.0538 -3.5716 -3.04624e-19)
(14.8532 -3.55608 0)
(14.6509 -3.54 3.03535e-19)
(14.4468 -3.52321 3.80961e-19)
(14.2405 -3.5057 -2.28502e-19)
(14.0322 -3.48747 -1.52114e-19)
(13.8218 -3.46838 3.08015e-19)
(13.609 -3.44828 0)
(13.3938 -3.4272 -6.25091e-19)
(13.1759 -3.40518 -8.9267e-22)
(12.9554 -3.38212 0)
(12.7322 -3.35777 0)
(12.5058 -3.33199 -3.34194e-19)
(12.276 -3.30484 -3.43533e-19)
(12.0425 -3.27634 3.52003e-19)
(11.8051 -3.24645 -1.8155e-19)
(11.5636 -3.21507 -3.76779e-19)
(11.3177 -3.18206 -2.22685e-22)
(11.0671 -3.14729 -2.29238e-22)
(10.8113 -3.11052 -2.43022e-22)
(10.5497 -3.07159 6.69237e-19)
(10.2817 -3.03049 0)
(10.0067 -2.98727 2.493e-19)
(9.72427 -2.94175 -2.63114e-19)
(9.4338 -2.89364 -2.82082e-19)
(9.13435 -2.84245 0)
(8.82489 -2.78769 0)
(8.50411 -2.72879 -8.76164e-20)
(8.17063 -2.66504 -2.86804e-19)
(7.82317 -2.59552 -4.15257e-19)
(7.46102 -2.51887 -2.91906e-21)
(7.08578 -2.43328 -1.01895e-18)
(6.70545 -2.3363 -5.73203e-19)
(6.34506 -2.22559 -6.46666e-19)
(6.0732 -2.1024 7.44206e-19)
(6.06742 -1.98562 -8.62015e-19)
(6.73405 -1.95954 -1.96804e-18)
(8.85713 -2.24164 2.91175e-18)
(12.9857 -3.17221 -1.20509e-18)
(15.799 -3.61175 -3.03313e-19)
(15.617 -3.59811 3.09125e-19)
(15.4332 -3.5838 -4.70739e-19)
(15.2479 -3.56901 1.56598e-19)
(15.0609 -3.55414 -3.13102e-19)
(14.8722 -3.53918 3.22036e-19)
(14.6817 -3.52374 2.63159e-19)
(14.489 -3.50752 4.01707e-20)
(14.2936 -3.49063 -3.12129e-19)
(14.0957 -3.47323 3.13219e-19)
(13.8953 -3.45516 -1.56407e-19)
(13.6923 -3.43597 -4.75811e-19)
(13.486 -3.41563 3.20241e-19)
(13.2764 -3.39454 -5.94453e-22)
(13.0638 -3.37276 -3.30362e-19)
(12.8483 -3.34971 -5.04197e-19)
(12.6293 -3.32495 -2.11362e-22)
(12.406 -3.29852 1.7525e-19)
(12.1782 -3.27068 1.80334e-19)
(11.9459 -3.24149 3.72845e-19)
(11.7088 -3.21079 -1.92183e-19)
(11.4667 -3.17848 -2.00663e-19)
(11.2193 -3.14446 0)
(10.9665 -3.10833 -2.18233e-19)
(10.7073 -3.06947 2.28792e-19)
(10.4404 -3.02781 0)
(10.1652 -2.98384 -5.06661e-19)
(9.88156 -2.9378 2.68777e-19)