/*--------------------------------*- C++ -*----------------------------------*\
| =========                 |                                                 |
| \\      /  F ield         | OpenFOAM: The Open Source CFD Toolbox           |
|  \\    /   O peration     | Version:  2.3.0                                 |
|   \\  /    A nd           | Web:      www.OpenFOAM.org                      |
|    \\/     M anipulation  |                                                 |
\*---------------------------------------------------------------------------*/
FoamFile
{
    version     2.0;
    format      ascii;
    class       volScalarField;
    location    "250";
    object      nut;
}
// * * * * * * * * * * * * * * * * * * * * * * * * * * * * * * * * * * * * * //

dimensions      [0 2 -1 0 0 0 0];

internalField   nonuniform List<scalar> 
28256
(
0.0177689
0.0164617
0.0152514
0.0141549
0.0131814
0.012341
0.0116352
0.0110667
0.010632
0.0103094
0.0100791
0.00991041
0.00977592
0.00964674
0.00950371
0.00932193
0.00909598
0.00881395
0.00849224
0.00810319
0.0192095
0.018204
0.0173243
0.0165778
0.015975
0.015522
0.0152174
0.0150614
0.0150357
0.0151204
0.0152903
0.015518
0.0157798
0.0160518
0.0163184
0.016558
0.0167773
0.0169531
0.01709
0.0171857
0.0208018
0.0201309
0.0196089
0.0192365
0.0190139
0.0189382
0.0190013
0.0191874
0.0194698
0.019824
0.0202256
0.0206498
0.02107
0.0214748
0.0218483
0.0221786
0.0224593
0.0226954
0.022867
0.0229727
0.0225128
0.0221919
0.0220288
0.0220166
0.0221467
0.0224049
0.0227732
0.0232284
0.0237398
0.0242878
0.0248503
0.025402
0.0259266
0.0264152
0.0268532
0.0272426
0.0275713
0.0278327
0.0280286
0.0281587
0.0243171
0.024335
0.02451
0.0248263
0.0252636
0.0257992
0.0264104
0.0270709
0.0277565
0.028445
0.029118
0.0297611
0.0303601
0.0309077
0.0313969
0.0318242
0.0321822
0.0324727
0.032693
0.0328344
0.0261671
0.0265128
0.0269941
0.0275946
0.0282867
0.0290451
0.0298438
0.0306608
0.031474
0.0322638
0.0330184
0.0337286
0.0343815
0.0349713
0.0354965
0.0359536
0.0363384
0.0366549
0.0368897
0.0370506
0.0280607
0.0286847
0.0294287
0.0302639
0.0311603
0.0320918
0.0330341
0.0339663
0.0348718
0.0357356
0.0365515
0.037307
0.0379994
0.0386229
0.0391764
0.0396589
0.0400677
0.0403989
0.040653
0.0408278
0.0299385
0.0308071
0.0317676
0.0327907
0.0338457
0.0349073
0.0359546
0.0369701
0.0379403
0.0388581
0.0397149
0.0405049
0.0412266
0.0418753
0.0424521
0.0429534
0.0433781
0.0437269
0.0439976
0.0441841
0.0317985
0.0328512
0.0339795
0.0351444
0.0363148
0.0374694
0.0385902
0.0396626
0.0406779
0.0416311
0.0425156
0.0433304
0.0440717
0.0447391
0.0453323
0.0458486
0.0462897
0.0466531
0.0469352
0.047137
0.0335923
0.0347856
0.0360347
0.037299
0.0385482
0.0397632
0.04093
0.0420383
0.0430816
0.0440557
0.0449581
0.0457873
0.0465419
0.047222
0.0478269
0.0483559
0.0488088
0.0491832
0.0494786
0.0496918
0.0352727
0.0365742
0.0379067
0.0392344
0.0405311
0.0417799
0.0429707
0.0440963
0.0451521
0.0461352
0.0470452
0.0478814
0.0486431
0.0493303
0.0499423
0.0504805
0.0509416
0.0513265
0.0516324
0.0518586
0.0368045
0.0381917
0.0395771
0.0409379
0.0422543
0.0435141
0.0447098
0.0458366
0.0468913
0.0478735
0.0487827
0.0496188
0.0503809
0.0510699
0.0516866
0.0522287
0.0526967
0.0530894
0.0534046
0.0536415
0.03821
0.0396324
0.0410352
0.0424002
0.0437124
0.0449628
0.0461466
0.0472607
0.0483035
0.0492748
0.0501749
0.0510037
0.051761
0.0524477
0.0530634
0.0536071
0.0540786
0.0544764
0.0547997
0.0550462
0.039464
0.0408843
0.0422733
0.0436161
0.0449023
0.0461257
0.0472828
0.0483718
0.0493924
0.0503444
0.0512281
0.0520435
0.0527909
0.0534701
0.0540807
0.0546224
0.0550945
0.0554957
0.0558252
0.0560811
0.0405424
0.0419346
0.043284
0.0445828
0.0458245
0.0470049
0.0481223
0.0491758
0.0501646
0.0510893
0.0519495
0.0527456
0.0534775
0.0541445
0.0547467
0.0552831
0.0557533
0.056156
0.05649
0.0567537
0.0414525
0.0427786
0.0440627
0.0452977
0.046479
0.0476037
0.0486704
0.0496784
0.0506275
0.0515173
0.0523476
0.0531191
0.0538307
0.0544815
0.0550716
0.0556001
0.0560657
0.0564677
0.0568048
0.0570755
0.0421713
0.0434075
0.0446057
0.0457605
0.0468678
0.0479254
0.0489322
0.0498872
0.0507893
0.051638
0.0524336
0.0531755
0.0538622
0.054493
0.055068
0.0555858
0.0560449
0.0564447
0.0567834
0.05706
0.0426812
0.0438111
0.0449082
0.0459696
0.046993
0.0479755
0.0489154
0.0498102
0.0506597
0.0514623
0.052218
0.0529255
0.0535843
0.0541924
0.0547499
0.0552553
0.0557069
0.0561027
0.0564427
0.0567242
0.042983
0.0439856
0.0449674
0.0459268
0.0468584
0.0477603
0.0486287
0.0494607
0.0502528
0.0510044
0.0517143
0.0523833
0.0530107
0.0535941
0.054133
0.054625
0.0550674
0.05546
0.0558008
0.0560875
0.0430564
0.043919
0.0447797
0.0456354
0.0464691
0.047289
0.0480879
0.0488578
0.049595
0.0502913
0.0509461
0.0515672
0.0521577
0.0527159
0.0532376
0.0537165
0.0541498
0.0545375
0.0548793
0.0551738
0.00808978
0.00847046
0.00882933
0.00914056
0.00942599
0.00967759
0.00990873
0.0101343
0.0103687
0.0106405
0.0109786
0.0114137
0.0119709
0.0126718
0.0135296
0.0145506
0.0157339
0.0170724
0.018552
0.0201509
0.0172151
0.0171888
0.0171303
0.0170404
0.0169097
0.0167704
0.016613
0.0164583
0.0163168
0.0162152
0.0161759
0.0162271
0.0163957
0.0167073
0.0171809
0.0178283
0.018652
0.0196465
0.0207973
0.0220804
0.0230163
0.0230072
0.0229301
0.0228073
0.0226494
0.0224436
0.02221
0.0219468
0.0216772
0.0214158
0.0211799
0.0209995
0.0208977
0.0209026
0.0210431
0.0213371
0.0217978
0.0224287
0.0232236
0.0241656
0.0282153
0.0281993
0.0281287
0.0280037
0.027824
0.0275859
0.0273077
0.0269871
0.0266415
0.026278
0.0259184
0.0255791
0.0252787
0.025053
0.024921
0.0249111
0.0250431
0.0253294
0.0257724
0.0263656
0.0329038
0.032902
0.0328323
0.032705
0.032506
0.0322585
0.0319547
0.031599
0.0312019
0.0307779
0.030332
0.0298781
0.0294438
0.0290401
0.0286964
0.02844
0.0282918
0.0282701
0.0283852
0.0286386
0.0371329
0.0371363
0.0370752
0.0369427
0.0367492
0.0364906
0.0361726
0.0357963
0.0353702
0.0349043
0.034397
0.03387
0.0333325
0.0328011
0.0322986
0.0318466
0.0314685
0.031184
0.0310076
0.0309524
0.0409203
0.0409379
0.0408801
0.0407573
0.0405621
0.0403027
0.0399776
0.0395884
0.0391483
0.0386544
0.0381127
0.0375321
0.0369248
0.0362999
0.0356784
0.0350774
0.0345164
0.0340137
0.0335905
0.0332623
0.0442925
0.0443189
0.0442729
0.0441552
0.0439677
0.0437073
0.0433818
0.0429934
0.042545
0.0420368
0.0414732
0.0408601
0.0402028
0.0395144
0.0388087
0.038097
0.0373943
0.0367192
0.0360926
0.0355293
0.0472563
0.0472957
0.0472626
0.0471554
0.0469733
0.0467209
0.0464008
0.0460179
0.0455671
0.0450528
0.0444769
0.0438468
0.0431625
0.0424336
0.0416684
0.0408775
0.0400709
0.0392656
0.0384763
0.0377191
0.0498242
0.0498783
0.0498568
0.0497605
0.0495903
0.0493495
0.0490398
0.0486621
0.048217
0.0477022
0.0471286
0.0464921
0.0457963
0.0450454
0.0442435
0.0433985
0.0425218
0.0416202
0.0407113
0.0398069
0.052004
0.0520701
0.0520618
0.0519798
0.0518253
0.0515989
0.0513003
0.0509345
0.0504993
0.0499965
0.0494281
0.0487958
0.0480995
0.0473399
0.0465215
0.0456496
0.0447269
0.0437646
0.0427721
0.0417588
0.0537987
0.0538798
0.053886
0.0538195
0.0536795
0.0534691
0.0531887
0.0528396
0.0524213
0.0519343
0.05138
0.0507599
0.0500708
0.0493166
0.0484984
0.0476161
0.0466756
0.0456803
0.0446351
0.0435532
0.0552165
0.0553108
0.055333
0.0552821
0.055161
0.05497
0.0547095
0.0543807
0.0539829
0.0535164
0.0529837
0.0523823
0.051712
0.0509737
0.0501666
0.0492931
0.0483515
0.0473459
0.0462802
0.0451633
0.0562628
0.0563719
0.0564095
0.0563778
0.0562763
0.0561056
0.0558675
0.0555621
0.0551881
0.0547479
0.054241
0.0536655
0.0530208
0.0523069
0.0515236
0.05067
0.0497457
0.0487511
0.0476891
0.0465674
0.0569469
0.0570698
0.0571245
0.0571113
0.0570304
0.0568826
0.0566688
0.0563893
0.0560431
0.0556316
0.0551537
0.0546083
0.0539965
0.0533153
0.0525652
0.0517439
0.0508501
0.0498838
0.0488451
0.0477393
0.057279
0.0574156
0.0574867
0.0574924
0.0574333
0.0573091
0.0571211
0.0568683
0.0565514
0.0561707
0.0557255
0.0552154
0.0546396
0.053998
0.053288
0.052507
0.0516559
0.0507305
0.0497287
0.048649
0.0572729
0.0574227
0.0575101
0.0575346
0.0574965
0.0573959
0.0572328
0.0570074
0.05672
0.0563715
0.0559607
0.0554874
0.0549517
0.0543528
0.0536883
0.0529577
0.0521576
0.0512853
0.0503378
0.0493091
0.0569464
0.0571091
0.0572118
0.0572541
0.0572358
0.0571564
0.0570164
0.0568162
0.0565566
0.0562382
0.0558614
0.055426
0.054932
0.0543786
0.0537649
0.0530896
0.05235
0.0515433
0.0506658
0.049711
0.0563196
0.056495
0.0566132
0.0566725
0.0566721
0.0566097
0.0564865
0.0563045
0.0560668
0.0557749
0.05543
0.0550313
0.0545783
0.0540724
0.0535122
0.0528963
0.0522231
0.0514903
0.0506953
0.0498346
0.0554147
0.0556046
0.0557406
0.05582
0.0558391
0.0557799
0.0556532
0.0554719
0.0552473
0.0549789
0.0546677
0.054299
0.0538811
0.0534263
0.0529209
0.0523654
0.051758
0.0511027
0.0503996
0.0496443
0.00216864
0.00168721
0.001308
0.00101434
0.000882015
0.00100989
0.00133598
0.00173821
0.00214003
0.00250868
0.00283454
0.00310627
0.0033223
0.00348321
0.00358975
0.00364545
0.00365052
0.00360824
0.00352278
0.00339412
0.0021645
0.00172717
0.00153061
0.00176761
0.00242828
0.00328214
0.00414646
0.00495185
0.00568404
0.00634714
0.00694526
0.00748404
0.00796323
0.00838334
0.00874385
0.00904432
0.00928526
0.00946941
0.00959299
0.00965947
0.00230258
0.002344
0.00305864
0.00422028
0.00549049
0.0066972
0.00779841
0.00879912
0.00971133
0.0105436
0.011301
0.0119835
0.0125914
0.0131244
0.0135801
0.0139595
0.0142627
0.0144892
0.0146412
0.0147173
0.00324186
0.00435629
0.00589688
0.00748254
0.00896046
0.0103068
0.0115342
0.0126575
0.0136875
0.0146292
0.0154833
0.0162516
0.0169323
0.0175259
0.0180326
0.0184538
0.0187884
0.0190375
0.0192031
0.019282
0.00547079
0.00731926
0.00917786
0.0109035
0.0124783
0.0139176
0.0152381
0.0164514
0.0175635
0.0185776
0.019495
0.0203163
0.0210424
0.0216739
0.0222122
0.022658
0.0230127
0.0232763
0.0234485
0.0235307
0.00847716
0.0105825
0.0125473
0.0143449
0.0159894
0.0174987
0.0188861
0.0201596
0.0213244
0.0223835
0.0233385
0.0241913
0.0249434
0.0255967
0.026153
0.026613
0.0269789
0.02725
0.0274265
0.0275081
0.0117318
0.0139166
0.0159323
0.0177784
0.0194717
0.0210276
0.0224562
0.0237648
0.0249584
0.0260405
0.027014
0.0278817
0.0286463
0.0293095
0.0298736
0.0303405
0.0307101
0.0309837
0.0311606
0.0312399
0.0150395
0.017262
0.0193076
0.0211834
0.0229044
0.0244838
0.0259317
0.0272541
0.0284574
0.0295462
0.0305243
0.0313943
0.0321607
0.0328247
0.0333894
0.0338556
0.0342246
0.0344962
0.0346706
0.0347463
0.0183384
0.0205924
0.0226532
0.0245398
0.0262686
0.027852
0.0292997
0.0306198
0.0318182
0.0329006
0.0338716
0.0347353
0.0354946
0.0361528
0.0367117
0.0371724
0.037536
0.0378025
0.0379711
0.0380408
0.0216377
0.0238937
0.0259508
0.0278303
0.0295487
0.0311193
0.032552
0.0338558
0.0350377
0.0361043
0.03706
0.0379091
0.0386554
0.0393015
0.0398492
0.0403001
0.040654
0.0409119
0.0410724
0.0411348
0.0249191
0.0271498
0.0291839
0.031039
0.0327316
0.0342751
0.0356811
0.0369583
0.0381148
0.039157
0.0400906
0.0409194
0.0416469
0.0422759
0.0428082
0.0432446
0.0435859
0.0438317
0.0439813
0.044034
0.0281403
0.0303384
0.032335
0.0341515
0.0358055
0.037311
0.03868
0.0399228
0.0410468
0.0420587
0.0429642
0.0437673
0.0444715
0.045079
0.0455917
0.0460102
0.046335
0.0465657
0.0467023
0.0467426
0.0312958
0.0334437
0.0353886
0.0371541
0.038759
0.040218
0.041543
0.0427444
0.0438303
0.044807
0.0456799
0.0464532
0.0471297
0.0477119
0.048201
0.0485981
0.0489031
0.049116
0.0492359
0.0492622
0.0343814
0.0364516
0.0383293
0.0400335
0.0415811
0.0429868
0.0442625
0.0454181
0.0464616
0.0473991
0.0482358
0.0489755
0.049621
0.0501742
0.0506365
0.0510085
0.0512905
0.0514824
0.0515832
0.0515923
0.0373521
0.039335
0.0411378
0.0427741
0.0442593
0.0456075
0.0468304
0.0479371
0.0489355
0.0498313
0.0506289
0.0513322
0.0519435
0.0524647
0.0528969
0.0532407
0.0534967
0.0536641
0.0537428
0.0537316
0.0401412
0.0420604
0.0437915
0.0453583
0.0467792
0.0480685
0.0492369
0.0502939
0.0512458
0.052098
0.0528552
0.0535199
0.0540948
0.0545814
0.0549807
0.0552936
0.05552
0.05566
0.0557133
0.0556788
0.0427933
0.0446246
0.046276
0.0477708
0.0491264
0.0503566
0.0514715
0.0524789
0.0533849
0.0541942
0.05491
0.0555356
0.0560725
0.0565225
0.0568867
0.0571656
0.0573598
0.0574691
0.0574934
0.0574319
0.0452696
0.0470059
0.0485724
0.0499924
0.0512831
0.0524558
0.0535197
0.0544809
0.0553441
0.0561127
0.0567894
0.0573762
0.057875
0.0582872
0.058614
0.0588565
0.0590153
0.0590908
0.0590823
0.0589898
0.0475572
0.0491835
0.050656
0.0519978
0.0532248
0.0543446
0.0553623
0.056284
0.0571114
0.0578462
0.0584893
0.0590413
0.0595034
0.0598768
0.0601634
0.0603664
0.0604869
0.0605254
0.0604809
0.060352
0.0496472
0.051132
0.0524925
0.0537447
0.0549141
0.0559917
0.0569686
0.0578638
0.0586702
0.0593848
0.0600072
0.0605336
0.0609661
0.0612989
0.0615367
0.0616927
0.0617706
0.0617731
0.0616936
0.0615193
0.00339821
0.00353834
0.00363335
0.00368833
0.00369993
0.00366943
0.00359769
0.00348966
0.00335366
0.00320288
0.00305883
0.00295402
0.00293322
0.00304972
0.00335344
0.00387813
0.00464614
0.00568112
0.00701446
0.00868276
0.00965833
0.00958526
0.00945912
0.00927597
0.00903837
0.00874546
0.00840132
0.00800821
0.00757233
0.00710268
0.00661208
0.00612125
0.00566301
0.00529096
0.00508381
0.0051342
0.00551476
0.00625577
0.00735904
0.00882184
0.0147108
0.0146244
0.0144613
0.0142256
0.0139159
0.0135342
0.0130808
0.0125585
0.0119719
0.0113264
0.0106324
0.00990195
0.00915629
0.00842894
0.00777727
0.00729433
0.00710387
0.00732068
0.00799804
0.00912083
0.0192736
0.0191751
0.0189942
0.0187274
0.0183788
0.0179473
0.017433
0.0168376
0.0161632
0.0154143
0.0145955
0.0137173
0.0127924
0.0118424
0.0109033
0.010037
0.00934721
0.00897914
0.00907372
0.00969372
0.0235185
0.0234123
0.023215
0.0229285
0.0225525
0.0220866
0.021532
0.0208881
0.0201563
0.0193377
0.0184368
0.017458
0.0164108
0.0153095
0.0141766
0.0130519
0.0120046
0.0111504
0.0106504
0.0106539
0.027492
0.027379
0.0271709
0.0268688
0.0264731
0.0259845
0.0254021
0.0247256
0.023955
0.0230909
0.0221336
0.0210871
0.0199555
0.0187475
0.0174783
0.0161729
0.0148751
0.0136633
0.012667
0.0120536
0.0312204
0.0311009
0.0308837
0.0305705
0.0301611
0.0296564
0.0290552
0.0283571
0.0275613
0.0266666
0.0256735
0.0245814
0.0233927
0.0221116
0.0207465
0.0193127
0.0178369
0.0163691
0.0149976
0.0138587
0.0347216
0.0345959
0.0343722
0.0340496
0.0336308
0.0331145
0.0325007
0.0317888
0.0309768
0.0300637
0.0290474
0.0279269
0.0267014
0.0253716
0.0239413
0.0224176
0.0208162
0.0191662
0.0175226
0.01598
0.0380102
0.0378791
0.0376478
0.0373191
0.0368921
0.0363683
0.0357465
0.0350258
0.0342043
0.03328
0.0322508
0.0311137
0.0298663
0.0285066
0.0270341
0.025451
0.0237633
0.0219857
0.0201496
0.0183141
0.041097
0.0409586
0.0407215
0.0403862
0.0399537
0.0394241
0.0387969
0.0380709
0.0372441
0.0363145
0.0352791
0.0341344
0.0328761
0.0315006
0.0300042
0.0283846
0.0266411
0.0247785
0.0228105
0.0207702
0.0439875
0.043842
0.0435978
0.0432564
0.042819
0.0422847
0.0416539
0.040925
0.040096
0.0391647
0.0381282
0.0369817
0.0357208
0.0343399
0.0328335
0.0311954
0.0294206
0.027506
0.0254529
0.023275
0.0466859
0.0465311
0.0462793
0.0459319
0.045489
0.0449508
0.044317
0.0435862
0.0427569
0.0418267
0.0407917
0.0396481
0.0383902
0.0370119
0.0355055
0.0338633
0.0320764
0.0301362
0.0280351
0.0257713
0.0491929
0.0490273
0.0487669
0.0484119
0.047963
0.0474204
0.0467834
0.0460515
0.0452226
0.0442942
0.043263
0.0421247
0.040874
0.0395034
0.0380055
0.0363701
0.0345863
0.0326414
0.0305214
0.0282144
0.0515079
0.0513299
0.0510582
0.0506942
0.0502381
0.0496897
0.049049
0.0483152
0.0474863
0.0465598
0.0455329
0.0444016
0.04316
0.0418013
0.0403171
0.0386967
0.0369278
0.0349953
0.0328808
0.0305661
0.0536297
0.0534358
0.0531511
0.0527754
0.0523098
0.0517539
0.0511075
0.05037
0.0495394
0.0486141
0.047591
0.0464662
0.0452349
0.0438899
0.0424231
0.0408238
0.0390791
0.0371725
0.0350835
0.0327906
0.0555556
0.0553432
0.0550414
0.0546515
0.0541731
0.0536065
0.0529512
0.0522069
0.0513723
0.0504454
0.0494239
0.0483044
0.0470822
0.0457515
0.0443042
0.0427301
0.041016
0.0391455
0.0370958
0.0348393
0.0572839
0.0570485
0.0567263
0.0563175
0.0558221
0.05524
0.0545713
0.0538155
0.0529719
0.0520393
0.0510154
0.049898
0.048683
0.0473653
0.045938
0.0443914
0.0427135
0.0408882
0.0388932
0.0367025
0.0588123
0.0585497
0.058202
0.0577692
0.0572509
0.056647
0.0559574
0.0551825
0.0543225
0.0533768
0.0523449
0.0512246
0.0500131
0.048706
0.0472975
0.0457796
0.0441412
0.0423673
0.0404377
0.0383333
0.0601392
0.0598442
0.0594664
0.0590049
0.058457
0.0578208
0.0570977
0.0562904
0.0554018
0.0544332
0.0533849
0.0522553
0.0510418
0.0497413
0.0483497
0.0468606
0.045264
0.0435502
0.0417087
0.0397287
0.0612581
0.0609244
0.0605164
0.0600315
0.0594487
0.0587584
0.057976
0.0571094
0.056175
0.0551696
0.0540976
0.0529531
0.0517302
0.050429
0.0490511
0.0475943
0.046053
0.0444129
0.0426699
0.0408383
2.23759e-05
0.000254759
0.000501791
0.000777114
0.00109722
0.00146046
0.00187799
0.0023538
0.00289695
0.00351296
0.00421436
0.00500925
0.00590977
0.00692618
0.00806102
0.00931628
0.0106908
0.0121787
0.0137752
0.0154656
1.77434e-14
4.63918e-12
1.14221e-10
1.2893e-09
2.49841e-06
0.000103541
0.000426386
0.000713026
0.00106715
0.00150426
0.00203823
0.00268347
0.0034539
0.00436306
0.00542298
0.00664251
0.00802674
0.0095782
0.011295
0.0131688
2.94955e-23
2.20917e-20
4.67196e-16
2.09376e-08
6.62648e-06
0.000177561
0.00034089
0.000534595
0.000781072
0.00109566
0.0014937
0.00199162
0.00260706
0.00335881
0.00426567
0.00534552
0.00661403
0.00808415
0.00976607
0.0116669
5.18661e-14
1.90345e-11
1.96097e-07
1.39265e-05
9.06371e-05
0.000202305
0.000327958
0.000484477
0.000684733
0.00094185
0.00127018
0.00168585
0.00220714
0.00285433
0.00364927
0.00461465
0.00577296
0.00714541
0.00875076
0.0106029
7.90602e-09
5.9836e-07
5.50073e-06
2.79195e-05
9.19257e-05
0.000184268
0.000296159
0.000435004
0.000611339
0.000837132
0.00112567
0.00149221
0.00195448
0.00253271
0.00324958
0.00412981
0.00519953
0.00648529
0.00801282
0.00980481
8.44539e-09
6.73725e-07
5.60172e-06
2.39571e-05
7.46495e-05
0.000158699
0.000262033
0.000388618
0.000548477
0.000752617
0.00101349
0.00134552
0.00176566
0.00229363
0.00295201
0.00376626
0.00476424
0.00597544
0.0074298
0.0091545
7.63936e-09
6.08304e-07
4.97535e-06
2.06688e-05
6.01638e-05
0.000135989
0.000232352
0.000349199
0.000496192
0.000683442
0.00092278
0.00122792
0.00161508
0.00210336
0.00271493
0.00347539
0.00441333
0.00555996
0.00694799
0.00860884
7.00954e-09
5.6994e-07
4.67456e-06
1.89784e-05
5.19004e-05
0.000118118
0.000208082
0.000317142
0.000453389
0.000626876
0.000848683
0.00113189
0.00149207
0.00194769
0.00252061
0.0032363
0.00412401
0.00521686
0.00655218
0.00817334
6.62475e-09
5.55639e-07
4.63998e-06
1.87647e-05
4.95006e-05
0.000104822
0.000188314
0.000290771
0.00041799
0.000580037
0.000787213
0.00105208
0.00138956
0.00181749
0.00235718
0.00303359
0.00387562
0.00491583
0.00618907
0.00772781
6.26162e-09
5.3679e-07
4.54792e-06
1.83199e-05
4.71696e-05
9.44616e-05
0.000171839
0.000268683
0.000388362
0.000540564
0.000735315
0.000984485
0.00130236
0.00170622
0.00221663
0.00285791
0.0036584
0.00465025
0.00586865
0.0073508
5.95014e-09
5.22097e-07
4.47933e-06
1.81181e-05
4.61586e-05
8.97871e-05
0.000158711
0.000250073
0.000363264
0.000506776
0.000690738
0.000926251
0.00122706
0.00160978
0.00209436
0.00270462
0.00346865
0.004419
0.00559329
0.00703623
5.72339e-09
5.11613e-07
4.4673e-06
1.82103e-05
4.60972e-05
8.79001e-05
0.000148128
0.000234107
0.000341534
0.000477369
0.000651914
0.000875512
0.00116133
0.00152542
0.00198716
0.00256984
0.00330107
0.00421306
0.00534243
0.00672837
5.5e-09
5.00066e-07
4.40754e-06
1.80636e-05
4.55302e-05
8.56065e-05
0.000139422
0.00022026
0.000322613
0.000451837
0.000617787
0.000830794
0.00110333
0.00145086
0.00189222
0.00245015
0.00315181
0.00402917
0.00511948
0.00646654
5.29622e-09
4.87514e-07
4.34976e-06
1.79509e-05
4.5248e-05
8.44702e-05
0.000135079
0.000208801
0.000306099
0.000429356
0.000587485
0.00079102
0.00105167
0.00138436
0.00180738
0.00234284
0.00301726
0.00386201
0.00491302
0.00620966
5.1239e-09
4.7902e-07
4.32183e-06
1.80207e-05
4.54903e-05
8.44607e-05
0.00013328
0.000199297
0.000291537
0.000409288
0.000560306
0.000755325
0.0010053
0.00132462
0.00173102
0.00224606
0.00289579
0.00371117
0.00472875
0.00599179
4.95588e-09
4.68267e-07
4.27557e-06
1.79896e-05
4.55115e-05
8.41248e-05
0.000131289
0.00019107
0.000278589
0.000391394
0.000536118
0.000723096
0.000963336
0.0012705
0.00166174
0.00215813
0.00278509
0.00357306
0.00455779
0.00578016
4.78944e-09
4.57141e-07
4.20843e-06
1.78389e-05
4.52899e-05
8.35763e-05
0.000129578
0.000185485
0.000267316
0.000375343
0.000514292
0.000693793
0.000925079
0.00122107
0.00159834
0.00207736
0.00268284
0.00344421
0.00439569
0.00557529
4.6373e-09
4.46818e-07
4.15064e-06
1.77641e-05
4.53128e-05
8.36079e-05
0.000129138
0.000183041
0.000257818
0.000360904
0.000494381
0.000666916
0.000889895
0.0011755
0.00153972
0.00200239
0.00258741
0.0033232
0.00424284
0.00538319
4.49474e-09
4.37602e-07
4.10878e-06
1.77542e-05
4.54846e-05
8.39046e-05
0.000129101
0.000181381
0.000249543
0.000347804
0.000476142
0.000642237
0.000857308
0.00113321
0.0014852
0.00193251
0.0024984
0.0032107
0.00410243
0.00521263
4.37171e-09
4.28683e-07
4.055e-06
1.76585e-05
4.54526e-05
8.38736e-05
0.000128638
0.000179397
0.000242288
0.000335834
0.000459369
0.000619531
0.000827003
0.00109373
0.00143429
0.0018672
0.00241518
0.00310545
0.00397014
0.00504588
4.22909e-09
4.17519e-07
3.9793e-06
1.74713e-05
4.52334e-05
8.36166e-05
0.000128087
0.000177836
0.000237451
0.000325137
0.000443829
0.000598333
0.000798584
0.00105673
0.00138663
0.00180627
0.00233789
0.00300863
0.0038513
0.00490653
4.09185e-09
4.07332e-07
3.91081e-06
1.73252e-05
4.51229e-05
8.36036e-05
0.000128034
0.000177276
0.000234984
0.000315804
0.000429453
0.000578465
0.000771872
0.00102196
0.00134194
0.00174934
0.00226598
0.00291869
0.00373998
0.00476849
3.97449e-09
3.97669e-07
3.84023e-06
1.72136e-05
4.5112e-05
8.37827e-05
0.000128261
0.000177107
0.000233191
0.000307532
0.000416238
0.000560057
0.000747135
0.00098955
0.00130028
0.00169625
0.00219886
0.0028344
0.00363439
0.00463579
3.82606e-09
3.84227e-07
3.7766e-06
1.70362e-05
4.49628e-05
8.3776e-05
0.000128236
0.000176631
0.000231199
0.000300229
0.000404163
0.000543142
0.000724382
0.000959455
0.0012615
0.00164677
0.00213611
0.00275503
0.00353416
0.00450919
3.71423e-09
3.77095e-07
3.68808e-06
1.67728e-05
4.46351e-05
8.34588e-05
0.00012789
0.000175951
0.000229396
0.000294825
0.000393363
0.000527614
0.000703348
0.0009315
0.00122536
0.0016005
0.00207709
0.00267988
0.0034384
0.00438674
3.62224e-09
3.66498e-07
3.60988e-06
1.65099e-05
4.42193e-05
8.30778e-05
0.00012757
0.000175522
0.000228377
0.00029174
0.000383958
0.00051338
0.000683811
0.000905353
0.00119148
0.00155696
0.00202133
0.00260871
0.0033479
0.00427249
3.53552e-09
3.57554e-07
3.52082e-06
1.62353e-05
4.38439e-05
8.2761e-05
0.000127381
0.000175352
0.000227857
0.000289711
0.000375692
0.000500287
0.000665623
0.000880937
0.00115965
0.00151606
0.00196915
0.00254277
0.00326618
0.00417617
3.43482e-09
3.48382e-07
3.45691e-06
1.59864e-05
4.34972e-05
8.24545e-05
0.000127182
0.000175149
0.000227289
0.000287706
0.000368147
0.000488175
0.000648715
0.000858254
0.00112984
0.00147776
0.00192042
0.00248136
0.0031896
0.00408017
3.36106e-09
3.40458e-07
3.37672e-06
1.57348e-05
4.3072e-05
8.20437e-05
0.000126824
0.000174738
0.000226445
0.000285499
0.000361392
0.000476985
0.00063301
0.000837116
0.0011019
0.0014419
0.00187483
0.0024238
0.00311713
0.00398855
3.25875e-09
3.312e-07
3.29153e-06
1.5418e-05
4.25366e-05
8.14269e-05
0.000126203
0.000174049
0.000225393
0.000283392
0.000355977
0.000466715
0.00061835
0.000817327
0.00107568
0.00140812
0.00183181
0.00236916
0.00304751
0.00389896
3.17115e-09
3.22297e-07
3.2112e-06
1.51182e-05
4.19749e-05
8.07385e-05
0.00012551
0.000173313
0.000224463
0.00028182
0.000352274
0.000457478
0.000604681
0.000798755
0.00105099
0.00137629
0.00179123
0.00231786
0.00298353
0.0038225
3.11705e-09
3.15512e-07
3.15202e-06
1.48819e-05
4.14959e-05
8.0173e-05
0.000124942
0.000172776
0.000223857
0.000280801
0.000349724
0.000449207
0.000591934
0.000781257
0.00102769
0.00134627
0.00175298
0.00226943
0.00292252
0.00374465
3.06678e-09
3.09605e-07
3.09232e-06
1.46464e-05
4.10785e-05
7.96727e-05
0.000124493
0.000172384
0.000223426
0.00028
0.00034756
0.000441683
0.000580076
0.000764847
0.00100586
0.00131789
0.00171691
0.00222391
0.00286567
0.00367538
2.97263e-09
3.00679e-07
3.03324e-06
1.44094e-05
4.06393e-05
7.92076e-05
0.000124061
0.000171996
0.000222961
0.000279129
0.000345375
0.000434702
0.000568971
0.000749483
0.000985431
0.00129115
0.00168279
0.00218088
0.00281167
0.00360746
2.91336e-09
2.96446e-07
2.97856e-06
1.41918e-05
4.02502e-05
7.87406e-05
0.000123605
0.000171532
0.000222367
0.000278112
0.000343108
0.000428327
0.000558595
0.000735025
0.000966162
0.00126585
0.00165047
0.00214001
0.00276019
0.00354256
2.86087e-09
2.89915e-07
2.92583e-06
1.39689e-05
3.982e-05
7.81931e-05
0.000123036
0.000170929
0.00022164
0.000276978
0.000340887
0.000422814
0.000548931
0.000721413
0.0009479
0.00124186
0.00161988
0.00210129
0.00271156
0.0034823
2.80851e-09
2.85255e-07
2.86918e-06
1.37451e-05
3.93587e-05
7.75725e-05
0.000122385
0.000170276
0.000220899
0.000275919
0.000339017
0.000418551
0.000540041
0.000708603
0.000930642
0.00121908
0.00159069
0.00206428
0.00266459
0.00342195
2.76452e-09
2.79508e-07
2.82049e-06
1.35326e-05
3.8915e-05
7.69834e-05
0.000121771
0.000169667
0.000220223
0.000275055
0.000337625
0.000415448
0.000531911
0.000696479
0.00091419
0.00119738
0.00156293
0.00202907
0.00262043
0.00336819
2.70194e-09
2.73975e-07
2.76345e-06
1.33174e-05
3.84935e-05
7.64442e-05
0.000121223
0.000169148
0.000219703
0.000274434
0.000336603
0.000413064
0.0005245
0.000685105
0.000898675
0.00117689
0.00153652
0.00199576
0.00257906
0.00331778
2.64982e-09
2.68798e-07
2.72186e-06
1.31392e-05
3.81478e-05
7.60001e-05
0.000120767
0.000168734
0.000219325
0.000273982
0.000335791
0.000411003
0.000517627
0.000674354
0.000883935
0.00115745
0.00151138
0.00196395
0.00253888
0.00326587
2.61812e-09
2.65058e-07
2.68055e-06
1.2992e-05
3.78368e-05
7.56117e-05
0.000120374
0.000168391
0.000219014
0.000273583
0.000335023
0.000409034
0.00051124
0.000664271
0.000870053
0.0011391
0.00148763
0.00193409
0.00250243
0.00322501
2.57919e-09
2.60864e-07
2.64458e-06
1.28328e-05
3.75284e-05
7.52463e-05
0.000120019
0.000168057
0.000218684
0.000273154
0.000334195
0.000407021
0.000505261
0.000654737
0.000856905
0.00112177
0.00146522
0.00190617
0.00246851
0.00318406
2.56343e-09
2.57959e-07
2.61218e-06
1.26841e-05
3.72342e-05
7.48713e-05
0.000119634
0.000167689
0.000218294
0.000272639
0.000333279
0.000405007
0.000499788
0.000645783
0.000844521
0.00110538
0.00144399
0.00187947
0.00243484
0.00313933
2.54134e-09
2.54997e-07
2.57586e-06
1.25408e-05
3.69327e-05
7.44607e-05
0.000119221
0.000167282
0.00021785
0.000272051
0.000332319
0.000403093
0.000495008
0.000637379
0.000832778
0.00108989
0.00142398
0.00185452
0.00240449
0.0031053
2.50772e-09
2.51181e-07
2.54015e-06
1.23953e-05
3.66082e-05
7.40565e-05
0.000118785
0.000166837
0.000217375
0.000271474
0.000331444
0.000401447
0.000491149
0.000629636
0.000821732
0.00107514
0.00140465
0.00182946
0.00237048
0.00305125
2.47927e-09
2.47446e-07
2.51028e-06
1.22626e-05
3.63149e-05
7.36438e-05
0.000118334
0.000166387
0.000216923
0.00027095
0.000330706
0.000400168
0.000488201
0.000622457
0.000811213
0.00106099
0.00138598
0.00180562
0.00234113
0.00302338
2.43744e-09
2.43878e-07
2.47922e-06
1.21355e-05
3.60211e-05
7.32418e-05
0.000117912
0.000165983
0.000216538
0.00027054
0.000330169
0.000399233
0.000485947
0.000615848
0.000801227
0.00104743
0.00136806
0.00178234
0.00231073
0.00297855
2.39477e-09
2.40074e-07
2.44945e-06
1.20018e-05
3.57459e-05
7.28835e-05
0.000117546
0.000165652
0.000216243
0.00027026
0.000329826
0.000398578
0.000484145
0.000609713
0.000791713
0.00103439
0.0013507
0.00175937
0.00228031
0.00293846
2.37246e-09
2.3841e-07
2.42932e-06
1.19048e-05
3.55494e-05
7.26223e-05
0.000117274
0.000165408
0.000216038
0.000270086
0.000329594
0.000398048
0.000482558
0.000603976
0.000782654
0.00102186
0.00133402
0.00173762
0.00225364
0.00291151
2.35832e-09
2.36874e-07
2.41327e-06
1.1831e-05
3.53809e-05
7.24111e-05
0.000117064
0.000165239
0.000215928
0.000270006
0.000329455
0.000397606
0.000481055
0.000598552
0.000773969
0.00100981
0.00131804
0.00171691
0.00222756
0.00287665
2.34178e-09
2.35455e-07
2.3967e-06
1.17572e-05
3.52361e-05
7.22156e-05
0.000116894
0.000165119
0.000215854
0.000269948
0.000329313
0.000397131
0.000479556
0.00059341
0.000765674
0.000998322
0.00130285
0.00169732
0.00220348
0.00284911
2.32818e-09
2.335e-07
2.37821e-06
1.16857e-05
3.50774e-05
7.20187e-05
0.000116719
0.000164979
0.000215754
0.000269859
0.000329119
0.000396591
0.00047803
0.000588575
0.000757812
0.000987404
0.00128841
0.00167862
0.00217976
0.00281716
2.3021e-09
2.31351e-07
2.3597e-06
1.16108e-05
3.49181e-05
7.17997e-05
0.000116498
0.000164807
0.000215636
0.000269742
0.000328901
0.000396031
0.000476519
0.000584081
0.000750316
0.00097695
0.00127449
0.00166032
0.00215573
0.00278418
2.28862e-09
2.29734e-07
2.34558e-06
1.15405e-05
3.47633e-05
7.16076e-05
0.000116305
0.000164633
0.000215477
0.000269579
0.00032864
0.000395444
0.000475085
0.000580058
0.000743228
0.000966966
0.00126115
0.00164274
0.00213321
0.00275707
2.28087e-09
2.28757e-07
2.33274e-06
1.14776e-05
3.46209e-05
7.14115e-05
0.00011611
0.000164457
0.000215307
0.000269387
0.000328351
0.000394874
0.000473775
0.000576573
0.00073652
0.000957374
0.00124812
0.00162507
0.00210896
0.00272006
2.25862e-09
2.26742e-07
2.31587e-06
1.14061e-05
3.44669e-05
7.12005e-05
0.000115889
0.000164251
0.000215131
0.000269206
0.000328087
0.000394382
0.000472695
0.000573731
0.000730194
0.000948091
0.00123547
0.00160827
0.00208803
0.00270028
2.25358e-09
2.25685e-07
2.29975e-06
1.13456e-05
3.43266e-05
7.10152e-05
0.000115688
0.00016407
0.000214981
0.000269052
0.000327875
0.000393997
0.000471842
0.000571446
0.000724255
0.000939167
0.00122319
0.0015918
0.00206608
0.00266733
2.26484e-09
2.25236e-07
2.29109e-06