/*--------------------------------*- C++ -*----------------------------------*\
| =========                 |                                                 |
| \\      /  F ield         | OpenFOAM: The Open Source CFD Toolbox           |
|  \\    /   O peration     | Version:  2.3.0                                 |
|   \\  /    A nd           | Web:      www.OpenFOAM.org                      |
|    \\/     M anipulation  |                                                 |
\*---------------------------------------------------------------------------*/
FoamFile
{
    version     2.0;
    format      ascii;
    class       surfaceScalarField;
    location    "250";
    object      phi;
}
// * * * * * * * * * * * * * * * * * * * * * * * * * * * * * * * * * * * * * //

dimensions      [0 3 -1 0 0 0 0];

internalField   nonuniform List<scalar> 
56247
(
3.08405e-05
-0.00011686
0.000121042
-3.50401e-05
2.80072e-05
-9.45887e-05
9.74238e-05
2.64059e-05
-7.69698e-05
7.85715e-05
2.58737e-05
-6.30163e-05
6.35495e-05
2.62462e-05
-5.19512e-05
5.15792e-05
2.73281e-05
-4.31498e-05
4.20681e-05
2.89182e-05
-3.60976e-05
3.45076e-05
3.08704e-05
-3.04387e-05
2.84865e-05
3.30123e-05
-2.58168e-05
2.36749e-05
3.52617e-05
-2.20447e-05
1.97953e-05
3.75473e-05
-1.89252e-05
1.66396e-05
3.98408e-05
-1.63343e-05
1.40408e-05
4.21186e-05
-1.41611e-05
1.18833e-05
4.43908e-05
-1.23429e-05
1.00707e-05
4.66406e-05
-1.07878e-05
8.53798e-06
4.8879e-05
-9.46777e-06
7.22939e-06
5.1132e-05
-8.36618e-06
6.11324e-06
5.34107e-05
-7.42476e-06
5.14608e-06
5.57001e-05
-6.5916e-06
4.30225e-06
-5.91628e-06
5.81377e-05
3.47865e-06
3.38237e-05
-0.000113126
-3.75551e-05
3.16074e-05
-9.23713e-05
3.0594e-05
-7.59556e-05
3.05241e-05
-6.2946e-05
3.11727e-05
-5.25996e-05
3.2332e-05
-4.4309e-05
3.38909e-05
-3.76564e-05
3.56817e-05
-3.22294e-05
3.7648e-05
-2.7783e-05
3.97026e-05
-2.40992e-05
4.17874e-05
-2.101e-05
4.38876e-05
-1.84345e-05
4.59568e-05
-1.62303e-05
4.80079e-05
-1.4394e-05
5.00144e-05
-1.27942e-05
5.20276e-05
-1.14809e-05
5.39791e-05
-1.03177e-05
5.5946e-05
-9.39161e-06
5.79104e-05
-8.55595e-06
-7.85881e-06
5.98529e-05
3.6265e-05
-0.000109758
-3.96313e-05
3.43616e-05
-9.04672e-05
3.35631e-05
-7.51566e-05
3.35832e-05
-6.29659e-05
3.42105e-05
-5.32267e-05
3.52634e-05
-4.53618e-05
3.65815e-05
-3.89745e-05
3.80663e-05
-3.37142e-05
3.9624e-05
-2.93407e-05
4.12499e-05
-2.57252e-05
4.29227e-05
-2.26827e-05
4.45863e-05
-2.0098e-05
4.62835e-05
-1.79276e-05
4.80132e-05
-1.61237e-05
4.97587e-05
-1.45397e-05
5.15396e-05
-1.32618e-05
5.33829e-05
-1.21611e-05
5.52183e-05
-1.1227e-05
5.70935e-05
-1.04311e-05
-9.79061e-06
5.90253e-05
3.82238e-05
-0.00010665
-4.13315e-05
3.64091e-05
-8.86522e-05
3.55749e-05
-7.43221e-05
3.54719e-05
-6.28627e-05
3.58716e-05
-5.36263e-05
3.66188e-05
-4.61088e-05
3.76144e-05
-3.997e-05
3.87617e-05
-3.48615e-05
4.0049e-05
-3.0628e-05
4.14249e-05
-2.71012e-05
4.28701e-05
-2.41278e-05
4.43952e-05
-2.16232e-05
4.59714e-05
-1.95037e-05
4.75913e-05
-1.77436e-05
4.93172e-05
-1.62656e-05
5.10576e-05
-1.50023e-05
5.2832e-05
-1.39354e-05
5.46756e-05
-1.30707e-05
5.65656e-05
-1.23211e-05
-1.17015e-05
5.84764e-05
3.97786e-05
-0.000103596
-4.28325e-05
3.79209e-05
-8.67943e-05
3.69683e-05
-7.33693e-05
3.66618e-05
-6.25561e-05
3.68257e-05
-5.37902e-05
3.73374e-05
-4.66206e-05
3.80693e-05
-4.07018e-05
3.90266e-05
-3.58188e-05
4.01149e-05
-3.17163e-05
4.13036e-05
-2.82899e-05
4.26124e-05
-2.54366e-05
4.40286e-05
-2.30394e-05
4.55424e-05
-2.10176e-05
4.71043e-05
-1.93054e-05
4.87438e-05
-1.79051e-05
5.04553e-05
-1.67138e-05
5.22316e-05
-1.57117e-05
5.40639e-05
-1.4903e-05
5.59291e-05
-1.41862e-05
-1.3629e-05
5.78566e-05
4.10138e-05
-0.000100487
-4.41228e-05
3.9048e-05
-8.48285e-05
3.7921e-05
-7.22423e-05
3.74091e-05
-6.20441e-05
3.7353e-05
-5.3734e-05
3.76372e-05
-4.69048e-05
3.81954e-05
-4.126e-05
3.89531e-05
-3.65765e-05
3.99069e-05
-3.26701e-05
4.10113e-05
-2.93942e-05
4.22603e-05
-2.66855e-05
4.36013e-05
-2.43803e-05
4.50549e-05
-2.24712e-05
4.661e-05
-2.08605e-05
4.82348e-05
-1.95299e-05
4.99372e-05
-1.84162e-05
5.17239e-05
-1.74984e-05
5.35385e-05
-1.67176e-05
5.54227e-05
-1.60704e-05
-1.5544e-05
5.73377e-05
4.1963e-05
-9.7314e-05
-4.51357e-05
3.98468e-05
-8.27122e-05
3.85302e-05
-7.09256e-05
3.78246e-05
-6.13385e-05
3.75842e-05
-5.34936e-05
3.77175e-05
-4.7038e-05
3.81345e-05
-4.16771e-05
3.87955e-05
-3.72375e-05
3.96433e-05
-3.35178e-05
4.06957e-05
-3.04466e-05
4.186e-05
-2.78499e-05
4.31832e-05
-2.57036e-05
4.46127e-05
-2.39007e-05
4.61522e-05
-2.23999e-05
4.77833e-05
-2.1161e-05
4.94811e-05
-2.0114e-05
5.12357e-05
-1.92529e-05
5.30662e-05
-1.85481e-05
5.49536e-05
-1.79578e-05
-1.74614e-05
5.68711e-05
4.26993e-05
-9.3949e-05
-4.60644e-05
4.04025e-05
-8.04154e-05
3.89153e-05
-6.94384e-05
3.80531e-05
-6.04763e-05
3.76621e-05
-5.31025e-05
3.76522e-05
-4.70281e-05
3.79647e-05
-4.19896e-05
3.85285e-05
-3.78013e-05
3.93313e-05
-3.43206e-05
4.03217e-05
-3.1437e-05
4.14735e-05
-2.90016e-05
4.27763e-05
-2.70064e-05
4.41954e-05
-2.53199e-05
4.57244e-05
-2.39289e-05
4.73378e-05
-2.27744e-05
4.90383e-05
-2.18145e-05
5.08099e-05
-2.10245e-05
5.26436e-05
-2.03819e-05
5.45186e-05
-1.98328e-05
-1.94007e-05
5.64579e-05
4.32267e-05
-9.04523e-05
-4.67233e-05
4.07731e-05
-7.79617e-05
3.91322e-05
-6.77975e-05
3.81043e-05
-5.94484e-05
3.75897e-05
-5.25879e-05
3.74926e-05
-4.6931e-05
3.77272e-05
-4.22243e-05
3.82484e-05
-3.83224e-05
3.90095e-05
-3.50818e-05
3.99573e-05
-3.23848e-05
4.11053e-05
-3.01496e-05
4.23813e-05
-2.82824e-05
4.37944e-05
-2.67329e-05
4.53253e-05
-2.54598e-05
4.69409e-05
-2.43901e-05
4.86547e-05
-2.35283e-05
5.04305e-05
-2.28003e-05
5.22574e-05
-2.22087e-05
5.41541e-05
-2.17296e-05
-2.13295e-05
5.6083e-05
4.35877e-05
-8.67938e-05
-4.72461e-05
4.09874e-05
-7.53615e-05
3.91934e-05
-6.60036e-05
3.80633e-05
-5.83183e-05
3.74497e-05
-5.19743e-05
3.72513e-05
-4.67326e-05
3.74272e-05
-4.24002e-05
3.7906e-05
-3.88012e-05
3.86381e-05
-3.58138e-05
3.95832e-05
-3.33299e-05
4.07058e-05
-3.12722e-05
4.1993e-05
-2.95696e-05
4.34065e-05
-2.81464e-05
4.49379e-05
-2.69911e-05
4.65591e-05
-2.60113e-05
4.82663e-05
-2.52355e-05
5.00505e-05
-2.45845e-05
5.1896e-05
-2.40543e-05
5.37846e-05
-2.36181e-05
-2.328e-05
5.57351e-05
4.38251e-05
-8.29926e-05
-4.76263e-05
4.10752e-05
-7.26116e-05
3.91546e-05
-6.4083e-05
3.79091e-05
-5.70727e-05
3.7213e-05
-5.12783e-05
3.69763e-05
-4.64958e-05
3.7109e-05
-4.2533e-05
3.75584e-05
-3.92505e-05
3.82613e-05
-3.65168e-05
3.91954e-05
-3.4264e-05
4.03154e-05
-3.23922e-05
4.16029e-05
-3.0857e-05
4.30208e-05
-2.95643e-05
4.45475e-05
-2.85179e-05
4.62009e-05
-2.76647e-05
4.79044e-05
-2.6939e-05
4.96927e-05
-2.63727e-05
5.15479e-05
-2.59096e-05
5.34569e-05
-2.5527e-05
-2.52259e-05
5.54027e-05
4.39361e-05
-7.90476e-05
-4.78811e-05
4.10479e-05
-6.97234e-05
3.90285e-05
-6.20635e-05
3.7695e-05
-5.57393e-05
3.69322e-05
-5.05154e-05
3.66368e-05
-4.62005e-05
3.67362e-05
-4.26323e-05
3.71532e-05
-3.96675e-05
3.78557e-05
-3.72193e-05
3.87878e-05
-3.51961e-05
3.99225e-05
-3.35269e-05
4.12012e-05
-3.21357e-05
4.26266e-05
-3.09898e-05
4.41728e-05
-3.0064e-05
4.58105e-05
-2.93024e-05
4.75481e-05
-2.86765e-05
4.935e-05
-2.81747e-05
5.12015e-05
-2.77611e-05
5.31208e-05
-2.74463e-05
-2.71789e-05
5.50739e-05
4.39393e-05
-7.49603e-05
-4.80267e-05
4.09346e-05
-6.67187e-05
3.88029e-05
-5.99318e-05
3.73916e-05
-5.4328e-05
3.65793e-05
-4.97031e-05
3.62453e-05
-4.58665e-05
3.63191e-05
-4.2706e-05
3.67343e-05
-4.00828e-05
3.74316e-05
-3.79166e-05
3.83526e-05
-3.61171e-05
3.94786e-05
-3.46529e-05
4.07703e-05
-3.34274e-05
4.22139e-05
-3.24334e-05
4.37706e-05
-3.16207e-05
4.54207e-05
-3.09525e-05
4.71601e-05
-3.04159e-05
4.89691e-05
-2.99837e-05
5.08448e-05
-2.96367e-05
5.27617e-05
-2.93633e-05
-2.91538e-05
5.47366e-05
4.3836e-05
-7.0739e-05
-4.80573e-05
4.07224e-05
-6.36051e-05
3.85051e-05
-5.77144e-05
3.70283e-05
-5.28512e-05
3.61597e-05
-4.88345e-05
3.58011e-05
-4.55078e-05
3.58568e-05
-4.27617e-05
3.62523e-05
-4.04782e-05
3.69465e-05
-3.86108e-05
3.78833e-05
-3.70539e-05
3.90153e-05
-3.57848e-05
4.03254e-05
-3.47375e-05
4.1783e-05
-3.3891e-05
4.33429e-05
-3.31806e-05
4.50159e-05
-3.26255e-05
4.67646e-05
-3.21646e-05
4.8581e-05
-3.18002e-05
5.04659e-05
-3.15217e-05
5.24059e-05
-3.13032e-05
-3.11272e-05
5.43792e-05
4.36529e-05
-6.63935e-05
-4.79983e-05
4.04348e-05
-6.0387e-05
3.81414e-05
-5.5421e-05
3.66056e-05
-5.13154e-05
3.56954e-05
-4.79243e-05
3.53025e-05
-4.5115e-05
3.53342e-05
-4.27934e-05
3.57395e-05
-4.08835e-05
3.6425e-05
-3.92963e-05
3.73743e-05
-3.80032e-05
3.85201e-05
-3.69307e-05
3.98317e-05
-3.60491e-05
4.12907e-05
-3.535e-05
4.2874e-05
-3.47639e-05
4.4552e-05
-3.43035e-05
4.63169e-05
-3.39295e-05
4.81627e-05
-3.36459e-05
5.0054e-05
-3.34129e-05
5.19951e-05
-3.32443e-05
-3.31221e-05
5.399e-05
4.33876e-05
-6.19329e-05
-4.78482e-05
4.00708e-05
-5.70702e-05
3.77011e-05
-5.30513e-05
3.61098e-05
-4.97241e-05
3.51608e-05
-4.69753e-05
3.47485e-05
-4.47027e-05
3.4773e-05
-4.2818e-05
3.51602e-05
-4.12707e-05
3.58564e-05
-3.99925e-05
3.68016e-05
-3.89484e-05
3.79558e-05
-3.80849e-05
3.92895e-05
-3.73828e-05
4.07627e-05
-3.68232e-05
4.23621e-05
-3.63633e-05
4.4054e-05
-3.59953e-05
4.58427e-05
-3.57183e-05
4.76866e-05
-3.54898e-05
4.95977e-05
-3.5324e-05
5.15613e-05
-3.52079e-05
-3.51185e-05
5.35577e-05
4.30452e-05
-5.73545e-05
-4.76236e-05
3.96405e-05
-5.36655e-05
3.72003e-05
-5.06111e-05
3.556e-05
-4.80838e-05
3.45753e-05
-4.59906e-05
3.41341e-05
-4.42615e-05
3.41497e-05
-4.28336e-05
3.45361e-05
-4.1657e-05
3.52339e-05
-4.06903e-05
3.61816e-05
-3.98961e-05
3.73466e-05
-3.92499e-05
3.86921e-05
-3.87282e-05
4.01798e-05
-3.83109e-05
4.17914e-05
-3.79749e-05
4.35034e-05
-3.77073e-05
4.52955e-05
-3.75103e-05
4.71615e-05
-3.73559e-05
4.90897e-05
-3.72521e-05
5.10554e-05
-3.71736e-05
-3.71352e-05
5.30721e-05
4.26316e-05
-5.26729e-05
-4.73132e-05
3.91417e-05
-5.01756e-05
3.66362e-05
-4.81057e-05
3.49441e-05
-4.63917e-05
3.39258e-05
-4.49723e-05
3.34645e-05
-4.38002e-05
3.3464e-05
-4.28331e-05
3.38445e-05
-4.20375e-05
3.45422e-05
-4.1388e-05
3.55011e-05
-4.0855e-05
3.66816e-05
-4.04305e-05
3.80351e-05
-4.00816e-05
3.95349e-05
-3.98108e-05
4.11605e-05
-3.96005e-05
4.28906e-05
-3.94375e-05
4.46978e-05
-3.93175e-05
4.65824e-05
-3.92404e-05
4.85152e-05
-3.9185e-05
5.05015e-05
-3.91599e-05
-3.91581e-05
5.25243e-05
4.2145e-05
-4.79012e-05
-4.69168e-05
3.85759e-05
-4.66064e-05
3.60087e-05
-4.55385e-05
3.42706e-05
-4.46537e-05
3.32204e-05
-4.3922e-05
3.27366e-05
-4.33165e-05
3.27221e-05
-4.28185e-05
3.30987e-05
-4.24142e-05
3.37928e-05
-4.20821e-05
3.47581e-05
-4.18203e-05
3.59411e-05
-4.16135e-05
3.73092e-05
-4.14497e-05
3.88242e-05
-4.13258e-05
4.04624e-05
-4.12386e-05
4.22028e-05
-4.1178e-05
4.40308e-05
-4.11455e-05
4.59232e-05
-4.11329e-05
4.78747e-05
-4.11365e-05
4.98745e-05
-4.11596e-05
-4.11916e-05
5.1908e-05
4.15927e-05
-4.64406e-05
-4.30533e-05
3.79515e-05
-4.29653e-05
3.53232e-05
-4.29102e-05
3.35413e-05
-4.28718e-05
3.24571e-05
-4.28377e-05
3.19521e-05
-4.28115e-05
3.1924e-05
-4.27903e-05
3.22889e-05
-4.27791e-05
3.29852e-05
-4.27784e-05
3.39507e-05
-4.27857e-05
3.51376e-05
-4.28004e-05
3.65139e-05
-4.28261e-05
3.80437e-05
-4.28555e-05
3.96954e-05
-4.28903e-05
4.14508e-05
-4.29334e-05
4.32857e-05
-4.29804e-05
4.51948e-05
-4.30419e-05
4.71601e-05
-4.31018e-05
4.91667e-05
-4.31662e-05
5.12172e-05
-4.32422e-05
6.01013e-05
-6.00755e-06
4.04405e-06
6.19096e-05
-6.93242e-06
5.1241e-06
6.35982e-05
-8.02238e-06
6.33385e-06
6.51889e-05
-9.38703e-06
7.79633e-06
6.6635e-05
-1.10194e-05
9.57332e-06
6.79278e-05
-1.30239e-05
1.17311e-05
6.9035e-05
-1.54594e-05
1.43522e-05
6.99124e-05
-1.84073e-05
1.75299e-05
7.05225e-05
-2.19905e-05
2.13803e-05
7.0822e-05
-2.63277e-05
2.60281e-05
7.07672e-05
-3.1568e-05
3.16228e-05
7.03162e-05
-3.78872e-05
3.83381e-05
6.94309e-05
-4.54883e-05
4.63736e-05
6.80765e-05
-5.46158e-05
5.59702e-05
6.62197e-05
-6.5554e-05
6.74107e-05
6.38038e-05
-7.86414e-05
8.10572e-05
6.07316e-05
-9.42794e-05
9.73517e-05
5.68518e-05
-0.000112964
0.000116844
5.19485e-05
-0.000135304
0.000140207
-0.000162027
0.000168185
4.57905e-05
6.17763e-05
-7.93097e-06
6.36658e-05
-8.82188e-06
6.54815e-05
-9.83805e-06
6.71807e-05
-1.10863e-05
6.87959e-05
-1.26345e-05
7.02384e-05
-1.44664e-05
7.15093e-05
-1.67303e-05
7.25476e-05
-1.94456e-05
7.33266e-05
-2.27695e-05
7.37835e-05
-2.67846e-05
7.38844e-05
-3.1669e-05
7.35689e-05
-3.75717e-05
7.27893e-05
-4.47088e-05
7.14799e-05
-5.33064e-05
6.95774e-05
-6.36515e-05
6.69989e-05
-7.60629e-05
6.36468e-05
-9.09273e-05
5.94003e-05
-0.000108718
5.40849e-05
-0.000129989
-0.000155475
4.75332e-05
6.09586e-05
-9.86425e-06
6.2812e-05
-1.06753e-05
6.46552e-05
-1.16812e-05
6.64492e-05
-1.28803e-05
6.81337e-05
-1.43191e-05
6.97233e-05
-1.6056e-05
7.11457e-05
-1.81527e-05
7.23993e-05
-2.06992e-05
7.34315e-05
-2.38017e-05
7.41721e-05
-2.75252e-05
7.45699e-05
-3.20668e-05
7.45536e-05
-3.75554e-05
7.40376e-05
-4.41928e-05
7.29607e-05
-5.22296e-05
7.12224e-05
-6.19132e-05
6.87389e-05
-7.35794e-05
6.5411e-05
-8.75994e-05
6.11078e-05
-0.000104415
5.56801e-05
-0.000124561
-0.000148711
4.89159e-05
6.03908e-05
-1.17786e-05
6.22827e-05
-1.25673e-05
6.4126e-05
-1.35244e-05
6.59005e-05
-1.46549e-05
6.75773e-05
-1.59958e-05
6.91778e-05
-1.76565e-05
7.06478e-05
-1.96227e-05
7.19482e-05
-2.19996e-05
7.30388e-05
-2.48924e-05
7.38936e-05
-2.83799e-05
7.44267e-05
-3.25999e-05
7.45721e-05
-3.77009e-05
7.42704e-05
-4.3891e-05
7.34011e-05
-5.13603e-05
7.18843e-05
-6.03964e-05
6.96039e-05
-7.1299e-05
6.64314e-05
-8.44269e-05
6.22307e-05
-0.000100214
5.68319e-05
-0.000119162
-0.000141909
5.00303e-05
5.97877e-05
-1.37096e-05
6.16651e-05
-1.44447e-05
6.35058e-05
-1.53651e-05
6.52704e-05
-1.64195e-05
6.69859e-05
-1.77113e-05
6.85849e-05
-1.92555e-05
7.00732e-05
-2.1111e-05
7.14062e-05
-2.33326e-05
7.25549e-05
-2.60411e-05
7.34658e-05
-2.92908e-05
7.40793e-05
-3.32134e-05
7.43548e-05
-3.79764e-05
7.41721e-05
-4.37084e-05
7.34702e-05
-5.06583e-05
7.21271e-05
-5.90534e-05
7.00223e-05
-6.91942e-05
6.70178e-05
-8.14225e-05
6.29614e-05
-9.61577e-05
5.76717e-05
-0.000113873
-0.000135144
5.09066e-05
5.92572e-05
-1.56291e-05
6.11518e-05
-1.63394e-05
6.29813e-05
-1.71946e-05
6.47752e-05
-1.82133e-05
6.64776e-05
-1.94137e-05
6.80823e-05
-2.08602e-05
6.95805e-05
-2.26092e-05
7.09275e-05
-2.46797e-05
7.20994e-05
-2.7213e-05
7.30413e-05
-3.02327e-05
7.37102e-05
-3.38823e-05
7.40333e-05
-3.82994e-05
7.39491e-05
-4.36242e-05
7.33517e-05
-5.00609e-05
7.21371e-05
-5.78388e-05
7.01769e-05
-6.72339e-05
6.7329e-05
-7.85746e-05
6.34189e-05
-9.22476e-05
5.82562e-05
-0.00010871
-0.000128507
5.16187e-05
5.88076e-05
-1.75657e-05
6.06921e-05
-1.82239e-05
6.25375e-05
-1.904e-05
6.43088e-05
-1.99846e-05
6.60275e-05
-2.11323e-05
6.76371e-05
-2.24699e-05
6.9127e-05
-2.4099e-05
7.04929e-05
-2.60456e-05
7.16698e-05
-2.839e-05
7.26434e-05
-3.12063e-05
7.33427e-05
-3.45817e-05
7.37168e-05
-3.86735e-05
7.36823e-05
-4.35897e-05
7.31595e-05
-4.95382e-05
7.2042e-05
-5.67213e-05
7.01929e-05
-6.53848e-05
6.7464e-05
-7.58458e-05
6.36857e-05
-8.84694e-05
5.86484e-05
-0.000103673
-0.000121972
5.21141e-05
5.83867e-05
-1.94945e-05
6.02876e-05
-2.01248e-05
6.21361e-05
-2.08885e-05
6.39227e-05
-2.17713e-05
6.56208e-05
-2.28304e-05
6.72463e-05
-2.40953e-05
6.87505e-05
-2.56033e-05
7.01249e-05
-2.74199e-05
7.13069e-05
-2.9572e-05
7.22826e-05
-3.2182e-05
7.30028e-05
-3.53019e-05
7.33959e-05
-3.90665e-05
7.34047e-05
-4.35985e-05
7.2937e-05
-4.90704e-05
7.18791e-05
-5.56634e-05
7.01148e-05
-6.36205e-05
6.74869e-05
-7.32179e-05
6.38163e-05
-8.47987e-05
5.88975e-05
-9.8754e-05
-0.00011556
5.24854e-05
5.80159e-05
-2.14274e-05
5.99227e-05
-2.20315e-05
6.17768e-05
-2.27427e-05
6.35669e-05
-2.35613e-05
6.52772e-05
-2.45408e-05
6.68939e-05
-2.5712e-05
6.84054e-05
-2.71147e-05
6.97709e-05
-2.87855e-05
7.09714e-05
-3.07724e-05
7.1947e-05
-3.31576e-05
7.26877e-05
-3.60426e-05
7.31044e-05
-3.94832e-05
7.31396e-05
-4.36337e-05
7.27017e-05
-4.86325e-05
7.16919e-05
-5.46537e-05
6.99831e-05
-6.19117e-05
6.74325e-05
-7.06674e-05
6.38549e-05
-8.12212e-05
5.90393e-05
-9.39384e-05
-0.000109256
5.2735e-05
5.76888e-05
-2.33811e-05
5.95866e-05
-2.39294e-05
6.14318e-05
-2.45879e-05
6.32279e-05
-2.53574e-05
6.49547e-05
-2.62675e-05
6.65852e-05
-2.73426e-05
6.80874e-05
-2.86169e-05
6.94564e-05
-3.01545e-05
7.06516e-05
-3.19676e-05
7.16506e-05
-3.41566e-05
7.23803e-05
-3.67723e-05
7.28105e-05
-3.99134e-05
7.28626e-05
-4.36859e-05
7.24492e-05
-4.8219e-05
7.14734e-05
-5.36779e-05
6.98172e-05
-6.02555e-05
6.732e-05
-6.81702e-05
6.38183e-05
-7.77194e-05
5.90927e-05
-8.92128e-05
-0.000103054
5.28908e-05
5.73514e-05
-2.53297e-05
5.92668e-05
-2.58448e-05
6.11307e-05
-2.64518e-05
6.29268e-05
-2.71535e-05
6.4646e-05
-2.79867e-05
6.62692e-05
-2.89658e-05
6.77861e-05
-3.01338e-05
6.91576e-05
-3.1526e-05
7.03641e-05
-3.3174e-05
7.13572e-05
-3.51497e-05
7.20992e-05
-3.75143e-05
7.25355e-05
-4.03497e-05
7.25894e-05
-4.37397e-05
7.21956e-05
-4.78253e-05
7.12431e-05
-5.27254e-05
6.96117e-05
-5.86241e-05
6.71691e-05
-6.57276e-05
6.37215e-05
-7.42718e-05
5.90703e-05
-8.45617e-05
-9.69473e-05
5.29636e-05
5.70391e-05
-2.7295e-05
5.89525e-05
-2.77582e-05
6.08196e-05
-2.83188e-05
6.26147e-05
-2.89487e-05
6.43379e-05
-2.97098e-05
6.59735e-05
-3.06014e-05
6.74902e-05
-3.16506e-05
6.88635e-05
-3.28993e-05
7.00689e-05
-3.43794e-05
7.10658e-05
-3.61467e-05
7.18121e-05
-3.82605e-05
7.22456e-05
-4.07833e-05
7.23121e-05
-4.38062e-05
7.19243e-05
-4.74375e-05
7.09874e-05
-5.17885e-05
6.93874e-05
-5.70241e-05
6.69717e-05
-6.33119e-05
6.35748e-05
-7.08748e-05
5.89883e-05
-7.99752e-05
-9.09212e-05
5.29622e-05
5.6702e-05
-2.92603e-05
5.86307e-05
-2.96869e-05
6.04963e-05
-3.01845e-05
6.23112e-05
-3.07635e-05
6.40402e-05
-3.14389e-05
6.56695e-05
-3.22307e-05
6.71877e-05
-3.31688e-05
6.85602e-05
-3.42718e-05
6.97628e-05
-3.5582e-05
7.07651e-05
-3.7149e-05
7.15096e-05
-3.90051e-05
7.19509e-05
-4.12246e-05
7.20221e-05
-4.38774e-05
7.16354e-05
-4.70508e-05
7.07133e-05
-5.08664e-05
6.91237e-05
-5.54345e-05
6.67355e-05
-6.09238e-05
6.33779e-05
-6.75172e-05
5.88467e-05
-7.54441e-05
-8.49723e-05
5.28978e-05
5.63609e-05
-3.12419e-05
5.82901e-05
-3.16162e-05
6.01694e-05
-3.20637e-05
6.19837e-05
-3.25778e-05
6.37127e-05
-3.31678e-05
6.53453e-05
-3.38632e-05
6.68648e-05
-3.46883e-05
6.82423e-05
-3.56493e-05
6.945e-05
-3.67896e-05
7.04425e-05
-3.81415e-05
7.11885e-05
-3.97511e-05
7.16244e-05
-4.16605e-05
7.16948e-05
-4.39477e-05
7.1321e-05
-4.66771e-05
7.04002e-05
-4.99456e-05
6.88282e-05
-5.38625e-05
6.64627e-05
-5.85583e-05
6.31371e-05
-6.41916e-05
5.86521e-05
-7.09591e-05
-7.90846e-05
5.27645e-05
5.59746e-05
-3.32266e-05
5.79186e-05
-3.35603e-05
5.98063e-05
-3.39514e-05
6.16167e-05
-3.43882e-05
6.33591e-05
-3.49102e-05
6.49952e-05
-3.54993e-05
6.6516e-05
-3.62091e-05
6.78923e-05
-3.70256e-05
6.90971e-05
-3.79944e-05
7.00931e-05
-3.91376e-05
7.08328e-05
-4.04908e-05
7.12756e-05
-4.21033e-05
7.13433e-05
-4.40154e-05
7.09705e-05
-4.63043e-05
7.00566e-05
-4.90316e-05
6.84906e-05
-5.22964e-05
6.61425e-05
-5.62101e-05
6.28433e-05
-6.08924e-05
5.83979e-05
-6.65137e-05
-7.32553e-05
5.25686e-05
5.55579e-05
-3.52267e-05
5.75052e-05
-3.55076e-05
5.9391e-05
-3.58373e-05
6.12213e-05
-3.62185e-05
6.29565e-05
-3.66454e-05
6.46059e-05
-3.71488e-05
6.61245e-05
-3.77276e-05
6.75017e-05
-3.84028e-05
6.87028e-05
-3.91955e-05
6.97006e-05
-4.01354e-05
7.04421e-05
-4.12322e-05
7.08759e-05
-4.25372e-05
7.09472e-05
-4.40867e-05
7.0571e-05
-4.59281e-05
6.96613e-05
-4.8122e-05
6.81085e-05
-5.07436e-05
6.57712e-05
-5.38728e-05
6.24987e-05
-5.76199e-05
5.80919e-05
-6.2107e-05
-6.74819e-05
5.23185e-05
5.50779e-05
-3.72325e-05
5.70369e-05
-3.74665e-05
5.89411e-05
-3.77415e-05
6.07648e-05
-3.80422e-05
6.25128e-05
-3.83934e-05
6.41569e-05
-3.87929e-05
6.56815e-05
-3.92522e-05
6.70599e-05
-3.97812e-05
6.82658e-05
-4.04014e-05
6.92573e-05
-4.11269e-05
6.99969e-05
-4.19718e-05
7.04328e-05
-4.29731e-05
7.05e-05
-4.41538e-05
7.01252e-05
-4.55533e-05
6.92182e-05
-4.7215e-05
6.7667e-05
-4.91924e-05
6.5346e-05
-5.15518e-05
6.2093e-05
-5.43669e-05
5.77163e-05
-5.77303e-05
-6.17594e-05
5.19938e-05
5.45417e-05
-3.92499e-05
5.65109e-05
-3.94358e-05
5.84182e-05
-3.96488e-05
6.02543e-05
-3.98782e-05
6.20054e-05
-4.01445e-05
6.36518e-05
-4.04394e-05
6.51747e-05
-4.07752e-05
6.65561e-05
-4.11626e-05
6.77614e-05
-4.16067e-05
6.87513e-05
-4.21169e-05
6.94917e-05
-4.27122e-05
6.99231e-05
-4.34045e-05
6.99907e-05
-4.42214e-05
6.9615e-05
-4.51775e-05
6.87104e-05
-4.63104e-05
6.71678e-05
-4.76498e-05
6.48569e-05
-4.92409e-05
6.16211e-05
-5.11312e-05
5.72776e-05
-5.33868e-05
-5.60768e-05
5.15951e-05
5.39382e-05
-4.128e-05
5.59145e-05
-4.14121e-05
5.78291e-05
-4.15634e-05
5.96734e-05
-4.17225e-05
6.1427e-05
-4.18981e-05
6.30758e-05
-4.20882e-05
6.46075e-05
-4.23069e-05
6.59886e-05
-4.25436e-05
6.71928e-05
-4.28109e-05
6.81834e-05
-4.31075e-05
6.89183e-05
-4.34471e-05
6.93496e-05
-4.38358e-05
6.94143e-05
-4.42861e-05
6.9041e-05
-4.48042e-05
6.8138e-05
-4.54074e-05
6.66012e-05
-4.6113e-05
6.4301e-05
-4.69406e-05
6.10866e-05
-4.79168e-05
5.6771e-05
-4.90712e-05
-5.04359e-05
5.11301e-05
5.32558e-05
-4.33186e-05
5.52431e-05
-4.33994e-05
5.71685e-05
-4.34888e-05
5.9018e-05
-4.35721e-05
6.07761e-05
-4.36562e-05
6.24273e-05
-4.37394e-05
6.39583e-05
-4.3838e-05
6.53407e-05
-4.3926e-05
6.65409e-05
-4.4011e-05
6.75291e-05
-4.40957e-05
6.82671e-05
-4.41851e-05
6.86929e-05
-4.42617e-05
6.87523e-05
-4.43455e-05
6.83869e-05
-4.44387e-05
6.74859e-05
-4.45065e-05
6.59549e-05
-4.4582e-05
6.36694e-05
-4.46551e-05
6.04727e-05
-4.47202e-05
5.61887e-05
-4.47872e-05
5.06013e-05
-4.48484e-05
1.2366e-06
0.00018847
-0.000196107
6.39993e-06
7.37531e-06
0.000156632
-0.00016277
1.21413e-05
0.000129983
-0.000134749
1.57624e-05
0.000107595
-0.000111216
1.84172e-05
8.8843e-05
-9.14979e-05
2.02352e-05
7.31286e-05
-7.49465e-05
2.12211e-05
6.0174e-05
-6.11599e-05
2.15548e-05
4.94818e-05
-4.98154e-05
2.12559e-05
4.0793e-05
-4.04942e-05
2.04409e-05
3.369e-05
-3.2875e-05
1.91965e-05
2.79614e-05
-2.6717e-05
1.76263e-05
2.33093e-05
-2.1739e-05
1.57781e-05
1.95432e-05
-1.76951e-05
1.37102e-05
1.64536e-05
-1.43857e-05
1.14705e-05
1.39602e-05
-1.17204e-05
9.04031e-06
1.19199e-05
-9.48972e-06
6.44621e-06
1.02377e-05
-7.64358e-06
3.66165e-06
8.84421e-06
-6.05966e-06
6.34581e-07
7.71206e-06
-4.68496e-06
6.79908e-06
-2.63622e-06
-3.52829e-06
7.97466e-07
0.000180936
6.73682e-06
6.72901e-06
0.0001507
1.13328e-05
0.000125379
1.48313e-05
0.000104096
1.73561e-05
8.63182e-05
1.89421e-05
7.15427e-05
1.97339e-05
5.93821e-05
1.97684e-05
4.94473e-05
1.91905e-05
4.1371e-05
1.80623e-05
3.48182e-05
1.65616e-05
2.9462e-05
1.47235e-05
2.51474e-05
1.26681e-05
2.15987e-05
1.04465e-05
1.86752e-05
8.09933e-06
1.63074e-05
5.67988e-06
1.43394e-05
3.21748e-06
1.27001e-05
6.81461e-07
1.13802e-05
-1.84667e-06
1.02402e-05
9.31421e-06
-4.36181e-06
2.4696e-07
0.000173544
7.14514e-06
6.04818e-06
0.000144899
1.05675e-05
0.00012086
1.39012e-05
0.000100762
1.61759e-05
8.40435e-05
1.74835e-05
7.02351e-05
1.79538e-05
5.89118e-05
1.76954e-05
4.97058e-05
1.68742e-05
4.21922e-05
1.56552e-05
3.60372e-05
1.40731e-05
3.10441e-05
1.22877e-05
2.69329e-05
1.03448e-05
2.35415e-05
8.24005e-06
2.078e-05
6.0582e-06
1.84892e-05
3.82074e-06
1.65769e-05
1.5264e-06
1.49945e-05
-7.9007e-07
1.36967e-05
-3.15117e-06
1.26013e-05
1.17056e-05
-5.54255e-06
-2.75019e-07
0.000166218
7.60072e-06
5.4827e-06
0.000139141
9.8497e-06
0.000116493
1.3017e-05
9.75952e-05
1.50794e-05
8.19811e-05
1.61701e-05
6.91445e-05
1.64424e-05
5.86395e-05
1.61258e-05
5.00223e-05
1.53199e-05
4.29982e-05
1.4113e-05
3.72441e-05
1.26602e-05
3.24969e-05
1.09623e-05
2.86309e-05
9.11122e-06
2.53926e-05
7.13141e-06
2.27598e-05
5.06362e-06
2.0557e-05
2.88667e-06
1.87538e-05
6.57445e-07
1.72237e-05
-1.60768e-06
1.59618e-05
-3.95094e-06
1.49446e-05
1.40511e-05
-6.2965e-06
-7.09107e-07
0.000158911
8.01601e-06
4.96339e-06
0.000133469
9.22147e-06
0.000112235
1.22225e-05
9.45942e-05
1.41141e-05
8.00895e-05
1.51058e-05
6.81528e-05
1.53798e-05
5.83656e-05
1.5053e-05
5.03491e-05
1.42736e-05
4.37776e-05
1.31552e-05
3.83625e-05
1.1759e-05
3.38931e-05
1.01572e-05
3.02327e-05
8.37604e-06
2.71737e-05
6.45737e-06
2.46785e-05
4.42118e-06
2.25932e-05
2.30582e-06
2.08692e-05
1.09598e-07
1.94199e-05
-2.14976e-06
1.82212e-05
-4.43478e-06
1.72296e-05
1.6403e-05
-6.78667e-06
-1.05314e-06
0.00015164
8.32507e-06
4.54394e-06
0.000127872
8.70812e-06
0.000108071
1.15767e-05
9.17256e-05
1.3393e-05
7.82732e-05
1.43537e-05
6.71921e-05
1.46145e-05
5.81047e-05
1.43439e-05
5.06198e-05
1.36355e-05
4.4486e-05
1.25729e-05
3.94251e-05
1.12313e-05
3.52347e-05
9.65874e-06
3.18052e-05
7.92023e-06
2.89122e-05
6.03686e-06
2.65618e-05
4.02878e-06
2.46013e-05
1.95551e-06
2.29424e-05
-2.24511e-07
2.16e-05
-2.47243e-06
2.04691e-05
-4.76965e-06
1.95268e-05
1.87508e-05
-7.11744e-06
-1.34434e-06
0.000144402
8.58233e-06
4.22345e-06
0.000122304
8.25792e-06
0.000104036
1.10821e-05
8.89014e-05
1.2886e-05
7.64694e-05
1.38226e-05
6.62555e-05
1.41248e-05
5.78025e-05
1.38672e-05
5.08773e-05
1.3178e-05
4.51752e-05
1.21557e-05
4.04474e-05
1.08513e-05
3.65392e-05
9.33162e-06
3.33249e-05
7.62027e-06
3.06236e-05
5.75889e-06
2.84232e-05
3.78823e-06
2.65719e-05
1.68761e-06
2.5043e-05
-4.83182e-07
2.37708e-05
-2.72506e-06
2.2711e-05
-5.01885e-06
2.18206e-05
2.10774e-05
-7.34545e-06
-1.51354e-06
0.000137201
8.71422e-06
3.94016e-06
0.00011685
7.95669e-06
0.00010002
1.07203e-05
8.61378e-05
1.24895e-05
7.47002e-05
1.34763e-05
6.52686e-05
1.37576e-05
5.75213e-05
1.35491e-05
5.10858e-05
1.29107e-05
4.58136e-05
1.19171e-05
4.1441e-05
1.06175e-05
3.78388e-05
9.14016e-06
3.48022e-05
7.42586e-06
3.23379e-05
5.57822e-06
3.02708e-05
3.59751e-06
2.85527e-05
1.52423e-06
2.71163e-05
-6.4214e-07
2.59371e-05
-2.86168e-06
2.49305e-05
-5.15534e-06
2.41143e-05
2.34256e-05
-7.50355e-06
-1.6414e-06
0.000130061
8.78154e-06
3.75295e-06
0.000111456
7.70367e-06
9.60691e-05
1.04658e-05
8.33756e-05
1.2231e-05
7.29351e-05
1.32063e-05
6.42933e-05
1.35478e-05
5.71798e-05
1.33399e-05
5.12937e-05
1.27026e-05
4.64509e-05
1.17294e-05
4.24142e-05
1.04888e-05
3.90794e-05
8.98504e-06
3.6306e-05
7.30279e-06
3.40201e-05
5.46383e-06
3.21098e-05
3.4891e-06
3.05274e-05
1.41954e-06
2.91859e-05
-7.45235e-07
2.81019e-05
-2.98517e-06
2.71705e-05
-5.28057e-06
2.64097e-05
2.57568e-05
-7.61169e-06
-1.72135e-06
0.000122954
8.82798e-06
3.64978e-06
0.000106085
7.56944e-06
9.21495e-05
1.02956e-05
8.06495e-05
1.20817e-05
7.11489e-05
1.30447e-05
6.33303e-05
1.34005e-05
5.68241e-05
1.32088e-05
5.14854e-05
1.26084e-05
4.70513e-05
1.16288e-05
4.33938e-05
1.038e-05
4.03282e-05
8.90684e-06
3.77791e-05
7.23216e-06
3.56948e-05
5.39845e-06
3.39435e-05
3.44736e-06
3.24785e-05
1.3586e-06
3.12746e-05
-7.86187e-07
3.02467e-05
-3.02809e-06
2.94123e-05
-5.32674e-06
2.87083e-05
2.81125e-05
-7.68252e-06
-1.75458e-06
0.000115909
8.79922e-06
3.55734e-06
0.000100773
7.45357e-06
8.82532e-05
1.01914e-05
7.79116e-05
1.19566e-05
6.93838e-05
1.29695e-05
6.23174e-05
1.32936e-05
5.64999e-05
1.3114e-05
5.1665e-05
1.25254e-05
4.76399e-05
1.1598e-05
4.43212e-05
1.03578e-05
4.15684e-05
8.8707e-06
3.92663e-05
7.20081e-06
3.73647e-05
5.37003e-06
3.57743e-05
3.39964e-06
3.44489e-05
1.33095e-06
3.33433e-05
-8.36038e-07
3.24137e-05
-3.08108e-06
3.16574e-05
-5.36363e-06
3.09909e-05
3.04737e-05
-7.72483e-06
-1.74554e-06
0.000108897
8.7581e-06
3.53309e-06
9.54941e-05
7.4313e-06
8.4355e-05
1.01393e-05
7.52036e-05
1.19046e-05
6.76185e-05
1.29014e-05
6.13205e-05
1.32759e-05
5.61254e-05
1.3105e-05
5.18359e-05
1.25039e-05
4.8241e-05
1.15631e-05
4.5262e-05
1.03289e-05
4.28026e-05
8.86691e-06
4.07283e-05
7.19981e-06
3.90318e-05
5.37026e-06
3.76038e-05
3.39959e-06
3.64195e-05
1.32928e-06
3.54136e-05
-8.40619e-07
3.45836e-05
-3.06928e-06
3.3886e-05
-5.39779e-06
3.33194e-05
3.28207e-05
-7.74475e-06
-1.71693e-06
0.00010196
8.65356e-06
3.57322e-06
9.0204e-05
7.40901e-06
8.05192e-05
1.01302e-05
7.24824e-05
1.19155e-05
6.58332e-05
1.28941e-05
6.03419e-05
1.32528e-05
5.57667e-05
1.31092e-05
5.19795e-05
1.25349e-05
4.88153e-05
1.15991e-05
4.61978e-05
1.03688e-05
4.40329e-05
8.88863e-06
4.22084e-05
7.22279e-06
4.06976e-05
5.39316e-06
3.94335e-05
3.44173e-06
3.8371e-05
1.34823e-06
3.75071e-05
-8.25428e-07
3.67572e-05
-3.07937e-06
3.614e-05
-5.37281e-06
3.56128e-05
3.51948e-05
-7.74696e-06
-1.60736e-06
9.50482e-05
8.51946e-06
3.60632e-06
8.49903e-05
7.44477e-06
7.66808e-05
1.01565e-05
6.97707e-05
1.19176e-05
6.40721e-05
1.29187e-05
5.93409e-05
1.33017e-05
5.53837e-05
1.31408e-05
5.21404e-05
1.25493e-05
4.94067e-05
1.16168e-05
4.71304e-05
1.03888e-05
4.52609e-05
8.93058e-06
4.36666e-05
7.26478e-06
4.23634e-05
5.43402e-06
4.12642e-05
3.45969e-06
4.03453e-05
1.38342e-06
3.95834e-05
-7.74061e-07
3.89147e-05
-3.03346e-06
3.83994e-05
-5.35374e-06
3.79331e-05
3.75763e-05
-7.7352e-06
-1.49804e-06
8.81786e-05
8.36765e-06
3.68761e-06
7.98046e-05
7.5303e-06
7.28381e-05
1.02112e-05
6.70898e-05
1.19684e-05
6.23148e-05
1.29903e-05
5.8319e-05
1.33322e-05
5.50418e-05
1.31945e-05
5.22781e-05
1.26261e-05
4.99752e-05
1.16741e-05
4.80823e-05
1.04679e-05
4.64672e-05
8.98879e-06
4.51457e-05
7.32196e-06
4.40303e-05
5.48917e-06
4.3097e-05
3.51179e-06
4.23227e-05
1.45219e-06
4.1643e-05
-7.51515e-07
4.11184e-05
-3.01684e-06
4.06647e-05
-5.34393e-06
4.02602e-05
3.99449e-05
-7.71254e-06
-1.36418e-06
8.13501e-05
8.19268e-06
3.81556e-06
7.46249e-05
7.5976e-06
6.9056e-05
1.02901e-05
6.43973e-05
1.20639e-05
6.05411e-05
1.30412e-05
5.73417e-05
1.34252e-05
5.46578e-05
1.32667e-05
5.24366e-05
1.26776e-05
5.05642e-05
1.17677e-05
4.89922e-05
1.05191e-05
4.77158e-05
9.05975e-06
4.66051e-05
7.39094e-06
4.56991e-05
5.55532e-06
4.49327e-05
3.59495e-06
4.4283e-05
1.4894e-06
4.37486e-05
-6.99179e-07
4.3307e-05
-2.95021e-06
4.29157e-05
-5.2845e-06
4.25945e-05
4.23421e-05
-7.68168e-06
-1.20971e-06
7.45544e-05
8.00545e-06
3.92141e-06
6.94938e-05
7.72942e-06
6.5248e-05
1.039e-05
6.17367e-05
1.21364e-05
5.87947e-05
1.31318e-05
5.63462e-05
1.34928e-05
5.42968e-05
1.33542e-05
5.25752e-05
1.27852e-05
5.11333e-05
1.1832e-05
4.99454e-05
1.06237e-05
4.89241e-05
9.14125e-06
4.80875e-05
7.46962e-06
4.73707e-05
5.63044e-06
4.67718e-05
3.64497e-06
4.62685e-05
1.55497e-06
4.58386e-05
-6.39589e-07
4.55015e-05
-2.89734e-06
4.51735e-05