/*--------------------------------*- C++ -*----------------------------------*\
| =========                 |                                                 |
| \\      /  F ield         | OpenFOAM: The Open Source CFD Toolbox           |
|  \\    /   O peration     | Version:  2.3.0                                 |
|   \\  /    A nd           | Web:      www.OpenFOAM.org                      |
|    \\/     M anipulation  |                                                 |
\*---------------------------------------------------------------------------*/
FoamFile
{
    version     2.0;
    format      ascii;
    class       volScalarField;
    location    "150";
    object      p;
}
// * * * * * * * * * * * * * * * * * * * * * * * * * * * * * * * * * * * * * //

dimensions      [0 2 -2 0 0 0 0];

internalField   nonuniform List<scalar> 
7826
(
-0.008626
-0.7677
-1.27424
-1.47334
-1.38243
-1.05775
-0.557722
0.0750488
0.833921
1.74279
2.83502
4.10982
5.49449
7.21362
10.5342
2.124
1.6918
1.30803
1.03195
0.929575
1.06854
1.50363
2.26392
3.35114
4.73951
6.38548
8.23446
10.2277
12.3269
14.5045
4.35537
4.53448
4.86805
5.35641
5.97913
6.70541
7.5039
8.34892
9.22036
10.1035
10.9861
11.8602
12.715
13.5464
14.3554
5.88746
6.16205
6.52154
6.9621
7.48116
8.07119
8.72143
9.41973
10.1527
10.9083
11.6735
12.4389
13.1936
13.9316
14.649
7.12638
7.48627
7.91062
8.38614
8.90318
9.45047
10.0178
10.5972
11.1812
11.7654
12.345
12.9169
13.4779
14.0262
14.5612
8.04053
8.39821
8.79865
9.22773
9.68146
10.1541
10.6403
11.1358
11.6362
12.1385
12.6397
13.1373
13.6289
14.1125
14.5872
8.75433
9.09445
9.46945
9.86088
10.2673
10.6851
11.1111
11.5428
11.9775
12.4138
12.8496
13.2837
13.714
14.1396
14.5592
9.31391
9.62106
9.96308
10.3151
10.6781
11.0502
11.4294
11.8143
12.2032
12.5948
12.9877
13.3809
13.7725
14.1618
14.5469
9.76198
10.0341
10.3437
10.6617
10.9892
11.325
11.6677
12.0165
12.3701
12.7275
13.0876
13.4492
13.811
14.1718
14.5302
10.1166
10.3607
10.6402
10.9292
11.228
11.5345
11.8489
12.1695
12.4958
12.827
13.1618
13.4989
13.8376
14.1767
14.5147
10.3804
10.6151
10.8729
11.1387
11.4155
11.6981
11.9905
12.2884
12.593
12.9034
13.2189
13.5364
13.8571
14.179
14.5009
10.5751
10.8135
11.0568
11.3033
11.5637
11.826
12.1012
12.3804
12.668
12.9611
13.2629
13.5671
13.8769
14.1873
14.4961
10.7931
10.9997
11.2172
11.4468
11.6927
11.9369
12.1982
12.4626
12.7394
13.0198
13.3029
13.5852
13.8739
14.17
14.4694
11.0159
11.1802
11.4006
11.5845
11.8449
12.0357
12.3152
12.551
12.8102
13.0785
13.3759
13.5713
13.812
14.0808
14.3702
17.2044
20.0824
21.5959
23.1132
24.6361
26.0544
27.3419
28.4957
29.4871
30.2576
30.7372
30.8651
30.6139
30.0205
29.2288
16.6772
18.8183
20.8242
22.6768
24.3423
25.779
26.9485
27.8203
28.384
28.6508
28.6525
28.4395
28.0701
27.6038
27.1053
15.1555
15.9696
16.8074
17.672
18.5567
19.4528
20.3507
21.2355
22.0884
22.8836
23.5896
24.171
24.5967
24.8575
24.9845
15.3546
16.0646
16.7876
17.52
18.2546
18.9808
19.6897
20.3688
21.0068
21.5921
22.1136
22.5615
22.9287
23.2171
23.4315
15.0897
15.6237
16.1691
16.725
17.2892
17.8581
18.4281
18.9943
19.5506
20.0895
20.6012
21.0744
21.4974
21.8641
22.1583
15.0564
15.5282
16.0059
16.4884
16.9737
17.4592
17.9421
18.4193
18.8874
19.3422
19.7789
20.1921
20.5754
20.9272
21.2506
14.9753
15.393
15.8145
16.2385
16.6638
17.0883
17.5105
17.9282
18.3397
18.7419
19.1322
19.5068
19.8616
20.193
20.4914
14.9296
15.3127
15.6977
16.0832
16.4676
16.8498
17.2282
17.6011
17.9675
18.3255
18.6733
19.0089
19.3293
19.6313
19.9194
14.8869
15.2433
15.6003
15.9565
16.3104
16.6605
17.0062
17.3458
17.6782
18.0026
18.3174
18.6213
18.9114
19.1837
19.4569
14.8516
15.1878
15.5238
15.8579
16.1885
16.5143
16.8346
17.1482
17.4542
17.7517
18.0401
18.3184
18.5849
18.8374
19.1025
14.8229
15.1428
15.463
15.7796
16.0912
16.397
16.6971
16.9898
17.2747
17.5506
17.8177
18.0744
18.3207
18.5538
18.7973
14.8063
15.1119
15.4188
15.7194
16.014
16.302
16.5863
16.8617
17.1294
17.3873
17.6378
17.8761
18.1053
18.3217
18.5401
14.7675
15.0613
15.3529
15.6514
15.9407
16.2141
16.4854
16.7483
17.0034
17.2453
17.4806
17.7005
17.9144
18.1145
18.3188
14.7002
14.9478
15.2709
15.5853
15.8755
16.1291
16.3858
16.6412
16.8874
17.1135
17.3309
17.5337
17.7304
17.905
18.0687
11.3987
11.5018
11.6472
11.8425
12.0725
12.313
12.5367
12.722
12.8564
12.9373
12.9691
12.9566
12.9035
12.8039
12.8293
11.5152
11.5465
11.5594
11.5502
11.5157
11.4605
11.394
11.3271
11.2689
11.2244
11.1943
11.1748
11.1657
11.1499
11.166
11.5457
11.5287
11.4814
11.4214
11.3611
11.3109
11.2765
11.2586
11.2546
11.2597
11.2686
11.2754
11.2812
11.2898
11.3115
11.6438
11.6549
11.66
11.6708
11.6891
11.7133
11.7407
11.7689
11.7957
11.8194
11.8387
11.8509
11.8577
11.8688
11.8903
11.7652
11.7969
11.8235
11.8514
11.8796
11.9065
11.9322
11.9566
11.9799
12.0014
12.0199
12.0338
12.0432
12.0573
12.081
11.8439
11.8786
11.8981
11.9163
11.9343
11.9522
11.9709
11.9905
12.0103
12.0295
12.0464
12.0594
12.0688
12.0831
12.1079
11.9117
11.9371
11.953
11.9692
11.9859
12.0026
12.0197
12.0369
12.0538
12.0696
12.0831
12.0933
12.1009
12.1141
12.1392
11.9765
11.9977
12.0142
12.0308
12.0469
12.0619
12.0759
12.0889
12.1007
12.111
12.1192
12.1249
12.1293
12.1406
12.1658
12.0161
12.0483
12.0674
12.0842
12.0986
12.1105
12.1201
12.1273
12.1322
12.1346
12.1343
12.1317
12.1293
12.1366
12.1616
12.0798
12.0978
12.1154
12.1311
12.1441
12.154
12.1606
12.1635
12.1622
12.1565
12.1454
12.1291
12.1128
12.1081
12.1279
12.1255
12.1443
12.1597
12.1735
12.1853
12.1939
12.1978
12.1956
12.1871
12.1718
12.145
12.1052
12.0591
12.0377
12.054
12.1661
12.1872
12.2031
12.2181
12.2329
12.2462
12.2557
12.2582
12.2527
12.2431
12.2219
12.1551
12.0622
11.9686
11.9492
12.2036
12.2158
12.2264
12.2376
12.2497
12.26
12.2643
12.2532
12.2273
12.2101
12.185
12.0812
11.8312
11.7417
11.7051
12.274
12.2939
12.3033
12.3172
12.3497
12.3936
12.4487
12.4951
12.4866
12.533
12.7416
12.6577
12.3029
11.7392
11.4265
12.8874
12.9302
13.0951
13.2106
13.291
13.3304
13.322
13.2615
13.1555
13.0245
12.9004
12.8157
12.7975
12.8528
12.9659
11.1949
11.219
11.2768
11.3267
11.3982
11.4943
11.6202
11.7746
11.9509
12.1368
12.3174
12.4799
12.6237
12.7576
12.8894
11.3422
11.376
11.4199
11.4622
11.5096
11.5638
11.6326
11.722
11.8367
11.9779
12.1413
12.3167
12.493
12.6615
12.818
11.9186
11.9528
11.9943
12.0362
12.0767
12.1166
12.1594
12.2065
12.2598
12.3214
12.3938
12.4792
12.5791
12.6926
12.8169
12.108
12.1392
12.1769
12.2159
12.2533
12.2915
12.3329
12.3784
12.4282
12.4824
12.5411
12.6053
12.6769
12.758
12.8507
12.1347
12.1655
12.2041
12.2442
12.2833
12.3233
12.3663
12.4133
12.4649
12.5214
12.583
12.6495
12.7205
12.796
12.8774
12.1661
12.1982
12.2401
12.2844
12.3281
12.3727
12.4192
12.468
12.5196
12.5741
12.6321
12.6939
12.7596
12.8288
12.903
12.1931
12.227
12.2732
12.3234
12.3744
12.4263
12.4791
12.5327
12.5867
12.641
12.6961
12.7523
12.8099
12.8694
12.9322
12.19
12.2283
12.2824
12.3428
12.4053
12.4683
12.5306
12.5912
12.6494
12.7052
12.759
12.8115
12.8632
12.9146
12.9686
12.1561
12.2004
12.2674
12.3449
12.4263
12.5068
12.5831
12.6523
12.7145
12.7705
12.822
12.8702
12.9163
12.9608
13.0066
12.0911
12.155
12.2476
12.3535
12.4618
12.5647
12.6541
12.7292
12.7909
12.8432
12.889
12.9308
12.9698
13.0066
13.0425
11.9881
12.0655
12.1855
12.3314
12.4876
12.6292
12.7433
12.8213
12.8772
12.9201
12.9574
12.9915
13.0226
13.0512
13.0769
11.8459
12.016
12.2118
12.428
12.6249
12.8034
12.8884
12.9448
12.9735
12.9996
13.0261
13.0525
13.0746
13.0959
13.1167
11.686
11.7602
11.9362
12.2105
12.5543
12.8364
13.0158
13.0534
13.0593
13.062
13.0791
13.1033
13.1221
13.138
13.1521
-88.3814
-82.9258
-77.0213
-71.0347
-64.5117
-57.3061
-49.6009
-41.6623
-33.8035
-26.3679
-19.6841
-13.9964
-9.403
-5.82549
-2.99372
-14.1739
-15.3575
-16.1272
-16.7099
-17.2023
-17.5706
-17.7195
-17.5325
-16.8963
-15.7257
-14.002
-11.8008
-9.29512
-6.7111
-4.14255
-8.50151
-9.05123
-9.10628
-9.18956
-9.34507
-9.48445
-9.55931
-9.5427
-9.40609
-9.11065
-8.60772
-7.84377
-6.78236
-5.44075
-3.84769
-12.451
-12.4689
-12.0989
-11.853
-11.6028
-11.2741
-10.8504
-10.3211
-9.67252
-8.89757
-8.00025
-6.99092
-5.87721
-4.66306
-3.33165
-9.56884
-9.28479
-9.04525
-8.95455
-8.83291
-8.66463
-8.4479
-8.1684
-7.80275
-7.32561
-6.71483
-5.95722
-5.05394
-4.02339
-2.94846
-5.50733
-5.21697
-5.21872
-5.2471
-5.24809
-5.2377
-5.21294
-5.15901
-5.05822
-4.8894
-4.6272
-4.24378
-3.71425
-3.01825
-2.20276
-3.41779
-3.34838
-3.40349
-3.41042
-3.41097
-3.41193
-3.40608
-3.38155
-3.3267
-3.22749
-3.06696
-2.82499
-2.4793
-2.00128
-1.40191
-2.35583
-2.36156
-2.37722
-2.361
-2.34961
-2.33725
-2.31836
-2.2854
-2.2299
-2.14097
-2.00564
-1.80886
-1.53441
-1.15997
-0.686899
-1.39605
-1.40607
-1.40023
-1.38513
-1.37374
-1.36038
-1.34168
-1.31323
-1.2687
-1.19958
-1.09519
-0.942532
-0.727205
-0.430103
-0.0480703
-0.527539
-0.52948
-0.519479
-0.508388
-0.498223
-0.486156
-0.469284
-0.445228
-0.409386
-0.355348
-0.274688
-0.156743
0.0112421
0.247034
0.564689
0.208051
0.210417
0.219497
0.229066
0.238992
0.250828
0.267158
0.289388
0.321085
0.367289
0.434749
0.532088
0.66999
0.863588
1.13274
0.847234
0.850717
0.858926
0.868501
0.878851
0.890773
0.906053
0.926267
0.954302
0.994276
1.05177
1.13396
1.24976
1.41111
1.63765
1.41811
1.42174
1.42979
1.4398
1.45072
1.4625
1.47628
1.49433
1.51884
1.55323
1.60209
1.67146
1.76892
1.90432
2.09552
1.93382
1.93743
1.94541
1.95544
1.96622
1.97723
1.98947
2.0056
2.02714
2.05694
2.09881
2.15769
2.23982
2.353
2.51415
2.40336
2.40687
2.41452
2.42406
2.43409
2.44411
2.45515
2.46966
2.48881
2.5151
2.55185
2.60341
2.67536
2.7748
2.92471
2.83362
2.83688
2.844
2.85279
2.86195
2.87133
2.8816
2.89463
2.91173
2.93514
2.96783
3.01376
3.07812
3.16685
3.30214
3.22807
3.23107
3.23765
3.24577
3.25432
3.26345
3.27319
3.28482
3.30008
3.32088
3.34979
3.3903
3.44703
3.52455
3.64169
3.59101
3.59379
3.59993
3.60754
3.61565
3.62451
3.63362
3.64396
3.65762
3.6761
3.70159
3.73713
3.78679
3.85433
3.95538
3.92665
3.92925
3.93502
3.94221
3.94991
3.95833
3.96674
3.97611
3.98852
4.00511
4.02781
4.05932
4.10319
4.16256
4.25245
4.23919
4.24163
4.24706
4.25384
4.26108
4.26892
4.27674
4.28541
4.29677
4.3118
4.33228
4.36066
4.40031
4.45433
4.53459
4.53049
4.53276
4.53787
4.54426
4.55107
4.55844
4.56598
4.57425
4.58465
4.59825
4.61667
4.64201
4.67715
4.72453
4.79319
4.80338
4.8055
4.8103
4.81633
4.82277
4.82978
4.83722
4.84516
4.8546
4.86691
4.88348
4.90616
4.93761
4.9808
5.03847
5.05974
5.06173
5.0663
5.07205
5.07824
5.08505
5.09246
5.10011
5.10879
5.12015
5.13533
5.156
5.18446
5.22421
5.28548
5.30209
5.30401
5.30839
5.31391
5.3199
5.32652
5.33375
5.34101
5.34905
5.35962
5.37364
5.39267
5.4187
5.45437
5.50951
5.53171
5.53354
5.53773
5.54304
5.54884
5.55522
5.56215
5.56901
5.57656
5.58646
5.59946
5.61702
5.64102
5.67319
5.72242
5.74997
5.75171
5.75572
5.7608
5.76635
5.77243
5.77898
5.78551
5.79269
5.802
5.81417
5.83063
5.85332
5.88392
5.93094
5.95691
5.95857
5.9624
5.96727
5.97259
5.97842
5.98469
5.99108
5.99808
6.00687
6.01833
6.03383
6.05529
6.08426
6.12762
6.15368
6.15524
6.15889
6.16353
6.1686
6.17416
6.18015
6.18646
6.19322
6.20133
6.21185
6.22597
6.2454
6.27133
6.30372
6.34083
6.34231
6.3458
6.35022
6.35507
6.36039
6.36619
6.37241
6.37889
6.3863
6.39594
6.40876
6.42624
6.44996
6.47892
6.51932
6.52075
6.52411
6.52837
6.53305
6.53823
6.5439
6.55003
6.55624
6.56315
6.5722
6.58418
6.6005
6.62326
6.64973
6.68975
6.69114
6.69441
6.69856
6.70315
6.70824
6.71381
6.71983
6.72581
6.73236
6.74096
6.75227
6.76749
6.7887
6.81328
6.8537
6.855
6.8581
6.86208
6.86648
6.8714
6.87677
6.88253
6.8882
6.89441
6.90254
6.91316
6.92742
6.94707
6.96478
7.01014
7.01142
7.01447
7.01835
7.02266
7.02747
7.0327
7.03825
7.04371
7.04968
7.05736
7.06727
7.08046
7.09936
7.11226
7.1602
7.16146
7.16441
7.16819
7.1724
7.17711
7.18221
7.18764
7.19309
7.19905
7.20654
7.21622
7.22904
7.24863
7.26823
7.30539
7.30655
7.30935
7.31295
7.31695
7.32144
7.32631
7.33154
7.33697
7.34286
7.35005
7.35936
7.37149
7.3895
7.40432
7.44351
7.44468
7.44745
7.451
7.45496
7.45941
7.46426
7.4695
7.47505
7.48097
7.4879
7.49687
7.50844
7.52564
7.54343
7.57709
7.57823
7.58091
7.58437
7.58822
7.59259
7.59737
7.60258
7.60822
7.61413
7.62086
7.62964
7.64094
7.65733
7.67526
7.70661
7.70768
7.71026
7.71359
7.71732
7.72157
7.72625
7.7314
7.73702
7.74282
7.74931
7.75785
7.7688
7.78418
7.80106
7.8315
7.83255
7.83509
7.83838
7.84205
7.84627
7.85093
7.85605
7.86158
7.86719
7.87334
7.88136
7.89147
7.9051
7.91294
7.95296
7.95402
7.95651
7.95974
7.96336
7.96754
7.97214
7.9772
7.98261
7.98802
7.99389
8.00141
8.01067
8.02382
8.02908
8.07169
8.07272
8.07516
8.07835
8.08196
8.08612
8.09071
8.09576
8.10114
8.10655
8.11246
8.12006
8.12949
8.14405
8.15293
8.18857
8.18958
8.19197
8.19509
8.19861
8.20268
8.20719
8.21215
8.21743
8.22281
8.22876
8.23635
8.2456
8.25996
8.27025
8.30261
8.30361
8.30595
8.309
8.31247
8.31649
8.32096
8.32586
8.33107
8.33647
8.34241
8.34988
8.3589
8.37263
8.38709
8.41472
8.4157
8.41798
8.42096
8.42435
8.42825
8.43258
8.4373
8.44235
8.44768
8.4535
8.46066
8.46937
8.48224
8.49743
8.52455
8.52546
8.52766
8.53053
8.5338
8.53757
8.54178
8.54638
8.5513
8.55658
8.56226
8.56909
8.57753
8.5896
8.61068
8.63272
8.63361
8.63575
8.6385
8.64162
8.64519
8.64916
8.65346
8.65807
8.66304
8.6682
8.67408
8.68116
8.68957
8.69949
8.73783
8.73869
8.74076
8.74344
8.74649
8.74997
8.75385
8.75804
8.76254
8.76735
8.77221
8.77755
8.78419
8.79247
8.80821
8.84225
8.84304
8.84501
8.84754
8.85043
8.8537
8.85737
8.86134
8.86565
8.8703
8.87502
8.88029
8.88722
8.89585
8.91298
8.94302
8.94381
8.94575
8.94824
8.95109
8.95432
8.95797
8.96192
8.96617
8.97074
8.97529
8.98033
8.98707
8.99504
9.01101
9.04179
9.04255
9.04444
9.04685
9.0496
9.05271
9.05621
9.05997
9.06401
9.06826
9.07239
9.07682
9.08271
9.08931
9.1027
9.13796
9.13866
9.14045
9.14275
9.1454
9.14838
9.15175
9.15537
9.15925
9.16326
9.16712
9.17124
9.17681
9.18294
9.19849
9.23161
9.23229
9.23404
9.23628
9.23885
9.24175
9.24502
9.24852
9.25223
9.25602
9.25964
9.26344
9.26845
9.27323
9.28157
9.32227
9.32296
9.3247
9.32692
9.32947
9.33236
9.33564
9.33913
9.34283
9.34659
9.35024
9.35408
9.35922
9.3649
9.37815
9.4114
9.41205
9.41372
9.41588
9.41836
9.42118
9.42437
9.4278
9.43147
9.43523
9.43901
9.4431
9.44863
9.45507
9.46685
9.49839
9.49901
9.50064
9.50272
9.50512
9.50783
9.51092
9.51424
9.51778
9.52141
9.52513
9.52902
9.53396
9.53953
9.54831
9.58295
9.58357
9.58516
9.58719
9.58953
9.59217
9.59517
9.59839
9.6018
9.60531
9.60894
9.61265
9.61716
9.62246
9.63217
9.6656
9.66622
9.66779
9.66978
9.67206
9.67464
9.67755
9.68068
9.68402
9.68747
9.69114
9.69487
9.69931
9.70462
9.71539
9.74688
9.74744
9.74893
9.75084
9.75302
9.7555
9.7583
9.76133
9.76459
9.76797
9.77165
9.77538
9.77976
9.7848
9.79519
9.82564
9.82622
9.82772
9.82962
9.83179
9.83423
9.83699
9.83997
9.84317
9.84653
9.8502
9.85386
9.8581
9.86283
9.87183
9.90208
9.90264
9.9041
9.90598
9.90813
9.91057
9.91334
9.91635
9.91961
9.92306
9.92685
9.93067
9.93521
9.94066
9.95225
9.97649
9.97704
9.9785
9.98036
9.98248
9.98491
9.98767
9.99072
9.99404
9.99762
10.0016
10.0058
10.011
10.0175
10.0307
10.0476
10.0481
10.0496
10.0514
10.0536
10.0561
10.059
10.0622
10.0657
10.0694
10.0736
10.0779
10.0831
10.0894
10.0992
10.1154
10.116
10.1176
10.1195
10.1218
10.1245
10.1275
10.1309
10.1346
10.1386
10.1429
10.1472
10.1521
10.1579
10.167
10.1819
10.1825
10.1839
10.1859
10.1881
10.1909
10.194
10.1976
10.2016
10.206
10.2108
10.2159
10.2219
10.2295
10.2449
10.2464
10.247
10.2484
10.2504
10.2528
10.2556
10.2589
10.2627
10.267
10.2719
10.2773
10.2832
10.2903
10.2986
10.3124
10.3085
10.3091
10.3106
10.3126
10.315
10.318
10.3215
10.3256
10.3303
10.3357
10.3417
10.3484
10.3563
10.3653
10.3803
10.3685
10.3691
10.3707
10.3727
10.3752
10.3783
10.3819
10.3863
10.3915
10.3975
10.4044
10.4122
10.4216
10.4323
10.4508
10.4276
10.4282
10.4296
10.4316
10.434
10.4371
10.4409
10.4455
10.4511
10.4579
10.466
10.4758
10.488
10.5021
10.5303
10.4802
10.4808
10.4823
10.4843
10.4868
10.4901
10.4942
10.4994
10.5059
10.514
10.524
10.5362
10.5515
10.5682
10.5921
10.5307
10.5313
10.5328
10.5348
10.5374
10.5408
10.5451
10.5508
10.5581
10.5676
10.5796
10.5947
10.6136
10.6348
10.6633
10.5559
10.5564
10.5578
10.5599
10.5629
10.5671
10.573
10.5811
10.5919
10.6061
10.6241
10.6465
10.6734
10.703
10.7358
10.6013
10.602
10.6036
10.6059
10.6091
10.6136
10.62
10.629
10.6415
10.6585
10.6811
10.7094
10.7433
10.7804
10.8173
10.4762
10.4762
10.4779
10.4819
10.4898
10.5027
10.5219
10.5489
10.5848
10.6298
10.6829
10.7417
10.8021
10.8594
10.9072
10.681
10.683
10.6828
10.6882
10.6968
10.7086
10.7245
10.7458
10.7738
10.8092
10.852
10.9002
10.9499
10.9968
11.0334
9.40204
9.32421
9.383
9.46308
9.56076
9.68445
9.84013
10.0265
10.2367
10.4574
10.6711
10.8589
11.0055
11.1059
11.1583
110.84
105.79
100.214
94.6307
88.6442
82.0851
75.0934
67.887
60.7243
53.9009
47.7133
42.392
38.0381
34.6134
32.0582
43.3289
42.8302
43.5185
44.1784
44.6463
44.9492
45.0606
44.8901
44.3361
43.3127
41.7877
39.809
37.5138
35.1041
32.8895
36.5125
36.4225
36.8423
37.0236
37.1574
37.2746
37.3482
37.3416
37.2279
36.9749
36.5395
35.8676
34.9136
33.6694
32.2928
38.4338
38.434
38.5344
38.402
38.2415
38.0377
37.7641
37.3984
36.9254
36.3347
35.6239
34.7954
33.8491
32.7744
31.6364
35.3279
35.5876
35.6516
35.6023
35.5584
35.4924
35.3887
35.232
35.0027
34.6755
34.225
33.6321
32.8889
31.995
31.0048
32.7407
33.0453
33.0252
33.0092
33.0055
32.9875
32.9493
32.8852
32.7843
32.6292
32.3975
32.0626
31.5979
30.9794
30.2244
31.6135
31.7174
31.6589
31.6507
31.6364
31.6031
31.5512
31.4781
31.3768
31.2375
31.0476
30.7903
30.4453
29.9867
29.3994
30.4746
30.4862
30.4637
30.4701
30.4599
30.4356
30.3968
30.3401
30.259
30.1456
29.9894
29.7776
29.4954
29.125
28.6396
29.3036
29.3022
29.306
29.3145
29.311
29.3006
29.2804
29.2467
29.195
29.1185
29.0083
28.8529
28.6391
28.3553
27.9898
28.3163
28.3185
28.3278
28.3334
28.3328
28.3286
28.3167
28.2945
28.2585
28.2038
28.1236
28.0084
27.8467
27.6277
27.343
27.4934
27.4976
27.5059
27.5101
27.511
27.5091
27.5009
27.4843
27.4565
27.4135
27.3499
27.2578
27.1274
26.9479
26.7151
26.7677
26.7721
26.7794
26.7843
26.7867
26.7863
26.7808
26.7685
26.7471
26.7132
26.6621
26.5872
26.4798
26.3295
26.1362
26.1147
26.1192
26.1268
26.1336
26.1373
26.1379
26.1345
26.1257
26.1094
26.0829
26.0423
25.9822
25.8955
25.7731
25.6191
25.5281
25.5329
25.5409
25.5488
25.5531
25.5542
25.5525
25.5462
25.5336
25.5125
25.4797
25.4305
25.3591
25.2564
25.1233
25.0004
25.0051
25.0129
25.0207
25.0247
25.0261
25.0253
25.0206
25.0105
24.9932
24.9657
24.9241
24.863
24.7742
24.6561
24.5201
24.5244
24.5315
24.5385
24.5422
24.5438
24.5437
24.5403
24.5322
24.5179
24.4949
24.4599
24.4085
24.3345
24.2404
24.0779
24.0816
24.0881
24.0945
24.0982
24.1003
24.1008
24.0983
24.0919
24.08
24.0608
24.0313
23.9878
23.9246
23.846
23.6659
23.6692
23.6754
23.6818
23.6863
23.6892
23.6901
23.6883
23.6832
23.6733
23.6569
23.6313
23.5931
23.5365
23.4646
23.2816
23.2849
23.291
23.2976
23.303
23.3064
23.3075
23.3065
23.3024
23.2942
23.2801
23.2579
23.2246
23.1748
23.1124
22.9236
22.9268
22.933
22.9397
22.9454
22.9489
22.9502
22.9499
22.9469
22.9401
22.9282
22.9091
22.8803
22.837
22.7836
22.5898
22.593
22.5989
22.6055
22.611
22.6143
22.6158
22.6161
22.6138
22.6082
22.5981
22.5818
22.5569
22.5193
22.474
22.2766
22.2796
22.2852
22.2914
22.2965
22.2996
22.3013
22.3019
22.3002
22.2955
22.2869
22.2726
22.2508
22.2173
22.1769
21.9809
21.9836
21.9888
21.9945
21.9992
22.0024
22.0043
22.0051
22.0038
21.9998
21.9922
21.9795
21.9599
21.9296
21.8921
21.6994
21.7018
21.7067
21.7121
21.7168
21.7204
21.7227
21.7236
21.7227
21.7193
21.7126
21.7013
21.6837
21.6565
21.6233
21.4309
21.4332
21.4379
21.4433
21.448
21.4522
21.4549
21.456
21.4555
21.4528
21.447
21.4371
21.4216
21.3976
21.3735
21.175
21.1772
21.1818
21.1872
21.1921
21.1966
21.1995
21.2008
21.2007
21.1986
21.1938
21.1853
21.1719
21.1505
21.1305
20.9309
20.9332
20.9377
20.943
20.948
20.9526
20.9554
20.9568
20.957
20.9554
20.9513
20.9438
20.9317
20.9119
20.894
20.698
20.7001
20.7045
20.7097
20.7146
20.7189
20.7217
20.7231
20.7236
20.7224
20.7188
20.7122
20.7016
20.6837
20.6691
20.4754
20.4774
20.4815
20.4864
20.491
20.495
20.4976
20.499
20.4996
20.4987
20.4957
20.4899
20.4805
20.4645
20.4518
20.2598
20.2617
20.2656
20.2703
20.2747
20.2786
20.2812
20.2828
20.2837
20.283
20.2804
20.2752
20.2667
20.2518
20.2384
20.0512
20.053
20.0568
20.0613
20.0655
20.0693
20.0722
20.0741
20.075
20.0745
20.0722
20.0673
20.0592
20.0445
20.0281
19.8496
19.8513
19.8549
19.8591
19.8633
19.8671
19.8704
19.8726
19.8735
19.8732
19.8712
19.8669
19.8598
19.8469
19.8278
19.6547
19.6563
19.6598
19.6639
19.6679
19.6718
19.6754
19.6777
19.6787
19.6787
19.6772
19.6736
19.6676
19.6572
19.6397
19.4644
19.4661
19.4695
19.4736
19.4778
19.4819
19.4857
19.4882
19.4893
19.4896
19.4884
19.4853
19.4798
19.4706
19.4467
19.2802
19.2818
19.2852
19.2893
19.2934
19.2976
19.3014
19.3038
19.305
19.3054
19.3043
19.3012
19.2956
19.2872
19.2614
19.1028
19.1043
19.1075
19.1114
19.1154
19.1193
19.1229
19.1252
19.1264
19.1269
19.126
19.1234
19.1183
19.1119
19.0946
18.929
18.9304
18.9336
18.9375
18.9414
18.9454
18.9489
18.9511
18.9525
18.9532
18.9526
18.9505
18.9459
18.9396
18.9209
18.7595
18.761
18.764
18.7678
18.7717
18.7755
18.7789
18.7812
18.7828
18.7837
18.7835
18.7818
18.778
18.7725
18.7566
18.5952
18.5965
18.5994
18.6029
18.6065
18.6101
18.6133
18.6157
18.6173
18.6183
18.6183
18.617
18.614
18.6099
18.5902
18.4327
18.434
18.4368
18.4402
18.4437
18.4472
18.4505
18.4531
18.455
18.4561
18.4563
18.4554
18.4529
18.4506
18.4368
18.2728
18.2741
18.2768
18.2801
18.2836
18.287
18.2903
18.2933
18.2953
18.2964
18.2967
18.2958
18.2932
18.2905
18.2741
18.1165
18.1177
18.1202
18.1234
18.1266
18.13
18.1333
18.1363
18.1383
18.1393
18.1395
18.1386
18.1357
18.1323
18.1177
17.9617
17.9628
17.9653
17.9685
17.9718
17.9752
17.9786
17.9818
17.9839
17.9849
17.9853
17.9847
17.9824
17.9797
17.9665
17.809
17.8102
17.8127
17.8158
17.8192
17.8227
17.8262
17.8296
17.8318
17.8331
17.834
17.834
17.8328
17.8319
17.8239
17.6595
17.6606
17.663
17.666
17.6693
17.6728
17.6763
17.6796
17.6818
17.6832
17.6842
17.6845
17.6835
17.6827
17.6709
17.5119
17.5129
17.5152
17.5182
17.5214
17.5247
17.5281
17.5312
17.5333
17.5347
17.5355
17.5356
17.5342
17.533
17.5208
17.3649
17.366
17.3683
17.3712
17.3744
17.3778
17.3811
17.3842
17.3863
17.3876
17.3886
17.3886
17.3872
17.3863
17.376
17.2201
17.2211
17.2234
17.2263
17.2294
17.2327
17.236
17.2389
17.2411
17.2426
17.2437
17.244
17.243
17.2424
17.2375
17.0778
17.0787
17.0808
17.0835
17.0864
17.0896
17.0927
17.0955
17.0978
17.0994
17.1006
17.1012
17.1007
17.1001
17.0977
16.9351
16.9361
16.9382
16.9408
16.9437
16.9468
16.9499
16.9529
16.9553
16.9573
16.9588
16.9598
16.9601
16.9601
16.966
16.7929
16.7939
16.7959
16.7985
16.8014
16.8044
16.8075
16.8105
16.8133
16.8155
16.8172
16.8185
16.8195
16.8192
16.8179
16.652
16.6528
16.6547
16.6572
16.6598
16.6628
16.6658
16.6688
16.6716
16.6739
16.6755
16.6768
16.6778
16.678
16.6746
16.5101
16.5109
16.5128
16.5153
16.5179
16.5208
16.5239
16.5269
16.5299
16.5322
16.5339
16.5354
16.5366
16.538
16.5386
16.3678
16.3686
16.3705
16.3729
16.3756
16.3785
16.3816
16.3848
16.388
16.3904
16.3923
16.394
16.3955
16.3968
16.395
16.2262
16.2269
16.2287
16.231
16.2335
16.2364
16.2394
16.2426
16.2458
16.2483
16.2502
16.252
16.2535
16.2547
16.2486
16.0829
16.0837
16.0854
16.0877
16.0903
16.0932
16.0964
16.0997
16.103
16.1057
16.1081
16.1107
16.1136
16.1179
16.1206
15.9384
15.9392
15.941
15.9432
15.9458
15.9488
15.9521
15.9555
15.959
15.962
15.9647
15.9679
15.9714
15.9764
15.9693
15.7926
15.7934
15.7951
15.7973
15.7999
15.8028
15.8061
15.8096
15.8131
15.8162
15.8192
15.8227
15.8263
15.8326
15.8319
15.6456
15.6462
15.6478
15.65
15.6524
15.6553
15.6585
15.6619
15.6654
15.6687
15.6719
15.6759
15.6803
15.6878
15.6877
15.4948
15.4954
15.4971
15.4992
15.5017
15.5045
15.5078
15.5113
15.515
15.5185
15.5222
15.5267
15.5318
15.5401
15.5403
15.3412
15.3419
15.3434
15.3455
15.3479
15.3507
15.3539
15.3575
15.3613
15.3652
15.3694
15.3746
15.3807
15.391
15.3936
15.1832
15.1838
15.1853
15.1874
15.1898
15.1926
15.1959
15.1995
15.2035
15.2079
15.2127
15.2187
15.2259
15.2378
15.2432
15.021
15.0216
15.023
15.025
15.0273
15.0301
15.0333
15.037
15.0413
15.0461
15.0516
15.0586
15.0673
15.0816
15.0907
14.8522
14.8528
14.8542
14.8562
14.8585
14.8613
14.8646
14.8685
14.873
14.8784
14.8845
14.892
14.9012
14.9164
14.9202
14.6776
14.6781
14.6794
14.6812
14.6834
14.6861
14.6895
14.6935
14.6983
14.7043
14.7112
14.7196
14.7299
14.7464
14.7663
14.4939
14.4944
14.4957
14.4975
14.4998
14.5026
14.5062
14.5107
14.5163
14.5234
14.5319
14.5428
14.5568
14.5771
14.6087
14.2998
14.3004
14.3016
14.3034
14.3058
14.3089
14.3129
14.3181
14.3247
14.3333
14.344
14.3579
14.3762
14.4009
14.4397
14.0932
14.0937
14.0949
14.0967
14.0992
14.1025
14.107
14.1129
14.1208
14.1313
14.1445
14.1619
14.1852
14.2153
14.2632
13.8683
13.8687
13.8699
13.8717
13.8743
13.878
13.8832
13.8904
13.9001
13.9134
13.9305
13.9532
13.9837
14.0222
14.0815
13.6226
13.6231
13.6243
13.6263
13.6293
13.6336
13.6399
13.6489
13.6613
13.6784
13.7012
13.7314
13.7719
13.8228
13.9004
13.3326
13.3331
13.3343
13.3365
13.3403
13.3463
13.3553
13.3683
13.3867
13.412
13.4455
13.4891
13.5453
13.6132
13.716
13.033
13.0333
13.0347
13.0373
13.0417
13.0489
13.06
13.0765
13.1005
13.1342
13.1793
13.2379
13.3119
13.3969
13.513
12.5312
12.5316
12.5337
12.539
12.5497
12.5676
12.5952
12.6348
12.6891
12.7596
12.8462
12.9477
13.0629
13.1835
13.3284
12.2833
12.284
12.2831
12.2898
12.3026
12.3227
12.3527
12.3958
12.455
12.5326
12.6292
12.7433
12.8737
13.0118
13.1569
10.488
10.4134
10.4764
10.5636
10.677
10.8286
11.026
11.2687
11.5484
11.8479
12.1442
12.4143
12.6484
12.8487
13.0228
11.6084
17.6757
13.3526
10.5082
3.9061
15.6474
13.5687
18.0913
3.5167
10.4668
9.16424
20.0271
6.96556
17.833
14.9091
13.3612
12.4809
12.2474
15.5114
10.4532
13.8364
14.71
14.506
25.2919
15.1562
10.8867
12.3837
12.3466
19.5143
12.2042
9.82919
14.0028
13.2514
22.1939
12.9785
12.1599
7.3506
18.8222
4.49983
13.2554
17.773
11.2441
17.291
13.2761
14.9364
12.0066
25.4829
11.6359
12.9943
15.6193
18.9741
14.3818
14.3976
15.8019
11.4795
13.441
9.53534
11.6276
21.0028
16.8948
11.9512
20.8795
15.9106
13.6701
15.4591
6.7991
14.7507
19.2383
9.69021
22.5068
11.9964
11.2052
29.5514
15.5817
10.3861
14.2334
10.1516
12.6259
14.5305
24.3774
12.2716
8.98315
11.6949
13.2551
18.7083
8.76606
12.181
8.82333
18.9529
13.1686
16.4163
13.0325
13.8529
18.1066
6.36463
13.353
15.6798
15.283
14.7088
14.8241
7.53228
24.1744
12.2067
9.31604
17.9818
9.18657
12.7331
12.4534
12.6829
20.8956
17.03
12.9093
17.6098
11.5881
14.9826
10.3661
12.3429
18.3412
5.71262
13.2742
6.81218
13.4036
8.46267
17.5307
11.7724
12.0514
18.901
16.4342
4.78649
10.6978
21.4038
12.4376
3.03514
13.1561
14.9212
17.9325
3.72268
15.956
16.0228
15.1354
12.0395
12.9612
11.9701
11.0287
19.2177
15.1142
11.6017
12.8968
15.5067
17.6357
13.107
10.6497
12.6152
19.3473
11.1379
15.7757
12.6311
12.0953
15.7258
21.2561
12.226
14.277
12.336
4.01573
13.8174
13.9773
13.5653
1.10269
16.1255
12.5199
14.7457
11.4482
14.5443
9.6692
13.1169
11.9588
12.9185
12.1652
21.0602
9.93503
8.27695
18.9784
19.7003
10.7008
11.487
11.8761
12.5161
22.2646
12.5616
12.1056
20.2614
13.4821
5.56095
18.7704
13.2002
20.4425
10.1963
11.8523
9.80283
21.3967
11.0729
14.4484
12.0733
13.8909
18.6709
16.7226
10.3424
22.8634
11.1843
14.3308
11.95
14.3
20.864
8.19116
18.0155
24.3297
20.4733
13.3728
17.4119
19.7577
19.2332
15.346
13.1822
13.3345
18.5909
6.30309
18.5787
12.02
10.0092
12.9548
14.771
6.65323
14.7278
14.3796
8.40661
15.374
13.7181
17.3747
13.883
12.342
11.6646
11.956
13.318
9.53895
11.0726
11.8729
6.66481
16.2323
7.28452
11.1146
21.4645
14.9796
11.0279
15.5247
11.8214
17.5172
16.9409
16.1922
16.4528
13.1398
9.06428
17.5977
6.08556
13.5739
11.002
13.4682
11.2943
7.8372
16.2232
12.3923
23.8355
11.2478
19.2579
7.96469
13.1336
8.71963
15.7481
18.2798
9.02907
14.5005
9.17484
13.0431
16.2451
13.0366
17.8069
12.9627
9.79419
6.34777
17.6415
3.37731
8.48
15.2698
19.483
13.6982
21.2941
1.9089
9.59717
12.4091
14.6287
14.9566
14.8931
12.7229
17.1027
15.0179
12.7988
7.34361
12.8587
9.4763
13.1722
16.0378
13.1608
13.1495
18.0124
11.8284
7.57405
14.3143
10.2577
25.8023
12.2084
9.54562
12.8557
17.6013
7.28175
12.6362
8.37303
13.6564
13.2418
12.9735
13.0935
5.51534
14.0211
10.0513
18.7868
16.2034
9.31152
12.8928
16.3665
14.8808
23.8647
11.1463
18.9469
12.5713
17.505
13.6543
14.7313
9.78826
14.7851
9.99295
23.5274
13.7984
4.73354
9.71671
22.9745
15.8698
21.6687
15.8068
15.8059
13.5206
16.0504
11.8303
13.6897
12.6491
12.7816
18.0336
14.2211
16.6452
13.0895
14.8698
12.9197
13.5795
8.26993
11.8152
13.8994
13.7138
11.858
12.6435
14.4966
19.7465
2.10726
10.3449
19.645
9.48272
11.7042
14.3469
18.5945
16.8519
13.8721
16.4893
12.9337
10.345
14.9577
14.5495
14.6606
7.76887
12.9573
5.7653
18.7525
15.8707
14.8755
11.3747
14.2334
6.47398
15.0254
22.8898
13.8112
7.02309
14.6026
13.4004
13.0377
16.5969
9.14069
9.74186
17.3725
22.3168
10.1698
14.5431
11.3831
13.0698
14.446
16.3883
11.7024
18.0781
11.6414
12.3166
8.77249
18.8799
20.1695
13.5307
17.3432
16.5005
10.881
15.2513
5.89522
17.6404
13.6431
16.7266
10.8083
11.6366
5.31448
12.5179
15.8467
12.249
13.681
11.6378
11.7201
9.01784
20.8195
11.9998
8.79431
21.8228
16.0496
22.31
15.5391
14.3358
13.2436
16.0743
0.90198
17.1401
16.6772
7.62703
8.29626
8.98293
12.6708
12.1358
11.8837
8.78322
20.4886
12.3248
11.8528
10.9111
18.3021
12.2912
8.46689
18.9347
12.1173
9.63058
13.3588
5.72809
25.6487
10.6472
14.5865
15.0064
15.6916
11.1896
10.2971
16.4349
19.1061
10.0903
15.0018
22.9866
16.793
14.8135
12.7278
14.228
18.5318
11.4587
14.1233
21.1412
7.36094
9.26457
15.6705
18.8391
14.1426
19.9896
18.0268
9.67476
7.70243
11.5238
9.13854
8.2568
8.64482
14.6615
13.0734
12.4318
12.107
14.9242
8.09584
21.579
11.9447
20.6161
11.9905
20.2308
12.0522
20.1535
8.63412
17.3766
9.40151
13.2763
13.5098
1.35474
11.9658
13.0933
12.5772
17.5562
15.3282
13.0891
12.6627
15.6282
19.4957
15.281
11.3704
20.6848
11.6871
17.6176
17.2765
14.6005
13.8325
12.5703
16.3802
38.5131
20.2605
14.5177
11.5009
9.93871
23.8386
12.8372
12.7391
13.4498
15.6122
15.0418
11.4918
11.6093
10.5651
11.9054
16.4147
21.8169
14.8837
14.7791
8.70438
8.74638
10.6694
13.5229
13.0949
19.2954