/*--------------------------------*- C++ -*----------------------------------*\
| =========                 |                                                 |
| \\      /  F ield         | OpenFOAM: The Open Source CFD Toolbox           |
|  \\    /   O peration     | Version:  2.3.0                                 |
|   \\  /    A nd           | Web:      www.OpenFOAM.org                      |
|    \\/     M anipulation  |                                                 |
\*---------------------------------------------------------------------------*/
FoamFile
{
    version     2.0;
    format      ascii;
    class       surfaceScalarField;
    location    "150";
    object      phi;
}
// * * * * * * * * * * * * * * * * * * * * * * * * * * * * * * * * * * * * * //

dimensions      [0 3 -1 0 0 0 0];

internalField   nonuniform List<scalar> 
15537
(
-0.00309815
-0.020373
0.0222254
0.00124702
-0.00453551
-0.0171681
0.0186054
-0.0056335
-0.0144909
0.0155889
-0.00644938
-0.0122559
0.0130718
-0.00702218
-0.0103908
0.0109636
-0.00737879
-0.00883368
0.00919029
-0.00753956
-0.00753212
0.00769291
-0.00752229
-0.00644315
0.00642589
-0.00734671
-0.00553033
0.00535477
-0.00703197
-0.00476524
0.00445052
-0.00659914
-0.00412346
0.00369064
-0.00606746
-0.00358566
0.00305402
-0.00545564
-0.00313515
0.00252333
-0.00478105
-0.00275781
0.00208326
-0.00244208
-0.00403846
0.00169949
-0.00281192
-0.0187319
0.00117082
-0.00404601
-0.015934
-0.00493995
-0.013597
-0.00555113
-0.0116447
-0.00592774
-0.0100142
-0.00610874
-0.00865267
-0.00612396
-0.00751689
-0.00599754
-0.00656957
-0.00574818
-0.00577968
-0.00539184
-0.00512157
-0.00494231
-0.00457299
-0.00441182
-0.00411615
-0.00381147
-0.0037355
-0.00315099
-0.00341828
-0.00315408
-0.00243898
-0.00255818
-0.0172553
0.00108161
-0.00366127
-0.0148309
-0.00444994
-0.0128083
-0.00497365
-0.011121
-0.00527399
-0.00971384
-0.00538637
-0.00854029
-0.00534149
-0.00756178
-0.00516517
-0.00674588
-0.00487894
-0.00606591
-0.00450173
-0.00549878
-0.00404849
-0.00502622
-0.00353246
-0.00463217
-0.00296416
-0.00430381
-0.00235269
-0.00402975
-0.00380126
-0.00170552
-0.00229527
-0.0159348
0.00097476
-0.00327406
-0.0138521
-0.003967
-0.0121153
-0.00442057
-0.0106674
-0.00467417
-0.00946024
-0.0047606
-0.00845386
-0.00470738
-0.007615
-0.00453768
-0.00691557
-0.00427054
-0.00633306
-0.00392248
-0.00584683
-0.00350711
-0.00544159
-0.00303559
-0.00510369
-0.0025177
-0.0048217
-0.00196102
-0.00458642
-0.00438997
-0.00137231
-0.00205984
-0.0147478
0.000872856
-0.00293603
-0.0129759
-0.00355274
-0.0114986
-0.00395304
-0.0102671
-0.00417243
-0.00924085
-0.00424106
-0.00838523
-0.00418424
-0.00767182
-0.00402256
-0.00707725
-0.0037744
-0.00658122
-0.00345366
-0.00616757
-0.00307278
-0.00582247
-0.00264199
-0.00553448
-0.0021699
-0.0052938
-0.00166325
-0.00509307
-0.00492501
-0.00112821
-0.0018475
-0.0136789
0.000778599
-0.00263498
-0.0121884
-0.00318776
-0.0109459
-0.00354443
-0.00991046
-0.00373817
-0.00904711
-0.003796
-0.0083274
-0.00374065
-0.00772717
-0.00359114
-0.00722675
-0.00336335
-0.00680901
-0.00307035
-0.00646057
-0.0027232
-0.00616962
-0.00233106
-0.00592662
-0.00190143
-0.00572343
-0.00144089
-0.0055536
-0.00541149
-0.000954417
-0.00165911
-0.0127137
0.000693862
-0.00236917
-0.0114784
-0.00286651
-0.0104485
-0.00318675
-0.00959022
-0.00335951
-0.00887435
-0.00340949
-0.00827742
-0.00335699
-0.00777967
-0.00321976
-0.00736399
-0.00301144
-0.00701733
-0.0027442
-0.00672781
-0.00242808
-0.00648575
-0.0020713
-0.0062834
-0.00168046
-0.00611426
-0.00126163
-0.00597243
-0.0058537
-0.000819418
-0.00149172
-0.0118408
0.000618896
-0.00213337
-0.0108367
-0.00258236
-0.00999952
-0.00287118
-0.0093014
-0.00302622
-0.00871931
-0.00307
-0.00823364
-0.00302119
-0.00782848
-0.00289534
-0.00748984
-0.00270537
-0.0072073
-0.00246206
-0.00697112
-0.0021742
-0.0067736
-0.00184967
-0.00660794
-0.00149441
-0.00646953
-0.00111359
-0.00635325
-0.00625577
-0.000711519
-0.00134299
-0.0110505
0.000552639
-0.00192396
-0.0102558
-0.00233024
-0.00959324
-0.00259083
-0.00904081
-0.00273047
-0.00857967
-0.00276921
-0.00819491
-0.00272435
-0.00787333
-0.00260911
-0.00760508
-0.00243616
-0.00738025
-0.00221464
-0.00719265
-0.00195314
-0.0070351
-0.00165767
-0.00690341
-0.00133461
-0.00679258
-0.000988393
-0.00669947
-0.00662121
-0.000622952
-0.00121085
-0.0103341
0.000494422
-0.00173698
-0.00972964
-0.00210476
-0.00922546
-0.0023407
-0.00880487
-0.00246691
-0.00845346
-0.0025016
-0.00816021
-0.00245999
-0.00791494
-0.00235544
-0.00770963
-0.00219775
-0.00753794
-0.00199636
-0.00739404
-0.00175815
-0.00727331
-0.00148966
-0.0071719
-0.00119603
-0.00708621
-0.000881159
-0.00701434
-0.00695348
-0.000548888
-0.00109285
-0.00968429
0.000443069
-0.00156984
-0.00925264
-0.00190327
-0.00889204
-0.00211711
-0.00859103
-0.00223113
-0.00833943
-0.00226234
-0.00812901
-0.00222435
-0.00795293
-0.00212865
-0.00780533
-0.00198515
-0.00768144
-0.00180178
-0.00757742
-0.0015853
-0.00748978
-0.00134146
-0.00741574
-0.0010742
-0.00735347
-0.00078805
-0.00730049
-0.00725559
-0.000485944
-0.000987316
-0.00909479
0.000397812
-0.00142008
-0.00881988
-0.00172246
-0.00858966
-0.00191619
-0.0083973
-0.00201934
-0.00823628
-0.00204741
-0.00810094
-0.0020127
-0.00798764
-0.00192592
-0.00789211
-0.00179533
-0.00781202
-0.00162869
-0.00774406
-0.00143177
-0.0076867
-0.00120962
-0.00763789
-0.000966849
-0.00759624
-0.000706573
-0.00756077
-0.00753019
-0.000431972
-0.000892151
-0.00855986
0.000357224
-0.00128525
-0.00842679
-0.00155946
-0.00831544
-0.0017354
-0.00822137
-0.00182929
-0.00814239
-0.00185437
-0.00807586
-0.00182268
-0.00801933
-0.00174342
-0.00797137
-0.00162486
-0.00793059
-0.00147322
-0.0078957
-0.001294
-0.00786592
-0.00109236
-0.00783953
-0.000871542
-0.00781706
-0.000634927
-0.00779738
-0.00777989
-0.000385226
-0.000807133
0.000320784
-0.00807351
-0.00116397
-0.00806995
-0.001413
-0.00806641
-0.00157273
-0.00806164
-0.00165742
-0.0080577
-0.00168053
-0.00805275
-0.00165156
-0.00804829
-0.00157948
-0.00804345
-0.00147163
-0.00803844
-0.00133387
-0.00803346
-0.00117092
-0.00802887
-0.000987238
-0.00802321
-0.000786484
-0.00801781
-0.000571437
-0.00801243
-0.000344546
-0.00800678
-0.0031479
-0.0024204
0.00152987
-0.00231456
-0.00268593
0.00185259
-0.00152119
-0.00300811
0.00221477
-0.000767304
-0.00339829
0.0026444
-5.73179e-05
-0.00387069
0.00316072
0.000599226
-0.00444205
0.0037855
0.00118676
-0.00513244
0.00454491
0.0016826
-0.00596642
0.00547057
0.002055
-0.00697204
0.00659963
0.00226297
-0.00818352
0.00797554
0.00225744
-0.00964179
0.00964731
0.00198199
-0.0113954
0.0116708
0.0013768
-0.013505
0.0141101
0.000377377
-0.0160429
0.0170423
-0.0190982
0.020561
-0.00108544
-0.00171393
-0.00314544
-0.00101052
-0.00338935
-0.000336327
-0.0036823
0.00029914
-0.00403376
0.000884224
-0.00445577
0.0014046
-0.00496243
0.00184283
-0.00557067
0.00217721
-0.0063008
0.00238345
-0.00717828
0.00243252
-0.00823259
0.00229157
-0.00950085
0.00192285
-0.0110267
0.0012813
-0.0128634
0.000312739
-0.0150743
-0.0177357
-0.00104968
-0.00105715
-0.00379381
-0.000440331
-0.00400617
0.000138669
-0.00426129
0.000672683
-0.00456778
0.00115276
-0.00493584
0.00156846
-0.00537814
0.00190693
-0.00590913
0.00215298
-0.00654686
0.00228758
-0.00731288
0.00228758
-0.00823259
0.00212449
-0.00933776
0.00176297
-0.0106651
0.00115979
-0.0122602
0.000262988
-0.0141775
-0.0164818
-0.000990922
-0.000782438
-0.00438368
-0.000222157
-0.00456645
0.000302886
-0.00478634
0.000785868
-0.00505076
0.00121839
-0.00536837
0.00159048
-0.00575023
0.00189003
-0.00620868
0.0021023
-0.00675913
0.00220997
-0.00742055
0.00219173
-0.00821434
0.0020215
-0.00916754
0.00166865
-0.0103123
0.00109559
-0.0116872
0.000256571
-0.0133385
-0.0153226
-0.000902702
-0.000592814
-0.00491908
-8.48782e-05
-0.00507439
0.000390306
-0.00526152
0.000826193
-0.00548665
0.00121535
-0.00575752
0.0015481
-0.00608298
0.00181374
-0.00647431
0.00199921
-0.0069446
0.00208772
-0.00750906
0.00206058
-0.00818721
0.00189464
-0.00900159
0.0015613
-0.00997895
0.00102717
-0.011153
0.000251167
-0.0125625
-0.0142552
-0.000816178
-0.000467709
-0.00540578
-6.16719e-06
-0.00553593
0.000425265
-0.00569295
0.000820809
-0.00588219
0.00117313
-0.00610984
0.00147399
-0.00638385
0.00171327
-0.00671359
0.00187819
-0.00710952
0.00195462
-0.0075855
0.00192475
-0.00815733
0.00176715
-0.00884399
0.00145675
-0.00966855
0.000962354
-0.0106586
0.000246963
-0.0118471
-0.0132745
-0.000733799
-0.000377078
-0.00584812
4.23511e-05
-0.00595536
0.000434263
-0.00608486
0.000793181
-0.00624111
0.00111281
-0.00642947
0.00138523
-0.00665626
0.00160096
-0.00692932
0.00174928
-0.00725784
0.00181614
-0.00765236
0.00178596
-0.00812715
0.00163899
-0.00869701
0.00135201
-0.00938157
0.000897099
-0.0102037
0.00024097
-0.011191
-0.0123763
-0.000657203
-0.000309437
-0.0062502
7.17408e-05
-0.00633654
0.00042785
-0.00644097
0.0007539
-0.00656716
0.00104405
-0.00671962
0.00129121
-0.00690342
0.00148645
-0.00712455
0.00161999
-0.00739138
0.00167974
-0.00771211
0.00165017
-0.00809758
0.00151422
-0.00856106
0.0012505
-0.00911785
0.000833585
-0.00978682
0.000232704
-0.0105901
-0.0115545
-0.000589062
-0.0002574
-0.00661576
8.90578e-05
-0.00668299
0.000412649
-0.00676456
0.000708953
-0.00686347
0.000972387
-0.00698305
0.00119652
-0.00712755
0.00137394
-0.00730198
0.00149459
-0.00751204
0.00154772
-0.00776524
0.00151973
-0.00806959
0.00139465
-0.00843598
0.00115312
-0.00887632
0.000771667
-0.00940537
0.000222645
-0.0100411
-0.0108042
-0.000527646
-0.000216532
-0.00694811
9.83718e-05
-0.0069979
0.000392484
-0.00705867
0.000661663
-0.00713264
0.000901099
-0.00722249
0.00110477
-0.00733122
0.00126538
-0.00746259
0.00137483
-0.00762149
0.00142231
-0.00781272
0.00139629
-0.00804357
0.00128167
-0.00832136
0.00106061
-0.00865527
0.000712191
-0.00905694
0.000211094
-0.00954
-0.0101197
-0.000473387
-0.000183901
-0.00725016
0.000102333
-0.00728413
0.000369715
-0.00732606
0.000614461
-0.00737739
0.00083189
-0.00743992
0.00101682
-0.00751615
0.00116272
-0.00760849
0.00126179
-0.00772055
0.00130496
-0.00785589
0.00128061
-0.00801923
0.00117552
-0.00821627
0.000973752
-0.0084535
0.000655983
-0.00873917
0.000198873
-0.00908289
-0.00949578
-0.000425081
-0.000157368
-0.00752476
0.000102836
-0.00754434
0.000345841
-0.00756906
0.000568251
-0.0075998
0.000765911
-0.00763758
0.000934021
-0.00768426
0.00106644
-0.00774091
0.00115627
-0.00781038
0.00119509
-0.0078947
0.00117256
-0.0079967
0.00107653
-0.00812024
0.000892601
-0.00826957
0.000603017
-0.00844959
0.000186359
-0.00866624
-0.00892744
-0.00038198
-0.000135547
-0.00777444
0.000100936
-0.00778082
0.00032178
-0.00778991
0.000523979
-0.007802
0.00070379
-0.00781739
0.000856275
-0.00783674
0.00097663
-0.00786127
0.00105814
-0.00789189
0.00109314
-0.0079297
0.00107245
-0.00797601
0.000985063
-0.00803285
0.000817206
-0.00810171
0.000553267
-0.00818565
0.000173956
-0.00828692
-0.00840959
-0.000343901
-0.000117404
-0.00800158
9.74092e-05
-0.00799563
0.000298183
-0.00799068
0.000482012
-0.00798583
0.000645206
-0.00798058
0.000783829
-0.00797537
0.000893222
-0.00797066
0.000967348
-0.00796602
0.000999179
-0.00796153
0.000980257
-0.00795708
0.000900351
-0.00795294
0.000747524
-0.00794888
0.000507163
-0.00794529
0.000161805
-0.00794157
-0.000309188
-0.00793859
0.0015807
0.0196881
-0.0213426
7.37948e-05
0.00278016
0.0164967
-0.0176962
0.0035954
0.0138225
-0.0146378
0.00408687
0.0115771
-0.0120685
0.00430765
0.00969168
-0.00991247
0.00430661
0.00811069
-0.00810965
0.00412777
0.00678788
-0.00660905
0.00381005
0.00568325
-0.00536554
0.00338706
0.00476179
-0.0043388
0.00288747
0.00399247
-0.00349289
0.00233587
0.00334743
-0.00279585
0.00175432
0.00280067
-0.00221913
0.00116298
0.00232758
-0.00173625
0.000572494
0.00191101
-0.00132055
0.00158201
-4.65723e-05
-0.000962959
0.00143218
0.0181863
6.95542e-05
0.00252281
0.0154061
0.00326861
0.0130767
0.00372428
0.0111214
0.00393769
0.00947827
0.00395128
0.00809709
0.00380235
0.00693682
0.0035241
0.0059615
0.00314535
0.00514054
0.00269123
0.0044466
0.00218412
0.00385455
0.00164409
0.0033407
0.00108873
0.00288295
0.000526482
0.00247328
0.0021625
-5.4006e-05
0.00130276
0.0168194
6.41124e-05
0.00229712
0.0144117
0.00297949
0.0123944
0.00339982
0.0107011
0.00360078
0.00927732
0.00361985
0.00807801
0.00349021
0.00706647
0.00324093
0.00621078
0.00289767
0.0054838
0.00248307
0.00486121
0.00201702
0.0043206
0.00151796
0.00383978
0.00100164
0.00339927
0.000477474
0.00299745
0.00269858
-5.86047e-05
0.00118363
0.0155774
5.84016e-05
0.00208819
0.0135071
0.00270968
0.0117729
0.00309407
0.0103167
0.00328028
0.00909111
0.00330171
0.00805659
0.00318811
0.00718006
0.00296496
0.00643394
0.00265485
0.0057939
0.00227768
0.00523838
0.00185156
0.00474672
0.0013929
0.00429843
0.000916528
0.00387565
0.000432497
0.00348149
0.00319119
-6.01132e-05
0.00107409
0.0144496
5.37477e-05
0.00189588
0.0126853
0.00246169
0.0112071
0.00281315
0.00996521
0.00298525
0.00891901
0.00300844
0.00803339
0.00290865
0.00727985
0.00270861
0.00663398
0.00242826
0.00607425
0.00208537
0.00558128
0.0016961
0.00513599
0.00127551
0.00471904
0.000837493
0.00431366
0.000392398
0.00392659
0.00364347
-5.98835e-05
0.000974623
0.0134245
5.04907e-05
0.0017221
0.0119379
0.0022372
0.010692
0.00255798
0.00964443
0.00271683
0.00876016
0.00274045
0.00800977
0.00265224
0.00736807
0.00247244
0.00681378
0.00221872
0.00632797
0.00190699
0.00589301
0.00155171
0.00549127
0.00116675
0.005104
0.000764898
0.00471551
0.000356389
0.0043351
0.0040583
-5.84338e-05
0.000884536
0.0124929
4.70753e-05
0.00156385
0.0112586
0.00203287
0.0102229
0.00232596
0.00935133
0.00247192
0.0086142
0.0024953
0.00798639
0.00241715
0.00744623
0.00225518
0.00697574
0.00202551
0.00655764
0.00174215
0.00617637
0.00141826
0.00581515
0.00106624
0.00545602
0.000698171
0.00508358
0.000323949
0.00470932
0.00443829
-5.60482e-05
0.000803177
0.0116468
4.28606e-05
0.00142082
0.0106409
0.00184741
0.00979635
0.00211467
0.00908408
0.0022487
0.00848017
0.00227156
0.00796353
0.00220182
0.00751597
0.00205603
0.00712153
0.00184797
0.00676569
0.00159057
0.00643377
0.0012954
0.00611032
0.000973895
0.00577753
0.000637117
0.00542035
0.000294297
0.00505214
0.00478608
-5.349e-05
0.000728845
0.010877
4.09787e-05
0.00129049
0.0100793
0.00167903
0.00940781
0.00192252
0.00884058
0.0020453
0.00835739
0.00206738
0.00794145
0.00200531
0.00757803
0.00187376
0.00725308
0.00168545
0.006954
0.00145156
0.00666766
0.00118277
0.00637912
0.00088929
0.006071
0.000581303
0.00572834
0.000267726
0.00536571
0.00510444
-5.06364e-05
0.00066156
0.0101778
3.75818e-05
0.00117231
0.00956853
0.00152578
0.00905433
0.00174803
0.00861833
0.00186034
0.00824509
0.00188111
0.00792068
0.00182592
0.00763323
0.00170721
0.00737179
0.0015367
0.00712451
0.00132446
0.0068799
0.00107988
0.00662369
0.000812256
0.00633863
0.000530864
0.00600973
0.000243806
0.00565277
0.00539583
-4.75857e-05
0.000600656
0.00954234
3.48514e-05
0.00106511
0.00910407
0.00138665
0.00873279
0.00158899
0.00841599
0.00169197
0.0081421
0.0017116
0.00790105
0.00166215
0.00768268
0.00155516
0.00747878
0.00140079
0.00727888
0.00120829
0.0070724
0.000986122
0.00684586
0.000742279
0.00658247
0.00048484
0.00626717
0.000222005
0.0059156
0.00566312
-4.52883e-05
0.00054532
0.00896446
3.25591e-05
0.000967753
0.00868164
0.00126015
0.00844039
0.00144432
0.00823182
0.00153839
0.00804804
0.00155703
0.00788241
0.00151271
0.00772699
0.00141616
0.00757533
0.00127638
0.00741867
0.00110188
0.0072469
0.000900679
0.00704706
0.000679444
0.00680371
0.000445367
0.00650125
0.000204094
0.00615688
0.00590885
-4.1634e-05
0.000495232
0.00843937
2.98614e-05
0.000879219
0.00829765
0.00114528
0.00817433
0.00131314
0.00806397
0.0013987
0.00796247
0.00141621
0.0078649
0.00137644
0.00776676
0.00128924
0.00766252
0.00116254
0.00754537
0.00100442
0.00740502
0.000822804
0.00722868
0.000623421
0.00700309
0.00040664
0.00671803
0.000185563
0.00637795
0.00613669
-4.22737e-05
0.00044966
2.78005e-05
0.00796191
0.00079893
0.00794838
0.00104102
0.00793224
0.00119357
0.00791142
0.00127176
0.00788429
0.00128774
0.00784892
0.00125226
0.00780224
0.00117408
0.0077407
0.00105875
0.0076607
0.000913372
0.00755039
0.000751351
0.0073907
0.000574554
0.00717989
0.000383933
0.00690865
0.00017815
0.00658374
-3.86909e-05
0.00635353
-0.000664131
0.00163769
-0.00102014
-0.00128565
0.00203015
-0.00140864
-0.001917
0.00248363
-0.00185229
-0.00253823
0.00298643
-0.00236521
-0.00312561
0.003564
-0.00297662
-0.00365457
0.00424233
-0.00371337
-0.00409724
0.00504609
-0.00460342
-0.00442281
0.00600071
-0.00567515
-0.00459534
0.00713311
-0.00696057
-0.00457658
0.00847372
-0.00849248
-0.00432626
0.0100582
-0.0103086
-0.0038024
0.0119315
-0.0124554
-0.0029579
0.0141526
-0.0149971
-0.00173701
0.0167968
-0.0180177
0.0199524
-0.0216186
-7.07873e-05
-0.000641502
0.0022252
-0.0012326
0.00262125
-0.00182503
0.00307606
-0.00240169
0.0035631
-0.0029403
0.00410262
-0.00341839
0.00472042
-0.00381141
0.00543911
-0.00409246
0.00628177
-0.00423223
0.00727288
-0.00419877
0.00844025
-0.00395838
0.00981784
-0.00347388
0.011447
-0.00270242
0.0133812
-0.00159078
0.0156852
0.0184366
-7.50069e-05
-0.000604984
0.00277158
-0.00115661
0.00317288
-0.001707
0.00362646
-0.00223888
0.00409497
-0.00273234
0.00459608
-0.00316655
0.00515463
-0.00351998
0.00579255
-0.00376892
0.0065307
-0.00388811
0.00739206
-0.00385006
0.00840221
-0.00362478
0.00959256
-0.00317899
0.0110012
-0.00247325
0.0126754
-0.00145938
0.0146713
0.0170557
-7.8522e-05
-0.000564249
0.00327572
-0.00107479
0.00368342
-0.00158242
0.00413409
-0.00207031
0.00458286
-0.00251997
0.00504575
-0.00291296
0.00554762
-0.0032302
0.00610979
-0.00345112
0.00675162
-0.00355411
0.00749505
-0.0035152
0.00836329
-0.00330771
0.00938507
-0.00290114
0.0105947
-0.00225867
0.012033
-0.00133634
0.0137489
0.0157998
-8.0407e-05
-0.0005235
0.00373934
-0.000993792
0.00415371
-0.00146043
0.00460073
-0.00190696
0.00502939
-0.00231639
0.00545518
-0.0026719
0.00590313
-0.00295669
0.00639458
-0.00315372
0.00694865
-0.00324315
0.00758448
-0.00320461
0.00832475
-0.00301422
0.00919469
-0.00264367
0.0102241
-0.00205974
0.011449
-0.00122138
0.0129106
0.0146578
-7.9355e-05
-0.000484053
0.00416496
-0.000916019
0.00458568
-0.00134406
0.00502877
-0.00175206
0.00543739
-0.00212437
0.00582748
-0.00244629
0.00622504
-0.00270306
0.00665136
-0.00287881
0.0071244
-0.00295758
0.00766326
-0.00292048
0.00828765
-0.0027459
0.00902011
-0.00240862
0.00988682
-0.00187721
0.0109176
-0.00111493
0.0121483
0.0136197
-7.68552e-05
-0.000446433
0.00455535
-0.000842781
0.00498202
-0.00123473
0.00542072
-0.0016069
0.00580956
-0.00194537
0.00616595
-0.00223685
0.00651652
-0.002468
0.00688251
-0.00262571
0.00728211
-0.00269537
0.00773292
-0.00266003
0.00825231
-0.00250049
0.00886056
-0.00219335
0.00957968
-0.00171032
0.0104346
-0.00101732
0.0114553
0.0126758
-7.3425e-05
-0.000411096
0.00491295
-0.000774234
0.00534516
-0.00113252
0.005779
-0.00147209
0.00614913
-0.00177957
0.00647343
-0.00204329
0.00678023
-0.00225195
0.00709117
-0.00239363
0.00742379
-0.00245536
0.00779464
-0.00242234
0.00821929
-0.00227657
0.00871479
-0.00199687
0.00929999
-0.00155749
0.0099952
-0.000927486
0.0108253
0.0118179
-6.95495e-05
-0.0003783
0.00524061
-0.000710536
0.00567739
-0.00103795
0.00610642
-0.0013472
0.00645838
-0.00162643
0.00675267
-0.00186535
0.00701915
-0.00205348
0.0072793
-0.00218117
0.00755148
-0.00223592
0.0078494
-0.00220497
0.00818834
-0.00207195
0.00858177
-0.0018174
0.00904543
-0.00141797
0.00959578
-0.000845135
0.0102525
0.0110379
-6.5162e-05
-0.000347503
0.00554053
-0.000651993
0.00598188
-0.000951026
0.00640545
-0.00123268
0.00674003
-0.00148632
0.00700631
-0.00170233
0.00723516
-0.0018723
0.00744927
-0.0019866
0.00766579
-0.00203573
0.00789853
-0.00200675
0.00815936
-0.00188527
0.0084603
-0.00165371
0.00881387
-0.00129047
0.00923253
-0.000769887
0.00973189
0.0103289
-6.09013e-05
-0.000320089
0.00581533
-0.00059845
0.00626025
-0.000871535
0.00667854
-0.00112752
0.00699602
-0.00135733
0.00723612
-0.00155271
0.00743054
-0.00170603
0.00760259
-0.00180929
0.00776904
-0.00185289
0.00794212
-0.00182595
0.00813243
-0.00171533
0.00834968
-0.00150443
0.00860297
-0.00117421
0.00890231
-0.000701089
0.00925877
0.00968431
-5.64761e-05
-0.000293936
0.00606763
-0.000549182
0.00651549
-0.000798586
0.00692794
-0.00103188
0.00722931
-0.00124015
0.00744438
-0.0014164
0.00760679
-0.00155443
0.00774063
-0.0016468
0.00786141
-0.00168573
0.00798105
-0.00166084
0.00810754
-0.00156002
0.00824886
-0.00136846
0.00841141
-0.00106817
0.00860202
-0.000638029
0.00882863
0.00909841
-5.21296e-05
-0.000273346
0.00629871
-0.000506261
0.00674841
-0.000733268
0.00715495
-0.000944288
0.00744033
-0.00113246
0.00763255
-0.00129056
0.00776489
-0.00141471
0.00786478
-0.00149827
0.00794498
-0.0015332
0.00801598
-0.00151065
0.00808498
-0.00141863
0.00815684
-0.00124417
0.00823695
-0.000971486
0.00832933
-0.000580272
0.00843742
0.00856611
-4.79774e-05
-0.000249321
0.00650934
-0.000464095
0.00696318
-0.000672309
0.00736316
-0.000865095
0.00763312
-0.00103448
0.00780194
-0.00117694
0.00790734
-0.00128768
0.00797552
-0.0013626
0.0080199
-0.00139412
0.0080475
-0.00137327
0.00806413
-0.00128992
0.0080735
-0.0011315
0.00807852
-0.000883341
0.00808118
-0.000528056
0.00808213
-4.38208e-05
0.00808188
0.000265853
0.00143361
0.00038454
0.00196464
0.000490529
0.00241732
0.00059871
0.00294588
0.000712517
0.00357681
0.000830411
0.00433265
0.000947329
0.00523784
0.00105586
0.00631738
0.00114655
0.00760221
0.00120991
0.00912693
0.00123919
0.0109344
0.00123271
0.0130783
0.00119506
0.0156266
0.00113565
0.0186649
0.0222962
0.00106477
0.000124556
0.00130905
0.000147629
0.00194162
0.000189587
0.00237532
0.000250461
0.00288504
0.000324239
0.00350298
0.000407288
0.00424963
0.000496113
0.00514897
0.000586926
0.00622658
0.000675096
0.00751402
0.000755737
0.0090463
0.00082372
0.0108664
0.000874442
0.0130275
0.000904612
0.0155964
0.000913068
0.0186564
0.02231
0.00089932
0.000187565
0.0011215
0.000234988
0.00189423
0.000262924
0.00234737
0.000293696
0.00285429
0.000330621
0.00346604
0.000374699
0.00420557
0.000425927
0.00509773
0.00048292
0.0061696
0.000542822
0.0074541
0.000601861
0.00898726
0.000655928
0.0108123
0.000701661
0.0129818
0.000736906
0.0155611
0.000760835
0.0186325
0.0222968
0.000773977
7.77344e-05
0.00104378
0.000134116
0.00183789
0.000163086
0.00231839
0.000185651
0.00283174
0.000210927
0.00344075
0.00024231
0.0041742
0.000281286
0.00505874
0.000327964
0.00612293
0.000381936
0.00740012
0.000440064
0.00892914
0.000498589
0.0107538
0.000553024
0.0129274
0.000599476
0.0155147
0.000635528
0.0185964
0.0222734
0.000658989
-4.50715e-05
0.00108884
2.70255e-05
0.00176583
6.91135e-05
0.00227628
9.50879e-05
0.00280578
0.000118659
0.00341716
0.000145693
0.00414717
0.000178487
0.00502594
0.000218156
0.00608327
0.000264711
0.00735356
0.000317157
0.0088767
0.000373246
0.0106977
0.000429706
0.0128709
0.000482818
0.0154616
0.000529484
0.0185497
0.0222331
0.000569714
-6.2806e-05
0.00115164
-1.13119e-07
0.00170315
4.69978e-05
0.00222916
7.65588e-05
0.00277623
9.88678e-05
0.00339484
0.000120854
0.0041252
0.000146628
0.00500015
0.000177411
0.00605249
0.000214023
0.00731694
0.000256227
0.0088345
0.00030293
0.010651
0.000352227
0.0128216
0.000401602
0.0154122
0.000448275
0.0185031
0.0221915
0.000489918
-2.72742e-05
0.0011789
8.13287e-06
0.00166773
4.82602e-05
0.00218903
7.79437e-05
0.00274654
9.92988e-05
0.00337348
0.00011803
0.00410646
0.000138055
0.00498012
0.000161693
0.00602886
0.000190108
0.00728853
0.000223629
0.00880098
0.000261751
0.0106128
0.000303324
0.01278
0.000346612
0.0153689
0.000389593
0.0184601
0.0221507
0.000430377
-1.96312e-06
0.00118087
1.84533e-05
0.00164729
4.89351e-05
0.00215856
7.61022e-05
0.00271936
9.6706e-05
0.00335289
0.000113741
0.00408942
0.000130616
0.00496325
0.000149715
0.00600976
0.000172549
0.00726569
0.000199877
0.00877366
0.000231674
0.010581
0.000267222
0.0127445
0.000305314
0.0153308
0.000344355
0.0184211
0.0221126
0.000382499
9.33498e-06
0.00117155
2.44366e-05
0.00163214
4.79454e-05
0.00213507
7.19949e-05
0.00269528
9.19724e-05
0.00333293
0.000108279
0.00407311
0.000123521
0.00494802
0.000139896
0.00599339
0.000159107
0.00724649
0.000182009
0.00875076
0.000208945
0.0105541
0.000239645
0.0127138
0.000273337
0.0152971
0.000308958
0.0183854
0.0220763
0.000345178
1.19838e-05
0.00115957
2.63888e-05
0.0016177
4.60892e-05
0.00211538
6.76044e-05
0.00267375
8.67131e-05
0.00331383
0.000102625
0.00405719
0.00011702
0.00493363
0.000131861
0.00597854
0.00014864
0.00722971
0.000168421
0.00873098
0.000191714
0.0105308
0.000218519
0.012687
0.000248413
0.0152672
0.000280635
0.0183532
0.0220428
0.000314198
1.16303e-05
0.00114794
2.59482e-05
0.00160338
4.36493e-05
0.00209768
6.32326e-05
0.00265418
8.13898e-05
0.00329567
9.69193e-05
0.00404167
0.000110833
0.00491972
0.000124627
0.00596475
0.000139727
0.00721461
0.000157252
0.00871346
0.000177791
0.0105103
0.000201507
0.0126633
0.000228187
0.0152406
0.000257246
0.0183242
0.0220122
0.000287851
1.06712e-05
0.00113726
2.45539e-05
0.00158953
4.10118e-05
0.00208121
5.91051e-05
0.0026361
7.64358e-05
0.00327833
9.16878e-05
0.00402642
0.000105053
0.00490634
0.000118101
0.00595171
0.000131815
0.0072009
0.000147826
0.00869745
0.00016621
0.0104919
0.000187448
0.012642
0.000211435
0.0152166
0.00023782
0.0182978
0.0219841
0.000265935
9.78162e-06
0.00112748
2.29302e-05
0.00157643
3.83603e-05
0.00206576
5.52886e-05
0.00261921
7.19282e-05
0.00326167
8.6801e-05
0.00401157
9.99154e-05
0.00489322
0.000112401
0.00593923
0.000125367
0.00718793
0.000139833
0.00868298
0.000156491
0.0104752
0.000175702
0.0126228
0.00019747
0.0151948
0.000221507
0.0182737
0.0219583
0.000247296
9.03031e-06
0.00111845
2.13003e-05
0.0015642
3.57996e-05
0.00205125
5.17879e-05
0.00260325
6.78719e-05
0.00324558
8.2501e-05
0.00399696
9.53614e-05
0.00488035
0.000107415
0.00592719
0.000119666
0.00717567
0.000133089
0.00866957
0.000148386
0.0104599
0.000165998
0.0126052
0.00018606
0.0151748
0.000208516
0.0182513
0.0219334
0.000233369
8.37198e-06
0.00111008
1.97926e-05
0.0015528
3.34439e-05
0.00203759
4.86455e-05
0.00258806
6.42203e-05
0.00322999
7.86055e-05
0.00398259
9.12718e-05
0.00486767
0.000102988
0.00591549
0.000114674
0.00716398
0.000127253
0.00865699
0.000141427
0.0104458
0.000157682
0.012589
0.000176235
0.0151562
0.000197094
0.0182304
0.0219105
0.000220057
7.80059e-06
0.00110229
1.84522e-05
0.00154217
3.13133e-05
0.00202473
4.58265e-05
0.00257356
6.08717e-05
0.00321494
7.50249e-05
0.00396845
8.75527e-05
0.00485514
9.89935e-05
0.00590405
0.000110208
0.00715276
0.000122069
0.00864514
0.000135267
0.0104326
0.000150303
0.0125739
0.000167423
0.0151391
0.000186662
0.0182112
0.0218893
0.000207809
7.31024e-06
0.00109499
1.72791e-05
0.0015322
2.94469e-05
0.00201257
4.32309e-05
0.00255978
5.77506e-05
0.00320042
7.16828e-05
0.00395452
8.41287e-05
0.00484269
9.53601e-05
0.00589283
0.00010619
0.00714193
0.000117447
0.00863389
0.000129813
0.0104202
0.000143796
0.01256
0.000159675
0.0151232
0.00017752
0.0181933
0.0218697
0.000197163
6.84628e-06
0.00108815
1.62129e-05
0.00152283
2.77263e-05
0.00200106
4.08757e-05
0.00254663
5.48593e-05
0.00318644
6.85654e-05
0.00394082
8.09821e-05
0.00483027
9.2065e-05
0.00588175
0.000102588
0.0071314
0.000113348
0.00862313
0.000125018
0.0104085
0.000138116
0.0125469
0.000152949
0.0151084
0.000169637
0.0181767
0.0218511
0.000188191
6.45715e-06
0.00108169
1.52612e-05
0.00151402
2.61392e-05
0.00199018
3.86837e-05
0.00253408
5.21979e-05
0.00317293
6.57067e-05
0.00392731
7.80563e-05
0.00481792
8.90412e-05
0.00587077
9.93308e-05
0.00712111
0.000109689
0.00861277
0.000120782
0.0103974
0.000133137
0.0125345
0.000147097
0.0150944
0.000162853
0.0181609
0.0218335
0.000180433
6.07287e-06
0.00107562
1.43836e-05
0.00150571
2.47009e-05
0.00197987
3.67016e-05
0.00252208
4.97643e-05
0.00315987
6.30512e-05
0.00391402
7.53364e-05
0.00480564
8.62514e-05
0.00585985
9.63528e-05
0.00711101
0.000106371
0.00860276
0.000116959
0.0103869
0.00012864
0.0125228
0.000141758
0.0150813
0.000156475
0.0181462
0.0218172
0.000172846
5.74044e-06
0.00106989
1.35969e-05
0.00149785
2.34061e-05
0.00197006
3.49026e-05
0.00251058
4.75717e-05
0.0031472
6.0567e-05
0.00390102
7.27782e-05
0.00479343
8.36611e-05
0.00584897
9.36234e-05
0.00710105
0.000103365
0.00859302
0.000113531
0.0103767
0.000124648
0.0125117
0.000137087
0.0150689
0.000151099
0.0181322
0.0218015
0.000166773
5.45165e-06
0.00106444
1.29057e-05
0.00149039
2.22579e-05
0.00196071
3.32954e-05
0.00249954
4.55489e-05
0.00313495
5.82513e-05
0.00388832
7.03846e-05
0.0047813
8.12692e-05
0.00583809
9.11344e-05
0.00709119
0.000100653
0.0085835
0.000110467
0.0103669
0.000121109
0.0125011
0.000132966
0.015057
0.000146301
0.0181188
0.0217861
0.000161691
5.19325e-06
0.00105924
1.22875e-05
0.00148329
2.12205e-05
0.00195178
3.18101e-05
0.00248895
4.36604e-05
0.0031231
5.60629e-05
0.00387591
6.8121e-05
0.00476924
7.90206e-05
0.00582718
8.88248e-05
0.00708138
9.81651e-05
0.00857416
0.00010768
0.0103574
0.000117903
0.0124908
0.000129239
0.0150457
0.000141962
0.0181061
0.0217718
0.000156261
4.94508e-06
0.0010543
1.1714e-05
0.00147652
2.02371e-05
0.00194326
3.04229e-05
0.00247876
4.18898e-05
0.00311164
5.40084e-05
0.00386379
6.5981e-05
0.00475727
7.68929e-05
0.00581627
8.66586e-05
0.00707162
9.58529e-05
0.00856496
0.000105111
0.0103481
0.000114962
0.012481
0.00012583
0.0150348
0.000138031
0.0180939
0.0217579
0.000151908
4.72291e-06
0.00104958
1.1177e-05
0.00147006
1.93495e-05
0.00193509
2.91125e-05
0.00246899
4.02289e-05
0.00310052
5.20868e-05
0.00385193
6.39518e-05
0.00474541
7.48712e-05
0.00580535
8.46173e-05
0.00706188
9.36984e-05
0.00855588
0.000102737
0.0103391
0.000112273
0.0124715
0.000122751
0.0150243
0.000134537
0.0180821
0.0217446
0.000147852
4.51056e-06
0.00104506
1.06838e-05
0.00146388
1.85164e-05
0.00192726
2.79282e-05
0.00245957
3.86954e-05
0.00308976
5.02993e-05
0.00384032
6.20349e-05
0.00473368
7.29415e-05
0.00579444
8.2676e-05
0.00705214
9.16615e-05
0.0085469
0.000100504
0.0103302
0.000109745
0.0124622
0.000119831
0.0150142
0.000131103
0.0180709
0.0217321
0.000143632
4.30944e-06
0.00104076
1.02271e-05
0.00145795
1.77439e-05
0.00191975