/*--------------------------------*- C++ -*----------------------------------*\
| =========                 |                                                 |
| \\      /  F ield         | OpenFOAM: The Open Source CFD Toolbox           |
|  \\    /   O peration     | Version:  2.3.0                                 |
|   \\  /    A nd           | Web:      www.OpenFOAM.org                      |
|    \\/     M anipulation  |                                                 |
\*---------------------------------------------------------------------------*/
FoamFile
{
    version     2.0;
    format      ascii;
    class       volVectorField;
    location    "150";
    object      U;
}
// * * * * * * * * * * * * * * * * * * * * * * * * * * * * * * * * * * * * * //

dimensions      [0 1 -1 0 0 0 0];

internalField   nonuniform List<vector> 
7826
(
(20.7283 0.583156 3.40676e-21)
(20.7878 0.690977 -2.52065e-21)
(20.8554 0.824772 4.1233e-21)
(20.932 0.983278 3.51916e-20)
(21.0132 1.16151 -3.69776e-20)
(21.0889 1.35124 -2.61412e-21)
(21.1457 1.54342 0)
(21.1697 1.73003 0)
(21.1502 1.90515 0)
(21.0808 2.06467 0)
(20.9595 2.20584 0)
(20.788 2.32768 -4.09174e-20)
(20.5698 2.43174 1.31981e-20)
(20.3094 2.51843 5.50738e-20)
(20.0145 2.57778 -3.04875e-20)
(20.605 0.605252 -1.57545e-21)
(20.6124 0.684083 0)
(20.608 0.764961 -1.48068e-20)
(20.5916 0.85052 1.46057e-20)
(20.5645 0.941529 -6.03211e-22)
(20.5287 1.03735 -1.41067e-20)
(20.4863 1.13549 1.30095e-20)
(20.4384 1.23219 0)
(20.3857 1.3232 3.73393e-20)
(20.3284 1.40468 -3.42682e-20)
(20.2672 1.47367 -5.74088e-20)
(20.203 1.52816 -1.4082e-20)
(20.137 1.5672 9.93148e-20)
(20.0705 1.59048 -3.49453e-20)
(20.005 1.59754 -2.36443e-22)
(20.5149 0.619677 2.35036e-21)
(20.5107 0.689175 0)
(20.5009 0.756532 3.18715e-21)
(20.4846 0.821018 -3.32207e-21)
(20.4613 0.8809 -6.92824e-20)
(20.4307 0.935032 1.39506e-19)
(20.3937 0.982854 -1.49091e-19)
(20.3511 1.0242 7.45872e-20)
(20.3042 1.05912 -8.54516e-20)
(20.2544 1.08775 -7.29483e-21)
(20.203 1.11036 -6.58129e-21)
(20.151 1.12721 8.48618e-20)
(20.0995 1.13866 -3.54741e-22)
(20.0491 1.14516 2.36205e-20)
(20.0006 1.14702 -2.23156e-20)
(20.4367 0.60649 0)
(20.421 0.658512 3.3716e-20)
(20.4004 0.707172 -3.77463e-20)
(20.3756 0.752619 -5.17804e-22)
(20.3474 0.794366 -2.42086e-22)
(20.3165 0.831962 0)
(20.2838 0.865093 8.99873e-20)
(20.2497 0.893603 6.02338e-21)
(20.2149 0.917495 -8.74498e-20)
(20.1798 0.936868 4.82621e-20)
(20.1447 0.951933 -4.62906e-20)
(20.11 0.962948 0)
(20.0761 0.970219 -1.1262e-23)
(20.043 0.974083 -7.95915e-22)
(20.0111 0.974814 -4.10665e-22)
(20.3804 0.589165 5.02194e-21)
(20.3626 0.629097 -3.91625e-22)
(20.3421 0.66566 -2.92675e-21)
(20.3191 0.69875 -4.46412e-20)
(20.2941 0.728247 4.57031e-20)
(20.2675 0.754109 -1.57232e-21)
(20.2398 0.77641 1.59923e-21)
(20.2113 0.795283 0)
(20.1824 0.81092 5.38822e-20)
(20.1533 0.823518 -5.14228e-20)
(20.1244 0.833277 0)
(20.0959 0.840405 -5.59874e-20)
(20.0678 0.845104 5.51362e-20)
(20.0404 0.847575 4.43203e-22)
(20.0138 0.847984 4.5757e-22)
(20.3363 0.568483 2.96211e-20)
(20.3179 0.599235 -2.04981e-20)
(20.2978 0.627169 2.92758e-21)
(20.2764 0.65218 0)
(20.2539 0.674359 1.55422e-21)
(20.2307 0.693769 1.59569e-21)
(20.207 0.710519 -5.85301e-20)
(20.1829 0.724732 -2.45345e-21)
(20.1588 0.736551 5.40773e-20)
(20.1346 0.746121 5.94311e-20)
(20.1106 0.753574 -5.74631e-20)
(20.0868 0.759036 -9.42051e-22)
(20.0633 0.762634 -3.21856e-20)
(20.0403 0.764492 1.58783e-20)
(20.0177 0.764709 1.68837e-20)
(20.3028 0.54836 2.62442e-20)
(20.2853 0.572498 -2.53969e-20)
(20.2668 0.594467 0)
(20.2475 0.61401 0)
(20.2276 0.631315 0)
(20.2072 0.646472 1.80252e-21)
(20.1865 0.659589 1.77014e-21)
(20.1656 0.670771 6.01722e-20)
(20.1446 0.680123 -5.92758e-20)
(20.1235 0.68774 -9.5465e-22)
(20.1024 0.693713 -3.31703e-20)
(20.0814 0.698118 3.29208e-20)
(20.0607 0.701025 -5.41319e-24)
(20.0402 0.702515 -1.06528e-21)
(20.02 0.702646 -8.90384e-21)
(20.2767 0.529694 -3.53696e-21)
(20.2604 0.548921 -2.8002e-20)
(20.2435 0.566651 2.59076e-20)
(20.2261 0.582408 -6.04007e-20)
(20.2083 0.59642 5.77197e-20)
(20.1901 0.608761 -1.84166e-21)
(20.1717 0.619514 0)
(20.1532 0.628747 0)
(20.1344 0.636523 6.41199e-20)
(20.1156 0.642901 -6.4736e-20)
(20.0967 0.647934 1.0495e-21)
(20.0778 0.651663 1.08693e-21)
(20.0591 0.654133 1.91957e-20)
(20.0404 0.655385 5.00573e-22)
(20.022 0.655453 -1.9802e-20)
(20.2561 0.513002 7.28026e-21)
(20.2411 0.528557 0)
(20.2257 0.543175 1.81037e-21)
(20.21 0.556208 3.0492e-20)
(20.1939 0.567877 -1.01463e-21)
(20.1776 0.578232 9.37349e-22)
(20.161 0.587327 -1.07079e-21)
(20.1442 0.595198 -3.23691e-20)
(20.1272 0.601875 1.04637e-21)
(20.11 0.607386 0)
(20.0927 0.611756 0)
(20.0753 0.615008 -3.94583e-20)
(20.058 0.617168 3.72568e-20)
(20.0407 0.618254 0)
(20.0236 0.618284 0)
(20.2397 0.498379 -3.70978e-21)
(20.2259 0.511146 0)
(20.2118 0.523357 0)
(20.1975 0.534351 3.89339e-21)
(20.1829 0.544285 3.22155e-20)
(20.168 0.553191 -3.00454e-20)
(20.1528 0.561087 2.06616e-21)
(20.1373 0.567974 -2.14618e-21)
(20.1217 0.573862 0)
(20.1058 0.57874 0)
(20.0898 0.582614 1.16497e-21)
(20.0736 0.585511 1.19524e-21)
(20.0573 0.587438 0)
(20.0411 0.588398 0)
(20.025 0.588399 0)
(20.2265 0.485562 0)
(20.2138 0.496285 0)
(20.2009 0.50655 0)
(20.1877 0.515971 3.04972e-20)
(20.1743 0.524589 -6.5548e-20)
(20.1605 0.532404 3.10099e-20)
(20.1464 0.53941 -3.47518e-20)
(20.1321 0.545566 1.32871e-21)
(20.1175 0.550876 3.57916e-20)
(20.1026 0.55529 0)
(20.0876 0.558781 -2.06357e-20)
(20.0723 0.561389 1.70785e-20)
(20.0569 0.563131 2.06189e-20)
(20.0415 0.563978 -1.01354e-20)
(20.0261 0.563947 -1.06826e-20)
(20.2155 0.474261 -1.88399e-21)
(20.2041 0.483366 0)
(20.1923 0.4921 0)
(20.18 0.500337 3.52389e-20)
(20.1675 0.507977 -3.10244e-20)
(20.1545 0.514958 3.67805e-20)
(20.1414 0.521305 -3.46859e-20)
(20.1279 0.526902 -2.25841e-21)
(20.1141 0.531794 1.87242e-20)
(20.1002 0.53587 -4.04849e-20)
(20.0859 0.539044 1.93917e-20)
(20.0713 0.541406 -1.79104e-20)
(20.0565 0.543005 1.26549e-20)
(20.0417 0.543737 1.05899e-20)
(20.0269 0.543662 -2.7508e-21)
(20.2065 0.463698 4.65886e-23)
(20.1961 0.471831 -1.42891e-20)
(20.1853 0.479519 1.62438e-20)
(20.1735 0.486894 2.55782e-23)
(20.162 0.493875 -2.14091e-21)
(20.1495 0.500183 -1.97268e-20)
(20.1373 0.506068 1.76066e-20)
(20.1244 0.511183 -1.6181e-20)
(20.1113 0.515801 1.61977e-20)
(20.0981 0.519653 2.40466e-21)
(20.0848 0.522498 2.00375e-20)
(20.0706 0.524581 -2.01734e-20)
(20.0564 0.526113 -5.23395e-21)
(20.0422 0.526737 -2.7592e-21)
(20.0278 0.526642 8.24865e-21)
(20.1977 0.454015 -2.10684e-21)
(20.1888 0.462068 1.41151e-23)
(20.1793 0.468758 0)
(20.1675 0.475275 -4.18965e-21)
(20.1572 0.481945 2.15441e-21)
(20.145 0.487598 -1.56202e-20)
(20.1336 0.493236 1.78761e-20)
(20.1212 0.497719 2.37008e-21)
(20.1087 0.502209 -2.23501e-24)
(20.0959 0.506173 -1.96431e-20)
(20.0838 0.508771 1.98674e-20)
(20.0703 0.510462 0)
(20.0572 0.512029 5.3674e-21)
(20.0437 0.512327 -8.38422e-21)
(20.0295 0.512329 5.5423e-21)
(19.6621 2.53908 0)
(19.3768 2.45638 -2.80329e-22)
(19.1452 2.35 -9.07473e-20)
(18.9684 2.23312 1.03046e-19)
(18.8449 2.10007 -1.14474e-21)
(18.7732 1.94943 2.39697e-21)
(18.7497 1.78257 3.35366e-19)
(18.7681 1.60243 -3.5989e-19)
(18.8201 1.41352 0)
(18.8951 1.22227 -2.73975e-21)
(18.9819 1.03672 0)
(19.0707 0.86538 0)
(19.1545 0.715265 3.96809e-19)
(19.2304 0.590007 -4.18839e-19)
(19.298 0.48172 1.8085e-20)
(19.9401 1.5906 0)
(19.8757 1.56911 2.39889e-22)
(19.8115 1.53111 -3.2907e-23)
(19.7484 1.4781 8.94792e-20)
(19.6875 1.41132 -9.72272e-20)
(19.6298 1.33263 -7.89622e-22)
(19.5759 1.24448 1.78246e-21)
(19.5267 1.14996 0)
(19.4829 1.05257 2.17604e-21)
(19.4459 0.955681 -5.38293e-21)
(19.4175 0.86194 -4.95763e-21)
(19.3995 0.772821 -3.54642e-19)
(19.3938 0.688429 3.70117e-19)
(19.4007 0.608134 2.26097e-20)
(19.4187 0.526597 -4.10433e-20)
(19.9534 1.14496 0)
(19.9055 1.13885 8.5253e-22)
(19.8565 1.12789 -6.28385e-20)
(19.8072 1.11183 6.48531e-20)
(19.7584 1.09025 -7.77439e-20)
(19.711 1.06283 -8.96156e-20)
(19.6662 1.02928 1.82188e-19)
(19.6251 0.989312 0)
(19.5889 0.942778 1.46043e-21)
(19.5587 0.889713 0)
(19.5354 0.830481 -2.69424e-19)
(19.5192 0.766002 1.38901e-19)
(19.5101 0.69783 6.88795e-21)
(19.5076 0.62799 1.60206e-19)
(19.5108 0.555658 -3.5741e-20)
(19.9798 0.972773 7.1162e-21)
(19.9481 0.967889 -8.31407e-21)
(19.9155 0.959756 -3.31537e-20)
(19.8823 0.948132 3.67178e-20)
(19.8488 0.932723 -7.92178e-20)
(19.8151 0.913292 8.27315e-20)
(19.7818 0.889638 -9.31627e-20)
(19.7491 0.861604 9.76519e-20)
(19.7176 0.829156 -2.21158e-19)
(19.6878 0.792342 2.27826e-19)
(19.6605 0.751349 0)
(19.6363 0.706512 0)
(19.6162 0.658287 -8.7757e-21)
(19.6009 0.607098 -8.98121e-21)
(19.591 0.551948 1.75941e-20)
(19.9876 0.846518 4.75714e-22)
(19.9611 0.843123 0)
(19.9341 0.837565 -3.56813e-20)
(19.9067 0.829696 -6.73962e-22)
(19.879 0.819322 3.70715e-20)
(19.8513 0.806254 8.54087e-20)
(19.8238 0.790304 -1.7653e-19)
(19.7967 0.771276 -2.78048e-21)
(19.7704 0.748995 9.60242e-20)
(19.7452 0.723297 0)
(19.7216 0.694076 0)
(19.6999 0.661315 0)
(19.6806 0.625115 1.18852e-19)
(19.6642 0.585556 -1.20396e-19)
(19.6512 0.542202 0)
(19.9954 0.763396 -5.24859e-22)
(19.973 0.760519 3.58378e-20)
(19.9502 0.755942 -3.53901e-20)
(19.9271 0.749575 3.9315e-20)
(19.904 0.741299 -1.22251e-19)
(19.8807 0.730994 1.68751e-19)
(19.8576 0.718544 -1.78631e-19)
(19.8347 0.703829 1.87878e-19)
(19.8121 0.68672 2.51293e-21)
(19.7901 0.667091 -1.02911e-19)
(19.7689 0.644839 -1.10616e-19)
(19.7488 0.619884 1.13502e-19)
(19.73 0.592205 7.62305e-21)
(19.7129 0.561764 -4.64423e-20)
(19.6976 0.528586 3.70363e-20)
(20 0.701485 8.96737e-21)
(19.9799 0.699008 2.36433e-21)
(19.9597 0.695127 -2.46721e-21)
(19.9393 0.689788 -4.25787e-20)
(19.9189 0.682918 4.29823e-20)
(19.8985 0.67445 4.42693e-20)
(19.8783 0.66431 -4.48513e-20)
(19.8583 0.652425 0)
(19.8386 0.638702 3.1176e-21)
(19.8193 0.623045 1.03556e-19)
(19.8005 0.605363 -1.0573e-19)
(19.7825 0.585558 3.42802e-21)
(19.7653 0.563552 0)
(19.7493 0.53925 -2.96442e-20)
(19.7349 0.512685 2.10334e-20)
(20.0038 0.654382 0)
(19.9855 0.652152 -1.27249e-21)
(19.9671 0.648711 2.50054e-20)
(19.9487 0.644018 -2.11317e-20)
(19.9303 0.638038 -4.30594e-20)
(19.912 0.63074 4.4622e-20)
(19.8939 0.622083 0)
(19.876 0.612028 5.13217e-20)
(19.8584 0.600527 -4.8884e-20)
(19.8412 0.587514 0)
(19.8244 0.572928 3.26538e-21)
(19.8081 0.556692 -6.824e-21)
(19.7924 0.538733 0)
(19.7774 0.519025 7.31816e-21)
(19.7635 0.497633 -7.23343e-21)
(20.0066 0.617281 0)
(19.9896 0.615235 -5.43171e-24)
(19.9726 0.61211 -2.61751e-20)
(19.9556 0.607879 2.06394e-20)
(19.9388 0.602526 -1.42775e-21)
(19.922 0.596051 -4.69158e-20)
(19.9055 0.588442 -9.55316e-22)
(19.8892 0.57968 4.20169e-20)
(19.8732 0.569746 0)
(19.8576 0.558608 5.14995e-20)
(19.8424 0.546226 -5.85445e-20)
(19.8276 0.532552 6.73934e-21)
(19.8133 0.517526 0)
(19.7995 0.501152 -1.42496e-20)
(19.786 0.483174 2.84496e-20)
(20.0089 0.587449 -4.07075e-21)
(19.9929 0.585547 -3.10871e-23)
(19.977 0.582659 6.22736e-24)
(19.9611 0.578762 2.32486e-20)
(19.9454 0.573862 -2.45982e-20)
(19.9298 0.567985 -4.79999e-20)
(19.9145 0.561143 9.36879e-20)
(19.8995 0.55333 -4.56788e-20)
(19.8848 0.544541 0)
(19.8704 0.534776 -3.17995e-21)
(19.8565 0.524024 3.29159e-21)
(19.8429 0.51227 4.71496e-20)
(19.8299 0.499487 -5.76397e-20)
(19.8172 0.485747 -1.40428e-20)
(19.8052 0.470572 -3.60035e-21)
(20.0108 0.563033 -1.41744e-21)
(19.9956 0.561249 4.24236e-21)
(19.9805 0.558563 4.89321e-24)
(19.9656 0.554916 1.47427e-21)
(19.9507 0.550348 1.49527e-21)
(19.9361 0.544928 0)
(19.9217 0.538676 6.12819e-21)
(19.9076 0.53158 0)
(19.8939 0.523649 5.08597e-20)
(19.8806 0.514913 -4.76503e-20)
(19.8677 0.505382 -5.25456e-20)
(19.8552 0.495067 5.60967e-20)
(19.8431 0.483963 6.77149e-21)
(19.8314 0.472154 0)
(19.8201 0.459067 -3.49489e-21)
(20.0123 0.542751 -5.68211e-21)
(19.9976 0.541078 -2.98157e-21)
(19.9833 0.538608 7.3001e-21)
(19.9692 0.53516 0)
(19.9551 0.530825 0)
(19.9411 0.52577 -3.04138e-21)
(19.9274 0.519997 -2.49087e-20)
(19.9142 0.51345 2.78849e-20)
(19.9013 0.506164 0)
(19.8888 0.498211 0)
(19.8767 0.489615 0)
(19.8651 0.480406 3.28558e-21)
(19.8539 0.470596 -6.71688e-21)
(19.8431 0.460227 0)
(19.8327 0.448832 0)
(20.0138 0.525698 2.84359e-21)
(19.9993 0.524144 0)
(19.9859 0.521989 0)
(19.9724 0.518695 -1.20495e-20)
(19.9588 0.51447 1.19684e-20)
(19.9452 0.50971 3.05945e-21)
(19.9323 0.504348 2.48514e-20)
(19.9197 0.498222 -3.09788e-20)
(19.9075 0.491401 0)
(19.8956 0.48405 -2.25208e-20)
(19.8843 0.476184 -3.36585e-22)
(19.8733 0.467863 -3.61495e-21)
(19.8629 0.459084 2.9823e-20)
(19.8529 0.44987 1.01694e-20)
(19.8435 0.440231 -6.94398e-21)
(20.016 0.511241 2.88339e-21)
(20.0013 0.509812 -5.83517e-21)
(19.9887 0.508049 1.75207e-20)
(19.9756 0.504675 2.30994e-22)
(19.9621 0.500526 -9.00432e-21)
(19.9487 0.496124 0)
(19.9366 0.491127 -6.12775e-21)
(19.9245 0.485317 3.15444e-21)
(19.9129 0.478811 0)
(19.9015 0.471972 -3.25262e-20)
(19.8909 0.464671 2.58312e-20)
(19.8804 0.457085 -1.31035e-20)
(19.8709 0.44912 -3.43875e-21)
(19.8616 0.440654 1.35455e-20)
(19.8532 0.431418 0)
(19.9516 -0.298896 0)
(19.8555 -0.30357 -2.84246e-19)
(19.7167 -0.308827 3.1641e-19)
(19.521 -0.313203 0)
(19.2606 -0.316666 0)
(18.9355 -0.319175 6.5341e-21)
(18.5487 -0.320914 1.02755e-18)
(18.1043 -0.322028 -1.72364e-18)
(17.604 -0.322586 -1.23261e-20)
(17.0439 -0.322551 -3.11643e-21)
(16.4102 -0.322041 1.71678e-18)
(15.6699 -0.320662 -1.01572e-18)
(14.7556 -0.318285 -3.10979e-19)
(13.576 -0.285986 2.01927e-19)
(12.3875 -0.268314 4.78443e-23)
(19.9462 -0.296117 -1.69358e-20)
(19.8605 -0.299513 1.31345e-19)
(19.7409 -0.303977 -1.75779e-19)
(19.5766 -0.308609 1.12749e-20)
(19.3606 -0.313343 -4.00816e-19)
(19.09 -0.317943 4.38033e-19)
(18.7647 -0.32211 4.74411e-19)
(18.3848 -0.325502 1.18069e-21)
(17.9482 -0.32782 -5.61951e-19)
(17.448 -0.328846 -4.93926e-21)
(16.8677 -0.328695 3.58092e-19)
(16.1725 -0.326867 -2.27497e-21)
(15.3073 -0.32324 -5.00687e-19)
(14.2578 -0.29813 5.10579e-21)
(13.3985 -0.245272 -2.00646e-19)
(19.9427 -0.295899 1.79909e-20)
(19.8661 -0.300533 1.77065e-19)
(19.7616 -0.306277 -1.61141e-19)
(19.6209 -0.311998 -1.16691e-20)
(19.437 -0.317269 6.30773e-21)
(19.2056 -0.321709 4.25926e-19)
(18.9242 -0.325064 -4.78038e-19)
(18.5901 -0.327207 -5.16601e-19)
(18.1986 -0.328121 -3.95286e-23)
(17.7404 -0.327868 6.32316e-19)
(17.1963 -0.326675 0)
(16.5316 -0.323868 0)
(15.7008 -0.317274 0)
(14.7264 -0.293133 -2.30686e-21)
(13.9932 -0.234048 -1.7749e-19)
(19.9374 -0.295355 -7.65364e-20)
(19.867 -0.299917 9.42313e-20)
(19.7728 -0.305265 1.70152e-19)
(19.6483 -0.310255 -1.96119e-19)
(19.4874 -0.314615 4.24426e-19)
(19.2849 -0.318164 1.01242e-21)
(19.0365 -0.320789 -9.86339e-19)
(18.7377 -0.322436 2.69728e-19)
(18.3812 -0.323101 5.93596e-19)
(17.9555 -0.32283 -3.28267e-19)
(17.4395 -0.321746 -1.16063e-20)
(16.7979 -0.319096 -3.3115e-21)
(15.9917 -0.311312 0)
(15.0594 -0.286885 4.6784e-21)
(14.3815 -0.229016 -5.44483e-21)
(19.9321 -0.294199 -2.04274e-20)
(19.8669 -0.297705 1.0359e-22)
(19.7817 -0.302219 2.38829e-20)
(19.6711 -0.306472 0)
(19.5293 -0.310262 6.92851e-21)
(19.3506 -0.313451 2.45699e-19)
(19.1296 -0.315892 -7.42347e-21)
(18.8597 -0.317493 -5.60611e-19)
(18.532 -0.318217 3.0301e-19)
(18.133 -0.318082 0)
(17.6402 -0.317133 5.71465e-21)
(17.0179 -0.314598 3.26055e-21)
(16.2302 -0.306383 1.21702e-19)
(15.3234 -0.281774 -1.49026e-19)
(14.6738 -0.226199 -7.99923e-20)
(19.9279 -0.292193 -5.36079e-20)
(19.8678 -0.29539 2.33236e-20)
(19.7908 -0.299533 6.7388e-23)
(19.692 -0.303372 6.68393e-21)
(19.5659 -0.306812 -2.35197e-19)
(19.4067 -0.30974 2.28432e-19)
(19.2077 -0.312011 0)
(18.9613 -0.313531 4.40275e-21)
(18.6573 -0.314262 0)
(18.2806 -0.314216 0)
(17.8073 -0.31337 5.7796e-21)
(17.2014 -0.310899 -6.50244e-21)
(16.4283 -0.302558 -1.26498e-19)
(15.5378 -0.277941 1.39496e-19)
(14.9044 -0.224204 -5.05307e-21)
(19.924 -0.290296 -2.25192e-20)
(19.8689 -0.293438 6.12143e-20)
(19.7988 -0.297258 -1.29771e-20)
(19.7096 -0.300762 -6.88448e-21)
(19.5962 -0.303921 0)
(19.4524 -0.30665 7.78947e-21)
(19.2713 -0.308818 0)
(19.0442 -0.310332 4.48515e-21)
(18.7598 -0.311139 1.54684e-19)
(18.4019 -0.311226 -5.05987e-21)
(17.9454 -0.310508 -1.8458e-19)
(17.3536 -0.308094 6.41701e-21)
(16.5922 -0.299708 -1.81867e-23)
(15.7127 -0.275104 -3.38293e-20)
(15.089 -0.222575 -3.87872e-20)
(19.921 -0.289262 -1.2124e-20)
(19.8697 -0.291874 1.02684e-19)
(19.8054 -0.295244 -1.0809e-19)
(19.724 -0.298458 -7.1485e-21)
(19.6208 -0.301435 -1.13142e-19)
(19.4897 -0.304084 2.55714e-19)
(19.3233 -0.306273 -2.71999e-19)
(19.1123 -0.307891 2.86018e-19)
(18.8446 -0.308854 1.42127e-22)
(18.5028 -0.309114 -1.58116e-19)
(18.061 -0.30853 -5.7577e-21)
(17.4815 -0.306148 0)
(16.7301 -0.297708 -8.04443e-24)
(15.8584 -0.273061 4.10226e-20)
(15.2406 -0.221242 -3.70492e-20)
(19.9181 -0.286681 -3.82769e-20)
(19.8703 -0.28991 8.02991e-20)
(19.8109 -0.293283 -5.60318e-20)
(19.7361 -0.296416 1.17715e-19)
(19.6414 -0.299364 -1.31429e-19)
(19.5207 -0.302067 0)
(19.3664 -0.304402 8.65782e-21)
(19.1689 -0.30624 -1.47055e-19)
(18.9154 -0.307467 -4.96241e-21)
(18.5877 -0.307991 1.68899e-19)
(18.1588 -0.307587 1.02998e-19)
(17.5905 -0.305213 -1.00439e-19)
(16.8477 -0.296561 6.9984e-21)
(15.982 -0.271584 -7.95032e-21)
(15.3683 -0.219971 -3.56547e-20)
(19.9151 -0.285218 1.97617e-20)
(19.8706 -0.288314 0)
(19.8155 -0.291514 -7.26324e-21)
(19.7464 -0.294607 1.28664e-19)
(19.6587 -0.297593 -1.26653e-19)
(19.5466 -0.300417 0)
(19.4025 -0.30297 -8.75639e-21)
(19.2165 -0.305118 0)
(18.9753 -0.306728 4.9287e-21)
(18.6601 -0.307657 7.91069e-20)
(18.2432 -0.307633 -8.52978e-20)
(17.6852 -0.305432 -9.89571e-20)
(16.9508 -0.296756 4.8009e-20)
(16.0899 -0.271434 4.62212e-20)
(15.4785 -0.219442 1.70954e-20)
(19.9123 -0.283972 -6.9799e-21)
(19.8706 -0.286936 -7.24219e-21)
(19.8192 -0.290012 7.46559e-21)
(19.7547 -0.293064 0)
(19.6729 -0.296107 0)
(19.5678 -0.299117 0)
(19.4321 -0.302007 1.42071e-19)
(19.2555 -0.304617 -1.49709e-19)
(19.0245 -0.306781 0)
(18.7197 -0.308448 -8.41275e-20)
(18.3126 -0.309217 6.76764e-20)
(17.7639 -0.307627 -3.64123e-20)
(17.0366 -0.298339 6.01829e-20)
(16.1821 -0.271418 1.49083e-20)
(15.5741 -0.218169 1.64857e-20)
(19.9098 -0.282145 2.20106e-20)
(19.8709 -0.285469 -2.2438e-20)
(19.8228 -0.288547 0)
(19.7624 -0.291517 0)
(19.6856 -0.294502 0)
(19.5868 -0.297565 -8.59645e-21)
(19.4585 -0.300677 8.98988e-21)
(19.2908 -0.303701 -9.43261e-21)
(19.0696 -0.306359 0)
(18.7748 -0.308564 0)
(18.3783 -0.310861 2.24083e-20)
(17.8399 -0.311 -2.40293e-20)
(17.1253 -0.303966 -1.29468e-20)
(16.2717 -0.27698 0)
(15.6635 -0.220137 -1.57824e-20)
(19.9063 -0.281161 0)
(19.8695 -0.284392 7.74353e-21)
(19.8242 -0.287412 0)
(19.7671 -0.290336 6.48247e-20)
(19.6938 -0.293367 -5.84722e-20)
(19.5989 -0.296667 8.67064e-21)
(19.4749 -0.30035 -9.03232e-21)
(19.3119 -0.3041 9.44142e-21)
(19.0967 -0.307208 0)
(18.8069 -0.310399 0)
(18.4101 -0.314968 -1.10907e-20)
(17.8769 -0.320625 1.18225e-20)
(17.1618 -0.310986 2.5504e-20)
(16.3361 -0.277351 0)
(15.7399 -0.215617 0)
(19.9074 -0.279859 1.60019e-20)
(19.8731 -0.283072 -2.39425e-20)
(19.8312 -0.286065 0)
(19.7779 -0.288442 0)
(19.7101 -0.290766 -8.55849e-21)
(19.6224 -0.29343 0)
(19.5079 -0.296855 0)
(19.3575 -0.301668 8.63224e-20)
(19.1562 -0.304936 -1.70678e-19)
(18.8812 -0.303883 8.50897e-20)
(18.5051 -0.309885 -4.58158e-20)
(17.9827 -0.32384 1.08101e-19)
(17.3375 -0.333806 -5.3062e-20)
(16.4423 -0.305774 0)
(15.8442 -0.228194 0)
(12.9 -0.112497 2.67563e-19)
(14.4583 -0.163536 -7.94799e-19)
(15.7549 -0.177658 6.14448e-19)
(16.7156 -0.207637 0)
(17.4814 -0.230416 -8.63936e-19)
(18.1249 -0.249823 -9.07294e-22)
(18.6753 -0.266457 6.63953e-19)
(19.1413 -0.280535 0)
(19.5219 -0.291852 1.04295e-18)
(19.8135 -0.300218 -9.50152e-19)
(20.0159 -0.305561 -3.95358e-23)
(20.1373 -0.307893 -3.90572e-19)
(20.1976 -0.307955 -1.09854e-20)
(20.2182 -0.306254 4.4249e-19)
(20.2153 -0.303159 -1.04465e-19)
(13.8095 -0.14569 5.87112e-19)
(15.1281 -0.150133 -3.00129e-19)
(16.3382 -0.169032 -2.07642e-21)
(17.253 -0.196309 -3.2484e-21)
(17.9622 -0.216495 2.81374e-21)
(18.5367 -0.234022 -2.67759e-21)
(19.0104 -0.249594 5.78319e-19)
(19.3967 -0.263584 -5.22117e-19)
(19.7007 -0.275709 -4.84436e-19)
(19.9254 -0.285492 4.38183e-19)
(20.0765 -0.292449 -4.11188e-19)
(20.1653 -0.296236 3.92562e-19)
(20.2088 -0.297278 1.31714e-22)
(20.2226 -0.296322 1.6235e-19)
(20.2185 -0.294044 -1.47475e-19)
(14.3794 -0.159288 1.73385e-19)
(15.5964 -0.150123 -5.80753e-19)
(16.7533 -0.169283 4.74692e-19)
(17.6337 -0.192794 3.15015e-21)
(18.3011 -0.210674 -7.14776e-19)
(18.8246 -0.225447 -3.34578e-21)
(19.2415 -0.237975 5.72946e-19)
(19.5699 -0.249017 -5.2886e-19)
(19.8196 -0.258765 4.91248e-19)
(19.9983 -0.26721 -4.39655e-19)
(20.1155 -0.274157 4.1679e-19)
(20.1834 -0.279285 0)
(20.216 -0.282517 1.47135e-23)
(20.2255 -0.284035 -1.80263e-19)
(20.2205 -0.284117 1.75411e-19)
(14.7651 -0.163841 3.55233e-19)
(15.9378 -0.151788 2.89172e-19)
(17.0621 -0.169943 -9.64682e-19)
(17.9149 -0.191555 4.15896e-19)
(18.5481 -0.208681 3.74736e-19)
(19.0302 -0.222349 -3.30523e-19)
(19.4018 -0.233591 0)
(19.685 -0.243211 0)
(19.8938 -0.251497 5.11622e-19)
(20.0396 -0.258568 -4.71494e-19)
(20.134 -0.264406 4.41014e-19)
(20.1891 -0.268933 -4.07938e-19)
(20.2161 -0.27217 1.18829e-20)
(20.2243 -0.274253 -1.6732e-19)
(20.2201 -0.275335 1.85955e-19)
(15.0609 -0.165833 4.11896e-19)
(16.2126 -0.153837 7.9108e-22)
(17.3145 -0.171016 -2.37321e-19)
(18.1435 -0.19152 -6.4965e-21)
(18.747 -0.207992 -5.74718e-21)
(19.1939 -0.220808 0)
(19.5279 -0.231157 0)
(19.7744 -0.239858 4.42635e-21)
(19.9508 -0.247244 5.17516e-19)
(20.071 -0.253461 -9.84385e-19)
(20.1478 -0.258529 4.55064e-19)
(20.1926 -0.262453 0)
(20.2148 -0.265311 0)
(20.2218 -0.267264 0)
(20.2185 -0.268512 0)
(15.2967 -0.166761 4.9393e-21)
(16.4382 -0.155321 0)
(17.5235 -0.171762 2.25067e-19)
(18.3313 -0.191502 -1.98015e-19)
(18.9084 -0.207331 0)
(19.3252 -0.219409 -3.3109e-19)
(19.6278 -0.228989 3.13272e-19)
(19.8447 -0.236886 -2.91388e-19)
(19.9956 -0.243481 2.57884e-19)
(20.0962 -0.248966 -7.82087e-21)
(20.1595 -0.25343 0)
(20.1962 -0.256948 -2.28388e-19)
(20.2143 -0.259617 2.07561e-19)
(20.2199 -0.261564 -1.22755e-20)
(20.217 -0.26298 1.16183e-20)
(15.4871 -0.166986 2.26773e-19)
(16.6239 -0.155952 -1.30057e-19)
(17.6962 -0.171796 7.08075e-21)
(18.4851 -0.190931 -6.33122e-21)
(19.0386 -0.20619 0)
(19.4292 -0.217693 -5.25115e-21)
(19.7054 -0.226702 3.07383e-19)
(19.8983 -0.234013 -2.89693e-19)
(20.0292 -0.240028 8.47426e-21)
(20.1148 -0.244967 7.96885e-21)
(20.168 -0.248972 0)
(20.1986 -0.252174 7.12157e-21)
(20.2136 -0.254694 0)
(20.2182 -0.256625 1.28082e-20)
(20.2156 -0.258116 -1.22045e-20)
(15.6444 -0.166805 0)
(16.7794 -0.155908 7.89074e-21)
(17.8408 -0.171151 -2.29608e-19)
(18.6125 -0.189681 2.05697e-19)
(19.1448 -0.20441 -5.71688e-21)
(19.5124 -0.21547 -5.28474e-21)
(19.7663 -0.224094 3.10066e-19)
(19.9394 -0.231052 -2.84439e-19)
(20.0544 -0.236738 2.68744e-19)
(20.1284 -0.241378 9.32345e-21)
(20.1738 -0.245141 -2.47402e-19)
(20.1997 -0.248179 0)
(20.2124 -0.250621 -7.03661e-21)
(20.2162 -0.252569 0)
(20.214 -0.254248 0)
(15.7778 -0.166097 3.47413e-20)
(16.9125 -0.155062 -7.64762e-21)
(17.9641 -0.169677 6.79166e-21)
(18.72 -0.187618 0)
(19.2329 -0.201887 1.87796e-19)
(19.5801 -0.212648 6.1213e-21)
(19.8149 -0.221082 -1.52932e-19)
(19.9715 -0.227915 1.40016e-19)
(20.0737 -0.233509 -1.40532e-19)
(20.1385 -0.238076 1.33952e-19)
(20.1778 -0.24179 -1.27005e-19)
(20.2001 -0.244808 -7.61884e-21)
(20.211 -0.247261 1.31235e-19)
(20.2142 -0.249236 -1.11474e-19)
(20.2122 -0.250938 -2.72588e-20)
(15.8928 -0.165368 -7.52824e-20)
(17.0273 -0.153578 5.17694e-20)
(18.0698 -0.167184 0)
(18.8107 -0.184362 -1.9498e-19)
(19.3059 -0.198227 1.79798e-19)
(19.6352 -0.208927 0)
(19.8535 -0.217525 0)
(19.9965 -0.224593 0)
(20.0883 -0.230385 1.52312e-19)
(20.1458 -0.235095 -2.81219e-19)
(20.1804 -0.238902 2.52698e-19)
(20.1999 -0.241987 -1.09299e-19)
(20.2093 -0.24449 3.1071e-23)
(20.2121 -0.246489 5.82004e-20)
(20.2104 -0.248133 -2.83272e-20)
(15.994 -0.163001 -2.40043e-20)
(17.1295 -0.150183 1.22465e-19)
(18.1635 -0.162992 8.4077e-22)
(18.8899 -0.179759 -2.03548e-19)
(19.3681 -0.193612 8.92193e-20)
(19.6805 -0.20471 -1.05925e-20)
(19.8841 -0.213849 0)
(20.0156 -0.221425 0)
(20.0992 -0.227644 0)
(20.1509 -0.23262 -1.30522e-19)
(20.1819 -0.236584 7.86754e-21)
(20.1992 -0.239756 1.12326e-19)
(20.2076 -0.242304 -1.55444e-20)
(20.2102 -0.244319 6.79337e-20)
(20.2088 -0.245856 -7.31487e-20)
(16.084 -0.162017 1.53788e-20)
(17.2159 -0.146692 0)
(18.2399 -0.157306 -1.14434e-19)
(18.9523 -0.172746 1.06282e-20)
(19.4159 -0.186604 7.71525e-20)
(19.7142 -0.198671 -7.43251e-20)
(19.907 -0.209432 2.41798e-19)
(20.0296 -0.218498 -3.07597e-19)
(20.1068 -0.225486 2.85242e-19)
(20.1543 -0.230823 -1.41115e-19)
(20.1824 -0.234896 -8.54028e-21)
(20.1982 -0.238111 1.6481e-20)
(20.2059 -0.240696 -3.21723e-23)
(20.2083 -0.242764 -7.78955e-21)
(20.2072 -0.244398 -7.65266e-21)
(16.1668 -0.1524 0)
(17.3061 -0.136738 0)
(18.324 -0.148038 5.02262e-20)
(19.0221 -0.164595 -1.52055e-19)
(19.4659 -0.179803 9.92358e-20)
(19.7481 -0.194723 1.06494e-20)
(19.9252 -0.207577 0)
(20.0402 -0.217185 0)
(20.1123 -0.224626 9.28598e-21)
(20.1567 -0.229873 6.28926e-20)
(20.1828 -0.233873 -1.38817e-19)
(20.1972 -0.237087 5.04808e-20)
(20.2042 -0.239646 -3.11859e-23)
(20.2065 -0.241626 0)
(20.2057 -0.243074 0)
(16.2393 -0.152287 1.41217e-20)
(17.3497 -0.132811 -5.20929e-20)
(18.3474 -0.136958 5.94841e-20)
(19.028 -0.149297 1.13994e-20)
(19.4716 -0.165869 8.78424e-20)
(19.7414 -0.183159 -1.79542e-19)
(19.9339 -0.202217 9.16445e-20)
(20.0454 -0.216596 -7.83495e-20)
(20.1166 -0.224629 7.58809e-20)
(20.1581 -0.229679 0)
(20.182 -0.233224 8.76349e-21)
(20.1952 -0.2362 8.55177e-21)
(20.2025 -0.23885 1.68299e-20)
(20.2049 -0.240758 8.26302e-21)
(20.2045 -0.242233 0)
(19.8916 0.232816 -1.17015e-18)
(20.908 -0.102552 1.83526e-21)
(21.1446 -0.0482786 -3.10588e-19)
(21.326 0.0346539 2.53626e-19)
(21.4702 0.121086 0)
(21.5734 0.20708 -1.50082e-19)
(21.6296 0.294678 1.38079e-19)
(21.634 0.379971 9.75956e-20)
(21.586 0.455945 -8.53386e-20)
(21.4916 0.514836 9.76513e-21)
(21.3637 0.550206 2.83121e-21)
(21.2197 0.558673 0)
(21.0772 0.54166 9.43424e-21)
(20.9494 0.504793 -1.85483e-20)
(20.8407 0.464122 -2.35503e-21)
(16.4799 -0.567913 -1.14493e-18)
(19.4172 -0.193184 2.9762e-19)
(19.8349 -0.210016 5.1437e-21)
(20.1343 -0.184653 -1.25444e-19)
(20.4009 -0.139575 1.85712e-19)
(20.6419 -0.0841223 -7.09866e-20)
(20.8497 -0.0221921 6.44373e-20)
(21.0144 0.0435257 -6.42764e-20)
(21.1271 0.10996 4.37695e-20)
(21.1831 0.173407 -5.51965e-20)
(21.1842 0.229828 -3.45673e-21)
(21.1395 0.275017 2.37169e-20)
(21.0635 0.305581 -2.14464e-20)
(20.9726 0.318659 5.65062e-21)
(20.8801 0.322372 1.30999e-21)
(14.0502 -0.411246 0)
(18.9658 -0.0824008 -2.23013e-19)
(19.515 -0.148711 1.29909e-19)
(19.7921 -0.140518 -3.46102e-21)
(20.0484 -0.116672 -1.4487e-21)
(20.289 -0.0892004 5.1124e-20)
(20.5066 -0.0567812 -8.61658e-20)
(20.6932 -0.0189138 7.52761e-20)
(20.8408 0.0230646 -3.27261e-20)
(20.9431 0.0666296 1.3017e-21)
(20.998 0.108767 2.34268e-20)
(21.0085 0.146472 -2.17293e-21)
(20.9829 0.17751 4.24314e-21)
(20.9323 0.199472 -2.76085e-21)
(20.869 0.216553 -9.12194e-21)
(12.5485 -0.305281 0)
(18.7464 -0.156142 -2.19423e-21)
(19.4925 -0.237297 -1.82895e-19)
(19.7648 -0.217389 2.52148e-19)
(19.9976 -0.200295 -2.27847e-21)
(20.2148 -0.182659 -1.395e-19)
(20.4137 -0.159857 5.68031e-20)
(20.5881 -0.130356 0)
(20.7313 -0.0944653 -2.10149e-21)
(20.8376 -0.0535952 7.17354e-21)
(20.9037 -0.0102734 3.05178e-21)
(20.9306 0.0321409 -1.25726e-20)
(20.9239 0.0703833 1.96021e-20)
(20.892 0.101502 -1.85891e-20)
(20.8454 0.122907 6.90351e-21)
(12.6325 -0.206449 5.99762e-21)
(18.0983 -0.297982 2.2065e-19)
(19.2082 -0.31081 -1.26631e-21)
(19.6149 -0.279309 -5.81291e-22)
(19.8705 -0.265624 0)
(20.0864 -0.251302 -2.17136e-21)
(20.2817 -0.232561 4.84685e-20)
(20.4558 -0.208215 -4.04938e-20)
(20.604 -0.178044 2.27646e-21)
(20.7209 -0.142346 -3.65483e-21)
(20.8026 -0.102318 -2.22142e-21)
(20.8483 -0.0601801 -4.41765e-21)
(20.8608 -0.0187588 5.205e-21)
(20.8468 0.0195737 0)
(20.8149 0.0481402 0)
(13.5607 -0.182248 2.02788e-19)
(17.2611 -0.356112 -1.17408e-21)
(18.7677 -0.309508 -8.07425e-20)
(19.3902 -0.287349 5.97781e-20)
(19.7149 -0.276764 0)
(19.9484 -0.26548 -3.98772e-20)
(20.147 -0.251295 3.34741e-20)
(20.3228 -0.233165 2.65208e-20)
(20.4753 -0.210358 5.77088e-22)
(20.6007 -0.182635 -1.89909e-20)
(20.6954 -0.150426 1.54317e-20)
(20.7576 -0.114905 -1.28416e-21)
(20.7884 -0.0779331 -1.98589e-20)
(20.7922 -0.0407597 1.28576e-20)
(20.775 -0.00988826 -1.66457e-21)
(14.076 -0.228855 1.22654e-19)
(16.799 -0.327566 -7.23706e-20)
(18.3878 -0.292006 -5.45117e-20)
(19.1749 -0.283439 8.53597e-20)
(19.5859 -0.273859 7.15747e-24)
(19.849 -0.264531 -2.49726e-20)
(20.0545 -0.25391 2.25938e-20)
(20.2302 -0.24071 -2.09141e-22)
(20.3824 -0.223772 -1.68255e-20)
(20.5097 -0.202539 1.39253e-20)
(20.6097 -0.177055 -1.02798e-20)
(20.6805 -0.147957 -6.19058e-21)
(20.7226 -0.116513 8.62886e-21)
(20.7389 -0.0834162 -8.73472e-21)
(20.7338 -0.0535317 3.26119e-21)
(14.2144 -0.248484 8.68258e-20)
(16.5583 -0.2929 4.9084e-22)
(18.103 -0.285557 -6.14811e-22)
(18.9803 -0.282588 -9.51485e-22)
(19.4692 -0.273619 0)
(19.7685 -0.26549 -1.93512e-20)
(19.9861 -0.256993 3.11817e-20)
(20.1637 -0.246831 -1.31274e-20)
(20.3149 -0.233753 1.06075e-20)
(20.442 -0.217016 -1.04706e-20)
(20.5439 -0.196369 4.3895e-22)
(20.619 -0.17208 -1.77321e-21)
(20.6677 -0.145018 0)
(20.6921 -0.115689 0)
(20.6959 -0.0875743 -7.89743e-22)
(14.1358 -0.247927 0)
(16.3997 -0.275213 0)
(17.8865 -0.283776 1.22394e-22)
(18.8035 -0.282426 1.85615e-20)
(19.3525 -0.275052 -1.29211e-22)
(19.6895 -0.267802 -6.2699e-22)
(19.9235 -0.260496 -9.927e-21)
(20.1062 -0.252092 7.64819e-21)
(20.258 -0.241494 -1.63944e-23)
(20.3852 -0.227878 -5.72133e-21)
(20.4883 -0.21081 4.16573e-21)
(20.5664 -0.190283 -5.70401e-22)
(20.6198 -0.166811 -3.38853e-21)
(20.6503 -0.140703 1.35949e-21)
(20.661 -0.113947 -5.03474e-22)
(13.9915 -0.242546 0)
(16.2547 -0.268831 -2.84068e-23)