/*--------------------------------*- C++ -*----------------------------------*\
| =========                 |                                                 |
| \\      /  F ield         | OpenFOAM: The Open Source CFD Toolbox           |
|  \\    /   O peration     | Version:  2.3.0                                 |
|   \\  /    A nd           | Web:      www.OpenFOAM.org                      |
|    \\/     M anipulation  |                                                 |
\*---------------------------------------------------------------------------*/
FoamFile
{
    version     2.0;
    format      ascii;
    class       volScalarField;
    location    "1000";
    object      p;
}
// * * * * * * * * * * * * * * * * * * * * * * * * * * * * * * * * * * * * * //

dimensions      [0 2 -2 0 0 0 0];

internalField   nonuniform List<scalar> 
6710
(
0.888623
1.72644
2.72653
4.43499
7.21836
11.2602
16.829
24.9113
36.3169
47.7015
54.2883
69.2546
23.1069
27.2185
32.6391
39.7336
48.7039
59.6119
72.4105
86.955
102.958
119.769
136.991
154.279
39.4989
45.7068
52.2047
59.4552
67.3825
75.9227
85.0064
94.4896
104.21
113.947
123.579
132.942
51.9405
58.6764
65.5338
72.9874
80.9285
89.2497
97.8394
106.539
115.205
123.651
131.739
139.31
61.1576
67.39
73.7338
80.2916
87.0667
94.0017
101.049
108.124
115.153
122.032
128.678
134.998
68.8579
73.9875
79.7276
85.6078
91.6604
97.8278
104.069
110.322
116.532
122.619
128.517
134.155
74.1616
78.5812
83.7219
88.9463
94.3147
99.7853
105.332
110.914
116.483
121.977
127.34
132.512
77.7396
81.824
86.4928
91.2039
96.0725
101.047
106.101
111.204
116.305
121.369
126.356
131.199
81.1105
84.6014
88.6754
92.9069
97.3592
101.905
106.578
111.35
116.118
120.891
125.585
130.182
84.6858
87.0333
90.8801
94.5881
98.654
102.71
107.014
111.613
116.274
120.965
125.382
129.725
124.601
156.533
177.686
193.897
207.137
217.442
224.636
228.698
229.76
228.196
225.026
221.426
169.752
182.017
192.124
200.344
206.724
211.263
214.096
215.418
215.428
214.324
212.671
210.876
142.113
151.27
160.261
168.78
176.605
183.52
189.36
193.982
197.282
199.253
200.258
200.556
146.421
153.235
159.781
165.923
171.552
176.573
180.92
184.543
187.391
189.451
190.94
191.937
141.061
146.976
152.733
158.223
163.359
168.055
172.25
175.89
178.924
181.329
183.239
184.686
139.557
144.781
149.821
154.603
159.069
163.162
166.849
170.097
172.882
175.186
177.127
178.744
137.491
142.299
146.916
151.283
155.357
159.089
162.466
165.458
168.066
170.263
172.142
173.732
135.881
140.388
144.688
148.74
152.518
155.966
159.11
161.877
164.333
166.395
168.19
169.763
134.673
139
143.104
146.979
150.587
153.77
156.731
159.231
161.538
163.369
165.037
166.441
134.027
138.149
142.063
145.806
149.269
152.116
154.727
156.848
158.978
160.589
162.138
163.343
-36.6338
-38.9996
-41.4695
-43.6469
-45.2404
-46.0929
-46.1172
-45.3143
-43.7353
-41.4212
-37.9182
-30.3854
-31.9532
-34.2534
-36.5611
-38.4976
-39.7974
-40.3044
-39.8762
-38.3362
-35.4615
-31.1187
-25.409
-18.7899
-26.6305
-28.6159
-30.5701
-32.1401
-33.0887
-33.2633
-32.5323
-30.7765
-27.9135
-23.9502
-19.0628
-13.7046
-21.0056
-22.4844
-23.9173
-24.9986
-25.5432
-25.4334
-24.5803
-22.9065
-20.3796
-17.0381
-13.0445
-8.66663
-15.4477
-16.4831
-17.4563
-18.1162
-18.3342
-18.0227
-17.1051
-15.5151
-13.2289
-10.2805
-6.78142
-2.93822
-9.95976
-10.8111
-11.432
-11.7495
-11.7039
-11.2396
-10.2784
-8.75719
-6.64384
-3.96064
-0.79382
2.68176
-4.73457
-5.57421
-5.97271
-6.05378
-5.80535
-5.22988
-4.22787
-2.75402
-0.764595
1.70598
4.59681
7.75562
-0.01062
-0.862559
-1.14763
-1.09038
-0.662665
0.0067862
1.06506
2.53605
4.52682
6.88279
9.61405
12.568
4.51013
3.49581
3.08466
3.0954
3.70268
4.3468
5.34515
6.67819
8.67258
10.8329
13.298
15.9716
9.76039
8.19195
7.25234
7.47104
8.91975
9.67246
10.7434
12.1825
14.3254
16.2951
18.9557
22.0188
-14.8244
-7.00691
-1.57158
3.8992
9.45117
14.9544
20.4361
25.9469
31.5333
37.2062
42.8881
48.7169
-11.5596
-6.28103
-2.06914
2.52231
7.48813
12.77
18.2609
23.8634
29.52
35.1982
40.7958
46.3067
-8.26763
-2.6197
2.2242
6.74541
11.2985
15.9592
20.7109
25.5437
30.4507
35.4358
40.4219
45.2438
-4.08664
0.930762
5.66369
10.0169
14.3637
18.7112
23.0505
27.3957
31.752
36.1363
40.6059
45.0197
1.0839
5.40159
9.6659
13.6014
17.5561
21.4987
25.4251
29.345
33.2557
37.1513
41.1101
45.2663
6.30335
10.1359
13.9713
17.5066
21.0602
24.5852
28.0875
31.5764
35.054
38.5077
41.9859
45.6541
11.0313
14.489
17.9535
21.1413
24.3513
27.524
30.6685
33.7882
36.8856
39.9516
43.0108
46.1788
15.555
18.6202
21.6132
24.3956
27.2672
30.1292
32.979
35.7983
38.5836
41.3307
44.0635
46.8525
18.7561
21.74
24.5567
27.1085
29.7478
32.3779
35.0052
37.5844
40.1129
42.5893
45.0722
47.585
24.5754
26.6618
27.9971
29.6302
31.9363
34.3615
36.842
39.2073
41.4956
43.7513
46.0725
48.4182
-168.351
-156.764
-143.762
-132.602
-120.1
-105.61
-90.5595
-75.7051
-61.387
-48.2042
-36.75
-27.5867
-99.9856
-100.118
-99.3817
-98.1461
-97.0202
-95.8722
-93.467
-88.8992
-81.9682
-72.8802
-62.1226
-51.4166
-106.857
-106.71
-106.675
-106.444
-105.576
-103.75
-101.026
-97.426
-92.4651
-85.7044
-77.006
-68.0007
-100.69
-100.661
-100.554
-100.379
-100.102
-99.6239
-98.7475
-97.2312
-94.8878
-91.2607
-85.5409
-79.5322
-100.837
-100.814
-100.768
-100.665
-100.467
-100.128
-99.5497
-98.5652
-96.9898
-94.583
-90.6479
-86.5706
-99.995
-99.9728
-99.9159
-99.8142
-99.6555
-99.4163
-99.0559
-98.5
-97.602
-96.137
-93.5496
-89.9929
-100.226
-100.204
-100.154
-100.065
-99.9247
-99.7162
-99.4151
-98.9879
-98.3581
-97.403
-95.8342
-94.2047
-100.657
-100.636
-100.588
-100.503
-100.377
-100.195
-99.9408
-99.5976
-99.125
-98.4671
-97.4887
-96.2459
-101.463
-101.445
-101.402
-101.327
-101.216
-101.058
-100.841
-100.556
-100.182
-99.6873
-99.0383
-99.2804
-102.474
-102.46
-102.421
-102.354
-102.256
-102.12
-101.933
-101.69
-101.382
-101.002
-100.539
-100.457
-103.652
-103.64
-103.606
-103.549
-103.466
-103.351
-103.195
-102.994
-102.747
-102.452
-102.104
-102.154
-104.915
-104.905
-104.876
-104.827
-104.757
-104.662
-104.535
-104.373
-104.177
-103.947
-103.682
-103.855
-106.201
-106.192
-106.167
-106.124
-106.064
-105.985
-105.878
-105.744
-105.588
-105.415
-105.219
-105.123
-107.472
-107.465
-107.441
-107.402
-107.348
-107.275
-107.178
-107.053
-106.903
-106.73
-106.503
-106.049
-108.713
-108.707
-108.685
-108.649
-108.6
-108.535
-108.449
-108.339
-108.21
-108.063
-107.891
-107.755
-109.904
-109.898
-109.878
-109.845
-109.799
-109.738
-109.657
-109.554
-109.428
-109.287
-109.115
-108.561
-111.046
-111.041
-111.022
-110.99
-110.946
-110.89
-110.816
-110.721
-110.608
-110.478
-110.326
-110.256
-112.126
-112.121
-112.102
-112.072
-112.031
-111.976
-111.904
-111.811
-111.696
-111.562
-111.389
-110.918
-113.148
-113.144
-113.126
-113.097
-113.057
-113.006
-112.94
-112.856
-112.755
-112.639
-112.515
-112.645
-114.108
-114.104
-114.086
-114.058
-114.018
-113.966
-113.897
-113.808
-113.694
-113.554
-113.373
-113.034
-115.024
-115.019
-115.002
-114.974
-114.936
-114.886
-114.821
-114.738
-114.635
-114.516
-114.393
-114.325
-115.884
-115.88
-115.864
-115.836
-115.798
-115.749
-115.683
-115.597
-115.488
-115.356
-115.2
-114.942
-116.712
-116.707
-116.691
-116.663
-116.626
-116.577
-116.512
-116.428
-116.323
-116.195
-116.038
-115.799
-117.493
-117.489
-117.473
-117.447
-117.41
-117.362
-117.299
-117.217
-117.112
-116.984
-116.836
-116.587
-118.242
-118.238
-118.222
-118.196
-118.16
-118.114
-118.052
-117.972
-117.869
-117.744
-117.596
-117.38
-118.949
-118.945
-118.931
-118.906
-118.872
-118.828
-118.769
-118.692
-118.593
-118.472
-118.323
-118.085
-119.627
-119.622
-119.607
-119.583
-119.55
-119.508
-119.452
-119.38
-119.289
-119.176
-119.038
-118.827
-120.249
-120.245
-120.231
-120.21
-120.18
-120.142
-120.092
-120.028
-119.946
-119.848
-119.731
-119.572
-120.827
-120.823
-120.81
-120.789
-120.76
-120.725
-120.678
-120.619
-120.546
-120.459
-120.368
-120.269
-121.342
-121.339
-121.328
-121.309
-121.283
-121.25
-121.206
-121.149
-121.075
-120.984
-120.867
-120.595
-121.82
-121.816
-121.804
-121.784
-121.759
-121.728
-121.688
-121.637
-121.572
-121.49
-121.404
-121.457
-122.221
-122.218
-122.207
-122.191
-122.169
-122.142
-122.107
-122.061
-122.002
-121.931
-121.85
-121.645
-122.572
-122.569
-122.559
-122.542
-122.522
-122.498
-122.469
-122.432
-122.388
-122.336
-122.289
-122.369
-122.838
-122.836
-122.828
-122.815
-122.799
-122.779
-122.753
-122.721
-122.679
-122.627
-122.553
-122.358
-123.053
-123.05
-123.041
-123.028
-123.013
-122.996
-122.975
-122.952
-122.925
-122.895
-122.867
-122.889
-123.162
-123.16
-123.153
-123.144
-123.132
-123.12
-123.104
-123.087
-123.067
-123.049
-123.047
-123.104
-123.209
-123.207
-123.2
-123.19
-123.179
-123.167
-123.153
-123.137
-123.118
-123.098
-123.066
-122.822
-123.159
-123.157
-123.152
-123.145
-123.138
-123.131
-123.123
-123.115
-123.108
-123.1
-123.102
-123.289
-123.043
-123.041
-123.035
-123.028
-123.021
-123.014
-123.008
-123.001
-122.993
-122.984
-122.964
-122.81
-122.817
-122.816
-122.814
-122.811
-122.81
-122.81
-122.813
-122.818
-122.827
-122.843
-122.877
-123.06
-122.516
-122.515
-122.513
-122.51
-122.51
-122.513
-122.519
-122.53
-122.546
-122.571
-122.612
-122.669
-122.095
-122.096
-122.095
-122.097
-122.103
-122.112
-122.126
-122.147
-122.175
-122.215
-122.275
-122.363
-121.588
-121.588
-121.588
-121.59
-121.597
-121.609
-121.629
-121.658
-121.698
-121.752
-121.83
-121.911
-120.94
-120.943
-120.946
-120.954
-120.968
-120.988
-121.018
-121.058
-121.112
-121.186
-121.286
-121.429
-120.202
-120.204
-120.207
-120.215
-120.231
-120.256
-120.293
-120.344
-120.413
-120.502
-120.607
-120.617
-119.301
-119.306
-119.313
-119.329
-119.353
-119.39
-119.441
-119.513
-119.61
-119.739
-119.915
-120.222
-118.281
-118.285
-118.293
-118.309
-118.336
-118.377
-118.437
-118.52
-118.634
-118.789
-119.008
-119.374
-117.084
-117.09
-117.102
-117.124
-117.158
-117.208
-117.276
-117.368
-117.49
-117.652
-117.862
-117.992
-115.768
-115.772
-115.784
-115.806
-115.843
-115.897
-115.974
-116.08
-116.22
-116.404
-116.648
-117.054
-114.257
-114.264
-114.282
-114.312
-114.357
-114.422
-114.511
-114.63
-114.788
-114.996
-115.273
-115.642
-112.624
-112.629
-112.644
-112.675
-112.723
-112.793
-112.891
-113.023
-113.198
-113.425
-113.713
-113.976
-110.775
-110.782
-110.804
-110.843
-110.902
-110.986
-111.102
-111.256
-111.458
-111.72
-112.064
-112.555
-108.772
-108.781
-108.806
-108.849
-108.915
-109.008
-109.137
-109.31
-109.536
-109.828
-110.211
-110.794
-106.574
-106.584
-106.611
-106.662
-106.737
-106.843
-106.99
-107.185
-107.441
-107.772
-108.177
-108.505
-104.179
-104.19
-104.221
-104.278
-104.363
-104.484
-104.652
-104.879
-105.18
-105.571
-106.08
-106.923
-101.551
-101.565
-101.604
-101.67
-101.767
-101.903
-102.087
-102.333
-102.656
-103.072
-103.617
-104.311
-98.7531
-98.767
-98.8061
-98.8763
-98.98
-99.1271
-99.3284
-99.5966
-99.9452
-100.392
-100.96
-101.601
-95.7031
-95.7223
-95.7707
-95.8543
-95.975
-96.1431
-96.3704
-96.6713
-97.0622
-97.5613
-98.1914
-98.9532
-92.4853
-92.5044
-92.5555
-92.6456
-92.7769
-92.9613
-93.2126
-93.5464
-93.9798
-94.5301
-95.2145
-95.9855
-89.0043
-89.0288
-89.0891
-89.1936
-89.3443
-89.5545
-89.8392
-90.2168
-90.7069
-91.3305
-92.1372
-93.2113
-85.3139
-85.3424
-85.4109
-85.5276
-85.6955
-85.9289
-86.2454
-86.6637
-87.2051
-87.8942
-88.7755
-89.8218
-81.3846
-81.4172
-81.4941
-81.626
-81.8148
-82.0768
-82.4298
-82.8951
-83.4951
-84.2543
-85.2103
-86.357
-77.2315
-77.2694
-77.3565
-77.5045
-77.7172
-78.0111
-78.4063
-78.9235
-79.5843
-80.4083
-81.4096
-82.4012
-72.83
-72.8767
-72.9801
-73.1528
-73.3988
-73.738
-74.1922
-74.7853
-75.5405
-76.4748
-77.6131
-79.0704
-68.219
-68.2726
-68.3895
-68.586
-68.8672
-69.2557
-69.7764
-70.4546
-71.3134
-72.3719
-73.6335
-74.8911
-63.3418
-63.4079
-63.548
-63.7794
-64.1098
-64.5641
-65.1713
-65.9601
-66.956
-68.1699
-69.6018
-71.3657
-58.2608
-58.3383
-58.5014
-58.77
-59.1535
-59.6819
-60.3873
-61.3003
-62.4454
-63.8349
-65.4556
-67.0776
-52.9631
-53.0588
-53.2542
-53.5717
-54.0243
-54.6463
-55.4726
-56.5358
-57.8578
-59.4396
-61.255
-63.194
-47.5455
-47.6622
-47.8962
-48.2711
-48.805
-49.5364
-50.5044
-51.7392
-53.2537
-55.0322
-57.0072
-58.879
-42.0207
-42.1692
-42.4609
-42.919
-43.567
-44.4495
-45.6053
-47.0607
-48.8128
-50.8193
-52.9628
-54.9185
-36.6228
-36.8108
-37.1838
-37.7547
-38.5568
-39.637
-41.0304
-42.7452
-44.7468
-46.9512
-49.2003
-51.0971
-31.9786
-32.1938
-32.6509
-33.3488
-34.3253
-35.6244
-37.2653
-39.225
-41.4243
-43.7235
-45.9175
-47.6701
-28.0559
-28.3262
-28.9195
-29.8276
-31.0723
-32.6799
-34.6319
-36.847
-39.1686
-41.3882
-43.2781
-44.5846
-24.0679
-24.6108
-25.5894
-27.0628
-29.0155
-31.3608
-33.9103
-36.4217
-38.6431
-40.3697
-41.4895
-41.9625
-26.1479
-29.8194
-32.9207
-35.2345
-36.974
-38.3746
-39.4842
-40.3182
-40.819
-40.8808
-40.4495
-39.5802
366.969
363.944
357.104
347.126
333.725
317.616
300.181
282.903
266.963
252.945
241.173
231.96
290.376
290.401
288.657
286.435
283.827
280.56
276.211
270.43
263.095
254.407
245.122
236.148
282.212
282.141
281.166
279.599
277.289
274.165
270.185
265.319
259.512
252.707
245.148
237.426
277.923
277.339
276.225
274.684
272.611
269.894
266.42
262.108
256.912
250.814
243.965
236.793
264.349
264.046
263.574
262.826
261.727
260.174
258.038
255.181
251.465
246.777
241.145
234.9
253.814
253.68
253.462
253.041
252.379
251.39
249.967
247.984
245.301
241.77
237.314
232.114
246.374
246.271
246.08
245.727
245.194
244.411
243.294
241.739
239.625
236.814
233.188
228.812
239.629
239.549
239.395
239.115
238.695
238.08
237.201
235.969
234.278
231.999
229.003
225.296
233.369
233.313
233.198
232.986
232.664
232.188
231.5
230.526
229.173
227.321
224.84
221.716
227.779
227.736
227.645
227.476
227.218
226.834
226.278
225.487
224.382
222.86
220.799
218.183
222.737
222.703
222.627
222.485
222.269
221.948
221.483
220.821
219.894
218.609
216.843
214.515
218.088
218.061
217.997
217.878
217.695
217.424
217.03
216.468
215.679
214.58
213.061
211.026
213.775
213.753
213.699
213.597
213.441
213.209
212.873
212.393
211.717
210.776
209.472
207.72
209.754
209.736
209.689
209.601
209.467
209.266
208.975
208.559
207.972
207.152
206.008
204.434
205.981
205.967
205.927
205.85
205.733
205.557
205.302
204.938
204.423
203.706
202.706
201.322
202.423
202.413
202.378
202.311
202.207
202.052
201.828
201.506
201.053
200.421
199.553
198.346
199.052
199.047
199.016
198.956
198.864
198.725
198.524
198.236
197.829
197.256
196.464
195.355
195.848
195.845
195.818
195.764
195.681
195.557
195.376
195.118
194.753
194.239
193.534
192.586
192.792
192.791
192.767
192.719
192.644
192.532
192.369
192.136
191.807
191.343
190.702
189.855
189.868
189.867
189.845
189.802
189.734
189.633
189.485
189.275
188.977
188.559
187.982
187.249
187.06
187.059
187.039
187
186.938
186.845
186.711
186.519
186.248
185.867
185.338
184.672
184.354
184.353
184.335
184.299
184.243
184.158
184.034
183.858
183.609
183.259
182.771
182.165
181.74
181.74
181.723
181.691
181.638
181.56
181.446
181.284
181.054
180.732
180.279
179.719
179.211
179.211
179.196
179.166
179.118
179.045
178.94
178.79
178.577
178.279
177.86
177.351
176.759
176.759
176.745
176.718
176.673
176.606
176.508
176.369
176.172
175.895
175.507
175.051
174.372
174.372
174.361
174.337
174.296
174.234
174.144
174.015
173.833
173.576
173.214
172.8
172.051
172.051
172.042
172.02
171.982
171.925
171.841
171.723
171.556
171.322
170.993
170.646
169.789
169.789
169.781
169.76
169.725
169.671
169.593
169.483
169.329
169.114
168.81
168.486
167.572
167.573
167.565
167.547
167.513
167.463
167.39
167.287
167.142
166.94
166.652
166.335
165.397
165.398
165.391
165.374
165.343
165.297
165.228
165.131
164.994
164.802
164.528
164.227
163.265
163.266
163.26
163.244
163.215
163.171
163.107
163.016
162.887
162.709
162.457
162.21
161.175
161.176
161.169
161.153
161.126
161.084
161.023
160.937
160.816
160.649
160.409
160.176
159.113
159.113
159.107
159.093
159.067
159.027
158.969
158.888
158.774
158.617
158.391
158.181
157.076
157.076
157.07
157.058
157.034
156.996
156.942
156.865
156.757
156.607
156.389
156.194
155.068
155.068
155.063
155.051
155.028
154.993
154.941
154.869
154.767
154.625
154.421
154.271
153.088
153.087
153.081
153.069
153.047
153.014
152.965
152.897
152.801
152.669
152.472
152.354
151.122
151.122
151.116
151.106
151.085
151.054
151.009
150.945
150.858
150.74
150.559
150.459
149.167
149.167
149.163
149.154
149.136
149.107
149.065
149.006
148.925
148.815
148.637
148.479
147.234
147.233
147.228
147.219
147.201
147.173
147.133
147.077
147
146.899
146.74
146.539
145.301
145.301
145.297
145.289
145.272
145.246
145.208
145.156
145.084
144.991
144.856
144.633
143.374
143.374
143.37
143.363
143.348
143.323
143.288
143.239
143.171
143.084
142.973
142.767
141.447
141.447
141.445
141.439
141.425
141.402
141.368
141.321
141.255
141.165
141.055
140.886
139.53
139.53
139.526
139.519
139.506
139.483
139.449
139.403
139.339
139.25
139.136
139.018
137.606
137.607
137.603
137.598
137.585
137.563
137.532
137.489
137.429
137.348
137.238
137.166
135.68
135.681
135.678
135.673
135.662
135.642
135.613
135.572
135.518
135.445
135.34
135.285
133.753
133.753
133.75
133.745
133.734
133.715
133.687
133.65
133.6
133.533
133.435
133.401
131.813
131.813
131.81
131.805
131.795
131.778
131.753
131.718
131.673
131.615
131.528
131.532
129.859
129.859
129.856
129.852
129.843
129.827
129.804
129.773
129.733
129.682
129.6
129.606
127.885
127.885
127.883
127.88
127.872
127.858
127.838
127.81
127.775
127.732
127.661
127.673
125.899
125.898
125.895
125.891
125.883
125.87
125.851
125.827
125.795
125.759
125.698
125.713
123.874
123.875
123.874
123.871
123.866
123.855
123.839
123.818
123.792
123.764
123.718
123.754
121.841
121.839
121.834
121.829
121.823
121.812
121.797
121.779
121.759
121.739
121.706
121.749
119.752
119.751
119.748
119.745
119.74
119.731
119.719
119.704
119.688
119.676
119.654
119.71
117.611
117.612
117.612
117.612
117.61
117.604
117.596
117.586
117.577
117.572
117.562
117.641
115.46
115.458
115.452
115.448
115.445
115.439
115.431
115.425
115.422
115.427
115.433
115.557
113.223
113.223
113.222
113.221
113.22
113.217
113.214
113.213
113.217
113.233
113.252
113.416
110.928
110.929
110.928
110.929
110.932
110.933
110.934
110.939
110.952
110.981
111.016
111.224
108.595
108.593
108.588
108.586
108.587
108.588
108.591
108.6
108.622
108.663
108.71
108.934
106.146
106.148
106.148
106.15
106.155
106.16
106.168
106.185
106.216
106.273
106.341
106.581
103.638
103.636
103.633
103.633
103.638
103.646
103.659
103.684
103.727
103.803
103.903
104.191
101.009
101.008
101.007
101.01
101.018
101.03
101.049
101.084
101.143
101.241
101.38
101.745
98.2486
98.2508
98.2524
98.2589
98.2726
98.2915
98.3201
98.3678
98.4441
98.5661
98.7319
99.1925
95.389
95.3874
95.3845
95.3883
95.4024
95.4249
95.4613
95.5225
95.6212
95.7774
95.991
96.5833
92.3408
92.3407
92.341
92.3488
92.3677
92.3981
92.4459
92.5242
92.6488
92.8428
93.0873
93.7423
89.0902
89.093
89.0969
89.1099
89.1374
89.1794
89.2434
89.3446
89.502
89.746
90.0523
90.7018
85.6552
85.654
85.6546
85.6671
85.6979
85.7495
85.831
85.9601
86.1588
86.4668
86.8774
87.5943
81.9089
81.9129
81.9203
81.9412
81.9847
82.0543
82.1624
82.3306
82.5862
82.9726
83.5143
84.4715
77.8699
77.8693
77.8732
77.8967
77.9509
78.0414
78.1834
78.4043
78.738
79.2301
79.9136
81.1766
73.3754
73.3789
73.3911
73.4277
73.5025
73.6261
73.8178
74.1123
74.5522
75.1886
76.0414
77.5473
68.3318
68.3401
68.3622
68.4167
68.5244
68.6984
68.9658
69.3689
69.9605
70.802
71.9076
73.702
62.6346
62.642
62.6668
62.7406
62.8899
63.1358
63.5144
64.0791
64.8928
66.0249
67.4913
69.6977
55.8815
55.8859
55.9406
56.0622
56.2979
56.6794
57.2547
58.0885
59.2502
60.805
62.762
65.5288
47.6403
47.7436
47.8169
48.0405
48.4492
49.084
50.0063
51.2866
52.9893
55.1601
57.776
61.2069
37.1729
36.7459
37.0318
37.5853
38.4457
39.6779
41.3255
43.4321
46.0255
49.1122
52.6285
56.8987
21.2416
22.1437
23.2935
24.616
26.4812
28.8571
31.7256
35.0784
38.8875
43.1083
47.6263
52.6764
97.645
-20.8927
85.0825
96.1446
-121.456
102.655
154.649
70.605
205.839
86.2671
81.0948
58.7513
90.0651
179.651
-17.6843
88.4351
-85.954
67.1181
152.599
69.2376
-5.13618
100.566
94.413
7.91143
84.4499
90.144
59.1252
94.7138
-32.0065
151.413
132.44
140.602
92.1673
60.6433
-15.2211
81.8001
149.773
-44.9328
80.1736
22.4011
98.4381
160.661
42.9949
152.632
-114.023
99.5379
103.154
-69.6053
98.3691
95.3131
96.9491
196.746
42.2943
59.702
112.89
-73.8086
81.192
-8.20567
-118.362
104.053
-96.1937
-76.8263
145.103
95.0993
74.6811
69.9576
54.769
81.5177
99.1665
114.692
-57.8684
-122.493
-114.152
90.1667
9.89717
-122.061
-68.4748
-93.2935
96.743
95.2357
130.712
178.716
92.3289
80.9266
-107.766
115.859
111.086
96.0955
96.55
108.452
86.2042
-89.7486
95.4765
-113.268
111.148
-42.8917
228.293
-110.045
95.4285
228.068
38.7627
118.004
5.27009
172.053
96.7707
-107.473
102.558
96.5595
78.1435
95.631
91.9395
170.993
121.246
171.829
-118.709
90.69
210.753
117.664
170.421
158.57
106.718
66.953
64.4109
65.8887
163.743
86.6059
97.3719
-122.454
-123.104
94.7401
79.0701
129.156
152.151
14.4829
-108.154
132.363
-74.9883
73.6084
-91.7438
105.243
168.624
6.8895
-76.9177
41.5153
78.5003
-106.864
108.813
72.2385
-83.8924
-107.079
-40.3992
103.728
-18.8347
56.3622
155.449
102.726
76.3523
55.052
91.0016
96.1289
91.0215
-74.1612
84.9405
-121.008
147.837
91.8283
78.097
-97.9889
-101.132
18.7978
-91.8567
79.4966
128.512
108.16
85.3602
-106.402
137.024
71.4164
90.1465
70.095
85.9949
-79.761
-72.9503
73.0976
99.0088
99.684
-35.2583
47.705
-38.9801
133.238
117.812
138.592
-101.69
89.1939
68.4701
-8.27722
118.589
142.111
170.479
88.094
63.7148
98.3952
96.1972
96.7942
101.18
52.9068
102.093
-63.6993
97.746
101.945
152.372
31.2514
171.339
95.6583
8.98044
105.568
90.5658
120.707
-107.577
-30.5462
-111.104
140.156
80.2525
97.6058
111.69
55.1663
108.435
-53.8906
80.875
89.1869
81.2541
193.702
64.5474
168.601
132.712
68.4548
-11.1345
86.0091
59.3095
115.995
91.6593
-120.979
94.5141
95.5368
-108.098
-24.3233
-73.9465
125.554
100.249
87.9121
74.1323
77.7985
190.626
98.681
98.4449
-124.235
-120.524
134.434
84.163
113.051
82.0304
-116.058
-86.8352
93.9051
59.5284
92.1241
-57.4313
104.152
-60.6915
205.941
-76.4421
110.963
94.8229
145.22
96.7089
-86.8686
102.276
50.8034
128.749
-42.0073
58.9624
-75.4709
85.9346
94.1099
91.2279
88.2579
90.3976
91.4014
-26.096
-6.64836
83.7339
91.5292
12.5112
146.743
82.2802
112.173
93.7648
96.4983
73.3481
91.484
8.21407
200.508
101.348
-124.166
99.9514
101.79
-46.2204
52.7075
8.17503
158.32
102.713
-107.627
83.142
82.64
143.901
-49.9521
142.996
16.3217
68.8791
39.7342
48.3489
-8.51804
-85.1338
100.122
-54.1825
86.971
-111.191
-86.6169
103.705
155.684
105.639
-104.208
99.5549
203.537
61.4588
-2.60267
110.572
90.6178
66.1996
-6.47913
52.4008
-122.816
-65.098
-2.57923
1.02233
106.108
90.2312
17.9103
26.5458
173.543
87.4782
95.6939
-94.7455
-94.3972
54.9971
-121.858
164.861
120.767
85.8342
-73.7344
76.2582
98.3086
95.073
110.956
-110.048
25.2872
73.4748
128.911
101.585
54.0163
82.6629
27.4167
99.5922
93.816
-99.8671
96.4447
98.0491
55.4801
57.1143
-119.041
-63.255
-67.1396
81.3135
85.0973
159.45
-34.9102
-12.4508
215.308
86.552
182.081
129.951
182.484
-5.19328
92.537
103.867
-28.086
85.4155
13.1878
63.4519
30.6255
97.0148
107.277
79.6428
-119.954
111.469
95.0054
81.5501
62.7399
53.1522
88.348
82.6881
-62.8444
137.435
-8.29063
44.0455
170.036
26.6581
164.208
126.664
-51.6653
19.2723
64.6475
108.245
-51.4977
108.728
110.517
62.6184
-101.576
77.6687
137.658
26.7823
-89.4937
38.7955
102.956
156.309
62.3355
200.083
76.9353
66.0509
178.01
149.778
-114.702
76.5575
69.1489
124.648
83.8948
96.9653
154.398
-26.7001
-39.3174
64.2056
-3.91542
-49.8156
54.1638
-77.2961
86.5435
77.2172
158.242
44.1556
96.8096
82.009
101.526
92.5316
82.2938
80.8277
22.5278
116.925
-118.637
97.6781
78.3413
91.2582
15.2016
169.837
93.6236
67.7183
141.02
84.6131
79.4997
87.2517
84.0645
94.9592
-122.066
-102.692
0.950746
75.6538
12.887
59.0562
-123.614
137.807
95.7865
97.5101
98.3682
131.948
-67.0972
72.1185
87.3804
112.084
69.4278
68.2544
150.422
109.411
110.019
137.972
-21.7289
89.4849
132.272
135.01
140.383
56.6645
-70.2131
7.3757
98.9283
34.5768
85.7916
6.69895
153.338
-120.608
-35.9305
91.3226
119.522
-50.5406
-108.049
85.4135
94.7054
94.4324
105.06
88.0308
78.3723
136.746
121.613
79.6042
133.23
97.1538
100.92
117.858
91.4625
135.695
69.0756
-101.608
98.902
171.82
60.1551
-113.092
100.36
97.6466
98.947
77.2195
113.245
71.5261
-124.378
87.1352
45.052
-80.5694
86.0161
75.5614
35.0563
-121.238
73.894
33.7486
-51.4494
96.0148
166.312
-99.2129
92.4087
92.7116
25.0829
-29.8931
17.1084
86.9142
78.9004
70.7188
98.3264
99.2385
39.232
88.4518
110.534
106.498
-119.729
226.007
110.881
98.278
80.4116
178.353
125.452
-78.9281
74.5482
-4.67723
95.9809
174.258
97.9887
95.5447
93.2263
151.246
142.316
-109.463
93.2013
93.834
45.8685
88.3284
-76.4278
98.3513
95.7854
95.5897
97.7873
198.399
84.8909
88.8264
56.4862
103.74
86.0942
-91.1933
-98.7372
100.39
77.4847
87.7508
96.952
98.6241
109.066
167.772
-120.503
43.3951
98.6345
-82.9334
61.2057
120.238
-86.0435
-122.351
118.527
-62.4578
-123.045
84.213
171.566
125.498
81.7284
77.4914
-106.593
-74.4264
39.43
110.557
97.6109
63.5176
91.9322
189.526
97.3305
-74.8063
55.6318
91.1951
-104.095
178.783
82.5219
111.017
80.8173
95.7039
-106.07
90.4146
129.305
78.5472
82.1567
-98.1867
97.2052
76.6167
91.4343
195.553
74.0966
86.6184
95.0976
30.8945
78.7194
60.8696
-99.6177
103.467
94.1008
-78.9579
-76.8147
-16.1931
92.8771
55.7186
189.047
81.0022
144.526
82.6059
154.116
-70.8575
79.5891
185.605
84.3483
-121.325
103.965
183.53
-117.6
15.1889
83.3368
197.254
107.978
119.006
86.4044
97.3631
105.331
98.0385
-46.7617
104.878
94.0706
135.616
-49.1025
91.9439
171.797
98.7537
-20.873
-88.4357
175.573
96.4727
-36.8636
54.0494
-82.95
59.5566
106.149
-112.281
66.6658
-82.7739
199.573
-113.494
-119.789
-18.5036
71.9527
-121.77
213.898
90.256
-101.508
87.2231
61.8314
37.7907
-58.2221
99.2022
80.2801
-92.3447
151.717
162.699
115.253
194.481
154.414
130.995
96.3992
88.9176
94.8648
85.8184
102.521
84.8478
-66.5053
-90.3281
61.5704
99.4526
-121.44
130.168
90.69
119.273
-22.8114
-110.788
105.65
-18.3941
156.509
185.864
-69.7573
128.499
-11.5668
30.7723
-120.815
-55.5407
26.7229
134.524
-108.566
-123.412
99.3017
94.6443
97.329
-39.9395
81.7166
-87.5222
93.1015
94.1467
-80.4492
-41.8711
-47.5023
-41.7742
137.328
-26.1949
67.4912
101.592
132.647
100.579
107.194
83.4859
87.5256
-19.8862
94.2653
110.001
101.799
-5.19627
72.3039
-87.6653
-17.5671
80.2729
-63.517
91.0204
-122.697
82.4016
64.6529
100.107
89.8547
107.727
97.0145
52.5109
85.2422
-70.4377
150.087
117.474
118.959
134.456
-101.328
106.77
95.3991
30.9764
91.5263
57.6499
-118.751
58.8321
109.198
109.827
6.01802
178.891
-104.413
36.578
108.917
73.3949
132.436
85.3794
13.0543
-33.3157
42.2282
45.192
173.103
114.399
84.2982
48.9693
101.44
86.3776
17.6431
83.6553
86.0197
104.757
80.9429
165.843
27.067
94.0433
91.0892
-29.1261
-122.649
27.231
-36.7201
72.7042
87.8885
-8.21168
-114.295
182.386
98.8658
-53.0187
88.9225
122.417
100.071
104.758
98.8899
135.816
96.7068
94.5016
81.0426
-122.708
93.6827
88.5768
116.486
174.887
64.386
134.84
28.6418
75.5936
-94.3839
-44.017
83.756
79.2894
84.5453
-3.61992
101.373
-118.464
43.5214
91.632
203.402
168.682
96.2493
103.709
99.5784
94.1674
100.613
101.484
94.9934
106.299
71.7365
88.652
84.3675
89.0678
78.8615
91.9105
75.9148
-20.1756
72.3206
148.624
130.974
157.35
85.7299
128.211
-80.2091
143.228
160.926
77.2911
57.9866
38.0381
81.7296
85.0232
96.6517
116.296
-116.797
111.456
-89.7608
125.068
-97.8608
81.2279
46.3505
-52.7417
106.576
-106.047
98.8299
90.3266
90.6851
-85.1624
119.015
-20.6427
81.159
0.0472232
-120.074
208.454
99.5345
12.7506
128.844
137.328
93.4675
99.6702
97.6146
122.265
98.0878
98.5462
-108.933
59.9583
90.9939
-51.0406
13.7041
79.0816
88.187
127.46
117.038
-110.641
99.322
34.5803
-122.59
23.6668
93.6287
124.039
114.545
93.8464
-117.827
-4.82117
94.1679
137.364
98.8766
43.9832
96.3
131.32
150.975
105.915
-86.4171
121.547
165.647
-75.8491
105.71
-40.7384
133.565
-99.2774
-38.2412
-20.8545
28.8142
83.4357
94.9525
113.241
-38.5671
106.403
1.13389
-117.582
-121.777
40.02
76.3157
116.013
121.102
93.5212
-112.248
94.8631
94.2415
173.593
111.049
-1.21831
68.2875
104.21
50.8892
151.893
87.8298
124.697
-120.665
-122.382
-51.056
-7.46571
88.586
75.399
93.2086
96.8513
6.65379
149.713
-104.446
57.9263
130.885
-119.105
102.635
59.7477
-121.753
196.707
81.734
99.133
60.8373
41.6642
-85.0355
118.687
-102.952
75.8775
194.044
-123.49
-78.0265
69.5508
34.6175
105.27
141.89
106.649
82.7927
-45.6269
97.2524
87.1065
-18.8021
165.155
9.65581
62.5185
111.604
53.6562
100.494
96.0572
-112.505
87.1023
104.141
182.274
34.3162
-13.2125
85.1276
61.3484
174.693
83.118
117.055
95.0505
-119.232
167.769
-123.327
87.0017
-97.5319
35.4352
64.1891
-44.8365
92.5254
208.706
75.8431
-118.082
108.235
84.3327
99.197
57.5155
88.8603
147.373
99.6478
106.063
99.6817
123.584
48.8743
101.907
93.0324
47.871
-13.1416
92.6268
52.6847
-116.537
-118.094
165.825
164.098
19.8574
-95.3783
69.0569
111.003
1.42746
95.2079
-113.142
-84.5962
62.1034
-120.18
99.5027
-20.3348
148.1
75.8671
70.6027
68.9255
18.4659
16.663
176.296
87.7506
98.2247
65.408
153.141
112.166
22.7517
85.3074
-23.1898
99.2284
138.089
-8.64593
86.1686
11.7328
100.034
-123.29
146.405
33.5371
88.9914
84.6449
163.475
68.6667
-33.1543
89.2217
97.712
89.6328
95.4874
98.5333
80.3392
71.7034
50.8281
218.138
136.54
-26.7048
198.457
-110.882
-71.1762
104.079
5.41001
32.203
-101.831
-13.839
99.4269
81.7023
63.6676
105.248
-119.052
88.9366
138.107
81.1292
118.998
88.8341
36.0539
44.1438
98.856
155.108
24.3821
45.41
126.675
175.295
66.983
110.701
92.3221
35.0683
59.5754
101.097
151.626
94.6379
-24.0064
164.373
-110.086
-93.6141
-113.092
88.0448
-49.9717
-6.44111
35.2936
20.5199
95.3698
78.8256
83.4573
144.736
-116.663
-100.822
-49.0292
146.513
85.1281
-94.1937
114.41
187.613
-33.7585
-49.0415
93.4568
-115.632
98.7139
73.0948
116.523
64.3493
107.327
43.5119
25.7487
109.158
76.2676
42.392
58.197
108.152
93.0483
73.9031
87.1679
-96.7571
75.9086
21.2282
130.081
102.482
-98.207
128.368
51.6884
67.6011
56.1485
191.196