/*--------------------------------*- C++ -*----------------------------------*\
| =========                 |                                                 |
| \\      /  F ield         | OpenFOAM: The Open Source CFD Toolbox           |
|  \\    /   O peration     | Version:  2.3.0                                 |
|   \\  /    A nd           | Web:      www.OpenFOAM.org                      |
|    \\/     M anipulation  |                                                 |
\*---------------------------------------------------------------------------*/
FoamFile
{
    version     2.0;
    format      ascii;
    class       volScalarField;
    location    "7000";
    object      nut;
}
// * * * * * * * * * * * * * * * * * * * * * * * * * * * * * * * * * * * * * //

dimensions      [0 2 -1 0 0 0 0];

internalField   nonuniform List<scalar> 
14769
(
0.0520201
0.0488933
0.0458631
0.0429542
0.0401853
0.0375773
0.0351501
0.0329265
0.0309331
0.0291724
0.0275215
0.0259002
0.0243304
0.022826
0.0213888
0.0200137
0.0186928
0.0174202
0.0161876
0.0149895
0.0138149
0.0126547
0.0115231
0.010651
0.0558854
0.0532816
0.0507688
0.0483536
0.0460405
0.0438325
0.041733
0.0397457
0.0378744
0.0361218
0.0344869
0.0329671
0.0315656
0.0302884
0.0291428
0.0281347
0.0272709
0.0265566
0.0259984
0.0255999
0.0253656
0.025295
0.0253887
0.025643
0.0593512
0.057177
0.0550857
0.0530802
0.0511629
0.0493357
0.0475996
0.0459571
0.0444106
0.0429619
0.0416136
0.0403692
0.039232
0.0382064
0.037297
0.0365087
0.0358461
0.035314
0.0349155
0.0346531
0.0345266
0.0345355
0.0346738
0.0349345
0.0624436
0.0606206
0.0588694
0.0571915
0.0555884
0.0540603
0.052609
0.0512354
0.0499414
0.0487291
0.047601
0.0465605
0.045611
0.0447557
0.0439998
0.043347
0.0428015
0.0423677
0.0420481
0.0418452
0.041759
0.041789
0.0419326
0.0421842
0.0651964
0.063656
0.0621784
0.0607612
0.0594046
0.0581098
0.0568774
0.0557092
0.0546059
0.0535702
0.0526039
0.0517109
0.0508938
0.0501572
0.0495049
0.0489419
0.0484721
0.0480994
0.0478275
0.0476589
0.0475951
0.0476354
0.0477788
0.0480221
0.0676291
0.0663257
0.0650695
0.0638602
0.0626984
0.0615854
0.0605225
0.059512
0.0585547
0.0576527
0.0568084
0.0560242
0.0553044
0.0546533
0.054075
0.0535743
0.0531561
0.0528246
0.0525835
0.0524362
0.052385
0.0524303
0.0525716
0.0528072
0.0697859
0.0686743
0.0675969
0.0665545
0.0655477
0.0645779
0.0636474
0.0627584
0.061914
0.0611151
0.0603645
0.059664
0.0590182
0.0584307
0.0579071
0.0574521
0.0570708
0.0567679
0.056548
0.0564148
0.0563714
0.0564191
0.0565577
0.0567865
0.0716982
0.0707424
0.0698093
0.0689018
0.06802
0.0671649
0.0663381
0.0655437
0.0647866
0.0640693
0.0633924
0.0627581
0.0621702
0.0616326
0.0611502
0.0607304
0.060377
0.0600948
0.0598888
0.0597653
0.0597269
0.0597755
0.0599115
0.0601342
0.0733916
0.0725676
0.0717486
0.0709514
0.0701722
0.0694104
0.0686678
0.0679454
0.0672562
0.0666023
0.0659851
0.0654053
0.0648644
0.0643689
0.0639165
0.063524
0.0631943
0.0629295
0.0627303
0.0626129
0.0625778
0.0626267
0.0627602
0.0629775
0.0748982
0.0741933
0.0734511
0.0727428
0.0720505
0.071365
0.0706986
0.0700257
0.0693855
0.0687777
0.0682064
0.0676765
0.0671737
0.0667288
0.0662924
0.06592
0.0656088
0.0653664
0.0651661
0.065053
0.0650187
0.0650674
0.0651996
0.0654121
0.011677
0.0139129
0.0154072
0.0168636
0.0184458
0.0201886
0.022094
0.0241498
0.0263424
0.0286587
0.0310879
0.0336216
0.0362522
0.0389736
0.0417799
0.0446655
0.0476241
0.0506493
0.0537336
0.0568699
0.0600501
0.0632654
0.0665063
0.0697626
0.0260422
0.0265987
0.0273382
0.0282617
0.0293678
0.0306499
0.032098
0.0336995
0.0354421
0.0373127
0.039299
0.0413912
0.0435787
0.0458527
0.0482057
0.0506312
0.0531226
0.055674
0.0582797
0.0609337
0.0636305
0.0663638
0.0691277
0.0719237
0.0353064
0.0358012
0.036438
0.03722
0.0381454
0.0392108
0.0404102
0.0417361
0.04318
0.0447333
0.0463868
0.0481323
0.0499619
0.0518684
0.053845
0.0558865
0.057987
0.0601416
0.0623458
0.0645949
0.0668844
0.0692099
0.0715679
0.0739635
0.0425373
0.0429987
0.0435803
0.0442827
0.0451042
0.0460418
0.0470904
0.0482439
0.0494949
0.0508368
0.052262
0.0537636
0.0553345
0.0569693
0.0586626
0.0604093
0.0622053
0.0640463
0.0659289
0.0678495
0.0698049
0.0717925
0.0738097
0.0758631
0.0483608
0.0487989
0.0493434
0.0499934
0.0507461
0.0515983
0.0525451
0.0535801
0.0546969
0.0558891
0.0571499
0.0584731
0.0598527
0.0612837
0.0627615
0.0642816
0.0658407
0.067435
0.0690618
0.0707185
0.0724028
0.0741127
0.0758471
0.0776144
0.0531336
0.0535534
0.0540696
0.0546807
0.0553836
0.0561741
0.0570471
0.0579965
0.0590152
0.0600972
0.0612359
0.0624254
0.0636602
0.0649358
0.0662482
0.0675931
0.068967
0.0703671
0.0717907
0.0732357
0.0747005
0.0761837
0.0776845
0.0792124
0.0571028
0.0575074
0.0580012
0.0585817
0.0592461
0.0599895
0.0608067
0.0616914
0.062636
0.0636337
0.0646783
0.065764
0.0668864
0.0680413
0.0692245
0.0704322
0.0716601
0.0729057
0.0741666
0.0754408
0.0767272
0.078025
0.0793338
0.0806591
0.0604418
0.0608339
0.0613088
0.0618647
0.0624974
0.0632034
0.0639775
0.0648124
0.0656996
0.0666309
0.0676001
0.0686029
0.069636
0.0706958
0.0717772
0.0728753
0.0739867
0.075108
0.0762373
0.0773726
0.078513
0.0796586
0.0808086
0.0819651
0.0632774
0.0636611
0.0641174
0.0646523
0.065258
0.0659336
0.0666742
0.0674714
0.0683143
0.0691903
0.0700963
0.0710306
0.0719919
0.0729759
0.0739767
0.0749861
0.0760032
0.0770234
0.0780452
0.0790662
0.0800851
0.0811059
0.0821247
0.083137
0.0656986
0.0660809
0.0665125
0.0670314
0.0676131
0.0682668
0.0689823
0.0697493
0.0705529
0.0713726
0.0722239
0.0731
0.0740055
0.074931
0.075868
0.0768027
0.0777446
0.0786816
0.0796158
0.0805405
0.0814518
0.0823731
0.0833109
0.0841968
0.0750507
0.0695223
0.0643397
0.0594366
0.0547737
0.0503261
0.0460791
0.0420258
0.0381635
0.0344927
0.0310146
0.0277331
0.0246532
0.0217794
0.0191138
0.0166549
0.0143985
0.0123402
0.0104948
0.00891894
0.00768354
0.00646716
0.00515087
0.00361907
0.0776852
0.0729362
0.0684698
0.064226
0.0601675
0.0562686
0.0525149
0.0488986
0.0454178
0.0420731
0.0388666
0.0358012
0.0328842
0.0301321
0.0275758
0.0252536
0.0231482
0.0211554
0.019181
0.01717
0.015097
0.0129155
0.0105651
0.00796583
0.0805121
0.0764875
0.0727016
0.0690993
0.0656447
0.0623119
0.0590841
0.0559543
0.0529229
0.0499945
0.0471733
0.0444581
0.0418383
0.0392983
0.036817
0.0343762
0.0319501
0.0295086
0.0270124
0.024419
0.0216849
0.0187686
0.015627
0.0122141
0.0834502
0.0800918
0.0769369
0.0739353
0.0710525
0.0682539
0.0655109
0.062807
0.0601349
0.0574912
0.0548725
0.052274
0.0496876
0.0471008
0.0444981
0.0418594
0.0391631
0.0363836
0.0334901
0.0304473
0.0272163
0.0237567
0.0200285
0.0159953
0.086445
0.0836754
0.0810752
0.0785762
0.0761251
0.0736893
0.0712514
0.0688005
0.0663305
0.0638378
0.0613173
0.0587631
0.0561672
0.0535181
0.050802
0.0480018
0.0450963
0.0420601
0.0388653
0.0354777
0.0318601
0.0279733
0.0237793
0.0192407
0.0894131
0.0871363
0.0849451
0.0827784
0.080604
0.0784031
0.0761639
0.073878
0.0715407
0.0691455
0.0666871
0.0641588
0.0615511
0.0588523
0.0560484
0.0531219
0.0500521
0.0468154
0.0433813
0.0397166
0.0357852
0.0315478
0.0269645
0.0219975
0.0922494
0.0903215
0.0884004
0.0864572
0.0844742
0.0824394
0.0803432
0.078178
0.0759371
0.0736146
0.0712036
0.0686957
0.0660796
0.0633434
0.0604713
0.0574455
0.0542453
0.0508447
0.0472146
0.0433207
0.039127
0.0345923
0.0296758
0.0243377
0.0948597
0.0931563
0.0914255
0.0896465
0.0878074
0.0858993
0.0839137
0.0818418
0.0796776
0.0774135
0.0750415
0.0725511
0.0699309
0.0671657
0.0642398
0.0611343
0.0578271
0.0542921
0.0504972
0.0464091
0.0419921
0.0372013
0.0319934
0.0263288
0.0971863
0.0956478
0.0940607
0.0924098
0.090687
0.0888806
0.0869837
0.0849863
0.0828849
0.0806706
0.0783323
0.0758594
0.0732382
0.0704491
0.0674789
0.0643064
0.0609109
0.0572637
0.0533307
0.0490723
0.0444647
0.0394529
0.0339883
0.0280305
0.0992421
0.0978296
0.0963576
0.0948065
0.0931876
0.0914659
0.0896453
0.0877038
0.0856524
0.0834816
0.0811763
0.0787196
0.0761044
0.0732912
0.0702827
0.0670491
0.0635774
0.059839
0.0558016
0.0513782
0.0466113
0.0414164
0.0357235
0.0294948
0.00185555
0.000909178
0.00111465
0.00141209
0.00169556
0.00198119
0.00228733
0.00264102
0.00308038
0.00364776
0.0043273
0.00510851
0.0059915
0.00698099
0.00808436
0.00930911
0.0106627
0.0121533
0.0137897
0.0155814
0.0175379
0.0196684
0.0219828
0.0244951
0.00503125
0.00233675
0.0014853
0.00170991
0.00201812
0.00235208
0.00273486
0.00319175
0.00374387
0.00441056
0.00516839
0.00601221
0.00694434
0.00796919
0.00909225
0.0103191
0.0116557
0.0131087
0.0146857
0.0163942
0.0182423
0.0202385
0.0223912
0.0247011
0.00845592
0.00453284
0.00215131
0.00201124
0.00235655
0.00276562
0.00324447
0.00380581
0.00445628
0.00520554
0.00603032
0.00692876
0.0079034
0.00895749
0.0100951
0.0113197
0.0126362
0.0140499
0.0155668
0.0171932
0.0189358
0.0208013
0.0227973
0.0249327
0.0115847
0.00684321
0.00313104
0.002342
0.00270943
0.00320516
0.00377973
0.0044338
0.00516822
0.00598636
0.00686842
0.00781374
0.00882434
0.00990218
0.0110493
0.0122685
0.0135635
0.0149386
0.0163981
0.0179471
0.0195908
0.0213347
0.0231828
0.025132
0.0142893
0.00893461
0.00425385
0.0027214
0.00307266
0.00365378
0.00431453
0.00504712
0.00585668
0.00673376
0.00766573
0.00865166
0.00969266
0.0107894
0.0119427
0.0131549
0.0144283
0.0157662
0.0171721
0.0186493
0.0202018
0.0218332
0.0235469
0.0253485
0.0165847
0.0107311
0.00535743
0.0031421
0.00343915
0.00409783
0.00483424
0.00563641
0.00651071
0.00743957
0.00841528
0.00943685
0.0105036
0.0116153
0.0127727
0.0139768
0.0152294
0.0165325
0.0178883
0.0192995
0.0207683
0.0222979
0.023892
0.0255576
0.0185229
0.0122456
0.00635553
0.0035812
0.0038011
0.00452771
0.00533113
0.00619628
0.00712589
0.00810055
0.00911497
0.0101672
0.0112558
0.01238
0.0135397
0.0147355
0.0159682
0.0172387
0.0185487
0.0198993
0.0212924
0.0227303
0.0242164
0.0257561
0.0201601
0.0135189
0.00722377
0.00401378
0.00415432
0.00493907
0.00580068
0.00672327
0.00770038
0.0087155
0.0097641
0.010843
0.0119504
0.0130849
0.0142461
0.0154338
0.016648
0.0178887
0.0191566
0.0204522
0.0217765
0.0231315
0.0245188
0.0259402
0.0215416
0.0145796
0.00797217
0.00443514
0.00448154
0.0053149
0.00623139
0.00720807
0.00822911
0.0092818
0.010362
0.0114658
0.012591
0.0137359
0.014899
0.0160796
0.0172767
0.0184896
0.0197183
0.0209632
0.0222248
0.0235042
0.0248019
0.0261163
0.0226851
0.0153703
0.00841715
0.00470679
0.00484867
0.00575755
0.00671505
0.00773218
0.00878854
0.00987755
0.0109874
0.0121111
0.0132491
0.0143997
0.0155581
0.0167267
0.017901
0.0190771
0.0202604
0.0214502
0.022649
0.0238617
0.0250842
0.0263014
0.000408618
0.00140016
0.00293406
0.00474678
0.00656152
0.00835711
0.0101479
0.0119355
0.0137217
0.0155093
0.0173024
0.0191069
0.0209279
0.0227676
0.0246278
0.0265391
0.0285653
0.0307395
0.0330241
0.0355313
0.0383795
0.0414918
0.0447973
0.0482348
0.000302228
0.000821032
0.00191007
0.00340883
0.00500533
0.00658098
0.00814497
0.00971719
0.0113176
0.0129566
0.0146356
0.0163555
0.018117
0.0199213
0.0217715
0.0236784
0.025668
0.0277718
0.0300064
0.0324305
0.0351104
0.037977
0.0412015
0.0447125
0.000130197
0.000509614
0.00121526
0.00220884
0.00350767
0.00513784
0.00698204
0.00876603
0.0104818
0.0121466
0.0137806
0.0154014
0.0170251
0.0186677
0.0203461
0.0220793
0.0238911
0.0258123
0.0278786
0.0301346
0.0326282
0.0353631
0.0384011
0.0416506
0.000148348
0.000420985
0.000993873
0.00179163
0.0028395
0.00417011
0.00582166
0.00770666
0.00959962
0.0114529
0.0132577
0.0150078
0.0167013
0.0183433
0.0199485
0.0215415
0.0231566
0.0248382
0.0266395
0.0286201
0.03084
0.0333438
0.0361666
0.0392784
0.000110558
0.000363561
0.000858157
0.0015455
0.00244806
0.00359059
0.00500538
0.00672926
0.00870076
0.0106974
0.01266
0.0145757
0.016434
0.0182216
0.0199285
0.021555
0.0231178
0.0246545
0.0262245
0.027906
0.0297872
0.0319532
0.0344683
0.0373509
0.000102378
0.00032962
0.000776177
0.00139048
0.0021983
0.00321969
0.00448428
0.00602705
0.00788333
0.00993312
0.0120084
0.0140598
0.0160698
0.0180224
0.0198967
0.0216721
0.023336
0.0248938
0.0263794
0.0278608
0.0294389
0.0312342
0.0333644
0.0359328
8.80224e-05
0.000303014
0.000713034
0.00127395
0.00201398
0.00294848
0.0041038
0.00551165
0.00720859
0.00921113
0.0113521
0.0135088
0.0156429
0.0177357
0.0197672
0.0217118
0.0235418
0.0252349
0.0267873
0.0282285
0.0296342
0.0311282
0.0328653
0.0349941
8.17077e-05
0.000287365
0.000666736
0.00118731
0.00187547
0.00274406
0.00381716
0.00512407
0.00669921
0.00857964
0.0107193
0.0129456
0.0151786
0.0173886
0.019555
0.0216532
0.0236523
0.0255185
0.0272227
0.0287549
0.0301442
0.0314779
0.0329062
0.0346108
7.72725e-05
0.000279787
0.000629905
0.00111896
0.00176472
0.00258105
0.00358899
0.00481576
0.0062934
0.00805873
0.0101332
0.0123897
0.0146979
0.0170049
0.0192855
0.0215163
0.0236678
0.0257038
0.0275846
0.0292758
0.030765
0.032087
0.0333468
0.0347118
7.50783e-05
0.000276143
0.000600502
0.00106408
0.00167497
0.00244879
0.00340386
0.00456557
0.0059642
0.00763497
0.00961404
0.011858
0.0142151
0.0166004
0.0189775
0.0213222
0.0236071
0.0257969
0.0278496
0.0297198
0.0313696
0.0327883
0.0340225
0.0351927
7.34965e-05
0.000273869
0.000576258
0.00101866
0.00160078
0.00233939
0.00325067
0.00435844
0.00569144
0.00728301
0.00917089
0.0113651
0.0137428
0.0161882
0.0186464
0.021089
0.0234896
0.0258156
0.0280255
0.0300707
0.0319007
0.0334759
0.0347914
0.0359051
7.25929e-05
0.000272192
0.000556378
0.000981152
0.00153924
0.00224853
0.00312311
0.00418571
0.00546355
0.00698873
0.00879787
0.0109217
0.0132931
0.0157794
0.0183047
0.0208311
0.0233324
0.0257776
0.028128
0.0303351
0.0323436
0.0340979
0.0355585
0.0367273
7.21641e-05
0.000271032
0.000540042
0.000950042
0.00148803
0.00217267
0.00301648
0.0040409
0.00527218
0.00674083
0.00848249
0.0105337
0.0128758
0.0153845
0.0179629
0.0205614
0.02315
0.0256999
0.0281747
0.030528
0.0327037
0.0346395
0.036276
0.0375804
7.21657e-05
0.000270187
0.000526678
0.000924458
0.00144562
0.00210955
0.00292739
0.00391965
0.00511138
0.0065321
0.00821602
0.010201
0.0124984
0.0150121
0.0176309
0.0202906
0.0229556
0.0255975
0.0281821
0.0306661
0.0329948
0.035104
0.036925
0.0384016
7.25191e-05
0.000269715
0.000515811
0.000903539
0.00141092
0.00205705
0.00285308
0.0038182
0.00497653
0.00635656
0.00799138
0.00991838
0.0121643
0.0146688
0.0173159
0.0200276
0.0227602
0.0254835
0.0281659
0.0307663
0.0332334
0.0355033
0.0375037
0.0391616
7.31261e-05
0.000269327
0.000506956
0.000886355
0.00138244
0.00201337
0.00279109
0.00373343
0.00486364
0.00620917
0.00780207
0.00967915
0.0118741
0.0143588
0.0170237
0.0197791
0.0225718
0.0253687
0.0281387
0.030844
0.0334359
0.0358534
0.0380241
0.0398706
7.40604e-05
0.000269025
0.000499753
0.000872112
0.0013587
0.00197696
0.00273929
0.00366255
0.00476899
0.0060854
0.0076428
0.00947706
0.0116251
0.0140831
0.0167575
0.0195493
0.0223964
0.0252604
0.0281103
0.0309107
0.0336161
0.0361685
0.0384978
0.0405244
7.52099e-05
0.000268822
0.000493965
0.000860195
0.00133881
0.00194632
0.00269574
0.00360285
0.00468934
0.00598096
0.00750819
0.00930602
0.0114122
0.0138403
0.016517
0.0193396
0.022236
0.0251626
0.0280867
0.0309746
0.0337839
0.0364598
0.0389348
0.0411287
7.65555e-05
0.000268713
0.000489419
0.000850185
0.00132195
0.00192035
0.00265878
0.00355222
0.00462165
0.00589229
0.00739369
0.00916017
0.0112298
0.0136268
0.0163006
0.0191486
0.0220907
0.025076
0.0280699
0.0310396
0.0339448
0.0367342
0.0393428
0.0416919
7.80827e-05
0.000268748
0.000485988
0.000841642
0.00130748
0.00189801
0.00262703
0.00350868
0.00456347
0.00581602
0.00729526
0.00903463
0.0110721
0.0134387
0.016105
0.0189739
0.0219578
0.024999
0.0280594
0.031106
0.0341007
0.0369946
0.0397254
0.0422142
7.96657e-05
0.000268866
0.000483468
0.000834306
0.00129494
0.00187854
0.00259932
0.00347077
0.00451278
0.00574956
0.00720929
0.00892499
0.0109341
0.0132717
0.0159268
0.0188121
0.0218344
0.0249288
0.0280529
0.0311729
0.0342519
0.0372438
0.0400892
0.0427147
8.13459e-05
0.0002691
0.000481745
0.000827885
0.00128376
0.00186123
0.00257471
0.00343706
0.00446774
0.00569056
0.00713316
0.0088278
0.0108116
0.0131218
0.0157626
0.0186598
0.0217168
0.0248618
0.0280471
0.0312372
0.034396
0.0374788
0.0404274
0.0431647
8.30373e-05
0.000269391
0.000480584
0.000822111
0.00127369
0.00184558
0.00255247
0.00340661
0.00442714
0.00563732
0.00706445
0.00874021
0.010701
0.0129856
0.0156095
0.0185141
0.0216021
0.0247948
0.0280391
0.0312969
0.034532
0.0377012
0.0407486
0.0436015
8.4706e-05
0.000269728
0.000479844
0.000816843
0.00126442
0.00183115
0.00253196
0.00337861
0.00438984
0.0055885
0.00700147
0.00865993
0.0105998
0.0128602
0.0154652
0.0183727
0.0214875
0.024725
0.028026
0.0313492
0.0346579
0.0379098
0.0410502
0.0440055
8.63382e-05
0.000270097
0.000479431
0.000811959
0.00125573
0.00181762
0.00251278
0.00335244
0.00435499
0.00554297
0.00694284
0.00858526
0.0105056
0.0127432
0.0153282
0.0182341
0.0213712
0.02465
0.0280053
0.031392
0.0347722
0.0381045
0.0413366
0.044401
8.78952e-05
0.000270488
0.00047922
0.000807334
0.00124747
0.00180477
0.00249458
0.00332763
0.004322
0.00549993
0.00688749
0.00851488
0.010417
0.012633
0.0151971
0.0180972
0.0212519
0.0245682
0.0279749
0.0314226
0.0348719
0.0382815
0.0416001
0.0447596
8.9381e-05
0.000270899
0.000479165
0.00080293
0.00123957
0.00179247
0.00247717
0.00330388
0.00429043
0.0054588
0.00683467
0.00844783
0.0103327
0.0125282
0.0150711
0.0179617
0.0211291
0.0244787
0.0279337
0.03144
0.034956
0.0384406
0.0418435
0.0450989
9.079e-05
0.000271331
0.000479228
0.000798733
0.00123198
0.00178062
0.00246035
0.00328098
0.00426005
0.00541924
0.00678391
0.00838347
0.0102519
0.0124277
0.0149494
0.0178275
0.0210029
0.0243813
0.0278811
0.0314433
0.0350237
0.0385809
0.0420661
0.045416
9.2117e-05
0.000271777
0.000479371
0.000794737
0.00122472
0.00176925
0.00244414
0.00325887
0.00423072
0.00538107
0.00673496
0.00832146
0.010174
0.0123309
0.0148317
0.0176948
0.0208737
0.0242765
0.0278173
0.0314324
0.0350746
0.0387019
0.0422663
0.0457073
9.33937e-05
0.000272243
0.000479594
0.000790945
0.00121783
0.00175845
0.00242852
0.00323753
0.00420242
0.00534422
0.00668772
0.00826163
0.010099
0.0122377
0.0147179
0.0175641
0.0207424
0.0241649
0.0277429
0.0314078
0.0351095
0.0388046
0.0424459
0.0459739
9.4617e-05
0.000272724
0.000479875
0.000787311
0.00121123
0.00174816
0.00241349
0.00321698
0.00417513
0.00530872
0.00664223
0.008204
0.0100268
0.0121479
0.0146079
0.017436
0.0206098
0.0240476
0.0276585
0.0313699
0.0351279
0.0388884
0.0426048
0.0462178
9.57632e-05
0.000273206
0.000480144
0.000783794
0.00120484
0.00173824
0.00239903
0.00319721
0.00414891
0.00527463
0.00659856
0.0081487
0.0099574
0.0120617
0.0145021
0.0173114
0.0204775
0.0239262
0.0275659
0.0313199
0.035131
0.0389534
0.0427415
0.0464415
9.68589e-05
0.000273699
0.000480432
0.000780433
0.00119873
0.00172875
0.00238518
0.00317828
0.0041238
0.00524199
0.00655677
0.00809583
0.00989113
0.0119793
0.0144008
0.0171911
0.020347
0.0238029
0.0274672
0.0312599
0.0351202
0.0390004
0.0428547
0.0466294
9.79156e-05
0.000274194
0.000480723
0.000777227
0.0011929
0.00171968
0.00237195
0.00316021
0.00409983
0.00521086
0.00651692
0.00804545
0.00982803
0.0119009
0.0143045
0.0170759
0.0202202
0.02368
0.0273655
0.0311935
0.0350998
0.0390341
0.0429497
0.0467925
9.89535e-05
0.000274704
0.000481057
0.000774217
0.00118738
0.00171107
0.00235937
0.00314302
0.00407705
0.00518124
0.00647901
0.00799753
0.00976804
0.0118264
0.014213
0.0169663
0.0200978
0.0235592
0.027263
0.0311238
0.0350739
0.0390606
0.0430365
0.0469487
9.99562e-05
0.000275209
0.000481385
0.000771376
0.00118215
0.00170291
0.00234747
0.00312674
0.00405547
0.00515315
0.00644305
0.00795204
0.00971109
0.0117558
0.0141261
0.0168619
0.0199802
0.0234413
0.0271613
0.0310529
0.0350453
0.0390833
0.043119
0.0471009
0.000100938
0.000275716
0.000481726
0.00076872
0.00117725
0.00169525
0.00233625
0.00311139
0.00403506
0.0051266
0.00640901
0.00790894
0.00965711
0.0116887
0.0140437
0.0167624
0.019867
0.0233262
0.0270601
0.0309807
0.035014
0.0391024
0.043197
0.0472469
0.000101904
0.000276227
0.000482083
0.000766247
0.00117267
0.00168808
0.00232575
0.00309698
0.0040159
0.00510164
0.00637695
0.00786828
0.00960607
0.0116252
0.0139654
0.0166676
0.019758
0.0232134
0.0269592
0.0309066
0.0349792
0.0391168
0.0432695
0.0473868
0.000102856
0.000276738
0.000482451
0.000763948
0.00116839
0.00168138
0.00231593
0.00308351
0.00399797
0.00507824
0.00634687
0.00783008
0.00955804
0.0115654
0.0138914
0.0165776
0.0196534
0.0231034
0.0268584
0.03083
0.0349394
0.0391238
0.0433326
0.0475171
0.000103799
0.000277248
0.000482827
0.000761813
0.00116441
0.00167514
0.00230676
0.00307095
0.00398126
0.00505641
0.00631879
0.00779437
0.00951307
0.0115092
0.0138219
0.0164928
0.0195539
0.0229969
0.0267587
0.0307518
0.034895
0.0391227
0.043382
0.0476232
0.000104731
0.000277753
0.000483205
0.00075983
0.00116069
0.00166931
0.00229822
0.00305924
0.00396569
0.0050361
0.00629265
0.00776112
0.00947117
0.0114569
0.013757
0.0164133
0.0194601
0.0228953
0.026662
0.0306743
0.0348489
0.0391174
0.0434238
0.0477155
0.000105647
0.000278249
0.000483576
0.000757985
0.00115723
0.00166388
0.00229026
0.00304835
0.0039512
0.00501719
0.00626833
0.00773019
0.0094322
0.0114081
0.0136965
0.0163392
0.0193723
0.0227994
0.0265698
0.0305997
0.0348044
0.0391126
0.0434661
0.0478106
0.000106562
0.000278739
0.000483949
0.000756269
0.00115399
0.00165882
0.00228284
0.0030382
0.00393772
0.00499963
0.00624575
0.00770148
0.00939605
0.011363
0.0136404
0.0162705
0.0192905
0.0227094
0.0264828
0.0305292
0.0347631
0.0391111
0.0435139
0.0479193
0.000107479
0.000279223
0.000484335
0.000754674
0.00115097
0.00165409
0.00227591
0.00302873
0.00392517
0.00498328
0.00622475
0.0076748
0.00936246
0.011321
0.0135884
0.0162065
0.0192143
0.022625
0.0264006
0.0304625
0.0347245
0.039111
0.0435603
0.0480182
0.000108376
0.000279691
0.000484696
0.000753174
0.00114813
0.00164964
0.00226941
0.00301986
0.00391341
0.004968
0.00620516
0.00764995
0.0093312
0.011282
0.01354
0.0161471
0.0191433
0.022546
0.0263232
0.0303998
0.0346891
0.0391134
0.0436088
0.0481212
0.000109243
0.00028014
0.000485018
0.000751761
0.00114546
0.00164545
0.00226328
0.00301151
0.00390237
0.00495366
0.0061868
0.0076267
0.009302
0.0112456
0.0134949
0.0160917
0.019077
0.0224718
0.02625
0.0303404
0.0346564
0.0391182
0.0436599
0.0482232
0.000110108
0.000280572
0.000485326
0.000750445
0.00114295
0.0016415
0.00225749
0.00300362
0.00389194
0.00494013
0.00616952
0.00760484
0.0092746
0.0112115
0.0134527
0.01604
0.0190149
0.0224019
0.0261807
0.0302838
0.0346253
0.039124
0.0437126
0.0483343
0.000111001
0.000280998
0.00048568
0.000749249
0.0011406
0.00163778
0.00225202
0.00299616
0.00388206
0.00492731
0.00615313
0.00758415
0.0092487
0.0111793
0.013413
0.0159913
0.0189566
0.022336
0.0261147
0.0302295
0.0345949
0.0391287
0.043762
0.0484378
0.000111883
0.000281411
0.000486035
0.000748121
0.00113838
0.00163428
0.00224686
0.00298908
0.00387267
0.00491511
0.00613752
0.00756442
0.00922404
0.0111487
0.0133753
0.0159453
0.0189015
0.0222736
0.0260521
0.0301776
0.0345656
0.0391322
0.0438063
0.0485302
0.000112732
0.000281815
0.000486369
0.000747074
0.00113631
0.00163098
0.002242
0.00298237
0.00386373
0.00490346
0.00612259
0.00754553
0.00920039
0.0111194
0.0133392
0.0159014
0.0188489
0.0222141
0.0259923
0.0301284
0.0345387
0.0391375
0.04385
0.0486114
0.000113565
0.000282211
0.000486698
0.000746107
0.00113438
0.0016279
0.00223742
0.00297604
0.00385525
0.00489236
0.00610831
0.0075274
0.00917764
0.0110911
0.0133044
0.0158588
0.018798
0.0221564
0.025934
0.0300805
0.0345133
0.0391462
0.0439029
0.0487209
0.000114369
0.00028259
0.000487002
0.000745209
0.00113258
0.00162501
0.0022331
0.00297006
0.00384723
0.00488184
0.00609469
0.00751004
0.00915574
0.0110638
0.0132706
0.0158175
0.0187483
0.0220996
0.0258759
0.0300318
0.0344864
0.0391522
0.0439509
0.0488168
0.000115164
0.000282958
0.000487295
0.000744388
0.00113092
0.00162233
0.00222906
0.00296445
0.0038397
0.0048719
0.00608179
0.00749348
0.00913478
0.0110375
0.0132379
0.0157772
0.0186997
0.0220433
0.0258173
0.0299812
0.0344566
0.0391548
0.0439959
0.0489127
0.000115968
0.000283325
0.000487611
0.000743649
0.00112938
0.00161982
0.00222532
0.00295922
0.00383264
0.00486254
0.0060696
0.00747782
0.00911483
0.0110123
0.0132064
0.0157383
0.0186521
0.0219876
0.0257581
0.0299284
0.0344227
0.0391521
0.0440348
0.0490024
0.000116757
0.000283675
0.000487916
0.000742972
0.00112797
0.00161751
0.00222181
0.00295436
0.00382604
0.0048538
0.0060581
0.00746301
0.00909597
0.0109885
0.0131765
0.0157009
0.0186061
0.0219332
0.0256989
0.0298736
0.0343843
0.0391421
0.0440628
0.0490737
0.000117524
0.000284022
0.000488204
0.000742353
0.0011266
0.00161533
0.00221854
0.00294975
0.00381979
0.00484555
0.00604743
0.00744917
0.00907834
0.0109661
0.0131483
0.0156656
0.0185626
0.0218809
0.0256411
0.0298183
0.0343432
0.039127
0.0440844
0.0491403
0.000118287
0.000284352
0.000488496
0.00074178
0.00112538
0.00161326
0.00221546
0.00294545
0.003814
0.00483779
0.00603731
0.00743623
0.00906169
0.010945
0.0131218
0.0156325
0.0185215
0.0218317
0.0255862
0.0297649
0.0343021
0.0391102
0.0441021
0.0492036
0.000119049
0.000284689
0.000488811
0.000741296
0.00112426
0.00161143
0.00221261
0.00294145
0.00380853
0.00483057
0.00602782
0.00742398
0.00904614
0.0109253
0.013097
0.0156015
0.0184834
0.0217858
0.0255349
0.029715
0.0342637
0.0390939
0.044118
0.0492599
0.00011978
0.000285008
0.000489102
0.000740838
0.00112323
0.00160972
0.00220998
0.00293769
0.00380342
0.00482376
0.00601894
0.00741251
0.00903138
0.0109067
0.0130736
0.0155724
0.0184475
0.0217429
0.0254872
0.0296689
0.034229
0.0390813
0.044136
0.0493119
0.000120508
0.000285298
0.000489369
0.000740498
0.00112236
0.0016082
0.00220759
0.00293431
0.00379873
0.00481741
0.00601052
0.00740157
0.0090175
0.010889
0.0130515
0.0155448
0.0184134
0.0217023
0.025442
0.0296257
0.0341978
0.0390733
0.0441625
0.0493857
0.000121233
0.000285604
0.00048967
0.000740171
0.00112156
0.00160682
0.00220543
0.00293114
0.00379431
0.00481147
0.0060027
0.00739131
0.00900425
0.0108722
0.0130303
0.0155185
0.018381
0.0216633
0.0253985
0.0295835
0.034167
0.0390649
0.0441867
0.0494506
0.00012189
0.000285898
0.000489919
0.000739945
0.00112093
0.00160564
0.00220353
0.00292834
0.00379037
0.00480601
0.00599533
0.00738165
0.00899171
0.0108563
0.0130101
0.0154932
0.0183498
0.0216259
0.0253562
0.0295421
0.0341356
0.0390545
0.0442068
0.049509
0.000122609
0.0002862
0.00049026
0.000739829
0.00112044
0.00160472
0.00220194
0.00292595
0.00378685
0.00480112
0.00598867
0.00737272
0.00898008
0.0108411
0.0129909
0.015469
0.0183199
0.0215896
0.0253152
0.0295016
0.0341047
0.0390434
0.0442247
0.049562
0.000123282
0.000286485
0.000490579
0.000739748
0.00112008
0.00160394
0.00220061
0.00292384
0.0037838
0.0047967
0.00598258
0.00736458
0.00896917
0.010827
0.0129726
0.0154459
0.0182909
0.0215544
0.0252752
0.0294617
0.0340743
0.0390334
0.0442451
0.0496188
0.000123942
0.000286743
0.00049086
0.000739739
0.00111983
0.0016034
0.00219955
0.00292214
0.0037812
0.00479297
0.00597725
0.00735721
0.00895933
0.0108139
0.0129556
0.0154239
0.0182632
0.0215202
0.0252356
0.0294218
0.0340433
0.0390234
0.0442689
0.0496925
0.000124611
0.000287023
0.000491193
0.000739789
0.0011197
0.00160302
0.00219878
0.0029208
0.00377907
0.00478979
0.00597274
0.00735082
0.00895052
0.010802
0.0129399
0.0154034
0.0182367
0.0214873
0.0251967
0.0293808
0.0340092
0.0390075
0.0442822
0.0497413
0.000125206
0.00028729
0.000491447
0.000739905
0.00111972
0.00160282
0.00219827
0.00291984
0.00377748
0.00478725
0.0059689
0.00734534
0.00894288
0.0107916
0.0129258
0.0153847
0.0182123
0.0214562
0.025159
0.0293402
0.0339731
0.0389867
0.0442876
0.049782
0.000125835
0.000287556
0.000491752
0.00074012
0.00111988
0.0016029
0.00219807
0.0029193
0.00377634
0.00478538
0.00596597
0.00734091
0.00893658
0.0107827
0.0129137
0.0153683
0.0181906
0.0214279
0.0251244
0.0293018
0.0339381
0.0389649
0.0442905
0.0498202
0.000126456
0.000287806
0.000492053
0.000740388
0.00112018
0.00160313
0.00219818
0.00291908
0.00377571
0.00478402
0.0059637
0.00733747
0.00893133
0.0107753
0.0129032
0.0153541
0.0181715
0.0214032
0.0250935
0.0292673
0.0339061
0.0389454
0.0442941
0.0498602
0.000127099
0.000288069
0.000492402
0.000740776
0.00112064
0.00160364
0.00219857
0.00291928
0.00377554
0.00478337
0.00596223
0.0073349
0.00892739
0.0107693
0.0128948
0.0153423
0.0181556
0.0213819
0.0250669
0.0292374
0.0338786
0.0389284
0.0442972
0.0498929
0.000127732
0.000288339
0.00049276
0.000741214
0.00112124
0.00160434
0.00219929
0.00291986
0.00377589
0.0047833
0.00596157
0.0073333
0.00892447
0.0107648
0.012888
0.0153326
0.0181421
0.0213641
0.0250447
0.0292127
0.0338566
0.0389162
0.0443017
0.0499186
0.000128305
0.000288564
0.000493044
0.000741782
0.00112207
0.00160533
0.00220036
0.00292096
0.00377684
0.00478392
0.00596158
0.00733255
0.00892267
0.0107615
0.0128828
0.0153248
0.0181311
0.0213494
0.0250263
0.0291933
0.0338415
0.0389128
0.0443148
0.0499406
0.000128906
0.000288811
0.000493384
0.000742456
0.00112303
0.00160657
0.00220181
0.00292247
0.00377829
0.00478521
0.00596257
0.00733284
0.00892207
0.0107596
0.0128791
0.0153189
0.0181222
0.021337
0.0250111
0.0291777
0.0338323
0.0389201
0.0443517
0.0500292
0.000129512
0.000289045
0.000493745
0.00074324
0.00112423
0.0016081
0.00220366
0.00292452
0.00378046
0.00478725
0.00596438
0.00733427
0.00892261
0.010759
0.0128768
0.0153145
0.018115
0.0213267
0.0249976
0.0291637
0.0338239
0.0389273
0.044386
0.0501035
0.000130125
0.000289289
0.000494148
0.000744175
0.00112566
0.00161001
0.00220593
0.00292716
0.00378328
0.00479021
0.00596721
0.00733679
0.00892461
0.0107599
0.0128764
0.0153119
0.01811
0.0213183
0.0249862
0.0291511
0.0338158
0.0389316
0.0444113
0.0501539
0.000130716
0.000289519
0.000494555
0.000745215
0.00112731
0.0016122
0.00220867
0.0029303
0.00378685
0.004794
0.00597116
0.00734064
0.00892799
0.0107626
0.0128778
0.0153116
0.0181072
0.0213124
0.0249771
0.0291408
0.0338097
0.0389387
0.0444419
0.0502187
0.000131312
0.000289725
0.000494961
0.000746408
0.00112917
0.00161474
0.00221184
0.00293409
0.00379114
0.00479876
0.00597617
0.00734574
0.00893301
0.0107671
0.0128815
0.0153137
0.0181069
0.0213094
0.0249709
0.0291332
0.0338058
0.0389472
0.044473
0.0502847
0.00013191
0.000289948