/*--------------------------------*- C++ -*----------------------------------*\
| =========                 |                                                 |
| \\      /  F ield         | OpenFOAM: The Open Source CFD Toolbox           |
|  \\    /   O peration     | Version:  2.3.0                                 |
|   \\  /    A nd           | Web:      www.OpenFOAM.org                      |
|    \\/     M anipulation  |                                                 |
\*---------------------------------------------------------------------------*/
FoamFile
{
    version     2.0;
    format      ascii;
    class       volScalarField;
    location    "7000";
    object      nuTilda;
}
// * * * * * * * * * * * * * * * * * * * * * * * * * * * * * * * * * * * * * //

dimensions      [0 2 -1 0 0 0 0];

internalField   nonuniform List<scalar> 
14769
(
0.0520201
0.0488933
0.0458631
0.0429542
0.0401853
0.0375773
0.0351501
0.0329265
0.0309331
0.0291724
0.0275215
0.0259002
0.0243304
0.022826
0.0213888
0.0200137
0.0186928
0.0174202
0.0161876
0.0149896
0.0138149
0.0126547
0.0115231
0.010651
0.0558854
0.0532816
0.0507689
0.0483536
0.0460405
0.0438325
0.041733
0.0397457
0.0378744
0.0361218
0.0344869
0.0329671
0.0315656
0.0302884
0.0291428
0.0281347
0.0272709
0.0265566
0.0259984
0.0255999
0.0253656
0.025295
0.0253887
0.025643
0.0593512
0.057177
0.0550857
0.0530802
0.0511629
0.0493357
0.0475996
0.0459571
0.0444106
0.0429619
0.0416136
0.0403692
0.039232
0.0382064
0.037297
0.0365087
0.0358461
0.035314
0.0349155
0.0346531
0.0345266
0.0345355
0.0346738
0.0349345
0.0624436
0.0606206
0.0588694
0.0571915
0.0555884
0.0540603
0.052609
0.0512354
0.0499414
0.0487291
0.047601
0.0465605
0.045611
0.0447557
0.0439998
0.043347
0.0428015
0.0423677
0.0420481
0.0418452
0.041759
0.041789
0.0419326
0.0421842
0.0651964
0.063656
0.0621784
0.0607612
0.0594046
0.0581098
0.0568774
0.0557092
0.0546059
0.0535702
0.0526039
0.0517109
0.0508938
0.0501572
0.0495049
0.0489419
0.0484721
0.0480994
0.0478275
0.0476589
0.0475951
0.0476354
0.0477788
0.0480221
0.0676291
0.0663257
0.0650695
0.0638602
0.0626984
0.0615854
0.0605225
0.059512
0.0585547
0.0576527
0.0568084
0.0560242
0.0553044
0.0546533
0.054075
0.0535743
0.0531561
0.0528246
0.0525835
0.0524362
0.052385
0.0524303
0.0525716
0.0528072
0.0697859
0.0686743
0.0675969
0.0665545
0.0655477
0.0645779
0.0636474
0.0627584
0.061914
0.0611151
0.0603645
0.059664
0.0590182
0.0584307
0.0579071
0.0574521
0.0570708
0.0567679
0.056548
0.0564148
0.0563714
0.0564191
0.0565577
0.0567865
0.0716982
0.0707424
0.0698093
0.0689018
0.06802
0.0671649
0.0663381
0.0655437
0.0647866
0.0640693
0.0633924
0.0627581
0.0621702
0.0616326
0.0611502
0.0607304
0.060377
0.0600948
0.0598888
0.0597653
0.0597269
0.0597755
0.0599115
0.0601342
0.0733916
0.0725676
0.0717486
0.0709514
0.0701722
0.0694104
0.0686678
0.0679454
0.0672562
0.0666023
0.0659851
0.0654053
0.0648644
0.0643689
0.0639165
0.063524
0.0631943
0.0629295
0.0627303
0.0626129
0.0625778
0.0626267
0.0627602
0.0629775
0.0748982
0.0741933
0.0734511
0.0727428
0.0720505
0.071365
0.0706986
0.0700257
0.0693855
0.0687777
0.0682064
0.0676765
0.0671737
0.0667288
0.0662924
0.06592
0.0656088
0.0653664
0.0651661
0.065053
0.0650187
0.0650674
0.0651996
0.0654121
0.011677
0.0139129
0.0154072
0.0168636
0.0184458
0.0201886
0.022094
0.0241498
0.0263424
0.0286587
0.0310879
0.0336216
0.0362522
0.0389736
0.0417799
0.0446655
0.0476241
0.0506493
0.0537336
0.0568699
0.0600501
0.0632654
0.0665063
0.0697626
0.0260422
0.0265987
0.0273382
0.0282617
0.0293678
0.0306499
0.032098
0.0336995
0.0354421
0.0373127
0.039299
0.0413912
0.0435787
0.0458527
0.0482057
0.0506312
0.0531226
0.055674
0.0582797
0.0609337
0.0636305
0.0663638
0.0691277
0.0719237
0.0353064
0.0358012
0.036438
0.03722
0.0381454
0.0392108
0.0404102
0.0417361
0.04318
0.0447333
0.0463868
0.0481323
0.0499619
0.0518684
0.053845
0.0558865
0.057987
0.0601416
0.0623458
0.0645949
0.0668844
0.0692099
0.0715679
0.0739635
0.0425373
0.0429987
0.0435803
0.0442827
0.0451042
0.0460418
0.0470904
0.0482439
0.0494949
0.0508368
0.052262
0.0537636
0.0553345
0.0569693
0.0586626
0.0604093
0.0622053
0.0640463
0.0659289
0.0678495
0.0698049
0.0717925
0.0738097
0.0758631
0.0483608
0.0487989
0.0493434
0.0499934
0.0507461
0.0515983
0.0525451
0.0535801
0.0546969
0.0558891
0.0571499
0.0584731
0.0598527
0.0612837
0.0627615
0.0642816
0.0658407
0.067435
0.0690618
0.0707185
0.0724028
0.0741127
0.0758471
0.0776144
0.0531336
0.0535534
0.0540696
0.0546807
0.0553836
0.0561741
0.0570471
0.0579965
0.0590152
0.0600972
0.0612359
0.0624254
0.0636602
0.0649358
0.0662482
0.0675931
0.068967
0.0703671
0.0717907
0.0732357
0.0747005
0.0761837
0.0776845
0.0792124
0.0571028
0.0575074
0.0580012
0.0585817
0.0592461
0.0599895
0.0608067
0.0616914
0.062636
0.0636337
0.0646783
0.065764
0.0668864
0.0680413
0.0692245
0.0704322
0.0716601
0.0729057
0.0741666
0.0754408
0.0767272
0.078025
0.0793338
0.0806591
0.0604418
0.0608339
0.0613088
0.0618647
0.0624974
0.0632034
0.0639775
0.0648124
0.0656996
0.0666309
0.0676001
0.0686029
0.069636
0.0706958
0.0717772
0.0728753
0.0739867
0.075108
0.0762373
0.0773726
0.078513
0.0796586
0.0808086
0.0819651
0.0632774
0.0636611
0.0641174
0.0646523
0.065258
0.0659336
0.0666742
0.0674714
0.0683143
0.0691903
0.0700963
0.0710306
0.0719919
0.0729759
0.0739767
0.0749861
0.0760032
0.0770234
0.0780452
0.0790662
0.0800851
0.0811059
0.0821247
0.083137
0.0656986
0.0660809
0.0665125
0.0670314
0.0676131
0.0682668
0.0689823
0.0697493
0.0705529
0.0713726
0.0722239
0.0731
0.0740055
0.074931
0.075868
0.0768027
0.0777446
0.0786816
0.0796158
0.0805405
0.0814518
0.0823731
0.0833109
0.0841968
0.0750507
0.0695223
0.0643397
0.0594366
0.0547737
0.0503261
0.0460791
0.0420258
0.0381635
0.0344927
0.0310146
0.0277331
0.0246532
0.0217794
0.0191138
0.0166549
0.0143985
0.0123403
0.0104948
0.00891896
0.00768357
0.00646719
0.00515092
0.00361917
0.0776852
0.0729362
0.0684698
0.064226
0.0601675
0.0562686
0.0525149
0.0488986
0.0454178
0.0420731
0.0388666
0.0358012
0.0328842
0.0301321
0.0275758
0.0252536
0.0231482
0.0211554
0.019181
0.01717
0.015097
0.0129156
0.0105651
0.00796585
0.0805121
0.0764875
0.0727016
0.0690993
0.0656447
0.0623119
0.0590841
0.0559543
0.0529229
0.0499945
0.0471733
0.0444581
0.0418383
0.0392983
0.036817
0.0343762
0.0319501
0.0295086
0.0270124
0.024419
0.0216849
0.0187687
0.015627
0.0122141
0.0834502
0.0800918
0.0769369
0.0739353
0.0710525
0.0682539
0.0655109
0.062807
0.0601349
0.0574912
0.0548725
0.052274
0.0496876
0.0471008
0.0444981
0.0418594
0.0391631
0.0363836
0.0334901
0.0304473
0.0272163
0.0237567
0.0200285
0.0159953
0.086445
0.0836754
0.0810752
0.0785762
0.0761251
0.0736893
0.0712514
0.0688005
0.0663305
0.0638378
0.0613173
0.0587631
0.0561672
0.0535181
0.050802
0.0480018
0.0450963
0.0420601
0.0388653
0.0354777
0.0318601
0.0279733
0.0237793
0.0192407
0.0894131
0.0871363
0.0849451
0.0827784
0.080604
0.0784031
0.0761639
0.073878
0.0715407
0.0691455
0.0666871
0.0641588
0.0615511
0.0588523
0.0560484
0.0531219
0.0500521
0.0468154
0.0433813
0.0397166
0.0357852
0.0315478
0.0269645
0.0219975
0.0922494
0.0903215
0.0884004
0.0864572
0.0844742
0.0824394
0.0803432
0.078178
0.0759371
0.0736146
0.0712036
0.0686957
0.0660796
0.0633434
0.0604713
0.0574455
0.0542453
0.0508447
0.0472146
0.0433207
0.039127
0.0345923
0.0296758
0.0243377
0.0948597
0.0931563
0.0914255
0.0896465
0.0878074
0.0858993
0.0839137
0.0818418
0.0796776
0.0774135
0.0750415
0.0725511
0.0699309
0.0671657
0.0642398
0.0611343
0.0578271
0.0542921
0.0504972
0.0464091
0.0419921
0.0372013
0.0319934
0.0263288
0.0971863
0.0956478
0.0940607
0.0924098
0.090687
0.0888806
0.0869837
0.0849863
0.0828849
0.0806706
0.0783323
0.0758594
0.0732382
0.0704491
0.0674789
0.0643064
0.0609109
0.0572637
0.0533307
0.0490723
0.0444647
0.0394529
0.0339883
0.0280305
0.0992421
0.0978296
0.0963576
0.0948065
0.0931876
0.0914659
0.0896453
0.0877038
0.0856524
0.0834816
0.0811763
0.0787196
0.0761044
0.0732912
0.0702827
0.0670491
0.0635774
0.059839
0.0558016
0.0513782
0.0466113
0.0414164
0.0357235
0.0294948
0.00185595
0.000910838
0.00111576
0.00141279
0.00169604
0.00198154
0.00228759
0.00264122
0.00308052
0.00364787
0.00432737
0.00510856
0.00599153
0.00698102
0.00808438
0.00930912
0.0106627
0.0121533
0.0137897
0.0155814
0.0175379
0.0196684
0.0219828
0.0244951
0.00503131
0.002337
0.00148593
0.00171039
0.00201846
0.00235233
0.00273505
0.00319188
0.00374397
0.00441063
0.00516844
0.00601225
0.00694436
0.00796921
0.00909227
0.0103191
0.0116557
0.0131088
0.0146857
0.0163942
0.0182423
0.0202385
0.0223912
0.0247011
0.00845594
0.0045329
0.00215161
0.00201159
0.0023568
0.0027658
0.0032446
0.0038059
0.00445635
0.00520559
0.00603035
0.00692878
0.00790343
0.0089575
0.0100951
0.0113197
0.0126362
0.01405
0.0155668
0.0171932
0.0189358
0.0208013
0.0227973
0.0249327
0.0115847
0.00684324
0.00313118
0.00234225
0.00270961
0.0032053
0.00377982
0.00443387
0.00516827
0.00598639
0.00686845
0.00781376
0.00882436
0.00990219
0.0110493
0.0122685
0.0135635
0.0149386
0.0163981
0.0179471
0.0195908
0.0213347
0.0231828
0.025132
0.0142893
0.00893463
0.00425392
0.00272158
0.0030728
0.00365389
0.0043146
0.00504718
0.00585672
0.00673379
0.00766575
0.00865168
0.00969268
0.0107894
0.0119427
0.0131549
0.0144283
0.0157662
0.0171721
0.0186493
0.0202018
0.0218332
0.0235469
0.0253485
0.0165847
0.0107312
0.00535748
0.00314224
0.00343927
0.00409791
0.00483429
0.00563645
0.00651074
0.0074396
0.00841529
0.00943687
0.0105036
0.0116153
0.0127727
0.0139768
0.0152295
0.0165325
0.0178883
0.0192995
0.0207683
0.022298
0.023892
0.0255577
0.0185229
0.0122456
0.00635556
0.00358131
0.0038012
0.00452778
0.00533118
0.00619631
0.00712592
0.00810057
0.00911498
0.0101672
0.0112558
0.01238
0.0135397
0.0147355
0.0159682
0.0172388
0.0185487
0.0198994
0.0212924
0.0227303
0.0242164
0.0257561
0.0201601
0.0135189
0.0072238
0.00401387
0.0041544
0.00493913
0.00580072
0.0067233
0.0077004
0.00871552
0.00976412
0.010843
0.0119504
0.013085
0.0142461
0.0154338
0.016648
0.0178887
0.0191566
0.0204522
0.0217765
0.0231315
0.0245188
0.0259402
0.0215416
0.0145796
0.00797219
0.00443521
0.00448161
0.00531495
0.00623142
0.0072081
0.00822913
0.00928181
0.010362
0.0114658
0.0125911
0.0137359
0.014899
0.0160796
0.0172767
0.0184896
0.0197183
0.0209632
0.0222248
0.0235042
0.0248019
0.0261163
0.0226851
0.0153703
0.00841717
0.00470685
0.00484873
0.00575759
0.00671508
0.0077322
0.00878856
0.00987756
0.0109874
0.0121111
0.0132491
0.0143997
0.0155581
0.0167267
0.017901
0.0190772
0.0202604
0.0214502
0.022649
0.0238617
0.0250842
0.0263014
0.000416427
0.00140087
0.00293422
0.00474684
0.00656155
0.00835713
0.0101479
0.0119355
0.0137217
0.0155093
0.0173024
0.0191069
0.0209279
0.0227676
0.0246278
0.0265391
0.0285653
0.0307395
0.0330241
0.0355313
0.0383795
0.0414918
0.0447973
0.0482348
0.000315508
0.000823065
0.00191045
0.00340895
0.00500539
0.00658101
0.00814499
0.0097172
0.0113177
0.0129566
0.0146356
0.0163555
0.018117
0.0199213
0.0217715
0.0236784
0.025668
0.0277718
0.0300064
0.0324305
0.0351104
0.037977
0.0412015
0.0447125
0.000168058
0.00051477
0.00121619
0.00220912
0.00350778
0.00513789
0.00698207
0.00876605
0.0104818
0.0121466
0.0137806
0.0154014
0.0170251
0.0186677
0.0203461
0.0220793
0.0238911
0.0258123
0.0278786
0.0301346
0.0326282
0.0353631
0.0384011
0.0416506
0.0001822
0.000428376
0.000995265
0.00179206
0.00283967
0.00417019
0.0058217
0.00770668
0.00959963
0.0114529
0.0132577
0.0150078
0.0167013
0.0183433
0.0199485
0.0215415
0.0231566
0.0248382
0.0266395
0.0286201
0.03084
0.0333438
0.0361666
0.0392784
0.000153091
0.000373213
0.000860019
0.00154607
0.00244829
0.0035907
0.00500544
0.00672929
0.00870078
0.0106974
0.01266
0.0145757
0.016434
0.0182216
0.0199285
0.021555
0.0231178
0.0246545
0.0262245
0.027906
0.0297872
0.0319532
0.0344683
0.0373509
0.00014693
0.000341085
0.000778448
0.00139119
0.00219858
0.00321982
0.00448435
0.00602709
0.00788335
0.00993313
0.0120085
0.0140598
0.0160698
0.0180224
0.0198967
0.0216721
0.023336
0.0248938
0.0263794
0.0278608
0.0294389
0.0312342
0.0333644
0.0359328
0.000136158
0.000316238
0.000715718
0.0012748
0.00201432
0.00294864
0.00410388
0.00551169
0.00720861
0.00921115
0.0113521
0.0135088
0.0156429
0.0177357
0.0197672
0.0217118
0.0235418
0.0252349
0.0267873
0.0282285
0.0296342
0.0311282
0.0328653
0.0349941
0.000131408
0.000301792
0.000669798
0.00118828
0.00187587
0.00274424
0.00381725
0.00512413
0.00669924
0.00857966
0.0107193
0.0129456
0.0151786
0.0173886
0.019555
0.0216532
0.0236523
0.0255185
0.0272227
0.0287549
0.0301442
0.0314779
0.0329062
0.0346108
0.000128058
0.000294848
0.000633327
0.00112006
0.00176516
0.00258125
0.00358909
0.00481582
0.00629344
0.00805876
0.0101332
0.0123897
0.014698
0.0170049
0.0192855
0.0215163
0.0236678
0.0257038
0.0275846
0.0292758
0.030765
0.032087
0.0333468
0.0347118
0.000126395
0.000291522
0.000604258
0.00106529
0.00167546
0.00244902
0.00340398
0.00456563
0.00596424
0.007635
0.00961405
0.011858
0.0142151
0.0166004
0.0189775
0.0213223
0.0236071
0.0257969
0.0278496
0.0297198
0.0313696
0.0327883
0.0340225
0.0351927
0.000125192
0.00028945
0.000580327
0.00101999
0.00160132
0.00233964
0.0032508
0.00435851
0.00569148
0.00728303
0.00917091
0.0113651
0.0137428
0.0161882
0.0186464
0.021089
0.0234896
0.0258156
0.0280255
0.0300707
0.0319007
0.0334759
0.0347914
0.0359051
0.000124503
0.000287925
0.000560734
0.000982579
0.00153982
0.0022488
0.00312325
0.00418579
0.0054636
0.00698876
0.00879789
0.0109217
0.0132931
0.0157795
0.0183047
0.0208311
0.0233324
0.0257776
0.028128
0.0303351
0.0323436
0.0340979
0.0355585
0.0367273
0.000124175
0.000286872
0.000544654
0.000951564
0.00148865
0.00217296
0.00301663
0.00404098
0.00527223
0.00674086
0.00848251
0.0105337
0.0128758
0.0153846
0.017963
0.0205614
0.02315
0.0256999
0.0281747
0.030528
0.0327037
0.0346395
0.036276
0.0375804
0.000124176
0.000286104
0.000531518
0.000926064
0.00144628
0.00210986
0.00292755
0.00391974
0.00511143
0.00653213
0.00821605
0.010201
0.0124984
0.0150121
0.0176309
0.0202906
0.0229556
0.0255975
0.0281821
0.0306661
0.0329948
0.035104
0.036925
0.0384016
0.000124444
0.000285676
0.000520848
0.00090522
0.00141161
0.00205738
0.00285325
0.00381829
0.00497658
0.0063566
0.0079914
0.00991839
0.0121643
0.0146688
0.0173159
0.0200276
0.0227602
0.0254835
0.0281659
0.0307663
0.0332334
0.0355033
0.0375037
0.0391616
0.000124906
0.000285324
0.000512163
0.000888101
0.00138316
0.00201371
0.00279126
0.00373353
0.0048637
0.0062092
0.0078021
0.00967917
0.0118741
0.0143588
0.0170237
0.0197791
0.0225718
0.0253687
0.0281387
0.030844
0.0334359
0.0358534
0.0380241
0.0398706
0.000125616
0.00028505
0.000505104
0.000873915
0.00135944
0.00197731
0.00273947
0.00366266
0.00476905
0.00608544
0.00764282
0.00947708
0.0116251
0.0140831
0.0167575
0.0195493
0.0223964
0.0252604
0.0281103
0.0309107
0.0336161
0.0361685
0.0384978
0.0405244
0.000126488
0.000284866
0.000499437
0.000862048
0.00133958
0.00194668
0.00269593
0.00360296
0.0046894
0.005981
0.00750821
0.00930604
0.0114122
0.0138403
0.016517
0.0193396
0.0222361
0.0251626
0.0280867
0.0309746
0.0337839
0.0364598
0.0389348
0.0411287
0.000127507
0.000284766
0.000494988
0.000852081
0.00132273
0.00192073
0.00265897
0.00355233
0.00462171
0.00589233
0.00739372
0.00916019
0.0112298
0.0136268
0.0163006
0.0191486
0.0220907
0.025076
0.0280699
0.0310396
0.0339448
0.0367342
0.0393428
0.0416919
0.000128661
0.000284798
0.000491631
0.000843576
0.00130829
0.00189839
0.00262723
0.00350879
0.00456353
0.00581607
0.00729529
0.00903465
0.0110721
0.0134387
0.0161051
0.0189739
0.0219578
0.024999
0.0280594
0.031106
0.0341007
0.0369946
0.0397254
0.0422142
0.000129856
0.000284905
0.000489166
0.000836274
0.00129576
0.00187893
0.00259952
0.00347088
0.00451284
0.00574961
0.00720931
0.00892501
0.0109341
0.0132717
0.0159268
0.0188121
0.0218344
0.0249288
0.0280529
0.0311729
0.0342519
0.0372438
0.0400892
0.0427147
0.000131122
0.000285117
0.000487483
0.000829884
0.0012846
0.00186162
0.00257492
0.00343718
0.00446781
0.0056906
0.00713319
0.00882782
0.0108116
0.0131218
0.0157626
0.0186598
0.0217168
0.0248618
0.0280471
0.0312372
0.034396
0.0374788
0.0404274
0.0431648
0.000132395
0.000285381
0.000486347
0.000824138
0.00127454
0.00184598
0.00255268
0.00340673
0.00442721
0.00563737
0.00706447
0.00874022
0.010701
0.0129856
0.0156095
0.0185141
0.0216021
0.0247948
0.0280391
0.0312969
0.034532
0.0377012
0.0407486
0.0436015
0.000133649
0.000285686
0.000485624
0.000818895
0.00126528
0.00183156
0.00253218
0.00337873
0.00438991
0.00558855
0.00700149
0.00865995
0.0105998
0.0128602
0.0154652
0.0183727
0.0214875
0.024725
0.028026
0.0313492
0.0346579
0.0379098
0.0410502
0.0440055
0.000134875
0.00028602
0.000485221
0.000814036
0.00125661
0.00181804
0.002513
0.00335257
0.00435506
0.00554301
0.00694287
0.00858528
0.0105056
0.0127433
0.0153282
0.0182341
0.0213712
0.02465
0.0280053
0.031392
0.0347722
0.0381045
0.0413366
0.044401
0.000136044
0.000286375
0.000485014
0.000809435
0.00124836
0.00180519
0.00249481
0.00332776
0.00432207
0.00549998
0.00688752
0.00851489
0.010417
0.012633
0.0151971
0.0180972
0.0212519
0.0245682
0.0279749
0.0314226
0.0348719
0.0382815
0.0416001
0.0447596
0.000137158
0.000286749
0.000484961
0.000805053
0.00124046
0.0017929
0.00247739
0.00330401
0.00429051
0.00545885
0.0068347
0.00844785
0.0103327
0.0125282
0.0150711
0.0179617
0.0211291
0.0244787
0.0279337
0.03144
0.034956
0.0384406
0.0418435
0.0450989
0.000138215
0.00028714
0.000485021
0.000800878
0.00123288
0.00178105
0.00246058
0.00328111
0.00426013
0.00541929
0.00678394
0.00838349
0.0102519
0.0124277
0.0149494
0.0178275
0.0210029
0.0243813
0.0278811
0.0314433
0.0350237
0.0385809
0.0420661
0.045416
0.00013921
0.000287546
0.000485162
0.000796904
0.00122564
0.00176969
0.00244437
0.003259
0.0042308
0.00538112
0.00673499
0.00832148
0.010174
0.0123309
0.0148318
0.0176948
0.0208737
0.0242765
0.0278173
0.0314324
0.0350746
0.0387019
0.0422663
0.0457073
0.000140167
0.000287969
0.00048538
0.000793132
0.00121876
0.00175889
0.00242875
0.00323767
0.0042025
0.00534427
0.00668776
0.00826165
0.010099
0.0122377
0.0147179
0.0175641
0.0207424
0.0241649
0.0277429
0.0314078
0.0351095
0.0388046
0.0424459
0.0459739
0.000141084
0.000288406
0.000485654
0.000789518
0.00121217
0.00174861
0.00241372
0.00321712
0.00417521
0.00530877
0.00664226
0.00820402
0.0100268
0.0121479
0.0146079
0.017436
0.0206098
0.0240476
0.0276585
0.0313699
0.0351279
0.0388884
0.0426048
0.0462178
0.000141943
0.000288845
0.000485916
0.000786021
0.00120579
0.0017387
0.00239927
0.00319735
0.00414899
0.00527468
0.00659859
0.00814872
0.00995741
0.0120617
0.0145021
0.0173114
0.0204775
0.0239262
0.0275659
0.0313199
0.035131
0.0389534
0.0427415
0.0464415
0.000142765
0.000289293
0.000486199
0.000782679
0.00119969
0.00172921
0.00238542
0.00317841
0.00412388
0.00524204
0.0065568
0.00809585
0.00989115
0.0119793
0.0144008
0.0171911
0.0203471
0.0238029
0.0274672
0.0312599
0.0351202
0.0390004
0.0428547
0.0466294
0.000143557
0.000289744
0.000486483
0.000779491
0.00119386
0.00172014
0.0023722
0.00316035
0.00409991
0.00521091
0.00651695
0.00804547
0.00982804
0.0119009
0.0143045
0.0170759
0.0202202
0.02368
0.0273655
0.0311935
0.0350998
0.0390341
0.0429497
0.0467925
0.000144336
0.000290208
0.000486809
0.000776498
0.00118836
0.00171154
0.00235962
0.00314316
0.00407713
0.0051813
0.00647905
0.00799755
0.00976806
0.0118265
0.014213
0.0169663
0.0200978
0.0235592
0.027263
0.0311238
0.0350739
0.0390606
0.0430365
0.0469487
0.000145088
0.000290667
0.000487129
0.000773674
0.00118314
0.00170339
0.00234772
0.00312689
0.00405555
0.0051532
0.00644308
0.00795206
0.0097111
0.0117558
0.0141262
0.0168619
0.0199802
0.0234413
0.0271613
0.0310529
0.0350453
0.0390833
0.043119
0.0471009
0.000145825
0.00029113
0.000487463
0.000771034
0.00117825
0.00169573
0.00233651
0.00311153
0.00403515
0.00512665
0.00640904
0.00790896
0.00965712
0.0116887
0.0140437
0.0167624
0.019867
0.0233262
0.0270601
0.0309807
0.035014
0.0391024
0.043197
0.0472469
0.000146551
0.000291595
0.000487812
0.000768575
0.00117367
0.00168857
0.002326
0.00309713
0.00401599
0.00510169
0.00637698
0.0078683
0.00960609
0.0116253
0.0139654
0.0166676
0.019758
0.0232134
0.0269592
0.0309066
0.0349792
0.0391168
0.0432695
0.0473868
0.000147266
0.000292061
0.000488171
0.00076629
0.0011694
0.00168187
0.00231618
0.00308366
0.00399806
0.0050783
0.00634691
0.0078301
0.00955805
0.0115654
0.0138914
0.0165776
0.0196534
0.0231034
0.0268584
0.03083
0.0349394
0.0391238
0.0433326
0.0475171
0.000147975
0.000292526
0.000488539
0.000764168
0.00116542
0.00167563
0.00230702
0.00307109
0.00398134
0.00505647
0.00631882
0.00779439
0.00951309
0.0115092
0.0138219
0.0164928
0.0195539
0.0229969
0.0267587
0.0307518
0.034895
0.0391227
0.043382
0.0476232
0.000148675
0.000292986
0.000488909
0.000762197
0.00116171
0.00166981
0.00229848
0.00305939
0.00396577
0.00503615
0.00629269
0.00776114
0.00947119
0.0114569
0.013757
0.0164133
0.0194601
0.0228953
0.026662
0.0306743
0.0348489
0.0391174
0.0434238
0.0477155
0.000149365
0.000293439
0.000489271
0.000760364
0.00115825
0.00166438
0.00229053
0.0030485
0.00395129
0.00501725
0.00626837
0.00773021
0.00943222
0.0114082
0.0136965
0.0163393
0.0193723
0.0227994
0.0265699
0.0305997
0.0348044
0.0391126
0.0434661
0.0478106
0.000150053
0.000293886
0.000489636
0.000758658
0.00115503
0.00165932
0.0022831
0.00303835
0.00393781
0.00499968
0.00624578
0.0077015
0.00939606
0.011363
0.0136404
0.0162705
0.0192905
0.0227094
0.0264828
0.0305292
0.0347631
0.0391111
0.0435139
0.0479193
0.000150744
0.000294328
0.000490013
0.000757073
0.00115201
0.00165459
0.00227618
0.00302888
0.00392525
0.00498333
0.00622478
0.00767483
0.00936247
0.011321
0.0135884
0.0162065
0.0192143
0.022625
0.0264006
0.0304625
0.0347245
0.039111
0.0435603
0.0480182
0.000151421
0.000294756
0.000490366
0.000755582
0.00114918
0.00165015
0.00226967
0.00302001
0.0039135
0.00496805
0.00620519
0.00764997
0.00933121
0.011282
0.01354
0.0161471
0.0191433
0.022546
0.0263232
0.0303998
0.0346891
0.0391134
0.0436088
0.0481212
0.000152074
0.000295167
0.000490681
0.000754178
0.00114651
0.00164596
0.00226355
0.00301166
0.00390246
0.00495371
0.00618684
0.00762672
0.00930201
0.0112456
0.0134949
0.0160917
0.019077
0.0224718
0.02625
0.0303404
0.0346564
0.0391182
0.0436599
0.0482232
0.000152727
0.000295561
0.000490982
0.000752871
0.001144
0.00164201
0.00225776
0.00300377
0.00389203
0.00494019
0.00616955
0.00760487
0.00927462
0.0112115
0.0134527
0.01604
0.0190149
0.0224019
0.0261807
0.0302838
0.0346253
0.039124
0.0437126
0.0483343
0.000153401
0.000295952
0.000491328
0.000751683
0.00114165
0.00163829
0.0022523
0.00299631
0.00388215
0.00492737
0.00615317
0.00758417
0.00924872
0.0111793
0.013413
0.0159914
0.0189566
0.022336
0.0261147
0.0302295
0.0345949
0.0391287
0.043762
0.0484378
0.000154068
0.000296329
0.000491676
0.000750562
0.00113944
0.00163479
0.00224714
0.00298923
0.00387276
0.00491516
0.00613755
0.00756445
0.00922406
0.0111487
0.0133753
0.0159453
0.0189015
0.0222737
0.0260521
0.0301776
0.0345656
0.0391322
0.0438063
0.0485302
0.00015471
0.000296699
0.000492002
0.000749521
0.00113738
0.0016315
0.00224227
0.00298252
0.00386382
0.00490352
0.00612262
0.00754555
0.00920041
0.0111194
0.0133392
0.0159014
0.0188489
0.0222141
0.0259923
0.0301284
0.0345387
0.0391375
0.04385
0.0486114
0.000155341
0.000297061
0.000492324
0.000748561
0.00113545
0.00162842
0.00223769
0.0029762
0.00385534
0.00489242
0.00610834
0.00752742
0.00917765
0.0110911
0.0133044
0.0158589
0.0187981
0.0221564
0.025934
0.0300805
0.0345133
0.0391462
0.0439029
0.0487209
0.000155949
0.000297408
0.000492622
0.000747669
0.00113366
0.00162553
0.00223337
0.00297021
0.00384733
0.00488189
0.00609473
0.00751006
0.00915576
0.0110638
0.0132706
0.0158175
0.0187484
0.0220996
0.0258759
0.0300318
0.0344864
0.0391522
0.0439509
0.0488168
0.000156551
0.000297746
0.000492908
0.000746853
0.001132
0.00162285
0.00222934
0.00296461
0.0038398
0.00487196
0.00608182
0.00749351
0.00913479
0.0110375
0.0132379
0.0157772
0.0186997
0.0220433
0.0258173
0.0299812
0.0344566
0.0391548
0.0439959
0.0489127
0.000157161
0.000298081
0.000493217
0.000746119
0.00113046
0.00162035
0.00222559
0.00295938
0.00383273
0.00486259
0.00606964
0.00747784
0.00911485
0.0110123
0.0132065
0.0157383
0.0186521
0.0219876
0.0257581
0.0299284
0.0344227
0.0391521
0.0440348
0.0490024
0.00015776
0.000298402
0.000493515
0.000745446
0.00112905
0.00161804
0.00222209
0.00295452
0.00382614
0.00485386
0.00605814
0.00746304
0.00909599
0.0109885
0.0131765
0.0157009
0.0186061
0.0219332
0.0256989
0.0298736
0.0343843
0.0391421
0.0440628
0.0490737
0.000158342
0.00029872
0.000493797
0.000744831
0.00112769
0.00161585
0.00221882
0.0029499
0.00381988
0.00484561
0.00604747
0.00744919
0.00907836
0.0109661
0.0131483
0.0156656
0.0185626
0.0218809
0.0256411
0.0298183
0.0343432
0.039127
0.0440844
0.0491403
0.000158923
0.000299023
0.000494083
0.000744262
0.00112646
0.00161379
0.00221574
0.00294561
0.00381409
0.00483784
0.00603735
0.00743626
0.00906171
0.0109451
0.0131218
0.0156325
0.0185215
0.0218318
0.0255862
0.0297649
0.0343021
0.0391102
0.0441021
0.0492036
0.000159502
0.000299331
0.000494391
0.000743781
0.00112534
0.00161196
0.0022129
0.00294161
0.00380862
0.00483063
0.00602786
0.00742401
0.00904616
0.0109253
0.013097
0.0156015
0.0184834
0.0217858
0.0255349
0.029715
0.0342637
0.0390939
0.044118
0.0492599
0.000160058
0.000299624
0.000494676
0.000743327
0.00112432
0.00161025
0.00221027
0.00293785
0.00380352
0.00482382
0.00601898
0.00741253
0.0090314
0.0109067
0.0130736
0.0155724
0.0184475
0.0217429
0.0254872
0.0296689
0.034229
0.0390813
0.044136
0.0493119
0.000160613
0.00029989
0.000494937
0.000742988
0.00112346
0.00160873
0.00220787
0.00293447
0.00379882
0.00481747
0.00601055
0.0074016
0.00901751
0.010889
0.0130515
0.0155448
0.0184134
0.0217023
0.025442
0.0296257
0.0341978
0.0390733
0.0441625
0.0493857
0.000161166
0.000300171
0.000495232
0.000742664
0.00112265
0.00160736
0.00220571
0.0029313
0.00379441
0.00481152
0.00600273
0.00739134
0.00900426
0.0108722
0.0130303
0.0155185
0.0183811
0.0216633
0.0253985
0.0295835
0.034167
0.0390649
0.0441867
0.0494506
0.000161667
0.00030044
0.000495475
0.000742439
0.00112203
0.00160617
0.00220381
0.0029285
0.00379047
0.00480607
0.00599537
0.00738168
0.00899172
0.0108563
0.0130101
0.0154932
0.0183498
0.0216259
0.0253562
0.0295421
0.0341356
0.0390545
0.0442068
0.049509
0.000162216
0.000300718
0.000495809
0.000742324
0.00112154
0.00160525
0.00220222
0.00292611
0.00378694
0.00480118
0.00598871
0.00737274
0.00898009
0.0108411
0.0129909
0.015469
0.0183199
0.0215896
0.0253152
0.0295016
0.0341047
0.0390434
0.0442247
0.049562
0.00016273
0.00030098
0.000496121
0.000742244
0.00112117
0.00160448
0.0022009
0.002924
0.00378389
0.00479676
0.00598262
0.0073646
0.00896919
0.010827
0.0129727
0.0154459
0.0182909
0.0215544
0.0252752
0.0294617
0.0340743
0.0390334
0.0442451
0.0496188
0.000163234
0.000301216
0.000496396
0.000742235
0.00112092
0.00160394
0.00219983
0.0029223
0.00378129
0.00479303
0.00597729
0.00735724
0.00895934
0.0108139
0.0129556
0.0154239
0.0182632
0.0215202
0.0252356
0.0294218
0.0340433
0.0390234
0.0442689
0.0496925
0.000163746
0.000301474
0.000496722
0.000742284
0.0011208
0.00160356
0.00219906
0.00292096
0.00377917
0.00478986
0.00597277
0.00735084
0.00895053
0.0108021
0.0129399
0.0154034
0.0182367
0.0214873
0.0251967
0.0293808
0.0340092
0.0390075
0.0442822
0.0497413
0.000164202
0.000301718
0.00049697
0.000742399
0.00112082
0.00160336
0.00219855
0.00292
0.00377757
0.00478731
0.00596894
0.00734536
0.0089429
0.0107916
0.0129258
0.0153847
0.0182123
0.0214562
0.025159
0.0293402
0.0339731
0.0389867
0.0442876
0.049782
0.000164684
0.000301963
0.000497269
0.000742613
0.00112097
0.00160343
0.00219836
0.00291946
0.00377644
0.00478544
0.00596601
0.00734094
0.00893659
0.0107827
0.0129137
0.0153683
0.0181906
0.0214279
0.0251244
0.0293018
0.0339381
0.0389649
0.0442905
0.0498202
0.00016516
0.000302193
0.000497564
0.00074288
0.00112127
0.00160367
0.00219847
0.00291924
0.00377581
0.00478408
0.00596374
0.0073375
0.00893135
0.0107753
0.0129032
0.0153541
0.0181715
0.0214032
0.0250935
0.0292673
0.0339061
0.0389454
0.0442941
0.0498602
0.000165653
0.000302435
0.000497905
0.000743265
0.00112173
0.00160418
0.00219886
0.00291944
0.00377564
0.00478343
0.00596227
0.00733493
0.00892741
0.0107693
0.0128948
0.0153423
0.0181556
0.0213819
0.0250669
0.0292374
0.0338786
0.0389284
0.0442972
0.0498929
0.00016614
0.000302683
0.000498255
0.0007437
0.00112233
0.00160488
0.00219958
0.00292002
0.00377599
0.00478336
0.00596161
0.00733332
0.00892448
0.0107648
0.012888
0.0153326
0.0181421
0.0213641
0.0250447
0.0292127
0.0338566
0.0389162
0.0443017
0.0499186
0.00016658
0.000302889
0.000498533
0.000744264
0.00112316
0.00160587
0.00220064
0.00292112
0.00377693
0.00478398
0.00596162
0.00733258
0.00892269
0.0107615
0.0128828
0.0153249
0.0181311
0.0213494
0.0250263
0.0291933
0.0338415
0.0389128
0.0443148
0.0499406
0.000167042
0.000303117
0.000498866
0.000744934
0.00112412
0.00160711
0.00220209
0.00292263
0.00377838
0.00478527
0.00596261
0.00733287
0.00892209
0.0107596
0.0128791
0.0153189
0.0181222
0.021337
0.0250111
0.0291777
0.0338323
0.0389201
0.0443517
0.0500292
0.000167509
0.000303331
0.00049922
0.000745712
0.00112532
0.00160864
0.00220394
0.00292468
0.00378056
0.00478732
0.00596442
0.0073343
0.00892263
0.010759
0.0128768
0.0153145
0.018115
0.0213267
0.0249976
0.0291637
0.0338239
0.0389273
0.044386
0.0501035
0.00016798
0.000303556
0.000499614
0.000746642
0.00112674
0.00161054
0.00220622
0.00292732
0.00378337
0.00479027
0.00596725
0.00733681
0.00892462
0.0107599
0.0128764
0.015312
0.01811
0.0213183
0.0249862
0.0291511
0.0338158
0.0389316
0.0444113
0.0501539
0.000168436
0.000303768
0.000500012
0.000747674
0.0011284
0.00161273
0.00220895
0.00293047
0.00378695
0.00479406
0.0059712
0.00734067
0.008928
0.0107627
0.0128778
0.0153117
0.0181072
0.0213124
0.0249771
0.0291408
0.0338097
0.0389387
0.0444419
0.0502187
0.000168895
0.000303957
0.00050041
0.00074886
0.00113025
0.00161527
0.00221212
0.00293425
0.00379123
0.00479882
0.00597621
0.00734577
0.00893303
0.0107671
0.0128815
0.0153137
0.0181069
0.0213094
0.0249709
0.0291332
0.0338058
0.0389472
0.044473
0.0502847
0.000169357
0.000304162