/*--------------------------------*- C++ -*----------------------------------*\
| =========                 |                                                 |
| \\      /  F ield         | OpenFOAM: The Open Source CFD Toolbox           |
|  \\    /   O peration     | Version:  2.3.0                                 |
|   \\  /    A nd           | Web:      www.OpenFOAM.org                      |
|    \\/     M anipulation  |                                                 |
\*---------------------------------------------------------------------------*/
FoamFile
{
    version     2.0;
    format      ascii;
    class       volVectorField;
    location    "7000";
    object      U;
}
// * * * * * * * * * * * * * * * * * * * * * * * * * * * * * * * * * * * * * //

dimensions      [0 1 -1 0 0 0 0];

internalField   nonuniform List<vector> 
14769
(
(21.728 9.553 4.14507e-21)
(21.5629 9.93588 -4.92482e-20)
(21.3939 10.3265 0)
(21.2152 10.7279 0)
(21.0256 11.1413 1.97802e-20)
(20.823 11.5652 -2.10823e-20)
(20.6037 11.9964 5.40802e-20)
(20.3618 12.4295 -1.54619e-20)
(20.0898 12.8578 -7.39295e-20)
(19.7778 13.2738 6.07263e-20)
(19.4147 13.6709 -9.77009e-20)
(18.9886 14.0441 2.67725e-20)
(18.4879 14.3906 4.5879e-20)
(17.9014 14.7091 -3.14402e-20)
(17.2189 15.0011 0)
(16.431 15.2692 0)
(15.5296 15.5165 2.54526e-20)
(14.5088 15.7485 2.40803e-19)
(13.3627 15.9641 1.77701e-19)
(12.0837 16.1517 -3.80868e-19)
(10.6686 16.2926 0)
(9.15084 16.4288 0)
(7.59662 16.6581 5.55674e-19)
(5.9976 16.7758 -5.25444e-19)
(21.3761 9.41152 -6.70902e-20)
(21.1963 9.73279 5.36796e-20)
(21.0092 10.0566 0)
(20.8082 10.3822 -2.37615e-19)
(20.5914 10.7113 8.92543e-20)
(20.3567 11.0446 2.29956e-19)
(20.1025 11.3824 -2.10357e-19)
(19.8267 11.7248 -2.70486e-19)
(19.5274 12.071 2.74185e-19)
(19.2024 12.4194 -5.4175e-20)
(18.8488 12.7669 -8.03046e-20)
(18.4643 13.1091 4.917e-19)
(18.0465 13.4402 -4.89418e-19)
(17.5931 13.7529 -6.19099e-19)
(17.1024 14.0386 6.7687e-19)
(16.5734 14.2875 -8.72232e-19)
(16.0063 14.4887 8.82479e-19)
(15.4025 14.6302 -1.22205e-18)
(14.7649 14.6994 1.20736e-18)
(14.0987 14.6824 4.86086e-20)
(13.4139 14.5643 0)
(12.7256 14.3334 -6.14084e-20)
(12.0438 13.982 6.80228e-20)
(11.3622 13.507 -2.80837e-20)
(21.0768 9.25244 -1.81067e-19)
(20.8925 9.52227 8.14714e-20)
(20.6996 9.79281 9.00257e-20)
(20.4946 10.061 6.25402e-20)
(20.2759 10.3275 4.29794e-19)
(20.042 10.5914 -4.1965e-19)
(19.791 10.8519 3.67103e-19)
(19.5211 11.1076 3.75485e-20)
(19.2301 11.3571 -5.40954e-19)
(18.9161 11.5989 5.32787e-20)
(18.577 11.8308 5.94264e-20)
(18.211 12.0501 -3.33486e-20)
(17.8168 12.2536 3.76487e-20)
(17.3934 12.4377 0)
(16.9408 12.5981 9.53199e-19)
(16.46 12.7298 -9.49007e-19)
(15.9531 12.8276 6.58979e-19)
(15.4239 12.8859 -1.23483e-18)
(14.8777 12.8989 6.5242e-19)
(14.3221 12.8611 5.50986e-20)
(13.767 12.7683 -8.69738e-19)
(13.2251 12.6171 1.93745e-18)
(12.7103 12.4065 -1.01043e-18)
(12.2382 12.1359 -1.10236e-18)
(20.8352 9.09052 1.09109e-19)
(20.6508 9.31395 -2.01329e-19)
(20.4595 9.53753 3.27466e-19)
(20.2587 9.75878 1.48399e-20)
(20.0468 9.97694 -2.97897e-19)
(19.8226 10.1913 3.22334e-19)
(19.5852 10.4008 -2.06157e-19)
(19.3335 10.6044 0)
(19.0664 10.8008 4.06681e-19)
(18.783 10.9882 -7.0198e-19)
(18.4824 11.1649 3.67055e-19)
(18.1639 11.3282 0)
(17.8269 11.4755 0)
(17.4714 11.6036 5.23955e-19)
(17.0976 11.7089 -5.92076e-19)
(16.7066 11.7877 0)
(16.3002 11.8359 -7.62954e-20)
(15.8812 11.8494 0)
(15.4534 11.8246 -1.01111e-19)
(15.0222 11.7581 -1.01189e-18)
(14.5939 11.6479 1.0344e-18)
(14.1759 11.4931 -6.06891e-20)
(13.7766 11.295 1.35025e-19)
(13.4042 11.0572 0)
(20.6322 8.91642 2.02569e-20)
(20.4544 9.10939 0)
(20.2702 9.29638 4.04537e-19)
(20.0779 9.48005 -3.39229e-19)
(19.8764 9.65972 1.44405e-19)
(19.6647 9.83473 0)
(19.4417 10.0043 3.39598e-19)
(19.2065 10.1674 -3.40236e-19)
(18.9584 10.3231 9.92449e-20)
(18.6963 10.4698 0)
(18.4198 10.6061 0)
(18.1283 10.73 -3.62647e-19)
(17.8218 10.8395 4.89812e-19)
(17.5005 10.9322 0)
(17.1649 11.0053 6.93968e-19)
(16.8164 11.0559 -6.25181e-19)
(16.4568 11.0811 -7.27425e-19)
(16.0886 11.0779 7.37174e-19)
(15.7154 11.0436 9.5628e-19)
(15.3414 10.9759 -9.76858e-19)
(14.9717 10.8736 8.69302e-19)
(14.6121 10.7365 -9.97675e-19)
(14.2685 10.5657 -1.52893e-21)
(13.9468 10.3639 1.44742e-19)
(20.4615 8.75756 -1.36355e-19)
(20.2949 8.91902 0)
(20.1211 9.0757 -1.39943e-19)
(19.9397 9.22926 3.97089e-19)
(19.7506 9.37902 -7.41919e-19)
(19.553 9.52431 3.40726e-19)
(19.3459 9.66446 0)
(19.1288 9.79855 4.04795e-19)
(18.9009 9.92563 -5.05927e-19)
(18.6615 10.0444 0)
(18.4101 10.1536 0)
(18.1464 10.2515 -1.23074e-19)
(17.8702 10.3362 0)
(17.5818 10.4059 -4.6069e-19)
(17.2818 10.4583 -1.17375e-19)
(16.9712 10.491 -1.30253e-19)
(16.6518 10.5018 1.58643e-18)
(16.3257 10.4881 -8.81836e-19)
(15.9957 10.4479 -1.08861e-19)
(15.6651 10.3795 4.77273e-19)
(15.3381 10.2819 -9.97132e-19)
(15.019 10.1551 5.17597e-19)
(14.7125 9.9999 2.96383e-19)
(14.423 9.81842 -7.30015e-19)
(20.3221 8.60868 2.21691e-19)
(20.1659 8.74355 -8.29628e-20)
(20.0032 8.87595 -1.70436e-19)
(19.833 9.0054 -8.38117e-21)
(19.6561 9.13164 2.72765e-19)
(19.4715 9.2539 9.90776e-20)
(19.2786 9.37159 -4.13753e-19)
(19.0767 9.48395 4.14689e-19)
(18.8651 9.59009 0)
(18.6437 9.68887 -1.22456e-19)
(18.4116 9.779 1.30002e-19)
(18.1686 9.85909 6.9638e-19)
(17.9145 9.92739 -5.64729e-19)
(17.6495 9.98223 -1.5264e-19)
(17.3742 10.0217 1.69025e-19)
(17.0896 10.0439 8.84996e-20)
(16.7974 10.0467 3.98095e-19)
(16.4995 10.0281 1.2544e-19)
(16.1983 9.98604 -3.21711e-19)
(15.8965 9.91946 -5.64092e-22)
(15.598 9.82731 -1.268e-19)
(15.3061 9.70938 0)
(15.0248 9.56642 1.43032e-19)
(14.7576 9.39987 0)
(20.2094 8.47237 1.36104e-21)
(20.0624 8.58406 2.60808e-19)
(19.9103 8.69679 -8.34629e-20)
(19.7507 8.8069 -9.69152e-20)
(19.5852 8.91459 -9.49808e-20)
(19.4126 9.01887 -9.94633e-20)
(19.2324 9.11935 0)
(19.0437 9.21514 3.4674e-19)
(18.846 9.30579 -2.32457e-19)
(18.6395 9.38992 1.23056e-19)
(18.4236 9.46628 4.79692e-21)
(18.1982 9.53345 -1.39211e-19)
(17.963 9.58984 1.52831e-19)
(17.7177 9.63407 -1.62823e-19)
(17.4624 9.66451 -1.70207e-19)
(17.198 9.67962 0)
(16.9265 9.67758 3.07058e-19)
(16.6503 9.65597 -1.99659e-19)
(16.3712 9.61282 4.62496e-19)
(16.0906 9.54798 -5.90214e-19)
(15.8128 9.4604 1.27893e-19)
(15.5407 9.34945 5.5488e-19)
(15.278 9.21571 -5.60477e-19)
(15.0277 9.06031 1.56995e-19)
(20.1146 8.34499 -1.85834e-19)
(19.9764 8.43844 1.88152e-19)
(19.8356 8.53624 2.02232e-19)
(19.6863 8.63099 1.05089e-19)
(19.5313 8.72406 -4.14998e-19)
(19.3693 8.8141 4.319e-19)
(19.2001 8.90115 -3.35123e-19)
(19.0235 8.98344 -4.76218e-19)
(18.837 9.06179 2.42235e-19)
(18.6428 9.13516 1.3592e-19)
(18.4392 9.20222 -2.67201e-19)
(18.2274 9.26126 -1.46304e-19)
(18.0081 9.30945 -1.53195e-19)
(17.7786 9.3458 3.2941e-19)
(17.5397 9.3686 3.59798e-19)
(17.2909 9.37823 -3.6535e-19)
(17.035 9.37369 2.00225e-19)
(16.7742 9.35198 -2.11973e-19)
(16.5133 9.30752 2.27436e-19)
(16.2478 9.24375 2.40739e-19)
(15.9857 9.15976 2.61378e-19)
(15.7282 9.05456 -2.64446e-19)
(15.4794 8.92838 0)
(15.2418 8.78189 1.4974e-19)
(20.0213 8.23115 -2.87488e-22)
(19.8965 8.3091 -2.07195e-19)
(19.7734 8.39516 1.07663e-19)
(19.6356 8.47626 -1.05756e-19)
(19.4909 8.55717 2.25139e-19)
(19.3392 8.63485 -2.24661e-19)
(19.1788 8.71243 1.17146e-19)
(19.0172 8.78319 -1.31053e-19)
(18.8435 8.84935 2.58107e-19)
(18.6639 8.9116 -1.43581e-19)
(18.4746 8.96955 1.3665e-19)
(18.2718 9.0251 2.92586e-19)
(18.0582 9.07112 0)
(17.8331 9.10549 -1.67916e-19)
(17.6064 9.12239 1.81366e-19)
(17.3708 9.12526 -3.96634e-19)
(17.1287 9.11648 1.98089e-19)
(16.8805 9.0991 2.1767e-19)
(16.6311 9.05607 1.10048e-20)
(16.3721 8.99285 -2.36056e-19)
(16.1238 8.91088 0)
(15.8786 8.80967 -7.04812e-21)
(15.6397 8.68985 2.81586e-19)
(15.4078 8.5511 3.06177e-19)
(4.36338 15.9566 -4.10578e-20)
(4.26704 14.5455 -8.60428e-20)
(4.47086 13.2881 0)
(4.77989 12.1943 0)
(5.13662 11.2262 1.06109e-18)
(5.51758 10.3507 -5.04858e-19)
(5.92449 9.56091 -6.86789e-19)
(6.35089 8.8449 -1.43561e-19)
(6.78915 8.19449 1.17311e-19)
(7.23157 7.60284 -5.74636e-19)
(7.67141 7.0641 -4.16394e-20)
(8.1034 6.57342 0)
(8.52354 6.12649 -2.85128e-19)
(8.92922 5.71905 4.18765e-20)
(9.31918 5.34726 1.10586e-18)
(9.69327 5.00718 -1.07731e-18)
(10.0522 4.69498 5.35649e-19)
(10.3973 4.40682 -1.07712e-18)
(10.7301 4.13901 -9.98664e-19)
(11.0523 3.88828 -1.00358e-18)
(11.3656 3.6518 9.2932e-19)
(11.6712 3.42784 0)
(11.9708 3.2154 -1.67357e-18)
(12.2645 3.0083 1.54833e-18)
(10.6923 12.9255 0)
(10.1648 12.2615 -9.07089e-20)
(9.78784 11.5807 0)
(9.53568 10.911 9.40175e-19)
(9.38292 10.2652 -5.72464e-19)
(9.30918 9.64923 -8.8326e-19)
(9.29893 9.06686 8.66166e-19)
(9.34038 8.51991 1.27334e-19)
(9.42418 8.00907 -2.58042e-19)
(9.54231 7.53371 -2.61049e-19)
(9.688 7.09237 5.20586e-19)
(9.8558 6.68277 0)
(10.041 6.3022 -2.5905e-19)
(10.2397 5.94756 0)
(10.4489 5.61582 0)
(10.666 5.30406 2.23686e-20)
(10.889 5.00958 4.77807e-19)
(11.1161 4.73018 0)
(11.346 4.46403 3.37935e-20)
(11.5774 4.20984 2.30162e-19)
(11.8095 3.9667 -1.13547e-18)
(12.0418 3.73458 0)
(12.2742 3.51262 2.54882e-20)
(12.5036 3.29118 -6.18031e-21)
(11.8204 11.8058 1.03499e-18)
(11.4644 11.4169 8.74116e-20)
(11.1713 10.9825 0)
(10.941 10.5203 0)
(10.7701 10.0448 1.04296e-19)
(10.6537 9.56648 -3.0871e-19)
(10.5865 9.09313 -2.24014e-19)
(10.5629 8.63033 2.08027e-19)
(10.5774 8.18218 0)
(10.6247 7.75114 0)
(10.6996 7.33895 0)
(10.7975 6.94623 0)
(10.9143 6.57315 4.48757e-19)
(11.0462 6.21924 -1.339e-18)
(11.1902 5.88393 4.48915e-19)
(11.3438 5.56624 4.62148e-19)
(11.5049 5.26513 -4.58887e-19)
(11.6717 4.97948 -2.21989e-19)
(11.8432 4.70815 1.118e-18)
(12.0184 4.44991 -8.54934e-19)
(12.1967 4.20376 0)
(12.3777 3.96926 -8.23465e-19)
(12.5614 3.74449 8.00109e-19)
(12.7453 3.51666 1.48785e-18)
(13.0629 10.7831 -5.59746e-19)
(12.7539 10.4743 1.47551e-18)
(12.4809 10.1353 -1.389e-18)
(12.2473 9.77462 1.08457e-18)
(12.0543 9.40034 -5.56339e-19)
(11.9012 9.01922 -1.90105e-19)
(11.786 8.63708 1.00317e-19)
(11.706 8.25847 -1.04887e-19)
(11.6582 7.88703 -9.75262e-20)
(11.6392 7.52523 -1.03663e-19)
(11.6458 7.17496 0)
(11.6748 6.83726 0)
(11.7232 6.51274 0)
(11.7885 6.20147 4.3104e-19)
(11.8683 5.90325 0)
(11.9605 5.61761 0)
(12.0635 5.34396 -6.26409e-19)
(12.1756 5.08163 1.0532e-19)
(12.2956 4.8299 1.17469e-19)
(12.4222 4.58805 9.26967e-19)
(12.5546 4.35555 -1.01835e-19)
(12.6922 4.13242 -1.18303e-18)
(12.8346 3.91734 1.15194e-18)
(12.98 3.69808 7.26325e-19)
(13.6496 10.1338 1.52542e-19)
(13.3773 9.87591 -4.45898e-21)
(13.1323 9.59303 0)
(12.9177 9.29086 5.32572e-19)
(12.7348 8.97518 -7.21257e-19)
(12.584 8.65114 5.60789e-19)
(12.4644 8.32338 -2.85572e-19)
(12.3743 7.99581 9.61667e-20)
(12.3116 7.67157 4.95158e-19)
(12.2738 7.35301 1.01447e-19)
(12.2582 7.04199 -1.98646e-19)
(12.2625 6.73979 -3.95982e-19)
(12.284 6.44727 -5.99011e-19)
(12.3209 6.16486 3.96358e-19)
(12.371 5.89261 2.01141e-19)
(12.4327 5.63047 0)
(12.5044 5.37815 8.05745e-19)
(12.5848 5.13526 1.00291e-19)
(12.6727 4.90135 -9.98071e-20)
(12.7672 4.67587 0)
(12.8674 4.45842 3.87179e-19)
(12.9729 4.24924 7.77862e-19)
(13.0836 4.04716 -7.59263e-19)
(13.1979 3.83994 -7.22029e-19)
(14.1526 9.61283 4.81575e-19)
(13.902 9.38412 -8.06011e-19)
(13.6736 9.13479 0)
(13.4699 8.86916 -3.22534e-21)
(13.2924 8.59175 1.83232e-19)
(13.1418 8.30669 1.87807e-19)
(13.018 8.01765 -1.82161e-19)
(12.9199 7.72779 -3.01479e-21)
(12.8457 7.43984 -1.92456e-19)
(12.7935 7.15571 2.89381e-19)
(12.7611 6.87713 -2.8567e-19)
(12.7462 6.6055 3.90795e-19)
(12.7472 6.34171 5.90001e-19)
(12.7622 6.08617 -5.91067e-19)
(12.7897 5.839 1.94356e-19)
(12.8281 5.60024 0)
(12.876 5.36981 -5.87285e-19)
(12.9324 5.14738 2.90168e-19)
(12.9961 4.93259 2.90995e-19)
(13.0663 4.72491 -5.98345e-21)
(13.142 4.52407 -5.72678e-19)
(13.2226 4.33058 1.87271e-19)
(13.3085 4.14333 0)
(13.3978 3.94997 6.89403e-19)
(14.5067 9.21154 0)
(14.2728 9.00262 -1.63128e-19)
(14.0578 8.77574 0)
(13.864 8.53469 -1.7717e-19)
(13.6929 8.28338 0)
(13.5458 8.02544 9.27528e-20)
(13.4229 7.76366 9.62078e-20)
(13.3231 7.50079 0)
(13.2452 7.23909 3.75017e-19)
(13.1871 6.98023 2.79787e-19)
(13.1465 6.72577 6.68023e-19)
(13.1214 6.47746 -7.62714e-19)
(13.1108 6.23608 1.91022e-19)
(13.1131 6.00191 -3.7481e-19)
(13.1269 5.77503 -1.88939e-19)
(13.1505 5.5557 -3.74344e-19)
(13.1829 5.34393 -9.43478e-20)
(13.2231 5.13946 4.65958e-19)
(13.2702 4.94187 -3.7782e-19)
(13.3232 4.75055 -3.6894e-19)
(13.3808 4.56529 0)
(13.4425 4.38716 0)
(13.5096 4.21489 0)
(13.5782 4.03888 -3.37976e-19)
(14.792 8.88473 -1.44902e-19)
(14.5711 8.68996 -1.56822e-19)
(14.3658 8.4789 0)
(14.1792 8.2555 0)
(14.0122 8.0235 3.53571e-19)
(13.8678 7.7859 9.15293e-20)
(13.7463 7.54453 -4.441e-20)
(13.6462 7.30208 -4.43524e-20)
(13.5667 7.06053 -5.46719e-20)
(13.5055 6.8211 1.33707e-19)
(13.4595 6.58543 -1.93152e-19)
(13.427 6.35587 4.69282e-19)
(13.4085 6.13291 0)
(13.4022 5.91631 6.57561e-21)
(13.4064 5.70623 -3.66959e-19)
(13.4192 5.50348 7.37855e-19)
(13.4405 5.30794 9.20434e-20)
(13.4689 5.11934 -4.60901e-19)
(13.5041 4.93719 -5.70631e-21)
(13.5446 4.76058 3.71862e-19)
(13.5886 4.58937 -1.8048e-19)
(13.6355 4.42564 1.78898e-19)
(13.6897 4.26693 -2.58754e-21)
(13.7454 4.10684 6.75423e-19)
(15.0177 8.61653 1.56401e-19)
(14.8073 8.43305 -3.28922e-19)
(14.6101 8.23218 6.61948e-19)
(14.43 8.02255 3.41916e-19)
(14.2659 7.80487 -2.63548e-19)
(14.1243 7.58323 2.65516e-19)
(14.0052 7.35731 0)
(13.905 7.13075 3.60097e-19)
(13.8256 6.90466 -3.67111e-19)
(13.764 6.68075 -3.2214e-19)
(13.7147 6.45955 -4.1366e-19)
(13.6762 6.24518 0)
(13.6533 6.03734 3.61218e-19)
(13.6414 5.83489 3.65713e-19)
(13.6393 5.63845 7.23264e-19)
(13.6437 5.44962 -3.63094e-19)
(13.6575 5.26817 -3.56263e-19)
(13.6772 5.09321 0)
(13.7042 4.92473 0)
(13.7362 4.76103 0)
(13.7706 4.60253 0)
(13.8048 4.45223 0)
(13.8498 4.30558 -4.3342e-21)
(13.893 4.15858 6.85195e-19)
(15.1879 8.39472 -3.08494e-19)
(14.9901 8.22644 1.64129e-19)
(14.7998 8.02987 -4.99935e-19)
(14.6281 7.83403 -3.513e-19)
(14.4692 7.62381 0)
(14.3331 7.41246 -3.57126e-19)
(14.2178 7.19615 3.4889e-19)
(14.1158 6.9839 -3.42172e-19)
(14.0378 6.77188 3.35972e-19)
(13.9789 6.56366 0)
(13.9278 6.35229 3.50131e-19)
(13.8841 6.14948 8.99334e-20)
(13.8618 5.9536 -4.55245e-19)
(13.8467 5.76122 0)
(13.841 5.57598 -4.39486e-21)
(13.8376 5.39841 8.9238e-20)
(13.8477 5.22948 6.27055e-19)
(13.8605 5.0651 0)
(13.8829 4.9089 2.80866e-21)
(13.91 4.75631 -2.76285e-21)
(13.9389 4.61079 0)
(13.9589 4.47165 0)
(13.9933 4.33042 -3.46915e-19)
(14.0297 4.18705 -3.55333e-21)
(-4.58741 -2.524 1.83906e-21)
(-4.37178 -2.53831 4.19022e-19)
(-4.11091 -2.5545 0)
(-3.81373 -2.56939 -2.35291e-19)
(-3.48789 -2.58242 0)
(-3.13999 -2.59326 6.62469e-20)
(-2.77565 -2.60153 6.85828e-20)
(-2.39962 -2.60684 -2.87915e-19)
(-2.01578 -2.60887 2.72607e-24)
(-1.62723 -2.60728 4.71979e-19)
(-1.23628 -2.60176 -1.74461e-19)
(-0.844607 -2.59189 8.65341e-20)
(-0.453002 -2.57683 -1.82845e-19)
(-0.0614087 -2.55535 8.99992e-20)
(0.331406 -2.52567 0)
(0.728781 -2.48543 1.08128e-19)
(1.13734 -2.43148 0)
(1.56998 -2.35996 -2.52474e-19)
(2.0515 -2.26658 1.43508e-19)
(2.62982 -2.14706 3.49612e-20)
(3.39314 -2.0012 -5.12991e-19)
(4.51765 -1.83696 2.04241e-18)
(6.38675 -1.69249 -3.16277e-18)
(9.88925 -1.84912 1.86605e-18)
(-4.55116 -2.5086 -5.31064e-22)
(-4.34084 -2.51259 4.09771e-19)
(-4.09373 -2.51888 1.07782e-19)
(-3.81522 -2.52394 1.13653e-19)
(-3.51059 -2.52751 3.72184e-21)
(-3.18412 -2.52938 2.42681e-19)
(-2.83936 -2.52912 -1.27641e-19)
(-2.47905 -2.52617 4.18143e-22)
(-2.10515 -2.51979 1.35234e-19)
(-1.71875 -2.50904 1.3983e-19)
(-1.31997 -2.49274 -1.82364e-22)
(-0.907893 -2.46948 3.94989e-22)
(-0.479777 -2.43751 0)
(-0.0312809 -2.39471 -8.01483e-20)
(0.444208 -2.33861 8.36091e-20)
(0.957065 -2.2663 -8.63999e-20)
(1.52301 -2.17488 -8.8213e-20)
(2.16702 -2.06196 4.63663e-20)
(2.92926 -1.92704 -1.84031e-19)
(3.87395 -1.77485 1.53032e-19)
(5.10313 -1.62188 -4.41568e-19)
(6.77546 -1.51174 4.83804e-20)
(9.12369 -1.53815 4.11742e-19)
(12.4172 -1.87788 6.2466e-19)
(-4.49102 -2.46145 0)
(-4.28008 -2.45383 0)
(-4.03662 -2.45032 -4.15839e-19)
(-3.76398 -2.44489 0)
(-3.46584 -2.43727 0)
(-3.14502 -2.42708 -2.88887e-19)
(-2.80352 -2.41362 5.91954e-20)
(-2.44259 -2.39603 0)
(-2.06266 -2.37331 1.25033e-19)
(-1.66325 -2.34433 7.85235e-23)
(-1.24272 -2.30772 -1.31482e-19)
(-0.79814 -2.262 -2.00849e-19)
(-0.32508 -2.20562 6.9147e-20)
(0.183283 -2.13694 -2.80939e-19)
(0.736628 -2.0544 7.23425e-20)
(1.34904 -1.95658 0)
(2.04074 -1.84288 1.49262e-19)
(2.8407 -1.71432 0)
(3.79042 -1.57569 1.91416e-19)
(4.94914 -1.43915 -1.2275e-19)
(6.39723 -1.33052 0)
(8.23763 -1.29816 0)
(10.5816 -1.42432 2.61728e-19)
(13.4827 -1.82522 -7.16693e-19)
(-4.41451 -2.39002 3.618e-19)
(-4.20251 -2.36931 -9.3846e-20)
(-3.96244 -2.35426 2.97268e-19)
(-3.69526 -2.33646 0)
(-3.40315 -2.31582 0)
(-3.08737 -2.29206 1.06714e-19)
(-2.74858 -2.26453 -1.08964e-19)
(-2.3868 -2.23239 -5.62014e-20)
(-2.00117 -2.19467 5.83649e-20)
(-1.59002 -2.15043 -2.3281e-19)
(-1.15051 -2.09862 -1.19386e-19)
(-0.678369 -2.038 2.46554e-19)
(-0.167648 -1.96736 1.24761e-19)
(0.389834 -1.88557 6.43141e-20)
(1.00523 -1.79194 -9.59228e-20)
(1.69365 -1.68654 3.33913e-20)
(2.47621 -1.5706 -1.34639e-19)
(3.38135 -1.44796 -6.66893e-20)
(4.44691 -1.32699 2.05309e-19)
(5.72286 -1.22335 -1.44923e-19)
(7.27122 -1.16456 0)
(9.1618 -1.19491 0)
(11.4552 -1.37915 0)
(14.1639 -1.79479 1.68168e-19)
(-4.32214 -2.30468 -1.72101e-19)
(-4.10969 -2.27355 1.81451e-19)
(-3.87196 -2.24829 -1.89602e-19)
(-3.60864 -2.21995 0)
(-3.3207 -2.18861 0)
(-3.00823 -2.15411 -1.01758e-19)
(-2.67069 -2.11579 2.06225e-21)
(-2.30723 -2.07279 5.24708e-20)
(-1.91625 -2.02431 -5.11594e-20)
(-1.49526 -1.96957 2.18089e-19)
(-1.04051 -1.90783 5.56981e-20)
(-0.546878 -1.83823 -1.13446e-19)
(-0.00756824 -1.75991 -1.17545e-19)
(0.586327 -1.67222 0)
(1.2465 -1.57512 6.13762e-20)
(1.9883 -1.46965 0)
(2.83229 -1.35859 3.31292e-20)
(3.80533 -1.24749 3.25701e-20)
(4.94159 -1.14638 0)
(6.28414 -1.0721 1.23138e-19)
(7.88309 -1.05129 -1.9126e-19)
(9.79118 -1.12321 -9.50224e-20)
(12.0489 -1.34053 2.45329e-19)
(14.6567 -1.76127 -2.28269e-19)
(-4.21855 -2.21229 1.61886e-19)
(-4.00693 -2.17476 8.73176e-20)
(-3.772 -2.1411 -4.39419e-20)
(-3.51276 -2.1043 4.49522e-20)
(-3.22917 -2.06462 1.4642e-21)
(-2.92045 -2.02206 -2.53355e-20)
(-2.58491 -1.97601 1.22121e-19)
(-2.22098 -1.92542 9.76028e-20)
(-1.82659 -1.8695 2.01631e-19)
(-1.39891 -1.80776 -1.0434e-19)
(-0.933636 -1.73989 1.04322e-19)
(-0.424684 -1.66541 5.67221e-20)
(0.135536 -1.58373 -5.55447e-20)
(0.756323 -1.49443 0)
(1.44952 -1.39779 1.41895e-20)
(2.23023 -1.2954 4.29091e-20)
(3.11785 -1.19089 2.95703e-20)
(4.13756 -1.09074 3.0917e-20)
(5.32089 -1.00594 1.18485e-19)
(6.70613 -0.953797 -3.51059e-21)
(8.3365 -0.959651 -6.08404e-20)
(10.2549 -1.05867 1.04523e-19)
(12.4917 -1.29624 -6.24827e-20)
(15.039 -1.72015 2.12445e-19)
(-4.10873 -2.1178 -2.42492e-19)
(-3.89874 -2.07731 -8.26904e-20)
(-3.66721 -2.0374 4.27722e-20)
(-3.41243 -1.99453 -1.31155e-19)
(-3.13366 -1.94876 0)
(-2.82954 -1.9004 0)
(-2.49682 -1.84917 -2.30338e-20)
(-2.13356 -1.79358 -1.64163e-19)
(-1.73734 -1.73281 -9.70697e-20)
(-1.30527 -1.66625 0)
(-0.833135 -1.59419 -1.51263e-19)
(-0.314084 -1.517 5.28207e-20)
(0.2608 -1.43439 0)
(0.90118 -1.3459 0)
(1.61925 -1.25173 0)
(2.42928 -1.15351 -1.67444e-19)
(3.34952 -1.05547 -1.14048e-19)
(4.40352 -0.964607 -2.79882e-20)
(5.62023 -0.892071 -8.61933e-20)
(7.03386 -0.855867 -5.86999e-20)
(8.68528 -0.880591 0)
(10.6109 -0.997884 0)
(12.8341 -1.24821 -9.06274e-20)
(15.3402 -1.67321 9.7264e-20)
(-3.99499 -2.02877 -7.79189e-20)
(-3.78877 -1.9834 7.94762e-20)
(-3.56166 -1.93976 0)
(-3.31175 -1.89296 9.24973e-20)
(-3.03801 -1.84288 -1.18505e-20)
(-2.73973 -1.79012 1.33992e-21)
(-2.41077 -1.73558 0)
(-2.049 -1.677 2.45981e-20)
(-1.65176 -1.6134 -1.13312e-19)
(-1.21673 -1.54355 9.27343e-20)
(-0.740592 -1.46809 2.4551e-21)
(-0.215788 -1.38891 0)
(0.368749 -1.30651 2.50327e-20)
(1.02333 -1.22006 -2.59756e-20)
(1.76064 -1.12956 0)
(2.59356 -1.03591 1.08814e-19)
(3.53933 -0.943876 5.52839e-20)
(4.62058 -0.86062 1.08925e-19)
(5.86491 -0.796747 -5.34591e-20)
(7.29972 -0.771676 0)
(8.97075 -0.811252 1.04564e-19)
(10.9065 -0.942534 -4.22753e-20)
(13.1265 -1.2018 5.2807e-20)
(15.6069 -1.62759 3.99216e-20)
(-3.88486 -1.94605 0)
(-3.68079 -1.89667 0)
(-3.45846 -1.84992 -7.72171e-20)
(-3.21292 -1.80063 8.64447e-21)
(-2.94373 -1.7482 7.02812e-20)
(-2.6525 -1.69147 0)
(-2.32894 -1.6346 8.22989e-20)
(-1.96994 -1.57416 6.51082e-20)
(-1.57143 -1.5094 8.85927e-20)
(-1.13212 -1.4379 -6.84305e-20)
(-0.652409 -1.35981 2.08079e-19)
(-0.12665 -1.27852 -2.66296e-22)
(0.461598 -1.19621 -4.80445e-20)
(1.12532 -1.11154 1.25936e-20)
(1.87871 -1.02499 1.26824e-20)
(2.73211 -0.935596 0)
(3.69939 -0.849612 0)
(4.80067 -0.775851 -1.0648e-19)
(6.05888 -0.719379 8.15629e-20)
(7.4926 -0.702683 1.23654e-19)
(9.169 -0.7504 -1.01433e-19)
(11.1089 -0.891393 -4.7843e-20)
(13.3231 -1.15527 8.49736e-22)
(15.7676 -1.57345 4.80049e-20)
(-3.77122 -1.87003 1.06345e-19)
(-3.57154 -1.81778 -3.794e-20)
(-3.35782 -1.7691 7.70982e-20)
(-3.12448 -1.71492 -1.66322e-19)
(-2.85764 -1.66456 -6.84837e-20)
(-2.57116 -1.6031 0)
(-2.24721 -1.54539 -8.06372e-20)
(-1.8968 -1.48358 -2.08291e-20)
(-1.50565 -1.41781 4.32756e-20)
(-1.06723 -1.34463 6.57671e-20)
(-0.581914 -1.26373 -6.91929e-20)
(-0.0448956 -1.18054 -2.3297e-20)
(0.552705 -1.10217 0)
(1.21504 -1.018 -1.17811e-20)
(1.97575 -0.93539 1.22656e-20)
(2.83792 -0.84576 0)
(3.81747 -0.75762 -6.19113e-21)
(4.94977 -0.686003 6.43736e-21)
(6.28873 -0.650706 0)
(7.74897 -0.668922 -5.24465e-20)
(9.49939 -0.733252 1.97941e-20)
(11.429 -0.88762 7.80312e-20)
(13.6701 -1.16443 -1.16627e-19)
(16.1313 -1.5975 0)
(16.5246 -3.33031 0)
(20.1186 -4.60824 -1.94954e-18)
(21.4213 -5.05212 3.04232e-18)
(22.0789 -5.2276 -1.13787e-18)
(22.5208 -5.32545 0)
(22.8259 -5.37977 -3.51732e-19)
(23.0344 -5.40234 3.14003e-19)
(23.1695 -5.40105 -3.32422e-21)
(23.2467 -5.38089 0)
(23.2784 -5.3461 1.62018e-19)
(23.2755 -5.29999 -1.50462e-19)
(23.2471 -5.2454 0)
(23.1999 -5.1845 0)
(23.1387 -5.11886 0)
(23.0671 -5.04948 0)
(22.9876 -4.97716 0)
(22.902 -4.90236 6.34927e-20)
(22.8115 -4.82544 8.00772e-20)
(22.7172 -4.74667 -1.57591e-19)
(22.6197 -4.66611 0)
(22.5196 -4.58382 0)
(22.4173 -4.50051 7.3452e-19)
(22.3136 -4.41644 5.35939e-20)
(22.2113 -4.32201 -7.3962e-19)
(16.4662 -2.81912 -7.68133e-19)
(20.225 -4.09851 5.66472e-19)
(21.978 -4.72741 -5.35857e-19)
(22.6128 -4.9079 -2.77083e-20)
(22.9816 -4.99934 -1.50111e-20)
(23.217 -5.05333 -3.40002e-19)
(23.3591 -5.08002 3.17286e-19)
(23.4331 -5.0856 -5.83213e-20)
(23.4571 -5.07474 1.05057e-19)
(23.4453 -5.05107 -5.60212e-20)
(23.4085 -5.01772 0)
(23.3544 -4.97688 0)
(23.2882 -4.93028 3.54023e-19)
(23.2134 -4.87914 -2.88401e-19)
(23.1326 -4.82435 4.57268e-19)
(23.0474 -4.76651 -8.8175e-19)
(22.9588 -4.70605 3.54402e-19)
(22.8676 -4.64333 7.03473e-20)
(22.7743 -4.57854 4.77582e-19)
(22.6792 -4.51178 -6.08123e-19)
(22.5828 -4.44314 7.02316e-19)
(22.4851 -4.37327 -6.84136e-19)
(22.3865 -4.30126 1.83699e-19)
(22.2874 -4.21812 0)
(16.8202 -2.61475 9.46501e-19)
(20.2021 -3.72512 -4.57375e-19)
(22.2451 -4.47871 -2.99903e-19)
(22.9177 -4.69456 5.88081e-20)
(23.2246 -4.77134 2.21885e-19)
(23.405 -4.81376 8.63999e-20)
(23.5013 -4.83355 -5.46762e-20)
(23.5387 -4.83663 -6.39939e-20)
(23.5352 -4.82704 1.61356e-19)
(23.5039 -4.80793 -1.08524e-19)
(23.4539 -4.78152 1.50152e-20)
(23.3912 -4.74938 3.06764e-19)
(23.3197 -4.7126 -3.08684e-19)
(23.2423 -4.67203 -4.75971e-19)
(23.1606 -4.62824 3.53927e-19)
(23.0759 -4.58167 -5.75879e-19)
(22.9891 -4.53265 1.05377e-18)
(22.9006 -4.48142 -1.06339e-18)
(22.8109 -4.42817 7.31089e-19)
(22.7202 -4.37298 0)
(22.6288 -4.31605 0)
(22.5365 -4.25804 0)
(22.4425 -4.19891 -1.91262e-19)
(22.3472 -4.13291 0)
(17.2119 -2.50572 -2.02832e-19)
(20.2879 -3.47976 0)
(22.4211 -4.27074 -2.08448e-19)
(23.1552 -4.53102 2.41637e-19)
(23.4082 -4.59668 -1.31851e-19)
(23.5383 -4.62888 1.05648e-19)
(23.5952 -4.64204 4.96849e-21)
(23.6034 -4.64181 4.21489e-20)
(23.5796 -4.6318 -3.83678e-20)
(23.535 -4.61453 1.25436e-20)
(23.4766 -4.59171 1.29516e-21)
(23.4092 -4.56448 1.8793e-20)
(23.3355 -4.53358 1.50485e-19)
(23.2578 -4.49965 -1.87618e-19)
(23.1771 -4.46307 1.13218e-19)
(23.0945 -4.42419 -6.19477e-20)
(23.0104 -4.38322 6.70498e-20)
(22.9253 -4.34035 -6.3593e-22)
(22.8395 -4.29572 0)
(22.7531 -4.24945 -2.57075e-19)
(22.6662 -4.20168 3.30771e-19)
(22.5784 -4.15273 0)
(22.4886 -4.10216 -3.92718e-19)
(22.3972 -4.04636 3.8752e-19)
(17.5405 -2.42928 1.57764e-19)
(20.4195 -3.3155 3.55409e-20)
(22.5392 -4.09599 -2.40628e-19)
(23.3275 -4.39099 5.81147e-20)
(23.5404 -4.44976 1.65189e-19)
(23.6301 -4.47394 0)
(23.6567 -4.48202 -1.10523e-20)
(23.6433 -4.47936 1.03131e-20)
(23.6047 -4.46893 0)
(23.5504 -4.45283 -1.37185e-19)
(23.486 -4.43236 1.01353e-19)
(23.4151 -4.4084 1.80349e-19)
(23.3401 -4.38152 -1.73905e-19)
(23.2624 -4.35222 -2.26597e-19)
(23.183 -4.3208 1.01119e-19)
(23.1025 -4.2875 -2.04073e-19)
(23.0214 -4.2525 5.45415e-19)
(22.9398 -4.21596 -1.19906e-19)
(22.858 -4.17797 -3.75669e-19)
(22.7759 -4.13866 -4.25465e-19)
(22.6936 -4.09813 3.36162e-19)
(22.6106 -4.05648 -5.62254e-19)
(22.5262 -4.01336 3.73843e-19)
(22.4406 -3.96858 2.0725e-19)
(17.8166 -2.36306 -1.45535e-19)
(20.5603 -3.19212 -1.47025e-21)
(22.6275 -3.9475 0)
(23.4459 -4.26501 0)
(23.6279 -4.32083 1.09626e-20)
(23.6858 -4.33921 -1.80876e-20)
(23.6899 -4.34389 -1.21351e-20)
(23.6612 -4.33969 -4.29139e-20)
(23.6126 -4.32922 6.60101e-20)
(23.5519 -4.31414 1.5804e-20)
(23.4837 -4.29554 -1.66343e-19)
(23.411 -4.27407 3.50346e-19)
(23.3356 -4.25028 -8.35406e-20)
(23.2586 -4.22452 0)
(23.1808 -4.19706 5.99919e-20)
(23.1027 -4.16807 2.75869e-19)
(23.0245 -4.13771 -2.67979e-19)
(22.9465 -4.10611 1.50185e-19)
(22.8686 -4.07338 7.96765e-20)
(22.7907 -4.03963 8.42063e-20)
(22.7128 -4.00504 0)
(22.6346 -3.96959 2.81584e-19)
(22.5557 -3.93314 -1.95068e-19)
(22.4763 -3.89728 0)
(18.0438 -2.29864 -1.94871e-21)
(20.6877 -3.08758 -5.95789e-20)
(22.695 -3.81624 -2.18028e-20)
(23.5247 -4.14749 0)
(23.6853 -4.20526 -3.60372e-20)
(23.7191 -4.22083 2.54204e-20)
(23.7067 -4.2238 0)
(23.6671 -4.21898 0)
(23.6114 -4.20877 0)
(23.5465 -4.19468 -1.67454e-19)
(23.476 -4.17761 1.02422e-19)
(23.4024 -4.15816 2.03769e-19)
(23.327 -4.13675 -3.00903e-19)
(23.251 -4.11379 0)
(23.1749 -4.08945 2.66589e-19)
(23.0991 -4.06381 -2.58423e-19)
(23.0237 -4.03705 -7.31122e-20)
(22.9489 -4.00931 -7.69163e-20)
(22.8745 -3.98067 8.1861e-20)
(22.8004 -3.95135 -7.37533e-23)
(22.7265 -3.92154 0)
(22.6526 -3.89121 1.95778e-19)
(22.579 -3.8602 6.90178e-21)
(22.5053 -3.83087 3.19405e-19)
(18.2596 -2.24244 -3.47394e-20)
(20.8235 -3.00538 -6.01077e-20)
(22.7662 -3.7143 7.54335e-20)
(23.5849 -4.05138 2.80211e-20)
(23.7242 -4.10782 4.06614e-20)
(23.739 -4.11911 7.32583e-21)
(23.714 -4.12 -2.01054e-20)
(23.6661 -4.11436 -2.84169e-20)
(23.6052 -4.10424 7.74598e-20)
(23.5369 -4.09094 0)
(23.4648 -4.07508 8.68383e-20)
(23.3907 -4.05712 0)
(23.3155 -4.03758 1.72745e-19)
(23.2405 -4.01691 -2.42573e-19)
(23.1662 -3.99509 5.78137e-20)
(23.0926 -3.97207 -1.47058e-19)
(23.0199 -3.94815 6.18718e-20)
(22.9481 -3.92345 1.52447e-19)
(22.8769 -3.89804 -8.36051e-20)
(22.8061 -3.87221 -8.8276e-20)
(22.7356 -3.84627 -9.29011e-20)
(22.6657 -3.82021 -9.789e-20)
(22.5972 -3.7937 0)
(22.529 -3.76895 -1.08651e-19)
(18.3727 -2.16895 -4.64515e-22)
(20.8649 -2.89735 6.25865e-20)
(22.7672 -3.58996 1.0424e-20)
(23.6023 -3.9445 2.84224e-21)
(23.7465 -4.01453 -2.57631e-20)
(23.751 -4.02757 1.58821e-20)
(23.7173 -4.02813 3.36833e-20)
(23.6635 -4.02233 -8.84556e-20)
(23.5986 -4.01265 2.31933e-20)
(23.5282 -4.00043 0)
(23.4555 -3.98585 -4.48743e-20)
(23.381 -3.96906 0)
(23.3059 -3.95115 -5.88254e-20)
(23.2317 -3.93271 0)
(23.1592 -3.91311 6.72596e-20)
(23.0876 -3.89202 0)
(23.0167 -3.8703 0)
(22.9474 -3.84795 0)
(22.8785 -3.82476 -2.63392e-19)
(22.8103 -3.80147 1.75174e-19)
(22.7427 -3.77859 -1.95407e-19)
(22.6764 -3.75635 4.98731e-19)
(22.6131 -3.73387 -2.04055e-19)
(22.5503 -3.71314 1.09849e-19)
(18.7425 -2.21004 -8.58033e-20)
(21.1581 -2.93668 5.89982e-20)
(22.929 -3.61648 -2.42389e-20)
(23.6813 -3.93753 0)
(23.7742 -3.96425 -7.66316e-21)
(23.7592 -3.95594 0)
(23.7159 -3.95022 -4.26605e-20)
(23.6552 -3.94237 -1.02377e-20)
(23.5855 -3.93246 0)
(23.5121 -3.92108 9.16414e-20)
(23.4386 -3.907 -8.79845e-20)
(23.3634 -3.89026 -5.55656e-20)
(23.2874 -3.87359 5.93291e-20)
(23.2134 -3.8573 6.62958e-20)
(23.1442 -3.83932 7.53759e-20)
(23.0744 -3.81909 -1.43495e-19)
(23.0053 -3.79921 -8.06554e-20)
(22.9398 -3.77893 8.95355e-20)
(22.874 -3.75751 1.0051e-19)
(22.8085 -3.7367 -3.74534e-19)
(22.7436 -3.7166 1.89684e-19)
(22.6794 -3.69754 -1.00825e-19)
(22.6223 -3.67826 0)
(22.563 -3.66107 -2.25429e-19)
(0.0528824 1.81215 -5.49517e-19)
(1.09979 2.06298 -2.10496e-17)
(2.69114 2.77484 2.90188e-19)
(4.39463 3.69575 4.23546e-18)
(6.11156 4.63046 0)
(7.8212 5.60038 -6.85212e-20)
(9.49307 6.60851 0)
(11.1255 7.61312 -4.71272e-20)
(12.7018 8.5777 7.90531e-20)
(14.1971 9.46767 0)
(15.5823 10.2545 -8.26344e-19)
(16.8331 10.9156 9.26641e-19)
(17.9302 11.4341 4.79904e-20)
(18.8625 11.7995 0)
(19.6294 12.0096 0)
(20.2396 12.0705 -3.25533e-19)
(20.7107 11.9966 3.5574e-19)
(21.0669 11.8092 -1.68413e-19)
(21.3352 11.5337 -3.30281e-19)
(21.5415 11.1965 3.00782e-19)
(21.708 10.8215 0)
(21.8508 10.4281 -1.65812e-19)
(21.9802 10.0297 4.86084e-20)
(22.1082 9.62542 0)
(-9.61539 2.33807 -3.64696e-19)
(-8.94461 2.25452 -5.19986e-19)
(-7.80848 2.18946 0)
(-6.47215 2.29359 -5.36458e-18)
(-4.90557 2.52964 8.1545e-18)
(-3.03573 2.86827 -3.00356e-18)
(-0.873451 3.30931 0)
(1.48811 3.86799 -2.21509e-18)
(3.98234 4.54439 1.7972e-18)
(6.5252 5.32884 -1.38134e-18)
(9.02965 6.19807 1.41152e-18)
(11.4213 7.11146 -1.33978e-19)
(13.6362 8.01901 -1.11179e-19)
(15.6211 8.8673 8.46012e-19)
(17.3368 9.60723 -7.82618e-19)
(18.7612 10.199 0)
(19.8918 10.6174 -6.7389e-19)
(20.7462 10.8534 1.10848e-18)
(21.3599 10.9161 -4.94291e-19)
(21.7801 10.8283 -1.25237e-19)
(22.0582 10.6229 0)
(22.242 10.3344 3.82371e-19)
(22.3702 9.99603 -2.00288e-19)
(22.4737 9.61607 0)
(-4.54544 1.36912 5.21026e-19)