/*--------------------------------*- C++ -*----------------------------------*\
| =========                 |                                                 |
| \\      /  F ield         | OpenFOAM: The Open Source CFD Toolbox           |
|  \\    /   O peration     | Version:  2.3.0                                 |
|   \\  /    A nd           | Web:      www.OpenFOAM.org                      |
|    \\/     M anipulation  |                                                 |
\*---------------------------------------------------------------------------*/
FoamFile
{
    version     2.0;
    format      ascii;
    class       surfaceScalarField;
    location    "3000";
    object      phi;
}
// * * * * * * * * * * * * * * * * * * * * * * * * * * * * * * * * * * * * * //

dimensions      [0 3 -1 0 0 0 0];

internalField   nonuniform List<scalar> 
12931
(
-0.0204554
-0.024911
0.0284104
0.0169558
-0.0232792
-0.0205992
0.0234231
-0.0255088
-0.0170285
0.019258
-0.0271316
-0.014051
0.0156737
-0.0281345
-0.0115569
0.0125597
-0.028537
-0.00946221
0.00986471
-0.0284098
-0.00770128
0.00757407
-0.0278566
-0.00622606
0.00567276
-0.0269789
-0.00500022
0.00412247
-0.0258726
-0.00399275
0.00288632
-0.0246241
-0.00317145
0.00192295
-0.00250776
-0.0234881
0.00137172
-0.0175938
-0.0222345
0.0149174
-0.0195678
-0.0186252
-0.0209659
-0.0156304
-0.0218758
-0.0131411
-0.0223589
-0.0110738
-0.0224584
-0.00936276
-0.0222121
-0.00794761
-0.0216553
-0.00678282
-0.0208281
-0.00582746
-0.0197719
-0.00504894
-0.0185263
-0.00441707
-0.00390707
-0.017127
-0.0153378
-0.0200248
0.013128
-0.0168888
-0.0170742
-0.0178958
-0.0146235
-0.0184466
-0.0125903
-0.0186192
-0.0109012
-0.0184832
-0.00949876
-0.0180952
-0.00833564
-0.0175061
-0.00737186
-0.0167583
-0.00657529
-0.0158909
-0.00591639
-0.0149306
-0.00537738
-0.00493571
-0.0139019
-0.0134016
-0.0181671
0.0115439
-0.0146903
-0.0157855
-0.0155035
-0.0138102
-0.0159262
-0.0121676
-0.0160296
-0.0107978
-0.0158697
-0.00965874
-0.0154987
-0.00870657
-0.0149569
-0.0079137
-0.0142796
-0.00725257
-0.0134955
-0.00670057
-0.0126306
-0.00624222
-0.00586223
-0.0117041
-0.0117601
-0.0165673
0.0101603
-0.0128538
-0.0146918
-0.0135324
-0.0131317
-0.0138723
-0.0118277
-0.0139348
-0.0107353
-0.0137734
-0.00982013
-0.01343
-0.00904996
-0.0129413
-0.00840243
-0.0123371
-0.00785669
-0.0116412
-0.00739653
-0.0108745
-0.00700886
-0.00668279
-0.010054
-0.0103681
-0.015171
0.00897185
-0.0113195
-0.0137404
-0.0119082
-0.012543
-0.0121993
-0.0115366
-0.0122471
-0.0106875
-0.0120972
-0.00997008
-0.0117862
-0.00936093
-0.011347
-0.0088417
-0.0108038
-0.00839988
-0.0101786
-0.00802168
-0.00948801
-0.00769946
-0.00742418
-0.00874662
-0.00918004
-0.0139373
0.00794635
-0.0100205
-0.0129
-0.0105393
-0.0120242
-0.0107946
-0.0112812
-0.0108338
-0.0106484
-0.0106975
-0.0101063
-0.0104181
-0.00964037
-0.0100224
-0.00923737
-0.0095341
-0.00888821
-0.00896985
-0.00858594
-0.00834701
-0.00832229
-0.00809531
-0.00767588
-0.00816289
-0.0128441
0.00706968
-0.00891013
-0.0121528
-0.00937118
-0.0115631
-0.00959738
-0.011055
-0.00963322
-0.0106125
-0.00951038
-0.0102292
-0.00925878
-0.00989197
-0.00890255
-0.0095936
-0.00846089
-0.00932988
-0.00795171
-0.00909511
-0.00738659
-0.00888742
-0.00870346
-0.00677844
-0.00727478
-0.0118637
0.0062944
-0.00794295
-0.0114846
-0.00835938
-0.0111467
-0.00856668
-0.0108477
-0.00859894
-0.0105803
-0.00848813
-0.01034
-0.00826051
-0.0101196
-0.00793623
-0.00991788
-0.00753847
-0.00972764
-0.00707902
-0.00955456
-0.0065679
-0.00939854
-0.00925568
-0.00601568
-0.0065018
-0.010977
0.00561513
-0.00710556
-0.0108809
-0.00747982
-0.0107724
-0.00766833
-0.0106592
-0.007698
-0.0105506
-0.00759838
-0.0104396
-0.00739244
-0.0103255
-0.00709861
-0.0102117
-0.00673482
-0.0100914
-0.00632257
-0.00996681
-0.00586263
-0.00985847
-0.00535858
-0.00975973
-0.020814
-0.00229742
-0.000376663
-0.0185505
-0.00250749
0.000243974
-0.0164299
-0.00283944
0.000718844
-0.0144057
-0.0032949
0.00127076
-0.012493
-0.00389065
0.00197794
-0.010741
-0.00465331
0.00290125
-0.00921712
-0.00561999
0.00409613
-0.00800398
-0.00683265
0.00561951
-0.00718449
-0.00834816
0.00752867
-0.00683484
-0.0102331
0.00988341
-0.00702448
-0.0125709
0.0127605
-0.015457
0.0162804
-0.00784782
-0.0156485
-0.00377595
-0.0141713
-0.00398471
-0.0127408
-0.00426994
-0.0113902
-0.00464551
-0.0101472
-0.00513359
-0.00904235
-0.00575819
-0.00810901
-0.00655332
-0.00738627
-0.0075554
-0.00692127
-0.00881315
-0.00677418
-0.0103802
-0.00702061
-0.0123245
-0.0147317
-0.00774592
-0.0128535
-0.00482442
-0.0118177
-0.00502045
-0.0108093
-0.00527835
-0.0098427
-0.00561211
-0.00893739
-0.00603891
-0.00811748
-0.00657809
-0.00741658
-0.00725423
-0.00687455
-0.00809742
-0.00654393
-0.00914377
-0.00648555
-0.0104385
-0.00677231
-0.0120377
-0.0140172
-0.00748682
-0.0107697
-0.00575877
-0.00987418
-0.00591601
-0.00902658
-0.00612596
-0.00823761
-0.00640108
-0.00752401
-0.00675251
-0.00690442
-0.00719768
-0.00640222
-0.00775643
-0.00604896
-0.00845069
-0.00588332
-0.00930941
-0.00595386
-0.010368
-0.00632228
-0.0116693
-0.0132675
-0.00707194
-0.00922958
-0.00658318
-0.00844871
-0.00669689
-0.00771947
-0.00685519
-0.0070525
-0.00706806
-0.00646088
-0.00734413
-0.00596136
-0.0076972
-0.0055757
-0.00814208
-0.00533003
-0.00869636
-0.00525785
-0.0093816
-0.00540061
-0.0102252
-0.00581025
-0.0112597
-0.0125274
-0.00655044
-0.00800436
-0.00732544
-0.00730661
-0.00739464
-0.00666187
-0.00749993
-0.00608043
-0.00764951
-0.00557356
-0.00785099
-0.00515813
-0.00811263
-0.00485271
-0.0084475
-0.00468084
-0.00886822
-0.00467133
-0.00939111
-0.00486162
-0.0100349
-0.00529608
-0.0108252
-0.011796
-0.0060274
-0.00700514
-0.00799618
-0.00637877
-0.00802101
-0.00580352
-0.00807518
-0.00528884
-0.00816419
-0.00484691
-0.00829292
-0.00449287
-0.00846668
-0.00424374
-0.00869663
-0.00412105
-0.00899092
-0.00415178
-0.00936038
-0.00436766
-0.00981906
-0.0048106
-0.0103823
-0.0110724
-0.00553423
-0.0061714
-0.00860322
-0.0056056
-0.00858681
-0.00508877
-0.008592
-0.00462938
-0.00862359
-0.0042399
-0.00868239
-0.00393322
-0.00877336
-0.00372545
-0.0089044
-0.00363587
-0.0090805
-0.00369
-0.00930624
-0.0039169
-0.00959216
-0.00435234
-0.00994682
-0.0103851
-0.00503967
-0.0054637
-0.00915521
-0.00495125
-0.00909926
-0.00448545
-0.0090578
-0.00407457
-0.00903446
-0.00372844
-0.00902853
-0.00345957
-0.00904222
-0.00328352
-0.00908045
-0.00321798
-0.00914605
-0.00328461
-0.00923961
-0.00351203
-0.00936475
-0.00393223
-0.00952662
-0.00973345
-0.00458385
-0.00485627
-0.00965751
-0.00439166
-0.00956388
-0.0039703
-0.00947916
-0.00360022
-0.00940453
-0.00329389
-0.00933487
-0.00305585
-0.00928026
-0.00290272
-0.00923357
-0.00285383
-0.00919494
-0.00293065
-0.00916279
-0.00315263
-0.00914276
-0.00355046
-0.00912879
-0.00416008
-0.00912384
0.00270051
0.00256798
-0.00291207
-0.00235642
0.00285643
0.00144617
-0.00160209
0.00291848
0.000766111
-0.000828156
0.00293103
0.000389668
-0.000402221
0.00290286
0.000223833
-0.000195666
0.00281744
0.000207279
-0.000121849
0.00264317
0.00030162
-0.000127355
0.00233978
0.000485263
-0.000181869
0.0018544
0.000754911
-0.000269536
0.00111488
0.0011231
-0.000383578
1.29235e-05
0.00162476
-0.000522806
0.00232454
-0.00163179
-0.000679819
0.00248183
0.00228633
-0.00220019
0.00257818
0.00134982
0.00256419
0.000780101
0.00247523
0.000478629
0.00232072
0.000378346
0.00209294
0.000435061
0.00177643
0.000618124
0.00134913
0.000912562
0.000784938
0.00131911
5.69678e-05
0.00185107
-0.000844905
0.00252663
0.00333493
-0.0018553
0.00218917
0.00208223
-0.00198508
0.00222105
0.00131794
0.00214229
0.000858863
0.00198585
0.000635069
0.00176603
0.000598171
0.00148716
0.000713925
0.00114453
0.000960757
0.000725153
0.00133194
0.000213058
0.0018312
-0.000404638
0.00246877
-0.00113005
0.00325204
0.00415873
-0.00195384
0.00188431
0.00194258
-0.00174466
0.00187273
0.00132953
0.0017617
0.000969887
0.00158349
0.000813285
0.00135586
0.000825793
0.00108564
0.000984149
0.000769355
0.00127704
0.000397056
0.00170424
-4.54654e-05
0.00227372
-0.000575284
0.00299859
-0.00120737
0.00388413
0.00490811
-0.00195675
0.00160068
0.00184535
-0.00150346
0.0015683
0.00136192
0.0014508
0.00108738
0.00127772
0.000986365
0.00106607
0.00103745
0.000821659
0.00122856
0.000541427
0.00155727
0.000214838
0.00203083
-0.000173024
0.00266159
-0.000640305
0.00346587
-0.00120717
0.00445099
0.00560263
-0.0019017
0.00134338
0.00176218
-0.00126021
0.00130821
0.00139709
0.0012005
0.0011951
0.00104562
0.00114124
0.000857594
0.00122548
0.000641132
0.00144502
0.000393567
0.00180484
0.000104913
0.00231948
-0.000239354
0.00300585
-0.00065881
0.00388532
-0.00117738
0.00496957
0.00623868
-0.00181343
0.00112963
0.00170268
-0.00107013
0.00109825
0.00142847
0.00100456
0.00128879
0.000869732
0.00127607
0.000705105
0.0013901
0.000514183
0.00163594
0.000293633
0.00202539
3.57356e-05
0.00257738
-0.000274059
0.00331565
-0.000654142
0.00426541
-0.00112655
0.00544197
0.00682309
-0.00171095
0.000956286
0.00165187
-0.00090548
0.000929623
0.00145513
0.000850375
0.00136804
0.000734887
0.00139156
0.000591797
0.00153319
0.00042266
0.00180508
0.000223589
0.00222446
-1.00542e-05
0.00281102
-0.000289686
0.00359528
-0.000636933
0.00461265
-0.0010699
0.00587494
0.00735981
-0.00160663
0.000803868
0.00159601
-0.000748004
0.000788377
0.00147062
0.000725233
0.00143118
0.000628932
0.00148786
0.000505723
0.0016564
0.00035672
0.00195408
0.000176444
0.00240474
-3.62984e-05
0.00302376
-0.000288845
0.00384783
-0.00060547
0.00492928
-0.00100478
0.00627425
0.00785336
-0.00149832
0.0006846
0.00155822
-0.000646813
0.000674112
0.00148111
0.00062332
0.00148198
0.000543427
0.00156775
0.000439076
0.00176075
0.000308574
0.00208459
0.000141138
0.00257217
-5.30893e-05
0.00321799
-0.000276862
0.0040716
-0.00056674
0.00521916
-0.000941395
0.0066489
-0.00139039
0.00830235
-0.00235563
0.00362786
-0.00290401
-0.00344326
0.00512803
-0.0040404
-0.00456695
0.00628743
-0.00516374
-0.00554905
0.00738252
-0.00640042
-0.00632758
0.0086067
-0.00782817
-0.0068503
0.0100003
-0.00947757
-0.00707643
0.01162
-0.0113939
-0.00695491
0.0135201
-0.0136416
-0.00642763
0.0157606
-0.0162879
-0.00542756
0.0184175
-0.0194176
-0.0038744
0.0215735
-0.0231267
0.0253292
-0.0275299
-0.00167373
-0.00273686
0.00450941
-0.00372185
0.00611301
-0.00473138
0.00729696
-0.00559092
0.00824206
-0.00624611
0.00926189
-0.00666695
0.0104211
-0.00681867
0.0117717
-0.00665424
0.0133556
-0.00613137
0.0152377
-0.00518319
0.0174693
-0.0037342
0.0201245
0.0232899
-0.00169486
-0.00284421
0.00539978
-0.00373967
0.00700847
-0.00463264
0.00818993
-0.00538732
0.00899673
-0.0059584
0.00983298
-0.00631841
0.0107811
-0.0064333
0.0118866
-0.00626908
0.0131914
-0.00577341
0.0147421
-0.00489419
0.0165901
-0.00355834
0.0187887
0.0214107
-0.00167913
-0.0028027
0.00624574
-0.00363894
0.00784471
-0.00442893
0.00897991
-0.00509622
0.00966403
-0.00559607
0.0103328
-0.00590872
0.0110938
-0.00600235
0.0119802
-0.00584417
0.0130332
-0.00538755
0.0142855
-0.00457814
0.0157807
-0.00335507
0.0175656
0.0196937
-0.00163804
-0.00268638
0.00703042
-0.00345873
0.00861706
-0.00416958
0.00969077
-0.00476029
0.0102547
-0.00520369
0.0107762
-0.00547862
0.0113687
-0.00556198
0.0120636
-0.00541243
0.0128837
-0.00499517
0.0138682
-0.00425912
0.0150446
-0.00314293
0.0164494
0.0181272
-0.00157652
-0.002536
0.00775299
-0.00324285
0.0093239
-0.00387891
0.0103268
-0.00440968
0.0107855
-0.00480796
0.0111745
-0.00505614
0.0116169
-0.00512596
0.0121334
-0.00499439
0.0127521
-0.00461301
0.0134868
-0.00394212
0.0143737
-0.00292591
0.0154332
0.0167034
-0.00150206
-0.00237227
0.00841431
-0.00301949
0.00997111
-0.00359309
0.0109004
-0.00406436
0.0112568
-0.00442397
0.0115341
-0.00464737
0.0118403
-0.00471118
0.0121972
-0.00458751
0.0126284
-0.00424464
0.0131439
-0.00363544
0.0137646
-0.00271241
0.0145102
0.0154099
-0.00141891
-0.00220719
0.00901487
-0.00278814
0.0105521
-0.00330155
0.0114139
-0.00373335
0.0116886
-0.00405581
0.0118566
-0.00425782
0.0120423
-0.00431816
0.0122576
-0.00420704
0.0125173
-0.00389594
0.0128328
-0.00334442
0.013213
-0.00250635
0.0136721
0.0142316
-0.0013281
-0.00204948
0.00956603
-0.00257539
0.011078
-0.00303834
0.0118768
-0.00342194
0.0120722
-0.00371386
0.0121485
-0.00389817
0.0122266
-0.00395053
0.0123099
-0.00385117
0.012418
-0.00356769
0.0125494
-0.00306753
0.0127129
-0.00231013
0.0129147
0.0131642
-0.00124268
-0.00186917
0.0100448
-0.00232874
0.0115375
-0.00275247
0.0123005
-0.0031215
0.0124412
-0.00339451
0.0124215
-0.00356101
0.0123931
-0.00361138
0.0123603
-0.00352157
0.0123282
-0.00326521
0.012293
-0.00281374
0.0122614
-0.0021256
0.0122266
0.01219
-0.00115137
0.00300962
-0.00163796
0.00580278
-0.000870457
0.00866289
2.62501e-05
0.0115068
0.00127847
0.0141713
0.00300832
0.0164368
0.00530855
0.018115
0.00818653
0.0190671
0.0116076
0.0192476
0.0154933
0.0187518
0.0197538
0.0177935
0.0243815
0.0295731
0.0166307
-3.24581e-05
-0.00160556
0.00077593
-0.00167863
0.00222356
-0.00142143
0.00423861
-0.000736571
0.00675977
0.000487149
0.00962452
0.00244378
0.0124996
0.00531147
0.0149723
0.0091349
0.0166733
0.0137922
0.0174067
0.0190204
0.0172366
0.0245516
0.0303419
0.0164678
-7.99214e-05
-0.0015255
-7.83725e-05
-0.00168002
0.000147373
-0.00164714
0.000819841
-0.00140893
0.00213897
-0.000831986
0.00422859
0.000354185
0.00700979
0.00253027
0.0101273
0.0060174
0.0130127
0.0109068
0.0150854
0.0169478
0.016028
0.0236091
0.0304287
0.0159412
8.88213e-06
-0.00153434
8.92183e-05
-0.00176029
0.00026072
-0.0018186
0.000580003
-0.00172814
0.00115075
-0.0014027
0.00216801
-0.000663041
0.00387941
0.000818876
0.00637893
0.00351789
0.00938697
0.00789874
0.0122505
0.0140843
0.0142513
0.0216082
0.0296296
0.0150504
7.11373e-06
-0.00154141
3.9045e-05
-0.00179219
0.00012315
-0.00190266
0.000292692
-0.00189764
0.00060733
-0.00171732
0.00117942
-0.0012351
0.00220465
-0.000206331
0.00392462
0.00179793
0.00643538
0.00538799
0.00941664
0.011103
0.0121114
0.0189135
0.0279575
0.0137835
2.72869e-06
-0.00154413
3.34001e-05
-0.00182284
0.000102583
-0.00197184
0.000229725
-0.00202477
0.000447279
-0.00193486
0.000818042
-0.00160585
0.0014595
-0.00084778
0.00257392
0.000683514
0.00440912
0.0035528
0.00701092
0.0085012
0.00990803
0.0160164
0.0256285
0.012237
4.8945e-06
-0.00154901
2.70594e-05
-0.001845
7.56438e-05
-0.00202042
0.000165225
-0.00211434
0.000318204
-0.00208783
0.000576183
-0.00186382
0.00101919
-0.00129078
0.00178749
-8.47756e-05
0.00310154
0.00223876
0.00517619
0.00642656
0.00789842
0.0132942
0.0229572
0.0105697
3.15341e-06
-0.00155216
2.11696e-05
-0.00186302
6.03199e-05
-0.00205957
0.000130754
-0.00218477
0.000248724
-0.0022058
0.000442455
-0.00205755
0.000766741
-0.00161507
0.00132213
-0.00064016
0.00227882
0.00128207
0.00387375
0.00483163
0.00622935
0.0109386
0.0202324
0.00895414
3.05147e-06
-0.00155521
1.73915e-05
-0.00187736
4.84421e-05
-0.00209062
0.000103866
-0.0022402
0.000196615
-0.00229855
0.000347353
-0.00220829
0.000595831
-0.00186355
0.00101719
-0.00106152
0.00174086
0.000558397
0.00297191
0.00360058
0.00492723
0.00898324
0.0176529
0.0075067
2.33749e-06
-0.00155755
1.38813e-05
-0.0018889
3.9447e-05
-0.00211618
8.47756e-05
-0.00228553
0.000159972
-0.00237375
0.000281103
-0.00232942
0.000477733
-0.00206018
0.000806865
-0.00139065
0.00136921
-3.94929e-06
0.00233215
0.00263765
0.00392165
0.00739373
0.0153567
0.0062179
1.94304e-06
-0.00155949
1.11161e-05
-0.00189807
3.1822e-05
-0.00213689
6.91362e-05
-0.00232284
0.000130841
-0.00243546
0.000229796
-0.00242837
0.00038888
-0.00221926
0.000652194
-0.00165396
0.00109939
-0.000451142
0.00186545
0.00187159
0.0031537
0.00610548
0.013372
0.00513833
8.9881e-07
-0.00156039
8.33213e-06
-0.00190551
2.54152e-05
-0.00215397
5.61205e-05
-0.00235355
0.000107325
-0.00248666
0.000189248
-0.0025103
0.00032
-0.00235001
0.000534281
-0.00186824
0.000895615
-0.000812477
0.00151344
0.00125376
0.00256157
0.00505736
0.0116996
0.00423405
3.91934e-07
-0.00156078
6.1981e-06
-0.00191131
2.01733e-05
-0.00216795
4.58131e-05
-0.00237919
8.87576e-05
-0.0025296
0.000157692
-0.00257923
0.000267211
-0.00245953
0.000445195
-0.00204623
0.000743291
-0.00111057
0.00125156
0.000745489
0.00211792
0.004191
0.0102769
0.00354061
-2.25299e-07
-0.00156056
4.30235e-06
-0.00191584
1.571e-05
-0.00217936
3.72318e-05
-0.00240071
7.36096e-05
-0.00256598
0.000132293
-0.00263792
0.000225487
-0.00255273
0.00037609
-0.00219683
0.000626957
-0.00136144
0.00105344
0.000319009
0.0017829
0.00346154
0.00905965
0.00300013
-7.00541e-07
-0.00155986
2.6075e-06
-0.00191915
1.17794e-05
-0.00218853
2.95739e-05
-0.0024185
6.02581e-05
-0.00259667
0.000110364
-0.00268802
0.000190234
-0.0026326
0.000319205
-0.0023258
0.000533677
-0.00157591
0.000898094
-4.5408e-05
0.001522
0.00283763
0.00800216
0.00257949
-1.38571e-06
-0.00155848
4.46192e-07
-0.00192098
7.25782e-06
-0.00219534
2.13428e-05
-0.00243259
4.66714e-05
-0.002622
8.85271e-05
-0.00272988
0.00015583
-0.0026999
0.000264309
-0.00243428
0.000443961
-0.00175557
0.000748111
-0.000349558
0.00126751
0.00231823
0.00713432
0.00213535
-1.8875e-06
-0.00155659
-1.26883e-06
-0.0019216
3.61564e-06
-0.00220023
1.48215e-05
-0.00244379
3.57548e-05
-0.00264293
7.12766e-05
-0.0027654
0.000128942
-0.00275757
0.000222289
-0.00252763
0.000376921
-0.0019102
0.000638679
-0.000611316
0.00108624
0.00187067
0.00637153
0.00184903
-2.33497e-06
-0.00155425
-2.78976e-06
-0.00192115
2.65443e-07
-0.00220328
8.84242e-06
-0.00245237
2.59678e-05
-0.00266006
5.61337e-05
-0.00279557
0.000106051
-0.00280748
0.000187693
-0.00260927
0.000323882
-0.00204639
0.000556259
-0.000843693
0.000958272
0.00146866
0.00567929
0.00165052
-3.02787e-06
-0.00155123
-4.81232e-06
-0.00191936
-3.76548e-06
-0.00220433
2.01868e-06
-0.00245816
1.52118e-05
-0.00267325
3.98937e-05
-0.00282025
8.20121e-05
-0.0028496
0.000152003
-0.00267926
0.00026978
-0.00216416
0.000471667
-0.00104558
0.000822293
0.00111803
0.00505128
0.00145029
-3.96294e-06
-0.00154726
-7.29961e-06
-0.00191603
-8.45305e-06
-0.00220318
-5.72934e-06
-0.00246088
3.39322e-06
-0.00268237
2.24649e-05
-0.00283932
5.66192e-05
-0.00288376
0.000114811
-0.00273745
0.000213666
-0.00226302
0.000384231
-0.00121615
0.000679467
0.000822793
0.00455754
0.00117321
-4.99008e-06
-0.00154227
-9.92942e-06
-0.00191109
-1.33564e-05
-0.00219975
-1.36396e-05
-0.0024606
-8.48706e-06
-0.00268752
5.49899e-06
-0.00285331
3.29994e-05
-0.00291126
8.19859e-05
-0.00278644
0.000167482
-0.00234852
0.000317228
-0.00136589
0.000581318
0.000558702
0.00408189
0.00105697
-6.41707e-06
-0.00153586
-1.33908e-05
-0.00190412
-1.94924e-05
-0.00219365
-2.3256e-05
-0.00245683
-2.26283e-05
-0.00268815
-1.46342e-05
-0.0028613
4.93593e-06
-0.00293083
4.28554e-05
-0.00282436
0.000111802
-0.00241746
0.000235222
-0.00148931
0.000453934
0.00033999
0.00371151
0.000824318
-7.79444e-06
-0.00152806
-1.66595e-05
-0.00189525
-2.52844e-05
-0.00218502
-3.2365e-05
-0.00244975
-3.59941e-05
-0.00268452
-3.34787e-05
-0.00286382
-2.09375e-05
-0.00294337
7.74328e-06
-0.00285304
6.39663e-05
-0.00247369
0.000168632
-0.00159398
0.000356848
0.000151774
0.00337224
0.000696118
-9.19074e-06
-0.00151887
-1.99702e-05
-0.00188447
-3.11012e-05
-0.00217389
-4.13823e-05
-0.00243947
-4.91664e-05
-0.00267674
-5.19851e-05
-0.002861
-4.62556e-05
-0.0029491
-2.64474e-05
-0.00287285
1.78383e-05
-0.00251797
0.000106043
-0.00168218
0.00027304
-1.52241e-05
0.00307668
0.000568598
-1.05039e-05
-0.00150837
-2.30747e-05
-0.0018719
-3.64446e-05
-0.00216052
-4.96991e-05
-0.00242622
-6.13377e-05
-0.0026651
-6.91664e-05
-0.00285317
-6.99241e-05
-0.00294834
-5.84972e-05
-0.00288428
-2.55213e-05
-0.00255095
4.65591e-05
-0.00175426
0.000188519
-0.000157184
0.00280864
0.000456559
-1.16156e-05
-0.00149676
-2.56433e-05
-0.00185787
-4.10276e-05
-0.00214514
-5.68003e-05
-0.00241044
-7.17837e-05
-0.00265012
-8.40087e-05
-0.00284095
-9.04945e-05
-0.00294186
-8.6489e-05
-0.00288828
-6.31867e-05
-0.00257425
-3.71995e-06
-0.00181373
0.00012246
-0.000283364
0.00256272
0.000368376
-1.25618e-05
-0.00148419
-2.79259e-05
-0.00184251
-4.48076e-05
-0.00212826
-6.28551e-05
-0.0023924
-8.06684e-05
-0.00263231
-9.67419e-05
-0.00282487
-0.000108357
-0.00293024
-0.0001112
-0.00288544
-9.73686e-05
-0.00258808
-5.08202e-05
-0.00186028
5.79365e-05
-0.000392121
0.00233827
0.000282386
-1.3207e-05
-0.00147099
-2.94525e-05
-0.00182626
-4.7868e-05
-0.00210984
-6.74024e-05
-0.00237286
-8.74966e-05
-0.00261221
-0.000106686
-0.00280568
-0.000122672
-0.00291426
-0.000131685
-0.00287643
-0.000126609
-0.00259316
-9.3264e-05
-0.00189362
-4.60563e-06
-0.00048078
0.0021416
0.000192065
-1.37143e-05
-0.00145727
-3.05583e-05
-0.00180942
-4.98204e-05
-0.00209058
-7.07279e-05
-0.00235196
-9.24919e-05
-0.00259045
-0.000113983
-0.00278419
-0.000133179
-0.00289506
-0.00014684
-0.00286276
-0.000148306
-0.00259169
-0.000124665
-0.00191727
-5.1105e-05
-0.00055434
0.00196495
0.000125543
-1.41196e-05
-0.00144315
-3.17042e-05
-0.00179184
-5.17685e-05
-0.00207052
-7.37103e-05
-0.00233001
-9.68448e-05
-0.00256731
-0.000120202
-0.00276084
-0.000142304
-0.00287296
-0.0001608
-0.00284427
-0.000171106
-0.00258139
-0.000163375
-0.001925
-0.000119216
-0.000598499
0.0018811
-3.53606e-05
-1.42377e-05
-0.00142892
-3.19714e-05
-0.0017741
-5.2404e-05
-0.00205008
-7.49062e-05
-0.00230751
-9.84949e-05
-0.00254372
-0.000121982
-0.00273735
-0.000143915
-0.00285103
-0.000161664
-0.00282652
-0.000170828
-0.00257222
-0.000162274
-0.00193355
-0.000117792
-0.000642981
0.00172761
3.56939e-05
-1.44944e-05
-0.00141442
-3.31308e-05
-0.00175547
-5.41828e-05
-0.00202903
-7.76184e-05
-0.00228408
-0.000102366
-0.00251898
-0.00012716
-0.00271256
-0.000150153
-0.00282803
-0.000168656
-0.00280802
-0.000178174
-0.0025627
-0.000169562
-0.00194216
-0.000126466
-0.000686077
0.00166314
-6.19988e-05
-1.50059e-05
-0.00139942
-3.43886e-05
-0.00173609
-5.7079e-05
-0.00200634
-8.20522e-05
-0.0022591
-0.000108873
-0.00249216
-0.000136086
-0.00268534
-0.0001616
-0.00280252
-0.0001822
-0.00278742
-0.000192304
-0.0025526
-0.000182259
-0.00195221
-0.000133581
-0.000734756
0.00151333
1.62327e-05
-1.65402e-05
-0.00138288
-3.725e-05
-0.00171538
-6.17602e-05
-0.00198183
-8.92337e-05
-0.00223163
-0.000119305
-0.00246209
-0.000150876
-0.00265377
-0.000182211
-0.00277118
-0.000210552
-0.00275908
-0.000231168
-0.00253199
-0.000234905
-0.00194847
-0.000205841
-0.00076382
0.00144109
-0.000133602
-1.74028e-05
-0.00136548
-3.95145e-05
-0.00169326
-6.55367e-05
-0.00195581
-9.51568e-05
-0.00220201
-0.000128117
-0.00242913
-0.000163421
-0.00261847
-0.000200113
-0.00273449
-0.000236036
-0.00272315
-0.000267753
-0.00250027
-0.000288491
-0.00192773
-0.000284708
-0.000767604
0.00138698
-0.000230595
-1.79989e-05
-0.00134748
-4.10051e-05
-0.00167026
-6.78644e-05
-0.00192895
-9.88484e-05
-0.00217103
-0.000133229
-0.00239475
-0.000170864
-0.00258083
-0.000210324
-0.00269503
-0.000249606
-0.00268387
-0.000285044
-0.00246483
-0.00030927
-0.00190351
-0.000307615
-0.000769259
0.00131299
-0.000233632
-1.84283e-05
-0.00132905
-4.18354e-05
-0.00164685
-6.96465e-05
-0.00190114
-0.000101399
-0.00213928
-0.000137124
-0.00235902
-0.000176594
-0.00254136
-0.000218758
-0.00265287
-0.000262225
-0.0026404
-0.000304019
-0.00242304
-0.000337537
-0.00186999
-0.000350613
-0.000756184
0.0013238
-0.00036142
-1.83694e-05
-0.00131068
-4.16549e-05
-0.00162357
-6.94072e-05
-0.00187339
-0.000101329
-0.00210735
-0.000137284
-0.00232307
-0.000176881
-0.00250177
-0.000219218
-0.00261053
-0.000262522
-0.0025971
-0.000303137
-0.00238242
-0.000334267
-0.00183886
-0.000340149
-0.000750302
0.00122685
-0.000243193
-1.84493e-05
-0.00129223
-4.19945e-05
-0.00160002
-6.99543e-05
-0.00184543
-0.000102202
-0.00207511
-0.000138751
-0.00228652
-0.00017902
-0.0024615
-0.000222564
-0.00256699
-0.000267875
-0.00255179
-0.000312178
-0.00233812
-0.000349184
-0.00180185
-0.000366641
-0.000732845
0.00123751
-0.000377306
-1.8378e-05
-0.00127385
-4.19047e-05
-0.00157649
-6.9906e-05
-0.00181743
-0.000102379
-0.00204263
-0.000138931
-0.00224996
-0.00017965
-0.00242078
-0.000223553
-0.00252308
-0.000269022
-0.00250632
-0.000313443
-0.0022937
-0.000350967
-0.00176433
-0.000369245
-0.000714567
0.00119219
-0.000323923
-1.85814e-05
-0.00125527
-4.23739e-05
-0.0015527
-7.05619e-05
-0.00178924
-0.000103378
-0.00200982
-0.000140768
-0.00221257
-0.000182363
-0.00237918
-0.000227715
-0.00247773
-0.000275481
-0.00245856
-0.000323232
-0.00224595
-0.000365953
-0.00172161
-0.000393618
-0.000686901
0.00119398
-0.00039541
-1.8487e-05
-0.00123679
-4.23609e-05
-0.00152883
-7.09758e-05
-0.00176062
-0.000103982
-0.00197681
-0.000141805
-0.00217475
-0.000184262
-0.00233673
-0.000230909
-0.00243109
-0.000280718
-0.00240875
-0.000331463
-0.0021952
-0.000378954
-0.00167412
-0.000414733
-0.000651123
0.00120481
-0.000425568
-1.85928e-05
-0.00121819
-4.23655e-05
-0.00150506
-7.07744e-05
-0.00173222
-0.000103913
-0.00194367
-0.00014186
-0.0021368
-0.000184648
-0.00229394
-0.00023197
-0.00238376
-0.000282925
-0.00235779
-0.00033557
-0.00214256
-0.000385804
-0.00162388
-0.000424694
-0.000612233
0.0012149
-0.000434778
-1.83043e-05
-0.00119989
-4.19314e-05
-0.00148143
-7.02007e-05
-0.00170395
-0.000103107
-0.00191077
-0.000140898
-0.00209901
-0.000183396
-0.00225144
-0.000230646
-0.00233651
-0.000281776
-0.00230666
-0.000334909
-0.00208943
-0.00038582
-0.00157297
-0.000425206
-0.000572846
0.00121614
-0.000426452
-1.81383e-05
-0.00118175
-4.17161e-05
-0.00145785
-6.97486e-05
-0.00167591
-0.000102457
-0.00187806
-0.000139775
-0.0020617
-0.000182115
-0.0022091
-0.000229161
-0.00228947
-0.000280519
-0.0022553
-0.00033491
-0.00203504
-0.00038899
-0.00151889
-0.000436183
-0.000525653
0.00125751
-0.000477544
-1.78761e-05
-0.00116388
-4.11152e-05
-0.00143461
-6.90812e-05
-0.00164795
-0.000101369
-0.00184577
-0.000138348
-0.00202472
-0.000179909
-0.00216754
-0.000225819
-0.00224356
-0.000275471
-0.00220565
-0.000327284
-0.00198322
-0.000377968
-0.00146821
-0.000418542
-0.000485079
0.00125774
-0.000418781
-1.80095e-05
-0.00114587
-4.13444e-05
-0.00141128
-6.94903e-05
-0.0016198
-0.000102292
-0.00181297
-0.000139599
-0.00198741
-0.000181539
-0.0021256
-0.000227563
-0.00219753
-0.000276995
-0.00215622
-0.000328176
-0.00193204
-0.000377815
-0.00141857
-0.000418702
-0.000444191
0.00126857
-0.000429525
-1.84634e-05
-0.0011274
-4.24644e-05
-0.00138728
-7.13066e-05
-0.00159096
-0.000104956
-0.00177932
-0.000143591
-0.00194877
-0.000186976
-0.00208222
-0.000235124
-0.00214938
-0.00028743
-0.00210391
-0.00034289
-0.00187658
-0.000399385
-0.00136208
-0.000454025
-0.000389552
0.00134027
-0.000525733
-1.8798e-05
-0.0011086
-4.33425e-05
-0.00136273
-7.26364e-05
-0.00156167
-0.000107107
-0.00174485
-0.00014654
-0.00190934
-0.000191306
-0.00203745
-0.000240959
-0.00209973
-0.000294886
-0.00204999
-0.000351927
-0.00181954
-0.000409743
-0.00130426
-0.000462614
-0.00033668
0.0013615
-0.000483837
-1.90949e-05
-0.00108951
-4.39269e-05
-0.0013379
-7.39261e-05
-0.00153167
-0.000108872
-0.0017099
-0.000149303
-0.00186891
-0.000195282
-0.00199147
-0.000246735
-0.00204828
-0.000302961
-0.00199376
-0.000362716
-0.00175978
-0.000423116
-0.00124386
-0.000477871
-0.000281925
0.00139596
-0.000512337
-1.91928e-05
-0.00107032
-4.4251e-05
-0.00131284
-7.44152e-05
-0.0015015
-0.000109798
-0.00167452
-0.000150739
-0.00182797
-0.000197546
-0.00194466
-0.000250341
-0.00199548
-0.000308877
-0.00193523
-0.000372106
-0.00169656
-0.000437695
-0.00117827
-0.000501206
-0.000218414
0.00145782
-0.000563064
-1.93064e-05
-0.00105101
-4.40983e-05
-0.00128805
-7.41481e-05
-0.00147145
-0.000109378
-0.00163929
-0.000150172
-0.00178718
-0.000196746
-0.00189809
-0.000249444
-0.00194279
-0.00030807
-0.0018766
-0.000371786
-0.00163284
-0.000438305
-0.00111175
-0.000500642
-0.000156077
0.00149555
-0.000538367
-1.89577e-05
-0.00103205
-4.38827e-05
-0.00126313
-7.37577e-05
-0.00144158
-0.000108868
-0.00160418
-0.000149266
-0.00174678
-0.000195349
-0.00185201
-0.000247286
-0.00189085
-0.000304865
-0.00181902
-0.000367245
-0.00157046
-0.000432151
-0.00104685
-0.000494066
-9.41615e-05
0.00152981
-0.00052833
-1.90511e-05
-0.001013
-4.42301e-05
-0.00123795
-7.43008e-05
-0.00141151
-0.000109549
-0.00156893
-0.000150145
-0.00170618
-0.000196397
-0.00180575
-0.000248546
-0.0018387
-0.000306662
-0.0017609
-0.000370415
-0.00150671
-0.000438356
-0.000978906
-0.000508147
-2.43704e-05
0.00162357
-0.000601906
-1.92042e-05
-0.000993798
-4.45361e-05
-0.00121261
-7.51646e-05
-0.00138088
-0.000110609
-0.00153349
-0.00015147
-0.00166532
-0.000197802
-0.00175942
-0.000249654
-0.00178685
-0.00030678
-0.00170378
-0.000368115
-0.00144537
-0.000431472
-0.000915549
-0.000490407
3.4565e-05
0.0016473
-0.000514134
-1.98708e-05
-0.000973927
-4.59439e-05
-0.00118654
-7.74068e-05
-0.00134942
-0.000114113
-0.00149678
-0.000156274
-0.00162316
-0.000204139
-0.00171156
-0.000257868
-0.00173312
-0.000317423
-0.00164422
-0.000382396
-0.0013804
-0.000451704
-0.000846241
-0.000522356
0.000105217
0.00170456
-0.000579618
-2.05373e-05
-0.00095339
-4.75755e-05
-0.0011595
-8.00658e-05
-0.00131693
-0.000118009
-0.00145884
-0.000161548
-0.00157962
-0.000210941
-0.00166216
-0.000266446
-0.00167761
-0.000328271
-0.0015824
-0.000396418
-0.00131225
-0.000470498
-0.000772161
-0.00055017
0.000184889
0.00180883
-0.00065444
-2.12331e-05
-0.000932156
-4.9294e-05
-0.00113144
-8.28111e-05
-0.00128341
-0.000122057
-0.00141959
-0.000166928
-0.00153475
-0.000217862
-0.00161123
-0.000274746
-0.00162073
-0.000337415
-0.00151973
-0.000405308
-0.00124436
-0.000477077
-0.000700392
-0.000548737
0.000256549
0.00186188
-0.000601784
-2.21862e-05
-0.00090997
-5.13543e-05
-0.00110227
-8.64527e-05
-0.00124831
-0.000127225
-0.00137882
-0.000174158
-0.00148782
-0.000227442
-0.00155795
-0.00028722
-0.00156095
-0.000353378
-0.00145357
-0.000425386
-0.00117235
-0.000501959
-0.000623818
-0.000579815
0.000334405
0.00193005
-0.000647994
-2.30237e-05
-0.000886946
-5.32728e-05
-0.00107202
-8.95129e-05
-0.00121207
-0.000131824
-0.00133651
-0.000180489
-0.00143915
-0.000235728
-0.00150271
-0.00029794
-0.00149874
-0.00036707
-0.00138444
-0.000442909
-0.00109651
-0.000524458
-0.000542269
-0.000609745
0.000419692
0.00202013
-0.00069982
-2.38281e-05
-0.000863118
-5.49883e-05
-0.00104086
-9.25463e-05