/*--------------------------------*- C++ -*----------------------------------*\
| =========                 |                                                 |
| \\      /  F ield         | OpenFOAM: The Open Source CFD Toolbox           |
|  \\    /   O peration     | Version:  2.3.0                                 |
|   \\  /    A nd           | Web:      www.OpenFOAM.org                      |
|    \\/     M anipulation  |                                                 |
\*---------------------------------------------------------------------------*/
FoamFile
{
    version     2.0;
    format      ascii;
    class       volScalarField;
    location    "10000";
    object      nut;
}
// * * * * * * * * * * * * * * * * * * * * * * * * * * * * * * * * * * * * * //

dimensions      [0 2 -1 0 0 0 0];

internalField   nonuniform List<scalar> 
123136
(
0.0383449
0.0370787
0.0358322
0.0346048
0.033397
0.0322091
0.0310413
0.0298938
0.0287662
0.0276593
0.0265728
0.0255066
0.0244599
0.0234332
0.0224257
0.021438
0.0204699
0.0195201
0.0185891
0.0176768
0.0167823
0.0159056
0.015047
0.0142058
0.0133818
0.0125747
0.0117849
0.0110122
0.0102561
0.00951728
0.00879483
0.00809012
0.00740406
0.00673636
0.00608853
0.00546201
0.00485969
0.00428358
0.00373914
0.00323223
0.00276525
0.00232054
0.00173211
0.0389713
0.0378221
0.0366898
0.0355731
0.034472
0.0333861
0.0323161
0.0312618
0.030223
0.0292003
0.0281937
0.0272019
0.0262257
0.0252642
0.0243176
0.0233863
0.0224689
0.021566
0.0206779
0.0198029
0.0189417
0.018095
0.0172612
0.0164417
0.0156358
0.0148432
0.0140652
0.0133008
0.0125513
0.011817
0.0110976
0.0103957
0.00971288
0.00904965
0.00841001
0.00779648
0.00721228
0.00666081
0.00614963
0.00568204
0.00526321
0.00489718
0.00458445
0.0395662
0.0385224
0.0374919
0.036474
0.0354673
0.0344725
0.0334901
0.0325195
0.0315604
0.0306141
0.0296789
0.0287553
0.0278431
0.026942
0.0260518
0.0251725
0.0243037
0.0234461
0.0225989
0.0217618
0.0209358
0.0201196
0.0193133
0.018519
0.0177353
0.0169625
0.0162014
0.0154527
0.0147179
0.0139968
0.0132902
0.0126006
0.0119294
0.01128
0.0106539
0.0100558
0.00948677
0.00895336
0.00845785
0.0080067
0.00760315
0.0072501
0.00695046
0.0401294
0.0391788
0.0382393
0.0373086
0.0363867
0.035473
0.0345685
0.0336717
0.032784
0.031905
0.0310336
0.0301707
0.0293159
0.0284687
0.0276289
0.0267967
0.0259719
0.0251549
0.0243451
0.0235431
0.0227483
0.0219603
0.0211808
0.0204097
0.0196471
0.0188931
0.0181492
0.0174155
0.0166939
0.0159849
0.0152896
0.0146103
0.0139494
0.013309
0.0126926
0.012102
0.0115418
0.0110153
0.0105266
0.0100788
0.00967694
0.00932192
0.00901666
0.0406583
0.039791
0.0389323
0.03808
0.0372335
0.0363918
0.0355553
0.0347243
0.0338993
0.0330796
0.0322648
0.0314555
0.0306511
0.0298519
0.0290569
0.0282666
0.0274811
0.0267002
0.0259235
0.0251516
0.0243846
0.0236232
0.0228669
0.0221172
0.0213731
0.0206359
0.0199068
0.0191865
0.0184765
0.0177773
0.0170908
0.0164201
0.0157661
0.0151325
0.0145209
0.0139349
0.0133783
0.012855
0.0123672
0.0119193
0.0115142
0.011154
0.0108413
0.0411487
0.0403589
0.0395729
0.0387907
0.0380112
0.0372327
0.0364566
0.0356837
0.0349137
0.0341458
0.0333808
0.0326182
0.0318586
0.031101
0.030346
0.0295929
0.0288421
0.0280927
0.027345
0.0266
0.025858
0.0251188
0.024383
0.0236513
0.0229239
0.0222013
0.0214851
0.0207762
0.0200755
0.0193839
0.0187051
0.0180403
0.0173914
0.016762
0.0161541
0.0155709
0.015016
0.0144922
0.0140031
0.0135527
0.0131431
0.0127775
0.012458
0.041607
0.0408839
0.0401627
0.0394437
0.0387239
0.0380016
0.0372784
0.0365561
0.0358344
0.0351131
0.0343917
0.0336698
0.0329487
0.0322285
0.0315086
0.0307881
0.0300671
0.0293454
0.0286238
0.0279026
0.0271818
0.0264618
0.0257432
0.0250277
0.0243147
0.023605
0.0229001
0.0222
0.0215068
0.0208215
0.0201482
0.019488
0.0188435
0.0182174
0.0176116
0.0170293
0.0164747
0.0159501
0.0154585
0.0150044
0.0145905
0.0142192
0.0138926
0.042032
0.041368
0.0407033
0.0400414
0.0393773
0.0387046
0.038027
0.0373478
0.0366685
0.0359893
0.0353071
0.0346195
0.0339316
0.0332444
0.032556
0.0318636
0.0311698
0.0304723
0.0297741
0.0290739
0.0283709
0.0276669
0.0269639
0.0262616
0.0255609
0.0248628
0.0241673
0.0234761
0.0227882
0.0221081
0.0214384
0.0207815
0.02014
0.019517
0.018913
0.018331
0.0177758
0.0172501
0.0167561
0.0162988
0.0158791
0.015503
0.0151685
0.0424259
0.0418158
0.0411949
0.0405869
0.0399799
0.0393499
0.0387095
0.0380651
0.0374211
0.0367799
0.0361363
0.0354765
0.034815
0.0341548
0.033497
0.0328286
0.0321618
0.0314826
0.0308056
0.030126
0.0294375
0.0287482
0.0280573
0.027367
0.0266755
0.025987
0.0253014
0.0246196
0.023936
0.0232586
0.0225904
0.0219349
0.021295
0.0206734
0.0200743
0.0194928
0.0189354
0.0184082
0.0179117
0.0174547
0.0170254
0.0166479
0.0163025
0.00141197
0.00145741
0.00158221
0.00174324
0.00193178
0.00214433
0.00237661
0.00262448
0.00288455
0.00315178
0.00342358
0.0036994
0.00397807
0.00426049
0.00454724
0.00483987
0.0051386
0.0054453
0.00575952
0.00608235
0.00641418
0.00675502
0.00710636
0.00746734
0.0078395
0.00822318
0.00861884
0.0090272
0.00944884
0.00988463
0.0103348
0.0108006
0.011282
0.0117796
0.0122944
0.0128264
0.0133759
0.0139436
0.0145301
0.0151354
0.0157602
0.0164049
0.0170684
0.00434033
0.0041771
0.00410962
0.00413838
0.00422269
0.00433817
0.00447561
0.0046301
0.00479858
0.00498052
0.00517722
0.00538869
0.00561651
0.00586109
0.00612065
0.00639357
0.00667933
0.00697581
0.00728197
0.00759854
0.00792383
0.00825907
0.00860288
0.00895716
0.00932094
0.00969527
0.0100802
0.0104771
0.0108849
0.011305
0.0117373
0.0121822
0.0126403
0.0131115
0.0135962
0.0140948
0.0146076
0.0151349
0.0156768
0.016234
0.0168071
0.017397
0.0180047
0.00670326
0.00650636
0.00636078
0.00626796
0.00622407
0.00622287
0.00626093
0.00633384
0.00643908
0.00657342
0.00673913
0.006939
0.0071681
0.00741571
0.00767676
0.00794823
0.00822894
0.00851755
0.00881501
0.00912067
0.00943503
0.00975769
0.0100899
0.0104316
0.0107822
0.0111425
0.0115132
0.0118933
0.0122838
0.012684
0.0130953
0.0135164
0.0139484
0.014391
0.0148447
0.0153096
0.0157858
0.0162736
0.0167734
0.0172859
0.0178117
0.0183522
0.0189088
0.00875862
0.00854779
0.008382
0.00826333
0.00818822
0.00815441
0.00816042
0.00820182
0.00827576
0.00838083
0.00851464
0.00867485
0.00885827
0.00906189
0.00928322
0.00952072
0.00977215
0.0100361
0.0103126
0.0105995
0.0108973
0.0112053
0.0115231
0.0118505
0.0121872
0.0125335
0.0128882
0.0132519
0.0136242
0.0140054
0.0143949
0.0147933
0.0152007
0.0156169
0.0160423
0.0164772
0.0169213
0.0173753
0.0178396
0.0183142
0.0188002
0.019298
0.0198088
0.0105754
0.0103534
0.0101768
0.0100438
0.00995298
0.00990433
0.00989407
0.00991857
0.00997649
0.0100649
0.0101808
0.0103218
0.0104851
0.0106688
0.0108712
0.011089
0.0113222
0.0115691
0.0118277
0.0120981
0.0123792
0.0126702
0.0129712
0.0132819
0.013601
0.0139281
0.0142639
0.0146074
0.0149584
0.015317
0.0156827
0.0160559
0.0164364
0.0168245
0.0172202
0.0176232
0.018034
0.0184529
0.0188799
0.0193159
0.0197606
0.0202149
0.0206794
0.0121832
0.0119526
0.0117667
0.0116239
0.0115243
0.0114652
0.0114447
0.011459
0.0115063
0.0115843
0.0116892
0.0118187
0.0119711
0.0121429
0.0123322
0.0125388
0.0127596
0.0129931
0.0132388
0.0134965
0.013764
0.0140415
0.0143286
0.0146239
0.0149273
0.0152388
0.0155569
0.015882
0.0162133
0.0165502
0.0168937
0.0172431
0.0175991
0.0179608
0.0183284
0.0187018
0.0190813
0.0194674
0.0198602
0.0202597
0.0206661
0.0210799
0.0215009
0.01361
0.0133721
0.0131788
0.0130295
0.0129221
0.0128556
0.0128272
0.0128344
0.0128751
0.0129455
0.0130427
0.0131654
0.0133094
0.0134726
0.013654
0.0138509
0.0140619
0.0142861
0.0145222
0.0147686
0.0150264
0.0152934
0.0155687
0.015852
0.0161429
0.0164398
0.0167433
0.0170518
0.0173649
0.0176832
0.0180068
0.0183363
0.0186702
0.0190081
0.0193507
0.0196973
0.0200489
0.0204058
0.0207679
0.0211351
0.0215071
0.0218841
0.0222667
0.0148801
0.0146361
0.0144364
0.0142798
0.0141663
0.0140937
0.0140599
0.0140623
0.0140987
0.0141634
0.0142556
0.0143723
0.01451
0.0146663
0.0148411
0.0150316
0.0152344
0.0154507
0.015678
0.0159172
0.0161685
0.016427
0.0166922
0.0169647
0.0172458
0.0175297
0.0178211
0.0181149
0.0184112
0.0187131
0.0190202
0.019334
0.0196466
0.0199644
0.0202844
0.0206074
0.0209346
0.0212661
0.0216019
0.0219403
0.0222813
0.0226258
0.0229752
0.0160142
0.015763
0.0155572
0.0153941
0.0152755
0.0151987
0.0151604
0.0151593
0.0151944
0.0152534
0.0153413
0.0154535
0.0155855
0.0157346
0.0159076
0.0160901
0.0162857
0.0164962
0.0167161
0.016951
0.0171991
0.017448
0.0177025
0.0179673
0.0182429
0.0185101
0.0187981
0.0190721
0.0193536
0.0196449
0.0199382
0.0202427
0.0205271
0.0208334
0.0211306
0.0214335
0.0217407
0.0220514
0.0223652
0.0226772
0.0229915
0.0233081
0.0236325
0.0120334
0.01136
0.0107147
0.0100968
0.00950542
0.0089399
0.00839934
0.00788294
0.00738986
0.00691937
0.00647071
0.00604312
0.00563599
0.0052487
0.00488071
0.00453135
0.00419998
0.00388599
0.00358881
0.00330801
0.0030432
0.0027941
0.00256067
0.00234316
0.0021424
0.00195987
0.001798
0.00165782
0.00153528
0.00142511
0.00132333
0.00122705
0.0011342
0.00104316
0.00095261
0.000861408
0.000768514
0.000672917
0.00057364
0.000469662
0.000360126
0.00024558
9.61016e-05
0.0120407
0.0114162
0.0108161
0.0102395
0.00968557
0.0091535
0.00864263
0.00815231
0.00768185
0.00723063
0.00679801
0.0063834
0.00598628
0.00560613
0.00524256
0.00489509
0.00456321
0.00424647
0.00394443
0.00365667
0.00338292
0.00312288
0.00287645
0.00264368
0.00242493
0.00222104
0.00203365
0.0018658
0.0017186
0.00158805
0.00147005
0.00136117
0.00125858
0.00115993
0.00106328
0.000966978
0.000869568
0.000769789
0.000666504
0.000558774
0.000446573
0.000332518
0.000209271
0.0120521
0.0114743
0.0109176
0.0103806
0.00986259
0.00936279
0.00888059
0.00841547
0.00796691
0.00753439
0.00711743
0.00671556
0.00632836
0.00595544
0.00559649
0.00525118
0.00491922
0.00460023
0.0042939
0.00399995
0.00371814
0.00344826
0.00319022
0.00294402
0.00270984
0.00248814
0.00227998
0.00208785
0.00191588
0.00176259
0.00162461
0.00149898
0.00138286
0.00127351
0.00116841
0.00106528
0.000962135
0.000857261
0.000749153
0.000636844
0.000520888
0.000405593
0.000294344
0.0120669
0.0115307
0.0110133
0.0105125
0.0100274
0.00955728
0.00910158
0.00865984
0.00823168
0.00781667
0.00741443
0.00702465
0.00664699
0.00628119
0.00592698
0.00558416
0.00525254
0.00493197
0.0046222
0.00432305
0.00403435
0.003756
0.00348796
0.00323021
0.00298289
0.00274632
0.00252126
0.00230943
0.0021149
0.00193975
0.00178116
0.00163687
0.00150468
0.00138208
0.00126639
0.00115484
0.00104489
0.000934251
0.000820997
0.000704004
0.000584203
0.000467356
0.000363023
0.0120774
0.0115828
0.011102
0.0106344
0.0101793
0.0097363
0.00930483
0.00888454
0.00847511
0.00807627
0.00768775
0.00730929
0.00694067
0.00658169
0.00623218
0.00589204
0.00556117
0.0052395
0.00492695
0.00462341
0.00432881
0.00404314
0.00376638
0.0034986
0.00323995
0.00299069
0.0027514
0.00252327
0.00230935
0.00211425
0.00193614
0.00177317
0.00162389
0.00148652
0.00135857
0.00123721
0.00111947
0.0010025
0.000883892
0.000762239
0.000638726
0.000520456
0.000421853
0.0120863
0.0116303
0.0111836
0.0107465
0.010319
0.00990073
0.00949137
0.00909066
0.00869842
0.00831449
0.00793865
0.00757075
0.00721062
0.00685808
0.00651311
0.00617569
0.00584577
0.00552341
0.00520859
0.0049013
0.00460159
0.00430951
0.00402512
0.00374852
0.00347991
0.00321952
0.00296786
0.0027259
0.00249584
0.00228263
0.00208671
0.0019061
0.00173995
0.00158721
0.00144605
0.00131383
0.00118744
0.00106362
0.000939495
0.000813278
0.000686232
0.000566695
0.000473904
0.0120953
0.0116738
0.0112583
0.0108494
0.0104473
0.0100517
0.00966255
0.00927971
0.00890312
0.00853285
0.00816891
0.00781104
0.00745896
0.00711254
0.00677188
0.00643703
0.00610813
0.00578533
0.00546863
0.00515802
0.00485367
0.0045558
0.00426458
0.00398019
0.00370275
0.00343251
0.00316992
0.00291586
0.00267201
0.00244258
0.00223068
0.00203402
0.00185193
0.00168407
0.00152944
0.0013859
0.00125035
0.00111929
0.00098936
0.000858394
0.000728074
0.000607687
0.000521225
0.0121045
0.0117139
0.0113268
0.0109437
0.0105651
0.0101906
0.00982019
0.00945364
0.00909099
0.00873279
0.00838005
0.00803253
0.007689
0.00734884
0.00701249
0.00667992
0.00635171
0.00602862
0.00571057
0.00539726
0.00508824
0.00478435
0.00448633
0.00419471
0.00390989
0.00363124
0.00335865
0.00309354
0.00283754
0.00259338
0.00236647
0.00215514
0.00195864
0.00177617
0.00160737
0.00145174
0.00130664
0.0011684
0.00103339
0.000898954
0.000764276
0.000642868
0.000563727
0.012113
0.0117514
0.0113894
0.0110296
0.0106737
0.0103193
0.00996662
0.00961547
0.00926487
0.0089151
0.00857191
0.00823716
0.00790628
0.00757378
0.00724359
0.00691372
0.00658432
0.00626123
0.0059428
0.00563094
0.00531734
0.00500485
0.00469766
0.00439552
0.0041059
0.00382591
0.00354774
0.0032696
0.00300774
0.00275067
0.00250635
0.0022785
0.00206586
0.00188096
0.00170405
0.00153352
0.00137484
0.00122368
0.00107608
0.000931564
0.000805091
0.000680178
0.000605475
2.89464e-05
8.00949e-05
0.000177285
0.000283778
0.000405319
0.000539065
0.000685452
0.000844811
0.00101734
0.00120313
0.0014022
0.00161469
0.00184075
0.00208054
0.0023344
0.00260252
0.00288521
0.00318285
0.00349576
0.00382425
0.00416869
0.00452929
0.00490606
0.00529845
0.00570487
0.00612225
0.00654615
0.00697146
0.00739306
0.00780636
0.00820747
0.00859311
0.00896059
0.00930767
0.00963238
0.0099329
0.0102075
0.0104546
0.0106726
0.0108597
0.0110146
0.0111356
0.0112215
0.00012877
0.000179595
0.000292643
0.000418014
0.000561723
0.000719065
0.000889694
0.00107361
0.0012707
0.00148099
0.0017044
0.00194095
0.00219058
0.00245341
0.00272953
0.00301905
0.00332202
0.00363868
0.00396906
0.00431311
0.00467053
0.00504074
0.00542231
0.005813
0.00620964
0.00660846
0.00700553
0.00739703
0.00777968
0.00815066
0.00850761
0.0088486
0.009172
0.00947638
0.00976047
0.0100231
0.0102631
0.0104793
0.0106707
0.0108362
0.0109747
0.0110851
0.0111666
0.000225528
0.000280069
0.000407143
0.000557386
0.000727382
0.000911619
0.00110847
0.00131811
0.00154081
0.00177653
0.00202514
0.0022865
0.00256055
0.00284716
0.00314622
0.00345761
0.00378106
0.00411617
0.00446237
0.00481871
0.00518378
0.00555566
0.00593199
0.00630992
0.00668652
0.00705883
0.00742417
0.00778014
0.00812473
0.00845629
0.0087734
0.0090749
0.0093598
0.00962724
0.0098764
0.0101065
0.0103169
0.0105068
0.0106754
0.0108222
0.0109463
0.0110472
0.0111241
0.000310181
0.000381536
0.000531264
0.000711341
0.000910249
0.00112311
0.00134797
0.00158459
0.00183315
0.00209389
0.00236688
0.00265207
0.00294923
0.00325792
0.00357757
0.00390742
0.00424662
0.00459404
0.00494822
0.00530745
0.00566982
0.00603304
0.00639488
0.00675295
0.00710505
0.00744921
0.00778369
0.00810699
0.00841791
0.00871546
0.00899876
0.00926713
0.00951996
0.00975675
0.00997701
0.0101803
0.0103661
0.0105341
0.0106838
0.0108147
0.0109265
0.0110188
0.0110911
0.000388109
0.000484254
0.000660529
0.00087022
0.00109844
0.0013403
0.00159383
0.00185843
0.00213393
0.00242033
0.00271746
0.00302501
0.00334252
0.00366918
0.00400401
0.00434586
0.0046933
0.00504483
0.00539865
0.00575287
0.00610557
0.00645474
0.00679849
0.00713515
0.00746312
0.00778111
0.00808807
0.00838309
0.00866541
0.0089344
0.00918954
0.0094304
0.00965669
0.00986815
0.0100645
0.0102456
0.0104112
0.0105609
0.0106947
0.0108123
0.0109134
0.0109981
0.0110659
0.000461847
0.000586985
0.000791112
0.0010293
0.00128593
0.0015559
0.00183703
0.00212831
0.00242919
0.00273924
0.00305792
0.00338453
0.00371829
0.00405812
0.00440276
0.00475085
0.00510082
0.00545099
0.00579962
0.00614493
0.00648522
0.00681888
0.00714449
0.00746081
0.00776688
0.00806189
0.0083452
0.00861629
0.00887467
0.0091199
0.00935164
0.0095697
0.00977398
0.00996442
0.010141
0.0103037
0.0104524
0.0105869
0.0107073
0.0108135
0.0109054
0.0109832
0.0110467
0.00053248
0.000688266
0.000920386
0.00118588
0.00146946
0.00176571
0.0020722
0.00238758
0.00271092
0.00304132
0.00337786
0.00371944
0.00406506
0.00441365
0.00476381
0.00511407
0.00546293
0.0058088
0.00615001
0.00648502
0.0068124
0.00713093
0.00743959
0.00773759
0.00802431
0.00829944
0.00856274
0.00881385
0.00905237
0.00927787
0.0094901
0.0096891
0.00987501
0.010048
0.0102081
0.0103555
0.0104901
0.0106119
0.010721
0.0108173
0.0109012
0.0109727
0.011032
0.000599526
0.000787103
0.00104729
0.00133901
0.00164761
0.00196761
0.00229643
0.00263281
0.00297567
0.00332327
0.00367393
0.00402634
0.00437972
0.00473348
0.00508609
0.00543576
0.00578142
0.00612162
0.00645465
0.0067791
0.0070939
0.00739826
0.00769152
0.0079731
0.0082427
0.00850075
0.00874727
0.00898199
0.00920429
0.00941335
0.00960901
0.00979185
0.00996229
0.0101206
0.0102671
0.0104018
0.0105247
0.0106357
0.0107351
0.010823
0.0108997
0.0109656
0.0110209
0.000670352
0.000891164
0.00117862
0.00149333
0.00182274
0.00216189
0.00250786
0.00286238
0.00322343
0.00358594
0.00394713
0.0043055
0.00466234
0.00501907
0.00537231
0.0057192
0.00606066
0.00639485
0.0067195
0.00703345
0.0073361
0.0076276
0.00790731
0.0081739
0.00842755
0.00867116
0.00890405
0.00912614
0.00933562
0.00953039
0.00971131
0.00988039
0.0100378
0.0101838
0.0103191
0.0104436
0.0105566
0.0106583
0.0107494
0.0108299
0.0109004
0.0109611
0.0110126
2.28069e-05
0.000452002
0.000922872
0.0014384
0.0019886
0.00256646
0.00316626
0.00378752
0.00442741
0.00508517
0.00576079
0.00645463
0.00716668
0.0078953
0.00864226
0.00940772
0.0101918
0.0109937
0.0118144
0.0126547
0.013514
0.0143928
0.0152915
0.0162104
0.0171498
0.0181098
0.0190908
0.020093
0.0211165
0.0221619
0.0232293
0.0243185
0.0254295
0.026563
0.0277193
0.0288974
0.0300979
0.0313205
0.032565
0.0338313
0.0351189
0.0364266
0.0377557
1.51789e-05
0.000325097
0.000694755
0.00111849
0.00158928
0.00209865
0.00264156
0.0032151
0.00381599
0.00444102
0.0050908
0.0057638
0.00645791
0.00717362
0.00791083
0.00866828
0.00944585
0.0102437
0.0110628
0.0119026
0.0127632
0.0136447
0.0145474
0.0154712
0.0164166
0.0173838
0.0183725
0.019383
0.020416
0.0214712
0.0225489
0.0236484
0.0247708
0.0259158
0.0270831
0.0282728
0.0294854
0.0307203
0.031977
0.0332556
0.0345555
0.0358769
0.0372213
7.91145e-06
0.000262069
0.000579932
0.000947672
0.00136336
0.0018207
0.00231523
0.00284493
0.00340612
0.00399645
0.00461476
0.00525987
0.00593039
0.00662579
0.00734467
0.00808675
0.00885222
0.00964064
0.0104514
0.0112849
0.0121411
0.0130197
0.0139204
0.0148437
0.0157897
0.0167583
0.0177489
0.0187631
0.0198001
0.0208601
0.0219425
0.0230485
0.0241775
0.025329
0.0265033
0.0277007
0.0289211
0.030164
0.0314292
0.0327162
0.0340254
0.0353563
0.0367104
4.74171e-06
0.000224418
0.000515063
0.000849171
0.00122829
0.00164804
0.00210542
0.00259799
0.00312418
0.003681
0.00426763
0.00488357
0.0055279
0.00619864
0.00689537
0.00761863
0.00836755
0.00914044
0.00993833
0.0107607
0.0116076
0.0124781
0.013373
0.0142915
0.015234
0.0162
0.0171897
0.018203
0.0192405
0.0203017
0.0213864
0.0224952
0.0236272
0.024783
0.0259624
0.0271649
0.0283902
0.0296391
0.0309106
0.0322044
0.0335209
0.0348598
0.0362233
3.57861e-06
0.000200517
0.00046938
0.000776034
0.00112541
0.00151521
0.0019424
0.00240479
0.00290123
0.0034296
0.00398866
0.00457871
0.00519836
0.00584623
0.00652214
0.00722599
0.00795636
0.00871328
0.00949642
0.010306
0.0111409
0.0120014
0.0128873
0.0137984
0.0147346
0.0156959
0.0166817
0.0176919
0.0187279
0.0197879
0.0208724
0.0219811
0.0231147
0.0242727
0.0254546
0.02666
0.027889
0.0291422
0.0304183
0.0317173
0.0330395
0.0343834
0.0357513
2.52119e-06
0.000177068
0.000429778
0.000716309
0.00104377
0.00141024
0.00181315
0.00225128
0.00272317
0.00322715
0.00376266
0.00432909
0.00492613
0.00555223
0.00620752
0.00689139
0.0076038
0.00834413
0.00911191
0.00990692
0.0107287
0.0115775
0.012453
0.0133548
0.014283
0.0152372
0.0162169
0.0172229
0.0182548
0.0193119
0.0203944
0.0215023
0.0226352
0.0237931
0.0249759
0.0261831
0.0274146
0.0286704
0.0299499
0.031253
0.0325784
0.0339267
0.0352979
1.97772e-06
0.000160589
0.000400666
0.000671248
0.00098062
0.0013275
0.00170995
0.00212714
0.00257735
0.00306007
0.00357418
0.00411951
0.00469534
0.00530091
0.00593677
0.00660237
0.00729716
0.00802052
0.00877264
0.00955267
0.0103608
0.011197
0.0120611
0.0129529
0.0138717
0.0148174
0.0157902
0.01679
0.0178164
0.0188691
0.0199485
0.0210535
0.0221844
0.0233414
0.024524
0.0257316
0.0269643
0.0282218
0.0295033
0.0308086
0.0321374
0.033489
0.0348639
1.60276e-06
0.00014676
0.00037636
0.000633793
0.000927918
0.00125835
0.00162375
0.00202274
0.00245427
0.00291808
0.00341311
0.00393963
0.00449659
0.00508366
0.00570153
0.00634965
0.00702679
0.00773397
0.00847004
0.0092356
0.0100299
0.0108533
0.0117056
0.012586
0.0134948
0.0144314
0.0153962
0.0163888
0.0174085
0.0184561
0.0195308
0.020632
0.02176
0.0229149
0.0240961
0.0253032
0.0265358
0.0277934
0.029076
0.0303831
0.0317144
0.0330692
0.0344477
1.33736e-06
0.000135066
0.000355796
0.000602123
0.000883478
0.00119995
0.00155026
0.00193324
0.00234879
0.00279571
0.00327372
0.00378301
0.00432298
0.00489322
0.00549435
0.00612547
0.00678673
0.00747802
0.00819901
0.00895004
0.00973084
0.0105414
0.0113811
0.01225
0.013148
0.0140749
0.015031
0.0160154
0.0170282
0.0180691
0.0191382
0.020235
0.0213595
0.0225114
0.0236901
0.0248953
0.0261268
0.0273841
0.0286671
0.0299752
0.0313082
0.0326656
0.0340472
1.17943e-06
0.000125196
0.000338375
0.000575011
0.000845288
0.00114954
0.00148666
0.00185585
0.00225696
0.00268898
0.00315161
0.00364538
0.0041698
0.00472452
0.00530998
0.00592558
0.00657166
0.00724783
0.00795425
0.0086915
0.00945878
0.0102564
0.0110838
0.0119408
0.0128281
0.0137449
0.0146914
0.0156674
0.0166723
0.0177063
0.0187691
0.0198606
0.0209803
0.0221283
0.0233036
0.0245063
0.0257363
0.0269928
0.0282754
0.0295834
0.0309174
0.0322765
0.033662
1.10353e-06
0.000116557
0.00032338
0.00055146
0.000812039
0.00110528
0.00143075
0.00178782
0.00217572
0.00259438
0.00304358
0.00352315
0.00403312
0.00457352
0.00514438
0.00574567
0.00637733
0.00703944
0.00773221
0.00845567
0.00920969
0.00999439
0.0108094
0.0116553
0.0125315
0.0134379
0.0143749
0.0153418
0.0163386
0.0173652
0.0184212
0.0195065
0.0206209
0.021764
0.0229356
0.0241353
0.0253628
0.0266175
0.0278989
0.0292066
0.0305405
0.0319
0.0332859
1.0225e-06
0.000108985
0.000310311
0.000530735
0.000782662
0.00106622
0.00138128
0.0017273
0.00210351
0.00251027
0.00294698
0.00341348
0.00391026
0.00443732
0.0049945
0.00558216
0.00620044
0.00684943
0.0075291
0.00823938
0.00898066
0.00975281
0.0105563
0.0113906
0.0122557
0.0131519
0.0140789
0.0150367
0.0160249
0.0170435
0.0180923
0.0191713
0.0202798
0.0214176
0.0225849
0.0237809
0.025005
0.0262575
0.0275371
0.0288439
0.0301771
0.0315357
0.0329203
9.90317e-07
0.000102088
0.000298329
0.000512111
0.000756011
0.0010311
0.00133696
0.00167291
0.00203873
0.00243434
0.00285964
0.00331439
0.0037992
0.0043135
0.00485824
0.00543338
0.00603891
0.00667545
0.00734229
0.00803999
0.00876903
0.00952953
0.0103212
0.0111441
0.0119988
0.0128845
0.0138016
0.01475
0.0157296
0.01674
0.0177812
0.0188533
0.0199556
0.0210879
0.0222504
0.023442
0.0246627
0.0259119
0.0271894
0.0284947
0.0298266
0.0311844
0.0325687
9.71814e-07
9.5977e-05
0.000287547
0.000495325
0.000732058
0.000999425
0.00129677
0.00162358
0.00197964
0.00236517
0.00278
0.00322423
0.00369757
0.00420059
0.00473361
0.00529686
0.00589065
0.00651498
0.00716967
0.00785566
0.00857325
0.00932203
0.0101023
0.0109145
0.0117584
0.0126339
0.0135408
0.0144798
0.0154506
0.0164527
0.0174864
0.0185512
0.0196468
0.0207734
0.0219304
0.0231174
0.024334
0.02558
0.0268548
0.0281578
0.0294885
0.0308465
0.0322337
9.46682e-07
9.05105e-05
0.000277954
0.000480246
0.000710665
0.000970855
0.00126037
0.00157895
0.00192616
0.00230223
0.00270754
0.0031415
0.00360458
0.00409703
0.00461917
0.00517147
0.0057538
0.00636655
0.00701007
0.0076848
0.00839114
0.00912879
0.00989804
0.0106995
0.0115327
0.0123979
0.0132953
0.0142247
0.0151867
0.0161808
0.0172063
0.0182636
0.0193527
0.0204729
0.0216243
0.0228061
0.0240185
0.0252608
0.0265323
0.027833
0.0291623
0.0305189
0.0319042
9.20474e-07
8.55219e-05
0.00026905
0.000466487
0.000691028
0.000944541
0.00122686
0.0015378
0.00187698
0.00224446
0.00264066
0.00306529
0.00351859
0.00400134
0.00451351
0.00505513
0.00562663
0.00622886
0.00686162
0.0075255
0.008221
0.008948
0.00970671
0.0104974
0.0113203
0.0121759
0.0130634
0.0139837
0.014937
0.0159224
0.0169399
0.0179901
0.0190719
0.020186
0.0213312
0.0225077
0.0237156
0.0249538
0.0262217
0.0275195
0.0288466
0.0302028
0.0315894
8.97462e-07
8.10067e-05
0.000260752
0.000453745
0.000672728
0.000920338
0.00119618
0.00150001
0.00183169
0.00219131
0.00257899
0.00299471
0.00343925
0.0039126
0.0044149
0.00494645
0.00550828
0.00610049
0.00672306
0.00737676
0.00806157
0.00877821
0.00952676
0.0103074
0.0111205
0.0119661
0.0128445
0.0137557
0.0147
0.0156768
0.0166865
0.0177289
0.0188038
0.0199112
0.0210502
0.0222212
0.0234242
0.0246578
0.0259218
0.0272162
0.0285409
0.0298946
0.0312783
8.70316e-07
7.67931e-05
0.000253157
0.000442112
0.000655961
0.000897978
0.00116779
0.00146493
0.00178956
0.00214183
0.00252167
0.00292935
0.00336529
0.00382964
0.00432299
0.00484556
0.00539803
0.00598027
0.00659329
0.00723717
0.00791208
0.0086187
0.00935768
0.0101285
0.0109318
0.0117682
0.0126371
0.0135394
0.0144749
0.0154432
0.0164448
0.0174796
0.0185472
0.0196479
0.0207806
0.0219459
0.0231431
0.024372
0.0256321
0.0269228
0.0282439
0.0295944
0.0309744
8.43731e-07
7.29973e-05
0.000246081
0.000431275
0.000640508
0.000877257
0.00114131
0.00143247
0.00175067
0.00209598
0.00246857
0.00286855
0.00329628
0.00375241
0.00423718
0.00475119
0.00529471
0.00586776
0.0064713
0.0071057
0.00777117
0.00846856
0.00919791
0.00995916
0.0107535
0.0115805
0.0124405
0.0133336
0.0142602
0.0152202
0.0162139
0.0172409
0.0183014
0.0193949
0.0205214
0.0216805
0.0228721
0.0240963
0.0253519
0.0266382
0.0279554
0.0293022
0.0306785
8.18195e-07
6.95604e-05
0.000239628
0.000421284
0.000626191
0.000857925
0.00111653
0.00140202
0.00171412
0.0020529
0.0024186
0.00281152
0.00323176
0.00368005
0.00415683
0.00466245
0.00519736
0.00576196
0.00635662
0.00698191
0.00763853
0.00832667
0.00904677
0.00979918
0.0105842
0.0114021
0.0122532
0.0131375
0.0140558
0.0150077
0.015993
0.0170125
0.0180655
0.0191523
0.0202723
0.0214254
0.0226115
0.02383
0.0250806
0.0263629
0.0276758
0.029019
0.0303912
7.95732e-07
6.63665e-05
0.000233391
0.000411886
0.000612742
0.000839932
0.00109372
0.00137372
0.00168008
0.00201264
0.00237183
0.00275788
0.00317112
0.00361232
0.00408144
0.00457892
0.0051057
0.00566204
0.0062482
0.00686511
0.00751305
0.00819239
0.00890367
0.00964716
0.010423
0.0112325
0.0120749
0.0129507
0.0138608
0.0148043
0.015782
0.0167936
0.0178395
0.0189192
0.0200327
0.0211796
0.0223595
0.0235729
0.0248188
0.0260964
0.0274054
0.0287449
0.0301142
7.8351e-07
6.40018e-05
0.000227759
0.000403229
0.000600349
0.000823242
0.00107234
0.00134727
0.0016481
0.00197486
0.00232786
0.00270751
0.00311428
0.00354835
0.00400997
0.00450007
0.0050191
0.00556749
0.00614564
0.00675441
0.00739398
0.00806494
0.00876775
0.00950266
0.0102703
0.011071
0.0119046
0.0127723
0.0136741
0.0146098
0.0155794
0.0165836
0.0176221
0.0186948
0.0198018
0.0209422
0.0221164
0.0233244
0.0245653
0.0258385
0.0271434
0.0284801
0.0298486
7.76221e-07
6.2399e-05
0.000222441
0.000394977
0.00058856
0.000807461
0.00105213
0.00132218
0.00161786
0.00193922
0.00228666
0.00266015
0.00306033
0.00348755
0.00394252
0.00442571
0.00493751
0.0054783
0.00604869
0.00664926
0.00728077
0.00794357
0.00863822
0.00936518
0.0101245
0.0109167
0.0117424
0.0126019
0.0134955
0.0144232
0.0153852
0.0163819
0.0174131
0.0184789
0.0195792
0.0207133
0.0218819
0.0230843
0.02432
0.0255885
0.0268899
0.0282229
0.0295882
7.88373e-07
6.23163e-05
0.000217631
0.000387475
0.000577653
0.000792557
0.00103293
0.00129856
0.00158949
0.00190582
0.00224765
0.00261517
0.00300933
0.00343044
0.00387905
0.00435541
0.00485996
0.00539358
0.00595663
0.00654969
0.00717333
0.00782818
0.008515
0.00923373
0.00998513
0.0107693
0.0115872
0.012439
0.0133246
0.0142445
0.0151988
0.0161881
0.0172122
0.0182709
0.0193643
0.0204926
0.0216553
0.0228521
0.0240825
0.0253468
0.0266441
0.0279741
0.0293372
8.09959e-07
6.30823e-05
0.000213009
0.000380246
0.000567379
0.000778665
0.00101513
0.00127654
0.00156277
0.0018741
0.00221074
0.00257295
0.00296147
0.00337649
0.00381861
0.00428829
0.00478621
0.00531288
0.00586876
0.00645464
0.00707072
0.00771828
0.00839728
0.00910829
0.0098517
0.0106284
0.0114386
0.0122824
0.0131602
0.0140726
0.0150198
0.0160018
0.0170189
0.0180705
0.0191573
0.0202791
0.0214358
0.0226272
0.0238524
0.0251121
0.0264054
0.0277315
0.029091
8.36376e-07
6.44011e-05
0.00020888
0.000373519
0.000557611
0.000765453
0.000998125
0.00125545
0.00153725
0.00184394
0.00217545
0.00253256
0.00291554
0.00332492
0.00376097
0.00422443
0.00471618
0.00523596
0.00578505
0.00636396
0.00697309
0.00761322
0.00828481
0.00898817
0.00972425
0.0104936
0.011296
0.0121321
0.0130026
0.0139076
0.0148474
0.0158223
0.0168321
0.0178771
0.0189573
0.020073
0.0212236
0.0224093
0.0236293
0.0248841
0.026173
0.0274955
0.0288533
8.61401e-07
6.55989e-05
0.000204889
0.000367048
0.000548274
0.000752916
0.000982116
0.00123545
0.00151318
0.00181534
0.0021422
0.0024943
0.00287183
0.00327565
0.00370603
0.0041637
0.00464901
0.00516272
0.00570534
0.00627745
0.00687973
0.00751285
0.00817723
0.00887367
0.00960239
0.0103642
0.011159
0.0119879
0.0128511
0.0137484
0.0146812
0.0156489
0.0166517
0.0176901
0.0187644
0.0198735
0.0210181
0.0221979
0.0234126
0.0246623
0.0259463
0.0272645
0.0286165
8.85557e-07
6.65929e-05
0.000200961
0.000360909
0.000539489
0.000741048
0.000966644
0.00121622
0.00149012
0.00178816
0.00211065
0.00245793
0.0028305
0.00322896
0.00365388
0.0041057
0.00458503
0.00509264
0.00562894
0.00619454
0.00679014
0.00741651
0.00807425
0.00876361
0.00948503
0.0102395
0.0110272
0.0118491
0.012705
0.0135953
0.0145211
0.0154817
0.016478
0.01751
0.0185773
0.01968
0.0208188
0.0219928
0.0232019
0.0244464
0.0257257
0.0270385
0.0283845
9.12678e-07
6.75984e-05
0.00019751
0.00035525
0.000531136
0.000729674
0.000951958
0.00119809
0.00146813
0.00176195
0.00208024
0.00242298
0.00279084
0.00318443
0.003604
0.00405021
0.00452381
0.00502548
0.0055558
0.00611528
0.00670438
0.00732444
0.00797542
0.00865779
0.0093723
0.0101199
0.0109008
0.0117156