/*--------------------------------*- C++ -*----------------------------------*\
| =========                 |                                                 |
| \\      /  F ield         | OpenFOAM: The Open Source CFD Toolbox           |
|  \\    /   O peration     | Version:  2.3.0                                 |
|   \\  /    A nd           | Web:      www.OpenFOAM.org                      |
|    \\/     M anipulation  |                                                 |
\*---------------------------------------------------------------------------*/
FoamFile
{
    version     2.0;
    format      ascii;
    class       surfaceScalarField;
    location    "9000";
    object      phi;
}
// * * * * * * * * * * * * * * * * * * * * * * * * * * * * * * * * * * * * * //

dimensions      [0 3 -1 0 0 0 0];

internalField   nonuniform List<scalar> 
13273
(
-0.0139543
-0.0278587
0.0315796
0.0102334
-0.01712
-0.0235146
0.0266802
-0.0198355
-0.0198376
0.0225531
-0.0221189
-0.0167346
0.0190181
-0.0239225
-0.0141009
0.0159045
-0.0251899
-0.0118485
0.0131159
-0.025903
-0.00990395
0.010617
-0.0260889
-0.00822562
0.00841152
-0.0258114
-0.0067767
0.00649918
-0.0251409
-0.00554244
0.00487194
-0.024156
-0.00449624
0.00351143
-0.00361455
-0.0229618
0.00242026
-0.0122869
-0.0248761
0.00930427
-0.0146033
-0.0211982
-0.0163577
-0.0180832
-0.0176407
-0.0154516
-0.0185122
-0.0132294
-0.0190025
-0.0113582
-0.0191231
-0.00978336
-0.0188894
-0.00845931
-0.0183135
-0.00735261
-0.0174268
-0.00642911
-0.0162609
-0.00566217
-0.00503307
-0.0148424
-0.0108838
-0.0223591
0.00836687
-0.0127617
-0.0193203
-0.0140852
-0.0167597
-0.0149311
-0.0146057
-0.0153677
-0.0127928
-0.0154586
-0.0112673
-0.0152587
-0.00998332
-0.0148135
-0.00890451
-0.0141671
-0.00799902
-0.0133553
-0.00724084
-0.0124095
-0.00660802
-0.00608319
-0.0113594
-0.009582
-0.0202282
0.00745114
-0.0111365
-0.0177658
-0.0121991
-0.0156972
-0.0128462
-0.0139587
-0.0131425
-0.0124964
-0.0131443
-0.0112655
-0.0128992
-0.0102284
-0.0124484
-0.00935525
-0.0118289
-0.00861854
-0.0110719
-0.00799788
-0.0102049
-0.00747496
-0.00703637
-0.00925176
-0.0084439
-0.0183933
0.00660892
-0.00975884
-0.0164508
-0.0106371
-0.0148189
-0.0111496
-0.0134462
-0.0113566
-0.0122893
-0.0113098
-0.0113124
-0.0110538
-0.0104844
-0.010626
-0.00978306
-0.0100569
-0.00918765
-0.00937453
-0.00868022
-0.00860082
-0.00824868
-0.00788271
-0.00775448
-0.00746108
-0.0167929
0.00586073
-0.00859745
-0.0153144
-0.0093458
-0.0140705
-0.00977228
-0.0130198
-0.00993136
-0.0121303
-0.0098692
-0.0113745
-0.00962329
-0.0107303
-0.00922731
-0.010179
-0.00870879
-0.00970618
-0.00808912
-0.00929989
-0.007389
-0.00894879
-0.00864714
-0.00662458
-0.00661352
-0.0153823
0.00520295
-0.007607
-0.014321
-0.00825683
-0.0134207
-0.00862163
-0.012655
-0.00874922
-0.0120027
-0.00868147
-0.0114423
-0.00845246
-0.0109593
-0.00808944
-0.0105421
-0.00761808
-0.0101775
-0.00705738
-0.00986059
-0.00642428
-0.00958189
-0.00933794
-0.00573348
-0.00588028
-0.014136
0.00463399
-0.00675729
-0.013444
-0.00732944
-0.0128485
-0.00764656
-0.0123378
-0.00775382
-0.0118954
-0.00768605
-0.0115101
-0.00747399
-0.0111714
-0.00714384
-0.0108722
-0.00671526
-0.0106061
-0.0062069
-0.010369
-0.00563358
-0.0101552
-0.00996432
-0.0050072
-0.00523935
-0.0130229
0.00412619
-0.0060212
-0.0126621
-0.00652881
-0.0123409
-0.00680964
-0.012057
-0.00690111
-0.0118039
-0.00683656
-0.0115746
-0.00664212
-0.0113658
-0.00634143
-0.0111729
-0.005952
-0.0109956
-0.00549087
-0.0108301
-0.00497079
-0.0106753
-0.0105328
-0.00440229
-0.00467982
0.00367236
-0.0120154
-0.00537955
-0.0119624
-0.00583324
-0.0118872
-0.00608235
-0.0118079
-0.00616236
-0.0117239
-0.00610214
-0.0116348
-0.00592421
-0.0115438
-0.00565003
-0.0114471
-0.00529778
-0.0113478
-0.00487855
-0.0112493
-0.00440799
-0.0111459
-0.00389231
-0.0110485
-0.0200823
-0.00333223
0.000452806
-0.017594
-0.00359885
0.0011105
-0.0152271
-0.00401164
0.00164479
-0.0129568
-0.00456846
0.00229808
-0.0108204
-0.00528275
0.00314638
-0.00888281
-0.0061839
0.00424632
-0.00723014
-0.00730709
0.00565443
-0.00595481
-0.00869984
0.0074245
-0.00514831
-0.0104176
0.00961107
-0.00488585
-0.0125337
0.0122713
-0.00523613
-0.0151324
0.0154827
-0.018323
0.0193616
-0.00627477
-0.0132997
-0.00487494
-0.0117543
-0.00514422
-0.010268
-0.00549794
-0.00888381
-0.00595264
-0.00763346
-0.00653309
-0.00655166
-0.0072657
-0.00567345
-0.00818529
-0.00504055
-0.00933274
-0.00470046
-0.0107577
-0.00471688
-0.0125173
-0.00517148
-0.0146778
-0.0173294
-0.00616507
-0.0102787
-0.00595561
-0.00922269
-0.00620023
-0.00820847
-0.00651216
-0.00725023
-0.00691088
-0.00637121
-0.00741211
-0.005598
-0.00803891
-0.00496746
-0.00881583
-0.00452303
-0.00977717
-0.00432085
-0.0109598
-0.00442632
-0.0124118
-0.00491513
-0.014189
-0.0163655
-0.00587899
-0.00828439
-0.00692298
-0.00736722
-0.0071174
-0.00650994
-0.00736944
-0.00572751
-0.00769332
-0.00503794
-0.00810169
-0.00446307
-0.00861377
-0.00402905
-0.00924986
-0.00377006
-0.0100362
-0.00372781
-0.0110021
-0.00395314
-0.0121865
-0.00450996
-0.0136322
-0.0153977
-0.00547782
-0.00690078
-0.00777668
-0.00610127
-0.00791691
-0.00536355
-0.00810716
-0.00470196
-0.00835491
-0.00413125
-0.00867239
-0.00367128
-0.00907374
-0.00334454
-0.0095766
-0.00318219
-0.0101985
-0.00321979
-0.0109645
-0.00350322
-0.0119031
-0.00408604
-0.0130494
-0.014445
-0.00503874
-0.00585717
-0.00854408
-0.00514161
-0.00863248
-0.00448929
-0.00875948
-0.00391136
-0.00893284
-0.00342199
-0.00916176
-0.00303847
-0.00945727
-0.00278376
-0.0098313
-0.00268353
-0.0102987
-0.00277079
-0.0108772
-0.00308462
-0.0115892
-0.00367373
-0.0124603
-0.013521
-0.00459768
-0.00503985
-0.00923771
-0.00439734
-0.00927499
-0.00381423
-0.00934259
-0.003302
-0.00944507
-0.00287414
-0.00958962
-0.00254693
-0.00978448
-0.00233995
-0.0100383
-0.00227807
-0.0103606
-0.00239092
-0.0107644
-0.00271503
-0.0112651
-0.00329288
-0.0118825
-0.0126367
-0.0041772
-0.00437914
-0.00986577
-0.00379878
-0.00985534
-0.0032748
-0.00986658
-0.00281796
-0.00990191
-0.00243944
-0.00996814
-0.00215442
-0.0100695
-0.00198163
-0.0102111
-0.00194548
-0.0103968
-0.00207122
-0.0106387
-0.00239131
-0.010945
-0.00294617
-0.0113276
-0.0117992
-0.00378361
-0.00383296
-0.0104351
-0.00330851
-0.0103798
-0.00283649
-0.0103386
-0.00242581
-0.0103126
-0.00208915
-0.0103048
-0.00183761
-0.010321
-0.00169056
-0.0103581
-0.00167045
-0.0104169
-0.00180056
-0.0105085
-0.00211006
-0.0106355
-0.00263541
-0.0108022
-0.0110135
-0.00342113
-0.00337526
-0.0109522
-0.00289961
-0.0108554
-0.00247299
-0.0107652
-0.00210424
-0.0106813
-0.00180387
-0.0106052
-0.00158115
-0.0105438
-0.00145318
-0.0104861
-0.00144499
-0.0104251
-0.00157286
-0.0103807
-0.00186645
-0.0103419
-0.00235838
-0.0103103
-0.0102839
-0.00308803
0.00142221
0.0174038
-0.0189781
0.000152129
0.00237867
0.0138524
-0.0148088
0.00288496
0.0110755
-0.0115818
0.00306626
0.00889428
-0.00907558
0.00301435
0.00717151
-0.0071196
0.00279634
0.00580311
-0.0055851
0.00246314
0.00470894
-0.00437574
0.00205262
0.00382802
-0.0034175
0.00159142
0.00311402
-0.00265282
0.00108495
0.00254312
-0.00203665
0.000468048
0.00215981
-0.00154291
0.00227302
-0.000572306
-0.00123266
0.00127369
0.0159751
0.000154966
0.00215224
0.0129738
0.00262591
0.0106018
0.00280205
0.00871814
0.00276035
0.0072132
0.00256144
0.00600203
0.0022507
0.00501967
0.00186169
0.00421703
0.00141408
0.00356163
0.00089953
0.00305767
0.000247393
0.00281195
0.0031747
-0.000654287
0.00114128
0.0146768
0.00015701
0.00194719
0.0121679
0.00238592
0.0101631
0.00255179
0.00855228
0.00251611
0.00724888
0.00233267
0.00618547
0.00204261
0.00530974
0.00167482
0.00458482
0.00124278
0.00399366
0.000735349
0.0035651
0.000102715
0.00344458
0.0039757
-0.000698284
0.00102089
0.0134995
0.000156429
0.00175805
0.0114307
0.00216346
0.00975768
0.00231969
0.00839604
0.00228988
0.00727869
0.00212214
0.0063532
0.0018528
0.00557908
0.00150721
0.00493041
0.00109674
0.00440413
0.00061181
0.00405003
1.95027e-05
0.00403689
0.00470214
-0.000706938
0.000915074
0.0124345
0.000149991
0.00158882
0.010757
0.00196322
0.00938328
0.00211023
0.00824903
0.00208549
0.00730342
0.00193215
0.00650654
0.00168262
0.00582862
0.00135989
0.00525314
0.00097447
0.00478956
0.000519937
0.00450457
-2.73792e-05
0.0045842
0.00536851
-0.000693751
0.000818975
0.0114627
0.000152764
0.00143658
0.0101394
0.00178275
0.00903712
0.00192081
0.00811096
0.00190025
0.00732399
0.00175979
0.006647
0.00152931
0.00605909
0.00122899
0.00555347
0.000869361
0.00514918
0.000446971
0.00492696
-5.69413e-05
0.00508812
0.00598144
-0.000669867
0.000736725
0.0105827
0.000143303
0.00130104
0.00957508
0.00161966
0.0087185
0.00174904
0.00798158
0.00173258
0.00734045
0.00160429
0.00677529
0.0013915
0.00627188
0.00111295
0.00583202
0.000779255
0.00548288
0.000388489
0.00531772
-7.51768e-05
0.00555178
0.00654581
-0.000639553
0.000664051
0.00978125
0.00013739
0.0011791
0.00906003
0.00147241
0.00842519
0.00159338
0.00786061
0.00158043
0.00735339
0.00146385
0.00689187
0.00126798
0.00646776
0.00100889
0.00609111
0.000697585
0.00579418
0.000335009
0.0056803
-9.24405e-05
0.00597923
0.00706324
-0.000609865
0.000600643
0.00904795
0.00013266
0.00107083
0.00858984
0.00133911
0.00815691
0.00145211
0.00774761
0.00144341
0.0073621
0.00133614
0.00699914
0.0011596
0.0066443
0.000920156
0.00633055
0.000631259
0.00608307
0.000295517
0.00601604
-9.85059e-05
0.00637325
0.00753909
-0.00057436
0.000543173
0.00838166
0.000123111
0.000967089
0.00816593
0.00121268
0.00791132
0.00131928
0.00764101
0.0013149
0.00736648
0.00121691
0.00709713
0.00105502
0.00680619
0.000828047
0.00655753
0.000552525
0.00635859
0.000235578
0.00633299
-0.000130077
0.00673891
-0.00055514
0.00796415
-0.0014963
0.00359513
-0.00267114
-0.0025793
0.00472717
-0.00364417
-0.0036211
0.00573971
-0.00469791
-0.00454257
0.00681098
-0.00588951
-0.00528437
0.00801552
-0.00727371
-0.00579122
0.0093944
-0.00888756
-0.00601126
0.0109897
-0.0107697
-0.00589422
0.0128518
-0.0129688
-0.00538275
0.0150492
-0.0155607
-0.00441295
0.0176563
-0.0186261
-0.0029012
0.0207566
-0.0222683
0.0244549
-0.0266075
-0.000748549
-0.00157546
0.0045163
-0.00259437
0.00574608
-0.00355108
0.00669642
-0.00437798
0.00763788
-0.00502793
0.00866546
-0.00545799
0.00982447
-0.00562772
0.0111594
-0.00549751
0.0127216
-0.0050135
0.0145652
-0.0041152
0.016758
-0.00272629
0.0193677
0.022482
-0.000753413
-0.00157216
0.00539018
-0.00250979
0.00668371
-0.00338092
0.00756755
-0.00412515
0.00838212
-0.00470458
0.00924488
-0.00508227
0.0102022
-0.00522536
0.0113025
-0.00509626
0.0125925
-0.00464779
0.0141167
-0.00382005
0.0159302
-0.00254754
0.0180952
0.0206779
-0.000743489
-0.00152747
0.00621071
-0.00238683
0.00754306
-0.00317619
0.00835692
-0.00384484
0.00905076
-0.00435951
0.00975955
-0.00469561
0.0105383
-0.00481963
0.0114266
-0.00469674
0.0124696
-0.00428417
0.0137041
-0.0035311
0.0151772
-0.00236877
0.0169328
0.0190323
-0.000723139
-0.0014568
0.00697376
-0.00224302
0.00832928
-0.00295836
0.00907226
-0.00356071
0.00965311
-0.0040228
0.0102216
-0.00431988
0.0108353
-0.00442981
0.0115365
-0.00431764
0.0123574
-0.0039415
0.013328
-0.00325127
0.0144869
-0.00219368
0.0158753
0.0175355
-0.000696883
-0.00137435
0.00767824
-0.00209138
0.00904631
-0.00273879
0.00971967
-0.0032808
0.0101951
-0.00369661
0.0106374
-0.00396515
0.0111039
-0.00406337
0.0116347
-0.003957
0.0122511
-0.00361392
0.0129849
-0.00298957
0.0138626
-0.00202584
0.0149115
0.0161715
-0.000661865
-0.00128861
0.0083273
-0.00194152
0.00969923
-0.00252702
0.0103052
-0.00301564
0.0106837
-0.00338978
0.0110116
-0.00363142
0.0113455
-0.00371858
0.0117219
-0.00362275
0.0121552
-0.00331139
0.0126735
-0.00274132
0.0132925
-0.00186786
0.0140381
0.0149286
-0.000624944
-0.00120128
0.00891872
-0.001793
0.0102909
-0.00232281
0.010835
-0.00276486
0.0111258
-0.00310155
0.0113483
-0.00332142
0.0115654
-0.00339827
0.0117987
-0.00331159
0.0120686
-0.00302979
0.0123917
-0.00251197
0.0127747
-0.00171477
0.0132409
0.0138005
-0.000586656
-0.00111854
0.0094629
-0.00165797
0.0108304
-0.00213692
0.0113139
-0.0025303
0.0115192
-0.00283729
0.0116553
-0.0030335
0.0117616
-0.00310226
0.0118675
-0.00302432
0.0119906
-0.00276632
0.0121337
-0.00229852
0.0123069
-0.00157559
0.012518
0.0127736
-0.0005487
-0.00102869
0.00993645
-0.00151221
0.0113139
-0.0019511
0.0117528
-0.00231153
0.0118796
-0.0025862
0.0119299
-0.00276515
0.0119406
-0.00283329
0.0119356
-0.00276079
0.0119181
-0.00252824
0.0119012
-0.00210037
0.011879
-0.00144172
0.0118593
-0.00051255
0.0118444
0.00368932
-0.00126906
0.00667008
0.000530668
0.00911554
0.00242648
0.0110461
0.00456861
0.0124399
0.0070177
0.0132683
0.00978861
0.0135256
0.0128587
0.0132512
0.0161789
0.0125518
0.0197174
0.0115897
0.0235152
0.0105411
0.0277288
0.0325868
0.00953393
0.000122575
-0.00139164
0.00130152
-0.000648282
0.00305388
0.000674123
0.00504991
0.00257259
0.00699222
0.00507539
0.00863031
0.00815053
0.00979291
0.0116961
0.0104026
0.0155692
0.0104809
0.019639
0.0101372
0.023859
0.00953477
0.0283312
0.0332924
0.00882924
-0.000272671
-0.00111897
-0.00029902
-0.000621933
0.0002186
0.000156503
0.00134699
0.0014442
0.00295506
0.00346732
0.00476194
0.00634365
0.00643411
0.0100239
0.00769661
0.0143067
0.00841356
0.0189221
0.00860446
0.0236681
0.00840549
0.0285302
0.0337164
0.00798148
-0.000100634
-0.00101833
-0.000121855
-0.000600712
-1.91169e-05
5.37646e-05
0.000363544
0.00106154
0.00117884
0.00265202
0.00243625
0.00508623
0.00394788
0.00851226
0.00540028
0.0128543
0.00650325
0.0178191
0.00711808
0.0230533
0.00728225
0.028366
0.0338572
0.00714138
-0.000122902
-0.00089543
-0.000208036
-0.000515578
-0.000211096
5.68242e-05
-6.64339e-05
0.000916877
0.000340392
0.0022452
0.00112251
0.00430412
0.00227858
0.00735619
0.00362604
0.0115069
0.00486741
0.0165777
0.0057541
0.0221666
0.00620624
0.0279139
0.0337707
0.00629277
-0.000117465
-0.000777965
-0.000204538
-0.000428504
-0.000242802
9.50879e-05
-0.000199737
0.000873812
-4.22568e-06
0.00204969
0.000451382
0.00384851
0.0012519
0.00655567
0.00235746
0.0104013
0.00355741
0.0153778
0.0045726
0.0211514
0.00522863
0.0272579
0.0334808
0.0055185
-0.000112299
-0.000665666
-0.000210372
-0.000330431
-0.000276002
0.000160718
-0.000284551
0.000882361
-0.000191034
0.00195617
8.15446e-05
0.00357593
0.00062551
0.00601171
0.00148132
0.00954549
0.00254763
0.0143115
0.00358503
0.020114
0.00436659
0.0264763
0.03303
0.00481739
-0.000105492
-0.000560173
-0.000202086
-0.000233836
-0.000277713
0.000236345
-0.000315191
0.000919838
-0.00028219
0.00192317
-0.000121737
0.00341548
0.000246263
0.00564371
0.000890174
0.00890158
0.00178922
0.0134125
0.00277567
0.0191275
0.0036144
0.0256376
0.0324795
0.00416496
-9.90606e-05
-0.000461113
-0.000194128
-0.000138769
-0.000274964
0.000317181
-0.000328377
0.000973251
-0.000330755
0.00192555
-0.000238918
0.00332364
1.19126e-05
0.00539288
0.000493621
0.00841987
0.00123068
0.0126754
0.00212527
0.0182329
0.00296912
0.0247937
0.0318614
0.0035872
-9.2688e-05
-0.000368426
-0.000184058
-4.73976e-05
-0.000266063
0.000399186
-0.000328372
0.00103556
-0.00035264
0.00194981
-0.000305686
0.00327669
-0.000134323
0.00522152
0.000227017
0.00805853
0.000823795
0.0120786
0.00161299
0.0174437
0.0024285
0.0239782
0.0312094
0.00308044
-8.66975e-05
-0.00028173
-0.000173937
3.98429e-05
-0.000255052
0.0004803
-0.00032155
0.00110206
-0.000359265
0.00198753
-0.00034181
0.00325924
-0.000225654
0.00510536
4.74589e-05
0.00778542
0.000529858
0.0115962
0.00121581
0.0167578
0.00198564
0.0232084
0.0305367
0.00265837
-8.10362e-05
-0.000200697
-0.000163719
0.000122526
-0.000242561
0.000559141
-0.000310752
0.00117025
-0.000356633
0.00203341
-0.000358969
0.00326157
-0.000281767
0.00502816
-7.42066e-05
0.00757786
0.000316851
0.0112052
0.000907464
0.0161672
0.00161982
0.022496
0.0298594
0.00229709
-7.59298e-05
-0.000124766
-0.000154055
0.000200653
-0.000230105
0.00063519
-0.000298214
0.00123836
-0.000348837
0.00208403
-0.000364617
0.00327735
-0.000315518
0.00497906
-0.000157439
0.00741978
0.000160369
0.0108874
0.00066638
0.0156612
0.00131516
0.0218472
0.0291999
0.00197466
-7.13365e-05
-5.34359e-05
-0.000145119
0.000274436
-0.000218019
0.000708088
-0.000285106
0.00130545
-0.000338373
0.0021373
-0.000363396
0.00330238
-0.000334933
0.0049506
-0.000214679
0.00729952
4.42359e-05
0.0106284
0.000476565
0.0152288
0.00106061
0.0212632
0.0285701
0.00169049
-6.69948e-05
1.35605e-05
-0.000136561
0.000344003
-0.000206161
0.000777687
-0.000271593
0.00137088
-0.000325985
0.00219169
-0.00035725
0.00333364
-0.000343957
0.0049373
-0.000252729
0.00720829
-4.08068e-05
0.0104165
0.000329559
0.0148585
0.000853682
0.0207391
0.0279692
0.00145457
-6.25583e-05
7.61036e-05
-0.000128178
0.000409623
-0.000194535
0.00084404
-0.000257952
0.0014343
-0.000312489
0.00224622
-0.000347947
0.0033691
-0.000346054
0.00493541
-0.000277495
0.00713973
-0.000103659
0.0102427
0.000213368
0.0145414
0.000680119
0.0202723
0.0274179
0.00123142
-5.81749e-05
0.000134277
-0.000120007
0.000471456
-0.000183076
0.000907106
-0.000244232
0.00149545
-0.000298237
0.00230023
-0.000336217
0.00340708
-0.000342328
0.00494152
-0.000290878
0.00708828
-0.000146395
0.0100982
0.000128419
0.0142666
0.000550856
0.0198499
0.0268779
0.00109084
-5.42087e-05
0.000188454
-0.000112368
0.000529611
-0.000172187
0.000966917
-0.000230742
0.00155401
-0.000283634
0.00235311
-0.000322895
0.00344634
-0.000334657
0.00495328
-0.00029643
0.00705005
-0.000175626
0.00997738
6.4436e-05
0.0140266
0.000446279
0.019468
0.0263872
0.000936934
-5.06387e-05
0.000239094
-0.000105429
0.000584401
-0.000162172
0.00102366
-0.000218322
0.00161016
-0.000269738
0.00240453
-0.000309644
0.00348624
-0.000325885
0.00496951
-0.000298269
0.00702243
-0.000197631
0.00987674
1.03555e-05
0.0138186
0.000349982
0.0191284
0.0259369
0.000800272
-4.74118e-05
0.000286437
-9.90953e-05
0.000636067
-0.000152955
0.0010775
-0.000206652
0.00166385
-0.000256565
0.00245443
-0.000296607
0.00352628
-0.00031609
0.00498899
-0.000296935
0.00700327
-0.000213076
0.00979288
-3.18586e-05
0.0136373
0.000271686
0.0188249
0.0255217
0.000686893
-4.44135e-05
0.00033085
-9.31654e-05
0.000684809
-0.000144251
0.00112858
-0.000195559
0.00171515
-0.000243786
0.00250265
-0.000283529
0.00356601
-0.000305244
0.0050107
-0.000292891
0.00699091
-0.000222464
0.00972244
-6.3977e-05
0.0134788
0.000208494
0.0185524
0.0251399
0.000590295
-4.18902e-05
0.000372576
-8.77709e-05
0.000730632
-0.000136172
0.00117696
-0.000185087
0.00176404
-0.000231499
0.00254906
-0.000270545
0.00360505
-0.000293691
0.00503384
-0.000286513
0.00698373
-0.000227142
0.00966307
-8.75361e-05
0.0133392
0.000158281
0.0183066
0.0247856
0.000512629
-3.94962e-05
0.000412024
-8.27416e-05
0.00077385
-0.000128544
0.00122285
-0.000175135
0.00181064
-0.00021968
0.00259364
-0.000257811
0.00364319
-0.00028182
0.00505786
-0.0002787
0.00698062
-0.000228458
0.00961282
-0.000104896
0.0132157
0.00011791
0.0180838
0.024457
0.000446522
-3.74075e-05
0.000449157
-7.82026e-05
0.00081455
-0.000121557
0.00126629
-0.000165905
0.00185499
-0.000208605
0.00263639
-0.000245628
0.00368021
-0.000270251
0.00508249
-0.000270449
0.00698083
-0.000228063
0.00957044
-0.000118781
0.0131064
8.23602e-05
0.0178826
0.0241541
0.000385198
-3.53769e-05
0.000484303
-7.38694e-05
0.000852949
-0.000114947
0.00130747
-0.00015717
0.00189722
-0.000198106
0.00267739
-0.000234173
0.00371629
-0.000258909
0.00510725
-0.000261726
0.00698365
-0.000225693
0.00953441
-0.000128431
0.0130092
5.51428e-05
0.0176991
0.0238692
0.000340138
-3.33075e-05
0.000517432
-6.97289e-05
0.000889281
-0.000108725
0.00134657
-0.000149005
0.00193751
-0.000188252
0.00271669
-0.00022319
0.00375123
-0.000247915
0.005132
-0.000252978
0.00698872
-0.000222666
0.0095041
-0.000135819
0.0129223
3.15408e-05
0.0175317
0.0236077
0.000293011
-3.13673e-05
0.000548553
-6.58896e-05
0.000923704
-0.000102984
0.00138371
-0.000141447
0.00197597
-0.000179093
0.00275438
-0.000212941
0.00378508
-0.000237706
0.00515678
-0.000244279
0.0069953
-0.00021897
0.00947879
-0.000141418
0.0128448
1.06652e-05
0.0173797
0.0233626
0.000255791
-2.94774e-05
0.000577947
-6.2204e-05
0.000956385
-9.76095e-05
0.00141919
-0.000134262
0.00201263
-0.00017045
0.0027906
-0.000203264
0.00381789
-0.000227854
0.00518138
-0.000236161
0.0070036
-0.00021489
0.00945752
-0.000145663
0.0127755
-6.49824e-06
0.0172405
0.0231379
0.000218148
-2.78409e-05
0.000605616
-5.8955e-05
0.000987433
-9.26028e-05
0.00145285
-0.00012769
0.00204771
-0.00016252
0.00282544
-0.000194265
0.00384963
-0.000218549
0.00520566
-0.000227754
0.00701281
-0.000210089
0.00943985
-0.000148258
0.0127137
-2.17046e-05
0.017114
0.0229302
0.00018602
-2.61925e-05
0.000631807
-5.5697e-05
0.00101693
-8.77818e-05
0.00148497
-0.000121388
0.00208133
-0.000154608
0.00285868
-0.000185215
0.00388024
-0.000209012
0.00522946
-0.000219046
0.00702284
-0.000204068
0.00942487
-0.000147878
0.0126575
-3.0751e-05
0.0169968
0.0227314
0.000168086
-2.47349e-05
0.000656463
-5.27001e-05
0.00104486
-8.32782e-05
0.00151554
-0.000115236
0.00211329
-0.000147152
0.0028906
-0.000176631
0.00390972
-0.000199869
0.0052527
-0.000210597
0.00703356
-0.000198159
0.00941243
-0.00014747
0.0126068
-4.07434e-05
0.0168901
0.0225607
0.000129983
-2.34581e-05
0.000680019
-4.99692e-05
0.0010714
-7.90718e-05
0.00154466
-0.000109527
0.00214376
-0.000140166
0.00292124
-0.000168548
0.0039381
-0.000191174
0.00527533
-0.000202026
0.00704442
-0.000191617
0.00940202
-0.00014645
0.0125617
-4.78959e-05
0.0167915
0.02239
0.000122785
-2.22152e-05
0.000702272
-4.72106e-05
0.00109639
-7.47699e-05
0.00157217
-0.000103902
0.00217289
-0.000132954
0.00295027
-0.000160004
0.00396515
-0.000181691
0.00529702
-0.000192334
0.00705506
-0.000182881
0.00939257
-0.000139621
0.0125184
-4.5204e-05
0.0166971
0.0222209
0.000123915
-2.10329e-05
0.000723537
-4.46734e-05
0.00112008
-7.09062e-05
0.00159837
-9.85425e-05
0.00220053
-0.000126304
0.00297802
-0.000152228
0.00399107
-0.000173184
0.00531797
-0.000184146
0.00706602
-0.000176388
0.00938481
-0.000137868
0.0124799
-5.39391e-05
0.0166132
0.0220907
7.62654e-05
-2.00797e-05
0.000743814
-4.22792e-05
0.00114231
-6.72627e-05
0.00162326
-9.3451e-05
0.0022267
-0.000119902
0.00300442
-0.000144615
0.00401578
-0.00016467
0.00533801
-0.000175191
0.00707653
-0.000168476
0.0093781
-0.000132483
0.0124439
-5.10268e-05
0.0165317
0.0219323
0.000107383
-1.89504e-05
0.000763056
-3.99739e-05
0.00116338
-6.35809e-05
0.00164679
-8.85203e-05
0.00225163
-0.000113767
0.00302963
-0.000137244
0.00403925
-0.000156364
0.00535712
-0.000166351
0.00708652
-0.000160028
0.00937177
-0.000126036
0.0124099
-5.03778e-05
0.0164561
0.0218112
7.06604e-05
-1.78949e-05
0.000781209
-3.77967e-05
0.00118334
-6.01788e-05
0.00166909
-8.39104e-05
0.00227535
-0.000107667
0.00305334
-0.000129936
0.00406152
-0.000148031
0.0053752
-0.000157574
0.00709605
-0.000151499
0.00936569
-0.000119097
0.0123775
-4.58382e-05
0.0163828
0.0216747
9.06812e-05
-1.68267e-05
0.000798242
-3.5698e-05
0.00120226
-5.70325e-05
0.00169035
-7.94133e-05
0.00229772
-0.000102077
0.00307596
-0.00012324
0.00408268
-0.000140439
0.00539238
-0.000149696
0.00710531
-0.000144099
0.0093601
-0.000113647
0.012347
-4.55096e-05
0.0163147
0.0215621
6.71289e-05
-1.5821e-05
0.000814256
-3.39144e-05
0.00122041
-5.40515e-05
0.00171045
-7.54317e-05
0.0023191
-9.70158e-05
0.00309752
-0.000117231
0.0041029
-0.000133718
0.00540886
-0.000142405
0.00711399
-0.000137386
0.00935508
-0.000109442
0.0123191
-4.55171e-05
0.0162507
0.0214426
7.39012e-05
-1.49558e-05
0.000829308
-3.21252e-05
0.00123761
-5.12815e-05
0.00172956
-7.17813e-05
0.0023396
-9.22118e-05
0.00311793
-0.000111405
0.00412209
-0.000127017
0.00542447
-0.000135381
0.00712236
-0.000130547
0.00935025
-0.000103393
0.0122919
-4.13238e-05
0.0161887
0.0213289
7.2379e-05
-1.40498e-05
0.000843468
-3.05016e-05
0.0012541
-4.88265e-05
0.00174787
-6.81599e-05
0.00235894
-8.78381e-05
0.0031376
-0.000106191
0.00414045
-0.00012116
0.00543943
-0.000129467
0.00713067
-0.000125204
0.00934598
-0.000100415
0.0122672
-4.34329e-05
0.0161317
0.0212287
5.68212e-05
-1.34901e-05
0.000856992
-2.9127e-05
0.00126975
-4.66004e-05
0.00176533
-6.50283e-05
0.00237737
-8.38142e-05
0.00315637
-0.000101322
0.00415796
-0.000115597
0.00545371
-0.000123227
0.0071383
-0.000119268
0.00934203
-9.49885e-05
0.0122429
-3.90203e-05
0.0160757
0.0211249
6.48289e-05
-1.2746e-05
0.000869794
-2.75805e-05
0.00128461
-4.42821e-05
0.00178203
-6.1929e-05
0.00239502
-7.97322e-05
0.00317417
-9.64038e-05
0.00417464
-0.000109956
0.00546726
-0.00011734
0.00714569
-0.000113449
0.00933814
-9.05587e-05
0.01222
-3.7921e-05
0.0160231
0.0210337
5.31981e-05
-1.21887e-05
0.000881992
-2.63856e-05
0.00129881
-4.22409e-05
0.00179788
-5.91513e-05
0.00241193
-7.60356e-05
0.00319105
-9.19377e-05
0.00419054
-0.000104907
0.00548023
-0.000111972
0.00715275
-0.000108499
0.00933467
-8.74266e-05
0.0121989
-3.93111e-05
0.015975
0.0209459
4.85356e-05
-1.15528e-05
0.000893572
-2.50208e-05
0.00131229
-4.01943e-05
0.00181306
-5.61245e-05
0.00242787
-7.22694e-05
0.0032072
-8.73568e-05
0.00420563
-9.95894e-05
0.00549246
-0.000106231
0.0071594
-0.000102485
0.00933092
-8.14225e-05
0.0121779
-3.28713e-05
0.0159264
0.0208598
5.3186e-05
-1.09506e-05
0.000904523
-2.38682e-05
0.00132521
-3.81267e-05
0.00182731
-5.33314e-05
0.00244307
-6.86469e-05
0.00322251
-8.30045e-05
0.00421999
-9.44828e-05
0.00550394
-0.00010029
0.00716521
-9.63365e-05
0.00932697
-7.57567e-05
0.0121573
-2.85142e-05
0.0158792
0.0207716
5.97321e-05
-1.03914e-05
0.000914928
-2.25932e-05
0.00133741
-3.61963e-05
0.00184092
-5.06991e-05
0.00245757
-6.50793e-05
0.00323689
-7.84016e-05
0.00423332
-8.9158e-05
0.0055147
-9.43654e-05
0.00717042
-8.97318e-05
0.00932234
-6.85508e-05
0.0121361
-2.13023e-05
0.0158319
0.02068
7.0328e-05
-9.85824e-06
0.000924785
-2.14935e-05
0.00134905
-3.44593e-05
0.00185389
-4.80932e-05
0.00247121
-6.1954e-05
0.00325076
-7.47034e-05
0.00424607
-8.48077e-05
0.0055248
-8.98704e-05
0.00717548
-8.56392e-05
0.00931811
-6.60454e-05
0.0121165
-2.35805e-05
0.0157895
0.020618
3.83271e-05
-9.45112e-06
0.000934243
-2.06265e-05
0.00136022
-3.29177e-05
0.00186618
-4.60154e-05
0.00248431
-5.92491e-05
0.00326399
-7.13985e-05
0.00425822
-8.08996e-05
0.0055343
-8.54282e-05
0.00718001
-8.14939e-05
0.00931418
-6.32431e-05
0.0120983
-2.16451e-05
0.0157479
0.0205335
6.2867e-05
-9.01429e-06
0.000943255
-1.96012e-05
0.00137081
-3.13795e-05
0.00187796
-4.39261e-05
0.00249685
-5.62948e-05
0.00327636
-6.7763e-05
0.00426969
-7.6714e-05
0.00554326
-8.07824e-05
0.00718408
-7.61675e-05
0.00930956
-5.69813e-05
0.0120791
-1.49274e-05
0.0157058
0.0204561
6.25354e-05
-8.58997e-06
0.000951849
-1.86179e-05
0.00138084
-2.99153e-05
0.00188926
-4.1777e-05
0.00250872
-5.36322e-05
0.00328821
-6.45157e-05
0.00428057
-7.29783e-05
0.00555172
-7.6917e-05
0.00718802
-7.24333e-05
0.00930508
-5.4623e-05
0.0120613
-1.61894e-05
0.0156674
0.0203956
4.42517e-05
-8.29594e-06
0.000960143
-1.78934e-05
0.00139044
-2.87115e-05
0.00190007
-3.99624e-05
0.00251997
-5.12921e-05
0.00329954
-6.16934e-05
0.00429097
-6.97933e-05
0.00555982
-7.34912e-05
0.00719171
-6.96815e-05
0.00930127
-5.32144e-05
0.0120448
-1.65536e-05
0.0156307
0.0203245
5.46131e-05
-7.81802e-06
0.000967964
-1.70687e-05
0.00139969
-2.71769e-05
0.00191018
-3.79186e-05
0.00253071
-4.8707e-05
0.00331033
-5.84431e-05
0.00430071
-6.58562e-05
0.00556723
-6.86977e-05
0.00719456
-6.38544e-05
0.00929643
-4.58118e-05
0.0120267
-6.92357e-06
0.0155918
0.0202482
6.93685e-05
-7.42215e-06
0.000975384
-1.61377e-05
0.0014084
-2.58069e-05
0.00191985
-3.60818e-05
0.00254098
-4.60214e-05
0.00332027
-5.52358e-05
0.00430992
-6.23874e-05
0.00557438
-6.53963e-05
0.00719757
-6.1576e-05
0.00929261
-4.6976e-05
0.0120121
-1.82012e-05
0.0155631
0.0202253
4.63781e-06
-7.03949e-06
0.000982426
-1.5222e-05
0.00141659
-2.43624e-05
0.00192899
-3.39503e-05
0.00255057
-4.34485e-05
0.00332977
-5.20102e-05
0.00431848
-5.83857e-05
0.00558076
-6.08072e-05
0.00719999
-5.60195e-05
0.00928782
-4.01294e-05
0.0119963
-6.11449e-06
0.0155291
0.0201453
7.3964e-05
-6.46608e-06
0.00098889
-1.42799e-05
0.0014244
-2.26847e-05
0.0019374
-3.14716e-05
0.00255936
-4.03462e-05
0.00333864
-4.799e-05
0.00432613
-5.31804e-05
0.00558595
-5.41033e-05
0.00720091
-4.74582e-05
0.00928117
-2.81501e-05
0.0119769
1.18872e-05
0.015489
0.0200796
7.75451e-05
-6.16264e-06
0.000995054
-1.33943e-05
0.00143163
-2.13695e-05
0.00194537
-2.97744e-05
0.00256776
-3.77844e-05
0.00334665
-4.48682e-05
0.00433321
-4.97184e-05
0.0055908
-5.04282e-05
0.00720162
-4.46798e-05
0.00927543
-2.82781e-05
0.0119605
3.15709e-06
0.0154576
0.0200327
5.00848e-05
-5.80435e-06
0.00100086
-1.26696e-05
0.0014385
-2.02169e-05
0.00195292
-2.8054e-05
0.0025756
-3.56564e-05
0.00335426
-4.22229e-05
0.00433978
-4.65642e-05
0.00559514
-4.6996e-05
0.00720205
-4.04633e-05
0.00926889
-2.25142e-05
0.0119426
1.46114e-05
0.0154205
0.0199469
0.00010042
-5.64685e-06
0.00100651
-1.20667e-05
0.00144492
-1.92664e-05
0.00196012
-2.65543e-05
0.00258289
-3.37669e-05
0.00336147
-3.98458e-05
0.00434586
-4.37394e-05
0.00559903
-4.3592e-05
0.0072019
-3.69765e-05
0.00926228
-1.96469e-05
0.0119253
1.4425e-05
0.0153864
0.019903
5.8249e-05
-5.29515e-06
0.0010118
-1.14602e-05
0.00145108
-1.82086e-05
0.00196687
-2.52653e-05
0.00258994
-3.1758e-05
0.00336796
-3.74111e-05
0.00435151
-4.10419e-05
0.00560267
-4.07937e-05
0.00720166
-3.41362e-05
0.00925562
-1.76292e-05
0.0119088
1.53837e-05
0.0153534
0.0198351
8.32729e-05
-4.95642e-06
0.00101676
-1.08026e-05
0.00145693
-1.71827e-05
0.00197325
-2.3735e-05
0.0025965
-2.99742e-05
0.0033742
-3.5169e-05
0.00435671
-3.82367e-05
0.00560573
-3.76679e-05
0.00720109
-3.06849e-05
0.00924864
-1.33422e-05
0.0118914
1.9935e-05
0.0153201
0.0197802
7.48842e-05
-4.77353e-06
0.00102153
-1.02014e-05
0.00146236
-1.6269e-05
0.00197931
-2.22927e-05
0.00260252
-2.80611e-05
0.00337997
-3.27664e-05
0.00436141
-3.53453e-05
0.00560831
-3.42069e-05
0.00719995
-2.69461e-05
0.00924138
-1.00025e-05
0.0118745
2.20786e-05
0.015288
0.0197282
7.40601e-05
-4.36462e-06
0.00102589
-9.65368e-06
0.00146764
-1.50696e-05
0.00198473
-2.07259e-05
0.00260818
-2.61808e-05
0.00338542
-3.03431e-05
0.00436557
-3.22308e-05
0.0056102
-3.0451e-05
0.00719817
-2.24563e-05
0.00923338