/*--------------------------------*- C++ -*----------------------------------*\
| =========                 |                                                 |
| \\      /  F ield         | OpenFOAM: The Open Source CFD Toolbox           |
|  \\    /   O peration     | Version:  2.3.0                                 |
|   \\  /    A nd           | Web:      www.OpenFOAM.org                      |
|    \\/     M anipulation  |                                                 |
\*---------------------------------------------------------------------------*/
FoamFile
{
    version     2.0;
    format      ascii;
    class       volScalarField;
    location    "5000";
    object      nut;
}
// * * * * * * * * * * * * * * * * * * * * * * * * * * * * * * * * * * * * * //

dimensions      [0 2 -1 0 0 0 0];

internalField   nonuniform List<scalar> 
37616
(
0.0731657
0.0716002
0.0700248
0.0684429
0.0668557
0.0652646
0.0636704
0.0620737
0.0604757
0.058877
0.0572783
0.05568
0.054083
0.0524878
0.0508951
0.049305
0.0477181
0.046135
0.0445564
0.0429824
0.0414136
0.0398504
0.0382933
0.0367427
0.0351993
0.0336634
0.0321358
0.0306165
0.029107
0.027608
0.0261217
0.0246494
0.0231932
0.0217575
0.0203473
0.0189698
0.0176338
0.0163513
0.0151346
0.0139865
0.012866
0.011586
0.00939001
0.0742158
0.072822
0.0714234
0.0700206
0.068614
0.0672043
0.0657916
0.0643765
0.0629594
0.0615408
0.0601211
0.0587005
0.0572794
0.0558582
0.0544373
0.0530167
0.0515969
0.0501785
0.0487616
0.0473464
0.045934
0.0445245
0.0431185
0.0417172
0.0403218
0.0389332
0.0375523
0.0361814
0.0348227
0.0334792
0.0321534
0.0308506
0.0295764
0.028338
0.0271454
0.0260101
0.0249469
0.023974
0.0231124
0.0223848
0.0218136
0.0214154
0.0211957
0.0751873
0.0739438
0.0726975
0.071448
0.0701952
0.0689391
0.0676798
0.0664176
0.0651524
0.0638848
0.0626146
0.0613421
0.0600676
0.0587912
0.0575131
0.0562336
0.0549529
0.0536711
0.0523889
0.0511061
0.0498236
0.0485422
0.0472625
0.0459857
0.0447135
0.043447
0.0421886
0.0409399
0.0397044
0.0384859
0.0372877
0.0361146
0.0349739
0.0338728
0.0328211
0.0318289
0.0309094
0.0300762
0.0293435
0.0287262
0.0282372
0.0278863
0.0276779
0.07608
0.0749706
0.0738568
0.0727395
0.0716185
0.0704936
0.0693646
0.0682317
0.0670948
0.065954
0.0648093
0.0636607
0.0625086
0.0613528
0.0601934
0.0590311
0.0578656
0.0566971
0.0555261
0.0543529
0.0531779
0.0520016
0.0508253
0.0496503
0.0484778
0.04731
0.0461492
0.0449978
0.043859
0.0427369
0.0416354
0.0405597
0.0395159
0.0385113
0.0375547
0.0366556
0.0358257
0.0350755
0.0344166
0.0338604
0.033417
0.0330939
0.0328946
0.0769057
0.0759092
0.0749101
0.0739068
0.0728991
0.0718865
0.0708685
0.0698454
0.0688168
0.0677831
0.0667438
0.0656991
0.0646492
0.0635938
0.0625332
0.0614679
0.0603979
0.0593235
0.0582448
0.0571617
0.0560752
0.0549855
0.0538938
0.0528011
0.0517096
0.0506212
0.049538
0.048463
0.0473998
0.0463523
0.0453248
0.0443225
0.0433507
0.0424162
0.0415269
0.0406918
0.0399215
0.0392249
0.0386121
0.0380933
0.0376772
0.0373701
0.0371752
0.077652
0.0767628
0.075865
0.0749608
0.0740504
0.0731339
0.0722109
0.0712812
0.0703446
0.0694015
0.0684512
0.0674936
0.0665293
0.0655583
0.0645802
0.063595
0.062604
0.0616079
0.0606058
0.0595979
0.0585846
0.0575666
0.0565445
0.0555193
0.0544934
0.0534689
0.0524482
0.0514341
0.05043
0.0494409
0.0484712
0.0475255
0.0466087
0.0457275
0.0448885
0.0441001
0.0433718
0.0427121
0.0421308
0.0416365
0.0412379
0.0409413
0.0407496
0.0783473
0.0775422
0.0767309
0.0759119
0.0750848
0.0742512
0.0734098
0.0725595
0.0717013
0.0708347
0.0699604
0.0690762
0.0681835
0.0672841
0.0663757
0.0654568
0.0645313
0.0635998
0.0626618
0.0617167
0.0607646
0.0598066
0.0588431
0.0578743
0.0569016
0.0559287
0.0549591
0.0539946
0.0530378
0.0520938
0.051169
0.0502684
0.0493965
0.0485576
0.0477569
0.0470042
0.046307
0.045675
0.0451161
0.0446386
0.0442518
0.043962
0.0437728
0.0789741
0.0782495
0.077515
0.0767699
0.076014
0.0752514
0.0744822
0.073698
0.072908
0.0721038
0.0712969
0.0704757
0.0696409
0.068802
0.0679564
0.067092
0.0662193
0.065341
0.0644569
0.0635657
0.0626649
0.0617559
0.0608428
0.0599229
0.0589946
0.0580627
0.0571349
0.056213
0.0552955
0.0543851
0.0534943
0.0526289
0.0517954
0.0509957
0.0502221
0.0494987
0.0488251
0.0482147
0.0476734
0.0472063
0.0468275
0.0465429
0.0463557
0.079552
0.0788913
0.0782209
0.0775425
0.0768488
0.0761454
0.0754459
0.0747085
0.0739864
0.0732231
0.0724775
0.0717126
0.0709261
0.0701297
0.0693505
0.0685318
0.0676997
0.0668613
0.0660192
0.0651738
0.0643196
0.063447
0.0625749
0.061701
0.0608163
0.059916
0.0590192
0.0581344
0.057258
0.0563697
0.055504
0.054665
0.0538636
0.0531196
0.0523549
0.0516606
0.0509997
0.0504066
0.0498857
0.0494203
0.0490464
0.0487662
0.0485802
0.00919939
0.0111485
0.0124316
0.0134989
0.0145502
0.0156437
0.0167876
0.0179773
0.0192023
0.0204563
0.0217325
0.023027
0.0243364
0.0256573
0.0269886
0.0283296
0.0296784
0.0310349
0.0323984
0.0337684
0.0351449
0.0365273
0.0379156
0.0393092
0.0407083
0.0421124
0.0435213
0.0449348
0.0463524
0.0477743
0.0491996
0.0506283
0.0520599
0.0534941
0.0549307
0.0563689
0.0578086
0.0592492
0.0606905
0.0621321
0.0635736
0.065015
0.0664567
0.0211411
0.0212449
0.021514
0.0219455
0.0225242
0.023232
0.0240468
0.0249491
0.0259218
0.0269507
0.028024
0.0291321
0.0302673
0.0314256
0.0326017
0.0337921
0.0349943
0.0362073
0.0374277
0.0386557
0.0398889
0.041128
0.0423711
0.0436186
0.0448697
0.0461239
0.0473807
0.0486401
0.0499021
0.0511661
0.052432
0.0536994
0.0549684
0.0562386
0.0575098
0.058782
0.0600549
0.0613283
0.0626021
0.0638761
0.0651503
0.0664248
0.0677
0.0276071
0.0276716
0.027875
0.028211
0.028672
0.0292453
0.0299165
0.0306727
0.0314998
0.0323855
0.0333199
0.0342934
0.0352998
0.0363328
0.0373858
0.0384562
0.0395403
0.0406353
0.041739
0.0428493
0.0439656
0.0450861
0.0462101
0.047337
0.0484655
0.0495956
0.0507269
0.0518592
0.052992
0.0541251
0.0552587
0.0563924
0.0575258
0.0586592
0.0597923
0.0609252
0.0620577
0.0631901
0.064322
0.0654537
0.066585
0.067716
0.0688468
0.0328163
0.0328585
0.033022
0.0333026
0.0336938
0.0341859
0.0347688
0.0354309
0.0361607
0.0369482
0.0377843
0.0386609
0.0395713
0.0405078
0.0414666
0.0424427
0.0434329
0.0444338
0.0454431
0.0464589
0.0474793
0.0485032
0.0495293
0.0505566
0.0515845
0.0526123
0.0536396
0.0546662
0.0556921
0.0567167
0.0577402
0.0587622
0.0597825
0.0608009
0.0618177
0.062833
0.0638469
0.0648595
0.0658709
0.0668808
0.0678896
0.0688971
0.0699034
0.0370923
0.0371205
0.037259
0.037505
0.037852
0.0382916
0.0388151
0.0394128
0.0400751
0.0407932
0.0415583
0.0423634
0.0432008
0.0440651
0.0449506
0.0458533
0.0467692
0.0476957
0.0486294
0.0495685
0.0505114
0.0514565
0.0524026
0.0533485
0.0542934
0.0552369
0.0561782
0.0571178
0.0580551
0.0589898
0.0599216
0.0608503
0.0617754
0.0626971
0.0636159
0.064532
0.0654455
0.0663564
0.0672647
0.0681704
0.0690738
0.0699748
0.0708738
0.0406635
0.0406822
0.0408043
0.0410267
0.0413432
0.0417456
0.0422257
0.0427766
0.0433898
0.0440567
0.0447692
0.0455198
0.0463016
0.0471092
0.0479378
0.0487822
0.0496394
0.0505058
0.0513784
0.0522553
0.0531352
0.0540163
0.0548966
0.0557753
0.0566516
0.057525
0.0583955
0.059263
0.060127
0.0609869
0.0618422
0.0626921
0.0635368
0.0643767
0.0652128
0.0660452
0.0668737
0.067698
0.0685181
0.0693343
0.0701469
0.070956
0.0717619
0.0436847
0.0436965
0.0438077
0.0440135
0.0443075
0.0446808
0.0451275
0.0456424
0.0462188
0.0468471
0.0475199
0.0482279
0.0489654
0.0497287
0.0505121
0.0513097
0.0521192
0.052937
0.0537595
0.0545855
0.0554138
0.0562428
0.0570685
0.0578903
0.0587094
0.0595249
0.0603366
0.0611447
0.0619477
0.0627449
0.0635355
0.0643185
0.0650947
0.0658657
0.0666324
0.067394
0.0681501
0.0689003
0.0696446
0.0703838
0.0711182
0.0718477
0.0725722
0.0462669
0.0462735
0.046377
0.046571
0.0468496
0.0471958
0.0476137
0.0481028
0.0486511
0.0492498
0.0498932
0.0505645
0.0512656
0.0519961
0.0527421
0.0534994
0.0542727
0.0550499
0.0558293
0.0566134
0.0574
0.058188
0.0589629
0.059738
0.06051
0.061277
0.06204
0.0628004
0.0635505
0.0642959
0.065031
0.0657557
0.0664735
0.0671867
0.067896
0.0685976
0.0692919
0.0699778
0.0706569
0.0713297
0.071997
0.0726573
0.0733104
0.0484936
0.0484927
0.0485912
0.0487732
0.0490444
0.0493573
0.0497532
0.0502301
0.0507577
0.0513314
0.0519506
0.05258
0.0532566
0.0539723
0.054677
0.0553964
0.056151
0.0568841
0.0576285
0.0583828
0.0591357
0.0598905
0.0606051
0.0613532
0.0620825
0.0628104
0.063535
0.0642616
0.0649569
0.0656621
0.0663439
0.0670188
0.0676892
0.0683576
0.069023
0.0696714
0.0703147
0.0709427
0.0715657
0.072182
0.0727933
0.0733949
0.0739889
0.0155978
0.0146879
0.0138173
0.0129869
0.0121961
0.0114445
0.010732
0.0100589
0.00942636
0.00883699
0.00829572
0.00781086
0.00738396
0.00700466
0.006662
0.00634863
0.00605974
0.00579188
0.00554222
0.00530826
0.00508761
0.00487807
0.00467751
0.0044839
0.00429532
0.00410996
0.00392611
0.00374219
0.00355672
0.00336832
0.00317575
0.00297778
0.00277333
0.00256144
0.00234117
0.00211183
0.0018728
0.00162395
0.00136564
0.00109928
0.000827415
0.000551582
0.000308024
0.0155188
0.014673
0.0138649
0.0130915
0.0123519
0.0116456
0.0109725
0.0103327
0.00972701
0.00915729
0.00862697
0.00814228
0.00770857
0.00732047
0.00696928
0.00664807
0.00635183
0.00607682
0.00582012
0.00557931
0.00535223
0.00513683
0.00493118
0.0047334
0.00454166
0.00435411
0.00416903
0.0039847
0.00379951
0.00361184
0.0034202
0.00322309
0.00301916
0.00280709
0.00258573
0.00235404
0.00211125
0.00185696
0.0015913
0.00131455
0.00102523
0.000714361
0.000464078
0.0154444
0.0146653
0.0139173
0.0131984
0.0125077
0.0118448
0.0112095
0.0106019
0.0100225
0.00947274
0.00895482
0.00847319
0.008034
0.00763801
0.00727815
0.00694807
0.00664306
0.0063595
0.00609442
0.00584546
0.00561054
0.00538773
0.00517526
0.00497139
0.00477439
0.00458252
0.00439404
0.00420719
0.00402026
0.0038315
0.00363913
0.00344149
0.0032369
0.00302373
0.00280048
0.00256572
0.00231838
0.00205759
0.00178283
0.00149284
0.00118167
0.00083757
0.000583758
0.0153736
0.0146587
0.0139664
0.0132976
0.0126518
0.0120289
0.0114286
0.010851
0.0102965
0.0097662
0.00926167
0.00878607
0.00834461
0.00794191
0.00757409
0.00723533
0.00692121
0.00662848
0.00635434
0.00609653
0.00585298
0.0056219
0.00540161
0.0051905
0.00498692
0.00478928
0.00459587
0.00440493
0.0042147
0.00402336
0.00382897
0.00362965
0.00342345
0.00320847
0.00298282
0.00274476
0.00249276
0.0022255
0.00194166
0.00163807
0.00130528
0.000937794
0.000681171
0.0153165
0.0146537
0.0140113
0.0133879
0.0127832
0.0121967
0.0116284
0.0110785
0.0105473
0.0100355
0.00954463
0.0090769
0.00863638
0.00822869
0.00785391
0.00750712
0.0071842
0.00688225
0.00659878
0.00633171
0.00607912
0.00583927
0.0056106
0.00539156
0.00518066
0.00497634
0.00477698
0.00458091
0.00438633
0.00419135
0.00399396
0.00379213
0.00358365
0.00336638
0.00313807
0.00289668
0.00264023
0.00236691
0.0020745
0.001758
0.00140502
0.00102036
0.000763731
0.0152629
0.0146496
0.0140523
0.0134701
0.0129024
0.0123491
0.0118101
0.0112856
0.0107759
0.0102818
0.00980428
0.00934525
0.0089079
0.00849735
0.00811681
0.00776283
0.00743177
0.00712094
0.00682823
0.00655183
0.00629
0.00604118
0.00580383
0.00557654
0.00535787
0.00514635
0.00494046
0.00473858
0.00453893
0.00433962
0.00413858
0.00393361
0.00372237
0.0035025
0.00327145
0.00302681
0.00276623
0.00248736
0.00218715
0.00185862
0.00148731
0.00108935
0.000835314
0.0152135
0.0146459
0.0140896
0.0135447
0.0130106
0.0124875
0.0119753
0.0114741
0.0109844
0.0105067
0.010042
0.00959193
0.00915904
0.00874764
0.00836252
0.00800237
0.00766396
0.00734485
0.00704323
0.00675767
0.00648666
0.00622884
0.00598273
0.00574705
0.00552041
0.00530145
0.00508873
0.00488068
0.00467557
0.00447151
0.0042664
0.00405795
0.00384367
0.00362096
0.00338708
0.00313934
0.00287493
0.00259104
0.00228359
0.00194396
0.00155573
0.00114702
0.000897978
0.0151674
0.0146423
0.0141236
0.0136121
0.0131086
0.012613
0.0121254
0.0116458
0.0111748
0.0107128
0.0102604
0.00981922
0.00939153
0.00898052
0.00859138
0.00822591
0.00788119
0.00755481
0.00724496
0.00695043
0.00667022
0.00640341
0.00614866
0.00590455
0.00566982
0.00544322
0.00522351
0.00500905
0.00479817
0.00458896
0.00437936
0.00416722
0.00395005
0.00372478
0.00348827
0.0032375
0.00296972
0.00268182
0.00236818
0.00201847
0.00161548
0.00119874
0.000954394
0.0151319
0.0146412
0.0141554
0.0136723
0.0131957
0.0127251
0.0122612
0.0118017
0.0113498
0.010905
0.0104671
0.0100341
0.00961477
0.00920634
0.00881197
0.00843895
0.00808798
0.00775677
0.007442
0.00714102
0.00685119
0.00657458
0.00631198
0.00606019
0.00581781
0.00558364
0.00535552
0.0051362
0.00491803
0.00470432
0.00448767
0.00426709
0.00404231
0.00381328
0.00357462
0.00332181
0.00304817
0.00275179
0.0024336
0.00207611
0.00165662
0.00122825
0.000998378
0.000320355
0.000461066
0.000665148
0.000865713
0.00106549
0.00126552
0.00146659
0.00166928
0.00187411
0.00208153
0.0022921
0.00250663
0.0027261
0.00295192
0.00318624
0.00343156
0.00369107
0.00396795
0.00426558
0.00458673
0.00493378
0.00530787
0.00570951
0.00613839
0.00659451
0.00707789
0.00758882
0.0081277
0.00869494
0.00929121
0.00991714
0.0105737
0.0112615
0.0119816
0.0127351
0.0135228
0.014346
0.0152058
0.0161035
0.0170402
0.0180168
0.0190338
0.0200904
0.000451246
0.000616602
0.000834842
0.00105483
0.00127405
0.0014926
0.00171107
0.00193
0.00215011
0.00237222
0.00259732
0.00282684
0.00306246
0.00330652
0.0035618
0.00383133
0.00411859
0.00442674
0.00475782
0.00511246
0.00549065
0.00589232
0.00631731
0.00676534
0.00723647
0.00773075
0.00824839
0.00878974
0.00935529
0.00994557
0.0105611
0.0112026
0.0118708
0.0125665
0.0132904
0.0140435
0.0148267
0.015641
0.0164871
0.0173661
0.0182782
0.0192236
0.0202014
0.000574808
0.000759506
0.00099411
0.00123345
0.00147175
0.00170849
0.00194417
0.00217961
0.00241587
0.00265423
0.00289635
0.00314425
0.00340029
0.00366719
0.00394776
0.00424499
0.00456184
0.00490091
0.00526312
0.00564715
0.00605189
0.00647665
0.00692106
0.00738497
0.00786827
0.00837104
0.00889355
0.00943593
0.00999864
0.010582
0.0111866
0.0118128
0.0124613
0.0131327
0.0138275
0.0145467
0.0152907
0.0160604
0.0168564
0.0176791
0.0185291
0.0194073
0.0203172
0.00068617
0.000887889
0.00113891
0.00139623
0.00165218
0.00190589
0.00215795
0.00240961
0.00266242
0.00291822
0.00317929
0.00344807
0.00372721
0.00401924
0.00432666
0.00465191
0.00499741
0.00536511
0.0057547
0.00616367
0.00659037
0.00703409
0.00749431
0.0079709
0.00846381
0.00897297
0.0094986
0.0100407
0.0105997
0.0111758
0.0117693
0.0123806
0.0130102
0.0136585
0.0143261
0.0150133
0.0157207
0.0164487
0.0171979
0.0179684
0.0187607
0.0195746
0.0204074
0.000785391
0.00100289
0.00126969
0.00154354
0.00181567
0.00208513
0.0023529
0.0026206
0.00289034
0.00316459
0.003446
0.00373708
0.00404036
0.00435799
0.0046919
0.00504388
0.00541587
0.00580937
0.00622273
0.00665273
0.00709777
0.0075572
0.00803053
0.00851751
0.009018
0.00953199
0.0100595
0.0106005
0.0111553
0.011724
0.0123067
0.0129038
0.0135156
0.0141423
0.0147843
0.0154418
0.0161153
0.0168049
0.017511
0.0182337
0.0189733
0.01973
0.0205058
0.000873616
0.0011059
0.00138756
0.00167662
0.0019637
0.002248
0.00253088
0.00281456
0.00310167
0.003395
0.00369733
0.00401114
0.00433846
0.00468086
0.00503966
0.00541626
0.00581236
0.00622884
0.00666264
0.00711059
0.00757125
0.00804401
0.00852827
0.0090239
0.00953061
0.0100483
0.0105769
0.0111163
0.0116668
0.0122282
0.0128007
0.0133845
0.0139795
0.0145861
0.0152044
0.0158346
0.0164768
0.0171311
0.0177977
0.0184768
0.0191687
0.0198739
0.0205937
0.000953161
0.00119977
0.00149523
0.00179794
0.00209865
0.00239684
0.00269434
0.00299391
0.00329842
0.00361097
0.00393415
0.00427011
0.00462036
0.00498595
0.00536767
0.00576666
0.00618455
0.00662136
0.00707295
0.0075365
0.00801069
0.00849494
0.00898878
0.00949197
0.0100039
0.0105246
0.0110537
0.0115914
0.0121375
0.012692
0.0132549
0.0138259
0.0144052
0.0149931
0.0155895
0.0161945
0.0168079
0.0174297
0.0180601
0.0186995
0.0193479
0.0200059
0.0206736
0.00102155
0.0012786
0.00158615
0.00190275
0.00221709
0.00252919
0.00284165
0.00315699
0.00347869
0.00381038
0.00415431
0.00451205
0.0048844
0.00527209
0.00567549
0.00609565
0.00653392
0.00698915
0.00745661
0.00793358
0.00841947
0.0089142
0.00941737
0.00992789
0.0104443
0.0109668
0.0114957
0.0120312
0.0125733
0.0131217
0.0136751
0.0142332
0.0147972
0.0153677
0.0159439
0.0165258
0.0171127
0.0177036
0.0183002
0.0189031
0.0195124
0.0201272
0.0207472
0.00109563
0.00137916
0.00170727
0.00203183
0.00235529
0.00267985
0.00300226
0.00333088
0.00367508
0.00402987
0.00439704
0.00477416
0.00516883
0.00557827
0.00600221
0.00644336
0.00689965
0.00736747
0.00784317
0.00832488
0.00882
0.00932586
0.00984211
0.0103599
0.0108737
0.0113934
0.0119186
0.0124512
0.0129907
0.0135338
0.0140745
0.0146136
0.015162
0.0157177
0.0162744
0.0168361
0.0173977
0.017955
0.0185183
0.0190887
0.0196639
0.0202408
0.0208196
0.000993645
0.00302517
0.0049235
0.00671485
0.00844319
0.0101343
0.0118027
0.0134565
0.0151019
0.0167419
0.0183788
0.0200147
0.0216505
0.0232875
0.0249275
0.0265703
0.0282169
0.0298677
0.0315231
0.0331839
0.0348495
0.0365207
0.0381968
0.0398782
0.0415641
0.0432547
0.0449497
0.0466487
0.0483509
0.0500557
0.051763
0.0534721
0.0551824
0.056893
0.0586031
0.0603119
0.0620186
0.0637224
0.0654219
0.0671162
0.0688041
0.0704834
0.0721539
5.52207e-05
0.00115973
0.00258785
0.00409162
0.00565316
0.00725015
0.00887087
0.0105092
0.0121603
0.013822
0.0154926
0.0171706
0.0188559
0.0205471
0.0222449
0.0239489
0.0256589
0.0273745
0.0290963
0.0308234
0.0325565
0.0342953
0.0360388
0.0377873
0.0395403
0.0412974
0.0430585
0.0448227
0.0465896
0.0483586
0.0501291
0.0519004
0.0536721
0.0554429
0.0572122
0.058979
0.0607425
0.0625017
0.0642554
0.0660026
0.0677418
0.0694713
0.0711915
1.3215e-05
0.000828548
0.00190459
0.00311969
0.00444224
0.0058445
0.00730837
0.0088211
0.0103737
0.0119601
0.0135745
0.0152134
0.0168731
0.0185509
0.0202456
0.0219552
0.0236778
0.0254125
0.0271583
0.0289139
0.0306791
0.0324527
0.0342338
0.036022
0.0378165
0.0396166
0.0414214
0.0432305
0.0450428
0.0468576
0.0486741
0.0504918
0.0523095
0.054126
0.0559409
0.0577529
0.0595611
0.0613644
0.0631614
0.0649513
0.0667324
0.0685039
0.0702677
0.000285558
0.000741699
0.00162616
0.00265652
0.00380375
0.00504465
0.00636319
0.00774726
0.00918779
0.0106774
0.0122098
0.0137803
0.0153839
0.0170173
0.0186778
0.0203624
0.0220685
0.0237942
0.0255378
0.0272971
0.0290709
0.0308577
0.0326563
0.0344652
0.0362836
0.0381101
0.0399439
0.0417838
0.0436287
0.0454773
0.047329
0.0491826
0.0510369
0.0528909
0.0547435
0.0565934
0.0584396
0.0602806
0.0621155
0.063943
0.065762
0.0675718
0.0693744
0.00037564
0.000676752
0.00144754
0.00236029
0.00338675
0.00450859
0.00571302
0.00698978
0.0083311
0.0097299
0.0111806
0.0126782
0.014218
0.0157964
0.0174101
0.0190558
0.0207306
0.022432
0.0241577
0.025905
0.0276725
0.0294581
0.03126
0.0330765
0.0349059
0.0367472
0.0385984
0.0404583
0.0423257
0.0441989
0.0460769
0.0479584
0.049842
0.0517264
0.0536102
0.0554923
0.0573709
0.0592447
0.0611129
0.0629741
0.0648265
0.0666695
0.0685028
0.000382466
0.000619865
0.00131266
0.0021414
0.00307967
0.00411177
0.00522685
0.00641643
0.00767389
0.00899341
0.0103697
0.0117984
0.0132757
0.0147975
0.0163607
0.0179622
0.019599
0.0212684
0.0229674
0.0246939
0.0264455
0.0282201
0.0300155
0.0318298
0.0336612
0.035508
0.0373679
0.0392397
0.0411213
0.0430115
0.0449089
0.0468115
0.048718
0.0506267
0.0525363
0.0544452
0.0563514
0.0582539
0.0601514
0.0620419
0.0639241
0.0657962
0.0676572
0.000372445
0.000571253
0.00120624
0.00197014
0.0028401
0.00380123
0.00484414
0.00596179
0.00714852
0.00839919
0.0097095
0.011076
0.0124946
0.0139621
0.0154752
0.0170314
0.0186278
0.0202614
0.0219295
0.0236297
0.0253597
0.0271172
0.0288996
0.030705
0.0325316
0.0343768
0.0362388
0.0381156
0.0400055
0.0419065
0.043817
0.0457351
0.047659
0.049587
0.0515176
0.0534485
0.0553783
0.0573055
0.0592282
0.0611448
0.0630537
0.0649533
0.0668427
0.000363123
0.000531318
0.00111999
0.00183131
0.00264583
0.00354886
0.00453194
0.00558904
0.0067153
0.00790621
0.00915858
0.0104689
0.0118339
0.0132505
0.0147161
0.0162279
0.0177835
0.0193801
0.0210153
0.0226867
0.0243915
0.0261278
0.0278931
0.0296852
0.0315017
0.0333404
0.0351991
0.0370761
0.0389689
0.0408757
0.0427944
0.0447231
0.0466598
0.0486028
0.0505498
0.0524992
0.0544488
0.0563969
0.0583416
0.0602814
0.0622143
0.0641386
0.0660547
0.000355411
0.000498311
0.00104844
0.0017161
0.00248406
0.00333819
0.00427045
0.00527577
0.0063497
0.00748863
0.00868944
0.0099492
0.011265
0.0126346
0.0140555
0.0155252
0.0170411
0.0186012
0.0202031
0.0218442
0.0235223
0.0252352
0.0269803
0.0287555
0.0305586
0.0323872
0.034239
0.0361119
0.0380035
0.0399119
0.0418349
0.0437702
0.0457158
0.0476698
0.04963
0.051594
0.05356
0.0555258
0.0574896
0.0594497
0.0614038
0.0633502
0.0652886
0.000348918
0.00047073
0.000988415
0.00161922
0.00234691
0.00315889
0.00404742
0.00500775
0.00603593
0.0071286
0.00828343
0.00949765
0.010769
0.0120954
0.0134745
0.0149043
0.0163823
0.0179068
0.0194756
0.0210864
0.0227368
0.0244248
0.0261482
0.0279045
0.0296918
0.0315074
0.0333492
0.035215
0.0371023
0.039009
0.0409331
0.0428715
0.0448228
0.0467846
0.0487545
0.0507302
0.0527095
0.0546903
0.0566706
0.0586482
0.060621
0.062587
0.0645443
0.000343335
0.000447453
0.00093735
0.00153625
0.00222878
0.00300418
0.00385441
0.004775
0.00576253
0.00681424
0.00792761
0.00910071
0.0103315
0.0116178
0.0129582
0.0143504
0.0157925
0.0172828
0.0188194
0.0204
0.0220227
0.0236855
0.025386
0.0271222
0.0288919
0.0306927
0.0325223
0.0343786
0.0362591
0.0381615
0.0400836
0.0420227
0.0439767
0.0459434
0.0479203
0.0499049
0.0518951
0.0538885
0.0558825
0.0578754
0.059865
0.0618489
0.0638267
0.000338696
0.000430149
0.000893241
0.0014642
0.00212568
0.00286868
0.00368507
0.00457044
0.00552176
0.00653642
0.00761257
0.00874822
0.00994168
0.0111913
0.0124954
0.0138522
0.0152604
0.0167181
0.0182236
0.0197748
0.0213701
0.0230073
0.0246847
0.0264001
0.0281512
0.0299358
0.0317518
0.0335968
0.0354682
0.0373642
0.0392822
0.0412195
0.043174
0.0451432
0.0471247
0.049116
0.0511146
0.0531181
0.0551239
0.0571301
0.0591344
0.0611347
0.0631313
0.000335706
0.000422813
0.000855038
0.00140106
0.00203515
0.00274899
0.00353505
0.00438879
0.00530743
0.00628872
0.00733088
0.00843247
0.00959164
0.0108071
0.0120775
0.0134015
0.0147774
0.016204
0.0176795
0.0192023
0.0207708
0.0223829
0.024037
0.025731
0.0274629
0.0292304
0.0310316
0.0328638
0.0347249
0.0366128
0.0385247
0.0404585
0.0424113
0.0443812
0.0463653
0.0483609
0.0503659
0.0523776
0.0543931
0.0564106
0.0584275
0.0604416
0.0624518
0.000334072
0.000421689
0.000821618
0.00134517
0.00195482
0.00264224
0.00340082
0.004226
0.00511505
0.00606593
0.00707712
0.00814712
0.00927471
0.0104585
0.0116977
0.0129908
0.0143363
0.0157333
0.0171804
0.0186758
0.020218
0.0218055
0.0234365
0.025109
0.0268213
0.0285713
0.0303567
0.0321751
0.0340248
0.035903
0.0378077
0.039736
0.0416859
0.0436546
0.0456393
0.0476376
0.0496472
0.051665
0.0536885
0.0557155
0.0577431
0.0597691
0.0617916
0.000333118
0.000422224
0.000792243
0.00129533
0.00188289
0.00254618
0.00327994
0.00407913
0.00494115
0.00586426
0.00684684
0.00788797
0.00898629
0.0101408
0.0113506
0.0126145
0.0139316
0.0153005
0.0167201
0.0181891
0.0197061
0.0212694
0.0228777
0.024529
0.0262216
0.0279536
0.0297226
0.031527
0.033364
0.0352317
0.0371278
0.0390495
0.0409947
0.0429607
0.0449446
0.0469442
0.0489566
0.050979
0.0530089
0.0550434
0.0570803
0.0591165
0.0611501
0.000332375
0.000422307
0.000766133
0.00125062
0.00181791
0.00245943
0.00317036
0.00394566
0.00478295
0.00568041
0.00663676
0.00765098
0.00872212
0.00984925
0.0110316
0.0122683
0.0135582
0.0149005
0.016294
0.0177378
0.0192303
0.0207703
0.0223562
0.0239864
0.0256595
0.0273732
0.0291259
0.0309152
0.0327392
0.0345957
0.0364821
0.0383961
0.0403356
0.0422975
0.0442795
0.0462787
0.0482925
0.0503181
0.0523527
0.0543935
0.0564379
0.0584829
0.0605258
0.000331541
0.000421803
0.000742798
0.00121019
0.00175908
0.00238069
0.00307034
0.00382378
0.00463827
0.00551202
0.00644397
0.00743329
0.00847909
0.00958075
0.0107373
0.0119482
0.0132126
0.0145295
0.0158982
0.0173176
0.0187866
0.0203038
0.0218679
0.0234776
0.0251311
0.0268267
0.0285626
0.0303368
0.0321471
0.0339917
0.035868
0.0377734
0.0397061
0.0416631
0.0436417
0.0456394
0.0476534
0.0496808
0.0517189
0.0537648
0.0558155
0.0578681
0.0599202
0.000330596
0.000420689
0.000721631
0.00117346
0.00170541
0.00230869
0.00297871
0.00371188
0.00450516
0.00535698
0.00626631
0.00723243
0.00825454
0.00933218
0.0104645
0.011651
0.0128912
0.0141841
0.0155291
0.0169253
0.0183715
0.0198666
0.0214096
0.0229991
0.0246333
0.0263108
0.02803
0.0297888
0.0315853
0.0334175
0.0352828
0.0371791
0.0391041
0.0410552
0.0430296
0.0450249
0.0470379
0.0490661
0.0511064
0.0531562
0.0552122
0.0572719
0.0593327
0.000329593
0.000419205
0.000702401
0.00113982
0.00165622
0.00224249
0.00289421
0.00360856
0.00438223
0.0052136
0.00610189
0.0070463
0.00804626
0.00910128
0.0102107
0.0113743
0.0125915
0.0138615
0.0151838
0.0165576
0.0179819
0.0194559
0.0209784
0.022548
0.0241633
0.0258231
0.0275255
0.0292689
0.0310513
0.0328705
0.0347246
0.0366112
0.0385279
0.0404722
0.0424417
0.0444336
0.0464448
0.0484727
0.0505143
0.0525669
0.0546276
0.0566933
0.0587626
0.000328544
0.000417548
0.000685307
0.001109
0.00161089
0.00218134
0.00281626
0.0035129
0.00426818
0.00508053
0.00594901
0.006873
0.00785217
0.00888587
0.00997378
0.0111157
0.0123111
0.0135594
0.01486
0.0162123
0.0176155
0.019069
0.0205714
0.0221216
0.0237187
0.0253609
0.0270468
0.0287746
0.0305427
0.032349
0.0341916
0.0360678
0.0379758
0.0399128
0.0418765
0.043864
0.0458726
0.0478993
0.0499415
0.0519962
0.0540604
0.0561315
0.0582077
0.000327553
0.000416132
0.000672222
0.00108078
0.00156906
0.00212491
0.00274403
0.00342394
0.00416201
0.00495649
0.00580646
0.00671137
0.00767084
0.00868448
0.00975216
0.0108734
0.0120479
0.0132754
0.0145554
0.0158872
0.0172702
0.0187036
0.0201866
0.0217182
0.0232971
0.0249221
0.0265916
0.0283041
0.0300578
0.031851
0.0336816
0.0355474
0.037446
0.0393752
0.0413326
0.0433152
0.0453203
0.0473452
0.0493871
0.051443
0.0535099
0.0555852
0.0576674
0.000326712
0.000415656
0.000665168
0.00105513
0.00153029
0.00207239
0.00267681
0.00334099
0.00406292
0.00484058
0.00567304
0.00655996
0.00750085
0.00849558
0.00954387
0.0106456
0.0118003
0.013008
0.0142682
0.0155803
0.0169438
0.0183581
0.0198223
0.0213356
0.0228967
0.0245048
0.026158
0.0278553
0.0295948
0.0313747
0.0331932
0.0350481
0.0369373
0.0388583
0.0408088
0.0427859
0.044787
0.0468093
0.0488501
0.0509063
0.0529751
0.0550534
0.0571396
0.000326085
0.00041641
0.000662823
0.00103205
0.00149442
0.00202355
0.00261403
0.00326342
0.00397011
0.00473193
0.00554796
0.00641779
0.00734114
0.00831785
0.00934788
0.0104309
0.0115668
0.0127556
0.0139968
0.0152899
0.0166347
0.0180304
0.0194765
0.0209719
0.0225159
0.0241072
0.0257446
0.0274268
0.029152
0.0309188
0.0327251
0.0345689
0.0364481
0.0383606
0.0403037
0.0422749
0.0442714
0.0462906
0.0483295
0.0503853
0.052455
0.0545356
0.0566247
0.000325696
0.000417939
0.000662679
0.00101118
0.0014611
0.00197788
0.00255533
0.00319084
0.00388292
0.00462976
0.00543025
0.00628392
0.00719067
0.00815031
0.00916286
0.0102282
0.0113462
0.0125169
0.0137397
0.0150147
0.0163414
0.0177192
0.0191476
0.0206257
0.0221529
0.0237279
0.0253498
0.027017
0.0287282
0.0304817
0.0322757
0.0341083
0.0359776
0.037881
0.0398165
0.0417813
0.0437727
0.0457882
0.0478246
0.0498793
0.0519492
0.0540313
0.056123
0.000325442
0.000419678
0.000662889
0.00099203
0.00142999
0.00193511
0.00250026
0.00312265
0.00380096
0.00453363
0.00531933
0.00615775
0.00704866
0.00799202
0.00898796
0.0100364
0.0111372
0.0122904
0.0134958
0.0147533
0.0160625
0.017423
0.0188343
0.0202957
0.0218065
0.0233656
0.0249721
0.0266246
0.0283218
0.0300622
0.0318439
0.0336654
0.0355242
0.0374187
0.0393461
0.0413042
0.0432901
0.0453012
0.0473347
0.0493876
0.051457
0.0535395
0.0556327
0.000325146
0.000421311
0.000662594
0.000974287
0.00140092
0.00189499
0.0024484
0.00305843
0.00372362
0.00444268
0.00521434
0.00603823
0.0069142
0.00784214
0.0088222
0.00985446
0.0109388
0.0120754
0.013264
0.0145047
0.0157971
0.0171408
0.0185354
0.0199806
0.0214754
0.0230189
0.0246103
0.0262484
0.0279318
0.0296591
0.0314287
0.0332387
0.0350874
0.0369723
0.0388916
0.0408424
0.0428225
0.044829
0.046859
0.0489096
0.0509776
0.0530596
0.0551512
0.000324908
0.000422595
0.000661909
0.000957793
0.00137371
0.00185721
0.00239957
0.00299786
0.00365051
0.00435671
0.00511502
0.00592504
0.00678671
0.00769989
0.0086648
0.00968145
0.01075
0.0118706
0.0130432
0.0142677
0.0155438
0.0168714
0.0182499
0.0196793
0.0211584
0.0226867
0.0242635
0.0258872
0.0275571
0.0292715
0.0310288
0.0328275
0.0346656
0.0365413
0.0384519
0.0403956
0.0423695
0.0443708
0.0463969
0.0484448
0.0505114
0.0525935
0.0546891
0.000324671
0.000423516
0.000660645
0.000942333
0.00134803
0.00182159
0.00235344
0.00294047
0.00358134
0.00427522
0.00502085
0.00581769
0.00666561
0.00756469
0.00851507
0.00951697
0.0105705
0.0116757
0.0128327
0.0140415
0.0153019
0.0166138
0.0179769
0.0193907
0.0208547
0.0223683
0.0239305
0.0255402
0.0271966
0.0288982
0.0306435
0.0324309
0.0342585
0.0361245
0.0380267
0.0399627
0.04193
0.0439259
0.0459479
0.0479928
0.0500578
0.0521398
0.0542377
0.00032426
0.000424143
0.000658743
0.000927817
0.00132385
0.00178798
0.00230979
0.00288614
0.00351573
0.00419771
0.0049312
0.00571545
0.00655027
0.00743593
0.00837245
0.00936009
0.0103991
0.0114896
0.0126316
0.0138253
0.0150706
0.0163673
0.0177153
0.0191141
0.0205634
0.0220625
0.0236104
0.0252065
0.0268497
0.0285386
0.0302718
0.0320478
0.033865
0.0357214
0.0376149
0.039543
0.0415036
0.043494
0.0455115
0.0475532
0.0496163
0.0516986
0.0537982
0.000323804
0.000424457
0.000656484
0.000914691
0.00130103
0.00175613
0.00226838
0.00283467
0.00345354
0.00412415
0.00484593
0.00561804
0.00644034
0.00731304
0.00823626
0.00921033
0.0102353
0.0113116
0.0124391
0.0136183
0.0148489
0.016131
0.0174643
0.0188486
0.0202835
0.0217683
0.0233025
0.0248851
0.0265153
0.0281916
0.0299129
0.0316778
0.0334844
0.0353312
0.0372157
0.039136
0.0410897
0.0430743
0.0450871
0.0471253
0.0491865
0.0512684
0.0533702
0.000323396
0.000424655
0.000654414