/*--------------------------------*- C++ -*----------------------------------*\
| =========                 |                                                 |
| \\      /  F ield         | OpenFOAM: The Open Source CFD Toolbox           |
|  \\    /   O peration     | Version:  2.3.0                                 |
|   \\  /    A nd           | Web:      www.OpenFOAM.org                      |
|    \\/     M anipulation  |                                                 |
\*---------------------------------------------------------------------------*/
FoamFile
{
    version     2.0;
    format      ascii;
    class       volScalarField;
    location    "5000";
    object      nuTilda;
}
// * * * * * * * * * * * * * * * * * * * * * * * * * * * * * * * * * * * * * //

dimensions      [0 2 -1 0 0 0 0];

internalField   nonuniform List<scalar> 
37616
(
0.0731657
0.0716002
0.0700248
0.0684429
0.0668557
0.0652646
0.0636704
0.0620737
0.0604757
0.058877
0.0572783
0.05568
0.054083
0.0524878
0.0508951
0.049305
0.0477181
0.046135
0.0445564
0.0429824
0.0414136
0.0398504
0.0382933
0.0367428
0.0351993
0.0336634
0.0321358
0.0306165
0.029107
0.027608
0.0261217
0.0246494
0.0231932
0.0217575
0.0203473
0.0189698
0.0176338
0.0163513
0.0151346
0.0139865
0.012866
0.011586
0.00939003
0.0742158
0.072822
0.0714234
0.0700206
0.068614
0.0672043
0.0657916
0.0643765
0.0629594
0.0615408
0.0601211
0.0587005
0.0572794
0.0558582
0.0544373
0.0530167
0.0515969
0.0501785
0.0487616
0.0473464
0.045934
0.0445245
0.0431185
0.0417173
0.0403218
0.0389332
0.0375523
0.0361814
0.0348228
0.0334792
0.0321534
0.0308506
0.0295764
0.028338
0.0271454
0.0260101
0.0249469
0.023974
0.0231124
0.0223848
0.0218136
0.0214154
0.0211957
0.0751873
0.0739438
0.0726975
0.071448
0.0701952
0.0689391
0.0676798
0.0664176
0.0651524
0.0638848
0.0626146
0.0613421
0.0600676
0.0587912
0.0575131
0.0562336
0.0549529
0.0536711
0.0523889
0.0511061
0.0498236
0.0485422
0.0472625
0.0459857
0.0447135
0.043447
0.0421886
0.0409399
0.0397044
0.0384859
0.0372877
0.0361146
0.0349739
0.0338728
0.0328211
0.0318289
0.0309094
0.0300762
0.0293435
0.0287262
0.0282372
0.0278863
0.0276779
0.07608
0.0749706
0.0738568
0.0727395
0.0716185
0.0704936
0.0693646
0.0682317
0.0670948
0.065954
0.0648093
0.0636607
0.0625086
0.0613528
0.0601934
0.0590311
0.0578656
0.0566971
0.0555261
0.0543529
0.0531779
0.0520016
0.0508253
0.0496503
0.0484778
0.04731
0.0461492
0.0449978
0.043859
0.0427369
0.0416354
0.0405597
0.0395159
0.0385113
0.0375547
0.0366556
0.0358257
0.0350755
0.0344166
0.0338604
0.033417
0.0330939
0.0328946
0.0769057
0.0759092
0.0749101
0.0739068
0.0728991
0.0718865
0.0708685
0.0698454
0.0688168
0.0677831
0.0667438
0.0656991
0.0646492
0.0635938
0.0625332
0.0614679
0.0603979
0.0593235
0.0582448
0.0571617
0.0560752
0.0549855
0.0538938
0.0528011
0.0517096
0.0506212
0.049538
0.048463
0.0473998
0.0463523
0.0453248
0.0443225
0.0433507
0.0424162
0.0415269
0.0406918
0.0399215
0.0392249
0.0386121
0.0380933
0.0376772
0.0373701
0.0371752
0.077652
0.0767628
0.075865
0.0749608
0.0740504
0.0731339
0.0722109
0.0712812
0.0703446
0.0694015
0.0684512
0.0674936
0.0665293
0.0655583
0.0645802
0.063595
0.062604
0.0616079
0.0606058
0.0595979
0.0585846
0.0575666
0.0565445
0.0555193
0.0544934
0.0534689
0.0524482
0.0514341
0.05043
0.0494409
0.0484712
0.0475255
0.0466087
0.0457275
0.0448885
0.0441001
0.0433718
0.0427121
0.0421308
0.0416365
0.0412379
0.0409413
0.0407496
0.0783473
0.0775422
0.0767309
0.0759119
0.0750848
0.0742512
0.0734098
0.0725595
0.0717013
0.0708347
0.0699604
0.0690762
0.0681835
0.0672841
0.0663757
0.0654568
0.0645313
0.0635998
0.0626618
0.0617167
0.0607646
0.0598066
0.0588431
0.0578743
0.0569016
0.0559287
0.0549591
0.0539946
0.0530378
0.0520938
0.051169
0.0502684
0.0493965
0.0485576
0.0477569
0.0470042
0.046307
0.045675
0.0451161
0.0446386
0.0442518
0.043962
0.0437728
0.0789741
0.0782495
0.077515
0.0767699
0.076014
0.0752514
0.0744822
0.073698
0.072908
0.0721038
0.0712969
0.0704757
0.0696409
0.068802
0.0679564
0.067092
0.0662193
0.065341
0.0644569
0.0635657
0.0626649
0.0617559
0.0608428
0.0599229
0.0589946
0.0580627
0.0571349
0.056213
0.0552955
0.0543851
0.0534943
0.0526289
0.0517954
0.0509957
0.0502221
0.0494987
0.0488251
0.0482147
0.0476734
0.0472063
0.0468275
0.0465429
0.0463557
0.079552
0.0788913
0.0782209
0.0775425
0.0768488
0.0761454
0.0754459
0.0747085
0.0739864
0.0732231
0.0724775
0.0717126
0.0709261
0.0701297
0.0693505
0.0685318
0.0676997
0.0668613
0.0660192
0.0651738
0.0643196
0.063447
0.0625749
0.061701
0.0608163
0.059916
0.0590192
0.0581344
0.057258
0.0563697
0.055504
0.054665
0.0538636
0.0531196
0.0523549
0.0516606
0.0509997
0.0504066
0.0498857
0.0494203
0.0490464
0.0487662
0.0485802
0.00919941
0.0111485
0.0124316
0.0134989
0.0145502
0.0156437
0.0167876
0.0179773
0.0192023
0.0204563
0.0217325
0.023027
0.0243364
0.0256573
0.0269886
0.0283296
0.0296784
0.0310349
0.0323984
0.0337684
0.0351449
0.0365273
0.0379156
0.0393092
0.0407083
0.0421124
0.0435213
0.0449348
0.0463524
0.0477743
0.0491996
0.0506283
0.0520599
0.0534941
0.0549307
0.0563689
0.0578086
0.0592492
0.0606905
0.0621321
0.0635736
0.065015
0.0664567
0.0211411
0.0212449
0.021514
0.0219455
0.0225242
0.023232
0.0240468
0.0249491
0.0259218
0.0269507
0.028024
0.0291321
0.0302673
0.0314256
0.0326017
0.0337921
0.0349944
0.0362073
0.0374277
0.0386557
0.0398889
0.041128
0.0423711
0.0436186
0.0448697
0.0461239
0.0473807
0.0486401
0.0499021
0.0511661
0.052432
0.0536994
0.0549684
0.0562386
0.0575098
0.058782
0.0600549
0.0613283
0.0626021
0.0638761
0.0651503
0.0664248
0.0677
0.0276071
0.0276716
0.027875
0.028211
0.028672
0.0292453
0.0299166
0.0306727
0.0314998
0.0323855
0.0333199
0.0342934
0.0352998
0.0363328
0.0373858
0.0384562
0.0395403
0.0406353
0.041739
0.0428493
0.0439656
0.0450861
0.0462101
0.047337
0.0484655
0.0495956
0.0507269
0.0518592
0.052992
0.0541251
0.0552587
0.0563924
0.0575258
0.0586592
0.0597923
0.0609252
0.0620577
0.0631901
0.064322
0.0654537
0.066585
0.067716
0.0688468
0.0328163
0.0328585
0.033022
0.0333026
0.0336938
0.0341859
0.0347688
0.0354309
0.0361607
0.0369482
0.0377843
0.0386609
0.0395713
0.0405078
0.0414666
0.0424427
0.0434329
0.0444338
0.0454431
0.0464589
0.0474793
0.0485032
0.0495293
0.0505566
0.0515845
0.0526123
0.0536396
0.0546662
0.0556921
0.0567167
0.0577402
0.0587622
0.0597825
0.0608009
0.0618177
0.062833
0.0638469
0.0648595
0.0658709
0.0668808
0.0678896
0.0688971
0.0699034
0.0370923
0.0371205
0.037259
0.037505
0.037852
0.0382916
0.0388151
0.0394128
0.0400751
0.0407932
0.0415583
0.0423634
0.0432008
0.0440651
0.0449506
0.0458533
0.0467692
0.0476957
0.0486294
0.0495685
0.0505114
0.0514565
0.0524026
0.0533485
0.0542934
0.0552369
0.0561782
0.0571178
0.0580551
0.0589898
0.0599216
0.0608503
0.0617754
0.0626971
0.0636159
0.064532
0.0654455
0.0663564
0.0672647
0.0681704
0.0690738
0.0699748
0.0708738
0.0406635
0.0406822
0.0408043
0.0410267
0.0413432
0.0417456
0.0422257
0.0427766
0.0433898
0.0440567
0.0447692
0.0455198
0.0463016
0.0471092
0.0479378
0.0487822
0.0496394
0.0505058
0.0513784
0.0522553
0.0531352
0.0540163
0.0548966
0.0557753
0.0566516
0.057525
0.0583955
0.059263
0.060127
0.0609869
0.0618422
0.0626921
0.0635368
0.0643767
0.0652128
0.0660452
0.0668737
0.067698
0.0685181
0.0693343
0.0701469
0.070956
0.0717619
0.0436847
0.0436965
0.0438077
0.0440135
0.0443075
0.0446808
0.0451275
0.0456424
0.0462188
0.0468471
0.0475199
0.0482279
0.0489654
0.0497287
0.0505121
0.0513097
0.0521192
0.052937
0.0537595
0.0545855
0.0554138
0.0562428
0.0570685
0.0578903
0.0587094
0.0595249
0.0603366
0.0611448
0.0619477
0.0627449
0.0635355
0.0643185
0.0650947
0.0658657
0.0666324
0.067394
0.0681501
0.0689003
0.0696446
0.0703838
0.0711182
0.0718477
0.0725722
0.0462669
0.0462735
0.046377
0.046571
0.0468496
0.0471958
0.0476137
0.0481028
0.0486511
0.0492498
0.0498932
0.0505645
0.0512656
0.0519961
0.0527421
0.0534994
0.0542727
0.0550499
0.0558293
0.0566134
0.0574
0.058188
0.0589629
0.059738
0.06051
0.061277
0.06204
0.0628004
0.0635505
0.0642959
0.065031
0.0657557
0.0664735
0.0671867
0.067896
0.0685976
0.0692919
0.0699778
0.0706569
0.0713297
0.071997
0.0726573
0.0733104
0.0484936
0.0484927
0.0485912
0.0487732
0.0490444
0.0493573
0.0497532
0.0502301
0.0507577
0.0513314
0.0519506
0.05258
0.0532566
0.0539723
0.054677
0.0553964
0.056151
0.0568841
0.0576285
0.0583828
0.0591357
0.0598906
0.0606051
0.0613532
0.0620825
0.0628104
0.063535
0.0642616
0.0649569
0.0656621
0.0663439
0.0670188
0.0676892
0.0683576
0.069023
0.0696714
0.0703147
0.0709427
0.0715657
0.072182
0.0727933
0.0733949
0.0739889
0.0155978
0.0146879
0.0138173
0.0129869
0.0121961
0.0114446
0.0107321
0.0100589
0.00942638
0.00883701
0.00829574
0.00781088
0.00738399
0.00700469
0.00666203
0.00634866
0.00605977
0.00579192
0.00554227
0.0053083
0.00508767
0.00487813
0.00467758
0.00448397
0.0042954
0.00411004
0.0039262
0.00374229
0.00355683
0.00336844
0.00317588
0.00297793
0.00277351
0.00256165
0.00234143
0.00211213
0.00187319
0.00162447
0.00136638
0.00110042
0.000829416
0.00055601
0.000320887
0.0155188
0.014673
0.0138649
0.0130915
0.0123519
0.0116456
0.0109725
0.0103327
0.00972702
0.0091573
0.00862698
0.0081423
0.0077086
0.0073205
0.00696931
0.0066481
0.00635187
0.00607686
0.00582016
0.00557935
0.00535228
0.00513688
0.00493124
0.00473347
0.00454172
0.00435419
0.00416911
0.00398479
0.00379961
0.00361195
0.00342032
0.00322323
0.00301931
0.00280727
0.00258594
0.00235429
0.00211156
0.00185736
0.00159185
0.00131534
0.00102654
0.000717034
0.000470237
0.0154444
0.0146653
0.0139173
0.0131984
0.0125077
0.0118448
0.0112095
0.0106019
0.0100226
0.00947275
0.00895483
0.00847321
0.00803402
0.00763804
0.00727818
0.0069481
0.0066431
0.00635953
0.00609446
0.0058455
0.00561058
0.00538778
0.00517531
0.00497145
0.00477445
0.00458259
0.00439411
0.00420727
0.00402034
0.00383159
0.00363923
0.00344161
0.00323703
0.00302388
0.00280065
0.00256593
0.00231864
0.00205792
0.00178326
0.00149346
0.00118266
0.000839523
0.000587726
0.0153736
0.0146587
0.0139664
0.0132976
0.0126519
0.0120289
0.0114286
0.010851
0.0102966
0.00976621
0.00926169
0.00878608
0.00834463
0.00794193
0.00757411
0.00723536
0.00692124
0.00662852
0.00635438
0.00609657
0.00585302
0.00562194
0.00540165
0.00519055
0.00498698
0.00478934
0.00459593
0.004405
0.00421478
0.00402344
0.00382906
0.00362976
0.00342357
0.0032086
0.00298298
0.00274494
0.00249298
0.00222578
0.00194203
0.00163858
0.00130609
0.000939355
0.000684107
0.0153165
0.0146537
0.0140113
0.0133879
0.0127832
0.0121967
0.0116284
0.0110785
0.0105473
0.0100356
0.00954464
0.00907692
0.00863639
0.00822871
0.00785394
0.00750715
0.00718422
0.00688228
0.00659881
0.00633174
0.00607915
0.00583931
0.00561065
0.00539161
0.00518071
0.0049764
0.00477704
0.00458097
0.0043864
0.00419143
0.00399405
0.00379223
0.00358375
0.0033665
0.00313822
0.00289684
0.00264043
0.00236716
0.00207482
0.00175844
0.00140572
0.00102168
0.000766075
0.015263
0.0146496
0.0140523
0.0134701
0.0129024
0.0123491
0.0118101
0.0112856
0.010776
0.0102818
0.00980429
0.00934527
0.00890792
0.00849737
0.00811683
0.00776285
0.00743179
0.00712097
0.00682826
0.00655186
0.00629003
0.00604122
0.00580387
0.00557658
0.00535792
0.0051464
0.00494052
0.00473864
0.00453899
0.00433969
0.00413866
0.0039337
0.00372247
0.00350262
0.00327158
0.00302696
0.00276641
0.00248758
0.00218743
0.00185902
0.00148794
0.00109051
0.000837278
0.0152135
0.0146459
0.0140896
0.0135447
0.0130107
0.0124875
0.0119753
0.0114741
0.0109844
0.0105067
0.010042
0.00959195
0.00915906
0.00874766
0.00836254
0.0080024
0.00766398
0.00734488
0.00704325
0.0067577
0.0064867
0.00622887
0.00598277
0.00574709
0.00552046
0.0053015
0.00508879
0.00488074
0.00467563
0.00447158
0.00426647
0.00405803
0.00384376
0.00362107
0.0033872
0.00313948
0.0028751
0.00259124
0.00228386
0.00194432
0.0015563
0.00114806
0.00089968
0.0151674
0.0146423
0.0141236
0.0136121
0.0131086
0.012613
0.0121254
0.0116458
0.0111748
0.0107128
0.0102604
0.00981923
0.00939155
0.00898054
0.0085914
0.00822593
0.00788122
0.00755483
0.00724498
0.00695046
0.00667026
0.00640345
0.0061487
0.00590459
0.00566986
0.00544326
0.00522356
0.00500911
0.00479823
0.00458903
0.00437944
0.0041673
0.00395014
0.00372488
0.00348838
0.00323763
0.00296988
0.00268201
0.00236843
0.00201881
0.00161601
0.00119969
0.000955902
0.0151319
0.0146412
0.0141555
0.0136723
0.0131957
0.0127251
0.0122612
0.0118017
0.0113499
0.010905
0.0104671
0.0100341
0.00961479
0.00920635
0.00881199
0.00843897
0.008088
0.00775679
0.00744203
0.00714105
0.00685122
0.00657461
0.00631201
0.00606022
0.00581785
0.00558369
0.00535557
0.00513626
0.00491809
0.00470438
0.00448773
0.00426716
0.0040424
0.00381338
0.00357473
0.00332193
0.00304832
0.00275197
0.00243383
0.00207643
0.00165713
0.00122917
0.000999757
0.000332391
0.0004673
0.000668223
0.000867543
0.0010667
0.00126638
0.00146724
0.00166978
0.00187451
0.00208185
0.00229236
0.00250685
0.00272629
0.00295208
0.00318638
0.00343167
0.00369117
0.00396803
0.00426566
0.00458679
0.00493384
0.00530792
0.00570955
0.00613843
0.00659455
0.00707792
0.00758884
0.00812772
0.00869496
0.00929123
0.00991716
0.0105737
0.0112615
0.0119817
0.0127351
0.0135228
0.014346
0.0152058
0.0161035
0.0170402
0.0180168
0.0190338
0.0200904
0.000457738
0.000620168
0.000836808
0.00105607
0.0012749
0.00149322
0.00171154
0.00193037
0.00215041
0.00237246
0.00259753
0.00282701
0.00306261
0.00330664
0.00356191
0.00383143
0.00411867
0.00442681
0.00475788
0.00511251
0.0054907
0.00589236
0.00631734
0.00676537
0.0072365
0.00773077
0.00824841
0.00878976
0.00935531
0.00994558
0.0105611
0.0112026
0.0118709
0.0125665
0.0132904
0.0140435
0.0148267
0.015641
0.0164871
0.0173661
0.0182782
0.0192236
0.0202014
0.000578896
0.000761876
0.000995501
0.00123435
0.00147239
0.00170896
0.00194453
0.0021799
0.0024161
0.00265443
0.00289652
0.00314439
0.0034004
0.00366729
0.00394784
0.00424506
0.0045619
0.00490097
0.00526317
0.00564719
0.00605193
0.00647668
0.00692109
0.007385
0.00786829
0.00837106
0.00889356
0.00943595
0.00999865
0.0105821
0.0111866
0.0118129
0.0124613
0.0131327
0.0138276
0.0145467
0.0152907
0.0160604
0.0168564
0.0176791
0.0185291
0.0194073
0.0203172
0.000689063
0.000889629
0.00113997
0.00139694
0.00165269
0.00190627
0.00215825
0.00240984
0.00266261
0.00291838
0.00317943
0.00344818
0.00372731
0.00401932
0.00432674
0.00465198
0.00499747
0.00536516
0.00575474
0.00616371
0.0065904
0.00703412
0.00749434
0.00797092
0.00846383
0.00897298
0.00949862
0.0100407
0.0105997
0.0111758
0.0117693
0.0123806
0.0130102
0.0136585
0.0143261
0.0150133
0.0157207
0.0164487
0.0171979
0.0179684
0.0187607
0.0195746
0.0204074
0.000787609
0.00100426
0.00127054
0.00154412
0.00181608
0.00208545
0.00235315
0.0026208
0.00289051
0.00316473
0.00344611
0.00373718
0.00404044
0.00435807
0.00469196
0.00504393
0.00541591
0.00580942
0.00622276
0.00665276
0.0070978
0.00755723
0.00803055
0.00851753
0.00901802
0.009532
0.0100595
0.0106005
0.0111553
0.011724
0.0123067
0.0129038
0.0135156
0.0141423
0.0147843
0.0154418
0.0161153
0.016805
0.017511
0.0182337
0.0189734
0.01973
0.0205058
0.000875412
0.00110702
0.00138828
0.00167711
0.00196406
0.00224827
0.0025311
0.00281474
0.00310181
0.00339512
0.00369743
0.00401122
0.00433854
0.00468092
0.00503971
0.0054163
0.00581241
0.00622887
0.00666267
0.00711062
0.00757127
0.00804403
0.00852829
0.00902392
0.00953063
0.0100483
0.0105769
0.0111164
0.0116668
0.0122282
0.0128007
0.0133845
0.0139795
0.0145861
0.0152044
0.0158346
0.0164768
0.0171311
0.0177977
0.0184768
0.0191687
0.0198739
0.0205937
0.000954673
0.00120073
0.00149584
0.00179837
0.00209896
0.00239708
0.00269453
0.00299406
0.00329855
0.00361107
0.00393424
0.00427018
0.00462043
0.00498601
0.00536772
0.0057667
0.00618459
0.00662139
0.00707298
0.00753652
0.00801071
0.00849496
0.0089888
0.00949199
0.010004
0.0105246
0.0110537
0.0115914
0.0121375
0.012692
0.0132549
0.0138259
0.0144052
0.0149931
0.0155895
0.0161945
0.0168079
0.0174297
0.0180601
0.0186995
0.0193479
0.0200059
0.0206736
0.00102287
0.00127944
0.00158669
0.00190313
0.00221737
0.0025294
0.00284182
0.00315713
0.00347881
0.00381047
0.00415439
0.00451211
0.00488446
0.00527214
0.00567553
0.00609569
0.00653395
0.00698918
0.00745663
0.0079336
0.00841949
0.00891422
0.00941738
0.00992791
0.0104443
0.0109668
0.0114957
0.0120312
0.0125733
0.0131217
0.0136751
0.0142332
0.0147972
0.0153677
0.0159439
0.0165258
0.0171127
0.0177036
0.0183002
0.0189031
0.0195124
0.0201272
0.0207472
0.00109678
0.00137988
0.00170774
0.00203216
0.00235554
0.00268004
0.00300241
0.003331
0.00367518
0.00402995
0.00439711
0.00477422
0.00516888
0.00557832
0.00600225
0.00644339
0.00689968
0.00736749
0.0078432
0.0083249
0.00882002
0.00932587
0.00984213
0.0103599
0.0108737
0.0113934
0.0119186
0.0124513
0.0129907
0.0135338
0.0140745
0.0146136
0.015162
0.0157177
0.0162744
0.0168362
0.0173977
0.017955
0.0185183
0.0190887
0.0196639
0.0202408
0.0208196
0.000995054
0.00302532
0.00492355
0.00671488
0.00844321
0.0101343
0.0118027
0.0134565
0.0151019
0.0167419
0.0183788
0.0200147
0.0216505
0.0232875
0.0249275
0.0265703
0.0282169
0.0298677
0.0315231
0.0331839
0.0348495
0.0365207
0.0381968
0.0398782
0.0415641
0.0432547
0.0449497
0.0466487
0.0483509
0.0500557
0.051763
0.0534721
0.0551824
0.056893
0.0586031
0.0603119
0.0620186
0.0637224
0.0654219
0.0671162
0.0688041
0.0704834
0.0721539
0.000279774
0.00116078
0.00258806
0.0040917
0.0056532
0.00725017
0.00887088
0.0105092
0.0121603
0.013822
0.0154926
0.0171706
0.0188559
0.0205471
0.0222449
0.0239489
0.0256589
0.0273745
0.0290963
0.0308234
0.0325565
0.0342953
0.0360388
0.0377873
0.0395403
0.0412974
0.0430585
0.0448227
0.0465896
0.0483586
0.0501291
0.0519004
0.0536721
0.0554429
0.0572122
0.058979
0.0607425
0.0625017
0.0642554
0.0660026
0.0677418
0.0694713
0.0711915
2.26007e-05
0.000830499
0.00190497
0.00311984
0.00444231
0.00584454
0.00730839
0.00882112
0.0103737
0.0119601
0.0135745
0.0152134
0.0168731
0.0185509
0.0202456
0.0219553
0.0236778
0.0254125
0.0271583
0.0289139
0.0306791
0.0324527
0.0342338
0.036022
0.0378165
0.0396166
0.0414214
0.0432305
0.0450428
0.0468576
0.0486741
0.0504918
0.0523095
0.054126
0.0559409
0.0577529
0.0595611
0.0613644
0.0631614
0.0649513
0.0667324
0.0685039
0.0702677
0.000298041
0.000744184
0.00162668
0.00265672
0.00380384
0.00504471
0.00636323
0.00774729
0.00918781
0.0106774
0.0122098
0.0137803
0.0153839
0.0170173
0.0186778
0.0203625
0.0220685
0.0237942
0.0255378
0.0272971
0.0290709
0.0308577
0.0326563
0.0344652
0.0362836
0.0381101
0.0399439
0.0417838
0.0436287
0.0454773
0.047329
0.0491826
0.0510369
0.0528909
0.0547435
0.0565934
0.0584396
0.0602806
0.0621155
0.063943
0.065762
0.0675718
0.0693744
0.000384177
0.000679702
0.00144819
0.00236054
0.00338687
0.00450866
0.00571306
0.0069898
0.00833112
0.00972992
0.0111806
0.0126782
0.014218
0.0157964
0.0174101
0.0190558
0.0207306
0.022432
0.0241577
0.025905
0.0276725
0.0294581
0.03126
0.0330765
0.0349059
0.0367472
0.0385984
0.0404583
0.0423257
0.0441989
0.0460769
0.0479584
0.049842
0.0517264
0.0536102
0.0554923
0.0573709
0.0592447
0.0611129
0.0629741
0.0648265
0.0666695
0.0685028
0.000391196
0.000623386
0.00131345
0.0021417
0.00307982
0.00411186
0.0052269
0.00641647
0.00767391
0.00899343
0.0103697
0.0117984
0.0132757
0.0147975
0.0163607
0.0179622
0.019599
0.0212684
0.0229674
0.0246939
0.0264455
0.0282201
0.0300155
0.0318298
0.0336612
0.035508
0.0373679
0.0392397
0.0411213
0.0430115
0.0449089
0.0468115
0.048718
0.0506267
0.0525363
0.0544452
0.0563514
0.0582539
0.0601514
0.0620419
0.0639241
0.0657962
0.0676572
0.000381655
0.000575388
0.00120719
0.0019705
0.00284027
0.00380133
0.0048442
0.00596183
0.00714855
0.00839921
0.00970952
0.011076
0.0124946
0.0139621
0.0154752
0.0170314
0.0186278
0.0202614
0.0219295
0.0236297
0.0253597
0.0271172
0.0288996
0.030705
0.0325316
0.0343768
0.0362388
0.0381156
0.0400055
0.0419065
0.043817
0.0457351
0.047659
0.049587
0.0515176
0.0534485
0.0553783
0.0573055
0.0592282
0.0611448
0.0630537
0.0649533
0.0668427
0.000372774
0.000536074
0.00112109
0.00183173
0.00264603
0.00354897
0.00453201
0.00558908
0.00671533
0.00790623
0.0091586
0.0104689
0.0118339
0.0132505
0.0147161
0.0162279
0.0177836
0.0193802
0.0210153
0.0226867
0.0243915
0.0261279
0.0278931
0.0296852
0.0315017
0.0333404
0.0351991
0.0370761
0.0389689
0.0408757
0.0427944
0.0447231
0.0466598
0.0486028
0.0505498
0.0524992
0.0544488
0.0563969
0.0583416
0.0602814
0.0622143
0.0641386
0.0660547
0.00036545
0.000503691
0.00104969
0.00171656
0.00248428
0.00333831
0.00427052
0.00527582
0.00634973
0.00748866
0.00868946
0.00994921
0.011265
0.0126346
0.0140555
0.0155252
0.0170412
0.0186012
0.0202031
0.0218442
0.0235223
0.0252352
0.0269803
0.0287555
0.0305586
0.0323872
0.034239
0.0361119
0.0380035
0.0399119
0.0418349
0.0437702
0.0457158
0.0476698
0.04963
0.051594
0.05356
0.0555258
0.0574896
0.0594497
0.0614038
0.0633502
0.0652886
0.000359295
0.000476724
0.000989821
0.00161975
0.00234716
0.00315903
0.0040475
0.0050078
0.00603597
0.00712863
0.00828345
0.00949767
0.010769
0.0120954
0.0134745
0.0149043
0.0163824
0.0179068
0.0194756
0.0210864
0.0227368
0.0244248
0.0261482
0.0279045
0.0296918
0.0315074
0.0333492
0.035215
0.0371023
0.039009
0.0409331
0.0428715
0.0448228
0.0467846
0.0487545
0.0507302
0.0527095
0.0546903
0.0566706
0.0586482
0.060621
0.062587
0.0645443
0.000354011
0.000454048
0.000938912
0.00153684
0.00222906
0.00300433
0.00385451
0.00477506
0.00576257
0.00681427
0.00792764
0.00910072
0.0103315
0.0116178
0.0129582
0.0143504
0.0157925
0.0172828
0.0188194
0.0204
0.0220227
0.0236855
0.025386
0.0271222
0.0288919
0.0306927
0.0325223
0.0343786
0.0362591
0.0381615
0.0400836
0.0420227
0.0439767
0.0459434
0.0479203
0.0499049
0.0518951
0.0538885
0.0558825
0.0578754
0.059865
0.0618489
0.0638267
0.00034963
0.000437247
0.00089496
0.00146484
0.00212598
0.00286884
0.00368517
0.0045705
0.0055218
0.00653645
0.0076126
0.00874824
0.0099417
0.0111913
0.0124954
0.0138523
0.0152604
0.0167181
0.0182236
0.0197748
0.0213701
0.0230073
0.0246847
0.0264001
0.0281512
0.0299358
0.0317518
0.0335968
0.0354682
0.0373642
0.0392822
0.0412195
0.043174
0.0451432
0.0471247
0.049116
0.0511146
0.0531181
0.0551239
0.0571301
0.0591344
0.0611347
0.0631313
0.000346809
0.000430141
0.000856913
0.00140177
0.00203549
0.00274918
0.00353516
0.00438886
0.00530748
0.00628875
0.00733091
0.00843249
0.00959166
0.0108071
0.0120775
0.0134015
0.0147774
0.016204
0.0176795
0.0192023
0.0207708
0.0223829
0.024037
0.025731
0.0274629
0.0292304
0.0310316
0.0328638
0.0347249
0.0366128
0.0385247
0.0404585
0.0424113
0.0443812
0.0463653
0.0483609
0.0503659
0.0523776
0.0543931
0.0564106
0.0584275
0.0604416
0.0624518
0.00034527
0.000429053
0.000823646
0.00134593
0.00195518
0.00264243
0.00340094
0.00422608
0.0051151
0.00606597
0.00707714
0.00814714
0.00927472
0.0104585
0.0116977
0.0129908
0.0143363
0.0157333
0.0171804
0.0186758
0.020218
0.0218055
0.0234365
0.025109
0.0268213
0.0285713
0.0303567
0.0321751
0.0340248
0.035903
0.0378077
0.039736
0.0416859
0.0436546
0.0456393
0.0476376
0.0496472
0.051665
0.0536885
0.0557155
0.0577431
0.0597691
0.0617916
0.000344372
0.000429572
0.000794424
0.00129615
0.00188327
0.00254639
0.00328007
0.00407921
0.0049412
0.0058643
0.00684687
0.007888
0.00898631
0.0101408
0.0113506
0.0126146
0.0139316
0.0153005
0.0167201
0.0181891
0.0197061
0.0212694
0.0228777
0.024529
0.0262216
0.0279536
0.0297226
0.031527
0.033364
0.0352317
0.0371278
0.0390495
0.0409947
0.0429607
0.0449446
0.0469442
0.0489566
0.050979
0.0530089
0.0550434
0.0570803
0.0591165
0.0611501
0.000343673
0.000429652
0.000768463
0.0012515
0.00181833
0.00245965
0.0031705
0.00394575
0.00478301
0.00568046
0.00663679
0.007651
0.00872214
0.00984927
0.0110316
0.0122683
0.0135583
0.0149005
0.016294
0.0177378
0.0192303
0.0207703
0.0223562
0.0239864
0.0256595
0.0273732
0.0291259
0.0309152
0.0327392
0.0345957
0.0364821
0.0383961
0.0403356
0.0422975
0.0442795
0.0462787
0.0482925
0.0503181
0.0523527
0.0543935
0.0564379
0.0584829
0.0605258
0.000342888
0.000429165
0.000745274
0.00121113
0.00175953
0.00238093
0.00307049
0.00382388
0.00463833
0.00551207
0.006444
0.00743331
0.00847911
0.00958076
0.0107373
0.0119482
0.0132126
0.0145295
0.0158982
0.0173176
0.0187866
0.0203039
0.0218679
0.0234776
0.0251311
0.0268267
0.0285626
0.0303368
0.0321471
0.0339917
0.035868
0.0377734
0.0397061
0.0416631
0.0436417
0.0456394
0.0476534
0.0496808
0.0517189
0.0537648
0.0558155
0.0578681
0.0599202
0.000342
0.000428087
0.000724252
0.00117446
0.00170589
0.00230895
0.00297887
0.00371198
0.00450523
0.00535703
0.00626635
0.00723246
0.00825456
0.00933219
0.0104645
0.011651
0.0128912
0.0141841
0.0155291
0.0169253
0.0183715
0.0198666
0.0214096
0.0229991
0.0246333
0.0263108
0.02803
0.0297888
0.0315853
0.0334175
0.0352828
0.0371791
0.0391041
0.0410552
0.0430296
0.0450249
0.0470379
0.0490661
0.0511064
0.0531562
0.0552122
0.0572719
0.0593327
0.000341056
0.000426652
0.000705165
0.00114088
0.00165672
0.00224277
0.00289438
0.00360867
0.00438231
0.00521365
0.00610193
0.00704633
0.00804628
0.0091013
0.0102107
0.0113743
0.0125915
0.0138615
0.0151839
0.0165576
0.0179819
0.0194559
0.0209784
0.022548
0.0241633
0.0258231
0.0275255
0.0292689
0.0310513
0.0328705
0.0347246
0.0366112
0.0385279
0.0404722
0.0424417
0.0444336
0.0464448
0.0484727
0.0505143
0.0525669
0.0546276
0.0566933
0.0587626
0.000340071
0.00042505
0.000688208
0.00111012
0.00161143
0.00218163
0.00281643
0.00351302
0.00426825
0.00508058
0.00594905
0.00687303
0.00785219
0.00888589
0.00997379
0.0111157
0.0123111
0.0135594
0.01486
0.0162123
0.0176156
0.019069
0.0205714
0.0221217
0.0237187
0.0253609
0.0270468
0.0287746
0.0305427
0.032349
0.0341916
0.0360678
0.0379758
0.0399128
0.0418765
0.043864
0.0458726
0.0478993
0.0499415
0.0519962
0.0540604
0.0561315
0.0582077
0.00033914
0.000423681
0.000675235
0.00108196
0.00156962
0.00212521
0.00274421
0.00342406
0.00416209
0.00495655
0.0058065
0.0067114
0.00767087
0.0086845
0.00975218
0.0108734
0.0120479
0.0132754
0.0145554
0.0158872
0.0172702
0.0187036
0.0201867
0.0217182
0.0232971
0.0249221
0.0265916
0.0283041
0.0300578
0.031851
0.0336816
0.0355474
0.037446
0.0393752
0.0413326
0.0433152
0.0453203
0.0473452
0.0493871
0.051443
0.0535099
0.0555852
0.0576674
0.00033835
0.000423221
0.000668244
0.00105636
0.00153088
0.00207271
0.002677
0.00334111
0.004063
0.00484064
0.00567308
0.00655999
0.00750087
0.0084956
0.00954388
0.0106456
0.0118003
0.013008
0.0142682
0.0155803
0.0169438
0.0183581
0.0198224
0.0213356
0.0228967
0.0245048
0.026158
0.0278553
0.0295948
0.0313747
0.0331932
0.0350481
0.0369373
0.0388583
0.0408088
0.0427859
0.044787
0.0468093
0.0488501
0.0509063
0.0529751
0.0550534
0.0571396
0.000337761
0.00042395
0.00066592
0.00103334
0.00149503
0.00202389
0.00261423
0.00326355
0.00397019
0.00473199
0.00554801
0.00641782
0.00734117
0.00831787
0.00934789
0.0104309
0.0115668
0.0127556
0.0139968
0.01529
0.0166347
0.0180304
0.0194765
0.0209719
0.0225159
0.0241072
0.0257446
0.0274268
0.029152
0.0309188
0.0327251
0.0345689
0.0364481
0.0383606
0.0403037
0.0422749
0.0442714
0.0462906
0.0483295
0.0503853
0.052455
0.0545356
0.0566247
0.000337397
0.000425428
0.000665777
0.00101252
0.00146175
0.00197823
0.00255554
0.00319097
0.00388301
0.00462982
0.00543029
0.00628396
0.0071907
0.00815033
0.00916287
0.0102282
0.0113462
0.0125169
0.0137397
0.0150147
0.0163414
0.0177192
0.0191476
0.0206257
0.0221529
0.0237279
0.0253498
0.027017
0.0287282
0.0304817
0.0322757
0.0341083
0.0359776
0.037881
0.0398165
0.0417813
0.0437727
0.0457882
0.0478246
0.0498793
0.0519492
0.0540313
0.056123
0.000337158
0.00042711
0.000665986
0.000993426
0.00143067
0.00193548
0.00250048
0.0031228
0.00380105
0.0045337
0.00531938
0.00615779
0.00704869
0.00799204
0.00898798
0.0100364
0.0111373
0.0122904
0.0134958
0.0147533
0.0160625
0.017423
0.0188343
0.0202957
0.0218065
0.0233656
0.0249721
0.0266246
0.0283218
0.0300622
0.0318439
0.0336654
0.0355242
0.0374187
0.0393461
0.0413042
0.0432901
0.0453012
0.0473347
0.0493876
0.051457
0.0535395
0.0556327
0.00033688
0.00042869
0.000665693
0.000975734
0.00140162
0.00189537
0.00244863
0.00305858
0.00372372
0.00444275
0.00521439
0.00603826
0.00691423
0.00784217
0.00882221
0.00985448
0.0109388
0.0120754
0.013264
0.0145047
0.0157971
0.0171408
0.0185354
0.0199806
0.0214754
0.0230189
0.0246103
0.0262484
0.0279318
0.0296591
0.0314287
0.0332387
0.0350874
0.0369723
0.0388916
0.0408424
0.0428225
0.044829
0.046859
0.0489096
0.0509776
0.0530596
0.0551512
0.000336657
0.000429932
0.000665014
0.00095929
0.00137444
0.00185761
0.00239981
0.00299801
0.00365062
0.00435678
0.00511507
0.00592508
0.00678674
0.00769991
0.00866482
0.00968147
0.0107501
0.0118706
0.0130432
0.0142677
0.0155439
0.0168714
0.0182499
0.0196793
0.0211585
0.0226868
0.0242635
0.0258872
0.0275571
0.0292715
0.0310288
0.0328275
0.0346656
0.0365413
0.0384519
0.0403956
0.0423695
0.0443708
0.0463969
0.0484448
0.0505114
0.0525935
0.0546891
0.000336435
0.000430824
0.000663762
0.000943879
0.00134879
0.001822
0.00235369
0.00294063
0.00358145
0.00427529
0.00502091
0.00581773
0.00666564
0.00756471
0.00851509
0.00951698
0.0105705
0.0116757
0.0128327
0.0140415
0.0153019
0.0166138
0.0179769
0.0193907
0.0208547
0.0223683
0.0239305
0.0255402
0.0271966
0.0288982
0.0306436
0.0324309
0.0342585
0.0361245
0.0380267
0.0399627
0.04193
0.0439259
0.0459479
0.0479928
0.0500578
0.0521398
0.0542377
0.00033605
0.000431431
0.000661877
0.000929411
0.00132463
0.00178841
0.00231005
0.0028863
0.00351584
0.00419779
0.00493125
0.00571549
0.0065503
0.00743596
0.00837247
0.0093601
0.0103991
0.0114896
0.0126316
0.0138253
0.0150706
0.0163673
0.0177153
0.0191141
0.0205634
0.0220625
0.0236104
0.0252065
0.0268497
0.0285386
0.0302718
0.0320478
0.033865
0.0357214
0.0376149
0.039543
0.0415036
0.043494
0.0455115
0.0475532
0.0496163
0.0516986
0.0537982
0.000335622
0.000431735
0.00065964
0.000916331
0.00130185
0.00175658
0.00226865
0.00283484
0.00345366
0.00412423
0.00484599
0.00561808
0.00644037
0.00731306
0.00823628
0.00921034
0.0102353
0.0113116
0.0124391
0.0136183
0.0148489
0.016131
0.0174643
0.0188487
0.0202835
0.0217683
0.0233025
0.0248851
0.0265153
0.0281916
0.0299129
0.0316778
0.0334844
0.0353312
0.0372157
0.039136
0.0410897
0.0430743
0.0450871
0.0471253
0.0491865
0.0512684
0.0533702
0.000335239
0.000431927
0.00065759
0.000905569