/*--------------------------------*- C++ -*----------------------------------*\
| =========                 |                                                 |
| \\      /  F ield         | OpenFOAM: The Open Source CFD Toolbox           |
|  \\    /   O peration     | Version:  2.3.0                                 |
|   \\  /    A nd           | Web:      www.OpenFOAM.org                      |
|    \\/     M anipulation  |                                                 |
\*---------------------------------------------------------------------------*/
FoamFile
{
    version     2.0;
    format      ascii;
    class       surfaceScalarField;
    location    "5000";
    object      phi;
}
// * * * * * * * * * * * * * * * * * * * * * * * * * * * * * * * * * * * * * //

dimensions      [0 3 -1 0 0 0 0];

internalField   nonuniform List<scalar> 
74892
(
0.000256815
-0.00620011
0.00675054
-0.000807247
-0.000251244
-0.00597429
0.00648234
-0.000718807
-0.00575701
0.00622457
-0.00114674
-0.00554842
0.00597635
-0.00153697
-0.00534767
0.00573791
-0.00189124
-0.00515467
0.00550893
-0.00221034
-0.0049697
0.0052888
-0.0024961
-0.00479153
0.00507728
-0.0027497
-0.00462024
0.00487384
-0.00297282
-0.00445551
0.00467863
-0.00316631
-0.00429755
0.00449104
-0.00333179
-0.0041453
0.00431078
-0.0034693
-0.00399959
0.00413709
-0.00358076
-0.00385882
0.00397029
-0.00366778
-0.00372363
0.00381066
-0.00373019
-0.00359413
0.00365654
-0.00376989
-0.00346912
0.00350882
-0.00378721
-0.00334923
0.00336655
-0.0037832
-0.00323366
0.00322964
-0.00375861
-0.00312286
0.00309827
-0.00371451
-0.00301596
0.00297186
-0.00365113
-0.00291372
0.00285034
-0.00356991
-0.00281469
0.00273346
-0.00347076
-0.00272003
0.00262087
-0.00335468
-0.00262855
0.00251248
-0.00322199
-0.00254083
0.00240814
-0.00307356
-0.00245626
0.00230783
-0.00290912
-0.00237522
0.00221079
-0.00273057
-0.00229643
0.00211788
-0.00253671
-0.00222146
0.0020276
-0.00232841
-0.0021488
0.0019405
-0.00210629
-0.00207922
0.0018571
-0.00187013
-0.00201227
0.0017761
-0.00162
-0.00194786
0.00169773
-0.0013566
-0.00188598
0.00162258
-0.00107893
-0.00182698
0.00154932
-0.000787891
-0.00177057
0.00147953
-0.000482343
-0.00171729
0.00141175
-0.000163045
-0.00166668
0.00134738
0.000171628
-0.00162062
0.00128595
0.000522297
-0.00157887
0.0012282
0.00089518
-0.00154481
0.00117193
-0.001523
0.00131662
0.00110155
0.000243463
-0.0057012
-0.000742368
-0.0002165
-0.00551432
-0.000639673
-0.00533384
-0.00102737
-0.00516072
-0.0013808
-0.00499425
-0.00170116
-0.0048343
-0.00199069
-0.00468017
-0.00224977
-0.00453245
-0.00247969
-0.00439033
-0.00268184
-0.00425336
-0.00285721
-0.00412218
-0.00300678
-0.00399573
-0.00313236
-0.00387401
-0.00323377
-0.00375741
-0.00331241
-0.003645
-0.00336945
-0.00353708
-0.00340565
-0.00343292
-0.00342197
-0.00333291
-0.00341876
-0.00323687
-0.00339706
-0.00314456
-0.00335776
-0.00305525
-0.00330158
-0.00296989
-0.0032285
-0.00288777
-0.00314042
-0.00280811
-0.00303697
-0.002732
-0.00291901
-0.00265879
-0.00278684
-0.00258842
-0.0026416
-0.00252046
-0.00248267
-0.00245536
-0.00231169
-0.00239244
-0.00212777
-0.00233272
-0.00193209
-0.0022749
-0.00172481
-0.00221955
-0.00150578
-0.00216689
-0.00127544
-0.00211632
-0.00103364
-0.00206878
-0.000781013
-0.0020232
-0.000517424
-0.00198088
-0.000242706
-0.0019414
4.13955e-05
-0.00190472
0.000334131
-0.00187161
0.000631631
-0.00184231
-0.00181621
0.000924841
0.000229861
-0.00524954
-0.000681519
-0.000187241
-0.00509722
-0.00057075
-0.00495033
-0.000921864
-0.00480961
-0.00124218
-0.00467393
-0.00153259
-0.00454389
-0.00179459
-0.00441818
-0.00202946
-0.00429758
-0.00223788
-0.0041819
-0.00242122
-0.00407002
-0.00258038
-0.00396303
-0.00271618
-0.00385992
-0.00282954
-0.00376066
-0.00292177
-0.00366517
-0.00299315
-0.00357362
-0.00304536
-0.00348488
-0.00307789
-0.00340039
-0.00309241
-0.00331838
-0.00308959
-0.0032397
-0.00307037
-0.00316378
-0.00303443
-0.00309119
-0.00298337
-0.00302095
-0.00291762
-0.00295352
-0.00283736
-0.00288837
-0.00274315
-0.00282622
-0.00263628
-0.00276566
-0.00251679
-0.00270791
-0.00238484
-0.0026524
-0.00224148
-0.00259873
-0.00208669
-0.00254723
-0.00192127
-0.00249814
-0.00174538
-0.00245079
-0.00155921
-0.00240572
-0.00136377
-0.00236233
-0.00115884
-0.00232125
-0.000945437
-0.00228218
-0.000723371
-0.00224527
-0.000493436
-0.00221082
-0.000256498
-0.00217834
-1.24467e-05
-0.00214877
0.000236956
-0.00212101
0.00049047
-0.00209583
-0.00207272
0.000746979
0.00021559
-0.0048402
-0.000624936
-0.000162394
-0.00471924
-0.000509871
-0.00460285
-0.000828213
-0.00449127
-0.00111879
-0.00438335
-0.00138249
-0.00428019
-0.00162008
-0.00418059
-0.00183293
-0.00408473
-0.00202231
-0.00399252
-0.00218848
-0.00390384
-0.00233291
-0.0038186
-0.00245646
-0.00373636
-0.00255968
-0.00365745
-0.00264342
-0.00358143
-0.00270873
-0.00350831
-0.00275574
-0.00343787
-0.00278601
-0.00337012
-0.00279958
-0.00330481
-0.00279749
-0.00324179
-0.00277997
-0.00318131
-0.00274837
-0.00312279
-0.0027023
-0.00306702
-0.0026432
-0.00301261
-0.00257081
-0.00296076
-0.00248645
-0.00291058
-0.00239003
-0.00286208
-0.00228216
-0.00281578
-0.00216349
-0.00277108
-0.00203419
-0.00272803
-0.00189488
-0.00268654
-0.00174569
-0.00264734
-0.00158749
-0.00260899
-0.00142013
-0.00257308
-0.00124428
-0.00253818
-0.00105998
-0.00250554
-0.00086819
-0.00247398
-0.00066901
-0.00244445
-0.000462891
-0.00241694
-0.000250012
-0.00239122
-3.17591e-05
-0.00236702
0.00019208
-0.00234485
0.000420578
-0.00232432
-0.0023052
0.000653051
0.000201487
-0.00446886
-0.000572828
-0.000141439
-0.00437631
-0.000456438
-0.00428785
-0.000745483
-0.00420222
-0.00100884
-0.00411999
-0.00124789
-0.00404114
-0.00146379
-0.00396469
-0.001657
-0.00389152
-0.00182879
-0.00382073
-0.00198
-0.00375263
-0.00211118
-0.00368741
-0.00222318
-0.00362436
-0.00231696
-0.00356367
-0.00239315
-0.00350524
-0.0024526
-0.00344887
-0.00249562
-0.00339484
-0.00252339
-0.00334235
-0.00253621
-0.003292
-0.00253423
-0.00324378
-0.00251886
-0.00319668
-0.00248975
-0.0031519
-0.00244873
-0.00310804
-0.00239493
-0.00306641
-0.00232997
-0.00302572
-0.00225369
-0.00298686
-0.00216641
-0.00294936
-0.00206886
-0.00291333
-0.00196154
-0.0028784
-0.00184459
-0.00284498
-0.00171861
-0.00281251
-0.00158414
-0.00278181
-0.0014409
-0.00275223
-0.00128998
-0.002724
-0.00113134
-0.00269682
-0.000965388
-0.00267149
-0.0007925
-0.00264687
-0.000613002
-0.00262395
-0.000427282
-0.00260266
-0.000235977
-0.00258252
-3.89763e-05
-0.00256402
0.000162789
-0.00254662
0.000369143
-0.00253068
-0.00251584
0.000579784
0.000187706
-0.004132
-0.000524559
-0.000123175
-0.00406543
-0.000409439
-0.00400159
-0.000671336
-0.00394032
-0.000910406
-0.00388092
-0.00112761
-0.00382394
-0.00132349
-0.00376881
-0.0014992
-0.00371581
-0.00165511
-0.00366483
-0.00179223
-0.00361551
-0.00191134
-0.00356831
-0.00201324
-0.00352246
-0.0020986
-0.00347831
-0.00216817
-0.00343567
-0.00222214
-0.00339489
-0.00226146
-0.00335552
-0.00228657
-0.00331724
-0.00229839
-0.00328018
-0.00229705
-0.00324512
-0.00228327
-0.00321045
-0.00225758
-0.00317759
-0.00222001
-0.00314561
-0.00217169
-0.00311473
-0.00211284
-0.00308457
-0.00204359
-0.00305611
-0.00196467
-0.00302829
-0.00187669
-0.00300131
-0.0017795
-0.0029756
-0.00167389
-0.00295059
-0.0015599
-0.0029265
-0.00143805
-0.00290366
-0.00130846
-0.00288182
-0.001172
-0.00286046
-0.00102852
-0.0028403
-0.000878454
-0.00282155
-0.00072206
-0.00280326
-0.000559433
-0.00278657
-0.000391665
-0.00277043
-0.000218304
-0.00275588
-4.0171e-05
-0.00274216
0.000142652
-0.00272944
0.000329615
-0.00271764
-0.00270689
0.000520672
0.000174076
-0.00382598
-0.000480098
-0.000107887
-0.00378347
-0.000367524
-0.00374195
-0.000605409
-0.00370244
-0.000822666
-0.00366366
-0.00101967
-0.00362693
-0.00119747
-0.00359102
-0.00135706
-0.00355621
-0.00149875
-0.00352314
-0.00162325
-0.00349101
-0.00173162
-0.00345994
-0.00182443
-0.00342965
-0.00190175
-0.00340099
-0.00196485
-0.00337257
-0.00201412
-0.00334562
-0.00205016
-0.00331948
-0.00207335
-0.00329405
-0.00208379
-0.00326974
-0.00208279
-0.00324611
-0.00207028
-0.00322296
-0.00204729
-0.00320058
-0.00201364
-0.00317925
-0.00197007
-0.00315831
-0.00191647
-0.00313817
-0.00185379
-0.0031188
-0.00178244
-0.00309963
-0.00170246
-0.00308128
-0.00161467
-0.00306339
-0.00151889
-0.00304637
-0.00141544
-0.00302995
-0.00130544
-0.00301366
-0.00118822
-0.00299904
-0.00106427
-0.00298441
-0.000934121
-0.00297045
-0.000798242
-0.00295743
-0.000656346
-0.00294516
-0.000509563
-0.00293336
-0.000357325
-0.00292266
-0.000200457
-0.00291275
-3.89539e-05
-0.00290366
0.000126919
-0.00289531
0.000296902
-0.00288762
-0.00288027
0.000470279
0.000161694
-0.00354903
-0.000438641
-9.48779e-05
-0.00352689
-0.000330227
-0.0035066
-0.000546535
-0.00348613
-0.000743606
-0.00346659
-0.000922814
-0.00344773
-0.0010844
-0.00342943
-0.00122856
-0.00341205
-0.00135758
-0.00339412
-0.00147076
-0.00337783
-0.00156971
-0.00336099
-0.00165356
-0.0033458
-0.00172431
-0.00333023
-0.00178162
-0.00331526
-0.00182648
-0.00330076
-0.0018591
-0.00328686
-0.0018801
-0.00327305
-0.00188999
-0.00325985
-0.00188957
-0.00324653
-0.00187846
-0.00323407
-0.00185708
-0.00322196
-0.00182676
-0.00320958
-0.00178714
-0.00319792
-0.00173881
-0.0031865
-0.00168217
-0.00317543
-0.00161747
-0.00316433
-0.00154516
-0.00315359
-0.00146544
-0.00314311
-0.00137854
-0.00313328
-0.00128486
-0.00312362
-0.00118437
-0.00311414
-0.00107835
-0.00310505
-0.000966295
-0.00309647
-0.000848356
-0.00308839
-0.000724933
-0.00308085
-0.00059637
-0.00307372
-0.00046308
-0.00306665
-0.000325048
-0.0030607
-0.000182503
-0.0030553
-3.59676e-05
-0.0030502
0.000114316
-0.0030456
0.000268445
-0.00304175
-0.0030383
0.000426477
0.000149235
-0.000401812
-0.00329646
-8.31038e-05
-0.00329456
-0.000297338
-0.00329237
-0.000493741
-0.00328973
-0.000672572
-0.00328776
-0.000834922
-0.00328538
-0.000981963
-0.00328239
-0.00111375
-0.00328026
-0.00123044
-0.00327744
-0.00133342
-0.00327485
-0.00142295
-0.00327146
-0.00149972
-0.00326903
-0.00156364
-0.00326631
-0.00161596
-0.00326294
-0.00165678
-0.00325995
-0.0016865
-0.00325715
-0.00170588
-0.00325366
-0.00171481
-0.00325093
-0.00171415
-0.00324719
-0.00170431
-0.00324391
-0.00168518
-0.00324109
-0.0016576
-0.00323716
-0.00162196
-0.00323356
-0.00157794
-0.00323052
-0.00152687
-0.0032265
-0.00146809
-0.00322311
-0.00140222
-0.00321947
-0.00132987
-0.00321546
-0.00125113
-0.00321201
-0.00116618
-0.00320857
-0.0010756
-0.00320472
-0.000979156
-0.0032015
-0.000877189
-0.00319844
-0.00076999
-0.00319559
-0.000658091
-0.00319275
-0.000541608
-0.0031902
-0.000420484
-0.00318777
-0.000295304
-0.00318588
-0.000165986
-0.00318461
-3.30139e-05
-0.00318317
0.000103669
-0.00318228
0.000243906
-0.00318199
0.000386974
-0.00318137
0.00156652
-0.00155035
0.00130046
0.00179473
-0.00161573
0.00138751
0.00202752
-0.00167266
0.00143987
0.00225837
-0.001725
0.00149415
0.00248514
-0.00177595
0.00154918
0.00270692
-0.00182607
0.00160429
0.00292251
-0.00187667
0.00166107
0.00313197
-0.00192811
0.00171865
0.00333392
-0.00198111
0.00177916
0.00352819
-0.00203542
0.00184115
0.00371341
-0.00209149
0.00190628
0.00388944
-0.00215002
0.00197399
0.00405615
-0.00221083
0.00204411
0.00421158
-0.00227342
0.002118
0.00435586
-0.00233935
0.00219507
0.00448801
-0.00240691
0.00227475
0.00460774
-0.0024782
0.00235848
0.00471359
-0.0025512
0.00244535
0.0048058
-0.00262824
0.00253602
0.00488265
-0.00270735
0.0026305
0.0049443
-0.00279047
0.00272882
0.00498953
-0.00287623
0.00283101
0.00501833
-0.00296616
0.00293735
0.00502901
-0.00305869
0.00304802
0.00502161
-0.00315563
0.00316302
0.00499471
-0.00325595
0.00328285
0.00494796
-0.00336052
0.00340728
0.00488095
-0.00346933
0.00353634
0.00479218
-0.00358212
0.00367089
0.00468157
-0.00369942
0.00381003
0.00454744
-0.00382116
0.00395528
0.00438961
-0.00394849
0.00410632
0.00420655
-0.00407975
0.00426281
0.0039978
-0.00421665
0.0044254
0.00376252
-0.00435907
0.00459435
0.00349938
-0.00450698
0.00477013
0.00320717
-0.00466037
0.00495258
0.00288528
-0.00482026
0.00514215
0.0025323
-0.00498604
0.00533902
0.00214715
-0.00515854
0.0055437
0.00172826
-0.00533756
0.00575645
0.00127499
-0.00552381
0.00597708
-0.00571738
0.00620651
0.000785856
0.00120024
-0.00182575
0.00145414
-0.00186963
0.00169458
-0.0019131
0.00192623
-0.00195665
0.00214978
-0.0019995
0.00236662
-0.00204291
0.00257657
-0.00208662
0.0027791
-0.00213065
0.0029737
-0.00217571
0.00316037
-0.00222208
0.00333838
-0.00226951
0.00350714
-0.00231878
0.00366547
-0.00236916
0.00381326
-0.00242122
0.00394982
-0.00247591
0.00407496
-0.00253204
0.00418713
-0.00259037
0.00428723
-0.0026513
0.00437333
-0.00271434
0.00444638
-0.00278039
0.00450415
-0.00284825
0.00454704
-0.00291912
0.00457406
-0.00299318
0.004585
-0.00306963
0.00457912
-0.00314975
0.00455571
-0.00323254
0.00451415
-0.00331897
0.00445306
-0.00340824
0.00437283
-0.00350189
0.00427235
-0.00359894
0.00415095
-0.00369976
0.00400689
-0.00380442
0.00384082
-0.00391369
0.00365123
-0.00402705
0.00343667
-0.00414451
0.00319686
-0.00426718
0.00293096
-0.00439447
0.00263736
-0.00452666
0.00231578
-0.00466447
0.00196447
-0.00480723
0.00158293
-0.00495603
0.00116915
-0.00511003
-0.00527059
0.000722359
0.000999875
-0.00207865
0.00124248
-0.00211224
0.00147592
-0.00214654
0.0017006
-0.00218133
0.00191686
-0.00221576
0.00212485
-0.0022509
0.00232436
-0.00228613
0.0025158
-0.00232209
0.00269875
-0.00235866
0.00287289
-0.00239622
0.00303807
-0.00243469
0.00319345
-0.00247416
0.00333907
-0.00251477
0.00347525
-0.0025574
0.00360032
-0.00260098
0.00371484
-0.00264656
0.00381801
-0.00269355
0.00390909
-0.00274238
0.0039884
-0.00279365
0.00405419
-0.00284618
0.0041073
-0.00290136
0.00414669
-0.0029585
0.00417131
-0.0030178
0.00418173
-0.00308004
0.00417631
-0.00314433
0.00415512
-0.00321135
0.00411724
-0.00328109
0.00406255
-0.00335354
0.00398964
-0.00342899
0.00389829
-0.0035076
0.00378762
-0.00358908
0.0036572
-0.00367401
0.00350578
-0.00376226
0.00333257
-0.00385384
0.00313756
-0.00394949
0.0029193
-0.00404892
0.00267683
-0.004152
0.00240958
-0.00425941
0.0021164
-0.00437129
0.00179636
-0.00448718
0.00144794
-0.00460761
0.00107123
-0.00473332
-0.00486371
0.00066435
0.000883111
-0.00230871
0.00110542
-0.00233454
0.00131982
-0.00236094
0.00152619
-0.00238771
0.00172544
-0.002415
0.00191683
-0.00244229
0.00210052
-0.00246982
0.0022765
-0.00249808
0.00244502
-0.00252718
0.00260494
-0.00255614
0.00275662
-0.00258636
0.00289942
-0.00261696
0.00303387
-0.00264923
0.00315825
-0.00268178
0.00327337
-0.00271611
0.00337838
-0.00275156
0.00347311
-0.00278828
0.003557
-0.00282627
0.00362949
-0.00286613
0.00369071
-0.0029074
0.00373942
-0.00295007
0.00377595
-0.00299504
0.00379928
-0.00304113
0.00380895
-0.00308971
0.00380483
-0.00314021
0.00378589
-0.00319241
0.00375199
-0.00324719
0.00370241
-0.00330396
0.00363652
-0.00336309
0.00355351
-0.00342459
0.00345307
-0.00348864
0.00333429
-0.00355523
0.00319675
-0.00362473
0.00303977
-0.00369686
0.00286244
-0.00377217
0.00266352
-0.00384999
0.00244306
-0.00393155
0.00219981
-0.00401617
0.00193236
-0.00410384
0.00164084
-0.00419566
0.00132385
-0.00429062
0.000980419
-0.00438989
-0.00449247
0.000609172
0.000788873
-0.0025178
0.000991598
-0.00253727
0.00118785
-0.00255719
0.00137699
-0.00257685
0.00155938
-0.00259739
0.00173485
-0.00261776
0.00190399
-0.00263895
0.0020654
-0.00265949
0.00221918
-0.00268097
0.00236607
-0.00270304
0.00250509
-0.00272538
0.00263629
-0.00274815
0.00275864
-0.00277158
0.00287306
-0.0027962
0.00297851
-0.00282156
0.00307464
-0.0028477
0.00316109
-0.00287473
0.00323798
-0.00290316
0.00330447
-0.00293263
0.00336031
-0.00296323
0.00340512
-0.00299489
0.00343847
-0.00302839
0.0034602
-0.00306286
0.00346948
-0.003099
0.00346549
-0.00313621
0.00344893
-0.00317585
0.00341812
-0.00321637
0.00337328
-0.00325912
0.0033134
-0.00330322
0.00323824
-0.00334943
0.003147
-0.00339739
0.00303941
-0.00344764
0.00291414
-0.00349946
0.0027714
-0.00355411
0.00260992
-0.00361069
0.00242918
-0.00366926
0.00222858
-0.00373094
0.00200667
-0.00379426
0.00176369
-0.00386085
0.00149846
-0.00393043
0.00120965
-0.00400181
0.000896659
-0.0040769
-0.00415452
0.000558716
0.000711174
-0.0027083
0.000895551
-0.00272165
0.00107395
-0.00273559
0.00124683
-0.00274973
0.00141323
-0.00276379
0.00157382
-0.00277834
0.00172739
-0.00279252
0.00187527
-0.00280737
0.0020161
-0.0028218
0.00215002
-0.00283697
0.00227673
-0.00285209
0.00239655
-0.00286797
0.00250885
-0.00288388
0.00261299
-0.00290034
0.0027091
-0.00291767
0.00279683
-0.00293542
0.00287629
-0.00295419
0.00294634
-0.00297322
0.00300722
-0.0029935
0.00305827
-0.00301428
0.00309933
-0.00303594
0.00313004
-0.0030591
0.00314969
-0.00308251
0.00315838
-0.00310769
0.00315559
-0.00313342
0.00314038
-0.00316064
0.00311286
-0.00318886
0.00307195
-0.0032182
0.00301784
-0.00324911
0.00294973
-0.00328132
0.00286717
-0.00331483
0.00276918
-0.00334966
0.00265597
-0.00338625
0.0025259
-0.00342404
0.00237898
-0.00346377
0.00221469
-0.00350497
0.00203179
-0.00354804
0.00183036
-0.00359284
0.00160936
-0.00363985
0.00136723
-0.00368829
0.00110438
-0.00373896
0.000819396
-0.00379192
-0.0038469
0.000511771
0.000643236
-0.00288126
0.000811291
-0.0028897
0.000973721
-0.00289802
0.00113102
-0.00290703
0.0012828
-0.00291557
0.00142883
-0.00292437
0.00156971
-0.0029334
0.0017038
-0.00294145
0.00183247
-0.00295047
0.00195464
-0.00295913
0.00207055
-0.002968
0.0021792
-0.00297662
0.00228156
-0.00298624
0.00237692
-0.00299569
0.00246472
-0.00300547
0.00254488
-0.00301558
0.00261703
-0.00302634
0.00268121
-0.0030374
0.00273639
-0.00304868
0.00278316
-0.00306106
0.00282105
-0.00307384
0.00284881
-0.00308685
0.00286737
-0.00310107
0.00287545
-0.00311577
0.00287287
-0.00313084
0.00285918
-0.00314695
0.0028343
-0.00316397
0.00279768
-0.00318159
0.00274842
-0.00319985
0.00268652
-0.00321942
0.00261119
-0.00323951
0.00252229
-0.00326075
0.0024188
-0.00328275
0.00230071
-0.00330595
0.00216723
-0.00333029
0.00201802
-0.00335575
0.00185198
-0.003382
0.00166842
-0.00340928
0.00146722
-0.00343866
0.00124706
-0.00346814
0.00100804
-0.00349993
0.00074864
-0.00353252
-0.00356679
0.000468534
0.000583471
-0.00303825
0.000736027
-0.00304226
0.000884031
-0.00304602
0.00102703
-0.00305004
0.00116549
-0.00305403
0.00129866
-0.00305755
0.00142606
-0.0030608
0.00154906
-0.00306446
0.00166604
-0.00306745
0.0017772
-0.00307029
0.00188242
-0.00307323
0.00198213
-0.00307632
0.00207525
-0.00307936
0.00216203
-0.00308248
0.00224213
-0.00308557
0.00231515
-0.0030886
0.00238091
-0.00309211
0.00243928
-0.00309577
0.00249036
-0.00309975
0.00253302
-0.00310372
0.00256716
-0.00310798
0.00259311
-0.0031128
0.00260975
-0.00311772
0.00261703
-0.00312305
0.00261479
-0.0031286
0.00260283
-0.00313498
0.00258011
-0.00314126
0.0025467
-0.00314818
0.0025022
-0.00315534
0.00244582
-0.00316305
0.0023778
-0.00317149
0.00229693
-0.00317988
0.00220329
-0.00318911
0.00209596
-0.00319862
0.00197452
-0.00320885
0.0018385
-0.00321973
0.00168742
-0.00323092
0.00152087
-0.00324273
0.00133732
-0.00325511
0.00113741
-0.00326822
0.000919728
-0.00328225
0.000683619
-0.00329641
-0.00331163
0.000428455
0.00052985
-0.00318113
0.000668816
-0.00318122
0.00080341
-0.00318061
0.000933476
-0.0031801
0.00105936
-0.00317991
0.00118045
-0.00317863
0.00129687
-0.00317722
0.0014085
-0.00317609
0.0015148
-0.00317375
0.00161619
-0.00317168
0.00171258
-0.00316962
0.00180302
-0.00316676
0.00188782
-0.00316417
0.00196679
-0.00316144
0.00203945
-0.00315823
0.00210616
-0.00315531
0.0021663
-0.00315225
0.00221954
-0.00314901
0.00226537
-0.00314559
0.0023043
-0.00314264
0.00233551
-0.0031392
0.00235893
-0.00313622
0.0023743
-0.0031331
0.00238134
-0.00313009
0.00237959
-0.00312685
0.00236881
-0.0031242
0.0023482
-0.00312064
0.00231777
-0.00311775
0.00227752
-0.00311509
0.00222638
-0.00311191
0.00216409
-0.0031092
0.00209114
-0.00310693
0.00200577
-0.00310374
0.00190835
-0.0031012
0.00179818
-0.00309869
0.00167429
-0.00309583
0.00153697
-0.0030936
0.0013854
-0.00309117
0.00121876
-0.00308847
0.00103675
-0.00308621
0.0008385
-0.003084
0.000623772
-0.00308169
0.000391543
-0.0030794
-0.000204754
0.00622901
-0.00678536
0.000761102
0.000309166
0.00600367
-0.00651759
0.000782778
0.00578676
-0.00626037
0.00121683
0.00557822
-0.00601227
0.00161317
0.00537717
-0.0057735
0.00197337
0.00518343
-0.00554363
0.00229805
0.00499725
-0.00532193
0.00258887
0.00481726
-0.00510807
0.00284676
0.00464348
-0.00490137
0.00307325
0.00447545
-0.00470193
0.00326888
0.00431333
-0.00450896
0.00343504
0.00415592
-0.00432208
0.00357148
0.004004
-0.00414044
0.00367999
0.00385582
-0.00396433
0.00376204
0.00371201
-0.00379405
0.00381726
0.00357265
-0.00362787
0.00384758
0.00343641
-0.00346673
0.00385332
0.00330396
-0.00330971
0.00383566
0.0031745
-0.00315684
0.00379564
0.00304842
-0.00300839
0.0037346
0.00292494
-0.00286391
0.00365325
0.00280487
-0.00272352
0.00355366
0.00268676
-0.00258717
0.00343635
0.00257194
-0.00245463
0.0033032
0.0024592
-0.00232605
0.00315523
0.00234932
-0.00220136
0.00299447
0.00224164
-0.00208089
0.00282153
0.00213675
-0.00196381
0.00263955
0.00203327
-0.0018513
0.00244837
0.00193298
-0.00174179
0.00225024
0.00183415
-0.00163602
0.002047
0.00173769
-0.00153446
0.00183981
0.00164296
-0.00143577
0.00163022
0.00154969
-0.0013401
0.00142051
0.00145758
-0.00124787
0.00121133
0.00136657
-0.0011574
0.00100545
0.00127569
-0.00106981
0.00080382
0.00118446
-0.000982826
0.000609785
0.00109059
-0.000896557
0.000424633
0.000993357
-0.000808205
0.000250899
0.000888368
-0.000714634
7.89026e-05
0.000780663
-0.000608666
0.000753466
-0.000185619
-0.000488944
-0.000192487
0.00572485
0.000696652
0.000272615
0.00553857
0.000701063
0.00535831
0.00109411
0.00518518
0.00145284
0.00501843
0.00177839
0.00485787
0.0020729
0.00470275
0.00233658
0.00455357
0.00257059
0.00440947
0.00277618
0.00426986
0.00295412
0.00413539
0.00310526
0.00400478
0.00323123
0.00387802
0.00333165
0.0037554
0.00340779
0.00363588
0.00346073
0.00351971
0.00349108
0.00340606
0.00349982
0.00329523
0.00348725
0.00318706
0.00345449
0.00308117
0.00340268
0.00297675
0.00333272
0.00287483
0.00324485
0.00277463
0.00314155
0.00267524
0.00302285
0.0025779
0.00289031
0.00248187
0.00274484
0.00238711
0.00258849
0.00229311
0.00242141
0.00220035
0.00224629
0.0021081
0.00206313
0.00201731
0.00187443
0.0019264
0.00168149
0.0018359
0.00148545
0.00174573
0.00128821
0.00165483
0.00109112
0.00156365
0.000896562
0.00147025
0.000706225
0.00137479
0.000521823
0.00127499
0.000346906
0.00116827
0.000180886
0.00105439
9.8001e-06
0.000951749
0.000994945
-0.000231678
-0.00018089
0.00526885
0.000636886
0.000240756
0.00511692
0.000628871
0.00497019
0.000984623
0.00482943
0.00130958
0.00469347
0.00160453
0.00456293
0.00187091
0.00443637
0.00210992
0.00431456
0.00232214
0.00419725
0.00250878
0.00408322
0.00267066
0.00397351
0.00280842
0.00386702
0.00292287
0.00376357
0.00301519
0.00366308
0.0030855
0.00356556
0.00313545
0.00346976
0.00316435
0.00337716
0.00317386
0.00328572
0.00316461
0.00319631
0.0031376
0.00310818
0.00309249
0.00302187
0.0030311
0.00293622
0.00295407
0.00285165
0.00286179
0.00276753
0.00275522
0.00268447
0.00263611
0.00260097
0.00250504
0.00251819
0.00236267
0.00243547
0.00221079
0.00235223
0.00205019
0.00226869
0.00188245
0.00218505
0.00170858
0.00210027
0.00152976
0.00201472
0.0013481
0.00192738
0.00116446
0.00183847
0.000981089
0.00174702
0.000799129
0.00165221
0.000620922
0.001553
0.000449026
0.00144689
0.000284737
0.00133256
0.000127784
0.00121134
-3.85697e-05
0.0011181
0.00122024
-0.000263861
-0.000169186
0.0048555
0.000582542
0.00021271
0.00473503
0.000564118
0.00461879
0.000886379
0.00450717
0.00118086
0.00439899
0.00144838
0.00429541
0.00168964
0.0041951
0.00190596
0.00409824
0.00209853
0.00400469
0.00226752
0.00391424
0.00241428
0.00382675
0.00253964
0.00374166
0.00264393
0.00365928
0.00272798
0.00357903
0.00279272
0.00350081
0.00283817
0.00342431
0.00286582
0.00334951
0.00287565
0.00327589
0.00286865
0.00320332
0.00284503
0.00313179
0.0028062
0.0030607
0.00275178
0.00299065
0.00268338
0.00292004
0.00260091
0.00285
0.00250595
0.00277943
0.00239871
0.00270821
0.00228019
0.00263671
0.0021516
0.00256407
0.00201357
0.00249026
0.00186732
0.00241494
0.00171379
0.00233858
0.00155465
0.00225941
0.00139055
0.00217882
0.00122313
0.0020948
0.00105348
0.00200812
0.000883752
0.00191675
0.000715347
0.00182062
0.000550246
0.0017181
0.000390346
0.00160679
0.000238232
0.00148468
9.12308e-05
0.00135834
-6.7607e-05
0.00127694
0.00142773
-0.000275106
-0.000157725
0.00448115
0.000532074
0.000188468
0.00438883
0.000506731
0.00430052
0.000799062
0.00421483
0.00106567
0.00413239
0.00130789
0.00405318
0.00152688
0.00397611
0.00172301
0.00390212
0.0018975
0.00383019
0.00205116
0.00376058
0.00218441
0.00369349
0.00229803
0.00362804
0.00239291
0.0035644
0.0024696
0.00350234
0.00252885
0.00344156
0.00257089
0.00338227
0.0025969
0.0033235
0.00260701
0.00326578
0.00260137
0.00320897
0.00258132
0.00315184
0.00254654
0.00309548
0.00249894
0.00303825
0.00243759
0.00298139
0.0023643
0.00292328
0.0022791
0.00286463
0.0021825
0.00280482
0.00207555
0.00274366
0.00195906
0.00268055
0.0018337
0.00261562
0.00170058
0.00254807
0.00156087
0.00247828
0.00141487
0.00240541
0.00126459
0.00232911
0.00111082
0.00224857
0.000954952
0.00216399
0.000798453
0.00207325
0.000642932
0.00197614
0.00049029
0.00187074
0.000342862
0.00175422
0.000201731
0.00162581
6.51251e-05
0.00149495
-8.40182e-05
0.00142608
0.00161835
-0.000274635
-0.00014684
0.00414152
0.000486472
0.000166784
0.00407521
0.000455816
0.00401149
0.000720439
0.00395021
0.000962214
0.00389062
0.00118207
0.00383332
0.00138053
0.00377765
0.00155872
0.00372393
0.00171693
0.00367198
0.00185612
0.00362138
0.00197703
0.00357259
0.0020804
0.00352467
0.00216682
0.00347798
0.00223697
0.00343219
0.00229096
0.00338757
0.00232969
0.00334354
0.00235352
0.00329967
0.00236335
0.00325595
0.00235921
0.00321311
0.00234182
0.00316923
0.00231164
0.00312566
0.00226871
0.00308119
0.00221421
0.00303589
0.00214844
0.00298906
0.00207159
0.00294148
0.00198462
0.00289179
0.00188835
0.00283992
0.00178294
0.00278596
0.00166952
0.00272904
0.00154857
0.00266902
0.00142104
0.00260581
0.0012878
0.00253865
0.00115046
0.00246645
0.00100968
0.00238935
0.000866752
0.00230691
0.000722944
0.00221706
0.000579572
0.00211951
0.000439226
0.00201109
0.000303077
0.00189037
0.000173026
0.00175586
4.64644e-05
0.00162151
-9.27226e-05
0.00156527
0.00179381
-0.000268186
-0.000135827
0.00383346
0.00044388
0.00014831
0.00379107
0.000410188
0.00374961
0.000650297
0.0037101
0.00086981
0.0036711
0.00106899
0.00363414
0.00124891
0.00359774
0.00141058
0.00356226
0.00155421
0.00352835
0.0016805
0.0034951
0.00179043
0.00346266
0.00188456
0.00343054
0.00196289
0.00339966
0.00202656
0.00336852
0.00207593
0.00333821
0.00211167
0.0033078
0.00213395
0.00327738
0.00214288
0.00324702
0.00213975
0.00321624
0.00212437
0.0031846
0.00209781
0.00315222
0.00205982
0.00311918
0.00201119
0.00308452
0.0019518
0.00304844
0.00188269
0.00301059
0.00180442
0.00297006
0.00171722
0.00292713
0.00162214
0.00288103
0.00151928
0.0028319
0.00140929
0.00277901
0.0012938
0.00272129
0.00117249
0.00265996
0.00104666
0.00259228
0.000917693
0.00251832
0.000786962
0.00243764
0.000655101
0.00234892
0.000524143
0.00225047
0.000394731
0.0021405
0.000269452
0.00201565
0.000149258
0.00187605
3.14111e-05
0.00173936
-9.89025e-05
0.00169558
0.00195404
-0.000259129
-0.000126265
0.00355457
0.000405155
0.000132174
0.00353263
0.000369355
0.00351243
0.000587458
0.003492
0.000786414
0.00347215
0.000967393
0.00345316
0.00113076
0.00343438
0.00127657
0.00341645
0.00140725
0.00339767
0.00152197
0.00338038
0.00162227
0.00336236
0.00170724
0.00334557
0.00177896
0.00332794
0.00183687
0.00331061
0.00188184
0.00329324
0.00191424
0.0032754
0.00193461
0.00325702
0.00194335
0.00323827
0.0019413
0.00321829
0.00192793
0.00319798
0.00190359
0.00317656
0.00186966
0.00315311
0.00182583
0.00312836
0.0017726
0.00310166
0.00171043
0.00307276
0.00163973
0.00304076
0.00156105
0.00300581
0.00147486
0.00296723
0.0013817
0.00292506
0.00128178
0.00287894
0.00117622
0.00282685
0.00106607
0.00277011
0.000951826
0.00270653
0.00083437
0.00263577
0.000714832
0.00255718
0.000594433
0.00246932
0.000474826
0.00237007
0.000356766
0.00225856
0.000241736
0.00213068
0.000131388
0.0019864
2.30732e-05
0.00184767
-9.89252e-05
0.00181758
0.00210276
-0.000247648
-0.000116433
0.00330047
0.000370537
0.000117357
0.00329884
0.000333117
0.00329667
0.000530829
0.00329429
0.000711348
0.00329163
0.000875129
0.00328938
0.00102359
0.00328592
0.00115682
0.00328321
0.00127482
0.00327968
0.00137928
0.00327591
0.00146989
0.00327175
0.00154756
0.00326789
0.00161238
0.00326311
0.00166556
0.00325743
0.00170636
0.00325244
0.00173599
0.00324577
0.00175487
0.00323814
0.00176293
0.00323021
0.00176105
0.00322017
0.00174954
0.00320948
0.001728
0.0031981
0.00169734
0.00318377
0.0016584
0.00316729
0.00161045
0.00314962
0.00155465
0.00312856
0.00149077
0.00310464
0.00141911
0.00307747
0.00134125
0.00304509
0.00125714
0.00300917
0.0011668
0.00296928
0.00107171
0.00292194
0.00097048
0.00287134
0.000865124
0.00281188
0.000757591
0.00274331
0.000648664
0.00266611
0.000539905
0.00257808
0.000430341
0.00247964
0.00032123
0.00236767
0.000215594
0.00223631
0.000114043
0.00208795
1.02295e-05
0.00195149
-0.000109761
0.00193757
-0.000237583
0.00223059
-0.000431242
0.00108104
-0.000835417
-0.000706583
0.00127004
-0.000994698
-0.000988208
0.00138289
-0.00110127
-0.00126868
0.00146777
-0.00118729
-0.0015453
0.00154225
-0.00126563
-0.00181627
0.001611
-0.00134004
-0.0020799
0.0016775
-0.00141387
-0.00233597
0.0017429
-0.00148682
-0.00258287
0.00180855
-0.00156166
-0.00282033
0.00187437
-0.00163691
-0.00304689
0.00194115
-0.00171458
-0.00326263
0.00200987
-0.00179414
-0.00346746
0.00208028
-0.00187545
-0.00365935
0.00215195
-0.00196006
-0.00383855
0.00222665
-0.00204744
-0.0040042
0.00230256
-0.00213691
-0.00415595
0.00238195
-0.0022302
-0.00429239
0.00246262
-0.00232618
-0.00441375
0.00254717
-0.00242581
-0.00451828
0.00263338
-0.00252885
-0.00460624
0.00272345
-0.00263549
-0.00467629
0.00281575