/*--------------------------------*- C++ -*----------------------------------*\
| =========                 |                                                 |
| \\      /  F ield         | OpenFOAM: The Open Source CFD Toolbox           |
|  \\    /   O peration     | Version:  2.3.0                                 |
|   \\  /    A nd           | Web:      www.OpenFOAM.org                      |
|    \\/     M anipulation  |                                                 |
\*---------------------------------------------------------------------------*/
FoamFile
{
    version     2.0;
    format      ascii;
    class       volVectorField;
    location    "5000";
    object      U;
}
// * * * * * * * * * * * * * * * * * * * * * * * * * * * * * * * * * * * * * //

dimensions      [0 1 -1 0 0 0 0];

internalField   nonuniform List<vector> 
37616
(
(20.3136 3.06373 1.64275e-22)
(20.2798 3.08658 -7.76944e-22)
(20.2449 3.10858 0)
(20.2096 3.12977 0)
(20.1738 3.15002 -7.75135e-21)
(20.1376 3.1693 3.45179e-21)
(20.1009 3.18759 0)
(20.0638 3.20486 0)
(20.0263 3.22107 5.23305e-21)
(19.9883 3.23618 2.12925e-23)
(19.9498 3.25015 -6.65002e-21)
(19.9109 3.26295 0)
(19.8713 3.27452 4.02662e-20)
(19.8312 3.28479 -1.3459e-21)
(19.7905 3.2937 7.58357e-21)
(19.7491 3.30117 -7.26715e-21)
(19.7069 3.30712 3.49016e-21)
(19.6639 3.3114 -4.52849e-20)
(19.6201 3.31389 -5.17406e-20)
(19.5754 3.31441 4.49806e-20)
(19.5297 3.31276 -8.02853e-21)
(19.4829 3.30869 0)
(19.4349 3.30191 8.50845e-21)
(19.3856 3.29208 -9.20563e-21)
(19.3348 3.27877 7.59239e-20)
(19.2825 3.26151 -8.41261e-20)
(19.2285 3.2397 0)
(19.1727 3.21273 -6.40278e-21)
(19.1149 3.17976 5.64434e-20)
(19.055 3.13997 -5.13595e-20)
(18.993 3.0922 1.04079e-20)
(18.9289 3.03531 -1.16916e-20)
(18.8629 2.96798 -3.99845e-20)
(18.7955 2.88855 -1.35475e-21)
(18.7275 2.79528 5.52054e-20)
(18.6603 2.68637 -9.85972e-21)
(18.5967 2.55963 7.20055e-21)
(18.5411 2.41361 -3.92209e-20)
(18.5018 2.24707 1.02454e-19)
(18.494 2.06055 -6.42727e-20)
(18.5461 1.85203 -9.34667e-21)
(18.7181 1.61659 2.14895e-20)
(19.1198 1.41532 8.44306e-21)
(20.2914 3.02823 -1.73128e-21)
(20.2603 3.04836 0)
(20.2288 3.06719 -1.08319e-21)
(20.197 3.08524 1.0755e-21)
(20.1649 3.1024 6.05021e-21)
(20.1325 3.11869 -7.47168e-21)
(20.0998 3.13408 -6.47344e-22)
(20.0669 3.14855 -1.07267e-20)
(20.0336 3.1621 1.02745e-20)
(20.0001 3.17465 5.92863e-21)
(19.9662 3.18619 0)
(19.932 3.19668 0)
(19.8975 3.20607 -1.16961e-20)
(19.8627 3.21431 9.09912e-23)
(19.8274 3.22133 3.84491e-20)
(19.7918 3.22708 -3.36172e-20)
(19.7558 3.23152 5.00199e-20)
(19.7193 3.23453 -5.06891e-20)
(19.6824 3.23605 -4.56352e-20)
(19.6451 3.23599 5.21504e-20)
(19.6074 3.23421 0)
(19.5694 3.23058 0)
(19.531 3.22494 -1.631e-20)
(19.4924 3.21707 9.07971e-21)
(19.4537 3.20675 0)
(19.415 3.19368 -4.37656e-20)
(19.3764 3.17755 8.72064e-20)
(19.3382 3.15798 -4.27803e-20)
(19.3007 3.13452 5.58831e-20)
(19.2643 3.10665 -5.86284e-20)
(19.2295 3.07384 -6.59698e-20)
(19.197 3.03544 6.88326e-20)
(19.1677 2.99077 0)
(19.1427 2.93912 0)
(19.1236 2.8798 -3.24923e-20)
(19.112 2.81219 7.14723e-21)
(19.1105 2.73595 6.35428e-21)
(19.1217 2.65112 0)
(19.149 2.5587 0)
(19.1964 2.46097 -7.18763e-21)
(19.2678 2.36256 -9.83254e-20)
(19.3666 2.27438 9.23561e-20)
(19.4914 2.22237 -5.50456e-21)
(20.2716 2.99694 2.12233e-21)
(20.2434 3.01451 1.8782e-21)
(20.2148 3.03044 0)
(20.1857 3.04578 2.39343e-23)
(20.1565 3.06033 -6.6497e-21)
(20.1269 3.0741 1.86785e-21)
(20.0971 3.08708 1.11407e-20)
(20.067 3.09924 1.03795e-20)
(20.0367 3.11058 1.17023e-20)
(20.0062 3.12105 -1.12869e-20)
(19.9754 3.13061 -1.99164e-20)
(19.9444 3.13923 1.3397e-20)
(19.9131 3.14685 3.85886e-21)
(19.8815 3.15342 2.09721e-20)
(19.8497 3.15888 -2.12672e-20)
(19.8176 3.16316 1.92322e-20)
(19.7852 3.16621 -4.47178e-20)
(19.7524 3.16792 2.06584e-20)
(19.7193 3.16822 -5.95292e-21)
(19.686 3.16703 5.95061e-21)
(19.6523 3.16423 -2.02946e-20)
(19.6183 3.15969 2.7081e-20)
(19.5842 3.15329 7.89612e-21)
(19.55 3.14488 -3.24966e-20)
(19.5157 3.13426 3.32729e-20)
(19.4815 3.12126 8.90307e-21)
(19.4477 3.10567 5.29611e-21)
(19.4143 3.08726 0)
(19.3817 3.0658 0)
(19.3503 3.04104 -6.64133e-21)
(19.3205 3.01276 2.61107e-20)
(19.2929 2.98079 -2.71214e-20)
(19.2683 2.94497 0)
(19.2475 2.90525 0)
(19.2316 2.8618 1.14504e-21)
(19.222 2.81494 1.4364e-20)
(19.2201 2.76542 -1.03058e-23)
(19.2276 2.71442 -1.3902e-20)
(19.2462 2.66378 9.7549e-21)
(19.2775 2.6162 2.89111e-20)
(19.3228 2.57548 -1.66023e-21)
(19.3822 2.54673 -3.20298e-20)
(19.4534 2.53602 8.36286e-21)
(20.2557 2.97002 -4.52705e-22)
(20.2296 2.98498 -1.40901e-22)
(20.2035 2.99835 0)
(20.1771 3.01149 0)
(20.1505 3.024 4.38349e-21)
(20.1236 3.03586 -2.73331e-21)
(20.0964 3.04707 -6.55377e-21)
(20.0691 3.05758 -4.93169e-21)
(20.0415 3.0674 2.84535e-22)
(20.0138 3.07649 5.34028e-22)
(19.9859 3.0848 2.94282e-22)
(19.9578 3.0923 0)
(19.9295 3.09896 0)
(19.901 3.10472 3.89951e-21)
(19.8723 3.10953 1.75335e-20)
(19.8434 3.11332 -1.31232e-20)
(19.8144 3.11604 2.48533e-20)
(19.7851 3.11763 -4.13177e-20)
(19.7556 3.118 2.14382e-20)
(19.726 3.11709 -1.17151e-20)
(19.6962 3.1148 -6.40279e-21)
(19.6663 3.11105 0)
(19.6364 3.10573 0)
(19.6066 3.09872 3.87563e-20)
(19.577 3.0899 -3.99929e-20)
(19.5477 3.07913 -8.95677e-21)
(19.519 3.06627 3.82734e-20)
(19.491 3.05115 -3.94157e-20)
(19.464 3.03363 0)
(19.4383 3.01357 5.5136e-21)
(19.4143 2.99085 2.4873e-20)
(19.3925 2.96541 -3.20373e-20)
(19.3734 2.93724 0)
(19.3576 2.90645 7.04814e-21)
(19.3458 2.87329 3.74914e-22)
(19.3389 2.8382 -4.01718e-21)
(19.3377 2.8019 -4.2332e-21)
(19.3429 2.76539 9.00062e-21)
(19.3552 2.7301 0)
(19.3749 2.69787 2.71351e-20)
(19.4019 2.67094 -1.81295e-20)
(19.4349 2.65185 0)
(19.4718 2.64301 -8.17448e-21)
(20.2427 2.94365 -1.74144e-21)
(20.2182 2.95793 0)
(20.1942 2.96972 0)
(20.1701 2.98121 0)
(20.1457 2.9921 0)
(20.1211 3.00244 0)
(20.0962 3.01222 -2.41488e-21)
(20.0711 3.02142 -1.27383e-22)
(20.0458 3.03004 0)
(20.0203 3.03804 -2.92815e-21)
(19.9947 3.04539 0)
(19.9688 3.05203 0)
(19.9428 3.05795 0)
(19.9166 3.06311 1.20464e-20)
(19.8902 3.06744 -2.003e-20)
(19.8637 3.07087 -4.47153e-21)
(19.8369 3.07337 0)
(19.81 3.07487 0)
(19.7829 3.07529 2.17146e-20)
(19.7556 3.07458 -1.61928e-20)
(19.7282 3.07266 -3.04482e-20)
(19.7007 3.06947 2.49747e-20)
(19.6732 3.06491 -2.78412e-20)
(19.6458 3.05889 1.38361e-20)
(19.6185 3.05133 -2.35997e-20)
(19.5915 3.04213 2.43265e-20)
(19.5651 3.03119 -1.79432e-20)
(19.5393 3.01841 1.84649e-20)
(19.5145 3.00368 2.03631e-20)
(19.4909 2.98694 -2.65679e-20)
(19.4689 2.96814 0)
(19.4488 2.94726 6.28196e-21)
(19.431 2.92436 1.24624e-20)
(19.416 2.89961 -7.0409e-21)
(19.4044 2.87332 7.40935e-21)
(19.3966 2.84594 0)
(19.3933 2.8181 -1.93748e-21)
(19.3949 2.79065 1.99965e-21)
(19.4017 2.76466 0)
(19.4137 2.74144 8.19184e-21)
(19.4305 2.72245 0)
(19.4511 2.70915 0)
(19.474 2.70269 -3.11446e-20)
(20.2301 2.92302 0)
(20.2083 2.9344 0)
(20.1865 2.94452 0)
(20.1644 2.95454 0)
(20.142 2.9641 0)
(20.1194 2.9732 0)
(20.0965 2.98186 2.44346e-21)
(20.0734 2.99 1.02029e-22)
(20.05 2.99768 2.72194e-21)
(20.0264 3.00487 2.01417e-23)
(20.0027 3.01151 6.49733e-21)
(19.9788 3.01755 -2.85949e-21)
(19.9546 3.02293 4.65121e-22)
(19.9303 3.02773 -7.35755e-21)
(19.9058 3.03181 4.09032e-21)
(19.8812 3.03509 8.83e-21)
(19.8564 3.03756 -8.8786e-21)
(19.8315 3.03916 0)
(19.8063 3.03981 -1.60697e-20)
(19.7811 3.03946 4.38527e-20)
(19.7557 3.03803 -2.87661e-20)
(19.7301 3.03549 1.21293e-20)
(19.7046 3.03175 -6.47603e-21)
(19.6791 3.02674 7.17731e-21)
(19.6537 3.02036 0)
(19.6285 3.01259 3.40054e-22)
(19.6039 3.00334 0)
(19.5798 2.99252 0)
(19.5566 2.98008 -9.4202e-21)
(19.5345 2.96597 0)
(19.5138 2.95018 -2.1642e-20)
(19.4948 2.93273 -2.84023e-22)
(19.4778 2.91365 -4.35849e-22)
(19.4631 2.89311 0)
(19.4511 2.87141 0)
(19.4422 2.84903 0)
(19.4368 2.82647 1.25626e-20)
(19.4352 2.80441 -5.69795e-21)
(19.4376 2.7837 2.31558e-20)
(19.4437 2.7653 -8.09385e-21)
(19.4533 2.75022 -6.9993e-23)
(19.4654 2.73943 4.72792e-20)
(19.479 2.73362 -3.12532e-20)
(20.2208 2.90145 -1.0946e-21)
(20.2002 2.91245 -1.49189e-21)
(20.18 2.92173 0)
(20.1596 2.93077 0)
(20.1392 2.93935 0)
(20.1182 2.94746 -1.05585e-21)
(20.0971 2.95524 -1.1292e-21)
(20.0757 2.96253 0)
(20.0538 2.9694 -9.09028e-24)
(20.0319 2.97594 2.92538e-21)
(20.0096 2.98203 6.43541e-21)
(19.9874 2.98764 -3.07235e-21)
(19.9648 2.99255 0)
(19.9419 2.99705 4.00198e-21)
(19.919 3.00104 4.55112e-22)
(19.896 3.00421 -8.19108e-21)
(19.8726 3.00665 -9.17061e-21)
(19.8491 3.00843 -4.83575e-22)
(19.8255 3.00931 4.71425e-21)
(19.8017 3.00928 1.09528e-20)
(19.7778 3.00829 -1.11111e-20)
(19.7537 3.0063 0)
(19.7295 3.00327 -1.28855e-20)
(19.7054 2.99911 6.65867e-21)
(19.6814 2.9937 1.47899e-20)
(19.6574 2.98705 -1.48636e-20)
(19.6339 2.97913 8.63756e-21)
(19.6109 2.96988 -1.71525e-20)
(19.5886 2.9592 -9.36687e-21)
(19.5673 2.9471 3.90277e-20)
(19.5472 2.9336 6.79361e-22)
(19.5287 2.91877 -2.20423e-20)
(19.512 2.90255 1.1195e-20)
(19.4974 2.88503 1.21315e-20)
(19.4847 2.86652 0)
(19.4745 2.84763 0)
(19.4673 2.82869 -1.42445e-20)
(19.4632 2.81023 0)
(19.4623 2.79294 -1.51205e-20)
(19.4643 2.77756 0)
(19.4689 2.76487 -2.94346e-22)
(19.4755 2.75558 -3.04524e-20)
(19.4832 2.75015 3.02762e-20)
(20.2109 2.88467 1.40423e-22)
(20.1928 2.89336 2.30629e-21)
(20.1743 2.90158 -3.60445e-22)
(20.1555 2.90976 1.45593e-21)
(20.1369 2.91757 0)
(20.1175 2.92477 3.35061e-21)
(20.0977 2.93181 1.33419e-21)
(20.078 2.93848 -5.01778e-21)
(20.0574 2.94455 -2.72229e-21)
(20.037 2.9506 1.05995e-22)
(20.0157 2.95614 -1.23659e-20)
(19.995 2.96164 3.1124e-21)
(19.9739 2.96614 0)
(19.9519 2.97028 1.12671e-20)
(19.9301 2.97425 -1.1399e-20)
(19.9088 2.97749 8.48066e-21)
(19.8864 2.97978 4.37442e-22)
(19.8641 2.98175 -9.04514e-21)
(19.8417 2.98288 0)
(19.8191 2.98318 0)
(19.7963 2.98257 5.41612e-21)
(19.7733 2.98104 1.77728e-20)
(19.7501 2.97864 -5.8982e-21)
(19.7271 2.9753 1.32282e-20)
(19.7041 2.97072 1.43677e-20)
(19.6812 2.96493 -7.096e-21)
(19.6584 2.95801 8.07225e-21)
(19.6361 2.95002 0)
(19.6145 2.94078 -9.0873e-21)
(19.5937 2.93025 -2.96279e-22)
(19.5738 2.91849 1.01953e-20)
(19.5553 2.90574 0)
(19.5387 2.89182 -5.69822e-21)
(19.5241 2.87653 -1.74283e-20)
(19.511 2.86009 3.09998e-21)
(19.4996 2.84375 -1.74954e-20)
(19.4908 2.82745 1.48642e-20)
(19.4847 2.81147 0)
(19.4812 2.79654 7.12173e-21)
(19.4801 2.78316 -2.17393e-20)
(19.4811 2.77201 -2.96104e-20)
(19.4837 2.76368 2.07072e-22)
(19.4872 2.75845 -1.49796e-23)
(20.2031 2.86679 -1.42574e-21)
(20.1867 2.87569 1.69371e-21)
(20.1698 2.88358 0)
(20.1521 2.89122 4.07448e-23)
(20.1349 2.89847 0)
(20.1168 2.90466 1.21373e-21)
(20.0981 2.91103 -2.31724e-21)
(20.0805 2.9176 -1.3365e-21)
(20.0607 2.92264 -2.85894e-21)
(20.0421 2.92856 5.7506e-21)
(20.0216 2.93319 3.0899e-21)
(20.0022 2.9392 3.13643e-21)
(19.9826 2.94343 0)
(19.9615 2.94698 0)
(19.94 2.95079 3.84818e-21)
(19.9203 2.95463 0)
(19.899 2.95651 -4.43543e-21)
(19.8779 2.95869 4.16543e-21)
(19.8568 2.96012 -4.31782e-22)
(19.8355 2.96076 9.99499e-21)
(19.8137 2.96058 -5.50813e-21)
(19.7918 2.95948 -1.76184e-20)
(19.7694 2.95745 2.44494e-20)
(19.7471 2.95494 -1.27335e-20)
(19.7245 2.95123 0)
(19.7024 2.94615 -7.33525e-21)
(19.6803 2.93974 1.54623e-20)
(19.6584 2.93261 2.88893e-22)
(19.6367 2.92456 -8.4922e-21)
(19.6164 2.9154 0)
(19.5965 2.90467 0)
(19.5775 2.89347 0)
(19.56 2.8814 1.56734e-20)
(19.545 2.8682 1.12444e-20)
(19.5315 2.85277 -2.8651e-21)
(19.5187 2.83842 -2.75855e-21)
(19.5091 2.8242 -1.22781e-20)
(19.5014 2.80989 -4.18754e-21)
(19.4957 2.79676 -1.02019e-20)
(19.4925 2.78476 2.84893e-20)
(19.4907 2.77462 0)
(19.4903 2.76698 1.45982e-20)
(19.4907 2.7619 1.45381e-20)
(20.0268 1.47159 -8.17828e-20)
(20.3836 1.8439 7.66193e-20)
(20.514 2.14442 -2.205e-21)
(20.5359 2.36321 0)
(20.4972 2.53335 0)
(20.4249 2.67177 -5.39006e-20)
(20.3369 2.78538 5.1724e-20)
(20.2434 2.87806 0)
(20.1503 2.95375 -6.72139e-20)
(20.0605 3.01507 -5.05829e-21)
(19.9753 3.06438 5.80165e-20)
(19.8955 3.10347 -1.62356e-21)
(19.821 3.13376 -6.3578e-20)
(19.7517 3.15665 6.70232e-20)
(19.6873 3.17318 4.31115e-21)
(19.6273 3.1842 -3.42775e-21)
(19.5713 3.19052 -1.52133e-19)
(19.5189 3.19275 3.01047e-19)
(19.4698 3.19148 -1.50101e-19)
(19.4235 3.18718 -4.37995e-21)
(19.3797 3.18022 0)
(19.3381 3.17096 1.01846e-20)
(19.2986 3.15966 -9.80951e-21)
(19.2608 3.14661 0)
(19.2246 3.13197 2.13627e-20)
(19.1897 3.11592 -1.07969e-20)
(19.1562 3.0986 -1.86026e-19)
(19.1238 3.08013 1.85795e-19)
(19.0925 3.06061 0)
(19.0622 3.0401 -1.23626e-20)
(19.0328 3.01867 0)
(19.0042 2.99638 -1.86642e-19)
(18.9765 2.97328 2.22025e-20)
(18.9495 2.94938 2.48612e-19)
(18.9233 2.92471 2.86667e-20)
(18.8977 2.89931 1.78503e-19)
(18.8728 2.87319 -1.51005e-19)
(18.8486 2.84636 -1.2638e-19)
(18.825 2.81883 -2.15556e-21)
(18.802 2.79059 1.30636e-19)
(18.7795 2.76168 -6.76715e-20)
(18.7578 2.73191 -6.88973e-20)
(18.7364 2.70283 6.77929e-20)
(19.6244 2.23287 4.01055e-21)
(19.7199 2.30011 -2.0196e-21)
(19.779 2.39997 -3.02049e-20)
(19.8112 2.50659 2.61615e-20)
(19.8233 2.60848 -4.40379e-20)
(19.82 2.70096 4.70852e-20)
(19.8053 2.78212 0)
(19.7822 2.85156 0)
(19.7534 2.90982 7.43e-21)
(19.7207 2.95787 -4.23256e-21)
(19.6855 2.9968 3.56127e-21)
(19.6488 3.02777 -5.92937e-20)
(19.6113 3.05183 1.19902e-19)
(19.5736 3.06991 -6.45666e-20)
(19.5361 3.0829 -7.16171e-20)
(19.4989 3.09151 6.53929e-20)
(19.4624 3.09636 8.12551e-20)
(19.4265 3.09797 -7.01577e-20)
(19.3915 3.09681 0)
(19.3572 3.09322 1.00656e-20)
(19.3238 3.08753 0)
(19.2912 3.07997 -1.02294e-19)
(19.2595 3.07077 8.06618e-20)
(19.2285 3.0601 0)
(19.1984 3.04811 -1.08229e-20)
(19.169 3.03491 0)
(19.1404 3.0206 -1.13823e-20)
(19.1125 3.00526 8.25268e-20)
(19.0853 2.98896 -1.06423e-19)
(19.0588 2.97175 -9.94862e-20)
(19.0329 2.95368 9.99154e-20)
(19.0077 2.9348 7.90649e-20)
(18.9831 2.91514 2.26499e-21)
(18.959 2.89473 -2.21073e-19)
(18.9356 2.8736 8.4372e-20)
(18.9127 2.85178 -2.95632e-20)
(18.8903 2.82927 -9.16699e-20)
(18.8684 2.80609 1.23571e-19)
(18.847 2.78225 0)
(18.8261 2.75776 -1.3244e-19)
(18.8057 2.73263 1.66786e-19)
(18.7857 2.70667 6.89191e-20)
(18.7658 2.68128 -6.70739e-20)
(19.5291 2.54674 4.00525e-21)
(19.596 2.57575 5.46462e-20)
(19.6471 2.61706 -1.1152e-19)
(19.6817 2.66456 1.02677e-19)
(19.7012 2.71386 -5.12203e-20)
(19.7078 2.76206 0)
(19.7038 2.80723 8.5728e-20)
(19.6914 2.84825 -8.297e-20)
(19.6725 2.88456 -4.05699e-21)
(19.6487 2.91601 -7.83041e-20)
(19.6215 2.94267 7.96479e-20)
(19.5917 2.96479 8.71544e-20)
(19.5604 2.98267 -8.37018e-20)
(19.5282 2.99666 9.6264e-21)
(19.4955 3.00717 7.738e-20)
(19.4628 3.01451 -8.02003e-20)
(19.4302 3.019 -4.75472e-21)
(19.3981 3.02095 0)
(19.3665 3.02061 8.46408e-20)
(19.3355 3.01825 -9.29536e-20)
(19.3052 3.01403 -1.07438e-20)
(19.2756 3.00815 1.04081e-20)
(19.2467 3.00077 0)
(19.2185 2.99202 0)
(19.191 2.98203 1.13213e-20)
(19.1641 2.9709 0)
(19.138 2.95871 0)
(19.1125 2.94554 -9.64397e-20)
(19.0876 2.93145 1.08357e-19)
(19.0633 2.91651 -1.12469e-22)
(19.0395 2.90077 0)
(19.0163 2.88427 0)
(18.9936 2.86706 -2.68892e-20)
(18.9714 2.84917 1.11526e-19)
(18.9497 2.83063 -8.42952e-20)
(18.9285 2.81146 1.17924e-19)
(18.9077 2.79168 -8.93589e-20)
(18.8874 2.77131 -3.08103e-20)
(18.8675 2.75035 1.279e-19)
(18.848 2.72881 -6.36566e-20)
(18.8289 2.7067 -1.32521e-19)
(18.8102 2.68388 -6.81188e-20)
(18.7916 2.66136 6.67394e-20)
(19.5089 2.64574 4.45111e-20)
(19.5424 2.65947 -5.91089e-20)
(19.5694 2.68189 -5.3473e-20)
(19.5884 2.71004 4.55183e-20)
(19.5993 2.74125 -5.45884e-20)
(19.6026 2.77333 4.70334e-20)
(19.5992 2.80462 -4.52208e-20)
(19.5899 2.83399 8.81483e-20)
(19.5759 2.86072 -4.29097e-20)
(19.558 2.88439 0)
(19.5373 2.90484 -8.56794e-20)
(19.5143 2.92205 7.78489e-20)
(19.4897 2.93612 0)
(19.464 2.94722 7.46912e-20)
(19.4376 2.95555 -6.68116e-20)
(19.4109 2.96131 0)
(19.384 2.96472 0)
(19.3571 2.96599 1.09193e-20)
(19.3304 2.96532 8.711e-20)
(19.3039 2.96288 -1.62078e-19)
(19.2778 2.95884 1.85477e-19)
(19.2521 2.95335 -8.70788e-20)
(19.2268 2.94655 -9.03248e-20)
(19.2019 2.93856 8.92785e-20)
(19.1776 2.92948 -1.13886e-20)
(19.1537 2.91939 0)
(19.1303 2.90837 0)
(19.1074 2.89649 2.41123e-20)
(19.085 2.8838 -9.91968e-20)
(19.063 2.87037 9.93105e-20)
(19.0414 2.85624 0)
(19.0203 2.84146 0)
(18.9996 2.82607 4.03882e-20)
(18.9794 2.81009 1.11342e-19)
(18.9595 2.79356 -1.12499e-19)
(18.9401 2.77649 2.9074e-20)
(18.9211 2.75889 -2.99904e-20)
(18.9024 2.7408 3.08066e-20)
(18.8841 2.7222 -9.47949e-20)
(18.8661 2.70311 -3.2971e-20)
(18.8485 2.68355 9.85259e-20)
(18.8312 2.66337 0)
(18.814 2.64325 3.33698e-20)
(19.497 2.70358 3.84975e-20)
(19.518 2.71146 7.35399e-21)
(19.5352 2.72522 -2.31106e-22)
(19.5473 2.7433 1.34232e-20)
(19.554 2.76405 6.29035e-21)
(19.5551 2.78597 -6.45971e-21)
(19.5512 2.80785 -4.94451e-20)
(19.5426 2.82877 4.80795e-20)
(19.5302 2.84809 4.7739e-20)
(19.5144 2.86539 8.09357e-22)
(19.4961 2.88045 -5.75327e-20)
(19.4758 2.89314 0)
(19.454 2.90349 -4.60373e-20)
(19.431 2.91154 5.02031e-20)
(19.4074 2.91742 3.47415e-20)
(19.3833 2.92123 -9.01221e-20)
(19.3589 2.92314 4.44805e-20)
(19.3345 2.92327 -2.24446e-20)
(19.3101 2.92179 -1.14253e-20)
(19.2858 2.91884 -2.25978e-20)
(19.2619 2.91453 0)
(19.2382 2.90901 -1.15542e-20)
(19.2149 2.90238 -1.16305e-20)
(19.192 2.89473 1.17242e-20)
(19.1696 2.88613 -1.18377e-20)
(19.1476 2.87667 0)
(19.126 2.86639 0)
(19.1048 2.85537 -1.2197e-20)
(19.0841 2.84365 -1.24982e-20)
(19.0637 2.8313 1.26539e-20)
(19.0438 2.81837 -5.21827e-20)
(19.0243 2.80489 5.24461e-20)
(19.0051 2.7909 1.08291e-23)
(18.9864 2.7764 -5.57491e-20)
(18.9681 2.76144 7.04581e-20)
(18.9501 2.74604 1.49096e-20)
(18.9325 2.73021 -5.92033e-20)
(18.9153 2.71396 6.15039e-20)
(18.8983 2.6973 -3.08005e-20)
(18.8817 2.68025 6.40398e-20)
(18.8653 2.66285 -6.57504e-20)
(18.8493 2.64501 6.61242e-20)
(18.8333 2.62741 -3.3821e-20)
(19.4927 2.73307 -2.99363e-20)
(19.505 2.73756 3.67112e-20)
(19.5148 2.74643 -3.5995e-20)
(19.5211 2.75871 -6.81654e-21)
(19.5235 2.77327 -6.73257e-20)
(19.5219 2.78899 6.43178e-21)
(19.5164 2.80492 8.96325e-20)
(19.5073 2.82035 -5.01071e-20)
(19.495 2.83473 -4.98343e-20)
(19.4801 2.84768 9.76667e-20)
(19.463 2.85897 -3.59993e-20)
(19.4442 2.86846 -1.21428e-20)
(19.4242 2.87608 3.59203e-20)
(19.4031 2.88186 -3.46876e-20)
(19.3815 2.88585 4.74839e-20)
(19.3594 2.88812 -4.6271e-20)
(19.337 2.88877 -4.72315e-20)
(19.3145 2.88794 6.94791e-20)
(19.292 2.88575 1.15524e-20)
(19.2697 2.88228 -3.56764e-20)
(19.2475 2.87765 3.4581e-20)
(19.2256 2.87201 7.11149e-20)
(19.204 2.86542 -8.29412e-20)
(19.1829 2.85794 3.53705e-20)
(19.1621 2.84963 6.04776e-20)
(19.1418 2.84055 8.68431e-22)
(19.1218 2.83077 -9.82262e-20)
(19.1021 2.82035 9.95052e-20)
(19.0828 2.80933 -3.74821e-20)
(19.0639 2.79779 0)
(19.0454 2.78578 0)
(19.0272 2.77333 0)
(19.0095 2.76044 4.1109e-20)
(18.9922 2.74712 -6.89677e-20)
(18.9751 2.73341 -1.41985e-20)
(18.9585 2.71936 2.90408e-20)
(18.9422 2.70497 0)
(18.9262 2.69024 -1.51868e-20)
(18.9105 2.67517 -1.55329e-20)
(18.895 2.65981 -3.19234e-20)
(18.8798 2.64421 0)
(18.865 2.6282 0)
(18.8502 2.61246 0)
(19.491 2.74875 2.95746e-20)
(19.4978 2.75123 -1.47599e-20)
(19.5027 2.75716 1.41539e-20)
(19.505 2.76586 4.18344e-20)
(19.5044 2.77649 -5.48447e-20)
(19.5008 2.78813 1.3412e-20)
(19.4939 2.79997 3.91096e-20)
(19.484 2.81157 0)
(19.4715 2.82241 5.12995e-20)
(19.4568 2.83219 -4.99628e-20)
(19.4403 2.84073 0)
(19.4225 2.84776 1.21605e-20)
(19.4034 2.85322 7.39376e-20)
(19.3836 2.85717 -1.10151e-20)
(19.3632 2.85959 -4.79409e-20)
(19.3424 2.86052 0)
(19.3213 2.8601 3.64748e-20)
(19.3001 2.8584 -5.94057e-20)
(19.2789 2.85552 0)
(19.2578 2.8515 4.84679e-20)
(19.2368 2.84653 -3.56732e-20)
(19.2162 2.84077 -1.1971e-20)
(19.196 2.83411 0)
(19.1762 2.82669 0)
(19.1567 2.81853 0)
(19.1376 2.80965 0)
(19.1187 2.80018 0)
(19.1002 2.79019 6.34463e-20)
(19.0821 2.77969 -3.78854e-20)
(19.0643 2.76882 0)
(19.0469 2.75759 -6.61342e-20)
(19.0299 2.74596 -7.32364e-22)
(19.0134 2.7339 1.29128e-20)
(18.9971 2.72149 6.91569e-20)
(18.9812 2.70881 1.41894e-20)
(18.9656 2.69587 -1.45247e-20)
(18.9505 2.6827 0)
(18.9356 2.66922 -4.58116e-20)
(18.921 2.65547 6.17313e-20)
(18.9065 2.64153 0)
(18.8923 2.62747 1.60792e-20)
(18.8786 2.61312 3.294e-20)
(18.8651 2.59938 -6.68031e-20)
(19.4908 2.75646 -8.05391e-23)
(19.4936 2.7576 -1.43371e-20)
(19.4949 2.76154 1.41187e-20)
(19.4942 2.76781 2.35508e-23)
(19.4912 2.77569 -1.33481e-22)
(19.4861 2.78447 -4.00438e-20)
(19.4778 2.79332 0)
(19.4671 2.8022 0)
(19.4543 2.81048 -2.59678e-20)
(19.4394 2.81797 1.24646e-20)
(19.4234 2.82452 0)
(19.4061 2.82952 -1.26906e-20)
(19.3876 2.83324 -7.52591e-20)
(19.3687 2.83583 9.91408e-20)
(19.3493 2.83698 -9.86591e-20)
(19.3293 2.83679 3.62498e-20)
(19.3091 2.83547 1.21554e-20)
(19.2888 2.83299 1.23537e-20)
(19.2684 2.82948 0)
(19.2483 2.82499 1.2316e-20)
(19.2281 2.81985 0)
(19.2089 2.81401 4.94299e-20)
(19.1896 2.80715 1.32269e-20)
(19.1708 2.79979 8.23944e-22)
(19.1524 2.79164 -6.17578e-20)
(19.1342 2.78279 0)
(19.1162 2.7736 -1.26699e-20)
(19.0988 2.764 -6.40032e-20)
(19.0814 2.75394 3.82857e-20)
(19.0646 2.74371 0)
(19.0483 2.73307 2.65133e-20)
(19.0324 2.72198 0)
(19.0168 2.71052 -8.24391e-20)
(19.0014 2.69888 4.14421e-20)
(18.9865 2.68707 -1.421e-20)
(18.9718 2.67511 2.91449e-20)
(18.9577 2.66296 -2.94322e-20)
(18.9438 2.65052 0)
(18.9301 2.63787 1.54664e-20)
(18.9165 2.62513 0)
(18.9033 2.61237 -6.42717e-20)
(18.8906 2.59935 6.51177e-20)
(18.8783 2.58709 -3.28507e-20)
(19.4911 2.75953 0)
(19.4911 2.75966 -1.40196e-20)
(19.4894 2.76209 5.68168e-23)
(19.4864 2.76648 4.14842e-20)
(19.4814 2.77216 1.36134e-20)
(19.4753 2.7791 -2.74761e-20)
(19.4659 2.78575 2.7575e-20)
(19.4545 2.79287 -1.30534e-20)
(19.4414 2.79924 0)
(19.426 2.80506 1.23026e-20)
(19.4101 2.80985 -3.82275e-20)
(19.3929 2.81279 3.8318e-20)
(19.3749 2.81552 1.26562e-20)
(19.3568 2.81715 1.28666e-20)
(19.3377 2.81692 -2.52105e-20)
(19.3179 2.81575 1.2551e-20)
(19.2984 2.81365 -3.79532e-20)
(19.2785 2.81032 5.08767e-20)
(19.259 2.80652 -3.76639e-20)
(19.2399 2.80185 -1.2353e-20)
(19.22 2.79685 1.21036e-20)
(19.2022 2.79046 0)
(19.1828 2.78324 -3.79427e-20)
(19.1653 2.77616 1.19122e-20)
(19.1476 2.76766 3.76776e-20)
(19.1304 2.7589 0)
(19.1131 2.75024 1.27714e-20)
(19.0968 2.7409 0)
(19.0795 2.73122 1.28803e-20)
(19.0634 2.72154 1.31117e-20)
(19.048 2.71104 -1.30187e-20)
(19.0333 2.70039 -1.36871e-20)
(19.0188 2.68956 1.39572e-20)
(19.0045 2.67883 2.81395e-20)
(18.9909 2.6678 0)
(18.977 2.65675 0)
(18.9642 2.64537 0)
(18.9509 2.63379 0)
(18.938 2.62212 0)
(18.9251 2.61049 0)
(18.9133 2.59898 1.63231e-20)
(18.9018 2.58713 0)
(18.8913 2.57605 0)
(20.3738 -3.22716 -5.11423e-20)
(20.3445 -3.25327 0)
(20.3123 -3.2868 -3.89027e-20)
(20.2789 -3.31818 -1.33855e-20)
(20.2435 -3.34901 0)
(20.2057 -3.37899 2.30383e-20)
(20.1649 -3.40803 -2.23177e-20)
(20.1204 -3.43603 4.5993e-20)
(20.0714 -3.46286 0)
(20.017 -3.48838 0)
(19.9561 -3.51247 -1.45309e-20)
(19.8875 -3.53496 -4.64088e-20)
(19.8101 -3.55569 4.70721e-20)
(19.7229 -3.57444 0)
(19.6246 -3.59106 0)
(19.5142 -3.60536 -1.37177e-20)
(19.3903 -3.61715 2.9244e-20)
(19.2521 -3.62623 -3.53422e-20)
(19.0985 -3.6324 0)
(18.9286 -3.63546 0)
(18.7419 -3.63526 2.81797e-21)
(18.5376 -3.63163 1.77758e-22)
(18.3154 -3.62435 -2.32348e-21)
(18.0748 -3.61336 -4.9021e-22)
(17.8158 -3.59845 0)
(17.538 -3.57958 -3.63156e-20)
(17.2414 -3.55646 3.79106e-20)
(16.9256 -3.52916 0)
(16.5904 -3.49731 -3.45988e-20)
(16.2353 -3.46099 3.69179e-20)
(15.8597 -3.41984 0)
(15.4625 -3.37356 5.05995e-21)
(15.0422 -3.32187 5.0893e-21)
(14.5965 -3.26423 -3.7264e-20)
(14.1224 -3.19972 3.31551e-20)
(13.6155 -3.12751 1.00212e-20)
(13.0688 -3.04555 -1.12576e-20)
(12.4723 -2.95152 -2.68062e-20)
(11.809 -2.84084 -3.2541e-20)
(11.0492 -2.70611 7.71742e-20)
(10.1398 -2.52959 2.16288e-19)
(9.04489 -2.25863 -2.99632e-19)
(8.51149 -1.97122 -2.51249e-20)
(20.3384 -3.20004 2.60738e-20)
(20.3112 -3.22437 2.75082e-20)
(20.281 -3.25457 5.48628e-20)
(20.2498 -3.28283 0)
(20.2171 -3.31061 1.18356e-20)
(20.1825 -3.33771 -3.59109e-20)
(20.1455 -3.36406 -2.15873e-20)
(20.1056 -3.38959 6.78671e-22)
(20.0623 -3.41421 2.09959e-21)
(20.0148 -3.43781 3.93974e-20)
(19.9623 -3.46029 1.74532e-20)
(19.9038 -3.48154 1.74944e-20)
(19.8384 -3.5014 -7.83783e-21)
(19.7651 -3.51972 0)
(19.6829 -3.53632 0)
(19.5906 -3.55105 1.28682e-20)
(19.4872 -3.56369 1.17808e-20)
(19.3715 -3.57404 0)
(19.2424 -3.5819 -4.1151e-20)
(19.0987 -3.58703 4.6701e-20)
(18.9394 -3.58923 -2.93037e-21)
(18.7635 -3.58827 2.1596e-21)
(18.5701 -3.5839 0)
(18.3584 -3.57593 -1.93191e-21)
(18.1275 -3.5641 6.71434e-21)
(17.8768 -3.54821 -6.97791e-21)
(17.6055 -3.52799 -1.12752e-22)
(17.3128 -3.50323 0)
(16.9979 -3.4736 2.27328e-21)
(16.6598 -3.43883 -4.3439e-21)
(16.2975 -3.39855 2.11734e-21)
(15.9094 -3.35231 -4.35823e-21)
(15.4934 -3.29956 1.07014e-20)
(15.0472 -3.23957 -6.11833e-21)
(14.5671 -3.17132 0)
(14.0482 -3.09354 -4.03299e-21)
(13.4832 -3.00429 4.50736e-21)
(12.8611 -2.90083 0)
(12.1645 -2.77853 -3.22036e-20)
(11.3655 -2.62943 3.8379e-20)
(10.4375 -2.4419 -1.2396e-19)
(9.50469 -2.21587 4.74022e-19)
(9.932 -2.08019 -3.16481e-19)
(20.3069 -3.1741 2.29332e-20)
(20.2817 -3.19785 0)
(20.2536 -3.22494 -2.41897e-20)
(20.2245 -3.25046 0)
(20.1941 -3.27556 -5.65674e-21)
(20.1621 -3.30013 -5.14776e-21)
(20.1281 -3.3241 1.07959e-20)
(20.0918 -3.34742 -4.05566e-20)
(20.0525 -3.37004 3.78153e-20)
(20.0099 -3.39186 -1.72141e-20)
(19.9631 -3.41279 -1.80688e-20)
(19.9114 -3.43273 0)
(19.854 -3.45154 3.09641e-20)
(19.7899 -3.46908 4.64126e-21)
(19.7184 -3.4852 -2.86022e-20)
(19.6382 -3.49973 1.79021e-20)
(19.5485 -3.51248 -3.13022e-20)
(19.4481 -3.52323 0)
(19.3357 -3.53177 -1.89585e-20)
(19.2102 -3.53787 1.08324e-20)
(19.0705 -3.54127 0)
(18.9151 -3.54173 -1.25234e-20)
(18.7431 -3.53897 1.47649e-20)
(18.5532 -3.53273 -4.93462e-21)
(18.3443 -3.5227 7.72565e-21)
(18.1152 -3.50862 1.43406e-21)
(17.8648 -3.49013 -7.20287e-22)
(17.592 -3.46693 1.16325e-21)
(17.2954 -3.43862 0)
(16.9737 -3.40482 1.48541e-21)
(16.6253 -3.36505 -1.27774e-20)
(16.2483 -3.31876 1.12969e-20)
(15.8405 -3.26527 0)
(15.3987 -3.20377 -4.99616e-21)
(14.9192 -3.13316 -4.74937e-22)
(14.3964 -3.05201 -3.34591e-21)
(13.8226 -2.9584 1.16612e-20)
(13.1859 -2.84949 -1.91929e-20)
(12.4682 -2.72069 -1.81718e-21)
(11.6467 -2.56363 -6.2147e-20)
(10.727 -2.36777 -7.75429e-21)
(9.96598 -2.16477 -9.36198e-21)
(10.9328 -2.13163 1.46926e-19)
(20.2793 -3.15112 -1.92309e-21)
(20.2552 -3.1733 0)
(20.2289 -3.19753 2.51084e-20)
(20.2017 -3.22056 0)
(20.1732 -3.2432 0)
(20.1433 -3.26538 0)
(20.1116 -3.28709 -1.89969e-20)
(20.0779 -3.30827 -1.83088e-20)
(20.0416 -3.32888 -4.14666e-22)
(20.0025 -3.34885 3.40828e-20)
(19.9598 -3.36808 -1.63924e-20)
(19.9129 -3.38649 7.03889e-21)
(19.8611 -3.40396 -1.91121e-20)
(19.8035 -3.42038 1.98819e-20)
(19.7395 -3.43562 2.23965e-20)
(19.668 -3.44951 -1.77138e-20)
(19.5881 -3.46189 2.24426e-20)
(19.4986 -3.47258 -1.8314e-20)
(19.3985 -3.48133 0)
(19.2865 -3.48794 -6.94328e-21)
(19.1614 -3.49214 1.10397e-20)
(19.0217 -3.49368 0)
(18.8661 -3.49225 -1.94118e-21)
(18.6934 -3.48756 5.85242e-22)
(18.5019 -3.47927 -8.44071e-22)
(18.2903 -3.46703 0)
(18.0571 -3.45046 -6.7766e-22)
(17.8008 -3.42915 -1.19752e-21)
(17.5198 -3.40264 0)
(17.2122 -3.37044 -3.43253e-21)
(16.8761 -3.332 0)
(16.5093 -3.28667 5.13885e-21)
(16.1089 -3.2337 0)
(15.6717 -3.17217 -2.21196e-20)
(15.1933 -3.10091 2.34699e-20)
(14.6677 -3.01838 5.24514e-21)
(14.0863 -2.92252 -7.45125e-21)
(13.4365 -2.81037 1.87109e-20)
(12.7001 -2.67722 1.67505e-20)
(11.8593 -2.51499 1.94266e-21)
(10.9517 -2.31491 0)
(10.3432 -2.12684 1.10497e-19)
(11.6417 -2.16637 -1.03267e-19)
(20.2545 -3.13094 2.20235e-20)
(20.2318 -3.15061 -1.16532e-20)
(20.2073 -3.17247 1.74304e-20)
(20.1819 -3.19334 -5.6246e-21)
(20.1553 -3.21384 0)
(20.1273 -3.23398 0)
(20.0978 -3.25374 1.04705e-20)
(20.0665 -3.2731 9.14874e-21)
(20.033 -3.29204 0)
(19.997 -3.31047 -7.54938e-21)
(19.958 -3.32831 -1.42219e-20)
(19.9154 -3.34548 7.07644e-21)
(19.8685 -3.36188 0)
(19.8166 -3.3774 0)
(19.7591 -3.39194 2.01501e-20)
(19.6949 -3.40535 -7.65995e-21)
(19.6233 -3.4175 -2.28019e-20)
(19.5431 -3.42818 -1.32309e-20)
(19.4534 -3.43718 2.14355e-20)
(19.3527 -3.44428 -1.30798e-20)
(19.2398 -3.44923 0)
(19.1134 -3.45177 -2.28534e-21)
(18.9718 -3.45159 2.34984e-21)
(18.8135 -3.44835 2.37942e-22)
(18.637 -3.44169 -1.83019e-21)
(18.4405 -3.43126 -2.82835e-21)
(18.2222 -3.41661 0)
(17.9804 -3.39727 1.06869e-20)
(17.7131 -3.3727 -1.11808e-20)
(17.4181 -3.34235 -1.28712e-20)
(17.0931 -3.30557 -2.47674e-21)
(16.7354 -3.26166 3.91954e-21)
(16.3418 -3.20975 2.61961e-20)
(15.9087 -3.14885 7.46907e-21)
(15.4311 -3.07769 9.52251e-21)
(14.9027 -2.99463 0)
(14.3142 -2.89742 -2.24769e-20)
(13.6522 -2.78287 -1.88006e-20)
(12.8985 -2.64605 0)
(12.0413 -2.47955 -4.56503e-20)
(11.1459 -2.27758 5.87218e-20)
(10.6681 -2.10262 3.46041e-20)
(12.1838 -2.19547 -3.34087e-20)
(20.2327 -3.11257 -2.34609e-20)
(20.2113 -3.13008 2.20416e-20)
(20.1884 -3.14984 0)
(20.1647 -3.16878 1.00004e-20)
(20.1399 -3.18744 1.60168e-22)
(20.1138 -3.20581 0)
(20.0863 -3.22389 0)
(20.0571 -3.24171 0)
(20.026 -3.25923 7.63182e-21)
(19.9927 -3.2764 1.50064e-20)
(19.9568 -3.2931 -1.07358e-21)
(19.9178 -3.30926 -1.34987e-20)
(19.875 -3.32477 0)
(19.8278 -3.33955 1.03567e-20)
(19.7756 -3.35346 -1.04885e-20)
(19.7174 -3.36643 8.16961e-21)
(19.6525 -3.37836 -4.74293e-21)
(19.58 -3.38903 2.96434e-21)
(19.4986 -3.39823 2.85582e-21)
(19.4072 -3.40573 2.19226e-21)
(19.3044 -3.41126 -1.72838e-21)
(19.1888 -3.4146 1.77248e-21)
(19.0589 -3.41546 0)
(18.9128 -3.41346 0)
(18.7489 -3.40822 1.87839e-21)
(18.5653 -3.39937 2.89921e-21)
(18.3599 -3.3865 9.58769e-21)
(18.1307 -3.36907 -9.97771e-21)
(17.8755 -3.3465 -7.61488e-21)
(17.5918 -3.31804 -2.36049e-21)
(17.277 -3.28297 2.95449e-20)
(16.9281 -3.24054 -2.3644e-20)
(16.5415 -3.18994 -2.8593e-20)
(16.113 -3.13024 -1.16714e-21)
(15.6373 -3.06004 -2.94038e-20)
(15.1074 -2.97739 2.95693e-21)
(14.5141 -2.87983 -1.72116e-20)
(13.8428 -2.76407 0)
(13.0753 -2.6249 0)
(12.2045 -2.45507 2.26832e-20)
(11.3202 -2.25234 -1.139e-19)
(10.9489 -2.08826 -1.39709e-19)
(12.6094 -2.21591 1.26344e-19)
(20.2132 -3.09566 -2.20698e-20)