/*--------------------------------*- C++ -*----------------------------------*\
| =========                 |                                                 |
| \\      /  F ield         | OpenFOAM: The Open Source CFD Toolbox           |
|  \\    /   O peration     | Version:  2.3.0                                 |
|   \\  /    A nd           | Web:      www.OpenFOAM.org                      |
|    \\/     M anipulation  |                                                 |
\*---------------------------------------------------------------------------*/
FoamFile
{
    version     2.0;
    format      ascii;
    class       volScalarField;
    location    "5000";
    object      nut;
}
// * * * * * * * * * * * * * * * * * * * * * * * * * * * * * * * * * * * * * //

dimensions      [0 2 -1 0 0 0 0];

internalField   nonuniform List<scalar> 
38296
(
0.0723103
0.0706553
0.0690001
0.0673392
0.0656737
0.0640045
0.0623323
0.0606585
0.0589841
0.0573101
0.0556371
0.0539657
0.0522967
0.0506305
0.0489677
0.047309
0.0456549
0.0440059
0.0423626
0.040725
0.0390939
0.0374697
0.0358527
0.0342438
0.032643
0.0310506
0.0294674
0.0278938
0.0263311
0.0247795
0.0232403
0.0217148
0.0202057
0.0187159
0.0172491
0.0158108
0.0144087
0.0130548
0.0117629
0.0105455
0.0093989
0.00823499
0.006424
0.0732561
0.0717856
0.0703113
0.0688311
0.0673462
0.065857
0.0643644
0.0628691
0.0613717
0.0598729
0.0583729
0.0568724
0.0553712
0.0538696
0.0523678
0.0508663
0.0493652
0.047865
0.0463658
0.0448678
0.0433719
0.0418784
0.0403874
0.0389001
0.0374169
0.0359385
0.0344663
0.0330019
0.0315467
0.0301025
0.0286724
0.0272601
0.0258708
0.0245101
0.0231845
0.021904
0.0206807
0.0195293
0.0184662
0.0175101
0.0166803
0.0159949
0.0154653
0.07415
0.0728346
0.0715159
0.0701914
0.0688617
0.0675275
0.066189
0.0648467
0.0635011
0.0621522
0.0608005
0.0594462
0.0580891
0.0567292
0.0553666
0.0540013
0.0526335
0.0512633
0.0498908
0.0485163
0.0471407
0.0457644
0.0443876
0.0430117
0.0416374
0.0402657
0.0388986
0.0375379
0.0361853
0.0348438
0.0335179
0.0322113
0.0309296
0.0296795
0.0284676
0.0273045
0.0262014
0.0251698
0.0242231
0.0233751
0.0226379
0.0220237
0.0215386
0.0749845
0.073804
0.0726201
0.0714302
0.0702347
0.0690336
0.0678273
0.0666158
0.0653994
0.0641782
0.0629526
0.0617225
0.060488
0.0592486
0.0580043
0.0567547
0.0555002
0.0542405
0.0529759
0.0517066
0.0504335
0.0491566
0.0478768
0.0465953
0.0453132
0.0440319
0.0427529
0.0414788
0.0402116
0.0389548
0.0377127
0.0364891
0.0352899
0.0341215
0.0329917
0.0319092
0.030884
0.0299264
0.0290482
0.0282599
0.0275719
0.0269912
0.0265243
0.0757581
0.0746957
0.0736294
0.0725562
0.0714764
0.0703899
0.0692969
0.0681973
0.0670911
0.0659787
0.06486
0.0637353
0.0626044
0.0614672
0.0603232
0.0591719
0.0580131
0.0568467
0.0556731
0.0544926
0.0533055
0.0521125
0.0509142
0.0497119
0.048507
0.0473009
0.0460952
0.0448926
0.0436955
0.0425074
0.0413321
0.0401741
0.0390388
0.0379327
0.0368635
0.0358387
0.0348677
0.0339606
0.0331269
0.0323767
0.0317178
0.0311572
0.0307008
0.076469
0.0755124
0.0745495
0.0735778
0.0725979
0.0716102
0.0706143
0.0696107
0.0685991
0.0675792
0.066551
0.0655152
0.0644718
0.0634211
0.0623621
0.0612945
0.060217
0.0591295
0.0580326
0.0569269
0.0558125
0.05469
0.0535601
0.0524238
0.0512826
0.0501387
0.0489939
0.0478505
0.046711
0.0455788
0.0444576
0.0433519
0.0422669
0.0412092
0.0401853
0.0392038
0.0382732
0.0374022
0.0366003
0.0358761
0.035237
0.0346902
0.0342413
0.0771235
0.0762604
0.0753874
0.0745035
0.0736099
0.0727073
0.0717953
0.0708743
0.0699437
0.0690029
0.0680514
0.0670901
0.0661207
0.065143
0.0641565
0.0631603
0.0621528
0.0611327
0.0601004
0.0590574
0.0580045
0.0569421
0.05587
0.0547888
0.0537007
0.0526084
0.051514
0.0504196
0.0493277
0.0482417
0.0471653
0.0461024
0.0450583
0.0440386
0.0430504
0.0421024
0.0412019
0.0403583
0.0395809
0.0388766
0.038252
0.037715
0.0372713
0.0777323
0.0769469
0.0761505
0.0753419
0.0745219
0.0736938
0.0728535
0.0720036
0.0711429
0.0702709
0.0693853
0.0684861
0.0675779
0.0666617
0.0657367
0.0648019
0.0638559
0.0628949
0.0619169
0.0609252
0.059924
0.0589136
0.0578916
0.0568575
0.0558134
0.0547636
0.0537112
0.0526581
0.0516052
0.0505579
0.0495194
0.0484928
0.0474819
0.0464933
0.0455339
0.0446125
0.0437342
0.0429123
0.0421552
0.0414691
0.0408537
0.0403238
0.0398834
0.0783088
0.0775825
0.0768482
0.0761041
0.0753405
0.0745803
0.0738006
0.0730122
0.0722096
0.0713975
0.0705723
0.0697234
0.068863
0.0679958
0.0671198
0.0662348
0.0653413
0.0644355
0.0635047
0.0625542
0.0615925
0.0606265
0.0596487
0.0586567
0.0576483
0.0566318
0.055613
0.0545983
0.0535788
0.0525636
0.0515565
0.0505634
0.0495797
0.0486191
0.0476817
0.0467861
0.0459245
0.045118
0.044381
0.0437184
0.0431045
0.0425847
0.0421465
0.00560726
0.00633368
0.0072097
0.00804668
0.00884579
0.00962396
0.0103914
0.0111567
0.0119244
0.0126982
0.0134812
0.0142748
0.0150787
0.0158913
0.0167103
0.0175356
0.0183789
0.0192652
0.0202043
0.0211942
0.0222265
0.0232966
0.0244011
0.0255389
0.0267104
0.0279124
0.0291429
0.0303991
0.03168
0.0329839
0.0343104
0.0356584
0.0370274
0.0384165
0.0398251
0.0412525
0.0426981
0.0441616
0.0456421
0.0471387
0.0486513
0.0501796
0.0517232
0.0151001
0.0148971
0.014848
0.0149402
0.01516
0.0154918
0.0159215
0.0164348
0.0170199
0.0176664
0.0183657
0.0191092
0.0198918
0.0207072
0.0215518
0.0224238
0.0233231
0.0242481
0.0252002
0.0261763
0.0271754
0.0281964
0.0292374
0.0302993
0.03138
0.0324802
0.0335982
0.0347334
0.0358857
0.0370541
0.0382391
0.0394395
0.0406554
0.0418866
0.0431325
0.044393
0.045668
0.0469568
0.0482591
0.0495744
0.050903
0.0522451
0.053603
0.0211815
0.020947
0.0208355
0.0208454
0.0209696
0.0211998
0.0215252
0.0219352
0.0224203
0.0229707
0.0235783
0.0242358
0.024936
0.0256748
0.0264473
0.0272496
0.0280789
0.0289341
0.0298122
0.030711
0.0316298
0.0325663
0.0335201
0.0344898
0.0354747
0.0364741
0.0374869
0.0385134
0.0395523
0.0406039
0.0416673
0.0427427
0.0438296
0.0449282
0.046038
0.047159
0.048291
0.0494336
0.0505865
0.0517495
0.0529225
0.0541059
0.0552996
0.02617
0.0259256
0.0257926
0.0257683
0.0258493
0.0260276
0.0262966
0.0266467
0.0270693
0.0275559
0.0281003
0.0286936
0.0293315
0.0300071
0.0307162
0.0314561
0.0322226
0.0330128
0.0338241
0.0346546
0.0355026
0.0363658
0.0372434
0.0381337
0.0390361
0.0399499
0.0408743
0.0418084
0.0427522
0.043705
0.0446672
0.0456377
0.0466167
0.047604
0.0485997
0.0496035
0.0506153
0.0516345
0.0526611
0.0536948
0.0547355
0.0557839
0.056841
0.0303487
0.0300999
0.0299542
0.0299102
0.0299647
0.0301116
0.030344
0.0306542
0.0310341
0.0314766
0.0319747
0.0325215
0.0331112
0.0337385
0.0343995
0.0350893
0.0358046
0.0365418
0.0372986
0.0380726
0.0388614
0.0396635
0.0404772
0.0413013
0.0421351
0.0429773
0.0438271
0.0446844
0.0455489
0.0464198
0.0472968
0.0481798
0.0490683
0.0499626
0.0508625
0.0517678
0.052678
0.0535928
0.0545119
0.0554353
0.0563628
0.0572954
0.0582337
0.0338913
0.0336395
0.0334864
0.0334303
0.0334673
0.0335929
0.0338
0.0340821
0.0344313
0.0348409
0.0353046
0.0358156
0.0363693
0.0369598
0.0375829
0.0382331
0.0389066
0.0396007
0.0403127
0.0410399
0.0417801
0.0425312
0.0432917
0.0440604
0.0448364
0.0456185
0.0464069
0.0472005
0.0479987
0.0488007
0.0496063
0.0504157
0.0512287
0.0520449
0.0528643
0.0536864
0.0545108
0.0553367
0.056164
0.0569928
0.0578237
0.0586568
0.0594938
0.0369228
0.0366696
0.0365124
0.0364476
0.0364721
0.0365822
0.0367721
0.0370325
0.0373582
0.0377429
0.03818
0.038664
0.0391899
0.0397528
0.0403455
0.0409628
0.0416016
0.0422606
0.042936
0.0436246
0.0443234
0.0450315
0.0457472
0.0464695
0.0471967
0.0479294
0.0486666
0.049407
0.0501494
0.0508932
0.0516385
0.0523867
0.0531365
0.053887
0.0546382
0.0553899
0.0561414
0.0568913
0.0576392
0.0583874
0.0591351
0.0598825
0.060631
0.0395374
0.0392841
0.0391256
0.0390532
0.0390679
0.0391658
0.0393457
0.0395859
0.0398934
0.0402586
0.0406753
0.0411377
0.0416439
0.0421876
0.0427527
0.0433408
0.0439499
0.0445829
0.0452275
0.0458812
0.0465453
0.0472171
0.0478958
0.0485786
0.0492647
0.049957
0.0506514
0.0513471
0.052042
0.0527354
0.0534301
0.0541289
0.0548251
0.0555188
0.0562133
0.0569046
0.0575942
0.0582779
0.058956
0.059637
0.0603132
0.0609859
0.0616579
0.0418059
0.0415515
0.0414001
0.0413145
0.0413224
0.0414101
0.0415927
0.0417965
0.0421003
0.0424477
0.0428475
0.0432929
0.0437914
0.0443198
0.044848
0.0454159
0.0459999
0.0466201
0.047226
0.04785
0.048487
0.0491267
0.0497759
0.0504244
0.0510759
0.0517408
0.0523954
0.053054
0.0537052
0.0543554
0.0550098
0.0556735
0.0563185
0.0569652
0.057617
0.058251
0.0588874
0.0595137
0.0601303
0.060761
0.0613711
0.0619805
0.0625896
0.0183639
0.01734
0.0163559
0.0154127
0.0145094
0.0136449
0.0128178
0.0120271
0.0112722
0.0105522
0.00986646
0.00921449
0.00859533
0.00800902
0.00745519
0.00693402
0.0064468
0.00599583
0.00558518
0.00522182
0.00490856
0.00463423
0.00438805
0.00416281
0.00395357
0.00375679
0.00356964
0.00338971
0.00321464
0.00304237
0.0028709
0.00269832
0.0025226
0.002342
0.00215472
0.00195907
0.00175346
0.00153643
0.00130677
0.00106316
0.000806603
0.000572868
0.000681513
0.0183099
0.0173584
0.0164448
0.0155663
0.0147217
0.0139099
0.01313
0.0123812
0.0116626
0.0109735
0.0103136
0.0096823
0.00907902
0.00850351
0.00795541
0.0074348
0.00694241
0.00647926
0.0060478
0.00565274
0.00530013
0.00499076
0.00471599
0.00446777
0.00423996
0.00402798
0.00382829
0.00363794
0.00345444
0.00327538
0.00309862
0.00292199
0.00274332
0.00256046
0.00237126
0.00217365
0.00196561
0.00174537
0.00151152
0.00126608
0.0010389
0.00106614
0.00174158
0.0182592
0.0173827
0.0165368
0.0157203
0.0149319
0.0141708
0.0134361
0.0127272
0.0120435
0.0113843
0.0107493
0.0101382
0.00955046
0.00898595
0.00844442
0.00792573
0.00743028
0.00695876
0.00651265
0.00609478
0.00570991
0.0053645
0.00505746
0.00478145
0.00453007
0.00429827
0.00408198
0.00387786
0.00368285
0.00349432
0.00330986
0.00312702
0.00294339
0.00275653
0.00256402
0.00236341
0.00215212
0.0019281
0.0016912
0.00145636
0.00134706
0.00181065
0.00287499
0.018213
0.017406
0.0166228
0.0158633
0.0151266
0.014412
0.013719
0.0130469
0.0123955
0.0117641
0.0111524
0.0105602
0.0099875
0.00943397
0.00889933
0.00838365
0.00788731
0.00741057
0.00695441
0.00652069
0.00611274
0.00573626
0.00539743
0.00509247
0.00481505
0.00456045
0.0043246
0.00410391
0.00389503
0.00369485
0.0035006
0.00330972
0.00311955
0.00292737
0.00273047
0.00252588
0.00231079
0.00208322
0.0018468
0.00164646
0.00175189
0.002637
0.00393389
0.0181737
0.0174282
0.0167019
0.0159941
0.0153044
0.0146322
0.0139772
0.0133389
0.0127169
0.0121111
0.011521
0.0109466
0.010388
0.00984497
0.00931747
0.00880554
0.00830946
0.00782947
0.00736641
0.00692156
0.006497
0.00609715
0.00572912
0.00539607
0.0050926
0.004814
0.00455677
0.00431744
0.00409256
0.00387893
0.00367352
0.0034733
0.00327541
0.00307688
0.00287471
0.0026656
0.0024465
0.00221602
0.00198486
0.00184803
0.00222256
0.00343643
0.00489818
0.0181387
0.0174492
0.0167743
0.0161134
0.0154663
0.0148327
0.0142122
0.0136046
0.0130097
0.0124272
0.011857
0.0112991
0.0107538
0.0102208
0.00970021
0.0091923
0.00869732
0.00821548
0.00774744
0.00729416
0.00685734
0.00644006
0.00604816
0.005689
0.00536049
0.0050582
0.00477897
0.00451991
0.00427778
0.00404941
0.00383156
0.00362101
0.00341452
0.00320887
0.00300081
0.00278678
0.00256365
0.00233104
0.00211096
0.00206411
0.00271516
0.00417518
0.0057729
0.0181061
0.0174684
0.0168405
0.0162222
0.015614
0.0150155
0.0144263
0.0138467
0.0132763
0.0127153
0.0121635
0.0116209
0.0110877
0.0105642
0.0100504
0.00954646
0.00905286
0.00856985
0.00809796
0.00763816
0.00719176
0.00676123
0.00635087
0.00596821
0.00561658
0.00529185
0.00499115
0.00471216
0.00445221
0.00420828
0.00397714
0.00375539
0.00353969
0.00332651
0.00311218
0.00289297
0.0026657
0.00243189
0.0022283
0.0022907
0.00319874
0.00484868
0.00656559
0.0180764
0.017486
0.0169013
0.0163222
0.0157492
0.015183
0.0146224
0.0140676
0.0135196
0.0129785
0.0124436
0.0119151
0.0113933
0.0108789
0.0103716
0.00987158
0.00937951
0.00889589
0.00842111
0.00795566
0.00750128
0.00705987
0.00663464
0.00623194
0.00585901
0.00551346
0.00519235
0.00489377
0.00461582
0.0043562
0.00411144
0.00387788
0.00365245
0.00343161
0.00321127
0.00298716
0.00275586
0.00252163
0.00233914
0.00252112
0.00365711
0.00546144
0.0072861
0.0180508
0.0175022
0.0169592
0.0164157
0.0158738
0.0153403
0.0148067
0.0142726
0.0137434
0.0132213
0.0127044
0.012189
0.0116774
0.0111734
0.0106757
0.0101806
0.00969024
0.00920814
0.00873332
0.00826255
0.00780018
0.00735029
0.00691321
0.00649333
0.00610128
0.00573483
0.00539357
0.00507583
0.00477711
0.00449844
0.00424155
0.00399846
0.00375964
0.00352605
0.00329509
0.00306544
0.00283145
0.00259771
0.00244308
0.00275165
0.0040841
0.00601616
0.00794066
0.00124976
0.0017499
0.00213028
0.00248338
0.00295556
0.00349756
0.00409695
0.00475022
0.0054551
0.00621128
0.00701848
0.00787774
0.008789
0.00975274
0.0107702
0.0118427
0.0129715
0.0141592
0.015407
0.0167175
0.0180929
0.0195356
0.0210485
0.022634
0.0242953
0.0260351
0.0278569
0.0297635
0.0317585
0.0338451
0.0360269
0.0383071
0.0406894
0.0431772
0.0457738
0.0484825
0.051306
0.054246
0.0573018
0.0604668
0.0637228
0.0670363
0.0703662
0.00262953
0.00336894
0.00398487
0.00451982
0.00500584
0.00548187
0.00605895
0.00671773
0.00744604
0.00823755
0.00908885
0.00999807
0.0109641
0.0119867
0.0130644
0.0141972
0.0153846
0.0166275
0.017927
0.0192838
0.0206996
0.0221762
0.023715
0.025318
0.0269874
0.0287252
0.0305339
0.0324157
0.0343731
0.0364087
0.0385248
0.0407243
0.0430097
0.0453834
0.0478481
0.0504059
0.0530587
0.0558069
0.058649
0.0615771
0.0645737
0.0676107
0.0706543
0.00394144
0.0048619
0.00565455
0.00634551
0.00696209
0.00753213
0.00809186
0.00872816
0.00946049
0.0102732
0.0111569
0.0121058
0.0131165
0.0141867
0.0153147
0.0164975
0.0177339
0.0190231
0.0203649
0.0217596
0.0232076
0.0247098
0.0262673
0.0278812
0.0295529
0.0312837
0.0330754
0.0349294
0.0368475
0.0388316
0.0408833
0.0430046
0.0451973
0.0474631
0.0498039
0.0522212
0.0547154
0.0572864
0.0599307
0.0626394
0.0653961
0.0681769
0.0709562
0.00514596
0.00620831
0.0071376
0.00795536
0.00868559
0.00935265
0.00998337
0.0106212
0.0113614
0.0121957
0.0131109
0.0140982
0.0151512
0.0162662
0.0174403
0.0186692
0.0199498
0.0212801
0.0226592
0.0240865
0.0255618
0.0270852
0.0286572
0.0302782
0.031949
0.0336705
0.0354436
0.0372695
0.039149
0.0410834
0.0430738
0.0451215
0.047228
0.0493943
0.0516214
0.05391
0.0562597
0.0586688
0.0611323
0.0636411
0.0661799
0.0687296
0.0712702
0.00623903
0.00742312
0.00846704
0.00939161
0.0102193
0.0109735
0.0116789
0.0123688
0.0131169
0.0139742
0.0149222
0.015948
0.017043
0.0182017
0.0194199
0.0206917
0.022013
0.0233811
0.0247941
0.0262508
0.02775
0.0292914
0.030875
0.0325009
0.0341695
0.0358811
0.037636
0.0394346
0.0412775
0.0431653
0.0450987
0.0470786
0.0491061
0.0511816
0.0533056
0.0554773
0.0576954
0.0599566
0.0622552
0.0645818
0.0669234
0.0692649
0.0715911
0.00722899
0.00852113
0.00966529
0.0106823
0.0115949
0.0124256
0.0131988
0.0139439
0.0147154
0.0156025
0.0165859
0.0176511
0.018788
0.0199892
0.0212494
0.0225615
0.0239209
0.025324
0.0267683
0.0282514
0.0297717
0.0313283
0.0329216
0.0345514
0.0362174
0.0379194
0.039657
0.0414301
0.0432387
0.0450832
0.0469641
0.0488819
0.0508379
0.0528318
0.0548629
0.0569288
0.0590266
0.0611521
0.0632994
0.0654603
0.0676238
0.0697776
0.0719101
0.00812687
0.00951577
0.0107493
0.0118477
0.0128345
0.0137322
0.0145656
0.0153635
0.0161708
0.0170893
0.0181088
0.0192136
0.020392
0.0216341
0.0229336
0.0242831
0.0256778
0.0271139
0.0285875
0.0300944
0.0316322
0.0332013
0.034803
0.0364365
0.0381006
0.0397935
0.0415148
0.043264
0.0450408
0.0468449
0.0486772
0.050539
0.0524311
0.0543527
0.0563007
0.0582703
0.060257
0.0622573
0.0642654
0.0662757
0.0682784
0.0702633
0.0722215
0.00894427
0.0104221
0.0117346
0.0129036
0.0139558
0.0149105
0.0157978
0.0166481
0.0174972
0.0184445
0.0194993
0.0206441
0.0218647
0.0231454
0.0244799
0.0258634
0.0272913
0.0287599
0.0302624
0.031789
0.033338
0.0349174
0.0365278
0.0381665
0.0398293
0.0415132
0.0432191
0.0449463
0.0466928
0.0484584
0.0502457
0.0520571
0.0538936
0.055753
0.0576279
0.0595083
0.0613901
0.0632738
0.0651539
0.0670284
0.0688856
0.0707193
0.0725216
0.00969424
0.0112571
0.0126349
0.0138626
0.0149726
0.01597
0.0169074
0.0178111
0.0187016
0.0196743
0.0207658
0.0219529
0.0232206
0.0245331
0.0258946
0.0273102
0.02877
0.0302756
0.0318087
0.0333436
0.0348917
0.0364852
0.0381075
0.0397546
0.0414156
0.0430885
0.044781
0.0464886
0.0482037
0.0499303
0.051676
0.0534427
0.0552341
0.0570433
0.0588564
0.0606499
0.0624263
0.0642028
0.0659683
0.0677216
0.0694432
0.0711405
0.0728095
0.000399621
0.00170834
0.00316994
0.00469989
0.00626845
0.00785691
0.0094591
0.0110717
0.0126902
0.0143137
0.0159429
0.0175773
0.0192178
0.0208643
0.0225179
0.0241796
0.0258496
0.0275278
0.0292145
0.0309097
0.0326144
0.0343278
0.0360493
0.0377792
0.0395168
0.041262
0.043014
0.0447724
0.0465366
0.0483062
0.0500803
0.051858
0.0536385
0.0554211
0.0572051
0.058989
0.0607723
0.0625536
0.0643315
0.066105
0.067873
0.0696344
0.0713961
0.000161528
0.00101623
0.00211715
0.0033655
0.00471162
0.0061284
0.00759869
0.00911076
0.010656
0.0122297
0.0138275
0.0154465
0.0170842
0.0187385
0.0204084
0.0220932
0.0237917
0.0255033
0.0272271
0.0289627
0.0307099
0.0324673
0.0342348
0.0360117
0.0377976
0.0395916
0.041393
0.0432013
0.0450155
0.0468351
0.0486591
0.0504867
0.0523167
0.0541485
0.0559808
0.0578128
0.0596433
0.0614711
0.0632949
0.0651136
0.0669257
0.0687302
0.0705299
0.000178855
0.000867122
0.00178565
0.00284148
0.00400519
0.00525617
0.00657953
0.00796483
0.00940312
0.010888
0.0124137
0.0139751
0.0155687
0.0171907
0.0188386
0.0205101
0.0222032
0.0239159
0.0256463
0.0273935
0.0291565
0.0309333
0.0327232
0.0345255
0.0363389
0.0381624
0.039995
0.0418359
0.0436838
0.0455379
0.0473975
0.0492611
0.0511275
0.0529957
0.0548649
0.0567338
0.058601
0.0604652
0.0623254
0.06418
0.0660278
0.0678677
0.0696998
0.000192093
0.000739141
0.00154025
0.00247305
0.00351581
0.00465098
0.00586609
0.00715123
0.00849881
0.0099022
0.0113554
0.0128537
0.014393
0.0159699
0.0175805
0.0192223
0.0208929
0.022589
0.024309
0.0260513
0.027814
0.029595
0.0313932
0.0332072
0.0350354
0.0368761
0.0387286
0.0405915
0.0424633
0.0443431
0.0462292
0.0481206
0.050016
0.0519141
0.0538137
0.0557134
0.0576118
0.0595074
0.0613992
0.0632853
0.0651649
0.0670364
0.0688969
0.000201961
0.000644198
0.0013641
0.00220981
0.00316363
0.00421038
0.0053389
0.00654099
0.00780978
0.00913908
0.0105241
0.0119602
0.0134437
0.0149708
0.0165381
0.0181428
0.0197819
0.0214528
0.0231532
0.0248806
0.0266333
0.0284088
0.0302054
0.0320217
0.0338555
0.0357051
0.0375691
0.039446
0.0413343
0.0432323
0.0451386
0.0470517
0.0489704
0.0508927
0.0528175
0.0547433
0.0566684
0.0585915
0.060511
0.0624253
0.0643328
0.0662319
0.0681184
0.000206393
0.00057994
0.00124057
0.00201956
0.00290287
0.00387728
0.00493363
0.00606468
0.00726422
0.00852745
0.00984978
0.0112273
0.0126564
0.0141337
0.0156564
0.0172211
0.0188252
0.020466
0.0221409
0.0238475
0.0255839
0.0273472
0.0291355
0.0309473
0.0327799
0.0346319
0.036501
0.0383859
0.0402847
0.0421955
0.0441164
0.0460461
0.047983
0.0499251
0.0518708
0.0538186
0.0557668
0.0577137
0.0596576
0.0615967
0.0635289
0.0654523
0.0673622
0.000208008
0.000533146
0.00114562
0.00187133
0.00269742
0.0036124
0.00460829
0.00567854
0.00681836
0.00802314
0.00928899
0.0106127
0.0119907
0.0134206
0.0148991
0.0164235
0.0179911
0.0195992
0.0212457
0.022928
0.0246436
0.0263902
0.0281658
0.0299681
0.0317948
0.0336438
0.0355131
0.0374012
0.0393055
0.0412243
0.0431555
0.0450975
0.0470485
0.0490063
0.0509694
0.0529358
0.0549037
0.0568712
0.0588365
0.0607973
0.0627518
0.0646975
0.0666284
0.00020877
0.000495745
0.00106843
0.00175047
0.00252926
0.00339445
0.00433895
0.00535729
0.00644489
0.00759794
0.00881331
0.0100879
0.0114189
0.0128038
0.0142399
0.015725
0.0172562
0.018831
0.0204477
0.0221034
0.023796
0.025523
0.0272823
0.0290713
0.0308883
0.0327305
0.0345964
0.0364834
0.0383893
0.0403123
0.0422502
0.0442006
0.0461621
0.0481326
0.0501096
0.0520915
0.0540761
0.0560615
0.0580456
0.0600262
0.0620014
0.0639683
0.0659206
0.000209096
0.000465006
0.00100439
0.00164973
0.00238847
0.00321133
0.00411171
0.00508472
0.00612637
0.00723355
0.00840351
0.00963348
0.0109212
0.0122641
0.0136603
0.0151072
0.0166028
0.0181448
0.019731
0.0213593
0.0230273
0.0247328
0.0264733
0.028247
0.0300512
0.0318839
0.0337429
0.0356256
0.0375301
0.0394539
0.041395
0.0433511
0.0453203
0.0473001
0.0492881
0.0512827
0.0532814
0.0552823
0.0572832
0.0592819
0.0612766
0.0632661
0.0652489
0.000209226
0.000439258
0.000950257
0.00156428
0.00226853
0.00305455
0.00391625
0.00484936
0.0058505
0.00691685
0.00804585
0.00923511
0.0104829
0.0117871
0.0131456
0.0145564
0.0160177
0.0175274
0.0190836
0.0206839
0.0223268
0.0240094
0.02573
0.0274864
0.0292759
0.0310966
0.0329462
0.0348224
0.0367225
0.0386446
0.0405862
0.0425452
0.0445191
0.0465055
0.0485023
0.0505072
0.0525178
0.054532
0.0565476
0.0585622
0.0605738
0.0625807
0.0645773
0.000209257
0.00041729
0.000903742
0.00149029
0.00216448
0.00291823
0.0037459
0.00464365
0.00560851
0.00663813
0.00772996
0.00888226
0.0100935
0.0113614
0.0126847
0.0140613
0.0154897
0.0169684
0.018495
0.020068
0.0216853
0.0233448
0.0250444
0.0267821
0.0285555
0.0303625
0.032201
0.0340683
0.0359621
0.0378802
0.0398201
0.0417795
0.0437558
0.0457469
0.04775
0.049763
0.0517835
0.053809
0.0558371
0.0578656
0.0598923
0.0619154
0.0639317
0.000209272
0.000398371
0.000863745
0.00142563
0.00207312
0.0027982
0.00359552
0.00446169
0.00539406
0.00639033
0.00744837
0.00856689
0.00974411
0.0109784
0.0122686
0.0136132
0.0150105
0.0164591
0.0179572
0.0195033
0.0210952
0.0227313
0.0244096
0.0261279
0.0278842
0.0296765
0.0315022
0.033359
0.0352448
0.0371571
0.0390934
0.0410511
0.043028
0.0450215
0.047029
0.0490482
0.0510764
0.0531113
0.0551503
0.0571909
0.0592303
0.0612651
0.0632847
0.000209338
0.00038195
0.000828618
0.0013684
0.00199215
0.0026916
0.00346177
0.00429944
0.00520216
0.006168
0.00719525
0.00828245
0.0094283
0.0106315
0.011891
0.0132052
0.014573
0.0159929
0.0174634
0.018983
0.0205502
0.0221632
0.0238199
0.0255184
0.0272571
0.0290335
0.0308455
0.0326909
0.0345671
0.0364721
0.0384029
0.0403574
0.0423331
0.0443273
0.0463376
0.048361
0.0503954
0.0524379
0.0544861
0.0565375
0.0585898
0.0606412
0.0626903
0.00020947
0.000367463
0.000797351
0.00131722
0.00191958
0.00259586
0.0033415
0.00415338
0.00502911
0.00596718
0.00696609
0.0080244
0.00914136
0.0103156
0.0115461
0.0128318
0.0141716
0.015564
0.0170081
0.0185023
0.0200453
0.0216353
0.0232705
0.0249493
0.0266696
0.0284296
0.0302273
0.03206
0.0339258
0.0358219
0.0377462
0.039696
0.0416689
0.0436625
0.0456736
0.0476999
0.0497388
0.0517873
0.0538433
0.0559038
0.0579667
0.0600299
0.0620892
0.000209531
0.000354456
0.000769178
0.00127098
0.00185412
0.00250936
0.00323244
0.00402065
0.00487179
0.00578441
0.00675711
0.00778889
0.00887888
0.0100261
0.0112294
0.0124883
0.0138013
0.0151679
0.0165864
0.0180561
0.0195756
0.021143
0.0227571
0.0244161
0.0261181
0.0278614
0.0296439
0.0314635
0.0333176
0.0352042
0.0371208
0.0390647
0.0410338
0.0430249
0.0450355
0.0470633
0.0491053
0.0511586
0.0532205
0.0552885
0.0573596
0.0594305
0.0614923
0.00020948
0.000342657
0.000743664
0.00122891
0.00179445
0.00243055
0.00313312
0.00389974
0.00472825
0.00561728
0.00656582
0.00757281
0.0086377
0.00975935
0.0109373
0.0121707
0.0134587
0.0148003
0.0161946
0.0176408
0.0191372
0.0206826
0.022276
0.0239154
0.025599
0.0273254
0.0290926
0.0308983
0.0327401
0.0346164
0.0365242
0.0384614
0.0404254
0.042413
0.0444221
0.0464501
0.0484937
0.0505502
0.0526169
0.0546909
0.0567694
0.0588498
0.0609281
0.000209387
0.00033191
0.000720415
0.00119081
0.00173986
0.00235838
0.00304208
0.00378869
0.0045963
0.00546357
0.00638958
0.00737362
0.00841491
0.00951286
0.0106669
0.0118761
0.0131402
0.0144581
0.0158293
0.0172527
0.0187269
0.0202512
0.0218241
0.023444
0.0251095
0.026819
0.0285705
0.030362
0.0321912
0.0340563
0.0359548
0.0378843
0.0398419
0.0418254
0.0438318
0.0458586
0.0479028
0.0499614
0.0520317
0.0541106
0.0561951
0.0582818
0.060365
0.000209477
0.000322417
0.000699524
0.00115633
0.00168994
0.00229212
0.00295839
0.00368646
0.00447461
0.00532159
0.00622662
0.00718913
0.00820834
0.00928387
0.0104153
0.0116019
0.0128432
0.0141387
0.0154876
0.0168891
0.0183419
0.0198456
0.0213985
0.0229993
0.0246468
0.0263394
0.0280753
0.0298522
0.0316686
0.0335223
0.0354108
0.0373316
0.0392824
0.0412606
0.0432634
0.0452882
0.0473318
0.0493914
0.0514642
0.053547
0.0556362
0.0577288
0.0598191
0.000209593
0.000313765
0.000680301
0.00112456
0.00164382
0.00223083
0.00288087
0.00359175
0.00436179
0.00518978
0.00607526
0.00701755
0.00801609
0.0090705
0.0101807
0.0113459
0.0125656
0.0138395
0.015167
0.0165474
0.0179799
0.0194634
0.0209968
0.022579
0.0242087
0.0258845
0.0276045
0.0293672
0.0311704
0.033012
0.03489
0.0368018
0.0387451
0.0407174
0.0427158
0.0447375
0.0467797
0.0488394
0.0509138
0.0529993
0.055093
0.0571913
0.0592883
0.000209755
0.000306805
0.000662581
0.00109507
0.00160091
0.00217391
0.00280892
0.00350365
0.00425666
0.00506705
0.00593414
0.00685739
0.00783651
0.00887123
0.00996107
0.0111058
0.0123052
0.0135585
0.0148656
0.0162258
0.0176382
0.0191024
0.020617
0.0221809
0.0237932
0.0254524
0.0271567
0.0289049
0.0306945
0.0325241
0.0343912
0.0362935
0.0382288
0.0401944
0.0421876
0.0442056
0.0462457
0.0483047
0.0503797
0.0524678
0.0545655
0.0566699
0.0587759
0.000210454
0.000303369
0.000646306
0.00106778
0.00156112
0.00212103
0.00274189
0.00342158
0.0041588
0.00495263
0.00580237
0.00670768
0.00766838
0.00868411
0.00975478
0.0108802
0.01206
0.0132939
0.0145815
0.0159221
0.0173155
0.0187607
0.0202569
0.0218031
0.0233985
0.0250412
0.0267301
0.0284634
0.0302396
0.0320569
0.0339129
0.0358053
0.0377321
0.0396904
0.0416778
0.0436917
0.0457286
0.0477864
0.0498616
0.0519512
0.0540523
0.0561626
0.058278
0.000211881
0.000303471
0.000631332
0.0010424
0.00152397
0.00207148
0.00267917
0.00334476
0.00406707
0.00484525
0.00567869
0.00656724
0.00751048
0.00850841
0.009561
0.0106679
0.011829
0.0130441
0.0143129
0.015635
0.0170098
0.0184368
0.0199151
0.021444
0.0230224
0.0246491
0.0263227
0.0280416
0.0298044
0.0316091
0.0334537
0.0353361
0.0372539
0.0392046
0.0411858
0.0431945
0.0452282
0.0472839
0.0493585
0.0514489
0.0535522
0.0556648
0.0577812
0.000213789
0.000305352
0.000617465
0.00101866
0.00148942
0.00202521
0.00262041
0.00327276
0.00398103
0.00474438
0.00556245
0.00643499
0.0073617
0.00834273
0.00937793
0.0104673
0.0116106
0.0128077
0.0140585
0.0153627
0.0167197
0.0181291
0.01959
0.0211021
0.0226641
0.0242749
0.0259334
0.0276381
0.0293874
0.0311795
0.0330127
0.0348846
0.0367932
0.0387359
0.0407102
0.0427138
0.0447432
0.0467962
0.0488695
0.0509601
0.0530648
0.0551813
0.057308
0.000215844
0.000307662
0.000604733
0.000996667
0.00145723
0.00198171
0.00256517
0.00320502
0.00389994
0.00464935
0.0054528
0.00631018
0.00722129
0.0081862
0.00920489
0.0102775
0.0114038
0.0125838
0.0138173
0.0151041
0.0164439
0.0178362
0.0192805
0.020776
0.022322
0.0239174
0.0255609
0.0272514
0.0289873
0.0307669
0.0325883
0.0344497
0.036349
0.0382833
0.0402508
0.0422483
0.0442733
0.0463229
0.0483943
0.050484
0.052589
0.0547058
0.0568295
0.000217834
0.000309788
0.000592953
0.00097609
0.00142691
0.00194071
0.00251302
0.00314094
0.0038233
0.0045595
0.0053492
0.00619203
0.00708833
0.00803793
0.00904096
0.0100974
0.0112075
0.0123711
0.0135879
0.0148581
0.0161813
0.0175572
0.0189851
0.0204646
0.0219949
0.023575
0.0252039
0.0268805
0.0286031
0.0303702
0.03218
0.0340308
0.0359202
0.0378462
0.039806
0.0417974
0.0438174
0.0458633
0.047932
0.0500204
0.0521253
0.054243
0.0563716
0.000219667
0.000311536
0.000581865
0.000956751
0.00139844
0.00190206
0.00246383
0.00308057
0.00375098
0.0044746
0.00525108
0.00608031
0.00696247
0.00789742
0.00888538
0.00992645
0.0110209
0.0121686
0.0133695
0.0146237
0.0159308
0.0172906
0.0187029
0.0201668
0.0216817
0.0232471
0.0248616
0.0265243
0.0282337
0.0299884
0.0317867
0.0336267
0.0355063
0.0374235
0.0393756
0.0413606
0.0433752
0.0454169
0.0474827
0.0495696
0.0516744
0.0537942
0.0559282
0.000221269
0.000312846
0.000571552
0.000938558
0.00137147
0.00186545
0.00241719
0.00302325
0.0036824
0.00439405
0.005158
0.00597427
0.00684282
0.00776378
0.00873743
0.00976373
0.0108431
0.0119757
0.0131612
0.0143999
0.0156915
0.0170359
0.0184328
0.0198815
0.0213816
0.0229324
0.0245329
0.0261818
0.0278782
0.0296206
0.0314074
0.0332365
0.0351062
0.0370145
0.0389589
0.040937
0.0429459
0.0449833
0.0470458
0.0491308
0.0512352
0.053356
0.0554918
0.000222724
0.00031408
0.000561887
0.000921312
0.00134594
0.00183079
0.00237301
0.00296891
0.00361721
0.0043174
0.00506945
0.00587325
0.00672886
0.00763642
0.00859635
0.00960863
0.0106736
0.0117915
0.0129623
0.014186
0.0154626
0.016792
0.018174
0.019608
0.0210935
0.0226301
0.0242167
0.0258523
0.0275359
0.0292661
0.0310412
0.0328595
0.0347195
0.0366186
0.038555
0.040526
0.0425291
0.0445615
0.0466205
0.0487031
0.0508064
0.0529273
0.0550636
0.000224167
0.000314981
0.000552778
0.000905128
0.00132185
0.00179791
0.00233092
0.00291717
0.00355521
0.00424459
0.0049852
0.00577716
0.0066204
0.00751518
0.00846189
0.00946062
0.0105117
0.0116156
0.012772
0.0139813
0.0152435
0.0165584
0.0179259
0.0193454
0.0208169
0.0223396
0.0239126
0.025535
0.0272059
0.0289239
0.0306874
0.0324952
0.0343451
0.0362352
0.0381633
0.040127
0.0421239
0.0441513
0.0462063
0.0482861
0.0503875
0.0525076
0.0546442
0.000225381
0.00031552
0.00054418
0.000889697
0.00129897
0.0017668
0.00229089
0.00286785
0.00349617
0.00417517
0.00490487
0.00568546
0.00651678
0.00739919
0.00833318
0.00931892
0.0103568
0.0114471
0.0125898
0.0137852
0.0150332
0.0163341
0.0176875
0.0190932
0.0205508
0.0220599
0.0236195
0.025229
0.0268874
0.0285934
0.0303456
0.0321426
0.0339825
0.0358633
0.037783
0.0397394
0.04173
0.0437519
0.0458026
0.0478789
0.0499779
0.0520961
0.0542308
0.000226485
0.000316077
0.000536253
0.000875093
0.0012773
0.00173733
0.00225287
0.00282092
0.00343978
0.00410886
0.0048282
0.00559774
0.00641771
0.00728832
0.00821016
0.00918338
0.0102084
0.0112856
0.012415
0.0135968
0.0148314
0.0161186
0.0174584
0.0188505
0.0202946
0.0217903