/*--------------------------------*- C++ -*----------------------------------*\
| =========                 |                                                 |
| \\      /  F ield         | OpenFOAM: The Open Source CFD Toolbox           |
|  \\    /   O peration     | Version:  2.3.0                                 |
|   \\  /    A nd           | Web:      www.OpenFOAM.org                      |
|    \\/     M anipulation  |                                                 |
\*---------------------------------------------------------------------------*/
FoamFile
{
    version     2.0;
    format      ascii;
    class       surfaceScalarField;
    location    "5000";
    object      phi;
}
// * * * * * * * * * * * * * * * * * * * * * * * * * * * * * * * * * * * * * //

dimensions      [0 3 -1 0 0 0 0];

internalField   nonuniform List<scalar> 
76252
(
0.00199948
-0.00390722
0.00423979
-0.00233205
0.0017005
-0.00372771
0.00402669
0.00143391
-0.00355611
0.00382269
0.0011979
-0.00339159
0.00362759
0.000990968
-0.00323435
0.00344128
0.000811597
-0.00308341
0.00326278
0.000658611
-0.00293897
0.00309196
0.000530115
-0.00280039
0.00292889
0.000425085
-0.00266791
0.00277294
0.000342379
-0.00254098
0.00262368
0.000280543
-0.00241919
0.00248103
0.00023879
-0.00230267
0.00234443
0.000215339
-0.00219057
0.00221402
0.000209941
-0.00208348
0.00208888
0.000220643
-0.00198025
0.00196955
0.000247375
-0.00188164
0.00185491
0.000288726
-0.00178669
0.00174533
0.000344234
-0.00169567
0.00164016
0.000412727
-0.0016079
0.00153941
0.00049333
-0.00152323
0.00144263
0.00058599
-0.00144258
0.00134993
0.000689347
-0.00136383
0.00126047
0.000803298
-0.00128865
0.0011747
0.000927064
-0.00121606
0.0010923
0.00106029
-0.0011453
0.00101207
0.00120252
-0.00107745
0.000935228
0.00135347
-0.00101129
0.000860335
0.00151323
-0.000947802
0.000788039
0.00168084
-0.000885449
0.000717843
0.00185683
-0.00082505
0.000649061
0.00204109
-0.000766134
0.000581877
0.0022341
-0.000708875
0.000515867
0.00243651
-0.000653411
0.000450994
0.00264912
-0.000599082
0.000386474
0.00287251
-0.000545877
0.000322488
0.00310915
-0.000494489
0.000257851
0.00336187
-0.000444504
0.000191778
0.00363489
-0.000397623
0.000124604
0.00393511
-0.000353082
5.28681e-05
0.00427098
-0.000311155
-2.47208e-05
0.00465839
-0.000274024
-0.000113384
0.00513492
-0.000245932
-0.0002306
-0.000234444
0.00583001
-0.000460639
0.00186939
-0.00360578
-0.00217083
0.00159845
-0.00345677
0.00135604
-0.00331369
0.00114129
-0.00317685
0.000952201
-0.00304525
0.000787836
-0.00291905
0.000646878
-0.00279801
0.000528055
-0.00268157
0.000430502
-0.00257036
0.000352555
-0.00246303
0.000293729
-0.00236036
0.00025281
-0.00226175
0.000229014
-0.00216677
0.000220938
-0.0020754
0.000228667
-0.00198798
0.000250306
-0.00190328
0.000285807
-0.00182219
0.000333846
-0.00174371
0.000394185
-0.00166824
0.000466215
-0.00159526
0.00054884
-0.00152521
0.00064234
-0.00145733
0.000744837
-0.00139115
0.000856914
-0.00132814
0.000977809
-0.0012662
0.00110735
-0.00120699
0.00124538
-0.00114932
0.00139132
-0.00109374
0.00154512
-0.00103925
0.00170731
-0.00098724
0.00187772
-0.000936546
0.00205687
-0.000888025
0.00224522
-0.000841762
0.00244272
-0.000796579
0.00265081
-0.000753969
0.00287148
-0.000715157
0.00310609
-0.000679112
0.00335525
-0.000646785
0.00362169
-0.000619522
0.00390947
-0.000598932
0.00422115
-0.000585711
0.00456001
-0.000584792
-0.000595439
0.00492101
0.00174048
-0.00333323
-0.00201302
0.00149458
-0.00321087
0.00127447
-0.00309358
0.00107855
-0.00298093
0.000905914
-0.00287261
0.000755344
-0.00276848
0.000625797
-0.00266846
0.000516461
-0.00257223
0.000425696
-0.00247959
0.000353343
-0.00239068
0.00029803
-0.00230505
0.000258628
-0.00222235
0.000235234
-0.00214338
0.000226297
-0.00206647
0.00023132
-0.00199301
0.000249812
-0.00192177
0.000280824
-0.0018532
0.000323955
-0.00178684
0.00037827
-0.00172256
0.000443576
-0.00166057
0.000519002
-0.00160064
0.00060402
-0.00154234
0.000698953
-0.00148608
0.000802432
-0.00143162
0.000914878
-0.00137865
0.00103522
-0.00132733
0.00116387
-0.00127797
0.0013
-0.00122987
0.0014439
-0.00118316
0.00159536
-0.0011387
0.0017551
-0.00109628
0.00192127
-0.0010542
0.00209553
-0.00101603
0.00227775
-0.000978798
0.00246854
-0.000944753
0.00266676
-0.000913383
0.00287423
-0.000886581
0.00308996
-0.000862508
0.00331591
-0.000845476
0.00354895
-0.000831969
0.00379025
-0.000827016
0.0040338
-0.000828343
-0.000839052
0.00427742
0.00161569
-0.00308468
-0.00186425
0.00139167
-0.00298684
0.00119054
-0.00289245
0.00101133
-0.00280172
0.000853044
-0.00271433
0.000714409
-0.00262984
0.000594713
-0.00254877
0.000493045
-0.00247056
0.000408348
-0.00239489
0.000339934
-0.00232226
0.00028704
-0.00225216
0.000249083
-0.0021844
0.000224581
-0.00211887
0.000214091
-0.00205598
0.000215633
-0.00199455
0.000229629
-0.00193577
0.000254894
-0.00187846
0.000291138
-0.00182308
0.000337796
-0.00176922
0.000394716
-0.00171749
0.000460675
-0.00166659
0.000535852
-0.00161752
0.000619605
-0.00156983
0.00071115
-0.00152316
0.000811237
-0.00147873
0.000918597
-0.00143469
0.0010329
-0.00139227
0.00115483
-0.00135179
0.0012837
-0.00131203
0.00141944
-0.00127444
0.00156118
-0.00123803
0.00171062
-0.00120364
0.00186526
-0.00117067
0.00202747
-0.001141
0.00219614
-0.00111343
0.00237176
-0.001089
0.00255281
-0.00106763
0.00274152
-0.00105123
0.00293486
-0.00103881
0.00313575
-0.00103286
0.00334006
-0.00103133
0.00354759
-0.00103587
-0.0010481
0.00375664
0.00149491
-0.00285917
-0.00172041
0.00129062
-0.00278255
0.00110711
-0.00270894
0.000942921
-0.00263753
0.000797337
-0.00256875
0.000669849
-0.00250236
0.000559141
-0.00243806
0.000464652
-0.00237608
0.000385842
-0.00231608
0.000321731
-0.00225815
0.000271315
-0.00220174
0.000234356
-0.00214744
0.000209947
-0.00209446
0.000197733
-0.00204376
0.000197108
-0.00199392
0.000207541
-0.0019462
0.000228129
-0.00189905
0.000258972
-0.00185392
0.000299629
-0.00180987
0.000348582
-0.00176644
0.000406793
-0.00172481
0.000473553
-0.00168428
0.000547808
-0.00164409
0.000630353
-0.00160571
0.000719224
-0.0015676
0.000815605
-0.00153107
0.000918667
-0.00149534
0.00102775
-0.00146088
0.00114341
-0.00142768
0.00126491
-0.00139594
0.0013924
-0.00136552
0.00152596
-0.00133719
0.00166518
-0.00130989
0.00181009
-0.00128591
0.00196035
-0.00126369
0.00211543
-0.00124407
0.00227682
-0.00122902
0.00244262
-0.00121703
0.00261333
-0.00120952
0.00278759
-0.00120712
0.00296513
-0.00120886
0.00314661
-0.00121736
-0.00123022
0.00332874
0.0013798
-0.00265352
-0.00158545
0.00119368
-0.00259643
0.00102556
-0.00254083
0.000875197
-0.00248717
0.000741686
-0.00243524
0.000624029
-0.0023847
0.000521737
-0.00233577
0.000434108
-0.00228845
0.000360389
-0.00224237
0.000299873
-0.00219764
0.000252381
-0.00215425
0.000216511
-0.00211157
0.000192668
-0.00207062
0.000179036
-0.00203013
0.00017671
-0.0019916
0.00018376
-0.00195325
0.000200893
-0.00191619
0.00022672
-0.00187975
0.000261359
-0.00184451
0.000304767
-0.00180985
0.000355794
-0.00177583
0.000414401
-0.00174289
0.000480437
-0.00171013
0.000553099
-0.00167837
0.000632525
-0.00164703
0.000718418
-0.00161697
0.000810693
-0.00158761
0.000908884
-0.00155907
0.0010125
-0.0015313
0.00112165
-0.00150509
0.00123624
-0.00148011
0.00135529
-0.00145624
0.00148079
-0.00143539
0.00160969
-0.00141481
0.001744
-0.001398
0.00188409
-0.00138416
0.00202735
-0.00137229
0.00217515
-0.00136483
0.00232692
-0.00136129
0.00248218
-0.00136238
0.00264084
-0.00136752
0.00280178
-0.0013783
-0.00139415
0.0029657
0.00127124
-0.00246597
-0.00145879
0.00110092
-0.00242611
0.000947359
-0.00238726
0.000809569
-0.00234938
0.000686577
-0.00231225
0.000578305
-0.00227643
0.000483961
-0.00224142
0.000402768
-0.00220725
0.000334055
-0.00217365
0.000277474
-0.00214105
0.000232187
-0.00210896
0.00019837
-0.00207775
0.000174663
-0.00204691
0.000161117
-0.00201659
0.000156819
-0.0019873
0.000161745
-0.00195817
0.000175504
-0.00192995
0.000197771
-0.00190202
0.000227702
-0.00187444
0.000264951
-0.0018471
0.000309768
-0.00182065
0.000361803
-0.00179492
0.000420613
-0.00176894
0.000485651
-0.00174341
0.000557247
-0.00171863
0.000633847
-0.00169357
0.000716009
-0.00166977
0.000803837
-0.0016469
0.000897156
-0.00162462
0.000995074
-0.00160301
0.00109802
-0.00158305
0.00120604
-0.00156426
0.00131818
-0.00154754
0.00143496
-0.00153158
0.001556
-0.00151904
0.00168064
-0.0015088
0.00180937
-0.00150102
0.00194259
-0.00149804
0.00207885
-0.00149756
0.00221818
-0.0015017
0.002361
-0.00151034
0.00250539
-0.0015227
-0.00154065
0.00265189
0.00116901
-0.00229487
-0.00134011
0.00101349
-0.00227059
0.00087279
-0.00224656
0.000746483
-0.00222307
0.000633788
-0.00219955
0.000534173
-0.00217681
0.000446836
-0.00215409
0.000371516
-0.00213193
0.000307731
-0.00210987
0.000254894
-0.00208822
0.000212816
-0.00206688
0.000180477
-0.00204541
0.000157398
-0.00202383
0.000143716
-0.00200291
0.000138724
-0.00198231
0.000142084
-0.00196153
0.000153073
-0.00194093
0.000171884
-0.00192083
0.000197562
-0.00190012
0.000230713
-0.00188025
0.000270182
-0.00186012
0.000316297
-0.00184104
0.000368285
-0.00182092
0.000426708
-0.00180183
0.000490262
-0.00178218
0.000559229
-0.00176253
0.000633676
-0.00174422
0.000712481
-0.0017257
0.000796142
-0.00170828
0.000884925
-0.00169179
0.000977327
-0.00167546
0.00107477
-0.00166171
0.00117489
-0.00164766
0.00128057
-0.00163726
0.00138941
-0.00162788
0.00150219
-0.00162159
0.00161834
-0.00161716
0.00173782
-0.00161752
0.00186094
-0.00162068
0.00198689
-0.00162765
0.00211466
-0.0016381
0.00224608
-0.00165412
-0.00167283
0.00237826
0.00107295
-0.00214027
-0.00122755
0.000931109
-0.00212875
0.000802718
-0.00211817
0.000687102
-0.00210745
0.000583921
-0.00209637
0.000491613
-0.00208451
0.000411506
-0.00207398
0.00034162
-0.00206205
0.000282469
-0.00205072
0.00023308
-0.00203883
0.000193238
-0.00202704
0.000162905
-0.00201508
0.000141169
-0.0020021
0.000127104
-0.00198884
0.000121341
-0.00197654
0.000123215
-0.00196341
0.000131826
-0.00194954
0.000147803
-0.00193681
0.000170875
-0.00192319
0.000199778
-0.00190915
0.00023434
-0.00189468
0.000274811
-0.00188151
0.000321535
-0.00186765
0.000373864
-0.00185416
0.000431219
-0.00183954
0.000493521
-0.00182484
0.000559694
-0.00181039
0.000631695
-0.0017977
0.000707761
-0.00178434
0.000787262
-0.0017713
0.000871273
-0.00175947
0.000958997
-0.00174943
0.00105085
-0.00173951
0.00114526
-0.00173166
0.0012433
-0.00172593
0.00134523
-0.00172352
0.00145066
-0.00172259
0.00155838
-0.00172525
0.00167067
-0.00173297
0.0017839
-0.00174088
0.00189885
-0.00175306
0.00201782
-0.00177308
0.00213831
-0.00179333
0.00595494
-0.000295508
0.00017057
0.00617472
-0.000398477
0.000178704
0.00641002
-0.000498557
0.000263259
0.00664798
-0.000599558
0.00036159
0.00688408
-0.00069877
0.000462676
0.00711451
-0.000793281
0.000562851
0.00733834
-0.000884633
0.000660805
0.00755173
-0.000972878
0.000759486
0.00775357
-0.00105919
0.000857347
0.00794262
-0.00114328
0.000954223
0.00811939
-0.00122791
0.00105114
0.00828253
-0.00131045
0.00114732
0.00843261
-0.00139454
0.00124446
0.00856864
-0.00147703
0.001341
0.00869068
-0.00156114
0.0014391
0.00880016
-0.00164586
0.00153638
0.00889799
-0.00173361
0.00163578
0.00898094
-0.00182056
0.0017376
0.00905319
-0.00191254
0.00184029
0.00911057
-0.00200439
0.00194701
0.00915626
-0.00210033
0.00205464
0.00918928
-0.00219907
0.00216605
0.00920626
-0.00229944
0.00228247
0.00920944
-0.00240478
0.0024016
0.00919522
-0.00251193
0.00252615
0.00916626
-0.00262528
0.00265424
0.00911848
-0.00274068
0.00278845
0.00905263
-0.00286106
0.00292691
0.00896617
-0.00298564
0.0030721
0.00885933
-0.00311452
0.00322136
0.00872995
-0.00324937
0.00337875
0.00857745
-0.00338834
0.00354084
0.00839949
-0.00353324
0.0037112
0.00819623
-0.00368398
0.00388724
0.00796485
-0.00384013
0.00407152
0.00770484
-0.00400273
0.00426274
0.00741596
-0.00417255
0.00446143
0.0070944
-0.00434818
0.00466974
0.00673946
-0.00453113
0.00488607
0.0063502
-0.00472168
0.00511095
0.00592494
-0.00492012
0.00534538
0.00546206
-0.00512751
0.00559038
-0.00534212
0.00584478
0.0049594
0.00526014
-0.000634642
0.00555711
-0.000695449
0.00582
-0.000761442
0.00605345
-0.000833011
0.00626148
-0.0009068
0.00645086
-0.000982656
0.00662609
-0.00105987
0.00678819
-0.00113497
0.00694205
-0.00121305
0.0070878
-0.00128903
0.00722477
-0.00136488
0.00735543
-0.00144111
0.00747763
-0.00151674
0.00759378
-0.00159317
0.00770264
-0.00167
0.00780424
-0.00174746
0.00789447
-0.00182384
0.00797798
-0.00190408
0.00805036
-0.00198492
0.00811216
-0.00206619
0.00816256
-0.00215073
0.00819953
-0.00223604
0.0082249
-0.00232481
0.00823538
-0.00241525
0.00823211
-0.00250866
0.00821233
-0.0026055
0.00817541
-0.00270375
0.00812183
-0.00280749
0.00804886
-0.00291266
0.00795776
-0.00302342
0.007845
-0.00313662
0.00771107
-0.00325441
0.0075548
-0.00337697
0.00737484
-0.00350402
0.00716985
-0.00363514
0.00693937
-0.00377226
0.00668112
-0.00391429
0.00639442
-0.00406148
0.00607766
-0.00421438
0.00572966
-0.00437368
0.00534963
-0.00454009
0.00493389
-0.00471178
-0.00489201
0.00448379
0.00451226
-0.000869487
0.00473573
-0.000918916
0.00495051
-0.00097622
0.00515395
-0.00103645
0.00534963
-0.00110249
0.00553458
-0.00116761
0.0057109
-0.00123618
0.00587976
-0.00130383
0.00603928
-0.00137257
0.00619087
-0.00144062
0.00633595
-0.00150996
0.00647106
-0.00157622
0.00660013
-0.00164581
0.0067196
-0.00171265
0.00682953
-0.00177993
0.00693134
-0.00184928
0.00702542
-0.00191792
0.00710872
-0.00198737
0.00718136
-0.00205756
0.00724471
-0.00212954
0.00729634
-0.00220235
0.00733623
-0.00227594
0.00736414
-0.00235272
0.00737869
-0.0024298
0.00737944
-0.00250941
0.00736552
-0.00259158
0.00733777
-0.002676
0.00729244
-0.00276216
0.00723151
-0.00285173
0.00715134
-0.00294325
0.00705415
-0.00303943
0.00693636
-0.00313662
0.00679878
-0.00323939
0.00663916
-0.0033444
0.00645734
-0.00345331
0.00625176
-0.00356668
0.00602153
-0.00368406
0.00576511
-0.00380507
0.00548291
-0.00393217
0.00517179
-0.00406256
0.0048302
-0.0041985
0.00445754
-0.00433912
-0.0044863
0.00405183
0.00396315
-0.001076
0.00416442
-0.00112019
0.00435748
-0.00116928
0.00454379
-0.00122275
0.00472093
-0.00127963
0.00489192
-0.00133859
0.00505518
-0.00139944
0.00521155
-0.0014602
0.00535905
-0.00152008
0.00550104
-0.0015826
0.00563512
-0.00164404
0.00576339
-0.0017045
0.00588251
-0.00176492
0.00599424
-0.00182437
0.00610043
-0.00188612
0.00619631
-0.00194516
0.00628501
-0.00200663
0.0063646
-0.00206696
0.00643475
-0.00212771
0.0064958
-0.00219059
0.00654614
-0.0022527
0.00658607
-0.00231587
0.00661411
-0.00238076
0.00663035
-0.00244604
0.00663495
-0.00251401
0.0066255
-0.00258213
0.00660161
-0.00265211
0.00656331
-0.00272386
0.00650993
-0.00279835
0.00644065
-0.00287398
0.00635429
-0.00295306
0.0062509
-0.00303323
0.00612745
-0.00311593
0.00598525
-0.0032022
0.00582302
-0.00329109
0.00563922
-0.00338288
0.00543281
-0.00347765
0.00520382
-0.00357608
0.00494962
-0.00367797
0.00467021
-0.00378315
0.00436383
-0.00389212
0.00403105
-0.00400634
-0.00412236
0.00366712
0.00351047
-0.00125773
0.00368755
-0.00129727
0.00385964
-0.00134137
0.00402713
-0.00139024
0.00418871
-0.00144122
0.00434449
-0.00149437
0.00449301
-0.00154797
0.00463696
-0.00160415
0.00477567
-0.00165878
0.00490669
-0.00171362
0.00503167
-0.00176903
0.00514977
-0.0018226
0.00526266
-0.00187781
0.00536816
-0.00192988
0.00546651
-0.00198446
0.00555756
-0.00203621
0.00564012
-0.00208919
0.00571534
-0.00214219
0.00578222
-0.00219459
0.00583898
-0.00224735
0.005887
-0.00230071
0.00592569
-0.00235456
0.00595326
-0.00240834
0.00597058
-0.00246336
0.00597548
-0.00251891
0.00596788
-0.00257453
0.00594874
-0.00263298
0.00591594
-0.00269106
0.00586949
-0.00275189
0.00580801
-0.0028125
0.0057309
-0.00287595
0.0056383
-0.00294064
0.00552896
-0.0030066
0.00540138
-0.00307462
0.00525568
-0.00314538
0.00509063
-0.00321783
0.00490586
-0.00329289
0.00469901
-0.00336922
0.00447096
-0.00344992
0.00421958
-0.00353178
0.00394299
-0.00361553
0.00364187
-0.00370522
-0.00379656
0.00331607
0.00312739
-0.00141942
0.00328667
-0.00145655
0.00344322
-0.00149792
0.00359363
-0.00154065
0.00374039
-0.00158798
0.00388295
-0.00163693
0.00402027
-0.00168529
0.00415124
-0.00173512
0.00427758
-0.00178512
0.00439914
-0.00183518
0.00451373
-0.00188362
0.00462416
-0.00193302
0.00472693
-0.00198058
0.00482472
-0.00202768
0.00491481
-0.00207454
0.00499927
-0.00212067
0.00507615
-0.00216607
0.0051456
-0.00221163
0.00520749
-0.00225647
0.0052619
-0.00230176
0.00530687
-0.00234568
0.00534246
-0.00239014
0.00536857
-0.00243445
0.00538485
-0.00247965
0.00538991
-0.00252397
0.00538567
-0.00257029
0.00536875
-0.00261606
0.00534012
-0.00266243
0.00529788
-0.00270964
0.00524352
-0.00275814
0.00517446
-0.00280689
0.00509129
-0.00285747
0.00499275
-0.00290805
0.00487877
-0.00296064
0.0047475
-0.00301411
0.00459908
-0.00306941
0.00443202
-0.00312583
0.00424722
-0.00318442
0.00404089
-0.00324359
0.00381329
-0.00330418
0.003567
-0.00336924
0.00329531
-0.00343354
-0.00350278
0.00300153
0.00279897
-0.00156649
0.00294279
-0.00160037
0.00308323
-0.00163836
0.00322114
-0.00167856
0.00335431
-0.00172115
0.00348325
-0.00176587
0.0036077
-0.00180974
0.00372849
-0.00185591
0.00384437
-0.001901
0.00395423
-0.00194504
0.00406067
-0.00199007
0.00416063
-0.00203298
0.00425507
-0.00207502
0.00434526
-0.00211786
0.0044281
-0.00215738
0.00450627
-0.00219884
0.00457738
-0.00223718
0.00464138
-0.00227563
0.00469895
-0.00231404
0.00474779
-0.00235061
0.00478933
-0.00238722
0.0048229
-0.00242371
0.00484746
-0.00245901
0.00486214
-0.00249433
0.00486885
-0.00253067
0.00486452
-0.00256595
0.00485014
-0.00260168
0.00482444
-0.00263673
0.0047878
-0.00267299
0.00473834
-0.00270869
0.00467739
-0.00274593
0.00460227
-0.00278236
0.00451361
-0.00281939
0.00441033
-0.00285736
0.00429188
-0.00289566
0.00415821
-0.00293574
0.00400827
-0.00297589
0.00383992
-0.00301608
0.0036542
-0.00305786
0.00345149
-0.00310148
0.00322561
-0.00314335
0.00298129
-0.00318922
-0.00323539
0.0027139
0.00251145
-0.00169969
0.00264257
-0.00173148
0.00276937
-0.00176516
0.0028948
-0.00180399
0.00301582
-0.00184217
0.00313277
-0.00188281
0.0032471
-0.00192408
0.0033567
-0.00196551
0.00346119
-0.00200549
0.003563
-0.00204685
0.00365927
-0.00208634
0.00375078
-0.00212449
0.00383891
-0.00216315
0.00391991
-0.00219886
0.00399687
-0.00223434
0.00406726
-0.00226923
0.00413272
-0.00230265
0.00419276
-0.00233566
0.0042442
-0.00236549
0.00428989
-0.00239629
0.00432816
-0.00242549
0.00435847
-0.00245402
0.00438163
-0.00248217
0.00439606
-0.00250876
0.00440177
-0.00253638
0.00439842
-0.00256261
0.00438542
-0.00258868
0.00436308
-0.0026144
0.00432995
-0.00263986
0.00428579
-0.00266453
0.00423017
-0.00269032
0.00416254
-0.00271472
0.00408195
-0.00273879
0.00398889
-0.0027643
0.00388294
-0.00278971
0.00376149
-0.00281429
0.0036254
-0.0028398
0.0034739
-0.00286457
0.00330675
-0.00289072
0.00312057
-0.00291529
0.00291894
-0.00294172
0.00269931
-0.00296959
-0.00299531
0.00245923
0.00225892
-0.00182029
0.00237754
-0.0018501
0.00249435
-0.00188197
0.00260657
-0.00191621
0.00271648
-0.00195209
0.00282505
-0.00199138
0.00292703
-0.00202606
0.00302712
-0.00206559
0.00312399
-0.00210236
0.00321554
-0.0021384
0.00330329
-0.00217409
0.00338829
-0.00220949
0.00346774
-0.0022426
0.00354258
-0.0022737
0.00361259
-0.00230435
0.00367754
-0.00233417
0.0037388
-0.00236392
0.00379154
-0.0023884
0.00383998
-0.00241393
0.00388142
-0.00243773
0.00391567
-0.00245975
0.00394366
-0.00248201
0.0039642
-0.0025027
0.00397792
-0.00252249
0.00398361
-0.00254207
0.00398099
-0.00255999
0.00396993
-0.00257762
0.00394956
-0.00259402
0.00391945
-0.00260976
0.00387998
-0.00262506
0.00382943
-0.00263977
0.00376724
-0.00265253
0.00369509
-0.00266665
0.0036109
-0.00268012
0.00351393
-0.00269274
0.00340512
-0.00270547
0.00328201
-0.00271669
0.00314573
-0.00272829
0.00299284
-0.00273783
0.00282746
-0.00274991
0.00264388
-0.00275814
0.00244466
-0.00277037
-0.00277748
0.00222683
9.29027e-05
0.00626624
-0.00682142
0.000462285
0.000608877
0.00604795
-0.00656392
0.0010855
0.00583569
-0.00631231
0.00152076
0.00563558
-0.00607084
0.0019249
0.00543731
-0.00584145
0.00228958
0.00525133
-0.005616
0.0026209
0.00507143
-0.00540275
0.00291877
0.00489731
-0.00519518
0.00318515
0.00472923
-0.00499561
0.00342214
0.00456908
-0.00480607
0.00362931
0.00441095
-0.00461811
0.00380474
0.00426449
-0.00443993
0.00395656
0.0041179
-0.00426972
0.0040803
0.003977
-0.00410074
0.00417783
0.00384378
-0.00394132
0.00424913
0.00371419
-0.00378549
0.00429809
0.00358577
-0.00363473
0.00432228
0.00346505
-0.00348924
0.00432149
0.00334731
-0.00334652
0.00429796
0.00323054
-0.00320701
0.00425548
0.00311686
-0.00307438
0.00418995
0.00300803
-0.0029425
0.00410346
0.00290191
-0.00281541
0.00399799
0.00279458
-0.00268911
0.00387394
0.00269387
-0.00256982
0.00373187
0.00259151
-0.00244944
0.00357404
0.00249203
-0.00233419
0.00339888
0.00239483
-0.00221967
0.00321151
0.00229812
-0.00211076
0.00301027
0.00220399
-0.00200275
0.00279817
0.00210843
-0.00189633
0.00257434
0.00201707
-0.00179323
0.00234378
0.00192418
-0.00169362
0.00210567
0.00183337
-0.00159526
0.0018614
0.00174275
-0.00149849
0.00161435
0.00165165
-0.0014046
0.00136615
0.00155993
-0.00131173
0.00111991
0.00146659
-0.00122034
0.000873668
0.00137173
-0.00112549
0.000638174
0.00126798
-0.00103249
0.000417111
0.00115178
-0.00093072
0.000240264
0.00098915
-0.000812303
0.000711189
0.000143592
-0.00061452
8.33397e-05
0.00576107
0.000421828
0.00055115
0.00558014
0.000981705
0.00540513
0.00137913
0.00523816
0.00174131
0.00507513
0.00207029
0.00492236
0.00237231
0.00476941
0.00264292
0.0046267
0.00288438
0.00448776
0.00309842
0.00435505
0.00328331
0.00422606
0.00344692
0.00410089
0.00358296
0.00398186
0.0036937
0.00386627
0.00378266
0.00375482
0.00385018
0.00364668
0.00389373
0.00354222
0.00391554
0.00344324
0.00391937
0.00334347
0.00390268
0.00324723
0.0038638
0.00315575
0.00380858
0.00306325
0.00373475
0.00297574
0.0036427
0.00288663
0.00353453
0.00280204
0.00341007
0.00271597
0.0032678
0.0026343
0.00311421
0.00254842
0.00294548
0.00246685
0.00276455
0.00238493
0.00257216
0.00230082
0.00237083
0.00221839
0.00215968
0.00213533
0.00194166
0.00205139
0.00171819
0.00196622
0.00149048
0.00187936
0.00126184
0.00178858
0.00103278
0.00169565
0.000808301
0.00159621
0.000590129
0.00148616
0.000393214
0.0013487
0.000251793
0.00113057
0.000823597
0.000139384
7.55019e-05
0.00530405
0.00038152
0.000497529
0.00515811
0.000888652
0.00501401
0.00124872
0.00487809
0.00157564
0.0047482
0.00187762
0.00462037
0.00214653
0.00450049
0.00239249
0.00438074
0.00260927
0.00427098
0.00280534
0.00415898
0.0029742
0.0040572
0.00311974
0.00395535
0.0032425
0.0038591
0.0033459
0.00376286
0.00342622
0.0036745
0.00348511
0.00358779
0.00352672
0.00350062
0.00354887
0.00342109
0.00355348
0.00333886
0.00353839
0.00326233
0.00350752
0.00318661
0.00345671
0.00311407
0.00339214
0.00304031
0.00331157
0.00296721
0.00321482
0.00289879
0.00310216
0.00282863
0.00297808
0.00275838
0.00283832
0.00268819
0.0026875
0.00261767
0.00252585
0.00254658
0.00235201
0.00247466
0.00216858
0.00240182
0.00197656
0.00232736
0.0017769
0.00225104
0.00157415
0.00216897
0.00136594
0.00208758
0.00115419
0.00200032
0.000943545
0.0019063
0.000733807
0.00180595
0.0005335
0.00168646
0.000361098
0.0015211
0.000237164
0.00125451
0.000938858
0.000121903
6.51038e-05
0.00489021
0.000348735
0.000450076
0.00477314
0.000804206
0.00465988
0.00112938
0.00455292
0.00142761
0.00444997
0.00169902
0.00434896
0.00194536
0.00425415
0.00216715
0.00415896
0.00236586
0.00407226
0.00253969
0.00398516
0.00269256
0.00390433
0.00282471
0.00382319
0.00293787
0.00374595
0.00302803
0.00367271
0.00310143
0.0036011
0.00315771
0.00353151
0.00319488
0.00346344
0.00321492
0.00340105
0.00321757
0.00333621
0.00320525
0.00327465
0.00317737
0.0032145
0.00313413
0.0031573
0.00307716
0.00309728
0.0030025
0.00304187
0.00291855
0.00298274
0.00281874
0.00292843
0.00270751
0.0028696
0.00258481
0.00281089
0.00244888
0.00275361
0.00230021
0.00269524
0.00214297
0.0026319
0.00197784
0.00256695
0.00180339
0.00250181
0.00162434
0.00243009
0.00143599
0.00235732
0.00124515
0.00227841
0.00105105
0.00219443
0.000857694
0.00209966
0.000665847
0.0019978
0.000483585
0.00186873
0.000333885
0.0016708
0.00021829
0.0013701
0.00104812
0.000109032
5.96092e-05
0.00451514
0.000315458
0.000408045
0.0044247
0.0007276
0.00434032
0.00102234
0.00425818
0.00129427
0.00417803
0.00153955
0.00410369
0.00176404
0.00402966
0.00196157
0.00396143
0.00214264
0.00389119
0.00230081
0.00382699
0.00244029
0.00376486
0.00255899
0.00370449
0.00266099
0.00364395
0.00274406
0.00358964
0.00281035
0.00353482
0.00285995
0.00348191
0.00289268
0.00343072
0.00291254
0.00338118
0.00291744
0.00333132
0.00290539
0.0032867
0.00288008
0.00323981
0.00284157
0.00319581
0.00279009
0.00314875
0.0027271
0.00310485
0.00264867
0.00306117
0.00256117
0.00301593
0.0024599
0.00297087
0.00234764
0.00292314
0.00222437
0.00287689
0.00209581
0.0028238
0.00195282
0.00277488
0.00180346
0.00271631
0.00164475
0.00266052
0.0014805
0.00259434
0.00131056
0.00252726
0.00113532
0.00245366
0.000960143
0.0023696
0.00077931
0.00228049
0.00060475
0.00217236
0.000442274
0.0020312
0.000308083
0.00180499
0.000199607
0.00147858
0.00114961
9.81183e-05
5.30819e-05
0.00417429
0.00028777
0.000369174
0.00410861
0.000660619
0.00404888
0.000927267
0.00399154
0.00117139
0.0039339
0.00139479
0.00388029
0.00159552
0.00382893
0.00177971
0.00377724
0.00194107
0.00372983
0.0020838
0.00368426
0.00220995
0.00363871
0.00231962
0.00359482
0.00241033
0.00355324
0.00248671
0.00351326
0.00254642
0.00347512
0.00259334
0.00343499
0.00262364
0.00340041
0.00264108
0.00336375
0.00264196
0.00333045
0.00263375
0.0032949
0.00261091
0.00326265
0.00257711
0.00322962
0.00253022
0.00319564
0.00247236
0.00316271
0.00240331
0.00313022
0.00232303
0.00309622
0.00223369
0.00306021
0.00213313
0.00302369
0.00202344
0.00298658
0.00190314
0.00294409
0.00177798
0.00290004
0.00164048
0.00285381
0.00149876
0.00280223
0.00134826
0.00274485
0.00119263
0.0026829
0.00103534
0.00261094
0.00087188
0.00253307
0.00071108
0.00244129
0.000551101
0.00233233
0.000403169
0.00217914
0.0002822
0.00192596
0.000180665
0.00158011
0.00124302
8.72474e-05
4.89216e-05
0.00386334
0.00026203
0.000333285
0.00382424
0.000596745
0.00378542
0.000839892
0.00374839
0.00106234
0.00371146
0.00126408
0.00367855
0.00144945
0.00364357
0.00161203
0.00361466
0.00176029
0.00358158
0.001892
0.00355254
0.00200512
0.0035256
0.00210357
0.00349637
0.00218558
0.00347123
0.00225509
0.00344375
0.00230988
0.00342033
0.00234831
0.00339656
0.00237809
0.00337063
0.00239132
0.00335052
0.00239596
0.00332581
0.00238599
0.00330487
0.00236731
0.00328132
0.00233783
0.0032591
0.00229542
0.00323805
0.00224221
0.00321592
0.00217999
0.00319245
0.00210887
0.00316733
0.00202666
0.00314242
0.00193757
0.00311278
0.00183961
0.00308454
0.00173055
0.00305315
0.00161493
0.00301567
0.00149122
0.00297752
0.00136298
0.00293048
0.00122711
0.00288072
0.00108791
0.00282209
0.000941163
0.00275769
0.00079499
0.00267924
0.000645753
0.00259053
0.000500131
0.00247796
0.000366922
0.00231234
0.000257954
0.00203493
0.000165048
0.00167302
0.00132807
8.00008e-05
4.11195e-05
0.00358194
0.000240281
0.000301772
0.00356359
0.000542019
0.00354517
0.000763532
0.00352688
0.000962543
0.00351245
0.00114716
0.00349393
0.00131121
0.00347953
0.00146285
0.00346301
0.00159585
0.00344858
0.00171247
0.00343592
0.00181666
0.00342142
0.00190634
0.00340669
0.00198151
0.00339606
0.00204233
0.00338293
0.00209272
0.00336993
0.0021306
0.00335868
0.00215389
0.00334733
0.00217093
0.00333348
0.00217334
0.0033234
0.00216514
0.00331307
0.00214629
0.00330017
0.00211708
0.00328831
0.00208101
0.00327412
0.00203442
0.00326251
0.00197877
0.0032481
0.00191432
0.00323178
0.00184123
0.00321551
0.00175706
0.00319696
0.00166802
0.00317357
0.00157246
0.00314871
0.00146616
0.00312196
0.00135737
0.00308632
0.00123888
0.00304897
0.00111594
0.00300366
0.000988066
0.00294996
0.000856953
0.0028888
0.000721081
0.00281511
0.000586943
0.00272466
0.000454636
0.00261026
0.00033495
0.00243203
0.000236146
0.00213373
0.00014844
0.00176072
0.00140503
7.14808e-05
3.73279e-05
0.000216855
0.00332775
0.000272595
0.00332832
0.000491479
0.00332629
0.000689994
0.00332836
0.000873765
0.00332868
0.00103921
0.00332849
0.00119232
0.00332642
0.00132675
0.00332859
0.00144707
0.00332826
0.00155472
0.00332827
0.00164816
0.00332798
0.00172918
0.00332566
0.00179772
0.00332752
0.00185385
0.0033268
0.00189758
0.00332621
0.00193306
0.0033232
0.00195615
0.00332424
0.00196665
0.00332297
0.00196889
0.00332116
0.00196465
0.00331731
0.00194805
0.00331676
0.00192283
0.00331353
0.00188707
0.00330988
0.00184468
0.0033049
0.00179563
0.00329715
0.0017359
0.00329151
0.0016692
0.00328221
0.00159577
0.00327038
0.0015158
0.00325354
0.00142679
0.00323772
0.00133351
0.00321524
0.00123243
0.00318739
0.00112674
0.00315466
0.00101674
0.00311366
0.000899166
0.00306753
0.000778412
0.00300956
0.000656459
0.00293706
0.000534399
0.00284672
0.000412712
0.00273195
0.000302999
0.00254174
0.000211082
0.00222565
0.000135378
0.00183643
6.601e-05
0.0014744
-0.000113188
0.000412518
-0.000155742
-0.000262606
0.000268396
-0.000118979
-0.000357121
0.00019043
-9.59149e-05
-0.000419635
0.00014443
-8.19169e-05
-0.00046246
0.00011569
-7.2865e-05
-0.000493005
9.70877e-05
-6.65428e-05
-0.000515684
8.46439e-05
-6.19648e-05
-0.00053354
7.64199e-05
-5.85642e-05
-0.000548879
7.14404e-05
-5.61017e-05
-0.0005624
6.83496e-05
-5.4829e-05
-0.000575513
6.73738e-05
-5.42605e-05
-0.000588748
6.79851e-05
-5.47497e-05
-0.000602433
6.97902e-05
-5.61054e-05
-0.000617035
7.30968e-05
-5.84949e-05
-0.000632812
7.76214e-05
-6.18445e-05
-0.000649823
8.36273e-05
-6.66168e-05
-0.000668585
9.10199e-05
-7.2258e-05
-0.000688624
9.95537e-05
-7.95148e-05
-0.000710389
0.000109865
-8.80994e-05
-0.000733575
0.000121459
-9.82731e-05
-0.000758269
0.000134714
-0.000110021
-0.000784523
0.0001499
-0.000123646
-0.000811911
0.000166837
-0.000139449
-0.000840702
0.000185823
-0.000157033
-0.000870023
0.000206804
-0.000177482
-0.000900219
0.000230327
-0.000200131
-0.000930459