/*--------------------------------*- C++ -*----------------------------------*\
| =========                 |                                                 |
| \\      /  F ield         | OpenFOAM: The Open Source CFD Toolbox           |
|  \\    /   O peration     | Version:  2.3.0                                 |
|   \\  /    A nd           | Web:      www.OpenFOAM.org                      |
|    \\/     M anipulation  |                                                 |
\*---------------------------------------------------------------------------*/
FoamFile
{
    version     2.0;
    format      ascii;
    class       volVectorField;
    location    "5000";
    object      U;
}
// * * * * * * * * * * * * * * * * * * * * * * * * * * * * * * * * * * * * * //

dimensions      [0 1 -1 0 0 0 0];

internalField   nonuniform List<vector> 
38296
(
(14.4272 -1.12953 0)
(14.2986 -1.21558 4.80545e-21)
(14.1624 -1.29003 1.3881e-20)
(14.0244 -1.3673 2.29519e-20)
(13.8846 -1.44761 -2.79675e-20)
(13.7428 -1.53061 3.30331e-20)
(13.5989 -1.61627 0)
(13.4529 -1.70475 0)
(13.3047 -1.79621 0)
(13.1543 -1.89079 -1.68627e-20)
(13.0014 -1.98864 0)
(12.8459 -2.08999 -5.38702e-20)
(12.6877 -2.19502 1.00665e-19)
(12.5263 -2.30401 0)
(12.3617 -2.41719 6.0586e-20)
(12.1935 -2.53496 -9.92208e-20)
(12.0214 -2.65763 3.19772e-20)
(11.8451 -2.78568 0)
(11.6642 -2.91958 7.97795e-20)
(11.4783 -3.05994 -8.08718e-20)
(11.2869 -3.2075 -1.18349e-19)
(11.0895 -3.3631 2.56066e-20)
(10.8856 -3.52766 2.01243e-20)
(10.6745 -3.70248 1.39691e-19)
(10.4555 -3.88889 -2.76508e-20)
(10.2278 -4.08836 -1.01743e-19)
(9.99051 -4.3029 9.50652e-20)
(9.74277 -4.53461 -4.54501e-20)
(9.48384 -4.78618 7.16821e-20)
(9.21273 -5.06074 8.86313e-21)
(8.92867 -5.36185 0)
(8.631 -5.69398 2.63134e-21)
(8.31961 -6.0625 -2.75982e-21)
(7.99481 -6.47385 -4.47999e-20)
(7.65746 -6.93585 1.21076e-22)
(7.30961 -7.45841 7.10363e-20)
(6.95462 -8.05322 -1.21664e-19)
(6.59823 -8.73526 1.58012e-19)
(6.2491 -9.52513 0)
(5.91729 -10.4498 -8.29511e-20)
(5.62361 -11.5546 5.99654e-20)
(5.43654 -12.9031 3.88215e-20)
(5.53202 -14.5392 -8.44308e-19)
(14.5168 -1.27179 3.23407e-21)
(14.4055 -1.35398 7.51678e-23)
(14.289 -1.42843 -3.61781e-21)
(14.1715 -1.50586 -8.68561e-21)
(14.0528 -1.58628 -7.56617e-21)
(13.9328 -1.6694 1.53968e-20)
(13.8117 -1.75526 -3.5383e-21)
(13.6893 -1.844 -6.48049e-22)
(13.5656 -1.93578 0)
(13.4407 -2.03081 3.49588e-22)
(13.3145 -2.12926 -2.0152e-21)
(13.1869 -2.23141 -2.4564e-21)
(13.0578 -2.33749 -1.8598e-20)
(12.9271 -2.44774 -1.33916e-20)
(12.7946 -2.56251 -1.01797e-19)
(12.6603 -2.68208 2.96019e-20)
(12.5241 -2.80682 -3.14421e-20)
(12.3858 -2.93711 0)
(12.2453 -3.0734 0)
(12.1026 -3.21614 -1.57171e-20)
(11.9577 -3.36593 0)
(11.8105 -3.52349 0)
(11.6612 -3.68951 -2.36407e-20)
(11.51 -3.86496 0)
(11.3569 -4.05095 2.6888e-20)
(11.2022 -4.24865 0)
(11.0464 -4.45962 -3.04742e-20)
(10.8902 -4.6855 2.57812e-20)
(10.7343 -4.92829 0)
(10.5797 -5.19015 5.4717e-20)
(10.4282 -5.4737 -3.79193e-20)
(10.2818 -5.7818 0)
(10.1435 -6.11773 2.12402e-20)
(10.0171 -6.48501 -5.85192e-21)
(9.90724 -6.88736 0)
(9.8208 -7.32869 -6.8336e-20)
(9.76654 -7.8129 5.70319e-20)
(9.75612 -8.34319 6.73246e-21)
(9.80495 -8.92174 -1.13139e-20)
(9.93474 -9.54859 1.2589e-19)
(10.1776 -10.2201 -1.33362e-19)
(10.5811 -10.9215 0)
(11.2012 -11.6177 -3.29564e-20)
(14.6024 -1.39019 7.90254e-22)
(14.5048 -1.47271 -9.11459e-21)
(14.403 -1.54799 9.59729e-23)
(14.3002 -1.62574 -9.68699e-23)
(14.1966 -1.70619 3.80691e-21)
(14.0921 -1.78925 -9.51637e-21)
(13.9867 -1.87506 0)
(13.8805 -1.9638 0)
(13.7735 -2.05562 -7.08545e-21)
(13.6656 -2.15076 0)
(13.557 -2.2494 0)
(13.4476 -2.35183 0)
(13.3374 -2.45835 2.78042e-20)
(13.2263 -2.56926 6.94338e-20)
(13.1142 -2.68489 0)
(13.0011 -2.80566 2.326e-20)
(12.887 -2.93192 1.85951e-20)
(12.7717 -3.06413 0)
(12.6553 -3.20276 0)
(12.5378 -3.34837 1.55365e-20)
(12.4192 -3.50151 4.06167e-20)
(12.2998 -3.66288 -5.87728e-20)
(12.1795 -3.8332 7.60903e-20)
(12.059 -4.01326 -3.23365e-20)
(11.9384 -4.20414 1.95354e-20)
(11.8184 -4.40683 7.25311e-22)
(11.6996 -4.62262 -7.58356e-20)
(11.583 -4.85281 3.38144e-20)
(11.4696 -5.09892 -2.11953e-21)
(11.3608 -5.36249 -1.04269e-20)
(11.2588 -5.64526 1.07739e-20)
(11.1658 -5.94891 -6.57253e-22)
(11.085 -6.27522 2.98021e-20)
(11.02 -6.62581 -8.09376e-21)
(10.9753 -7.00195 0)
(10.9569 -7.40429 4.59817e-20)
(10.9716 -7.83271 -2.99393e-20)
(11.0273 -8.28553 2.76558e-20)
(11.1334 -8.75886 -3.1522e-21)
(11.3003 -9.24547 0)
(11.5387 -9.73353 5.51611e-20)
(11.8594 -10.2031 -6.83276e-20)
(12.2682 -10.6257 1.56812e-19)
(14.687 -1.49875 1.15387e-20)
(14.6009 -1.57535 0)
(14.5118 -1.64817 0)
(14.4222 -1.7238 0)
(14.332 -1.80205 7.48519e-22)
(14.2414 -1.88284 0)
(14.1502 -1.96627 -1.26212e-21)
(14.0585 -2.05253 2.55031e-21)
(13.9663 -2.14176 1.08545e-20)
(13.8737 -2.23416 0)
(13.7808 -2.32993 -6.32123e-21)
(13.6875 -2.42928 0)
(13.594 -2.53249 -3.43181e-20)
(13.5003 -2.63994 -4.21934e-21)
(13.4063 -2.75188 0)
(13.312 -2.86873 0)
(13.2175 -2.99081 -1.85148e-20)
(13.1228 -3.11855 -1.48234e-20)
(13.0279 -3.25238 1.94867e-20)
(12.933 -3.39279 -1.97413e-20)
(12.8382 -3.54033 -3.45495e-20)
(12.7437 -3.69552 2.2658e-20)
(12.6498 -3.85894 -2.43403e-20)
(12.5571 -4.03124 0)
(12.4662 -4.21321 1.54451e-20)
(12.3778 -4.4057 0)
(12.2928 -4.60964 0)
(12.2122 -4.82602 0)
(12.1372 -5.05586 -4.75643e-21)
(12.0695 -5.30021 0)
(12.0112 -5.56007 -1.36099e-20)
(11.9643 -5.83649 0)
(11.9318 -6.13008 -1.86069e-20)
(11.9171 -6.44149 -2.96183e-20)
(11.924 -6.77068 -1.02801e-20)
(11.9571 -7.11709 -3.36741e-20)
(12.0215 -7.4791 7.2144e-21)
(12.1226 -7.85398 1.61227e-20)
(12.2662 -8.23699 -9.36993e-22)
(12.4576 -8.62164 1.88288e-21)
(12.701 -8.99853 0)
(12.9984 -9.35592 -1.17106e-20)
(13.3474 -9.67933 1.32537e-19)
(14.7632 -1.5862 -5.42773e-21)
(14.6896 -1.6614 -6.32584e-21)
(14.6121 -1.73211 0)
(14.5337 -1.80525 0)
(14.4548 -1.88074 -3.0798e-21)
(14.3754 -1.95861 1.05765e-21)
(14.2958 -2.03905 2.36674e-21)
(14.2157 -2.12224 -2.69023e-21)
(14.1353 -2.20832 -3.80303e-21)
(14.0547 -2.29752 0)
(13.9738 -2.38998 6.28997e-21)
(13.8928 -2.48588 0)
(13.8118 -2.58545 8.73395e-21)
(13.731 -2.68905 -9.95132e-21)
(13.6501 -2.79706 7.23092e-21)
(13.5693 -2.90976 -8.23931e-21)
(13.4887 -3.02751 -9.23961e-21)
(13.4081 -3.15068 2.50622e-20)
(13.328 -3.2797 5.60593e-21)
(13.2483 -3.415 6.09233e-21)
(13.1692 -3.5572 0)
(13.0908 -3.70676 0)
(13.0135 -3.86409 1.05137e-20)
(12.9378 -4.02971 2.67359e-20)
(12.8644 -4.20416 -1.92963e-20)
(12.7942 -4.38821 0)
(12.7281 -4.58261 0)
(12.6671 -4.78811 0)
(12.6124 -5.00545 -1.34646e-20)
(12.5657 -5.23528 0)
(12.5288 -5.47833 1.35958e-20)
(12.5037 -5.73509 0)
(12.4928 -6.00581 0)
(12.4992 -6.29041 1.76454e-20)
(12.5262 -6.5884 1.0211e-20)
(12.5772 -6.89865 8.13552e-21)
(12.6562 -7.21921 -5.12007e-22)
(12.767 -7.54691 -8.89384e-21)
(12.9132 -7.87743 6.1909e-21)
(13.0979 -8.20477 1.53277e-20)
(13.3229 -8.52155 -4.81135e-20)
(13.5883 -8.81907 9.99743e-20)
(13.8911 -9.08777 -8.23211e-20)
(14.8385 -1.66155 -7.70213e-21)
(14.7735 -1.73503 -5.20945e-22)
(14.705 -1.80289 -7.41454e-21)
(14.6358 -1.87303 0)
(14.5662 -1.94529 2.51759e-21)
(14.4963 -2.01974 5.45802e-21)
(14.4263 -2.0967 -1.25674e-21)
(14.3559 -2.17636 1.52631e-22)
(14.2854 -2.25877 -4.75904e-23)
(14.2147 -2.34433 6.4124e-22)
(14.1438 -2.4331 -2.81244e-22)
(14.0727 -2.52517 2.79206e-21)
(14.0017 -2.62067 -1.64542e-21)
(13.9313 -2.7199 4.69289e-22)
(13.8611 -2.82345 -5.84165e-21)
(13.7912 -2.93148 8.24371e-21)
(13.7216 -3.04429 9.25137e-21)
(13.6525 -3.16227 -1.55779e-21)
(13.584 -3.28574 -2.03533e-20)
(13.5164 -3.41508 7.62372e-21)
(13.45 -3.55097 4.4142e-21)
(13.3847 -3.69401 0)
(13.3206 -3.84455 0)
(13.2582 -4.00281 -1.4591e-20)
(13.1984 -4.16917 -1.14874e-22)
(13.1423 -4.34415 7.12185e-21)
(13.0908 -4.52856 5.91352e-21)
(13.0448 -4.72306 7.30093e-21)
(13.0053 -4.92809 -5.29708e-21)
(12.9741 -5.14395 7.13447e-21)
(12.9529 -5.3713 -1.95136e-21)
(12.9435 -5.61035 -1.63841e-21)
(12.948 -5.86111 -3.29899e-21)
(12.9691 -6.12302 -7.39121e-21)
(13.0094 -6.39554 1.51118e-21)
(13.0722 -6.67724 -3.67137e-21)
(13.1603 -6.96613 1.19796e-20)
(13.2766 -7.25929 -4.70973e-21)
(13.4236 -7.55289 0)
(13.6028 -7.84181 4.86618e-20)
(13.8148 -8.11983 2.95235e-20)
(14.0594 -8.38012 -1.33201e-20)
(14.334 -8.61594 1.2244e-20)
(14.9088 -1.7283 4.60716e-22)
(14.8515 -1.79854 1.73704e-20)
(14.7904 -1.86285 -5.34261e-21)
(14.7288 -1.92974 1.19301e-20)
(14.6668 -1.99868 1.46261e-21)
(14.6047 -2.06953 -5.91797e-21)
(14.5429 -2.14283 -5.42557e-21)
(14.4802 -2.21892 0)
(14.4178 -2.29748 0)
(14.3553 -2.37934 -2.59624e-21)
(14.2926 -2.46442 -2.75855e-21)
(14.2295 -2.55295 -1.2195e-21)
(14.1662 -2.64462 2.14151e-21)
(14.1037 -2.73966 -5.98899e-22)
(14.0419 -2.8389 -3.9249e-21)
(13.9802 -2.94261 -1.82638e-21)
(13.9192 -3.05067 -6.75263e-22)
(13.8588 -3.16385 0)
(13.7989 -3.28232 1.23412e-21)
(13.7402 -3.40601 -7.01088e-21)
(13.6833 -3.53579 -1.84851e-21)
(13.6281 -3.67254 3.87593e-21)
(13.5739 -3.81679 -4.97407e-21)
(13.5213 -3.96857 4.20631e-21)
(13.4709 -4.12791 -1.0515e-21)
(13.4244 -4.2949 1.0984e-21)
(13.383 -4.47048 -5.91633e-21)
(13.3475 -4.65559 0)
(13.3182 -4.85048 -5.79523e-21)
(13.2971 -5.05476 0)
(13.2861 -5.26911 0)
(13.2867 -5.494 3.25996e-23)
(13.3004 -5.72894 3.37396e-21)
(13.33 -5.97331 0)
(13.3775 -6.22636 0)
(13.4463 -6.48655 -3.30338e-21)
(13.5381 -6.75237 -1.30778e-20)
(13.6556 -7.02057 0)
(13.8007 -7.28821 3.10792e-20)
(13.9733 -7.55122 -1.61497e-20)
(14.1732 -7.80303 0)
(14.4016 -8.03858 -3.28773e-20)
(14.6553 -8.25255 1.35897e-19)
(14.9715 -1.78641 5.06622e-22)
(14.9225 -1.85285 0)
(14.8684 -1.91359 1.89172e-20)
(14.8133 -1.97724 -1.53872e-20)
(14.7578 -2.0432 6.70616e-21)
(14.7013 -2.11054 -7.28557e-21)
(14.647 -2.1799 4.56749e-21)
(14.5906 -2.25266 6.50164e-21)
(14.535 -2.32726 -5.80353e-21)
(14.479 -2.40545 2.92168e-21)
(14.4232 -2.48676 2.10436e-21)
(14.3671 -2.5721 -1.06073e-21)
(14.31 -2.66064 4.83161e-21)
(14.2534 -2.75176 0)
(14.1987 -2.847 2.07132e-21)
(14.1432 -2.94707 -2.48164e-23)
(14.0881 -3.05058 1.7853e-21)
(14.0348 -3.15911 7.37599e-22)
(13.981 -3.27345 -2.09654e-21)
(13.9287 -3.3923 0)
(13.8788 -3.51642 -2.57462e-21)
(13.8318 -3.647 0)
(13.7855 -3.78506 -4.4164e-21)
(13.7409 -3.93101 1.24856e-21)
(13.6973 -4.08441 -4.46155e-21)
(13.6574 -4.24463 3.44853e-21)
(13.6234 -4.4122 1.14282e-21)
(13.5967 -4.58893 -1.17195e-21)
(13.5745 -4.7756 0)
(13.5604 -4.97029 2.97977e-22)
(13.5566 -5.17343 -2.93183e-22)
(13.5649 -5.38663 0)
(13.5844 -5.60875 -2.7154e-21)
(13.6199 -5.83897 0)
(13.6716 -6.07642 -3.04487e-21)
(13.7448 -6.31974 2.52176e-21)
(13.8382 -6.56808 2.93896e-20)
(13.9555 -6.81701 -2.45751e-20)
(14.0988 -7.06493 -1.48762e-20)
(14.2648 -7.31111 0)
(14.4536 -7.54197 0)
(14.6714 -7.76021 -2.87765e-20)
(14.9097 -7.95869 -1.10068e-19)
(15.0235 -1.82733 -1.60992e-20)
(14.9811 -1.89803 0)
(14.9355 -1.95704 -1.60812e-20)
(14.8875 -2.01755 9.46001e-21)
(14.8409 -2.08114 -1.40334e-20)
(14.788 -2.14498 8.09945e-21)
(14.7401 -2.20952 1.16674e-22)
(14.6883 -2.27947 -1.02945e-20)
(14.6402 -2.34983 2.49327e-21)
(14.5909 -2.42457 -4.20554e-21)
(14.5407 -2.50126 0)
(14.4915 -2.58314 -1.15853e-21)
(14.4407 -2.66949 -2.04255e-21)
(14.3899 -2.75679 -6.36776e-21)
(14.3448 -2.8475 3.22156e-21)
(14.2972 -2.94496 -1.48564e-22)
(14.2474 -3.04381 2.48284e-22)
(14.2023 -3.14642 1.50344e-21)
(14.1537 -3.2568 -1.74973e-21)
(14.1056 -3.37174 -6.69588e-22)
(14.0605 -3.49127 -9.26233e-22)
(14.0214 -3.61678 -4.66997e-23)
(13.9811 -3.74773 -9.41327e-22)
(13.9445 -3.88843 1.08919e-21)
(13.9057 -4.03668 1.08456e-21)
(13.8701 -4.19205 0)
(13.8399 -4.35297 -6.71205e-22)
(13.821 -4.52238 0)
(13.8027 -4.70263 -1.00449e-21)
(13.7917 -4.89138 -2.90209e-22)
(13.7908 -5.08516 -2.62063e-21)
(13.8047 -5.29028 -2.54116e-23)
(13.8248 -5.50223 -1.69595e-21)
(13.8633 -5.72236 -5.69558e-22)
(13.9133 -5.9476 5.69562e-21)
(13.9885 -6.17858 -5.14538e-21)
(14.0796 -6.4145 -2.50783e-21)
(14.1928 -6.65098 1.32582e-20)
(14.334 -6.88291 -1.8904e-20)
(14.4928 -7.12252 0)
(14.6671 -7.32582 -2.82008e-20)
(14.8817 -7.53428 0)
(15.1052 -7.72202 -3.92898e-20)
(7.57324 -15.2987 2.21249e-18)
(9.34251 -14.9112 -1.23881e-18)
(10.9086 -14.4311 1.33789e-18)
(12.3456 -14.1115 -1.18464e-18)
(13.5896 -13.8305 -5.77739e-20)
(14.632 -13.5451 1.28702e-18)
(15.5077 -13.2687 -1.16918e-18)
(16.2493 -13.0099 1.15019e-18)
(16.8781 -12.7637 -1.16065e-18)
(17.4119 -12.5248 0)
(17.8666 -12.2898 8.09294e-20)
(18.2558 -12.0568 1.07513e-18)
(18.5907 -11.8242 6.85515e-21)
(18.8807 -11.5913 -1.00766e-18)
(19.1336 -11.3582 0)
(19.3559 -11.1249 1.12595e-19)
(19.5528 -10.8922 1.10145e-19)
(19.729 -10.661 1.9442e-18)
(19.8882 -10.4322 -1.88274e-18)
(20.0332 -10.2068 -1.63404e-18)
(20.1665 -9.98539 1.80864e-18)
(20.2899 -9.76873 1.66257e-18)
(20.405 -9.55724 -1.83352e-18)
(20.513 -9.35116 -1.02916e-19)
(20.6147 -9.15055 1.76443e-18)
(20.7111 -8.95537 -1.56516e-18)
(20.8023 -8.76545 -3.8092e-19)
(20.8891 -8.58059 0)
(20.9716 -8.40054 1.50288e-18)
(21.0502 -8.22498 -1.12311e-18)
(21.1251 -8.05363 -1.66573e-18)
(21.1964 -7.88618 1.29372e-18)
(21.2644 -7.72234 0)
(21.3293 -7.56188 -3.74687e-19)
(21.3913 -7.40453 9.19728e-19)
(21.4505 -7.25011 -3.77508e-19)
(21.5072 -7.09845 3.75667e-19)
(21.5615 -6.9494 0)
(21.6135 -6.80287 3.76649e-19)
(21.6634 -6.65877 3.76687e-19)
(21.7115 -6.51707 1.10998e-18)
(21.7583 -6.37812 -1.8477e-18)
(21.8035 -6.24205 -7.43836e-19)
(12.0317 -12.1926 -2.20906e-19)
(12.8349 -12.6117 2.35574e-19)
(13.5765 -12.8626 5.38269e-19)
(14.2756 -12.9695 -5.80355e-19)
(14.929 -12.9606 4.21117e-20)
(15.5275 -12.8647 -4.56674e-20)
(16.0708 -12.7075 4.823e-20)
(16.5623 -12.5081 1.06472e-20)
(17.0061 -12.2808 -8.28859e-19)
(17.406 -12.0365 7.99901e-19)
(17.7666 -11.7835 0)
(18.092 -11.5281 -8.75886e-19)
(18.3861 -11.2743 -1.7014e-20)
(18.6525 -11.0251 1.58875e-18)
(18.8943 -10.7824 -8.25979e-19)
(19.1146 -10.5473 -1.0858e-19)
(19.3159 -10.3201 -1.06251e-19)
(19.5005 -10.1011 0)
(19.67 -9.89001 9.72171e-19)
(19.8263 -9.68651 -3.31428e-21)
(19.971 -9.49014 -1.49821e-18)
(20.1051 -9.30037 6.4672e-19)
(20.2299 -9.11677 -5.46316e-19)
(20.3462 -8.93874 6.31012e-19)
(20.4551 -8.7659 -1.85003e-19)
(20.5572 -8.59773 -1.83139e-19)
(20.653 -8.4339 8.86165e-19)
(20.7433 -8.27404 -1.70036e-19)
(20.8283 -8.11783 -6.97888e-19)
(20.9088 -7.96502 -7.57273e-21)
(20.985 -7.81533 1.05094e-18)
(21.0573 -7.66857 -1.40162e-18)
(21.126 -7.52454 7.02847e-19)
(21.1916 -7.38308 0)
(21.2541 -7.24404 -5.78455e-21)
(21.314 -7.1073 -1.87681e-19)
(21.3713 -6.97275 3.55964e-19)
(21.4262 -6.84026 0)
(21.4791 -6.70977 -3.70177e-19)
(21.5299 -6.58116 1.0971e-18)
(21.5789 -6.45423 -7.37185e-19)
(21.6265 -6.32898 1.1106e-18)
(21.6732 -6.20277 -7.44919e-19)
(12.7641 -10.9661 -1.61422e-19)
(13.3153 -11.2119 -2.53681e-19)
(13.8887 -11.3693 2.2826e-19)
(14.4618 -11.4509 0)
(15.0185 -11.4689 -7.25928e-19)
(15.5471 -11.4342 6.79967e-19)
(16.0412 -11.3575 -8.49731e-19)
(16.4982 -11.2484 9.26173e-20)
(16.9175 -11.1148 6.73983e-19)
(17.3002 -10.9635 -3.99372e-20)
(17.6484 -10.7998 -7.67814e-19)
(17.9647 -10.628 6.54362e-19)
(18.2519 -10.4515 6.71962e-19)
(18.5128 -10.2727 1.13929e-19)
(18.7503 -10.0936 -7.35459e-19)
(18.9669 -9.91554 7.41073e-19)
(19.1651 -9.73944 1.04775e-20)
(19.3471 -9.56591 -7.1447e-19)
(19.5146 -9.39543 -1.78375e-19)
(19.6695 -9.2283 6.16507e-19)
(19.8131 -9.06458 -1.3927e-18)
(19.9469 -8.9044 1.4683e-18)
(20.0718 -8.74771 -7.69201e-19)
(20.1887 -8.59445 -5.94916e-19)
(20.2986 -8.44452 -1.69682e-19)
(20.4019 -8.29779 6.70739e-19)
(20.4993 -8.15414 -5.07712e-19)
(20.5914 -8.0134 3.31801e-19)
(20.6786 -7.87544 5.03875e-19)
(20.7613 -7.74011 -8.42825e-19)
(20.8399 -7.60728 3.35596e-19)
(20.9148 -7.47681 0)
(20.9862 -7.3486 0)
(21.0542 -7.22252 0)
(21.1193 -7.09844 -1.74933e-19)
(21.1817 -6.97627 -1.76376e-19)
(21.2414 -6.85589 -3.55784e-19)
(21.2987 -6.73726 0)
(21.3537 -6.62027 -1.0779e-18)
(21.4065 -6.50483 3.55813e-19)
(21.4573 -6.39083 3.69937e-19)
(21.5062 -6.27825 -7.22698e-19)
(21.553 -6.16574 3.61842e-19)
(13.7407 -9.95556 -1.35186e-19)
(14.1662 -10.1772 2.32467e-20)
(14.6091 -10.3413 0)
(15.0557 -10.4494 -5.82243e-20)
(15.4954 -10.5057 3.08304e-19)
(15.92 -10.5166 2.67074e-20)
(16.3242 -10.4888 -2.07905e-19)
(16.7048 -10.4294 3.19116e-19)
(17.0604 -10.3447 -3.96916e-19)
(17.3907 -10.2404 5.90543e-21)
(17.6961 -10.121 -7.77005e-19)
(17.9781 -9.99084 6.79839e-19)
(18.2381 -9.853 8.95443e-20)
(18.4777 -9.71022 0)
(18.6988 -9.56453 8.43468e-20)
(18.903 -9.41739 0)
(19.0918 -9.27011 0)
(19.2669 -9.12355 8.29958e-20)
(19.4296 -8.9784 8.60762e-20)
(19.581 -8.83511 -6.70659e-19)
(19.7222 -8.69398 5.76588e-19)
(19.8544 -8.55526 7.41465e-19)
(19.978 -8.41901 -5.69963e-19)
(20.094 -8.2853 0)
(20.2029 -8.15408 -6.44908e-19)
(20.3054 -8.02527 6.43924e-19)
(20.402 -7.89882 4.83523e-19)
(20.4933 -7.77464 -8.08134e-19)
(20.5797 -7.65264 1.64342e-19)
(20.6617 -7.53274 -6.51111e-19)
(20.7397 -7.41483 1.30939e-18)
(20.8139 -7.29887 -8.17539e-19)
(20.8846 -7.18475 0)
(20.9521 -7.07236 6.68774e-19)
(21.0167 -6.9616 -6.72662e-19)
(21.0785 -6.85238 6.81935e-19)
(21.1379 -6.74467 -6.86931e-19)
(21.1949 -6.63844 -3.48157e-19)
(21.2497 -6.53361 1.76725e-19)
(21.3023 -6.43006 1.75479e-19)
(21.353 -6.32776 1.83297e-19)
(21.4015 -6.22661 7.20319e-19)
(21.4484 -6.12582 -7.02943e-19)
(14.2263 -9.32005 2.00629e-19)
(14.5874 -9.5113 -1.57897e-20)
(14.9654 -9.65904 -1.91555e-19)
(15.3505 -9.76301 5.76485e-20)
(15.7339 -9.82545 0)
(16.1088 -9.85029 0)
(16.4699 -9.84231 0)
(16.8137 -9.80646 -1.50782e-19)
(17.1382 -9.7477 7.9493e-20)
(17.4425 -9.67046 1.59772e-19)
(17.7264 -9.57862 8.28755e-20)
(17.9905 -9.47566 8.37685e-20)
(18.2356 -9.36445 8.10285e-20)
(18.463 -9.24737 -2.53753e-19)
(18.6739 -9.12623 2.41955e-19)
(18.8695 -9.00256 8.10551e-20)
(19.0512 -8.87752 0)
(19.2204 -8.75211 -4.12156e-19)
(19.3781 -8.62706 3.21887e-19)
(19.5252 -8.50284 4.04281e-19)
(19.6627 -8.37988 -1.58043e-19)
(19.7913 -8.25844 -2.28087e-21)
(19.9117 -8.13866 1.60238e-19)
(20.0247 -8.02065 -3.14885e-19)
(20.1308 -7.90437 1.59983e-19)
(20.2308 -7.78986 -4.72236e-19)
(20.3253 -7.67715 3.13972e-19)
(20.4147 -7.56622 0)
(20.4996 -7.45706 0)
(20.5802 -7.34965 0)
(20.6569 -7.24394 3.38317e-21)
(20.7299 -7.13989 1.62533e-19)
(20.7996 -7.03744 -4.85608e-19)
(20.8661 -6.93645 4.88641e-19)
(20.9297 -6.83682 0)
(20.9907 -6.73852 -1.65624e-19)
(21.0494 -6.64161 -1.67543e-19)
(21.1057 -6.54608 0)
(21.1598 -6.45177 5.20627e-19)
(21.2117 -6.35862 -5.24623e-19)
(21.2617 -6.26661 2.87083e-21)
(21.3096 -6.17544 0)
(21.3566 -6.08661 1.78931e-19)
(14.6345 -8.82178 -7.04357e-20)
(14.9559 -8.99459 -6.00604e-22)
(15.2916 -9.13195 0)
(15.634 -9.2331 0)
(15.9761 -9.29936 6.08964e-20)
(16.3124 -9.33324 6.50892e-20)
(16.638 -9.33843 3.55214e-19)
(16.9501 -9.31839 -2.78005e-19)
(17.2465 -9.27719 7.39958e-20)
(17.5262 -9.21861 -4.67824e-19)
(17.7888 -9.14589 3.05803e-19)
(18.0346 -9.06203 0)
(18.2642 -8.96957 -4.04959e-19)
(18.4783 -8.8708 2.34131e-19)
(18.6778 -8.76727 -7.9215e-20)
(18.8638 -8.66048 -4.84355e-19)
(19.0377 -8.55161 3.16192e-19)
(19.2003 -8.4418 0)
(19.3522 -8.33179 0)
(19.4942 -8.22205 -7.99294e-20)
(19.6271 -8.11301 -3.95661e-19)
(19.7513 -8.00491 -1.60378e-19)
(19.8677 -7.89791 4.65697e-19)
(19.9769 -7.7921 -2.35315e-19)
(20.0798 -7.68749 3.08528e-19)
(20.1771 -7.58432 1.56558e-19)
(20.2691 -7.48261 0)
(20.3564 -7.38248 0)
(20.4392 -7.28393 0)
(20.5178 -7.18691 0)
(20.5927 -7.0914 3.1447e-19)
(20.6639 -6.99743 0)
(20.7316 -6.90485 1.6103e-19)
(20.7963 -6.81343 -1.62522e-19)
(20.8583 -6.72321 0)
(20.918 -6.6342 1.66005e-19)
(20.9754 -6.54663 1.6794e-19)
(21.0302 -6.46039 0)
(21.0828 -6.37525 0)
(21.1333 -6.29116 1.71129e-19)
(21.1818 -6.20797 3.47918e-19)
(21.2284 -6.125 3.50551e-19)
(21.275 -6.0461 -1.71312e-19)
(14.9321 -8.4402 -7.34064e-20)
(15.2273 -8.59965 -8.85258e-22)
(15.5345 -8.72865 0)
(15.8478 -8.82615 -1.16579e-19)
(16.1614 -8.8929 -7.09358e-20)
(16.471 -8.93102 5.86674e-20)
(16.7709 -8.94386 -6.81916e-20)
(17.0599 -8.93313 3.61396e-19)
(17.3357 -8.90311 -4.29431e-19)
(17.5973 -8.85679 7.55626e-20)
(17.8441 -8.79674 3.10568e-19)
(18.0765 -8.72551 -3.02844e-19)
(18.2946 -8.64613 -3.16348e-19)
(18.4984 -8.56043 3.08485e-19)
(18.6889 -8.46967 7.93617e-20)
(18.8675 -8.37508 1.6059e-21)
(19.0355 -8.27804 0)
(19.1926 -8.18043 0)
(19.3392 -8.08243 0)
(19.4763 -7.98412 7.69221e-20)
(19.6043 -7.88612 -7.66576e-20)
(19.724 -7.78838 7.77954e-20)
(19.8363 -7.69131 -3.86516e-19)
(19.9419 -7.595 -8.06686e-20)
(20.042 -7.49953 3.0442e-19)
(20.1366 -7.40546 -3.07146e-19)
(20.2262 -7.31279 6.11786e-19)
(20.3112 -7.22162 -4.60791e-19)
(20.3917 -7.1319 3.06217e-19)
(20.4682 -7.04346 0)
(20.5411 -6.9564 -1.56424e-19)
(20.6101 -6.87092 3.13478e-19)
(20.6754 -6.78648 1.58268e-19)
(20.7383 -6.7029 -1.59335e-19)
(20.7986 -6.62049 0)
(20.8568 -6.5393 0)
(20.9126 -6.45984 1.63402e-19)
(20.9656 -6.3817 0)
(21.0166 -6.30448 0)
(21.0652 -6.22833 -1.71559e-19)
(21.1119 -6.15291 -1.7321e-19)
(21.157 -6.07766 0)
(21.202 -6.00759 0)
(15.1704 -8.1326 7.47073e-20)
(15.4476 -8.28226 4.46785e-20)
(15.7341 -8.40568 0)
(16.0261 -8.49955 0)
(16.3179 -8.5656 0)
(16.6078 -8.60675 0)
(16.8852 -8.62663 6.57459e-20)
(17.1572 -8.62011 0)
(17.4164 -8.59838 7.15398e-20)
(17.6638 -8.5602 0)
(17.8976 -8.50811 -1.51484e-19)
(18.1196 -8.44566 1.47943e-19)
(18.3279 -8.37708 3.09147e-19)
(18.5222 -8.30174 -3.01825e-19)
(18.7053 -8.22014 -3.88106e-19)
(18.8777 -8.1342 4.58751e-19)
(19.0416 -8.0465 -3.11033e-19)
(19.1928 -7.96028 3.04396e-19)
(19.3339 -7.87189 -7.65053e-20)
(19.4665 -7.78218 -1.53398e-19)
(19.5893 -7.69243 7.68794e-20)
(19.7047 -7.60223 0)
(19.8135 -7.51283 2.2968e-19)
(19.916 -7.42396 -6.05905e-19)
(20.0141 -7.3358 6.05085e-19)
(20.1061 -7.24965 -4.54218e-19)
(20.1935 -7.16452 3.01287e-19)
(20.2762 -7.0809 -1.67537e-21)
(20.3544 -6.9984 0)
(20.4286 -6.91683 1.5209e-19)
(20.4996 -6.83686 3.08112e-19)
(20.5658 -6.7586 -7.72401e-19)
(20.6287 -6.68062 4.66709e-19)
(20.6901 -6.60343 -3.15772e-19)
(20.7486 -6.52774 -3.18706e-19)
(20.8055 -6.45314 3.20731e-19)
(20.8593 -6.38097 -4.88648e-19)
(20.9098 -6.30987 1.64376e-19)
(20.9594 -6.23947 0)
(21.0057 -6.17032 -1.68995e-19)
(21.0507 -6.10159 3.39599e-19)
(21.0946 -6.03369 1.70693e-19)
(21.1371 -5.97194 3.35231e-19)
(15.3536 -7.88638 1.21154e-19)
(15.6178 -8.02872 -2.22062e-19)
(15.8867 -8.14998 9.2055e-20)
(16.1631 -8.23774 -5.40567e-20)
(16.4381 -8.30375 -1.18379e-19)
(16.7188 -8.34735 5.44034e-20)
(16.9798 -8.37117 -6.44764e-20)
(17.2479 -8.35584 -6.59753e-20)
(17.4975 -8.3423 1.39055e-19)
(17.735 -8.30615 -2.09475e-19)
(17.9554 -8.26058 1.49246e-19)
(18.1684 -8.20728 -2.18958e-19)
(18.3663 -8.15116 7.42585e-20)
(18.5541 -8.08076 0)
(18.7328 -8.0036 7.83402e-20)
(18.8983 -7.92595 -2.3653e-19)
(19.0586 -7.84842 1.49839e-19)
(19.2054 -7.77263 0)
(19.3446 -7.68756 7.5716e-20)
(19.4726 -7.60398 7.66323e-20)
(19.5887 -7.5206 7.62042e-20)
(19.701 -7.43602 1.54469e-19)
(19.806 -7.35431 -7.53502e-20)
(19.9044 -7.27205 1.53623e-19)
(20.0005 -7.19071 -1.50721e-19)
(20.0879 -7.11221 9.71932e-23)
(20.1743 -7.03271 1.3329e-21)
(20.2543 -6.95561 -2.99792e-19)
(20.3299 -6.87882 0)
(20.4012 -6.80294 -1.52923e-19)
(20.4697 -6.72985 0)
(20.5312 -6.6578 2.08205e-22)
(20.5919 -6.58486 -7.24073e-22)
(20.651 -6.51399 -1.10121e-21)
(20.7062 -6.44434 0)
(20.7638 -6.37481 0)
(20.8157 -6.30942 2.37125e-19)
(20.8624 -6.24434 8.34246e-20)
(20.9099 -6.18 0)
(20.9528 -6.11698 1.7048e-19)
(20.9967 -6.05381 -3.48375e-19)
(21.0389 -5.99252 -8.68111e-22)
(21.0769 -5.93691 -3.29455e-19)
(20.6378 -1.21421 -1.44555e-19)
(20.6417 -1.24277 -7.72433e-20)
(20.6446 -1.27335 -7.6444e-20)
(20.6472 -1.30345 1.54593e-19)
(20.6493 -1.33337 3.07414e-19)
(20.6508 -1.36303 0)
(20.6515 -1.39244 -3.07262e-19)
(20.6513 -1.42156 0)
(20.6498 -1.45036 1.54272e-19)
(20.6468 -1.47883 -1.55208e-19)
(20.6418 -1.50693 -3.14266e-19)
(20.6345 -1.53463 -1.42718e-18)
(20.6243 -1.56191 1.44521e-18)
(20.6105 -1.58871 1.22098e-18)
(20.5923 -1.61502 -1.32503e-18)
(20.5688 -1.64078 1.26371e-18)
(20.539 -1.66596 -1.37772e-18)
(20.5015 -1.69049 -1.49453e-18)
(20.4548 -1.71435 2.88334e-18)
(20.3975 -1.7374 -1.47847e-18)
(20.328 -1.75956 9.47302e-20)
(20.2448 -1.78069 0)
(20.1464 -1.80065 -1.59766e-18)
(20.0315 -1.81928 1.64947e-18)
(19.8985 -1.83639 -5.40678e-20)
(19.7461 -1.85178 1.76221e-18)
(19.5731 -1.86526 -2.60425e-21)
(19.3781 -1.87665 -1.91303e-18)
(19.1599 -1.8856 0)
(18.9172 -1.892 -1.33614e-19)
(18.6487 -1.89554 -2.29718e-18)
(18.3528 -1.896 2.44323e-18)
(18.0273 -1.89303 1.18871e-18)
(17.6698 -1.88639 -1.32328e-18)
(17.2768 -1.87563 1.49004e-18)
(16.8431 -1.86027 -1.63639e-18)
(16.3612 -1.83953 -5.83618e-20)
(15.8196 -1.81245 -1.30655e-19)
(15.2001 -1.777 -6.7618e-19)
(14.4701 -1.73021 7.12714e-19)
(13.5588 -1.67328 -1.66251e-19)
(12.1591 -1.62556 0)
(9.06468 -1.50192 2.58865e-18)
(20.6059 -1.20815 2.97613e-19)
(20.6087 -1.23574 -1.5836e-19)
(20.6106 -1.26402 -1.58432e-19)
(20.612 -1.29176 4.76835e-19)
(20.6131 -1.3193 -1.59259e-19)
(20.6137 -1.34663 1.582e-19)
(20.6137 -1.37377 1.59354e-19)
(20.613 -1.40071 0)
(20.6113 -1.42744 -1.06962e-21)
(20.6086 -1.45395 -1.28307e-18)
(20.6045 -1.48023 1.45655e-18)
(20.5987 -1.50627 1.63822e-19)
(20.5908 -1.53202 1.15566e-18)
(20.5804 -1.55749 -1.34036e-18)
(20.567 -1.58264 8.48224e-20)
(20.5497 -1.60744 0)
(20.5279 -1.63185 -8.82225e-20)
(20.5005 -1.65584 9.07655e-20)
(20.4662 -1.67937 9.30098e-20)
(20.4239 -1.70234 -9.50277e-20)
(20.3719 -1.72468 -9.80735e-20)
(20.3087 -1.7463 -1.61594e-18)
(20.2328 -1.76706 3.33014e-18)
(20.1425 -1.78685 1.06902e-19)
(20.036 -1.80549 -1.77833e-18)
(19.9116 -1.82281 5.7381e-20)
(19.7675 -1.83863 1.91752e-18)
(19.6019 -1.85274 -4.06366e-18)
(19.4128 -1.86491 2.09422e-18)
(19.1982 -1.87491 -1.03159e-18)
(18.9561 -1.88247 1.23348e-18)
(18.684 -1.88727 -7.64696e-20)
(18.3791 -1.88896 8.15771e-20)
(18.038 -1.88718 8.76378e-20)
(17.6563 -1.88144 1.61841e-18)
(17.2281 -1.87104 -8.32168e-19)
(16.7452 -1.85504 -9.17857e-19)
(16.1951 -1.83215 6.41253e-20)
(15.5573 -1.80032 5.83888e-19)
(14.7901 -1.75758 -6.79662e-19)
(13.7536 -1.70763 -2.99087e-19)
(11.892 -1.67203 4.41997e-19)
(8.69465 -1.5247 1.77682e-18)
(20.5768 -1.20266 0)
(20.5789 -1.22853 3.68823e-19)
(20.5801 -1.25439 1.23319e-19)
(20.5808 -1.27987 -3.27144e-19)
(20.5812 -1.30518 -1.63713e-19)
(20.5811 -1.33035 1.62785e-19)
(20.5805 -1.3554 -1.62742e-19)
(20.5793 -1.38033 0)
(20.5775 -1.40515 -8.19872e-19)
(20.5747 -1.42986 8.24109e-19)
(20.5708 -1.45446 -6.62967e-19)
(20.5657 -1.47894 6.69286e-19)
(20.5589 -1.50331 0)
(20.5502 -1.52754 8.54473e-20)
(20.539 -1.55161 -1.74165e-19)
(20.525 -1.57553 -8.83679e-20)
(20.5074 -1.59924 1.53968e-18)
(20.4855 -1.62271 -1.57442e-18)
(20.4583 -1.64589 9.45631e-20)
(20.4247 -1.6687 9.7915e-20)
(20.3833 -1.6911 0)
(20.3327 -1.71297 -1.0288e-19)
(20.2712 -1.7342 0)
(20.1973 -1.75464 -2.20115e-19)
(20.109 -1.77416 1.936e-18)
(20.0044 -1.79257 -2.06719e-18)
(19.8814 -1.80968 0)
(19.7379 -1.82526 1.15105e-18)
(19.5715 -1.83905 -1.0698e-18)
(19.3796 -1.85076 6.96124e-20)
(19.1595 -1.86008 1.18054e-18)
(18.9082 -1.86667 -2.57474e-18)
(18.6222 -1.8701 1.32747e-18)
(18.2973 -1.86983 -1.06295e-21)
(17.9284 -1.86524 -1.90587e-19)
(17.5093 -1.85555 1.027e-19)
(17.0304 -1.83968 -1.01859e-18)
(16.4785 -1.81612 1.50821e-18)
(15.8295 -1.78316 -9.88884e-19)
(15.0216 -1.74158 5.63328e-19)
(13.8106 -1.70477 -9.01651e-20)
(11.6045 -1.67519 -9.35654e-19)
(8.66984 -1.51649 -7.27511e-19)
(20.5513 -1.19816 -8.18907e-20)
(20.5523 -1.22162 -1.27049e-19)
(20.5529 -1.2451 4.21718e-20)
(20.5531 -1.26844 -3.36452e-19)
(20.553 -1.2917 3.35779e-19)
(20.5524 -1.31487 -1.67185e-19)
(20.5514 -1.33799 -5.0179e-19)
(20.5498 -1.36105 5.03451e-19)
(20.5476 -1.38407 0)
(20.5447 -1.40705 0)
(20.5409 -1.42999 0)
(20.5359 -1.45291 -6.8488e-19)
(20.5297 -1.4758 6.92579e-19)
(20.5217 -1.49865 -8.79696e-20)
(20.5119 -1.52147 8.93443e-20)
(20.4996 -1.54425 9.09357e-20)
(20.4844 -1.56694 0)
(20.4657 -1.58955 9.4887e-20)
(20.4427 -1.61202 -9.72904e-20)
(20.4144 -1.63431 8.94994e-19)
(20.3797 -1.65635 -1.63802e-18)
(20.3372 -1.67808 1.4008e-21)
(20.2855 -1.69939 5.78439e-22)
(20.2228 -1.72015 1.01205e-18)
(20.1474 -1.74023 -1.16832e-19)
(20.0572 -1.75944 1.21021e-19)
(19.9499 -1.7776 -1.1235e-18)
(19.8233 -1.79445 2.01395e-18)
(19.6747 -1.80974 -1.08482e-18)
(19.5011 -1.82315 1.06315e-18)
(19.2992 -1.83429 -1.11846e-18)
(19.0657 -1.8427 7.90897e-20)
(18.7965 -1.84794 0)
(18.4868 -1.84943 -8.9173e-20)
(18.131 -1.84643 1.11312e-21)
(17.7217 -1.83809 -1.20576e-21)
(17.2491 -1.82321 1.12257e-19)
(16.6985 -1.80037 1.22181e-19)
(16.0409 -1.76864 1.37632e-19)
(15.183 -1.73199 -1.53822e-19)
(13.7848 -1.71232 -3.29075e-19)
(11.4101 -1.68557 3.28212e-19)
(8.72047 -1.51811 -1.5461e-19)
(20.5288 -1.19381 0)
(20.5288 -1.2148 0)
(20.5288 -1.23622 0)
(20.5286 -1.25762 0)
(20.528 -1.27901 -5.16299e-19)
(20.527 -1.30039 1.72391e-19)
(20.5257 -1.32177 3.43314e-19)
(20.5239 -1.34316 8.64301e-20)
(20.5216 -1.36457 0)
(20.5186 -1.38601 -6.9071e-19)
(20.5149 -1.40747 6.08508e-19)
(20.5102 -1.42897 7.00571e-19)
(20.5044 -1.45052 -7.08519e-19)
(20.4973 -1.47213 0)
(20.4885 -1.49379 7.28051e-19)
(20.4777 -1.51549 -1.57463e-18)
(20.4646 -1.53723 1.60624e-18)
(20.4485 -1.55898 -8.69299e-19)
(20.4288 -1.58072 -7.91246e-19)
(20.4047 -1.60241 7.1099e-19)
(20.3752 -1.624 1.04219e-19)
(20.3392 -1.64545 1.07979e-19)
(20.2951 -1.66665 0)
(20.2414 -1.68751 -1.14343e-19)
(20.1763 -1.7079 1.18229e-19)
(20.0976 -1.72767 0)
(20.0032 -1.74664 1.2774e-19)
(19.8905 -1.76456 0)
(19.7567 -1.78115 1.37329e-19)
(19.5985 -1.79608 0)
(19.4124 -1.80894 1.27877e-18)
(19.1946 -1.81924 -1.26762e-18)
(18.9403 -1.8264 5.84741e-19)
(18.6444 -1.82978 -7.09478e-19)
(18.3005 -1.82863 -6.6071e-19)
(17.9004 -1.82203 1.52159e-18)
(17.4339 -1.80878 -4.40123e-19)
(16.8844 -1.78758 -7.20954e-19)
(16.2156 -1.75821 0)
(15.2983 -1.7286 3.63838e-20)
(13.7319 -1.72385 1.14747e-19)
(11.3016 -1.69513 0)
(8.77626 -1.51961 -4.26117e-19)
(20.5086 -1.18919 4.35954e-20)
(20.5079 -1.20814 -2.23159e-20)
(20.5074 -1.22777 -1.11082e-19)
(20.5067 -1.24745 -8.84644e-20)
(20.5058 -1.26717 4.7786e-22)
(20.5046 -1.28695 4.39778e-19)
(20.503 -1.30679 -8.76594e-20)
(20.5011 -1.32671 8.79917e-20)