/*--------------------------------*- C++ -*----------------------------------*\
| =========                 |                                                 |
| \\      /  F ield         | OpenFOAM: The Open Source CFD Toolbox           |
|  \\    /   O peration     | Version:  2.3.0                                 |
|   \\  /    A nd           | Web:      www.OpenFOAM.org                      |
|    \\/     M anipulation  |                                                 |
\*---------------------------------------------------------------------------*/
FoamFile
{
    version     2.0;
    format      ascii;
    class       volScalarField;
    location    "2000";
    object      nuTilda;
}
// * * * * * * * * * * * * * * * * * * * * * * * * * * * * * * * * * * * * * //

dimensions      [0 2 -1 0 0 0 0];

internalField   nonuniform List<scalar> 
38250
(
0.0733195
0.0717521
0.0701786
0.068598
0.0670118
0.0654208
0.0638259
0.062228
0.0606276
0.0590257
0.0574225
0.0558191
0.0542158
0.0526132
0.0510121
0.0494127
0.0478156
0.0462215
0.0446308
0.0430437
0.0414607
0.0398821
0.0383084
0.0367397
0.0351768
0.0336201
0.0320695
0.0305261
0.0289903
0.0274632
0.0259461
0.0244409
0.0229497
0.0214756
0.0200238
0.0186006
0.017216
0.0158819
0.0146154
0.0134283
0.0123031
0.0110852
0.00894884
0.0743245
0.0729342
0.0715372
0.0701344
0.068727
0.0673154
0.0659001
0.0644817
0.0630604
0.0616367
0.0602107
0.0587829
0.0573533
0.0559224
0.0544905
0.0530579
0.0516247
0.0501917
0.0487594
0.0473278
0.0458972
0.0444686
0.0430425
0.0416192
0.0401998
0.0387855
0.037377
0.0359757
0.0345842
0.0332047
0.0318408
0.0304965
0.0291771
0.0278902
0.0266445
0.0254513
0.0243254
0.0232845
0.0223494
0.0215426
0.0208896
0.0204097
0.0201143
0.0752667
0.0740242
0.0727781
0.0715274
0.0702723
0.0690132
0.0677504
0.0664839
0.0652138
0.0639403
0.0626635
0.0613834
0.0600998
0.0588131
0.0575236
0.0562313
0.0549363
0.0536394
0.0523406
0.0510405
0.0497396
0.0484389
0.047139
0.0458403
0.0445447
0.0432532
0.0419676
0.0406896
0.039422
0.0381685
0.036933
0.0357202
0.0345363
0.0333893
0.0322884
0.0312434
0.0302673
0.0293751
0.0285803
0.0278992
0.0273463
0.0269316
0.026662
0.0761376
0.0750248
0.0739095
0.0727896
0.0716654
0.0705366
0.0694034
0.0682658
0.0671235
0.0659766
0.0648254
0.0636694
0.0625084
0.0613425
0.060172
0.0589966
0.0578167
0.0566328
0.055445
0.0542537
0.0530597
0.051864
0.0506679
0.0494714
0.0482765
0.047085
0.0458984
0.044719
0.0435492
0.0423934
0.0412558
0.0401411
0.0390561
0.0380079
0.0370045
0.0360559
0.0351733
0.0343687
0.0336534
0.0330394
0.0325372
0.032155
0.0318972
0.0769378
0.0759399
0.0749386
0.073932
0.0729202
0.0719029
0.0708801
0.0698519
0.068818
0.0677783
0.0667327
0.0656809
0.0646227
0.0635581
0.062487
0.0614093
0.0603252
0.0592351
0.0581393
0.0570382
0.0559321
0.0548226
0.0537107
0.0525974
0.0514848
0.0503742
0.0492672
0.0481662
0.047074
0.0459949
0.0449326
0.0438926
0.0428808
0.0419041
0.0409702
0.0400885
0.0392683
0.0385206
0.0378552
0.0372817
0.0368094
0.0364457
0.036195
0.0776716
0.076775
0.0758728
0.0749647
0.0740498
0.073128
0.0721994
0.0712643
0.0703224
0.0693734
0.0684169
0.0674529
0.0664809
0.0655013
0.0645137
0.0635178
0.0625137
0.0615019
0.0604826
0.0594562
0.058423
0.0573841
0.0563409
0.0552956
0.0542496
0.0532046
0.0521624
0.0511249
0.0500951
0.0490762
0.0480729
0.0470907
0.046135
0.0452121
0.0443301
0.0434974
0.0427221
0.0420138
0.0413822
0.0408358
0.0403834
0.0400317
0.0397848
0.0783455
0.0775359
0.0767198
0.0758968
0.0750663
0.0742264
0.073378
0.0725221
0.0716587
0.0707868
0.069906
0.0690161
0.0681172
0.0672092
0.0662915
0.0653648
0.0644284
0.0634814
0.0625259
0.0615623
0.0605905
0.05961
0.0586231
0.0576327
0.0566407
0.0556491
0.05466
0.0536757
0.0526976
0.0517271
0.0507697
0.0498329
0.0489222
0.0480418
0.0471997
0.0464042
0.0456627
0.0449842
0.0443772
0.0438499
0.0434112
0.0430671
0.0428232
0.078963
0.0782293
0.0774865
0.0767373
0.0759813
0.0752119
0.0744315
0.0736425
0.0728461
0.0720409
0.0712246
0.070397
0.0695605
0.0687131
0.0678536
0.0669854
0.0661085
0.0652145
0.0643118
0.0634018
0.0624831
0.0615522
0.0606112
0.0596656
0.0587174
0.0577689
0.0568227
0.0558824
0.0549493
0.0540203
0.0530979
0.0521964
0.0513228
0.0504768
0.0496668
0.0489003
0.0481861
0.0475303
0.0469442
0.0464292
0.0460008
0.0456613
0.0454201
0.0795406
0.0788656
0.0781811
0.0774909
0.0768036
0.0760973
0.0753746
0.0746395
0.0738979
0.0731493
0.07239
0.0716129
0.0708284
0.0700335
0.0692247
0.0683975
0.0675801
0.0667317
0.0658721
0.0650044
0.0641321
0.063248
0.0623435
0.0614347
0.0605215
0.0596049
0.0586901
0.0577802
0.0568854
0.0560012
0.0551064
0.0542276
0.0533834
0.0525681
0.0517853
0.0510446
0.0503549
0.0497169
0.0491523
0.0486426
0.0482284
0.0478905
0.0476554
0.00835692
0.00980995
0.0110163
0.0120799
0.0131124
0.0141639
0.0152493
0.0163728
0.0175299
0.0187177
0.019932
0.0211677
0.0224246
0.0236978
0.0249867
0.0262893
0.0276037
0.0289303
0.0302667
0.0316129
0.0329681
0.034332
0.0357044
0.0370841
0.0384715
0.0398659
0.0412669
0.0426746
0.0440882
0.0455075
0.0469322
0.0483617
0.049796
0.0512347
0.0526769
0.0541226
0.0555713
0.0570225
0.0584758
0.059931
0.061388
0.0628469
0.064307
0.0200021
0.0200617
0.0202874
0.0206682
0.0211903
0.0218356
0.0225868
0.0234262
0.0243383
0.0253093
0.0263276
0.0273854
0.0284743
0.0295897
0.0307265
0.0318807
0.0330504
0.0342327
0.035426
0.036629
0.0378402
0.0390589
0.0402847
0.0415162
0.0427534
0.0439955
0.0452425
0.0464936
0.0477489
0.0490079
0.0502705
0.0515362
0.052805
0.0540766
0.0553508
0.0566273
0.0579061
0.0591866
0.0604688
0.0617529
0.0630389
0.0643283
0.0656261
0.0265323
0.0265409
0.0266865
0.0269651
0.0273672
0.0278824
0.0284965
0.0291962
0.0299692
0.0308041
0.03169
0.0326182
0.0335823
0.0345749
0.035592
0.0366281
0.0376806
0.0387471
0.0398242
0.0409109
0.0420047
0.0431056
0.0442115
0.0453224
0.0464368
0.0475545
0.0486752
0.0497984
0.050924
0.0520513
0.0531801
0.0543107
0.0554427
0.056576
0.0577105
0.0588459
0.0599824
0.0611196
0.0622577
0.0633966
0.0645364
0.0656773
0.0668192
0.0317622
0.0317478
0.0318548
0.0320791
0.0324146
0.032852
0.0333814
0.0339914
0.034672
0.0354129
0.0362045
0.037039
0.0379089
0.0388088
0.0397328
0.040677
0.0416377
0.0426109
0.0435952
0.0445876
0.0455869
0.0465913
0.0475999
0.0486114
0.049625
0.0506408
0.0516576
0.0526753
0.0536934
0.0547115
0.0557298
0.0567479
0.0577659
0.0587837
0.0598009
0.0608178
0.0618343
0.0628502
0.0638658
0.0648809
0.0658957
0.0669097
0.0679204
0.0360556
0.0360274
0.0361106
0.0363016
0.0365943
0.0369815
0.0374549
0.0380048
0.0386211
0.0392951
0.0400186
0.0407833
0.0415834
0.0424127
0.0432655
0.0441379
0.0450255
0.0459253
0.0468349
0.047752
0.0486741
0.0496003
0.0505293
0.0514596
0.0523913
0.0533231
0.0542545
0.0551849
0.0561141
0.0570418
0.0579677
0.0588922
0.0598151
0.0607361
0.061655
0.062572
0.0634869
0.0643998
0.0653108
0.0662205
0.0671287
0.0680353
0.068941
0.0396429
0.0396058
0.0396727
0.0398404
0.0401041
0.0404569
0.0408909
0.0413969
0.041966
0.0425907
0.0432626
0.043975
0.0447216
0.0454963
0.0462932
0.0471085
0.0479378
0.0487787
0.0496282
0.0504838
0.0513434
0.0522054
0.053069
0.0539334
0.0547973
0.05566
0.0565207
0.057379
0.0582341
0.0590861
0.0599355
0.0607819
0.061625
0.0624647
0.0633007
0.0641331
0.0649617
0.0657866
0.0666086
0.067428
0.0682449
0.0690587
0.069871
0.0426798
0.0426352
0.0426901
0.0428413
0.0430836
0.043412
0.0438166
0.0442887
0.044822
0.0454086
0.0460412
0.0467127
0.0474178
0.0481496
0.0489019
0.0496703
0.050453
0.0512464
0.0520468
0.0528516
0.0536592
0.0544685
0.0552786
0.0560882
0.0568964
0.0577019
0.0585038
0.0593012
0.060094
0.0608832
0.0616688
0.0624499
0.0632257
0.0639967
0.0647627
0.0655235
0.0662781
0.0670275
0.0677735
0.0685161
0.0692542
0.0699868
0.070715
0.0452775
0.0452248
0.0452722
0.0454095
0.0456351
0.0459476
0.0463296
0.0467715
0.0472776
0.0478347
0.0484358
0.0490748
0.0497484
0.0504456
0.0511596
0.0518892
0.0526357
0.0533894
0.0541494
0.0549108
0.055675
0.0564408
0.0572071
0.0579716
0.0587337
0.0594908
0.060243
0.0609887
0.0617291
0.0624659
0.063199
0.0639246
0.0646429
0.0653568
0.0660625
0.0667629
0.0674529
0.0681371
0.068819
0.0694966
0.0701676
0.0708288
0.0714829
0.0475192
0.047452
0.0475023
0.0476236
0.0478358
0.0481456
0.0485055
0.0489126
0.0494028
0.0499315
0.0505081
0.0511215
0.0517726
0.052435
0.0531157
0.053813
0.0545377
0.0552501
0.0559796
0.0566994
0.0574315
0.0581604
0.0588908
0.0596154
0.0603407
0.0610536
0.0617654
0.0624652
0.063164
0.0638595
0.0645494
0.0652242
0.0658943
0.0665651
0.0672145
0.067867
0.0684956
0.0691273
0.0697594
0.0703832
0.0709978
0.0715955
0.0721821
0.0163148
0.0153667
0.0144596
0.0135932
0.0127663
0.0119782
0.0112278
0.0105146
0.00983786
0.00919735
0.00859325
0.00802654
0.00749943
0.00701594
0.0065833
0.00620718
0.00587706
0.00558141
0.00531248
0.00506517
0.00483586
0.00462166
0.00441997
0.00422842
0.00404481
0.00386701
0.00369305
0.00352099
0.00334909
0.0031757
0.00299922
0.0028182
0.00263132
0.00243727
0.0022349
0.00202317
0.00180124
0.00156843
0.00132469
0.00107079
0.000809361
0.000545553
0.000290556
0.0162363
0.0153561
0.0145138
0.0137066
0.0129332
0.0121927
0.0114844
0.0108077
0.010162
0.009547
0.00896274
0.00840982
0.00788953
0.00740456
0.00695977
0.00656189
0.00621072
0.00589685
0.00561246
0.00535179
0.00511069
0.00488593
0.00467485
0.00447512
0.00428455
0.0041011
0.00392278
0.00374762
0.00357371
0.00339924
0.00322233
0.0030413
0.00285442
0.00266008
0.00245678
0.00224313
0.00201793
0.00178028
0.00152986
0.00126702
0.000992182
0.000701977
0.000417715
0.016163
0.0153526
0.0145727
0.0138222
0.0130999
0.0124051
0.0117372
0.0110955
0.0104797
0.0098895
0.00932489
0.00878618
0.00827422
0.00779075
0.00733892
0.006924
0.00655186
0.00621864
0.00591668
0.00564018
0.00538487
0.00514737
0.00492481
0.00471479
0.00451516
0.00432386
0.00413891
0.00395838
0.00378026
0.00360262
0.00342341
0.00324069
0.00305244
0.00285672
0.0026516
0.00243528
0.00220611
0.0019628
0.00170453
0.00143088
0.00113944
0.000820541
0.000523276
0.0161008
0.0153514
0.0146284
0.0139296
0.0132543
0.0126014
0.0119707
0.0113615
0.0107735
0.0102066
0.00966086
0.00913631
0.00863365
0.00815407
0.00769967
0.00727428
0.00688393
0.00653193
0.00621229
0.00591918
0.00564846
0.00539681
0.00516139
0.00493974
0.00472964
0.00452905
0.00433596
0.00414847
0.00396453
0.00378214
0.00359917
0.00341345
0.0032227
0.0030247
0.00281713
0.00259776
0.00236452
0.00211562
0.00184974
0.0015653
0.00125694
0.000910675
0.000612035
0.0160435
0.0153509
0.0146795
0.0140278
0.013395
0.0127804
0.0121836
0.0116042
0.0110419
0.0104967
0.00996864
0.00945783
0.00896483
0.00849049
0.00803636
0.00760526
0.00720191
0.00683257
0.00649593
0.00618644
0.00590001
0.00563356
0.00538443
0.00515022
0.00492873
0.00471787
0.00451565
0.00432014
0.0041293
0.00394109
0.00375331
0.00356361
0.00336958
0.00316867
0.00295825
0.0027357
0.00249853
0.00224447
0.0019716
0.00167706
0.00135264
0.000981851
0.000689256
0.0159904
0.0153504
0.0147262
0.0141173
0.0135231
0.0129433
0.0123774
0.0118251
0.0112864
0.0107613
0.0102496
0.00975193
0.00926848
0.00880008
0.00834789
0.00791407
0.00750221
0.00711826
0.00676595
0.00644098
0.00613926
0.00585798
0.00559482
0.00534757
0.00511411
0.00489236
0.00468039
0.00447616
0.00427774
0.00408297
0.00388965
0.00369532
0.00349743
0.00329318
0.00307967
0.00285393
0.00261304
0.00235426
0.00207506
0.00177123
0.00143186
0.00103957
0.000758309
0.0159432
0.0153504
0.0147691
0.0141991
0.0136401
0.0130918
0.012554
0.0120266
0.0115095
0.0110026
0.0105063
0.0100207
0.00954642
0.00908416
0.00863481
0.00820007
0.00778279
0.00738777
0.00702118
0.00668186
0.00636572
0.00607014
0.00579313
0.00553275
0.00528706
0.00505413
0.00483204
0.00461877
0.00441236
0.00421063
0.00401134
0.00381199
0.0036099
0.00340206
0.00318534
0.00295647
0.00271213
0.00244931
0.00216451
0.00185227
0.00149935
0.00108863
0.000821116
0.0158999
0.0153512
0.0148093
0.0142752
0.0137486
0.0132288
0.0127167
0.0122127
0.011716
0.0112262
0.0107439
0.010269
0.00980257
0.00934616
0.00890035
0.00846609
0.00804543
0.00764231
0.00726255
0.00690937
0.00657942
0.00627014
0.00597961
0.00570617
0.0054482
0.00520379
0.00497111
0.00474838
0.00453369
0.00432468
0.00411907
0.00391433
0.0037077
0.00349606
0.00327605
0.00304395
0.00279603
0.00252878
0.00223914
0.00191993
0.00155378
0.00112701
0.000879575
0.0158729
0.0153565
0.0148501
0.01435
0.013857
0.0133628
0.0128731
0.0123935
0.0119214
0.0114493
0.0109836
0.010519
0.0100556
0.00960238
0.00916181
0.00873271
0.00831413
0.00790859
0.00752229
0.00715582
0.00681009
0.00648548
0.00618109
0.00589442
0.00562433
0.00536961
0.00512612
0.00489189
0.00466744
0.00445065
0.00423826
0.00402745
0.00381523
0.00359875
0.00337503
0.00314156
0.00289422
0.00262642
0.00232584
0.00199302
0.00162264
0.00117685
0.000931692
0.000278093
0.000419127
0.000611546
0.000815559
0.00103444
0.0012708
0.00152725
0.00180655
0.00211148
0.00244454
0.00280655
0.00319598
0.00361076
0.00404996
0.0045129
0.00499956
0.00550978
0.00604353
0.00660074
0.00718141
0.00778564
0.00841336
0.00906428
0.0097384
0.0104354
0.0111547
0.0118959
0.0126581
0.0134405
0.0142419
0.0150607
0.0158954
0.0167439
0.017604
0.0184733
0.019349
0.0202285
0.0211087
0.0219869
0.0228601
0.0237263
0.0245842
0.0254369
0.000397655
0.000573049
0.000797425
0.00104195
0.00130641
0.0015923
0.00190125
0.00223454
0.00259295
0.00297657
0.00338471
0.00381664
0.00427172
0.0047498
0.00524997
0.0057714
0.00631321
0.00687488
0.00745609
0.00805646
0.00867571
0.00931364
0.00996994
0.0106441
0.0113357
0.0120442
0.012769
0.0135091
0.0142638
0.0150318
0.0158119
0.0166026
0.0174021
0.018209
0.0190209
0.0198359
0.0206518
0.0214664
0.0222775
0.0230833
0.0238825
0.0246749
0.0254608
0.000518582
0.000726769
0.000988119
0.00127719
0.00159103
0.0019295
0.00229265
0.00268003
0.00309062
0.0035231
0.00397641
0.00444984
0.0049431
0.0054558
0.00598747
0.00653751
0.00710512
0.00768968
0.00829035
0.00890648
0.00953756
0.010183
0.0108422
0.0115146
0.0121997
0.0128966
0.0136046
0.014323
0.0150508
0.0157869
0.0165302
0.0172792
0.0180328
0.0187893
0.0195472
0.0203049
0.0210608
0.0218133
0.0225609
0.0233026
0.0240379
0.0247671
0.0254908
0.000634672
0.000876311
0.00117684
0.00151136
0.00187436
0.00226383
0.00267811
0.00311529
0.0035733
0.00405043
0.00454549
0.00505757
0.00558616
0.0061308
0.00669096
0.00726611
0.00785549
0.0084585
0.0090743
0.00970229
0.0103414
0.0109912
0.0116509
0.0123197
0.0129967
0.0136813
0.0143727
0.0150699
0.015772
0.0164781
0.0171871
0.0178977
0.0186091
0.0193197
0.0200286
0.0207344
0.0214361
0.0221326
0.022823
0.0235068
0.0241841
0.0248551
0.0255198
0.000744568
0.00102052
0.00136076
0.00173982
0.00214982
0.00258686
0.00304782
0.00352985
0.00403046
0.0045478
0.00508047
0.00562749
0.00618817
0.00676175
0.00734768
0.00794529
0.00855391
0.00917283
0.00980123
0.0104384
0.0110834
0.0117354
0.0123937
0.0130574
0.0137256
0.0143976
0.0150723
0.0157491
0.016427
0.0171051
0.0177823
0.0184578
0.0191307
0.0197999
0.0204646
0.0211239
0.0217772
0.0224237
0.0230631
0.0236952
0.0243202
0.0249384
0.0255498
0.000848428
0.00115874
0.00153803
0.0019596
0.00241342
0.00289395
0.00339703
0.00391935
0.00445807
0.00501139
0.00557777
0.00615613
0.00674552
0.00734505
0.00795404
0.00857174
0.00919739
0.00983019
0.0104693
0.0111139
0.0117632
0.0124162
0.0130721
0.0137301
0.014389
0.0150484
0.0157072
0.0163645
0.0170197
0.0176717
0.0183198
0.0189633
0.0196014
0.0202334
0.0208586
0.0214765
0.0220866
0.0226887
0.0232827
0.0238687
0.0244468
0.0250175
0.0255811
0.000946066
0.00129064
0.00170751
0.00216884
0.00266279
0.00318278
0.00372377
0.00428216
0.00485509
0.00544067
0.00603719
0.00664357
0.00725857
0.0078812
0.00851069
0.00914623
0.00978687
0.0104317
0.0110799
0.0117306
0.0123832
0.0130364
0.0136893
0.0143409
0.0149906
0.0156378
0.0162815
0.0169208
0.0175548
0.0181827
0.0188042
0.0194188
0.0200258
0.0206245
0.0212144
0.0217954
0.0223673
0.02293
0.0234837
0.0240286
0.0245651
0.0250938
0.0256155
0.00104123
0.00141687
0.00186769
0.00236556
0.00289677
0.00345258
0.00402728
0.00461768
0.0052215
0.0058367
0.00646123
0.00709332
0.00773114
0.008374
0.00902147
0.00967277
0.0103265
0.0109814
0.0116369
0.012293
0.0129488
0.0136016
0.0142501
0.0148944
0.015535
0.0161713
0.0168014
0.0174239
0.0180373
0.0186425
0.0192398
0.0198293
0.0204085
0.0209772
0.0215359
0.022084
0.0226218
0.0231497
0.0236677
0.0241762
0.024676
0.025168
0.025653
0.00111342
0.0015264
0.0020192
0.00255727
0.00311721
0.00369904
0.00430111
0.00492628
0.00556654
0.00621645
0.0068699
0.00752464
0.00817705
0.00883433
0.00949679
0.0101629
0.010827
0.0114867
0.0121475
0.0128108
0.0134716
0.0141201
0.0147586
0.0153941
0.0160272
0.0166573
0.0172756
0.0178805
0.0184698
0.0190533
0.0196307
0.0202011
0.020754
0.0212954
0.0218266
0.0223452
0.0228522
0.0233496
0.0238363
0.024312
0.0247794
0.025239
0.0256904
0.000784132
0.00261734
0.00442655
0.0062015
0.0079512
0.00968212
0.0113981
0.0131019
0.0147954
0.0164804
0.0181595
0.0198339
0.0215052
0.0231749
0.0248442
0.026514
0.0281856
0.0298599
0.0315366
0.033217
0.0349011
0.0365888
0.0382805
0.0399762
0.0416756
0.0433785
0.0450848
0.0467939
0.0485054
0.050219
0.051934
0.0536494
0.0553649
0.0570799
0.0587935
0.0605049
0.062213
0.0639172
0.0656166
0.0673098
0.0689955
0.0706727
0.0723437
0.000256642
0.00105044
0.0024021
0.00387269
0.0054276
0.00703578
0.00867805
0.010344
0.0120257
0.0137185
0.0154197
0.0171273
0.0188402
0.020558
0.0222803
0.0240066
0.0257376
0.0274728
0.0292121
0.0309558
0.0327039
0.0344558
0.036212
0.0379721
0.0397354
0.0415021
0.0432714
0.045043
0.0468163
0.048591
0.0503662
0.052141
0.0539152
0.0556878
0.0574579
0.0592247
0.0609872
0.0627447
0.064496
0.0662399
0.0679753
0.0697007
0.0714212
0.000225323
0.000853541
0.00190318
0.0031056
0.00442355
0.00582834
0.00730031
0.00882563
0.0103944
0.0119984
0.013632
0.0152904
0.0169696
0.0186675
0.0203809
0.0221083
0.0238481
0.0255989
0.0273593
0.0291289
0.0309068
0.0326917
0.0344834
0.0362809
0.0380839
0.0398913
0.0417023
0.0435166
0.045333
0.0471514
0.0489706
0.0507897
0.0526078
0.0544241
0.0562377
0.0580476
0.0598528
0.0616526
0.0634455
0.0652306
0.0670063
0.0687723
0.0705325
0.000336279
0.00079196
0.00167824
0.00271413
0.00386708
0.00511553
0.00644333
0.0078389
0.0092927
0.0107971
0.0123456
0.0139325
0.0155535
0.0172043
0.0188818
0.0205826
0.0223047
0.0240453
0.0258026
0.0275753
0.0293609
0.0311584
0.0329665
0.0347843
0.0366103
0.0384433
0.0402824
0.0421263
0.0439742
0.0458253
0.0476781
0.0495317
0.0513851
0.0532373
0.0550872
0.0569336
0.0587755
0.0606118
0.0624413
0.0642629
0.0660756
0.0678786
0.0696762
0.000340775
0.000712815
0.00149794
0.00242487
0.00346528
0.00460161
0.00582113
0.00711382
0.00847153
0.00988743
0.0113557
0.0128713
0.0144293
0.0160258
0.017657
0.0193199
0.0210111
0.0227278
0.024468
0.0262292
0.0280091
0.0298058
0.0316177
0.033443
0.0352802
0.0371279
0.0389842
0.0408482
0.0427183
0.0445934
0.0464721
0.0483529
0.050235
0.0521168
0.0539971
0.0558746
0.0577482
0.0596166
0.0614788
0.0633332
0.0651794
0.0670167
0.0688496
0.000337744
0.000643801
0.00135506
0.00220229
0.00315868
0.00420921
0.00534316
0.00655217
0.00782896
0.00916806
0.0105644
0.012013
0.0135098
0.0150512
0.0166335
0.0182535
0.0199079
0.0215937
0.0233086
0.0250498
0.026815
0.0286021
0.0304086
0.0322327
0.0340728
0.0359264
0.0377921
0.0396685
0.0415535
0.0434457
0.0453437
0.0472457
0.0491504
0.0510563
0.052962
0.054866
0.0567669
0.0586637
0.0605546
0.0624387
0.064315
0.0661828
0.0680455
0.000332763
0.000590362
0.0012448
0.00202873
0.00291832
0.00389949
0.00496301
0.0061016
0.00730933
0.00858137
0.00991335
0.0113008
0.0127405
0.0142288
0.0157624
0.0173384
0.0189536
0.0206052
0.0222906
0.024007
0.0257521
0.0275235
0.0293185
0.0311351
0.0329713
0.0348247
0.0366936
0.038576
0.0404698
0.0423735
0.0442852
0.0462032
0.0481256
0.050051
0.0519778
0.0539042
0.0558287
0.0577499
0.0596664
0.0615769
0.0634803
0.0653752
0.067264
0.000328479
0.000548181
0.00115624
0.00188795
0.00272233
0.00364593
0.00465019
0.00572892
0.00687713
0.00809053
0.00936511
0.0106974
0.0120846
0.013523
0.0150101
0.016543
0.0181188
0.0197349
0.0213889
0.0230778
0.0247994
0.0265509
0.02833
0.0301345
0.031962
0.0338105
0.0356777
0.0375613
0.0394592
0.0413696
0.0432907
0.04522
0.047156
0.049097
0.051041
0.052986
0.0549306
0.0568731
0.0588121
0.060746
0.0626732
0.0645926
0.0665041
0.000324732
0.000513548
0.00108264
0.00177038
0.00255822
0.00343288
0.00438658
0.00541383
0.00651021
0.00767171
0.00889514
0.0101777
0.0115166
0.0129089
0.0143519
0.0158436
0.0173809
0.0189615
0.0205832
0.0222432
0.0239392
0.0256686
0.0274292
0.0292183
0.0310339
0.0328737
0.0347354
0.0366163
0.0385145
0.0404278
0.042354
0.0442911
0.0462373
0.0481902
0.0501477
0.0521084
0.0540699
0.0560308
0.0579894
0.0599438
0.0618926
0.0638343
0.0657697
0.000321507
0.000484859
0.00102056
0.00167069
0.00241867
0.00325118
0.00416106
0.00514319
0.00619355
0.0073091
0.00848694
0.00972442
0.0110191
0.0123685
0.0137704
0.0152226
0.0167228
0.0182689
0.0198583
0.021489
0.0231584
0.0248643
0.0266045
0.0283763
0.0301774
0.0320058
0.0338586
0.0357338
0.0376292
0.0395422
0.0414706
0.0434124
0.0453652
0.0473269
0.0492954
0.0512685
0.0532443
0.0552209
0.0571964
0.059169
0.0611369
0.0630987
0.065055
0.000318671
0.000460607
0.000967473
0.00158493
0.00229834
0.00309399
0.0039652
0.00490734
0.00591709
0.00699138
0.00812789
0.00932429
0.0105785
0.0118882
0.0132515
0.0146666
0.0161315
0.0176439
0.0192021
0.0208035
0.022446
0.0241278
0.0258464
0.0275992
0.0293841
0.0311989
0.0330409
0.0349081
0.0367979
0.0387079
0.040636
0.0425797
0.0445366
0.0465044
0.0484809
0.050464
0.0524516
0.0544415
0.0564315
0.0584198
0.0604044
0.0623832
0.0643561
0.000316023
0.000439798
0.000921467
0.00151037
0.00219303
0.00295599
0.00379289
0.00469955
0.00567275
0.00670994
0.00780898
0.00896783
0.0101847
0.0114578
0.0127852
0.0141654
0.0155966
0.0170769
0.0186044
0.0201771
0.0217931
0.0234504
0.0251465
0.0268795
0.028647
0.0304468
0.0322765
0.0341336
0.0360159
0.0379208
0.0398463
0.0417895
0.0437479
0.0457197
0.047702
0.0496928
0.0516899
0.0536907
0.0556929
0.0576947
0.0596938
0.0616877
0.0636761
0.000313669
0.000421836
0.00088129
0.00144498
0.00209993
0.00283378
0.00364009
0.00451475
0.00545493
0.00645851
0.00752329
0.00864774
0.00983031
0.0110692
0.0123631
0.0137105
0.0151098
0.0165592
0.0180573
0.019602
0.0211919
0.0228245
0.0244984
0.026211
0.0279602
0.029744
0.03156
0.0334057
0.0352787
0.037177
0.0390977
0.0410384
0.0429968
0.0449703
0.0469564
0.0489528
0.0509572
0.0529667
0.0549795
0.0569929
0.0590043
0.0610112
0.0630123
0.000311541
0.000406174
0.000845871
0.00138708
0.00201702
0.00272464
0.00350325
0.00434901
0.00525927
0.00623204
0.00726557
0.00835826
0.00950893
0.0107161
0.0119787
0.0132952
0.0146642
0.0160843
0.017554
0.0190719
0.020636
0.0222445
0.0238959
0.025588
0.0273185
0.0290855
0.0308868
0.03272
0.0345827
0.0364726
0.0383871
0.0403239
0.0422802
0.0442537
0.0462419
0.0482422
0.0502518
0.0522686
0.05429
0.0563129
0.0583352
0.0603539
0.062367
0.000309632
0.000392847
0.000814388
0.00133525
0.00194244
0.0026263
0.00337973
0.00419912
0.00508197
0.00602646
0.00703116
0.00809472
0.00921593
0.0103936
0.0116267
0.0129142
0.0142544
0.0156466
0.0170893
0.018581
0.02012
0.021705
0.0233341
0.0250056
0.0267173
0.028467
0.0302531
0.0320728
0.033924
0.0358046
0.0377118
0.0396431
0.041596
0.0435681
0.0455567
0.0475591
0.0495726
0.0515949
0.0536229
0.0556543
0.0576861
0.0597153
0.06174
0.000308267
0.000384022
0.000786105
0.00128838
0.0018749
0.00253708
0.00326759
0.00406283
0.00492049
0.00583905
0.00681721
0.00785364
0.0089473
0.0100973
0.0113029
0.0125628
0.0138761
0.0152417
0.0166584
0.0181249
0.0196399
0.0212018
0.022809
0.0244599
0.0261525
0.027885
0.0296551
0.0314609
0.0333001
0.0351704
0.037069
0.0389938
0.040942
0.0429112
0.0448988
0.0469019
0.048918
0.0509441
0.0529778
0.0550161
0.0570561
0.0590948
0.06113
0.000307738
0.000381209
0.000760678
0.00124589
0.00181334
0.00245565
0.00316505
0.00393811
0.00477259
0.0056671
0.00662056
0.00763177
0.00869978
0.00982411
0.0110037
0.0122378
0.0135253
0.0148654
0.0162574
0.0176998
0.0191912
0.0207307
0.0223166
0.0239473
0.025621
0.0273358
0.02909
0.0308814
0.0327079
0.034567
0.0364563
0.0383736
0.040316
0.0422814
0.0442667
0.0462693
0.0482864
0.0503154
0.0523535
0.0543975
0.0564446
0.0584918
0.0605371
0.00030795
0.000381926
0.000737793
0.00120712
0.00175729
0.00238099
0.00307089
0.00382342
0.00463649
0.00550873
0.00643919
0.0074267
0.00847083
0.00957086
0.010726
0.0119356
0.0131989
0.0145149
0.0158831
0.0173021
0.018771
0.0202888
0.0218537
0.0234644
0.0251194
0.0268167
0.0285549
0.0303316
0.0321449
0.0339922
0.0358716
0.0377805
0.0397165
0.0416768
0.043659
0.0456599
0.0476771
0.0497079
0.051749
0.0537977
0.0558513
0.057907
0.0599631
0.000308576
0.000383608
0.000717176
0.00117183
0.00170607
0.00231235
0.00298407
0.00371753
0.00451062
0.00536216
0.00627107
0.00723668
0.00825839
0.00933549
0.0104676
0.011654
0.0128942
0.0141872
0.0155327
0.0169294
0.0183765
0.019873
0.0214175
0.0230088
0.0246451
0.0263252
0.0280472
0.0298091
0.0316086
0.0334441
0.0353128
0.0372129
0.0391415
0.0410961
0.0430739
0.0450724
0.0470888
0.0491202
0.0511634
0.0532162
0.0552752
0.0573387
0.0594064
0.00030923
0.000385024
0.000698511
0.00113945
0.00165878
0.00224884
0.00290377
0.00361948
0.00439392
0.00522605
0.00611483
0.0070598
0.00806023
0.00911586
0.0102262
0.0113907
0.0126088
0.01388
0.0152036
0.0165789
0.018005
0.019481
0.0210057
0.0225777
0.024196
0.0258588
0.0275647
0.0293115
0.0310976
0.0329206
0.0347784
0.0366689
0.0385897
0.0405377
0.0425106
0.0445058
0.0465204
0.0485514
0.050596
0.0526513
0.0547144
0.0567827
0.0588526
0.000309693
0.000386021
0.000681433
0.00110964
0.00161511
0.00219
0.00282921
0.00352826
0.00428531
0.00509923
0.00596921
0.00689464
0.00787519
0.00891042
0.01
0.0111436
0.0123409
0.0135911
0.0148938
0.0162486
0.0176544
0.0191106
0.0206159
0.0221694
0.0237699
0.0254156
0.0271054
0.0288374
0.0306097
0.0324201
0.0342668
0.0361473
0.0380595
0.0400004
0.0419679
0.0439589
0.0459708
0.0480007
0.0500455
0.0521023
0.054168
0.0562389
0.0583112
0.000310007
0.000386609
0.000665716
0.00108195
0.0015744
0.00213505
0.00275947
0.00344303
0.00418371
0.00498051
0.00583274
0.00673986
0.00770167
0.00871758
0.00978753
0.0109114
0.0120887
0.0133189
0.0146018
0.0159365
0.0173228
0.0187598
0.0202464
0.0217819
0.0233648
0.0249938
0.0266678
0.0283848
0.0301431
0.0319409
0.033776
0.0356463
0.0375496
0.0394831
0.0414444
0.0434306
0.0454392
0.0474672
0.0495115
0.0515691
0.0536364
0.055709
0.057781
0.000310158
0.000386858
0.000651148
0.00105618
0.00153643
0.00208373
0.00269428
0.00336315
0.00408838
0.00486912
0.00570458
0.00659447
0.00753838
0.008536
0.00958749
0.0106925
0.0118506
0.0130617
0.0143254
0.0156413
0.0170087
0.0184271
0.0198954
0.0214132
0.022979
0.0245917
0.0262498
0.0279521
0.0296967
0.0314816
0.033305
0.035165
0.0370589
0.0389843
0.040939
0.0429201
0.0449247
0.0469504
0.0489936
0.0510518
0.0531219
0.0552013
0.0572927
0.000310229
0.000386834
0.000637793
0.00103216
0.00150101
0.00203582
0.00263304
0.00328814
0.00399896
0.0047645
0.0055841
0.00645759
0.00738451
0.0083648
0.00939856
0.0104856
0.0116255
0.0128182
0.0140637
0.0153613
0.0167105
0.0181108
0.0195617
0.0210621
0.0226111
0.0242076
0.0258505
0.027538
0.0292688
0.0310409
0.0328526
0.0347017
0.0365861
0.0385033
0.040451
0.0424264
0.0444268
0.0464494
0.0484913
0.05055
0.0526228
0.0547077
0.0568062
0.000310252
0.000386704
0.000626329
0.0010098
0.00146789
0.00199109
0.00257565
0.00321764
0.00391477
0.00466589
0.00547053
0.00632838
0.00723923
0.00820308
0.0092199
0.0102897
0.0114122
0.0125874
0.0138152
0.015095
0.0164267
0.0178097
0.0192435
0.0207272
0.0222598
0.0238406
0.0254681
0.0271413
0.0288584
0.0306176
0.0324174
0.0342557
0.0361304
0.038039
0.0399793
0.0419488
0.0439445
0.0459637
0.0480041
0.0500628
0.0521375
0.0542263
0.056329
0.000310306
0.000386856
0.000618589
0.000989211
0.00143697
0.00194903
0.00252156
0.00315117
0.00383525
0.00457277
0.00536309
0.00620608
0.00710171
0.00804979
0.00905048
0.0101038
0.0112097
0.0123682
0.0135789
0.0148418
0.0161566
0.0175227
0.0189398
0.0204071
0.0219239
0.0234892
0.0251018
0.0267606
0.0284641
0.0302107
0.0319987
0.033826
0.0356908
0.0375906
0.0395234
0.0414865
0.043477
0.0454927
0.047531
0.0495891
0.0516647
0.0537554
0.0558608
0.000310514
0.000387774
0.000615371
0.000970368
0.00140792
0.00190937
0.00247046
0.00308832
0.00376006
0.00448452
0.00526123
0.00609022
0.00697127
0.00790437
0.0088896
0.00992717
0.0110171
0.0121594
0.0133538
0.0146003
0.0158987
0.0172486
0.0186496
0.020101
0.0216023
0.0231525
0.0247504
0.0263951
0.0280851
0.0298191
0.0315952
0.0334117
0.0352664
0.0371573
0.0390823
0.0410386
0.0430238
0.0450356
0.0470711
0.0491277
0.0512029
0.0532939
0.0553983
0.000310868
0.000389467
0.000615108
0.000953144
0.00138058
0.00187188
0.00242204
0.00302869
0.00368868
0.00440074
0.00516462
0.00598017
0.00684739
0.00776617
0.00873673
0.00975919
0.0108338
0.0119604
0.0131391
0.0143698
0.0156523
0.0169865
0.0183718
0.0198079
0.021294
0.0228293
0.0244128
0.0260437
0.0277206
0.0294419
0.0312062
0.0330116
0.0348562
0.0367382
0.038655
0.0406046
0.0425842
0.0445914
0.0466235
0.048678
0.0507518
0.0528417
0.0549445
0.000311198
0.000391592
0.000615662
0.000937217
0.00135481
0.00183638
0.00237612
0.00297206
0.00362079
0.00432116
0.00507281
0.00587554
0.00672929
0.00763433
0.00859084
0.00959896
0.0106587
0.0117703
0.0129339
0.0141494
0.0154167
0.0167356
0.0181057
0.0195267
0.020998
0.0225189
0.0240884
0.0257056
0.0273692
0.0290782
0.0308308
0.0326252
0.0344597
0.0363325
0.0382413
0.0401837
0.0421572
0.0441595
0.0461877
0.0482394
0.0503112
0.0523997
0.0545016
0.000311557
0.000393808
0.000616438
0.000922479
0.00133055
0.00180277
0.00233273
0.00291831
0.00355634
0.00424545
0.00498534
0.00577574
0.00661681
0.00750875
0.00845167
0.00944583
0.0104915
0.0115887
0.0127377
0.0139385
0.0151909
0.0164949
0.0178503
0.0192567
0.0207136
0.0222202
0.023776
0.0253798
0.0270306
0.0287271
0.0304681
0.0322516
0.0340761
0.0359396
0.0378401
0.0397751
0.0417423
0.0437393
0.0457634
0.0478117
0.0498813
0.0519688
0.0540716
0.000311982
0.000395862
0.000617067
0.000908653
0.00130765
0.00177104
0.00229164
0.00286713
0.00349489