/*--------------------------------*- C++ -*----------------------------------*\
| =========                 |                                                 |
| \\      /  F ield         | OpenFOAM: The Open Source CFD Toolbox           |
|  \\    /   O peration     | Version:  2.3.0                                 |
|   \\  /    A nd           | Web:      www.OpenFOAM.org                      |
|    \\/     M anipulation  |                                                 |
\*---------------------------------------------------------------------------*/
FoamFile
{
    version     2.0;
    format      ascii;
    class       volScalarField;
    location    "2000";
    object      p;
}
// * * * * * * * * * * * * * * * * * * * * * * * * * * * * * * * * * * * * * //

dimensions      [0 2 -2 0 0 0 0];

internalField   nonuniform List<scalar> 
38250
(
-0.000130172
1.21517
2.59754
4.01288
5.44008
6.88345
8.34768
9.83249
11.3401
12.8701
14.4241
16.0032
17.6058
19.2355
20.8896
22.5694
24.2718
25.9962
27.7396
29.4978
31.2634
33.0311
34.7926
36.539
38.2534
39.9186
41.5253
43.0387
44.4369
45.6773
46.715
47.476
47.8642
47.7915
47.1197
45.652
43.1853
39.3927
33.9083
26.2467
16.0536
1.22765
-25.7977
-0.50118
0.551292
1.80458
3.087
4.38488
5.70205
7.04229
8.40324
9.78822
11.1948
12.6262
14.0819
15.563
17.0714
18.6072
20.1733
21.7712
23.4027
25.0692
26.7737
28.5178
30.3016
32.1246
33.9854
35.8793
37.7974
39.7296
41.6578
43.5559
45.3895
47.1119
48.6695
49.9942
50.9788
51.4819
51.3268
50.296
48.1175
44.4489
38.8842
30.8559
19.3586
2.63246
-1.10145
-0.228877
0.840584
1.93041
3.02622
4.12896
5.24228
6.36248
7.49113
8.62555
9.76581
10.9102
12.0583
13.2081
14.3577
15.5048
16.6467
17.7801
18.901
20.004
21.0842
22.1334
23.1444
24.1073
25.007
25.8314
26.5588
27.1697
27.633
27.9116
27.9632
27.729
27.1373
26.1033
24.536
22.3314
19.3593
15.4887
10.5911
4.52756
-2.77802
-11.36
-21.0121
-1.66569
-0.946991
-0.0279407
0.915396
1.86497
2.82048
3.78413
4.75489
5.73202
6.71474
7.70133
8.69157
9.68487
10.6798
11.6747
12.6686
13.6593
14.6438
15.6194
16.582
17.5264
18.4441
19.329
20.1719
20.9563
21.6704
22.2913
22.8
23.167
23.3575
23.3345
23.0491
22.4479
21.4702
20.0393
18.0739
15.4861
12.1887
8.1119
3.18423
-2.59906
-9.20818
-16.4856
-2.31048
-1.66312
-0.855472
-0.0320441
0.792085
1.61919
2.44968
3.28512
4.12289
4.9627
5.80174
6.63916
7.47361
8.30295
9.1251
9.93818
10.7394
11.526
12.2929
13.0364
13.7505
14.4273
15.0604
15.64
16.1524
16.5845
16.9177
17.1318
17.2017
17.099
16.7909
16.2382
15.3942
14.2095
12.6305
10.6012
8.06735
4.97287
1.29369
-2.99268
-7.85442
-13.224
-18.9657
-2.88114
-2.32454
-1.6089
-0.887916
-0.16877
0.554732
1.27742
2.0082
2.74028
3.47298
4.20426
4.93333
5.6592
6.37887
7.08852
7.7878
8.47329
9.14505
9.79713
10.4268
11.0223
11.5802
12.0937
12.5534
12.9485
13.2639
13.4828
13.5833
13.5414
13.3369
12.9383
12.3194
11.4362
10.2458
8.70936
6.78727
4.43892
1.62443
-1.66963
-5.43953
-9.65446
-14.2455
-19.1116
-3.33324
-2.93385
-2.30401
-1.66143
-1.02852
-0.392295
0.234475
0.881932
1.53192
2.18129
2.8256
3.46511
4.10211
4.73542
5.35428
5.96139
6.55049
7.11605
7.66423
8.20364
8.70218
9.15394
9.56192
9.91952
10.2164
10.4437
10.5795
10.6003
10.4787
10.1978
9.72704
9.05396
8.14719
6.95768
5.45607
3.62242
1.41509
-1.19054
-4.21388
-7.62915
-11.3854
-15.4377
-19.6916
-3.57506
-3.42728
-2.9218
-2.35843
-1.79465
-1.22242
-0.697717
-0.131844
0.44727
1.03738
1.62221
2.18818
2.75004
3.32267
3.87578
4.41557
4.96165
5.45069
5.89084
6.36732
6.81649
7.19728
7.51995
7.79419
8.00899
8.17173
8.26195
8.25446
8.11273
7.82942
7.3402
6.64537
5.78114
4.65202
3.23273
1.48489
-0.53784
-2.95402
-5.70199
-8.91424
-12.3528
-16.0704
-19.8845
-3.94552
-3.78828
-3.41689
-2.99095
-2.61554
-1.93912
-1.53162
-1.09447
-0.647602
-0.154444
0.369032
0.874182
1.34585
1.84567
2.34897
2.78856
3.17775
3.81809
4.14575
4.53747
4.97203
5.35636
5.64705
5.85191
5.97764
6.06064
6.09692
6.06462
5.9033
5.60436
5.12755
4.64183
4.02478
2.98973
1.61887
0.0103843
-1.81464
-3.82083
-6.37447
-9.23085
-12.5808
-15.745
-19.2258
-93.0844
-116.382
-120.276
-122.727
-124.511
-124.511
-123.362
-121.663
-119.722
-117.594
-115.37
-113.125
-110.823
-108.52
-106.201
-103.87
-101.545
-99.2094
-96.8821
-94.5695
-92.2692
-89.9934
-87.7447
-85.5321
-83.3569
-81.226
-79.142
-77.1046
-75.119
-73.1834
-71.2989
-69.4641
-67.6782
-65.938
-64.2443
-62.5943
-60.9865
-59.4185
-57.889
-56.3969
-54.9398
-53.523
-52.115
-20.5591
-44.4128
-62.2129
-75.0453
-84.4818
-91.2893
-95.9432
-98.9218
-100.588
-101.231
-101.098
-100.396
-99.2638
-97.816
-96.162
-94.3599
-92.4806
-90.5528
-88.6062
-86.6735
-84.7585
-82.8807
-81.0351
-79.2337
-77.4704
-75.7508
-74.0699
-72.4262
-70.8182
-69.2437
-67.7018
-66.1897
-64.7074
-63.2529
-61.8271
-60.4282
-59.0562
-57.7108
-56.392
-55.1002
-53.8344
-52.5933
-51.3022
-31.1553
-40.9563
-49.5262
-56.7516
-62.7109
-67.5385
-71.3355
-74.2404
-76.3996
-77.9232
-78.9309
-79.5161
-79.7579
-79.7218
-79.4579
-79.014
-78.4213
-77.704
-76.8918
-75.9956
-75.0361
-74.0229
-72.9635
-71.8725
-70.7533
-69.6165
-68.463
-67.302
-66.1355
-64.9674
-63.8032
-62.6424
-61.4889
-60.3436
-59.2084
-58.0843
-56.9719
-55.8716
-54.7838
-53.71
-52.6488
-51.5887
-50.4099
-24.1918
-31.9072
-39.2139
-45.8415
-51.668
-56.6465
-60.798
-64.1751
-66.8574
-68.9229
-70.4606
-71.5465
-72.2482
-72.6304
-72.742
-72.6382
-72.3515
-71.9184
-71.3685
-70.7182
-69.9938
-69.211
-68.3765
-67.5059
-66.609
-65.6896
-64.7544
-63.8102
-62.8582
-61.9027
-60.9452
-59.9888
-59.034
-58.0824
-57.1356
-56.1949
-55.2601
-54.3316
-53.4099
-52.4959
-51.5893
-50.6797
-49.7003
-24.8965
-30.8075
-36.4802
-41.7391
-46.4739
-50.6299
-54.1981
-57.193
-59.6644
-61.6571
-63.2174
-64.4115
-65.2816
-65.8777
-66.2384
-66.4065
-66.3999
-66.2599
-66.0009
-65.643
-65.2019
-64.695
-64.1276
-63.5126
-62.8603
-62.1739
-61.4626
-60.7318
-59.9824
-59.2213
-58.4496
-57.6709
-56.8871
-56.1006
-55.3132
-54.5269
-53.7417
-52.958
-52.1772
-51.4
-50.6288
-49.8614
-49.1712
-24.1318
-29.1383
-33.9953
-38.5664
-42.753
-46.5035
-49.7927
-52.6152
-54.9964
-56.9702
-58.5667
-59.8284
-60.8005
-61.5143
-62.0111
-62.3163
-62.46
-62.467
-62.3549
-62.143
-61.8457
-61.477
-61.0494
-60.5698
-60.0513
-59.497
-58.9186
-58.3174
-57.6985
-57.064
-56.4175
-55.7628
-55.1001
-54.4342
-53.7656
-53.0972
-52.4294
-51.7591
-51.0889
-50.4198
-49.7548
-49.0937
-48.5609
-24.0866
-28.4358
-32.7007
-36.7397
-40.4732
-43.8635
-46.863
-49.4605
-51.6783
-53.5332
-55.0768
-56.3232
-57.3211
-58.0783
-58.6451
-59.0286
-59.2678
-59.3681
-59.3615
-59.2527
-59.0668
-58.8026
-58.483
-58.1117
-57.6991
-57.2513
-56.7832
-56.2882
-55.7756
-55.2417
-54.6964
-54.1425
-53.5726
-53.0054
-52.4328
-51.8639
-51.2918
-50.7078
-50.1234
-49.5424
-48.9682
-48.3984
-48.0002
-23.8695
-27.7883
-31.6362
-35.3133
-38.7108
-41.8031
-44.592
-47.0442
-49.1469
-50.9428
-52.4572
-53.6738
-54.6854
-55.4742
-56.0922
-56.5033
-56.8016
-56.9616
-57.0347
-56.9857
-56.8765
-56.6757
-56.429
-56.1266
-55.7879
-55.4164
-55.035
-54.6176
-54.1832
-53.7205
-53.2528
-52.7713
-52.2632
-51.7875
-51.3001
-50.8149
-50.3036
-49.7745
-49.2623
-48.7592
-48.2651
-47.7637
-47.4376
-23.5231
-26.9868
-30.5159
-33.9655
-37.0544
-39.9222
-42.574
-44.8051
-47.3706
-49.2766
-50.7525
-51.8469
-52.8866
-53.7042
-54.3387
-54.6992
-55.0535
-55.2251
-55.3582
-55.3047
-55.2255
-55.0235
-54.8047
-54.5208
-54.2392
-53.9149
-53.6048
-53.2304
-52.8435
-52.4125
-51.9874
-51.5415
-51.071
-50.7059
-50.2623
-49.8282
-49.3831
-48.9223
-48.5135
-48.1031
-47.6846
-47.224
-46.8932
-47.481
-47.1317
-46.8161
-46.4842
-46.1439
-45.7943
-45.4342
-45.0628
-44.6785
-44.2797
-43.8643
-43.4308
-42.9772
-42.5023
-42.0057
-41.487
-40.9475
-40.3888
-39.8145
-39.228
-38.6338
-38.037
-37.4434
-36.8588
-36.2883
-35.7381
-35.2131
-34.7177
-34.2557
-33.8294
-33.4412
-33.0923
-32.7821
-32.5091
-32.2711
-32.0637
-31.8813
-31.7182
-31.5652
-31.4155
-31.2757
-31.1527
-30.7831
-46.7969
-46.456
-46.157
-45.8478
-45.5344
-45.217
-44.8959
-44.5713
-44.2439
-43.9143
-43.5825
-43.2495
-42.9154
-42.5807
-42.2451
-41.9082
-41.5696
-41.2286
-40.8843
-40.5356
-40.1815
-39.8207
-39.4518
-39.0739
-38.6862
-38.2877
-37.8781
-37.4572
-37.0249
-36.5814
-36.1269
-35.662
-35.1872
-34.7031
-34.2108
-33.7117
-33.2084
-32.7055
-32.2107
-31.7354
-31.2904
-30.9116
-30.6498
-46.1729
-45.859
-45.5796
-45.2898
-44.9963
-44.6995
-44.3994
-44.0967
-43.7914
-43.4838
-43.1743
-42.8631
-42.5509
-42.2373
-41.922
-41.6049
-41.2854
-40.9625
-40.636
-40.3048
-39.968
-39.6244
-39.2732
-38.9133
-38.5433
-38.1625
-37.7703
-37.3662
-36.9499
-36.5214
-36.081
-35.6294
-35.1674
-34.6962
-34.2176
-33.7348
-33.2517
-32.774
-32.3112
-31.8756
-31.4657
-31.05
-30.7391
-45.6313
-45.3253
-45.0558
-44.7767
-44.493
-44.205
-43.912
-43.6143
-43.3116
-43.0036
-42.69
-42.3705
-42.0458
-41.7153
-41.379
-41.0373
-40.6898
-40.3362
-39.9765
-39.611
-39.24
-38.8632
-38.4805
-38.0919
-37.6972
-37.2958
-36.8876
-36.4727
-36.0511
-35.6235
-35.1904
-34.7524
-34.3111
-33.8682
-33.4256
-32.9863
-32.5539
-32.1333
-31.7309
-31.3565
-31.0119
-30.6413
-30.3923
-45.1417
-44.8541
-44.5978
-44.3315
-44.0602
-43.785
-43.5043
-43.2189
-42.9287
-42.6332
-42.3313
-42.0231
-41.7086
-41.3881
-41.0614
-40.7288
-40.3893
-40.0428
-39.6887
-39.3274
-38.9586
-38.583
-38.2005
-37.8112
-37.4144
-37.0098
-36.5969
-36.1757
-35.7466
-35.3104
-34.8681
-34.4214
-33.9723
-33.5232
-33.0775
-32.6396
-32.2141
-31.8062
-31.4215
-31.065
-30.741
-30.3847
-30.1579
-44.7172
-44.443
-44.2008
-43.9485
-43.6915
-43.4309
-43.1645
-42.8932
-42.6181
-42.3382
-42.0518
-41.7583
-41.4574
-41.1502
-40.8368
-40.5177
-40.192
-39.8586
-39.5165
-39.1658
-38.8061
-38.4384
-38.0638
-37.6823
-37.2941
-36.898
-36.4929
-36.0779
-35.6535
-35.22
-34.7788
-34.3324
-33.8825
-33.4311
-32.9836
-32.548
-32.1333
-31.7462
-31.3864
-31.0478
-30.731
-30.3653
-30.1145
-44.3486
-44.083
-43.8529
-43.6126
-43.368
-43.1211
-42.8672
-42.6059
-42.3428
-42.0762
-41.8026
-41.5202
-41.2283
-40.9278
-40.6216
-40.3098
-39.9917
-39.6659
-39.3305
-38.9842
-38.6268
-38.2593
-37.8838
-37.5022
-37.1154
-36.7224
-36.3199
-35.9079
-35.4847
-35.0499
-34.6035
-34.1533
-33.7021
-33.2484
-32.7932
-32.3501
-31.9373
-31.5769
-31.2868
-31.025
-30.7526
-30.4235
-30.1632
-44.0141
-43.767
-43.5499
-43.3204
-43.086
-42.8545
-42.6152
-42.3602
-42.1072
-41.856
-41.5986
-41.3299
-41.0487
-40.7516
-40.451
-40.1469
-39.8388
-39.5267
-39.2062
-38.8719
-38.5231
-38.1589
-37.7866
-37.4108
-37.038
-36.6668
-36.2893
-35.8949
-35.4951
-35.088
-34.6559
-34.2165
-33.7788
-33.332
-32.8625
-32.4019
-31.9905
-31.6523
-31.4176
-31.2365
-30.9578
-30.6171
-30.1878
-43.6978
-43.4792
-43.2713
-43.0466
-42.8123
-42.5981
-42.3784
-42.1156
-41.8607
-41.6198
-41.3719
-41.1225
-40.8616
-40.5611
-40.2562
-39.9439
-39.6263
-39.3084
-38.9893
-38.6547
-38.311
-37.9273
-37.5206
-37.0974
-36.6719
-36.261
-35.8583
-35.4591
-35.003
-34.5672
-34.0789
-33.5949
-33.1566
-32.7467
-32.2365
-31.6515
-31.0674
-30.5987
-30.6859
-31.0051
-30.7263
-30.9344
-30.4833
-29.8053
-28.8994
-27.8665
-26.9816
-26.1748
-25.4394
-24.7644
-24.1403
-23.56
-23.0171
-22.5048
-22.0183
-21.5548
-21.1103
-20.683
-20.2704
-19.8716
-19.4849
-19.11
-18.7463
-18.392
-18.0476
-17.7127
-17.3862
-17.0683
-16.759
-16.4574
-16.1638
-15.8775
-15.5988
-15.327
-15.0617
-14.8035
-14.5511
-14.305
-14.0643
-13.8287
-13.598
-13.3713
-13.149
-12.9302
-12.7104
-12.4722
-30.1513
-29.6478
-28.9812
-28.3339
-27.664
-27.0062
-26.3678
-25.7541
-25.1673
-24.6075
-24.0732
-23.5621
-23.074
-22.6048
-22.1547
-21.7201
-21.3005
-20.8944
-20.5004
-20.1178
-19.745
-19.381
-19.0256
-18.6776
-18.3369
-18.0024
-17.6738
-17.3514
-17.0332
-16.7213
-16.4132
-16.1105
-15.8126
-15.5186
-15.23
-14.9459
-14.6665
-14.3925
-14.1233
-13.8605
-13.6059
-13.357
-13.1024
-30.1263
-29.5295
-28.8918
-28.288
-27.6751
-27.0743
-26.4849
-25.9113
-25.3555
-24.8189
-24.3015
-23.8031
-23.3234
-22.8614
-22.4163
-21.9863
-21.5715
-21.17
-20.7812
-20.4044
-20.0384
-19.6822
-19.3353
-18.9974
-18.6672
-18.3443
-18.0286
-17.7192
-17.4153
-17.1173
-16.8238
-16.5357
-16.2514
-15.9715
-15.6956
-15.423
-15.1539
-14.8886
-14.6266
-14.3685
-14.116
-13.8655
-13.5924
-29.8706
-29.3172
-28.7241
-28.1411
-27.5528
-26.9763
-26.4105
-25.8594
-25.3245
-24.8069
-24.3062
-23.8231
-23.357
-22.9076
-22.4739
-22.0549
-21.6507
-21.2592
-20.8807
-20.5133
-20.1574
-19.811
-19.4743
-19.1461
-18.8263
-18.5144
-18.2101
-17.9123
-17.6209
-17.3358
-17.0563
-16.7823
-16.5134
-16.2495
-15.9902
-15.735
-15.4838
-15.2368
-14.9935
-14.7538
-14.5191
-14.2861
-14.0343
-29.6894
-29.1805
-28.635
-28.0853
-27.5282
-26.9768
-26.4326
-25.8999
-25.3811
-24.8771
-24.3894
-23.9178
-23.4625
-23.0232
-22.5992
-22.1897
-21.7941
-21.4113
-21.0412
-20.682
-20.334
-19.9957
-19.6665
-19.3457
-19.0343
-18.7302
-18.4346
-18.1456
-17.8623
-17.5854
-17.3148
-17.0496
-16.791
-16.5366
-16.2876
-16.0424
-15.8018
-15.5657
-15.3338
-15.1062
-14.8844
-14.6653
-14.4279
-29.628
-29.1124
-28.5743
-28.037
-27.4973
-26.9626
-26.4351
-25.9174
-25.4117
-24.9187
-24.4408
-23.9779
-23.5308
-23.1002
-22.6846
-22.2834
-21.8955
-21.5204
-21.1575
-20.8071
-20.4658
-20.1345
-19.8118
-19.499
-19.1959
-18.9009
-18.6147
-18.3344
-18.0592
-17.7916
-17.5307
-17.2765
-17.0286
-16.7849
-16.5458
-16.3109
-16.0809
-15.8556
-15.6349
-15.4186
-15.2085
-15.0016
-14.7749
-29.629
-29.0698
-28.511
-27.9714
-27.4432
-26.9219
-26.4078
-25.8987
-25.3972
-24.9088
-24.4388
-23.9845
-23.5479
-23.1273
-22.7214
-22.329
-21.9496
-21.5816
-21.2257
-20.8842
-20.5505
-20.2261
-19.9114
-19.6063
-19.3101
-19.0243
-18.7495
-18.4789
-18.2099
-17.9513
-17.7008
-17.4591
-17.2227
-16.9899
-16.7598
-16.5362
-16.3173
-16.1034
-15.8937
-15.6895
-15.4918
-15.2983
-15.0743
-29.5097
-28.9326
-28.3874
-27.8873
-27.3775
-26.8679
-26.3687
-25.8754
-25.3866
-24.9175
-24.4585
-24.0137
-23.583
-23.1707
-22.7758
-22.3934
-22.0153
-21.6479
-21.3037
-20.9829
-20.6536
-20.3237
-20.0049
-19.7025
-19.417
-19.1542
-18.8958
-18.6189
-18.3384
-18.0919
-17.8565
-17.624
-17.3985
-17.1718
-16.9467
-16.7305
-16.5194
-16.3171
-16.1158
-15.9208
-15.7341
-15.5573
-15.3464
-29.6373
-28.9182
-28.2928
-27.7848
-27.3165
-26.846
-26.3915
-25.8888
-25.3536
-24.8212
-24.3581
-23.8948
-23.4914
-23.1099
-22.7295
-22.3436
-21.956
-21.6134
-21.3072
-20.9938
-20.5977
-20.2425
-19.9732
-19.7171
-19.4715
-19.2273
-18.9238
-18.5962
-18.3305
-18.1819
-17.9366
-17.7202
-17.5078
-17.2891
-17.0629
-16.8688
-16.6839
-16.51
-16.3077
-16.1379
-15.9797
-15.8367
-15.6609
302.918
274.01
246.741
223.363
202.616
183.617
166.401
150.92
137.103
124.787
113.838
104.127
95.503
87.8323
80.9909
74.8598
69.3407
64.3417
59.7892
55.6124
51.7562
48.1719
44.8171
41.6642
38.6807
35.8453
33.1384
30.548
28.0585
25.6628
23.3501
21.1174
18.9545
16.8599
14.8284
12.8565
10.9411
9.07823
7.26643
5.49989
3.7669
2.10837
0.889781
135.262
133.253
131.222
127.48
122.781
117.628
112.274
106.852
101.445
96.1166
90.9141
85.8707
81.0115
76.3452
71.8868
67.6294
63.5732
59.7188
56.0494
52.5579
49.2379
46.074
43.0531
40.1686
37.4057
34.7581
32.2126
29.7643
27.4026
25.1212
22.9158
20.779
18.7069
16.6944
14.7381
12.8354
10.9819
9.17646
7.41677
5.69799
4.00456
2.38427
1.25899
92.7668
95.3448
97.1306
97.8336
97.7727
97.0248
95.645
93.7118
91.3175
88.549
85.4888
82.2102
78.7767
75.2446
71.6651
68.0769
64.5097
60.9966
57.5529
54.1904
50.9274
47.7623
44.7032
41.749
38.8976
36.1497
33.4976
30.9412
28.4741
26.0899
23.7888
21.5606
19.406
17.3177
15.2929
13.3295
11.421
9.56796
7.76511
6.0091
4.28434
2.62947
1.47515
98.9094
99.0144
97.6951
96.1434
94.4637
92.608
90.5537
88.3108
85.8965
83.3279
80.6241
77.8071
74.8968
71.9168
68.8862
65.825
62.7522
59.6837
56.6343
53.6155
50.6409
47.7147
44.8482
42.0438
39.3062
36.6387
34.0411
31.515
29.0595
26.6724
24.3555
22.1035
19.9173
17.7934
15.7292
13.7243
11.7737
9.87834
8.03449
6.23851
4.47555
2.77976
1.55938
87.047
86.6752
85.6069
84.4879
83.236
81.8442
80.3199
78.6703
76.8982
75.0068
73.001
70.8872
68.673
66.3686
63.9871
61.5368
59.0351
56.49
53.9166
51.3274
48.7331
46.1435
43.5684
41.0163
38.4933
36.0073
33.5608
31.1596
28.8055
26.5005
24.2478
22.0453
19.8952
17.7973
15.7499
13.7544
11.8084
9.91106
8.06324
6.26007
4.49002
2.78469
1.51504
72.5207
72.4681
72.221
71.8949
71.4088
70.77
69.9815
69.046
67.9638
66.7403
65.3808
63.8914
62.279
60.5536
58.7239
56.7999
54.794
52.7143
50.5747
48.3853
46.1566
43.9005
41.6259
39.3427
37.0575
34.7824
32.518
30.2758
28.0581
25.8685
23.7141
21.5934
19.5121
17.4701
15.4694
13.5101
11.5934
9.71918
7.88778
6.09782
4.33867
2.63713
1.32262
63.5206
63.5219
63.4156
63.2053
62.8819
62.4493
61.9047
61.2448
60.4683
59.5759
58.5691
57.4486
56.2187
54.8837
53.4476
51.9168
50.2987
48.5984
46.8256
44.9882
43.0929
41.1511
39.1684
37.1551
35.1184
33.0681
31.0075
28.947
26.892
24.8455
22.8162
20.8061
18.8192
16.8579
14.9273
13.0271
11.1592
9.32721
7.5295
5.76737
4.03208
2.34111
0.967378
56.3896
56.3702
56.2532
56.0427
55.7559
55.3936
54.9516
54.427
53.8178
53.1217
52.3365
51.4606
50.4952
49.4392
48.2947
47.0633
45.7491
44.3541
42.8845
41.345
39.7403
38.0782
36.3639
34.6052
32.8078
30.9797
29.1278
27.2572
25.3758
23.4878
21.6
19.717
17.8438
15.9835
14.1408
12.3182
10.5188
8.74444
6.99756
5.27818
3.58096
1.91634
0.49806
49.454
49.4658
49.4041
49.2675
49.0715
48.8144
48.4928
48.1046
47.6474
47.1178
46.5138
45.8341
45.0774
44.242
43.3274
42.3348
41.2649
40.1186
38.8998
37.6104
36.2544
34.8362
33.3595
31.8307
30.2546
28.6364
26.9836
25.2997
23.5925
21.8661
20.1277
18.3804
16.6313
14.8835
13.1416
11.4094
9.69089
7.98805
6.30451
4.64175
2.994
1.37287
-0.0393822
43.1181
43.1729
43.1646
43.0959
42.9776
42.8086
42.5858
42.3065
41.968
41.5687
41.1064
40.5788
39.9842
39.3207
38.5873
37.7839
36.9103
35.9666
34.9535
33.8733
32.7272
31.5184
30.25
28.9253
27.5483
26.1235
24.6558
23.1496
21.6108
20.0437
18.4536
16.8453
15.2241
13.5952
11.9614
10.3284
8.69937
7.07867
5.46854
3.8735
2.29097
0.733425
-0.629576
37.5621
37.6266
37.6345
37.5965
37.5188
37.4003
37.2379
37.0289
36.7721
36.4647
36.1047
35.6895
35.2173
34.6855
34.0929
33.4385
32.7215
31.941
31.0971
30.1901
29.2206
28.1905
27.1016
25.9556
24.7552
23.5049
22.207
20.8655
19.4854
18.0697
16.6243
15.1534
13.6602
12.1508
10.6293
9.09925
7.56537
6.03202
4.50164
2.97723
1.45824
-0.0423584
-1.36646
32.4314
32.5176
32.5478
32.5399
32.4974
32.4197
32.3054
32.1529
31.9596
31.7237
31.4432
31.116
30.7401
30.3128
29.8325
29.2981
28.7078
28.0608
27.356
26.5932
25.7725
24.8945
23.9594
22.9692
21.9249
20.8293
19.6849
18.4939
17.2609
15.9876
14.6796
13.3399
11.9725
10.5817
9.17195
7.7467
6.31071
4.86787
3.42229
1.97673
0.532433
-0.896834
-2.12833
27.7148
27.8082
27.8487
27.8607
27.8444
27.7993
27.7237
27.6155
27.4731
27.295
27.0785
26.8218
26.5233
26.1803
25.7909
25.3544
24.8682
24.3311
23.7422
23.1001
22.4051
21.6563
20.8539
19.9986
19.0911
18.1328
17.1259
16.0712
14.9723
13.8315
12.652
11.4367
10.1893
8.91375
7.61351
6.29205
4.95422
3.6027
2.24209
0.875503
-0.49841
-1.87332
-3.09578
23.3091
23.4139
23.4674
23.499
23.5063
23.4886
23.4449
23.3732
23.2723
23.1406
22.9763
22.777
22.5413
22.2671
21.9528
21.5967
21.1966
20.7509
20.2588
19.7188
19.1301
18.4916
17.8038
17.0658
16.278
15.4408
14.5562
13.6246
12.6476
11.628
10.5678
9.4691
8.33553
7.16976
5.97564
4.75548
3.514
2.25353
0.978645
-0.308172
-1.60797
-2.91829
-4.1128
19.2069
19.318
19.3794
19.4243
19.4487
19.452
19.4334
19.3911
19.3236
19.2296
19.1076
18.9554
18.7716
18.5542
18.3017
18.0125
17.6842
17.3154
16.9052
16.4516
15.9536
15.4101
14.8205
14.1846
13.5019
12.7718
11.9959
11.1742
10.308
9.39877
8.4484
7.4582
6.43128
5.3694
4.2766
3.15438
2.00667
0.836267
-0.353204
-1.55918
-2.78139
-4.01929
-5.17343
15.3265
15.4495
15.5224
15.581
15.6222
15.6448
15.6482
15.6313
15.592
15.5301
15.444
15.3317
15.1914
15.022
14.8218
14.5887
14.3211
14.0176
13.6769
13.2971
12.8769
12.4153
11.9112
11.364
10.7733
10.138
9.45886
8.73581
7.96934
7.16064
6.31079
5.42078
4.49318
3.52907
2.53211
1.50343
0.44647
-0.636151
-1.7418
-2.86695
-4.01205
-5.17748
-6.29027
11.6819
11.812
11.89
11.958
12.0107
12.048
12.0692
12.0727
12.0574
12.0222
11.9661
11.887
11.7834
11.6546
11.4983
11.3132
11.0973
10.8493
10.5682
10.2521
9.899
9.50842
9.07894
8.60953
8.09952
7.54789
6.9547
6.32018
5.6437
4.92622
4.168
3.37055
2.5348
1.66235
0.755595
-0.184239
-1.15434
-2.1523
-3.17547
-4.22087
-5.28725
-6.37356
-7.42217
8.2048
8.34896
8.43597
8.51438
8.57962
8.63099
8.66839
8.69052
8.69578
8.68377
8.65335
8.60263
8.53091
8.43672
8.31848
8.17437
8.00295
7.80286
7.57315
7.31159
7.01693
6.68829
6.32397
5.92301
5.48443
5.00697
4.49082
3.93531
3.33986
2.70493
2.03053
1.31783
0.567238
-0.219969
-1.04216
-1.89801
-2.7856
-3.70241
-4.64626
-5.61513
-6.60715
-7.62164
-8.60658
4.91117
5.06151
5.15197
5.23893
5.31458
5.3782
5.42903
5.46697
5.4904
5.49866
5.49018
5.46429
5.41993
5.35534
5.26957
5.16127
5.02858
4.87011
4.68492
4.47118
4.22761
3.95304
3.64593
3.30524
2.92974
2.5186
2.07116
1.58659
1.06416
0.504267
-0.0937085
-0.728703
-1.40067
-2.10884
-2.85222
-3.62917
-4.43839
-5.27765
-6.14534
-7.03848
-7.95408
-8.89022
-9.7998
1.79758
1.94459
2.03509
2.12683
2.20893
2.28086
2.34222
2.3923
2.43002
2.45478
2.46503
2.46037
2.43909
2.40022
2.34257
2.26497
2.16558
2.04346
1.8972
1.72551
1.52676
1.29981
1.04328
0.755878
0.436595
0.0843667
-0.301654
-0.7224
-1.17868
-1.67054
-2.19874
-2.76254
-3.36209
-3.99702
-4.66693
-5.37
-6.10561
-6.87199
-7.66807
-8.49126
-9.33883
-10.2116
-11.1232
-1.20147
-1.05249
-0.957221
-0.858621
-0.768755
-0.687648
-0.615982
-0.554508
-0.503593
-0.464121
-0.437117
-0.423689
-0.424393
-0.440788
-0.473653
-0.524437
-0.594069
-0.6844
-0.796403
-0.931154
-1.0903
-1.27492
-1.48672
-1.72654
-1.9955
-2.29513
-2.626
-2.98909
-3.38548
-3.8157
-4.27999
-4.77872
-5.3116
-5.87883
-6.47999
-7.11413
-7.7807
-8.47837
-9.20667
-9.96454
-10.7504
-11.5642
-12.4304
-4.05589
-3.91183
-3.81689
-3.71558
-3.62143
-3.53379
-3.45429
-3.38306
-3.32093
-3.2686
-3.22703
-3.19716
-3.17975
-3.17639
-3.18772
-3.2144
-3.25803
-3.3202
-3.40152
-3.50378
-3.62781
-3.77476
-3.94636
-4.1436
-4.36767
-4.61995
-4.90107
-5.21232
-5.55453
-5.92851
-6.33452
-6.77332
-7.2448
-7.74941
-8.28662
-8.85614
-9.45764
-10.0898
-10.7523
-11.4448
-12.165
-12.9111
-13.6864
-6.82893
-6.68305
-6.58244
-6.47484
-6.37364
-6.27822
-6.18969
-6.10865
-6.03576
-5.97111
-5.91616
-5.87116
-5.83743
-5.81615
-5.80744
-5.81262
-5.83331
-5.87023
-5.92437
-5.99711
-6.08975
-6.20321
-6.33893
-6.49789
-6.68162
-6.89106
-7.12737
-7.39144
-7.68433
-8.0071
-8.36004
-8.74367
-9.15856
-9.60517
-10.083
-10.592
-11.1319
-11.7015
-12.2998
-12.925
-13.5732
-14.2399
-14.8556
-9.50363
-9.35514
-9.24982
-9.13623
-9.0284
-8.92531
-8.82837
-8.73803
-8.65462
-8.57871
-8.51117
-8.45253
-8.4042
-8.36651
-8.34003
-8.32597
-8.32574
-8.34011
-8.36959
-8.41589
-8.48017
-8.56359
-8.66698
-8.79169
-8.9389
-9.10974
-9.30533
-9.52655
-9.77446
-10.0504
-10.3546
-10.6878
-11.0506
-11.4435
-11.8664
-12.3192
-12.8019
-13.3138
-13.8539
-14.4208
-15.0118
-15.6309
-16.2565
-12.0804
-11.929
-11.8199
-11.7011
-11.5877
-11.4781
-11.3738
-11.2751
-11.1824
-11.0965
-11.0177
-10.947
-10.8854
-10.8332
-10.7909
-10.7596
-10.7406
-10.7343
-10.7419
-10.7646
-10.8034
-10.8593
-10.9334
-11.0271
-11.1414
-11.2771
-11.4357
-11.6179
-11.825
-12.058
-12.3175
-12.6043
-12.9191
-13.2623
-13.6343
-14.0349
-14.4646
-14.9228
-15.4086
-15.9211
-16.4591
-17.025
-17.5609
-14.534
-14.3868
-14.2795
-14.1606
-14.0455
-13.933
-13.8245
-13.7204
-13.6212
-13.5273
-13.4397
-13.3589
-13.2856
-13.2206
-13.1645
-13.1179
-13.0819
-13.0573
-13.0453
-13.0467
-13.0625
-13.0938
-13.1416
-13.207
-13.291
-13.3949
-13.5198
-13.6663
-13.836
-14.0297
-14.248
-14.4921
-14.7625
-15.0599
-15.3846
-15.7368
-16.1171
-16.5249
-16.9598
-17.4213
-17.9088
-18.4272
-18.9234
-16.9476
-16.7953
-16.6811
-16.5556
-16.4352
-16.3169
-16.2023
-16.0916
-15.985
-15.8834
-15.7873
-15.6966
-15.6126
-15.5359
-15.467
-15.4065
-15.355
-15.3139
-15.2839
-15.2659
-15.2607
-15.2696
-15.2935
-15.3332
-15.3897
-15.4643
-15.5585
-15.6727
-15.8079
-15.9653
-16.1459
-16.3505
-16.5799
-16.8348
-17.1155
-17.4228
-17.757
-18.118
-18.5058
-18.9204
-19.3627
-19.8424
-20.3294
-19.25
-19.1045
-18.9923
-18.8666
-18.7447
-18.6236
-18.5049
-18.3891
-18.2765
-18.1684
-18.0642
-17.9649
-17.8709
-17.7834
-17.7028
-17.6296
-17.5643
-17.5081
-17.4617
-17.4261
-17.4019
-17.3901
-17.3919
-17.408
-17.4395
-17.4876
-17.5533
-17.6376
-17.7413
-17.8655
-18.0112
-18.1794
-18.3709
-18.5861
-18.826
-19.0911
-19.382
-19.6989
-20.042
-20.4113
-20.808
-21.2414
-21.6974
-21.504
-21.3577
-21.2425
-21.1139
-20.9885
-20.8634
-20.7406
-20.6196
-20.5015
-20.3866
-20.2752
-20.1677
-20.0651
-19.9677
-19.8762
-19.7911
-19.7134
-19.6435
-19.5819
-19.53
-19.4884
-19.4578
-19.4395
-19.4341
-19.4426
-19.4662
-19.5058
-19.5624
-19.6371
-19.7306
-19.8439
-19.9785
-20.1346
-20.3131
-20.5148
-20.7404
-20.9905
-21.2657
-21.5659
-21.8911
-22.242
-22.6265
-23.0406
-23.7163
-23.5622
-23.4419
-23.3083
-23.1777
-23.0473
-22.9186
-22.7916
-22.667
-22.5452
-22.4263
-22.3112
-22.2001
-22.0934
-21.9917
-21.8957
-21.8059
-21.7231
-21.6478
-21.5808
-21.523
-21.4753
-21.4384
-21.4133
-21.4006
-21.4016
-21.4172
-21.4484
-21.4962
-21.5613
-21.6446
-21.7476
-21.871
-22.0151
-22.1811
-22.3699
-22.5817
-22.8172
-23.0767
-23.36
-23.6675
-24.0067
-24.3776
-25.8308
-25.6802
-25.5628
-25.4294
-25.2972
-25.1641
-25.0318
-24.9005
-24.7711
-24.6436
-24.5187
-24.3964
-24.2774
-24.1623
-24.0515
-23.9453
-23.8447
-23.75
-23.6619
-23.5812
-23.5087
-23.4451
-23.391
-23.3475
-23.3153
-23.2955
-23.2889
-23.2964
-23.3192
-23.358
-23.4136
-23.4873
-23.58
-23.6922
-23.8248
-23.9789
-24.1548
-24.3529
-24.5739
-24.8173
-25.083
-25.377
-25.6994
-27.898
-27.7481
-27.6297
-27.494
-27.3591
-27.2232
-27.0875
-26.9524
-26.8182
-26.6859
-26.5553
-26.4265
-26.3007
-26.1779
-26.0586
-25.9432
-25.8326
-25.727
-25.6271
-25.5337
-25.4474
-25.3691
-25.2992
-25.2387
-25.1884
-25.1492
-25.1221
-25.1077
-25.1073
-25.1214
-25.1512
-25.1978
-25.2619
-25.3442
-25.4456
-25.5671
-25.7092
-25.8725
-26.0576
-26.2645
-26.4932
-26.7503
-27.0432
-29.9084
-29.7604
-29.6419
-29.5054
-29.369
-29.2303
-29.0911
-28.9522
-28.814
-28.6768
-28.5407
-28.4061
-28.2735
-28.1435
-28.0164
-27.8924
-27.7724
-27.6567
-27.5459
-27.4407
-27.3417
-27.2497
-27.1651
-27.0887
-27.0216
-26.9644
-26.9181
-26.8835
-26.8614
-26.8527
-26.8584
-26.8795
-26.9168
-26.971
-27.0433
-27.1342
-27.2446
-27.3751
-27.5264
-27.6991
-27.8934
-28.1163
-28.3813
-31.8709
-31.7247
-31.6057
-31.4679
-31.3293
-31.1878
-31.0457
-30.9031
-30.7605
-30.6186
-30.4775
-30.3374
-30.1986
-30.0617
-29.927
-29.7951
-29.6666
-29.5414
-29.4204
-29.3041
-29.1932
-29.0883
-28.9902
-28.8992
-28.8164
-28.7423
-28.6782
-28.6246
-28.5824
-28.5525
-28.5356
-28.5329
-28.545
-28.5729
-28.6177
-28.6799
-28.7603
-28.8598
-28.9791
-29.1188
-29.2795
-29.4684
-29.7127
-33.8035
-33.6523
-33.5302
-33.3894
-33.247
-33.102
-32.9559
-32.8092
-32.6621
-32.5153
-32.369
-32.2232
-32.0787
-31.9355
-31.7936
-31.6541
-31.5172
-31.3832
-31.2526
-31.1261
-31.0041
-30.8872
-30.7763
-30.6717
-30.5742
-30.4845
-30.4038
-30.3323
-30.2714
-30.2214
-30.1835
-30.1584
-30.147
-30.1502
-30.169
-30.2039
-30.2559
-30.3259
-30.4146
-30.5222
-30.6493
-30.8029
-31.0218
-35.6591
-35.5139
-35.3947
-35.2541
-35.1113
-34.9649
-34.8164
-34.6671
-34.5167
-34.366
-34.2153
-34.0647
-33.9148
-33.7654
-33.6174
-33.4707
-33.3261
-33.184
-33.0446
-32.9083
-32.7761
-32.6481
-32.5251
-32.4077
-32.2964
-32.1923
-32.0957
-32.0078
-31.9292
-31.8603
-31.8026
-31.7567
-31.7232
-31.703
-31.6972
-31.7065
-31.7316
-31.7733
-31.8325
-31.909
-32.0027
-32.1222
-32.3137
-37.4996
-37.3507
-37.2274
-37.0837
-36.9375
-36.7879
-36.6364
-36.4836
-36.3296
-36.175
-36.02
-35.8647
-35.7096
-35.5547
-35.4006
-35.2473
-35.0955
-34.9457
-34.7979
-34.6526
-34.5104
-34.3721
-34.2381
-34.1086
-33.9845
-33.8667
-33.7555
-33.6519
-33.5566
-33.4703
-33.3939
-33.3282
-33.2737
-33.2315
-33.2028
-33.1878
-33.1876
-33.2029
-33.2346
-33.2831
-33.3472
-33.4345
-33.6451
-39.272
-39.1265
-39.0062
-38.8633
-38.7168
-38.5663
-38.413
-38.2576
-38.1009
-37.9431
-37.7842
-37.6247
-37.4646
-37.3047
-37.1449
-36.9855
-36.827
-36.6698
-36.5142
-36.3605
-36.2093
-36.0612
-35.9166
-35.7758
-35.6397
-35.5091
-35.3842
-35.266
-35.155
-35.0519
-34.958
-34.8737
-34.7996
-34.7367
-34.6861
-34.648
-34.6237
-34.6136
-34.6181
-34.6375
-34.6707
-34.7186
-34.8109
-41.0191
-40.8741
-40.7523
-40.6077
-40.4592
-40.3067
-40.1513
-39.9935
-39.8338
-39.6727
-39.5103
-39.3466
-39.1821
-39.0171
-38.8523
-38.6872
-38.5224
-38.3583
-38.1952
-38.0335
-37.8739
-37.7164
-37.5619
-37.4105
-37.2631
-37.1203
-36.9825
-36.8504
-36.7247
-36.6062
-36.4956
-36.3938
-36.3012
-36.2188
-36.1474
-36.0876
-36.0406
-36.0066
-35.9864
-35.9801
-35.9877
-36.0122
-36.0815
-42.7489
-42.5991
-42.4732
-42.3246
-42.1724
-42.0167
-41.8576
-41.6962
-41.5328
-41.3677
-41.2012
-41.0334
-40.8644
-40.6947
-40.5245
-40.3538
-40.183
-40.0124
-39.8424
-39.6733
-39.5054
-39.3392
-39.1752
-39.014
-38.8558
-38.7014
-38.5515
-38.4064
-38.267
-38.1337
-38.0074
-37.8889
-37.7789
-37.6781
-37.5871
-37.5069
-37.4386
-37.3823
-37.339
-37.3094
-37.2941
-37.2991
-37.3634
-44.4073
-44.2613
-44.139
-43.9923
-43.8404
-43.6839
-43.5234
-43.36
-43.1943
-43.0263
-42.8566
-42.685
-42.512
-42.3381
-42.1629
-41.9869
-41.8103
-41.6335
-41.4568
-41.2806
-41.1052
-40.9308
-40.758
-40.5873
-40.419
-40.2537
-40.0923
-39.935
-39.7824
-39.6351
-39.4941
-39.3598
-39.2333
-39.1149
-39.0056
-38.9061
-38.8173
-38.7398
-38.6743
-38.6216
-38.5825
-38.5641
-38.6089
-46.0431
-45.8978
-45.7747
-45.6266
-45.4737
-45.3158
-45.1539
-44.9887
-44.8207
-44.6501
-44.4774
-44.3026
-44.1259
-43.9479
-43.7684
-43.5875
-43.4057
-43.2231
-43.04
-42.857
-42.6744
-42.4923
-42.311
-42.1314
-41.9535
-41.7781
-41.6058
-41.4366
-41.2717
-41.1114
-40.9563
-40.8072
-40.665
-40.5298
-40.403
-40.2851
-40.1768
-40.0789
-39.992
-39.9168
-39.8541
-39.8096
-39.8261
-47.6673
-47.5173
-47.3904
-47.2396
-47.0835
-46.9223
-46.7574
-46.5891
-46.4178
-46.2441
-46.0679
-45.8895
-45.709
-45.5267
-45.3428
-45.1571
-44.9702
-44.782
-44.593
-44.4036
-44.2142
-44.0246
-43.8354
-43.6474
-43.4605
-43.2754
-43.0926
-42.9124
-42.7358
-42.5629
-42.3947
-42.2315
-42.0743
-41.9234
-41.78
-41.6444
-41.5175
-41.3999
-41.2924
-41.1952
-41.1086