/*--------------------------------*- C++ -*----------------------------------*\
| =========                 |                                                 |
| \\      /  F ield         | OpenFOAM: The Open Source CFD Toolbox           |
|  \\    /   O peration     | Version:  2.3.0                                 |
|   \\  /    A nd           | Web:      www.OpenFOAM.org                      |
|    \\/     M anipulation  |                                                 |
\*---------------------------------------------------------------------------*/
FoamFile
{
    version     2.0;
    format      ascii;
    class       surfaceScalarField;
    location    "2000";
    object      phi;
}
// * * * * * * * * * * * * * * * * * * * * * * * * * * * * * * * * * * * * * //

dimensions      [0 3 -1 0 0 0 0];

internalField   nonuniform List<scalar> 
76160
(
0.00100849
-0.0054503
0.00592142
-0.00147961
0.000577214
-0.00523788
0.00566915
0.000184392
-0.00503388
0.0054267
-0.000171265
-0.00483807
0.00519373
-0.000491731
-0.00464966
0.00497013
-0.000777712
-0.00446915
0.00475513
-0.00103137
-0.00429537
0.00454903
-0.0012537
-0.00412882
0.00435115
-0.00144619
-0.00396845
0.00416093
-0.00160997
-0.00381454
0.00397833
-0.00174627
-0.0036666
0.0038029
-0.00185618
-0.00352441
0.00363432
-0.00194118
-0.0033876
0.0034726
-0.00200187
-0.0032563
0.00331699
-0.00203927
-0.00312992
0.00316731
-0.00205458
-0.00300839
0.0030237
-0.00204889
-0.00289137
0.00288568
-0.00202251
-0.00277893
0.00275255
-0.00197633
-0.00267081
0.00262463
-0.00191127
-0.00256666
0.0025016
-0.00182805
-0.00246616
0.00238294
-0.0017268
-0.00236974
0.00226849
-0.00160816
-0.00227669
0.00215805
-0.00147282
-0.00218682
0.00205148
-0.00132083
-0.00210038
0.0019484
-0.00115244
-0.00201693
0.00184854
-0.000967874
-0.00193633
0.00175176
-0.000766993
-0.0018586
0.00165771
-0.000549836
-0.00178341
0.00156626
-0.000315927
-0.00171095
0.00147705
-6.48815e-05
-0.00164097
0.00138993
0.000203926
-0.00157355
0.00130474
0.000491395
-0.00150848
0.00122101
0.000798599
-0.00144608
0.00113887
0.00112677
-0.00138621
0.00105804
0.00147869
-0.0013298
0.000977875
0.00185661
-0.00127668
0.00089876
0.00226425
-0.00122739
0.000819762
0.0027063
-0.00118378
0.000741718
0.00318977
-0.00114612
0.000662655
0.00372671
-0.0011194
0.000582453
0.00434422
-0.0011082
0.000490691
-0.00112829
0.00515556
0.000316962
0.00094294
-0.00502218
-0.00137106
0.000550897
-0.00484583
0.000194024
-0.00467701
-0.000129921
-0.00451413
-0.000421555
-0.00435803
-0.000682943
-0.00420776
-0.000914839
-0.00406348
-0.00111873
-0.00392493
-0.0012956
-0.00379157
-0.00144676
-0.00366339
-0.00157315
-0.00354021
-0.0016759
-0.00342166
-0.00175575
-0.00330775
-0.00181408
-0.00319796
-0.00185143
-0.00309257
-0.00186894
-0.00299088
-0.0018671
-0.00289321
-0.00184708
-0.00279896
-0.00180958
-0.00270831
-0.001755
-0.00262124
-0.00168414
-0.00253701
-0.00159772
-0.00245616
-0.00149632
-0.00237809
-0.00138007
-0.00230307
-0.00124965
-0.0022308
-0.00110541
-0.00216117
-0.000947592
-0.00209414
-0.000776468
-0.00202972
-0.00059189
-0.00196799
-0.000394145
-0.0019087
-0.000182908
-0.00185221
4.17707e-05
-0.00179823
0.000280693
-0.0017474
0.000534515
-0.0016999
0.000804101
-0.00165579
0.00108986
-0.00161556
0.00139344
-0.00158026
0.00171661
-0.00155057
0.00205948
-0.00152664
0.00242456
-0.0015112
0.00280924
-0.00150408
0.00320884
-0.0015078
-0.00152374
0.00360428
0.000877356
-0.00463318
-0.00126636
0.000521407
-0.00448989
0.000196457
-0.00435206
-9.80511e-05
-0.00421962
-0.000364069
-0.00409201
-0.000602249
-0.00396958
-0.000814133
-0.00385159
-0.0010008
-0.00373827
-0.00116296
-0.00362941
-0.00130191
-0.00352444
-0.00141853
-0.00342358
-0.00151376
-0.00332643
-0.00158839
-0.00323312
-0.00164319
-0.00314316
-0.00167928
-0.00305647
-0.00169711
-0.00297305
-0.00169759
-0.00289273
-0.00168126
-0.00281529
-0.0016489
-0.00274066
-0.00160117
-0.00266898
-0.00153843
-0.00259975
-0.00146143
-0.00253315
-0.00137051
-0.00246901
-0.00126645
-0.00240714
-0.0011493
-0.00234795
-0.00101967
-0.0022908
-0.000877724
-0.00223609
-0.000723841
-0.0021836
-0.000558408
-0.00213343
-0.000381314
-0.00208579
-0.000193099
-0.00204042
6.53832e-06
-0.00199786
0.000217152
-0.00195801
0.000438524
-0.00192127
0.00067076
-0.00188803
0.0009136
-0.0018584
0.00116675
-0.00183341
0.00142925
-0.00181307
0.00170051
-0.0017979
0.0019788
-0.00178949
0.00226176
-0.00178705
0.00254574
-0.00179178
-0.00180243
0.00282444
0.000813459
-0.00427997
-0.00116666
0.000489757
-0.00416618
0.000194063
-0.00405636
-7.45264e-05
-0.00395103
-0.000317099
-0.00384944
-0.00053491
-0.00375177
-0.000728939
-0.00365756
-0.00089995
-0.00356726
-0.00104909
-0.00348027
-0.00117727
-0.00339626
-0.00128516
-0.00331569
-0.0013736
-0.003238
-0.00144381
-0.0031629
-0.00149617
-0.0030908
-0.0015312
-0.00302145
-0.00155012
-0.00295413
-0.0015531
-0.00288975
-0.00154118
-0.00282721
-0.00151461
-0.00276724
-0.00147411
-0.00270947
-0.00142032
-0.00265354
-0.0013538
-0.00259968
-0.00127475
-0.00254806
-0.00118354
-0.00249834
-0.00108098
-0.00245051
-0.000967293
-0.00240448
-0.000842693
-0.00236069
-0.000707616
-0.00231868
-0.000562259
-0.00227878
-0.000406986
-0.00224107
-0.000241936
-0.00220547
-6.74735e-05
-0.00217233
0.000116467
-0.00214196
0.00030937
-0.00211417
0.000510869
-0.00208953
0.000721089
-0.00206862
0.00093909
-0.00205141
0.0011648
-0.00203878
0.00139723
-0.00203033
0.00163485
-0.00202712
0.00187654
-0.00202874
0.00212046
-0.0020357
-0.00204694
0.00236497
0.000751807
-0.00395911
-0.00107266
0.000456869
-0.00387125
0.000187916
-0.00378741
-5.70095e-05
-0.00370611
-0.000278295
-0.00362816
-0.000477269
-0.0035528
-0.00065451
-0.00348032
-0.000811401
-0.00341037
-0.000948407
-0.00334326
-0.00106635
-0.00327832
-0.00116605
-0.00321599
-0.00124833
-0.00315572
-0.00131364
-0.00309759
-0.00136287
-0.00304157
-0.00139692
-0.00298741
-0.00141568
-0.00293537
-0.00142054
-0.00288489
-0.00141151
-0.00283624
-0.00138939
-0.00278936
-0.00135476
-0.0027441
-0.00130803
-0.00270027
-0.00124927
-0.00265844
-0.00117959
-0.00261774
-0.00109931
-0.00257862
-0.00100854
-0.00254128
-0.000907503
-0.00250552
-0.000796995
-0.0024712
-0.000677019
-0.00243866
-0.000547943
-0.00240786
-0.000410159
-0.00237885
-0.000263796
-0.00235184
-0.000109155
-0.00232697
5.319e-05
-0.0023043
0.000223374
-0.00228436
0.000401118
-0.00226727
0.00058569
-0.00225319
0.000776851
-0.00224257
0.000973997
-0.00223593
0.00117652
-0.00223285
0.00138359
-0.00223419
0.00159464
-0.00223979
0.00180832
-0.00224937
-0.00226218
0.00202356
0.000692767
-0.00366681
-0.000985069
0.000424897
-0.00360338
0.000179479
-0.00354199
-4.3598e-05
-0.00348303
-0.000245703
-0.00342605
-0.000427551
-0.00337095
-0.000589859
-0.00331801
-0.000733338
-0.00326689
-0.000859046
-0.00321756
-0.000967295
-0.00317007
-0.00105938
-0.0031239
-0.00113556
-0.00307954
-0.00119642
-0.00303673
-0.00124289
-0.0029951
-0.0012751
-0.0029552
-0.001294
-0.00291647
-0.0013
-0.00287888
-0.00129354
-0.00284271
-0.00127519
-0.00280771
-0.00124533
-0.00277396
-0.00120438
-0.00274123
-0.00115311
-0.00270971
-0.00109156
-0.00267929
-0.00102016
-0.00265003
-0.000939456
-0.00262198
-0.000849876
-0.0025951
-0.000751436
-0.00256964
-0.000644625
-0.00254547
-0.000529661
-0.00252282
-0.00040692
-0.00250159
-0.000276552
-0.0024822
-0.000138923
-0.0024646
5.89754e-06
-0.00244912
0.000157334
-0.00243579
0.000315202
-0.00242514
0.000479362
-0.00241735
0.000649078
-0.00241229
0.000824037
-0.00241088
0.00100396
-0.00241277
0.00118803
-0.00241826
0.00137568
-0.00242744
0.00156619
-0.00243987
-0.0024556
0.00175961
0.000637787
-0.00340108
-0.000903516
0.000393498
-0.00335909
0.000170114
-0.00331861
-3.35123e-05
-0.0032794
-0.000217957
-0.00324161
-0.000383712
-0.00320519
-0.000532112
-0.00316961
-0.000663698
-0.0031353
-0.000778904
-0.00310235
-0.000878635
-0.00307033
-0.000963378
-0.00303916
-0.00103376
-0.00300916
-0.00109028
-0.00298021
-0.00113343
-0.00295195
-0.00116406
-0.00292457
-0.00118262
-0.00289791
-0.00118924
-0.00287226
-0.00118459
-0.00284736
-0.00116926
-0.00282303
-0.00114343
-0.00279978
-0.00110763
-0.00277703
-0.0010621
-0.00275524
-0.00100747
-0.00273391
-0.000943977
-0.00271352
-0.000871973
-0.00269398
-0.000791901
-0.00267517
-0.000703972
-0.00265757
-0.000608383
-0.00264106
-0.000505542
-0.00262567
-0.000395568
-0.00261156
-0.000279021
-0.00259875
-0.000155766
-0.00258785
-2.62256e-05
-0.00257866
0.000109335
-0.00257135
0.000250694
-0.0025665
0.000397192
-0.00256385
0.00054931
-0.0025644
0.000705843
-0.00256742
0.00086679
-0.00257372
0.00103176
-0.00258323
0.00120001
-0.00259569
0.00137143
-0.00261129
-0.00262981
0.00154564
0.000585842
-0.00315876
-0.000828163
0.000363376
-0.00313662
0.000159621
-0.00311485
-2.58902e-05
-0.00309389
-0.000193966
-0.00307353
-0.000345536
-0.00305362
-0.000481114
-0.00303404
-0.000601384
-0.00301503
-0.000706951
-0.00299678
-0.000798518
-0.00297877
-0.000876354
-0.00296133
-0.000941146
-0.00294437
-0.000993573
-0.00292778
-0.00103383
-0.00291169
-0.00106259
-0.00289581
-0.0010803
-0.0028802
-0.00108724
-0.00286532
-0.00108398
-0.00285062
-0.00107095
-0.00283606
-0.00104878
-0.00282196
-0.00101703
-0.00280878
-0.000976847
-0.00279542
-0.000928122
-0.00278264
-0.000871294
-0.00277035
-0.000806965
-0.00275831
-0.000735144
-0.002747
-0.000656195
-0.00273652
-0.000570517
-0.00272673
-0.00047829
-0.00271789
-0.000379522
-0.00271033
-0.000274689
-0.00270358
-0.000164229
-0.00269831
-4.78163e-05
-0.00269507
7.40942e-05
-0.00269326
0.000200978
-0.00269338
0.000332817
-0.00269568
0.00046911
-0.0027007
0.000610127
-0.00270844
0.000754967
-0.00271856
0.000903029
-0.00273129
0.00105474
-0.0027474
0.00120975
-0.0027663
-0.0027872
0.00136714
0.000536989
-0.000756804
-0.00293895
0.000334648
-0.00293428
0.000149407
-0.00292961
-1.98701e-05
-0.00292461
-0.000173689
-0.00291971
-0.000311829
-0.00291548
-0.000435489
-0.00291038
-0.000545433
-0.00290509
-0.000642108
-0.00290011
-0.000725913
-0.00289496
-0.000797325
-0.00288991
-0.000857148
-0.00288455
-0.000905598
-0.00287933
-0.000943038
-0.00287425
-0.00096976
-0.00286909
-0.000986662
-0.0028633
-0.000994202
-0.00285778
-0.000991799
-0.00285302
-0.000980633
-0.00284723
-0.000960866
-0.00284172
-0.000933302
-0.00283634
-0.000897295
-0.00283143
-0.000853643
-0.00282629
-0.000802791
-0.0028212
-0.000745013
-0.00281609
-0.000680285
-0.00281172
-0.000609158
-0.00280765
-0.00053185
-0.00280404
-0.000448882
-0.00280086
-0.000360057
-0.00279916
-0.000265718
-0.00279792
-0.000166065
-0.00279796
-6.10084e-05
-0.00280013
4.90873e-05
-0.00280336
0.000163328
-0.00280762
0.000282057
-0.00281441
0.000405057
-0.0028237
0.000532112
-0.00283549
0.000662459
-0.00284891
0.000796332
-0.00286516
0.000933024
-0.00288409
0.00107295
-0.00290623
0.00121656
-0.0029308
0.00542495
-0.00123402
0.000964625
0.00563494
-0.00139632
0.00118633
0.00580357
-0.00153209
0.00136345
0.00594706
-0.00165015
0.00150666
0.00607503
-0.00175435
0.00162638
0.00619055
-0.00184695
0.00173143
0.00629789
-0.00193208
0.00182474
0.00639882
-0.00201268
0.00191176
0.00649457
-0.00208913
0.00199338
0.00658581
-0.00216357
0.00207233
0.00667271
-0.00223688
0.00214999
0.00675597
-0.00231062
0.00222735
0.00683429
-0.00238464
0.00230632
0.00690732
-0.0024597
0.00238667
0.00697408
-0.00253629
0.00246953
0.00703321
-0.00261454
0.00255541
0.00708413
-0.00269521
0.0026443
0.00712567
-0.00277828
0.00273674
0.00715577
-0.00286334
0.00283325
0.007174
-0.00295175
0.00293352
0.00717863
-0.00304261
0.00303797
0.00716911
-0.00313703
0.00314656
0.0071439
-0.00323447
0.00325967
0.00710205
-0.00333516
0.00337701
0.00704241
-0.00343979
0.00349944
0.00696416
-0.00354794
0.00362618
0.0068663
-0.00366023
0.0037581
0.00674767
-0.00377645
0.00389507
0.00660736
-0.00389701
0.00403733
0.00644453
-0.00402191
0.00418474
0.00625812
-0.00415176
0.00433817
0.0060471
-0.00428616
0.00449717
0.00581067
-0.00442582
0.00466225
0.00554805
-0.00457092
0.00483353
0.00525749
-0.00472084
0.0050114
0.00493851
-0.00487704
0.00519602
0.00458999
-0.00503896
0.00538749
0.00421048
-0.00520674
0.00558624
0.00379937
-0.00538137
0.00579249
0.00335489
-0.0055621
0.00600657
0.00287641
-0.00575008
0.00622857
0.00236184
-0.00594481
0.00645938
-0.00614723
0.00669836
0.00181071
0.00394744
-0.00157719
0.00421792
-0.00166679
0.00444056
-0.00175473
0.00463252
-0.00184211
0.0048026
-0.00192443
0.00496044
-0.00200479
0.00510922
-0.00208087
0.00525041
-0.00215387
0.00538668
-0.0022254
0.0055175
-0.0022944
0.00564272
-0.0023621
0.00576134
-0.00242923
0.00587303
-0.00249634
0.00597648
-0.00256315
0.00607095
-0.00263076
0.00615535
-0.00269894
0.0062289
-0.00276877
0.00629063
-0.00284001
0.00633969
-0.00291241
0.00637519
-0.00298724
0.00639652
-0.00306394
0.00640272
-0.00314324
0.00639321
-0.00322495
0.00636716
-0.00330911
0.00632386
-0.00339649
0.00626245
-0.00348654
0.00618235
-0.00358013
0.00608272
-0.00367682
0.00596277
-0.00377705
0.00582192
-0.00388107
0.00565921
-0.00398904
0.00547382
-0.00410077
0.00526485
-0.00421685
0.00503107
-0.00433713
0.00477234
-0.00446211
0.00448706
-0.00459176
0.00417429
-0.00472619
0.00383352
-0.00486597
0.00346281
-0.00501066
0.00306207
-0.00516136
0.00262939
-0.0053174
0.00216417
-0.00547959
-0.00564815
0.0016651
0.00309055
-0.0018433
0.003336
-0.00191223
0.00356425
-0.00198298
0.00377573
-0.00205359
0.00397484
-0.00212354
0.00416125
-0.0021912
0.00433702
-0.00225664
0.00450293
-0.00231978
0.00465888
-0.00238135
0.00480552
-0.00244104
0.00494328
-0.00249986
0.00507128
-0.00255723
0.00518951
-0.00261457
0.00529799
-0.00267163
0.00539606
-0.00272883
0.00548351
-0.00278639
0.00555952
-0.00284477
0.00562322
-0.00290372
0.00567544
-0.00296463
0.0057143
-0.0030261
0.00574006
-0.00308969
0.00575166
-0.00315484
0.00574856
-0.00322185
0.0057305
-0.00329105
0.00569625
-0.00336223
0.00564604
-0.00343633
0.00557816
-0.00351225
0.00549265
-0.00359131
0.0053887
-0.0036731
0.00526551
-0.00375788
0.00512203
-0.00384556
0.00495772
-0.00393645
0.0047718
-0.00403093
0.00456347
-0.00412881
0.00433187
-0.00423052
0.0040759
-0.00433579
0.00379494
-0.00444523
0.00348793
-0.00455895
0.00315401
-0.00467675
0.00279193
-0.00479928
0.00240077
-0.00492624
0.00197935
-0.00505817
-0.00519503
0.00152623
0.00260237
-0.00208071
0.00282722
-0.00213708
0.0030396
-0.00219536
0.00324022
-0.00225421
0.00342917
-0.00231249
0.00360767
-0.0023697
0.00377665
-0.00242562
0.00393633
-0.00247945
0.0040872
-0.00253222
0.00422936
-0.00258319
0.00436227
-0.00263277
0.00448662
-0.00268159
0.00460188
-0.00272983
0.00470752
-0.00277727
0.00480355
-0.00282485
0.00488973
-0.00287257
0.00496521
-0.00292026
0.00502989
-0.00296839
0.00508289
-0.00301763
0.00512417
-0.00306737
0.00515289
-0.00311841
0.00516878
-0.00317074
0.00517116
-0.00322424
0.00515938
-0.00327927
0.0051333
-0.00333616
0.00509183
-0.00339485
0.00503479
-0.00345521
0.00496136
-0.00351788
0.00487074
-0.00358248
0.00476247
-0.00364962
0.00463567
-0.00371876
0.00449009
-0.00379087
0.00432434
-0.00386518
0.00413829
-0.00394276
0.00393054
-0.00402277
0.00370092
-0.00410617
0.00344831
-0.00419262
0.0031717
-0.00428234
0.00287042
-0.00437547
0.00254319
-0.00447204
0.00218962
-0.00457267
0.00180823
-0.00467678
-0.00478499
0.00139818
0.00223546
-0.00229262
0.00243883
-0.00234045
0.00263302
-0.00238954
0.00281833
-0.00243952
0.00299475
-0.00248891
0.00316252
-0.00253746
0.00332209
-0.00258519
0.00347343
-0.00263079
0.0036161
-0.00267489
0.00375097
-0.00271807
0.00387772
-0.00275952
0.003996
-0.00279987
0.00410576
-0.00283959
0.00420689
-0.0028784
0.00429859
-0.00291655
0.004381
-0.00295498
0.00445344
-0.00299269
0.00451599
-0.00303095
0.00456776
-0.0030694
0.00460884
-0.00310845
0.00463838
-0.00314795
0.00465592
-0.00318828
0.00466133
-0.00322964
0.00465398
-0.00327193
0.00463323
-0.0033154
0.00459847
-0.00336009
0.00454952
-0.00340626
0.00448534
-0.0034537
0.00440573
-0.00350288
0.00430994
-0.00355382
0.00419747
-0.0036063
0.00406743
-0.00366083
0.00391962
-0.00371737
0.00375283
-0.00377596
0.00356648
-0.00383642
0.00336001
-0.0038997
0.00313244
-0.00396506
0.00288302
-0.00403293
0.002611
-0.00410345
0.00231572
-0.00417676
0.00199571
-0.00425266
0.0016507
-0.00433177
-0.00441362
0.00127933
0.00195064
-0.00248365
0.00213486
-0.00252467
0.00231194
-0.00256663
0.0024815
-0.00260907
0.00264409
-0.0026515
0.00279909
-0.00269247
0.00294634
-0.00273244
0.00308675
-0.00277121
0.00321993
-0.00280806
0.00334529
-0.00284344
0.0034635
-0.00287773
0.00357397
-0.00291034
0.00367665
-0.00294227
0.00377114
-0.00297288
0.00385739
-0.0030028
0.00393462
-0.00303222
0.00400347
-0.00306154
0.00406271
-0.00309019
0.00411238
-0.00311907
0.00415193
-0.003148
0.00418116
-0.00317717
0.00419936
-0.00320648
0.00420665
-0.00323694
0.00420194
-0.00326721
0.00418525
-0.00329872
0.00415599
-0.00333083
0.00411371
-0.00336398
0.00405762
-0.0033976
0.0039875
-0.00343276
0.00390254
-0.00346885
0.00380239
-0.00350615
0.00368621
-0.00354466
0.00355347
-0.00358463
0.00340357
-0.00362606
0.00323627
-0.00366912
0.00305024
-0.00371366
0.00284507
-0.00375988
0.00262014
-0.003808
0.0023743
-0.00385762
0.00210712
-0.00390958
0.00181775
-0.00396329
0.00150528
-0.0040193
-0.00407722
0.00116887
0.00171824
-0.00265626
0.00188505
-0.00269148
0.00204626
-0.00272784
0.00220122
-0.00276403
0.00234963
-0.00279991
0.00249192
-0.00283476
0.00262764
-0.00286816
0.00275684
-0.00290041
0.00287943
-0.00293065
0.00299549
-0.0029595
0.00310457
-0.00298681
0.00320696
-0.00301273
0.00330203
-0.00303734
0.00338974
-0.0030606
0.00346983
-0.0030829
0.00354214
-0.00310453
0.00360604
-0.00312544
0.0036616
-0.00314575
0.00370841
-0.00316588
0.0037459
-0.00318549
0.00377428
-0.00320555
0.00379273
-0.00322493
0.00380056
-0.00324477
0.0037983
-0.00326495
0.00378465
-0.00328507
0.00375965
-0.00330583
0.00372245
-0.00332678
0.00367328
-0.00334843
0.00361087
-0.00337035
0.00353509
-0.00339307
0.0034453
-0.00341637
0.00334135
-0.0034407
0.00322227
-0.00346555
0.00308756
-0.00349135
0.0029367
-0.00351826
0.00276911
-0.00354608
0.00258402
-0.00357479
0.00238058
-0.00360456
0.00215862
-0.00363565
0.00191706
-0.00366802
0.00165513
-0.00370136
0.00137186
-0.00373603
-0.00377243
0.00106707
0.00152369
-0.00281281
0.00167511
-0.0028429
0.00182158
-0.0028743
0.00196239
-0.00290485
0.00209811
-0.00293562
0.002228
-0.00296465
0.0023524
-0.00299256
0.00247078
-0.00301879
0.0025833
-0.00304317
0.00268998
-0.00306618
0.00279042
-0.00308725
0.00288462
-0.00310693
0.00297228
-0.003125
0.00305302
-0.00314134
0.00312708
-0.00315695
0.00319385
-0.00317129
0.00325318
-0.00318477
0.00330492
-0.0031975
0.00334852
-0.00320948
0.00338407
-0.00322105
0.00341083
-0.00323231
0.00342871
-0.00324281
0.00343723
-0.0032533
0.00343602
-0.00326373
0.00342493
-0.00327397
0.00340331
-0.00328422
0.0033707
-0.00329417
0.00332694
-0.00330467
0.00327141
-0.00331482
0.00320369
-0.00332535
0.00312323
-0.00333591
0.00302966
-0.00334713
0.00292256
-0.00335845
0.0028015
-0.0033703
0.00266533
-0.00338209
0.00251401
-0.00339475
0.00234675
-0.00340753
0.00216318
-0.00342099
0.00196225
-0.00343472
0.00174335
-0.00344912
0.00150613
-0.00346413
0.00124963
-0.00347953
-0.00349611
0.000973307
0.00135732
-0.00295357
0.00149498
-0.00298056
0.00162789
-0.00300721
0.00175633
-0.0030333
0.00187997
-0.00305926
0.0019982
-0.00308288
0.00211135
-0.00310571
0.00222056
-0.003128
0.00232382
-0.00314643
0.00242117
-0.00316353
0.00251328
-0.00317936
0.00259991
-0.00319356
0.00268021
-0.00320529
0.00275454
-0.00321568
0.00282243
-0.00322484
0.00288407
-0.00323294
0.00293881
-0.0032395
0.0029866
-0.00324529
0.00302723
-0.00325011
0.00306048
-0.0032543
0.00308542
-0.00325724
0.00310237
-0.00325976
0.00311096
-0.00326188
0.00311072
-0.0032635
0.00310145
-0.0032647
0.00308248
-0.00326525
0.00305393
-0.00326562
0.00301486
-0.00326561
0.0029652
-0.00326515
0.00290425
-0.00326441
0.0028322
-0.00326385
0.00274812
-0.00326305
0.00265171
-0.00326204
0.00254187
-0.00326046
0.00241926
-0.00325948
0.00228259
-0.00325808
0.00213162
-0.00325655
0.00196523
-0.00325461
0.00178342
-0.00325292
0.0015853
-0.003251
0.00137026
-0.00324909
0.00113779
-0.00324706
0.00088684
-0.00324515
-0.000151852
0.00622451
-0.00677868
0.00070602
0.000360298
0.00600229
-0.00651444
0.000832629
0.00578845
-0.00626078
0.00126628
0.00558284
-0.00601649
0.00166285
0.00538475
-0.00578132
0.00202254
0.00519454
-0.00555423
0.00234873
0.00501038
-0.00533657
0.00264131
0.00483345
-0.00512603
0.00290131
0.00466309
-0.00492309
0.00313028
0.00449826
-0.00472723
0.00332911
0.00433951
-0.00453834
0.00349883
0.00418578
-0.0043555
0.00363987
0.00403721
-0.00417825
0.00375363
0.00389329
-0.00400706
0.00384083
0.00375329
-0.00384049
0.00390182
0.00361777
-0.00367877
0.00393749
0.00348566
-0.00352133
0.00394881
0.00335745
-0.00336877
0.00393707
0.00323138
-0.00321965
0.00390238
0.0031093
-0.0030746
0.00384589
0.00298946
-0.00293298
0.00376894
0.00287213
-0.00279517
0.0036724
0.00275744
-0.0026609
0.00355745
0.00264499
-0.00253003
0.00342535
0.00253461
-0.00240252
0.00327768
0.00242647
-0.0022788
0.00311576
0.00232001
-0.00215809
0.00294096
0.002216
-0.00204119
0.00275464
0.00211369
-0.00192737
0.00255854
0.00201298
-0.00181688
0.0023542
0.00191425
-0.00170991
0.00214374
0.00181693
-0.00160646
0.00192785
0.00172103
-0.00150514
0.00170877
0.00162672
-0.00140764
0.00148818
0.00153306
-0.00131247
0.00126816
0.00143955
-0.00121953
0.00105002
0.00134654
-0.00112839
0.000836402
0.00125246
-0.00103884
0.000629166
0.00115587
-0.000948633
0.000431744
0.00105436
-0.000856935
0.000247263
0.000943881
-0.0007594
7.44138e-05
0.000820157
-0.000647307
0.000719235
-0.000142258
-0.000502563
-0.000144181
0.00572253
0.000646166
0.000319847
0.00553827
0.000747243
0.00536106
0.00113964
0.00519044
0.00149846
0.00502593
0.0018249
0.00486809
0.00211961
0.00471567
0.0023843
0.00456876
0.00262003
0.00442736
0.00282757
0.00429072
0.00300822
0.00415886
0.0031623
0.00403169
0.00329109
0.00390842
0.00339564
0.00378873
0.00347594
0.00367299
0.00353324
0.00356047
0.00356824
0.00345066
0.00358175
0.00334394
0.00357351
0.00323961
0.00354546
0.00313736
0.00349784
0.00303708
0.00343156
0.0029384
0.00334718
0.00284182
0.00324608
0.00274608
0.00312896
0.00265173
0.00299722
0.00255821
0.00285125
0.00246598
0.00269324
0.00237401
0.00252395
0.00228298
0.00234473
0.00219219
0.00215685
0.00210214
0.00196215
0.00201162
0.00176154
0.00192165
0.00155774
0.00183052
0.00135155
0.00173925
0.00114445
0.00164664
0.000938983
0.00155201
0.000737297
0.00145414
0.000541638
0.00135153
0.000355543
0.00124045
0.000181462
0.00111796
1.58837e-05
0.000985735
0.000918809
-0.000183691
-0.000136373
0.00526813
0.000590774
0.000283953
0.00511794
0.000671323
0.00497369
0.00102677
0.004835
0.00135143
0.00470127
0.00164713
0.00457239
0.00191426
0.00444854
0.00215403
0.00432899
0.0023674
0.00421398
0.00255555
0.00410257
0.00271932
0.0039951
0.00285936
0.00389165
0.00297689
0.0037909
0.003072
0.00369362
0.00314571
0.00359928
0.00319879
0.00350739
0.00323145
0.00341801
0.00324499
0.0033304
0.00323994
0.00324465
0.00321629
0.00316101
0.00317511
0.00307826
0.00311716
0.00299635
0.00304316
0.00291583
0.00295328
0.00283597
0.00284879
0.00275622
0.00273061
0.00267639
0.00259949
0.0025971
0.00245646
0.00251704
0.00230273
0.00243671
0.00213901
0.00235591
0.00196732
0.00227383
0.00178843
0.00219051
0.00160385
0.00210622
0.00141479
0.00201959
0.00122341
0.00193063
0.00103102
0.00183903
0.000839563
0.00174347
0.000651029
0.00164268
0.000468553
0.001534
0.000294681
0.00141432
0.000131977
0.00128067
-2.55246e-05
0.00114324
0.00110762
-0.000214337
-0.0001282
0.0048557
0.00054063
0.000252572
0.00473717
0.000603403
0.00462286
0.000925717
0.00451268
0.00121988
0.00440711
0.0014873
0.00430497
0.0017296
0.00420624
0.00194663
0.00411196
0.00214013
0.00402049
0.00231067
0.00393203
0.00245916
0.00384661
0.00258624
0.00376457
0.00269266
0.00368448
0.00277907
0.00360721
0.00284627
0.00353208
0.00289508
0.00345858
0.00292571
0.00338737
0.0029389
0.00331722
0.00293487
0.00324868
0.00291487
0.00318102
0.00287907
0.00311405
0.0028275
0.00304792
0.00276138
0.00298194
0.00268161
0.00291573
0.00258835
0.00284948
0.00248205
0.00278269
0.00236421
0.00271494
0.00223503
0.00264622
0.00209572
0.00257602
0.00194725
0.00250437
0.00179089
0.00243019
0.00162702
0.00235438
0.00145785
0.0022754
0.00128448
0.00219295
0.0011077
0.00210742
0.000930204
0.00201653
0.000753132
0.00192054
0.000578929
0.00181688
0.000409853
0.00170308
0.000248732
0.00157545
9.77743e-05
0.00143162
-5.02025e-05
0.00129121
0.00128231
-0.000224888
-0.000120243
0.00448233
0.000493615
0.000224803
0.00439212
0.000542987
0.00430467
0.000834868
0.0042208
0.00110167
0.0041403
0.00134468
0.00406197
0.00156355
0.00398736
0.00176072
0.0039148
0.00193603
0.00384518
0.00209074
0.00377732
0.00222496
0.00371238
0.00234043
0.0036491
0.00243696
0.00358795
0.00251587
0.00352831
0.00257721
0.00347073
0.00262173
0.00341407
0.00264993
0.00335916
0.00266265
0.00330451
0.00265993
0.0032514
0.00264261
0.00319834
0.00261097
0.0031457
0.00256557
0.00309332
0.00250702
0.0030405
0.00243556
0.00298719
0.00235198
0.00293306
0.00225653
0.00287813
0.00215024
0.00282123
0.00203332
0.00276314
0.00190733
0.00270201
0.00177268
0.00263903
0.00162991
0.00257296
0.00148083
0.00250346
0.0013262
0.00243003
0.00116698
0.00235216
0.00100518
0.00226922
0.000841798
0.00217991
0.000678808
0.00208353
0.000518011
0.00197768
0.000362146
0.00185895
0.000213538
0.00172405
7.38542e-05
0.00157131
-6.37303e-05
0.0014288
0.00144328
-0.000224703
-0.000112519
0.00414355
0.000451291
0.000200908
0.0040787
0.000489081
0.0040165
0.00075368
0.00395621
0.000995641
0.00389834
0.00121565
0.00384196
0.00141458
0.00378843
0.0015932
0.00373618
0.00175242
0.00368596
0.00189221
0.00363752
0.00201446
0.00359014
0.00211894
0.00354462
0.00220678
0.00350011
0.00227849
0.0034566
0.00233422
0.003415
0.00237492
0.00337338
0.00240127
0.00333281
0.00241297
0.00329281
0.00241112
0.00325324
0.00239628
0.00321318
0.00236813
0.00317385
0.00232753
0.00313392
0.00227544
0.00309258
0.00221149
0.00305114
0.00213622
0.00300833
0.00205069
0.00296367
0.00195485
0.00291707
0.00184975
0.00286825
0.0017355
0.00281626
0.00161311
0.00276141
0.00148348
0.0027026
0.00134744
0.0026395
0.0012062
0.00257127
0.00106067
0.00249769
0.000912265
0.00241762
0.000762623
0.00232955
0.000612757
0.00223339
0.000465308
0.00212513
0.000321612
0.00200264
0.000184792
0.00186087
5.57279e-05
0.00170037
-7.16344e-05
0.00155616
0.00159156
-0.000219914
-0.000104948
0.00383601
0.00041249
0.000179062
0.00379469
0.000440838
0.00375472
0.000680947
0.0037161
0.000900464
0.00367882
0.00109971
0.00364272
0.00128043
0.0036077
0.00144221
0.0035744
0.00158637
0.0035418
0.00171407
0.00350982
0.0018247
0.0034795
0.0019198
0.00344952
0.00199943
0.00342048
0.00206432
0.00339171
0.00211546
0.00336386
0.00215232
0.00333652
0.00217623
0.0033089
0.00218769
0.00328135
0.00218628
0.00325465
0.00217274
0.00322671
0.00214802
0.00319857
0.00211222
0.00316972
0.00206524
0.00313956
0.00200795
0.00310843
0.00194083
0.00307545
0.00186353
0.00304096
0.00177703
0.00300357
0.00168187
0.00296341
0.00157861
0.00291952
0.00146743
0.0028726
0.00134974
0.00282028
0.00122618
0.00276306
0.00109719
0.00270026
0.000964412
0.00263047
0.000828839
0.0025532
0.000691482
0.00246691
0.000555215
0.00236966
0.000420185
0.00226016
0.000288625
0.0021342
0.000162497
0.001987
4.38221e-05
0.00181905
-7.49656e-05
0.00167495
0.00172849
-0.000211895
-9.76181e-05
0.00355729
0.000376339
0.00015987
0.0035372
0.000397411
0.00351718
0.000615231
0.00349828
0.000814567
0.00347949
0.000995557
0.00346173
0.0011592
0.00344406
0.00130641
0.00342719
0.00143764
0.00341058
0.00155268
0.00339477
0.00165345
0.00337873
0.00173949
0.00336349
0.0018119
0.00334806
0.00187097
0.00333264
0.00191719
0.00331764
0.00195133
0.00330238
0.00197333
0.0032869
0.00198316
0.00327152
0.00198265
0.00325517
0.00197093
0.00323843
0.00194866
0.00322085
0.00191615
0.00320223
0.00187397
0.00318174
0.00182243
0.00315997
0.00176161
0.00313628
0.00169222
0.00311035
0.00161423
0.00308156
0.00152831
0.00304933
0.00143438
0.00301344
0.00133382
0.00297317
0.00122691
0.00292718
0.00111403
0.00287595
0.000996537
0.00281775
0.000875199
0.00275181
0.000751116
0.00267728
0.000626322
0.0025917
0.00050144
0.00249454
0.000378775
0.00238282
0.000258892
0.00225408
0.00014253
0.00210336
3.21909e-05
0.00192938
-7.93085e-05
0.00178645
0.00185385
-0.000204669
-9.07204e-05
0.000343784
0.00330423
0.00014355
0.00330293
0.000358884
0.00330185
0.000556516
0.00330064
0.000737225
0.00329878
0.000901694
0.00329726
0.00104998
0.00329577
0.00118356
0.00329362
0.00130214
0.00329199
0.00140727
0.00328964
0.00149853
0.00328747
0.00157695
0.00328507
0.00164262
0.00328239
0.00169605
0.00327922
0.0017382
0.00327549
0.00176919
0.00327139
0.00178934
0.00326675
0.00179931
0.00326155
0.0017985
0.00325597
0.00178833
0.0032486
0.00176841
0.00324077
0.00173953
0.00323111
0.00170157
0.0032197
0.00165502
0.00320651
0.00160072
0.00319058
0.00153867
0.0031724
0.00146854
0.00315168
0.0013908
0.00312707
0.00130626
0.00309799
0.00121509
0.00306433
0.00111782
0.00302445
0.00101593
0.00297784
0.000909488
0.00292419
0.000797832
0.00286347
0.0006842
0.00279091
0.000569829
0.00270607
0.000456673
0.0026077
0.000347037
0.00249246
0.000238502
0.00236262
0.000129121
0.00221275
3.20291e-05
0.00202648
-7.62525e-05
0.00189473
-0.000193958
0.00197156
-0.000356298
0.000902127
-0.000688087
-0.000587323
0.00105708
-0.000826057
-0.000822944
0.00115132
-0.000915704
-0.00105813
0.00122287
-0.000987686
-0.00129021
0.00128504
-0.00105295
-0.00151792
0.00134338
-0.00111567
-0.0017401
0.00139973
-0.00117755
-0.00195644
0.00145608
-0.00123974
-0.00216589
0.00151221
-0.00130276
-0.00236807
0.00156933
-0.00136714
-0.00256254
0.00162803
-0.00143356
-0.00274867
0.00168824
-0.00150211
-0.00292593
0.00174999
-0.00157273
-0.00309428
0.00181457
-0.00164623
-0.00325251
0.00188063
-0.0017224
-0.00340074
0.00194978
-0.00180155
-0.00353807
0.00202142
-0.00188409
-0.00366414
0.0020958
-0.00196973
-0.00377804
0.0021731
-0.0020592
-0.00387929
0.00225346
-0.00215221
-0.00396725
0.00233754
-0.00224958
-0.00404147
0.002425
-0.00235079
-0.00410075