/*--------------------------------*- C++ -*----------------------------------*\
| =========                 |                                                 |
| \\      /  F ield         | OpenFOAM: The Open Source CFD Toolbox           |
|  \\    /   O peration     | Version:  2.3.0                                 |
|   \\  /    A nd           | Web:      www.OpenFOAM.org                      |
|    \\/     M anipulation  |                                                 |
\*---------------------------------------------------------------------------*/
FoamFile
{
    version     2.0;
    format      ascii;
    class       volScalarField;
    location    "4000";
    object      nuTilda;
}
// * * * * * * * * * * * * * * * * * * * * * * * * * * * * * * * * * * * * * //

dimensions      [0 2 -1 0 0 0 0];

internalField   nonuniform List<scalar> 
37738
(
0.0470719
0.0453979
0.0437562
0.0421435
0.0405601
0.0390066
0.0374847
0.0359974
0.034549
0.0331446
0.0317869
0.0304768
0.0292059
0.0279636
0.0267476
0.0255621
0.0244106
0.0232968
0.0222218
0.021185
0.0201856
0.0192174
0.0182755
0.0173545
0.0164516
0.0155648
0.0146941
0.0138397
0.0129999
0.0121756
0.0113654
0.0105693
0.00979031
0.00902917
0.00829014
0.00757843
0.00690111
0.00626323
0.00567269
0.0051345
0.00465682
0.00426783
0.0040926
0.0490727
0.0476047
0.0461571
0.0447307
0.0433267
0.0419448
0.0405846
0.0392468
0.0379323
0.0366414
0.035376
0.0341356
0.0329209
0.0317302
0.0305639
0.0294228
0.0283099
0.0272264
0.0261758
0.0251616
0.0241861
0.0232525
0.022358
0.0214931
0.0206471
0.0198173
0.0190048
0.018212
0.0174397
0.0166901
0.0159642
0.0152629
0.0145885
0.0139433
0.013332
0.0127626
0.0122503
0.0118221
0.0115152
0.0113616
0.0113511
0.0114755
0.0117511
0.0509041
0.049605
0.0483215
0.0470555
0.0458073
0.0445764
0.0433622
0.0421649
0.0409838
0.0398192
0.0386715
0.0375408
0.0364275
0.0353326
0.0342561
0.0331989
0.032162
0.0311465
0.0301529
0.0291827
0.0282367
0.027316
0.0264211
0.0255502
0.0247032
0.0238815
0.0230849
0.0223152
0.0215763
0.0208708
0.0202025
0.0195747
0.0189937
0.018464
0.0179925
0.0175881
0.0172577
0.0170114
0.0168609
0.0168123
0.0168744
0.01705
0.0173382
0.0525676
0.0514121
0.050269
0.0491399
0.0480249
0.0469237
0.0458361
0.0447613
0.0436988
0.042648
0.0416085
0.0405808
0.0395654
0.0385633
0.037574
0.0365999
0.0356406
0.0346981
0.0337726
0.0328654
0.0319775
0.0311104
0.0302639
0.0294393
0.028638
0.0278603
0.0271093
0.0263856
0.0256934
0.0250346
0.0244144
0.0238368
0.0233054
0.0228271
0.0224078
0.0220536
0.0217724
0.021572
0.0214579
0.0214381
0.0215176
0.0216985
0.0219819
0.0540759
0.0530424
0.0520195
0.0510071
0.0500056
0.049015
0.0480352
0.0470653
0.0461044
0.0451516
0.044207
0.0432697
0.0423404
0.0414194
0.040508
0.0396064
0.0387158
0.0378379
0.0369723
0.0361214
0.0352865
0.034469
0.0336693
0.0328896
0.0321307
0.031395
0.0306835
0.0299992
0.029344
0.0287226
0.0281373
0.0275936
0.0270958
0.0266487
0.0262588
0.0259329
0.0256767
0.0254971
0.0254005
0.0253924
0.0254769
0.0256573
0.0259334
0.055437
0.054512
0.0535925
0.05268
0.0517753
0.0508782
0.0499891
0.0491079
0.0482335
0.0473648
0.0465012
0.0456421
0.0447875
0.0439375
0.0430926
0.0422536
0.0414225
0.0406002
0.0397864
0.0389835
0.0381931
0.0374174
0.0366572
0.0359143
0.0351911
0.0344893
0.0338111
0.0331579
0.0325327
0.0319394
0.0313812
0.0308632
0.0303891
0.0299644
0.0295956
0.0292877
0.0290478
0.0288811
0.0287942
0.0287917
0.0288776
0.0290556
0.0293244
0.056669
0.0558375
0.0550065
0.0541793
0.0533574
0.0525398
0.0517261
0.0509197
0.050119
0.0493216
0.048527
0.0477355
0.0469456
0.0461573
0.0453699
0.0445844
0.0438042
0.0430299
0.042262
0.0415006
0.0407472
0.0400055
0.0392788
0.0385669
0.0378716
0.0371963
0.0365444
0.0359179
0.0353168
0.0347453
0.0342086
0.0337101
0.033254
0.0328465
0.0324931
0.0321992
0.0319708
0.0318137
0.0317331
0.0317338
0.0318197
0.0319935
0.0322571
0.0577892
0.0570351
0.0562791
0.0555236
0.0547736
0.0540253
0.0532725
0.0525284
0.0517906
0.0510547
0.0503165
0.0495829
0.0488491
0.0481153
0.0473796
0.0466404
0.0459011
0.0451694
0.0444421
0.0437186
0.0429972
0.0422815
0.0415823
0.0408981
0.0402262
0.0395698
0.0389372
0.0383327
0.0377546
0.0371987
0.0366787
0.0361968
0.0357565
0.0353597
0.0350185
0.0347353
0.0345158
0.034367
0.034292
0.0342949
0.0343809
0.0345506
0.0348088
0.0588186
0.0581219
0.0574305
0.0567289
0.0560372
0.0553594
0.0546522
0.0539575
0.0532671
0.0525897
0.0518947
0.0512133
0.0505234
0.049835
0.0491488
0.0484592
0.0477449
0.0470466
0.0463543
0.045667
0.0449855
0.0442812
0.0436025
0.0429446
0.0423007
0.041658
0.0410336
0.0404393
0.0398933
0.0393478
0.0388444
0.0383719
0.0379536
0.0375582
0.037228
0.0369536
0.03674
0.0365985
0.0365317
0.0365328
0.0366243
0.036784
0.0370435
0.00487878
0.00632514
0.00734393
0.00839217
0.00951023
0.0106888
0.0119175
0.0131847
0.0144807
0.0158024
0.0171439
0.0185024
0.019875
0.0212618
0.0226617
0.0240734
0.0254969
0.0269318
0.0283782
0.0298353
0.0313032
0.0327818
0.0342709
0.0357704
0.0372799
0.0387992
0.0403284
0.0418673
0.0434152
0.0449722
0.0465378
0.0481115
0.0496927
0.0512812
0.0528761
0.0544769
0.0560829
0.0576933
0.0593075
0.0609247
0.0625439
0.0641644
0.0657909
0.0121862
0.0127745
0.0134872
0.0143129
0.0152404
0.0162543
0.0173387
0.0184804
0.0196682
0.0208929
0.0221469
0.0234251
0.024722
0.0260348
0.0273612
0.0286985
0.0300447
0.0313998
0.0327623
0.0341313
0.0355063
0.0368872
0.0382739
0.039666
0.0410629
0.0424645
0.0438711
0.0452826
0.0466984
0.0481186
0.0495432
0.0509717
0.0524038
0.0538393
0.0552779
0.0567193
0.0581631
0.059609
0.0610566
0.0625057
0.0639553
0.0654051
0.0668563
0.0177374
0.0182504
0.0188771
0.0196091
0.0204347
0.021344
0.0223257
0.0233679
0.024459
0.0255915
0.0267582
0.0279516
0.0291661
0.030398
0.0316435
0.0328997
0.0341645
0.0354358
0.0367129
0.0379943
0.039279
0.0405664
0.0418565
0.0431486
0.0444423
0.0457373
0.0470339
0.0483319
0.0496308
0.0509305
0.0522311
0.0535324
0.0548341
0.0561362
0.0574386
0.0587415
0.0600443
0.061347
0.0626495
0.0639518
0.0652537
0.0665548
0.0678587
0.0223639
0.0228478
0.0234331
0.024114
0.0248822
0.0257293
0.0266445
0.0276191
0.0286431
0.0297083
0.0308067
0.0319322
0.0330796
0.0342437
0.0354203
0.0366067
0.0378006
0.0389994
0.0402015
0.0414062
0.0426121
0.0438181
0.045024
0.0462293
0.0474334
0.0486363
0.0498381
0.0510383
0.0522364
0.0534324
0.0546262
0.0558177
0.0570072
0.0581944
0.0593793
0.0605621
0.0617428
0.0629214
0.0640979
0.0652725
0.0664451
0.0676161
0.0687889
0.026304
0.0267692
0.0273293
0.0279777
0.0287079
0.0295126
0.0303825
0.0313082
0.0322818
0.0332952
0.0343411
0.0354126
0.0365048
0.0376128
0.038732
0.0398592
0.0409925
0.0421294
0.0432679
0.0444066
0.0455447
0.0466808
0.0478146
0.0489456
0.0500734
0.0511978
0.0523185
0.0534351
0.0545472
0.0556545
0.0567569
0.0578546
0.0589476
0.060036
0.0611197
0.0621992
0.0632743
0.0643453
0.0654125
0.0664759
0.0675355
0.0685917
0.0696455
0.0296855
0.0301373
0.0306787
0.0313046
0.0320083
0.0327822
0.033618
0.0345075
0.0354427
0.0364159
0.0374201
0.0384489
0.0394962
0.0405576
0.0416287
0.0427063
0.0437884
0.0448729
0.0459576
0.0470408
0.0481211
0.0491976
0.0502699
0.0513377
0.0524009
0.0534593
0.0545116
0.0555573
0.056596
0.0576274
0.0586515
0.0596686
0.0606788
0.0616822
0.0626791
0.0636695
0.0646537
0.0656314
0.0666036
0.0675704
0.0685316
0.0694874
0.0704393
0.0326091
0.0330501
0.0335779
0.0341869
0.0348702
0.0356204
0.03643
0.0372905
0.0381961
0.0391377
0.0401084
0.0411022
0.042113
0.0431351
0.0441653
0.0452007
0.0462397
0.0472802
0.0483196
0.0493554
0.0503858
0.0514109
0.0524307
0.0534453
0.0544544
0.0554576
0.0564523
0.0574376
0.0584133
0.0593795
0.0603364
0.0612843
0.0622233
0.0631538
0.0640761
0.0649899
0.0658948
0.0667915
0.0676815
0.068564
0.0694398
0.0703083
0.0711722
0.0351507
0.0355828
0.0361003
0.0366974
0.0373636
0.0380953
0.038882
0.0397202
0.0406019
0.0415188
0.042462
0.0434274
0.0444084
0.0453965
0.0463909
0.0473891
0.0483916
0.0493962
0.0503982
0.0513925
0.0523783
0.0533579
0.0543336
0.0553048
0.0562696
0.0572269
0.0581723
0.0591054
0.0600265
0.0609366
0.0618352
0.0627238
0.0636018
0.06447
0.0653279
0.0661756
0.0670111
0.0678362
0.0686567
0.0694649
0.0702666
0.0710586
0.0718478
0.0373671
0.0377918
0.0382999
0.0388901
0.039537
0.0402569
0.0410198
0.0418386
0.0427023
0.0435991
0.0445181
0.0454609
0.0464181
0.0473723
0.0483348
0.0492983
0.0502733
0.0512508
0.0522212
0.0531748
0.0541198
0.0550622
0.0560056
0.0569439
0.0578736
0.058795
0.0596951
0.060584
0.061456
0.0623187
0.0631661
0.0640057
0.0648313
0.0656475
0.0664485
0.0672381
0.0680127
0.0687751
0.0695425
0.0702793
0.0710209
0.071743
0.0724788
0.087261
0.0831255
0.0791054
0.0752027
0.0714189
0.0677548
0.0642102
0.0607836
0.0574741
0.0542805
0.0512015
0.0482345
0.0453772
0.0426284
0.0399854
0.0374455
0.0350066
0.0326667
0.0304229
0.0282728
0.0262147
0.0242452
0.0223628
0.0205648
0.0188493
0.017214
0.0156577
0.0141775
0.0127733
0.0114426
0.0101846
0.00899772
0.00788175
0.00683615
0.00586081
0.00495643
0.00412324
0.00336386
0.00267973
0.00207991
0.00161645
0.00117026
0.000679402
0.0890188
0.085191
0.0814601
0.0778241
0.0742843
0.0708411
0.067495
0.0642444
0.0610892
0.0580281
0.0550594
0.0521823
0.0493959
0.0466985
0.0440875
0.0415624
0.0391215
0.0367635
0.034486
0.0322889
0.0301688
0.0281261
0.0261582
0.0242645
0.0224426
0.0206939
0.019015
0.0174063
0.0158677
0.0143976
0.0129972
0.0116657
0.0104038
0.00921372
0.00809574
0.0070535
0.00609041
0.00521582
0.00446952
0.00374363
0.00300703
0.00221325
0.00128214
0.0907578
0.0872094
0.0837449
0.0803577
0.0770474
0.0738145
0.0706588
0.0675799
0.0645769
0.0616494
0.0587966
0.0560172
0.0533102
0.0506749
0.0481105
0.0456158
0.0431897
0.0408316
0.0385406
0.0363159
0.0341568
0.0320627
0.0300329
0.0280668
0.0261643
0.0243246
0.022548
0.0208348
0.0191851
0.0176005
0.0160811
0.0146283
0.0132457
0.0119352
0.0107028
0.00955722
0.00852547
0.00753899
0.00655286
0.00553546
0.00444837
0.00322712
0.00183283
0.0924432
0.0891624
0.0859455
0.0827886
0.0796917
0.0766543
0.0736775
0.0707604
0.0679027
0.0651039
0.0623632
0.0596801
0.0570542
0.054485
0.0519717
0.0495132
0.0471105
0.0447624
0.0424687
0.0402296
0.0380444
0.0359138
0.0338373
0.0318161
0.0298498
0.0279387
0.0260835
0.0242869
0.0225487
0.0208716
0.0192573
0.01771
0.016233
0.0148349
0.0135316
0.0123062
0.0110961
0.00987199
0.00860751
0.00727007
0.00581667
0.00417275
0.00234397
0.0940722
0.0910417
0.0880537
0.0851093
0.0822091
0.0793528
0.0765417
0.0737755
0.0710541
0.0683766
0.0657435
0.0631536
0.0606068
0.0581034
0.0556424
0.053224
0.0508487
0.0485163
0.0462275
0.0439814
0.0417796
0.0396232
0.0375121
0.035448
0.0334308
0.031463
0.0295468
0.0276829
0.0258744
0.0241244
0.0224373
0.0208182
0.019276
0.0178187
0.0164016
0.0149902
0.0135588
0.0120841
0.0105383
0.00888716
0.00708172
0.00504486
0.00281731
0.0956525
0.092844
0.0900647
0.087315
0.0845943
0.0819047
0.0792456
0.0766186
0.0740239
0.0714607
0.0689287
0.0664265
0.0639562
0.061517
0.0591076
0.0567298
0.0543842
0.0520714
0.0497916
0.0475452
0.0453336
0.0431584
0.0410218
0.0389231
0.0368664
0.034854
0.0328882
0.030972
0.0291091
0.0273036
0.025563
0.0238935
0.0222816
0.0206963
0.0191115
0.0175038
0.015853
0.0141347
0.0123198
0.0103726
0.00823946
0.00584409
0.00325446
0.0971676
0.0945619
0.0919729
0.0893999
0.0868446
0.0843064
0.0817865
0.0792865
0.0768085
0.0743521
0.0719146
0.0694956
0.0670972
0.0647203
0.0623615
0.0600224
0.0577067
0.0554164
0.0531492
0.0509056
0.0486894
0.0465026
0.0443455
0.0422205
0.0401317
0.0380829
0.0360789
0.0341225
0.0322169
0.0303695
0.0285808
0.0268327
0.0251037
0.0233723
0.0216186
0.0198228
0.0179643
0.0160173
0.0139518
0.0117289
0.00929301
0.0065704
0.00365371
0.0986039
0.0961909
0.093775
0.0913639
0.0889601
0.086559
0.0841653
0.0817787
0.0794073
0.0770501
0.0747045
0.072362
0.0700277
0.0677126
0.0654056
0.0631014
0.0608125
0.0585458
0.056296
0.0540581
0.0518404
0.0496438
0.047475
0.0453303
0.0432122
0.0411327
0.0390987
0.0371119
0.0351716
0.033271
0.0314082
0.0295556
0.027704
0.0258278
0.0239173
0.0219455
0.0198967
0.0177404
0.0154427
0.0129652
0.0102494
0.00722508
0.00402234
0.0999842
0.0977367
0.0954708
0.0932047
0.0909432
0.0886634
0.0863879
0.084098
0.0818203
0.0795543
0.0773017
0.0750377
0.0727447
0.0704922
0.0682507
0.0659765
0.0636987
0.0614547
0.0592362
0.0569996
0.0547892
0.052576
0.0504043
0.0482531
0.0461031
0.043992
0.0419296
0.0399151
0.0379437
0.0359512
0.0340162
0.0320423
0.0300856
0.0280631
0.026019
0.0238749
0.0216586
0.0193186
0.0168054
0.0140932
0.0111287
0.00778996
0.00424138
0.000471672
0.000528513
0.000708564
0.000878669
0.00104782
0.0012277
0.00143272
0.00167774
0.00196564
0.00228714
0.00263834
0.00301714
0.00342254
0.00385408
0.00431198
0.00479675
0.00530846
0.00584777
0.00641539
0.00701153
0.00763685
0.00829232
0.00897813
0.0096951
0.0104439
0.0112254
0.0120404
0.0128894
0.0137735
0.0146933
0.0156498
0.0166438
0.0176761
0.0187474
0.0198588
0.0210112
0.0222055
0.0234422
0.0247222
0.0260462
0.0274148
0.0288284
0.0302874
0.000663836
0.000682741
0.000871403
0.00106539
0.00127478
0.0015123
0.00178663
0.00210132
0.00245754
0.00284263
0.00325384
0.00368998
0.00415038
0.00463452
0.00514268
0.00567476
0.00623081
0.00681107
0.007416
0.00804565
0.00870054
0.00938104
0.0100873
0.0108196
0.0115791
0.0123659
0.013181
0.0140244
0.0148973
0.0158
0.0167333
0.0176978
0.0186942
0.0197235
0.0207861
0.0218826
0.023014
0.0241809
0.0253838
0.0266232
0.0278996
0.0292128
0.0305602
0.000868074
0.000830582
0.00104096
0.00127456
0.00153919
0.00184183
0.0021834
0.00256212
0.00297886
0.00342161
0.00388795
0.004377
0.00488827
0.00542099
0.00597514
0.00655072
0.00714706
0.0077645
0.00840293
0.00906259
0.00974331
0.0104454
0.0111692
0.0119146
0.0126824
0.0134729
0.0142864
0.0151232
0.0159839
0.0168691
0.0177791
0.0187144
0.0196756
0.0206633
0.0216781
0.0227203
0.0237904
0.0248892
0.0260171
0.0271743
0.0283607
0.0295759
0.0308129
0.00106661
0.000973337
0.00121809
0.00150134
0.00182545
0.00219017
0.00259154
0.00302828
0.00349875
0.00399302
0.0045091
0.00504609
0.00560295
0.0061793
0.00677441
0.00738816
0.00802005
0.0086701
0.00933784
0.0100231
0.0107261
0.0114466
0.0121847
0.0129409
0.0137148
0.0145069
0.0153176
0.016147
0.0169953
0.0178629
0.0187503
0.0196577
0.0205855
0.0215342
0.0225042
0.0234957
0.0245089
0.0255446
0.0266028
0.0276838
0.0287876
0.0299145
0.0310685
0.00125474
0.00111476
0.00140227
0.00173859
0.00211953
0.00253968
0.0029936
0.00348392
0.00400277
0.00454351
0.00510441
0.00568405
0.00628205
0.00689716
0.00752886
0.00817659
0.0088399
0.00951803
0.0102113
0.010919
0.0116408
0.0123769
0.013127
0.0138912
0.0146697
0.0154624
0.0162695
0.0170909
0.0179271
0.0187781
0.0196442
0.0205254
0.0214221
0.0223345
0.0232629
0.0242077
0.0251688
0.0261464
0.0271409
0.0281522
0.0291805
0.0302259
0.031289
0.00143399
0.00125625
0.00159047
0.00197871
0.00241148
0.00288086
0.00338307
0.00392107
0.00448348
0.00506617
0.00566732
0.00628575
0.00692034
0.00757018
0.00823442
0.00891236
0.00960321
0.0103065
0.0110219
0.011749
0.0124872
0.0132365
0.0139968
0.0147678
0.0155496
0.016342
0.0171451
0.0179588
0.018783
0.0196182
0.0204642
0.021321
0.0221888
0.0230678
0.0239581
0.0248597
0.0257729
0.0266976
0.0276338
0.0285815
0.0295406
0.0305107
0.0314916
0.00160162
0.00139893
0.0017805
0.00221688
0.002696
0.00320948
0.00375567
0.0043356
0.00493739
0.00555778
0.00619535
0.00684849
0.0075161
0.00819689
0.0088903
0.00959531
0.010311
0.0110365
0.0117715
0.0125158
0.0132684
0.0140294
0.0147985
0.0155752
0.0163595
0.0171509
0.0179496
0.0187555
0.0195686
0.0203888
0.0212158
0.0220496
0.0228905
0.0237383
0.0245934
0.0254559
0.0263253
0.0272016
0.0280848
0.0289745
0.0298705
0.0307722
0.0316792
0.00177285
0.00153655
0.0019604
0.0024398
0.00296068
0.00351488
0.00410367
0.00472198
0.00536029
0.00601548
0.00668703
0.00737333
0.00807195
0.00878165
0.00950167
0.010231
0.0109688
0.0117146
0.0124684
0.013229
0.0139945
0.0147652
0.015542
0.016324
0.01711
0.0178985
0.0186918
0.0194894
0.0202912
0.0210966
0.0219052
0.0227172
0.0235317
0.0243499
0.0251728
0.0260002
0.0268299
0.0276625
0.0284977
0.029335
0.0301737
0.0310137
0.0318572
0.00184835
0.00168719
0.00216935
0.00269799
0.0032606
0.00385035
0.00447608
0.00512545
0.00579109
0.00648345
0.00719642
0.00791637
0.0086353
0.00936678
0.0101076
0.0108546
0.0116089
0.0123731
0.013148
0.0139231
0.0146935
0.0154699
0.0162535
0.0170411
0.0178247
0.0185988
0.0193858
0.0201732
0.0209625
0.0217527
0.0225398
0.0233309
0.0241146
0.0249041
0.0256984
0.0264983
0.0272901
0.0280849
0.0288768
0.0296674
0.0304537
0.0312353
0.0320214
0.00016137
0.000586634
0.00129826
0.00202678
0.00273778
0.0034391
0.00413691
0.00483709
0.00554637
0.00627247
0.00701736
0.00778108
0.00856314
0.00936329
0.0101812
0.0110165
0.0118702
0.0127424
0.0136336
0.0145446
0.0154767
0.0164307
0.0174098
0.0184173
0.0194579
0.0205355
0.0216528
0.0228114
0.0240106
0.025247
0.0265166
0.0278161
0.0291433
0.0304986
0.0319017
0.0333782
0.0349178
0.0365074
0.0381392
0.0398118
0.0415226
0.0432695
0.0450544
0.000102002
0.000343923
0.000762296
0.00132287
0.00203232
0.00276848
0.00349805
0.00422539
0.00494449
0.00564767
0.00634084
0.00703125
0.00772622
0.00843132
0.0091499
0.00988549
0.0106404
0.0114174
0.0122187
0.0130458
0.0139007
0.0147852
0.0157011
0.0166513
0.0176393
0.0186679
0.0197406
0.0208603
0.0220276
0.0232414
0.0244992
0.0257973
0.0271314
0.028501
0.0299129
0.0313782
0.0328952
0.0344539
0.0360647
0.0377438
0.0394785
0.0412617
0.043094
4.79355e-05
0.000229015
0.000492233
0.000871059
0.0013605
0.00195827
0.00266228
0.00347779
0.00432448
0.00514649
0.00594096
0.00671076
0.00745877
0.00818836
0.00890465
0.00961288
0.0103183
0.0110266
0.011743
0.0124732
0.0132228
0.0139967
0.0148003
0.0156387
0.0165167
0.0174391
0.0184108
0.0194361
0.0205177
0.0216569
0.0228532
0.0241041
0.0254066
0.0267578
0.0281582
0.0296106
0.0311147
0.0326669
0.0342682
0.0359199
0.0376181
0.0393811
0.0412162
4.97777e-05
0.000205984
0.000436815
0.000752317
0.00115465
0.00164647
0.00223053
0.00291111
0.00369227
0.00455787
0.00542583
0.00627643
0.00710636
0.00791566
0.00870471
0.00947363
0.0102239
0.0109575
0.0116778
0.0123889
0.0130962
0.0138061
0.014526
0.0152641
0.0160284
0.0168277
0.0176705
0.0185648
0.0195176
0.0205341
0.0216179
0.0227701
0.0239897
0.0252748
0.0266238
0.0280355
0.0295082
0.0310396
0.0326265
0.0342667
0.0359567
0.0377018
0.0395072
4.54253e-05
0.000199721
0.000389638
0.000668339
0.00102111
0.00145254
0.00196448
0.00255942
0.0032414
0.00401524
0.00488384
0.00579107
0.00668989
0.00756944
0.00842817
0.00926616
0.0100833
0.0108794
0.0116547
0.0124096
0.0131454
0.013865
0.0145728
0.0152752
0.0159797
0.016696
0.017435
0.0182081
0.0190266
0.0199016
0.0208424
0.0218561
0.0229474
0.0241185
0.0253692
0.0266985
0.0281045
0.0295837
0.0311323
0.0327455
0.0344192
0.0361508
0.0379359
4.47233e-05
0.000191918
0.000363769
0.000618729
0.000939484
0.00132982
0.00179317
0.00233115
0.00294765
0.0036475
0.00443551
0.00531514
0.00624552
0.00717722
0.00809438
0.00899326
0.00987268
0.0107317
0.0115696
0.0123855
0.0131785
0.0139479
0.0146946
0.0154202
0.0161284
0.0168255
0.01752
0.0182223
0.0189449
0.019702
0.0205076
0.0213752
0.0223165
0.0233407
0.0244535
0.0256583
0.0269556
0.0283437
0.0298189
0.0313754
0.0330081
0.03471
0.0364724
4.36125e-05
0.000188079
0.00034268
0.000579829
0.000877294
0.00123775
0.00166598
0.0021629
0.00273173
0.00337667
0.00410217
0.00491294
0.00581276
0.00676816
0.0077297
0.00868004
0.00961366
0.0105289
0.0114248
0.0122997
0.0131522
0.0139806
0.0147835
0.0155601
0.0163102
0.0170357
0.0177404
0.0184303
0.0191148
0.0198061
0.0205184
0.0212681
0.022072
0.0229461
0.023904
0.0249564
0.0261102
0.0273689
0.0287317
0.0301954
0.0317539
0.0333986
0.0351167
4.30176e-05
0.000184207
0.000327734
0.000551041
0.000830673
0.00116876
0.00156931
0.00203434
0.00256647
0.00316927
0.00384677
0.00460388
0.0054457
0.00637425
0.00735445
0.00834304
0.00932221
0.0102865
0.0112336
0.012162
0.0130699
0.0139553
0.0148162
0.0156504
0.016456
0.0172319
0.0179781
0.0186966
0.0193915
0.0200703
0.0207435
0.0214252
0.0221325
0.0228843
0.0236997
0.024597
0.0255914
0.0266943
0.0279122
0.0292465
0.0306951
0.0322516
0.0339078
4.24479e-05
0.000181334
0.000316087
0.000527315
0.000792557
0.00111264
0.0014911
0.00193087
0.00243365
0.00300273
0.00364202
0.00435609
0.00514942
0.00602732
0.00698915
0.007996
0.00901014
0.0100162
0.0110086
0.0119847
0.0129427
0.0138804
0.0147958
0.0156861
0.0165485
0.0173811
0.0181813
0.0189484
0.0196827
0.0203865
0.0210657
0.0217292
0.0223902
0.0230656
0.0237755
0.0245418
0.0253861
0.026328
0.027383
0.0285614
0.029868
0.0313015
0.0328575
4.2088e-05
0.000179183
0.000307854
0.00050803
0.000761267
0.00106638
0.00142655
0.00184549
0.00232412
0.00286549
0.00347347
0.00415199
0.00490574
0.00573939
0.0066579
0.00765479
0.0086884
0.00972769
0.0107592
0.0117776
0.0127805
0.0137656
0.0147307
0.015673
0.0165899
0.0174783
0.018335
0.0191576
0.0199439
0.0206931
0.0214068
0.0220889
0.0227471
0.0233934
0.0240444
0.0247207
0.025446
0.0262449
0.0271407
0.0281531
0.0292968
0.030579
0.0320026
4.17879e-05
0.000177792
0.000302382
0.00049193
0.000734837
0.00102746
0.00137231
0.00177314
0.00223136
0.00274954
0.00333107
0.00397977
0.00470004
0.00549629
0.0063739
0.00733661
0.00836851
0.0094287
0.0104924
0.011548
0.0125911
0.013619
0.0146291
0.0156193
0.0165865
0.0175277
0.0184391
0.0193174
0.0201596
0.0209628
0.0217256
0.0224482
0.0231334
0.0237879
0.0244226
0.0250538
0.0257022
0.026393
0.0271533
0.02801
0.0289869
0.0301023
0.0313712
4.1601e-05
0.000176799
0.000298312
0.00047805
0.000712003
0.000993911
0.00132561
0.00171078
0.00215163
0.00264989
0.00320872
0.00383179
0.00452331
0.00528768
0.00612975
0.00705442
0.00806244
0.0091281
0.0102147
0.0113016
0.0123805
0.0134469
0.0144982
0.015532
0.0165454
0.0175352
0.0184981
0.0194301
0.0203275
0.0211868
0.0220045
0.0227784
0.0235078
0.0241949
0.0248455
0.0254697
0.0260834
0.0267078
0.0273692
0.0280972
0.0289218
0.0298714
0.0309737
4.14306e-05
0.000175951
0.000295074
0.000465994
0.000692032
0.000964424
0.00128474
0.00165628
0.00208182
0.00256275
0.00310199
0.00370287
0.00436938
0.00510589
0.00591694
0.00680739
0.00778205
0.00883494
0.00993235
0.0110435
0.0121533
0.0132545
0.0143432
0.0154169
0.0164724
0.0175073
0.0185178
0.0195003
0.0204506
0.0213646
0.0222381
0.0230673
0.0238494
0.0245833
0.0252703
0.0259156
0.026529
0.027126
0.0277287
0.0283647
0.0290659
0.0298666
0.0308027
4.12605e-05
0.000175112
0.000292233
0.000455461
0.000674546
0.000938655
0.00124899
0.00160843
0.00202034
0.00248594
0.00300783
0.00358912
0.00423355
0.0049457
0.00572959
0.00658993
0.00753185
0.00855821
0.00965248
0.0107789
0.0119141
0.013046
0.0141687
0.0152787
0.0163731
0.0174494
0.0185041
0.0195335
0.0205335
0.0214997
0.0224275
0.0233122
0.0241499
0.0249374
0.0256727
0.0263569
0.0269947
0.0275959
0.0281764
0.0287588
0.0293728
0.0300536
0.0308405
4.11807e-05
0.000174536
0.000289929
0.000446367
0.00065914
0.000915965
0.00121745
0.00156631
0.00196591
0.00241776
0.00292421
0.0034881
0.00411301
0.00480321
0.00556302
0.0063965
0.00730891
0.00830528
0.0093826
0.0105136
0.0116673
0.0128255
0.0139787
0.0151219
0.0162523
0.0173669
0.0184622
0.0195351
0.0205812
0.0215966
0.0225762
0.0235149
0.0244082
0.0252513
0.0260406
0.0267741
0.0274523
0.0280801
0.0286673
0.0292306
0.0297941
0.0303903
0.0310589
4.11138e-05
0.000174079
0.000287849
0.000438317
0.00064525
0.000895439
0.00118914
0.00152864
0.00191718
0.00235677
0.00284939
0.00339777
0.00400527
0.00467599
0.00541408
0.0062235
0.00710937
0.008077
0.00912906
0.0102532
0.0114175
0.0125966
0.0137767
0.0149504
0.0161137
0.0172635
0.0183966
0.0195096
0.0205988
0.02166
0.0226883
0.0236787
0.0246259
0.0255245
0.0263696
0.0271572
0.0278854
0.0285543
0.0291691
0.0297405
0.0302862
0.0308334
0.0314191
4.103e-05
0.000173611
0.00028606
0.000431436
0.000633003
0.000877251
0.0011638
0.00149477
0.00187333
0.00230193
0.00278201
0.00331644
0.00390833
0.00456136
0.00527975
0.00606763
0.00692961
0.00787081
0.00889608
0.0100035
0.0111692
0.0123632
0.0135658
0.0147669
0.0159604
0.0171428
0.0183109
0.0194614
0.0205906
0.0216946
0.0227686
0.0238077
0.0248063
0.0257587
0.0266593
0.0275029
0.0282854
0.0290045
0.0296608
0.03026
0.030814
0.0313431
0.0318783
4.09698e-05
0.000173261
0.000284558
0.000425723
0.000622115
0.000860837
0.00114078
0.00146408
0.00183368
0.00225214
0.00272103
0.0032429
0.0038205
0.00445764
0.00515847
0.00592687
0.00676715
0.00768451
0.00868409
0.0097686
0.0109267
0.0121286
0.0133493
0.0145743
0.0157956
0.0170082
0.0182088
0.0193941
0.0205607
0.0217046
0.0228215
0.0239062
0.0249534
0.0259573
0.0269118
0.0278112
0.0286497
0.0294232
0.0301296
0.03077
0.031351
0.0318865
0.0323979
4.09348e-05
0.000173032
0.000283355
0.000420975
0.00061223
0.000845959
0.00112014
0.00143655
0.00179799
0.00220727
0.0026659
0.00317618
0.00374095
0.00436372
0.00504841
0.00579892
0.00661965
0.00751553
0.00849127
0.00955138
0.0106941
0.0118966
0.0131302
0.0143758
0.0156221
0.0168625
0.0180933
0.0193111
0.0205125
0.0216937
0.0228506
0.0239783
0.0250713
0.026124
0.0271303
0.0280838
0.0289783
0.0298078
0.0305684
0.0312583
0.0318791
0.0324382
0.0329486
4.09096e-05
0.000172877
0.000282417
0.000417174
0.00060351
0.000832601
0.00110144
0.00141162
0.00176567
0.00216648
0.00261563
0.00311541
0.00366853
0.00427831
0.00494839
0.00568264
0.00648558
0.00736159
0.00831556
0.00935249
0.010475
0.0116706
0.0129112
0.0141734
0.0154418
0.016708
0.0179672
0.0192153
0.0204491
0.0216653
0.0228597
0.0240275
0.0251637
0.0262627
0.0273181
0.0283237
0.0292725
0.0301581
0.0309747
0.0317182
0.0323867
0.0329817
0.0335069
4.09003e-05
0.000172766
0.000281639
0.000414021
0.000595546
0.000820301
0.00108436
0.00138883
0.0017361
0.00212923
0.00256991
0.00306018
0.00360258
0.00420037
0.00485702
0.00557646
0.00636295
0.00722086
0.00815508
0.00917042
0.0102712
0.0114538
0.0126956
0.0139697
0.0152571
0.0165466
0.017832
0.0191087
0.0203733
0.0216223
0.0228519
0.0240576
0.0252343
0.0263768
0.0274788
0.0285339
0.0295352
0.0304755
0.0313482
0.0321473
0.0328686
0.0335104
0.0340763
4.08982e-05
0.000172691
0.000280978
0.000411355
0.000588296
0.00080908
0.00106864
0.00136787
0.00170903
0.00209506
0.00252794
0.00300951
0.00354217
0.00412899
0.00477343
0.00547934
0.00625081
0.0070921
0.00800793
0.00900326
0.0100831
0.0112485
0.0124855
0.0137668
0.0150699
0.0163803
0.0176898
0.0189935
0.0202872
0.021567
0.0228297
0.024071
0.025286
0.0264695
0.0276157
0.028718
0.0297694
0.0307627
0.0316904
0.0325456
0.0333225
0.0340174
0.0346313
4.09015e-05
0.000172641
0.00028042
0.000409061
0.000581662
0.00079873
0.00105418
0.00134861
0.00168425
0.00206366
0.00248927
0.00296277
0.00348655
0.00406338
0.00469662
0.00539008
0.00614775
0.00697381
0.00787275
0.00884976
0.00990972
0.0110563
0.0122832
0.0135668
0.0148818
0.0162107
0.0175428
0.0188716
0.0201923
0.0215015
0.0227956
0.0240704
0.0253216
0.026544
0.0277319
0.0288789
0.0299782
0.0310223
0.0320035
0.0329143
0.0337475
0.034498
0.0351632
4.09115e-05
0.000172605
0.000279918
0.000407027
0.000575528
0.000789137
0.00104078
0.00133077
0.00166114
0.00203454
0.0024536
0.00291969
0.00343511
0.00400283
0.00462571
0.00530758
0.00605249
0.00686453
0.00774829
0.00870822
0.00974961
0.0108772
0.0120902
0.0133713
0.0146944
0.0160391
0.0173916
0.0187439
0.0200905
0.0214275
0.0227514
0.0240582
0.0253436
0.0266027
0.02783
0.0290195
0.0301643
0.031257
0.0322898
0.0332546
0.0341437
0.0349499
0.0356675
4.09183e-05
0.000172577
0.000279441
0.000405167
0.000569875
0.000780224
0.00102832
0.00131419
0.00163976
0.00200762
0.00242051
0.00287974
0.00338745
0.00394654
0.00456004
0.00523129
0.00596452
0.00676357
0.00763301
0.00857736
0.00960151
0.010711
0.0119078
0.0131818
0.0145093
0.0158665
0.0172372
0.0186116
0.0199827
0.0213461
0.0226983
0.0240354
0.0253534
0.0266474
0.0279124
0.0291422
0.0303302
0.0314693
0.0325515
0.0335686
0.0345121
0.0353736
0.0361446
4.09277e-05
0.000172513
0.000278964
0.000403422
0.0005646
0.000771931
0.00101673
0.00129877
0.00161984
0.00198248
0.00238956
0.00284243
0.003343
0.00389409
0.00449886
0.00516044
0.00588277
0.00666991
0.00752606
0.00845569
0.00946416
0.0105564
0.0117361
0.0129998
0.0143275
0.0156941
0.0170808
0.0184753
0.0198695
0.0212583
0.0226376
0.0240037
0.0253528
0.0266801
0.0279806
0.0292489
0.0304782
0.0316615
0.0327911
0.0338585
0.0348551
0.0357722
0.0366021
4.09441e-05
0.000172457
0.000278523
0.000401816
0.000559698
0.000764138
0.00100582
0.00128429
0.00160123
0.00195906
0.00236066
0.00280746
0.00330143
0.00384507
0.00444152
0.00509416
0.00580639
0.00658233
0.00742615
0.0083423
0.00933592
0.0104119
0.0115751
0.0128256
0.0141498
0.0155228
0.0169226
0.0183356
0.0197517
0.0211645
0.02257
0.0239639
0.0253425
0.0267016
0.0280363
0.029341
0.0306098
0.0318355
0.0330102
0.0341261
0.0351741
0.0361453
0.0370306
4.09545e-05
0.000172376
0.000278056
0.000400265
0.000555102
0.00075677
0.000995524
0.00127062
0.00158364
0.00193693
0.00233333
0.00277448
0.00326219
0.00379888
0.00438763
0.00503166
0.00573447
0.00649993
0.00733249
0.00823622
0.00921575
0.0102766
0.0114236
0.0126596
0.0139769
0.0153526
0.0167637
0.0181932
0.0196294
0.0210652
0.0224956
0.0239164
0.0253234
0.026713
0.0280803
0.0294202
0.0307265
0.0319923
0.0332104
0.0343726
0.0354698
0.0364926
0.0374305
4.09639e-05
0.000172314
0.000277642
0.000398823
0.000550832
0.000749805
0.000985738
0.00125763
0.00156694
0.00191595
0.00230746
0.0027433
0.00322509
0.00375529
0.00433676
0.0049728
0.00566674
0.00642248
0.00724406
0.00813602
0.00910288
0.0101495
0.0112812
0.012502
0.0138093
0.0151846
0.0166043
0.0180482
0.0195031
0.0209605
0.0224147
0.0238613
0.0252959
0.0267147
0.0281134
0.0294867
0.0308288
0.0321333
0.0333927
0.0345991
0.0357433
0.0368156
0.0378056
4.0976e-05
0.000172237
0.000277226
0.000397461
0.00054687
0.000743218
0.000976428
0.00124523
0.00155101
0.00189599
0.00228284
0.00271358
0.0031898
0.00371386
0.00428853
0.00491688
0.00560256
0.00634907
0.00716038
0.00804116
0.00899578
0.0100291
0.0111463
0.0123522
0.0136475
0.0150194
0.0164442
0.0179007
0.0193729
0.0208507
0.0223278
0.0237988
0.0252599
0.0267069
0.0281357
0.0295412
0.0309178
0.032259
0.033558
0.0348065
0.0359954
0.0371146
0.0381523
4.09845e-05
0.000172151
0.000276825
0.000396186
0.000543177