/*--------------------------------*- C++ -*----------------------------------*\
| =========                 |                                                 |
| \\      /  F ield         | OpenFOAM: The Open Source CFD Toolbox           |
|  \\    /   O peration     | Version:  2.3.0                                 |
|   \\  /    A nd           | Web:      www.OpenFOAM.org                      |
|    \\/     M anipulation  |                                                 |
\*---------------------------------------------------------------------------*/
FoamFile
{
    version     2.0;
    format      ascii;
    class       volScalarField;
    location    "2000";
    object      nut;
}
// * * * * * * * * * * * * * * * * * * * * * * * * * * * * * * * * * * * * * //

dimensions      [0 2 -1 0 0 0 0];

internalField   nonuniform List<scalar> 
37234
(
0.0679271
0.0663737
0.064818
0.0632607
0.0617023
0.0601432
0.0585844
0.0570262
0.0554696
0.0539151
0.0523636
0.0508154
0.0492711
0.0477313
0.0461964
0.044667
0.0431435
0.0416263
0.040116
0.0386125
0.0371172
0.03563
0.0341516
0.0326831
0.0312257
0.0297798
0.0283462
0.0269269
0.0255233
0.0241369
0.0227697
0.0214246
0.0201041
0.0188129
0.0175556
0.0163399
0.0151742
0.0140691
0.0130316
0.012062
0.011101
0.00984283
0.00823086
0.0691711
0.0677985
0.066425
0.0650508
0.0636759
0.0623007
0.0609255
0.0595505
0.0581765
0.0568037
0.0554326
0.0540636
0.0526969
0.051333
0.0499721
0.0486148
0.0472615
0.0459122
0.0445671
0.0432273
0.041893
0.0405649
0.0392434
0.0379292
0.0366247
0.035331
0.0340494
0.0327816
0.0315318
0.0303015
0.029096
0.0279184
0.0267764
0.0256765
0.0246282
0.0236431
0.0227355
0.0219215
0.0212175
0.0206434
0.0202169
0.0199513
0.0198602
0.0703206
0.0691015
0.0678832
0.0666643
0.0654444
0.0642238
0.0630022
0.0617799
0.0605576
0.0593352
0.0581128
0.056891
0.05567
0.0544501
0.0532312
0.0520139
0.0507986
0.0495854
0.048375
0.0471675
0.0459639
0.0447646
0.0435701
0.0423817
0.0412007
0.0400292
0.0388697
0.0377241
0.0365959
0.035489
0.0344078
0.0333578
0.0323454
0.0313785
0.0304665
0.0296188
0.0288483
0.0281684
0.0275911
0.0271307
0.0267991
0.0266048
0.0265537
0.0713711
0.07029
0.0692059
0.0681199
0.0670322
0.0659427
0.0648511
0.0637576
0.0626624
0.0615656
0.0604675
0.0593681
0.0582678
0.0571667
0.056065
0.0549629
0.0538608
0.052759
0.0516583
0.0505593
0.0494618
0.0483673
0.0472766
0.0461899
0.0451093
0.0440367
0.0429739
0.0419247
0.0408917
0.0398796
0.0388926
0.0379364
0.037018
0.0361442
0.0353241
0.0345669
0.0338827
0.0332823
0.0327771
0.0323776
0.0320932
0.0319301
0.0318923
0.0723429
0.0713742
0.0704043
0.0694321
0.0684575
0.0674799
0.0664987
0.0655139
0.0645256
0.0635343
0.0625402
0.0615431
0.060543
0.0595406
0.0585358
0.0575289
0.0565198
0.0555094
0.0544982
0.0534872
0.0524769
0.0514675
0.0504605
0.049457
0.0484575
0.0474643
0.0464798
0.0455062
0.0445477
0.0436084
0.0426932
0.0418076
0.040958
0.0401515
0.0393961
0.0387005
0.0380735
0.0375252
0.0370652
0.0367029
0.036446
0.0363005
0.0362692
0.0732262
0.0723591
0.0714881
0.0706139
0.0697363
0.0688544
0.0679675
0.0670748
0.0661768
0.0652743
0.0643676
0.0634562
0.06254
0.0616196
0.0606955
0.0597675
0.0588355
0.0579003
0.0569623
0.056023
0.0550833
0.0541438
0.0532054
0.0522691
0.0513364
0.0504082
0.0494868
0.0485748
0.0476753
0.0467932
0.0459335
0.045102
0.0443048
0.043549
0.0428413
0.0421899
0.0416037
0.0410914
0.0406626
0.0403248
0.0400855
0.03995
0.0399218
0.0740347
0.0732533
0.0724674
0.0716772
0.0708829
0.070083
0.0692775
0.0684638
0.0676426
0.0668143
0.0659807
0.065142
0.0642967
0.0634446
0.0625876
0.0617257
0.0608587
0.0599859
0.0591082
0.0582276
0.0573454
0.0564628
0.0555807
0.0546996
0.0538211
0.0529467
0.0520782
0.0512174
0.0503663
0.0495296
0.0487132
0.0479236
0.0471677
0.0464514
0.0457806
0.045163
0.0446072
0.0441214
0.0437139
0.0433933
0.0431661
0.0430378
0.0430114
0.0747672
0.0740638
0.0733514
0.0726327
0.0719111
0.0711801
0.0704471
0.0697004
0.0689463
0.0681796
0.0674066
0.0666291
0.0658461
0.0650501
0.0642487
0.0634422
0.0626302
0.0618111
0.0609838
0.0601509
0.0593154
0.0584792
0.0576431
0.0568074
0.0559737
0.0551435
0.0543185
0.0535023
0.052693
0.0518934
0.0511115
0.0503543
0.0496308
0.0489467
0.0483063
0.047715
0.0471833
0.0467173
0.0463264
0.0460169
0.0457986
0.0456767
0.045653
0.0754417
0.0748
0.074149
0.0734883
0.072837
0.0721548
0.0714937
0.0707984
0.0701097
0.0693924
0.0686684
0.0679326
0.0672093
0.0664617
0.0657062
0.0649431
0.0641757
0.063403
0.06262
0.0618246
0.0610255
0.0602238
0.0594227
0.0586234
0.0578258
0.0570328
0.0562405
0.0554624
0.0546967
0.0539297
0.0531788
0.052444
0.051746
0.0510894
0.0504797
0.0499086
0.0493997
0.0489501
0.048576
0.0482736
0.0480628
0.0479482
0.0479324
0.00880918
0.0108893
0.0120826
0.0132007
0.0143836
0.0156439
0.016967
0.0183352
0.0197364
0.021162
0.0226057
0.0240632
0.0255318
0.0270092
0.0284939
0.0299848
0.0314816
0.0329829
0.0344889
0.0359995
0.0375136
0.0390313
0.0405527
0.0420772
0.0436046
0.045135
0.0466679
0.0482033
0.0497407
0.0512796
0.0528201
0.0543617
0.055904
0.0574468
0.0589893
0.0605312
0.062072
0.0636116
0.0651491
0.0666839
0.0682155
0.0697431
0.0712669
0.0199499
0.0202302
0.0206984
0.0213401
0.0221319
0.0230502
0.0240706
0.0251719
0.0263376
0.0275528
0.0288061
0.0300894
0.0313955
0.0327189
0.0340553
0.0354023
0.0367569
0.0381171
0.0394822
0.0408507
0.0422215
0.0435943
0.0449682
0.0463429
0.0477186
0.0490945
0.0504707
0.0518467
0.0532224
0.0545977
0.0559721
0.057346
0.0587189
0.0600907
0.0614612
0.0628303
0.0641976
0.0655632
0.0669269
0.0682882
0.069647
0.0710033
0.0723581
0.0266445
0.0268781
0.0272592
0.0277809
0.0284305
0.0291928
0.0300521
0.030993
0.0320017
0.0330654
0.0341728
0.0353154
0.0364859
0.0376778
0.0388864
0.0401077
0.0413382
0.0425754
0.0438172
0.0450622
0.046309
0.0475567
0.0488041
0.0500513
0.0512977
0.0525428
0.053786
0.0550274
0.0562668
0.0575039
0.0587387
0.0599712
0.0612013
0.0624289
0.0636539
0.0648767
0.0660969
0.0673146
0.0685299
0.0697426
0.0709531
0.0721618
0.073372
0.0319782
0.0321891
0.0325266
0.0329853
0.0335568
0.0342297
0.0349925
0.0358328
0.0367387
0.0376989
0.0387034
0.0397439
0.0408128
0.0419044
0.0430137
0.0441361
0.0452674
0.0464049
0.0475469
0.0486908
0.0498356
0.0509801
0.0521235
0.0532653
0.0544047
0.055541
0.0566739
0.0578035
0.0589291
0.0600508
0.0611685
0.0622823
0.0633925
0.0644987
0.065601
0.0667
0.0677953
0.068887
0.0699755
0.0710604
0.0721424
0.0732218
0.0743028
0.0363506
0.0365467
0.0368575
0.0372777
0.0378005
0.0384168
0.0391166
0.0398889
0.0407232
0.0416098
0.0425391
0.0435036
0.0444964
0.0455115
0.0465431
0.0475871
0.0486392
0.0496966
0.0507573
0.0518188
0.0528799
0.0539401
0.0549981
0.0560529
0.057104
0.0581504
0.0591919
0.0602281
0.0612591
0.0622844
0.0633041
0.0643185
0.0653278
0.0663318
0.0673305
0.0683245
0.0693138
0.0702981
0.0712778
0.072253
0.0732236
0.0741892
0.0751504
0.0400002
0.0401853
0.0404768
0.0408703
0.0413598
0.0419371
0.0425927
0.0433163
0.0440983
0.0449303
0.0458035
0.0467101
0.047644
0.0485993
0.0495702
0.0505518
0.0515399
0.052532
0.0535262
0.0545203
0.0555132
0.0565042
0.057492
0.0584754
0.0594536
0.0604254
0.0613906
0.0623492
0.0633008
0.0642454
0.065183
0.066114
0.0670382
0.0679559
0.0688672
0.0697722
0.0706708
0.0715634
0.0724502
0.0733312
0.0742062
0.0750746
0.0759377
0.0430867
0.0432634
0.0435401
0.0439141
0.044379
0.0449276
0.0455503
0.0462375
0.0469803
0.0477702
0.0485997
0.0494612
0.0503487
0.051257
0.05218
0.0531104
0.0540458
0.0549841
0.0559229
0.0568613
0.0577979
0.0587322
0.0596628
0.0605873
0.0615045
0.0624133
0.063315
0.0642087
0.0650934
0.0659697
0.0668385
0.0676993
0.0685517
0.069396
0.0702333
0.0710628
0.0718841
0.0726981
0.0735053
0.0743054
0.0750981
0.0758819
0.0766575
0.045724
0.0458937
0.0461583
0.0465185
0.0469624
0.0474899
0.0480876
0.0487464
0.0494582
0.0502147
0.0510089
0.0518347
0.052686
0.0535574
0.0544435
0.0553275
0.0562189
0.0571121
0.0580043
0.0588963
0.0597872
0.0606755
0.06156
0.0624344
0.0632992
0.0641537
0.065004
0.0658426
0.0666696
0.0674885
0.0683004
0.0691018
0.069893
0.0706737
0.0714496
0.072214
0.0729687
0.0737157
0.0744549
0.0751854
0.0759079
0.0766181
0.0773196
0.0479967
0.0481635
0.0484134
0.0487698
0.0491889
0.0497001
0.0502748
0.0509099
0.0515952
0.0523245
0.0530908
0.0538897
0.0547153
0.0555561
0.0564131
0.0572408
0.0581029
0.0589538
0.0598075
0.0606635
0.0615186
0.0623711
0.0632199
0.0640466
0.0648704
0.0656749
0.0664876
0.0672726
0.0680516
0.0688241
0.0695913
0.0703395
0.0710816
0.0718058
0.0725341
0.0732381
0.073937
0.0746295
0.0753129
0.0759814
0.0766433
0.0772899
0.0779303
0.0270776
0.0262245
0.0253659
0.024503
0.023637
0.0227691
0.0219008
0.0210332
0.0201678
0.0193059
0.018449
0.0175984
0.0167556
0.0159221
0.0150992
0.0142884
0.0134913
0.012709
0.0119431
0.0111947
0.0104651
0.00975536
0.00906658
0.00839962
0.00775524
0.00713413
0.00653666
0.00596334
0.00541446
0.00489011
0.00439041
0.00391533
0.00346479
0.00303858
0.0026364
0.00225788
0.00190252
0.00156974
0.00125909
0.000970146
0.000702685
0.000454957
0.000250573
0.027084
0.0262967
0.025504
0.0247068
0.0239061
0.0231028
0.0222978
0.021492
0.0206865
0.0198821
0.0190798
0.0182808
0.017486
0.0166964
0.0159132
0.0151375
0.0143703
0.0136128
0.0128661
0.0121315
0.01141
0.0107025
0.0100104
0.00933435
0.0086756
0.00803495
0.00741322
0.00681105
0.00622923
0.00566825
0.00512859
0.00461058
0.00411459
0.00364084
0.00318941
0.00276039
0.00235378
0.00196952
0.0016076
0.00126787
0.000949451
0.000647241
0.000418506
0.0270915
0.0263683
0.0256388
0.0249043
0.0241654
0.0234229
0.0226775
0.0219296
0.02118
0.0204294
0.0196782
0.0189274
0.0181775
0.0174293
0.0166837
0.0159414
0.0152033
0.0144703
0.0137433
0.0130234
0.0123114
0.0116085
0.0109157
0.0102339
0.00956429
0.00890779
0.00826543
0.00763812
0.00702683
0.00643232
0.00585541
0.00529679
0.00475715
0.00423709
0.0037371
0.00325778
0.00279966
0.00236318
0.00194887
0.0015569
0.00118539
0.000826897
0.000566313
0.0271015
0.0264354
0.0257631
0.0250852
0.0244022
0.0237145
0.0230224
0.0223264
0.0216268
0.0209241
0.0202185
0.0195108
0.0188011
0.0180902
0.0173786
0.0166668
0.0159555
0.0152455
0.0145374
0.0138322
0.0131305
0.0124335
0.0117419
0.011057
0.0103796
0.0097108
0.00905174
0.00840333
0.00776677
0.00714304
0.00653321
0.00593818
0.005359
0.00479658
0.00425183
0.00372578
0.00321937
0.00273362
0.00226956
0.00182742
0.00140446
0.000992014
0.000698524
0.0271134
0.026498
0.0258769
0.0252498
0.0246166
0.0239777
0.0233331
0.0226831
0.0220278
0.0213675
0.0207023
0.0200327
0.0193588
0.018681
0.0179997
0.0173154
0.0166284
0.0159394
0.0152488
0.0145575
0.0138661
0.0131754
0.0124863
0.0117999
0.0111169
0.0104385
0.00976577
0.00909979
0.00844181
0.0077929
0.00715434
0.00652729
0.00591299
0.00531267
0.00472758
0.00415906
0.00360849
0.00307739
0.00256708
0.002078
0.00160605
0.00113861
0.000816122
0.0271253
0.0265562
0.025981
0.0253991
0.0248104
0.024215
0.0236126
0.0230034
0.0223875
0.0217648
0.0211354
0.0204995
0.0198571
0.0192087
0.0185544
0.0178945
0.0172294
0.0165594
0.0158849
0.0152065
0.0145249
0.0138405
0.0131544
0.0124675
0.0117805
0.0110945
0.0104106
0.00972998
0.00905375
0.00838319
0.00771958
0.00706443
0.00641911
0.0057851
0.00516388
0.00455721
0.00396669
0.00339419
0.00284153
0.00230895
0.00179157
0.00127921
0.00092245
0.0271359
0.0266096
0.0260758
0.0255344
0.0249854
0.0244286
0.023864
0.0232913
0.0227104
0.0221213
0.0215238
0.0209176
0.0203032
0.0196807
0.0190502
0.0184122
0.0177669
0.0171143
0.0164545
0.0157883
0.0151159
0.0144377
0.0137548
0.0130679
0.012378
0.011686
0.0109929
0.0102999
0.00960805
0.00891872
0.00823323
0.00755329
0.00688045
0.00621631
0.00556283
0.00492175
0.00429513
0.00368523
0.00309399
0.00252164
0.00196298
0.0014109
0.00101991
0.0271461
0.0266586
0.026162
0.0256564
0.0251423
0.0246202
0.0240896
0.0235496
0.0230003
0.0224419
0.0218734
0.021294
0.0207044
0.0201044
0.0194948
0.0188759
0.0182488
0.017613
0.0169671
0.016313
0.0156504
0.0149786
0.0142987
0.0136123
0.0129204
0.0122238
0.0115234
0.0108202
0.0101156
0.00941058
0.00870536
0.00800255
0.00730464
0.00661331
0.00593019
0.00525752
0.00459775
0.00395288
0.00332509
0.00271507
0.00211718
0.00152766
0.00110585
0.0271595
0.026704
0.0262402
0.0257656
0.025281
0.0247894
0.0242909
0.0237808
0.0232594
0.0227299
0.0221915
0.021636
0.0210693
0.0204885
0.0198964
0.0192925
0.0186809
0.0180665
0.017433
0.016792
0.0161433
0.0154804
0.0148037
0.014118
0.0134256
0.012726
0.0120221
0.0113127
0.0105988
0.0098883
0.00916872
0.00844241
0.00772259
0.00700794
0.00629982
0.00559995
0.00491143
0.00424099
0.00358063
0.00293128
0.00229605
0.00167074
0.00120026
0.000326259
0.000511991
0.000751608
0.000980673
0.00119974
0.00140926
0.00161017
0.00180348
0.00199042
0.00217231
0.00235055
0.0025267
0.00270235
0.00287945
0.0030601
0.00324718
0.00344448
0.00365744
0.00389395
0.00416432
0.00447624
0.00482881
0.00521768
0.00563945
0.00609221
0.00657493
0.0070874
0.00762964
0.00820208
0.00880526
0.0094399
0.0101064
0.0108052
0.011537
0.0123025
0.0131026
0.0139383
0.0148105
0.0157203
0.0166685
0.0176562
0.0186844
0.0197541
0.000465059
0.000675181
0.000922683
0.00116301
0.00139215
0.00161008
0.00181799
0.00201733
0.00220983
0.00239724
0.00258141
0.00276438
0.00294844
0.00313636
0.00333147
0.00353811
0.00376177
0.00400953
0.00428977
0.00460902
0.00496437
0.0053514
0.00576708
0.00620946
0.00667751
0.00717089
0.0076895
0.00823355
0.0088034
0.00939952
0.0100222
0.0106717
0.0113485
0.0120532
0.0127864
0.0135491
0.0143418
0.0151653
0.0160205
0.0169082
0.0178293
0.0187842
0.0197727
0.000594651
0.000816255
0.00107263
0.00132391
0.00156306
0.00178955
0.00200481
0.00221085
0.00240992
0.00260434
0.0027966
0.00298954
0.00318637
0.00339098
0.00360787
0.00384229
0.00410023
0.00438842
0.00471347
0.00507338
0.00546215
0.00587611
0.00631319
0.00677231
0.00725294
0.00775484
0.00827802
0.00882271
0.00938907
0.00997736
0.0105877
0.0112202
0.0118754
0.0125537
0.0132556
0.0139819
0.014733
0.0155097
0.0163124
0.0171419
0.0179986
0.0188833
0.0197963
0.00071047
0.000936816
0.00120127
0.00146228
0.00171048
0.00194499
0.00216753
0.00238066
0.0025872
0.0027902
0.00299297
0.00319926
0.0034133
0.00363984
0.00388385
0.00415043
0.00444487
0.00477294
0.00513624
0.0055275
0.00594186
0.00637669
0.00683065
0.00730307
0.00779354
0.00830186
0.0088281
0.0093723
0.00993442
0.0105144
0.0111125
0.0117287
0.0123634
0.0130169
0.0136897
0.0143822
0.0150948
0.015828
0.0165822
0.017358
0.0181558
0.0189766
0.0198208
0.000812686
0.00104063
0.00131211
0.00158163
0.00183794
0.00207988
0.00230958
0.00253012
0.00274508
0.00295826
0.00317391
0.0033967
0.00363154
0.00388343
0.00415695
0.00445633
0.00478592
0.00515009
0.00554354
0.00595935
0.00639403
0.0068457
0.00731344
0.00779667
0.00829502
0.00880827
0.00933642
0.0098792
0.0104365
0.0110082
0.0115944
0.0121951
0.0128107
0.0134413
0.0140872
0.0147486
0.0154258
0.0161193
0.0168294
0.0175563
0.0183011
0.019065
0.0198522
0.000902971
0.00113087
0.00140838
0.00168537
0.00194897
0.00219789
0.00243461
0.00266299
0.00288725
0.00311216
0.00334283
0.00358453
0.00384241
0.00412105
0.00442413
0.00475478
0.00511684
0.00551095
0.00592854
0.00636435
0.00681579
0.00728152
0.00776072
0.0082529
0.00875765
0.0092747
0.00980383
0.0103446
0.0108969
0.0114606
0.0120356
0.0126219
0.0132197
0.013829
0.0144501
0.015083
0.0157279
0.0163853
0.0170552
0.0177381
0.0184345
0.0191456
0.0198713
0.000982682
0.00120949
0.0014924
0.00177606
0.00204629
0.00230177
0.00254557
0.0027822
0.00301674
0.00325476
0.00350194
0.00376399
0.00404572
0.00435085
0.00468189
0.00504123
0.0054325
0.00585086
0.00628828
0.00674087
0.00720657
0.00768433
0.00817332
0.00867313
0.00918327
0.00970334
0.0102328
0.0107714
0.0113187
0.0118746
0.0124391
0.0130121
0.0135935
0.0141832
0.0147814
0.0153884
0.016004
0.0166284
0.0172616
0.0179042
0.0185566
0.019219
0.0198912
0.00105527
0.00128138
0.00156804
0.00185698
0.002133
0.0023947
0.00264546
0.00289039
0.0031355
0.00338702
0.00365142
0.00393443
0.00423998
0.00457037
0.00492715
0.00531249
0.00572893
0.00616804
0.00662302
0.00709006
0.00756791
0.0080561
0.00855375
0.0090604
0.00957553
0.0100981
0.0106275
0.0111636
0.0117059
0.0122544
0.0128091
0.0133698
0.0139358
0.0145071
0.0150844
0.0156682
0.0162574
0.0168513
0.0174505
0.0180559
0.0186676
0.0192857
0.0199102
0.00111116
0.00132984
0.00162378
0.00192128
0.00220454
0.00247237
0.0027301
0.00298511
0.00324326
0.00351276
0.00380041
0.00410735
0.00443473
0.00478758
0.00516776
0.00557822
0.00602023
0.00648161
0.00695026
0.00742263
0.00790983
0.00840738
0.00891309
0.00942743
0.00994877
0.0104715
0.0109996
0.0115318
0.0120673
0.012608
0.0131541
0.0137036
0.0142532
0.0148047
0.0153624
0.0159294
0.0164942
0.0170572
0.0176229
0.0181929
0.0187674
0.0193448
0.0199237
0.000606078
0.00214647
0.00385312
0.00548083
0.00698647
0.008375
0.00967186
0.0109435
0.0122783
0.0136782
0.0151211
0.0165922
0.0180826
0.0195877
0.0211061
0.0226373
0.0241808
0.0257362
0.0273026
0.0288789
0.0304652
0.0320606
0.0336645
0.0352761
0.0368952
0.038521
0.0401534
0.0417919
0.043436
0.0450853
0.0467392
0.0483975
0.0500592
0.0517241
0.0533917
0.055061
0.0567313
0.0584016
0.0600717
0.0617404
0.0634072
0.0650721
0.0667362
0.000369828
0.00188143
0.00313082
0.00431531
0.00549418
0.00666991
0.00784252
0.00902502
0.0102354
0.0114708
0.0127106
0.0139439
0.0152513
0.0166825
0.0181919
0.0197483
0.0213357
0.0229459
0.0245738
0.0262167
0.0278725
0.0295394
0.031216
0.0329013
0.0345943
0.0362942
0.0380002
0.0397116
0.0414278
0.0431481
0.0448722
0.0465995
0.0483292
0.0500606
0.0517934
0.0535266
0.0552593
0.0569913
0.0587214
0.0604488
0.062173
0.0638936
0.0656104
0.000270739
0.00138716
0.00293448
0.00429587
0.00545025
0.00650172
0.00751353
0.00852257
0.00954831
0.010598
0.0116703
0.0127663
0.0139015
0.0150831
0.0163206
0.0177096
0.0192132
0.0207881
0.0224092
0.0240631
0.0257415
0.0274387
0.0291519
0.0308783
0.0326156
0.0343623
0.036117
0.0378784
0.0396454
0.0414171
0.0431929
0.0449719
0.0467532
0.0485361
0.0503198
0.0521032
0.053886
0.0556671
0.0574457
0.0592208
0.0609917
0.0627575
0.0645167
0.000244354
0.00126412
0.00270071
0.00420784
0.00550866
0.00663355
0.00764069
0.00858022
0.00949099
0.010401
0.0113289
0.0122864
0.0132799
0.0143137
0.0153963
0.0165465
0.0177826
0.0191861
0.0207102
0.0223114
0.0239642
0.0256538
0.0273713
0.0291106
0.0308675
0.0326387
0.034422
0.0362153
0.0380168
0.0398253
0.0416394
0.0434578
0.0452795
0.0471036
0.0489288
0.0507543
0.0525792
0.0544023
0.0562227
0.0580394
0.0598515
0.0616574
0.0634556
0.000214358
0.00113684
0.00242583
0.00393558
0.00537644
0.00663771
0.00774101
0.0087255
0.00962977
0.0104889
0.0113332
0.0121863
0.0130648
0.0139802
0.0149409
0.0159535
0.0170287
0.0181895
0.0194859
0.0209455
0.0225135
0.0241531
0.0258426
0.0275687
0.0293229
0.0310995
0.0328941
0.0347039
0.0365259
0.0383583
0.040199
0.0420462
0.0438985
0.0457549
0.0476136
0.0494737
0.0513339
0.0531928
0.0550495
0.0569027
0.0587512
0.0605935
0.0624277
0.000195628
0.00105841
0.00225767
0.00369893
0.00517921
0.00653313
0.00773322
0.00879816
0.00975493
0.0106325
0.0114598
0.0122645
0.0130707
0.0138977
0.0147601
0.0156681
0.0166302
0.0176553
0.0187611
0.0199832
0.0213885
0.0229255
0.0245503
0.0262359
0.0279662
0.0297302
0.031521
0.0333334
0.0351635
0.0370083
0.038865
0.0407315
0.042606
0.0444864
0.0463713
0.0482591
0.0501483
0.0520374
0.0539252
0.0558102
0.0576909
0.0595657
0.061432
0.000177656
0.000988309
0.0021076
0.00346741
0.0049431
0.00635734
0.00763796
0.00878251
0.00980808
0.010736
0.0115895
0.0123931
0.0131715
0.0139477
0.0147415
0.0155686
0.0164409
0.0173675
0.0183573
0.0194252
0.020607
0.0219742
0.0234883
0.0251022
0.0267854
0.0285192
0.0302915
0.032094
0.0339211
0.0357681
0.0376317
0.0395091
0.0413976
0.0432949
0.0451991
0.0471083
0.0490207
0.0509347
0.0528488
0.054761
0.0566702
0.0585749
0.0604755
0.000162887
0.000932109
0.0019874
0.00327397
0.00471163
0.00615016
0.00748821
0.00870004
0.00979161
0.0107779
0.0116764
0.0125069
0.0132907
0.0140501
0.0148063
0.0155786
0.016383
0.017232
0.0181355
0.0191029
0.0201497
0.021312
0.02266
0.0241631
0.0257727
0.0274569
0.0291959
0.0309767
0.0327905
0.0346308
0.0364932
0.0383737
0.0402691
0.0421769
0.0440942
0.046019
0.0479494
0.0498834
0.0518189
0.0537543
0.055688
0.0576185
0.0595449
0.000149596
0.000883161
0.001883
0.0031039
0.00449152
0.00592951
0.00730494
0.00857062
0.00972051
0.0107631
0.0117116
0.0125815
0.0133902
0.0141568
0.0149015
0.0156441
0.0164031
0.017194
0.0180296
0.0189203
0.0198763
0.0209142
0.0220722
0.0234198
0.0249239
0.0265367
0.0282265
0.0299734
0.031764
0.0335894
0.0354431
0.03732
0.0392162
0.0411283
0.0430533
0.0449889
0.0469323
0.0488816
0.0508343
0.0527889
0.0547433
0.0566961
0.0586452
0.000137771
0.000840694
0.00179256
0.00295577
0.00429
0.00570894
0.00710346
0.0084096
0.00960864
0.0107023
0.0116998
0.0126129
0.0134557
0.0142441
0.0149956
0.015729
0.0164629
0.0172144
0.0179989
0.0188288
0.0197149
0.0206684
0.0217075
0.0228759
0.0242389
0.0257545
0.0273775
0.0290775
0.0308352
0.0326376
0.0344757
0.036343
0.0382342
0.0401455
0.0420734
0.0440148
0.045967
0.0479273
0.0498935
0.0518636
0.0538355
0.0558083
0.0577822
0.000127104
0.000803008
0.00171262
0.00282464
0.00410701
0.0054957
0.00689398
0.0082282
0.00946722
0.0106056
0.0116484
0.0126043
0.0134847
0.0143024
0.0150723
0.0158111
0.0165363
0.0172652
0.0180142
0.0187978
0.0196283
0.0205166
0.0214751
0.0225255
0.02372
0.0251099
0.0266455
0.0282843
0.0299985
0.0317698
0.0335856
0.0354374
0.0373189
0.0392247
0.041151
0.0430942
0.045051
0.0470187
0.0489949
0.050977
0.052963
0.0549509
0.0569385
0.000117455
0.000769443
0.00164127
0.00270758
0.00394113
0.00529389
0.00668408
0.00803489
0.00930517
0.0104817
0.0115652
0.0125616
0.0134797
0.0143299
0.0151249
0.0158787
0.0166072
0.0173269
0.0180543
0.0188048
0.0195922
0.0204285
0.021325
0.0222956
0.0233676
0.0246041
0.026029
0.0275903
0.0292494
0.030981
0.032768
0.0345991
0.0364658
0.0383621
0.0402828
0.0422238
0.0441819
0.0461538
0.0481365
0.0501275
0.0521244
0.0541248
0.0561267
0.000108677
0.000739192
0.00157709
0.0026022
0.00379057
0.00510512
0.00647849
0.00783617
0.00912938
0.0103378
0.011457
0.0124906
0.0134449
0.0143284
0.0151515
0.0159261
0.0166663
0.017387
0.0181042
0.0188332
0.0195888
0.0203841
0.0212308
0.0221407
0.0231306
0.0242358
0.0255273
0.0269932
0.0285847
0.0302674
0.0320189
0.0338238
0.0356714
0.037554
0.0394656
0.0414014
0.0433575
0.0453303
0.0473165
0.0493135
0.0513185
0.0533288
0.0553421
0.000100706
0.000711764
0.00151891
0.00250664
0.00365343
0.00492957
0.00628029
0.00763657
0.00894526
0.0101791
0.0113295
0.0123965
0.0133847
0.0143008
0.0151531
0.0159518
0.016709
0.0174381
0.0181538
0.0188712
0.0196049
0.020369
0.0211758
0.0220371
0.0229658
0.0239835
0.0251385
0.0264915
0.0280016
0.0296259
0.0313347
0.0331079
0.0349321
0.0367973
0.0386964
0.040624
0.0425752
0.0445461
0.0465333
0.0485337
0.0505441
0.0525619
0.0545839
9.34173e-05
0.000686731
0.00146588
0.00241955
0.00352803
0.00476674
0.00609119
0.00743945
0.00875673
0.0100105
0.0111873
0.0122841
0.0133034
0.0142503
0.0151317
0.015956
0.0167335
0.0174761
0.018197
0.0189104
0.0196309
0.0203724
0.0211481
0.02197
0.0228503
0.0238042
0.0248609
0.0260849
0.0274991
0.0290542
0.0307125
0.0324484
0.0342446
0.0360889
0.0379726
0.039889
0.0418327
0.0437993
0.0457851
0.0477865
0.0498003
0.0518231
0.0538512
8.67248e-05
0.000663755
0.00141728
0.00233974
0.00341279
0.00461571
0.00591202
0.0072472
0.00856715
0.0098355
0.0110342
0.0121571
0.0132047
0.0141805
0.01509
0.0159402
0.0167397
0.017499
0.0182299
0.0189455
0.0196596
0.0203861
0.0211383
0.0219288
0.0227696
0.0236738
0.0246608
0.0257716
0.0270758
0.0285504
0.0301499
0.0318425
0.0336063
0.0354261
0.0372914
0.039194
0.0411278
0.043088
0.0450703
0.0470707
0.0490858
0.051112
0.0531439
8.10416e-05
0.000642542
0.00137249
0.00226624
0.00330652
0.00447548
0.00574284
0.00706127
0.00837895
0.00965698
0.0108733
0.012019
0.013092
0.0140944
0.0150306
0.0159062
0.0167285
0.0175065
0.0182508
0.0189731
0.0196864
0.0204042
0.0211396
0.0219056
0.0227143
0.023578
0.024512
0.025543
0.0267303
0.0281129
0.0296451
0.0312881
0.0330147
0.0348066
0.0366504
0.0385368
0.0404587
0.0424104
0.0443872
0.046385
0.0484004
0.0504313
0.05248
7.63794e-05
0.000622921
0.0013311
0.00219826
0.00320821
0.00434515
0.00558355
0.00688263
0.00819403
0.00947734
0.0107074
0.0118723
0.0129679
0.0139949
0.014956
0.015856
0.0167012
0.017499
0.0182587
0.0189911
0.019708
0.0204222
0.0211467
0.0218942
0.0226772
0.0235077
0.0243991
0.0253708
0.0264615
0.0277412
0.0291969
0.0307835
0.0324681
0.034228
0.0360476
0.0379154
0.0398233
0.0417646
0.0437341
0.0457276
0.0477415
0.0497725
0.0518161
7.20686e-05
0.000604808
0.00129281
0.00213526
0.00311699
0.00422373
0.00543378
0.00671185
0.00801361
0.00929832
0.0105387
0.0117196
0.0128351
0.0138842
0.0148685
0.0157919
0.0166592
0.0174772
0.0182538
0.0189987
0.0197225
0.0204373
0.0211556
0.0218899
0.0226527
0.0234561
0.0243125
0.0252378
0.0262588
0.0274332
0.0288037
0.030327
0.0319644
0.0336888
0.0354811
0.037328
0.0392198
0.0411489
0.0431096
0.0450973
0.0471082
0.0491399
0.0511942
6.80507e-05
0.000587823
0.00125714
0.00207671
0.00303207
0.00411032
0.00529272
0.00654892
0.00783832
0.00912133
0.0103685
0.0115626
0.0126954
0.0137643
0.0147701
0.0157154
0.0166043
0.0174424
0.0182366
0.0189955
0.0197288
0.0204475
0.0211635
0.0218891
0.0226366
0.023418
0.0242456
0.0251331
0.0261009
0.0271884
0.0284649
0.0299175
0.0315023
0.0331871
0.0349492
0.0367729
0.0386466
0.0405618
0.0425122
0.0444924
0.0464981
0.0485251
0.0505664
6.42892e-05
0.000571964
0.00122377
0.00202196
0.00295271
0.00400418
0.00516003
0.00639378
0.00766897
0.00894742
0.0101985
0.011403
0.0125506
0.0136374
0.0146628
0.0156285
0.016538
0.0173957
0.0182078
0.0189817
0.0197262
0.0204514
0.0211684
0.0218891
0.0226255
0.0233896
0.0241933
0.0250496
0.0259751
0.0269982
0.0281789
0.0295539
0.0310806
0.0327216
0.0344504
0.0362484
0.0381021
0.0400019
0.0419405
0.0439117
0.0459106
0.0479328
0.049974
6.08156e-05
0.000557157
0.0011926
0.00197078
0.00287844
0.00390466
0.00503499
0.00624634
0.00750586
0.0087774
0.0100298
0.0112421
0.0124023
0.0135048
0.014548
0.0155328
0.0164616
0.0173384
0.0181683
0.0189577
0.0197147
0.0204483
0.021169
0.021888
0.0226169
0.0233676
0.0241519
0.0249821
0.0258729
0.026846
0.0279447
0.0292354
0.0306982
0.0322911
0.0339834
0.0357532
0.0375851
0.0394678
0.041393
0.0433539
0.0453449
0.0473609
0.0493959
5.76093e-05
0.000543285
0.00116337
0.00192272
0.00280874
0.00381117
0.00491708
0.0061062
0.00734921
0.00861174
0.00986316
0.011081
0.0122515
0.0133678
0.0144272
0.0154295
0.0163767
0.0172717
0.018119
0.0189242
0.0196944
0.020438
0.0211644
0.0218843
0.0226088
0.0233496
0.0241183
0.0249268
0.0257886
0.0267217
0.0277578
0.0289609
0.0303542
0.0318946
0.0335469
0.0352862
0.0370943
0.0389584
0.0408688
0.0428182
0.0448004
0.0468102
0.0488425
5.46015e-05
0.00053027
0.00113595
0.00187759
0.00274319
0.00372313
0.00480575
0.00597303
0.00719875
0.00845095
0.00969939
0.0109205
0.0120995
0.0132277
0.0143015
0.0153201
0.0162843
0.0171967
0.0180609
0.0188819
0.0196658
0.0204203
0.021154
0.021877
0.0225998
0.0233336
0.02409
0.0248807
0.0257182
0.0266183
0.0276056
0.0287292
0.0300477
0.0315311
0.0331402
0.0348462
0.0366285
0.0384724
0.0403668
0.0423038
0.0442767
0.0462804
0.0483118
5.18149e-05
0.000517964
0.00111013
0.00183513
0.00268155
0.00364013
0.0047004
0.00584646
0.00705451
0.00829516
0.00953881
0.0107615
0.0119469
0.0130854
0.0141721
0.0152055
0.0161856
0.0171145
0.017995
0.0188314
0.0196293
0.0203954
0.0211377
0.0218654
0.0225887
0.0233182
0.0240653
0.0248413
0.0256585
0.0265309
0.0274787
0.0285386
0.0297781
0.0311999
0.0327622
0.0344324
0.0361869
0.0380089
0.0398863
0.0418098
0.0437724
0.0457687
0.0477951
4.92043e-05
0.000506393
0.00108573
0.00179503
0.00262325
0.0035617
0.00460074
0.00572603
0.00691639
0.00814452
0.00938192
0.0106044
0.0117946
0.0129417
0.0140399
0.0150867
0.0160816
0.017026
0.0179221
0.0187737
0.0195855
0.0203636
0.0211154
0.0218493
0.0225748
0.0233023
0.0240426
0.0248069
0.025607
0.026456
0.0273713
0.0283815
0.029544
0.0309002
0.0324122
0.0340437
0.0357683
0.0375671
0.0394261
0.041335
0.0432862
0.0452733
0.0472905
4.67723e-05
0.000495472
0.0010627
0.00175717
0.00256816
0.00348749
0.00450623
0.00561153
0.00678417
0.00799914
0.00922901
0.0104499
0.0116432
0.0127975
0.0139057
0.0149646
0.0159732
0.016932
0.0178431
0.0187093
0.0195349
0.0203253
0.0210872
0.0218283
0.0225576
0.0232849
0.0240206
0.0247758
0.0255617
0.0263909
0.0272788
0.0282488
0.029345
0.0306314
0.0320894
0.0336796
0.0353723
0.0371461
0.0389853
0.0408786
0.0428174
0.0447943
0.0468038
4.45193e-05
0.000485147
0.0010409
0.00172125
0.00251597
0.00341715
0.00441651
0.00550246
0.00665767
0.00785884
0.00908033
0.010298
0.0114932
0.0126532
0.0137702
0.01484
0.0158611
0.0168335
0.0177586
0.018639
0.0194781
0.0202809
0.0210532
0.0218024
0.0225367
0.0232654
0.0239985
0.0247467
0.0255211
0.0263335
0.0271982
0.0281348
0.0291781
0.0303928
0.0317933
0.0333393
0.0349979
0.0367451
0.0385633
0.0404399
0.0423651
0.0443315
0.0463327
4.23999e-05
0.000475406
0.00102029
0.00168726
0.00246652
0.00335042
0.00433126
0.00539849
0.00653639
0.00772364
0.0089358
0.0101492
0.0113449
0.0125093
0.0136337
0.0147134
0.015746
0.0167311
0.0176695
0.0185634
0.0194157
0.0202307
0.0210139
0.0217717
0.022512
0.0232434
0.0239756
0.0247188
0.0254838
0.0262822
0.0271271
0.0280358
0.0290363
0.0301833
0.0315231
0.0330222
0.0346446
0.0363633
0.0381593
0.0400182
0.0419292
0.043884
0.0458754
4.04334e-05
0.000466106
0.00100069
0.00165499
0.00241951
0.00328696
0.00425016
0.00529935
0.00642022
0.00759334
0.00879551
0.0100037
0.0111988
0.0123663
0.0134971
0.0145854
0.0156285
0.0166254
0.0175764
0.0184831
0.0193482
0.0201753
0.0209694
0.0217363
0.0224833
0.0232186
0.0239512
0.0246911
0.0254488
0.0262355
0.0270635
0.0279483
0.0289135
0.0300024
0.0312785
0.0327278
0.0343115
0.0360004
0.0377728
0.0396128
0.0415088
0.0434518
0.045435
3.85777e-05
0.000457353
0.000982049
0.0016243
0.00237478
0.00322654
0.00417282
0.00520459
0.00630892
0.00746781
0.00865946
0.00986165
0.011055
0.0122246
0.0133606
0.0144567
0.0155093
0.016517
0.0174798
0.0183988
0.0192762
0.0201152
0.0209201
0.0216964
0.0224507
0.0231908
0.0239251