/*--------------------------------*- C++ -*----------------------------------*\
| =========                 |                                                 |
| \\      /  F ield         | OpenFOAM: The Open Source CFD Toolbox           |
|  \\    /   O peration     | Version:  2.3.0                                 |
|   \\  /    A nd           | Web:      www.OpenFOAM.org                      |
|    \\/     M anipulation  |                                                 |
\*---------------------------------------------------------------------------*/
FoamFile
{
    version     2.0;
    format      ascii;
    class       volScalarField;
    location    "2000";
    object      p;
}
// * * * * * * * * * * * * * * * * * * * * * * * * * * * * * * * * * * * * * //

dimensions      [0 2 -2 0 0 0 0];

internalField   nonuniform List<scalar> 
37234
(
-0.000279674
-2.05891
-4.05175
-6.07854
-8.15535
-10.284
-12.4667
-14.7059
-17.006
-19.3661
-21.791
-24.2804
-26.8366
-29.4619
-32.1539
-34.9118
-37.7339
-40.6199
-43.556
-46.5457
-49.5714
-52.6338
-55.7245
-58.8207
-61.9191
-65.0107
-68.1009
-71.1505
-74.1881
-77.1665
-80.1261
-82.9935
-85.7989
-88.4416
-90.8469
-92.8294
-94.1974
-94.4681
-92.4515
-86.9692
-80.3655
-74.0433
-42.3909
2.48106
0.890685
-0.762899
-2.44291
-4.1509
-5.88646
-7.65144
-9.44361
-11.2659
-13.1155
-14.9936
-16.899
-18.8322
-20.7939
-22.7834
-24.7991
-26.8451
-28.9204
-31.0261
-33.1564
-35.3091
-37.4829
-39.6681
-41.8472
-44.0009
-46.0997
-48.1153
-49.9757
-51.6356
-52.9801
-53.923
-54.2929
-53.9364
-52.5971
-50.0332
-45.8702
-39.6978
-31.0531
-19.3148
-3.93364
15.8118
41.6976
74.7642
4.77546
3.69337
2.37781
1.03457
-0.317913
-1.6792
-3.05175
-4.4308
-5.81754
-7.20941
-8.60459
-9.99893
-11.3891
-12.7715
-14.1432
-15.4911
-16.8146
-18.1028
-19.3461
-20.5345
-21.6539
-22.69
-23.6343
-24.4623
-25.152
-25.6825
-26.02
-26.137
-25.9779
-25.4998
-24.6361
-23.3001
-21.4038
-18.8169
-15.4216
-11.0479
-5.52315
1.32286
9.64627
19.5961
31.2308
44.674
59.7036
7.19722
6.25967
5.17165
4.07743
2.98548
1.89509
0.802237
-0.286284
-1.37357
-2.45546
-3.5299
-4.59576
-5.64492
-6.68243
-7.69622
-8.68357
-9.63774
-10.5553
-11.4175
-12.2223
-12.9564
-13.5973
-14.1299
-14.5381
-14.7857
-14.843
-14.6837
-14.2539
-13.5057
-12.3805
-10.8172
-8.72731
-6.03212
-2.62453
1.59413
6.72705
12.8867
20.1371
28.5391
38.0859
48.6571
60.061
71.8771
9.24639
8.5267
7.64926
6.77255
5.89897
5.03057
4.16205
3.30384
2.45364
1.61917
0.798545
-0.00464329
-0.780777
-1.53673
-2.25584
-2.94215
-3.57832
-4.16535
-4.68298
-5.13052
-5.49108
-5.74933
-5.8885
-5.89293
-5.73765
-5.39607
-4.83822
-4.02631
-2.92658
-1.4862
0.339299
2.61694
5.40493
8.77348
12.8023
17.5513
23.0737
29.4227
36.5936
44.5499
53.1832
62.3326
71.7134
11.3497
10.6056
9.88082
9.17051
8.46091
7.76609
7.06643
6.38241
5.70634
5.05328
4.41273
3.80075
3.21727
2.65837
2.12649
1.63562
1.19584
0.810451
0.489904
0.24688
0.0889296
0.0392314
0.106451
0.319451
0.689118
1.24486
2.01165
3.01851
4.31728
5.94252
7.92857
10.3299
13.2015
16.5961
20.5579
25.1328
30.3662
36.2639
42.8082
49.9442
57.5681
65.5439
73.671
13.1147
12.4556
11.8597
11.2845
10.6989
10.1508
9.58035
9.04471
8.50331
7.99626
7.48464
7.0188
6.58762
6.19613
5.80822
5.46692
5.17769
4.94737
4.78658
4.70282
4.69792
4.81286
5.04246
5.42185
5.9632
6.67968
7.58571
8.72441
10.1151
11.8148
13.858
16.2776
19.1368
22.4562
26.2937
30.6294
35.5717
41.0191
47.0195
53.4563
60.2837
67.3867
74.6523
14.5864
14.1297
13.6172
13.1316
12.6189
12.1984
11.6941
11.2929
10.8662
10.5108
10.0742
9.69314
9.35474
9.13246
8.8778
8.63523
8.44246
8.31297
8.26218
8.28071
8.35961
8.55477
8.84926
9.30049
9.92395
10.7359
11.7197
12.9178
14.32
15.9884
18.0739
20.4973
23.2797
26.4426
30.1559
34.2419
38.9495
44.0859
49.7388
55.7022
61.9809
68.4165
75.0886
16.067
15.7804
15.31
14.9779
14.439
14.2377
13.6899
13.3527
12.8837
12.669
12.2404
11.9114
11.6723
11.5664
11.3824
11.1629
10.9909
10.8683
10.8379
10.8696
10.9126
11.0128
11.1314
11.4208
11.8825
12.543
13.3994
14.4134
15.8302
17.7633
19.46
21.8014
24.3887
27.1376
30.638
34.4435
38.9384
43.8545
49.3755
55.3158
61.4713
67.4574
73.9128
56.7866
96.9162
119.849
136.023
148.334
157.515
164.193
169.024
172.396
174.667
176.076
176.833
177.063
176.881
176.376
175.625
174.68
173.589
172.387
171.096
169.743
168.347
166.917
165.469
164.016
162.558
161.109
159.671
158.247
156.84
155.451
154.082
152.733
151.404
150.095
148.806
147.537
146.287
145.058
143.846
142.652
141.497
140.56
106.202
128.474
144.297
155.875
164.371
170.425
174.55
177.18
178.65
179.238
179.167
178.607
177.694
176.54
175.227
173.804
172.309
170.778
169.233
167.691
166.165
164.663
163.187
161.743
160.327
158.941
157.584
156.254
154.95
153.67
152.413
151.178
149.964
148.769
147.595
146.441
145.307
144.191
143.094
142.014
140.949
139.915
139.087
75.0294
89.4968
102.405
113.513
122.87
130.627
136.952
142.04
146.075
149.221
151.635
153.444
154.75
155.647
156.207
156.498
156.57
156.466
156.214
155.842
155.371
154.816
154.195
153.518
152.795
152.033
151.243
150.427
149.592
148.743
147.882
147.012
146.137
145.259
144.379
143.5
142.623
141.748
140.877
140.012
139.15
138.313
137.699
83.5389
94.5403
104.555
113.426
121.094
127.607
133.047
137.516
141.135
144.018
146.278
148.011
149.304
150.237
150.864
151.242
151.409
151.413
151.273
151.019
150.673
150.25
149.766
149.231
148.657
148.049
147.416
146.76
146.087
145.399
144.701
143.994
143.282
142.564
141.844
141.123
140.4
139.678
138.956
138.234
137.506
136.794
136.304
81.0377
90.0419
98.458
106.144
112.993
118.995
124.165
128.556
132.245
135.3
137.808
139.837
141.458
142.727
143.703
144.431
144.946
145.286
145.474
145.532
145.486
145.349
145.135
144.859
144.529
144.151
143.734
143.283
142.805
142.301
141.779
141.241
140.689
140.125
139.554
138.976
138.392
137.805
137.216
136.626
136.028
135.453
135.247
81.7195
89.5248
96.8796
103.684
109.818
115.283
120.056
124.173
127.691
130.661
133.143
135.196
136.88
138.234
139.321
140.167
140.816
141.286
141.603
141.789
141.869
141.86
141.771
141.621
141.414
141.155
140.858
140.526
140.164
139.772
139.363
138.935
138.494
138.039
137.578
137.109
136.63
136.146
135.658
135.167
134.666
134.175
133.848
81.8108
88.7895
95.3711
101.555
107.137
112.161
116.587
120.482
123.861
126.763
129.231
131.295
133.019
134.436
135.633
136.586
137.337
137.897
138.305
138.59
138.772
138.866
138.887
138.845
138.755
138.6
138.407
138.172
137.895
137.592
137.275
136.937
136.592
136.227
135.86
135.472
135.068
134.662
134.256
133.858
133.45
133.047
132.796
81.6602
88.1441
94.1752
99.9551
105.153
109.876
114.098
117.848
121.115
123.937
126.352
128.374
130.101
131.584
132.935
133.911
134.656
135.215
135.661
136.006
136.256
136.434
136.558
136.607
136.621
136.521
136.37
136.178
135.954
135.723
135.487
135.222
134.97
134.668
134.361
134.013
133.664
133.335
133.018
132.714
132.374
132.045
131.945
80.2798
86.6514
92.4565
98.1043
102.748
108.241
112.648
116.309
119.378
122.022
124.254
126.115
127.751
129.18
130.591
131.254
132.21
132.87
133.384
133.781
134.106
134.388
134.605
134.682
134.712
134.422
134.31
134.251
134.141
134.013
133.838
133.628
133.45
133.079
132.869
132.632
132.415
132.228
132.021
131.765
131.303
131.158
131.163
71.5442
71.6604
71.7937
71.928
72.0611
72.1918
72.3195
72.4434
72.5633
72.6787
72.7891
72.894
72.9934
73.087
73.1743
73.2553
73.3298
73.3975
73.4575
73.5102
73.5555
73.5929
73.6226
73.6442
73.6575
73.6625
73.6586
73.6459
73.6245
73.5933
73.5527
73.5024
73.4421
73.3715
73.2908
73.2004
73.1006
72.9924
72.8784
72.7599
72.6352
72.4988
72.5632
71.6352
71.6573
71.689
71.7164
71.7393
71.7577
71.7719
71.7824
71.7897
71.7941
71.7964
71.7974
71.7975
71.7973
71.7975
71.7986
71.8004
71.8041
71.8093
71.8165
71.8256
71.8362
71.8491
71.8642
71.8817
71.9015
71.9235
71.9476
71.9744
72.0033
72.0346
72.0684
72.1047
72.1438
72.1858
72.2314
72.2807
72.3336
72.3899
72.4485
72.517
72.5981
72.679
71.7158
71.7331
71.7484
71.7612
71.7721
71.7822
71.7923
71.8026
71.8136
71.8255
71.8383
71.8517
71.866
71.8808
71.8959
71.9119
71.929
71.9467
71.9644
71.9822
72
72.0173
72.0341
72.0508
72.067
72.0829
72.0991
72.1156
72.133
72.1512
72.1707
72.1921
72.2155
72.2414
72.2699
72.3016
72.3365
72.3742
72.4131
72.4506
72.4965
72.5992
72.7228
71.8461
71.8752
71.906
71.9361
71.9643
71.9912
72.0172
72.0427
72.0681
72.093
72.1174
72.1416
72.1649
72.1873
72.2094
72.2319
72.2546
72.2785
72.3027
72.3278
72.3525
72.3766
72.3993
72.422
72.4436
72.4645
72.4851
72.5044
72.5239
72.5432
72.5629
72.583
72.6038
72.6249
72.6463
72.6683
72.6907
72.7134
72.736
72.7581
72.7877
72.8872
73.027
71.9743
71.9973
72.0272
72.0571
72.0855
72.1118
72.136
72.1595
72.1824
72.2044
72.2261
72.248
72.2696
72.2899
72.3083
72.3263
72.3452
72.3671
72.3911
72.4175
72.4453
72.4729
72.4996
72.5261
72.5518
72.577
72.6017
72.6257
72.6496
72.6735
72.6986
72.7257
72.7539
72.782
72.8095
72.8361
72.8616
72.8861
72.9099
72.9344
72.9685
73.0751
73.2266
72.0629
72.0903
72.1214
72.1506
72.1768
72.2017
72.2228
72.2434
72.2653
72.2854
72.3051
72.3271
72.3503
72.3716
72.3884
72.4035
72.4156
72.4328
72.4537
72.4795
72.5118
72.5426
72.5714
72.5998
72.6281
72.6559
72.6815
72.7063
72.7295
72.7501
72.7704
72.7957
72.826
72.8574
72.8868
72.9129
72.9346
72.9518
72.9667
72.9858
73.0189
73.1312
73.3025
72.1323
72.1678
72.2051
72.2391
72.2674
72.2978
72.3194
72.3424
72.3707
72.394
72.4143
72.4405
72.4742
72.5063
72.528
72.5462
72.549
72.562
72.5818
72.6028
72.6462
72.689
72.7225
72.7516
72.782
72.815
72.8414
72.8701
72.896
72.9137
72.9224
72.9427
72.9767
73.0112
73.0409
73.0642
73.077
73.0775
73.0668
73.0512
73.0394
73.0935
73.219
72.1897
72.2368
72.2892
72.3254
72.3438
72.3709
72.3659
72.362
72.3839
72.3981
72.3907
72.3999
72.4203
72.4715
72.4882
72.5285
72.5003
72.474
72.4842
72.4688
72.5175
72.5846
72.6359
72.6697
72.7
72.7476
72.7741
72.8068
72.8488
72.8693
72.8463
72.8404
72.8892
72.9536
73.008
73.0495
73.0681
73.0535
73.0223
73.0192
73.024
73.0906
73.268
72.0995
72.1771
72.3343
72.4667
72.5665
72.756
72.8539
72.8757
72.9549
73.0674
73.1171
73.0889
73.1381
73.188
73.2289
73.3436
73.3573
73.2799
73.3088
73.2256
73.2733
73.347
73.3914
73.424
73.4205
73.4915
73.4965
73.5189
73.5709
73.6951
73.6027
73.497
73.4935
73.5347
73.569
73.6093
73.6399
73.6348
73.5098
73.365
73.1947
72.7789
72.3229
73.2121
73.6055
74.2655
74.7834
75.2427
75.6472
76.0014
76.3076
76.5706
76.7939
76.9821
77.1394
77.2696
77.3776
77.4666
77.5415
77.606
77.6638
77.7185
77.7732
77.8313
77.8954
77.968
78.0509
78.145
78.2508
78.368
78.4959
78.6336
78.78
78.9341
79.0946
79.2606
79.431
79.6048
79.7815
79.9601
80.1403
80.3214
80.5032
80.6845
80.8639
81.0605
73.0418
73.1105
73.3432
73.4956
73.6818
73.8772
74.0804
74.2872
74.4959
74.7059
74.9165
75.1278
75.3396
75.5527
75.7661
75.9806
76.1956
76.411
76.6262
76.8404
77.0533
77.2642
77.4724
77.6771
77.8778
78.0741
78.2661
78.4536
78.6367
78.8157
78.9909
79.1628
79.3317
79.4982
79.6625
79.8251
79.9864
80.1467
80.3061
80.4653
80.6233
80.7802
80.9539
73.0727
73.1984
73.4014
73.5398
73.7117
73.8917
74.0857
74.2901
74.5031
74.7224
74.946
75.173
75.4017
75.6315
75.8612
76.09
76.3175
76.5425
76.7644
76.9826
77.1967
77.4059
77.61
77.8086
78.0016
78.1891
78.3714
78.5487
78.7213
78.8898
79.0544
79.2155
79.3736
79.5288
79.6817
79.8324
79.9812
80.1283
80.2739
80.4184
80.5612
80.7027
80.8595
73.3657
73.5581
73.7998
73.9924
74.2047
74.4147
74.6304
74.8486
75.068
75.2872
75.5053
75.7213
75.9342
76.1438
76.3495
76.5509
76.7478
76.9401
77.1277
77.3106
77.4891
77.6633
77.8334
77.9999
78.163
78.323
78.4802
78.6349
78.7873
78.9377
79.0864
79.2333
79.3787
79.5226
79.6651
79.8063
79.946
80.0846
80.2221
80.3586
80.4935
80.6276
80.7794
73.5521
73.7687
74.0182
74.2289
74.4502
74.6653
74.8818
75.0966
75.3102
75.5212
75.7292
75.9339
76.1349
76.3322
76.5252
76.7143
76.899
77.0796
77.256
77.4285
77.5973
77.7625
77.9243
78.0829
78.2385
78.3911
78.5411
78.6885
78.8337
78.9767
79.1177
79.2568
79.3941
79.5296
79.6636
79.7962
79.9271
80.0567
80.1851
80.3125
80.4382
80.5626
80.7031
73.6402
73.8902
74.1573
74.3839
74.6094
74.8235
75.036
75.2459
75.4533
75.6583
75.8605
76.0599
76.2557
76.4479
76.6362
76.8207
77.0013
77.1781
77.351
77.5202
77.6854
77.8471
78.0051
78.1596
78.3106
78.4582
78.6027
78.7444
78.8839
79.0209
79.1555
79.2877
79.4178
79.546
79.6727
79.7972
79.9195
80.0402
80.1598
80.2786
80.3953
80.5098
80.639
73.5743
73.9095
74.2593
74.5334
74.7752
74.9908
75.2016
75.4109
75.6187
75.8218
76.0207
76.2145
76.4037
76.5895
76.7719
76.9508
77.1263
77.2976
77.4649
77.6281
77.7875
77.943
78.0947
78.2424
78.3863
78.5269
78.6645
78.7998
78.933
79.0637
79.1919
79.3176
79.4406
79.562
79.6823
79.7996
79.9139
80.0268
80.1391
80.2507
80.3603
80.467
80.5848
73.7961
74.2758
74.6188
74.8519
75.041
75.217
75.4046
75.6013
75.7911
75.9765
76.1573
76.3443
76.5292
76.7103
76.8886
77.0632
77.2344
77.4021
77.5654
77.7246
77.8794
78.0296
78.1769
78.3194
78.4576
78.5919
78.7233
78.8534
78.982
79.1068
79.2295
79.3487
79.464
79.5798
79.6967
79.8063
79.9122
80.0166
80.1215
80.2267
80.3293
80.4277
80.5379
72.9965
73.8828
74.5871
74.9199
75.1142
75.2619
75.4573
75.6744
75.8939
76.0891
76.3079
76.5004
76.665
76.8322
77.0017
77.1684
77.3377
77.5016
77.6584
77.8064
77.9566
78.0997
78.2446
78.3759
78.5037
78.6313
78.7572
78.8846
79.0126
79.1329
79.2518
79.3624
79.4726
79.59
79.7087
79.8019
79.8945
79.9964
80.1035
80.2106
80.3111
80.4032
80.5129
-511.184
-467.513
-421.248
-387.466
-355.728
-323.428
-292.804
-264.811
-239.5
-216.782
-196.586
-178.687
-162.849
-148.823
-136.389
-125.332
-115.46
-106.595
-98.5904
-91.3185
-84.6619
-78.5271
-72.8358
-67.5287
-62.5482
-57.8502
-53.403
-49.1765
-45.1473
-41.298
-37.6098
-34.0751
-30.6816
-27.4192
-24.2796
-21.2566
-18.3447
-15.5366
-12.8286
-10.2162
-7.69512
-5.25978
-2.76944
-330.875
-327.985
-321.196
-312.418
-301.409
-288.312
-273.863
-258.592
-242.891
-227.121
-211.64
-196.665
-182.374
-168.88
-156.251
-144.498
-133.603
-123.537
-114.244
-105.667
-97.7431
-90.4125
-83.6086
-77.282
-71.3812
-65.8575
-60.6752
-55.797
-51.1921
-46.8366
-42.7022
-38.7731
-35.0314
-31.4608
-28.0475
-24.7821
-21.6526
-18.6488
-15.7649
-12.9936
-10.3282
-7.7713
-5.15723
-296.439
-296.137
-294.53
-290.121
-283.253
-274.697
-264.8
-253.791
-241.95
-229.578
-216.96
-204.314
-191.834
-179.66
-167.901
-156.626
-145.894
-135.741
-126.168
-117.168
-108.731
-100.821
-93.4067
-86.4563
-79.9378
-73.8121
-68.0528
-62.6278
-57.5112
-52.6755
-48.0994
-43.7611
-39.6425
-35.7269
-31.9988
-28.4447
-25.0509
-21.8069
-18.703
-15.7304
-12.8793
-10.1517
-7.34463
-254.718
-254.677
-254.197
-252.766
-250.126
-246.243
-241.153
-234.913
-227.612
-219.413
-210.48
-201.013
-191.194
-181.214
-171.226
-161.336
-151.647
-142.22
-133.121
-124.389
-116.051
-108.113
-100.578
-93.4337
-86.6691
-80.264
-74.2005
-68.4595
-63.0223
-57.8655
-52.9761
-48.3337
-43.9209
-39.7233
-35.7289
-31.9199
-28.2872
-24.8187
-21.5027
-18.3315
-15.2927
-12.3886
-9.36801
-228.215
-228.4
-228.48
-228.018
-226.669
-224.305
-220.956
-216.688
-211.568
-205.671
-199.086
-191.919
-184.279
-176.296
-168.091
-159.77
-151.441
-143.161
-135.001
-127.009
-119.227
-111.702
-104.452
-97.4905
-90.8202
-84.4459
-78.355
-72.5462
-67.007
-61.7264
-56.6948
-51.8984
-47.3259
-42.9635
-38.8032
-34.8305
-31.0364
-27.4111
-23.9425
-20.6252
-17.4468
-14.4128
-11.2011
-203.706
-203.887
-204.029
-203.896
-203.293
-202.064
-200.132
-197.477
-194.108
-190.047
-185.345
-180.059
-174.266
-168.044
-161.481
-154.669
-147.693
-140.631
-133.544
-126.484
-119.485
-112.6
-105.867
-99.313
-92.9575
-86.8169
-80.8931
-75.1926
-69.7137
-64.4553
-59.4123
-54.5788
-49.9506
-45.5178
-41.2733
-37.2104
-33.3206
-29.5947
-26.0253
-22.6072
-19.3286
-16.2003
-12.8055
-183.674
-183.877
-184.102
-184.154
-183.892
-183.193
-181.981
-180.223
-177.903
-175.02
-171.593
-167.649
-163.231
-158.387
-153.174
-147.655
-141.895
-135.961
-129.904
-123.786
-117.636
-111.493
-105.391
-99.3697
-93.4638
-87.688
-82.0634
-76.5988
-71.3018
-66.1796
-61.2311
-56.4583
-51.8631
-47.4386
-43.184
-39.094
-35.1656
-31.39
-27.7651
-24.2858
-20.9426
-17.7527
-14.2215
-166.151
-166.348
-166.584
-166.712
-166.641
-166.277
-165.542
-164.39
-162.8
-160.757
-158.259
-155.316
-151.947
-148.182
-144.057
-139.616
-134.9
-129.962
-124.847
-119.603
-114.272
-108.878
-103.451
-98.0247
-92.6343
-87.304
-82.0604
-76.9177
-71.8904
-66.9874
-62.2175
-57.5853
-53.0954
-48.7489
-44.5479
-40.4892
-36.5742
-32.7989
-29.1613
-25.66
-22.2885
-19.0778
-15.5366
-151.006
-151.195
-151.435
-151.605
-151.636
-151.462
-151.015
-150.245
-149.13
-147.655
-145.809
-143.591
-141.002
-138.062
-134.789
-131.212
-127.36
-123.27
-118.976
-114.515
-109.924
-105.231
-100.462
-95.637
-90.7834
-85.9335
-81.1119
-76.34
-71.6349
-67.0074
-62.4735
-58.039
-53.7107
-49.4969
-45.3999
-41.4223
-37.5667
-33.8334
-30.2211
-26.7314
-23.3572
-20.1285
-16.5694
-137.699
-137.872
-138.102
-138.289
-138.38
-138.327
-138.069
-137.562
-136.781
-135.707
-134.331
-132.644
-130.643
-128.335
-125.729
-122.841
-119.693
-116.308
-112.712
-108.932
-104.995
-100.933
-96.7655
-92.5119
-88.186
-83.8186
-79.4314
-75.0503
-70.693
-66.3752
-62.1116
-57.912
-53.7868
-49.7441
-45.7906
-41.9331
-38.1738
-34.5179
-30.9646
-27.5205
-24.1813
-20.9812
-17.5005
-125.96
-126.118
-126.337
-126.528
-126.651
-126.669
-126.536
-126.209
-125.661
-124.874
-123.838
-122.543
-120.984
-119.159
-117.072
-114.731
-112.15
-109.343
-106.33
-103.132
-99.7655
-96.258
-92.6272
-88.8909
-85.0635
-81.1588
-77.2005
-73.2104
-69.209
-65.2137
-61.2385
-57.296
-53.3988
-49.5552
-45.7741
-42.0648
-38.4304
-34.8787
-31.412
-28.0368
-24.7517
-21.5965
-18.2077
-115.527
-115.672
-115.878
-116.067
-116.205
-116.267
-116.216
-116.013
-115.631
-115.053
-114.268
-113.266
-112.04
-110.587
-108.905
-106.998
-104.874
-102.541
-100.011
-97.3027
-94.4265
-91.4015
-88.2435
-84.9684
-81.5919
-78.1198
-74.569
-70.9575
-67.3061
-63.6334
-59.9519
-56.2773
-52.621
-48.9932
-45.4036
-41.8617
-38.3735
-34.9472
-31.5881
-28.3021
-25.09
-21.985
-18.6777
-106.2
-106.333
-106.526
-106.709
-106.853
-106.941
-106.944
-106.827
-106.566
-106.142
-105.544
-104.764
-103.793
-102.628
-101.266
-99.7049
-97.9477
-96.0008
-93.8729
-91.5731
-89.1126
-86.5025
-83.7567
-80.8896
-77.9126
-74.8326
-71.6595
-68.4064
-65.0908
-61.7309
-58.3406
-54.9344
-51.5223
-48.1186
-44.731
-41.3685
-38.0416
-34.7568
-31.5206
-28.3405
-25.2198
-22.1866
-18.937
-97.8175
-97.9398
-98.12
-98.2941
-98.44
-98.5438
-98.582
-98.5255
-98.3508
-98.0417
-97.5864
-96.9765
-96.204
-95.2636
-94.1513
-92.8651
-91.4048
-89.7738
-87.9771
-86.0187
-83.9087
-81.6549
-79.2679
-76.7569
-74.1317
-71.4023
-68.572
-65.6515
-62.6517
-59.5893
-56.4799
-53.3351
-50.1666
-46.9869
-43.8048
-40.63
-37.472
-34.3391
-31.2366
-28.1745
-25.1566
-22.2101
-19.0053
-90.2455
-90.3554
-90.5234
-90.6887
-90.8322
-90.9438
-91.0053
-90.9924
-90.8826
-90.6601
-90.3133
-89.8344
-89.2168
-88.454
-87.5411
-86.4759
-85.2567
-83.8842
-82.3604
-80.6882
-78.8735
-76.9238
-74.8444
-72.6434
-70.3274
-67.9073
-65.3854
-62.7677
-60.061
-57.2781
-54.434
-51.54
-48.6079
-45.6482
-42.6707
-39.6856
-36.7008
-33.7244
-30.7644
-27.8297
-24.9236
-22.0818
-18.9654
-83.3762
-83.4754
-83.6322
-83.7883
-83.9276
-84.0425
-84.1186
-84.136
-84.0733
-83.9159
-83.6534
-83.2774
-82.7814
-82.1586
-81.4052
-80.5178
-79.4943
-78.3334
-77.0354
-75.6031
-74.0392
-72.3477
-70.5328
-68.6005
-66.557
-64.408
-62.1597
-59.8144
-57.3758
-54.8523
-52.2563
-49.5997
-46.8936
-44.147
-41.3697
-38.5716
-35.7599
-32.9426
-30.1292
-27.3266
-24.538
-21.8004
-18.7673
-77.1157
-77.2061
-77.3526
-77.4993
-77.6328
-77.7479
-77.8329
-77.8699
-77.8422
-77.7355
-77.5376
-77.2411
-76.841
-76.3321
-75.7086
-74.9662
-74.1031
-73.1169
-72.0072
-70.7752
-69.4223
-67.9496
-66.3624
-64.6629
-62.8571
-60.9476
-58.9406
-56.8379
-54.642
-52.3566
-49.9913
-47.5568
-45.0639
-42.521
-39.9368
-37.3204
-34.679
-32.0218
-29.3562
-26.691
-24.0308
-21.413
-18.5012
-71.3868
-71.4688
-71.6064
-71.7442
-71.8715
-71.9849
-72.0746
-72.1257
-72.1237
-72.0545
-71.9079
-71.6761
-71.3532
-70.9347
-70.4156
-69.7922
-69.0609
-68.2191
-67.2668
-66.2033
-65.0286
-63.743
-62.3513
-60.8541
-59.2546
-57.5551
-55.7605
-53.8735
-51.8955
-49.8268
-47.6748
-45.4468
-43.1526
-40.8018
-38.4022
-35.96
-33.485
-30.984
-28.4637
-25.9334
-23.3989
-20.8963
-18.0888
-66.1257
-66.1994
-66.3276
-66.4574
-66.579
-66.6897
-66.781
-66.8414
-66.8578
-66.8176
-66.7107
-66.53
-66.2696
-65.9248
-65.4912
-64.9649
-64.343
-63.6229
-62.8027
-61.8803
-60.8569
-59.7324
-58.5082
-57.1851
-55.7652
-54.2513
-52.6444
-50.9488
-49.1647
-47.2925
-45.3348
-43.2971
-41.1887
-39.0172
-36.7914
-34.5165
-32.2008
-29.8513
-27.4742
-25.0796
-22.673
-20.2913
-17.7795
-61.275
-61.3433
-61.4626
-61.5839
-61.6992
-61.8063
-61.8986
-61.9661
-61.9966
-61.9787
-61.9034
-61.7638
-61.5545
-61.2701
-60.9066
-60.4608
-59.9296
-59.3102
-58.6004
-57.7981
-56.9034
-55.9163
-54.8362
-53.664
-52.4004
-51.0485
-49.6081
-48.0818
-46.4705
-44.7742
-42.9931
-41.1307
-39.1943
-37.1906
-35.127
-33.0103
-30.846
-28.6408
-26.401
-24.1328
-21.8416
-19.5474
-17.1787
-56.7917
-56.8564
-56.9669
-57.0799
-57.189
-57.2922
-57.3838
-57.4548
-57.4947
-57.4937
-57.4431
-57.3364
-57.168
-56.933
-56.6277
-56.249
-55.7937
-55.259
-54.6423
-53.9425
-53.1584
-52.2885
-51.3328
-50.2923
-49.1663
-47.9558
-46.6624
-45.2863
-43.8288
-42.2899
-40.6684
-38.9662
-37.1883
-35.34
-33.4284
-31.4598
-29.439
-27.3717
-25.2651
-23.1228
-20.9501
-18.7597
-16.7508
-52.6359
-52.6973
-52.7998
-52.905
-53.0077
-53.1066
-53.1963
-53.2689
-53.3159
-53.3278
-53.2966
-53.2159
-53.0806
-52.8865
-52.6303
-52.308
-51.9165
-51.453
-50.916
-50.3037
-49.6134
-48.8442
-47.9962
-47.0695
-46.0631
-44.9774
-43.8133
-42.5705
-41.2498
-39.8513
-38.3743
-36.818
-35.1852
-33.4808
-31.7106
-29.8805
-27.9947
-26.0593
-24.0796
-22.059
-20.0028
-17.9027
-16.077
-48.7708
-48.8294
-48.9246
-49.0229
-49.1199
-49.2143
-49.3016
-49.3744
-49.4255
-49.447
-49.4319
-49.3728
-49.2648
-49.1044
-48.8882
-48.6126
-48.2749
-47.8727
-47.4029
-46.8638
-46.2544
-45.5732
-44.8194
-43.9917
-43.09
-42.114
-41.0635
-39.9391
-38.7408
-37.4681
-36.121
-34.697
-33.1968
-31.625
-29.9862
-28.2851
-26.5266
-24.7152
-22.8556
-20.9512
-19.0068
-16.9986
-15.2834
-45.1666
-45.2216
-45.3098
-45.4016
-45.4937
-45.5843
-45.6684
-45.7408
-45.7951
-45.824
-45.8203
-45.7782
-45.6931
-45.5612
-45.3785
-45.1424
-44.8504
-44.5001
-44.0885
-43.6135
-43.074
-42.4688
-41.796
-41.0545
-40.2441
-39.365
-38.4159
-37.3968
-36.3073
-35.1474
-33.9163
-32.6117
-31.2333
-29.783
-28.2653
-26.6849
-25.0451
-23.3505
-21.6049
-19.8124
-17.9789
-16.077
-14.4603
-41.7966
-41.8485
-41.9305
-42.0166
-42.1035
-42.1896
-42.2709
-42.3429
-42.3991
-42.4333
-42.4393
-42.4115
-42.3453
-42.2365
-42.0822
-41.88
-41.6268
-41.3201
-40.9582
-40.5385
-40.0593
-39.5196
-38.9172
-38.2517
-37.5223
-36.7281
-35.8686
-34.9429
-33.9507
-32.8916
-31.7647
-30.5685
-29.3012
-27.9629
-26.5571
-25.0881
-23.559
-21.9734
-20.3358
-18.6489
-16.9186
-15.115
-13.5477
-38.6395
-38.6883
-38.7649
-38.8456
-38.9277
-39.0096
-39.0881
-39.1586
-39.2156
-39.2538
-39.2669
-39.2502
-39.1993
-39.1103
-38.98
-38.8061
-38.586
-38.3172
-37.9978
-37.6259
-37.1996
-36.7169
-36.1767
-35.5782
-34.9201
-34.2009
-33.4209
-32.5784
-31.6731
-30.7044
-29.671
-28.5721
-27.4056
-26.1701
-24.8675
-23.5013
-22.0754
-20.5919
-19.0555
-17.4676
-15.8343
-14.1264
-12.5986
-35.6736
-35.7198
-35.7915
-35.8672
-35.9446
-36.0224
-36.0977
-36.1663
-36.2237
-36.2643
-36.2834
-36.2758
-36.2375
-36.165
-36.0557
-35.9067
-35.7154
-35.4791
-35.1966
-34.8665
-34.4855
-34.0523
-33.5665
-33.0265
-32.4309
-31.7786
-31.0687
-30.3003
-29.473
-28.5857
-27.6372
-26.6263
-25.5507
-24.4094
-23.2017
-21.9308
-20.6003
-19.2126
-17.7705
-16.2761
-14.7348
-13.1218
-11.6565
-32.8822
-32.9263
-32.9935
-33.0647
-33.138
-33.2122
-33.2843
-33.3507
-33.4073
-33.4498
-33.4734
-33.4734
-33.4457
-33.3869
-33.2946
-33.1658
-32.9986
-32.7912
-32.5409
-32.2459
-31.905
-31.5167
-31.0791
-30.5906
-30.0505
-29.4575
-28.8105
-28.1085
-27.3509
-26.5365
-25.6642
-24.7326
-23.7396
-22.6838
-21.5637
-20.3813
-19.1395
-17.8408
-16.4875
-15.0824
-13.6312
-12.1139
-10.7416
-30.2492
-30.2908
-30.3534
-30.4203
-30.4896
-30.5601
-30.6294
-30.694
-30.7502
-30.794
-30.8207
-30.8265
-30.8077
-30.761
-30.6833
-30.5727
-30.4269
-30.244
-30.0217
-29.758
-29.4521
-29.1021
-28.7064
-28.2634
-27.7722
-27.232
-26.6412
-25.9988
-25.3038
-24.5553
-23.7519
-22.8921
-21.9743
-20.9963
-19.9566
-18.856
-17.6962
-16.4797
-15.2091
-13.8857
-12.5131
-11.0711
-9.73031
-27.7613
-27.8006
-27.8594
-27.9226
-27.9884
-28.0555
-28.1218
-28.1844
-28.2395
-28.2837
-28.3131
-28.3239
-28.3124
-28.2751
-28.2099
-28.1145
-27.9869
-27.825
-27.627
-27.3914
-27.1166
-26.8008
-26.4421
-26.0399
-25.5927
-25.0993
-24.5587
-23.9695
-23.3307
-22.6412
-21.8997
-21.1052
-20.2558
-19.349
-18.3829
-17.3573
-16.2735
-15.1336
-13.9403
-12.6939
-11.3982
-10.0366
-8.75373
-25.4061
-25.4432
-25.4985
-25.5581
-25.6204
-25.6843
-25.7479
-25.8082
-25.8622
-25.9067
-25.9378
-25.9522
-25.9463
-25.9178
-25.8637
-25.7816
-25.6701
-25.5267
-25.3502
-25.1389
-24.891
-24.6048
-24.2791
-23.9131
-23.5051
-23.0538
-22.5582
-22.0169
-21.4287
-20.7926
-20.1073
-19.3717
-18.5842
-17.7424
-16.8438
-15.8875
-14.8742
-13.806
-12.6845
-11.5104
-10.287
-8.99988
-7.76928
-23.1734
-23.2087
-23.2608
-23.3169
-23.3759
-23.4367
-23.4973
-23.5552
-23.6078
-23.6519
-23.6845
-23.7021
-23.7012
-23.6795
-23.6346
-23.5643
-23.4664
-23.3392
-23.1814
-22.9917
-22.7678
-22.5082
-22.2124
-21.8786
-21.5051
-21.091
-20.6352
-20.1369
-19.5946
-19.0072
-18.3731
-17.6912
-16.96
-16.1776
-15.3408
-14.4484
-13.5006
-12.4985
-11.4436
-10.3367
-9.17976
-7.95898
-6.77843
-21.0514
-21.0847
-21.1337
-21.187
-21.2432
-21.3013
-21.3591
-21.4147
-21.4659
-21.5097
-21.543
-21.5629
-21.5663
-21.5506
-21.5134
-21.453
-21.3672
-21.2549
-21.1138
-20.9423
-20.7395
-20.5042
-20.2345
-19.929
-19.587
-19.207
-18.7879
-18.3285
-17.8275
-17.2838
-16.6959
-16.0627
-15.3826
-14.654
-13.8742
-13.041
-12.1538
-11.2134
-10.2209
-9.17722
-8.08369
-6.92715
-5.80464
-19.033
-19.0645
-19.1106
-19.161
-19.2144
-19.2697
-19.3251
-19.3791
-19.4289
-19.4721
-19.5059
-19.5278
-19.5348
-19.5242
-19.4938
-19.4419
-19.3668
-19.2667
-19.1402
-18.9855
-18.8017
-18.5874
-18.3409
-18.0611
-17.7468
-17.3972
-17.0106
-16.5862
-16.1226
-15.6187
-15.0732
-14.4848
-13.8516
-13.1722
-12.4445
-11.6659
-10.8349
-9.952
-9.01839
-8.03441
-7.00136
-5.90623
-4.84131
-17.1103
-17.1401
-17.1837
-17.2314
-17.2822
-17.3349
-17.3881
-17.4398
-17.4879
-17.5304
-17.5643
-17.5875
-17.5972
-17.5908
-17.5663
-17.5219
-17.456
-17.3669
-17.2531
-17.1136
-16.9469
-16.7512
-16.5257
-16.2694
-15.9806
-15.6583
-15.3013
-14.9086
-14.479
-14.0111
-13.5037
-12.9559
-12.3657
-11.7316
-11.0515
-10.323
-9.54446
-8.71523
-7.83698
-6.90952
-5.9346
-4.90033
-3.90501
-15.2756
-15.3038
-15.3451
-15.3902
-15.4384
-15.4887
-15.5396
-15.5892
-15.636
-15.6774
-15.7115
-15.7357
-15.7475
-15.7449
-15.7258
-15.6882
-15.6305
-15.5511
-15.4491
-15.3231
-15.1711
-14.992
-14.7853
-14.5497
-14.2834
-13.9859
-13.6558
-13.2919
-12.8928
-12.4577
-11.9855
-11.4747
-10.9239
-10.3313
-9.69502
-9.01262
-8.28254
-7.50359
-6.67678
-5.80231
-4.8819
-3.90447
-2.97534
-13.5236
-13.5505
-13.5895
-13.6323
-13.6781
-13.726
-13.7747
-13.8223
-13.8673
-13.9078
-13.942
-13.967
-13.9806
-13.9808
-13.9658
-13.9337
-13.8831
-13.8127
-13.7206
-13.6057
-13.4672
-13.3039
-13.1144
-12.8973
-12.6518
-12.3764
-12.0702
-11.7323
-11.3616
-10.9568
-10.5167
-10.0396
-9.52461
-8.97024
-8.37442
-7.73461
-7.04922
-6.31668
-5.53768
-4.71312
-3.84519
-2.92382
-2.05521
-11.8466
-11.8721
-11.9087
-11.9494
-11.9933
-12.0393
-12.0858
-12.1315
-12.1751
-12.2146
-12.2482
-12.2736
-12.2888
-12.2919
-12.2807
-12.2537
-12.2095
-12.1467
-12.0637
-11.9596
-11.8334
-11.6837
-11.5093
-11.3087
-11.0816
-10.8267
-10.543
-10.2291
-9.88394
-9.5064
-9.09527
-8.64918
-8.16704
-7.64737
-7.08862
-6.48813
-5.84391
-5.15415
-4.41881
-3.63859
-2.81434
-1.93253
-1.0762
-10.2403
-10.2644
-10.2992
-10.3378
-10.3796
-10.4235
-10.4681
-10.5123
-10.5545
-10.593
-10.6262
-10.6522
-10.6687
-10.6737
-10.6656
-10.6429
-10.6042
-10.5482
-10.4736
-10.3791
-10.2636
-10.1261
-9.96517
-9.78014
-9.56994
-9.33351
-9.06961
-8.77722
-8.45537
-8.10285
-7.71854
-7.30142
-6.84974
-6.36213
-5.83737
-5.27301
-4.66663
-4.01642
-3.32183
-2.58269
-1.79946
-0.959045
-0.137461
-8.70061
-8.72325
-8.75628
-8.7931
-8.83294
-8.87487
-8.91774
-8.96025
-9.00095
-9.03852
-9.07102
-9.09692
-9.11436
-9.12134
-9.11613
-9.09733
-9.06356
-9.01342
-8.94594
-8.85994
-8.75442
-8.62787
-8.47958
-8.30885
-8.11394
-7.89407
-7.6486
-7.37596
-7.07555
-6.74587
-6.38608
-5.99488
-5.57105
-5.11315
-4.61945
-4.08827
-3.51735
-2.90426
-2.24838
-1.54902
-0.807515
-0.0134603
0.763265
-7.22211
-7.24353
-7.27499
-7.31007
-7.34798
-7.38799
-7.42904
-7.46988
-7.5093
-7.54569
-7.57777
-7.60383
-7.6219
-7.63037
-7.62784
-7.61267
-7.58347
-7.5387
-7.47771
-7.39972
-7.30269
-7.18594
-7.04897
-6.89064
-6.70974
-6.50532
-6.27611
-6.02167
-5.74071
-5.43207
-5.09492
-4.72785
-4.3298
-3.89932
-3.43453
-2.93404
-2.39585
-1.81735
-1.19726
-0.534874
0.168694
0.923256
1.66947
-5.80213
-5.82243
-5.85222
-5.88551
-5.92172
-5.96011
-5.99948
-6.03855
-6.07638
-6.11174
-6.14331
-6.16905
-6.18757
-6.19735
-6.19684
-6.18432
-6.15873
-6.11916
-6.06409
-5.99243
-5.90352
-5.7966
-5.67017
-5.52308
-5.35478
-5.1643
-4.95065
-4.7129
-4.44991
-4.16068
-3.8442
-3.49921
-3.12458
-2.71916
-2.28136
-1.80955
-1.3016
-0.755148
-0.168764
0.458338
1.1245
1.83683
2.53295
-4.43518
-4.45429
-4.48251
-4.51426
-4.54902
-4.58568
-4.62339
-4.66121
-4.69793
-4.73238
-4.76321
-4.7889
-4.808
-4.81891
-4.82
-4.81024
-4.78828
-4.75299
-4.70311
-4.63764
-4.55601
-4.457
-4.33974
-4.20303
-4.04639
-3.86867
-3.66906
-3.44638
-3.2
-2.92874
-2.63149
-2.30696
-1.95421
-1.57211
-1.15918
-0.713741
-0.233813
0.28286
0.838179
1.43294
2.06701
2.74872
3.42394
-3.11894
-3.13689
-3.1638
-3.19419
-3.22749
-3.26267
-3.29889
-3.33541
-3.37078
-3.40405
-3.43408
-3.45959
-3.47895
-3.49065
-3.49339
-3.48586
-3.46694
-3.4354
-3.39025
-3.33077
-3.25593
-3.16458
-3.05571
-2.92882
-2.78281
-2.61689
-2.43005
-2.22136
-1.99003
-1.73498
-1.45521
-1.14987
-0.817567
-0.456863