/*--------------------------------*- C++ -*----------------------------------*\
| =========                 |                                                 |
| \\      /  F ield         | OpenFOAM: The Open Source CFD Toolbox           |
|  \\    /   O peration     | Version:  2.3.0                                 |
|   \\  /    A nd           | Web:      www.OpenFOAM.org                      |
|    \\/     M anipulation  |                                                 |
\*---------------------------------------------------------------------------*/
FoamFile
{
    version     2.0;
    format      ascii;
    class       volScalarField;
    location    "5000";
    object      p;
}
// * * * * * * * * * * * * * * * * * * * * * * * * * * * * * * * * * * * * * //

dimensions      [0 2 -2 0 0 0 0];

internalField   nonuniform List<scalar> 
39548
(
0.00366295
-0.63045
-1.05384
-1.53187
-2.01433
-2.50976
-3.01698
-3.53569
-4.06862
-4.61318
-5.1717
-5.74173
-6.32666
-6.91706
-7.51488
-8.11494
-8.71653
-9.30906
-9.89687
-10.4656
-11.017
-11.5302
-12.0011
-12.4141
-12.7704
-13.0319
-13.194
-13.2473
-13.1511
-12.9051
-12.4336
-11.7491
-10.7642
-9.38638
-7.49862
-4.96639
-1.80359
2.37725
8.66923
17.7849
25.194
24.4951
36.159
4.68868
4.50631
4.49302
4.45197
4.428
4.42316
4.44199
4.48447
4.55038
4.6396
4.75699
4.89905
5.06963
5.26881
5.49393
5.7519
6.04215
6.36718
6.72957
7.14284
7.61085
8.14362
8.76752
9.49587
10.3657
11.415
12.6935
14.2627
16.2015
18.597
21.5464
25.1609
29.5819
34.9657
41.4888
49.3558
58.7797
70.0017
83.4041
99.2731
117.593
138.523
162.322
9.02198
8.9642
9.12366
9.26169
9.42559
9.6089
9.81565
10.0492
10.3134
10.6063
10.9352
11.3001
11.7097
12.1651
12.672
13.239
13.8762
14.5861
15.3811
16.2742
17.2674
18.3814
19.6297
21.0169
22.572
24.3157
26.2677
28.4754
30.9748
33.8015
37.0181
40.6887
44.8864
49.6765
55.1594
61.4236
68.5722
76.685
85.8608
96.0867
107.396
119.87
133.415
12.846
12.9195
13.2416
13.5487
13.8861
14.2521
14.6549
15.0944
15.5738
16.0982
16.6619
17.2731
17.9392
18.6576
19.4427
20.2921
21.2148
22.2244
23.3273
24.5366
25.865
27.3272
28.9458
30.7331
32.7248
34.9454
37.417
40.1975
43.3083
46.8076
50.7508
55.1791
60.1597
65.7349
71.9679
78.9038
86.5794
95.0087
104.183
114.014
124.374
135.072
145.82
16.2284
16.4121
16.8335
17.2412
17.6806
18.152
18.6642
19.2162
19.8096
20.453
21.1424
21.8817
22.6775
23.5339
24.4591
25.4469
26.5252
27.689
28.9527
30.3292
31.829
33.4601
35.2466
37.193
39.325
41.6691
44.2448
47.0886
50.225
53.7038
57.554
61.829
66.5636
71.7901
77.5553
83.8886
90.7926
98.2883
106.328
114.861
123.76
132.885
142.018
19.3057
19.5188
20.0005
20.4729
20.9861
21.5291
22.1164
22.7462
23.4219
24.1484
24.9344
25.7588
26.6445
27.5938
28.6193
29.7064
30.8798
32.133
33.5055
34.988
36.5988
38.3422
40.2371
42.3008
44.5512
47.0102
49.6941
52.6341
55.8672
59.4261
63.3339
67.6371
72.3455
77.4993
83.1221
89.2213
95.7787
102.813
110.258
118.078
126.134
134.32
142.464
22.1259
22.2896
22.7972
23.3164
23.8923
24.489
25.1389
25.8327
26.5627
27.355
28.2204
29.1088
30.0369
31.0246
32.1259
33.2725
34.5044
35.7832
37.2212
38.7735
40.4629
42.2773
44.2234
46.3448
48.6497
51.1453
53.8201
56.718
59.9105
63.448
67.3122
71.5622
76.1919
81.1607
86.5325
92.358
98.584
105.21
112.15
119.381
126.76
134.27
141.738
24.6757
24.8071
25.2257
25.7146
26.2901
26.8765
27.5531
28.2996
29.0509
29.864
30.8023
31.7892
32.7504
33.7527
34.9216
36.1245
37.452
38.6908
40.1288
41.7003
43.4282
45.3164
47.2919
49.4382
51.7788
54.3377
57.0792
59.9249
62.9941
66.4321
70.1632
74.3017
78.8993
83.8089
88.9589
94.5031
100.431
106.782
113.398
120.268
127.154
134.153
141.103
26.8529
27.1793
27.2686
27.451
27.808
28.1192
28.5437
29.1907
29.7672
30.2939
31.0313
32.1284
33.3453
34.0406
35.5144
36.4298
38.2435
39.2453
40.3348
41.6079
43.114
44.981
46.9014
48.8835
50.9959
53.3153
56.2803
59.7487
62.3541
65.8036
69.3313
73.0124
77.1083
81.9508
88.0282
93.8737
98.8922
104.875
110.856
118.691
125.629
132.479
139.28
113.085
156.819
181.328
197.803
209.964
218.945
225.646
230.788
234.688
237.619
239.753
241.253
242.235
242.785
242.995
242.906
242.568
242.033
241.331
240.479
239.514
238.447
237.3
236.088
234.818
233.506
232.156
230.778
229.376
227.954
226.513
225.06
223.594
222.118
220.629
219.131
217.622
216.103
214.573
213.014
211.4
209.917
209.218
184.458
199.663
211.189
220.189
227.196
232.579
236.652
239.648
241.756
243.136
243.93
244.253
244.204
243.857
243.276
242.512
241.607
240.594
239.494
238.33
237.113
235.859
234.572
233.261
231.929
230.581
229.218
227.843
226.457
225.063
223.66
222.252
220.837
219.418
217.993
216.566
215.135
213.698
212.254
210.785
209.269
207.857
207.181
147.167
160.06
171.66
181.793
190.472
197.812
203.946
209.026
213.182
216.553
219.25
221.379
223.025
224.263
225.156
225.761
226.117
226.263
226.231
226.042
225.724
225.289
224.755
224.136
223.441
222.682
221.865
220.998
220.089
219.14
218.158
217.146
216.106
215.04
213.952
212.842
211.711
210.561
209.391
208.194
206.952
205.764
205.181
156.253
166.026
174.961
182.95
189.954
196.008
201.168
205.517
209.134
212.112
214.523
216.45
217.958
219.107
219.949
220.532
220.889
221.059
221.066
220.934
220.685
220.331
219.892
219.375
218.794
218.157
217.471
216.743
215.978
215.18
214.354
213.5
212.622
211.722
210.802
209.862
208.903
207.928
206.938
205.928
204.887
203.895
203.439
150.951
159.49
167.478
174.782
181.342
187.141
192.201
196.564
200.29
203.436
206.067
208.245
210.025
211.458
212.59
213.463
214.11
214.565
214.849
214.986
214.994
214.889
214.685
214.398
214.038
213.614
213.134
212.606
212.034
211.423
210.779
210.103
209.397
208.665
207.91
207.134
206.335
205.521
204.693
203.849
202.985
202.192
201.951
150.413
158.023
165.191
171.802
177.804
183.169
187.897
192.027
195.596
198.646
201.232
203.406
205.207
206.684
207.88
208.831
209.57
210.122
210.506
210.746
210.856
210.854
210.755
210.577
210.329
210.02
209.655
209.244
208.789
208.297
207.78
207.224
206.637
206.026
205.393
204.739
204.061
203.37
202.666
201.949
201.206
200.516
200.278
149.044
156.029
162.649
168.806
174.43
179.492
183.976
187.949
191.409
194.404
196.965
199.146
200.968
202.489
203.746
204.792
205.628
206.259
206.734
207.07
207.265
207.347
207.337
207.257
207.109
206.896
206.628
206.323
205.973
205.59
205.185
204.716
204.216
203.704
203.17
202.614
202.026
201.438
200.836
200.231
199.603
199.016
198.818
147.968
154.479
160.696
166.573
171.948
176.767
180.992
184.826
188.183
191.138
193.654
195.834
197.637
199.177
200.486
201.641
202.529
203.166
203.742
204.118
204.303
204.419
204.468
204.465
204.384
204.241
204.065
203.882
203.603
203.283
202.947
202.515
202.07
201.648
201.207
200.72
200.189
199.702
199.195
198.679
198.146
197.697
197.697
146.174
152.472
158.45
164.294
169.675
174.585
178.629
182.376
185.636
188.553
190.964
193.092
194.797
196.302
197.585
198.703
199.207
200.236
200.927
201.072
201.209
201.429
201.553
201.615
201.603
201.572
201.532
201.363
201.031
200.675
200.568
200.193
199.874
199.677
199.325
198.873
198.439
198.142
197.755
197.373
196.989
196.725
197.178
-26.267
-26.5925
-26.8874
-27.1852
-27.484
-27.7787
-28.0662
-28.3432
-28.6063
-28.8534
-29.0818
-29.2889
-29.4715
-29.6282
-29.7579
-29.858
-29.9275
-29.9659
-29.9717
-29.9465
-29.8905
-29.8044
-29.6905
-29.5508
-29.3868
-29.2037
-29.0046
-28.7915
-28.5685
-28.3368
-28.0969
-27.8516
-27.6011
-27.346
-27.0835
-26.8056
-26.4974
-26.125
-25.6361
-24.9941
-24.1427
-22.6664
-19.062
-25.875
-26.1656
-26.4262
-26.6707
-26.8961
-27.1005
-27.2841
-27.4475
-27.5914
-27.7163
-27.8231
-27.9134
-27.9894
-28.0522
-28.1038
-28.1466
-28.1816
-28.2101
-28.2325
-28.249
-28.2602
-28.2668
-28.2667
-28.2597
-28.2475
-28.2271
-28.1966
-28.1538
-28.097
-28.0235
-27.9309
-27.8128
-27.6608
-27.4616
-27.1949
-26.8339
-26.3444
-25.6736
-24.7174
-23.2735
-20.9905
-17.4061
-12.3262
-25.4836
-25.7882
-26.0818
-26.3676
-26.6444
-26.9115
-27.1686
-27.4158
-27.6531
-27.8798
-28.0956
-28.2997
-28.4918
-28.6719
-28.8389
-28.9917
-29.1304
-29.2552
-29.3654
-29.4612
-29.5412
-29.6045
-29.6522
-29.681
-29.6889
-29.6741
-29.6357
-29.571
-29.4762
-29.3432
-29.1662
-28.9334
-28.6303
-28.2371
-27.7281
-27.062
-26.1806
-25.0022
-23.3962
-21.1637
-18.0305
-13.7607
-8.37958
-25.0949
-25.4025
-25.7003
-25.9913
-26.2744
-26.5487
-26.8136
-27.0687
-27.3146
-27.55
-27.7751
-27.9882
-28.1896
-28.38
-28.5583
-28.7259
-28.8828
-29.0276
-29.1603
-29.2791
-29.3842
-29.4748
-29.5485
-29.6033
-29.6373
-29.6478
-29.627
-29.5683
-29.4688
-29.3156
-29.0997
-28.8042
-28.4094
-27.8913
-27.2198
-26.3512
-25.223
-23.7411
-21.7916
-19.2168
-15.8554
-11.6568
-6.74387
-24.6821
-25.0194
-25.3164
-25.6097
-25.9
-26.1841
-26.4597
-26.727
-26.9892
-27.2447
-27.4921
-27.7302
-27.9568
-28.1715
-28.3748
-28.5676
-28.7495
-28.9172
-29.0725
-29.2127
-29.3384
-29.4463
-29.5314
-29.5968
-29.6348
-29.64
-29.6084
-29.5316
-29.402
-29.2074
-28.9322
-28.5628
-28.0794
-27.453
-26.6469
-25.6175
-24.3028
-22.6277
-20.4786
-17.7262
-14.2931
-10.1913
-5.57886
-24.265
-24.6371
-24.9292
-25.218
-25.5072
-25.7927
-26.0697
-26.3367
-26.6001
-26.8643
-27.1199
-27.3687
-27.6069
-27.834
-28.0468
-28.2463
-28.4382
-28.6179
-28.784
-28.9311
-29.0617
-29.1749
-29.2612
-29.3298
-29.3697
-29.3755
-29.3357
-29.2454
-29.0966
-28.879
-28.579
-28.1765
-27.6388
-26.9472
-26.0565
-24.9285
-23.5015
-21.7141
-19.4787
-16.6786
-13.2451
-9.21279
-4.75528
-23.8756
-24.271
-24.5496
-24.829
-25.1153
-25.3999
-25.6775
-25.9374
-26.1922
-26.4609
-26.7151
-26.9722
-27.2206
-27.4537
-27.67
-27.8751
-28.0803
-28.2658
-28.4429
-28.5961
-28.7366
-28.8584
-28.9216
-28.9816
-29.0182
-29.0271
-28.9852
-28.8907
-28.7321
-28.5083
-28.1845
-27.7638
-27.1848
-26.4668
-25.5031
-24.2936
-22.7473
-20.8735
-18.6231
-15.8049
-12.3304
-8.27158
-3.79845
-23.4257
-23.9001
-24.1677
-24.4376
-24.7297
-25.0226
-25.3074
-25.5516
-25.7646
-26.0394
-26.2978
-26.566
-26.8217
-27.056
-27.2565
-27.4102
-27.6032
-27.8008
-28.0051
-28.1373
-28.2571
-28.4424
-28.4801
-28.5179
-28.5358
-28.5494
-28.472
-28.3478
-28.1595
-27.9567
-27.6339
-27.2726
-26.6732
-26.0038
-24.9677
-23.7214
-22.0728
-20.2155
-18.2018
-15.5763
-12.2031
-8.27523
-3.8441
-22.8949
-23.4141
-23.6719
-23.9118
-24.2673
-24.6709
-25.0906
-25.2933
-25.4145
-25.6682
-26.0262
-26.4083
-26.8318
-27.2321
-27.61
-27.7507
-27.778
-27.9662
-28.3999
-28.3924
-28.1772
-28.6388
-28.8017
-28.7816
-28.8345
-29.1167
-29.0682
-28.8546
-28.3927
-27.9851
-27.4837
-27.1355
-26.39
-26.0076
-24.5646
-22.5191
-19.631
-17.4279
-16.1798
-14.1811
-9.90545
-4.3968
0.816259
-10.6759
-6.62259
-3.49895
-0.789585
1.66298
3.86824
5.85931
7.6679
9.32248
10.8504
12.2731
13.6085
14.8735
16.0806
17.2414
18.368
19.4691
20.5528
21.625
22.6894
23.7503
24.81
25.8694
26.9299
27.9922
29.0561
30.1227
31.1911
32.2613
33.3343
34.4085
35.4846
36.5622
37.6415
38.7221
39.8042
40.8878
41.9727
43.0588
44.1468
45.2326
46.3155
47.4653
-6.04317
-3.47496
-1.79994
-0.0967869
1.67814
3.45498
5.2026
6.90208
8.54269
10.1244
11.6483
13.1187
14.5396
15.9146
17.2483
18.5436
19.8044
21.0342
22.2337
23.4063
24.5546
25.68
26.7845
27.87
28.9384
29.9917
31.0312
32.0575
33.0735
34.08
35.0784
36.0702
37.0563
38.0382
39.0171
39.9936
40.9684
41.9424
42.9172
43.893
44.8657
45.8426
46.8868
-2.68181
0.629727
2.1125
3.37897
4.69616
6.06693
7.47215
8.89049
10.3058
11.7079
13.0888
14.4439
15.7702
17.0668
18.3323
19.5677
20.7731
21.9502
23.0998
24.2242
25.3246
26.4026
27.4602
28.4993
29.521
30.5272
31.5189
32.4977
33.4652
34.4221
35.3695
36.3084
37.2401
38.1654
39.0852
39.9998
40.9103
41.817
42.7203
43.6202
44.514
45.409
46.3566
-1.59638
2.27709
3.94917
5.19637
6.44884
7.73646
9.04656
10.3649
11.6816
12.988
14.2766
15.5441
16.7864
18.0027
19.1926
20.3563
21.4943
22.6075
23.6973
24.7658
25.8134
26.8422
27.8531
28.8476
29.8266
30.7917
31.7432
32.6827
33.6101
34.5279
35.4364
36.3367
37.2294
38.1157
38.9953
39.8692
40.7374
41.6002
42.4591
43.3137
44.1624
45.0015
45.8692
-0.798691
3.20463
5.0472
6.26825
7.4789
8.71829
9.98292
11.2583
12.5335
13.7999
15.051
16.2828
17.4918
18.6771
19.838
20.9745
22.0867
23.176
24.2423
25.2866
26.3102
27.3139
28.2989
29.2661
30.2168
31.1518
32.0707
32.976
33.868
34.7483
35.6175
36.4766
37.3272
38.1701
39.0056
39.834
40.6546
41.4685
42.2775
43.0823
43.8848
44.6773
45.415
-0.176472
3.85802
5.9443
7.19301
8.37968
9.57712
10.8009
12.0408
13.2857
14.5248
15.752
16.9622
18.1514
19.3183
20.4618
21.5812
22.6766
23.748
24.796
25.8213
26.8242
27.806
28.7678
29.7102
30.6345
31.5407
32.4286
33.3003
34.1575
35.0019
35.8352
36.657
37.4698
38.273
39.0683
39.853
40.6273
41.394
42.1545
42.9093
43.6621
44.404
45.0673
0.691115
4.76079
7.05984
8.22307
9.2841
10.3866
11.5552
12.7571
13.9728
15.1881
16.3937
17.5827
18.7523
19.9013
21.0272
22.1287
23.2055
24.2571
25.2866
26.2944
27.2779
28.2392
29.1794
30.0996
31.0018
31.8821
32.7416
33.5844
34.414
35.2309
36.0343
36.8256
37.6063
38.377
39.1383
39.8842
40.6162
41.3399
42.0588
42.7717
43.4804
44.1778
44.792
0.473116
4.63339
7.37036
8.68291
9.73738
10.8652
12.0607
13.2817
14.515
15.7364
16.9462
18.1316
19.2972
20.4425
21.5627
22.6568
23.7262
24.7684
25.7904
26.7898
27.7539
28.6975
29.6171
30.521
31.4067
32.2582
33.0841
33.895
34.6938
35.4801
36.2477
37.0048
37.753
38.494
39.2265
39.9332
40.6207
41.302
41.9816
42.655
43.3212
43.9782
44.5609
4.69433
8.59868
10.841
10.6002
10.6351
11.508
12.6809
13.8697
15.0689
16.2567
17.442
18.5848
19.7261
20.8528
21.9511
23.0222
24.0687
25.082
26.0811
27.0627
27.9847
28.9205
29.8225
30.7247
31.5985
32.4048
33.1987
33.9965
34.793
35.5812
36.3412
37.1013
37.8502
38.5886
39.3117
39.9645
40.6016
41.257
41.9236
42.5899
43.2443
43.8923
44.481
-138.473
-133.608
-129.08
-124.598
-118.551
-111.285
-103.594
-95.8201
-88.2055
-80.9093
-73.9684
-67.4773
-61.4463
-55.8941
-50.8254
-46.2358
-42.0935
-38.3895
-35.0775
-32.1183
-29.4794
-27.1274
-25.0259
-23.14
-21.4431
-19.9085
-18.5165
-17.2472
-16.0803
-14.997
-13.9879
-13.0435
-12.1513
-11.3067
-10.504
-9.73807
-9.00213
-8.29664
-7.61255
-6.94802
-6.29345
-5.69515
-4.94248
-97.2496
-97.061
-96.1415
-94.7217
-93.2469
-92.0415
-91.1043
-90.2041
-89.0377
-87.465
-85.4291
-83.0146
-80.2501
-77.1801
-73.8902
-70.3976
-66.8034
-63.1365
-59.4818
-55.8748
-52.3519
-48.9654
-45.7223
-42.6548
-39.7557
-37.0381
-34.4957
-32.1228
-29.9139
-27.8531
-25.9302
-24.1352
-22.4549
-20.8779
-19.3954
-17.9966
-16.6752
-15.4233
-14.2349
-13.1037
-12.0175
-11.0105
-9.87843
-103.811
-103.639
-103.673
-103.693
-103.572
-103.141
-102.293
-101.074
-99.5828
-97.9177
-96.1128
-94.1056
-91.8217
-89.2759
-86.4801
-83.4698
-80.2714
-76.9107
-73.4484
-69.9069
-66.3285
-62.7709
-59.2493
-55.8138
-52.4841
-49.282
-46.2245
-43.3165
-40.564
-37.9659
-35.5179
-33.212
-31.0411
-28.9952
-27.066
-25.246
-23.5252
-21.8941
-20.3478
-18.8801
-17.4815
-16.1759
-14.8668
-98.8542
-98.7991
-98.6635
-98.4773
-98.2469
-97.9672
-97.6201
-97.183
-96.6391
-95.9598
-95.1111
-94.1137
-93.0054
-91.7443
-90.2602
-88.5353
-86.5379
-84.2854
-81.7749
-79.0245
-76.0733
-72.96
-69.7195
-66.3973
-63.0568
-59.715
-56.4316
-53.2269
-50.1271
-47.15
-44.3074
-41.6019
-39.0347
-36.6015
-34.2975
-32.1176
-30.0531
-28.0965
-26.2405
-24.4803
-22.8123
-21.2535
-19.8756
-98.9278
-98.9122
-98.9045
-98.8767
-98.8202
-98.7252
-98.5801
-98.3672
-98.0638
-97.6531
-97.1206
-96.4489
-95.6208
-94.6379
-93.5187
-92.2382
-90.7723
-89.1089
-87.2324
-85.1338
-82.8222
-80.2949
-77.5647
-74.6672
-71.6222
-68.4748
-65.2594
-62.0274
-58.8115
-55.6441
-52.557
-49.5697
-46.6965
-43.9454
-41.3183
-38.8165
-36.4351
-34.1708
-32.0178
-29.9681
-28.0121
-26.1401
-24.3639
-97.753
-97.7381
-97.7065
-97.6566
-97.5868
-97.4943
-97.3748
-97.2221
-97.0275
-96.7798
-96.4682
-96.0817
-95.6069
-95.0283
-94.3247
-93.4902
-92.5193
-91.3878
-90.0742
-88.5677
-86.8546
-84.9274
-82.7785
-80.424
-77.8614
-75.1217
-72.2226
-69.211
-66.1154
-62.9824
-59.8508
-56.7491
-53.7128
-50.7591
-47.9044
-45.159
-42.5246
-40.0044
-37.5951
-35.2918
-33.0913
-30.9832
-29.0843
-97.3256
-97.3198
-97.3076
-97.2843
-97.2481
-97.1961
-97.1246
-97.0288
-96.9028
-96.7392
-96.5286
-96.2619
-95.9304
-95.5243
-95.0298
-94.4328
-93.7225
-92.8888
-91.9148
-90.7872
-89.4836
-87.9989
-86.3166
-84.4282
-82.3407
-80.0388
-77.55
-74.8814
-72.0602
-69.1232
-66.1086
-63.0486
-59.9872
-56.9517
-53.9712
-51.0665
-48.2522
-45.5357
-42.9226
-40.4135
-38.0121
-35.7067
-33.6873
-96.8097
-96.8047
-96.7913
-96.7674
-96.7333
-96.6874
-96.6279
-96.5516
-96.455
-96.3336
-96.182
-95.9936
-95.7615
-95.4779
-95.1336
-94.7166
-94.2154
-93.6162
-92.9072
-92.0747
-91.1019
-89.9702
-88.6693
-87.1812
-85.5006
-83.6195
-81.533
-79.2509
-76.7792
-74.1353
-71.3506
-68.4564
-65.4896
-62.4879
-59.4824
-56.5077
-53.584
-50.7341
-47.9698
-45.296
-42.7255
-40.2389
-38.0598
-96.4505
-96.4481
-96.4392
-96.4218
-96.3966
-96.3624
-96.3176
-96.2603
-96.1874
-96.0958
-95.9816
-95.84
-95.6654
-95.4522
-95.1936
-94.8814
-94.506
-94.0562
-93.5198
-92.8862
-92.142
-91.2687
-90.2544
-89.081
-87.7348
-86.207
-84.4819
-82.5626
-80.4417
-78.1304
-75.637
-72.9893
-70.2092
-67.3353
-64.4014
-61.4456
-58.4918
-55.5736
-52.7103
-49.9144
-47.2087
-44.5668
-42.2543
-96.1245
-96.1225
-96.1146
-96.0993
-96.0773
-96.0481
-96.0104
-95.9628
-95.9035
-95.83
-95.7392
-95.628
-95.4923
-95.3278
-95.1291
-94.8901
-94.6038
-94.261
-93.8508
-93.3637
-92.7869
-92.1094
-91.3143
-90.3852
-89.311
-88.0704
-86.6573
-85.0571
-83.2589
-81.2717
-79.0821
-76.7169
-74.1812
-71.5034
-68.7141
-65.8482
-62.9386
-60.0182
-57.1161
-54.2529
-51.4537
-48.6907
-46.2884
-95.8591
-95.8569
-95.8498
-95.8364
-95.8176
-95.7928
-95.7612
-95.7216
-95.6725
-95.6122
-95.5383
-95.4484
-95.3395
-95.2077
-95.0494
-94.8596
-94.6328
-94.3622
-94.0394
-93.6554
-93.1998
-92.6614
-92.0297
-91.287
-90.4208
-89.415
-88.2542
-86.9271
-85.4163
-83.7218
-81.8279
-79.7445
-77.4739
-75.0328
-72.4398
-69.7253
-66.9242
-64.0626
-61.1749
-58.2912
-55.4419
-52.5975
-50.1488
-95.6225
-95.6206
-95.6141
-95.6022
-95.5856
-95.5638
-95.5363
-95.5022
-95.4604
-95.4095
-95.3476
-95.2726
-95.1824
-95.0741
-94.9447
-94.7905
-94.6068
-94.3884
-94.129
-93.821
-93.4555
-93.0224
-92.5121
-91.9125
-91.2091
-90.388
-89.4327
-88.3298
-87.0663
-85.6254
-83.9988
-82.1834
-80.174
-77.9807
-75.6129
-73.0894
-70.4377
-67.6867
-64.8719
-62.0191
-59.1668
-56.2856
-53.8205
-95.4158
-95.414
-95.4083
-95.3978
-95.3831
-95.364
-95.3399
-95.3102
-95.2741
-95.2304
-95.1775
-95.1139
-95.0377
-94.9467
-94.8386
-94.7102
-94.5582
-94.3783
-94.1648
-93.9125
-93.6137
-93.2602
-92.8426
-92.3503
-91.7734
-91.0956
-90.3056
-89.3852
-88.3234
-87.1037
-85.71
-84.1404
-82.3796
-80.428
-78.291
-75.9805
-73.5152
-70.913
-68.2081
-65.4304
-62.624
-59.7533
-57.3651
-95.232
-95.2304
-95.2253
-95.2159
-95.2027
-95.1855
-95.164
-95.1376
-95.1057
-95.0674
-95.0215
-94.9666
-94.901
-94.8231
-94.7308
-94.6219
-94.4937
-94.3425
-94.1641
-93.9536
-93.7049
-93.4112
-93.0649
-92.6561
-92.1759
-91.6126
-90.9526
-90.183
-89.2871
-88.2532
-87.0626
-85.7062
-84.1697
-82.4483
-80.5368
-78.4404
-76.1725
-73.7451
-71.1855
-68.5181
-65.7877
-62.9629
-60.4877
-95.0715
-95.0693
-95.0639
-95.0548
-95.0424
-95.0265
-95.0068
-94.983
-94.9544
-94.9202
-94.8795
-94.8312
-94.7739
-94.7061
-94.6263
-94.5325
-94.4222
-94.293
-94.1415
-93.9629
-93.753
-93.5058
-93.2145
-92.872
-92.4677
-91.9944
-91.4375
-90.787
-90.0293
-89.1476
-88.128
-86.9569
-85.6188
-84.1064
-82.4095
-80.5247
-78.4565
-76.2147
-73.8177
-71.2854
-68.6517
-65.8837
-63.1135
-94.9219
-94.92
-94.9152
-94.9069
-94.8956
-94.8812
-94.8633
-94.8417
-94.8159
-94.7852
-94.7489
-94.706
-94.6552
-94.5954
-94.5254
-94.4432
-94.3473
-94.2353
-94.1043
-93.9512
-93.7717
-93.5606
-93.3122
-93.0206
-92.6773
-92.2749
-91.8026
-91.2485
-90.6019
-89.8476
-88.9712
-87.959
-86.7959
-85.4679
-83.9643
-82.2799
-80.4092
-78.3582
-76.1348
-73.7513
-71.2525
-68.5957
-66.4225
-94.7868
-94.785
-94.7807
-94.7731
-94.7627
-94.7494
-94.7329
-94.7131
-94.6895
-94.6616
-94.6288
-94.5902
-94.5448
-94.4915
-94.4291
-94.3564
-94.2719
-94.1736
-94.0592
-93.9259
-93.7699
-93.5875
-93.374
-93.1232
-92.8285
-92.4829
-92.0772
-91.6024
-91.0459
-90.396
-89.6406
-88.7637
-87.7503
-86.587
-85.2592
-83.7565
-82.0736
-80.2053
-78.1591
-75.9387
-73.5816
-71.0074
-69.0442
-94.6671
-94.6646
-94.6598
-94.6522
-94.6421
-94.6293
-94.6138
-94.5953
-94.5734
-94.5477
-94.5175
-94.4823
-94.4413
-94.3933
-94.3374
-94.2723
-94.1968
-94.1095
-94.0085
-93.8909
-93.7543
-93.595
-93.4088
-93.1913
-92.9358
-92.6369
-92.2854
-91.8744
-91.3938
-90.8312
-90.1747
-89.4105
-88.5239
-87.5024
-86.3308
-84.9943
-83.4841
-81.7941
-79.9224
-77.8699
-75.6791
-73.2212
-72.1051
-94.5518
-94.5496
-94.5454
-94.5384
-94.529
-94.5172
-94.5028
-94.4857
-94.4654
-94.4417
-94.414
-94.3818
-94.3444
-94.3007
-94.2499
-94.1911
-94.1232
-94.0449
-93.9544
-93.8501
-93.7292
-93.5887
-93.4247
-93.2337
-93.0102
-92.7489
-92.4431
-92.0844
-91.6653
-91.175
-90.6016
-89.9339
-89.1583
-88.2588
-87.2227
-86.0332
-84.6804
-83.1525
-81.4449
-79.545
-77.4912
-75.1009
-73.7377
-94.4459
-94.444
-94.4401
-94.4337
-94.425
-94.4139
-94.4004
-94.3843
-94.3653
-94.3432
-94.3175
-94.2878
-94.2533
-94.2133
-94.167
-94.1136
-94.0521
-93.9812
-93.8999
-93.8062
-93.698
-93.5728
-93.4275
-93.2585
-93.0615
-92.8312
-92.5622
-92.2472
-91.8788
-91.448
-90.9456
-90.3593
-89.676
-88.8812
-87.9642
-86.9065
-85.6969
-84.3206
-82.7709
-81.0331
-79.1287
-76.8831
-75.5515
-94.3514
-94.3489
-94.3446
-94.3381
-94.3293
-94.3185
-94.3055
-94.2901
-94.2721
-94.2513
-94.2272
-94.1995
-94.1676
-94.1308
-94.0882
-94.0392
-93.9827
-93.9181
-93.8442
-93.7591
-93.6615
-93.5491
-93.4193
-93.2685
-93.0933
-92.8891
-92.6508
-92.3725
-92.0477
-91.6677
-91.2238
-90.7051
-90.1002
-89.3977
-88.5837
-87.6408
-86.5574
-85.3195
-83.9138
-82.3268
-80.5837
-78.5394
-77.355
-94.258
-94.2558
-94.2519
-94.2459
-94.2377
-94.2276
-94.2153
-94.2009
-94.184
-94.1645
-94.142
-94.1162
-94.0865
-94.0522
-94.0129
-93.9676
-93.9158
-93.8565
-93.7887
-93.7115
-93.6232
-93.5215
-93.4042
-93.2687
-93.1117
-92.9293
-92.7171
-92.4692
-92.1803
-91.8429
-91.4486
-90.9887
-90.453
-89.8279
-89.1018
-88.2599
-87.2893
-86.1744
-84.9047
-83.4612
-81.8547
-79.9513
-78.7587
-94.1696
-94.1679
-94.1647
-94.1594
-94.1519
-94.1424
-94.1309
-94.1173
-94.1014
-94.0831
-94.0619
-94.0377
-94.0098
-93.9779
-93.9414
-93.8995
-93.8517
-93.797
-93.7347
-93.6638
-93.5829
-93.4904
-93.3841
-93.2616
-93.1201
-92.956
-92.7654
-92.5436
-92.285
-91.9833
-91.6323
-91.2226
-90.744
-90.1855
-89.5376
-88.7847
-87.9139
-86.9102
-85.7604
-84.4458
-82.9768
-81.2328
-80.1926
-94.0916
-94.0894
-94.0857
-94.0801
-94.0725
-94.0632
-94.052
-94.0388
-94.0236
-94.006
-93.986
-93.9631
-93.937
-93.9073
-93.8731
-93.8341
-93.7895
-93.7387
-93.6812
-93.6156
-93.5412
-93.4564
-93.3595
-93.2481
-93.1198
-92.9714
-92.7996
-92.6003
-92.3681
-92.0977
-91.7824
-91.4144
-90.9855
-90.4862
-89.9055
-89.2292
-88.4459
-87.542
-86.5034
-85.314
-83.9802
-82.4145
-81.8629
-94.0125
-94.0106
-94.0074
-94.0024
-93.9953
-93.9866
-93.976
-93.9636
-93.9493
-93.9328
-93.9139
-93.8924
-93.8678
-93.8397
-93.8078
-93.7715
-93.7299
-93.6826
-93.6291
-93.5686
-93.4999
-93.4218
-93.3327
-93.2307
-93.1137
-92.9788
-92.8229
-92.6422
-92.4328
-92.1892
-91.9049
-91.5742
-91.1893
-90.7402
-90.217
-89.6085
-88.9009
-88.0824
-87.1404
-86.0538
-84.8262
-83.3573
-82.7818
-93.9383
-93.9367
-93.9339
-93.9293
-93.9227
-93.9144
-93.9043
-93.8925
-93.8788
-93.8631
-93.8452
-93.8248
-93.8015
-93.7751
-93.7451
-93.7109
-93.6721
-93.6281
-93.5781
-93.5217
-93.4581
-93.3859
-93.3039
-93.2104
-93.1032
-92.9801
-92.8381
-92.6739
-92.4834
-92.2623
-92.0057
-91.7071
-91.3591
-90.9531
-90.4805
-89.9313
-89.2922
-88.5502
-87.6915
-86.6949
-85.5557
-84.1603
-83.5036
-93.8714
-93.8692
-93.8659
-93.861
-93.8543
-93.846
-93.8362
-93.8247
-93.8115
-93.7965
-93.7794
-93.76
-93.7381
-93.7132
-93.685
-93.653
-93.6166
-93.5753
-93.5286
-93.476
-93.4165
-93.3496
-93.2737
-93.1873
-93.0887
-92.9757
-92.8458
-92.6962
-92.5229
-92.3221
-92.0892
-91.8179
-91.5025
-91.1351
-90.7072
-90.2087
-89.6282
-88.9535
-88.169
-87.254
-86.1993
-84.9044
-84.1997
-93.8017
-93.7999
-93.797
-93.7926
-93.7864
-93.7787
-93.7694
-93.7586
-93.7462
-93.732
-93.7158
-93.6975
-93.6767
-93.6532
-93.6266
-93.5964
-93.5622
-93.5234
-93.4797
-93.4305
-93.3751
-93.3126
-93.242
-93.1622
-93.0712
-92.9672
-92.8479
-92.7105
-92.5523
-92.3692
-92.1564
-91.9091
-91.6223
-91.2889
-90.9004
-90.4478
-89.9196
-89.3049
-88.5917
-87.7584
-86.7953
-85.6245
-85.2159
-93.7354
-93.7339
-93.7314
-93.7274
-93.7216
-93.7143
-93.7055
-93.6951
-93.6833
-93.6698
-93.6544
-93.6369
-93.6172
-93.595
-93.5698
-93.5413
-93.5092
-93.4729
-93.4319
-93.3857
-93.334
-93.2758
-93.2102
-93.136
-93.0517
-92.9556
-92.8457
-92.7194
-92.5738
-92.4055
-92.2115
-91.9863
-91.7245
-91.4196
-91.0646
-90.6521
-90.1709
-89.6094
-88.9538
-88.181
-87.2787
-86.1736
-85.5904
-93.6749
-93.6729
-93.6698
-93.6654
-93.6595
-93.6522
-93.6435
-93.6335
-93.6221
-93.6091
-93.5944
-93.5778
-93.5592
-93.5382
-93.5144
-93.4877
-93.4574
-93.4232
-93.3846
-93.3413
-93.2926
-93.2381
-93.1769
-93.1077
-93.0294
-92.9404
-92.8388
-92.7226
-92.5887
-92.4344
-92.2561
-92.0496
-91.8097
-91.531
-91.2069
-90.8293
-90.3888
-89.8754
-89.2747
-88.5666
-87.7382
-86.7021
-86.2056
-93.6104
-93.6088
-93.6061
-93.6022
-93.5967
-93.5899
-93.5818
-93.5724
-93.5616
-93.5493
-93.5354
-93.5197
-93.502
-93.482
-93.4596
-93.4344
-93.4057
-93.3735
-93.3373
-93.2966
-93.2509
-93.1998
-93.1424
-93.078
-93.0051
-92.9225
-92.8282
-92.7203
-92.5969
-92.455
-92.2907
-92.1005
-91.8799
-91.6245
-91.3271
-90.9809
-90.5769
-90.1051
-89.554
-88.9011
-88.1396
-87.1988
-86.5383
-93.5483
-93.5467
-93.5443
-93.5408
-93.5356
-93.5291
-93.5214
-93.5124
-93.5021
-93.4903
-93.4771
-93.4622
-93.4453
-93.4265
-93.4053
-93.3813
-93.3545
-93.3243
-93.2901
-93.2518
-93.2091
-93.1611
-93.1074
-93.0471
-92.9791
-92.9022
-92.8147
-92.7149
-92.6005
-92.4688
-92.3168
-92.1419
-91.9394
-91.7037
-91.43
-91.1123
-90.7427
-90.3126
-89.8126
-89.2259
-88.5633
-87.8099
-87.9811
-93.4897
-93.4876
-93.4848
-93.481
-93.4757
-93.4693
-93.4617
-93.453
-93.443
-93.4317
-93.4191
-93.4049
-93.389
-93.3712
-93.3511
-93.3285
-93.3032
-93.2746
-93.2424
-93.2064
-93.166
-93.1209
-93.0706
-93.014
-92.9504
-92.8785
-92.7971
-92.7043
-92.5979
-92.4762
-92.3361
-92.1745
-91.987
-91.7697
-91.5175
-91.2246
-90.884
-90.4882
-90.0286
-89.4907
-88.895
-88.2289
-88.0276
-93.4273
-93.4256
-93.4229
-93.4194
-93.4144
-93.4083
-93.4011
-93.3928
-93.3834
-93.3727
-93.3607
-93.3472
-93.3321
-93.3151
-93.2961
-93.2748
-93.2508
-93.2238
-93.1936
-93.1596
-93.1217
-93.0793
-93.0318
-92.9788
-92.9194
-92.8523
-92.7763
-92.6899
-92.5912
-92.4782
-92.3479
-92.1975
-92.0238
-91.823
-91.59
-91.3188
-91.0045
-90.6403
-90.219
-89.7307
-89.184
-88.552
-88.9233
-93.364
-93.3625
-93.3601
-93.357
-93.3524
-93.3467
-93.3399
-93.3321
-93.3232
-93.3131
-93.3017
-93.2889
-93.2746
-93.2586
-93.2407
-93.2205
-93.1979
-93.1725
-93.1439
-93.1119
-93.0762
-93.0363
-92.9918
-92.942
-92.8861
-92.8232
-92.7521
-92.6712
-92.579
-92.4735
-92.3521
-92.2129
-92.0519
-91.865
-91.6478
-91.3959
-91.1028
-90.7611
-90.3639
-89.8941
-89.3417
-88.6599
-88.734
-93.3012
-93.2998
-93.2977
-93.2947
-93.2904
-93.2849
-93.2785
-93.271
-93.2624
-93.2527
-93.2419
-93.2298
-93.2162
-93.201
-93.1839
-93.1649
-93.1436
-93.1195
-93.0926
-93.0624
-93.0286
-92.9909
-92.9489
-92.9019
-92.8494
-92.7903
-92.7237
-92.6482
-92.5621
-92.4636
-92.3508
-92.2208
-92.0703
-91.8961
-91.694
-91.4588
-91.1844
-90.8641
-90.489
-90.0438
-89.5204
-88.8824
-88.5157
-93.241
-93.2389
-93.2361
-93.2328
-93.2282
-93.2227
-93.2163
-93.209
-93.2007
-93.1914
-93.181
-93.1694
-93.1565
-93.142
-93.1259
-93.1079
-93.0876
-93.0649
-93.0395
-93.0108
-92.9789
-92.9433
-92.9036
-92.8594
-92.8102
-92.7546
-92.6919
-92.6209
-92.5402
-92.448
-92.3421
-92.2201
-92.0793
-91.9167
-91.7278
-91.5072
-91.2503
-90.9499
-90.597
-90.1814
-89.6938
-89.1104
-88.5634
-93.1726
-93.1712
-93.1691
-93.1663
-93.1622
-93.1572
-93.1513
-93.1445
-93.1367
-93.128
-93.1182
-93.1073
-93.095
-93.0813
-93.066
-93.0489
-93.0297
-93.0082
-92.9841
-92.9571
-92.9271
-92.8935
-92.856
-92.8141
-92.7672
-92.7148
-92.6558
-92.589
-92.5132
-92.4267
-92.3272
-92.2129
-92.0812
-91.9282
-91.7503
-91.5436
-91.3021
-91.0189
-90.6872
-90.2964
-89.8345
-89.2833
-88.651
-93.1052
-93.1039
-93.1021
-93.0997
-93.0959
-93.0912
-93.0857
-93.0792
-93.0718
-93.0634
-93.0541
-93.0436
-93.032
-93.0189
-93.0043
-92.9881
-92.97
-92.9496
-92.9268
-92.9012
-92.8724
-92.8405
-92.805
-92.7653
-92.7212
-92.6718
-92.6161
-92.553
-92.4813
-92.3994
-92.3059
-92.1987
-92.0746
-91.9308
-91.764
-91.5695
-91.3419
-91.0756
-90.7627
-90.3946
-89.9596
-89.4383
-88.7411
-93.0404
-93.0386
-93.0361
-93.0331
-93.0291
-93.0243
-93.0187
-93.0123
-93.0051
-92.997
-92.988
-92.9779
-92.9668
-92.9543
-92.9405
-92.9251
-92.9078
-92.8884
-92.8668
-92.8424
-92.8153
-92.7851
-92.7513
-92.7138
-92.6719
-92.6247
-92.5718
-92.5124
-92.4448
-92.3678
-92.2796
-92.1778
-92.0604
-91.925
-91.7678
-91.584
-91.3694
-91.1179
-90.8213
-90.4719
-90.054
-89.5483
-88.788
-92.9678
-92.9664
-92.9643
-92.9618
-92.9582
-92.9537
-92.9485
-92.9425
-92.9357
-92.9281
-92.9196
-92.91
-92.8994
-92.8876
-92.8744
-92.8596
-92.8432
-92.8248
-92.8041
-92.7811
-92.7553
-92.7265
-92.6944
-92.6586
-92.6188
-92.5742
-92.5243
-92.4677
-92.4036
-92.3306
-92.2469
-92.151
-92.0407
-91.9126
-91.7638
-91.5908
-91.3887
-91.1519
-90.874
-90.5484
-90.1618
-89.6991
-88.9586
-92.8941
-92.8929
-92.8912
-92.889
-92.8857
-92.8816
-92.8766
-92.8709
-92.8644
-92.8571
-92.849
-92.8399
-92.8297
-92.8184
-92.8058
-92.7918
-92.7762
-92.7587
-92.7392
-92.7172
-92.6927
-92.6652
-92.6347
-92.6007
-92.5627
-92.5203
-92.4726
-92.419
-92.3582
-92.2888
-92.2097
-92.119
-92.0143
-91.8932
-91.753
-91.5899
-91.3997
-91.1777
-90.9182
-90.617
-90.2713
-89.8952
-89.1861
-92.8224
-92.8207
-92.8185
-92.8158
-92.8123
-92.808
-92.8031
-92.7974
-92.7911
-92.784
-92.7761
-92.7674
-92.7577
-92.7469
-92.7349
-92.7215
-92.7065
-92.6898
-92.6711
-92.6501
-92.6267
-92.6006
-92.5715
-92.539
-92.5029
-92.4625
-92.4172
-92.3662
-92.3083
-92.2427
-92.1677
-92.0815
-91.9824
-91.8679
-91.7353
-91.5814
-91.4022
-91.1935
-90.9502
-90.6687
-90.345
-89.9852
-89.3392
-92.7431
-92.7418
-92.74
-92.7377
-92.7345