/*--------------------------------*- C++ -*----------------------------------*\
| =========                 |                                                 |
| \\      /  F ield         | OpenFOAM: The Open Source CFD Toolbox           |
|  \\    /   O peration     | Version:  2.3.0                                 |
|   \\  /    A nd           | Web:      www.OpenFOAM.org                      |
|    \\/     M anipulation  |                                                 |
\*---------------------------------------------------------------------------*/
FoamFile
{
    version     2.0;
    format      ascii;
    class       volVectorField;
    location    "5000";
    object      U;
}
// * * * * * * * * * * * * * * * * * * * * * * * * * * * * * * * * * * * * * //

dimensions      [0 1 -1 0 0 0 0];

internalField   nonuniform List<vector> 
39548
(
(21.9562 9.28198 0)
(21.8858 9.45718 0)
(21.8132 9.6392 0)
(21.7374 9.82186 0)
(21.6584 10.007 1.02444e-20)
(21.5759 10.1945 9.54512e-22)
(21.4895 10.3845 1.26508e-21)
(21.3991 10.5772 -6.42421e-21)
(21.3044 10.7729 -8.21937e-21)
(21.2052 10.9716 8.96729e-21)
(21.1015 11.1737 -4.88377e-20)
(20.9929 11.3791 -5.02082e-21)
(20.8793 11.5883 5.40453e-20)
(20.7602 11.8014 0)
(20.6354 12.0186 6.74534e-21)
(20.5043 12.24 7.75828e-20)
(20.3665 12.4657 -8.58511e-20)
(20.2213 12.6958 8.93624e-20)
(20.068 12.9303 4.78776e-21)
(19.9058 13.1689 -9.83491e-20)
(19.7335 13.4112 0)
(19.5497 13.6565 -1.17986e-19)
(19.353 13.9038 2.46256e-19)
(19.1413 14.1519 4.02304e-21)
(18.9122 14.3993 -1.35115e-19)
(18.6625 14.6444 8.96735e-21)
(18.3884 14.8854 0)
(18.0854 15.1204 -3.75674e-22)
(17.7482 15.3477 6.72238e-20)
(17.3702 15.5652 -2.2601e-21)
(16.9438 15.7725 -8.24136e-20)
(16.4596 15.9683 -3.09305e-21)
(15.907 16.1537 0)
(15.2729 16.3296 1.69131e-20)
(14.5424 16.4983 0)
(13.6981 16.6631 2.1553e-20)
(12.7212 16.8279 -2.89028e-20)
(11.5916 16.997 0)
(10.2799 17.1534 -3.15203e-20)
(8.76094 17.2774 -1.91757e-20)
(7.05782 17.4361 0)
(5.24454 17.7901 -3.0575e-20)
(3.29533 17.9873 0)
(21.7878 9.22987 1.03115e-20)
(21.7141 9.38632 -2.0934e-20)
(21.6407 9.54819 -2.23588e-21)
(21.5651 9.71077 2.05454e-20)
(21.4869 9.87532 8.09153e-21)
(21.4055 10.0417 -6.83925e-21)
(21.3206 10.21 -7.19828e-21)
(21.2318 10.3804 -9.1592e-21)
(21.1389 10.5529 -2.91428e-20)
(21.0417 10.7279 1.18405e-20)
(20.9399 10.9053 0)
(20.8333 11.0854 -1.49523e-22)
(20.7216 11.2683 1.81573e-22)
(20.6044 11.4541 4.9672e-21)
(20.4813 11.643 0)
(20.3517 11.8351 -2.7089e-20)
(20.2149 12.0307 2.68339e-20)
(20.0704 12.2299 -2.94754e-20)
(19.9173 12.4331 3.77091e-20)
(19.7546 12.6406 3.48243e-20)
(19.5813 12.8527 -3.53947e-20)
(19.3965 13.0697 -4.13237e-20)
(19.1985 13.2919 3.24528e-20)
(18.986 13.5198 -9.87833e-21)
(18.7574 13.7534 -5.68949e-20)
(18.5107 13.9929 5.83852e-20)
(18.2438 14.2383 0)
(17.9546 14.4891 3.6447e-22)
(17.6405 14.7445 -7.53172e-22)
(17.2989 15.0029 1.11369e-19)
(16.9267 15.2621 -1.37011e-19)
(16.5211 15.5188 2.95056e-21)
(16.0788 15.7684 -2.161e-19)
(15.5962 16.0045 2.36304e-19)
(15.0701 16.2185 0)
(14.4975 16.3996 5.30894e-21)
(13.8764 16.534 0)
(13.2053 16.6047 0)
(12.4843 16.5893 1.18785e-20)
(11.7199 16.46 1.54103e-20)
(10.9282 16.1902 -5.72362e-19)
(10.1162 15.7557 6.06494e-19)
(9.26118 15.1335 0)
(21.6342 9.16966 -2.84474e-20)
(21.5594 9.31052 2.08507e-20)
(21.4848 9.45592 5.04761e-21)
(21.4079 9.60144 -1.33078e-20)
(21.3285 9.74846 5.41163e-21)
(21.246 9.89689 5.25355e-20)
(21.1602 10.0468 -3.58071e-20)
(21.0705 10.1984 8.36793e-21)
(20.9767 10.3515 -6.16037e-21)
(20.8785 10.5066 8.68667e-21)
(20.7756 10.6636 4.94409e-20)
(20.6679 10.8228 -1.08399e-19)
(20.5552 10.9842 -1.02262e-20)
(20.437 11.1479 9.4573e-20)
(20.3132 11.314 -6.43419e-20)
(20.1833 11.4826 0)
(20.0467 11.6536 -6.41556e-20)
(19.9028 11.8272 1.32886e-19)
(19.751 12.0034 -7.53845e-20)
(19.5903 12.1822 1.19958e-20)
(19.42 12.3636 0)
(19.239 12.5475 0)
(19.0462 12.7337 -6.16576e-21)
(18.8401 12.9218 2.60321e-20)
(18.6193 13.1117 0)
(18.3816 13.3026 -9.79387e-21)
(18.1252 13.4941 1.47505e-19)
(17.8476 13.6849 -1.51624e-19)
(17.5462 13.8739 0)
(17.2186 14.0594 9.71626e-21)
(16.8621 14.2393 -5.51757e-21)
(16.4739 14.4107 0)
(16.0515 14.5701 0)
(15.5928 14.7132 -4.18099e-20)
(15.096 14.8343 4.00191e-19)
(14.5605 14.927 4.74265e-20)
(13.9869 14.9831 -4.72788e-19)
(13.3783 14.9937 0)
(12.7403 14.9485 3.47248e-19)
(12.0838 14.837 -8.00508e-19)
(11.425 14.6495 3.8007e-20)
(10.785 14.3754 4.19772e-19)
(10.1907 14.0051 0)
(21.4977 9.11137 -7.39014e-20)
(21.425 9.23596 3.00748e-20)
(21.3515 9.36613 -1.31692e-20)
(21.2757 9.49641 4.51971e-20)
(21.1977 9.62802 -2.68983e-20)
(21.117 9.7608 3.31109e-20)
(21.0333 9.89476 -3.28729e-20)
(20.946 10.0299 0)
(20.855 10.1665 1.46887e-20)
(20.7596 10.3044 -1.0267e-20)
(20.6597 10.4439 -1.05731e-20)
(20.5551 10.5851 8.61176e-20)
(20.4454 10.728 -6.97293e-20)
(20.3304 10.8728 -7.58725e-20)
(20.2098 11.0195 9.37662e-20)
(20.0833 11.168 9.27513e-20)
(19.9505 11.3186 -9.33787e-20)
(19.8106 11.4709 -8.91476e-20)
(19.6631 11.625 2.14255e-19)
(19.5071 11.781 -1.23146e-19)
(19.342 11.9388 0)
(19.167 12.0983 1.82916e-20)
(18.9811 12.2591 1.4949e-20)
(18.7836 12.4211 -1.74335e-19)
(18.5734 12.5836 1.84623e-19)
(18.349 12.746 9.72709e-21)
(18.1093 12.9074 0)
(17.8524 13.0666 1.50153e-20)
(17.5765 13.222 2.54185e-19)
(17.2798 13.3719 2.15945e-20)
(16.9605 13.5141 -2.74949e-19)
(16.617 13.6456 -2.25441e-20)
(16.2479 13.7632 0)
(15.8525 13.8627 2.36535e-20)
(15.4305 13.9394 -3.14341e-20)
(14.9823 13.9874 0)
(14.5097 14.0003 0)
(14.016 13.9712 0)
(13.5063 13.893 0)
(12.9888 13.7588 4.97661e-20)
(12.4738 13.5643 -4.93651e-19)
(11.9745 13.3066 2.30362e-19)
(11.5066 12.9874 -2.0553e-20)
(21.3787 9.05219 3.57082e-20)
(21.3076 9.1631 2.12055e-20)
(21.2356 9.27992 -3.99045e-20)
(21.1614 9.39694 1.76269e-20)
(21.0852 9.51511 2.30876e-20)
(21.0065 9.63429 -4.11813e-20)
(20.925 9.75453 0)
(20.8404 9.87588 0)
(20.7521 9.99841 0)
(20.6599 10.1221 5.68533e-20)
(20.5631 10.247 1.21922e-20)
(20.4617 10.3734 1.70686e-21)
(20.3554 10.5013 -1.38476e-19)
(20.2438 10.6306 2.23851e-19)
(20.1266 10.7615 -1.07064e-19)
(20.0037 10.894 -1.1648e-19)
(19.8747 11.0281 1.01024e-19)
(19.7393 11.1635 2.80508e-21)
(19.5968 11.3002 0)
(19.4462 11.4379 1.90847e-20)
(19.2868 11.5768 0)
(19.1179 11.7165 -3.99785e-20)
(18.9387 11.8569 2.00488e-19)
(18.7482 11.9975 -1.55995e-19)
(18.5459 12.138 -2.30635e-20)
(18.3305 12.2776 0)
(18.1012 12.4154 1.22186e-19)
(17.8569 12.5502 -1.06084e-19)
(17.5962 12.6803 1.46481e-19)
(17.3173 12.8039 -1.5056e-19)
(17.0185 12.919 -1.77897e-19)
(16.6983 13.0229 2.30368e-19)
(16.3559 13.1128 2.18288e-19)
(15.991 13.1854 -2.24568e-19)
(15.6041 13.2367 3.12282e-20)
(15.1962 13.2621 0)
(14.77 13.2566 3.73458e-19)
(14.3288 13.215 -3.40302e-19)
(13.878 13.1322 -4.06487e-19)
(13.4248 13.0038 4.13859e-19)
(12.978 12.8272 1.84652e-19)
(12.548 12.6016 -1.81931e-19)
(12.146 12.3291 -2.82574e-19)
(21.274 8.99383 -4.81802e-20)
(21.205 9.09301 2.49314e-20)
(21.135 9.1985 -1.06143e-20)
(21.0631 9.30406 2.2173e-20)
(20.9894 9.41053 0)
(20.9133 9.51791 5.03503e-20)
(20.8347 9.62634 -4.99662e-20)
(20.7531 9.7358 6.63316e-20)
(20.6682 9.84647 1.57455e-20)
(20.5798 9.95815 -5.34429e-20)
(20.487 10.0708 5.67372e-20)
(20.3895 10.1849 -5.65874e-20)
(20.2872 10.3004 2.04415e-21)
(20.1799 10.4171 4.84648e-20)
(20.0671 10.5349 -4.59329e-20)
(19.9482 10.6542 6.82465e-20)
(19.8233 10.7749 -5.23878e-20)
(19.6923 10.8971 -3.66585e-20)
(19.5553 11.0201 9.97371e-20)
(19.4107 11.1436 -1.8335e-19)
(19.2578 11.2676 6.21634e-20)
(19.0956 11.3921 2.17612e-20)
(18.9237 11.5168 -2.32936e-20)
(18.7414 11.6413 -1.61914e-19)
(18.5477 11.7649 -6.03748e-21)
(18.3416 11.8872 1.20087e-19)
(18.1226 12.0076 3.48192e-20)
(17.8906 12.1249 1.15029e-19)
(17.645 12.2374 -1.12398e-19)
(17.3843 12.343 -4.46483e-20)
(17.1069 12.4395 4.87764e-20)
(16.8112 12.5247 -2.48559e-20)
(16.4961 12.5958 -2.36181e-19)
(16.1612 12.6503 2.42708e-19)
(15.8073 12.6847 7.05982e-20)
(15.4358 12.6953 3.93338e-19)
(15.0494 12.678 -3.64432e-19)
(14.6514 12.6288 0)
(14.2464 12.5436 5.07681e-20)
(13.8401 12.4196 -1.71727e-19)
(13.4397 12.2549 2.30129e-19)
(13.0542 12.0497 3.17364e-22)
(12.6915 11.806 2.80743e-19)
(21.1814 8.93764 3.88648e-20)
(21.1151 9.02716 -1.40086e-20)
(21.0474 9.12268 1.53678e-21)
(20.978 9.21839 -1.44375e-20)
(20.907 9.31474 -7.11055e-20)
(20.8336 9.41195 5.59989e-20)
(20.7578 9.51025 -7.373e-20)
(20.6791 9.60944 4.42272e-20)
(20.5971 9.70999 -1.421e-20)
(20.5122 9.81182 -1.61626e-20)
(20.4235 9.91429 6.44053e-20)
(20.3299 10.0179 2.03614e-21)
(20.2313 10.1232 -8.22223e-20)
(20.1284 10.23 0)
(20.0208 10.3372 -1.71506e-20)
(19.9061 10.4454 1.96881e-20)
(19.7852 10.555 0)
(19.6576 10.6664 1.96001e-20)
(19.5251 10.7788 -2.06291e-20)
(19.3861 10.8913 -2.37551e-20)
(19.2392 11.0038 2.30995e-20)
(19.0831 11.1161 1.0516e-19)
(18.9175 11.2286 -1.07056e-19)
(18.7424 11.3408 2.80194e-20)
(18.5566 11.4516 -3.23903e-20)
(18.3585 11.5603 -1.3826e-19)
(18.1476 11.6666 -4.2455e-20)
(17.9238 11.7702 3.54093e-19)
(17.6878 11.8697 -3.15209e-20)
(17.4396 11.9624 -1.34571e-19)
(17.1773 12.0465 -2.55917e-19)
(16.8999 12.1194 1.56791e-19)
(16.6054 12.1783 0)
(16.2931 12.221 -2.70656e-19)
(15.9638 12.2448 2.07359e-19)
(15.6183 12.2465 2.22459e-21)
(15.2592 12.2235 8.64185e-20)
(14.8915 12.1715 0)
(14.5184 12.0872 -1.523e-19)
(14.1453 11.9679 5.55977e-20)
(13.7765 11.8134 0)
(13.4214 11.6237 -3.23236e-19)
(13.0858 11.4001 3.99637e-19)
(21.0954 8.8886 -1.35165e-20)
(21.0363 8.96737 1.4062e-20)
(20.9712 9.05267 -1.42707e-20)
(20.9045 9.13967 -1.20631e-21)
(20.837 9.22723 1.47097e-20)
(20.7662 9.31546 0)
(20.6932 9.40518 1.5205e-20)
(20.6176 9.49549 -1.64454e-20)
(20.5378 9.58706 6.69669e-20)
(20.4557 9.68079 1.18194e-21)
(20.3711 9.77508 2.16984e-21)
(20.2812 9.86981 2.19143e-21)
(20.1861 9.96653 -7.26291e-20)
(20.0857 10.0656 0)
(19.9845 10.1647 0)
(19.874 10.2639 -1.97706e-20)
(19.7587 10.3642 0)
(19.633 10.4661 -6.86226e-20)
(19.5038 10.5698 -2.70437e-20)
(19.3692 10.6736 4.46133e-20)
(19.2281 10.7773 1.02243e-19)
(19.0784 10.8799 0)
(18.9176 10.9824 0)
(18.7482 11.0851 -3.10922e-20)
(18.57 11.1866 -1.04526e-19)
(18.3805 11.2859 1.04463e-19)
(18.1776 11.3815 3.8203e-20)
(17.9615 11.4733 9.95429e-22)
(17.7315 11.5617 1.83009e-19)
(17.4932 11.6436 -1.87579e-19)
(17.2419 11.7172 5.17953e-20)
(16.9791 11.7815 1.72242e-19)
(16.7019 11.8324 -2.46596e-19)
(16.4072 11.8684 1.30163e-19)
(16.1003 11.8855 2.22856e-19)
(15.7775 11.8791 -1.53246e-19)
(15.4376 11.8528 -8.53005e-20)
(15.0925 11.8008 -9.25054e-20)
(14.7419 11.7203 1.00459e-19)
(14.3965 11.6052 -1.08406e-19)
(14.0497 11.4587 -1.15771e-19)
(13.7175 11.2807 0)
(13.4022 11.0712 0)
(21.0148 8.84869 -1.45601e-20)
(20.9674 8.91411 0)
(20.9066 8.98859 1.7039e-20)
(20.8441 9.06753 3.2969e-20)
(20.7835 9.14747 -1.74668e-20)
(20.7183 9.22664 0)
(20.6497 9.3086 3.3361e-20)
(20.5802 9.3915 -1.66552e-20)
(20.5038 9.47399 -5.33195e-20)
(20.4247 9.56007 8.64808e-20)
(20.3475 9.64751 -3.45312e-20)
(20.2616 9.73463 -3.60567e-20)
(20.1718 9.8241 7.42399e-20)
(20.0681 9.91666 -7.68918e-20)
(19.9764 10.0106 3.92781e-20)
(19.8679 10.1008 -4.24083e-20)
(19.762 10.1955 4.22514e-20)
(19.6374 10.2886 -2.2828e-20)
(19.5127 10.3843 -2.4904e-20)
(19.384 10.4793 2.43058e-20)
(19.2501 10.5756 5.35013e-20)
(19.1107 10.6704 -1.40461e-19)
(18.9555 10.7637 1.49861e-19)
(18.791 10.8575 3.89589e-21)
(18.6204 10.9502 -6.78757e-20)
(18.4434 11.0416 6.98812e-20)
(18.249 11.1327 -1.90663e-21)
(18.0394 11.2175 8.20438e-20)
(17.8115 11.2959 -4.52396e-20)
(17.5826 11.368 2.45136e-19)
(17.3392 11.43 7.99584e-21)
(17.0889 11.4842 -1.65529e-19)
(16.8354 11.5239 5.74422e-20)
(16.5523 11.5585 5.80937e-20)
(16.2551 11.5828 1.36802e-19)
(15.9523 11.5643 -1.58407e-19)
(15.628 11.5312 4.30009e-19)
(15.3048 11.4762 1.99469e-19)
(14.968 11.4041 -2.88596e-19)
(14.6401 11.2985 1.97692e-19)
(14.297 11.1617 2.25366e-19)
(13.9794 10.9933 1.2021e-19)
(13.6783 10.7949 -1.26626e-19)
(1.32882 16.7676 8.44201e-19)
(1.72171 14.9704 -1.23798e-18)
(2.24267 13.5109 4.57309e-19)
(2.78088 12.3549 -6.82127e-20)
(3.30342 11.4089 -8.69057e-20)
(3.79855 10.6107 9.14446e-20)
(4.26591 9.92529 -7.86183e-21)
(4.71206 9.33357 0)
(5.13811 8.81766 -4.81345e-19)
(5.54399 8.36352 4.576e-19)
(5.92955 7.96063 0)
(6.29505 7.60044 0)
(6.6412 7.27595 -7.14711e-19)
(6.96913 6.98187 7.83675e-19)
(7.27995 6.71338 1.9653e-19)
(7.57495 6.46684 0)
(7.85549 6.23931 0)
(8.12268 6.02796 -5.35145e-21)
(8.37769 5.83049 4.80733e-21)
(8.62179 5.64545 -1.19037e-18)
(8.85597 5.47105 1.17135e-18)
(9.08111 5.30604 -1.51659e-18)
(9.29805 5.14923 2.21374e-18)
(9.50755 4.99965 -2.46311e-18)
(9.71028 4.85653 1.00004e-18)
(9.90683 4.71912 2.83342e-19)
(10.0977 4.58682 1.41907e-19)
(10.2834 4.45913 0)
(10.4642 4.33552 1.38151e-19)
(10.6405 4.21566 2.69447e-19)
(10.8127 4.09926 -1.05792e-18)
(10.9808 3.98595 1.05112e-18)
(11.1452 3.87551 -2.60326e-19)
(11.306 3.76774 -5.23505e-19)
(11.4633 3.6625 -7.73442e-19)
(11.6174 3.55964 2.55663e-19)
(11.7683 3.45896 0)
(11.9163 3.36037 1.25814e-19)
(12.0612 3.26365 -1.21319e-19)
(12.2033 3.16871 -4.94e-19)
(12.3425 3.07601 -2.4453e-19)
(12.4793 2.98503 -4.68444e-19)
(12.6088 2.86985 -8.58714e-19)
(8.399 14.3469 -4.07563e-20)
(7.80315 13.4784 -4.50358e-19)
(7.45174 12.655 -2.2464e-20)
(7.27083 11.8961 5.21929e-19)
(7.20694 11.205 -1.21512e-19)
(7.22397 10.5784 2.2878e-19)
(7.29714 10.0116 0)
(7.40957 9.49855 2.31873e-19)
(7.54932 9.03386 -2.23509e-19)
(7.70792 8.61227 3.32933e-19)
(7.87906 8.22886 -4.19229e-19)
(8.05798 7.87911 9.06112e-19)
(8.24125 7.55888 -8.77568e-19)
(8.42653 7.26456 9.00522e-20)
(8.61205 6.99293 6.33054e-19)
(8.79647 6.74115 -6.16269e-19)
(8.97887 6.50677 6.74581e-19)
(9.15871 6.28764 -1.39045e-18)
(9.33564 6.08198 7.15395e-19)
(9.50942 5.8882 1.3795e-18)
(9.67988 5.70499 -9.064e-19)
(9.84695 5.53116 -1.02099e-18)
(10.0107 5.36579 1.28865e-18)
(10.1712 5.20794 1.41169e-19)
(10.3284 5.05699 2.73923e-19)
(10.4825 4.91223 -1.36565e-19)
(10.6337 4.77316 -9.36507e-19)
(10.782 4.63928 1.06234e-18)
(10.9275 4.51013 0)
(11.0704 4.38532 -6.49644e-19)
(11.2107 4.26455 5.18575e-19)
(11.3486 4.14747 -3.8565e-19)
(11.484 4.03383 -2.5283e-19)
(11.6171 3.92339 7.67962e-19)
(11.748 3.81598 2.55365e-19)
(11.8767 3.71132 0)
(12.0034 3.60922 2.50511e-19)
(12.1282 3.50951 -6.22221e-19)
(12.2512 3.4119 1.57717e-19)
(12.3725 3.31621 -3.05636e-20)
(12.4921 3.22256 -2.41102e-19)
(12.6101 3.13044 7.04332e-19)
(12.7224 3.02074 1.496e-21)
(9.67865 13.5384 0)
(9.28022 12.9968 8.19195e-20)
(8.98747 12.4201 -2.67304e-19)
(8.78745 11.8387 5.35864e-19)
(8.66492 11.2717 -8.71342e-20)
(8.60541 10.7298 -1.96049e-19)
(8.59619 10.2191 0)
(8.6267 9.74151 9.43498e-20)
(8.68819 9.29738 -2.83149e-19)
(8.7734 8.88552 2.82208e-19)
(8.87653 8.50417 8.98614e-20)
(8.99285 8.15106 -9.32157e-20)
(9.11877 7.82393 -8.55414e-20)
(9.25133 7.52039 -8.78314e-20)
(9.38824 7.23818 -7.3813e-19)
(9.52776 6.97513 5.54978e-19)
(9.66868 6.72939 0)
(9.80989 6.49913 0)
(9.95072 6.28284 0)
(10.0906 6.07909 -1.47868e-19)
(10.229 5.88663 -1.44331e-19)
(10.3657 5.70443 1.36459e-19)
(10.5007 5.53153 -4.35635e-21)
(10.6337 5.36703 0)
(10.7649 5.21028 -1.33542e-19)
(10.8941 5.06046 0)
(11.0215 4.91705 3.80896e-19)
(11.1471 4.77946 -1.27502e-19)
(11.2708 4.64717 -1.00595e-18)
(11.3927 4.51976 3.77176e-19)
(11.5128 4.39685 6.19513e-19)
(11.6311 4.27807 -3.71506e-19)
(11.7477 4.16313 0)
(11.8626 4.05176 0)
(11.9759 3.94373 0)
(12.0876 3.83879 2.43612e-19)
(12.1978 3.73677 0)
(12.3066 3.63745 3.31681e-21)
(12.4143 3.54065 4.53037e-19)
(12.5209 3.44616 2.99684e-20)
(12.6263 3.35415 -2.37407e-19)
(12.7305 3.26478 -2.30465e-19)
(12.8306 3.16585 2.23505e-19)
(11.0856 12.6131 2.95053e-19)
(10.7235 12.1945 -7.97606e-20)
(10.4252 11.7479 -1.67899e-19)
(10.1906 11.2893 8.63788e-20)
(10.0153 10.831 0)
(9.8925 10.3825 2.9045e-21)
(9.8151 9.94978 9.02636e-20)
(9.77613 9.5367 -1.83349e-19)
(9.76914 9.14517 -9.13193e-20)
(9.78826 8.77612 9.01538e-20)
(9.8286 8.42929 -8.87715e-20)
(9.88573 8.1041 8.42501e-20)
(9.95624 7.7994 4.21333e-19)
(10.0372 7.51396 -2.46027e-19)
(10.1261 7.24633 8.06103e-20)
(10.2212 6.99518 0)
(10.3208 6.75908 0)
(10.4236 6.53673 1.4518e-19)
(10.5287 6.327 0)
(10.6351 6.12871 0)
(10.7422 5.94096 5.49371e-19)
(10.8495 5.76282 -6.75215e-19)
(10.9568 5.59353 -3.03077e-21)
(11.0638 5.43237 -1.28348e-19)
(11.1704 5.27863 -1.26473e-19)
(11.2764 5.13165 -5.04006e-19)
(11.3818 4.99089 3.76362e-19)
(11.4863 4.85579 1.24688e-19)
(11.5899 4.72595 0)
(11.6925 4.60092 1.22846e-19)
(11.7941 4.48038 -1.22201e-19)
(11.8946 4.36396 -1.19751e-19)
(11.9939 4.25142 -4.80796e-19)
(12.0921 4.14251 4.81994e-19)
(12.1891 4.03699 0)
(12.2851 3.93465 -2.14787e-21)
(12.3801 3.83535 -3.59081e-19)
(12.4743 3.73893 3.4445e-21)
(12.5677 3.64516 -1.19577e-19)
(12.6604 3.55395 0)
(12.7523 3.46542 -2.33436e-19)
(12.8432 3.37989 4.58019e-19)
(12.9309 3.28798 -1.36992e-21)
(11.781 12.0149 2.83498e-19)
(11.4593 11.6656 1.58202e-19)
(11.185 11.2905 5.03913e-21)
(10.9595 10.9008 -1.68091e-19)
(10.781 10.5058 0)
(10.646 10.1134 -8.29721e-20)
(10.5499 9.72959 -2.68811e-21)
(10.488 9.35843 -8.78876e-20)
(10.4555 9.00237 1.74464e-19)
(10.4479 8.66316 8.95737e-20)
(10.4609 8.34131 -8.40041e-20)
(10.4908 8.03698 -4.96839e-19)
(10.5346 7.74974 3.21659e-19)
(10.5898 7.47891 -3.96949e-19)
(10.6539 7.22358 3.07491e-19)
(10.7253 6.98281 -1.48761e-19)
(10.8022 6.75545 0)
(10.8832 6.54061 4.28585e-19)
(10.9674 6.33733 -5.60201e-19)
(11.0537 6.14472 0)
(11.1414 5.96206 0)
(11.2301 5.78856 0)
(11.3195 5.62366 -1.30686e-19)
(11.4094 5.46658 2.59108e-21)
(11.4995 5.31668 1.26483e-19)
(11.5897 5.17335 0)
(11.6798 5.03603 6.11091e-19)
(11.7694 4.9043 -4.84241e-19)
(11.8584 4.77773 -1.18991e-19)
(11.9468 4.65603 -1.18268e-19)
(12.0346 4.53876 -4.73744e-19)
(12.1215 4.42561 7.113e-19)
(12.2075 4.31639 -8.09511e-22)
(12.2926 4.21084 -3.5285e-19)
(12.3769 4.1087 -2.34785e-19)
(12.4603 4.00978 2.35459e-19)
(12.5429 3.914 -1.17124e-19)
(12.6249 3.8212 2.94731e-19)
(12.7064 3.73116 -4.38693e-20)
(12.7873 3.6437 -1.45096e-20)
(12.8675 3.55893 0)
(12.9468 3.4771 -1.12227e-19)
(13.0227 3.38884 1.08572e-19)
(12.3586 11.5278 -2.0535e-19)
(12.0599 11.2206 -6.83216e-20)
(11.7998 10.891 -2.34009e-19)
(11.5798 10.5465 -7.3653e-22)
(11.3991 10.1952 1.23892e-19)
(11.2556 9.84332 -3.97201e-20)
(11.1465 9.49648 0)
(11.0686 9.15827 0)
(11.0179 8.8313 -8.11802e-20)
(10.9908 8.51738 0)
(10.9835 8.21766 -2.47536e-19)
(10.993 7.93254 -2.41023e-19)
(11.0165 7.66201 3.14128e-19)
(11.0518 7.40582 3.09709e-19)
(11.0968 7.16331 -3.01109e-19)
(11.1497 6.93364 1.49147e-19)
(11.2087 6.71604 0)
(11.2724 6.50993 1.39547e-19)
(11.3399 6.31444 -1.36484e-19)
(11.41 6.12882 1.33597e-19)
(11.4819 5.95255 0)
(11.5554 5.78514 0)
(11.6302 5.62591 5.08574e-19)
(11.7063 5.4742 -3.74378e-19)
(11.7832 5.32922 -4.92504e-19)
(11.8606 5.1905 4.86633e-19)
(11.9381 5.05758 0)
(12.0155 4.9301 1.18087e-19)
(12.0926 4.80776 2.3596e-19)
(12.1693 4.69025 3.52108e-19)
(12.2457 4.57705 -6.01588e-22)
(12.3213 4.46788 -1.15698e-19)
(12.3962 4.3627 0)
(12.4705 4.26119 1.1637e-19)
(12.5442 4.163 0)
(12.617 4.06798 -1.15303e-19)
(12.6891 3.97621 1.15582e-19)
(12.7608 3.88745 1.15785e-19)
(12.8323 3.80137 -1.14316e-19)
(12.9033 3.71772 -2.85183e-20)
(12.9737 3.63641 1.97863e-19)
(13.0433 3.55736 5.72604e-20)
(13.1103 3.47152 -4.34798e-19)
(12.7755 11.1462 -6.70798e-20)
(12.4943 10.8673 7.45359e-20)
(12.2472 10.5684 0)
(12.035 10.2548 7.66109e-20)
(11.8566 9.93323 -8.06788e-20)
(11.7108 9.61029 8.10705e-20)
(11.5958 9.29063 1.26572e-21)
(11.51 8.97706 1.62541e-19)
(11.4494 8.67215 8.26098e-20)
(11.4109 8.37784 8.0139e-20)
(11.391 8.09572 0)
(11.3876 7.82622 2.96752e-21)
(11.3978 7.56961 -1.52669e-19)
(11.42 7.32587 -3.02804e-19)
(11.4522 7.09446 2.94641e-19)
(11.4928 6.87451 -1.4636e-19)
(11.5391 6.66558 5.65783e-19)
(11.5906 6.46765 -1.38918e-19)
(11.6463 6.27944 -1.33951e-19)
(11.7045 6.10027 -2.65438e-19)
(11.7645 5.93018 0)
(11.8266 5.76871 -2.55152e-19)
(11.8907 5.61518 5.01278e-19)
(11.9567 5.46862 -1.24203e-19)
(12.0238 5.32833 0)
(12.0914 5.19405 0)
(12.1593 5.06552 -1.17659e-19)
(12.227 4.94228 -2.34503e-19)
(12.2945 4.82434 -1.16989e-19)
(12.3619 4.71121 -1.14774e-19)
(12.4294 4.60208 -1.14175e-19)
(12.4958 4.49696 -2.28493e-19)
(12.5617 4.39608 2.28385e-19)
(12.6274 4.29874 -1.13262e-19)
(12.6924 4.20444 0)
(12.7564 4.11336 0)
(12.8196 4.02578 1.13134e-19)
(12.883 3.94121 -1.69725e-19)
(12.9461 3.85914 1.70534e-19)
(13.009 3.77946 0)
(13.0713 3.70209 -1.12577e-19)
(13.133 3.62709 1.11462e-19)
(13.1922 3.54829 0)
(13.1084 10.8334 0)
(12.8387 10.5754 -1.46782e-19)
(12.6022 10.2993 2.93727e-19)
(12.3975 10.0081 -7.61949e-20)
(12.2212 9.70706 6.04826e-20)
(12.0747 9.40654 1.94521e-20)
(11.9564 9.10805 0)
(11.8665 8.81289 -2.38156e-21)
(11.7992 8.52541 1.5687e-19)
(11.7528 8.24652 -1.55575e-19)
(11.7237 7.97923 0)
(11.7111 7.72249 5.35179e-22)
(11.7112 7.47772 4.49443e-19)
(11.7239 7.24459 1.47745e-19)
(11.7466 7.02254 -4.32164e-19)
(11.7777 6.81118 -1.46478e-21)
(11.8137 6.60997 0)
(11.8568 6.42059 0)
(11.9035 6.23836 1.34285e-19)
(11.9521 6.06492 -2.60909e-19)
(12.0027 5.90084 2.55725e-19)
(12.0562 5.74508 2.51229e-19)
(12.1124 5.59699 -2.46834e-19)
(12.171 5.45494 -2.42814e-19)
(12.2304 5.31878 1.18845e-19)
(12.2901 5.18877 0)
(12.3499 5.06447 1.45747e-21)
(12.4092 4.94505 1.16272e-19)
(12.4685 4.83189 2.29082e-19)
(12.5289 4.72303 -1.13383e-19)
(12.59 4.61779 1.13782e-19)
(12.6484 4.51671 0)
(12.707 4.42031 0)
(12.7663 4.32686 2.24343e-19)
(12.824 4.23602 0)
(12.8803 4.14883 1.11929e-19)
(12.9361 4.06559 -1.13192e-19)
(12.9928 3.98513 1.68394e-19)
(13.0489 3.90676 -1.67478e-19)
(13.1049 3.83098 0)
(13.1603 3.75756 5.54458e-20)
(13.2152 3.68649 -5.51374e-20)
(13.2676 3.61052 -1.11496e-19)
(13.393 10.5665 1.33234e-19)
(13.1244 10.3276 6.837e-20)
(12.896 10.068 6.92782e-20)
(12.6959 9.79681 1.42025e-19)
(12.5164 9.51047 1.49013e-19)
(12.3668 9.23336 0)
(12.2472 8.95045 1.55389e-19)
(12.1566 8.66612 -1.17408e-19)
(12.0841 8.39424 -1.94517e-19)
(12.0323 8.12642 7.74432e-20)
(11.9964 7.87375 7.54985e-20)
(11.9789 7.62608 0)
(11.9713 7.39197 -1.46638e-19)
(11.9781 7.16604 1.43773e-19)
(11.9941 6.95065 1.44606e-21)
(12.02 6.74803 0)
(12.0481 6.55454 0)
(12.0855 6.37606 0)
(12.1243 6.19331 1.29424e-19)
(12.1676 6.02795 -1.7627e-21)
(12.2111 5.86941 -1.28351e-19)
(12.2577 5.71818 2.5122e-19)
(12.308 5.57529 0)
(12.3612 5.43604 1.21248e-19)
(12.4136 5.30369 -3.51467e-22)
(12.4658 5.17766 -2.34722e-19)
(12.5184 5.05687 1.16652e-19)
(12.5699 4.94004 0)
(12.6237 4.83391 0)
(12.6803 4.72822 0)
(12.7359 4.62737 1.11059e-19)
(12.7847 4.52971 1.112e-19)
(12.8382 4.43807 -2.22363e-19)
(12.892 4.34765 -2.22368e-19)
(12.9425 4.25961 1.10797e-19)
(12.9921 4.17689 0)
(13.0403 4.09817 -2.26994e-19)
(13.0915 4.02143 0)
(13.1405 3.94607 9.49962e-22)
(13.1905 3.87446 1.13117e-19)
(13.2393 3.80474 0)
(13.2873 3.73733 0)
(13.3317 3.66448 1.0812e-19)
(-4.14753 -2.52589 -1.19168e-19)
(-4.1337 -2.53131 6.41349e-20)
(-4.10289 -2.53613 -3.28771e-20)
(-4.05612 -2.54085 2.59514e-20)
(-3.99427 -2.54525 4.37091e-20)
(-3.9183 -2.54917 -7.16574e-20)
(-3.82912 -2.55254 -7.30654e-20)
(-3.72768 -2.55527 3.72179e-20)
(-3.61488 -2.55728 7.75075e-20)
(-3.49165 -2.55854 -1.16777e-19)
(-3.35886 -2.55901 0)
(-3.21729 -2.55864 3.97511e-20)
(-3.06774 -2.55739 0)
(-2.91088 -2.55526 0)
(-2.74735 -2.55217 2.10008e-20)
(-2.57781 -2.5481 0)
(-2.40272 -2.54301 2.11067e-20)
(-2.22265 -2.53682 2.15592e-20)
(-2.03811 -2.52949 -1.12315e-21)
(-1.84937 -2.52102 2.26843e-20)
(-1.65686 -2.51134 2.03824e-19)
(-1.46085 -2.50045 -2.64479e-20)
(-1.26158 -2.4883 -1.3475e-20)
(-1.05941 -2.47492 -4.58806e-19)
(-0.854286 -2.46025 2.41951e-19)
(-0.646401 -2.44433 2.65911e-19)
(-0.436019 -2.42714 -2.81833e-19)
(-0.223199 -2.40852 -1.39872e-19)
(-0.00792789 -2.38841 1.68113e-19)
(0.209849 -2.36663 0)
(0.430473 -2.34293 1.69767e-19)
(0.654166 -2.31704 8.83423e-21)
(0.88145 -2.28844 -2.25472e-19)
(1.11317 -2.25633 3.97903e-20)
(1.35074 -2.21944 0)
(1.59686 -2.17565 1.37098e-21)
(1.85681 -2.12172 9.07031e-22)
(2.14181 -2.0527 -2.35738e-20)
(2.47676 -1.96183 1.18615e-19)
(2.92184 -1.83781 -8.55389e-20)
(3.62193 -1.66524 -1.51429e-20)
(4.9663 -1.44694 0)
(8.18289 -1.40191 -5.10652e-19)
(-4.15324 -2.5328 9.12833e-20)
(-4.13799 -2.53653 3.15472e-20)
(-4.10859 -2.54 4.95442e-22)
(-4.06576 -2.54325 2.97808e-20)
(-4.01012 -2.54615 -3.05463e-20)
(-3.94236 -2.54861 3.55498e-20)
(-3.86312 -2.55061 3.61713e-20)
(-3.77304 -2.55211 -3.67349e-20)
(-3.67273 -2.55306 -7.3408e-20)
(-3.56284 -2.55345 7.45264e-20)
(-3.44399 -2.55327 7.5054e-20)
(-3.31672 -2.55255 -1.90467e-19)
(-3.1815 -2.55128 9.61185e-20)
(-3.03883 -2.54949 -1.75724e-19)
(-2.88911 -2.54717 -4.06927e-20)
(-2.73273 -2.54431 3.22607e-19)
(-2.56997 -2.54085 -1.64575e-19)
(-2.40121 -2.53675 0)
(-2.22664 -2.53194 1.79818e-22)
(-2.04642 -2.52634 1.78221e-19)
(-1.8608 -2.51985 -1.84036e-19)
(-1.66983 -2.51233 2.4475e-20)
(-1.4736 -2.50365 0)
(-1.27218 -2.49368 0)
(-1.06551 -2.48221 9.46558e-20)
(-0.85346 -2.46899 -1.14188e-19)
(-0.635769 -2.45374 1.54571e-20)
(-0.411969 -2.43612 -1.43511e-19)
(-0.181706 -2.41569 1.18101e-19)
(0.0556895 -2.39189 0)
(0.301379 -2.36393 0)
(0.556976 -2.33075 8.19628e-20)
(0.824846 -2.29092 -4.40212e-20)
(1.10898 -2.24247 7.0961e-20)
(1.41581 -2.1827 -7.73106e-20)
(1.75568 -2.10804 -1.34852e-20)
(2.14583 -2.01371 4.51225e-20)
(2.61523 -1.89411 1.61389e-20)
(3.21498 -1.74411 1.58253e-20)
(4.04249 -1.56257 0)
(5.28355 -1.36707 1.38963e-19)
(7.29187 -1.23608 -1.63606e-19)
(10.7295 -1.38474 1.67674e-19)
(-4.15407 -2.53088 3.03361e-20)
(-4.13708 -2.53319 3.0822e-20)
(-4.10766 -2.53551 5.60078e-20)
(-4.0663 -2.53769 8.18502e-21)
(-4.01348 -2.53961 0)
(-3.9497 -2.54119 0)
(-3.87543 -2.54239 0)
(-3.79113 -2.54318 -3.51544e-20)
(-3.69724 -2.54349 0)
(-3.59424 -2.54328 3.62829e-20)
(-3.4826 -2.54249 0)
(-3.36273 -2.54112 0)
(-3.23503 -2.53918 -1.88584e-20)
(-3.0998 -2.53664 -5.84702e-20)
(-2.95736 -2.53351 9.81247e-20)
(-2.8079 -2.52973 0)
(-2.65159 -2.52527 0)
(-2.48863 -2.52005 2.10401e-20)
(-2.31907 -2.51398 2.13176e-20)
(-2.14293 -2.50692 -8.96657e-20)
(-1.9602 -2.49874 -2.24041e-22)
(-1.77079 -2.48926 -1.79372e-22)
(-1.57447 -2.47822 2.47422e-20)
(-1.37117 -2.46534 1.03802e-19)
(-1.16043 -2.4503 -1.08532e-19)
(-0.941751 -2.43268 1.13823e-19)
(-0.714562 -2.41202 1.19816e-19)
(-0.478099 -2.38775 3.0755e-20)
(-0.231112 -2.35903 1.60484e-20)
(0.0280695 -2.32496 -1.57591e-19)
(0.301678 -2.28438 9.20099e-20)
(0.592987 -2.23576 -7.84349e-20)
(0.906573 -2.17726 -1.02379e-19)
(1.24935 -2.10654 6.62067e-20)
(1.63132 -2.02081 -2.27791e-20)
(2.06729 -1.91693 -2.28966e-22)
(2.58044 -1.79177 0)
(3.2077 -1.64283 2.54065e-20)
(4.00922 -1.47101 -1.33498e-19)
(5.08239 -1.28727 -4.38425e-20)
(6.58265 -1.12699 1.16251e-19)
(8.74281 -1.0779 -2.13751e-20)
(11.8433 -1.32532 7.94977e-20)
(-4.15127 -2.52076 -2.97134e-20)
(-4.13292 -2.52202 -4.54936e-20)
(-4.10385 -2.52284 -2.38986e-20)
(-4.06426 -2.52342 7.9751e-21)
(-4.01449 -2.52367 -1.64574e-20)
(-3.9549 -2.52351 1.65758e-20)
(-3.88585 -2.52294 6.75993e-20)
(-3.80758 -2.52194 3.44594e-20)
(-3.72033 -2.52045 0)
(-3.62441 -2.51838 -7.07927e-20)
(-3.52016 -2.51565 1.72093e-20)
(-3.40786 -2.51222 5.41977e-20)
(-3.28781 -2.50811 0)
(-3.1602 -2.50332 0)
(-3.02512 -2.49784 -5.7538e-20)
(-2.88261 -2.49164 9.71344e-20)
(-2.73271 -2.48463 0)
(-2.57549 -2.47672 -1.1697e-22)
(-2.41084 -2.4678 0)
(-2.23858 -2.45772 8.67422e-20)
(-2.05852 -2.44633 -1.78867e-19)
(-1.87036 -2.43339 9.2466e-20)
(-1.67375 -2.41863 4.81331e-20)
(-1.46808 -2.40165 -9.99923e-20)
(-1.25271 -2.38203 0)
(-1.02689 -2.35921 -2.73022e-20)
(-0.789495 -2.33254 1.00056e-19)
(-0.539248 -2.30134 -1.20283e-19)
(-0.274281 -2.26462 4.70563e-20)
(0.00786321 -2.22119 -4.96733e-20)
(0.310129 -2.16983 -8.61891e-20)
(0.636916 -2.10889 1.26867e-19)
(0.99416 -2.03668 -1.22028e-21)
(1.39039 -1.95128 -6.0058e-20)
(1.83765 -1.85056 4.06143e-20)
(2.35361 -1.73251 -4.41078e-20)
(2.96451 -1.5958 6.70123e-22)
(3.70933 -1.44134 -2.278e-20)
(4.64595 -1.27553 6.64746e-20)
(5.86014 -1.11631 -8.86502e-20)
(7.47333 -1.00491 4.59024e-20)
(9.64201 -1.02187 3.44743e-20)
(12.5078 -1.30592 2.24157e-20)
(-4.14496 -2.50579 -2.78542e-20)
(-4.12565 -2.50583 2.99587e-20)
(-4.09682 -2.50502 -4.65594e-22)
(-4.05862 -2.50401 3.10142e-20)
(-4.01123 -2.50259 3.16236e-20)
(-3.95493 -2.50068 1.62949e-20)
(-3.89 -2.49828 -4.94889e-20)
(-3.81655 -2.49547 -3.35658e-20)
(-3.73457 -2.49218 3.39843e-20)
(-3.64417 -2.48826 -1.71057e-20)
(-3.54559 -2.48359 -6.96681e-20)
(-3.43905 -2.47806 5.28804e-20)
(-3.32478 -2.47167 0)
(-3.2029 -2.46443 7.33174e-20)
(-3.07338 -2.45638 -9.28997e-20)
(-2.93617 -2.44748 -3.79727e-20)
(-2.7911 -2.43761 7.80935e-20)
(-2.63808 -2.42665 -9.96354e-20)
(-2.47693 -2.41448 0)
(-2.30735 -2.40092 0)
(-2.12903 -2.38583 0)
(-1.94151 -2.36894 0)
(-1.74409 -2.34998 -7.03994e-20)
(-1.53595 -2.3286 9.7291e-20)
(-1.31624 -2.30419 0)
(-1.08387 -2.27624 -7.92905e-20)
(-0.837341 -2.24407 1.10621e-19)
(-0.574849 -2.20687 -1.44662e-20)
(-0.294142 -2.16368 0)
(0.0078314 -2.11325 -3.12885e-20)
(0.334801 -2.05424 -6.52035e-20)
(0.691677 -1.98522 1.02916e-19)
(1.08527 -1.90458 -1.76273e-20)
(1.52505 -1.81091 0)
(2.02438 -1.70285 -3.75484e-20)
(2.60226 -1.57972 1.21298e-22)
(3.28571 -1.44199 0)
(4.11327 -1.29282 3.08716e-20)
(5.13901 -1.14123 9.69443e-21)
(6.43633 -1.00867 -5.54375e-20)
(8.10266 -0.93675 9.08736e-21)
(10.2531 -0.997092 1.80698e-20)
(12.977 -1.29635 -1.67549e-20)
(-4.13571 -2.48707 0)
(-4.11582 -2.48623 -1.44349e-20)
(-4.08729 -2.48381 -3.00597e-20)
(-4.05033 -2.48125 -3.26131e-20)
(-4.00497 -2.47822 -4.47219e-20)
(-3.95146 -2.4746 0)
(-3.89006 -2.47039 1.58703e-20)
(-3.82085 -2.46572 -4.86677e-20)
(-3.74355 -2.46066 3.26971e-20)
(-3.65795 -2.45498 -2.43353e-22)
(-3.56428 -2.44843 5.09661e-20)
(-3.46258 -2.44091 -1.71442e-20)
(-3.35311 -2.4323 3.50563e-20)
(-3.23601 -2.42263 -3.54136e-20)
(-3.11127 -2.41197 1.80033e-20)
(-2.97856 -2.40038 1.86232e-20)
(-2.83752 -2.38775 0)
(-2.68798 -2.37383 -9.73305e-20)
(-2.52967 -2.35847 7.97223e-20)
(-2.36229 -2.3415 -8.25012e-20)
(-2.18528 -2.3228 8.47501e-20)
(-1.99807 -2.30205 6.61213e-20)