/*--------------------------------*- C++ -*----------------------------------*\
| =========                 |                                                 |
| \\      /  F ield         | OpenFOAM: The Open Source CFD Toolbox           |
|  \\    /   O peration     | Version:  2.3.0                                 |
|   \\  /    A nd           | Web:      www.OpenFOAM.org                      |
|    \\/     M anipulation  |                                                 |
\*---------------------------------------------------------------------------*/
FoamFile
{
    version     2.0;
    format      ascii;
    class       volScalarField;
    location    "10000";
    object      nuTilda;
}
// * * * * * * * * * * * * * * * * * * * * * * * * * * * * * * * * * * * * * //

dimensions      [0 2 -1 0 0 0 0];

internalField   nonuniform List<scalar> 
123907
(
0.0237081
0.0226444
0.0216195
0.0206343
0.01969
0.018786
0.0179141
0.0170686
0.0162501
0.01546
0.0146999
0.0139703
0.0132686
0.0125925
0.0119396
0.0113103
0.0107039
0.0101212
0.00956244
0.00902684
0.00851429
0.00802311
0.00755232
0.00710118
0.00666821
0.00625187
0.00585072
0.00546404
0.00508929
0.00472517
0.00436991
0.00402195
0.00368143
0.0033483
0.00302544
0.00271609
0.00242629
0.00216359
0.00193311
0.00173856
0.00158292
0.00147481
0.00145061
0.024844
0.0238837
0.0229528
0.0220491
0.0211727
0.0203228
0.0194976
0.0186962
0.0179191
0.017167
0.0164417
0.0157455
0.0150784
0.0144359
0.0138121
0.013205
0.0126142
0.0120418
0.011488
0.0109528
0.0104377
0.00994181
0.00946501
0.00900636
0.00856645
0.00814455
0.00774108
0.00735712
0.00699246
0.00664837
0.0063249
0.00602191
0.00574002
0.00547842
0.00523709
0.00501555
0.00481495
0.00463686
0.00448316
0.00436074
0.00428108
0.00426681
0.00437362
0.0259077
0.0250431
0.0242004
0.0233784
0.0225769
0.0217952
0.0210327
0.0202891
0.019565
0.01886
0.0181744
0.0175085
0.016862
0.016234
0.0156235
0.0150294
0.0144507
0.0138886
0.0133428
0.0128131
0.012301
0.0118069
0.0113298
0.0108706
0.0104281
0.0100014
0.00959125
0.00919778
0.00882169
0.00846573
0.00813201
0.00782349
0.00754384
0.00729492
0.007078
0.00689464
0.00674797
0.00664073
0.00657701
0.00656119
0.00659784
0.00668894
0.00683647
0.0268949
0.0261155
0.0253527
0.024606
0.0238747
0.0231589
0.0224577
0.021772
0.0211015
0.0204455
0.0198043
0.0191785
0.0185681
0.0179724
0.017391
0.0168238
0.0162712
0.0157327
0.0152077
0.0146966
0.0142
0.0137178
0.0132505
0.0127988
0.0123637
0.0119447
0.0115434
0.0111603
0.0107968
0.0104546
0.0101354
0.009841
0.00957483
0.00933818
0.00913423
0.00896455
0.00883342
0.00874238
0.00869471
0.00869336
0.00874088
0.008838
0.00898465
0.027806
0.0271014
0.0264098
0.0257301
0.0250623
0.0244055
0.0237604
0.0231275
0.0225059
0.0218951
0.0212956
0.0207079
0.0201327
0.0195693
0.0190176
0.0184778
0.0179503
0.0174355
0.0169327
0.016442
0.0159638
0.0154973
0.0150442
0.0146049
0.0141791
0.0137695
0.0133766
0.0130021
0.0126465
0.0123118
0.0119995
0.0117117
0.0114509
0.0112195
0.0110202
0.0108551
0.0107273
0.0106394
0.0105948
0.0105952
0.0106419
0.0107367
0.0108791
0.0286412
0.0280039
0.0273752
0.0267549
0.0261432
0.0255394
0.0249442
0.0243578
0.0237792
0.0232089
0.0226468
0.0220943
0.0215503
0.0210157
0.0204905
0.0199748
0.0194697
0.0189753
0.0184918
0.018019
0.0175578
0.0171071
0.0166674
0.016239
0.0158227
0.015421
0.015035
0.014666
0.0143159
0.0139854
0.0136775
0.0133931
0.0131344
0.0129046
0.0127059
0.0125421
0.0124146
0.0123265
0.0122806
0.0122793
0.0123238
0.012415
0.0125533
0.0294069
0.0288284
0.0282549
0.0276869
0.0271248
0.0265676
0.0260161
0.0254709
0.0249306
0.0243961
0.023867
0.0233447
0.0228291
0.0223203
0.0218176
0.0213224
0.0208366
0.0203598
0.0198913
0.0194328
0.0189858
0.0185494
0.018123
0.0177051
0.0172976
0.0169025
0.0165212
0.016156
0.0158095
0.0154826
0.015177
0.0148946
0.014637
0.0144075
0.0142079
0.0140429
0.0139146
0.0138251
0.0137768
0.0137728
0.0138144
0.0139026
0.0140377
0.0301107
0.0295813
0.0290551
0.0285326
0.0280146
0.027499
0.0269848
0.0264767
0.0259693
0.0254673
0.0249672
0.0244696
0.0239793
0.0234944
0.0230122
0.0225338
0.0220641
0.0216024
0.0211467
0.0206976
0.0202619
0.0198367
0.0194225
0.019017
0.0186182
0.0182273
0.0178503
0.017488
0.0171438
0.0168192
0.0165154
0.0162345
0.0159777
0.0157473
0.0155468
0.0153801
0.01525
0.0151582
0.0151076
0.0151015
0.0151402
0.0152255
0.0153575
0.0307603
0.0302687
0.0297823
0.0292986
0.0288183
0.0283425
0.027856
0.0273863
0.0269031
0.0264311
0.0259593
0.0254797
0.0250093
0.0245461
0.0240873
0.0236213
0.0231617
0.0227122
0.022274
0.0218262
0.0213969
0.0209765
0.0205713
0.020179
0.0197934
0.0194062
0.0190341
0.018674
0.0183307
0.0180068
0.0177049
0.0174264
0.0171722
0.0169417
0.0167396
0.0165709
0.0164406
0.0163454
0.0162931
0.016285
0.0163227
0.0164038
0.0165324
0.00172786
0.00228318
0.00270826
0.00315612
0.00363839
0.00415049
0.00468747
0.00524495
0.00581936
0.00640947
0.00701423
0.00763116
0.00826121
0.00890322
0.00955742
0.0102235
0.0109014
0.0115924
0.0122955
0.0130109
0.0137389
0.0144801
0.0152339
0.016001
0.0167817
0.0175758
0.018384
0.0192063
0.0200432
0.0208946
0.021761
0.0226422
0.0235389
0.0244509
0.0253787
0.0263221
0.0272813
0.0282564
0.0292473
0.0302541
0.0312764
0.0323136
0.0333666
0.00458615
0.00487169
0.00520942
0.00559521
0.00602466
0.00649248
0.0069935
0.00752308
0.00807614
0.00864996
0.00924131
0.00984815
0.0104694
0.0111031
0.0117485
0.0124048
0.0130716
0.013748
0.0144337
0.0151297
0.0158354
0.0165501
0.0172748
0.0180093
0.0187542
0.0195091
0.0202744
0.0210503
0.0218371
0.0226349
0.0234435
0.0242639
0.0250955
0.0259391
0.0267948
0.0276626
0.0285427
0.0294353
0.0303403
0.031258
0.0321883
0.0331309
0.0340857
0.00703671
0.00728856
0.00759361
0.00794678
0.00834343
0.00878
0.00925181
0.00975362
0.0102816
0.0108326
0.0114023
0.0119895
0.012591
0.0132059
0.0138321
0.0144687
0.0151143
0.0157691
0.0164326
0.0171036
0.0177823
0.0184688
0.0191626
0.0198643
0.0205731
0.0212894
0.0220136
0.0227455
0.0234854
0.024233
0.0249889
0.0257532
0.0265259
0.0273073
0.0280979
0.0288976
0.0297067
0.0305253
0.0313535
0.0321916
0.0330394
0.0338977
0.0347655
0.00917826
0.00942004
0.00971123
0.0100479
0.0104268
0.0108442
0.0112968
0.0117793
0.0122892
0.0128221
0.0133744
0.013944
0.0145284
0.0151254
0.0157341
0.016352
0.0169787
0.0176129
0.0182544
0.0189022
0.0195567
0.0202164
0.020882
0.0215529
0.0222291
0.0229106
0.0235976
0.0242897
0.0249872
0.0256904
0.0263989
0.0271132
0.0278334
0.0285597
0.0292923
0.0300315
0.0307772
0.03153
0.0322895
0.0330562
0.0338305
0.0346128
0.0354081
0.0110676
0.0113032
0.0115855
0.0119122
0.0122802
0.0126863
0.013126
0.0135955
0.0140923
0.0146118
0.0151505
0.015706
0.016276
0.0168584
0.017451
0.018053
0.0186625
0.0192789
0.0199008
0.0205284
0.0211606
0.021797
0.0224371
0.0230809
0.0237283
0.0243786
0.0250326
0.0256899
0.0263501
0.0270137
0.0276803
0.0283504
0.0290244
0.0297018
0.0303832
0.0310689
0.0317586
0.0324528
0.0331514
0.0338546
0.0345628
0.0352762
0.0359967
0.0127382
0.0129691
0.0132455
0.0135655
0.0139269
0.0143251
0.014756
0.0152166
0.0157031
0.0162124
0.0167404
0.0172847
0.017843
0.0184127
0.0189926
0.0195805
0.0201757
0.0207764
0.021382
0.0219916
0.022605
0.0232206
0.0238382
0.0244585
0.0250804
0.0257039
0.0263289
0.0269555
0.0275832
0.028212
0.0288418
0.029473
0.0301058
0.0307405
0.031377
0.0320155
0.032656
0.0332982
0.0339429
0.0345897
0.0352391
0.0358912
0.0365473
0.0142193
0.0144466
0.0147188
0.0150349
0.0153905
0.0157826
0.0162077
0.0166617
0.0171409
0.0176417
0.0181615
0.0186968
0.0192454
0.0198053
0.020374
0.0209501
0.0215325
0.02212
0.0227114
0.023306
0.0239025
0.0245
0.0250986
0.025698
0.0262982
0.026898
0.0274978
0.0280979
0.0286971
0.0292952
0.0298924
0.0304891
0.0310861
0.0316834
0.0322808
0.0328782
0.0334749
0.0340713
0.0346681
0.0352649
0.0358619
0.0364597
0.0370584
0.0155361
0.0157603
0.0160288
0.0163416
0.0166931
0.0170811
0.0175017
0.0179512
0.0184249
0.0189196
0.0194319
0.0199589
0.0204996
0.021052
0.0216114
0.022177
0.0227481
0.023324
0.0239041
0.0244858
0.0250677
0.0256492
0.0262309
0.0268125
0.027394
0.0279734
0.0285509
0.0291282
0.0297026
0.030274
0.0308411
0.0314081
0.031974
0.0325384
0.033102
0.0336635
0.0342211
0.0347767
0.0353317
0.035884
0.0364341
0.036983
0.0375298
0.0167125
0.0169322
0.0171936
0.0175058
0.0178542
0.0182396
0.0186571
0.0191028
0.0195728
0.0200634
0.0205675
0.0210856
0.0216213
0.0221694
0.0227184
0.0232733
0.0238346
0.0244021
0.0249746
0.0255436
0.0261116
0.0266789
0.0272461
0.0278131
0.0283805
0.0289395
0.0294977
0.0300587
0.0306087
0.0311561
0.0316931
0.032239
0.032777
0.0333127
0.0338475
0.0343781
0.0348988
0.0354191
0.0359387
0.0364508
0.0369594
0.0374648
0.0379623
0.033805
0.0324993
0.0312183
0.0299596
0.0287226
0.0275071
0.0263139
0.0251436
0.0239961
0.0228717
0.021771
0.0206948
0.019643
0.018616
0.017614
0.0166376
0.0156868
0.014762
0.0138632
0.0129904
0.0121439
0.0113236
0.0105297
0.00976211
0.00902083
0.00830591
0.00761731
0.00695498
0.00631907
0.00570958
0.00512679
0.0045708
0.00404214
0.00354114
0.00306857
0.00262522
0.00221247
0.00183158
0.00148393
0.00117562
0.000934668
0.000689473
0.000395536
0.0344955
0.0333158
0.0321527
0.0310046
0.029872
0.0287551
0.027654
0.0265687
0.0254994
0.0244468
0.0234117
0.0223936
0.0213927
0.0204096
0.0194443
0.0184972
0.0175681
0.0166578
0.0157663
0.0148941
0.0140414
0.0132086
0.012396
0.011604
0.0108327
0.0100826
0.00935407
0.00864747
0.00796347
0.00730256
0.00666549
0.00605318
0.00546662
0.00490733
0.00437691
0.00387719
0.00341228
0.00299667
0.00261332
0.0022221
0.00181126
0.00135815
0.000817502
0.0351885
0.0341206
0.0330635
0.0320163
0.03098
0.0299539
0.0289377
0.0279321
0.0269374
0.0259545
0.0249831
0.0240228
0.0230742
0.0221373
0.0212132
0.0203009
0.0194009
0.0185137
0.0176394
0.0167784
0.0159314
0.0150988
0.0142813
0.013479
0.0126928
0.0119234
0.0111713
0.0104376
0.00972313
0.00902902
0.00835666
0.00770757
0.00708341
0.00648704
0.00592572
0.00540405
0.00489608
0.00438359
0.00385619
0.00329996
0.0026971
0.002021
0.00124004
0.0358753
0.034907
0.0339454
0.0329901
0.0320411
0.0310979
0.0301603
0.0292286
0.0283034
0.0273853
0.026474
0.0255695
0.0246715
0.0237813
0.0228988
0.0220229
0.0211547
0.0202942
0.0194419
0.018598
0.0177627
0.0169373
0.0161225
0.0153187
0.0145268
0.0137481
0.0129841
0.0122352
0.0115033
0.0107898
0.0100972
0.0094294
0.00878918
0.00816977
0.00755951
0.00694948
0.00632987
0.00568974
0.00501738
0.00429872
0.00351499
0.00263841
0.00164717
0.0365486
0.035669
0.0347937
0.0339213
0.0330515
0.0321842
0.031318
0.0304538
0.0295922
0.0287334
0.0278778
0.0270256
0.0261767
0.0253315
0.0244894
0.0236501
0.0228144
0.0219825
0.0211548
0.0203312
0.0195118
0.0186979
0.0178906
0.0170909
0.0162995
0.0155186
0.01475
0.0139952
0.0132553
0.0125321
0.0118246
0.0111292
0.0104412
0.00975504
0.00906317
0.00835752
0.00762938
0.00686866
0.00606321
0.00519801
0.00425348
0.00320258
0.00203038
0.037201
0.0364014
0.0356038
0.0348059
0.0340082
0.0332091
0.0324083
0.0316055
0.0308009
0.0299956
0.0291912
0.0283874
0.0275843
0.026782
0.025979
0.0251753
0.0243717
0.0235685
0.0227657
0.021964
0.021163
0.0203634
0.0195664
0.0187733
0.0179853
0.0172052
0.0164339
0.0156709
0.0149158
0.014168
0.0134248
0.0126825
0.0119366
0.0111814
0.0104111
0.00961736
0.00879128
0.00792216
0.00699786
0.00600267
0.00491666
0.00371408
0.00238534
0.0378289
0.0370999
0.0363709
0.0356407
0.0349077
0.034171
0.0334286
0.0326809
0.0319273
0.0311702
0.0304116
0.0296514
0.0288901
0.0281272
0.0273616
0.0265918
0.0258187
0.025042
0.0242633
0.0234831
0.0226995
0.0219133
0.021125
0.0203351
0.0195467
0.0187622
0.0179804
0.0172007
0.0164225
0.0156437
0.0148609
0.0140712
0.0132699
0.0124528
0.0116127
0.0107408
0.00982774
0.0088627
0.00783278
0.00672242
0.00551168
0.00417572
0.00271036
0.0384234
0.0377594
0.0370928
0.0364213
0.0357475
0.0350665
0.0343768
0.0336784
0.0329695
0.0322529
0.0315338
0.030814
0.0300908
0.0293629
0.0286322
0.0278937
0.0271459
0.0263922
0.0256345
0.0248734
0.0241038
0.0233265
0.0225414
0.0217495
0.0209546
0.0201627
0.0193693
0.0185711
0.0177685
0.0169594
0.0161399
0.0153065
0.0144554
0.0135837
0.0126838
0.0117444
0.0107551
0.00970436
0.0085803
0.00736793
0.00604665
0.00459239
0.0030066
0.0389836
0.0383779
0.0377646
0.0371437
0.036523
0.0358926
0.0352501
0.0345962
0.0339266
0.0332406
0.0325507
0.0318682
0.0311829
0.0304876
0.0297877
0.0290812
0.0283489
0.027614
0.0268707
0.0261294
0.0253763
0.0246025
0.0238166
0.0230171
0.0222004
0.0214072
0.0206066
0.0197899
0.0189631
0.0181295
0.0172774
0.0164041
0.0155082
0.0145868
0.0136378
0.0126461
0.0115884
0.010458
0.00924986
0.00794854
0.00653176
0.00497226
0.0032681
0.000169331
0.000217518
0.000288849
0.000375891
0.000484157
0.000618605
0.000775926
0.000949786
0.00113904
0.00134331
0.00156251
0.0017967
0.00204604
0.00231072
0.00259098
0.00288705
0.00319932
0.00352813
0.00387375
0.00423654
0.00461693
0.00501517
0.00543166
0.00586671
0.00632067
0.00679381
0.00728635
0.00779855
0.00833044
0.00888215
0.00945362
0.0100446
0.0106549
0.011284
0.0119311
0.0125953
0.0132753
0.0139695
0.0146758
0.0153919
0.0161144
0.0168397
0.0175632
0.00033571
0.000290585
0.000385999
0.000510783
0.000659658
0.000830566
0.00102392
0.00123313
0.00145739
0.0016963
0.00194962
0.00221717
0.00249897
0.00279495
0.00310512
0.00342963
0.0037685
0.00412199
0.00449017
0.00487317
0.00527121
0.0056844
0.00611296
0.00655699
0.00701673
0.00749222
0.00798352
0.00849067
0.00901366
0.00955236
0.0101066
0.010676
0.0112603
0.0118587
0.0124706
0.0130949
0.0137305
0.0143757
0.0150289
0.0156876
0.0163492
0.0170103
0.0176662
0.000531077
0.00038091
0.000505507
0.00066895
0.000855073
0.00106128
0.00128891
0.00153197
0.00178962
0.00206133
0.00234675
0.00264556
0.00295749
0.00328237
0.0036201
0.0039705
0.00433358
0.00470922
0.00509746
0.00549825
0.00591161
0.0063375
0.00677594
0.00722695
0.00769043
0.00816639
0.00865476
0.00915538
0.00966808
0.0101926
0.0107287
0.0112759
0.0118337
0.0124014
0.0129783
0.0135634
0.0141555
0.0147533
0.0153551
0.015959
0.0165625
0.017163
0.0177583
0.000738968
0.000486429
0.000637517
0.000836156
0.00105551
0.00129543
0.00155499
0.00182945
0.00211795
0.00241985
0.00273461
0.00306172
0.00340088
0.0037517
0.00411388
0.00448717
0.00487139
0.00526629
0.0056717
0.00608749
0.00651351
0.00694958
0.00739554
0.00785131
0.00831668
0.00879147
0.00927547
0.00976845
0.0102701
0.01078
0.0112979
0.0118232
0.0123554
0.0128938
0.0134376
0.0139859
0.0145376
0.0150914
0.015646
0.0161995
0.0167499
0.0172947
0.0178306
0.000949876
0.000602688
0.0007742
0.00100408
0.00125363
0.00152531
0.00181433
0.00211772
0.00243449
0.00276387
0.00310523
0.00345793
0.00382146
0.00419539
0.00457925
0.00497266
0.00537532
0.00578687
0.00620693
0.00663529
0.00707166
0.0075158
0.00796736
0.00842614
0.00889188
0.00936423
0.00984292
0.0103276
0.0108178
0.0113132
0.0118133
0.0123176
0.0128255
0.0133363
0.0138492
0.0143635
0.014878
0.0153917
0.0159033
0.0164113
0.016914
0.0174094
0.017896
0.00115699
0.000724709
0.000910401
0.0011685
0.00144647
0.00174668
0.00206275
0.00239261
0.00273515
0.00308951
0.00345487
0.00383058
0.00421599
0.00461053
0.0050136
0.00542475
0.00584349
0.00626938
0.00670199
0.00714091
0.00758577
0.00803619
0.00849187
0.00895235
0.00941735
0.00988644
0.0103592
0.0108352
0.011314
0.0117952
0.0122782
0.0127625
0.0132475
0.0137327
0.0142171
0.0147
0.0151806
0.0156578
0.0161307
0.0165978
0.0170578
0.017509
0.0179493
0.00135533
0.000848272
0.00104351
0.00132698
0.00163132
0.00195711
0.00229792
0.0026519
0.00301786
0.00339484
0.00378195
0.0041784
0.00458343
0.00499636
0.00541655
0.00584337
0.00627627
0.00671455
0.00715785
0.00760563
0.00805744
0.00851281
0.00897135
0.00943263
0.00989615
0.0103614
0.0108279
0.0112952
0.0117627
0.0122299
0.0126964
0.0131619
0.0136257
0.0140872
0.0145454
0.0149995
0.015449
0.0158934
0.0163316
0.0167623
0.0171845
0.0175969
0.0179989
0.00154391
0.000969936
0.00116894
0.00147559
0.00180535
0.00215512
0.00251872
0.00289463
0.00328202
0.00367983
0.00408685
0.004502
0.00492468
0.00535425
0.00578995
0.00623085
0.00667602
0.00712504
0.00757745
0.00803253
0.00848983
0.00894905
0.00940961
0.00987106
0.0103328
0.0107938
0.0112537
0.0117121
0.0121683
0.0126216
0.013072
0.0135197
0.0139645
0.0144047
0.0148383
0.0152654
0.0156868
0.0161017
0.0165094
0.016908
0.0172964
0.0176742
0.0180407
0.00169329
0.00108254
0.0013037
0.00163318
0.00198593
0.00235044
0.00272872
0.00312328
0.00353281
0.0039516
0.00437649
0.0048067
0.00524508
0.00569018
0.00614088
0.00659437
0.00704886
0.0075065
0.00796645
0.00842663
0.00888776
0.00935004
0.00981193
0.0102737
0.0107339
0.0111895
0.0116421
0.0120918
0.0125359
0.0129735
0.0134077
0.0138396
0.0142694
0.0146909
0.0150998
0.0154998
0.0158962
0.0162855
0.016668
0.0170382
0.0173959
0.0177426
0.0180769
4.87466e-05
0.000180231
0.000403684
0.000711608
0.00102389
0.00132969
0.00163129
0.0019282
0.00222352
0.00252132
0.00282409
0.00313337
0.00345186
0.00377947
0.00411704
0.00446516
0.00482515
0.00519832
0.00558594
0.00599005
0.00641234
0.00685481
0.00731886
0.00780612
0.00831882
0.00885776
0.00942407
0.0100185
0.0106414
0.011293
0.011973
0.0126824
0.0134216
0.0141923
0.0149949
0.0158284
0.0166908
0.01758
0.0184978
0.0194527
0.0204581
0.0215147
0.0226192
2.83887e-05
0.000114935
0.000245635
0.000426621
0.000658253
0.000943097
0.00126897
0.0015977
0.00192777
0.00225859
0.00258686
0.00291133
0.00323155
0.00354987
0.00386876
0.00419091
0.00451849
0.00485373
0.00519938
0.00555773
0.00593159
0.0063235
0.00673631
0.00717283
0.00763561
0.00812677
0.00864857
0.00920245
0.0097896
0.0104106
0.0110656
0.0117553
0.0124795
0.0132387
0.0140331
0.0148617
0.0157228
0.0166152
0.0175385
0.0184971
0.0194973
0.0205435
0.0216457
2.73028e-05
9.23307e-05
0.000185272
0.000317837
0.000488491
0.000700241
0.000953829
0.00124925
0.0015882
0.00196323
0.00233632
0.00270199
0.00306034
0.00341218
0.00375844
0.00409961
0.00443715
0.004773
0.00510929
0.0054486
0.00579387
0.00614844
0.00651614
0.00690088
0.00730683
0.00773801
0.00819824
0.00869092
0.00921887
0.00978448
0.0103893
0.0110343
0.0117202
0.0124469
0.0132145
0.0140221
0.0148681
0.0157511
0.0166703
0.0176268
0.0186236
0.0196637
0.0207477
3.03366e-05
8.47602e-05
0.000170182
0.000284507
0.000430321
0.000609917
0.0008255
0.00107819
0.0013698
0.00170246
0.00207736
0.00246775
0.0028572
0.00324159
0.00362007
0.00399261
0.00435963
0.00472133
0.00507821
0.00543134
0.00578217
0.00613289
0.00648621
0.00684594
0.0072162
0.0076019
0.00800817
0.00844034
0.00890341
0.00940246
0.00994105
0.0105227
0.0111495
0.011823
0.0125438
0.0133116
0.0141253
0.014983
0.0158839
0.0168275
0.0178145
0.018845
0.0199173
2.90257e-05
8.50486e-05
0.000161198
0.000261525
0.000393021
0.000554314
0.00074758
0.000974237
0.00123547
0.00153299
0.00186883
0.00224514
0.00265067
0.00306048
0.00346658
0.00386725
0.00426221
0.00465129
0.00503463
0.00541231
0.00578467
0.00615229
0.00651637
0.00687867
0.00724206
0.00761011
0.00798735
0.00837932
0.00879214
0.00923207
0.00970549
0.0102184
0.0107757
0.0113817
0.012039
0.012749
0.013512
0.0143273
0.0151939
0.0161102
0.0170758
0.0180903
0.0191532
2.92671e-05
8.37289e-05
0.000156847
0.000248328
0.00037041
0.000519856
0.000698351
0.000907822
0.00114889
0.00142323
0.00173306
0.00208067
0.00246796
0.00288489
0.0033096
0.00373266
0.00415147
0.00456521
0.00497335
0.0053758
0.00577246
0.0061631
0.00654782
0.00692724
0.00730228
0.00767484
0.00804776
0.00842485
0.00881132
0.00921326
0.00963764
0.010092
0.0105836
0.0111195
0.0117056
0.012346
0.0130439
0.0138006
0.0146162
0.0154896
0.0164203
0.0174073
0.0184507
2.92208e-05
8.45882e-05
0.00015587
0.000238934
0.000354087
0.000495306
0.000663453
0.000860807
0.00108778
0.00134577
0.00163673
0.00196281
0.00232625
0.00272899
0.00315935
0.00359789
0.00403621
0.00447085
0.00490088
0.00532583
0.00574532
0.0061588
0.00656608
0.00696675
0.00736107
0.00774942
0.00813303
0.00851394
0.00889541
0.0092819
0.00967927
0.0100946
0.0105359
0.0110118
0.0115304
0.0120996
0.0127255
0.0134126
0.0141636
0.0149797
0.0158609
0.0168069
0.0178166
2.93562e-05
8.4696e-05
0.00015446
0.000232523
0.000342602
0.000477752
0.000638428
0.00082664
0.00104313
0.00128889
0.0015658
0.0018758
0.00222128
0.00260449
0.00302545
0.0034699
0.00392175
0.0043736
0.00482237
0.00526719
0.00570722
0.00614193
0.00657066
0.00699293
0.00740826
0.00781638
0.00821745
0.0086122
0.00900216
0.00938991
0.00977941
0.0101761
0.0105869
0.0110202
0.0114851
0.0119914
0.0125477
0.0131625
0.0138417
0.0145896
0.0154088
0.0163
0.0172648
2.94843e-05
8.5284e-05
0.000153965
0.000228218
0.000333993
0.000464452
0.000619465
0.000800658
0.00100908
0.0012456
0.00151171
0.00180936
0.00214067
0.00250791
0.0029133
0.00335351
0.00381243
0.00427707
0.00474173
0.00520382
0.00566213
0.00611599
0.0065645
0.0070071
0.007443
0.00787154
0.00829226
0.00870515
0.00911039
0.00950922
0.0099038
0.0102977
0.0106958
0.0111051
0.0115339
0.0119919
0.0124898
0.0130377
0.0136454
0.0143207
0.0150693
0.0158953
0.0168019
2.97206e-05
8.58667e-05
0.000153756
0.000225582
0.000327545
0.000454237
0.000604795
0.000780421
0.000982573
0.0012118
0.00146941
0.00175725
0.00207726
0.00243187
0.00282321
0.00325262
0.00371134
0.0041842
0.00466135
0.00513828
0.00561293
0.00608379
0.00655035
0.00701177
0.00746695
0.00791529
0.00835581
0.00878795
0.00921145
0.00962625
0.0100333
0.0104346
0.0108331
0.0112337
0.0116432
0.01207
0.0125243
0.0130174
0.013561
0.014166
0.0148418
0.0155964
0.0164367
2.9953e-05
8.65754e-05
0.000153964
0.000224135
0.000322708
0.000446306
0.000593193
0.000764458
0.000961573
0.00118491
0.00143573
0.00171562
0.00202659
0.00237076
0.00275054
0.00316787
0.00362093
0.00409684
0.00458312
0.0050725
0.00556134
0.00604779
0.00653077
0.00700922
0.00748243
0.00794924
0.00840885
0.00886019
0.00930255
0.00973544
0.0101587
0.0105732
0.0109804
0.0113834
0.0117868
0.0121974
0.012624
0.013077
0.0135687
0.0141117
0.0147186
0.0154005
0.0161673
3.02245e-05
8.73201e-05
0.000154346
0.000223395
0.000318995
0.000440076
0.000584093
0.000751763
0.000944743
0.00116326
0.00140848
0.00168186
0.00198537
0.00232103
0.00269106
0.00309774
0.00354207
0.00401682
0.00450862
0.0050078
0.00550905
0.00600936
0.00650725
0.0070015
0.00749127
0.00797538
0.00845286
0.00892273
0.0093837
0.00983511
0.0102762
0.0107068
0.0111276
0.0115399
0.0119468
0.012353
0.0127653
0.0131927
0.0136466
0.0141398
0.0146862
0.0152998
0.0159939
3.05064e-05
8.81106e-05
0.00015483
0.000223059
0.000316187
0.000435192
0.000576858
0.000741645
0.00093113
0.00114569
0.00138626
0.00165425
0.00195152
0.00228005
0.00264188
0.00303948
0.00347461
0.0039449
0.00443885
0.00494533
0.00545697
0.00596976
0.00648115
0.00698997
0.007495
0.00799523
0.0084896
0.00897688
0.00945592
0.00992552
0.0103847
0.0108329
0.0112696
0.0116954
0.0121119
0.012522
0.0129308
0.013345
0.0137744
0.014231
0.0147287
0.0152831
0.0159099
3.07947e-05
8.88616e-05
0.000155337
0.000222934
0.00031397
0.000431299
0.000570998
0.000733414
0.000920047
0.0011313
0.00136796
0.00163145
0.00192351
0.00224596
0.00260097
0.00299067
0.00341747
0.00388134
0.00437469
0.004886
0.00540616
0.00592964
0.00645352
0.00697576
0.00749503
0.00801026
0.00852038
0.00902413
0.00952024
0.0100075
0.0104846
0.0109504
0.0114043
0.0118459
0.0122757
0.0126953
0.0131079
0.0135187
0.0139352
0.0143677
0.0148293
0.0153353
0.0159036
3.10663e-05
8.95986e-05
0.000155857
0.000222998
0.000312258
0.000428166
0.000566266
0.000726724
0.000910935
0.00111941
0.00135282
0.00161246
0.00190007
0.00221747
0.00256659
0.00294966
0.00336911
0.00382592
0.00431658
0.00483036
0.005357
0.00589
0.00642506
0.00695968
0.00749223
0.00802153
0.00854645
0.00906573
0.00957808
0.0100821
0.0105765
0.01106
0.0115313
0.0119896
0.0124348
0.0128673
0.0132891
0.0137034
0.0141161
0.0145353
0.0149724
0.0154417
0.0159607
3.13665e-05
9.0303e-05
0.000156383
0.000223134
0.000310936
0.000425649
0.000562409
0.000721239
0.000903453
0.00110953
0.0013402
0.00159667
0.00188054
0.00219355
0.00253757
0.00291499
0.00332786
0.00377812
0.00426454
0.00477875
0.00531036
0.00585134
0.00639633
0.00694235
0.00748742
0.00802997
0.00856883
0.00910278
0.00963049
0.0101506
0.0106616
0.0111621
0.0116507
0.0121262
0.0125877
0.0130353
0.0134694
0.0138923
0.0143078
0.0147223
0.015145
0.0155885
0.0160687
3.16326e-05
9.10221e-05
0.000156931
0.000223352
0.000309917
0.000423644
0.000559271
0.000716795
0.000897255
0.00110137
0.0013297
0.00158344
0.00186405
0.00217332
0.00251301
0.00288547
0.00329273
0.00373693
0.00421848
0.00473163
0.00526643
0.00581385
0.00636785
0.0069245
0.00748112
0.00803622
0.00858831
0.00913615
0.00967847
0.0102138
0.0107407
0.0112577
0.0117632
0.0122557
0.0127341
0.0131976
0.0136463
0.0140808
0.014504
0.0149202
0.0153367
0.0157639
0.0162153
3.19155e-05
9.16996e-05
0.000157435
0.000223625
0.000309135
0.000422034
0.000556763
0.000713077
0.000892152
0.00109457
0.00132091
0.00157226
0.00185019
0.00215615
0.00249218
0.00286028
0.0032626
0.00370144
0.00417793
0.00468879
0.00522538
0.00577811
0.00633997
0.00690621
0.00747392
0.00804078
0.00860547
0.00916657
0.00972272
0.0102727
0.0108149
0.0113476
0.0118695
0.0123787
0.012874
0.013354
0.0138182
0.0142666
0.0147007
0.0151234
0.01554
0.0159586
0.0163901
3.21819e-05
9.23587e-05
0.000157949
0.000223905
0.000308555
0.000420738
0.000554702
0.000710073
0.000887895
0.00108889
0.00131353
0.00156289
0.00183837
0.00214159
0.00247434
0.00283866
0.00323675
0.00367074
0.00414237
0.00465034
0.00518732
0.00574419
0.0063129
0.00688805
0.00746591
0.00804409
0.0086208
0.00919455
0.00976409
0.010328
0.0108847
0.0114328
0.0119704
0.012496
0.0130078
0.0135044
0.0139848
0.0144482
0.0148953
0.0153279
0.0157493
0.0161654
0.0165831
3.24427e-05
9.29622e-05
0.00015842
0.000224221
0.00030812
0.000419751
0.000553042
0.000707575
0.000884366
0.00108414
0.00130732
0.0015549
0.00182837
0.00212914
0.00245906
0.00282011
0.00321438
0.00364417
0.00411135
0.00461579
0.00515245
0.00571219
0.00628685
0.00687005
0.00745758
0.00804643
0.00863458
0.00922052
0.00980287
0.0103802
0.010951
0.0115137
0.0120667
0.0126081
0.0131361
0.0136491
0.0141458
0.0146251
0.0150865
0.015531
0.0159606
0.0163795
0.0167931
3.27007e-05
9.3565e-05
0.000158905
0.000224542
0.000307795
0.000418936
0.000551677
0.000705526
0.000881356
0.0010801
0.00130198
0.00154814
0.00181973
0.00211845
0.00244587
0.00280406
0.00319505
0.00362102
0.00408414
0.00458507
0.00512038
0.00568225
0.00626177
0.00685231
0.0074488
0.00804783
0.00864703
0.00924472
0.00983948
0.0104297
0.0110141
0.0115909
0.0121587
0.0127154
0.0132593
0.0137885
0.0143014
0.0147966
0.0152732
0.015731
0.0161712
0.0165963
0.0170115
3.29264e-05
9.41506e-05
0.000159375
0.000224878
0.000307623
0.000418319
0.000550609
0.000703778
0.000878828
0.00107663
0.00129749
0.00154226
0.00181233
0.00210914
0.00243446
0.00279012
0.00317815
0.00360077
0.00406014
0.00455761
0.00509116
0.00565405
0.00623781
0.0068348
0.00743965
0.00804835
0.00865816
0.00926733
0.00987393
0.0104768
0.0110744
0.011665
0.0122469
0.0128185
0.0133778
0.0139228
0.0144518
0.0149629
0.015455
0.0159271
0.0163794
0.016813
0.0172301
3.31861e-05
9.4696e-05
0.000159792
0.000225213
0.000307478
0.000417809
0.000549686
0.000702358
0.000876691
0.00107373
0.00129361
0.00153721
0.00180589
0.00210105
0.00242445
0.00277783
0.00316328
0.00358287
0.0040389
0.00453294
0.00506438
0.00562773
0.00621467
0.00681755
0.00743012
0.00804802
0.00866818
0.00928818
0.0099066
0.0105216
0.0111319
0.0117358
0.0123317
0.0129177
0.013492
0.0140525
0.0145972
0.0151242
0.0156319
0.0161188
0.0165843
0.0170285
0.0174522
3.34125e-05
9.52021e-05
0.000160193
0.000225503
0.000307359
0.000417384
0.000548889
0.000701085
0.000874836
0.00107114
0.00129011
0.00153274
0.00180015
0.0020939
0.00241551
0.00276693
0.00314998
0.0035669
0.0040199
0.00451086
0.0050398
0.00560286
0.00619251
0.00680047
0.00742018
0.00804677
0.00867673
0.00930748
0.00993715
0.0105641
0.0111868
0.0118037
0.0124131
0.0130132
0.0136021
0.0141777
0.0147379
0.0152807
0.015804
0.0163061
0.0167857
0.0172423
0.0176766
3.36238e-05
9.5692e-05
0.000160588
0.000225835
0.000307334
0.000417055
0.000548227
0.000700027
0.000873219
0.00106885
0.00128709
0.00152874
0.00179508
0.00208743
0.00240754
0.00275708
0.00313808
0.0035526
0.00400274
0.0044907
0.00501709
0.00557953
0.0061709
0.00678334
0.00740961
0.00804442
0.0086838
0.00932494
0.00996567
0.0106043
0.0112391
0.0118686
0.0124912
0.0131051
0.0137083
0.0142987
0.0148742
0.0154325
0.0159715
0.0164891
0.0169836
0.0174536
0.0178974
3.38402e-05
9.61809e-05
0.000160982
0.000226147
0.000307334
0.000416778
0.000547677
0.000699068
0.00087175
0.00106682
0.00128432
0.00152516
0.00179041
0.00208162
0.00240027
0.0027482
0.00312723
0.00353942
0.00398711
0.00447223
0.00499622
0.0055573
0.00615001
0.00676608
0.00739829
0.0080409
0.00868929
0.00934044
0.00999196
0.0106419
0.0112886
0.0119306
0.0125661
0.0131934
0.0138106
0.0144155
0.0150059
0.0155797
0.0161344
0.0166679
0.0171782
0.0176641
0.018126
3.40516e-05
9.66207e-05
0.000161336
0.00022645
0.00030735
0.000416553
0.000547158
0.000698214
0.000870461
0.00106496
0.00128184
0.00152182
0.00178617
0.00207622
0.0023936
0.00273995
0.00311718
0.0035274
0.00397271
0.00445521
0.00497664
0.00553634
0.00612942
0.00674864
0.00738628
0.00803598
0.00869299
0.00935392
0.0100158
0.0106768
0.0113352
0.0119893
0.0126375
0.0132779
0.0139087
0.0145279
0.0151331
0.015722
0.0162923
0.0168417
0.0173679
0.017869
0.0183427
3.42522e-05
9.70295e-05
0.000161652
0.000226737
0.000307368
0.000416337
0.000546708
0.000697429
0.000869209
0.00106323
0.00127947
0.00151873
0.00178218
0.00207121
0.00238735
0.00273224
0.00310786
0.00351613
0.00395914
0.0044393
0.00495829
0.00551612
0.00610929
0.00673093
0.00737321
0.00802965
0.00869493
0.00936495
0.0100371
0.0107089
0.0113786
0.0120446
0.0127051
0.0133585
0.0140027
0.0146358
0.0152553
0.0158592
0.0164448
0.0170097
0.0175516
0.0180683
0.0185585
3.44332e-05
9.74302e-05
0.00016197
0.000227006
0.000307402
0.000416176
0.000546273
0.000696652
0.000868019
0.00106152
0.00127717
0.0015158
0.00177844
0.00206643
0.00238141
0.00272499
0.00309898
0.00350546
0.00394644
0.00442423
0.00494074
0.00549668
0.00608936
0.00671275
0.00735937
0.00802183
0.00869469
0.00937373
0.0100557
0.010738
0.0114189
0.0120963
0.0127691
0.0134349
0.0140922
0.0147388