/*--------------------------------*- C++ -*----------------------------------*\
| =========                 |                                                 |
| \\      /  F ield         | OpenFOAM: The Open Source CFD Toolbox           |
|  \\    /   O peration     | Version:  2.3.0                                 |
|   \\  /    A nd           | Web:      www.OpenFOAM.org                      |
|    \\/     M anipulation  |                                                 |
\*---------------------------------------------------------------------------*/
FoamFile
{
    version     2.0;
    format      ascii;
    class       surfaceScalarField;
    location    "10000";
    object      phi;
}
// * * * * * * * * * * * * * * * * * * * * * * * * * * * * * * * * * * * * * //

dimensions      [0 3 -1 0 0 0 0];

internalField   nonuniform List<scalar> 
246874
(
-0.0024729
-0.00210735
0.00232427
0.00225598
-0.00267127
-0.00201164
0.00221
-0.00285433
-0.00191912
0.00210218
-0.00301795
-0.00183213
0.00199575
-0.00316743
-0.00174571
0.00189518
-0.00330112
-0.00166421
0.0017979
-0.00342185
-0.00158562
0.00170635
-0.00352512
-0.00150955
0.00161283
-0.00361612
-0.00143593
0.00152692
-0.00369313
-0.00136681
0.00144383
-0.00375602
-0.00129779
0.00136067
-0.003808
-0.00123288
0.00128486
-0.00384897
-0.00116772
0.00120869
-0.00387424
-0.00110939
0.00113466
-0.00388923
-0.00104758
0.00106257
-0.00389153
-0.000992534
0.000994833
-0.00388379
-0.000936641
0.000928902
-0.0038663
-0.000881847
0.000864364
-0.00383656
-0.000831186
0.000801437
-0.00379511
-0.000779257
0.000737816
-0.00374452
-0.000730998
0.0006804
-0.00368742
-0.000681377
0.000624279
-0.00361453
-0.000637947
0.000565055
-0.00353613
-0.000590371
0.000511971
-0.00345025
-0.000546239
0.00046036
-0.00335488
-0.000505623
0.000410253
-0.00325409
-0.000460597
0.00035981
-0.00314598
-0.000421394
0.000313287
-0.00303441
-0.00038017
0.000268596
-0.0029209
-0.000339452
0.00022594
-0.00280641
-0.000301532
0.00018704
-0.00269198
-0.000261318
0.000146888
-0.00258076
-0.000223359
0.000112141
-0.00247619
-0.000182765
7.81963e-05
-0.00237903
-0.000144033
4.68704e-05
-0.00229387
-0.000104538
1.93834e-05
-0.00222532
-6.18583e-05
-6.6989e-06
-0.00217606
-2.03541e-05
-2.8898e-05
-0.00215103
2.27222e-05
-4.77557e-05
-0.00215459
6.71269e-05
-6.35675e-05
-0.0021915
0.000111193
-7.4281e-05
-0.00226507
0.000152609
-7.90414e-05
0.00019429
-0.00240188
-5.74772e-05
-0.00223189
-0.00191505
0.00203959
-0.00240994
-0.00183359
-0.00257001
-0.00175904
-0.00271723
-0.00168491
-0.00285025
-0.00161269
-0.00296895
-0.0015455
-0.00307455
-0.00148003
-0.00316957
-0.00141452
-0.00325237
-0.00135313
-0.00332555
-0.00129364
-0.00338748
-0.00123585
-0.00344064
-0.00117972
-0.00348073
-0.00112764
-0.00351573
-0.00107438
-0.0035406
-0.00102272
-0.00355608
-0.000977049
-0.00356499
-0.000927728
-0.00356759
-0.000879252
-0.00356184
-0.00083693
-0.00354825
-0.000792854
-0.00353222
-0.000747026
-0.00350659
-0.00070701
-0.00347952
-0.000665019
-0.00344624
-0.000623646
-0.00340722
-0.000585258
-0.00336822
-0.000544628
-0.0033246
-0.000504218
-0.00327938
-0.000466606
-0.00323312
-0.000426433
-0.00318359
-0.000388982
-0.00313377
-0.000351357
-0.0030814
-0.000313685
-0.00303171
-0.000273051
-0.00297957
-0.000234897
-0.00292711
-0.0001965
-0.00287373
-0.000157912
-0.00281625
-0.000119341
-0.00275558
-8.10174e-05
-0.00268941
-4.34517e-05
-0.00261473
-7.55618e-06
-0.00252877
2.52331e-05
-0.00242993
5.37742e-05
7.63822e-05
-0.00231203
-0.00201437
-0.00174535
0.00184468
-0.0021695
-0.00167846
-0.00231274
-0.00161581
-0.00244269
-0.00155495
-0.0025592
-0.00149618
-0.00266575
-0.00143895
-0.00276009
-0.00138569
-0.00284302
-0.0013316
-0.00291709
-0.00127906
-0.00298034
-0.00123039
-0.00303579
-0.00118041
-0.00308154
-0.00113396
-0.00312022
-0.00108896
-0.0031497
-0.00104491
-0.00317053
-0.00100189
-0.00318774
-0.00095984
-0.00319705
-0.000918422
-0.0031986
-0.0008777
-0.00319517
-0.000840363
-0.00318728
-0.00080074
-0.00317246
-0.000761848
-0.00315375
-0.000725717
-0.00312888
-0.000689894
-0.00310325
-0.000649275
-0.00307207
-0.000616431
-0.00303816
-0.000578543
-0.00299919
-0.000543184
-0.00295792
-0.000507874
-0.00291206
-0.000472301
-0.00286714
-0.000433897
-0.00281798
-0.000400514
-0.00277004
-0.000361628
-0.00271546
-0.000327629
-0.00266212
-0.000288237
-0.00260473
-0.000253899
-0.00254805
-0.000214585
-0.00248667
-0.000180722
-0.00242253
-0.000145156
-0.00235259
-0.00011339
-0.00228114
-7.90088e-05
-0.00220343
-5.24759e-05
-0.00212221
-2.74463e-05
-6.99525e-06
-0.00203884
-0.00181826
-0.0015949
0.00166781
-0.00195546
-0.00154126
-0.00208226
-0.00148901
-0.00219664
-0.00144057
-0.00230166
-0.00139116
-0.00239298
-0.00134763
-0.00247789
-0.00130078
-0.00255463
-0.00125486
-0.00261877
-0.00121491
-0.00267574
-0.00117342
-0.00272102
-0.00113513
-0.00276183
-0.00109315
-0.00279663
-0.00105416
-0.00282305
-0.00101848
-0.00284165
-0.00098329
-0.00285508
-0.000946415
-0.00286334
-0.00091016
-0.0028644
-0.000876634
-0.00286127
-0.000843494
-0.00285382
-0.000808189
-0.00284011
-0.000775566
-0.00282293
-0.000742897
-0.00280487
-0.000707956
-0.00277627
-0.000677873
-0.00274988
-0.000642818
-0.00271584
-0.000612582
-0.00268188
-0.000577144
-0.00264322
-0.000546537
-0.00260492
-0.0005106
-0.00255948
-0.000479342
-0.00251475
-0.000445235
-0.00246569
-0.000410697
-0.00241735
-0.000375969
-0.00236465
-0.000340929
-0.00231015
-0.000308399
-0.00225122
-0.000273514
-0.00219289
-0.000239058
-0.00213016
-0.000207887
-0.00206792
-0.000175631
-0.00199932
-0.000147606
-0.00193196
-0.000119835
-0.00186417
-9.52346e-05
-7.63067e-05
-0.00179486
-0.00163948
-0.00145904
0.00150362
-0.00176328
-0.00141746
-0.00187525
-0.00137704
-0.00197842
-0.0013374
-0.00206867
-0.00130091
-0.002153
-0.00126331
-0.00222737
-0.0012264
-0.00229207
-0.00119016
-0.00234985
-0.00115713
-0.00239872
-0.00112455
-0.00244359
-0.00109025
-0.00247799
-0.00105876
-0.00250655
-0.0010256
-0.0025302
-0.000994836
-0.00254866
-0.000964824
-0.0025601
-0.00093498
-0.00256484
-0.000905419
-0.00256765
-0.000873826
-0.0025641
-0.00084704
-0.00255678
-0.000815512
-0.00254354
-0.000788806
-0.00252682
-0.00075961
-0.0025071
-0.000727683
-0.00248462
-0.000700351
-0.00245462
-0.000672822
-0.00242705
-0.000640148
-0.00239232
-0.000611877
-0.00236039
-0.000578469
-0.00231904
-0.000551945
-0.00228082
-0.000517557
-0.00223834
-0.000487721
-0.00219418
-0.000454856
-0.00214608
-0.000424066
-0.00209639
-0.000390624
-0.00204773
-0.000357054
-0.00199534
-0.00032591
-0.00193921
-0.000295187
-0.00188433
-0.000262762
-0.00182834
-0.000231628
-0.00177154
-0.000204403
-0.00171209
-0.00017929
-0.00165271
-0.000154613
-0.00013505
-0.00159396
-0.00148004
-0.00134049
0.0013615
-0.00158976
-0.00130774
-0.00168901
-0.00127779
-0.00178025
-0.00124616
-0.00186384
-0.00121732
-0.00193804
-0.00118911
-0.00200531
-0.00115913
-0.00206149
-0.00113398
-0.00211384
-0.00110479
-0.00215801
-0.00108038
-0.00219634
-0.00105192
-0.00222933
-0.00102577
-0.00225294
-0.00100199
-0.00227392
-0.000973855
-0.00228823
-0.000950512
-0.00229834
-0.000924877
-0.0023045
-0.00089926
-0.00230451
-0.000873808
-0.00230099
-0.000850568
-0.00229154
-0.000824956
-0.00228135
-0.000799
-0.00226814
-0.000772819
-0.00224722
-0.000748597
-0.00222354
-0.000724031
-0.00220242
-0.000693946
-0.00217436
-0.000668211
-0.00214425
-0.000641985
-0.00210969
-0.00061303
-0.00207582
-0.00058581
-0.00203766
-0.000555719
-0.00200049
-0.00052489
-0.00195689
-0.000498455
-0.00191671
-0.000464245
-0.00187046
-0.000436879
-0.00182305
-0.00040446
-0.00177677
-0.000372189
-0.00172956
-0.000342403
-0.00167913
-0.000313193
-0.00162585
-0.000284906
-0.00157431
-0.000255941
-0.0015226
-0.000231001
-0.00146896
-0.000208248
-0.000186065
-0.00141795
-0.0013356
-0.00123309
0.0012282
-0.0014351
-0.00120824
-0.00152499
-0.00118791
-0.00160547
-0.00116568
-0.00167922
-0.00114357
-0.00174432
-0.00112401
-0.00180321
-0.00110025
-0.0018564
-0.00108079
-0.00190164
-0.00105954
-0.00194151
-0.00104051
-0.00197643
-0.001017
-0.00200205
-0.00100015
-0.0020276
-0.000976442
-0.00204433
-0.00095712
-0.00205694
-0.000937903
-0.00206583
-0.00091599
-0.00207119
-0.000893901
-0.00207091
-0.000874087
-0.00206747
-0.000854009
-0.00206098
-0.000831441
-0.00204928
-0.000810702
-0.00203458
-0.000787524
-0.00201725
-0.000765928
-0.00199988
-0.000741393
-0.00197553
-0.000718301
-0.00194912
-0.000694623
-0.00192099
-0.000670108
-0.00189125
-0.000642771
-0.00186212
-0.000614941
-0.00182674
-0.000591099
-0.00178991
-0.000561724
-0.00175409
-0.000534271
-0.00171456
-0.000503777
-0.0016741
-0.000477339
-0.00163254
-0.000446021
-0.00158775
-0.000416979
-0.00154432
-0.000385828
-0.00149812
-0.000359398
-0.00145359
-0.000329432
-0.00140654
-0.000302995
-0.00135936
-0.000278176
-0.00131438
-0.000253229
-0.000234586
-0.00126586
-0.0012079
-0.00113544
0.00111025
-0.00129388
-0.00112226
-0.00137349
-0.0011083
-0.00144655
-0.00109262
-0.00151359
-0.00107653
-0.00157488
-0.00106273
-0.00162625
-0.00104887
-0.00167249
-0.00103455
-0.00171362
-0.00101841
-0.00175024
-0.0010039
-0.00177777
-0.000989462
-0.0018052
-0.000972712
-0.00182424
-0.000957403
-0.00183932
-0.000942045
-0.00185299
-0.000924232
-0.0018608
-0.000908174
-0.00186317
-0.000891539
-0.00186276
-0.000874497
-0.00185946
-0.0008573
-0.0018532
-0.000837706
-0.00184461
-0.000819296
-0.00183107
-0.000801063
-0.00181516
-0.000781832
-0.0017968
-0.00075976
-0.0017739
-0.000741195
-0.00175164
-0.00071689
-0.00172775
-0.000693991
-0.00170013
-0.00067039
-0.0016709
-0.000644174
-0.00164047
-0.000621527
-0.00160856
-0.000593638
-0.00157333
-0.000569504
-0.00153667
-0.000540429
-0.00150156
-0.000512457
-0.00146331
-0.000484265
-0.00142434
-0.000455952
-0.00138429
-0.000425877
-0.00134395
-0.000399738
-0.00130326
-0.000370126
-0.00126011
-0.000346142
-0.00121881
-0.000319474
-0.00117556
-0.000296486
-0.00027723
-0.00113291
-0.00108976
-0.00104806
0.00100238
-0.00116824
-0.00104377
-0.00124282
-0.00103373
-0.00130727
-0.00102816
-0.00136638
-0.00101741
-0.00141812
-0.00101099
-0.00146675
-0.00100024
-0.00150896
-0.000992345
-0.00154652
-0.000980841
-0.0015779
-0.00097252
-0.00160509
-0.000962278
-0.00162839
-0.000949406
-0.00164555
-0.000940247
-0.0016617
-0.000925893
-0.00166992
-0.000916008
-0.00167719
-0.000900913
-0.00167923
-0.000889498
-0.0016809
-0.00087282
-0.00167814
-0.000860064
-0.00167188
-0.000843964
-0.00166216
-0.000829018
-0.00165235
-0.000810873
-0.00163801
-0.00079617
-0.00162158
-0.000776188
-0.00160307
-0.000759705
-0.00158191
-0.000738051
-0.00155741
-0.000718491
-0.00153397
-0.000693832
-0.00150463
-0.000673517
-0.00147849
-0.000647666
-0.00144663
-0.000625495
-0.00141873
-0.000597404
-0.00138461
-0.000574557
-0.00135201
-0.000545055
-0.00131637
-0.000519901
-0.0012805
-0.000491827
-0.0012434
-0.000462973
-0.00120604
-0.000437101
-0.00116853
-0.00040763
-0.00113092
-0.000383754
-0.00109299
-0.000357405
-0.0010526
-0.000336878
-0.00101735
-0.000312473
-0.00221868
0.000218677
-0.000401886
-0.00209417
0.000215331
-0.000339836
-0.00199795
0.000206945
-0.000303166
-0.00191772
0.000196324
-0.000276554
-0.00184647
0.000184243
-0.000255494
-0.00178264
0.000171402
-0.000235233
-0.00172324
0.000158123
-0.000217519
-0.0016665
0.000143232
-0.000199978
-0.00161284
0.000129587
-0.000183244
-0.0015606
0.000115872
-0.000168107
-0.00150843
0.000101131
-0.000153302
-0.00145887
8.75128e-05
-0.000137077
-0.00140886
7.28549e-05
-0.000122865
-0.00136038
5.93402e-05
-0.000107814
-0.00131225
4.4678e-05
-9.28167e-05
-0.00126448
2.9999e-05
-7.77672e-05
-0.00121908
1.6274e-05
-6.16698e-05
-0.00117327
1.30025e-06
-4.71161e-05
-0.00112792
-1.48095e-05
-3.05387e-05
-0.00108426
-2.91833e-05
-1.44768e-05
-0.00104224
-4.48712e-05
2.8549e-06
-0.0010002
-6.18528e-05
1.98126e-05
-0.0009601
-7.82678e-05
3.81661e-05
-0.000922063
-9.51505e-05
5.71135e-05
-0.000884466
-0.000113464
7.5867e-05
-0.000850088
-0.000131419
9.70413e-05
-0.000817357
-0.000150886
0.000118155
-0.000787377
-0.000170107
0.000140126
-0.000759386
-0.000191846
0.000163856
-0.000734583
-0.00021252
0.000187718
-0.000711445
-0.000235791
0.000212652
-0.000693604
-0.00025819
0.000240349
-0.000677929
-0.000284062
0.000268387
-0.000666451
-0.000308382
0.000296903
-0.000659398
-0.000335388
0.000328335
-0.000657042
-0.000363543
0.000361186
-0.00065895
-0.000392839
0.000394747
-0.000666167
-0.000423404
0.000430621
-0.000678336
-0.000456022
0.000468191
-0.000697325
-0.000488498
0.000507488
-0.000721935
-0.000524752
0.000549362
-0.000753301
-0.000560942
0.000592307
-0.000599441
0.000638633
-0.000792493
-0.00218255
8.91989e-05
-0.00206743
0.000100211
-0.00196422
0.00010374
-0.00187126
0.000103359
-0.00178691
9.98986e-05
-0.00170967
9.41606e-05
-0.00163967
8.81195e-05
-0.00157426
7.78193e-05
-0.00151278
6.81088e-05
-0.00145453
5.76297e-05
-0.00139873
4.53257e-05
-0.00134641
3.51937e-05
-0.00129579
2.22318e-05
-0.00124669
1.0242e-05
-0.0012
-2.00874e-06
-0.00115441
-1.5593e-05
-0.0011088
-2.93397e-05
-0.00106532
-4.21808e-05
-0.00102485
-5.52795e-05
-0.000984331
-6.96977e-05
-0.000944844
-8.43588e-05
-0.000907399
-9.9297e-05
-0.00087111
-0.000114557
-0.000837081
-0.00012918
-0.000804365
-0.00014618
-0.000773191
-0.000162592
-0.000744593
-0.000179484
-0.000717845
-0.000196855
-0.000694886
-0.000214805
-0.000672285
-0.000235121
-0.000654732
-0.000253343
-0.000638007
-0.000274915
-0.000626674
-0.000295395
-0.000617529
-0.000317527
-0.000612465
-0.000340451
-0.000611759
-0.000364249
-0.000615671
-0.000388927
-0.000623636
-0.000415439
-0.000637514
-0.000442144
-0.000655299
-0.000470713
-0.000679573
-0.000500478
-0.000709189
-0.000531325
-0.000563359
-0.000745271
-0.00195562
5.98526e-06
-0.00187366
1.82468e-05
-0.00179644
2.6521e-05
-0.00172083
2.77459e-05
-0.00165063
2.96998e-05
-0.00158383
2.7368e-05
-0.00151883
2.31181e-05
-0.00145822
1.72035e-05
-0.00140161
1.15032e-05
-0.00134584
1.85345e-06
-0.00129472
-5.78707e-06
-0.00124275
-1.67797e-05
-0.00119489
-2.56274e-05
-0.00114719
-3.74554e-05
-0.00110206
-4.71398e-05
-0.00105809
-5.95633e-05
-0.00101641
-7.10168e-05
-0.000975867
-8.27275e-05
-0.00093536
-9.57863e-05
-0.000897113
-0.000107945
-0.000861117
-0.000120355
-0.000826318
-0.000134097
-0.000793855
-0.00014702
-0.000761746
-0.000161288
-0.000732114
-0.000175813
-0.000705028
-0.000189678
-0.000679627
-0.000204884
-0.000656034
-0.000220449
-0.000634412
-0.000236427
-0.000616713
-0.000252821
-0.000600377
-0.000269679
-0.000588253
-0.000287039
-0.000577815
-0.000305833
-0.000571082
-0.00032426
-0.000568171
-0.000343362
-0.000568485
-0.000363934
-0.000573026
-0.000384386
-0.000582035
-0.00040643
-0.000594974
-0.000429205
-0.000612812
-0.000452876
-0.000635106
-0.000478183
-0.000663619
-0.000502812
-0.000530289
-0.000696689
-0.00172834
-6.05363e-05
-0.00166243
-4.76583e-05
-0.00159607
-3.9838e-05
-0.00153514
-3.31862e-05
-0.00147271
-3.27316e-05
-0.00141576
-2.95775e-05
-0.00135922
-3.34246e-05
-0.00130624
-3.57823e-05
-0.00125508
-3.96521e-05
-0.00120561
-4.76149e-05
-0.00115779
-5.36073e-05
-0.00111279
-6.17852e-05
-0.00106786
-7.05495e-05
-0.00102678
-7.85415e-05
-0.000984418
-8.94999e-05
-0.000945699
-9.82824e-05
-0.000906911
-0.000109805
-0.000870455
-0.000119183
-0.000835086
-0.000131155
-0.000801997
-0.000141034
-0.00076895
-0.000153401
-0.000738225
-0.000164822
-0.000708753
-0.000176492
-0.000681677
-0.000188365
-0.000655975
-0.000201515
-0.000631791
-0.000213862
-0.000610186
-0.00022649
-0.000590268
-0.000240366
-0.000573136
-0.000253559
-0.000557893
-0.000268064
-0.000544744
-0.000282828
-0.000534745
-0.000297038
-0.00052802
-0.000312558
-0.000523756
-0.000328524
-0.000522185
-0.000344933
-0.000524319
-0.0003618
-0.000529562
-0.000379144
-0.000538876
-0.000397116
-0.000551559
-0.000416522
-0.000568901
-0.000435534
-0.000591747
-0.000455337
-0.000618042
-0.000476518
-0.000497818
-0.000650512
-0.00153591
-0.000118589
-0.00147852
-0.000105054
-0.00142213
-9.62266e-05
-0.00136701
-8.83034e-05
-0.0013167
-8.30423e-05
-0.00126448
-8.17988e-05
-0.00121538
-8.25273e-05
-0.00116776
-8.3395e-05
-0.00112159
-8.58203e-05
-0.00107823
-9.0975e-05
-0.00103477
-9.70703e-05
-0.000993971
-0.000102586
-0.000954353
-0.000110167
-0.000914623
-0.000118272
-0.000878574
-0.000125549
-0.000842361
-0.000134495
-0.000809637
-0.000142529
-0.000775589
-0.000153232
-0.000744968
-0.000161776
-0.000714273
-0.00017173
-0.000686957
-0.000180717
-0.000659671
-0.000192108
-0.000633597
-0.000202566
-0.000609902
-0.00021206
-0.000587517
-0.0002239
-0.00056655
-0.000234828
-0.000548141
-0.0002449
-0.000531262
-0.000257245
-0.000516104
-0.000268716
-0.000503718
-0.00028045
-0.000493226
-0.00029332
-0.000485758
-0.000304506
-0.000480362
-0.000317954
-0.000477285
-0.000331601
-0.000477584
-0.000344633
-0.000481296
-0.000358088
-0.000486779
-0.00037366
-0.00049699
-0.000386905
-0.000510303
-0.00040321
-0.000527633
-0.000418203
-0.000548489
-0.000434481
-0.000573737
-0.000451271
-0.000468674
-0.000602881
-0.00136753
-0.000169012
-0.00131589
-0.000156689
-0.00126707
-0.000145043
-0.00121923
-0.000136147
-0.00117252
-0.000129755
-0.00112699
-0.000127328
-0.00108427
-0.000125247
-0.00104113
-0.000126529
-0.000999236
-0.000127718
-0.000960008
-0.000130203
-0.000921903
-0.000135175
-0.000884934
-0.000139554
-0.000849059
-0.000146043
-0.000815527
-0.000151803
-0.000781732
-0.000159344
-0.000750224
-0.000166003
-0.000719747
-0.000173007
-0.000691427
-0.000181551
-0.000662921
-0.000190281
-0.000636648
-0.000198003
-0.000610287
-0.000207078
-0.000586179
-0.000216216
-0.000564361
-0.000224384
-0.000542628
-0.000233793
-0.000524315
-0.000242213
-0.000506279
-0.000252864
-0.000489604
-0.000261575
-0.000476514
-0.000270335
-0.000463884
-0.000281346
-0.000452947
-0.000291387
-0.000445761
-0.000300506
-0.000438458
-0.00031181
-0.000435132
-0.00032128
-0.00043472
-0.000332013
-0.000435521
-0.000343832
-0.000439615
-0.000353995
-0.000447029
-0.000366247
-0.000456151
-0.000377783
-0.000469802
-0.000389559
-0.000486373
-0.000401632
-0.000505944
-0.000414909
-0.000529659
-0.000427555
-0.000440558
-0.000557776
-0.00121991
-0.000214958
-0.00117471
-0.000201896
-0.00113226
-0.000187494
-0.0010888
-0.000179609
-0.00104471
-0.000173843
-0.00100505
-0.00016699
-0.000964761
-0.000165532
-0.000928624
-0.000162666
-0.00089039
-0.000165952
-0.000854752
-0.000165841
-0.000821572
-0.000168355
-0.000788021
-0.000173105
-0.000756798
-0.000177266
-0.000725192
-0.000183409
-0.000695823
-0.000188713
-0.000667402
-0.000194424
-0.000639915
-0.000200494
-0.000613385
-0.000208081
-0.000588989
-0.000214677
-0.000565587
-0.000221406
-0.000543156
-0.000229509
-0.000522928
-0.000236443
-0.000502643
-0.000244669
-0.000484631
-0.000251806
-0.000466724
-0.00026012
-0.000452204
-0.000267385
-0.000438987
-0.000274791
-0.000426004
-0.000283318
-0.00041558
-0.00029177
-0.000407719
-0.000299248
-0.000400492
-0.000307733
-0.000396939
-0.000315363
-0.000394127
-0.000324092
-0.000394236
-0.000331903
-0.000397165
-0.000340903
-0.000401249
-0.000349911
-0.000408551
-0.000358944
-0.000419082
-0.000367252
-0.000432078
-0.000376563
-0.000447681
-0.000386029
-0.000466956
-0.000395635
-0.000490023
-0.000404488
-0.000415124
-0.000515456
-0.00109071
-0.000257157
-0.00105107
-0.000241535
-0.00101074
-0.00022783
-0.000970954
-0.000219393
-0.000935608
-0.000209188
-0.000897795
-0.000204803
-0.000864126
-0.000199202
-0.000828128
-0.000198663
-0.000796083
-0.000197998
-0.000763507
-0.000198417
-0.000732011
-0.000199851
-0.000701522
-0.000203595
-0.000673297
-0.000205491
-0.000645806
-0.0002109
-0.000620511
-0.000214008
-0.000594832
-0.000220103
-0.000570018
-0.000225308
-0.000546027
-0.000232073
-0.000524201
-0.000236502
-0.000503278
-0.000242329
-0.000483294
-0.000249493
-0.000464318
-0.00025542
-0.000447507
-0.00026148
-0.000430629
-0.000268683
-0.000417073
-0.000273677
-0.000403609
-0.000280848
-0.0003913
-0.000287101
-0.000381333
-0.000293285
-0.00037372
-0.000299383
-0.000366564
-0.000306404
-0.00036194
-0.000312357
-0.00035775
-0.000319553
-0.000357218
-0.000324624
-0.000357395
-0.000331726
-0.000360277
-0.000338021
-0.000365189
-0.000344998
-0.000372961
-0.000351173
-0.000382901
-0.000357312
-0.000395976
-0.000363488
-0.000411399
-0.000370607
-0.000429305
-0.000377728
-0.000449878
-0.000383915
-0.000390034
-0.000474969
-0.000978072
-0.00029644
-0.00094154
-0.000278066
-0.000905343
-0.000264028
-0.000871699
-0.000253037
-0.000836087
-0.0002448
-0.000804575
-0.000236315
-0.000770637
-0.000233141
-0.000740669
-0.000228632
-0.000709789
-0.000228877
-0.000681457
-0.00022675
-0.000652841
-0.000228467
-0.000627885
-0.000228551
-0.000600718
-0.000232658
-0.000577037
-0.000234581
-0.00055168
-0.000239365
-0.000528392
-0.000243391
-0.00050712
-0.000246579
-0.000486577
-0.000252616
-0.000466959
-0.00025612
-0.000447075
-0.000262212
-0.000430316
-0.000266253
-0.00041343
-0.000272305
-0.000398638
-0.000276272
-0.000384766
-0.000282556
-0.000372035
-0.000286407
-0.000360461
-0.000292423
-0.000350764
-0.000296798
-0.000341305
-0.000302744
-0.000334086
-0.000306602
-0.000328709
-0.00031178
-0.00032529
-0.000315777
-0.000323135
-0.000321707
-0.000322648
-0.000325111
-0.000323668
-0.000330706
-0.000327179
-0.000334511
-0.000332763
-0.000339414
-0.000340991
-0.000342945
-0.000350086
-0.000348217
-0.000362127
-0.000351447
-0.000376407
-0.000356327
-0.000393612
-0.000360523
-0.000414126
-0.000363401
-0.000368231
-0.000435929
0.000513661
-0.000296635
0.000327285
-0.000544311
0.000487145
-0.000267975
0.000294491
0.000465285
-0.00024127
0.00026313
0.000447689
-0.000215209
0.000232805
0.000433798
-0.000190506
0.000204397
0.000423799
-0.000166707
0.000176706
0.00041696
-0.000144628
0.000151467
0.000412847
-0.000123136
0.000127249
0.00041127
-0.000102944
0.000104521
0.000411596
-8.36611e-05
8.3335e-05
0.000414135
-6.60848e-05
6.35463e-05
0.00041804
-4.89994e-05
4.50939e-05
0.000423146
-3.30938e-05
2.79877e-05
0.000429126
-1.81401e-05
1.21605e-05
0.000435599
-4.05804e-06
-2.4149e-06
0.000442398
9.04971e-06
-1.58485e-05
0.000449192
2.13228e-05
-2.8117e-05
0.000455754
3.27476e-05
-3.931e-05
0.000461829
4.34126e-05
-4.94874e-05
0.000467146
5.33401e-05
-5.86574e-05
0.000471634
6.24527e-05
-6.69409e-05
0.000475033
7.09678e-05
-7.43665e-05
0.000477154
7.87892e-05
-8.091e-05
0.000477957
8.59886e-05
-8.67921e-05
0.000477206
9.26824e-05
-9.19312e-05
0.000474828
9.87672e-05
-9.63896e-05
0.000470677
0.000104386
-0.000100235
0.000464675
0.000109546
-0.000103544
0.000456703
0.000114271
-0.000106299
0.000446718
0.000118582
-0.000108597
0.000434585
0.000122538
-0.000110406
0.00042028
0.000126157
-0.000111852
0.000403633
0.000129533
-0.000112886
0.000384556
0.000132667
-0.00011359
0.000362759
0.00013574
-0.000113943
0.000338034
0.000138799
-0.000114074
0.000309705
0.0001422
-0.000113871
0.000276715
0.000146552
-0.000113562
0.000236751
0.000153075
-0.000113111
0.000185306
0.000164633
-0.000113188
0.000112244
0.000188186
-0.000115124
-6.4683e-06
0.000242046
-0.000123334
0.000380927
-0.000243284
-0.000144111
0.000464
-0.000268505
-0.00049213
0.000440878
-0.000244853
0.000421055
-0.000221447
0.00040493
-0.000199084
0.000392525
-0.000178101
0.000383234
-0.000157417
0.00037637
-0.000137764
0.000371978
-0.000118744
0.000370053
-0.000101018
0.000370659
-8.4268e-05
0.000372291
-6.7716e-05
0.000375383
-5.20917e-05
0.000379879
-3.75905e-05
0.000384969
-2.32299e-05
0.000391221
-1.03102e-05
0.000397521
2.74996e-06
0.000404107
1.4737e-05
0.000410587
2.62678e-05
0.000416851
3.71488e-05
0.000422654
4.75371e-05
0.000427745
5.73611e-05
0.000432001
6.67119e-05
0.000435274
7.55163e-05
0.000437311
8.39521e-05
0.000438011
9.19822e-05
0.000437252
9.95259e-05
0.000434781
0.000106857
0.000430562
0.000113765
0.000424365
0.000120468
0.000416008
0.000126939
0.000405324
0.000133222
0.000392051
0.000139431
0.000375912
0.000145672
0.000356447
0.000152131
0.000333167
0.000159021
0.000305139
0.000166827
0.000271
0.000176339
0.0002285
0.000189051
0.000173947
0.000207628
0.000101159
0.000237421
-3.02525e-07
0.000289648
-0.000145563
0.000387305
0.000569959
-0.000334595
0.000418775
-0.000243998
-0.000443282
0.000397588
-0.000223666
0.000379943
-0.000203802
0.000365847
-0.000184988
0.0003543
-0.000166554
0.000345453
-0.00014857
0.000339279
-0.00013159
0.000335539
-0.000115004
0.000333716
-9.91953e-05
0.000333456
-8.40079e-05
0.000334917
-6.91768e-05
0.00033782
-5.49954e-05
0.000341254
-4.10237e-05
0.000346328
-2.83039e-05
0.00035145
-1.54329e-05
0.000357275
-3.07499e-06
0.000363189
8.8234e-06
0.000369217
2.02402e-05
0.000374809
3.15561e-05
0.000380229
4.21169e-05
0.000384968
5.26224e-05
0.000389182
6.24982e-05
0.000392308
7.23898e-05
0.000394388
8.18728e-05
0.000395268
9.11014e-05
0.000394666
0.000100128
0.000392509
0.000109015
0.000388521
0.000117753
0.000382578
0.000126411
0.000374381
0.000135136
0.000363583
0.000144019
0.000349895
0.000153119
0.000332893
0.000162674
0.000311957
0.000173068
0.000286204
0.000184774
0.000254508
0.000198523
0.000215181
0.000215665
0.000165716
0.000238516
0.000102388
0.000270957
1.98441e-05
0.000319965
-8.84988e-05
0.000397991
-0.000227651
0.000526458
0.000726743
-0.000384435
0.000376672
-0.00022186
-0.00039881
0.000357825
-0.00020482
0.000341925
-0.000187901
0.000328727
-0.000171789
0.000318417
-0.000156244
0.000310671
-0.000140824
0.00030462
-0.000125539
0.000300755
-0.000111138
0.000298681
-9.7121e-05
0.000298018
-8.33453e-05
0.000298848
-7.00067e-05
0.00030063
-5.67775e-05
0.000303853
-4.42466e-05
0.000307601
-3.20521e-05
0.000312036
-1.98685e-05
0.000316905
-7.94358e-06
0.000322066
3.66294e-06
0.000327284
1.50213e-05
0.000332713
2.6127e-05
0.000337492
3.73387e-05
0.000341744
4.83698e-05
0.000345374
5.88681e-05
0.00034824
6.95244e-05
0.000350101
8.0011e-05
0.000350502
9.07004e-05
0.000349977
0.000100653
0.000347766
0.000111226
0.000343808
0.000121711
0.000337773
0.000132446
0.000329464
0.000143444
0.00031853
0.000154954
0.000304537
0.000167111
0.000286948
0.000180263
0.00026507
0.000194946
0.000238153
0.000211691
0.000204824
0.000231852
0.000163433
0.000257056
0.000111684
0.000290265
4.65669e-05
0.000336074
-3.59033e-05
0.000402435
-0.000139321
0.000501409
-0.000264029
0.000651166
0.000861163
-0.000398448
0.000338438
-0.000201918
-0.00035838
0.000321477
-0.000187859
0.000307416
-0.000173841
0.000295373
-0.000159746
0.000285764
-0.000146635
0.000278083
-0.000133143
0.000272803
-0.000120259
0.000268992
-0.000107328
0.000266547
-9.46755e-05
0.000265518
-8.23162e-05
0.000265749
-7.0238e-05
0.00026745
-5.84779e-05
0.000269815
-4.66122e-05
0.000272975
-3.52116e-05
0.00027641
-2.33036e-05
0.000280607
-1.21406e-05
0.000285013
-7.43406e-07
0.000289504
1.05303e-05
0.000293894
2.17372e-05
0.000298009
3.32236e-05
0.000301992
4.43865e-05
0.000304952
5.59081e-05
0.000307359
6.71177e-05
0.000308727
7.86431e-05
0.000309239
9.0189e-05
0.000308066
0.000101825
0.000305926
0.000113366
0.000301776
0.000125861
0.000295723
0.000138499
0.000287477
0.000151691
0.000276684
0.000165747
0.000262629
0.000181166
0.000245088
0.000197804
0.000223273
0.000216761
0.000196348
0.000238616
0.000163155
0.000265044
0.000122167
0.000298045
7.12987e-05
0.000341133
8.20621e-06
0.000399166
-6.96994e-05
0.000480341
-0.000164497
0.000596206
-0.000274936
0.000761605
0.000978762
-0.000392536
0.000303754
-0.000184022
-0.000321651
0.000288551
-0.000172655
0.00027541
-0.000160701
0.000264929
-0.000149265
0.000255925
-0.000137632
0.000249233
-0.00012645
0.000243979
-0.000115005
0.00024031
-0.000103658
0.000237762
-9.21272e-05
0.000236757
-8.13113e-05
0.000236513
-6.99941e-05
0.000237233
-5.91983e-05
0.000239107
-4.84862e-05
0.000241447
-3.7552e-05
0.00024465
-2.65061e-05
0.000247892
-1.53829e-05
0.000251645
-4.49661e-06
0.000255108
7.06782e-06
0.00025883
1.80153e-05
0.000262653
2.94002e-05
0.000265764
4.12755e-05
0.000268575
5.30979e-05
0.000270513
6.51795e-05
0.000271399
7.7757e-05
0.000271433
9.01546e-05
0.000270543
0.000102716
0.000267895
0.000116014
0.000263866
0.00012989
0.000258152
0.000144213
0.000250125
0.000159718
0.000239473
0.000176399
0.000226258
0.000194381
0.000209088
0.000214974
0.000188103
0.000237746
0.000162075
0.000264643
0.000130227
0.000296893
9.08306e-05
0.000337441
4.25388e-05
0.000389425
-1.66777e-05
0.000458383
-8.8671e-05
0.000552334
-0.000174654
0.000682189
-0.000272723
0.000859674
0.00108291
-0.000376872
0.000272817
-0.00016846
-0.000288379
0.000258664
-0.000158501
0.00024726
-0.000149297
0.000237197
-0.000139202
0.000229359
-0.000129794
0.000222618
-0.000119709
0.000217704
-0.000110092
0.000214199
-0.000100153
0.000211912
-8.98406e-05
0.000210699
-8.00976e-05
0.000210388
-6.96833e-05
0.000210552
-5.93624e-05
0.000211727
-4.96619e-05
0.000213594
-3.94183e-05
0.000215994
-2.89059e-05
0.000219043
-1.8432e-05
0.000221928
-7.38184e-06
0.000225067
3.92917e-06
0.000228141
1.49413e-05
0.000231047
2.64941e-05
0.000233969
3.83535e-05
0.000236403
5.06636e-05
0.000238018
6.35644e-05
0.000238885
7.68898e-05
0.000238821
9.0219e-05
0.000237292
0.000104244
0.000234791
0.000118515
0.000231036
0.000133645
0.000225376
0.000149872
0.000217881
0.000167213
0.00020787
0.00018641
0.000194904
0.000207348
0.00017906
0.000230818
0.000159075
0.000257731
0.000134279
0.000289439
0.000104091
0.000327081
6.75222e-05
0.00037401
2.23315e-05
0.000434616
-3.27719e-05
0.000513486
-9.89359e-05
0.000618498
-0.000176443
0.000759696
-0.000264319
0.00094755
0.00117558
-0.000356989
0.000244419
-0.000153967
-0.000258913
0.000232487
-0.000146569
0.000221469
-0.000138279
0.000212665
-0.000130397
0.000205218
-0.000122348
0.000199277
-0.000113768
0.0001947
-0.000105515
0.000191345
-9.67978e-05
0.0001891
-8.75952e-05
0.000187465
-7.84628e-05
0.000187177
-6.93952e-05
0.000187629
-5.98141e-05
0.00018794
-4.9973e-05
0.000189434
-4.09131e-05
0.000191462
-3.09337e-05
0.000193834
-2.0804e-05
0.000196347
-9.89475e-06
0.000199004
1.27251e-06
0.00020149
1.24556e-05
0.000203826
2.41574e-05
0.000206192
3.59883e-05
0.000208264
4.85911e-05
0.000209929
6.1899e-05
0.00021087
7.59493e-05
0.000209862
9.12274e-05
0.000208641
0.000105465
0.000206349
0.000120808
0.000202747
0.000137246
0.000197326
0.000155293
0.000190175
0.000174365
0.000181245
0.00019534
0.000169265