/*--------------------------------*- C++ -*----------------------------------*\
| =========                 |                                                 |
| \\      /  F ield         | OpenFOAM: The Open Source CFD Toolbox           |
|  \\    /   O peration     | Version:  2.3.0                                 |
|   \\  /    A nd           | Web:      www.OpenFOAM.org                      |
|    \\/     M anipulation  |                                                 |
\*---------------------------------------------------------------------------*/
FoamFile
{
    version     2.0;
    format      ascii;
    class       volScalarField;
    location    "4000";
    object      p;
}
// * * * * * * * * * * * * * * * * * * * * * * * * * * * * * * * * * * * * * //

dimensions      [0 2 -2 0 0 0 0];

internalField   nonuniform List<scalar> 
14757
(
0.0782902
-0.727164
-1.54798
-2.34358
-3.06643
-3.69255
-4.19815
-4.57152
-4.79336
-4.84381
-4.68361
-4.26902
-3.51274
-2.30228
-0.530281
1.97318
5.37862
9.7568
15.3606
23.0028
33.2745
43.4619
49.1974
63.5953
9.91608
10.1453
10.5537
11.0819
11.7591
12.6006
13.637
14.9209
16.514
18.5098
21.0049
24.1094
27.942
32.6463
38.3706
45.2555
53.4504
63.0691
74.21
86.9948
101.47
117.524
135.13
154.066
18.3919
19.2136
20.3281
21.6436
23.1734
24.9385
26.9544
29.2509
31.8419
34.7685
38.0569
41.7549
45.8996
50.5501
55.751
61.5477
67.9873
75.0906
82.8557
91.2621
100.242
109.682
119.503
129.539
25.2212
26.6953
28.2724
30.0383
32.0033
34.1931
36.6285
39.3498
42.3782
45.7539
49.509
53.6834
58.3086
63.4168
69.0294
75.1664
81.8239
88.9898
96.621
104.65
112.983
121.474
129.966
138.255
31.221
32.9913
34.7729
36.7543
38.9223
41.2894
43.8775
46.7028
49.7799
53.1368
56.7928
60.7678
65.0873
69.7664
74.8201
80.2596
86.0776
92.2619
98.7748
105.562
112.556
119.65
126.736
133.69
36.2383
38.2136
40.0908
42.153
44.3851
46.8041
49.4217
52.2573
55.3271
58.6507
62.244
66.1237
70.3086
74.7997
79.6124
84.7452
90.1846
95.919
101.908
108.104
114.443
120.841
127.209
133.45
40.5795
42.6064
44.4768
46.5249
48.7395
51.1257
53.6915
56.4581
59.4243
62.6201
66.0558
69.745
73.704
77.929
82.4399
87.2252
92.2756
97.5744
103.104
108.803
114.624
120.493
126.336
132.077
44.1454
46.1799
48.0791
50.0837
52.2495
54.5753
57.0681
59.7741
62.6559
65.7603
69.0669
72.5782
76.3159
80.3029
84.5718
89.1
93.8582
98.807
103.977
109.296
114.752
120.241
125.707
131.078
47.3688
49.2644
51.1328
53.0334
55.1479
57.3938
59.7784
62.3466
65.0534
68.0308
71.2266
74.6459
78.2547
82.0901
86.1254
90.4108
94.9155
99.6462
104.59
109.625
114.787
119.974
125.163
130.285
51.9139
52.4719
53.8817
55.5117
57.515
59.6268
61.8105
64.092
66.3319
68.8913
71.71
75.1144
79.3316
83.2533
87.0811
91.1528
95.4268
99.7303
105.347
110.271
115.12
119.987
125.034
130.129
121.383
152.09
170.787
184.414
195.361
204.284
211.455
217.092
221.393
224.547
226.679
227.922
228.376
228.132
227.277
225.9
224.08
221.896
219.431
216.75
213.896
210.887
207.97
205.717
171.515
185.002
195.737
204.406
211.328
216.662
220.572
223.231
224.817
225.496
225.431
224.775
223.662
222.209
220.514
218.649
216.665
214.595
212.456
210.253
207.972
205.596
203.311
201.597
139.524
149.211
158.324
166.658
174.124
180.697
186.382
191.21
195.234
198.511
201.103
203.071
204.479
205.381
205.831
205.88
205.571
204.951
204.058
202.929
201.589
200.047
198.501
197.429
146.216
153.786
160.883
167.408
173.282
178.481
182.993
186.838
190.048
192.67
194.751
196.346
197.509
198.288
198.732
198.884
198.779
198.449
197.919
197.209
196.328
195.278
194.209
193.52
140.451
146.99
153.228
159.074
164.453
169.325
173.672
177.491
180.798
183.616
185.973
187.907
189.454
190.646
191.52
192.107
192.437
192.534
192.423
192.125
191.653
191.013
190.318
189.934
139.504
145.343
150.909
156.134
160.962
165.362
169.317
172.821
175.887
178.528
180.773
182.65
184.19
185.423
186.38
187.088
187.573
187.854
187.952
187.886
187.669
187.309
186.9
186.759
137.658
143.043
148.179
153.005
157.48
161.585
165.306
168.624
171.553
174.101
176.3
178.168
179.73
181.014
182.051
182.865
183.474
183.895
184.147
184.244
184.207
184.036
183.804
183.775
136.314
141.364
146.184
150.697
154.882
158.743
162.289
165.441
168.267
170.722
172.858
174.671
176.2
177.482
178.545
179.415
180.09
180.592
180.933
181.131
181.223
181.204
181.124
181.316
135.269
140.064
144.628
148.884
152.871
156.57
160.024
162.974
165.715
168.048
170.074
171.797
173.27
174.548
175.637
176.561
177.277
177.823
178.214
178.473
178.669
178.754
178.739
179.065
134.968
139.547
143.749
147.661
151.426
155.131
158.685
161.233
163.711
165.507
167.587
169.312
170.779
172.153
173.279
174.26
175.004
175.565
175.991
176.309
176.604
176.706
176.456
177.001
-8.96958
-9.55069
-10.1006
-10.664
-11.2246
-11.7666
-12.2774
-12.7452
-13.1596
-13.5117
-13.795
-14.0048
-14.1372
-14.1875
-14.1464
-14.003
-13.7372
-13.3183
-12.7186
-11.9084
-10.8539
-9.50507
-7.46385
-2.8676
-7.70956
-8.26035
-8.84762
-9.40112
-9.92582
-10.4189
-10.8772
-11.2983
-11.6798
-12.0173
-12.3022
-12.5234
-12.6641
-12.7082
-12.6324
-12.402
-11.9682
-11.2589
-10.1809
-8.60866
-6.36939
-3.23314
0.963201
6.10989
-6.16203
-6.84501
-7.4918
-8.10655
-8.70166
-9.27393
-9.81594
-10.3168
-10.7645
-11.144
-11.4397
-11.6349
-11.7059
-11.6275
-11.3703
-10.8971
-10.1589
-9.08965
-7.60327
-5.59342
-2.94373
0.439561
4.5348
9.10034
-4.90968
-5.44113
-6.03372
-6.6323
-7.20387
-7.74261
-8.24187
-8.69102
-9.07737
-9.38628
-9.60152
-9.70633
-9.68237
-9.50482
-9.142
-8.55328
-7.68989
-6.49484
-4.89761
-2.82623
-0.221111
2.92871
6.55353
10.472
-3.65423
-4.04254
-4.59585
-5.1592
-5.69304
-6.19284
-6.65262
-7.05957
-7.39805
-7.65508
-7.81579
-7.86422
-7.7811
-7.53826
-7.10432
-6.44193
-5.50719
-4.24904
-2.61323
-0.552408
1.96421
4.9359
8.29987
11.8902
-2.21404
-2.66897
-3.1855
-3.70082
-4.18636
-4.63699
-5.04879
-5.40833
-5.70181
-5.9138
-6.02906
-6.03197
-5.90547
-5.6243
-5.15767
-4.46672
-3.50708
-2.23489
-0.608684
1.41432
3.84972
6.69239
9.88242
13.293
-1.06755
-1.38074
-1.84624
-2.30943
-2.74279
-3.14137
-3.50897
-3.82917
-4.08874
-4.26959
-4.35273
-4.32347
-4.169
-3.8672
-3.39202
-2.69347
-1.73653
-0.476692
1.13617
3.13267
5.48436
8.21272
11.2656
14.5325
0.0912587
-0.159977
-0.575649
-0.993142
-1.38477
-1.72519
-2.04959
-2.33369
-2.57038
-2.73412
-2.79637
-2.73551
-2.55572
-2.23906
-1.78172
-1.10888
-0.174339
1.07066
2.67718
4.72458
7.06603
9.75054
12.7029
15.9313
1.16186
0.987266
0.61394
0.233572
-0.137647
-0.39094
-0.669352
-0.932425
-1.16569
-1.33368
-1.373
-1.23811
-1.0314
-0.706176
-0.30874
0.313273
1.18405
2.34457
3.80234
5.90507
8.10187
10.6061
13.3312
16.4829
2.12954
2.03934
1.70494
1.29077
1.00897
0.873388
0.715784
0.366644
-0.0682207
-0.460324
-0.623438
-0.162671
0.38403
0.746875
0.958593
1.35266
2.3018
4.01172
6.65221
10.3143
12.5052
14.1126
16.6116
20.4109
6.99315
11.6892
14.6574
17.3454
19.9103
22.319
24.573
26.6865
28.681
30.5834
32.4213
34.2255
36.02
37.8223
39.6424
41.486
43.355
45.2482
47.1639
49.1008
51.0568
53.0135
54.9673
57.1674
11.867
15.2328
17.0117
18.6167
20.347
22.2007
24.1375
26.1195
28.1183
30.1136
32.0908
34.0414
35.9615
37.8515
39.7142
41.5541
43.3768
45.1879
46.9915
48.7946
50.6017
52.4014
54.1906
56.1121
13.6853
17.6677
19.961
21.5362
23.0793
24.6851
26.3517
28.062
29.8001
31.5542
33.3132
35.0699
36.8176
38.553
40.2744
41.9817
43.6752
45.3572
47.0289
48.6943
50.3562
52.012
53.6627
55.353
14.4386
18.2534
20.8722
22.6089
24.245
25.8894
27.55
29.2156
30.8783
32.5346
34.1809
35.8161
37.4393
39.0517
40.6529
42.2445
43.8273
45.4028
46.9716
48.5364
50.0981
51.6555
53.2182
54.836
15.5204
19.0167
21.6917
23.4832
25.1363
26.7807
28.4303
30.0733
31.7029
33.3167
34.912
36.4882
38.0456
39.5848
41.1069
42.6135
44.1066
45.5877
47.0584
48.5215
49.9781
51.4236
52.8699
54.3674
16.7369
20.0294
22.7054
24.5489
26.2016
27.8253
29.4414
31.0434
32.6269
34.1895
35.7297
37.2466
38.7405
40.2118
41.6612
43.0904
44.5005
45.893
47.2699
48.6339
49.9865
51.3206
52.6479
54.0396
17.8303
21.0037
23.6697
25.5712
27.2328
28.8422
30.4298
31.9947
33.5354
35.0503
36.5379
37.9985
39.4326
40.8401
42.2215
43.5799
44.9147
46.2284
47.5201
48.7958
50.0575
51.2958
52.5261
53.8386
19.1513
22.2671
24.8532
26.6712
28.2338
29.7788
31.3183
32.8428
34.3459
35.8213
37.2649
38.6802
40.0681
41.4245
42.749
44.0504
45.3198
46.5658
47.7818
48.9825
50.1686
51.3239
52.4602
53.7125
19.5325
22.801
25.5565
27.4311
29.0133
30.5604
32.0948
33.6082
35.0958
36.5483
37.9553
39.333
40.6848
41.9917
43.2536
44.512
45.716
46.9088
48.0429
49.1773
50.2918
51.3675
52.4214
53.5721
23.4665
26.7723
28.556
29.13
30.0057
31.3434
32.8039
34.2714
35.7282
37.1438
38.487
39.832
41.1703
42.4489
43.6605
44.9482
46.0657
47.2348
48.2781
49.3817
50.4811
51.5137
52.5396
53.5755
-180.591
-170.306
-159.57
-150.543
-140.464
-129.209
-117.677
-106.392
-95.4726
-84.9707
-75.0056
-65.7231
-57.1931
-49.4738
-42.6107
-36.6022
-31.4144
-26.9706
-23.1791
-19.9234
-17.084
-14.5617
-12.2823
-10.2381
-105.797
-105.741
-104.775
-103.26
-101.813
-100.717
-99.6417
-98.0685
-95.7461
-92.6348
-88.7574
-84.1679
-78.9129
-73.1033
-66.9042
-60.5081
-54.1448
-48.0002
-42.2332
-36.9328
-32.1279
-27.8017
-23.8973
-20.4373
-115.599
-115.483
-115.557
-115.56
-115.233
-114.323
-112.784
-110.753
-108.352
-105.511
-102.08
-98.0432
-93.4173
-88.2448
-82.5855
-76.5122
-70.1664
-63.6911
-57.27
-51.0616
-45.1891
-39.726
-34.6824
-30.1205
-106.758
-106.709
-106.575
-106.373
-106.1
-105.736
-105.244
-104.577
-103.654
-102.469
-101.038
-99.2366
-96.8995
-93.9095
-90.2021
-85.7536
-80.6315
-74.9383
-68.8585
-62.5948
-56.3551
-50.3138
-44.5798
-39.3468
-106.747
-106.729
-106.726
-106.698
-106.625
-106.484
-106.242
-105.854
-105.264
-104.42
-103.281
-101.83
-100.026
-97.7809
-95.0144
-91.6409
-87.6148
-82.9119
-77.5973
-71.7962
-65.6956
-59.499
-53.367
-47.5327
-104.405
-104.387
-104.355
-104.3
-104.215
-104.093
-103.919
-103.678
-103.344
-102.885
-102.263
-101.421
-100.312
-98.8752
-97.0204
-94.6491
-91.6791
-88.0356
-83.6908
-78.6827
-73.1242
-67.2005
-61.0581
-55.465
-103.463
-103.451
-103.438
-103.412
-103.367
-103.294
-103.185
-103.025
-102.796
-102.472
-102.027
-101.424
-100.618
-99.5612
-98.1913
-96.4216
-94.1656
-91.3348
-87.8463
-83.6672
-78.8193
-73.4255
-67.5239
-62.3346
-102.321
-102.31
-102.295
-102.269
-102.227
-102.166
-102.079
-101.958
-101.791
-101.562
-101.252
-100.834
-100.274
-99.5281
-98.5435
-97.2499
-95.5611
-93.3848
-90.6227
-87.2023
-83.0813
-78.3228
-72.8198
-68.2054
-101.482
-101.474
-101.463
-101.443
-101.412
-101.365
-101.299
-101.206
-101.077
-100.902
-100.664
-100.345
-99.9198
-99.3545
-98.6068
-97.6218
-96.3279
-94.6384
-92.4518
-89.6749
-86.2229
-82.1082
-77.107
-72.9125
-100.697
-100.689
-100.678
-100.66
-100.632
-100.592
-100.536
-100.46
-100.356
-100.216
-100.03
-99.7819
-99.4531
-99.0178
-98.441
-97.6789
-96.6743
-95.3516
-93.6178
-91.3745
-88.5153
-85.0146
-80.596
-77.0676
-100.018
-100.012
-100.002
-99.9862
-99.9619
-99.9275
-99.88
-99.8157
-99.7288
-99.6133
-99.4604
-99.2587
-98.9931
-98.6439
-98.1838
-97.5764
-96.7764
-95.7225
-94.3331
-92.5154
-90.1573
-87.2027
-83.3295
-80.3392
-99.4019
-99.3968
-99.3879
-99.3729
-99.3507
-99.3197
-99.2776
-99.2213
-99.1464
-99.0477
-98.9186
-98.7501
-98.5303
-98.2436
-97.8681
-97.3744
-96.7253
-95.8711
-94.7431
-93.2597
-91.3145
-88.8333
-85.4812
-82.9463
-98.8485
-98.8445
-98.836
-98.822
-98.8015
-98.7731
-98.7351
-98.6848
-98.6186
-98.5322
-98.4201
-98.2754
-98.0885
-97.8467
-97.5326
-97.1228
-96.5856
-95.8808
-94.9529
-93.7315
-92.1241
-90.0558
-87.2368
-85.0236
-98.3467
-98.3436
-98.3356
-98.3222
-98.3029
-98.2764
-98.2412
-98.1953
-98.1355
-98.0581
-97.9587
-97.8316
-97.6692
-97.4612
-97.1933
-96.8462
-96.3941
-95.8033
-95.028
-94.0077
-92.6605
-90.9066
-88.4944
-86.3621
-97.8929
-97.8904
-97.8826
-97.8696
-97.8511
-97.8261
-97.7931
-97.7505
-97.6957
-97.6253
-97.5356
-97.422
-97.2782
-97.0958
-96.8632
-96.5646
-96.1785
-95.6761
-95.02
-94.1599
-93.026
-91.5436
-89.5127
-87.7955
-97.4796
-97.4776
-97.4701
-97.4576
-97.44
-97.4163
-97.3854
-97.3456
-97.2948
-97.2303
-97.1485
-97.0457
-96.9167
-96.7547
-96.5501
-96.2896
-95.9553
-95.5234
-94.9624
-94.231
-93.2707
-92.0169
-90.3146
-88.8571
-97.1031
-97.1015
-97.0942
-97.0824
-97.0655
-97.0431
-97.0139
-96.9767
-96.9295
-96.8699
-96.7948
-96.7009
-96.5841
-96.4386
-96.2564
-96.0266
-95.734
-95.3586
-94.8727
-94.2409
-93.4113
-92.3199
-90.8241
-89.3869
-96.7588
-96.7573
-96.7504
-96.739
-96.723
-96.7018
-96.6744
-96.6395
-96.5955
-96.5404
-96.4712
-96.3851
-96.2786
-96.1469
-95.9833
-95.7786
-95.5199
-95.1898
-94.7648
-94.2143
-93.4927
-92.542
-91.2419
-89.9144
-96.4416
-96.4402
-96.4336
-96.4228
-96.4077
-96.3876
-96.3619
-96.3293
-96.2884
-96.2373
-96.1735
-96.0944
-95.997
-95.8772
-95.7295
-95.546
-95.3157
-95.0239
-94.6503
-94.1683
-93.5398
-92.7161
-91.6119
-90.5121
-96.1482
-96.1468
-96.1403
-96.1299
-96.1154
-96.0965
-96.0722
-96.0417
-96.0035
-95.9561
-95.8971
-95.8243
-95.7348
-95.6254
-95.4913
-95.3257
-95.1192
-94.8589
-94.527
-94.0996
-93.5428
-92.81
-91.8318
-90.8265
-95.8711
-95.8698
-95.8636
-95.8537
-95.8401
-95.8222
-95.7995
-95.7711
-95.7355
-95.6916
-95.6371
-95.57
-95.4878
-95.3877
-95.2655
-95.1157
-94.9299
-94.6971
-94.402
-94.0239
-93.5341
-92.8896
-92.0244
-91.354
-95.6078
-95.6066
-95.6006
-95.5913
-95.5784
-95.5616
-95.5403
-95.5136
-95.4804
-95.4395
-95.3889
-95.3267
-95.2506
-95.158
-95.0455
-94.9079
-94.7377
-94.5249
-94.255
-93.9075
-93.452
-92.8456
-92.0002
-90.8043
-95.3537
-95.3527
-95.3471
-95.3384
-95.3263
-95.3106
-95.2906
-95.2657
-95.2347
-95.1965
-95.1494
-95.0916
-95.0209
-94.9351
-94.831
-94.7043
-94.5483
-94.3541
-94.109
-93.7955
-93.3875
-92.8496
-92.1393
-91.5053
-95.1088
-95.1077
-95.1022
-95.0938
-95.0823
-95.0673
-95.0485
-95.025
-94.9959
-94.9602
-94.9161
-94.8621
-94.7961
-94.7161
-94.6193
-94.5016
-94.3572
-94.178
-93.9527
-93.6651
-93.2928
-92.808
-92.1717
-91.3084
-94.8669
-94.8658
-94.8607
-94.8527
-94.8418
-94.8278
-94.8101
-94.7882
-94.761
-94.7276
-94.6865
-94.6361
-94.5746
-94.4999
-94.4095
-94.2999
-94.166
-94.0002
-93.7923
-93.5281
-93.1885
-92.7473
-92.1611
-91.2899
-94.6272
-94.6262
-94.6213
-94.6138
-94.6036
-94.5904
-94.5739
-94.5533
-94.528
-94.4969
-94.4586
-94.4117
-94.3542
-94.2846
-94.2003
-94.0982
-93.9735
-93.8196
-93.6273
-93.3835
-93.0714
-92.6674
-92.1323
-91.297
-94.3866
-94.3857
-94.3811
-94.3741
-94.3646
-94.3524
-94.337
-94.318
-94.2945
-94.2657
-94.2302
-94.1868
-94.1335
-94.0688
-93.9904
-93.8954
-93.7795
-93.6366
-93.4584
-93.2333
-92.9459
-92.5755
-92.0875
-91.3024
-94.1434
-94.1426
-94.1383
-94.1319
-94.123
-94.1117
-94.0975
-94.08
-94.0584
-94.0319
-93.9993
-93.9593
-93.9102
-93.8505
-93.7779
-93.69
-93.5826
-93.4505
-93.2858
-93.078
-92.8133
-92.4705
-92.0162
-91.3122
-93.8956
-93.8947
-93.8906
-93.8845
-93.8763
-93.8659
-93.8528
-93.8368
-93.817
-93.7928
-93.763
-93.7265
-93.6817
-93.627
-93.5605
-93.4798
-93.3814
-93.2605
-93.1103
-92.9223
-92.6838
-92.3682
-91.9503
-91.6266
-93.6391
-93.6384
-93.6347
-93.6291
-93.6216
-93.6121
-93.6002
-93.5857
-93.5677
-93.5457
-93.5187
-93.4855
-93.4447
-93.3948
-93.334
-93.2601
-93.1697
-93.0586
-92.9205
-92.7476
-92.5271
-92.2334
-91.8404
-91.6162
-93.3738
-93.3731
-93.3696
-93.3645
-93.3576
-93.3489
-93.3381
-93.3248
-93.3084
-93.2885
-93.2639
-93.2337
-93.1964
-93.1507
-93.0948
-93.0266
-92.9427
-92.839
-92.709
-92.5433
-92.3303
-92.065
-91.7298
-90.9562
-93.0973
-93.0967
-93.0935
-93.0889
-93.0825
-93.0746
-93.0647
-93.0526
-93.0378
-93.0196
-92.9973
-92.9698
-92.9358
-92.8939
-92.8425
-92.7794
-92.7017
-92.6051
-92.4836
-92.3284
-92.1296
-91.8892
-91.6032
-90.8807
-92.8089
-92.8084
-92.8054
-92.8011
-92.7954
-92.7881
-92.7791
-92.7681
-92.7546
-92.7382
-92.7178
-92.6927
-92.6616
-92.6232
-92.5759
-92.5176
-92.4453
-92.3552
-92.2416
-92.097
-91.9115
-91.674
-91.3716
-91.0168
-92.508
-92.5075
-92.5048
-92.5009
-92.4956
-92.489
-92.4808
-92.4708
-92.4585
-92.4435
-92.4249
-92.402
-92.3735
-92.3382
-92.2943
-92.24
-92.1722
-92.0871
-91.979
-91.8399
-91.658
-91.415
-91.0849
-90.6767
-92.1944
-92.194
-92.1915
-92.1879
-92.183
-92.1769
-92.1694
-92.1603
-92.1491
-92.1354
-92.1185
-92.0976
-92.0715
-92.0391
-91.9988
-91.9486
-91.8858
-91.8066
-91.7057
-91.5761
-91.4078
-91.1863
-90.8907
-90.542
-91.8677
-91.8674
-91.8651
-91.8618
-91.8573
-91.8517
-91.8448
-91.8365
-91.8262
-91.8137
-91.7983
-91.7792
-91.7554
-91.7257
-91.6886
-91.6423
-91.5841
-91.5105
-91.4164
-91.2951
-91.1372
-90.9296
-90.6515
-90.3185
-91.5281
-91.5278
-91.5257
-91.5227
-91.5185
-91.5134
-91.507
-91.4994
-91.4899
-91.4784
-91.4642
-91.4467
-91.4248
-91.3976
-91.3635
-91.321
-91.2674
-91.1993
-91.1122
-91
-90.854
-90.6644
-90.4184
-90.1176
-91.1764
-91.1761
-91.1742
-91.1713
-91.1674
-91.1626
-91.1566
-91.1494
-91.1405
-91.1298
-91.1165
-91.1002
-91.0798
-91.0544
-91.0228
-90.9832
-90.9334
-90.8701
-90.7889
-90.684
-90.547
-90.367
-90.1382
-89.9097
-90.8133
-90.813
-90.8112
-90.8084
-90.8047
-90.8001
-90.7943
-90.7874
-90.7788
-90.7684
-90.7556
-90.74
-90.7205
-90.6964
-90.6663
-90.6289
-90.5818
-90.5222
-90.4459
-90.3478
-90.2207
-90.0522
-89.8268
-89.6696
-90.4403
-90.44
-90.4382
-90.4355
-90.4318
-90.4272
-90.4215
-90.4146
-90.4061
-90.3958
-90.383
-90.3675
-90.3482
-90.3243
-90.2946
-90.2576
-90.2112
-90.1523
-90.0766
-89.9781
-89.8492
-89.6781
-89.4321
-89.0316
-90.0583
-90.058
-90.0563
-90.0537
-90.0501
-90.0455
-90.0398
-90.0328
-90.0242
-90.0138
-90.0008
-89.985
-89.9654
-89.9412
-89.9111
-89.8737
-89.8267
-89.767
-89.69
-89.5893
-89.4552
-89.2732
-89.024
-88.6788
-89.6704
-89.6702
-89.6685
-89.6658
-89.6621
-89.6575
-89.6517
-89.6446
-89.6358
-89.6251
-89.6119
-89.5957
-89.5756
-89.5509
-89.5202
-89.4822
-89.4346
-89.3745
-89.2978
-89.1988
-89.0701
-88.9013
-88.6801
-88.463
-89.2782
-89.2778
-89.2761
-89.2734
-89.2697
-89.265
-89.2591
-89.2518
-89.2429
-89.232
-89.2185
-89.202
-89.1815
-89.1562
-89.1249
-89.0861
-89.0376
-88.9767
-88.8986
-88.7976
-88.6664
-88.5
-88.2777
-87.7151
-88.8826
-88.8822
-88.8804
-88.8776
-88.8739
-88.8692
-88.8633
-88.856
-88.847
-88.8361
-88.8225
-88.8059
-88.7854
-88.7601
-88.7287
-88.69
-88.642
-88.5819
-88.506
-88.4098
-88.2871
-88.1271
-87.9163
-87.8164
-88.4837
-88.4834
-88.4817
-88.4791
-88.4755
-88.471
-88.4652
-88.4581
-88.4492
-88.4385
-88.4251
-88.4087
-88.3884
-88.3633
-88.3323
-88.294
-88.2464
-88.1869
-88.1118
-88.0157
-87.892
-87.7353
-87.5286
-87.0555
-88.0837
-88.0835
-88.0819
-88.0794
-88.0759
-88.0715
-88.0659
-88.0591
-88.0505
-88.0401
-88.0271
-88.0112
-87.9916
-87.9674
-87.9374
-87.9005
-87.8548
-87.7982
-87.7276
-87.6391
-87.5276
-87.3854
-87.2157
-87.1589
-87.6835
-87.683
-87.6812
-87.6787
-87.6752
-87.6709
-87.6654
-87.6588
-87.6506
-87.6406
-87.6282
-87.613
-87.5942
-87.571
-87.5424
-87.507
-87.4632
-87.4089
-87.3412
-87.2561
-87.1483
-87.0101
-86.8368
-86.6458
-87.2794
-87.279
-87.2774
-87.275
-87.2718
-87.2677
-87.2626
-87.2564
-87.2488
-87.2394
-87.2278
-87.2136
-87.1959
-87.1741
-87.147
-87.1136
-87.0721
-87.0206
-86.9561
-86.8751
-86.7725
-86.6402
-86.4681
-86.2241
-86.8728
-86.8726
-86.8711
-86.8689
-86.8659
-86.8621
-86.8575
-86.8518
-86.8447
-86.8361
-86.8255
-86.8124
-86.796
-86.7758
-86.7506
-86.7194
-86.6805
-86.6321
-86.5715
-86.4954
-86.3996
-86.275
-86.1083
-85.9814
-86.4631
-86.4629
-86.4616
-86.4596
-86.4569
-86.4535
-86.4493
-86.4442
-86.4378
-86.43
-86.4203
-86.4085
-86.3936
-86.3751
-86.352
-86.3232
-86.2871
-86.2418
-86.1845
-86.1113
-86.0177
-85.9003
-85.7429
-85.3442
-86.0511
-86.0506
-86.0492
-86.0472
-86.0446
-86.0414
-86.0375
-86.0328
-86.0271
-86.0201
-86.0115
-86.0009
-85.9877
-85.9712
-85.9505
-85.9248
-85.8925
-85.8519
-85.801
-85.737
-85.6567
-85.555
-85.435
-85.4381
-85.6322
-85.6318
-85.6305
-85.6287
-85.6264
-85.6236
-85.6201
-85.616
-85.611
-85.6049
-85.5973
-85.5881
-85.5764
-85.5619
-85.5435
-85.5206
-85.4915
-85.4547
-85.4078
-85.3477
-85.27
-85.1665
-85.026
-84.8719
-85.2073
-85.2071
-85.2061
-85.2045
-85.2026
-85.2001
-85.1971
-85.1936
-85.1892
-85.1839
-85.1773
-85.1692
-85.1589
-85.1462
-85.1301
-85.1099
-85.0843
-85.0518
-85.0103
-84.9572
-84.8897
-84.805
-84.7013
-84.5679
-84.7768
-84.7766
-84.7757
-84.7743
-84.7725
-84.7704
-84.7677
-84.7646
-84.7608
-84.7561
-84.7503
-84.7432
-84.7341
-84.7227
-84.7084
-84.6903
-84.6672
-84.6376
-84.5995
-84.5498
-84.4847
-84.4018
-84.3026
-84.1378
-84.34
-84.3399
-84.3391
-84.3379
-84.3364
-84.3345
-84.3321
-84.3293
-84.3258
-84.3216
-84.3163
-84.3099
-84.3016
-84.2913
-84.2782
-84.2617
-84.2405
-84.2134
-84.178
-84.1316
-84.0704
-83.9905
-83.8872
-83.7416
-83.8984
-83.8981
-83.8972
-83.8959
-83.8943
-83.8925
-83.8902
-83.8876
-83.8843
-83.8804
-83.8754
-83.8694
-83.8616
-83.8519
-83.8396
-83.824
-83.804
-83.7781
-83.7443
-83.6994
-83.6395
-83.5585
-83.447
-83.2918
-83.4495
-83.4492
-83.4484
-83.4473
-83.4458
-83.4441
-83.442
-83.4395
-83.4364
-83.4327
-83.428
-83.4222
-83.4148
-83.4054
-83.3935
-83.3783
-83.3588
-83.3336
-83.3006
-83.2568
-83.1983
-83.1206
-83.0194
-82.8743
-82.995
-82.9948
-82.9941
-82.993
-82.9916
-82.99
-82.988
-82.9857
-82.9827
-82.9792
-82.9746
-82.969
-82.9618
-82.9525
-82.9407
-82.9257
-82.9062
-82.8808
-82.8473
-82.802
-82.7399
-82.6539
-82.5367
-82.3436
-82.5352
-82.535
-82.5344
-82.5334
-82.5321
-82.5306
-82.5288
-82.5266
-82.5239
-82.5205
-82.5162
-82.5108
-82.5038
-82.4948
-82.4833
-82.4686
-82.4495
-82.4247
-82.3922
-82.3489
-82.2908
-82.2127
-82.1083
-81.9665
-82.0705
-82.0704
-82.0699
-82.069
-82.0679
-82.0666
-82.065
-82.063
-82.0605
-82.0574
-82.0533
-82.0482
-82.0415
-82.0329
-82.0218
-82.0074
-81.9889
-81.9648
-81.9332
-81.8911
-81.8348
-81.7615
-81.675
-81.5375
-81.6032
-81.6029
-81.6022
-81.6013
-81.6001
-81.5988
-81.5972
-81.5954
-81.593
-81.5901
-81.5863
-81.5815
-81.5752
-81.567
-81.5564
-81.5428
-81.525
-81.502
-81.4718
-81.4318
-81.3787
-81.3099
-81.2263
-81.1009
-81.1296
-81.1294
-81.1288
-81.128
-81.127
-81.1259
-81.1245
-81.123
-81.1209
-81.1184
-81.115
-81.1107
-81.1049
-81.0974
-81.0875
-81.0745
-81.0577
-81.0356
-81.0065
-80.9679
-80.9162
-80.8483
-80.7639
-80.6422
-80.6513
-80.6511
-80.6507
-80.65
-80.6492
-80.6483
-80.6472
-80.646
-80.6444
-80.6423
-80.6395
-80.6358
-80.6307
-80.624
-80.6149
-80.603
-80.5872
-80.5662
-80.5383
-80.5005
-80.4489
-80.3779
-80.2808
-80.1398
-80.168
-80.1679
-80.1676
-80.1672
-80.1666
-80.1661
-80.1653
-80.1645
-80.1634
-80.1619
-80.1597
-80.1568
-80.1526
-80.147
-80.1391
-80.1286
-80.1145
-80.0956
-80.0702
-80.0362
-79.9904
-79.9284
-79.8438
-79.7488
-79.6815
-79.6811
-79.6807
-79.6802
-79.6797
-79.6792
-79.6787
-79.6782
-79.6775
-79.6765
-79.6751
-79.6731
-79.6699
-79.6655
-79.6591
-79.6503
-79.6381
-79.6215
-79.5988
-79.5678
-79.5254
-79.47
-79.4068
-79.3027
-79.1868
-79.1865
-79.1863
-79.186
-79.1858
-79.1857
-79.1857
-79.1857
-79.1856
-79.1854
-79.1848
-79.1838
-79.1818
-79.1788
-79.174
-79.1671
-79.1572
-79.1432
-79.1237
-79.0964
-79.0586
-79.0082
-78.9484
-78.883
-78.6862
-78.686
-78.6859
-78.6858
-78.6858
-78.686
-78.6863
-78.6869
-78.6874
-78.6879
-78.6882
-78.6883
-78.6876
-78.6861
-78.683
-78.6781
-78.6705
-78.6591
-78.6424
-78.6181
-78.5833
-78.5343
-78.4667
-78.3581
-78.1777
-78.1776
-78.1776
-78.1778
-78.1781
-78.1787
-78.1796
-78.1807
-78.1819
-78.1833
-78.1846
-78.1858
-78.1864
-78.1865
-78.1853
-78.1826
-78.1775
-78.1691
-78.1559
-78.1358
-78.1061
-78.0634
-78.0033
-77.9099
-77.6619
-77.662
-77.6622
-77.6625
-77.6632
-77.6642
-77.6654
-77.6671
-77.6689
-77.6711
-77.6733
-77.6756
-77.6776
-77.6792
-77.6799
-77.6794
-77.6769
-77.6716
-77.662
-77.6463
-77.6216
-77.585
-77.5352
-77.4651
-77.1391
-77.139
-77.1391
-77.1395
-77.1403
-77.1415
-77.143
-77.1451
-77.1476
-77.1504
-77.1535
-77.1569
-77.1602
-77.1633
-77.1658
-77.1675
-77.1675
-77.1652
-77.1593
-77.1478
-77.1284
-77.0985
-77.0599
-77.0156
-76.606
-76.606
-76.6062
-76.6068
-76.6078
-76.6094
-76.6114
-76.6139
-76.617
-76.6206
-76.6246
-76.6289
-76.6334
-76.638
-76.6422
-76.6457
-76.648
-76.6483
-76.6452
-76.6366
-76.6197
-76.5918
-76.5507
-76.4661
-76.0629
-76.063
-76.0634
-76.0643
-76.0656
-76.0676
-76.07
-76.0732
-76.0769
-76.0812
-76.086
-76.0913
-76.097
-76.1029
-76.1087
-76.1141
-76.1185
-76.1212
-76.1209
-76.1154
-76.102
-76.0762
-76.0307
-75.9504
-75.5111
-75.5112
-75.5118
-75.5129
-75.5145
-75.5167
-75.5195
-75.5231
-75.5273
-75.5322
-75.5378
-75.544
-75.5507
-75.5579
-75.5651
-75.5721
-75.5786
-75.5838
-75.5865
-75.5848
-75.5762
-75.5576
-75.5266
-75.4839
-74.9506
-74.9506
-74.9511
-74.9521
-74.9538
-74.9563
-74.9593
-74.9633
-74.9679
-74.9734
-74.9796
-74.9866
-74.9943
-75.0025
-75.011
-75.0196
-75.0279
-75.035
-75.0399
-75.0407
-75.0345
-75.0196
-74.9999
-74.9495
-74.3787
-74.3788
-74.3795
-74.3808
-74.3827
-74.3855
-74.3889
-74.3933
-74.3984
-74.4045
-74.4114
-74.4191
-74.4276
-74.4368
-74.4465
-74.4564
-74.4661
-74.4751
-74.482
-74.4849
-74.481
-74.4668
-74.4415
-74.3906
-73.7974
-73.7975
-73.7984
-73.7998
-73.802
-73.805
-73.8088
-73.8136
-73.8192
-73.8258
-73.8333
-73.8417
-73.8511
-73.8612
-73.8718
-73.8829
-73.894
-73.9045
-73.9132
-73.9186
-73.9185
-73.9095
-73.8864
-73.8617
-73.2068
-73.207
-73.2079
-73.2095
-73.2119
-73.2151
-73.2192
-73.2243
-73.2303
-73.2374
-73.2455
-73.2546
-73.2646
-73.2755
-73.2871
-73.2992
-73.3113
-73.3226
-73.3319
-73.3367
-73.3332
-73.3159
-73.2718
-73.0917
-72.6064
-72.6066
-72.6077
-72.6095
-72.6121
-72.6157
-72.6201
-72.6255
-72.632
-72.6396
-72.6482
-72.658
-72.6689
-72.6808
-72.6935
-72.7069
-72.7208
-72.7343
-72.7467
-72.7562
-72.7602
-72.7535
-72.7374
-72.8163
-71.9982
-71.9982
-71.9992
-72.0009
-72.0036
-72.0073
-72.0118
-72.0175
-72.0243
-72.0323
-72.0415
-72.0519
-72.0635
-72.0763
-72.0901
-72.1048
-72.1202
-72.1356
-72.1502
-72.1626
-72.1708
-72.1762
-72.1866
-72.133
-71.3785
-71.3787
-71.3798
-71.3818
-71.3848
-71.3887
-71.3937
-71.3998
-71.407
-71.4155
-71.4252
-71.4363
-71.4486
-71.4622
-71.4769
-71.4927
-71.5093
-71.5261
-71.5424
-71.5565
-71.5666
-71.5721
-71.5681
-71.47
-70.7511
-70.7512
-70.7525
-70.7546
-70.7576
-70.7617
-70.7669
-70.7732
-70.7807
-70.7896
-70.7998
-70.8113
-70.8242
-70.8386
-70.8541
-70.8709
-70.8885
-70.9065
-70.924
-70.9396
-70.9502
-70.9498
-70.9358
-70.9631
-70.114
-70.1142
-70.1155
-70.1178
-70.121
-70.1254
-70.1308
-70.1375
-70.1453
-70.1546
-70.1652
-70.1773
-70.1908
-70.2058
-70.2221
-70.2397
-70.2583
-70.2774
-70.2961
-70.3133
-70.3262
-70.3307
-70.3252
-70.3696
-69.4688
-69.469
-69.4705
-69.473
-69.4764
-69.481
-69.4866
-69.4935
-69.5016
-69.5112
-69.5222
-69.5347
-69.5488
-69.5644
-69.5814
-69.5998
-69.6192
-69.639
-69.6583
-69.675
-69.6864
-69.6913
-69.6775
-69.4487
-68.8168
-68.8168
-68.8182
-68.8206
-68.8241
-68.8287
-68.8344
-68.8415
-68.8498
-68.8597
-68.871
-68.8839
-68.8984
-68.9146
-68.9324
-68.9519
-68.9727
-68.9944
-69.0165
-69.0378
-69.0567
-69.0672
-69.0649
-69.2186
-68.1559
-68.1561
-68.1576
-68.1601
-68.1638
-68.1685
-68.1744
-68.1816
-68.1901
-68.2002
-68.2117
-68.2249
-68.2398
-68.2565
-68.2749
-68.2951
-68.3167
-68.3396
-68.3629
-68.3851
-68.4038
-68.4169
-68.4139
-68.2614
-67.4877
-67.488
-67.4896
-67.4923
-67.496
-67.5009
-67.5069
-67.5143
-67.523
-67.5332
-67.5449
-67.5582
-67.5733
-67.5902
-67.6091
-67.6298
-67.6525
-67.677
-67.7032
-67.7307
-67.7584
-67.7837
-67.8123
-68.0126
-66.8134
-66.8137
-66.8155
-66.8183
-66.8221
-66.8271
-66.8332
-66.8406
-66.8493
-66.8594
-66.8711
-66.8843
-66.8993
-66.916
-66.9345
-66.9549
-66.9771
-67.001
-67.026
-67.0508
-67.0725
-67.0868
-67.0926
-67.0711
-66.1346
-66.1347
-66.1363
-66.139
-66.1428
-66.1477
-66.1538
-66.1612
-66.1698
-66.1799
-66.1914
-66.2044
-66.219
-66.2354
-66.2534
-66.2732
-66.2947
-66.3178
-66.342
-66.3663
-66.3889
-66.4083
-66.4222
-66.4046
-65.4498
-65.45
-65.4517
-65.4545
-65.4583
-65.4633
-65.4694
-65.4768
-65.4854
-65.4953
-65.5067
-65.5195
-65.5337
-65.5495
-65.5668
-65.5856
-65.6057
-65.6271
-65.6489
-65.67
-65.688
-65.6982
-65.6902
-65.6309
-64.7609
-64.7611
-64.7628
-64.7657
-64.7696
-64.7746
-64.7808
-64.7882
-64.7968
-64.8068
-64.8181
-64.8307
-64.8447
-64.8601
-64.8768
-64.8948
-64.9139
-64.9339
-64.9541
-64.9735
-64.9901
-64.9979
-64.9835
-64.9905
-64.0681
-64.0683
-64.0701
-64.073
-64.077
-64.0821
-64.0885
-64.0961
-64.1048
-64.1149
-64.1263
-64.139
-64.1529
-64.1681
-64.1845
-64.202
-64.2201
-64.2388
-64.257
-64.2731
-64.2842
-64.2855
-64.2697
-64.1911
-63.3716
-63.3719
-63.3739
-63.377
-63.3812
-63.3865
-63.3931
-63.4009
-63.4099
-63.4202
-63.4319
-63.4449
-63.4591
-63.4746
-63.4912
-63.5088
-63.5272
-63.546
-63.5645
-63.5816
-63.5956
-63.6049
-63.6041
-63.5587
-62.674
-62.6741
-62.6758
-62.6788
-62.683
-62.6883
-62.695
-62.703
-62.7122
-62.7229
-62.7349
-62.7483
-62.7631
-62.7791
-62.7964
-62.8147
-62.8337
-62.8532
-62.8725
-62.8902
-62.9045
-62.9113
-62.9056
-62.8983
-61.9702
-61.9704
-61.9724
-61.9755
-61.98
-61.9856
-61.9926
-62.001
-62.0107
-62.0219
-62.0346
-62.0488
-62.0643
-62.0814
-62.0997
-62.1191
-62.1396
-62.1608
-62.1821
-62.2027
-62.2212
-62.2353
-62.2399
-62.2353
-61.2627
-61.263
-61.265
-61.2684
-61.273
-61.2789
-61.2863
-61.2952
-61.3054
-61.3172
-61.3306
-61.3456
-61.3621
-61.3803
-61.3999
-61.4209
-61.443
-61.4661
-61.4895
-61.5124
-61.5333
-61.549
-61.5522
-61.5361
-60.55
-60.5504
-60.5526
-60.5562
-60.5611
-60.5674
-60.5753
-60.5846
-60.5954
-60.608
-60.6221
-60.6381
-60.6557
-60.6752
-60.6962
-60.7189
-60.7429
-60.7682
-60.7943
-60.8203
-60.8451
-60.8652
-60.8714
-60.8843
-59.834
-59.8341
-59.8363
-59.8399
-59.8449
-59.8514
-59.8595
-59.8692
-59.8806
-59.8937
-59.9087
-59.9255
-59.9443
-59.9651
-59.9877
-60.0121
-60.0381
-60.0656
-60.094
-60.1221
-60.148
-60.1684
-60.1792
-60.1527
-59.1096
-59.1099
-59.1123
-59.1161
-59.1215
-59.1285
-59.137
-59.1473
-59.1593
-59.1733
-59.1891
-59.207
-59.227
-59.2492
-59.2735
-59.2998
-59.3282
-59.3585
-59.3904
-59.4232
-59.4563
-59.4878
-59.5134
-59.5486
-58.3795
-58.3798
-58.3823
-58.3863
-58.392
-58.3993
-58.4083
-58.4191
-58.4317
-58.4464
-58.4631
-58.4821
-58.5032
-58.5267
-58.5526
-58.5807
-58.611
-58.6435
-58.6776
-58.7125
-58.7461
-58.7748
-58.7934
-58.775
-57.6414
-57.6417
-57.6443
-57.6487
-57.6547
-57.6624
-57.672
-57.6834
-57.6968
-57.7123
-57.73
-57.75
-57.7723
-57.7972
-57.8246
-57.8545
-57.887
-57.922
-57.9594
-57.9987
-58.0392
-58.0757
-58.0982
-58.1968
-56.8966
-56.897
-56.8999
-56.9045