/*--------------------------------*- C++ -*----------------------------------*\
| =========                 |                                                 |
| \\      /  F ield         | OpenFOAM: The Open Source CFD Toolbox           |
|  \\    /   O peration     | Version:  2.3.0                                 |
|   \\  /    A nd           | Web:      www.OpenFOAM.org                      |
|    \\/     M anipulation  |                                                 |
\*---------------------------------------------------------------------------*/
FoamFile
{
    version     2.0;
    format      ascii;
    class       surfaceScalarField;
    location    "4000";
    object      phi;
}
// * * * * * * * * * * * * * * * * * * * * * * * * * * * * * * * * * * * * * //

dimensions      [0 3 -1 0 0 0 0];

internalField   nonuniform List<scalar> 
29324
(
-0.0106043
-0.0118613
0.0131634
0.00929955
-0.0117311
-0.0108288
0.0119556
-0.0127016
-0.00988417
0.0108546
-0.0135298
-0.00901948
0.00984765
-0.0142315
-0.00822755
0.00892929
-0.0148195
-0.00750169
0.00808969
-0.0153063
-0.00683465
0.00732139
-0.0156967
-0.00622423
0.00661472
-0.0159972
-0.00566299
0.00596347
-0.0162061
-0.00514698
0.00535583
-0.0163272
-0.00466979
0.00479093
-0.0163583
-0.00422912
0.00426021
-0.0162998
-0.00382077
0.00376225
-0.0161564
-0.00343913
0.00329574
-0.0159306
-0.00308292
0.00285714
-0.0156288
-0.00275152
0.00244967
-0.0152637
-0.00243858
0.00207347
-0.0148437
-0.00214514
0.0017252
-0.01438
-0.00187074
0.00140701
-0.0138869
-0.00161122
0.00111811
-0.0133697
-0.00137029
0.000853114
-0.0128471
-0.00114314
0.000620513
-0.0123445
-0.000937937
0.000435329
-0.000750909
-0.011978
0.00038438
-0.00947828
-0.0107259
0.0083429
-0.0104499
-0.00985711
-0.0112707
-0.00906339
-0.0119587
-0.00833152
-0.0125236
-0.00766262
-0.0129784
-0.00704685
-0.0133312
-0.00648192
-0.0135966
-0.00595884
-0.0137795
-0.00548008
-0.0138909
-0.00503557
-0.0139345
-0.00462615
-0.0139179
-0.00424568
-0.0138444
-0.0038943
-0.0137161
-0.00356748
-0.0135361
-0.00326288
-0.0133062
-0.0029814
-0.0130262
-0.0027186
-0.0126966
-0.0024747
-0.0123156
-0.00225176
-0.0118821
-0.00204471
-0.0113969
-0.00185555
-0.0108532
-0.00168682
-0.0102542
-0.00153691
-0.00140486
-0.00960025
-0.00846945
-0.00973326
0.00747679
-0.0093137
-0.00901286
-0.0100256
-0.00835151
-0.010611
-0.00774608
-0.0110878
-0.00718586
-0.011461
-0.0066736
-0.0117423
-0.00620064
-0.0119386
-0.00576256
-0.0120581
-0.0053605
-0.0121077
-0.00498599
-0.0120924
-0.00464145
-0.0120185
-0.00431956
-0.0118906
-0.00402219
-0.011715
-0.00374312
-0.0114925
-0.00348539
-0.0112302
-0.00324366
-0.010931
-0.00301786
-0.0105972
-0.00280851
-0.010234
-0.00261499
-0.00984228
-0.00243639
-0.0094266
-0.00227123
-0.00898971
-0.00212371
-0.0085369
-0.00198972
-0.00187442
-0.00806733
-0.00757467
-0.00886311
0.00670452
-0.00831318
-0.00827435
-0.00892951
-0.00773518
-0.00943829
-0.0072373
-0.00984578
-0.00677837
-0.010163
-0.00635639
-0.0103965
-0.0059671
-0.010555
-0.00560413
-0.0106452
-0.00527021
-0.0106715
-0.00495973
-0.0106428
-0.00467016
-0.0105621
-0.0044003
-0.0104358
-0.00414842
-0.0102655
-0.00391345
-0.0100571
-0.00369373
-0.00981378
-0.00348701
-0.00953655
-0.00329509
-0.00923077
-0.00311429
-0.00889906
-0.0029467
-0.00854375
-0.0027917
-0.00816711
-0.00264788
-0.00777312
-0.0025177
-0.00736283
-0.00240001
-0.00229619
-0.00694106
-0.00677994
-0.0080916
0.00600842
-0.00743016
-0.00762413
-0.00797459
-0.00719075
-0.00841752
-0.00679437
-0.00877223
-0.00642366
-0.00904471
-0.00608392
-0.00924317
-0.00576864
-0.00937363
-0.00547366
-0.00944273
-0.00520111
-0.00945734
-0.00494512
-0.00942121
-0.00470629
-0.00933818
-0.00448333
-0.0092144
-0.0042722
-0.0090526
-0.00407525
-0.00885642
-0.00388991
-0.00862991
-0.00371352
-0.00837682
-0.00354818
-0.00809802
-0.0033931
-0.00779754
-0.00324717
-0.00747726
-0.00311198
-0.00714078
-0.00298436
-0.00678875
-0.00286973
-0.00642481
-0.00276395
-0.0026688
-0.0060522
-0.00607162
-0.00740833
0.00538835
-0.00665081
-0.00704494
-0.00712926
-0.0067123
-0.00752353
-0.0064001
-0.00783432
-0.00611287
-0.00807407
-0.00584417
-0.00824663
-0.00559609
-0.00835868
-0.00536161
-0.00841691
-0.00514288
-0.00842421
-0.00493782
-0.00838633
-0.00474416
-0.00830819
-0.00456147
-0.00819275
-0.00438764
-0.00804337
-0.00422463
-0.0078652
-0.00406808
-0.00765874
-0.00391998
-0.00742671
-0.00378021
-0.00717425
-0.00364555
-0.00690093
-0.0035205
-0.00661207
-0.00340084
-0.00630619
-0.00329025
-0.00598964
-0.00318628
-0.00566123
-0.00309237
-0.00300649
-0.00532354
-0.00544539
-0.006798
0.00483506
-0.00596103
-0.0065293
-0.00638964
-0.00628368
-0.00673838
-0.00605136
-0.00701476
-0.00583649
-0.00722543
-0.0056335
-0.00737833
-0.00544318
-0.00747771
-0.00526222
-0.00752497
-0.00509562
-0.00752948
-0.00493331
-0.00749397
-0.00477967
-0.00742091
-0.00463453
-0.00731409
-0.00449446
-0.00717761
-0.00436111
-0.00701374
-0.00423195
-0.00682569
-0.00410804
-0.0066172
-0.00398869
-0.00638685
-0.0038759
-0.00614064
-0.00376672
-0.00587797
-0.0036635
-0.00560306
-0.00356516
-0.00531478
-0.00347456
-0.00501699
-0.00339016
-0.0033121
-0.00471138
-0.00489222
-0.00624876
0.00434299
-0.00535024
-0.00607128
-0.00573474
-0.00589918
-0.00604458
-0.00574152
-0.00629292
-0.00558815
-0.00648283
-0.0054436
-0.00661677
-0.00530925
-0.00670318
-0.00517581
-0.00674679
-0.00505201
-0.00674887
-0.00493123
-0.00671407
-0.00481447
-0.00664743
-0.00470117
-0.00655066
-0.00459124
-0.00642761
-0.00448415
-0.0062785
-0.00438106
-0.00610846
-0.00427807
-0.00591722
-0.00417993
-0.00570941
-0.00408371
-0.00548545
-0.00399068
-0.00524798
-0.00390097
-0.00499742
-0.00381572
-0.00473673
-0.00373525
-0.00446754
-0.00365935
-0.00359049
-0.00418915
-0.00439579
-0.00576241
0.00390943
-0.00481107
-0.005656
-0.00515223
-0.00555803
-0.00543448
-0.00545927
-0.00565477
-0.00536786
-0.00582292
-0.00527545
-0.00594585
-0.00518632
-0.00602145
-0.00510021
-0.00606141
-0.00501205
-0.0060625
-0.00493015
-0.00603152
-0.00484544
-0.00597031
-0.00476238
-0.00588192
-0.00467963
-0.00576854
-0.00459753
-0.00563444
-0.00451516
-0.00547881
-0.0044337
-0.00530626
-0.00435249
-0.00511867
-0.0042713
-0.00491458
-0.00419478
-0.0046992
-0.00411634
-0.0044715
-0.00404342
-0.00423562
-0.00397113
-0.0039899
-0.00390507
-0.00384301
-0.00373738
-0.00395599
-0.00532101
0.0035146
-0.00432779
-0.0052842
-0.00463833
-0.00524749
-0.00488892
-0.00520868
-0.0050894
-0.00516738
-0.0052418
-0.00512305
-0.00535039
-0.00507773
-0.0054206
-0.00503
-0.00545242
-0.00498023
-0.00545711
-0.00492545
-0.00542742
-0.00487513
-0.00537164
-0.00481816
-0.00529092
-0.00476035
-0.00518857
-0.00469988
-0.00506737
-0.00463637
-0.00492636
-0.00457471
-0.00476877
-0.00451007
-0.00459937
-0.0044407
-0.00441344
-0.00438072
-0.00421647
-0.00431331
-0.00401092
-0.00424897
-0.00379586
-0.00418619
-0.00357454
-0.00412638
-0.0033446
-0.00407295
-0.0107652
-0.000656853
-0.000555901
-0.00982126
-0.000676011
-0.000267964
-0.0089876
-0.000729972
-0.000103682
-0.00822362
-0.000802209
3.82345e-05
-0.00751371
-0.000892235
0.000182329
-0.00684673
-0.000999447
0.000332479
-0.00621966
-0.00112271
0.000495638
-0.00562985
-0.00126429
0.000674477
-0.00507625
-0.00142425
0.000870656
-0.00456271
-0.00160218
0.00108864
-0.00408973
-0.00180148
0.0013285
-0.00366153
-0.00202248
0.00159428
-0.00328303
-0.00226597
0.00188747
-0.002958
-0.00253528
0.00221026
-0.00269065
-0.00283267
0.00256531
-0.00248735
-0.00315981
0.00295651
-0.0023524
-0.00352098
0.00338603
-0.00229136
-0.00391919
0.00385815
-0.00231077
-0.00435939
0.00437879
-0.00241858
-0.00484452
0.00495233
-0.00262327
-0.0053803
0.00558499
-0.00293479
-0.00597206
0.00628358
-0.00336533
-0.00662522
0.00705576
-0.00734887
0.00790993
-0.00392639
-0.00891474
-0.00134236
-0.00824118
-0.00134958
-0.00759883
-0.00137231
-0.00698818
-0.00141286
-0.00640881
-0.0014716
-0.00586177
-0.00154649
-0.005348
-0.00163648
-0.0048672
-0.00174508
-0.00442059
-0.00187086
-0.00400825
-0.00201452
-0.00363394
-0.00217579
-0.0032978
-0.00235862
-0.00300213
-0.00256165
-0.00274962
-0.00278779
-0.00254435
-0.00303794
-0.00238894
-0.00331522
-0.0022899
-0.00362002
-0.00225113
-0.00395796
-0.00228157
-0.00432894
-0.00238792
-0.00473817
-0.00257865
-0.00518957
-0.00286456
-0.00568614
-0.00325635
-0.00623343
-0.00683894
-0.00376628
-0.00758771
-0.00182198
-0.00710868
-0.00182862
-0.00663171
-0.00184928
-0.00616397
-0.0018806
-0.00570808
-0.00192749
-0.00526825
-0.00198631
-0.00484497
-0.00205976
-0.00444223
-0.00214782
-0.00406167
-0.00225142
-0.00370627
-0.00236992
-0.00337828
-0.00250377
-0.00308107
-0.00265584
-0.00281826
-0.00282446
-0.00259382
-0.00301223
-0.0024103
-0.00322145
-0.0022737
-0.00345181
-0.00218813
-0.00370559
-0.00215946
-0.00398663
-0.00219356
-0.00429485
-0.0022971
-0.00463462
-0.00247747
-0.00500921
-0.00274336
-0.00542025
-0.00310376
-0.00587304
-0.00637309
-0.0035696
-0.00651778
-0.00224526
-0.00609899
-0.00224742
-0.00568834
-0.00225993
-0.00528813
-0.0022808
-0.00490077
-0.00231486
-0.00452735
-0.00235973
-0.00417017
-0.00241694
-0.00383117
-0.00248682
-0.00351219
-0.00257039
-0.00321697
-0.00266514
-0.0029453
-0.00277545
-0.00270147
-0.00289966
-0.00248801
-0.00303792
-0.00230749
-0.00319276
-0.00216502
-0.00336392
-0.00206289
-0.00355394
-0.00200528
-0.00376319
-0.00199841
-0.00399351
-0.00204608
-0.00424718
-0.00215564
-0.00452506
-0.00233371
-0.00483114
-0.0025868
-0.00516716
-0.00292414
-0.0055357
-0.00594187
-0.00335537
-0.00567803
-0.00261943
-0.00531109
-0.00261436
-0.0049538
-0.00261722
-0.00460559
-0.00262901
-0.00426997
-0.00265048
-0.00394675
-0.00268295
-0.00363786
-0.00272583
-0.00334462
-0.00278007
-0.00307113
-0.00284388
-0.0028168
-0.00291948
-0.00258548
-0.00300676
-0.00237921
-0.00310594
-0.00220047
-0.00321666
-0.00205129
-0.00334194
-0.00193589
-0.00347931
-0.0018576
-0.00363224
-0.00181996
-0.00380083
-0.00182733
-0.00398613
-0.00188559
-0.00418892
-0.00199827
-0.00441238
-0.00217261
-0.0046568
-0.00241502
-0.00492475
-0.00273222
-0.0052185
-0.00554135
-0.00313273
-0.00498584
-0.00295713
-0.0046572
-0.00294299
-0.00433774
-0.00293669
-0.00402822
-0.00293853
-0.00373031
-0.00294839
-0.00344495
-0.00296831
-0.00317307
-0.00299771
-0.00291779
-0.00303535
-0.00267892
-0.00308276
-0.00245899
-0.00313941
-0.00225956
-0.00320619
-0.00208369
-0.00328181
-0.00193245
-0.00336789
-0.00180995
-0.00346444
-0.00171757
-0.00357169
-0.00165821
-0.0036916
-0.00163678
-0.00382227
-0.00165656
-0.00396635
-0.0017211
-0.00412438
-0.00183635
-0.00429713
-0.00200635
-0.00448679
-0.00223722
-0.00469388
-0.00253527
-0.00492046
-0.00516828
-0.00290835
-0.00440623
-0.00326229
-0.00410925
-0.00323996
-0.00382217
-0.00322378
-0.00354603
-0.00321467
-0.00327963
-0.00321479
-0.00302513
-0.00322281
-0.00278372
-0.00323913
-0.0025572
-0.00326187
-0.00234639
-0.00329357
-0.00215338
-0.00333241
-0.00197986
-0.00337972
-0.001828
-0.00343367
-0.00169992
-0.00349597
-0.0015967
-0.00356766
-0.00152136
-0.00364703
-0.00147759
-0.00373537
-0.00146703
-0.00383282
-0.00149442
-0.00393896
-0.00156327
-0.00405553
-0.00167747
-0.00418294
-0.00184174
-0.00432252
-0.00206102
-0.0044746
-0.00234128
-0.0046402
-0.00482216
-0.0026874
-0.00391221
-0.00353923
-0.00364326
-0.00350891
-0.00338384
-0.0034832
-0.00313399
-0.00346451
-0.00289532
-0.00345347
-0.00266747
-0.00345065
-0.00245138
-0.00345522
-0.00224918
-0.00346407
-0.00206172
-0.00348103
-0.00189145
-0.00350269
-0.00173939
-0.00353177
-0.00160697
-0.0035661
-0.00149587
-0.00360707
-0.0014087
-0.00365483
-0.00134714
-0.00370859
-0.00131362
-0.00376889
-0.00131229
-0.00383415
-0.00134517
-0.00390607
-0.0014157
-0.003985
-0.00152768
-0.00407096
-0.00168481
-0.00416539
-0.00189204
-0.00426737
-0.00215448
-0.00437775
-0.00449914
-0.0024775
-0.00348537
-0.00379124
-0.00324182
-0.00375246
-0.00300665
-0.00371837
-0.002782
-0.00368916
-0.00256635
-0.00366912
-0.00236127
-0.00365572
-0.00216654
-0.00364995
-0.00198441
-0.0036462
-0.00181737
-0.00364807
-0.00166656
-0.0036535
-0.00153194
-0.00366639
-0.00141593
-0.00368211
-0.00131971
-0.00370329
-0.00124508
-0.00372946
-0.00119386
-0.00375981
-0.00116937
-0.00379338
-0.00117291
-0.00383061
-0.0012088
-0.00387018
-0.00127924
-0.00391457
-0.00138773
-0.00396246
-0.00153718
-0.00401594
-0.00173181
-0.00407274
-0.00197641
-0.00413315
-0.00420018
-0.00227537
-0.00311536
-0.00402048
-0.00289337
-0.00397445
-0.00268004
-0.0039317
-0.00247749
-0.00389171
-0.00228377
-0.00386284
-0.00209915
-0.00384034
-0.00192243
-0.00382667
-0.00175849
-0.00381014
-0.0016076
-0.00379896
-0.00147267
-0.00378843
-0.00135367
-0.00378539
-0.00125164
-0.00378414
-0.00116744
-0.0037875
-0.00110199
-0.0037949
-0.00105914
-0.00380266
-0.00104044
-0.00381208
-0.00104886
-0.0038222
-0.00108674
-0.00383229
-0.00115594
-0.00384537
-0.0012589
-0.0038595
-0.00139967
-0.00387517
-0.00158112
-0.0038913
-0.00180988
-0.00390439
-0.00208548
-0.00392458
0.00197384
-0.00141804
0.00153119
-0.00208699
0.00186551
-0.00138258
0.00149091
0.00176873
-0.00131321
0.00141
0.00168789
-0.00121964
0.00130048
0.00162622
-0.0011107
0.00117237
0.00158448
-0.000992455
0.00103419
0.00156162
-0.000869953
0.000892814
0.00155479
-0.000746245
0.000753077
0.0015614
-0.000625331
0.000618729
0.00157672
-0.000508296
0.00049298
0.00159684
-0.000396571
0.000376449
0.00161722
-0.000291305
0.000270927
0.00163311
-0.000192055
0.000176171
0.00164019
-9.91794e-05
9.20969e-05
0.00163283
-1.1295e-05
1.86587e-05
0.00160534
7.29041e-05
-4.54176e-05
0.00155151
0.000154458
-0.000100626
0.00146252
0.000237108
-0.000148118
0.00132884
0.000324127
-0.000190447
0.0011361
0.000422335
-0.000229591
0.000863934
0.000540572
-0.00026841
0.000481136
0.000695088
-0.00031229
-6.30132e-05
0.000912836
-0.000368688
0.0012466
-0.000871931
-0.00043768
0.00179569
-0.00131567
-0.00189805
0.00169301
-0.00127991
0.00159843
-0.00121863
0.00151755
-0.00113876
0.00145244
-0.00104559
0.0014037
-0.000943715
0.00137042
-0.000836674
0.00135123
-0.000727049
0.0013426
-0.0006167
0.001342
-0.000507698
0.0013449
-0.000399469
0.00134759
-0.000293995
0.00134458
-0.000189041
0.00133118
-8.57712e-05
0.00130158
1.82998e-05
0.00124953
0.000124958
0.00116779
0.000236199
0.0010485
0.000356402
0.000881831
0.000490792
0.000656674
0.000647493
0.000360198
0.000837047
-1.8691e-05
0.00107398
-0.000482607
0.00137675
0.00175978
-0.000995792
0.00161991
-0.00121107
-0.00172451
0.00151931
-0.00117931
0.00142696
-0.00112628
0.00134621
-0.00105801
0.0012793
-0.000978682
0.00122601
-0.000890416
0.0011854
-0.000796069
0.00115583
-0.000697473
0.00113537
-0.000596242
0.00112023
-0.00049256
0.00110794
-0.000387178
0.00109354
-0.000279586
0.00107434
-0.000169848
0.00104469
-5.61198e-05
0.00100025
6.27465e-05
0.000935745
0.000189461
0.000844625
0.000327319
0.000720358
0.00048067
0.000555743
0.000655406
0.000343234
0.000860003
7.64618e-05
0.00110382
-0.000249082
0.00139952
-0.000627867
0.00175554
0.00217576
-0.00104384
0.00144897
-0.00111005
-0.00154999
0.00135095
-0.00108128
0.0012611
-0.00103643
0.00118155
-0.000978454
0.00111307
-0.000910201
0.00105676
-0.00083411
0.00101144
-0.000750742
0.000975871
-0.000661904
0.000947323
-0.000567692
0.000924268
-0.000469504
0.000903482
-0.000366391
0.000882045
-0.000258149
0.000855935
-0.000143738
0.000821625
-2.18093e-05
0.000774558
0.000109814
0.000710203
0.000253817
0.000623326
0.000414196
0.000508716
0.00059528
0.000359948
0.000804174
0.000171831
0.00104812
-6.13178e-05
0.00133697
-0.00034201
0.00168022
-0.0006714
0.00208493
0.00255368
-0.00104933
0.00128688
-0.00101404
-0.00138289
0.00119396
-0.000988361
0.00110804
-0.00095052
0.00103142
-0.000901833
0.000965598
-0.000844376
0.000909321
-0.000777833
0.000862999
-0.00070442
0.000825055
-0.000623959
0.000794316
-0.000536952
0.000767869
-0.000443057
0.000744053
-0.000342575
0.000719666
-0.000233762
0.000691882
-0.000115953
0.000657021
1.30516e-05
0.000611365
0.00015547
0.000550821
0.000314362
0.000471378
0.00049364
0.000367764
0.000698894
0.000235192
0.000936747
6.87616e-05
0.00121455
-0.000136239
0.00154197
-0.000384747
0.00192873
-0.000681187
0.00238137
0.00289645
-0.00102395
0.00113913
-0.000921411
-0.00123175
0.00105175
-0.000900982
0.0009716
-0.000870373
0.000899747
-0.00082998
0.000836598
-0.000781227
0.000783318
-0.000724552
0.00073845
-0.000659551
0.000701129
-0.000586638
0.000669869
-0.000505692
0.000643285
-0.000416472
0.00061873
-0.00031802
0.000594402
-0.000209434
0.000567102
-8.86517e-05
0.000533787
4.63668e-05
0.000491272
0.000197985
0.000435802
0.000369832
0.000363306
0.000566135
0.000269921
0.00079228
0.000151844
0.00105482
3.05686e-06
0.00136334
-0.000180544
0.00172557
-0.000404313
0.00215249
-0.000671152
0.00264821
0.00321295
-0.000987653
0.00100543
-0.000836272
-0.00109057
0.000925
-0.000820553
0.000850705
-0.000796077
0.000784714
-0.000763989
0.000726558
-0.00072307
0.000676758
-0.000674753
0.000634771
-0.000617564
0.000599594
-0.000551461
0.000569928
-0.000476026
0.000543845
-0.00039039
0.000519984
-0.000294159
0.000496516
-0.000185966
0.000470992
-6.31275e-05
0.000440486
7.68732e-05
0.00040141
0.00023706
0.000350523
0.00042072
0.000284917
0.000631741
0.000200542
0.000876655
9.29432e-05
0.00116242
-4.05927e-05
0.00149688
-0.000206352
0.00189133
-0.000408112
0.00235425
-0.000653233
0.00289333
0.00350076
-0.000941041
0.000886835
-0.000757586
-0.000965521
0.000813428
-0.000747146
0.000746132
-0.000728781
0.000685748
-0.000703605
0.000632673
-0.000669995
0.000586772
-0.000628851
0.000548355
-0.000579147
0.000515691
-0.000518797
0.000487933
-0.000448267
0.000463572
-0.000366029
0.000441107
-0.000271693
0.00041903
-0.000163889
0.000395556
-3.96531e-05
0.000367892
0.000104537
0.000332677
0.000272275
0.000286637
0.00046676
0.000226352
0.000692026
0.000149206
0.000953801
5.18858e-05
0.00125974
-6.86632e-05
0.00161743
-0.000218568
0.00204123
-0.000402581
0.00253827
-0.000625295
0.00311604
0.00376697
-0.000891504
0.000782844
-0.000685873
-0.000854556
0.000716152
-0.000680454
0.000655536
-0.000668165
0.000600695
-0.000648764
0.000552377
-0.000621677
0.000511095
-0.000587569
0.000475591
-0.000543642
0.000446133
-0.000489338
0.000420876
-0.00042301
0.000398375
-0.000343528
0.000377195
-0.000250513
0.00035666
-0.000143354
0.000335054
-1.80473e-05
0.000310517
0.000129075
0.000279006
0.000303787
0.000237331
0.000508434
0.000182973
0.000746384
0.000112893
0.00102388
2.38292e-05
0.00134881
-8.39983e-05
0.00172525
-0.00022046
0.00217769
-0.000387933
0.00270574
-0.000593623
0.00332173
0.00400944
-0.000836098
0.000691495
-0.000755941
-0.000621427
0.000631354
-0.000620313
0.000576611
-0.000613421
0.000527684
-0.000599837
0.000484465
-0.000578458
0.000446401
-0.000549504
0.000414641
-0.000511882
0.000387571
-0.000462268
0.000364571
-0.00040001
0.000344024
-0.000322981
0.000323665
-0.000230154
0.000305217
-0.000124905
0.000286037
1.1329e-06
0.000264128
0.000150984
0.000235857
0.000332058
0.000197292
0.000546999
0.000146858
0.000796818
8.40869e-05
0.00108665
7.18994e-06
0.0014257
-8.68893e-05
0.00181933
-0.000209889
0.00230069
-0.000364804
0.00286065
-0.000554915
0.00351184
-0.000776151
0.00423068
-0.001234
0.0018459
-0.00148384
-0.00178851
0.00244493
-0.00189042
-0.00241232
0.00282593
-0.00220212
-0.00303457
0.00310584
-0.00248359
-0.00362946
0.00337147
-0.00277657
-0.00418945
0.00363887
-0.00307888
-0.00470695
0.0039159
-0.0033984
-0.00517373
0.00420627
-0.00373949
-0.00558337
0.00451135
-0.00410172
-0.0059298
0.00483477
-0.00448833
-0.00621087
0.00518062
-0.00489954
-0.00641949
0.00554797
-0.00533935
-0.00655119
0.0059466
-0.00581491
-0.0066021
0.00637634
-0.00632542
-0.00656444
0.00683716
-0.00687481
-0.00643315
0.00733627
-0.00746756
-0.00620483
0.00787965
-0.00810797
-0.00586834
0.00846269
-0.00879918
-0.00541585
0.00909998
-0.00955247
-0.00484505
0.00978948
-0.0103603
-0.00414063
0.0105344
-0.0112389
-0.00329308
0.0113427
-0.0121903
-0.00229213
0.0122206
-0.0132216
0.013172
-0.0143333
-0.00113077
-0.00143051
0.00228063
-0.00191393
0.00292834
-0.00248188
0.00339388
-0.00304806
0.00367202
-0.00358121
0.00390462
-0.00407713
0.00413479
-0.00453074
0.00436951
-0.00493463
0.00461016
-0.00528801
0.00486473
-0.00558405
0.00513081
-0.00582141
0.00541798
-0.00599661
0.00572317
-0.00610143
0.00605142
-0.00613221
0.00640713
-0.00608826
0.00679321
-0.0059612
0.0072092
-0.00574312
0.00766157
-0.00543319
0.00815276
-0.00501712
0.00868391
-0.00448991
0.00926226
-0.00384145
0.00988598
-0.00306518
0.0105665
-0.00214956
0.011305
0.0121084
-0.00108595
-0.00148056
0.00271734
-0.00192678
0.00337457
-0.00242972
0.00389682
-0.00293943
0.00418173
-0.00342107
0.00438626
-0.00386502
0.00457874
-0.00426814
0.00477263
-0.00462784
0.00496986
-0.00493746
0.00517434
-0.0052001
0.00539346
-0.00540519
0.00562307
-0.00555409
0.00587207
-0.00564465
0.00614197
-0.00566979
0.00643227
-0.0056226
0.00674601
-0.00550249
0.00708909
-0.00530102
0.00746011
-0.00501267
0.00786441
-0.00462952
0.00830076
-0.00414596
0.0087787
-0.00355653
0.00929656
-0.0028475
0.00985744
-0.00201127
0.0104688
0.0111324
-0.00103531
-0.00146
0.00312802
-0.00188271
0.00379728
-0.00233649
0.0043506
-0.00279688
0.00464212
-0.00322823
0.00481761
-0.00362624
0.00497675
-0.003986
0.00513239
-0.00430275
0.0052866
-0.00457959
0.00545118
-0.00481064
0.00562451
-0.00499264
0.00580507
-0.00512587
0.0060053
-0.00520246
0.00621856
-0.0052201
0.00644991
-0.00517602
0.00670193
-0.00506318
0.00697625
-0.00487859
0.00727553
-0.00461374
0.00759956
-0.00426521
0.00795223
-0.00382277
0.00833626
-0.00328109
0.00875488
-0.00263414
0.00921049
-0.00187057
0.00970521
0.0102447
-0.000982833
-0.00140786
0.00351192
-0.00180531
0.00419473
-0.0022163
0.00476159
-0.00262891
0.00505473
-0.00301887
0.00520758
-0.00337302
0.0053309
-0.00369365
0.00545302
-0.00398155
0.0055745
-0.00422656
0.0056962
-0.0044313
0.00582925
-0.00459659
0.00597036
-0.00471156
0.00612028
-0.00477949
0.00628649
-0.00479428
0.0064647
-0.00475381
0.00666146
-0.00464984
0.00687229
-0.00447893
0.00710462
-0.00423658
0.00735721
-0.00391975
0.0076354
-0.00351721
0.00793373
-0.00302392
0.0082616
-0.00243413
0.0086207
-0.00173719
0.00900827
0.00943519
-0.000927692
-0.00134
0.00386427
-0.00170877
0.0045635
-0.00208426
0.00513708
-0.00245681
0.00542728
-0.00280455
0.00555532
-0.00312342
0.00564977
-0.00341181
0.00574142
-0.00366634
0.00582903
-0.00388736
0.00591722
-0.00407166
0.00601355
-0.00421739
0.0061161
-0.00432266
0.00622554
-0.00438351
0.00634734
-0.00439577
0.00647695
-0.00435551
0.00662121
-0.00426137
0.00677815
-0.00410645
0.0069497
-0.0038875
0.00713826
-0.00359557
0.00734346
-0.00322945
0.00756762
-0.00278113
0.00781327
-0.00224382
0.00808339
-0.00161059
0.00837504
0.00869259
-0.000867988
-0.00126571
0.00418895
-0.00160439
0.00490218
-0.00194422
0.00547691
-0.00228181
0.00576486
-0.00259433
0.00586784
-0.00288142
0.00593686
-0.00313946
0.00599946
-0.00336848
0.00605805
-0.00356774
0.00611648
-0.00373484
0.00618065
-0.00386584
0.00624709
-0.00395978
0.00631949
-0.00401162
0.00639918
-0.0040221
0.00648743
-0.00398722
0.00658633
-0.00390048
0.0066914
-0.00375772
0.00680694
-0.0035575
0.00693804
-0.00329353
0.0070795
-0.00296196
0.00723604
-0.00255383
0.00740515
-0.00206401
0.00759356
-0.00148564
0.00779667
0.00802014
-0.000813192
-0.0011872
0.00448465
-0.00149615
0.00521112
-0.00180683
0.00578759
-0.00210648
0.00606452
-0.00238859
0.00614994
-0.0026481
0.00619637
-0.00288085
0.00623221
-0.0030884
0.00626559
-0.00326814
0.00629622
-0.00341665
0.00632916
-0.00353424
0.00636469
-0.00361878
0.00640403
-0.00366892
0.00644931
-0.00367785
0.00649637
-0.0036438
0.00655228
-0.0035646
0.0066122
-0.00343684
0.00667918
-0.00325573
0.00675693
-0.00301521
0.00683898
-0.00271124
0.00693207
-0.00233964
0.00703354
-0.00189439
0.00714831
-0.00137147
0.00727376
0.0074076
-0.000758931
-0.00111246
0.00476101
-0.00139557
0.00549423
-0.00167326
0.00606527
-0.00194598
0.00633724
-0.0021971
0.00640105
-0.00242911
0.00642838
-0.00264042
0.00644352
-0.00282601
0.00645118
-0.00298943
0.00645964
-0.00312394
0.00646367
-0.00323285
0.0064736
-0.00330888
0.00648006
-0.0033503
0.00649074
-0.00335969
0.00650575
-0.00332658
0.00651917
-0.00325534
0.00654097
-0.00313969
0.00656353
-0.00297268
0.00658993
-0.00275594
0.00662223
-0.00248174
0.00665788
-0.00214449
0.0066963
-0.00173994
0.00674376
-0.00125982
0.00679364
0.00685292
-0.000705132
-0.00102806
0.00501292
-0.00127781
0.00574398
-0.00152802
0.00631549
-0.00177716
0.00658638
-0.00201385
0.00663774
-0.00222636
0.0066409
-0.00241646
0.00663362
-0.0025858
0.00662052
-0.00273081
0.00660465
-0.00285397
0.00658683
-0.00294935
0.00656898
-0.00301937
0.00655007
-0.00305683
0.0065282
-0.00306332
0.00651224
-0.00303834
0.00649419
-0.0029719
0.00647452
-0.00286656
0.00645818
-0.00271652
0.00643989
-0.00251883
0.00642455
-0.00226809
0.00640713
-0.00196278
0.00639099
-0.00159437
0.00637534
-0.00116054
0.00635981
-0.000654141
0.00634652
0.00120669
-0.00082226
0.00222026
-0.00057822
0.00321041
-0.000369613
0.00421339
-0.000149866
0.00522486
0.000106656
0.00621929
0.000412582
0.00717201
0.000772483
0.00805641
0.00118907
0.00884793
0.00165816
0.00952823
0.00217684
0.0100835
0.00274046
0.0105046
0.0033412
0.0107901
0.0039747
0.0109454
0.00463556
0.0109826
0.00531864
0.0109205
0.00602563
0.0107798
0.00675536
0.0105835
0.00751774
0.0103531
0.0083201
0.010105
0.0091774
0.00985323
0.0100994
0.00960079
0.0111071
0.00935055
0.0122058
0.0134059
0.00910809
-0.000164483
-0.000657776
-8.99451e-06
-0.000733704
0.000342842
-0.000721449
0.000849027
-0.000656052
0.00148868
-0.000532998
0.0022472
-0.000345932
0.00311012
-9.04406e-05
0.00405783
0.000241364
0.00505799
0.000658003
0.00607034
0.00116448
0.00705048
0.00176032
0.00795405
0.00243764
0.00874149
0.00318726
0.00938324
0.00399381
0.00986073
0.00484116
0.0101704
0.00571593
0.010323
0.00660273
0.0103403
0.00750048
0.0102516
0.00840876
0.010089
0.00934004
0.00987854
0.0103098
0.00964796
0.0113377
0.00940581
0.012448
0.0136493
0.00916242
-2.78318e-05
-0.000629942
-5.01107e-05
-0.000711427
-3.21666e-05
-0.00073939
4.64383e-05
-0.000734659
0.000210786
-0.000697342
0.000488148
-0.000623298
0.000901058
-0.000503347
0.00146609
-0.000323673
0.00218749
-6.33903e-05
0.00305288
0.000299086
0.0040321
0.000781101
0.00507824
0.0013915
0.00613439
0.00213111
0.00713865
0.00298955
0.0080323
0.00394751
0.0087682
0.00498004
0.00931649
0.00605444
0.00966996
0.00714702
0.00984238
0.00823634
0.00986426
0.00931816
0.00977424
0.0103999
0.00961023
0.0115017
0.00940618
0.012652
0.0138784
0.00917712
-3.08143e-05
-0.000599139
-3.18889e-05
-0.000710358
-9.12492e-06
-0.000762157
4.15412e-05
-0.000785329
0.000127964
-0.000783765
0.000260267
-0.000755604
0.000451946
-0.000695024
0.000721317
-0.000593047
0.0010928
-0.000434868
0.00159198
-0.000200097
0.00223873
0.00013435
0.00303586
0.000594367
0.00396458
0.0012024
0.00498163
0.0019725
0.00602473
0.0029044
0.00702068
0.00398409
0.00789751
0.00517761
0.00859965
0.00644488
0.00909558
0.0077404
0.00938472
0.00902903
0.00949246
0.0102921
0.00946016
0.011534
0.00933382
0.0127784
0.0140598
0.00915239
-5.04826e-06
-0.000594085
-5.44847e-06
-0.000709959
3.5687e-06
-0.00077117
2.56601e-05
-0.000807422
6.64698e-05
-0.00082457
0.000132626
-0.000821762
0.000232424
-0.000794818
0.000377139
-0.000737763
0.000583211
-0.000640936
0.000871942
-0.000488829
0.00126831
-0.000262013
0.00179737
6.5309e-05
0.00247621
0.000523554
0.00330482
0.00114389
0.00425866
0.00195057
0.00528724
0.0029555
0.00631671
0.00414815
0.00726425
0.00549734
0.00805528
0.00694938
0.0086394
0.0084449
0.0090023
0.00992922
0.00916362
0.0113726
0.00916704
0.0127749
0.0141716
0.00905523
-1.16295e-05
-0.000582458
-1.24395e-05
-0.000709155
-4.09934e-06
-0.000779507
1.44519e-05
-0.000825978
4.56574e-05
-0.000855772
9.31806e-05
-0.000869289
0.000161836
-0.00086347
0.000257971
-0.0008339
0.00039107
-0.000774031
0.000574754
-0.000672514
0.000826602
-0.000513857
0.00116837
-0.000276455
0.00162568
6.6241e-05
0.00222243
0.000547147
0.00297059
0.0012024
0.00386063
0.00206547
0.00485269
0.00315609
0.00587938
0.00447065
0.00685124
0.00597752
0.0076814
0.00761474
0.00830651
0.00930411
0.00870235
0.0109768
0.0088865
0.0125908
0.0141551
0.00890297
-4.52403e-06
-0.000577933
-3.5533e-06
-0.000710129
3.14499e-06
-0.000786203
1.66824e-05
-0.000839518
3.86275e-05
-0.000877712
7.18062e-05
-0.00090247
0.000119599
-0.000911258
0.000186302
-0.000900605
0.000277904
-0.000865629
0.000403343
-0.000797954
0.000575162
-0.000685672
0.000809711
-0.000511004
0.00112738
-0.000251421
0.00155229
0.000122238
0.00210869
0.000646007
0.00281311
0.00136105
0.00366355
0.00230564
0.00462817
0.00350603
0.00564194
0.00496375
0.00661479
0.00664189
0.00745155
0.00846735
0.00808094
0.0103474
0.00847629
0.0121954
0.0139738
0.00865763
-4.77634e-06
-0.000573154
-3.95578e-06
-0.000710952
2.27254e-06
-0.000792426
1.39163e-05
-0.000851165
3.22904e-05
-0.000896082
5.912e-05
-0.000929302
9.66572e-05
-0.000948791
0.000148
-0.000951949
0.000217098
-0.000934723
0.000309907
-0.000890764
0.00043509
-0.000810851
0.000604611
-0.000680525
0.000833998
-0.000480805
0.00114279
-0.000186557
0.00155448
0.000234321
0.00209343
0.000822096
0.00277766
0.00162142
0.00360807
0.00267562
0.00455586
0.00401595
0.00555623
0.00564152
0.00651531
0.00750827
0.00733389
0.00952883
0.0079385
0.0115908
0.0136006
0.00831164
-2.94024e-06
-0.000570208
-1.40852e-06
-0.000712482
4.33768e-06
-0.00079817
1.44892e-05
-0.000861316
2.99263e-05
-0.000911515
5.17436e-05
-0.00095112
8.19306e-05
-0.000978974
0.000122721
-0.00099274
0.000177109
-0.000989108
0.000249027
-0.000962682
0.000344765
-0.000906587
0.000473041
-0.000808801
0.000645695
-0.000653457
0.000878134
-0.000418996
0.00118971
-7.72484e-05
0.00160357
0.000408228
0.0021435
0.0010815
0.00282717
0.00199195
0.00365509
0.00318803
0.00459688
0.00469973
0.00558395
0.0065212
0.00651787
0.0085949
0.00729641
0.0108123
0.0130449
0.00785216
-2.34907e-06
-0.000567857
-5.93814e-07
-0.000714237
4.88954e-06
-0.00080365
1.41407e-05
-0.000870569
2.77331e-05
-0.000925105
4.66293e-05
-0.000970018
7.21865e-05
-0.00100453
0.000106167
-0.00102672
0.000150839
-0.00103378
0.000209233
-0.00102108
0.000285683
-0.000983034
0.000386703
-0.000909821