/*--------------------------------*- C++ -*----------------------------------*\
| =========                 |                                                 |
| \\      /  F ield         | OpenFOAM: The Open Source CFD Toolbox           |
|  \\    /   O peration     | Version:  2.3.0                                 |
|   \\  /    A nd           | Web:      www.OpenFOAM.org                      |
|    \\/     M anipulation  |                                                 |
\*---------------------------------------------------------------------------*/
FoamFile
{
    version     2.0;
    format      ascii;
    class       volScalarField;
    location    "3000";
    object      nuTilda;
}
// * * * * * * * * * * * * * * * * * * * * * * * * * * * * * * * * * * * * * //

dimensions      [0 2 -1 0 0 0 0];

internalField   nonuniform List<scalar> 
39691
(
0.0448231
0.0432582
0.0417166
0.0402027
0.0387197
0.0372707
0.0358591
0.0344874
0.0331583
0.0318726
0.0306221
0.0293972
0.0281968
0.0270255
0.0258862
0.0247825
0.0237158
0.0226857
0.0216897
0.0207236
0.0197825
0.0188621
0.0179605
0.017077
0.0162109
0.0153613
0.0145279
0.0137096
0.0129044
0.0121123
0.0113338
0.010568
0.009817
0.00908328
0.00837067
0.00768436
0.00702932
0.00641184
0.00583455
0.00530281
0.00482454
0.00442696
0.00424233
0.0469336
0.0455486
0.0441832
0.0428391
0.041517
0.0402176
0.0389414
0.0376895
0.0364613
0.0352577
0.0340775
0.0329193
0.0317834
0.0306709
0.0295832
0.0285237
0.0274947
0.0264994
0.0255403
0.0246194
0.0237311
0.022866
0.0220189
0.0211881
0.0203744
0.019579
0.018804
0.0180488
0.0173155
0.0166036
0.0159132
0.0152463
0.0146029
0.0139857
0.0134009
0.0128572
0.0123753
0.0119864
0.0117349
0.0116312
0.0116619
0.0118252
0.0121396
0.0488575
0.047631
0.0464206
0.0452268
0.0440502
0.0428904
0.0417478
0.0406224
0.0395138
0.0384234
0.0373504
0.0362943
0.0352555
0.0342339
0.0332303
0.0322459
0.0312808
0.0303365
0.0294132
0.0285122
0.0276334
0.0267757
0.0259394
0.0251237
0.0243291
0.023559
0.0228131
0.0220948
0.0214075
0.020752
0.0201333
0.0195544
0.0190213
0.0185391
0.0181143
0.0177552
0.0174709
0.0172712
0.0171676
0.0171671
0.0172765
0.0174996
0.0178361
0.0506041
0.0495133
0.0484367
0.0473736
0.046324
0.0452871
0.044263
0.0432514
0.0422524
0.0412666
0.0402935
0.0393343
0.0383884
0.0374561
0.0365374
0.0356329
0.034743
0.0338677
0.0330084
0.0321659
0.0313415
0.0305351
0.0297478
0.0289814
0.0282371
0.0275152
0.026819
0.0261508
0.0255132
0.02491
0.0243434
0.0238197
0.0233429
0.0229182
0.0225527
0.0222527
0.022025
0.021878
0.021818
0.0218528
0.0219858
0.0222218
0.0225603
0.0521821
0.0512097
0.0502487
0.0492983
0.0483581
0.0474272
0.0465052
0.045592
0.044688
0.0437926
0.042907
0.0420314
0.041166
0.0403109
0.0394664
0.0386329
0.0378107
0.0369998
0.0362007
0.0354148
0.0346433
0.0338866
0.0331464
0.032425
0.0317242
0.0310458
0.0303911
0.0297626
0.0291643
0.0285991
0.0280698
0.027582
0.0271408
0.0267509
0.0264187
0.0261508
0.0259529
0.0258321
0.0257954
0.0258472
0.025992
0.0262332
0.026571
0.0536066
0.0527368
0.0518751
0.0510216
0.0501753
0.0493351
0.0485006
0.0476722
0.0468494
0.0460324
0.045221
0.0444158
0.0436178
0.0428282
0.0420468
0.041274
0.0405101
0.0397544
0.0390079
0.0382716
0.0375466
0.0368334
0.0361339
0.0354506
0.0347855
0.0341414
0.0335203
0.0329245
0.0323571
0.0318207
0.0313198
0.0308585
0.0304417
0.0300756
0.0297651
0.0295174
0.0293387
0.0292345
0.0292111
0.0292735
0.0294252
0.029669
0.0300052
0.0548953
0.054111
0.0533341
0.0525636
0.0517981
0.0510359
0.0502763
0.04952
0.0487675
0.0480181
0.0472706
0.0465256
0.0457839
0.0450475
0.0443188
0.0435971
0.0428827
0.0421745
0.0414727
0.0407789
0.0400949
0.03942
0.0387553
0.0381036
0.037468
0.0368512
0.0362572
0.0356872
0.035145
0.0346319
0.0341534
0.0337128
0.0333145
0.0329649
0.0326704
0.0324361
0.0322699
0.0321772
0.032163
0.0322319
0.0323884
0.0326336
0.0329687
0.0560602
0.055347
0.0546425
0.0539431
0.0532474
0.0525531
0.0518583
0.0511623
0.0504689
0.0497783
0.049088
0.0483954
0.0477018
0.0470083
0.0463222
0.0456425
0.0449693
0.0443025
0.0436392
0.0429799
0.0423327
0.041692
0.0410589
0.0404333
0.0398247
0.0392269
0.0386544
0.0381058
0.0375831
0.0370895
0.0366296
0.0362074
0.0358238
0.035487
0.0352044
0.034978
0.0348199
0.034736
0.0347284
0.0347999
0.0349603
0.0352083
0.0355428
0.0571199
0.0564613
0.055818
0.0551777
0.0545397
0.0539043
0.0532689
0.0526217
0.051976
0.0513329
0.0506959
0.0500501
0.0494063
0.0487419
0.0480874
0.0474404
0.0467996
0.0461666
0.0455449
0.0449073
0.0442963
0.0436792
0.0430849
0.0424724
0.0419039
0.0413121
0.0407563
0.0402251
0.0397195
0.0392401
0.038795
0.0383941
0.0380242
0.0376933
0.0374278
0.0372025
0.0370475
0.0369699
0.0369723
0.0370383
0.0372025
0.0374525
0.0377923
0.00507171
0.00659828
0.00767605
0.00878297
0.00996499
0.0112144
0.0125167
0.0138603
0.0152367
0.0166395
0.0180632
0.0195049
0.0209627
0.022435
0.023921
0.0254198
0.0269309
0.0284537
0.0299881
0.0315336
0.0330893
0.0346553
0.0362314
0.037817
0.039412
0.0410161
0.0426289
0.0442501
0.045879
0.0475156
0.0491589
0.0508088
0.0524648
0.0541259
0.0557918
0.0574614
0.0591337
0.0608079
0.0624826
0.0641569
0.0658298
0.0674996
0.0691695
0.0126184
0.0132526
0.014016
0.014899
0.0158883
0.0169676
0.0181215
0.0193356
0.0205976
0.0218987
0.0232309
0.0245879
0.0259657
0.0273595
0.028767
0.030186
0.0316143
0.0330511
0.0344949
0.0359451
0.0374008
0.0388615
0.0403267
0.0417958
0.0432691
0.0447462
0.0462265
0.0477102
0.049197
0.0506863
0.0521786
0.0536733
0.0551703
0.0566692
0.0581697
0.0596716
0.0611736
0.0626753
0.064176
0.0656753
0.0671721
0.0686659
0.0701587
0.0182866
0.0188531
0.0195367
0.0203283
0.021218
0.0221943
0.0232447
0.0243574
0.025522
0.026729
0.0279709
0.02924
0.0305317
0.0318409
0.0331635
0.0344972
0.0358388
0.0371869
0.0385396
0.0398961
0.0412552
0.0426157
0.0439774
0.0453396
0.0467018
0.0480642
0.0494261
0.0507875
0.0521484
0.0535085
0.0548684
0.0562281
0.0575872
0.0589456
0.060303
0.0616594
0.063014
0.0643662
0.0657159
0.0670628
0.0684067
0.0697471
0.0710853
0.0229993
0.0235417
0.0241887
0.0249337
0.0257676
0.0266827
0.027668
0.0287131
0.0298092
0.030947
0.032119
0.0333185
0.0345393
0.035777
0.0370275
0.0382878
0.0395544
0.0408255
0.0420994
0.0433746
0.0446494
0.0459229
0.0471949
0.0484642
0.0497303
0.0509931
0.0522526
0.0535085
0.0547611
0.0560103
0.0572566
0.0585002
0.0597411
0.0609791
0.0622138
0.0634451
0.0646725
0.0658956
0.0671143
0.0683288
0.0695392
0.0707462
0.0719504
0.027003
0.0275314
0.0281563
0.028872
0.0296709
0.0305452
0.0314856
0.0324822
0.033527
0.034612
0.0357291
0.0368722
0.0380355
0.0392143
0.0404043
0.0416029
0.0428062
0.0440122
0.0452191
0.0464249
0.0476281
0.0488275
0.0500223
0.0512117
0.0523954
0.0535728
0.0547443
0.0559098
0.0570697
0.0582243
0.0593738
0.0605188
0.0616589
0.062794
0.0639238
0.0650478
0.0661653
0.0672765
0.0683817
0.0694811
0.0705746
0.0716628
0.0727442
0.0304324
0.0309512
0.0315611
0.0322566
0.0330308
0.0338759
0.0347829
0.0357434
0.0367492
0.0377925
0.0388661
0.0399634
0.0410795
0.0422097
0.04335
0.044497
0.0456475
0.046799
0.0479497
0.049097
0.0502394
0.0513757
0.0525051
0.0536264
0.0547392
0.0558435
0.0569394
0.0580275
0.0591083
0.0601824
0.06125
0.0623111
0.0633659
0.0644137
0.0654537
0.0664853
0.0675081
0.0685223
0.0695288
0.0705278
0.0715195
0.0725036
0.0734779
0.0333919
0.033904
0.0345031
0.0351837
0.0359393
0.0367622
0.0376433
0.0385753
0.0395506
0.0405607
0.0415984
0.0426573
0.0437335
0.0448237
0.0459232
0.0470271
0.048133
0.0492393
0.0503427
0.0514406
0.0525312
0.0536137
0.0546877
0.055751
0.0568022
0.0578428
0.0588735
0.0598955
0.0609092
0.0619148
0.0629128
0.0639031
0.0648858
0.0658595
0.0668227
0.0677747
0.068715
0.0696451
0.0705659
0.0714779
0.0723805
0.0732738
0.0741565
0.035961
0.0364676
0.0370587
0.0377292
0.0384701
0.0392763
0.0401348
0.0410439
0.0419951
0.0429792
0.0439867
0.0450097
0.0460517
0.0471099
0.0481767
0.0492431
0.0503107
0.0513806
0.052445
0.0534998
0.0545458
0.0555825
0.0566104
0.0576231
0.0586187
0.0596034
0.0605787
0.0615448
0.0625009
0.0634489
0.0643874
0.0653186
0.0662414
0.0671516
0.0680487
0.0689321
0.0697992
0.0706558
0.0715027
0.0723394
0.0731645
0.0739786
0.074782
0.0381992
0.038703
0.0392861
0.0399489
0.0406744
0.0414705
0.0423035
0.0431952
0.0441275
0.0450903
0.0460709
0.0470544
0.0480711
0.0491049
0.0501443
0.0511715
0.0522119
0.0532561
0.054284
0.0553003
0.0563091
0.0573059
0.0582984
0.0592586
0.0602022
0.061141
0.0620714
0.0629933
0.0638987
0.0648025
0.0656901
0.0665781
0.0674528
0.0683074
0.0691468
0.0699693
0.0707685
0.071564
0.0723476
0.0731211
0.0738781
0.0746243
0.0753584
0.0839076
0.0806639
0.077468
0.0743208
0.0712226
0.0681753
0.0651816
0.0622428
0.0593607
0.0565382
0.0537764
0.051077
0.0484416
0.045871
0.0433672
0.0409298
0.0385613
0.0362602
0.0340275
0.0318637
0.0297689
0.0277423
0.0257835
0.0238921
0.0220689
0.0203121
0.0186225
0.016999
0.0154426
0.0139523
0.0125287
0.0111717
0.00988204
0.00866141
0.00750922
0.00642978
0.00542571
0.00449972
0.00365843
0.00291455
0.00233574
0.00176087
0.0010971
0.0857816
0.082831
0.0799125
0.077029
0.0741807
0.0713691
0.0685947
0.0658588
0.0631634
0.0605102
0.0578999
0.0553346
0.0528156
0.0503444
0.0479204
0.0455459
0.0432214
0.0409475
0.0387256
0.0365558
0.0344388
0.0323749
0.0303648
0.0284094
0.0265075
0.0246618
0.0228718
0.0211385
0.0194632
0.0178457
0.0162895
0.0147951
0.0133659
0.0120035
0.010713
0.00949868
0.00836842
0.00733728
0.00644617
0.00555862
0.00462878
0.00360862
0.00240869
0.0876221
0.0849384
0.0822743
0.0796338
0.077017
0.0744232
0.0718537
0.0693094
0.0667914
0.0643012
0.0618397
0.059408
0.0570077
0.0546399
0.0523055
0.0500058
0.0477418
0.0455143
0.043324
0.041173
0.0390612
0.0369897
0.0349601
0.0329719
0.0310277
0.0291295
0.0272761
0.0254717
0.0237172
0.0220155
0.0203692
0.0187814
0.0172576
0.0158025
0.0144252
0.013142
0.0119673
0.0108165
0.00963927
0.00840107
0.00706088
0.00557072
0.00385956
0.0894059
0.0869724
0.0845438
0.0821264
0.0797209
0.0773276
0.0749476
0.0725811
0.070229
0.067892
0.0655712
0.0632679
0.060983
0.058718
0.0564741
0.0542523
0.0520541
0.04988
0.0477313
0.04561
0.0435171
0.0414533
0.0394205
0.0374195
0.0354541
0.0335242
0.031633
0.0297836
0.0279781
0.0262208
0.0245167
0.0228706
0.0212901
0.0197886
0.0183723
0.0169981
0.0156224
0.0142093
0.0127273
0.0111444
0.00942207
0.0075147
0.00536233
0.0911569
0.0889346
0.086715
0.0844992
0.0822863
0.0800761
0.0778687
0.075665
0.0734656
0.0712709
0.0690819
0.0668994
0.0647241
0.0625586
0.0604024
0.0582576
0.0561257
0.0540073
0.0519047
0.04982
0.0477521
0.0457055
0.0436806
0.0416801
0.0397052
0.0377603
0.035848
0.0339719
0.0321355
0.0303454
0.0286071
0.0269299
0.0253165
0.0237499
0.0222001
0.0206384
0.0190366
0.0173658
0.0156003
0.0137055
0.0116453
0.00937439
0.00684077
0.0928314
0.0908088
0.0887794
0.086747
0.0847086
0.0826634
0.0806125
0.0785575
0.0764979
0.0744347
0.0723672
0.0702965
0.068224
0.0661508
0.0640781
0.0620079
0.0599398
0.0578778
0.0558226
0.0537755
0.0517387
0.0497136
0.0477042
0.045711
0.0437376
0.0417878
0.0398655
0.037976
0.036123
0.0343143
0.0325519
0.0308286
0.0291316
0.0274385
0.0257276
0.023977
0.0221613
0.0202569
0.0182351
0.0160629
0.013704
0.0111146
0.00824745
0.0944386
0.0925902
0.0907314
0.0888665
0.0869865
0.0850889
0.0831794
0.0812584
0.0793263
0.0773826
0.0754266
0.0734591
0.0714815
0.069494
0.0675
0.0654997
0.0634948
0.0614852
0.0594748
0.0574669
0.055462
0.053463
0.0514729
0.0494935
0.0475276
0.0455786
0.0436522
0.0417535
0.0398852
0.038047
0.0362313
0.0344282
0.0326222
0.0307962
0.0289304
0.0270057
0.024999
0.0228848
0.0206347
0.0182164
0.0155925
0.0127212
0.00955718
0.0959676
0.094272
0.0925627
0.0908559
0.0891222
0.0873539
0.085569
0.083768
0.0819517
0.0801182
0.0782646
0.0763906
0.074501
0.0725924
0.0706691
0.0687362
0.0667904
0.0648314
0.0628625
0.060892
0.05892
0.0569467
0.0549757
0.0530135
0.0510596
0.0491128
0.0471765
0.0452579
0.0433568
0.0414702
0.0395868
0.0376922
0.0357775
0.0338257
0.0318202
0.0297409
0.0275639
0.0252627
0.0228104
0.0201752
0.0173199
0.0141947
0.010763
0.0974244
0.0958512
0.0942522
0.0927146
0.0911271
0.0894602
0.0877821
0.086088
0.0843761
0.0826428
0.0808873
0.0790932
0.0772861
0.07545
0.0735862
0.0717167
0.0698318
0.0679257
0.0659866
0.0640468
0.062109
0.06016
0.0582006
0.0562509
0.0543098
0.0523761
0.0504161
0.0484589
0.0465028
0.0445668
0.042624
0.0406342
0.038615
0.0365479
0.0344174
0.0322021
0.0298783
0.0274078
0.0247752
0.0219516
0.0189117
0.0155504
0.0118637
0.000550457
0.000579289
0.000805472
0.00101802
0.00121734
0.00140666
0.00158936
0.0017695
0.00195255
0.00214636
0.00236153
0.00261103
0.00290142
0.0032307
0.00359397
0.00398796
0.00441072
0.00486165
0.00534022
0.00584662
0.00638155
0.00694549
0.00753894
0.00816246
0.00881686
0.00950289
0.010221
0.0109721
0.0117569
0.0125762
0.0134309
0.0143221
0.0152505
0.016217
0.0172225
0.018268
0.0193544
0.0204824
0.021653
0.0228666
0.0241238
0.0254253
0.026773
0.0011449
0.000793912
0.000985101
0.00120371
0.00141146
0.00161106
0.00180844
0.00201111
0.00222785
0.00246844
0.00274207
0.00305668
0.0034113
0.00379734
0.004211
0.00465034
0.00511479
0.0056034
0.00611658
0.00665402
0.00721617
0.00780351
0.00841642
0.00905536
0.00972028
0.0104122
0.0111313
0.0118785
0.0126538
0.0134586
0.0142932
0.0151583
0.0160546
0.016983
0.0179442
0.018939
0.019968
0.0210318
0.0221312
0.0232666
0.0244389
0.0256485
0.0268968
0.00201194
0.00107134
0.00115092
0.00137367
0.00159273
0.00180886
0.00203085
0.00226878
0.00253184
0.00282711
0.00315976
0.00353355
0.00394163
0.0043758
0.00483364
0.00531358
0.00581529
0.00633847
0.00688265
0.00744834
0.00803523
0.00864361
0.0092737
0.00992573
0.0105998
0.0112961
0.0120151
0.0127572
0.0135229
0.0143128
0.0151273
0.0159667
0.0168319
0.0177233
0.0186414
0.019587
0.0205604
0.0215622
0.0225928
0.0236529
0.0247432
0.0258642
0.027017
0.00302304
0.00143901
0.00130458
0.00152598
0.0017603
0.00199967
0.00225472
0.00253542
0.00284843
0.00319694
0.00358282
0.00400808
0.00446098
0.00493648
0.00543244
0.00594798
0.00648272
0.00703607
0.00760797
0.00819794
0.00880636
0.009433
0.0100775
0.0107402
0.011421
0.0121202
0.0128382
0.0135747
0.0143305
0.0151059
0.0159012
0.0167162
0.0175519
0.0184088
0.0192868
0.0201867
0.0211087
0.022053
0.0230205
0.0240112
0.0250258
0.0260646
0.0271273
0.00407894
0.00189308
0.00145411
0.0016645
0.00191785
0.00218596
0.00247898
0.00280464
0.00316607
0.00356286
0.00399654
0.00446499
0.00495661
0.00546809
0.00599788
0.00654486
0.00710879
0.00768893
0.00828487
0.00889651
0.00952337
0.0101654
0.0108222
0.0114937
0.0121798
0.012881
0.0135968
0.0143276
0.0150736
0.0158349
0.0166118
0.0174043
0.0182128
0.0190376
0.0198787
0.0207365
0.0216114
0.0225035
0.0234131
0.0243404
0.0252858
0.0262494
0.0272303
0.00511653
0.00240741
0.00160735
0.00179256
0.00206831
0.0023686
0.00270112
0.00307026
0.0034756
0.00391525
0.00439185
0.00489757
0.00542331
0.00596682
0.00652668
0.00710165
0.00769144
0.00829531
0.00891271
0.00954316
0.0101861
0.0108413
0.0115085
0.0121875
0.0128779
0.0135798
0.0142934
0.0150183
0.0157549
0.0165032
0.0172629
0.0180344
0.0188176
0.0196128
0.0204202
0.0212397
0.0220715
0.0229157
0.0237726
0.0246423
0.0255248
0.0264203
0.0273269
0.00610385
0.00295033
0.00176704
0.00191382
0.00221391
0.00254764
0.00291883
0.00332815
0.00377271
0.00425058
0.00476463
0.00530297
0.00585913
0.00643117
0.007018
0.00761816
0.00823115
0.00885619
0.00949256
0.0101397
0.0107969
0.0114637
0.0121398
0.012825
0.0135193
0.014222
0.0149331
0.0156524
0.0163798
0.0171155
0.0178594
0.0186112
0.0193713
0.0201397
0.020916
0.0217005
0.0224927
0.0232931
0.0241016
0.0249187
0.0257446
0.0265802
0.0274282
0.0070235
0.00350071
0.00194555
0.00202434
0.00234805
0.00271511
0.00312238
0.00356793
0.00404831
0.00456264
0.00511033
0.00567856
0.00626278
0.00686148
0.00747342
0.00809717
0.00873176
0.00937685
0.0100312
0.0106938
0.0113636
0.0120407
0.0127251
0.0134162
0.0141138
0.014817
0.0155248
0.0162376
0.0169559
0.0176791
0.0184074
0.0191409
0.0198801
0.0206243
0.0213728
0.0221248
0.0228803
0.0236397
0.0244026
0.0251709
0.0259453
0.0267263
0.0275141
0.00784785
0.0039363
0.00204471
0.00214959
0.00250977
0.00291008
0.00335457
0.00383923
0.00435914
0.00490783
0.0054808
0.00607278
0.00668112
0.00730577
0.00794315
0.00858643
0.00923902
0.0099033
0.0105739
0.0112465
0.0119215
0.0126046
0.0132966
0.0139917
0.0146916
0.0153931
0.0160912
0.016792
0.0174985
0.0182067
0.0189184
0.0196325
0.0203557
0.0210794
0.0218021
0.0225217
0.0232407
0.02396
0.0246753
0.0253981
0.0261252
0.0268555
0.0275815
0.000169085
0.000604445
0.00132746
0.00207627
0.00280393
0.00351674
0.00422066
0.00492158
0.00562612
0.0063415
0.00707134
0.0078159
0.00857534
0.00934959
0.0101387
0.0109426
0.0117619
0.0125971
0.0134491
0.0143194
0.0152089
0.0161188
0.0170501
0.0180048
0.0189846
0.0199929
0.0210332
0.0221094
0.0232236
0.0243773
0.02557
0.0267988
0.02806
0.0293509
0.0306712
0.0320214
0.0334039
0.0348419
0.0363421
0.0378928
0.0394839
0.0411115
0.042768
9.74657e-05
0.000342427
0.000758245
0.00131403
0.00201595
0.0027534
0.00348354
0.00421212
0.00493511
0.0056446
0.0063425
0.00703502
0.0077281
0.00842751
0.00913649
0.00985778
0.0105939
0.011347
0.0121194
0.0129131
0.01373
0.0145717
0.0154408
0.0163385
0.0172673
0.0182295
0.0192278
0.0202652
0.021345
0.022469
0.0236387
0.0248522
0.0261081
0.0274028
0.0287334
0.0300983
0.0314986
0.0329433
0.0344364
0.0359719
0.0375464
0.0391769
0.0408565
5.07284e-05
0.000223827
0.000481386
0.000849642
0.00132404
0.00190396
0.00258639
0.00337559
0.00421901
0.00504066
0.00583688
0.00661011
0.00736327
0.00809854
0.00882019
0.00953246
0.0102399
0.0109467
0.0116573
0.0123762
0.0131082
0.0138576
0.0146293
0.0154277
0.0162571
0.0171217
0.0180253
0.0189724
0.0199672
0.0210128
0.0221116
0.0232645
0.0244711
0.0257288
0.027035
0.0283869
0.0297831
0.0312252
0.0327146
0.0342489
0.0358253
0.0374453
0.0390978
5.8648e-05
0.000199462
0.000418042
0.000717849
0.00109955
0.00156794
0.00212501
0.00277406
0.0035191
0.00436129
0.00522142
0.00607028
0.00690112
0.00771335
0.00850743
0.00928392
0.0100434
0.0107873
0.0115177
0.0122374
0.0129505
0.0136615
0.0143759
0.0151003
0.0158412
0.0166057
0.0174007
0.0182337
0.0191119
0.0200416
0.0210282
0.022076
0.0231874
0.0243626
0.0256006
0.026899
0.0282556
0.0296686
0.0311366
0.0326574
0.0342282
0.0358456
0.0375048
5.55766e-05
0.000192204
0.000367539
0.000627776
0.000957037
0.00135959
0.00183978
0.00239921
0.00304133
0.00377008
0.00458924
0.00548081
0.00637576
0.0072554
0.00811674
0.00895976
0.00978465
0.0105913
0.0113798
0.0121501
0.0129029
0.0136395
0.0143626
0.0150764
0.0157862
0.0164985
0.0172212
0.0179637
0.0187357
0.0195473
0.020408
0.0213266
0.0223106
0.023365
0.0244927
0.0256945
0.0269696
0.028316
0.0297313
0.0312123
0.0327556
0.0343571
0.0360157
5.59109e-05
0.000183128
0.000338613
0.000572827
0.000867515
0.00122601
0.0016535
0.00215217
0.002725
0.00337595
0.00410955
0.00493029
0.0058329
0.006756
0.00767141
0.00857186
0.00945583
0.0103227
0.0111718
0.0120024
0.0128135
0.0136044
0.0143749
0.0151254
0.015858
0.0165756
0.0172834
0.017989
0.018701
0.0194304
0.0201889
0.0209889
0.0218427
0.022761
0.023753
0.024825
0.0259807
0.0272215
0.0285466
0.0299534
0.0314384
0.032997
0.0346261
5.49228e-05
0.000178125
0.000316029
0.00053056
0.000800427
0.00112748
0.0015161
0.00197055
0.00249268
0.00308604
0.00375473
0.00450322
0.005336
0.00625227
0.00720081
0.00814736
0.0090817
0.0100012
0.0109048
0.0117914
0.0126597
0.0135085
0.0143361
0.0151413
0.0159232
0.0166817
0.0174186
0.0181369
0.0188419
0.0195414
0.0202456
0.0209669
0.0217193
0.0225175
0.0233757
0.024307
0.0253217
0.0264274
0.0276282
0.0289252
0.0303171
0.0318007
0.0333746
5.45247e-05
0.000173816
0.000301178
0.000499146
0.000749683
0.00105273
0.0014118
0.0018316
0.00231447
0.0028633
0.0034818
0.0041742
0.00494512
0.00579931
0.00673537
0.00770715
0.00868073
0.00964475
0.0105957
0.0115319
0.012452
0.0133544
0.0142374
0.015099
0.015937
0.0167498
0.0175365
0.0182966
0.0190318
0.0197456
0.0204439
0.0211358
0.0218332
0.0225505
0.0233041
0.0241109
0.0249872
0.0259478
0.027004
0.0281633
0.0294301
0.0308047
0.0322861
5.4047e-05
0.000171284
0.000291785
0.000474109
0.000708959
0.00099297
0.00132884
0.00172068
0.00217224
0.00268546
0.00326385
0.0039113
0.00463214
0.00543106
0.0063128
0.00727356
0.00826899
0.00926796
0.0102591
0.0112385
0.0122043
0.0131549
0.0140883
0.0150025
0.015895
0.0167633
0.0176054
0.018419
0.0192028
0.0199571
0.0206836
0.0213869
0.0220744
0.0227572
0.0234494
0.0241681
0.0249322
0.025761
0.0266729
0.0276831
0.0288034
0.0300407
0.0313973
5.3731e-05
0.00016946
0.000285592
0.000453953
0.000675842
0.000944222
0.00126116
0.00163025
0.00205588
0.00253995
0.0030854
0.00369594
0.00437558
0.00512889
0.00596064
0.00687532
0.00786405
0.00888339
0.00990642
0.0109227
0.0119284
0.0129215
0.0139
0.0148617
0.0158044
0.0167253
0.0176216
0.0184904
0.0193289
0.0201351
0.020908
0.0216483
0.0223591
0.0230465
0.0237203
0.0243942
0.0250856
0.0258146
0.026603
0.0274724
0.0284421
0.029527
0.0307361
5.34537e-05
0.000168137
0.000280991
0.00043744
0.000648278
0.00090368
0.00120492
0.00155528
0.00195876
0.00241833
0.00293622
0.00351578
0.00416095
0.00487597
0.00566546
0.00653416
0.00748595
0.00850391
0.00954713
0.0105934
0.0116335
0.0126639
0.0136824
0.0146868
0.0156747
0.0166437
0.0175905
0.0185121
0.0194051
0.0202663
0.0210927
0.0218828
0.0226361
0.0233547
0.0240434
0.024711
0.0253708
0.0260399
0.0267397
0.0274941
0.0283272
0.0292616
0.030313
5.32311e-05
0.000167088
0.000277361
0.000424186
0.000625136
0.000869354
0.00115726
0.00149171
0.00187645
0.0023151
0.00280953
0.00336278
0.00397858
0.00466091
0.00541416
0.00624313
0.00715264
0.00814418
0.00919122
0.0102581
0.0113269
0.0123899
0.0134437
0.0144861
0.0155147
0.016527
0.0175201
0.0184907
0.0194351
0.0203498
0.0212309
0.0220753
0.0228803
0.0236448
0.02437
0.0250597
0.0257221
0.0263696
0.0270197
0.0276947
0.02842
0.029223
0.0301323
5.30487e-05
0.000166348
0.000274622
0.000413983
0.000605648
0.000840041
0.00111648
0.00143735
0.00180608
0.00222656
0.0027007
0.00323128
0.00382171
0.00447585
0.00519785
0.00599236
0.00686419
0.00781797
0.00884931
0.00992457
0.0110146
0.0121054
0.0131904
0.0142666
0.0153316
0.0163829
0.0174179
0.0184332
0.0194254
0.0203903
0.0213242
0.0222229
0.0230824
0.0238997
0.0246729
0.0254025
0.0260918
0.0267481
0.0273839
0.0280169
0.0286701
0.0293711
0.0301505
5.29193e-05
0.000165902
0.000272734
0.00040654
0.000589109
0.000814835
0.0010813
0.00139044
0.00174536
0.00214984
0.00260635
0.00311718
0.00368555
0.00431509
0.0050099
0.00577429
0.00661303
0.00753103
0.00853177
0.00960071
0.0107028
0.0118153
0.0129273
0.0140336
0.0151313
0.0162178
0.0172906
0.0183467
0.0193825
0.020394
0.0213773
0.0223282
0.0232414
0.0241131
0.0249397
0.0257187
0.0264502
0.0271366
0.0277854
0.028409
0.0290253
0.0296585
0.0303367
5.2832e-05
0.000165682
0.000271419
0.000401139
0.000574971
0.000792907
0.00105061
0.00134947
0.00169232
0.00208273
0.00252375
0.00301728
0.00356632
0.0041743
0.00484511
0.00558309
0.0063927
0.00727869
0.00824608
0.00929417
0.0103973
0.0115247
0.0126589
0.0137918
0.0149187
0.016037
0.017144
0.0182369
0.0193125
0.0203669
0.0213961
0.0223955
0.0233602
0.0242854
0.0251664
0.0259992
0.0267809
0.0275108
0.0281918
0.0288308
0.0294404
0.0300389
0.0306494
5.27588e-05
0.000165557
0.000270467
0.000397019
0.000562852
0.000773761
0.00102373
0.00131354
0.00164581
0.00202382
0.00245113
0.00292935
0.00346126
0.00405015
0.00469976
0.00541427
0.00619803
0.00705571
0.00799225
0.00901157
0.0101039
0.011238
0.0123893
0.0135447
0.0146978
0.0158447
0.0169827
0.0181091
0.019221
0.0203144
0.0213859
0.0224305
0.0234435
0.0244198
0.025354
0.0262411
0.0270764
0.0278571
0.0285822
0.0292543
0.0298803
0.0304725
0.0310482
5.27195e-05
0.000165539
0.000269767
0.000393698
0.000552476
0.00075705
0.00100012
0.00128195
0.00160489
0.00197208
0.00238704
0.0028516
0.00336825
0.00394017
0.00457095
0.00526455
0.00602519
0.00685753
0.00776638
0.00875661
0.00982812
0.0109597
0.0121218
0.0132956
0.0144716
0.0156443
0.0168106
0.0179675
0.0191124
0.0202417
0.0213518
0.0224382
0.0234962
0.0245205
0.0255055
0.0264455
0.027335
0.0281694
0.0289452
0.0296614
0.0303204
0.0309289
0.0314987
5.27105e-05
0.000165641
0.000269274
0.000391067
0.00054379
0.000742433
0.000979246
0.00125395
0.0015686
0.00192615
0.00233001
0.00278238
0.0032855
0.00384229
0.00445625
0.00513117
0.00587112
0.00668063
0.00756453
0.00852777
0.00957392
0.0106941
0.0118601
0.0130477
0.0142432
0.0154389
0.0166308
0.0178158
0.0189908
0.020153
0.0212985
0.0224233
0.023523
0.024592
0.0256248
0.0266156
0.027558
0.0284466
0.0292759
0.0300424
0.0307451
0.0313862
0.0319727
5.27068e-05
0.000165791
0.000268959
0.000389003
0.000536652
0.000729556
0.000960698
0.001229
0.00153625
0.00188517
0.00227914
0.00272062
0.00321159
0.00375482
0.00435362
0.00501176
0.00573318
0.00652223
0.00738364
0.00832224
0.00934286
0.0104447
0.0116075
0.0128037
0.014015
0.0152311
0.0164461
0.0176566
0.0188595
0.0200517
0.0212299
0.0223902
0.0235282
0.0246387
0.0257163
0.0267549
0.0277481
0.0286896
0.0295729
0.0303929
0.0311456
0.0318304
0.0324507
5.27284e-05
0.00016602
0.000268819
0.00038742
0.000530958
0.000718283
0.0009442
0.00120673
0.00150731
0.00184856
0.00223359
0.0026653
0.00314532
0.00367636
0.0042616
0.00490463
0.00560931
0.00637995
0.00722103
0.00813735
0.00913392
0.0102138
0.0113667
0.0125661
0.0137893
0.0150228
0.0162587
0.0174925
0.018721
0.0199409
0.0211493
0.0223422
0.0235158
0.0246648
0.025784
0.0268674
0.0279087
0.028901
0.0298375
0.0307115
0.0315177
0.0322525
0.0329165
5.2777e-05
0.000166322
0.000268801
0.000386231
0.000526407
0.000708383
0.000929442
0.00118676
0.00148134
0.00181565
0.00219268
0.00261551
0.00308571
0.00360576
0.00417879
0.00480819
0.00549772
0.00625158
0.00707425
0.0079704
0.00894498
0.0100024
0.0111401
0.0123372
0.0135682
0.0148161
0.0160705
0.0173256
0.0185776
0.0198233
0.0210594
0.0222827
0.023489
0.0246738
0.0258318
0.0269572
0.0280437
0.0290845
0.0300721
0.0309994
0.0318598
0.0326478
0.0333598
5.28236e-05
0.000166617
0.000268829
0.0003853
0.000522701
0.000699582
0.000916219
0.00116877
0.00145799
0.00178601
0.00215582
0.00257063
0.00303191
0.00354202
0.0041039
0.00472094
0.00539682
0.00613556
0.00694152
0.00781928
0.00877383
0.00980997
0.0109293
0.0121189
0.0133535
0.0146125
0.0158831
0.0171575
0.0184311
0.0197006
0.0209627
0.0222141
0.023451
0.024669
0.0258631
0.0270278
0.0281567
0.0292432
0.0302798
0.0312588
0.032173
0.0330158
0.0337832
5.2884e-05
0.000166926
0.00026892
0.000384566
0.000519651
0.000691718
0.00090427
0.00115251
0.00143687
0.00175933
0.00212265
0.00253007
0.00298318
0.00348425
0.0040361
0.00464191
0.00530537
0.0060304
0.00682116
0.00768217
0.00861831
0.00963463
0.0107347
0.0119127
0.0131466
0.0144135
0.0156977
0.0169895
0.0182833
0.0195748
0.020861
0.0221385
0.023404
0.0246529
0.0258808
0.0270821
0.0282509
0.0293805
0.0304636
0.0314924
0.0324592
0.0333566
0.0341787
5.29725e-05
0.000167275
0.000269081
0.00038399
0.00051707
0.000684731
0.000893467
0.00113777
0.00141764
0.00173501
0.00209246
0.00249308
0.00293882
0.00343168
0.00397441
0.00457005
0.00522212
0.00593458
0.00671149
0.00755729
0.00847669
0.00947469
0.0105559
0.0117194
0.0129487
0.0142203
0.0155156
0.0168229
0.0181349
0.0194471
0.0207559
0.022058
0.0233499
0.0246279
0.0258873
0.027123
0.0283293
0.0294995
0.0306265
0.0317027
0.03272
0.0336703
0.0345454
5.30602e-05
0.000167606
0.000269228
0.000383499
0.000514818
0.000678455
0.000883647
0.00112427
0.00140007
0.00171274
0.00206481
0.00245927
0.00289829
0.00338368
0.003918
0.00450437
0.00514618
0.00584716
0.00661135
0.0074432
0.00834734
0.0093286
0.0103919
0.0115394
0.0127608
0.0140337
0.0153375
0.0166582
0.017987
0.0193184
0.0206484
0.0219736
0.0232906
0.0245957
0.0258847
0.0271527
0.0283942
0.0296027
0.0307712
0.0318921
0.0329574
0.0339584
0.034886
5.31463e-05
0.000167923
0.000269365
0.000383074
0.00051287
0.000672843
0.000874688
0.00111194
0.00138399
0.00169236
0.00203947
0.00242828
0.00286109
0.00333964
0.0038663
0.00444415
0.00507652
0.00576707
0.00651968
0.00733863
0.00822866
0.00919452
0.0102412
0.0113723
0.0125831
0.0138543
0.0151641
0.0164962
0.0178403
0.0191895
0.0205393
0.0218863
0.023227
0.0245578
0.0258746
0.027173
0.0284475
0.029692
0.0308997
0.032063
0.0331738
0.0342233
0.0352023
5.32489e-05
0.000168251
0.00026955
0.000382732
0.000511177
0.000667906
0.000866539
0.00110064
0.00136916
0.00167358
0.00201618
0.00239979
0.0028269
0.00329908
0.00381874
0.00438873
0.00501237
0.00569324
0.00643522
0.00724249
0.00811945
0.00907108
0.0101024
0.0112176
0.0124159
0.0136826
0.0149959
0.0163374
0.0176951
0.0190609
0.0204293
0.0217968
0.0231599
0.0245151
0.0258583
0.0271853
0.028491
0.0297694
0.0310139
0.0322173
0.0333713
0.0344672
0.0354959
5.33703e-05
0.00016859
0.000269757
0.000382485
0.000509719
0.000663538
0.000859091
0.00109018
0.00135547
0.00165618
0.00199456
0.00237336
0.00279524
0.00326161
0.00377475
0.00433757
0.00495319
0.0056251
0.00635717
0.00715358
0.00801868
0.00895714
0.00997403
0.0110742
0.012259
0.0135189
0.0148331
0.0161821
0.0175517
0.0189326
0.0203188
0.0217057
0.02309
0.0244681
0.0258364
0.0271906
0.0285256
0.0298361
0.0311156
0.0323569
0.0335519
0.034692
0.035767
5.34797e-05
0.000168923
0.000269976
0.000382311
0.000508458
0.000659676
0.000852269
0.00108056
0.00134283
0.0016401
0.00197453
0.00234885
0.00276579
0.00322678
0.00373389
0.00428998
0.00489819
0.00556192
0.00628489
0.00707113
0.00792515
0.00885149
0.00985508
0.0109409
0.0121121
0.0133631
0.014676
0.0160304
0.0174104
0.0188051
0.0202077
0.0216132
0.0230177
0.0244177
0.0258097
0.0271896
0.0285525
0.0298933
0.031206
0.0324834
0.0337176
0.0349005
0.0360236
5.36004e-05
0.000169252
0.000270209
0.000382164
0.000507369
0.000656312
0.000846021
0.00107166
0.00133105
0.00162515
0.00195598
0.00232611
0.00273843
0.00319431
0.00369585
0.00424566
0.00484689
0.00550294
0.00621746
0.00699443
0.00783802
0.00875298
0.0097442
0.0108166
0.0119743
0.0132151
0.0145247
0.0158824
0.0172711
0.0186785
0.0200963
0.0215192
0.022943
0.024364
0.0257787
0.0271829
0.0285725
0.0299422
0.0312862
0.0325979
0.0338694
0.0350925
0.0362583
5.3737e-05
0.000169588
0.000270456
0.000382085
0.000506456
0.00065338
0.000840252
0.00106334