/*--------------------------------*- C++ -*----------------------------------*\
| =========                 |                                                 |
| \\      /  F ield         | OpenFOAM: The Open Source CFD Toolbox           |
|  \\    /   O peration     | Version:  2.3.0                                 |
|   \\  /    A nd           | Web:      www.OpenFOAM.org                      |
|    \\/     M anipulation  |                                                 |
\*---------------------------------------------------------------------------*/
FoamFile
{
    version     2.0;
    format      ascii;
    class       surfaceScalarField;
    location    "3000";
    object      phi;
}
// * * * * * * * * * * * * * * * * * * * * * * * * * * * * * * * * * * * * * //

dimensions      [0 3 -1 0 0 0 0];

internalField   nonuniform List<scalar> 
79042
(
-0.0065919
-0.00492464
0.00540258
0.00611413
-0.00703009
-0.00470671
0.0051449
-0.00742703
-0.0044969
0.00489384
-0.00778956
-0.00429657
0.0046591
-0.00811718
-0.00410219
0.00442981
-0.00840805
-0.0039201
0.00421097
-0.00866587
-0.00374158
0.0039994
-0.00889605
-0.00356976
0.00379994
-0.00909611
-0.00340657
0.00360663
-0.00926528
-0.00324854
0.00341771
-0.00940744
-0.00309736
0.00323952
-0.00952278
-0.00294985
0.0030652
-0.00961834
-0.00280643
0.00290198
-0.00968522
-0.00267359
0.00274047
-0.00972959
-0.00254195
0.00258632
-0.00975362
-0.00241484
0.00243887
-0.0097542
-0.00229389
0.00229448
-0.00973808
-0.00217266
0.00215654
-0.00969739
-0.00206332
0.00202263
-0.00964027
-0.00194883
0.0018917
-0.00956239
-0.00184407
0.00176619
-0.00946845
-0.00173903
0.00164508
-0.00935381
-0.00163981
0.00152517
-0.00922485
-0.00154006
0.0014111
-0.00907548
-0.00144607
0.0012967
-0.00891207
-0.001351
0.00118759
-0.00873246
-0.00125963
0.00108003
-0.00853691
-0.00117172
0.00097617
-0.00833035
-0.00108247
0.000875907
-0.00811046
-0.000995299
0.000775404
-0.00788412
-0.000907484
0.000681151
-0.00764978
-0.000822507
0.000588166
-0.00741302
-0.000736139
0.000499377
-0.00717795
-0.000648339
0.000413274
-0.00694767
-0.000561544
0.000331259
-0.00673232
-0.000468857
0.000253505
-0.00653133
-0.000380192
0.0001792
-0.00635886
-0.000285346
0.000112881
-0.00621813
-0.000191125
5.0394e-05
-0.0061208
-9.29203e-05
-4.41828e-06
-0.00606613
-5.23299e-07
-5.41383e-05
-0.00606094
8.85758e-05
-9.37758e-05
0.000178217
-0.00618129
-5.78623e-05
-0.00595284
-0.00449817
0.00552637
-0.00634289
-0.00431666
-0.00669958
-0.00414021
-0.00702141
-0.00397474
-0.00731071
-0.00381289
-0.0075735
-0.0036573
-0.00780792
-0.00350716
-0.00801117
-0.00336651
-0.00819225
-0.00322548
-0.00834916
-0.00309164
-0.00848361
-0.0029629
-0.00859353
-0.00283994
-0.00868061
-0.00271935
-0.00875062
-0.00260357
-0.00880132
-0.00249125
-0.00883451
-0.00238166
-0.00885254
-0.00227586
-0.00884937
-0.00217583
-0.00883768
-0.00207501
-0.00880724
-0.00197927
-0.00876603
-0.00188527
-0.00871131
-0.00179375
-0.0086484
-0.00170272
-0.0085732
-0.00161526
-0.00848959
-0.00152968
-0.00839837
-0.00144222
-0.00829675
-0.00136126
-0.00819336
-0.00127511
-0.00808248
-0.00119335
-0.00796519
-0.00111259
-0.00784192
-0.00103076
-0.00771521
-0.000949211
-0.00758302
-0.000868334
-0.00744337
-0.000787993
-0.00729792
-0.000706993
-0.00713997
-0.000626803
-0.00697225
-0.000547911
-0.00678875
-0.000468851
-0.00658583
-0.000394043
-0.00635948
-0.000319275
-0.00611043
-0.000249571
-0.00583235
-0.000189501
-0.00013396
-0.00552018
-0.00537356
-0.00411752
0.00499291
-0.00572151
-0.00396871
-0.00603613
-0.0038256
-0.00632521
-0.00368566
-0.00658597
-0.00355212
-0.00681769
-0.00342559
-0.00702598
-0.00329887
-0.00720927
-0.00318322
-0.00737075
-0.003064
-0.00750761
-0.00295479
-0.00762395
-0.00284656
-0.00772249
-0.0027414
-0.00780091
-0.00264093
-0.00786229
-0.00254219
-0.00790699
-0.00244655
-0.00793479
-0.00235385
-0.00794724
-0.00226341
-0.0079455
-0.00217758
-0.00793045
-0.00209006
-0.00790422
-0.0020055
-0.00786395
-0.00192555
-0.00781492
-0.00184278
-0.00775383
-0.00176381
-0.00768136
-0.00168773
-0.00760292
-0.00160812
-0.0075102
-0.00153494
-0.00741347
-0.00145799
-0.00730652
-0.00138206
-0.00719274
-0.00130712
-0.00707243
-0.0012329
-0.0069438
-0.00115939
-0.00681109
-0.00108192
-0.00667033
-0.0010091
-0.0065261
-0.000932216
-0.00637537
-0.000857727
-0.00621797
-0.000784197
-0.00605577
-0.000710119
-0.00588482
-0.000639799
-0.00571137
-0.000567491
-0.00552648
-0.000504167
-0.00533274
-0.000443308
-0.00513243
-0.000389815
-0.000345476
-0.00492091
-0.00485018
-0.00377864
0.00451129
-0.00516206
-0.00365683
-0.00544549
-0.00354217
-0.00570192
-0.00342923
-0.00593403
-0.00332002
-0.00614404
-0.00321557
-0.00632825
-0.00311467
-0.00649427
-0.0030172
-0.00663484
-0.00292343
-0.00675906
-0.00283057
-0.00686439
-0.00274123
-0.00695162
-0.00265417
-0.00702181
-0.00257073
-0.00707341
-0.0024906
-0.00711189
-0.00240806
-0.00713634
-0.0023294
-0.00714712
-0.00225263
-0.0071451
-0.00217959
-0.00713005
-0.00210511
-0.00710458
-0.00203097
-0.00706855
-0.00196157
-0.00701909
-0.00189224
-0.00696182
-0.00182108
-0.00689839
-0.00175116
-0.0068224
-0.00168411
-0.0067427
-0.00161464
-0.00665117
-0.00154952
-0.00655427
-0.00147895
-0.00645078
-0.00141061
-0.00633913
-0.00134455
-0.00622405
-0.00127447
-0.00609938
-0.00120659
-0.00597213
-0.00113635
-0.00583437
-0.00106998
-0.00569397
-0.000998119
-0.00554674
-0.000931435
-0.00539269
-0.000864164
-0.00523509
-0.000797402
-0.0050679
-0.000734684
-0.00489604
-0.000676028
-0.00471869
-0.000620654
-0.00453827
-0.000570239
-0.000529982
-0.00435376
-0.0043808
-0.00347209
0.00407425
-0.00466012
-0.00337751
-0.00491484
-0.00328745
-0.00514645
-0.00319762
-0.00535422
-0.00311225
-0.00554052
-0.00302927
-0.00570456
-0.00295063
-0.00585182
-0.00286994
-0.0059798
-0.00279545
-0.00609119
-0.00271918
-0.00618341
-0.002649
-0.00626111
-0.00257646
-0.00632292
-0.00250893
-0.00637226
-0.00244126
-0.00640429
-0.00237603
-0.00642438
-0.00230931
-0.00643285
-0.00224417
-0.00642999
-0.00218244
-0.00641479
-0.00212032
-0.00638929
-0.00205648
-0.00635507
-0.00199579
-0.00631103
-0.00193628
-0.00625606
-0.00187605
-0.00619348
-0.00181374
-0.00612349
-0.0017541
-0.006046
-0.00169214
-0.00596325
-0.00163227
-0.00587082
-0.00157139
-0.00577336
-0.00150807
-0.00567084
-0.00144707
-0.00556067
-0.00138464
-0.00544732
-0.00131993
-0.00532633
-0.00125734
-0.00520377
-0.00119254
-0.00507165
-0.00113024
-0.00493835
-0.00106474
-0.00479856
-0.00100394
-0.00465416
-0.000941806
-0.00450652
-0.000882325
-0.00435496
-0.000827592
-0.00419988
-0.000775735
-0.00404069
-0.000729428
-0.000689126
-0.00388154
-0.00395873
-0.00319663
0.00368327
-0.00420797
-0.00312827
-0.00443741
-0.00305801
-0.00464328
-0.00299175
-0.00482997
-0.00292556
-0.00499664
-0.0028626
-0.00514781
-0.00279945
-0.00527955
-0.0027382
-0.00539503
-0.00267997
-0.00549362
-0.00262059
-0.00557983
-0.0025628
-0.00564713
-0.00250916
-0.00570395
-0.00245212
-0.00574471
-0.0024005
-0.00577547
-0.00234527
-0.00579324
-0.00229154
-0.00579954
-0.00223787
-0.00579593
-0.00218605
-0.00578143
-0.00213482
-0.00575683
-0.00208108
-0.00572413
-0.00202849
-0.0056835
-0.00197691
-0.00563518
-0.00192436
-0.00557759
-0.00187133
-0.00551309
-0.0018186
-0.00544139
-0.00176383
-0.00536314
-0.00171052
-0.00528116
-0.00165337
-0.00519121
-0.00159802
-0.00509522
-0.00154307
-0.00499594
-0.00148391
-0.00489063
-0.00142524
-0.00477949
-0.00136849
-0.00466545
-0.00130658
-0.00454718
-0.00124852
-0.00442296
-0.00118896
-0.00429668
-0.00113023
-0.00416646
-0.00107203
-0.00403148
-0.00101731
-0.00389471
-0.00096436
-0.00375391
-0.000916535
-0.0036126
-0.00087074
-0.000832812
-0.00346891
-0.00357667
-0.00295021
0.00333024
-0.00380206
-0.00290288
-0.00400831
-0.00285175
-0.0041955
-0.00280456
-0.00436292
-0.00275814
-0.00451391
-0.00271161
-0.00464954
-0.00266383
-0.0047669
-0.00262084
-0.00487179
-0.00257508
-0.00495912
-0.00253326
-0.00503497
-0.00248695
-0.00509856
-0.00244557
-0.00514613
-0.00240455
-0.00518752
-0.00235911
-0.00521297
-0.00231982
-0.00523064
-0.00227386
-0.00523446
-0.00223406
-0.00523092
-0.00218959
-0.00521724
-0.00214849
-0.00519554
-0.00210278
-0.0051646
-0.00205943
-0.00512695
-0.00201456
-0.00508045
-0.00197086
-0.00502833
-0.00192345
-0.00496942
-0.00187751
-0.00490497
-0.00182829
-0.00483238
-0.00178311
-0.00475639
-0.00172936
-0.00467254
-0.00168187
-0.00458589
-0.00162972
-0.00449461
-0.00157519
-0.00439611
-0.00152374
-0.00429763
-0.00146697
-0.00419228
-0.00141192
-0.00408432
-0.00135648
-0.00397249
-0.00130079
-0.00385741
-0.00124531
-0.00373881
-0.00119063
-0.00361754
-0.00113858
-0.00349368
-0.00108821
-0.00336771
-0.00104251
-0.00323759
-0.00100087
-0.000961313
-0.00310908
-0.00323383
-0.00272762
0.00301124
-0.0034381
-0.00269861
-0.0036206
-0.00266925
-0.00378975
-0.00263541
-0.00394165
-0.00260625
-0.00407848
-0.00257477
-0.0042003
-0.00254201
-0.00430721
-0.00251393
-0.00439934
-0.00248296
-0.00448151
-0.00245109
-0.00454758
-0.00242088
-0.00460567
-0.00238747
-0.00465156
-0.00235866
-0.00468551
-0.00232516
-0.0047101
-0.00229522
-0.00472297
-0.00226099
-0.00472903
-0.002228
-0.00472574
-0.00219288
-0.00471353
-0.00216071
-0.00469289
-0.00212342
-0.00466528
-0.00208704
-0.00462965
-0.00205019
-0.0045899
-0.00201061
-0.00454038
-0.00197297
-0.00448677
-0.00193112
-0.00442501
-0.00189004
-0.00436127
-0.00184686
-0.00428984
-0.00180079
-0.00421554
-0.00175617
-0.00413623
-0.00170903
-0.00405171
-0.0016597
-0.00396576
-0.0016097
-0.00387118
-0.00156155
-0.00377692
-0.00150618
-0.00367751
-0.00145588
-0.00357442
-0.00140387
-0.00347077
-0.00134897
-0.00336335
-0.00129805
-0.0032527
-0.00124923
-0.00314014
-0.00120077
-0.00302576
-0.00115689
-0.00291071
-0.00111592
-0.00108093
-0.0027911
-0.00292556
0.00272564
-0.00252771
-0.00310834
-0.00251582
-0.00327707
-0.00250052
-0.00342776
-0.00248472
-0.00356762
-0.00246639
-0.00368973
-0.00245266
-0.0037972
-0.00243454
-0.00389393
-0.00241719
-0.00398019
-0.0023967
-0.00405098
-0.00238031
-0.00411324
-0.00235861
-0.00416275
-0.00233797
-0.0042069
-0.00231451
-0.00423676
-0.0022953
-0.00425894
-0.00227304
-0.00427404
-0.00224589
-0.00427899
-0.00222304
-0.00427408
-0.0021978
-0.0042624
-0.00217239
-0.00424408
-0.00214174
-0.0042195
-0.00211162
-0.00418826
-0.00208143
-0.00414899
-0.00204988
-0.0041054
-0.00201656
-0.00405612
-0.0019804
-0.00400116
-0.001945
-0.00394181
-0.00190621
-0.00387671
-0.00186588
-0.00380802
-0.00182486
-0.00373492
-0.00178213
-0.00365915
-0.00173547
-0.00357842
-0.00169043
-0.00349454
-0.00164543
-0.0034053
-0.00159543
-0.00331698
-0.00154419
-0.00322446
-0.0014964
-0.00312632
-0.00144711
-0.00302837
-0.00139599
-0.00293014
-0.00134746
-0.00282875
-0.00130216
-0.00272594
-0.0012597
-0.00261874
-0.00122312
-0.00251196
-0.0011877
-0.00561421
0.000233813
-0.000800892
-0.00523119
0.000219899
-0.000602914
-0.00492442
0.000191174
-0.000497942
-0.00466043
0.000157382
-0.000421376
-0.00442439
0.00011955
-0.000355589
-0.00420906
7.99687e-05
-0.000295298
-0.00400911
3.81992e-05
-0.000238145
-0.00382012
-5.30571e-06
-0.000183682
-0.00364014
-4.90494e-05
-0.000130933
-0.00346754
-9.40869e-05
-7.85178e-05
-0.00330144
-0.000140129
-2.59709e-05
-0.00314122
-0.00018643
2.62098e-05
-0.00298575
-0.000233829
7.83674e-05
-0.00283617
-0.000281819
0.000132234
-0.00269087
-0.000331294
0.000185999
-0.00255071
-0.000381505
0.000241344
-0.0024156
-0.000433515
0.000298405
-0.00228515
-0.000486626
0.000356173
-0.00216043
-0.00054107
0.000416355
-0.00204033
-0.000598443
0.000478341
-0.00192675
-0.000657341
0.000543755
-0.0018195
-0.000717444
0.000610203
-0.00171858
-0.00078085
0.000679926
-0.00162525
-0.000846405
0.000753071
-0.00154011
-0.000913849
0.000828714
-0.00146349
-0.000984964
0.000908342
-0.00139611
-0.00105832
0.000990938
-0.00133979
-0.00113474
0.00107843
-0.00129358
-0.00121528
0.00116906
-0.00125984
-0.00129826
0.00126452
-0.00123897
-0.00138596
0.00136509
-0.00123138
-0.00147682
0.00146923
-0.00123925
-0.00157196
0.00157983
-0.00126248
-0.00167188
0.0016951
-0.00130333
-0.00177536
0.00181622
-0.00136245
-0.00188471
0.00194383
-0.00144035
-0.00199863
0.00207653
-0.00153976
-0.0021178
0.00221721
-0.00166087
-0.00224255
0.00236366
-0.00180551
-0.00237298
0.00251762
-0.00197525
-0.00250951
0.00267925
-0.00217192
-0.00265232
0.00284898
-0.00280188
0.00302601
-0.00239604
-0.00518785
-9.85134e-05
-0.00488485
-8.31019e-05
-0.0046116
-8.20772e-05
-0.00436369
-9.05265e-05
-0.00413687
-0.000107269
-0.00392652
-0.000130386
-0.00372999
-0.000158321
-0.00354615
-0.000189145
-0.00337102
-0.000224187
-0.00320622
-0.000258884
-0.00304752
-0.000298828
-0.00289597
-0.000337976
-0.00275082
-0.000378982
-0.00260926
-0.000423383
-0.00247442
-0.000466131
-0.00234302
-0.000512904
-0.00221757
-0.000558967
-0.00209669
-0.000607508
-0.00197995
-0.000657801
-0.00187065
-0.000707742
-0.00176693
-0.000761061
-0.00166868
-0.000815699
-0.00157768
-0.000871853
-0.00149392
-0.000930157
-0.00141795
-0.000989819
-0.00135044
-0.00105248
-0.00129151
-0.00111726
-0.00124267
-0.00118358
-0.00120379
-0.00125416
-0.001176
-0.00132604
-0.00116054
-0.00140142
-0.00115775
-0.0014796
-0.00116806
-0.00156165
-0.00119314
-0.00164679
-0.00123333
-0.00173518
-0.00129031
-0.00182773
-0.00136476
-0.00192418
-0.00145721
-0.00202534
-0.00156997
-0.0021298
-0.0017035
-0.00223945
-0.00185876
-0.00235425
-0.00203757
-0.00247351
-0.0025981
-0.00224135
-0.00470365
-0.000315778
-0.00448644
-0.000300306
-0.00427572
-0.000292798
-0.00406992
-0.000296328
-0.00387275
-0.000304444
-0.00368437
-0.000318765
-0.00350441
-0.000338277
-0.00333139
-0.000362169
-0.00316682
-0.000388753
-0.00300639
-0.000419317
-0.00285464
-0.000450578
-0.00270651
-0.000486108
-0.00256477
-0.000520718
-0.00242901
-0.000559146
-0.00229782
-0.000597314
-0.00217266
-0.000638067
-0.00205212
-0.000679509
-0.00193721
-0.000722416
-0.00182883
-0.000766184
-0.00172509
-0.000811478
-0.0016277
-0.00085845
-0.00153713
-0.000906269
-0.00145371
-0.000955273
-0.00137718
-0.00100669
-0.00130766
-0.00105934
-0.00124739
-0.00111275
-0.00119523
-0.00116941
-0.00115157
-0.00122724
-0.00111854
-0.00128719
-0.00109549
-0.00134909
-0.00108319
-0.00141373
-0.00108291
-0.00147988
-0.00109512
-0.00154944
-0.00112081
-0.0016211
-0.00115965
-0.00169635
-0.00121389
-0.00177349
-0.00128364
-0.00185442
-0.00137058
-0.0019384
-0.00147451
-0.00202587
-0.00159735
-0.00211661
-0.00174033
-0.00221128
-0.00190399
-0.00230984
-0.00241274
-0.00208936
-0.00416879
-0.000500745
-0.00398554
-0.000483559
-0.00380588
-0.000472457
-0.00363099
-0.000471215
-0.0034616
-0.000473834
-0.00329783
-0.000482537
-0.00313882
-0.000497286
-0.00298568
-0.000515316
-0.00283832
-0.000536108
-0.00269558
-0.000562056
-0.00255841
-0.000587747
-0.00242682
-0.0006177
-0.00229877
-0.000648768
-0.00217633
-0.000681586
-0.00205845
-0.000715196
-0.00194619
-0.000750326
-0.00183802
-0.000787683
-0.00173567
-0.000824768
-0.00163865
-0.000863203
-0.00154703
-0.000903098
-0.00146067
-0.000944804
-0.00138118
-0.000985765
-0.00130688
-0.00102956
-0.00124029
-0.00107328
-0.00118041
-0.00111922
-0.00112732
-0.00116584
-0.00108319
-0.00121354
-0.00104765
-0.00126278
-0.00102086
-0.00131399
-0.00100304
-0.00136691
-0.000995938
-0.00142083
-0.000998624
-0.0014772
-0.00101312
-0.00153495
-0.00103901
-0.00159521
-0.00107839
-0.00165696
-0.00113058
-0.0017213
-0.00119699
-0.00178802
-0.00127846
-0.00185694
-0.00137605
-0.00192827
-0.00149013
-0.00200253
-0.00162183
-0.00207958
-0.00177236
-0.00215931
-0.00224195
-0.00194315
-0.00372101
-0.00066128
-0.00356329
-0.000641276
-0.00340643
-0.000629313
-0.00325406
-0.000623584
-0.00310522
-0.000622682
-0.0029594
-0.000628356
-0.00281886
-0.000637824
-0.00268172
-0.000652453
-0.00254816
-0.000669669
-0.00242124
-0.00068898
-0.00229616
-0.000712822
-0.00217683
-0.00073703
-0.00206233
-0.000763272
-0.00195177
-0.000792144
-0.00184541
-0.000821551
-0.00174396
-0.000851783
-0.00164702
-0.000884618
-0.00155529
-0.000916496
-0.0014676
-0.000950897
-0.00138506
-0.000985636
-0.00130934
-0.00102053
-0.00123779
-0.00105731
-0.0011724
-0.00109495
-0.00111334
-0.00113235
-0.00106126
-0.0011713
-0.00101634
-0.00121076
-0.000978581
-0.00125131
-0.000948363
-0.00129299
-0.000926261
-0.00133609
-0.000913787
-0.00137938
-0.000909348
-0.00142527
-0.000915688
-0.00147086
-0.000931413
-0.00151922
-0.000958522
-0.0015681
-0.000996648
-0.00161884
-0.0010468
-0.00167115
-0.00110955
-0.00172527
-0.0011862
-0.00178029
-0.00127716
-0.00183731
-0.00138298
-0.00189671
-0.00150438
-0.00195818
-0.00164243
-0.00202126
-0.00208655
-0.00179782
-0.00332714
-0.000803053
-0.00318564
-0.000782776
-0.0030463
-0.000768646
-0.00291067
-0.000759223
-0.00277689
-0.000756453
-0.00264733
-0.000757923
-0.00252017
-0.000764984
-0.00239779
-0.000774828
-0.00227917
-0.000788287
-0.00216273
-0.000805425
-0.00205228
-0.000823269
-0.00194516
-0.000844154
-0.00184144
-0.000866996
-0.00174206
-0.000891517
-0.00164704
-0.000916574
-0.00155501
-0.000943815
-0.00146919
-0.000970434
-0.00138594
-0.000999744
-0.00130851
-0.00102833
-0.00123569
-0.00105845
-0.00116696
-0.00108927
-0.00110412
-0.00112014
-0.00104745
-0.00115163
-0.000995285
-0.00118451
-0.000950057
-0.00121653
-0.000911473
-0.00124934
-0.000879259
-0.00128352
-0.000854523
-0.00131773
-0.000837435
-0.00135318
-0.000828045
-0.00138877
-0.000827503
-0.00142581
-0.000835017
-0.00146334
-0.00085234
-0.0015019
-0.000879323
-0.00154112
-0.000916376
-0.00158178
-0.000964439
-0.00162309
-0.00102478
-0.00166493
-0.00109657
-0.0017085
-0.00118128
-0.0017526
-0.00127953
-0.00179847
-0.0013921
-0.00184561
-0.00151914
-0.00189422
-0.00194437
-0.00166131
-0.00298022
-0.000931918
-0.00285428
-0.000908719
-0.00273011
-0.000892808
-0.00260688
-0.000882459
-0.00248746
-0.000875872
-0.00237057
-0.000874808
-0.00225664
-0.000878917
-0.00214568
-0.000885793
-0.00203831
-0.000895657
-0.00193443
-0.000909304
-0.0018342
-0.000923491
-0.00173689
-0.000941463
-0.00164429
-0.000959606
-0.00155525
-0.000980552
-0.00146959
-0.00100223
-0.00138803
-0.00102537
-0.00130976
-0.00104871
-0.00123598
-0.00107353
-0.00116609
-0.00109822
-0.0011003
-0.00112424
-0.00104038
-0.00114918
-0.000984417
-0.00117611
-0.000933953
-0.00120209
-0.000888995
-0.00122947
-0.000849663
-0.00125586
-0.000816401
-0.0012826
-0.000788975
-0.00131095
-0.000768514
-0.00133819
-0.000755087
-0.0013666
-0.000748068
-0.00139579
-0.000749722
-0.00142415
-0.00075895
-0.00145411
-0.000776923
-0.00148393
-0.000803722
-0.00151432
-0.000839618
-0.00154589
-0.00088577
-0.00157693
-0.000942486
-0.00160822
-0.00101052
-0.00164047
-0.00108935
-0.00167376
-0.00118037
-0.00170745
-0.00128393
-0.00174204
-0.00140121
-0.00177695
-0.0018134
-0.00153218
-0.00267516
-0.00104786
-0.00256104
-0.00102283
-0.00244861
-0.00100524
-0.00233887
-0.0009922
-0.00223082
-0.000983916
-0.00212472
-0.000980915
-0.00202182
-0.00098181
-0.00192182
-0.000985792
-0.00182499
-0.000992493
-0.00173234
-0.00100195
-0.0016409
-0.00101493
-0.00155387
-0.0010285
-0.00147011
-0.00104336
-0.00138877
-0.0010619
-0.00131203
-0.00107897
-0.00123893
-0.00109848
-0.00116806
-0.00111958
-0.00110183
-0.00113975
-0.00103971
-0.00116033
-0.000981611
-0.00118234
-0.000927487
-0.00120331
-0.000878091
-0.00122551
-0.000833074
-0.00124711
-0.000793638
-0.0012689
-0.000759493
-0.00129
-0.000730783
-0.00131132
-0.000708072
-0.00133366
-0.000690812
-0.00135545
-0.000679625
-0.00137779
-0.00067571
-0.00139971
-0.00067876
-0.0014211
-0.000689151
-0.00144372
-0.000706804
-0.00146627
-0.000732573
-0.00148855
-0.000767625
-0.00151084
-0.00081174
-0.00153282
-0.000864825
-0.00155513
-0.000928298
-0.00157699
-0.00100198
-0.00160007
-0.00108603
-0.00162341
-0.00118219
-0.00164588
-0.00128984
-0.00166929
-0.00169297
-0.00141028
-0.00240585
-0.00115397
-0.00230201
-0.00112667
-0.00219965
-0.0011076
-0.00209853
-0.00109332
-0.00200362
-0.00107883
-0.00190911
-0.00107542
-0.00181534
-0.00107558
-0.00172362
-0.00107751
-0.00163584
-0.00108028
-0.0015518
-0.00108599
-0.00147006
-0.00109667
-0.00139081
-0.00110774
-0.00131456
-0.00111961
-0.00124141
-0.00113504
-0.00117278
-0.00114761
-0.00110581
-0.00116545
-0.00104184
-0.00118355
-0.000982452
-0.00119914
-0.000925824
-0.00121696
-0.000874128
-0.00123404
-0.000825369
-0.00125207
-0.000781312
-0.00126956
-0.000741835
-0.00128658
-0.000707792
-0.00130295
-0.000678227
-0.00131957
-0.000652324
-0.00133722
-0.000632906
-0.00135308
-0.000618971
-0.00136939
-0.000610085
-0.00138668
-0.000609058
-0.00140073
-0.000613324
-0.00141684
-0.000623727
-0.00143332
-0.000641775
-0.00144823
-0.000667459
-0.00146286
-0.000699626
-0.00147867
-0.00074192
-0.00149053
-0.000792672
-0.00150438
-0.000851473
-0.00151819
-0.000919306
-0.00153224
-0.000998031
-0.00154468
-0.00108633
-0.00155759
-0.00118546
-0.00157016
-0.00129557
-0.00158286
0.00123204
-0.000831144
0.000918628
-0.00131952
0.00115861
-0.000752112
0.000825536
0.00109822
-0.000676312
0.000736705
0.00104945
-0.000604003
0.000652776
0.00101155
-0.000535699
0.000573599
0.000983246
-0.000471033
0.000499335
0.000963645
-0.000410327
0.000429929
0.000952035
-0.000353154
0.000364765
0.00094675
-0.000299203
0.000304488
0.00094689
-0.000248384
0.000248244
0.000951668
-0.000201304
0.000196527
0.000960522
-0.000157134
0.00014828
0.000972645
-0.000115945
0.000103822
0.000986843
-7.72945e-05
6.30969e-05
0.00100228
-4.13387e-05
2.59022e-05
0.00101897
-8.08492e-06
-8.61063e-06
0.00103565
2.29411e-05
-3.96196e-05
0.00105173
5.1908e-05
-6.79849e-05
0.00106723
7.82837e-05
-9.37794e-05
0.00108109
0.000103278
-0.000117142
0.00109286
0.000125927
-0.000137696
0.00110229
0.000147225
-0.000156657
0.00110926
0.000166453
-0.000173423
0.00111316
0.000184515
-0.00018841
0.00111325
0.000201069
-0.000201168
0.00110994
0.000216332
-0.000213018
0.00110275
0.00023035
-0.000223157
0.00109132
0.000243232
-0.000231802
0.00107526
0.000255264
-0.000239204
0.00105472
0.000266055
-0.000245519
0.00102951
0.000276117
-0.000250909
0.000999005
0.000285542
-0.000255033
0.000963549
0.000293978
-0.000258523
0.00092191
0.000302685
-0.000261045
0.000874952
0.000310356
-0.000263398
0.00082118
0.00031849
-0.000264718
0.000758943
0.000327342
-0.000265106
0.00068655
0.000338413
-0.000266021
0.000598493
0.000354143
-0.000266086
0.000486133
0.000380618
-0.000268258
0.000328594
0.000431647
-0.000274108
7.87076e-05
0.000544016
-0.00029413
0.000821206
-0.000395699
-0.000346799
0.00112008
-0.000755189
-0.00119603
0.00105489
-0.000686925
0.00100067
-0.000622094
0.000956626
-0.000559956
0.000922299
-0.000501372
0.000896426
-0.00044516
0.000877887
-0.000391788
0.000866216
-0.000341484
0.000860669
-0.000293656
0.000860238
-0.000247953
0.000864073
-0.000205138
0.000871441
-0.000164502
0.000882052
-0.000126556
0.000894866
-9.01085e-05
0.000909398
-5.58711e-05
0.000924943
-2.36293e-05
0.000940849
7.03473e-06
0.000957211
3.55464e-05
0.000972874
6.26204e-05
0.000987562
8.85903e-05
0.00100084
0.00011265
0.00101252
0.000135543
0.00102164
0.000157332
0.00102826
0.000177892
0.00103186
0.000197475
0.00103222
0.000215972
0.00102867
0.000233898
0.00102143
0.00025047
0.0010097
0.000266998
0.00099317
0.000282583
0.000971374
0.000297913
0.00094391
0.000313007
0.000909899
0.000327989
0.000869097
0.000343487
0.000819529
0.000359924
0.000760083
0.000377936
0.000687367
0.000400059
0.000597492
0.000428287
0.000482891
0.000468745
0.000332627
0.000530882
0.000128543
0.000635731
-0.000151877
0.000824437
0.00116876
-0.000499427
0.00101654
-0.000686111
-0.00108561
0.000958245
-0.000628633
0.000909937
-0.000573786
0.00087037
-0.000520389
0.000839464
-0.000470465
0.000816188
-0.000421885
0.000799351
-0.000374951
0.000788865
-0.000330997
0.000783027
-0.000287819
0.00078255
-0.000247476
0.000785499
-0.000208088
0.00079238
-0.000171383
0.00080117
-0.000135346
0.00081262
-0.000101558
0.00082592
-6.91709e-05
0.000840124
-3.78337e-05
0.000855192
-8.03361e-06
0.000870205
2.05338e-05
0.000884522
4.83038e-05
0.000898657
7.44547e-05
0.000911525
9.97828e-05
0.0009227
0.000124367
0.000931795
0.000148237
0.000938689
0.000170999
0.000942961
0.000193203
0.000944063
0.000214869
0.000941808
0.000236153
0.000935305
0.000256973
0.000924428
0.000277876
0.000908737
0.000298274
0.000887426
0.000319225
0.00085989
0.000340543
0.000824747
0.000363132
0.000781623
0.000386611
0.0007284
0.000413146
0.00066244
0.000443897
0.00058149
0.000481009
0.000480287
0.00052949
0.000353112
0.00059592
0.000190743
0.000693251
-1.59027e-05
0.000842377
-0.00026977
0.0010783
0.00144582
-0.000546832
0.000919674
-0.000624783
-0.000981001
0.000867641
-0.0005766
0.000824251
-0.000530396
0.000789276
-0.000485414
0.000760652
-0.000441841
0.000738723
-0.000399956
0.000723214
-0.000359442
0.000712745
-0.000320528
0.000707306
-0.000282379
0.000705585
-0.000245755
0.000708152
-0.000210655
0.000712959
-0.00017619
0.000720807
-0.000143194
0.000730619
-0.00011137
0.000741716
-8.02675e-05
0.000754065
-5.01826e-05
0.000767357
-2.13259e-05
0.000780514
7.37622e-06
0.000794012
3.48067e-05
0.000806753
6.17129e-05
0.000818172
8.83646e-05
0.000828591
0.000113948
0.000837375
0.000139452
0.00084388
0.000164494
0.000848149
0.000188934
0.000849335
0.000213684
0.000847204
0.000238284
0.000841144
0.000263032
0.000830935
0.000288085
0.00081579
0.000313419
0.000794808
0.000340207
0.00076751
0.000367841
0.000732782
0.00039786
0.000688517
0.000430877
0.000633736
0.000467927
0.000566495
0.000511138
0.00048356
0.000563943
0.000381174
0.000631877
0.000254942
0.000722151
9.80826e-05
0.00085011
-9.18404e-05
0.0010323
-0.000315815
0.00130228
0.00168753
-0.000557527
0.000831544
-0.000570177
-0.00088615
0.000785104
-0.00053016
0.000745529
-0.000490821
0.000713114
-0.000453
0.000687552
-0.000416278
0.000667547
-0.000379952
0.000652887
-0.000344782
0.000642573
-0.000310214
0.000636711
-0.000276518
0.000635108
-0.000244151
0.000635773
-0.00021132
0.000640047
-0.000180465
0.000646102
-0.000149248
0.000654369
-0.000119637
0.000663797
-8.96959e-05
0.000674624
-6.10091e-05
0.000685897
-3.25995e-05
0.000698082
-4.80885e-06
0.000709707
2.31824e-05
0.000720801
5.06188e-05
0.000731307
7.78582e-05
0.000740471
0.000104785
0.000748352
0.000131571
0.000754067
0.00015878
0.000757552
0.000185449
0.000758658
0.000212577
0.000756608
0.000240334
0.000751102
0.000268538
0.000741144
0.000298043
0.000726489
0.000328075
0.000706417
0.000360279
0.000679673
0.000394585
0.000645915
0.000431619
0.000603151
0.00047364
0.000550194
0.000520885
0.000485201
0.000576131
0.0004045
0.000644645
0.000306568
0.000729809
0.000186302
0.000842417
4.16038e-05
0.000994809
-0.000131701
0.0012056
-0.000330538
0.00150112
0.00190252
-0.000545527
0.000750793
-0.000521114
-0.000799856
0.000708618
-0.000487984
0.000672899
-0.000455103
0.000643863
-0.000423964
0.000620205
-0.00039262
0.000601592
-0.000361339
0.000587861
-0.000331051
0.000578131
-0.000300483
0.000572287
-0.000270674
0.000569429
-0.000241293
0.000570192
-0.000212084
0.000572946
-0.000183218
0.000578048
-0.000154351
0.00058446
-0.000126049
0.000592658
-9.78941e-05
0.000601956
-7.03072e-05
0.00061179
-4.24337e-05
0.000622064
-1.50822e-05
0.00063238
1.28665e-05
0.000642298
4.07004e-05
0.000651605
6.85511e-05
0.000659808
9.65824e-05
0.000666582
0.000124797
0.000671812
0.000153549
0.000674951
0.00018231
0.000675406
0.000212122
0.000673515
0.000242225
0.000667784
0.00027427
0.000658669
0.000307157
0.000644975
0.000341769
0.000626115
0.000379139
0.00060144
0.000419259
0.000569374
0.000463686
0.000529354
0.00051366
0.000479399
0.000570839
0.00041714
0.000638389
0.000342051
0.000719734
0.000249903
0.000821958
0.000137752
0.000954568
4.86406e-06
0.0011277
-0.000152264
0.00136273
-0.000329155
0.00167801
0.00209859
-0.000525222
0.000676978
-0.000476847
-0.000721245
0.000638965
-0.000449971
0.000606966
-0.000423104
0.000580365
-0.000397363
0.000558631
-0.000370886
0.000541749
-0.000344458
0.000528303
-0.000317604
0.00051932
-0.0002915
0.000513667
-0.000265021
0.00051058
-0.000238207
0.000510712
-0.000212216
0.000512758
-0.000185264
0.000516743
-0.000158335
0.000522087
-0.000131393
0.000529193
-0.000105
0.000536577
-7.76907e-05
0.000545158
-5.10148e-05
0.000553806
-2.373e-05
0.000562877
3.79488e-06
0.000571859
3.17185e-05
0.000579883
6.05268e-05
0.000587323
8.91424e-05
0.000593469
0.00011865
0.000597794
0.000149225
0.000600058
0.000180046
0.000600649
0.000211531
0.000598441
0.000244433
0.000593521
0.00027919
0.000584773
0.000315905
0.000571605
0.000354937
0.000554509
0.000396235
0.000531598
0.00044217
0.000502401
0.000492883
0.00046515
0.000550911
0.000419003
0.000616986
0.0003622
0.000695193
0.000292171
0.000789762
0.000206995
0.000907134
0.000104322
0.00105724
-1.9637e-05
0.00125166
-0.000163198
0.00150629
-0.000324122
0.00183893
0.00227472
-0.000500252
0.000610376
-0.000437025
-0.000650198
0.00057624
-0.000415835
0.000547049
-0.000393913
0.000523028
-0.000373342
0.000503244
-0.000351102
0.00048734
-0.000328553
0.000475081
-0.000305345
0.000466204
-0.000282623
0.00046045
-0.000259267
0.000457582
-0.000235339
0.000456837
-0.000211471
0.00045847
-0.000186897
0.000461715
-0.00016158
0.000466575
-0.000136253
0.000472018
-0.000110443
0.000478759
-8.44318e-05
0.000485902
-5.81573e-05
0.000493882
-3.17106e-05
0.000501911
-4.23357e-06
0.000509346
2.42829e-05
0.000516848
5.30246e-05
0.000523045
8.29458e-05
0.000528495
0.000113201
0.00053272
0.000145
0.000534774
0.000177992
0.000534756
0.000211549
0.00053289
0.000246299
0.000527971
0.000284109
0.000519789
0.000324087
0.000507474
0.000367252
0.000491255
0.000412455
0.000470643
0.000462781
0.000443751
0.000519775
0.000410233
0.00058443
0.000367618
0.000659601
0.0003152
0.000747611
0.000251537
0.000853425
0.000175156
0.000983515
8.02764e-05
0.00115212
-3.35517e-05
0.00136548
-0.000165607
0.00163835
-0.000311191
0.00198452
0.00243402
-0.000470498
0.000550293
-0.000401926
-0.000585393
0.000519806
-0.000385348
0.000491722
-0.000365829
0.000470813
-0.000352434
0.000452835
-0.000333124
0.000438199
-0.000313917
0.000426857
-0.000294003
0.000418606
-0.000274373
0.000412715
-0.000253376
0.000409559
-0.000232182
0.000408292
-0.000210204
0.000409538
-0.000188143
0.000412046
-0.000164088
0.000415733
-0.000139939
0.00042031
-0.00011502
0.000425802
-8.99234e-05