/*--------------------------------*- C++ -*----------------------------------*\
| =========                 |                                                 |
| \\      /  F ield         | OpenFOAM: The Open Source CFD Toolbox           |
|  \\    /   O peration     | Version:  2.3.0                                 |
|   \\  /    A nd           | Web:      www.OpenFOAM.org                      |
|    \\/     M anipulation  |                                                 |
\*---------------------------------------------------------------------------*/
FoamFile
{
    version     2.0;
    format      ascii;
    class       volVectorField;
    location    "3000";
    object      U;
}
// * * * * * * * * * * * * * * * * * * * * * * * * * * * * * * * * * * * * * //

dimensions      [0 1 -1 0 0 0 0];

internalField   nonuniform List<vector> 
39691
(
(21.3096 10.9669 8.38882e-21)
(21.2075 11.1534 8.79716e-21)
(21.104 11.3419 5.11762e-21)
(20.9965 11.5309 0)
(20.8845 11.7211 -1.76939e-20)
(20.7673 11.9124 0)
(20.6447 12.1044 0)
(20.516 12.2969 2.65243e-20)
(20.3808 12.4898 -2.65373e-20)
(20.2385 12.6827 6.97391e-20)
(20.0888 12.8753 -6.98978e-20)
(19.931 13.0671 1.03467e-19)
(19.7644 13.2578 -1.05384e-19)
(19.5885 13.4466 0)
(19.4023 13.6331 1.18813e-19)
(19.2052 13.8163 -1.20036e-19)
(18.9963 13.9953 1.37128e-19)
(18.7745 14.1692 -1.44095e-19)
(18.5389 14.3365 0)
(18.288 14.4962 3.40124e-21)
(18.0206 14.6468 0)
(17.7348 14.787 2.09697e-19)
(17.4288 14.9153 -2.19032e-19)
(17.1005 15.0307 0)
(16.7473 15.1321 0)
(16.3664 15.2196 -3.15748e-20)
(15.9545 15.2932 2.75356e-19)
(15.5078 15.3544 -6.09393e-19)
(15.0215 15.4048 3.20637e-19)
(14.4906 15.4485 0)
(13.9099 15.4921 0)
(13.271 15.5402 1.65322e-19)
(12.5666 15.6028 -2.02386e-19)
(11.787 15.6891 -2.58112e-20)
(10.9208 15.8078 2.09617e-19)
(9.9572 15.969 -2.2204e-19)
(8.88763 16.182 0)
(7.70735 16.4581 0)
(6.40331 16.7827 -2.97249e-20)
(4.97091 17.1419 0)
(3.46007 17.6027 0)
(1.95601 18.3434 0)
(0.348205 18.9698 -5.52491e-19)
(21.1429 10.9099 -1.29471e-20)
(21.0448 11.0779 -1.23722e-20)
(20.9464 11.2475 2.05982e-20)
(20.8451 11.418 -1.95871e-20)
(20.7404 11.5901 3.19599e-21)
(20.6319 11.7637 -9.72799e-21)
(20.5192 11.9388 -9.71285e-21)
(20.4021 12.1154 0)
(20.28 12.2934 0)
(20.1526 12.4729 -3.13186e-20)
(20.0195 12.654 1.27882e-22)
(19.8804 12.8369 4.27814e-20)
(19.7347 13.0214 -3.17613e-20)
(19.582 13.2078 1.05818e-20)
(19.4217 13.3963 -2.23319e-20)
(19.2532 13.5868 2.2515e-20)
(19.0758 13.7795 1.67617e-20)
(18.8886 13.9748 -6.23098e-21)
(18.691 14.1729 -6.59168e-21)
(18.4819 14.374 -3.15356e-20)
(18.2606 14.5787 -1.90414e-21)
(18.0261 14.7872 -2.53139e-21)
(17.7772 14.9999 3.83636e-20)
(17.5129 15.2169 0)
(17.2319 15.4387 0)
(16.9331 15.6649 4.10478e-21)
(16.6151 15.8954 -7.05793e-20)
(16.2762 16.1295 1.58233e-19)
(15.9147 16.3659 -7.01655e-20)
(15.5288 16.603 0)
(15.1159 16.8383 -1.22197e-20)
(14.6736 17.0685 -1.43796e-20)
(14.1986 17.2883 -2.28356e-19)
(13.6873 17.4919 5.39947e-19)
(13.136 17.671 -3.48682e-19)
(12.5404 17.8145 -8.69402e-21)
(11.8978 17.9105 0)
(11.2045 17.9433 4.13043e-20)
(10.4585 17.8953 -2.67896e-20)
(9.6614 17.7436 0)
(8.82562 17.468 6.7951e-20)
(7.95925 17.0558 7.80089e-20)
(7.06619 16.4689 0)
(20.9897 10.8447 0)
(20.8933 10.9941 5.94789e-21)
(20.7955 11.1463 2.57829e-20)
(20.6951 11.2998 1.964e-20)
(20.5916 11.4548 1.65187e-20)
(20.4847 11.6113 9.72037e-21)
(20.3739 11.7692 9.69293e-21)
(20.2591 11.9285 -1.72135e-20)
(20.1397 12.0894 1.7521e-20)
(20.0153 12.2517 -4.55436e-20)
(19.8855 12.4156 5.52479e-20)
(19.75 12.5813 -5.7616e-20)
(19.6085 12.7488 1.27118e-19)
(19.4606 12.9184 -4.98033e-20)
(19.306 13.0899 0)
(19.144 13.2635 6.62116e-20)
(18.9743 13.4392 -8.97371e-21)
(18.796 13.6169 -1.37491e-19)
(18.6083 13.7968 -9.90907e-21)
(18.4103 13.9786 -4.18954e-21)
(18.2008 14.1624 8.46255e-20)
(17.979 14.348 -9.66101e-20)
(17.7431 14.5352 -6.4237e-21)
(17.4918 14.7238 -7.41617e-21)
(17.2233 14.9135 1.17348e-19)
(16.9361 15.1035 -2.2001e-20)
(16.6279 15.2934 0)
(16.2968 15.482 0)
(15.9405 15.6679 -2.41247e-19)
(15.5569 15.8498 1.9939e-19)
(15.1438 16.0253 -1.98285e-19)
(14.6988 16.1916 3.11889e-19)
(14.2205 16.3451 -1.64228e-20)
(13.707 16.4812 7.39512e-20)
(13.1577 16.5943 2.30397e-20)
(12.5732 16.6772 4.94818e-19)
(11.9555 16.7215 -5.47375e-19)
(11.3093 16.7177 6.21793e-19)
(10.6414 16.6541 -5.7573e-19)
(9.96426 16.5192 -3.77195e-19)
(9.29546 16.2999 8.07076e-19)
(8.65646 15.9841 -5.67399e-19)
(8.07237 15.5653 0)
(20.8531 10.7691 0)
(20.7601 10.9059 5.74775e-21)
(20.6658 11.0432 6.84022e-22)
(20.5688 11.1813 -3.82135e-20)
(20.4691 11.3205 2.30233e-20)
(20.3663 11.4609 -1.65286e-20)
(20.2601 11.6025 1.05162e-19)
(20.1504 11.7454 -6.43199e-20)
(20.0366 11.8895 -4.17022e-20)
(19.9184 12.0349 8.74293e-20)
(19.7952 12.1815 -2.0256e-19)
(19.6667 12.3294 1.82383e-19)
(19.5322 12.4788 -6.55856e-20)
(19.3916 12.6299 -4.80002e-20)
(19.2445 12.7826 -1.03674e-19)
(19.0903 12.937 1.97584e-19)
(18.9288 13.0931 -1.09399e-19)
(18.7593 13.251 1.68123e-20)
(18.5812 13.4105 -5.13324e-21)
(18.3938 13.5714 0)
(18.1963 13.7337 2.00583e-20)
(17.9879 13.8971 -2.14567e-20)
(17.7675 14.0614 0)
(17.5341 14.2259 0)
(17.2865 14.39 0)
(17.0237 14.5531 2.16589e-20)
(16.7441 14.7139 0)
(16.4464 14.8711 2.67151e-19)
(16.1289 15.023 -2.83694e-19)
(15.7904 15.1676 4.27454e-20)
(15.4292 15.3024 1.05944e-20)
(15.044 15.4242 3.73415e-19)
(14.6335 15.5293 -4.26602e-19)
(14.1971 15.6134 -3.15234e-19)
(13.7346 15.6713 2.69428e-19)
(13.2469 15.6972 8.17489e-20)
(12.7362 15.6848 4.11892e-19)
(12.2061 15.627 -4.82547e-19)
(11.6625 15.5171 4.16481e-19)
(11.1144 15.3488 -1.20567e-20)
(10.5732 15.1184 -4.58876e-19)
(10.0528 14.8238 -6.16504e-19)
(9.56979 14.4684 1.35943e-18)
(20.7292 10.6978 0)
(20.6412 10.8196 0)
(20.5509 10.9431 -4.89978e-20)
(20.4577 11.0672 7.60126e-20)
(20.3616 11.1924 7.83754e-20)
(20.2625 11.3186 -7.33662e-20)
(20.1602 11.4458 -7.58909e-20)
(20.0544 11.5743 2.78494e-20)
(19.945 11.704 1.07441e-19)
(19.8317 11.8348 5.62169e-20)
(19.7138 11.9667 -3.06549e-20)
(19.5909 12.0995 0)
(19.4623 12.2335 3.44546e-20)
(19.3276 12.3688 -3.36225e-20)
(19.1866 12.5055 0)
(19.0387 12.6433 1.52057e-20)
(18.8834 12.7825 0)
(18.7206 12.9229 -1.67554e-20)
(18.5496 13.0645 -3.83151e-21)
(18.3696 13.2068 2.27604e-20)
(18.1799 13.3498 -1.99793e-20)
(17.9796 13.4932 2.13596e-20)
(17.7678 13.6368 -1.0385e-19)
(17.5436 13.7799 1.05997e-19)
(17.306 13.9218 0)
(17.0539 14.0618 0)
(16.7862 14.199 -1.4241e-19)
(16.5017 14.3319 1.86491e-19)
(16.1993 14.459 8.25101e-20)
(15.8778 14.5783 -9.06581e-20)
(15.5362 14.6877 -4.69234e-20)
(15.1739 14.7841 0)
(14.7901 14.8643 0)
(14.3851 14.9248 0)
(13.9597 14.9609 3.11332e-19)
(13.5151 14.9679 -7.45034e-19)
(13.0541 14.9408 3.53266e-19)
(12.5808 14.8741 9.98718e-20)
(12.1008 14.763 1.14857e-19)
(11.6219 14.6036 0)
(11.1531 14.3937 5.54983e-19)
(10.7051 14.1332 -5.5821e-19)
(10.289 13.8258 8.56363e-20)
(20.6204 10.6281 -2.81533e-20)
(20.5364 10.7358 8.55325e-20)
(20.4507 10.8476 -5.72851e-20)
(20.3617 10.9594 -2.72281e-20)
(20.2699 11.0722 -5.98212e-20)
(20.1752 11.1859 0)
(20.0773 11.3005 0)
(19.9757 11.4162 -2.9192e-20)
(19.8705 11.5333 -9.51772e-20)
(19.762 11.6516 3.3552e-20)
(19.6497 11.7709 -1.94949e-21)
(19.5327 11.8911 1.7673e-19)
(19.4103 12.0121 -1.43938e-19)
(19.282 12.1342 7.32667e-20)
(19.1476 12.2574 7.86417e-20)
(19.0066 12.3816 2.8566e-21)
(18.8583 12.5066 -1.68418e-19)
(18.7024 12.6328 8.6598e-20)
(18.5388 12.7599 -3.11952e-21)
(18.3669 12.8875 -2.2765e-20)
(18.1861 13.0152 -7.87809e-20)
(17.9953 13.1427 1.91991e-19)
(17.7937 13.27 -1.15209e-19)
(17.5808 13.3963 1.29537e-19)
(17.3556 13.521 -1.32333e-19)
(17.117 13.6431 -1.5044e-19)
(16.8642 13.7618 1.5403e-19)
(16.5966 13.8758 -4.03291e-20)
(16.313 13.9834 -2.85261e-19)
(16.0124 14.0832 2.45783e-19)
(15.6942 14.1728 2.30269e-19)
(15.3578 14.2496 -2.3641e-19)
(15.0028 14.3107 0)
(14.6297 14.353 -3.04889e-19)
(14.2396 14.3729 6.00862e-20)
(13.8337 14.366 -2.51195e-20)
(13.4148 14.3284 3.76335e-19)
(12.9865 14.2559 0)
(12.5536 14.1447 -1.13616e-19)
(12.1224 13.9921 5.22742e-19)
(11.7001 13.7968 -5.28234e-19)
(11.2949 13.5593 1.46696e-19)
(10.9153 13.2831 4.74875e-19)
(20.5232 10.5596 0)
(20.4439 10.6562 0)
(20.3628 10.7577 0)
(20.2782 10.859 0)
(20.1908 10.9611 6.82487e-20)
(20.1006 11.0641 -3.6612e-20)
(20.0073 11.1676 0)
(19.9099 11.2721 7.27948e-20)
(19.8084 11.3781 -3.38216e-20)
(19.7037 11.4857 4.06239e-20)
(19.5958 11.5946 -1.53815e-19)
(19.4843 11.7041 4.05807e-20)
(19.3678 11.8144 0)
(19.2453 11.9257 -8.56089e-20)
(19.1166 12.0382 1.74779e-19)
(18.9821 12.1514 -8.93842e-20)
(18.8403 12.2649 0)
(18.6907 12.3792 0)
(18.5333 12.4943 -2.53614e-21)
(18.3681 12.6103 0)
(18.1946 12.7264 -2.75382e-20)
(18.0117 12.8415 -9.62457e-20)
(17.8181 12.9557 1.61784e-19)
(17.6139 13.0692 1.06345e-19)
(17.3983 13.1808 -1.45543e-19)
(17.1701 13.2894 1.64072e-19)
(16.9279 13.3946 -3.56052e-20)
(16.6723 13.4951 -2.29106e-19)
(16.4019 13.5889 4.84996e-20)
(16.1162 13.6749 2.8086e-19)
(15.8148 13.751 1.3954e-20)
(15.4971 13.8148 -3.16894e-19)
(15.1628 13.8634 -2.18601e-19)
(14.812 13.8944 2.97848e-19)
(14.4466 13.9045 2.64433e-19)
(14.0679 13.8901 -3.54344e-19)
(13.6783 13.8479 -5.12967e-19)
(13.2819 13.7742 6.4369e-19)
(12.8827 13.6658 -2.27585e-19)
(12.4857 13.5204 0)
(12.0967 13.337 0)
(11.7222 13.1159 7.32164e-22)
(11.3682 12.8605 -3.15887e-19)
(20.4344 10.5009 -1.99972e-21)
(20.3626 10.5828 -3.61986e-20)
(20.2859 10.6742 3.85632e-20)
(20.2058 10.766 -3.8976e-20)
(20.1224 10.859 -3.61081e-20)
(20.0366 10.9529 3.66459e-20)
(19.9482 11.0472 0)
(19.8559 11.1417 1.00846e-19)
(19.758 11.2377 -1.18562e-19)
(19.6561 11.336 -2.12886e-20)
(19.5511 11.4361 0)
(19.4441 11.5369 1.10476e-19)
(19.333 11.6382 2.57447e-21)
(19.2166 11.7396 -6.72572e-20)
(19.0922 11.8433 0)
(18.9637 11.9483 2.5347e-20)
(18.8286 12.0533 2.63734e-20)
(18.6854 12.1583 -2.75488e-20)
(18.5332 12.2634 -8.82171e-20)
(18.3738 12.3688 1.47509e-19)
(18.2063 12.4762 1.28002e-19)
(18.0317 12.5819 -2.81611e-20)
(17.8448 12.6861 -1.36253e-19)
(17.6486 12.789 3.61492e-20)
(17.4409 12.8907 1.63459e-19)
(17.2236 12.9879 -1.67018e-19)
(16.9908 13.0821 9.08783e-20)
(16.7458 13.1724 9.77223e-20)
(16.4865 13.2559 0)
(16.213 13.3314 -5.57945e-20)
(15.9251 13.3976 0)
(15.6232 13.4524 -2.42149e-21)
(15.307 13.4912 -1.47382e-19)
(14.9745 13.5131 1.53521e-19)
(14.6285 13.5165 8.68047e-20)
(14.2711 13.4961 -1.91756e-19)
(13.9032 13.451 3.96885e-19)
(13.5305 13.3779 0)
(13.1561 13.2732 0)
(12.7851 13.1345 0)
(12.4221 12.9616 0)
(12.0719 12.7524 -5.80525e-19)
(11.7362 12.5107 4.46528e-19)
(20.347 10.445 1.87873e-20)
(20.2878 10.5167 -2.07608e-20)
(20.2165 10.5973 -6.12832e-20)
(20.1427 10.6804 1.87307e-20)
(20.0651 10.7647 2.1868e-20)
(19.9842 10.8507 0)
(19.9001 10.9378 -2.16112e-20)
(19.8147 11.0239 2.0905e-22)
(19.7223 11.1101 -2.04663e-20)
(19.625 11.1986 2.17554e-20)
(19.5214 11.2913 -2.35877e-20)
(19.4173 11.3853 -4.68578e-20)
(19.309 11.4801 2.46169e-20)
(19.2027 11.5724 -4.98504e-20)
(19.0835 11.6656 0)
(18.9612 11.763 -2.5599e-20)
(18.834 11.8609 -5.4957e-20)
(18.701 11.9588 -5.89121e-20)
(18.5531 12.0586 5.63678e-20)
(18.3956 12.1546 2.31907e-21)
(18.2304 12.2535 -3.42438e-20)
(18.0709 12.3498 6.79416e-20)
(17.8904 12.4467 -1.41776e-19)
(17.6993 12.5418 0)
(17.492 12.6387 -4.22454e-20)
(17.2862 12.7278 -1.35432e-19)
(17.0616 12.8104 -2.8959e-21)
(16.8279 12.8912 -4.98076e-20)
(16.5799 12.9663 -5.58732e-20)
(16.3163 13.0335 5.99983e-20)
(16.0357 13.0922 -1.88626e-19)
(15.7411 13.1453 -1.88744e-21)
(15.4375 13.1795 -2.25368e-19)
(15.117 13.1938 4.01834e-19)
(14.7819 13.1955 -2.53917e-19)
(14.4406 13.1703 9.45402e-20)
(14.0865 13.122 -1.01439e-19)
(13.7296 13.0501 -2.28558e-19)
(13.3701 12.9518 4.74844e-19)
(13.0187 12.8182 -2.47829e-19)
(12.6756 12.6572 0)
(12.3456 12.4596 -1.46066e-19)
(12.0216 12.2288 -1.546e-19)
(-1.38533 18.0625 5.09466e-19)
(-0.892692 16.4007 8.62374e-19)
(-0.354796 14.9468 -8.2185e-19)
(0.208222 13.7771 6.89769e-20)
(0.764836 12.7997 -5.38673e-19)
(1.30237 11.964 -2.98443e-20)
(1.8158 11.2398 5.70886e-19)
(2.30365 10.6069 2.102e-19)
(2.76539 10.0492 -9.7269e-20)
(3.20029 9.5551 2.33186e-19)
(3.609 9.11386 -1.19829e-19)
(3.99352 8.71713 4.57296e-19)
(4.35683 8.35854 -3.25686e-19)
(4.70172 8.03235 0)
(5.03005 7.73383 0)
(5.34337 7.45896 1.96856e-19)
(5.64291 7.20431 -6.5869e-19)
(5.92987 6.96723 7.34508e-19)
(6.20538 6.74534 -1.07826e-18)
(6.47043 6.53663 3.38954e-19)
(6.72574 6.33915 -6.82639e-19)
(6.97234 6.15172 1.33701e-21)
(7.21102 5.97311 1.12362e-18)
(7.44234 5.80211 -4.76426e-19)
(7.66703 5.63795 1.60584e-19)
(7.88561 5.47982 0)
(8.09858 5.32709 -3.03026e-19)
(8.30637 5.17918 6.00172e-19)
(8.50934 5.03565 -2.88525e-19)
(8.70791 4.8961 2.8946e-19)
(8.90234 4.76011 0)
(9.09295 4.62749 -8.78104e-19)
(9.28002 4.4979 8.70282e-19)
(9.4637 4.37109 2.93505e-19)
(9.64422 4.24692 8.17476e-22)
(9.82168 4.12514 -1.34664e-19)
(9.99618 4.00568 1.52386e-19)
(10.1678 3.88838 0)
(10.3367 3.77316 -1.11924e-18)
(10.5029 3.66004 5.54899e-19)
(10.6667 3.54941 5.37397e-19)
(10.8278 3.44084 -5.30472e-19)
(10.9822 3.32173 1.00299e-18)
(6.20397 15.7051 9.84378e-20)
(5.60794 14.8405 -1.06486e-19)
(5.25816 14.0061 1.12437e-18)
(5.07404 13.2236 -1.56982e-18)
(5.00573 12.5015 -1.7612e-20)
(5.01964 11.8411 3.8729e-19)
(5.09265 11.2403 2.53097e-19)
(5.20765 10.6951 -2.43003e-19)
(5.35201 10.2009 -1.70409e-20)
(5.5179 9.7513 -2.12757e-19)
(5.69864 9.34102 -1.15996e-19)
(5.88894 8.96524 3.24081e-19)
(6.08522 8.61956 -1.05088e-19)
(6.28442 8.30009 4.0901e-19)
(6.48465 8.00365 -3.94245e-19)
(6.68453 7.72746 -1.90063e-19)
(6.88293 7.46911 -7.36993e-19)
(7.07928 7.22654 8.88478e-19)
(7.27304 6.99791 8.66594e-19)
(7.46393 6.78166 -3.42106e-19)
(7.65178 6.5764 -1.64788e-19)
(7.83645 6.38097 0)
(8.01795 6.19434 0)
(8.19624 6.01561 -7.71099e-19)
(8.37147 5.84411 1.21407e-18)
(8.54369 5.67911 -1.04951e-18)
(8.71293 5.52008 5.9429e-19)
(8.87939 5.36657 -2.53447e-21)
(9.04318 5.21808 -8.67061e-19)
(9.20442 5.07425 -5.74595e-19)
(9.36332 4.93471 5.74266e-19)
(9.51999 4.79911 5.6912e-19)
(9.67455 4.66717 -8.55884e-19)
(9.82707 4.53854 0)
(9.97764 4.41304 4.02065e-21)
(10.1263 4.29041 4.22429e-19)
(10.273 4.17048 7.0548e-19)
(10.4178 4.05311 6.9655e-20)
(10.5608 3.93818 4.87356e-19)
(10.7021 3.82568 0)
(10.8418 3.71568 -5.41839e-19)
(10.9796 3.60773 0)
(11.1129 3.49334 -5.12796e-19)
(7.57429 15.0504 -7.69314e-19)
(7.18607 14.4657 4.09733e-20)
(6.89849 13.8506 6.2325e-19)
(6.70011 13.2335 1.00079e-19)
(6.57761 12.6316 -1.02639e-19)
(6.51818 12.0555 2.15614e-19)
(6.50999 11.5107 -1.11627e-19)
(6.54283 10.9996 0)
(6.60825 10.5222 0)
(6.69909 10.0777 1.06847e-19)
(6.80929 9.66432 0)
(6.93374 9.28022 -1.01567e-19)
(7.06874 8.92297 5.68979e-19)
(7.21116 8.59021 -5.55459e-19)
(7.35867 8.27984 -2.25878e-21)
(7.50957 7.98957 3.49376e-19)
(7.66237 7.71755 -1.69042e-19)
(7.81613 7.46191 -1.002e-18)
(7.96997 7.22098 8.09457e-19)
(8.12343 6.99341 4.72345e-19)
(8.27599 6.77779 -7.74647e-19)
(8.42725 6.57298 -1.50749e-19)
(8.57705 6.37797 -7.45614e-19)
(8.72522 6.19184 5.8842e-19)
(8.87161 6.01381 0)
(9.01624 5.84317 4.26573e-19)
(9.15903 5.67931 -2.79661e-19)
(9.30007 5.52173 2.78262e-19)
(9.43941 5.36985 -2.74476e-19)
(9.57717 5.22325 2.80529e-19)
(9.71345 5.08147 2.75829e-19)
(9.84831 4.94416 -2.6924e-21)
(9.98178 4.8109 2.7293e-19)
(10.1139 4.68135 -2.72684e-19)
(10.2446 4.55524 1.39857e-19)
(10.3738 4.43232 -1.3898e-19)
(10.5016 4.31245 0)
(10.6279 4.19546 0)
(10.7528 4.08124 0)
(10.8765 3.96968 -8.60555e-22)
(10.9991 3.86065 1.25786e-21)
(11.1206 3.75382 2.6159e-19)
(11.2408 3.64441 5.23418e-19)
(9.13906 14.0601 -6.6227e-19)
(8.76993 13.6099 0)
(8.4661 13.1329 0)
(8.22669 12.6445 -9.70511e-20)
(8.04695 12.1567 9.97202e-20)
(7.92091 11.6782 -1.08189e-19)
(7.84143 11.2152 -2.05298e-19)
(7.80155 10.7716 3.99408e-19)
(7.79497 10.3496 -2.09677e-19)
(7.8158 9.95039 -1.81885e-19)
(7.85897 9.57401 0)
(7.92019 9.21989 -3.77178e-19)
(7.99577 8.88715 -1.84523e-19)
(8.08283 8.57443 -4.27591e-21)
(8.17892 8.28043 -3.52971e-19)
(8.28209 8.00365 3.42177e-19)
(8.39058 7.74276 3.33461e-19)
(8.50312 7.49634 -1.07284e-21)
(8.61869 7.26321 1.5734e-19)
(8.73638 7.04217 -4.64572e-19)
(8.85536 6.83213 1.0664e-18)
(8.97509 6.63218 -4.45949e-19)
(9.09519 6.44148 2.92487e-19)
(9.21523 6.25918 0)
(9.33485 6.08466 -1.40437e-19)
(9.45389 5.91734 -5.59849e-19)
(9.57225 5.75669 5.54762e-19)
(9.68989 5.60226 -1.40812e-19)
(9.8069 5.45351 0)
(9.92323 5.30996 2.71275e-19)
(10.0389 5.17118 2.70313e-19)
(10.1538 5.03686 -2.71199e-19)
(10.2681 4.90657 -5.37462e-19)
(10.3815 4.78 2.70393e-19)
(10.4941 4.65682 0)
(10.6056 4.53687 0)
(10.7159 4.42005 0)
(10.8252 4.30626 3.32616e-19)
(10.9334 4.19539 -6.67083e-20)
(11.0408 4.08731 -1.82863e-21)
(11.1475 3.98196 -2.62361e-19)
(11.2533 3.8799 0)
(11.3586 3.78295 0)
(9.9132 13.4777 -3.19493e-19)
(9.583 13.0952 -1.82489e-19)
(9.30191 12.6877 3.53012e-19)
(9.07073 12.2657 0)
(8.88759 11.8389 1.89674e-19)
(8.74914 11.4146 -5.00457e-21)
(8.65071 10.9988 5.16657e-21)
(8.58728 10.5957 -1.97227e-19)
(8.55408 10.2082 2.07756e-19)
(8.54663 9.83807 -6.70618e-21)
(8.56075 9.48623 0)
(8.59285 9.15272 1.88894e-19)
(8.63988 8.83736 3.76157e-21)
(8.69932 8.53931 -1.77874e-19)
(8.76878 8.25768 0)
(8.84647 7.99142 3.34954e-19)
(8.93061 7.7395 -6.5224e-19)
(9.0199 7.50085 -4.80263e-19)
(9.11326 7.27443 3.1077e-19)
(9.20958 7.05925 1.54035e-19)
(9.308 6.85446 1.47812e-19)
(9.40796 6.65936 -2.92517e-19)
(9.5089 6.47304 -1.45229e-19)
(9.61034 6.29487 5.6525e-19)
(9.71183 6.12428 2.29868e-21)
(9.81313 5.96084 -2.75107e-19)
(9.91425 5.8041 -1.3494e-19)
(10.0152 5.6536 1.33398e-19)
(10.1162 5.50868 -2.67722e-19)
(10.2168 5.36885 -2.67992e-19)
(10.3171 5.23384 -2.62991e-19)
(10.4171 5.10325 0)
(10.5167 4.97669 5.28592e-19)
(10.6158 4.85377 -2.63704e-19)
(10.7141 4.73423 2.61721e-19)
(10.8114 4.61796 -6.57277e-20)
(10.9076 4.50496 6.59068e-20)
(11.0028 4.39512 -2.64285e-19)
(11.0973 4.28826 0)
(11.191 4.18408 1.29374e-19)
(11.2839 4.08223 1.29527e-19)
(11.3758 3.98251 0)
(11.4676 3.8895 0)
(10.5681 12.9732 -3.19819e-19)
(10.2583 12.6346 -3.43275e-19)
(9.98901 12.2735 0)
(9.7615 11.8977 -1.82297e-19)
(9.57483 11.5152 1.95001e-21)
(9.42723 11.1321 -3.76347e-19)
(9.31489 10.7535 1.91222e-19)
(9.23402 10.3835 -1.87797e-19)
(9.18088 10.0255 0)
(9.15184 9.68135 3.71589e-19)
(9.14366 9.35223 8.92973e-20)
(9.15308 9.03887 2.70522e-19)
(9.1779 8.74127 2.36018e-21)
(9.21595 8.45865 -1.71514e-19)
(9.26455 8.1905 0)
(9.32209 7.93623 1.64987e-19)
(9.38705 7.69483 1.8124e-21)
(9.45796 7.46557 1.55782e-19)
(9.53368 7.2474 0)
(9.6129 7.03967 1.49097e-19)
(9.69474 6.84183 -1.48423e-19)
(9.77874 6.65314 0)
(9.86428 6.47273 0)
(9.95055 6.30004 0)
(10.037 6.13474 -2.7302e-19)
(10.1236 5.97661 1.36681e-19)
(10.2106 5.82512 2.68402e-19)
(10.298 5.67971 -1.32023e-19)
(10.3861 5.53951 0)
(10.4739 5.40421 0)
(10.5615 5.27378 2.62414e-19)
(10.6492 5.1478 1.29828e-19)
(10.7369 5.02559 -1.29828e-19)
(10.8241 4.90697 0)
(10.9106 4.79164 -1.95781e-19)
(10.9958 4.67962 -1.29569e-19)
(11.0799 4.57114 6.48598e-20)
(11.1633 4.46599 0)
(11.2462 4.36375 2.57267e-19)
(11.3286 4.2641 -2.19551e-21)
(11.4104 4.16668 0)
(11.4915 4.07145 -2.5223e-19)
(11.574 3.98409 4.97987e-19)
(11.0414 12.5764 -1.58121e-20)
(10.7479 12.2675 1.54095e-19)
(10.4907 11.9377 3.41541e-19)
(10.2703 11.5933 3.58257e-19)
(10.0852 11.2418 0)
(9.93603 10.8883 -9.33078e-20)
(9.81797 10.5364 9.12157e-20)
(9.72816 10.1909 3.69533e-19)
(9.66363 9.85516 5.78188e-21)
(9.62151 9.53149 -1.65738e-19)
(9.59943 9.22076 -2.02611e-19)
(9.59395 8.92395 1.74774e-19)
(9.60432 8.64136 1.74078e-19)
(9.6287 8.37154 -1.77556e-21)
(9.66293 8.11484 3.30948e-19)
(9.70688 7.87108 -1.6138e-19)
(9.75891 7.63903 1.57255e-19)
(9.81717 7.41799 -3.0987e-19)
(9.88052 7.20728 0)
(9.94725 7.00642 2.95138e-19)
(10.0167 6.81527 -2.90537e-19)
(10.089 6.63284 1.41859e-19)
(10.1631 6.45797 0)
(10.2377 6.29051 0)
(10.3122 6.13068 1.36813e-19)
(10.3874 5.97806 4.03184e-19)
(10.4635 5.83183 -3.98719e-19)
(10.5408 5.69146 1.32075e-19)
(10.6192 5.55556 0)
(10.6965 5.4246 -1.28619e-19)
(10.774 5.29901 0)
(10.8524 5.17763 2.55617e-19)
(10.9307 5.05963 -2.55238e-19)
(11.0083 4.94535 0)
(11.0852 4.83418 2.54255e-19)
(11.1599 4.72659 0)
(11.2337 4.62308 2.54378e-19)
(11.3075 4.52296 2.54333e-19)
(11.3809 4.42556 -4.46482e-19)
(11.4538 4.33066 -3.19001e-19)
(11.5262 4.23808 1.26316e-19)
(11.5979 4.14794 -1.25509e-19)
(11.6703 4.06288 -2.50076e-19)
(11.4212 12.2446 1.61983e-19)
(11.1389 11.9585 -3.25688e-19)
(10.8912 11.6521 -1.73171e-19)
(10.6767 11.3299 -3.87341e-21)
(10.4903 11.0019 0)
(10.3428 10.6734 1.78233e-19)
(10.2225 10.3404 4.54685e-20)
(10.1271 10.0142 -2.25018e-19)
(10.0541 9.6964 5.62955e-21)
(10.0019 9.39024 1.70293e-19)
(9.97039 9.09549 -1.73538e-19)
(9.95285 8.81254 -1.73031e-19)
(9.95278 8.54294 -1.67526e-19)
(9.96775 8.28337 -1.66826e-19)
(9.98957 8.03682 -1.60863e-19)
(10.0251 7.80295 1.57618e-19)
(10.0679 7.57874 -2.30409e-21)
(10.1159 7.36476 1.53402e-19)
(10.1699 7.16072 0)
(10.226 6.96626 -1.47226e-19)
(10.2854 6.78172 2.85867e-19)
(10.3492 6.60497 -2.82577e-19)
(10.4143 6.43498 0)
(10.4797 6.27274 1.35022e-19)
(10.545 6.11873 0)
(10.6118 5.97137 0)
(10.6803 5.82969 1.29808e-19)
(10.7503 5.69373 -1.28531e-19)
(10.8222 5.56113 0)
(10.8898 5.4346 2.5598e-19)
(10.96 5.31422 -2.5392e-19)
(11.0317 5.19678 1.25844e-19)
(11.1021 5.08234 1.03272e-21)
(11.1713 4.97238 -2.51551e-19)
(11.2399 4.86513 -3.78574e-19)
(11.3049 4.7622 -1.25375e-19)
(11.3707 4.66415 -3.82554e-19)
(11.4369 4.56909 -3.74777e-19)
(11.5027 4.47641 1.90023e-19)
(11.5675 4.38609 1.25781e-19)
(11.6319 4.29834 -6.26887e-20)
(11.6952 4.21317 0)
(11.7585 4.12985 -2.47559e-19)
(11.7116 11.9721 1.51987e-19)
(11.4407 11.7039 1.62007e-19)
(11.2055 11.4125 0)
(10.9977 11.1066 0)
(10.8042 10.7932 0)
(10.668 10.4971 -2.63737e-19)
(10.5513 10.1702 8.46418e-20)
(10.4541 9.85933 -1.73496e-19)
(10.3761 9.55326 5.51916e-21)
(10.3181 9.26307 -1.8106e-19)
(10.2863 8.98401 1.72847e-19)
(10.2602 8.70782 0)
(10.2558 8.447 1.65136e-19)
(10.2687 8.19442 7.88887e-20)
(10.2795 7.9584 1.3043e-21)
(10.3127 7.73491 -8.08273e-20)
(10.3458 7.5131 -1.54256e-19)
(10.3866 7.30417 0)
(10.4355 7.10688 0)
(10.4827 6.91744 0)
(10.5361 6.73839 -1.29862e-21)
(10.5969 6.56541 1.35299e-19)
(10.6552 6.40058 1.30836e-19)
(10.714 6.24617 -1.336e-19)
(10.7689 6.09882 -1.3317e-19)
(10.8282 5.95536 2.66092e-19)
(10.8886 5.81735 -2.65424e-19)
(10.9505 5.6855 2.62898e-19)
(11.0152 5.55625 -1.27541e-19)
(11.0677 5.43611 0)
(11.1315 5.32209 1.28931e-19)
(11.1934 5.2066 0)
(11.2545 5.09503 2.50533e-19)
(11.3162 4.99018 2.48064e-19)
(11.3794 4.88595 1.20997e-19)
(11.436 4.78856 2.48248e-19)
(11.4956 4.69744 2.58558e-19)
(11.5536 4.6069 1.4611e-19)
(11.6122 4.51865 -1.61588e-20)
(11.6689 4.43255 0)
(11.7263 4.34999 0)
(11.7808 4.26908 0)
(11.836 4.18494 -3.51279e-22)
(-3.87572 -2.58876 -2.54006e-19)
(-3.69032 -2.60377 4.16493e-19)
(-3.50041 -2.6185 -1.26425e-21)
(-3.30744 -2.63242 0)
(-3.11218 -2.64543 0)
(-2.91529 -2.65742 -1.55969e-19)
(-2.71733 -2.66831 -3.36507e-20)
(-2.51874 -2.67804 3.89716e-20)
(-2.31998 -2.68657 4.04548e-22)
(-2.12144 -2.69389 -7.9954e-20)
(-1.92341 -2.69998 2.42339e-19)
(-1.72613 -2.70486 -1.645e-19)
(-1.52986 -2.70854 -8.08017e-20)
(-1.33476 -2.711 1.72076e-19)
(-1.14102 -2.71226 -1.77334e-19)
(-0.948692 -2.71232 1.77757e-19)
(-0.758009 -2.71115 -1.815e-19)
(-0.568981 -2.70873 1.8555e-19)
(-0.381703 -2.70508 -4.77405e-20)
(-0.196275 -2.70015 0)
(-0.0126956 -2.69399 1.54604e-19)
(0.169059 -2.68664 -2.15253e-19)
(0.349014 -2.67808 -1.09819e-19)
(0.527188 -2.66835 0)
(0.703568 -2.65749 0)
(0.878272 -2.64551 -2.62815e-19)
(1.05131 -2.63247 2.80868e-19)
(1.22278 -2.61835 2.99055e-19)
(1.39266 -2.60322 -1.62125e-19)
(1.56116 -2.58709 -1.74623e-19)
(1.72843 -2.56998 -4.76089e-20)
(1.89459 -2.55181 -1.53775e-19)
(2.05986 -2.53246 1.14705e-19)
(2.22467 -2.51169 -6.17065e-20)
(2.38973 -2.48887 -7.07957e-20)
(2.55629 -2.46301 2.03982e-19)
(2.7274 -2.43216 0)
(2.91027 -2.39313 0)
(3.12344 -2.34155 0)
(3.41741 -2.27082 7.42347e-20)
(3.93814 -2.17775 -8.91238e-20)
(5.13464 -2.11274 1.77435e-18)
(8.61224 -2.46925 -5.98072e-18)
(-3.83574 -2.59559 8.47227e-22)
(-3.66451 -2.61168 1.60061e-22)
(-3.4897 -2.6263 -1.42115e-19)
(-3.31214 -2.6398 0)
(-3.13238 -2.65253 1.47326e-19)
(-2.95087 -2.66453 1.53177e-19)
(-2.76798 -2.67577 7.05953e-20)
(-2.584 -2.6862 0)
(-2.39927 -2.69582 7.63767e-20)
(-2.2141 -2.70461 0)
(-2.02868 -2.71257 1.54791e-19)
(-1.8432 -2.71973 -7.75365e-20)
(-1.65779 -2.72611 -1.58226e-19)
(-1.47258 -2.73172 8.00314e-20)
(-1.28761 -2.73658 -8.25041e-20)
(-1.10294 -2.74067 8.22385e-20)
(-0.918582 -2.74397 -1.71278e-19)
(-0.734521 -2.74643 1.74882e-19)
(-0.550852 -2.74806 -8.14172e-22)
(-0.367595 -2.74881 -1.86615e-19)
(-0.18471 -2.74863 4.85766e-20)
(-0.00208947 -2.74749 -5.10613e-20)
(0.180284 -2.74532 1.06059e-19)
(0.362533 -2.74206 2.2011e-19)
(0.544803 -2.73761 -2.9122e-19)
(0.727144 -2.73187 0)
(0.909813 -2.72468 0)
(1.09307 -2.71587 0)
(1.27716 -2.70523 -7.32309e-20)
(1.46257 -2.69243 1.6051e-19)
(1.64995 -2.67709 -7.52239e-22)
(1.84029 -2.65857 -1.41783e-19)
(2.03501 -2.63602 1.54381e-19)
(2.23677 -2.60822 -4.94921e-20)
(2.44998 -2.57341 -6.96999e-20)
(2.68222 -2.52911 -6.86081e-20)
(2.94827 -2.47208 7.69253e-20)
(3.27557 -2.3982 0)
(3.71653 -2.3048 0)
(4.37785 -2.19706 7.87489e-19)
(5.48635 -2.11106 -4.39129e-20)
(7.52726 -2.18767 -2.19278e-18)
(11.5441 -2.80525 2.38363e-18)
(-3.79757 -2.6001 -2.33967e-22)
(-3.63449 -2.61559 -6.13071e-22)
(-3.46934 -2.62913 -1.40534e-19)
(-3.3021 -2.64246 -3.57983e-20)
(-3.13267 -2.65546 -1.79635e-19)
(-2.96125 -2.668 4.55215e-21)
(-2.78814 -2.68 -7.7642e-20)
(-2.61355 -2.69138 0)
(-2.43773 -2.70209 0)
(-2.26089 -2.7121 0)
(-2.08325 -2.72136 9.6535e-22)
(-1.9049 -2.72989 -7.58093e-20)
(-1.726 -2.73769 7.79658e-20)
(-1.54661 -2.74478 0)
(-1.36672 -2.75115 0)
(-1.18637 -2.75678 1.63971e-19)
(-1.00555 -2.76167 0)
(-0.824172 -2.76573 2.15303e-19)
(-0.642214 -2.76892 -1.78726e-19)
(-0.459687 -2.77119 0)
(-0.276426 -2.77248 0)
(-0.0923014 -2.77272 -1.48475e-19)
(0.0928417 -2.7718 1.55258e-19)
(0.279387 -2.76958 -2.15103e-19)
(0.467542 -2.76589 2.82148e-19)
(0.657663 -2.7605 0)
(0.850398 -2.75307 -1.25904e-19)
(1.04624 -2.74323 3.35041e-19)
(1.24603 -2.73045 -1.42558e-19)
(1.45092 -2.71409 -1.52771e-19)
(1.66253 -2.6933 -4.18408e-20)
(1.88327 -2.66698 4.35409e-20)
(2.11665 -2.6337 2.37097e-20)
(2.3683 -2.59157 3.22221e-20)
(2.64702 -2.53834 -1.18384e-19)
(2.96703 -2.47134 2.92691e-22)
(3.35127 -2.38817 -6.53054e-20)
(3.83903 -2.28787 -2.8158e-19)
(4.4989 -2.17423 2.37332e-19)
(5.45325 -2.06558 0)
(6.9159 -2.01937 0)
(9.24878 -2.18058 0)
(12.9648 -2.86459 -8.39079e-19)
(-3.75432 -2.59316 -6.59948e-20)
(-3.60345 -2.60853 2.03275e-19)
(-3.44909 -2.62142 1.37897e-19)
(-3.29243 -2.63396 -7.03468e-20)
(-3.13335 -2.64627 0)
(-2.97208 -2.65815 0)
(-2.80881 -2.66957 -7.2169e-20)
(-2.64367 -2.68046 0)
(-2.47681 -2.69077 0)
(-2.3084 -2.70045 -7.35647e-20)
(-2.13852 -2.70943 -7.39745e-20)
(-1.96734 -2.71767 2.90199e-22)
(-1.79495 -2.7252 0)
(-1.62142 -2.73204 7.71983e-20)
(-1.44665 -2.73822 7.84928e-20)
(-1.27057 -2.74373 -2.80816e-19)
(-1.09307 -2.74852 1.64235e-19)
(-0.913986 -2.75249 -3.37176e-19)
(-0.733219 -2.75554 4.33797e-20)
(-0.550749 -2.75754 1.78903e-19)
(-0.36633 -2.75841 -1.84824e-19)
(-0.17978 -2.75805 1.43952e-19)
(0.00916403 -2.75632 -4.96272e-20)
(0.200992 -2.75303 2.61463e-19)
(0.396208 -2.74795 -1.0964e-19)
(0.595584 -2.74076 5.78806e-20)
(0.799953 -2.73097 1.21304e-19)
(1.01027 -2.71799 -3.20909e-19)
(1.22802 -2.70113 -2.10936e-22)
(1.45507 -2.67954 7.29475e-20)
(1.69413 -2.65208 3.09156e-19)
(1.94888 -2.61739 -8.28042e-20)
(2.22463 -2.57378 0)
(2.52935 -2.51936 -4.71171e-20)
(2.87439 -2.45229 2.47103e-22)
(3.2775 -2.37101 1.0851e-19)
(3.7667 -2.27491 -1.15359e-19)
(4.38662 -2.16662 0)
(5.20968 -2.05615 1.97923e-19)
(6.35138 -1.97112 -2.97327e-19)
(7.99103 -1.97614 2.9783e-19)
(10.3901 -2.20319 -3.34959e-19)
(13.8223 -2.89323 0)
(-3.71578 -2.58407 1.29843e-19)
(-3.5731 -2.59719 -6.69996e-20)
(-3.42763 -2.60823 6.80143e-20)
(-3.28037 -2.61932 1.72266e-19)
(-3.13041 -2.63058 -2.60727e-20)
(-2.97806 -2.64146 -8.76175e-21)
(-2.8233 -2.65203 7.04297e-20)
(-2.66627 -2.66214 -7.12301e-20)
(-2.50704 -2.67175 0)
(-2.34564 -2.68077 -7.2135e-20)
(-2.18218 -2.68912 1.4562e-19)
(-2.01673 -2.69667 -1.47436e-19)
(-1.84944 -2.70339 1.49359e-19)
(-1.68042 -2.70932 -1.51732e-19)
(-1.50956 -2.71453 0)
(-1.33676 -2.71908 3.91912e-20)
(-1.1617 -2.72291 -4.043e-20)
(-0.984074 -2.72594 0)
(-0.803784 -2.72793 4.26662e-20)
(-0.620707 -2.7287 0)
(-0.434576 -2.72813 0)
(-0.245152 -2.72607 9.39823e-20)
(-0.0520423 -2.72233 -4.86743e-20)
(0.145252 -2.7167 -5.07723e-20)
(0.347501 -2.70901 -1.06657e-19)
(0.555777 -2.69895 5.64065e-20)
(0.771335 -2.68597 1.17587e-19)
(0.995687 -2.66926 -1.86615e-19)
(1.23069 -2.64801 6.53272e-20)
(1.47884 -2.62137 1.38837e-19)
(1.74368 -2.58829 -9.36896e-23)
(2.03023 -2.54732 -7.83222e-20)
(2.34486 -2.4968 8.28645e-20)
(2.69676 -2.43506 0)
(3.09926 -2.36076 9.32074e-20)
(3.57209 -2.27335 0)
(4.14578 -2.17401 1.06144e-19)
(4.86636 -2.06824 0)
(5.80362 -1.97027 1.21649e-19)
(7.06185 -1.91246 0)
(8.79019 -1.96054 2.57117e-19)
(11.185 -2.23324 -1.63772e-19)
(14.4182 -2.91641 -2.85258e-19)
(-3.67473 -2.56991 0)
(-3.54146 -2.58151 -6.61216e-20)
(-3.40454 -2.59054 -3.35542e-20)
(-3.26653 -2.59993 -1.01647e-19)
(-3.12499 -2.61015 0)
(-2.98074 -2.61986 -2.15297e-21)
(-2.83367 -2.62939 -1.51662e-20)
(-2.68396 -2.63846 1.04456e-19)
(-2.53165 -2.6471 5.27636e-20)
(-2.37664 -2.65523 7.08678e-20)
(-2.21885 -2.66275 0)
(-2.05836 -2.66944 1.4444e-19)
(-1.89533 -2.67514 -7.30345e-20)
(-1.73002 -2.67986 1.11409e-19)
(-1.56234 -2.68372 -7.56894e-20)
(-1.39219 -2.6868 7.73004e-20)
(-1.21916 -2.68922 -2.02199e-22)
(-1.04277 -2.69092 0)
(-0.862527 -2.69159 -8.34787e-20)
(-0.678402 -2.69085 0)
(-0.490219 -2.68852 -8.88515e-20)
(-0.297606 -2.68455 9.24729e-20)
(-0.100051 -2.67863 1.4363e-19)
(0.102958 -2.67035 -9.97982e-20)
(0.311982 -2.65959 5.21704e-20)
(0.528408 -2.64641 -5.4568e-20)
(0.754372 -2.63035 5.70149e-20)
(0.991873 -2.61026 -4.90098e-22)