/*--------------------------------*- C++ -*----------------------------------*\
| =========                 |                                                 |
| \\      /  F ield         | OpenFOAM: The Open Source CFD Toolbox           |
|  \\    /   O peration     | Version:  2.3.0                                 |
|   \\  /    A nd           | Web:      www.OpenFOAM.org                      |
|    \\/     M anipulation  |                                                 |
\*---------------------------------------------------------------------------*/
FoamFile
{
    version     2.0;
    format      ascii;
    class       surfaceScalarField;
    location    "3000";
    object      phi;
}
// * * * * * * * * * * * * * * * * * * * * * * * * * * * * * * * * * * * * * //

dimensions      [0 3 -1 0 0 0 0];

internalField   nonuniform List<scalar> 
13223
(
-0.0265365
-0.0198517
0.0225855
0.0238051
-0.0284795
-0.0160371
0.0179808
-0.0296737
-0.0128973
0.0140927
-0.0301899
-0.0103104
0.0108268
-0.0301371
-0.00817985
0.00812741
-0.0296522
-0.00643207
0.00594688
-0.028879
-0.00500758
0.00423453
-0.027944
-0.00385548
0.00291996
-0.0269365
-0.00293098
0.00192361
-0.0259373
-0.0022071
0.00120734
-0.0250291
-0.00164849
0.000740544
-0.00121327
-0.0244344
0.000618129
-0.0228317
-0.0177742
0.0207514
-0.02428
-0.0145896
-0.0251926
-0.0119848
-0.0256489
-0.00985455
-0.0257056
-0.00812305
-0.0254236
-0.00671453
-0.0248556
-0.00557546
-0.0240512
-0.0046603
-0.0230542
-0.00392776
-0.021915
-0.00334666
-0.0206764
-0.00288689
-0.00252565
-0.0193643
-0.0198373
-0.0161078
0.0181692
-0.0209098
-0.013518
-0.0215019
-0.0113932
-0.0217049
-0.00965197
-0.0216008
-0.00822727
-0.0212548
-0.00706081
-0.0207213
-0.006109
-0.0200502
-0.00533158
-0.019276
-0.00470189
-0.0184321
-0.00419081
-0.0175393
-0.00377955
-0.00345092
-0.0166142
-0.0173921
-0.014703
0.0159863
-0.01829
-0.0126206
-0.0187778
-0.0109056
-0.0189393
-0.00949087
-0.0188384
-0.00832823
-0.0185317
-0.00736769
-0.0180629
-0.00657774
-0.0174671
-0.00592757
-0.0167802
-0.00538872
-0.016021
-0.00495017
-0.015213
-0.00458743
-0.00429429
-0.0143697
-0.0153115
-0.0135038
0.014112
-0.0160755
-0.0118568
-0.0164887
-0.0104925
-0.0166182
-0.00936152
-0.0165246
-0.00842194
-0.0162539
-0.00763843
-0.0158442
-0.00698741
-0.0153277
-0.00644419
-0.0147265
-0.00598991
-0.0140644
-0.0056123
-0.0133531
-0.00529864
-0.00503962
-0.0126079
-0.0135416
-0.0124434
0.0124811
-0.0142198
-0.0111787
-0.0145889
-0.0101235
-0.0147116
-0.00923888
-0.0146344
-0.00849912
-0.0143999
-0.00787296
-0.0140411
-0.0073462
-0.0135842
-0.00690108
-0.0130481
-0.006526
-0.012453
-0.00620748
-0.0118127
-0.00593887
-0.00571411
-0.0111383
-0.0120153
-0.0114926
0.0110643
-0.0126284
-0.0105657
-0.0129673
-0.00978462
-0.0130829
-0.0091233
-0.0130238
-0.00855816
-0.01282
-0.00807677
-0.0125017
-0.00766451
-0.0120946
-0.00730822
-0.0116173
-0.0070033
-0.0110828
-0.00674191
-0.0105034
-0.00651832
-0.00632697
-0.00989052
-0.0107038
-0.0106373
0.00984852
-0.0112576
-0.0100119
-0.0115686
-0.00947366
-0.0116826
-0.00900924
-0.0116345
-0.00860625
-0.0114564
-0.00825486
-0.0111772
-0.00794377
-0.0108128
-0.00767264
-0.0103811
-0.0074349
-0.00989831
-0.00722475
-0.00937442
-0.00704222
-0.00688349
-0.0088179
-0.00956003
-0.00986846
0.00879103
-0.0100605
-0.00951147
-0.0103481
-0.00918607
-0.0104588
-0.0088986
-0.0104225
-0.00864247
-0.0102687
-0.00840875
-0.0100165
-0.00819596
-0.00969007
-0.00799904
-0.00930231
-0.00782267
-0.00886352
-0.00766355
-0.00838748
-0.00751827
-0.00739354
-0.00787746
-0.00854662
0.00784571
-0.00916757
-0.00900973
-0.0090484
-0.00927652
-0.0089193
-0.0093801
-0.00879505
-0.00935414
-0.00866843
-0.00921844
-0.00854448
-0.00899568
-0.00841872
-0.00870334
-0.0082914
-0.0083533
-0.00817272
-0.00795593
-0.00806094
-0.00752077
-0.00795344
-0.00705832
-0.007856
-0.0220671
-0.00106218
-0.00130488
-0.0200801
-0.00120337
-0.000783728
-0.0182213
-0.00143746
-0.000421212
-0.0164371
-0.00176653
-1.76599e-05
-0.0147422
-0.00220262
0.000507728
-0.0131666
-0.00277615
0.00120062
-0.0117603
-0.00352352
0.00211716
-0.0105914
-0.0044838
0.00331486
-0.00973501
-0.00570841
0.00485204
-0.0092662
-0.00726279
0.00679399
-0.00926244
-0.00922782
0.0092241
-0.0117142
0.0122441
-0.00979232
-0.0180065
-0.0024198
-0.0166643
-0.0025457
-0.0153657
-0.00273595
-0.0141291
-0.00300323
-0.0129669
-0.00336469
-0.0119023
-0.00384076
-0.0109641
-0.00446171
-0.0101858
-0.00526206
-0.00960968
-0.00628451
-0.00929201
-0.00758043
-0.00930476
-0.00921505
-0.0112783
-0.00974062
-0.0156711
-0.00336277
-0.0147201
-0.00349688
-0.0137732
-0.00368277
-0.0128446
-0.00393187
-0.0119505
-0.00425881
-0.0111113
-0.00467994
-0.0103561
-0.0052169
-0.00972106
-0.00589713
-0.00925228
-0.00675329
-0.00900635
-0.00782636
-0.00904992
-0.00917144
-0.0108602
-0.00946797
-0.0135239
-0.00420861
-0.0126996
-0.00432121
-0.0119051
-0.00447721
-0.0111489
-0.00468812
-0.0104438
-0.00496393
-0.00980376
-0.00532003
-0.00924928
-0.00577139
-0.0088068
-0.00633962
-0.00850974
-0.00705036
-0.0084
-0.00793609
-0.00853464
-0.00903678
-0.0104091
-0.0089858
-0.0118613
-0.00495519
-0.0111438
-0.00503873
-0.0104605
-0.00516053
-0.00982067
-0.00532794
-0.00923406
-0.00555054
-0.00871424
-0.00583988
-0.00827841
-0.00620723
-0.00794968
-0.00666837
-0.00775678
-0.00724327
-0.00773713
-0.00795573
-0.0079377
-0.00883622
-0.00992992
-0.00841684
-0.0104629
-0.00563058
-0.00982015
-0.00568148
-0.00921686
-0.00576382
-0.00865956
-0.00588526
-0.00815687
-0.00605324
-0.00772418
-0.00627258
-0.0073754
-0.00655602
-0.0071308
-0.00691298
-0.00701551
-0.00735858
-0.00706107
-0.00791018
-0.00730655
-0.00859073
-0.00943142
-0.00780505
-0.00927982
-0.00624128
-0.00870202
-0.00625929
-0.00816306
-0.00630278
-0.00767031
-0.00637802
-0.00723474
-0.00648881
-0.006865
-0.00664234
-0.00657777
-0.00684325
-0.00639113
-0.00709964
-0.00632787
-0.00742185
-0.00641546
-0.00782259
-0.00668889
-0.0083173
-0.00892734
-0.00719296
-0.00826051
-0.00679866
-0.0077379
-0.0067819
-0.00725338
-0.0067873
-0.00681555
-0.00681586
-0.00643096
-0.0068734
-0.00611262
-0.00696069
-0.00587194
-0.00708394
-0.00572817
-0.00724342
-0.00569913
-0.00745089
-0.00581376
-0.00770796
-0.00610129
-0.00802977
-0.00842696
-0.00660165
-0.00737349
-0.00730264
-0.00690063
-0.00725478
-0.00646392
-0.00722401
-0.00607056
-0.00720923
-0.00573102
-0.00721296
-0.00545319
-0.00723853
-0.0052484
-0.00728873
-0.00513438
-0.00735745
-0.00513075
-0.00745453
-0.00526004
-0.00757868
-0.00554865
-0.00774115
-0.0079419
-0.00603372
-0.00659542
-0.00776557
-0.0061645
-0.00768571
-0.00576933
-0.0076192
-0.00541931
-0.00755924
-0.00511445
-0.00751784
-0.004872
-0.00748097
-0.00469309
-0.00746764
-0.00460628
-0.00744425
-0.00461722
-0.00744359
-0.00475534
-0.00744057
-0.00503648
-0.00746003
-0.00549482
-0.00748356
0.00479657
-0.00429819
0.00489301
-0.0053912
0.00441446
-0.00285621
0.00323846
0.00417547
-0.00169933
0.00193843
0.00400401
-0.000797291
0.000968852
0.00382979
-0.000104234
0.000278526
0.00359222
0.000428756
-0.000191113
0.0032397
0.000849861
-0.000497308
0.00272438
0.00120649
-0.000691142
0.00199503
0.00154446
-0.000815096
0.000983257
0.00191735
-0.000905629
-0.000413741
0.00238721
-0.000990206
0.00304481
-0.00239122
-0.00106748
0.00398363
-0.00369037
-0.00459133
0.00355677
-0.00242925
0.00324654
-0.00138901
0.0029862
-0.000536856
0.00271502
0.000167025
0.00237867
0.000765204
0.00193078
0.00129782
0.00133206
0.00180531
0.000549102
0.0023275
-0.000439608
0.00290614
-0.00162594
0.00357362
0.00433141
-0.00291248
0.00314989
-0.00308058
-0.00375959
0.00269606
-0.00197534
0.00234157
-0.00103445
0.00203211
-0.000227314
0.00171801
0.000481201
0.00135689
0.0011264
0.00091243
0.00174234
0.000354263
0.00236354
-0.000338323
0.00302014
-0.00117453
0.00374241
-0.00214053
0.00453968
0.00539951
-0.00320858
0.00240975
-0.00249828
-0.002992
0.00196571
-0.00153124
0.00161258
-0.000681259
0.00130457
8.07496e-05
0.001001
0.000784842
0.000665892
0.00146156
0.000268539
0.00213975
-0.000216005
0.00284813
-0.000809445
0.00361362
-0.00152316
0.0044562
-0.00236478
0.00538134
0.00636729
-0.00333248
0.00179959
-0.00197087
-0.00232696
0.00139276
-0.00112437
0.00106674
-0.000355185
0.000784121
0.000363411
0.000510002
0.00105902
0.000213223
0.00175838
-0.000133829
0.00248685
-0.000554841
0.00326919
-0.00107112
0.00412995
-0.00169992
0.00508505
-0.00245399
0.00613546
0.00725362
-0.00334023
0.00131883
-0.00150263
-0.00178704
0.000959225
-0.000764731
0.000671154
-6.70696e-05
0.000421253
0.000613353
0.000179735
0.00130058
-8.06111e-05
0.00201877
-0.000384686
0.00279097
-0.00075573
0.00364028
-0.00121389
0.00458815
-0.001777
0.00564821
-0.00246026
0.00681877
0.00806685
-0.00327342
0.000947744
-0.00110065
-0.00134969
0.000639038
-0.000455991
0.000389883
0.000182123
0.000172514
0.000830761
-3.90876e-05
0.00151222
-0.000267986
0.00224771
-0.000538031
0.00306106
-0.000868318
0.00397061
-0.00127992
0.0049998
-0.00178864
0.00615698
-0.00241158
0.00744175
0.00880914
-0.00315381
0.000662754
-0.000766017
-0.000997352
0.000404656
-0.000197869
0.0001926
0.000394217
4.78684e-06
0.00101861
-0.000179554
0.0016966
-0.000381871
0.00245006
-0.000624541
0.00330377
-0.000920934
0.00426704
-0.00129219
0.00537109
-0.00175666
0.00662149
-0.00232539
0.00801052
0.0094879
-0.0030041
0.000448119
-0.000493009
-0.000721104
0.00023495
1.53316e-05
5.55045e-05
0.000573686
-0.000106077
0.00118022
-0.000267125
0.00185768
-0.000445733
0.0026287
-0.0006663
0.00352436
-0.000935579
0.00453635
-0.00127605
0.00571159
-0.00170002
0.00704549
-0.00221976
0.00853029
0.0101083
-0.0028401
0.000289872
-0.000268001
-0.000514855
0.000117426
0.000187798
-3.48945e-05
0.000726031
-0.000172442
0.00131779
-0.000310736
0.001996
-0.00046589
0.00278388
-0.00066769
0.00372619
-0.000911488
0.00478018
-0.00122178
0.00602192
-0.00161564
0.00743938
-0.0020948
0.00900949
-0.00267522
0.0106887
-0.00331314
0.00439391
-0.003472
-0.0046049
0.00605016
-0.00475854
-0.0059141
0.00731631
-0.0060071
-0.00703981
0.00848803
-0.00736238
-0.0079311
0.00979527
-0.00890396
-0.00853988
0.0112937
-0.0106849
-0.0088268
0.0130419
-0.012755
-0.00873741
0.0150987
-0.0151881
-0.00821166
0.0175237
-0.0180494
-0.00717671
0.0203923
-0.0214272
-0.00554812
0.0237778
-0.0254063
0.0277782
-0.0300956
-0.00323064
-0.00402018
0.0055017
-0.005163
0.007193
-0.00633206
0.00848544
-0.0073125
0.00946851
-0.00805445
0.0105373
-0.00853854
0.0117778
-0.00872233
0.0132258
-0.00856717
0.0149436
-0.00801775
0.0169744
-0.00700343
0.0193781
-0.00545251
0.0222269
0.0255945
-0.00326877
-0.00431338
0.00660657
-0.00535391
0.00823362
-0.00636707
0.00949869
-0.00721646
0.010318
-0.00785962
0.0111805
-0.00826142
0.0121797
-0.00840027
0.0133647
-0.0082261
0.0147695
-0.00769097
0.0164393
-0.00673345
0.0184206
-0.00528332
0.0207768
0.0235662
-0.00325492
-0.00437296
0.00764712
-0.00534678
0.00920755
-0.00622854
0.0103805
-0.00697353
0.0110631
-0.0075263
0.0117334
-0.00787297
0.0125264
-0.0079785
0.0134703
-0.00779971
0.0145908
-0.00729576
0.0159354
-0.00640651
0.0175314
-0.00506638
0.0194367
0.0217005
-0.00320063
-0.00429656
0.00860351
-0.00519506
0.0101061
-0.00598453
0.0111701
-0.00663492
0.0117136
-0.00712136
0.0122199
-0.00742178
0.0128269
-0.00750364
0.0135522
-0.00733275
0.0144199
-0.00686131
0.015464
-0.00604238
0.0167125
-0.00481118
0.0182056
0.0199883
-0.00309895
-0.00414963
0.00947978
-0.00496735
0.0109239
-0.00566645
0.0118692
-0.00624437
0.0122915
-0.00667717
0.0126527
-0.00693947
0.0130893
-0.00700636
0.0136192
-0.00684433
0.0142579
-0.00641323
0.015033
-0.00566131
0.0159606
-0.00453526
0.0170795
0.0184214
-0.00296837
-0.00395264
0.0102787
-0.00469384
0.0116652
-0.00532133
0.0124968
-0.00583432
0.0128046
-0.006217
0.0130354
-0.00644782
0.0133201
-0.00650486
0.0136762
-0.00635434
0.0141074
-0.00595835
0.014637
-0.00527416
0.0152765
-0.00424847
0.0160539
0.0169898
-0.00281684
-0.00373399
0.0110086
-0.00440064
0.0123319
-0.00496207
0.0130583
-0.00541636
0.0132589
-0.0057563
0.0133754
-0.00596756
0.0135314
-0.00601524
0.0137239
-0.00587801
0.0139702
-0.00551733
0.0142763
-0.00489451
0.0146537
-0.00396209
0.0151215
0.0156862
-0.00265841
-0.00349777
0.0116663
-0.00409874
0.0129329
-0.0045982
0.0135578
-0.00500533
0.0136661
-0.00531469
0.0136848
-0.00549895
0.0137157
-0.00554506
0.0137701
-0.00541923
0.0138444
-0.00509387
0.013951
-0.00452921
0.014089
-0.00367834
0.0142706
0.0145048
-0.00249695
-0.00329201
0.0122831
-0.00381876
0.0134597
-0.00425403
0.0139931
-0.00461533
0.0140274
-0.00488981
0.0139593
-0.00505838
0.0138843
-0.005099
0.0138107
-0.00498546
0.0137309
-0.0046901
0.0136557
-0.00417902
0.013578
-0.00340838
0.0135
0.0134218
-0.0023253
0.00206663
-0.00145047
0.00399778
-0.0011902
0.00612647
-0.000923086
0.00855829
-0.000507806
0.0112823
0.000194683
0.0141584
0.00135889
0.016995
0.00310985
0.0195573
0.00556534
0.0215958
0.00878905
0.0229144
0.0127748
0.0234183
0.0174759
0.0228208
0.0231817
-0.000376634
-0.0010764
-0.000196967
-0.0013697
0.000416225
-0.00153802
0.00149309
-0.00158429
0.00310178
-0.00141506
0.00532572
-0.000864706
0.00818608
0.000249184
0.0115598
0.00219157
0.0151082
0.00524087
0.0183367
0.00954631
0.0207534
0.0150591
0.0215061
0.0220674
-0.000112965
-0.000965837
-0.000225753
-0.00125683
-0.000257409
-0.00150824
-0.000132499
-0.00170884
0.000268206
-0.00181685
0.00114615
-0.00174242
0.00272314
-0.00132796
0.00519554
-0.000280894
0.00858221
0.00185417
0.0125568
0.0055716
0.016452
0.0111636
0.0184765
0.0194816
-3.6646e-05
-0.000931796
-4.15463e-05
-0.00125198
-2.08644e-05
-0.00153064
4.92385e-05
-0.00177881
0.000209504
-0.00197797
0.00054334
-0.00207615
0.00119223
-0.00197714
0.00239901
-0.0014878
0.00449596
-0.000242871
0.00770143
0.00236591
0.0117775
0.00708726
0.0143696
0.0158844
-2.43995e-05
-0.000909006
-4.00149e-05
-0.00123638
-3.7678e-05
-0.00153419
-4.19422e-06
-0.00181216
8.08836e-05
-0.00206378
0.000260143
-0.00225543
0.000603775
-0.00232102
0.00125032
-0.00213451
0.00244509
-0.00143782
0.00455772
0.000253095
0.00787327
0.00377148
0.0101539
0.0120889
-1.34697e-05
-0.00089721
-1.23027e-05
-0.00123772
3.51353e-06
-0.00155109
4.10646e-05
-0.0018497
0.000109818
-0.00213312
0.000232829
-0.0023785
0.000449432
-0.0025379
0.000837516
-0.00252277
0.00155177
-0.00215224
0.00286384
-0.0010592
0.00519296
0.00144212
0.00654904
0.00879761
-4.2778e-06
-0.000894013
2.86719e-06
-0.00124503
2.22844e-05
-0.00157123
5.91169e-05
-0.00188654
0.000119305
-0.00219378
0.000217911
-0.00247717
0.000379253
-0.00269945
0.000649686
-0.00279337
0.00112403
-0.00262677
0.00198718
-0.00192257
0.00357025
-0.000141177
0.00377224
0.00634676
1.79743e-06
-0.00089694
1.62897e-05
-0.0012598
4.1461e-05
-0.00159709
8.16571e-05
-0.00192682
0.000141201
-0.0022537
0.000230398
-0.00256647
0.000365624
-0.0028349
0.000577283
-0.00300521
0.000926388
-0.00297607
0.00153895
-0.00253534
0.00265378
-0.00125634
0.00170604
0.00471972
7.85411e-06
-0.000905576
2.5962e-05
-0.00127818
5.4139e-05
-0.00162571
9.55545e-05
-0.00196835
0.00015454
-0.00231301
0.00023772
-0.00264977
0.000358054
-0.00295543
0.000536836
-0.00318419
0.00081449
-0.0032539
0.00127724
-0.00299836
0.00209545
-0.00207478
0.000197933
0.00360328
1.16309e-05
-0.000918074
3.20666e-05
-0.00129897
6.20833e-05
-0.00165627
0.000104706
-0.00201116
0.000162295
-0.00237094
0.000241575
-0.00272921
0.000351312
-0.00306539
0.000507608
-0.00334068
0.00074031
-0.00348683
0.00110865
-0.00336688
0.00173254
-0.00269897
-0.000919386
0.00284964
1.3571e-05
-0.000932305
3.51861e-05
-0.00132091
6.61982e-05
-0.00168766
0.000108619
-0.00205377
0.000164769
-0.0024274
0.000239515
-0.00280413
0.000340338
-0.00316644
0.000479697
-0.00348026
0.000679101
-0.00368643
0.000981381
-0.00366942
0.00147382
-0.00319159
-0.00176277
0.00231695
1.47669e-05
-0.00094783
3.73842e-05
-0.0013439
6.86526e-05
-0.0017194
0.00011059
-0.00209592
0.00016507
-0.0024822
0.000236408
-0.00287564
0.000330461
-0.00326074
0.000457383
-0.00360738
0.000633929
-0.0038632
0.000892538
-0.00392822
0.00129784
-0.00359717
-0.002449
0.00198379
1.57706e-05
-0.000964207
3.88459e-05
-0.00136731
7.03239e-05
-0.00175123
0.000111654
-0.00213747
0.000164916
-0.00253575
0.00023335
-0.00294427
0.000322358
-0.00334997
0.000440347
-0.00372559
0.000601059
-0.00402413
0.000830952
-0.00415836
0.00118526
-0.00395176
-0.00304148
0.00177751
1.62498e-05
-0.00098117
3.97206e-05
-0.00139118
7.11342e-05
-0.00178308
0.000112153
-0.00217872
0.000164086
-0.00258799
0.000230259
-0.00301063
0.000315148
-0.00343509
0.00042595
-0.00383662
0.000574113
-0.00417249
0.000781215
-0.00436573
0.00109157
-0.00426224
-0.00354968
0.00159942
1.67e-05
-0.000998449
4.0428e-05
-0.00141526
7.18892e-05
-0.00181489
0.000112263
-0.00221932
0.000163065
-0.00263907
0.000227181
-0.00307494
0.000308565
-0.00351671
0.000413322
-0.00394158
0.000550944
-0.00431034
0.000738151
-0.0045531
0.00100907
-0.00453344
-0.00397728
0.00143652
1.70498e-05
-0.00101615
4.10482e-05
-0.00143966
7.25332e-05
-0.00184676
0.000112484
-0.00225952
0.000162325
-0.0026892
0.000224939
-0.00313775
0.000303683
-0.00359569
0.000404272
-0.00404239
0.000534534
-0.0044408
0.000708067
-0.00472689
0.000951934
-0.00477744
-0.00434643
0.0013209
1.75213e-05
-0.00103421
4.17494e-05
-0.00146425
7.30587e-05
-0.00187838
0.000112609
-0.0022993
0.000161833
-0.0027387
0.000223027
-0.00319914
0.000299898
-0.00367279
0.000397425
-0.00414012
0.00052279
-0.00456639
0.000688067
-0.00489237
0.000915546
-0.0050051
-0.00468052
0.00124946
1.77903e-05
-0.00105263
4.20316e-05
-0.0014889
7.33077e-05
-0.00191002
0.000112331
-0.00233859
0.000160607
-0.00278724
0.000220556
-0.00325929
0.000295509
-0.00374797
0.000390285
-0.00423511
0.000511836
-0.00468816
0.000671248
-0.00505199
0.000889453
-0.0052235
-0.00500479
0.00121352
1.79905e-05
-0.00107113
4.21252e-05
-0.0015134
7.2968e-05
-0.00194116
0.000111295
-0.00237715
0.000158489
-0.00283467
0.000216829
-0.00331783
0.000289481
-0.00382083
0.00038086
-0.00432669
0.000497163
-0.00480465
0.000647717
-0.00520276
0.000849411
-0.00542537
-0.00528421
0.0011286
1.79828e-05
-0.00108971
4.18846e-05
-0.00153769
7.21725e-05
-0.00197179
0.000109708
-0.00241494
0.00015572
-0.00288093
0.000212506
-0.00337481
0.000283022
-0.00389155
0.000371549
-0.0044154
0.000484094
-0.00491738
0.000629259
-0.00534808
0.000822318
-0.00561865
-0.00555695
0.00109485
1.7922e-05
-0.00110812
4.13256e-05
-0.00156145
7.09892e-05
-0.00200173
0.000107479
-0.00245165
0.000152089
-0.00292577
0.000207001
-0.0034299
0.000275059
-0.00395979
0.000360363
-0.00450088
0.000468209
-0.00502537
0.00060651
-0.00548658
0.000788476
-0.00580076
-0.00580844
0.0010398
1.76339e-05
-0.00112634
4.04817e-05
-0.00158469
6.92946e-05
-0.00203087
0.000104677
-0.00248727
0.00014784
-0.00296916
0.000200853
-0.00348308
0.000266471
-0.00402559
0.000348542
-0.00458311
0.000452322
-0.00512932
0.000584987
-0.0056194
0.000758321
-0.00597425
-0.00604368
0.000993438
1.72947e-05
-0.00114409
3.95102e-05
-0.00160725
6.74312e-05
-0.00205903
0.000101453
-0.00252152
0.00014297
-0.00301088
0.000193822
-0.0035341
0.000256712
-0.00408866
0.000335308
-0.00466187
0.000434583
-0.00522876
0.00056134
-0.00574632
0.000726592
-0.00613966
-0.00626953
0.000952305
1.6832e-05
-0.00116146
3.82899e-05
-0.0016291
6.5134e-05
-0.00208618
9.78604e-05
-0.00255448
0.000137668
-0.0030509
0.000186361
-0.00358297
0.000246433
-0.00414891
0.000321402
-0.004737
0.000415576
-0.0053231
0.000535111
-0.00586603
0.000689035
-0.00629373
-0.00646838
0.000887686
1.63414e-05
-0.00117822
3.70657e-05
-0.00165016
6.29024e-05
-0.00211224
9.43715e-05
-0.00258618
0.000132435
-0.00308916
0.000178997
-0.00362971
0.000236544
-0.00420663
0.000308295
-0.00480892
0.000398776
-0.00541375
0.000514074
-0.00598149
0.000663809
-0.00644365
-0.00667267
0.000867864
1.57598e-05
-0.00119452
3.56557e-05
-0.00167045
6.05602e-05
-0.00213745
9.05731e-05
-0.00261644
0.000126894
-0.00312568
0.00017137
-0.00367437
0.000226098
-0.00426153
0.000294208
-0.0048772
0.000379853
-0.00549956
0.000488183
-0.00608999
0.000627227
-0.00658295
-0.00685989
0.000814254
1.53587e-05
-0.00121029
3.47703e-05
-0.00169018
5.86654e-05
-0.00216157
8.73308e-05
-0.00264533
0.000121992
-0.00316053
0.00016436
-0.00371691
0.000216767
-0.0043141
0.000281988
-0.00494258
0.000363756
-0.00558148
0.000466911
-0.00619335
0.000597995
-0.00671417
-0.00702415
0.000761946
1.44976e-05
-0.00122531
3.32151e-05
-0.00170928
5.61219e-05
-0.00218478
8.39899e-05
-0.00267343
0.000117358
-0.00319409
0.000157971
-0.0037577
0.000208113
-0.0043644
0.000270646
-0.00500527
0.000349317
-0.00566032
0.000449216
-0.0062934
0.000577557
-0.00684275
-0.00719392
0.000747199
1.43584e-05
-0.00124006
3.25282e-05
-0.00172776
5.4694e-05
-0.00220716
8.08211e-05
-0.00269978
0.000112876
-0.00322634
0.000151646
-0.00379664
0.000199251
-0.00441217
0.000259214
-0.0050654
0.000334287
-0.00573555
0.000429307
-0.00638862
0.00055288
-0.00696646
-0.00736522
0.000724001
1.40218e-05
-0.00125461
3.1589e-05
-0.00174572
5.29834e-05
-0.00222886
7.83098e-05
-0.00272535
0.000108365
-0.00325659
0.000145521
-0.00383397
0.000191554
-0.00445837
0.000248198
-0.00512221
0.000319539
-0.00580707
0.000409224
-0.00647844
0.000522025
-0.00707949
-0.00750502
0.000661676
1.36865e-05
-0.00126868
3.0914e-05
-0.00176325
5.16369e-05
-0.00224979
7.59399e-05
-0.00274987
0.000105249
-0.00328609
0.000140818
-0.00386972
0.000184932
-0.00450266
0.000240086
-0.00517754
0.000309116
-0.00587626
0.000395916
-0.00656544
0.000505503
-0.00718918
-0.00764948
0.000649749
1.30408e-05
-0.00128222
2.997e-05
-0.00178056
4.99636e-05
-0.00227007
7.38642e-05
-0.00277401
0.000102004
-0.00331443
0.000136338
-0.00390424
0.000178912
-0.00454541
0.000232222
-0.005231
0.000299229
-0.00594343
0.000383528
-0.00664985
0.000489764
-0.00729561
-0.00778526
0.000625414
1.3183e-05
-0.00129576
2.97843e-05
-0.00179745
4.94129e-05
-0.00228989
7.18057e-05
-0.00279662
9.91505e-05
-0.00334196
0.000132228
-0.00393748
0.000173087
-0.00458642
0.000224978
-0.00528305
0.000290306
-0.00600889
0.000372318
-0.00673203
0.000476099
-0.00739949
-0.00791783
0.000608504
1.30428e-05
-0.0013093
2.94639e-05
-0.00181425
4.83834e-05
-0.00230911
7.02459e-05
-0.00281871
9.59029e-05
-0.00336779
0.000127826
-0.00396957
0.000167747
-0.0046265
0.000217693
-0.00533314
0.000281213
-0.00607256
0.000361825
-0.00681273
0.000463496
-0.00750135
-0.00804803
0.000593629
1.31978e-05
-0.00132282
2.91894e-05
-0.0018305
4.7525e-05
-0.00232762
6.83846e-05
-0.00283977
9.3356e-05
-0.00339294
0.000123786
-0.00400015
0.000162091
-0.00466495
0.000210543
-0.00538174
0.000272152
-0.00613428
0.000350493
-0.00689123
0.000449694
-0.00760058
-0.00817478
0.000576254
1.27799e-05
-0.00133605
2.81943e-05
-0.00184626
4.58006e-05
-0.00234549
6.62678e-05
-0.00286044
9.00636e-05
-0.0034169
0.000119258
-0.00402949
0.000155953
-0.00470178
0.000202689
-0.00542858
0.000262351
-0.00619408
0.000338252
-0.00696718
0.000433759
-0.00769629
-0.00829565
0.000554412
1.23412e-05
-0.00134866
2.80116e-05
-0.00186215
4.51222e-05
-0.00236274
6.38984e-05
-0.00287938
8.66494e-05
-0.00343979
0.000114499
-0.00405746
0.000149311
-0.00473671
0.000194489
-0.00547389
0.000252442
-0.00625213
0.000326158
-0.00704105
0.000419769
-0.00779004
-0.00841352
0.000537491
1.25721e-05
-0.00136164
2.74681e-05
-0.00187736
4.36261e-05
-0.00237914
6.15269e-05
-0.00289747
8.25619e-05
-0.00346097
0.000108705
-0.00408373
0.000142364
-0.00477048
0.000185293
-0.00551693
0.000241162
-0.00630811
0.000313562
-0.00711359
0.000405707
-0.00788221
-0.00853011
0.000522126
1.26209e-05
-0.00137449
2.685e-05
-0.00189177
4.19813e-05
-0.00239438
5.87679e-05
-0.0029144
7.84522e-05
-0.00348077
0.000102894
-0.00410828
0.000134249
-0.00480195
0.000175154
-0.00555794
0.000228729
-0.0063618
0.000298567
-0.00718347
0.000388228
-0.00797209
-0.00864666
0.00050487
1.20477e-05
-0.00138687
2.53293e-05
-0.00190531
3.94698e-05
-0.00240872
5.51192e-05
-0.0029302
7.31847e-05
-0.00349895
9.57047e-05
-0.00413092
0.000124847
-0.0048312
0.000163143
-0.00559635
0.000213946
-0.00641272
0.000280369
-0.00725005
0.000365716
-0.00805745
-0.00875062
0.000469568
1.13973e-05
-0.00139843
2.44468e-05
-0.0019185
3.74299e-05
-0.00242178
5.08376e-05
-0.00294372
6.71756e-05
-0.00351538
8.75811e-05
-0.00415142
0.000113966
-0.00485768
0.00014997
-0.00563247
0.000198063
-0.00646094
0.000262513
-0.00731457
0.000347289
-0.00814245
-0.0088637
0.00046043
1.1155e-05
-0.00140989
2.28719e-05
-0.00193044
3.42463e-05
-0.00243333
4.60518e-05
-0.00295566
5.98276e-05
-0.00352925
7.75185e-05
-0.00416921
0.000101514
-0.00488177
0.000133562
-0.00566461
0.000177503
-0.00650498
0.000237018
-0.00737423
0.00031638
-0.00822179
-0.00896654
0.000419071
1.09142e-05
-0.00142092
2.13441e-05
-0.00194096
3.09665e-05
-0.002443
4.08728e-05
-0.00296565
5.24074e-05
-0.00354086
6.73794e-05
-0.00418427
8.78636e-05
-0.00490232
0.000116433
-0.00569325
0.000156285
-0.00654492
0.00021122
-0.0074292
0.000284753
-0.00829552
-0.00905863
0.000376951
9.77608e-06
-0.00143093
1.90139e-05
-0.00195038
2.65359e-05
-0.00245066
3.4427e-05
-0.00297364
4.33633e-05
-0.00354986
5.53092e-05
-0.00419627
7.23097e-05
-0.00491938
9.68715e-05
-0.00571788
0.000132658
-0.00658075
0.000183784
-0.00748043
0.000256089
-0.00836778
-0.00916115
0.000358579
8.71596e-06
-0.00143969
1.56365e-05
-0.00195735
2.16564e-05
-0.0024567
2.68803e-05
-0.00297891
3.30477e-05
-0.00355608
4.1594e-05
-0.00420486
5.43743e-05
-0.0049322
7.4177e-05
-0.00573771
0.000103817
-0.00661044
0.000147249
-0.00752387
0.000209401
-0.00842995
-0.00924918
0.000297418
8.01942e-06
-0.00144791
1.36777e-05
-0.00196315
1.70801e-05
-0.00246022
1.94664e-05
-0.00298137
2.21229e-05
-0.00355878
2.65352e-05
-0.00420931
3.52079e-05
-0.00494091
5.01814e-05
-0.00575271
7.35442e-05
-0.00663384
0.000110002
-0.00756036
0.000163292
-0.00848323
-0.00932164
0.000235662
7.3725e-06
-0.00145528
1.095e-05
-0.00196674
1.18798e-05
-0.00246113
1.03797e-05
-0.0029799
9.92545e-06
-0.00355835
1.129e-05
-0.0042107
1.52526e-05
-0.00494489
2.4361e-05
-0.00576185
4.23664e-05
-0.00665187
7.21368e-05
-0.00759015
0.000118738
-0.00852991
-0.00939489
0.000191996
5.59367e-06
-0.001461
7.41424e-06
-0.00196866
5.55484e-06
-0.00245935
2.12527e-06
-0.00297651
-2.14383e-06
-0.0035541
-6.15108e-06
-0.00420671
-6.75259e-06
-0.00494431
-3.12112e-06
-0.0057655
8.15279e-06
-0.00666315
3.01813e-05
-0.00761222
6.6767e-05
-0.00856644
-0.00944551
0.0001173
4.02915e-06
-0.00146497
3.40298e-06
-0.00196801
-1.1448e-06
-0.00245475
-8.15386e-06
-0.00296951
-1.62989e-05
-0.00354596
-2.42619e-05
-0.00419876
-3.02286e-05
-0.00493835
-3.27256e-05
-0.005763
-2.81232e-05
-0.00666775
-1.29222e-05
-0.00762735
1.70471e-05
-0.0085965
-0.00950092
7.25292e-05
2.30584e-06
-0.00146736
-1.98565e-06
-0.00196379
-9.67409e-06
-0.0024471
-1.97026e-05
-0.00295951
-3.18106e-05
-0.00353384
-4.50431e-05
-0.00418552
-5.78527e-05
-0.00492553
-6.58977e-05
-0.00575494
-6.89921e-05
-0.00666462
-6.26375e-05
-0.00763371
-4.25631e-05
-0.00861649
-0.00953519
-8.20708e-06
2.2568e-07
-0.00146749
-5.6166e-06
-0.0019579
-1.66207e-05
-0.00243603
-3.13101e-05
-0.00294481
-4.96378e-05
-0.00351549
-6.68425e-05
-0.00416829
-8.50533e-05
-0.0049073
-0.000101319
-0.00573864
-0.000112237
-0.0066537
-0.000114542
-0.00763137
-0.000103776
-0.00862717
-0.00956497
-7.39382e-05
-2.73122e-06
-0.00146478
-1.09939e-05
-0.00194967
-2.58199e-05
-0.00242121
-4.5529e-05
-0.0029251
-6.68277e-05
-0.00349416
-9.20479e-05
-0.00414306
-0.000116192
-0.00488313
-0.000140014
-0.0057148
-0.000160031
-0.00663368
-0.000172043
-0.00761933
-0.000171393
-0.00862784
-0.0095794
-0.00015686
-5.17615e-06
-0.00145948
-1.69982e-05
-0.00193778
-3.57658e-05
-0.00240235
-5.95694e-05
-0.00290127
-8.73121e-05
-0.00346638
-0.000118058
-0.0041123
-0.0001505
-0.00485066
-0.000183589
-0.0056817
-0.000211822
-0.00660542
-0.00023358
-0.0075976
-0.000241052
-0.00862026
-0.009598
-0.000222379
-7.77059e-06
-0.00145171
-2.4571e-05
-0.00192099
-4.79349e-05
-0.00237897
-7.64544e-05
-0.00287274
-0.000110128
-0.00343266
-0.000148416
-0.00407399
-0.000190211
-0.00480883
-0.000231204
-0.00564067
-0.000272095
-0.00656451
-0.000307457
-0.00756219
-0.000330426
-0.00859724
-0.00959637
-0.000331987
-1.07233e-05
-0.00144084
-3.08435e-05
-0.00190079
-5.91793e-05
-0.00235053
-9.41751e-05
-0.0028377
-0.000136134
-0.00339065
-0.000180953
-0.00402914
-0.000231126
-0.00475861
-0.000284227
-0.00558753
-0.000337808
-0.0065109
-0.000386309
-0.00751364
-0.000426439
-0.00855709
-0.00957307
-0.00044971
-1.44267e-05
-0.00142637
-3.93e-05
-0.0018759
-7.30176e-05
-0.00231679
-0.000114897
-0.0027958
-0.000162173
-0.00334332
-0.000216766
-0.00397451
-0.000276956
-0.00469838
-0.000341371
-0.00552309
-0.000407594
-0.00644463
-0.000471933
-0.0074493
-0.000529119
-0.00849985
-0.00952845
-0.000573678
-1.865e-05
-0.00140756
-4.72955e-05
-0.00184716
-8.70262e-05
-0.00227695
-0.000135331
-0.00274745
-0.000191662
-0.00328693
-0.000256572
-0.00390957
-0.000326839
-0.00462807
-0.000403708
-0.00544617
-0.000483931
-0.0063644
-0.00056339
-0.00736982
-0.000636103
-0.00842707
-0.0094743
-0.000690278
-2.24854e-05
-0.00138502
-5.84212e-05
-0.00181119
-0.000103693
-0.00223164
-0.000159703
-0.00269141
-0.000224505
-0.00322207
-0.000299038
-0.00383501
-0.0003829
-0.00454417
-0.000473357
-0.0053557
-0.000568637
-0.00626911
-0.000667052
-0.00727136
-0.000758556
-0.0083356
-0.00939398
-0.000838822
-2.70043e-05
-0.00135784
-6.81123e-05
-0.00176998
-0.000122093
-0.00217754
-0.000185278
-0.00262818
-0.000260245
-0.00314704
-0.000345501
-0.00374973
-0.000441524
-0.00444811
-0.000547326
-0.00524987
-0.000660997
-0.00615541
-0.00077611
-0.00715627
-0.00088924
-0.00822233
-0.00929651
-0.000986804
-3.24064e-05
-0.00132534
-8.00076e-05
-0.00172234
-0.000140806
-0.00211668
-0.00021459
-0.00255437
-0.000299782
-0.00306179
-0.000396732
-0.00365276
-0.000506944
-0.00433786
-0.000628811
-0.00512796
-0.000760188
-0.00602401
-0.000896843
-0.00701952
-0.00103171
-0.00808748
-0.00917427
-0.00115392
-3.83045e-05
-0.00128684
-9.26824e-05
-0.00166785
-0.000161954
-0.00204729
-0.000244604
-0.00247167
-0.000341378
-0.00296495
-0.000453373
-0.00354073
-0.000578318
-0.00421286
-0.000717896
-0.00498834
-0.000869167
-0.00587268
-0.00102786
-0.00686081
-0.00118642