/*--------------------------------*- C++ -*----------------------------------*\
| =========                 |                                                 |
| \\      /  F ield         | OpenFOAM: The Open Source CFD Toolbox           |
|  \\    /   O peration     | Version:  2.3.0                                 |
|   \\  /    A nd           | Web:      www.OpenFOAM.org                      |
|    \\/     M anipulation  |                                                 |
\*---------------------------------------------------------------------------*/
FoamFile
{
    version     2.0;
    format      ascii;
    class       volScalarField;
    location    "8000";
    object      nut;
}
// * * * * * * * * * * * * * * * * * * * * * * * * * * * * * * * * * * * * * //

dimensions      [0 2 -1 0 0 0 0];

internalField   nonuniform List<scalar> 
14535
(
0.0693911
0.0663893
0.0634033
0.060444
0.0575193
0.0546368
0.0518041
0.0490283
0.0463169
0.0436774
0.0411171
0.0386435
0.0362648
0.0339887
0.0318242
0.0297806
0.0278671
0.0260897
0.0244492
0.0229331
0.0214999
0.0200559
0.0184229
0.0162951
0.0718948
0.0693707
0.0668821
0.0644311
0.0620227
0.0596629
0.0573575
0.0551121
0.052933
0.050827
0.0488017
0.0468654
0.0450263
0.0432939
0.0416787
0.040193
0.0388498
0.0376619
0.0366407
0.0357951
0.0351309
0.034647
0.0343397
0.0341999
0.0741955
0.0720777
0.0699947
0.0679502
0.0659489
0.0639953
0.0620938
0.0602486
0.0584649
0.0567477
0.0551028
0.0535364
0.0520561
0.0506691
0.0493834
0.0482078
0.0471513
0.0462224
0.0454277
0.0447735
0.0442632
0.0438973
0.0436732
0.0435852
0.0763015
0.0745215
0.072769
0.0710515
0.0693733
0.0677379
0.0661483
0.0646079
0.0631201
0.061689
0.0603193
0.059016
0.0577849
0.0566318
0.0555635
0.0545867
0.0537084
0.0529352
0.0522728
0.0517262
0.0512983
0.0509911
0.0508033
0.050732
0.0782268
0.0767129
0.0752258
0.0737694
0.0723464
0.0709591
0.0696098
0.0683011
0.0670355
0.0658163
0.0646471
0.0635324
0.0624771
0.0614866
0.0605665
0.0597228
0.0589617
0.0582891
0.0577107
0.0572315
0.0568546
0.0565829
0.0564168
0.056355
0.0799603
0.0786644
0.0773922
0.0761447
0.0749234
0.0737301
0.0725669
0.0714358
0.0703391
0.0692795
0.0682601
0.0672847
0.066358
0.0654852
0.0646717
0.0639228
0.0632442
0.062642
0.0621213
0.0616877
0.0613454
0.0610972
0.060945
0.0608891
0.0815094
0.0803955
0.0792987
0.0782193
0.0771584
0.0761181
0.0751005
0.0741074
0.0731411
0.0722041
0.0712991
0.0704293
0.0695993
0.0688146
0.0680805
0.0674023
0.0667854
0.0662354
0.065757
0.0653559
0.0650378
0.064806
0.0646635
0.0646115
0.082894
0.0819296
0.0809761
0.080033
0.079101
0.0781822
0.0772797
0.0763956
0.0755313
0.07469
0.0738754
0.0730879
0.0723321
0.0716151
0.0709417
0.0703178
0.069749
0.0692401
0.0687947
0.0684178
0.068117
0.0678964
0.0677608
0.0677115
0.0841298
0.0832893
0.0824532
0.0816219
0.0807945
0.0799729
0.0791618
0.0783646
0.0775821
0.076814
0.0760749
0.075356
0.0746555
0.0739909
0.0733655
0.0727841
0.0722527
0.0717785
0.0713636
0.0710022
0.0707153
0.0705007
0.0703695
0.0703226
0.0852445
0.0844996
0.0837545
0.0830133
0.082274
0.0815311
0.0807931
0.0800614
0.0793522
0.078637
0.0779646
0.077313
0.0766464
0.0760216
0.0754334
0.0748858
0.074383
0.0739373
0.0735652
0.073202
0.0729327
0.0727156
0.0725873
0.072542
0.0168098
0.0193935
0.0209116
0.0222383
0.0236483
0.0252238
0.0269746
0.0288865
0.0309396
0.0331169
0.0354042
0.0377898
0.0402646
0.0428207
0.0454518
0.0481511
0.050912
0.0537281
0.0565926
0.0594985
0.0624385
0.0654049
0.0683895
0.0713859
0.0342041
0.0343679
0.0347268
0.0352908
0.0360597
0.0370258
0.0381775
0.0394996
0.040976
0.0425908
0.044329
0.0461765
0.0481221
0.0501552
0.0522671
0.0544495
0.0566956
0.058999
0.0613537
0.0637541
0.0661947
0.0686698
0.071174
0.0737042
0.0436195
0.0437786
0.0440809
0.0445334
0.0451366
0.0458878
0.0467823
0.0478131
0.0489703
0.0502441
0.0516242
0.0531017
0.0546677
0.0563139
0.0580326
0.0598177
0.0616628
0.0635627
0.0655126
0.0675076
0.069544
0.0716175
0.0737243
0.0758627
0.0507695
0.0509168
0.0511834
0.0515728
0.0520854
0.0527185
0.0534684
0.0543294
0.0552944
0.0563559
0.0575061
0.058738
0.0600448
0.0614191
0.0628553
0.0643483
0.0658931
0.0674849
0.0691203
0.070796
0.0725087
0.0742564
0.0760364
0.0778486
0.0563929
0.056531
0.0567746
0.0571251
0.0575814
0.0581404
0.0587985
0.0595499
0.0603884
0.0613077
0.062301
0.0633622
0.0644852
0.065664
0.0668937
0.0681696
0.0694876
0.0708439
0.0722356
0.0736601
0.0751156
0.0766004
0.0781137
0.0796574
0.0609264
0.061057
0.0612841
0.0616076
0.0620251
0.0625327
0.0631266
0.0638014
0.0645509
0.0653692
0.0662504
0.0671884
0.0681773
0.0692122
0.0702879
0.0714002
0.0725452
0.0737199
0.0749218
0.0761486
0.0773993
0.0786726
0.0799679
0.0812875
0.0646484
0.0647737
0.0649887
0.0652922
0.0656808
0.0661506
0.066697
0.0673148
0.0679983
0.068742
0.0695397
0.0703857
0.0712743
0.0722001
0.0731583
0.0741447
0.0751559
0.0761887
0.0772411
0.0783112
0.0793978
0.0805003
0.081618
0.0827528
0.0677481
0.0678699
0.0680761
0.0683643
0.0687308
0.0691706
0.06968
0.0702537
0.0708864
0.071573
0.0723071
0.0730827
0.073894
0.0747353
0.0756018
0.0764896
0.0773951
0.0783155
0.0792487
0.0801933
0.0811475
0.0821112
0.0830841
0.0840669
0.0703594
0.0704791
0.070679
0.0709549
0.0713046
0.0717185
0.0721984
0.0727356
0.0733285
0.0739706
0.0746551
0.0753757
0.0761267
0.0769007
0.0776938
0.0785032
0.0793239
0.0801543
0.0809913
0.0818345
0.0826806
0.0835312
0.0843857
0.0852427
0.0725787
0.0726967
0.0728924
0.0731548
0.0734914
0.0738776
0.0743361
0.074838
0.0754002
0.076007
0.0766517
0.0773275
0.0780304
0.0787467
0.0794805
0.0802266
0.080979
0.0817385
0.0824981
0.0832594
0.0840153
0.0847754
0.0855359
0.086293
0.0198988
0.018523
0.0172199
0.0159721
0.014772
0.0136158
0.0125017
0.0114296
0.0103998
0.00941338
0.00847139
0.00757512
0.00672562
0.00592378
0.00517007
0.00446447
0.00380642
0.00319485
0.00262822
0.00210473
0.00162273
0.00118095
0.000772698
0.000473618
0.0199123
0.0186546
0.0174504
0.0162942
0.0151795
0.0141018
0.013059
0.0120498
0.0110739
0.0101314
0.00922293
0.00834913
0.00751073
0.00670843
0.00594278
0.00521407
0.00452232
0.00386723
0.00324819
0.00266455
0.00211585
0.00160076
0.00111146
0.000715577
0.0199464
0.0187894
0.01768
0.0166107
0.0155759
0.0145715
0.0135945
0.0126433
0.0117169
0.0108148
0.00993682
0.00908328
0.00825453
0.007451
0.00667324
0.00592169
0.00519689
0.00449914
0.00382887
0.00318663
0.00257301
0.00198636
0.00141647
0.000941367
0.0199804
0.0189194
0.0178962
0.0169054
0.0159422
0.0150025
0.0140835
0.0131831
0.0122997
0.0114325
0.0105809
0.00974478
0.00892413
0.00811922
0.00733048
0.00655855
0.00580418
0.00506823
0.00435188
0.00365666
0.00298391
0.00233141
0.00168716
0.00114407
0.0200175
0.019042
0.0180965
0.0171758
0.0162758
0.0153929
0.0145243
0.0136676
0.0128213
0.011984
0.0111549
0.0103336
0.00951976
0.00871356
0.00791532
0.00712569
0.00634554
0.00557617
0.00481927
0.00407701
0.00335128
0.00263922
0.00192756
0.00132405
0.0200559
0.0191569
0.0182808
0.0174225
0.0165784
0.0157452
0.0149204
0.0141016
0.0132871
0.0124754
0.0116655
0.0108568
0.0100487
0.00924138
0.00843494
0.00763001
0.00682755
0.00602906
0.00523659
0.00445282
0.00367989
0.0029143
0.00214195
0.00148385
0.0200942
0.019264
0.0184498
0.017647
0.0168523
0.0160629
0.0152762
0.0144902
0.0137031
0.0129134
0.01212
0.011322
0.010519
0.00971062
0.0088971
0.00807892
0.00725712
0.00643326
0.00560959
0.00478915
0.00397412
0.00316038
0.00233292
0.00162535
0.020131
0.0193632
0.0186045
0.0178513
0.0171005
0.0163496
0.0155964
0.0148389
0.0140755
0.0133048
0.0125255
0.0117368
0.0109379
0.0101285
0.00930882
0.00847918
0.00764054
0.00679455
0.00594363
0.00509109
0.00423897
0.00338295
0.00250678
0.00175324
0.0201669
0.0194557
0.0187465
0.0180376
0.0173267
0.0166111
0.015888
0.0151551
0.014412
0.0136576
0.0128906
0.0121099
0.0113142
0.010503
0.00967693
0.00883661
0.00798257
0.00711597
0.00623974
0.00535683
0.00447072
0.00357287
0.00265023
0.00185922
0.0202152
0.0195476
0.0188792
0.0182095
0.0175385
0.0168623
0.016177
0.0154671
0.0147417
0.0140026
0.0132486
0.0124814
0.0116972
0.0108866
0.0100523
0.00920182
0.00833892
0.00746141
0.00656592
0.00566296
0.00473931
0.00382808
0.00285722
0.00199338
0.000519593
0.000757181
0.00109021
0.00141173
0.00172189
0.00202251
0.00231724
0.0026109
0.00291004
0.00322388
0.00356677
0.00396257
0.00445088
0.00508377
0.00585381
0.00674509
0.00775587
0.00889079
0.0101575
0.0115643
0.0131184
0.0148284
0.0167036
0.0187536
0.000727397
0.00101168
0.00135341
0.00168544
0.0020038
0.002311
0.00261252
0.00291592
0.00323151
0.00357364
0.00396221
0.00442317
0.00498748
0.00568386
0.00648869
0.00739394
0.0084008
0.00951401
0.0107401
0.012085
0.0135551
0.0151579
0.0169023
0.0188017
0.000920465
0.00122524
0.00157789
0.00192173
0.00225108
0.00256956
0.00288517
0.00320906
0.00355576
0.00394327
0.0043918
0.00492134
0.0055507
0.00629325
0.00712349
0.00803759
0.00903758
0.0101276
0.0113124
0.0125964
0.0139849
0.0154846
0.0171033
0.0188499
0.00109109
0.00140391
0.00176694
0.0021226
0.00246463
0.00279832
0.00313481
0.00348893
0.00387797
0.00431991
0.00483039
0.00542101
0.00610305
0.00687907
0.00772761
0.00864656
0.00963769
0.0107041
0.0118489
0.0130754
0.014388
0.0157924
0.0172941
0.0188979
0.00124009
0.00155537
0.00192789
0.00229539
0.00265166
0.00300432
0.00336775
0.00375939
0.00419682
0.0046946
0.00526173
0.00590321
0.00662895
0.00743067
0.00829287
0.00921399
0.0101951
0.0112383
0.0123452
0.0135184
0.0147613
0.0160781
0.0174722
0.0189443
0.00137021
0.00168544
0.00206674
0.00244629
0.00281845
0.00319346
0.00358842
0.00402175
0.00450888
0.00505924
0.00567585
0.00636014
0.0071222
0.00794463
0.0088174
0.00973899
0.0107098
0.0117305
0.012802
0.0139261
0.0151051
0.0163418
0.0176382
0.0189959
0.00148437
0.00179855
0.00218799
0.00257981
0.00296935
0.00336943
0.00379883
0.00427522
0.00481034
0.00540837
0.00606819
0.00679014
0.00758108
0.00842066
0.00930186
0.0102229
0.0111833
0.0121827
0.0132214
0.0143003
0.015421
0.0165856
0.0177979
0.0190699
0.00158463
0.00189682
0.00229459
0.00269934
0.00310798
0.00353487
0.0039996
0.00451817
0.00509808
0.00573865
0.00643613
0.00719131
0.00800567
0.00885976
0.00974774
0.0106675
0.0116176
0.012597
0.0136054
0.0146432
0.0157113
0.0168115
0.0179482
0.0191278
0.00167482
0.00198824
0.00239195
0.00280848
0.00323372
0.00368716
0.00418893
0.00474917
0.00536956
0.00604723
0.00677773
0.00756269
0.00839673
0.00926331
0.0101573
0.0110757
0.0120154
0.0129758
0.0139562
0.0149565
0.0159769
0.017019
0.0180845
0.0191712
0.00174773
0.0020449
0.00246375
0.00289572
0.00335768
0.00385254
0.00438265
0.0049673
0.00562267
0.00634208
0.00709984
0.00790835
0.00875924
0.00964218
0.0105439
0.011452
0.0123732
0.0133136
0.0142685
0.0152363
0.0162113
0.0172024
0.0182071
0.0192165
0.00119216
0.00378611
0.00638207
0.00894558
0.0114694
0.0139649
0.0164539
0.0189604
0.0215046
0.0241028
0.0267657
0.0295004
0.0323102
0.0351953
0.0381533
0.04118
0.0442695
0.0474154
0.0506101
0.053846
0.0571154
0.0604098
0.0637217
0.0670442
0.000322232
0.00189779
0.00337828
0.00505937
0.00697469
0.0091591
0.011541
0.0140497
0.0166537
0.0193449
0.0221246
0.0249952
0.0279573
0.0310093
0.0341473
0.037365
0.0406547
0.044007
0.0474121
0.0508598
0.0543397
0.0578426
0.0613599
0.0648881
0.000348714
0.00177422
0.00305318
0.00441667
0.00593946
0.0076431
0.00950317
0.0115198
0.0137928
0.0163099
0.0189939
0.0218153
0.0247633
0.0278311
0.0310112
0.0342953
0.0376722
0.0411302
0.0446562
0.0482366
0.0518586
0.0555097
0.0591787
0.0628549
0.00030398
0.00141482
0.00286905
0.00428085
0.0056993
0.00717991
0.00875384
0.0104466
0.0123041
0.0144144
0.0168553
0.0195235
0.0223674
0.025366
0.0285069
0.0317788
0.0351693
0.0386642
0.0422481
0.0459051
0.0496193
0.0533756
0.0571617
0.0609753
0.000275324
0.00122156
0.00261664
0.00407988
0.00552134
0.0069536
0.00841405
0.0099387
0.011564
0.0133496
0.015418
0.0178518
0.020539
0.0234235
0.0264806
0.0296948
0.0330524
0.0365382
0.0401359
0.0438276
0.0475949
0.0514204
0.0552867
0.0591729
0.000258663
0.00110205
0.00239154
0.00382716
0.00528931
0.0067321
0.00816582
0.00961915
0.0111265
0.0127329
0.0145172
0.0166381
0.0191246
0.0218681
0.0248178
0.0279498
0.0312473
0.0346951
0.038276
0.0419716
0.0457626
0.0496291
0.0535523
0.0575157
0.000249628
0.00101211
0.00220792
0.00358038
0.0050305
0.00648394
0.00792045
0.00935164
0.010804
0.012314
0.0139371
0.0157818
0.018027
0.0206073
0.0234357
0.026472
0.0296945
0.0330862
0.0366304
0.0403086
0.0441008
0.0479864
0.0519437
0.055949
0.000251719
0.000944058
0.00206142
0.00336475
0.00477979
0.00622786
0.00766868
0.00909626
0.0105256
0.0119848
0.0135166
0.0151955
0.0171809
0.0195784
0.0222749
0.025208
0.0283468
0.0316722
0.0351667
0.0388126
0.04259
0.046478
0.0504552
0.0545036
0.000266818
0.000893472
0.00194391
0.00318157
0.00455183
0.00598055
0.00741819
0.00884553
0.010266
0.0116988
0.0131772
0.0147563
0.0165447
0.0187383
0.0212926
0.0241169
0.0271675
0.0304204
0.0338575
0.037461
0.0412121
0.0450898
0.0490728
0.0531392
0.000282446
0.000853276
0.00184615
0.00302446
0.00434778
0.00574908
0.00717604
0.00860064
0.0100171
0.0114363
0.012883
0.0144002
0.0160667
0.0180535
0.0204565
0.023168
0.0261278
0.029305
0.03268
0.0362348
0.0399511
0.043809
0.0477874
0.0518681
0.000291561
0.000819061
0.00176245
0.00288772
0.00416528
0.00553524
0.00694596
0.00836424
0.00977723
0.0111886
0.0126161
0.0140933
0.01568
0.0175002
0.0197432
0.0223378
0.0252049
0.0283051
0.0316152
0.035117
0.0387929
0.0426229
0.0465855
0.0506526
0.000295543
0.000789175
0.00168976
0.0027677
0.00400181
0.00533887
0.00672949
0.00813802
0.0095464
0.0109523
0.0123675
0.0138179
0.0153507
0.0170584
0.0191351
0.0216082
0.0243813
0.0274034
0.0306474
0.0340938
0.0377251
0.0415221
0.045463
0.0495223
0.000296754
0.000762776
0.00162601
0.00266161
0.00385495
0.00515886
0.00652712
0.00792303
0.00932495
0.010726
0.0121327
0.0135648
0.0150604
0.016692
0.0186159
0.0209648
0.0236426
0.0265866
0.0297638
0.0331535
0.0367377
0.0404983
0.044415
0.0484673
0.000296743
0.000739369
0.00156971
0.0025671
0.0037225
0.00499376
0.00633823
0.00771947
0.00911325
0.0105091
0.0119092
0.0133282
0.0147969
0.0163728
0.0181757
0.0203963
0.0229774
0.0258432
0.0289538
0.0322861
0.0358221
0.0395445
0.043436
0.0474827
0.000296279
0.00071866
0.00151964
0.00248248
0.0036025
0.00484218
0.00616226
0.00752713
0.00891129
0.0103012
0.0116955
0.0131046
0.0145531
0.0160879
0.0178039
0.019894
0.0223768
0.025164
0.0282084
0.0314834
0.0349705
0.0386534
0.0425155
0.0465414
0.000295706
0.000700278
0.00147492
0.00240628
0.00349343
0.00470275
0.00599833
0.00734582
0.0087189
0.0101021
0.0114908
0.0128919
0.0143251
0.0158295
0.0174824
0.0194495
0.0218328
0.0245418
0.0275202
0.0307382
0.0341761
0.0378175
0.0416458
0.0456388
0.000295158
0.000684016
0.0014348
0.00233735
0.00339392
0.00457421
0.00584542
0.00717489
0.00853595
0.00991143
0.0112945
0.0126889
0.0141102
0.015591
0.0171951
0.0190566
0.0213393
0.0239696
0.0268829
0.0300441
0.0334327
0.0370315
0.0408231
0.0447852
0.000294671
0.000669526
0.00139864
0.00227477
0.00330284
0.0044555
0.00570285
0.0070138
0.00836196
0.00972905
0.0111062
0.0124944
0.0139058
0.0153677
0.016933
0.0187111
0.0208913
0.0234427
0.0262908
0.0293961
0.032735
0.0362901
0.0400428
0.0439669
0.000294256
0.000656591
0.00136596
0.00221767
0.00321918
0.00434562
0.0055696
0.00686199
0.00819664
0.00955458
0.0109253
0.0123077
0.0137107
0.0151572
0.0166919
0.0184064
0.0204845
0.0229562
0.0257397
0.0287891
0.0320789
0.0355902
0.0393054
0.0432059
0.000293908
0.000645038
0.00133627
0.00216548
0.00314214
0.00424364
0.00544499
0.00671877
0.00803955
0.00938774
0.0107517
0.0121282
0.0135239
0.0149577
0.0164683
0.0181329
0.0201146
0.0225062
0.0252253
0.0282196
0.0314603
0.034928
0.0386044
0.0424687
0.000293613
0.000634623
0.00130924
0.00211758
0.003071
0.00414887
0.00532836
0.00658368
0.00789019
0.00922818
0.0105849
0.0119556
0.0133446
0.014768
0.0162586
0.0178824
0.0197782
0.0220896
0.0247443
0.0276839
0.0308762
0.0343005
0.0379396
0.0417762
0.000293366
0.000625231
0.00128453
0.00207348
0.00300511
0.00406056
0.00521889
0.00645606
0.00774824
0.00907561
0.0104247
0.0117895
0.0131724
0.0145864
0.0160602
0.01765
0.0194732
0.0217034
0.0242938
0.0271791
0.0303237
0.0337056
0.0373081
0.041117
0.000293154
0.000616731
0.00126188
0.00203279
0.00294397
0.00397815
0.00511614
0.00633541
0.00761315
0.00892965
0.0102708
0.0116295
0.0130065
0.0144123
0.0158715
0.0174329
0.0191971
0.0213455
0.0238714
0.026703
0.0298004
0.0331405
0.0367073
0.0404876
0.000292983
0.000609021
0.00124108
0.00199515
0.0028871
0.00390109
0.00501951
0.00622132
0.00748463
0.00879001
0.010123
0.0114753
0.0128464
0.0142448
0.0156915
0.0172293
0.0189455
0.0210136
0.0234748
0.026253
0.0293041
0.0326033
0.0361344
0.0398847
0.000292841
0.000601986
0.00122191
0.00196025
0.00283409
0.00382888
0.00492849
0.00611326
0.00736225
0.00865636
0.00998081
0.0113267
0.0126921
0.0140835
0.0155194
0.0170374
0.0187137
0.0207057
0.0231021
0.0258274
0.0288327
0.0320912
0.0355857
0.0393001
0.00029272
0.000595546
0.00120419
0.0019278
0.00278457
0.00376113
0.00484265
0.0060108
0.00724562
0.0085284
0.00984416
0.0111834
0.012543
0.013928
0.0153543
0.0168553
0.0184975
0.02042
0.0227516
0.0254241
0.0283841
0.0316021
0.0350591
0.0387359
0.000292613
0.00058963
0.00118778
0.00189759
0.00273823
0.00369745
0.00476163
0.00591362
0.00713441
0.00840578
0.00971271
0.0110451
0.012399
0.013778
0.0151957
0.0166815
0.0182942
0.0201554
0.0224218
0.0250418
0.0279569
0.031135
0.0345569
0.0382098
0.00029252
0.000584188
0.00117254
0.00186938
0.00269479
0.00363749
0.004685
0.0058213
0.00702831
0.00828828
0.00958625
0.0109117
0.0122598
0.0136329
0.0150426
0.0165151
0.018102
0.0199106
0.0221114
0.0246788
0.0275495
0.0306883
0.0340747
0.0376937
0.000292439
0.000579164
0.00115836
0.00184301
0.00265399
0.00358097
0.00461248
0.00573353
0.00692698
0.00817562
0.00946453
0.0107829
0.0121251
0.0134925
0.0148948
0.0163553
0.01792
0.0196839
0.0218192
0.0243341
0.0271605
0.0302602
0.0336104
0.0371926
0.000292367
0.000574518
0.00114515
0.00181831
0.00261562
0.00352761
0.00454373
0.00565003
0.00683019
0.00806754
0.00934731
0.0106585
0.0119948
0.0133565
0.014752
0.0162017
0.0177471
0.0194729
0.0215443
0.0240063
0.0267887
0.0298495
0.033164
0.0367138
0.000292305
0.000570213
0.0011328
0.00179514
0.00257948
0.00347716
0.00447849
0.00557047
0.00673761
0.00796377
0.0092344
0.0105382
0.0118686
0.0132248
0.0146137
0.0160538
0.0175823
0.0192751
0.0212852
0.0236945
0.0264331
0.0294555
0.0327357
0.036258
0.000292248
0.000566207
0.00112125
0.00177336
0.00254539
0.00342941
0.00441654
0.00549465
0.00664902
0.00786411
0.00912558
0.010422
0.0117464
0.0130971
0.0144799
0.0159112
0.0174247
0.0190883
0.0210413
0.0233976
0.0260927
0.0290771
0.0323231
0.0358125
0.000292193
0.000562476
0.00111042
0.00175286
0.00251318
0.00338414
0.00435762
0.00542229
0.0065642
0.00776835
0.00902066
0.0103097
0.011628
0.0129732
0.0143502
0.0157734
0.0172733
0.0189109
0.0208118
0.023115
0.0257667
0.0287136
0.0319265
0.0353893
0.000292144
0.000558994
0.00110025
0.00173354
0.00248272
0.0033412
0.00430154
0.00535317
0.00648289
0.00767626
0.00891947
0.010201
0.0115132
0.0128531
0.0142243
0.0156399
0.0171274
0.0187417
0.020596
0.0228459
0.0254543
0.0283641
0.0315442
0.0349767
0.000292096
0.000555734
0.00109069
0.00171531
0.00245388
0.00330041
0.00424811
0.00528713
0.00640495
0.00758768
0.00882183
0.0100959
0.0114019
0.0127364
0.0141022
0.0155106
0.0169867
0.0185802
0.0203933
0.0225897
0.0251547
0.0280274
0.031173
0.0345668
0.000292048
0.00055268
0.00108168
0.00169807
0.00242653
0.00326162
0.00419715
0.00522395
0.00633017
0.00750244
0.00872757
0.00999417
0.011294
0.0126231
0.0139834
0.0153851
0.0168507
0.0184257
0.0202025
0.0223457
0.0248672
0.027703
0.0308162
0.034186
0.000292002
0.000549814
0.00107318
0.00168177
0.00240057
0.00322469
0.00414851
0.00516346
0.00625836
0.00742036
0.00863657
0.00989566
0.0111892
0.0125129
0.013868
0.0152632
0.0167193
0.0182776
0.0200225
0.0221135
0.0245916
0.0273919
0.0304771
0.0338377
0.000291955
0.000547114
0.00106514
0.00166631
0.00237591
0.00318952
0.00410204
0.00510553
0.00618936
0.00734125
0.00854862
0.00980023
0.0110876
0.0124059
0.0137557
0.0151448
0.0165921
0.0181354
0.0198519
0.0218925
0.0243275
0.0270927
0.030149
0.0334792
0.000291907
0.000544572
0.00105755
0.00165166
0.00235245
0.00315596
0.00405761
0.00504999
0.00612306
0.007265
0.00846362
0.00970779
0.0109889
0.0123018
0.0136465
0.0150298
0.0164688
0.0179986
0.0196894
0.0216822
0.0240742
0.0268043
0.0298296
0.0331253
0.000291857
0.000542172
0.00105035
0.00163774
0.00233011
0.00312394
0.00401509
0.0049967
0.00605927
0.00719147
0.00838143
0.00961817
0.010893
0.0122005
0.0135402
0.0149179
0.0163493
0.0178666
0.0195342
0.0214821
0.0238309
0.0265256
0.0295187
0.0327813
0.000291807
0.000539903
0.00104352
0.0016245
0.00230881
0.00309334
0.00397438
0.00494555
0.00599789
0.00712052
0.00830191
0.00953129
0.0107999
0.012102
0.0134367
0.014809
0.0162332
0.017739
0.0193853
0.021292
0.0235972
0.0262558
0.029216
0.0324454
0.000291755
0.000537754
0.00103704
0.00161191
0.0022885
0.00306408
0.00393535
0.0048964
0.00593876
0.00705201
0.00822498
0.00944702
0.0107093
0.0120062
0.0133359
0.014703
0.0161203
0.0176154
0.0192423
0.0211112
0.0233725
0.0259945
0.0289216
0.0321186
0.000291701
0.000535719
0.00103088
0.00159991
0.00226911
0.00303608
0.00389792
0.00484916
0.00588179
0.00698586
0.0081505
0.00936526
0.0106214
0.0119128
0.0132377
0.0145997
0.0160105
0.0174956
0.0191048
0.0209394
0.0231563
0.0257415
0.0286359
0.0318033
0.000291645
0.000533786
0.00102501
0.00158847
0.00225057
0.00300927
0.003862
0.00480372
0.00582689
0.00692194
0.00807837
0.00928592
0.0105358
0.011822
0.013142
0.0144989
0.0159036
0.0173793
0.0189723
0.0207759
0.0229484
0.0254965
0.0283582
0.0314945
0.000291586
0.000531945
0.00101942
0.00157755
0.00223285
0.00298357
0.0038275
0.00475999
0.00577392
0.00686014
0.00800849
0.00920891
0.0104526
0.0117334
0.0130487
0.0144007
0.0157994
0.0172664
0.0188445
0.0206199
0.0227484
0.0252591
0.028088
0.0311926
0.000291526
0.000530198
0.00101409
0.00156712
0.00221588
0.00295892
0.00379435
0.00471788
0.00572281
0.00680039
0.00794077
0.00913409
0.0103717
0.0116472
0.0129576
0.0143049
0.0156979
0.0171567
0.018721
0.0204707
0.022556
0.0250292
0.0278258
0.0309026
0.000291463
0.000528529
0.001009
0.00155714
0.00219962
0.00293527
0.00376247
0.0046773
0.00567345
0.00674257
0.00787511
0.00906144
0.0102929
0.0115631
0.0128688
0.0142113
0.0155988
0.0170499
0.0186015
0.0203275
0.022371
0.0248071
0.0275737
0.0306316
0.000291396
0.000526937
0.00100413
0.00154759
0.00218404
0.00291254
0.00373178
0.00463818
0.00562578
0.00668663
0.00781145
0.00899083
0.0102162
0.0114812
0.0127821
0.01412
0.0155022
0.0169459
0.0184857
0.0201898
0.0221933
0.0245925
0.0273289
0.0303587
0.00029133
0.00052542
0.000999481
0.00153845
0.00216908
0.0028907
0.00370225
0.00460045
0.00557971
0.00663243
0.00774967
0.00892221
0.0101416
0.0114012
0.0126975
0.0140308
0.0154078
0.0168445
0.0183732
0.020057
0.0220227
0.0243851
0.0270911
0.0300944
0.000291259
0.000523963
0.000995027
0.00152969
0.00215473
0.0028697
0.00367379
0.00456403
0.00553517
0.00657993
0.00768971
0.00885548
0.0100689
0.0113233
0.0126148
0.0139436
0.0153156
0.0167457
0.0182638
0.0199288
0.021859
0.0241843
0.0268595
0.0298341
0.000291184
0.000522571
0.000990756
0.00152128
0.00214094
0.00284949
0.00364636
0.00452886
0.00549208
0.00652907
0.0076315
0.00879055
0.009998
0.0112472
0.0125341
0.0138584
0.0152255
0.0166491
0.0181573
0.0198048
0.0217019
0.0239896
0.0266329
0.0295751
0.00029111
0.000521236
0.000986661
0.00151321
0.00212768
0.00283003
0.00361991
0.00449489
0.00545038
0.00647975
0.00757495
0.0087274
0.00992896
0.011173
0.0124552
0.0137751
0.0151374
0.0165548
0.0180536
0.0196847
0.0215512
0.0238012
0.0264134
0.0293322
0.000291031
0.000519959
0.000982736
0.00150545
0.00211493
0.00281129
0.00359438
0.00446206
0.00541002
0.00643191
0.00752001
0.00866594
0.00986165
0.0111005
0.0123781
0.0136936
0.0150511
0.0164626
0.0179524
0.0195684
0.0214066
0.0236189
0.0261999
0.0290917
0.000290948
0.000518723
0.000978955
0.001498
0.00210265
0.00279321
0.00356975
0.00443032
0.0053709
0.00638551
0.00746665
0.00860609
0.00979597
0.0110297
0.0123027
0.0136138
0.0149667
0.0163725
0.0178538
0.0194556
0.0212677
0.0234428
0.0259939
0.0288648
0.000290865
0.000517529
0.000975318
0.00149082
0.00209082
0.00277578
0.00354592
0.0043996
0.00533304
0.00634047
0.00741471
0.00854781
0.009732
0.0109605
0.012229
0.0135357
0.0148841
0.0162842
0.0177576
0.0193462
0.0211343
0.0232724
0.0257916
0.028628
0.000290769
0.000516396
0.000971817
0.00148392
0.00207943
0.00275897
0.00352293
0.00436988
0.00529629
0.00629676
0.00736425
0.00849106
0.0096695
0.010893
0.0121568
0.0134593
0.0148032
0.0161979
0.0176637
0.0192401
0.0210061
0.0231087
0.0256013
0.0284387
0.000290684
0.0005153
0.000968462
0.00147726
0.00206843
0.00274272
0.00350069
0.00434111
0.00526069
0.00625427
0.00731514
0.00843576
0.00960855
0.010827
0.0120862
0.0133845
0.014724
0.0161135
0.0175721
0.0191371
0.020883
0.0229519
0.0254179
0.0282336
0.000290598
0.000514261
0.000965226
0.00147086
0.00205783
0.00272704
0.00347918
0.00431322
0.00522617
0.00621303
0.00726738
0.00838185
0.00954909
0.0107624
0.0120172
0.0133112
0.0146464
0.0160309
0.0174828
0.0190373
0.0207645
0.0228012
0.0252396
0.0280318
0.000290505
0.000513241
0.0009621
0.00146469
0.00204759
0.00271187
0.00345838
0.00428622
0.00519262
0.00617292
0.00722088
0.00832931
0.00949096
0.0106994
0.0119496
0.0132394
0.0145704
0.0159501
0.0173956
0.0189403
0.0206503
0.0226556
0.0250633
0.0278198
0.000290404
0.000512225
0.000959085
0.0014587
0.00203771
0.00269721
0.0034382
0.00426002
0.00516009
0.00613393
0.00717556
0.00827807
0.00943429
0.0106377
0.0118835
0.0131691
0.0144959
0.015871
0.0173104
0.0188459
0.0205396
0.0225143
0.0248883
0.0276065
0.000290296
0.000511285
0.000956167
0.00145294
0.00202815
0.00268302
0.00341868
0.00423463
0.00512847
0.00609604
0.00713148
0.0082281
0.00937886
0.0105774
0.0118187
0.0131002
0.014423
0.0157936
0.0172272
0.0187539
0.0204322
0.0223779
0.0247217
0.0274311
0.000290202
0.000510363
0.000953351
0.00144737
0.00201891
0.00266929
0.00339978
0.00420999
0.00509777
0.00605912
0.0070885
0.00817934
0.00932474
0.0105184
0.0117553
0.0130328
0.0143516
0.0157179
0.0171459
0.0186641
0.0203278
0.0222456
0.024555
0.0272163
0.0002901
0.000509484
0.000950637
0.00144199
0.00200997
0.002656
0.00338142
0.00418607
0.00506795
0.00602323
0.00704663
0.00813174
0.0092719
0.0104607
0.0116933
0.0129667
0.0142816
0.0156436
0.0170662
0.0185765
0.020226
0.0221171
0.0243923
0.0270271
0.000289995
0.000508624
0.000948002
0.00143679
0.00200131
0.00264311
0.00336365
0.00416285
0.00503892
0.00598829
0.00700583
0.00808532
0.00922019
0.0104043
0.0116325
0.012902
0.014213
0.0155709
0.0169882
0.0184906
0.0201266
0.021992
0.0242314
0.0268279
0.000289885
0.000507755
0.000945457
0.00143174
0.00199294
0.00263063
0.00334638
0.0041403
0.00501072
0.00595427
0.00696602
0.00803998
0.0091697
0.010349
0.011573
0.0128385
0.0141457
0.0154995
0.0169117
0.0184064
0.0200295
0.0218707
0.0240766
0.0266531
0.000289762
0.00050695
0.000942983
0.00142686
0.00198482
0.00261852
0.00332963
0.00411837
0.00498329
0.00592115
0.00692724
0.00799575
0.00912033
0.010295
0.0115147
0.0127763
0.0140798
0.0154294
0.0168366
0.0183239
0.0199344
0.021753
0.0239253
0.0264701
0.000289657
0.000506163
0.000940587
0.00142213
0.00197694
0.00260678
0.00331339
0.00409708
0.00495657
0.00588887
0.00688942
0.00795253
0.00907208
0.0102421
0.0114575
0.0127153
0.014015
0.0153607
0.0167629
0.0182429
0.0198416
0.0216389
0.0237798
0.026304
0.000289546
0.00050541
0.000938278
0.00141755
0.00196932
0.00259539
0.00329758
0.00407637
0.00493061
0.00585742
0.00685248
0.00791032
0.00902491
0.0101903
0.0114016
0.0126555
0.0139515
0.0152931
0.0166904
0.0181635
0.0197509
0.0215287
0.0236388
0.026137
0.000289426
0.00050466
0.000936022
0.00141311
0.00196191
0.00258433
0.00328225
0.00405624
0.00490529
0.00582677
0.00681649
0.0078691
0.00897873
0.0101396
0.0113467
0.0125968
0.013889
0.0152267
0.0166192
0.0180856
0.0196625
0.0214223
0.0235046
0.0259879
0.000289307
0.000503922
0.000933842
0.00140878
0.00195474
0.00257359
0.00326732
0.00403666
0.00488067
0.0057969
0.00678131
0.0078288
0.00893359
0.0100899
0.0112929
0.0125391
0.0138277
0.0151615
0.0165493
0.0180092
0.0195763
0.0213195
0.0233734
0.0258261
0.000289186
0.000503224
0.000931722
0.00140461
0.00194776
0.00256316
0.00325284
0.00401758
0.00485669
0.00576777
0.00674701
0.00778945
0.00888942
0.0100413
0.0112401
0.0124825
0.0137674
0.0150973
0.0164806
0.0179344
0.0194921
0.0212196
0.0232458
0.0256716
0.000289059
0.000502524
0.000929655
0.00140054
0.00194099
0.00255302
0.00323875
0.00399904
0.0048333
0.00573935
0.00671352
0.00775095
0.00884616
0.00999363
0.0111884
0.012427
0.0137081
0.0150343
0.0164131
0.017861
0.01941
0.0211223
0.0231209
0.0255148
0.000288933
0.000501841
0.000927646
0.00139659
0.00193441
0.00254317
0.00322502
0.00398098
0.00481054
0.00571163
0.00668077
0.0077133
0.00880384
0.00994688
0.0111376
0.0123724
0.01365
0.0149723
0.0163468
0.0177891
0.0193296
0.021028
0.0230013
0.0253759
0.000288795
0.00050119
0.000925689
0.00139276
0.00192801
0.00253357
0.00321169
0.00396339
0.00478831
0.00568458
0.00664883
0.00767651
0.00876238
0.00990112
0.0110878
0.0123188
0.0135927
0.0149114
0.0162817
0.0177186
0.0192511
0.020936
0.0228845
0.0252274
0.00028867
0.000500549
0.0009238
0.00138901
0.00192179
0.00252427
0.00319869
0.00394626
0.00476666
0.00565818
0.00661757
0.00764049
0.00872181
0.00985618
0.0110389
0.0122662
0.0135366
0.0148516
0.0162177
0.0176493
0.0191744
0.0208467
0.0227732
0.025098
0.000288543
0.000499945
0.000921955
0.00138539
0.00191575
0.00251519
0.00318605
0.00392955
0.00474556
0.00563241
0.00658706
0.00760527
0.00868204
0.00981217
0.0109909
0.0122145
0.0134813
0.0147927
0.0161549
0.0175815
0.0190993
0.0207597
0.0226644
0.0249592
0.00028841
0.000499331
0.00092015
0.00138186
0.00190986
0.00250636
0.00317375
0.00391328
0.00472494
0.00560723
0.00655724
0.00757081
0.00864309
0.00976902
0.0109438
0.0121637
0.013427
0.0147349
0.0160932
0.017515
0.0190258
0.0206748
0.0225596
0.0248306
0.000288274
0.00049874
0.000918376
0.00137841