/*--------------------------------*- C++ -*----------------------------------*\
| =========                 |                                                 |
| \\      /  F ield         | OpenFOAM: The Open Source CFD Toolbox           |
|  \\    /   O peration     | Version:  2.3.0                                 |
|   \\  /    A nd           | Web:      www.OpenFOAM.org                      |
|    \\/     M anipulation  |                                                 |
\*---------------------------------------------------------------------------*/
FoamFile
{
    version     2.0;
    format      ascii;
    class       volScalarField;
    location    "3000";
    object      nut;
}
// * * * * * * * * * * * * * * * * * * * * * * * * * * * * * * * * * * * * * //

dimensions      [0 2 -1 0 0 0 0];

internalField   nonuniform List<scalar> 
6710
(
0.0563667
0.0506923
0.0458524
0.0419964
0.0390507
0.0362096
0.0333796
0.030647
0.0280109
0.0254392
0.0229601
0.0210095
0.0640902
0.059878
0.0562125
0.0530768
0.0504892
0.0484432
0.0469097
0.0458414
0.0451816
0.0448733
0.0448639
0.0451032
0.0706301
0.0676104
0.0650452
0.0629038
0.0611696
0.05982
0.058826
0.0581514
0.0577587
0.0576084
0.057663
0.0578868
0.076117
0.0739053
0.072057
0.0705274
0.069294
0.0683354
0.0676277
0.0671472
0.0668699
0.0667727
0.0668338
0.0670317
0.080657
0.0790225
0.0776505
0.0765096
0.075584
0.0748583
0.0743182
0.0739482
0.0737349
0.0736649
0.0737254
0.0739037
0.0844206
0.0832049
0.0821573
0.0812737
0.0805473
0.0799709
0.0795362
0.0792352
0.0790604
0.079005
0.0790617
0.0792233
0.0875987
0.0866562
0.08583
0.0851221
0.0845304
0.0840538
0.0836903
0.0834358
0.083287
0.0832406
0.0832934
0.0834416
0.0902736
0.0895253
0.0888561
0.0882736
0.0877767
0.087369
0.0870547
0.0868337
0.0867044
0.0866646
0.0867133
0.0868505
0.0925285
0.0919333
0.0913742
0.0908866
0.0904605
0.0900993
0.0898189
0.0896226
0.0895092
0.0894761
0.0895197
0.0896474
0.0944464
0.0939807
0.0934863
0.0930768
0.0927117
0.0923763
0.0921176
0.0919389
0.0918384
0.0918171
0.0918502
0.0919689
0.0225902
0.0263799
0.0288344
0.0313753
0.0344273
0.0380993
0.0423815
0.0472202
0.0525462
0.0582822
0.0643444
0.0706885
0.0455081
0.0461247
0.0470758
0.0484165
0.0501959
0.0524491
0.0551935
0.0584258
0.062122
0.0662395
0.070726
0.0755641
0.0582403
0.0587503
0.0594821
0.0604674
0.0617364
0.0633177
0.0652346
0.0675027
0.0701275
0.0731029
0.0764135
0.0800704
0.0673453
0.0677901
0.0684015
0.0691978
0.0701966
0.0714154
0.0728705
0.0745752
0.07654
0.0787698
0.0812659
0.0840524
0.0741873
0.0745855
0.0751186
0.075796
0.0766273
0.077622
0.0787891
0.080137
0.0816734
0.0834048
0.0853376
0.0874982
0.0794825
0.0798448
0.0803214
0.0809168
0.0816348
0.0824795
0.0834546
0.0845637
0.0858106
0.087199
0.0887345
0.0904466
0.0836812
0.084015
0.084449
0.0849841
0.0856208
0.0863588
0.0871981
0.0881389
0.0891819
0.0903272
0.0915765
0.0929471
0.0870739
0.0873846
0.0877854
0.0882748
0.0888504
0.0895088
0.0902483
0.0910655
0.0919598
0.0929276
0.0939698
0.0950977
0.0898574
0.0901494
0.0905234
0.0909767
0.0915059
0.0921014
0.0927657
0.0934874
0.0942713
0.0951042
0.0959913
0.0969376
0.0921666
0.0924427
0.0927935
0.0932146
0.0937055
0.0942452
0.0948535
0.0954955
0.0961991
0.0969273
0.0976967
0.0985017
0.0683916
0.058181
0.0497023
0.0424631
0.0360528
0.0303497
0.0255651
0.0220166
0.0190406
0.0160695
0.0128961
0.00928855
0.0731278
0.0653798
0.0592316
0.0544657
0.0501897
0.0459237
0.0415605
0.0371265
0.0326161
0.0279536
0.0230341
0.0177425
0.0787566
0.0734382
0.0694051
0.0654115
0.0612555
0.0568867
0.0522793
0.0474004
0.0422136
0.0366761
0.0307401
0.0243592
0.0847321
0.0810951
0.0774889
0.0736334
0.0694725
0.0649873
0.0601546
0.0549413
0.0493067
0.0432039
0.0365838
0.0294029
0.0905287
0.087274
0.083809
0.0800146
0.0758499
0.0712878
0.0662962
0.0608362
0.0548613
0.0483172
0.0411488
0.0332992
0.095261
0.0921945
0.0888323
0.0850999
0.0809523
0.0763503
0.071251
0.0656059
0.0593588
0.0524485
0.0448091
0.0363752
0.0990581
0.0961391
0.0928832
0.0892258
0.0851155
0.080502
0.075331
0.0695432
0.0630736
0.0558509
0.0478004
0.0388509
0.1021
0.0993251
0.0961835
0.0926125
0.0885538
0.0839499
0.0787341
0.0728355
0.0661806
0.0586877
0.0502755
0.0408676
0.104545
0.101912
0.0988888
0.095412
0.0914105
0.0868334
0.0815949
0.0756126
0.0688017
0.0610738
0.0523372
0.0425151
0.106528
0.104015
0.101106
0.097739
0.0937838
0.0892487
0.0840092
0.0779711
0.0710312
0.0630971
0.0540586
0.0438226
0.005144
0.00200296
0.00186504
0.00248515
0.0032647
0.00440259
0.0060464
0.00814107
0.0107548
0.0139665
0.0178625
0.0225493
0.0118002
0.00556017
0.00266988
0.00314051
0.0041373
0.005468
0.00721836
0.00935034
0.0119244
0.0150043
0.0186662
0.0229893
0.0172941
0.00945207
0.00404992
0.00391422
0.00511454
0.00661101
0.00845149
0.0106117
0.0131386
0.0160829
0.0195041
0.0234552
0.0214508
0.0126249
0.00565691
0.00477203
0.00612178
0.00775389
0.00966852
0.0118474
0.0143233
0.017138
0.020351
0.0240814
0.0245925
0.0150235
0.00716835
0.00567158
0.007111
0.00886047
0.0108361
0.0130256
0.0154531
0.0181557
0.0211876
0.0246064
0.0270071
0.0168288
0.00846061
0.00656866
0.00806276
0.00991185
0.0119381
0.0141336
0.0165175
0.0191192
0.0219723
0.0250898
0.0288982
0.0182079
0.00953251
0.00743312
0.00896925
0.0108996
0.012968
0.0151673
0.0175107
0.0200162
0.0226973
0.0255548
0.0303997
0.0192805
0.0104227
0.00824757
0.00982309
0.0118196
0.0139239
0.0161252
0.0184293
0.0208422
0.0233656
0.0260012
0.031589
0.0201261
0.0111946
0.00900261
0.0106137
0.0126734
0.0148106
0.0170096
0.0192732
0.0215991
0.0239808
0.0264217
0.0323919
0.0204677
0.0115275
0.00969768
0.0114175
0.0134712
0.0155787
0.0177719
0.0200258
0.0222755
0.0245193
0.0268016
0.000998452
0.00344878
0.00747668
0.0120016
0.016664
0.0213601
0.0260078
0.0304949
0.0347813
0.0392045
0.0439625
0.0495497
0.000747829
0.00216816
0.00545632
0.00913406
0.0129427
0.0169675
0.0212547
0.0257307
0.0302846
0.0349038
0.0397018
0.0450713
0.00045096
0.00137443
0.00349466
0.00673476
0.0112806
0.015698
0.0199646
0.0241773
0.0283923
0.0326611
0.037107
0.0420371
0.00047701
0.00112582
0.00287411
0.00557215
0.00955509
0.0143637
0.0191561
0.0237726
0.0281082
0.0321604
0.0361075
0.0403573
0.000435535
0.000988059
0.00251401
0.00485255
0.00828125
0.0130599
0.0182071
0.0232955
0.0281313
0.0324901
0.0363144
0.0399745
0.00042815
0.000898073
0.00227494
0.0043929
0.00749873
0.0119096
0.0172169
0.0226521
0.0279719
0.0328852
0.0370714
0.0405606
0.000417291
0.000834521
0.002103
0.0040595
0.00692258
0.010991
0.0162894
0.0219596
0.0276437
0.0330755
0.0378502
0.0416356
0.000413395
0.000790361
0.00198093
0.00382098
0.00650819
0.0103233
0.015485
0.0212999
0.0272669
0.0331215
0.0384877
0.042904
0.000411903
0.000760082
0.00189559
0.00365291
0.00621317
0.00984227
0.0148315
0.0207278
0.0269191
0.033114
0.0389798
0.0440066
0.000413298
0.000739702
0.00183684
0.00353564
0.00600486
0.00949821
0.0143289
0.0202683
0.0266492
0.0331281
0.039402
0.0449989
0.000416257
0.000726135
0.00179676
0.00345434
0.00585773
0.00925062
0.0139493
0.0199098
0.0264597
0.0331858
0.0397895
0.045817
0.000420174
0.000717109
0.00176963
0.00339825
0.00575411
0.00907225
0.013665
0.0196326
0.026343
0.0333024
0.0401953
0.0465825
0.000424369
0.000710789
0.00175061
0.00335838
0.00567946
0.00894172
0.0134506
0.0194116
0.0262776
0.0334739
0.0406549
0.0474064
0.00042835
0.000705702
0.0017356
0.003327
0.00562088
0.00883928
0.0132808
0.0192195
0.0262273
0.0336582
0.041122
0.0482116
0.000431926
0.000701161
0.0017225
0.00329983
0.00557046
0.00875153
0.0131349
0.0190356
0.0261612
0.0338118
0.0415368
0.048913
0.000434994
0.000696769
0.00171029
0.00327495
0.00552508
0.00867383
0.0130073
0.0188631
0.0260895
0.0339588
0.0419658
0.0497155
0.000437504
0.000692271
0.00169805
0.00325025
0.0054806
0.00859868
0.0128853
0.0186885
0.0259885
0.0340578
0.0423168
0.0503263
0.000439434
0.000687568
0.00168546
0.00322517
0.00543596
0.0085242
0.0127661
0.0185135
0.0258628
0.0341234
0.0426485
0.050994
0.000440815
0.000682649
0.00167241
0.00319927
0.00539009
0.00844807
0.0126446
0.0183306
0.0256961
0.034123
0.0428968
0.0515284
0.00044169
0.000677561
0.00165893
0.00317277
0.0053436
0.00837167
0.0125239
0.0181481
0.0255017
0.0340655
0.0430741
0.0520107
0.000442176
0.000672441
0.00164525
0.00314588
0.00529656
0.00829466
0.012403
0.0179651
0.0252854
0.0339527
0.0431657
0.0523596
0.000442402
0.000667529
0.00163196
0.00311976
0.00525092
0.0082202
0.0122866
0.0177898
0.025066
0.033814
0.0432188
0.0526837
0.00044247
0.000662985
0.00161944
0.00309473
0.00520695
0.00814826
0.0121741
0.0176195
0.0248413
0.0336404
0.0432011
0.0528689
0.00044247
0.000659005
0.0016084
0.0030718
0.00516647
0.00808176
0.0120698
0.0174618
0.024629
0.0334665
0.0431768
0.0530754
0.000442469
0.000655549
0.00159881
0.00305132
0.00513003
0.00802138
0.0119743
0.0173161
0.0244277
0.03329
0.0431327
0.0532287
0.000442417
0.000652454
0.00159033
0.00303333
0.00509799
0.00796801
0.0118892
0.0171847
0.0242412
0.0331159
0.0430772
0.0533557
0.000442305
0.000649629
0.00158279
0.00301752
0.00507003
0.00792161
0.0118151
0.0170698
0.0240753
0.0329562
0.0430302
0.0534893
0.000442141
0.000646899
0.00157567
0.00300295
0.00504486
0.00788056
0.0117504
0.01697
0.0239308
0.0328161
0.0430023
0.0536556
0.000441894
0.00064412
0.00156855
0.00298866
0.0050207
0.00784224
0.0116912
0.0168805
0.0238015
0.0326877
0.042978
0.0538195
0.000441416
0.00064115
0.00156097
0.00297367
0.00499566
0.00780319
0.011633
0.0167953
0.0236816
0.0325664
0.042948
0.0539491
0.000440753
0.000638097
0.00155304
0.00295784
0.00496891
0.00776146
0.0115713
0.016707
0.0235609
0.0324438
0.0429118
0.0540611
0.000440005
0.000635005
0.0015449
0.00294154
0.00494095
0.00771714
0.0115046
0.0166112
0.0234309
0.0323108
0.0428768
0.054209
0.000439133
0.000631996
0.00153688
0.00292528
0.00491264
0.00767122
0.0114335
0.0165049
0.0232783
0.0321314
0.0427754
0.0542871
0.0004381
0.000628962
0.00152897
0.00290936
0.00488495
0.00762637
0.0113638
0.0163987
0.0231189
0.0319167
0.0425795
0.0541661
0.000436994
0.000625985
0.00152121
0.00289373
0.00485795
0.00758294
0.0112971
0.0162991
0.0229738
0.0317264
0.0424179
0.0541159
0.000435833
0.000623145
0.00151376
0.00287875
0.00483188
0.00754092
0.0112324
0.0162032
0.0228364
0.0315503
0.0422811
0.0541391
0.000434639
0.000620522
0.00150689
0.0028647
0.0048071
0.00750033
0.0111692
0.0161081
0.0226977
0.0313659
0.0421152
0.0540858
0.000433455
0.000618201
0.00150078
0.00285205
0.00478451
0.00746302
0.0111104
0.0160181
0.0225628
0.0311767
0.0419197
0.0539691
0.00043237
0.000616236
0.00149554
0.00284113
0.00476481
0.00743023
0.0110587
0.0159392
0.0224453
0.0310119
0.041747
0.0538695
0.000431363
0.00061477
0.00149145
0.00283218
0.00474812
0.00740172
0.0110127
0.0158684
0.0223405
0.030869
0.0416094
0.0538265
0.000430411
0.000613784
0.00148869
0.00282568
0.00473517
0.00737852
0.0109739
0.0158066
0.0222463
0.0307365
0.0414784
0.0537901
0.000429544
0.000613276
0.00148716
0.00282158
0.00472631
0.00736141
0.0109434
0.0157551
0.0221633
0.0306131
0.041344
0.0537256
0.000428738
0.000613162
0.00148678
0.00282
0.00472188
0.00735155
0.0109235
0.0157183
0.0220995
0.0305125
0.0412296
0.0536736
0.000427982
0.000613444
0.0014875
0.00282053
0.00472127
0.00734815
0.0109144
0.015698
0.0220591
0.0304416
0.0411441
0.0536389
0.000427256
0.000614103
0.00148913
0.00282275
0.00472346
0.00734961
0.0109138
0.0156925
0.0220433
0.0304094
0.0411089
0.0536365
0.000426607
0.000615207
0.0014917
0.00282655
0.004728
0.00735438
0.0109182
0.0156955
0.0220437
0.0304086
0.0411367
0.0537316
0.000425971
0.000616912
0.00149556
0.00283234
0.00473506
0.00736195
0.0109251
0.0157008
0.0220466
0.030414
0.0411904
0.0539402
0.000425325
0.000619243
0.00150097
0.0028406
0.00474538
0.00737316
0.0109351
0.0157064
0.0220435
0.0303986
0.0411864
0.0540089
0.000424681
0.000622315
0.00150823
0.00285224
0.00476086
0.00739123
0.0109532
0.0157201
0.0220462
0.030384
0.0411788
0.0541098
0.000424048
0.000626099
0.00151737
0.00286764
0.00478266
0.00741894
0.0109845
0.0157501
0.0220664
0.0303823
0.0411661
0.0541805
0.000423345
0.000630541
0.00152829
0.00288648
0.00481048
0.00745639
0.0110308
0.0158016
0.022115
0.0304144
0.0411803
0.0542536
0.000422545
0.000635607
0.00154082
0.00290836
0.00484352
0.00750262
0.0110913
0.0158753
0.0221971
0.0304948
0.0412576
0.0543892
0.00042168
0.000641339
0.00155495
0.00293306
0.00488103
0.00755565
0.0111625
0.0159666
0.0223084
0.0306225
0.0414095
0.054637
0.000420726
0.000648077
0.00157099
0.00296062
0.0049224
0.00761379
0.0112401
0.0160667
0.0224336
0.0307749
0.0415983
0.0548803
0.000419528
0.000655517
0.00158885
0.00299149
0.00496874
0.00767779
0.0113239
0.0161719
0.0225624
0.0309329
0.0418186
0.0553165
0.000418101
0.000664191
0.00160972
0.00302713
0.00502172
0.00775048
0.0114176
0.0162857
0.022692
0.0310704
0.0419602
0.0555911
0.000416488
0.000674012
0.00163335
0.00306706
0.00508201
0.00783456
0.0115267
0.016418
0.0228401
0.031218
0.0420845
0.0557694
0.000414546
0.00068475
0.00165924
0.00311176
0.00515079
0.00793196
0.011656
0.0165795
0.0230284
0.0314172
0.0422639
0.0559662
0.000412203
0.000696595
0.00168776
0.00316092
0.00522628
0.0080399
0.0118025
0.0167687
0.0232615
0.0316884
0.0425587
0.0563223
0.000409403
0.000709778
0.00171897
0.00321403
0.00530753
0.00815591
0.0119596
0.0169735
0.0235192
0.032002
0.0429292
0.0567905
0.000406032
0.000724406
0.00175336
0.00327252
0.00539628
0.0082806
0.0121254
0.0171849
0.0237806
0.0323197
0.0433203
0.0573582
0.000402096
0.000741153
0.00179214
0.00333805
0.00549458
0.00841683
0.012303
0.0174041
0.0240371
0.0326028
0.0436096
0.0576448
0.000397436
0.00075995
0.00183561
0.00341227
0.0056068
0.00857261
0.0125053
0.0176509
0.0243185
0.0328968
0.0438785
0.0578679
0.000391963
0.000781453
0.00188513
0.00349716
0.00573536
0.00875204
0.0127403
0.0179409
0.0246527
0.0332454
0.0441734
0.057954
0.000385564
0.000805947
0.00194091
0.00359276
0.00588091
0.00895692
0.0130114
0.0182812
0.0250585
0.0337046
0.0446689
0.0585079
0.000378126
0.000833614
0.00200304
0.0036997
0.00604389
0.00918604
0.0133145
0.0186614
0.0255113
0.034213
0.0451935
0.0589649
0.000369882
0.000865482
0.00207322
0.00381987
0.00622606
0.00944089
0.0136505
0.0190822
0.0260129
0.0347815
0.0458068
0.0596118
0.000361683
0.000902826
0.00215295
0.00395539
0.00643036
0.00972519
0.0140215
0.0195409
0.0265501
0.0353734
0.0464103
0.0601566
0.000354676
0.000947334
0.00224489
0.00411104
0.00666385
0.0100474
0.0144381
0.0200489
0.0271347
0.0360036
0.0470369
0.0607282
0.000349441
0.00100195
0.00235321
0.00429312
0.00693497
0.0104186
0.0149136
0.0206214
0.0277812
0.0366788
0.0476626
0.0611631
0.000332131
0.00106775
0.00248435
0.00451328
0.00726121
0.0108614
0.0154745
0.0212888
0.0285255
0.0374495
0.0483897
0.0617722
0.000266761
0.00114069
0.00264991
0.00479289
0.00767295
0.0114137
0.0161629
0.0220922
0.0294024
0.038333
0.0491853
0.0623503
0.000227468
0.00123457
0.00287564
0.00518491
0.00825041
0.0121799
0.017098
0.0231519
0.0305259
0.0394296
0.0501525
0.0630788
0.000259453
0.00142638
0.00329051
0.00587771
0.00923808
0.0134574
0.0186251
0.0248405
0.0322335
0.0410005
0.0514635
0.0640042
0.000370657
0.00211355
0.00461532
0.0078018
0.0116716
0.0162838
0.0217244
0.0280597
0.0353633
0.0437911
0.0536585
0.0654867
0.00105325
0.00431778
0.00846202
0.013265
0.0186203
0.0244664
0.0307414
0.0373826
0.0443219
0.0514866
0.058817
0.0662843
1.7274e-06
0.00204247
0.00490874
0.00870922
0.0133589
0.0187983
0.0249541
0.0317219
0.0389885
0.0466308
0.0545272
0.0625731
0.000568427
0.00178909
0.00412211
0.00726421
0.0112423
0.0160632
0.0217127
0.0281395
0.0352556
0.0429378
0.0510382
0.05942
0.000635912
0.00157687
0.00360067
0.00634629
0.00987292
0.0142293
0.0194445
0.025513
0.0323842
0.0399583
0.0480891
0.0566045
0.000644736
0.00137456
0.00317079
0.00563358
0.00883385
0.0128385
0.0177014
0.0234479
0.0300603
0.0374671
0.045538
0.0540952
0.000651568
0.00122611
0.00285102
0.00509768
0.00804356
0.0117642
0.0163287
0.021784
0.0281395
0.0353517
0.0433128
0.0518587
0.000654899
0.00111779
0.00260845
0.00468318
0.00742312
0.0109077
0.0152162
0.020411
0.0265227
0.0335322
0.0413571
0.0498521
0.000656739
0.00103361
0.00241448
0.00434756
0.00691642
0.0102017
0.0142888
0.0192519
0.0251373
0.0319473
0.0396226
0.0480375
0.000658438
0.000965797
0.00225486
0.00406873
0.00649284
0.00960696
0.0135012
0.0182571
0.0239342
0.0305518
0.0380717
0.0463865
0.000659994
0.000910124
0.00212114
0.00383322
0.00613305
0.0090987
0.0128228
0.0173931
0.0228793
0.0293164
0.0366876
0.0449228
0.000661323
0.000863567
0.00200713
0.00363084
0.00582275
0.00865808
0.0122313
0.0166348
0.0219462
0.0282133
0.0354349
0.0435428
0.000662452
0.000823982
0.00190856
0.00345491
0.00555146
0.00827134
0.0117097
0.0159621
0.0211127
0.0272187
0.0342916
0.0422739
0.00066346
0.000790002
0.00182267
0.0033011
0.00531184
0.00792855
0.0112455
0.0153605
0.0203625
0.0263174
0.0332491
0.0411258
0.000664417
0.00076129
0.00174713
0.00316505
0.0050983
0.00762207
0.0108289
0.0148183
0.019683
0.0254958
0.0322908
0.040043
0.000666246
0.000744285
0.00168005
0.00304349
0.00490649
0.007346
0.0104525
0.0143264
0.0190638
0.0247431
0.0314077
0.0390461
0.000669764
0.000742097
0.00162003
0.00293404
0.00473302
0.00709576
0.0101105
0.0138782
0.0184979
0.0240543
0.030605
0.0381755
0.000674302
0.000747079
0.00156608
0.00283485
0.00457516
0.00686762
0.00979795
0.0134676
0.0179778
0.0234177
0.0298479
0.0372614
0.000678921
0.000753315
0.0015174
0.00274447
0.00443075
0.00665857
0.00951104
0.0130899
0.017498
0.0228285
0.0291503
0.0364986
0.000683143
0.000758697
0.00147325
0.00266167
0.0042979
0.00646617
0.00924658
0.0127408
0.0170529
0.0222784
0.0284862
0.0356788
0.000686873
0.000762903
0.00143309
0.00258574
0.00417602
0.0062884
0.00900175
0.0124168
0.0166385
0.021764
0.0278668
0.0349822
0.000690164
0.000766073
0.00139647
0.00251597
0.00406388
0.00612357
0.00877427
0.0121152
0.0162516
0.0212831
0.0272903
0.0343241
0.000693073
0.000768405
0.00136315
0.0024517
0.00396016
0.00597028
0.00856225
0.0118335
0.01589
0.020834
0.0267543
0.03372
0.000695682
0.00077028
0.0013343
0.00239227
0.00386376
0.00582722
0.00836414
0.0115701
0.0155516
0.020414
0.0262518
0.0331359
0.000698186
0.000772866
0.00131579
0.00233732
0.00377384
0.00569335
0.00817855
0.0113231
0.0152342
0.0200195
0.0257766
0.0325744
0.000700809
0.000777402
0.00131062
0.00228669
0.00368975
0.00556778
0.00800435
0.0110912
0.0149359
0.0196475
0.025325
0.0320348
0.000703652
0.000783906
0.00131408
0.00224015
0.00361099
0.00544982
0.00784055
0.0108729
0.0146544
0.0192948
0.0248926
0.0315102
0.000706643
0.000791477
0.00132065
0.0021973
0.00353709
0.00533869
0.00768619
0.010667
0.0143883
0.0189604
0.0244845
0.0310417
0.000709638
0.00079909
0.00132721
0.00215762
0.00346764
0.00523389
0.00754047
0.0104723
0.0141364
0.0186437
0.0240981
0.0305838
0.000712531
0.000806164
0.0013325
0.00212064
0.00340228
0.00513507
0.0074026
0.010288
0.0138977
0.018343
0.0237289
0.0301339
0.000715233
0.000812407
0.00133632
0.00208611
0.00334079
0.00504223
0.00727216
0.0101133
0.0136707
0.0180557
0.023372
0.0296888
0.000717772
0.00081796
0.00133876
0.00205381
0.00328294
0.00495462
0.00714837
0.00994716
0.0134547
0.0177821
0.023036
0.0293132
0.000720218
0.00082276
0.00133992
0.00202345
0.00322842
0.00487181
0.00703077
0.00978909
0.0132488
0.0175214
0.0227154
0.0289218
0.000722496
0.000826935
0.00134006
0.00199491
0.00317691
0.00479325
0.0069188
0.00963847
0.0130525
0.0172726
0.0224073
0.0285425
0.000724607
0.000830531
0.00133934
0.00196805
0.00312807
0.00471854
0.00681218
0.00949479
0.0128649
0.0170333
0.0221064
0.0281582
0.000726618
0.000833806
0.00133803
0.00194313
0.0030818
0.00464748
0.00671038
0.00935738
0.0126853
0.016805
0.0218274
0.0278673
0.000728624
0.00083676
0.00133644
0.00192123
0.00303792
0.00457971
0.00661304
0.00922596
0.0125133
0.0165855
0.021551
0.027484
0.000730554
0.000839522
0.00133537
0.0019049
0.00299638
0.00451508
0.00652001
0.0091002
0.0123486
0.0163758
0.0212958
0.0272406
0.000732437
0.000842444
0.0013359
0.00189637
0.00295739
0.0044534
0.00643103
0.00897982
0.0121911
0.0161758
0.02105
0.0269195
0.000734375
0.00084574
0.00133865
0.00189501
0.002921
0.0043946
0.00634589
0.00886463
0.0120403
0.0159845
0.020814
0.0266435
0.000736437
0.000849632
0.0013436
0.0018983
0.00288712
0.00433846
0.00626431
0.00875438
0.0118963
0.0158014
0.0205859
0.0263544
0.000738575
0.000853916
0.0013502
0.00190388
0.00285548
0.00428498
0.00618672
0.00864897
0.0117583
0.0156255
0.0203663
0.026083
0.000740785
0.000858639
0.00135779
0.0019102
0.00282597
0.00423417
0.00611286
0.00854786
0.0116259
0.0154564
0.0201537
0.0258164
0.000743147
0.000863478
0.00136568
0.00191632
0.00279832
0.00418585
0.00604238
0.00845109
0.011499
0.0152937
0.0199486
0.0255649
0.000745534
0.000868306
0.00137348
0.00192181
0.00277222
0.00413981
0.00597505
0.0083584
0.0113769
0.0151371
0.0197528
0.0253337
0.000747936
0.000872974
0.00138093
0.00192655
0.00274761
0.00409604
0.00591085
0.00826933
0.0112595
0.0149864
0.0195645
0.0251024
0.000750301
0.000877402
0.00138783
0.00193048
0.00272426
0.00405411
0.00584902
0.00818367
0.0111467
0.0148416
0.0193818
0.0248692
0.000752694
0.000881633
0.00139414
0.00193355
0.00270217
0.00401433
0.00579005
0.00810167
0.0110383
0.0147021
0.0192075
0.0246711
0.000755063
0.000885561
0.0013999
0.00193591
0.00268104
0.00397609
0.00573333
0.00802268
0.0109342
0.0145685
0.0190412
0.0244685
0.00075745
0.000889311
0.00140504
0.00193764
0.00266119
0.00393979
0.00567926
0.00794711
0.0108342
0.0144406
0.0188822
0.0242748
0.000759939
0.000892864
0.00140972
0.00193878
0.00264244
0.00390532
0.00562767
0.00787466
0.0107385
0.0143178
0.0187272
0.0240728
0.000762425
0.000896323
0.0014141
0.00193957
0.00262493
0.00387219
0.00557801
0.0078053
0.010647
0.0142001
0.0185783
0.0238912
0.00076491
0.000899483
0.00141797
0.00194013
0.00260945
0.00384085
0.00553087
0.00773914
0.0105593
0.0140871
0.0184361
0.0237188
0.000767484
0.00090256
0.00142161
0.00194076
0.00259661
0.00381131
0.00548599
0.00767573
0.0104754
0.0139791
0.0183003
0.0235531
0.000770139
0.000905711
0.00142532
0.00194197
0.00258735
0.00378322
0.00544291
0.00761524
0.0103954
0.013876
0.0181693
0.0233827
0.000772797
0.000908636
0.00142898
0.00194415
0.00258249
0.00375726
0.00540234
0.00755783
0.0103191
0.0137771
0.0180443
0.0232286
0.000775629
0.000911823
0.00143306
0.00194755
0.00258134
0.00373289
0.00536363
0.00750319
0.0102464
0.0136829
0.0179222
0.0230605
0.00077864
0.000915052
0.00143756
0.00195238
0.00258366
0.00371079
0.00532745
0.00745194
0.0101773
0.0135931
0.0178083
0.0229396
0.000781769
0.00091851
0.00144269
0.00195848
0.00258824
0.00369072
0.00529363
0.00740366
0.010112
0.0135083
0.017702
0.0228134
0.00078504
0.000922204
0.00144852
0.00196567
0.00259412
0.00367222
0.00526186
0.0073584
0.0100507
0.0134287
0.0176017
0.0226822
0.000788485
0.000925993
0.00145462
0.00197358
0.00260103
0.00365578
0.00523261
0.00731626
0.00999314
0.0133539
0.0175059
0.0225586
0.000792266
0.000930029
0.00146119
0.00198197
0.0026083
0.00364117
0.00520578
0.00727721
0.00993974
0.0132846
0.017421
0.022482
0.000796249
0.000934309
0.00146819
0.00199073
0.00261565
0.00362805
0.00518117
0.00724144
0.00989081
0.0132209
0.0173393
0.0223509
0.000800435
0.000938563
0.00147522
0.00199961
0.00262325
0.0036169
0.00515939
0.00720925
0.0098463
0.0131634
0.0172717
0.0223211
0.000804959
0.000942982
0.00148239
0.00200845
0.00263063
0.00360732
0.00514006
0.00718053
0.00980693
0.013113
0.0172086
0.0221977
0.000809807
0.000947483
0.00148957
0.00201731
0.00263821
0.00359983
0.00512387
0.00715614
0.00977292
0.0130689
0.0171501
0.0221211
0.000814994
0.000952067
0.00149682
0.00202608
0.00264579
0.00359446
0.00511106
0.00713612
0.00974469
0.0130317
0.0171017
0.0220678
0.000820669
0.000956982
0.00150426
0.0020349
0.00265348
0.00359116
0.00510155
0.00712096
0.00972296
0.0130022
0.0170582
0.021968
0.000826942
0.000961805
0.00151149
0.00204369
0.0026616
0.00359067
0.00509641
0.00711164
0.00970836
0.0129807
0.0170239
0.0219338
0.000833913
0.000966865
0.00151885
0.0020525
0.00267008
0.00359332
0.00509616
0.00710878
0.00970196
0.012969
0.0170041
0.0219187
0.000841738
0.000972356
0.00152664
0.00206167
0.00267925
0.00359958
0.00510165
0.00711388
0.00970569
0.0129697
0.0170013
0.0219169
0.000850646
0.000977814
0.0015343
0.00207109
0.00268957
0.00361069
0.00511455
0.00712868
0.00972138
0.0129852
0.0170153
0.0219193
0.000861294
0.000985006
0.00154374
0.00208198
0.00270195
0.00362951
0.00513829
0.00715714
0.00975366
0.0130198
0.0170509
0.0219694
0.000872138
0.000986274
0.00154862
0.00209013
0.00271345
0.003651
0.00516901
0.00719702
0.00980168
0.0130747
0.0171121
0.0220327
0.000920655
0.00102956
0.00158071
0.00212091
0.00274912
0.00372123
0.00525531
0.00729412
0.00990541
0.01318
0.0172151
0.0221262
0.000419432
0.00083645
0.00151487
0.00206022
0.00268191
0.00365373
0.00519655
0.00725096
0.0098853
0.0131933
0.0172694
0.0222099
0.138402
0.11164
0.121325
0.140085
0.104874
0.139273
0.10067
0.164647
0.049288
0.135591
0.137878
0.129932
0.133127
0.0476219
0.139171
0.0818867
0.13266
0.0510658
0.0721313
0.0539375
0.0742578
0.137076
0.0974383
0.118612
0.19132
0.139804
0.0360875
0.363948
0.106936
0.121204
0.120464
0.105874
0.108524
0.13539
0.128639
0.0764993
0.09248
0.0582328
0.162243
0.126215
0.138103
0.116292
0.122534
0.11951
0.086914
0.138362
0.139255
0.127989
0.140055
0.140537
0.165422
0.0566009
0.131009
0.132153
0.136585
0.0738631
0.138504
0.135281
0.083464
0.133735
0.131207
0.123581
0.0578729
0.139582
0.107087
0.136406
0.13344
0.137812
0.138249
0.110578
0.120539
0.100758
0.0905603
0.138234
0.141027
0.10331
0.111237
0.124655
0.137512
0.1401
0.129825
0.107663
0.139056
0.130114
0.0546505
0.114548
0.136782
0.141035
0.135263
0.13778
0.0810446
0.103806
0.135893
0.105022
0.111403
0.142566
0.0647124
0.111863
0.140086
0.0673449
0.106492
0.12525
0.110736
0.109996
0.137109
0.0959757
0.138538
0.134843
0.137447
0.173023
0.139999
0.106503
0.067258
0.0383331
0.115012
0.139968
0.082679
0.13443
0.0984108
0.108658
0.124736
0.124805
0.0455023
0.132148
0.114156
0.134025
0.140112
0.0966617
0.0656409
0.135503
0.141326
0.104654
0.107527
0.119484
0.0623976
0.108165
0.0800384
0.137577
0.11026
0.138559
0.0746805
0.0978165
0.0952262
0.130796
0.137818
0.0961648
0.136483
0.136848
0.134787
0.0723746
0.100403
0.139078
0.100417
0.13422
0.0345312
0.133499
0.137633
0.0356007
0.121591
0.137759
0.100555
0.0757321
0.138661
0.0895852
0.120732
0.140009
0.137939
0.0496572
0.073834
0.114
0.0891438
0.137744
0.11288
0.134854
0.13814
0.0898884
0.100215
0.123077
0.129252
0.262766
0.100754
0.130667
0.0853387
0.125618
0.140025
0.13881
0.148456
0.0185724
0.0906885
0.129219
0.0538948
0.052092
0.125925
0.129133
0.12106
0.106606
0.134691
0.0975997
0.0537392
0.139673
0.128267
0.150713
0.133508
0.107629
0.133129
0.122155
0.138948
0.089988
0.133353
0.138927
0.113703
0.0875087
0.063443
0.108674
0.122258
0.137942
0.128887
0.0827803
0.0777286
0.125633
0.0822314
0.124938
0.17879
0.139447
0.136292
0.0940095
0.12644
0.0477713
0.18742
0.141945
0.136453
0.04403
0.104785
0.0495931
0.0555207
0.0511555
0.129055
0.135987
0.165981
0.07758
0.110686
0.0927533
0.0910586
0.136671
0.0713536
0.0994967
0.0602998
0.0545963
0.139962
0.268529
0.137899
0.122876
0.0935859
0.139167
0.140104
0.0793565
0.063363
0.116851
0.138722
0.0699292
0.137583
0.0668458
0.0512538
0.141613
0.040332
0.121071
0.0917387
0.131373
0.0652852
0.0778003
0.0907237
0.134121
0.13627
0.0991925
0.140103
0.0804269
0.139607
0.0278779
0.120128
0.069303
0.0327197
0.0484105
0.138924
0.0980883
0.140028
0.148506
0.139913
0.0810457
0.0922027
0.0905488
0.206483
0.139983
0.0943106
0.123248
0.129924
0.11518
0.10974
0.138439
0.0558818
0.123277
0.122706
0.0900121
0.138797
0.109416
0.137931
0.139732
0.0849151
0.131353
0.110714
0.0928311
0.0408313
0.085087
0.109936
0.135438
0.120918
0.0917773
0.0905662
0.0997254
0.136126
0.111026
0.142863
0.113456
0.0722292
0.138495
0.0938848
0.136529
0.115931
0.109312
0.129576
0.120657
0.1317
0.0569524
0.340323
0.0577604
0.134934
0.116594
0.136919
0.140009
0.16285
0.119227
0.031727
0.0901697
0.0760569
0.114033
0.120299
0.137393
0.0659802
0.157103
0.0906093
0.103759
0.0907005
0.134714
0.0649219
0.0574041
0.133862
0.0661533
0.11535
0.125155
0.136161
0.0939406
0.0652618
0.138697
0.187056
0.129841
0.0969308
0.155566
0.137668
0.12941
0.139769
0.0338622
0.134322
0.123865
0.13963
0.120413
0.0700363
0.335361
0.134715
0.134087
0.104208
0.0937801
0.0876264
0.0880135
0.132866
0.056622
0.114812
0.0868077
0.115358
0.0530623
0.139396
0.0604016
0.0890332
0.103939
0.154783
0.130022
0.138998
0.106278
0.150827
0.100364
0.134916
0.10571
0.138037
0.136969
0.13795
0.0908743
0.123377
0.0783068
0.14386
0.0443984
0.156439
0.133062
0.350751
0.0819255
0.128614
0.154666
0.102292
0.0799022
0.0544908
0.0655524
0.0376369
0.0963872
0.125563
0.0301247
0.0353126
0.0655933
0.123867
0.134662
0.039128
0.109527
0.137685
0.0919702
0.0819315
0.129491
0.130229
0.138932
0.113139
0.134746
0.0782857
0.137542
0.136622
0.0959423
0.123363
0.0748822
0.137386
0.133144
0.130179
0.140328
0.139243
0.101132
0.0906501
0.051055
0.0888167
0.103992
0.108377
0.135632
0.121712
0.136005
0.346228
0.0430598
0.147281
0.131853
0.0578
0.136217
0.138396
0.143937
0.138282
0.151038
0.132198
0.0866634
0.322347
0.0274028
0.137698
0.158164
0.101601
0.13429
0.136355
0.123405
0.306524
0.136244
0.141384
0.123503
0.138045
0.0874637
0.117957
0.11757
0.0655592
0.11546
0.101228
0.0665671
0.117635
0.140101
0.137239
0.137338
0.128022
0.136047
0.149672
0.150019
0.135997
0.135583
0.0501048
0.117726
0.11543
0.137369
0.119351
0.0990881
0.13266
0.112422
0.0558627
0.0871786
0.0315724
0.0869858
0.109727
0.139127
0.129989
0.115012
0.155791
0.0453391
0.0852737
0.0654903
0.139831
0.0295143
0.0899415
0.0611809
0.139329
0.136458
0.132042
0.13709
0.0910968
0.137158
0.0315944
0.0418942
0.137876
0.0703246
0.138473
0.139863
0.103528
0.139971
0.120427
0.10953
0.0594878
0.0276519
0.111611
0.148361
0.0719378
0.143299
0.140075
0.111742
0.202631
0.13617
0.131254
0.0643245
0.0678573
0.110854
0.0439826
0.134171
0.13806
0.123126
0.105685
0.0415803
0.119991
0.127758
0.136972
0.0848207
0.0722281
0.128089
0.13722
0.112497
0.10606
0.124645
0.139638
0.138621
0.135167
0.136205
0.136325
0.127846
0.139782