# Forces     
# CofR       : (0.000000e+00 0.000000e+00 0.000000e+00)
# Time       forces(pressure viscous porous) moment(pressure viscous porous)
5.000000e+00	((-1.657795e+02 -7.799308e+02 3.277336e-18) (4.408057e-01 -8.898418e-02 3.351368e-20) (0.000000e+00 0.000000e+00 0.000000e+00)) ((3.899654e+01 -8.288974e+00 -2.076902e+02) (4.449209e-03 2.204028e-02 1.158314e-03) (0.000000e+00 0.000000e+00 0.000000e+00))
1.000000e+01	((-7.219149e+01 -3.396341e+02 2.006806e-18) (4.041342e-01 -1.441304e-01 -8.338170e-21) (0.000000e+00 0.000000e+00 0.000000e+00)) ((1.698171e+01 -3.609575e+00 -9.813073e+01) (7.206522e-03 2.020671e-02 -1.481081e-02) (0.000000e+00 0.000000e+00 0.000000e+00))
1.500000e+01	((4.287089e+00 2.016920e+01 3.821780e-19) (3.864110e-01 -1.150644e-01 -1.890581e-20) (0.000000e+00 0.000000e+00 0.000000e+00)) ((-1.008460e+00 2.143544e-01 2.865346e+00) (5.753218e-03 1.932055e-02 -8.574587e-03) (0.000000e+00 0.000000e+00 0.000000e+00))
2.000000e+01	((9.269134e+00 4.360785e+01 -3.976693e-19) (3.647694e-01 -8.331527e-02 5.614129e-21) (0.000000e+00 0.000000e+00 0.000000e+00)) ((-2.180392e+00 4.634567e-01 8.732985e+00) (4.165763e-03 1.823847e-02 -1.684979e-03) (0.000000e+00 0.000000e+00 0.000000e+00))
2.500000e+01	((2.808401e+00 1.321249e+01 -1.443194e-18) (3.409512e-01 -7.103827e-02 6.113940e-20) (0.000000e+00 0.000000e+00 0.000000e+00)) ((-6.606244e-01 1.404201e-01 -1.479117e+00) (3.551913e-03 1.704756e-02 8.879888e-05) (0.000000e+00 0.000000e+00 0.000000e+00))
3.000000e+01	((4.138564e+00 1.947042e+01 -1.891178e-18) (3.163541e-01 -6.574085e-02 8.826970e-20) (0.000000e+00 0.000000e+00 0.000000e+00)) ((-9.735211e-01 2.069282e-01 5.248027e-01) (3.287042e-03 1.581771e-02 1.149916e-04) (0.000000e+00 0.000000e+00 0.000000e+00))
3.500000e+01	((5.061109e+00 2.381066e+01 -2.322205e-18) (2.929754e-01 -6.130406e-02 1.130257e-19) (0.000000e+00 0.000000e+00 0.000000e+00)) ((-1.190533e+00 2.530554e-01 2.013629e+00) (3.065203e-03 1.464877e-02 1.654822e-05) (0.000000e+00 0.000000e+00 0.000000e+00))
4.000000e+01	((4.675866e+00 2.199823e+01 -2.585431e-18) (2.720775e-01 -5.725342e-02 1.287764e-19) (0.000000e+00 0.000000e+00 0.000000e+00)) ((-1.099912e+00 2.337933e-01 1.099098e+00) (2.862671e-03 1.360388e-02 -5.718527e-05) (0.000000e+00 0.000000e+00 0.000000e+00))
4.500000e+01	((4.804958e+00 2.260556e+01 -2.629750e-18) (2.550626e-01 -5.387559e-02 1.331905e-19) (0.000000e+00 0.000000e+00 0.000000e+00)) ((-1.130278e+00 2.402479e-01 1.011493e+00) (2.693780e-03 1.275313e-02 -9.009159e-05) (0.000000e+00 0.000000e+00 0.000000e+00))
5.000000e+01	((5.069884e+00 2.385194e+01 -2.780181e-18) (2.402075e-01 -5.076184e-02 1.432301e-19) (0.000000e+00 0.000000e+00 0.000000e+00)) ((-1.192597e+00 2.534942e-01 1.251202e+00) (2.538092e-03 1.201038e-02 -8.479707e-05) (0.000000e+00 0.000000e+00 0.000000e+00))
5.500000e+01	((5.185190e+00 2.439442e+01 -2.811767e-18) (2.274130e-01 -4.809967e-02 1.442819e-19) (0.000000e+00 0.000000e+00 0.000000e+00)) ((-1.219721e+00 2.592595e-01 1.194963e+00) (2.404984e-03 1.137065e-02 -7.243631e-05) (0.000000e+00 0.000000e+00 0.000000e+00))
6.000000e+01	((5.437113e+00 2.557962e+01 -2.902634e-18) (2.156886e-01 -4.565610e-02 1.501931e-19) (0.000000e+00 0.000000e+00 0.000000e+00)) ((-1.278981e+00 2.718557e-01 1.353631e+00) (2.282805e-03 1.078443e-02 -6.253699e-05) (0.000000e+00 0.000000e+00 0.000000e+00))
6.500000e+01	((5.618828e+00 2.643453e+01 -3.018444e-18) (2.048810e-01 -4.338695e-02 1.575532e-19) (0.000000e+00 0.000000e+00 0.000000e+00)) ((-1.321726e+00 2.809414e-01 1.395454e+00) (2.169348e-03 1.024405e-02 -5.362638e-05) (0.000000e+00 0.000000e+00 0.000000e+00))
7.000000e+01	((5.782740e+00 2.720567e+01 -3.125277e-18) (1.948758e-01 -4.129260e-02 1.650902e-19) (0.000000e+00 0.000000e+00 0.000000e+00)) ((-1.360284e+00 2.891370e-01 1.449404e+00) (2.064630e-03 9.743789e-03 -4.763126e-05) (0.000000e+00 0.000000e+00 0.000000e+00))
7.500000e+01	((5.956294e+00 2.802218e+01 -3.210487e-18) (1.852567e-01 -3.924141e-02 1.718338e-19) (0.000000e+00 0.000000e+00 0.000000e+00)) ((-1.401109e+00 2.978147e-01 1.486049e+00) (1.962070e-03 9.262835e-03 -4.977764e-05) (0.000000e+00 0.000000e+00 0.000000e+00))
8.000000e+01	((6.089759e+00 2.865008e+01 -3.211642e-18) (1.760524e-01 -3.728714e-02 1.736302e-19) (0.000000e+00 0.000000e+00 0.000000e+00)) ((-1.432504e+00 3.044879e-01 1.484139e+00) (1.864357e-03 8.802621e-03 -5.022368e-05) (0.000000e+00 0.000000e+00 0.000000e+00))
8.500000e+01	((6.225367e+00 2.928807e+01 -3.402650e-18) (1.671786e-01 -3.538695e-02 1.879278e-19) (0.000000e+00 0.000000e+00 0.000000e+00)) ((-1.464404e+00 3.112684e-01 1.448883e+00) (1.769348e-03 8.358932e-03 -5.491603e-05) (0.000000e+00 0.000000e+00 0.000000e+00))
9.000000e+01	((6.317614e+00 2.972206e+01 -3.498964e-18) (1.585201e-01 -3.356109e-02 1.973554e-19) (0.000000e+00 0.000000e+00 0.000000e+00)) ((-1.486103e+00 3.158807e-01 1.380914e+00) (1.678054e-03 7.926003e-03 -5.272295e-05) (0.000000e+00 0.000000e+00 0.000000e+00))
9.500000e+01	((6.393718e+00 3.008010e+01 -3.486555e-18) (1.501603e-01 -3.177699e-02 2.005243e-19) (0.000000e+00 0.000000e+00 0.000000e+00)) ((-1.504005e+00 3.196859e-01 1.307332e+00) (1.588850e-03 7.508016e-03 -5.541709e-05) (0.000000e+00 0.000000e+00 0.000000e+00))
1.000000e+02	((6.440397e+00 3.029971e+01 -3.527781e-18) (1.421261e-01 -3.006926e-02 2.067579e-19) (0.000000e+00 0.000000e+00 0.000000e+00)) ((-1.514986e+00 3.220198e-01 1.223686e+00) (1.503463e-03 7.106306e-03 -5.602216e-05) (0.000000e+00 0.000000e+00 0.000000e+00))
1.050000e+02	((6.479737e+00 3.048479e+01 -3.556141e-18) (1.344480e-01 -2.843288e-02 2.106827e-19) (0.000000e+00 0.000000e+00 0.000000e+00)) ((-1.524240e+00 3.239868e-01 1.152986e+00) (1.421644e-03 6.722401e-03 -5.776657e-05) (0.000000e+00 0.000000e+00 0.000000e+00))
1.100000e+02	((6.498582e+00 3.057345e+01 -3.600571e-18) (1.271633e-01 -2.687831e-02 2.165380e-19) (0.000000e+00 0.000000e+00 0.000000e+00)) ((-1.528673e+00 3.249291e-01 1.084760e+00) (1.343915e-03 6.358167e-03 -5.911170e-05) (0.000000e+00 0.000000e+00 0.000000e+00))
1.150000e+02	((6.512300e+00 3.063799e+01 -3.593018e-18) (1.203242e-01 -2.541457e-02 2.209842e-19) (0.000000e+00 0.000000e+00 0.000000e+00)) ((-1.531899e+00 3.256150e-01 1.007497e+00) (1.270728e-03 6.016209e-03 -6.162688e-05) (0.000000e+00 0.000000e+00 0.000000e+00))
1.200000e+02	((6.519061e+00 3.066980e+01 -3.680978e-18) (1.138681e-01 -2.403157e-02 2.303704e-19) (0.000000e+00 0.000000e+00 0.000000e+00)) ((-1.533490e+00 3.259531e-01 9.450018e-01) (1.201579e-03 5.693403e-03 -6.364821e-05) (0.000000e+00 0.000000e+00 0.000000e+00))
1.250000e+02	((6.515056e+00 3.065096e+01 -3.668819e-18) (1.078678e-01 -2.274642e-02 2.342838e-19) (0.000000e+00 0.000000e+00 0.000000e+00)) ((-1.532548e+00 3.257528e-01 8.741903e-01) (1.137321e-03 5.393392e-03 -6.525449e-05) (0.000000e+00 0.000000e+00 0.000000e+00))
1.300000e+02	((6.511017e+00 3.063195e+01 -3.655324e-18) (1.022281e-01 -2.154373e-02 2.391176e-19) (0.000000e+00 0.000000e+00 0.000000e+00)) ((-1.531598e+00 3.255509e-01 8.168881e-01) (1.077186e-03 5.111405e-03 -6.554312e-05) (0.000000e+00 0.000000e+00 0.000000e+00))
1.350000e+02	((6.499541e+00 3.057796e+01 -3.640212e-18) (9.695763e-02 -2.042079e-02 2.428665e-19) (0.000000e+00 0.000000e+00 0.000000e+00)) ((-1.528898e+00 3.249771e-01 7.580926e-01) (1.021040e-03 4.847881e-03 -6.513519e-05) (0.000000e+00 0.000000e+00 0.000000e+00))
1.400000e+02	((6.490024e+00 3.053318e+01 -3.555468e-18) (9.205682e-02 -1.937572e-02 2.426900e-19) (0.000000e+00 0.000000e+00 0.000000e+00)) ((-1.526659e+00 3.245012e-01 7.027638e-01) (9.687862e-04 4.602841e-03 -6.525090e-05) (0.000000e+00 0.000000e+00 0.000000e+00))
1.450000e+02	((6.475761e+00 3.046608e+01 -3.468626e-18) (8.743695e-02 -1.839338e-02 2.443006e-19) (0.000000e+00 0.000000e+00 0.000000e+00)) ((-1.523304e+00 3.237880e-01 6.551585e-01) (9.196688e-04 4.371847e-03 -6.456088e-05) (0.000000e+00 0.000000e+00 0.000000e+00))
1.500000e+02	((6.465120e+00 3.041602e+01 -3.370975e-18) (8.310951e-02 -1.747209e-02 2.464427e-19) (0.000000e+00 0.000000e+00 0.000000e+00)) ((-1.520801e+00 3.232560e-01 6.085088e-01) (8.736046e-04 4.155475e-03 -6.443434e-05) (0.000000e+00 0.000000e+00 0.000000e+00))
1.550000e+02	((6.456148e+00 3.037381e+01 -3.279010e-18) (7.907807e-02 -1.661548e-02 2.484637e-19) (0.000000e+00 0.000000e+00 0.000000e+00)) ((-1.518690e+00 3.228074e-01 5.644499e-01) (8.307738e-04 3.953903e-03 -6.412514e-05) (0.000000e+00 0.000000e+00 0.000000e+00))
1.600000e+02	((6.447811e+00 3.033458e+01 -3.192758e-18) (7.531510e-02 -1.582095e-02 2.488517e-19) (0.000000e+00 0.000000e+00 0.000000e+00)) ((-1.516729e+00 3.223906e-01 5.256605e-01) (7.910475e-04 3.765755e-03 -6.296978e-05) (0.000000e+00 0.000000e+00 0.000000e+00))
1.650000e+02	((6.442340e+00 3.030884e+01 -3.108747e-18) (7.180523e-02 -1.507745e-02 2.487882e-19) (0.000000e+00 0.000000e+00 0.000000e+00)) ((-1.515442e+00 3.221170e-01 4.916504e-01) (7.538724e-04 3.590261e-03 -6.270495e-05) (0.000000e+00 0.000000e+00 0.000000e+00))
1.700000e+02	((6.439398e+00 3.029500e+01 -2.958264e-18) (6.855536e-02 -1.438915e-02 2.419918e-19) (0.000000e+00 0.000000e+00 0.000000e+00)) ((-1.514750e+00 3.219699e-01 4.635530e-01) (7.194576e-04 3.427768e-03 -6.295588e-05) (0.000000e+00 0.000000e+00 0.000000e+00))
1.750000e+02	((6.438853e+00 3.029243e+01 -2.879725e-18) (6.555926e-02 -1.375289e-02 2.406945e-19) (0.000000e+00 0.000000e+00 0.000000e+00)) ((-1.514622e+00 3.219426e-01 4.419765e-01) (6.876446e-04 3.277963e-03 -6.393724e-05) (0.000000e+00 0.000000e+00 0.000000e+00))
1.800000e+02	((6.442821e+00 3.031110e+01 -2.803736e-18) (6.281678e-02 -1.317422e-02 2.382257e-19) (0.000000e+00 0.000000e+00 0.000000e+00)) ((-1.515555e+00 3.221410e-01 4.268321e-01) (6.587108e-04 3.140839e-03 -6.427148e-05) (0.000000e+00 0.000000e+00 0.000000e+00))
1.850000e+02	((6.452288e+00 3.035564e+01 -2.679042e-18) (6.031075e-02 -1.264235e-02 2.300060e-19) (0.000000e+00 0.000000e+00 0.000000e+00)) ((-1.517782e+00 3.226144e-01 4.176676e-01) (6.321176e-04 3.015537e-03 -6.549710e-05) (0.000000e+00 0.000000e+00 0.000000e+00))
1.900000e+02	((6.463667e+00 3.040917e+01 -2.613368e-18) (5.803687e-02 -1.215954e-02 2.262241e-19) (0.000000e+00 0.000000e+00 0.000000e+00)) ((-1.520459e+00 3.231834e-01 4.174876e-01) (6.079770e-04 2.901844e-03 -6.691343e-05) (0.000000e+00 0.000000e+00 0.000000e+00))
1.950000e+02	((6.479685e+00 3.048453e+01 -2.548922e-18) (5.596892e-02 -1.172238e-02 2.219737e-19) (0.000000e+00 0.000000e+00 0.000000e+00)) ((-1.524227e+00 3.239843e-01 4.263560e-01) (5.861189e-04 2.798446e-03 -6.777326e-05) (0.000000e+00 0.000000e+00 0.000000e+00))
2.000000e+02	((6.501365e+00 3.058653e+01 -2.489373e-18) (5.410058e-02 -1.132589e-02 2.166503e-19) (0.000000e+00 0.000000e+00 0.000000e+00)) ((-1.529326e+00 3.250683e-01 4.419077e-01) (5.662946e-04 2.705029e-03 -6.897494e-05) (0.000000e+00 0.000000e+00 0.000000e+00))
2.050000e+02	((6.524850e+00 3.069702e+01 -2.426373e-18) (5.240739e-02 -1.096650e-02 2.093569e-19) (0.000000e+00 0.000000e+00 0.000000e+00)) ((-1.534851e+00 3.262425e-01 4.672095e-01) (5.483249e-04 2.620369e-03 -7.013039e-05) (0.000000e+00 0.000000e+00 0.000000e+00))
2.100000e+02	((6.552885e+00 3.082891e+01 -2.369772e-18) (5.086062e-02 -1.063811e-02 2.014042e-19) (0.000000e+00 0.000000e+00 0.000000e+00)) ((-1.541445e+00 3.276442e-01 5.009102e-01) (5.319053e-04 2.543031e-03 -7.129045e-05) (0.000000e+00 0.000000e+00 0.000000e+00))
2.150000e+02	((6.585603e+00 3.098283e+01 -2.316499e-18) (4.944576e-02 -1.033746e-02 1.937250e-19) (0.000000e+00 0.000000e+00 0.000000e+00)) ((-1.549142e+00 3.292801e-01 5.431233e-01) (5.168732e-04 2.472288e-03 -7.244091e-05) (0.000000e+00 0.000000e+00 0.000000e+00))
2.200000e+02	((6.621799e+00 3.115312e+01 -2.267738e-18) (4.813362e-02 -1.005885e-02 1.868989e-19) (0.000000e+00 0.000000e+00 0.000000e+00)) ((-1.557656e+00 3.310899e-01 5.937819e-01) (5.029424e-04 2.406681e-03 -7.346637e-05) (0.000000e+00 0.000000e+00 0.000000e+00))
2.250000e+02	((6.657778e+00 3.132239e+01 -2.182127e-18) (4.688824e-02 -9.794477e-03 1.774646e-19) (0.000000e+00 0.000000e+00 0.000000e+00)) ((-1.566119e+00 3.328889e-01 6.535827e-01) (4.897238e-04 2.344412e-03 -7.470003e-05) (0.000000e+00 0.000000e+00 0.000000e+00))
2.300000e+02	((6.708242e+00 3.155981e+01 -2.186835e-18) (4.572154e-02 -9.546017e-03 1.762505e-19) (0.000000e+00 0.000000e+00 0.000000e+00)) ((-1.577990e+00 3.354121e-01 7.161411e-01) (4.773008e-04 2.286077e-03 -7.577836e-05) (0.000000e+00 0.000000e+00 0.000000e+00))
2.350000e+02	((6.753526e+00 3.177285e+01 -2.115595e-18) (4.458420e-02 -9.305047e-03 1.664111e-19) (0.000000e+00 0.000000e+00 0.000000e+00)) ((-1.588642e+00 3.376763e-01 8.021906e-01) (4.652524e-04 2.229210e-03 -7.645620e-05) (0.000000e+00 0.000000e+00 0.000000e+00))
2.400000e+02	((6.805660e+00 3.201812e+01 -2.101845e-18) (4.347091e-02 -9.068094e-03 1.603753e-19) (0.000000e+00 0.000000e+00 0.000000e+00)) ((-1.600906e+00 3.402830e-01 8.848149e-01) (4.534047e-04 2.173546e-03 -7.723330e-05) (0.000000e+00 0.000000e+00 0.000000e+00))
2.450000e+02	((6.864157e+00 3.229333e+01 -2.082923e-18) (4.237781e-02 -8.836335e-03 1.546155e-19) (0.000000e+00 0.000000e+00 0.000000e+00)) ((-1.614666e+00 3.432079e-01 9.879229e-01) (4.418168e-04 2.118891e-03 -7.804909e-05) (0.000000e+00 0.000000e+00 0.000000e+00))
2.500000e+02	((6.920828e+00 3.255994e+01 -2.067132e-18) (4.128846e-02 -8.605076e-03 1.525320e-19) (0.000000e+00 0.000000e+00 0.000000e+00)) ((-1.627997e+00 3.460414e-01 1.092220e+00) (4.302538e-04 2.064423e-03 -7.871246e-05) (0.000000e+00 0.000000e+00 0.000000e+00))
2.550000e+02	((6.980607e+00 3.284118e+01 -2.051597e-18) (4.020159e-02 -8.374553e-03 1.513801e-19) (0.000000e+00 0.000000e+00 0.000000e+00)) ((-1.642059e+00 3.490303e-01 1.207107e+00) (4.187277e-04 2.010079e-03 -7.946400e-05) (0.000000e+00 0.000000e+00 0.000000e+00))
2.600000e+02	((7.047720e+00 3.315693e+01 -2.021205e-18) (3.911736e-02 -8.144440e-03 1.456299e-19) (0.000000e+00 0.000000e+00 0.000000e+00)) ((-1.657846e+00 3.523860e-01 1.336834e+00) (4.072220e-04 1.955868e-03 -8.012462e-05) (0.000000e+00 0.000000e+00 0.000000e+00))
2.650000e+02	((7.112205e+00 3.346030e+01 -2.004981e-18) (3.802733e-02 -7.913090e-03 1.401406e-19) (0.000000e+00 0.000000e+00 0.000000e+00)) ((-1.673015e+00 3.556103e-01 1.469432e+00) (3.956545e-04 1.901367e-03 -8.071764e-05) (0.000000e+00 0.000000e+00 0.000000e+00))
2.700000e+02	((7.188063e+00 3.381719e+01 -1.992011e-18) (3.694537e-02 -7.683765e-03 1.376798e-19) (0.000000e+00 0.000000e+00 0.000000e+00)) ((-1.690859e+00 3.594032e-01 1.617862e+00) (3.841882e-04 1.847268e-03 -8.151807e-05) (0.000000e+00 0.000000e+00 0.000000e+00))
2.750000e+02	((7.251997e+00 3.411797e+01 -1.977744e-18) (3.585669e-02 -7.452810e-03 1.370620e-19) (0.000000e+00 0.000000e+00 0.000000e+00)) ((-1.705899e+00 3.625999e-01 1.761568e+00) (3.726405e-04 1.792834e-03 -8.188988e-05) (0.000000e+00 0.000000e+00 0.000000e+00))
2.800000e+02	((7.340442e+00 3.453407e+01 -1.960190e-18) (3.476036e-02 -7.220149e-03 1.367960e-19) (0.000000e+00 0.000000e+00 0.000000e+00)) ((-1.726704e+00 3.670221e-01 1.952200e+00) (3.610074e-04 1.738018e-03 -8.214835e-05) (0.000000e+00 0.000000e+00 0.000000e+00))
2.850000e+02	((7.405393e+00 3.483964e+01 -1.960923e-18) (3.367892e-02 -6.990030e-03 1.387729e-19) (0.000000e+00 0.000000e+00 0.000000e+00)) ((-1.741982e+00 3.702696e-01 2.100805e+00) (3.495015e-04 1.683946e-03 -8.258483e-05) (0.000000e+00 0.000000e+00 0.000000e+00))
2.900000e+02	((7.481328e+00 3.519689e+01 -1.925838e-18) (3.261251e-02 -6.764113e-03 1.390769e-19) (0.000000e+00 0.000000e+00 0.000000e+00)) ((-1.759844e+00 3.740664e-01 2.275352e+00) (3.382057e-04 1.630625e-03 -8.305472e-05) (0.000000e+00 0.000000e+00 0.000000e+00))
2.950000e+02	((7.555532e+00 3.554599e+01 -1.906917e-18) (3.153513e-02 -6.535319e-03 1.426371e-19) (0.000000e+00 0.000000e+00 0.000000e+00)) ((-1.777300e+00 3.777766e-01 2.457590e+00) (3.267660e-04 1.576757e-03 -8.313081e-05) (0.000000e+00 0.000000e+00 0.000000e+00))
3.000000e+02	((7.630667e+00 3.589947e+01 -1.903814e-18) (3.048682e-02 -6.312723e-03 1.502845e-19) (0.000000e+00 0.000000e+00 0.000000e+00)) ((-1.794974e+00 3.815333e-01 2.640527e+00) (3.156361e-04 1.524341e-03 -8.353402e-05) (0.000000e+00 0.000000e+00 0.000000e+00))
3.050000e+02	((7.702560e+00 3.623771e+01 -1.882346e-18) (2.945414e-02 -6.093813e-03 1.506104e-19) (0.000000e+00 0.000000e+00 0.000000e+00)) ((-1.811885e+00 3.851280e-01 2.827530e+00) (3.046907e-04 1.472707e-03 -8.383931e-05) (0.000000e+00 0.000000e+00 0.000000e+00))
3.100000e+02	((7.771436e+00 3.656174e+01 -1.876749e-18) (2.843364e-02 -5.877635e-03 1.562173e-19) (0.000000e+00 0.000000e+00 0.000000e+00)) ((-1.828087e+00 3.885718e-01 3.013609e+00) (2.938818e-04 1.421682e-03 -8.416874e-05) (0.000000e+00 0.000000e+00 0.000000e+00))
3.150000e+02	((7.837637e+00 3.687319e+01 -1.869041e-18) (2.744795e-02 -5.668538e-03 1.567909e-19) (0.000000e+00 0.000000e+00 0.000000e+00)) ((-1.843660e+00 3.918818e-01 3.199968e+00) (2.834269e-04 1.372398e-03 -8.454323e-05) (0.000000e+00 0.000000e+00 0.000000e+00))
3.200000e+02	((7.898993e+00 3.716185e+01 -1.859432e-18) (2.649266e-02 -5.466173e-03 1.507609e-19) (0.000000e+00 0.000000e+00 0.000000e+00)) ((-1.858093e+00 3.949497e-01 3.384852e+00) (2.733087e-04 1.324633e-03 -8.490342e-05) (0.000000e+00 0.000000e+00 0.000000e+00))
3.250000e+02	((7.955647e+00 3.742839e+01 -1.787379e-18) (2.558175e-02 -5.273013e-03 1.370655e-19) (0.000000e+00 0.000000e+00 0.000000e+00)) ((-1.871419e+00 3.977824e-01 3.579295e+00) (2.636507e-04 1.279088e-03 -8.490520e-05) (0.000000e+00 0.000000e+00 0.000000e+00))
3.300000e+02	((8.006207e+00 3.766625e+01 -1.778771e-18) (2.470152e-02 -5.087193e-03 1.301969e-19) (0.000000e+00 0.000000e+00 0.000000e+00)) ((-1.883313e+00 4.003104e-01 3.742392e+00) (2.543596e-04 1.235076e-03 -8.598707e-05) (0.000000e+00 0.000000e+00 0.000000e+00))
3.350000e+02	((8.044840e+00 3.784800e+01 -1.734710e-18) (2.388892e-02 -4.915828e-03 1.215487e-19) (0.000000e+00 0.000000e+00 0.000000e+00)) ((-1.892400e+00 4.022420e-01 3.898235e+00) (2.457914e-04 1.194446e-03 -8.683943e-05) (0.000000e+00 0.000000e+00 0.000000e+00))
3.400000e+02	((8.088359e+00 3.805275e+01 -1.721476e-18) (2.313540e-02 -4.757570e-03 1.156036e-19) (0.000000e+00 0.000000e+00 0.000000e+00)) ((-1.902637e+00 4.044180e-01 4.078148e+00) (2.378785e-04 1.156770e-03 -8.813304e-05) (0.000000e+00 0.000000e+00 0.000000e+00))
3.450000e+02	((8.118691e+00 3.819545e+01 -1.672022e-18) (2.245081e-02 -4.616446e-03 1.061571e-19) (0.000000e+00 0.000000e+00 0.000000e+00)) ((-1.909772e+00 4.059346e-01 4.256316e+00) (2.308223e-04 1.122540e-03 -9.062442e-05) (0.000000e+00 0.000000e+00 0.000000e+00))
3.500000e+02	((8.137953e+00 3.828606e+01 -1.633505e-18) (2.183033e-02 -4.488255e-03 9.868781e-20) (0.000000e+00 0.000000e+00 0.000000e+00)) ((-1.914303e+00 4.068976e-01 4.403346e+00) (2.244128e-04 1.091516e-03 -9.304996e-05) (0.000000e+00 0.000000e+00 0.000000e+00))
3.550000e+02	((8.149421e+00 3.834002e+01 -1.568414e-18) (2.131404e-02 -4.380503e-03 9.074600e-20) (0.000000e+00 0.000000e+00 0.000000e+00)) ((-1.917001e+00 4.074711e-01 4.524074e+00) (2.190251e-04 1.065702e-03 -9.474557e-05) (0.000000e+00 0.000000e+00 0.000000e+00))
3.600000e+02	((8.152077e+00 3.835251e+01 -1.526737e-18) (2.089386e-02 -4.292623e-03 8.563576e-20) (0.000000e+00 0.000000e+00 0.000000e+00)) ((-1.917626e+00 4.076038e-01 4.663569e+00) (2.146312e-04 1.044693e-03 -9.576446e-05) (0.000000e+00 0.000000e+00 0.000000e+00))
3.650000e+02	((8.143268e+00 3.831107e+01 -1.483516e-18) (2.058345e-02 -4.228503e-03 8.096418e-20) (0.000000e+00 0.000000e+00 0.000000e+00)) ((-1.915554e+00 4.071634e-01 4.789060e+00) (2.114251e-04 1.029172e-03 -9.673421e-05) (0.000000e+00 0.000000e+00 0.000000e+00))
3.700000e+02	((8.128776e+00 3.824289e+01 -1.416064e-18) (2.039432e-02 -4.189775e-03 7.509974e-20) (0.000000e+00 0.000000e+00 0.000000e+00)) ((-1.912144e+00 4.064388e-01 4.885165e+00) (2.094888e-04 1.019716e-03 -9.793206e-05) (0.000000e+00 0.000000e+00 0.000000e+00))
3.750000e+02	((8.098208e+00 3.809908e+01 -1.369453e-18) (2.032653e-02 -4.176785e-03 7.110153e-20) (0.000000e+00 0.000000e+00 0.000000e+00)) ((-1.904954e+00 4.049104e-01 4.996185e+00) (2.088392e-04 1.016327e-03 -9.868226e-05) (0.000000e+00 0.000000e+00 0.000000e+00))
3.800000e+02	((8.059583e+00 3.791736e+01 -1.300524e-18) (2.038052e-02 -4.188865e-03 6.585994e-20) (0.000000e+00 0.000000e+00 0.000000e+00)) ((-1.895868e+00 4.029791e-01 5.076391e+00) (2.094432e-04 1.019026e-03 -9.922451e-05) (0.000000e+00 0.000000e+00 0.000000e+00))
3.850000e+02	((8.014552e+00 3.770551e+01 -1.228526e-18) (2.058251e-02 -4.232375e-03 6.060605e-20) (0.000000e+00 0.000000e+00 0.000000e+00)) ((-1.885275e+00 4.007276e-01 5.145081e+00) (2.116188e-04 1.029125e-03 -9.970200e-05) (0.000000e+00 0.000000e+00 0.000000e+00))
3.900000e+02	((7.951926e+00 3.741087e+01 -1.181001e-18) (2.091699e-02 -4.303701e-03 5.729328e-20) (0.000000e+00 0.000000e+00 0.000000e+00)) ((-1.870544e+00 3.975963e-01 5.212257e+00) (2.151850e-04 1.045849e-03 -1.000082e-04) (0.000000e+00 0.000000e+00 0.000000e+00))
3.950000e+02	((7.884440e+00 3.709338e+01 -1.103036e-18) (2.139062e-02 -4.404147e-03 5.206661e-20) (0.000000e+00 0.000000e+00 0.000000e+00)) ((-1.854669e+00 3.942220e-01 5.260338e+00) (2.202073e-04 1.069531e-03 -1.002948e-04) (0.000000e+00 0.000000e+00 0.000000e+00))
4.000000e+02	((7.809309e+00 3.673991e+01 -1.021600e-18) (2.201373e-02 -4.536659e-03 4.672475e-20) (0.000000e+00 0.000000e+00 0.000000e+00)) ((-1.836996e+00 3.904654e-01 5.296468e+00) (2.268330e-04 1.100686e-03 -1.003851e-04) (0.000000e+00 0.000000e+00 0.000000e+00))
4.050000e+02	((7.716241e+00 3.630206e+01 -9.694665e-19) (2.277483e-02 -4.697892e-03 4.353458e-20) (0.000000e+00 0.000000e+00 0.000000e+00)) ((-1.815103e+00 3.858120e-01 5.327716e+00) (2.348946e-04 1.138741e-03 -1.003537e-04) (0.000000e+00 0.000000e+00 0.000000e+00))
4.100000e+02	((7.622040e+00 3.585888e+01 -8.832094e-19) (2.367755e-02 -4.888680e-03 3.811866e-20) (0.000000e+00 0.000000e+00 0.000000e+00)) ((-1.792944e+00 3.811020e-01 5.344045e+00) (2.444340e-04 1.183877e-03 -1.003525e-04) (0.000000e+00 0.000000e+00 0.000000e+00))
4.150000e+02	((7.522050e+00 3.538846e+01 -7.946516e-19) (2.473149e-02 -5.112153e-03 3.260557e-20) (0.000000e+00 0.000000e+00 0.000000e+00)) ((-1.769423e+00 3.761025e-01 5.350852e+00) (2.556076e-04 1.236574e-03 -1.001511e-04) (0.000000e+00 0.000000e+00 0.000000e+00))
4.200000e+02	((7.402286e+00 3.482502e+01 -7.399503e-19) (2.592061e-02 -5.363806e-03 2.947977e-20) (0.000000e+00 0.000000e+00 0.000000e+00)) ((-1.741251e+00 3.701143e-01 5.349481e+00) (2.681903e-04 1.296030e-03 -9.986327e-05) (0.000000e+00 0.000000e+00 0.000000e+00))
4.250000e+02	((7.285508e+00 3.427562e+01 -6.494660e-19) (2.724353e-02 -5.643354e-03 2.394801e-20) (0.000000e+00 0.000000e+00 0.000000e+00)) ((-1.713781e+00 3.642754e-01 5.337590e+00) (2.821677e-04 1.362176e-03 -9.963169e-05) (0.000000e+00 0.000000e+00 0.000000e+00))
4.300000e+02	((7.164720e+00 3.370736e+01 -5.584355e-19) (2.870362e-02 -5.952705e-03 1.838073e-20) (0.000000e+00 0.000000e+00 0.000000e+00)) ((-1.685368e+00 3.582360e-01 5.317641e+00) (2.976353e-04 1.435181e-03 -9.917937e-05) (0.000000e+00 0.000000e+00 0.000000e+00))
4.350000e+02	((7.023130e+00 3.304123e+01 -5.042722e-19) (3.028122e-02 -6.286690e-03 1.535897e-20) (0.000000e+00 0.000000e+00 0.000000e+00)) ((-1.652061e+00 3.511565e-01 5.286065e+00) (3.143345e-04 1.514061e-03 -9.872271e-05) (0.000000e+00 0.000000e+00 0.000000e+00))
4.400000e+02	((6.888254e+00 3.240669e+01 -4.144069e-19) (3.196547e-02 -6.645771e-03 9.932568e-21) (0.000000e+00 0.000000e+00 0.000000e+00)) ((-1.620335e+00 3.444127e-01 5.248017e+00) (3.322886e-04 1.598274e-03 -9.764275e-05) (0.000000e+00 0.000000e+00 0.000000e+00))
4.450000e+02	((6.750559e+00 3.175889e+01 -3.255934e-19) (3.375163e-02 -7.026496e-03 4.510389e-21) (0.000000e+00 0.000000e+00 0.000000e+00)) ((-1.587944e+00 3.375280e-01 5.203072e+00) (3.513248e-04 1.687581e-03 -9.639386e-05) (0.000000e+00 0.000000e+00 0.000000e+00))
4.500000e+02	((6.599686e+00 3.104908e+01 -2.697552e-19) (3.562655e-02 -7.425655e-03 1.324021e-21) (0.000000e+00 0.000000e+00 0.000000e+00)) ((-1.552454e+00 3.299843e-01 5.146856e+00) (3.712828e-04 1.781327e-03 -9.528776e-05) (0.000000e+00 0.000000e+00 0.000000e+00))
4.550000e+02	((6.441764e+00 3.030612e+01 -2.168430e-19) (3.759180e-02 -7.846033e-03 -1.694341e-21) (0.000000e+00 0.000000e+00 0.000000e+00)) ((-1.515306e+00 3.220882e-01 5.081266e+00) (3.923016e-04 1.879590e-03 -9.390383e-05) (0.000000e+00 0.000000e+00 0.000000e+00))
4.600000e+02	((6.284746e+00 2.956741e+01 -1.237457e-19) (3.961910e-02 -8.277737e-03 -7.460026e-21) (0.000000e+00 0.000000e+00 0.000000e+00)) ((-1.478370e+00 3.142373e-01 5.011195e+00) (4.138869e-04 1.980955e-03 -9.297792e-05) (0.000000e+00 0.000000e+00 0.000000e+00))
4.650000e+02	((6.128927e+00 2.883433e+01 -7.262603e-20) (4.172466e-02 -8.728299e-03 -1.047303e-20) (0.000000e+00 0.000000e+00 0.000000e+00)) ((-1.441717e+00 3.064463e-01 4.936372e+00) (4.364149e-04 2.086233e-03 -9.136098e-05) (0.000000e+00 0.000000e+00 0.000000e+00))
4.700000e+02	((5.971443e+00 2.809343e+01 -2.006924e-20) (4.390283e-02 -9.190913e-03 -1.361121e-20) (0.000000e+00 0.000000e+00 0.000000e+00)) ((-1.404672e+00 2.985722e-01 4.855862e+00) (4.595457e-04 2.195141e-03 -9.041197e-05) (0.000000e+00 0.000000e+00 0.000000e+00))
4.750000e+02	((5.823789e+00 2.739877e+01 7.000134e-20) (4.612657e-02 -9.666744e-03 -1.946596e-20) (0.000000e+00 0.000000e+00 0.000000e+00)) ((-1.369939e+00 2.911895e-01 4.777000e+00) (4.833372e-04 2.306329e-03 -8.880373e-05) (0.000000e+00 0.000000e+00 0.000000e+00))
4.800000e+02	((5.657911e+00 2.661838e+01 1.175641e-19) (4.838893e-02 -1.014782e-02 -2.233624e-20) (0.000000e+00 0.000000e+00 0.000000e+00)) ((-1.330919e+00 2.828956e-01 4.683154e+00) (5.073912e-04 2.419447e-03 -8.800676e-05) (0.000000e+00 0.000000e+00 0.000000e+00))
4.850000e+02	((5.503667e+00 2.589272e+01 1.670515e-19) (5.068500e-02 -1.063932e-02 -2.547607e-20) (0.000000e+00 0.000000e+00 0.000000e+00)) ((-1.294636e+00 2.751834e-01 4.592775e+00) (5.319659e-04 2.534250e-03 -8.640001e-05) (0.000000e+00 0.000000e+00 0.000000e+00))
4.900000e+02	((5.343827e+00 2.514073e+01 2.090720e-19) (5.301235e-02 -1.113417e-02 -2.811189e-20) (0.000000e+00 0.000000e+00 0.000000e+00)) ((-1.257037e+00 2.671914e-01 4.493613e+00) (5.567083e-04 2.650617e-03 -8.545192e-05) (0.000000e+00 0.000000e+00 0.000000e+00))
4.950000e+02	((5.186693e+00 2.440147e+01 2.530347e-19) (5.533879e-02 -1.163276e-02 -3.095372e-20) (0.000000e+00 0.000000e+00 0.000000e+00)) ((-1.220074e+00 2.593347e-01 4.393782e+00) (5.816379e-04 2.766939e-03 -8.384608e-05) (0.000000e+00 0.000000e+00 0.000000e+00))
5.000000e+02	((5.047790e+00 2.374799e+01 2.971279e-19) (5.766490e-02 -1.212728e-02 -3.397878e-20) (0.000000e+00 0.000000e+00 0.000000e+00)) ((-1.187399e+00 2.523895e-01 4.302294e+00) (6.063638e-04 2.883245e-03 -8.305445e-05) (0.000000e+00 0.000000e+00 0.000000e+00))
5.050000e+02	((4.910324e+00 2.310126e+01 3.018155e-19) (5.999085e-02 -1.262425e-02 -3.422168e-20) (0.000000e+00 0.000000e+00 0.000000e+00)) ((-1.155063e+00 2.455162e-01 4.207222e+00) (6.312123e-04 2.999542e-03 -8.148176e-05) (0.000000e+00 0.000000e+00 0.000000e+00))
5.100000e+02	((4.760897e+00 2.239826e+01 3.443587e-19) (6.229874e-02 -1.311634e-02 -3.709401e-20) (0.000000e+00 0.000000e+00 0.000000e+00)) ((-1.119913e+00 2.380449e-01 4.100721e+00) (6.558172e-04 3.114937e-03 -8.026057e-05) (0.000000e+00 0.000000e+00 0.000000e+00))
5.150000e+02	((4.618685e+00 2.172921e+01 3.841746e-19) (6.454924e-02 -1.360023e-02 -3.989430e-20) (0.000000e+00 0.000000e+00 0.000000e+00)) ((-1.086460e+00 2.309343e-01 3.997432e+00) (6.800116e-04 3.227462e-03 -7.880946e-05) (0.000000e+00 0.000000e+00 0.000000e+00))
5.200000e+02	((4.509334e+00 2.121475e+01 3.857818e-19) (6.679166e-02 -1.407431e-02 -4.004851e-20) (0.000000e+00 0.000000e+00 0.000000e+00)) ((-1.060737e+00 2.254667e-01 3.914713e+00) (7.037156e-04 3.339583e-03 -7.825247e-05) (0.000000e+00 0.000000e+00 0.000000e+00))
5.250000e+02	((4.380360e+00 2.060797e+01 4.165751e-19) (6.898774e-02 -1.454648e-02 -4.235853e-20) (0.000000e+00 0.000000e+00 0.000000e+00)) ((-1.030399e+00 2.190180e-01 3.815832e+00) (7.273242e-04 3.449387e-03 -7.638564e-05) (0.000000e+00 0.000000e+00 0.000000e+00))
5.300000e+02	((4.273509e+00 2.010528e+01 4.161252e-19) (7.112766e-02 -1.499977e-02 -4.234723e-20) (0.000000e+00 0.000000e+00 0.000000e+00)) ((-1.005264e+00 2.136755e-01 3.727769e+00) (7.499887e-04 3.556383e-03 -7.607354e-05) (0.000000e+00 0.000000e+00 0.000000e+00))
5.350000e+02	((4.167091e+00 1.960462e+01 4.162720e-19) (7.321924e-02 -1.544632e-02 -4.244253e-20) (0.000000e+00 0.000000e+00 0.000000e+00)) ((-9.802312e-01 2.083546e-01 3.638949e+00) (7.723160e-04 3.660962e-03 -7.498251e-05) (0.000000e+00 0.000000e+00 0.000000e+00))
5.400000e+02	((4.067577e+00 1.913645e+01 4.157349e-19) (7.524335e-02 -1.587682e-02 -4.251995e-20) (0.000000e+00 0.000000e+00 0.000000e+00)) ((-9.568223e-01 2.033788e-01 3.551744e+00) (7.938412e-04 3.762167e-03 -7.432422e-05) (0.000000e+00 0.000000e+00 0.000000e+00))
5.450000e+02	((3.977633e+00 1.871329e+01 4.147534e-19) (7.720511e-02 -1.629567e-02 -4.263105e-20) (0.000000e+00 0.000000e+00 0.000000e+00)) ((-9.356647e-01 1.988817e-01 3.468432e+00) (8.147834e-04 3.860256e-03 -7.338354e-05) (0.000000e+00 0.000000e+00 0.000000e+00))
5.500000e+02	((3.895666e+00 1.832767e+01 4.128373e-19) (7.910177e-02 -1.669840e-02 -4.270489e-20) (0.000000e+00 0.000000e+00 0.000000e+00)) ((-9.163833e-01 1.947833e-01 3.388791e+00) (8.349200e-04 3.955089e-03 -7.291005e-05) (0.000000e+00 0.000000e+00 0.000000e+00))
5.550000e+02	((3.820992e+00 1.797635e+01 4.096553e-19) (8.092363e-02 -1.708747e-02 -4.278067e-20) (0.000000e+00 0.000000e+00 0.000000e+00)) ((-8.988177e-01 1.910496e-01 3.311395e+00) (8.543736e-04 4.046182e-03 -7.201182e-05) (0.000000e+00 0.000000e+00 0.000000e+00))