/*--------------------------------*- C++ -*----------------------------------*\
| =========                 |                                                 |
| \\      /  F ield         | OpenFOAM: The Open Source CFD Toolbox           |
|  \\    /   O peration     | Version:  2.3.0                                 |
|   \\  /    A nd           | Web:      www.OpenFOAM.org                      |
|    \\/     M anipulation  |                                                 |
\*---------------------------------------------------------------------------*/
FoamFile
{
    version     2.0;
    format      ascii;
    class       volScalarField;
    location    "8000";
    object      nut;
}
// * * * * * * * * * * * * * * * * * * * * * * * * * * * * * * * * * * * * * //

dimensions      [0 2 -1 0 0 0 0];

internalField   nonuniform List<scalar> 
14769
(
0.0520727
0.048943
0.0459097
0.0429976
0.0402254
0.0376144
0.0351846
0.0329592
0.0309647
0.0292032
0.0275481
0.025923
0.0243499
0.0228428
0.021403
0.0200255
0.0187023
0.0174274
0.0161927
0.0149926
0.0138164
0.0126552
0.0115237
0.010653
0.0559371
0.0533313
0.0508162
0.0483984
0.0460828
0.043872
0.04177
0.03978
0.0379061
0.0361511
0.0345138
0.0329915
0.0315877
0.0303085
0.0291611
0.0281513
0.027286
0.0265705
0.0260112
0.025612
0.025377
0.0253059
0.0253993
0.0256536
0.0594017
0.0572261
0.0551331
0.0531257
0.0512064
0.0493771
0.0476389
0.0459942
0.0444457
0.0429949
0.0416446
0.0403983
0.0392592
0.0382318
0.0373209
0.0365311
0.0358672
0.035334
0.0349345
0.0346714
0.0345442
0.0345526
0.0346905
0.0349509
0.0624926
0.0606687
0.0589163
0.057237
0.0556323
0.0541025
0.0526495
0.0512741
0.0499784
0.0487644
0.0476346
0.0465925
0.0456414
0.0447846
0.0440274
0.0433732
0.0428265
0.0423916
0.0420711
0.0418674
0.0417804
0.0418098
0.0419529
0.0422041
0.0652438
0.0637028
0.0622242
0.060806
0.0594481
0.058152
0.0569182
0.0557485
0.0546438
0.0536065
0.0526388
0.0517445
0.050926
0.0501881
0.0495345
0.0489704
0.0484994
0.0481257
0.0478529
0.0476835
0.0476189
0.0476587
0.0478015
0.0480443
0.0676746
0.0663708
0.065114
0.0639039
0.0627411
0.061627
0.0605629
0.0595511
0.0585925
0.0576893
0.0568438
0.0560583
0.0553374
0.0546851
0.0541057
0.053604
0.0531847
0.0528523
0.0526103
0.0524622
0.0524103
0.0524549
0.0525957
0.0528308
0.0698293
0.0687175
0.0676397
0.0665967
0.0655891
0.0646184
0.0636868
0.0627968
0.0619513
0.0611513
0.0603996
0.059698
0.0590511
0.0584627
0.057938
0.0574821
0.0570999
0.0567961
0.0565754
0.0564414
0.0563973
0.0564444
0.0565825
0.0568108
0.0717393
0.0707836
0.0698501
0.0689422
0.0680598
0.0672039
0.0663762
0.0655809
0.0648228
0.0641046
0.0634267
0.0627915
0.0622026
0.0616641
0.0611808
0.0607602
0.060406
0.060123
0.0599162
0.059792
0.0597529
0.059801
0.0599363
0.0601585
0.0734303
0.0726065
0.0717874
0.0709898
0.0702101
0.0694477
0.0687043
0.0679811
0.0672912
0.0666363
0.0660183
0.0654376
0.0648957
0.0643995
0.0639463
0.0635531
0.0632227
0.0629572
0.0627574
0.0626393
0.0626036
0.0626518
0.0627848
0.0630016
0.0749343
0.0742298
0.0734876
0.072779
0.0720863
0.0714003
0.0707333
0.0700597
0.0694187
0.0688102
0.068238
0.0677074
0.0672037
0.066758
0.066321
0.0659481
0.0656362
0.0653933
0.0651924
0.0650787
0.0650439
0.065092
0.0652236
0.0654355
0.0116799
0.0139167
0.015412
0.0168695
0.0184531
0.0201974
0.022104
0.024161
0.0263547
0.0286721
0.0311024
0.033637
0.0362686
0.0389908
0.041798
0.0446843
0.0476437
0.0506694
0.0537542
0.056891
0.0600714
0.0632868
0.0665276
0.0697836
0.0260528
0.0266096
0.0273494
0.0282733
0.0293799
0.0306627
0.0321115
0.0337137
0.0354569
0.0373282
0.0393153
0.0414081
0.0435963
0.0458709
0.0482244
0.0506505
0.0531424
0.0556942
0.0583002
0.0609545
0.0636514
0.0663848
0.0691486
0.0719443
0.0353226
0.0358172
0.036454
0.037236
0.0381616
0.0392272
0.0404269
0.0417531
0.0431973
0.0447511
0.0464049
0.0481508
0.0499807
0.0518876
0.0538645
0.0559063
0.058007
0.0601619
0.0623662
0.0646154
0.0669049
0.0692304
0.0715883
0.0739837
0.0425569
0.043018
0.0435993
0.0443017
0.0451231
0.0460607
0.0471094
0.048263
0.049514
0.0508561
0.0522814
0.0537832
0.0553542
0.0569892
0.0586826
0.0604294
0.0622254
0.0640665
0.0659492
0.0678698
0.0698252
0.0718126
0.0738297
0.0758828
0.0483826
0.0488203
0.0493646
0.0500143
0.0507668
0.0516189
0.0525656
0.0536006
0.0547173
0.0559095
0.0571703
0.0584935
0.0598731
0.061304
0.0627818
0.0643019
0.0658609
0.0674552
0.0690819
0.0707386
0.0724227
0.0741325
0.0758666
0.0776336
0.0531567
0.0535761
0.0540921
0.0547029
0.0554055
0.0561957
0.0570686
0.0580179
0.0590364
0.0601183
0.0612568
0.0624461
0.0636808
0.0649563
0.0662686
0.0676134
0.0689871
0.0703871
0.0718105
0.0732554
0.07472
0.0762031
0.0777036
0.0792311
0.0571266
0.0575308
0.0580243
0.0586045
0.0592686
0.0600118
0.0608288
0.0617132
0.0626576
0.063655
0.0646994
0.0657849
0.0669071
0.0680618
0.0692448
0.0704523
0.07168
0.0729254
0.0741861
0.0754602
0.0767464
0.0780441
0.0793526
0.0806777
0.0604658
0.0608576
0.0613322
0.0618877
0.0625202
0.063226
0.0639998
0.0648344
0.0657212
0.0666522
0.0676212
0.0686237
0.0696565
0.070716
0.0717972
0.0728951
0.0740062
0.0751274
0.0762565
0.0773916
0.0785318
0.0796773
0.0808271
0.0819834
0.0633011
0.0636845
0.0641406
0.0646753
0.0652807
0.0659562
0.0666963
0.0674932
0.0683357
0.0692114
0.0701171
0.0710511
0.0720121
0.0729958
0.0739964
0.0750055
0.0760223
0.0770423
0.0780639
0.0790847
0.0801035
0.0811241
0.0821428
0.083155
0.0657216
0.0661037
0.0665352
0.067054
0.0676356
0.0682891
0.0690042
0.0697707
0.0705739
0.0713932
0.0722442
0.07312
0.0740251
0.0749504
0.0758871
0.0768216
0.0777633
0.0787
0.079634
0.0805585
0.0814697
0.0823909
0.0833286
0.0842145
0.0749316
0.069408
0.0642308
0.0593335
0.054677
0.0502361
0.0459959
0.0419495
0.0380942
0.0344302
0.0309588
0.0276838
0.02461
0.0217418
0.0190816
0.0166276
0.014376
0.012322
0.0104805
0.00890834
0.00767584
0.00646164
0.00514717
0.00361688
0.0775557
0.0728115
0.0683501
0.0641118
0.060059
0.056166
0.0524184
0.0488083
0.0453337
0.0419954
0.0387954
0.0357366
0.0328259
0.0300795
0.0275281
0.0252105
0.0231105
0.0211233
0.0191539
0.0171472
0.0150779
0.0128998
0.0105523
0.00795567
0.0803718
0.076352
0.0725706
0.068973
0.0655234
0.0621959
0.0589736
0.0558491
0.0528231
0.0499003
0.0470855
0.0443775
0.0417658
0.0392339
0.0367605
0.0343268
0.031907
0.0294711
0.0269797
0.0243904
0.02166
0.018747
0.0156083
0.012198
0.083298
0.0799443
0.0767935
0.0737961
0.0709185
0.0681272
0.065393
0.0626987
0.0600361
0.0574015
0.0547916
0.0522015
0.049623
0.0470437
0.0444479
0.0418153
0.0391245
0.0363497
0.0334602
0.0304207
0.0271926
0.0237354
0.0200092
0.0159781
0.0862803
0.0835151
0.0809204
0.0784306
0.075991
0.0735677
0.0711421
0.068703
0.066244
0.0637615
0.0612502
0.0587044
0.056116
0.0534737
0.0507636
0.0479686
0.0450676
0.0420351
0.0388434
0.0354582
0.0318424
0.0279571
0.0237641
0.0192265
0.0892347
0.0869668
0.0847884
0.0826366
0.0804775
0.0782914
0.0760662
0.0737931
0.0714675
0.0690829
0.0666338
0.0641139
0.0615136
0.0588213
0.0560229
0.0531011
0.0500352
0.0468015
0.0433697
0.0397067
0.0357763
0.0315394
0.0269562
0.0219892
0.0920628
0.0901506
0.0882469
0.0863213
0.0843553
0.0823366
0.0802551
0.0781033
0.0758746
0.0735629
0.0711616
0.0686623
0.0660537
0.0633239
0.0604574
0.0574362
0.0542397
0.050842
0.0472139
0.0433212
0.039128
0.0345932
0.0296761
0.0243371
0.0946704
0.0929861
0.0912746
0.0895146
0.0876933
0.0858018
0.0838313
0.0817732
0.0796216
0.0773688
0.075007
0.0725256
0.0699133
0.067155
0.064235
0.0611345
0.0578314
0.0542994
0.0505066
0.0464196
0.042003
0.0372118
0.0320028
0.0263368
0.0969946
0.0954766
0.0939097
0.0922783
0.0905738
0.0887843
0.0869027
0.0849194
0.082831
0.0806285
0.078301
0.0758378
0.0732252
0.0704436
0.06748
0.0643132
0.0609224
0.057279
0.0533486
0.0490918
0.0444846
0.0394725
0.0340067
0.0280472
0.0990454
0.0976537
0.0962022
0.094671
0.0930711
0.0913666
0.0895613
0.087634
0.0855958
0.0834375
0.0811438
0.0786977
0.0760918
0.073287
0.070286
0.0670592
0.0635933
0.0598597
0.055826
0.0514047
0.0466388
0.041444
0.0357503
0.02952
0.00185463
0.000909744
0.00111541
0.00141308
0.00169677
0.00198251
0.0022885
0.00264166
0.00307998
0.00364615
0.0043249
0.00510547
0.00598787
0.00697682
0.00807968
0.00930397
0.0106572
0.0121474
0.0137835
0.015575
0.0175314
0.0196618
0.0219762
0.0244886
0.00502383
0.00233365
0.00148601
0.00171114
0.00201934
0.00235303
0.00273521
0.00319122
0.0037423
0.00440789
0.00516503
0.00600825
0.00693981
0.00796413
0.00908672
0.0103131
0.0116493
0.0131021
0.0146788
0.0163871
0.0182351
0.0202313
0.022384
0.0246939
0.00844273
0.00452423
0.00215003
0.00201237
0.00235741
0.00276581
0.00324375
0.00380406
0.00445348
0.00520186
0.00602599
0.00692383
0.00789792
0.0089515
0.0100886
0.0113128
0.012629
0.0140425
0.0155591
0.0171854
0.0189278
0.0207933
0.0227893
0.0249246
0.0115696
0.00683161
0.00312701
0.00234256
0.00270962
0.0032044
0.0037779
0.00443094
0.00516432
0.00598168
0.0068631
0.00780782
0.00881788
0.00989524
0.011042
0.0122608
0.0135555
0.0149304
0.0163896
0.0179384
0.0195821
0.0213259
0.023174
0.0251233
0.0142762
0.00892361
0.00424841
0.0027211
0.00307203
0.00365204
0.00431173
0.00504334
0.00585174
0.00672807
0.0076594
0.00864474
0.00968522
0.0107815
0.0119344
0.0131463
0.0144195
0.0157571
0.0171628
0.0186399
0.0201923
0.0218237
0.0235374
0.025339
0.0165765
0.0107236
0.00535279
0.00314106
0.00343765
0.00409512
0.00483041
0.00563149
0.00650476
0.00743288
0.00840793
0.00942893
0.0104952
0.0116065
0.0127635
0.0139673
0.0152197
0.0165225
0.0178782
0.0192892
0.020758
0.0222876
0.0238817
0.0255473
0.0185214
0.0122436
0.00635365
0.00357989
0.0037987
0.00452402
0.00532629
0.00619027
0.00711894
0.00809286
0.00910662
0.0101583
0.0112464
0.0123702
0.0135296
0.0147251
0.0159575
0.0172279
0.0185377
0.0198883
0.0212813
0.0227192
0.0242053
0.025745
0.0201664
0.0135235
0.00722601
0.00401271
0.00415106
0.00493449
0.00579497
0.00671624
0.00769245
0.00870683
0.00975478
0.0108332
0.0119401
0.0130742
0.0142351
0.0154225
0.0166364
0.017877
0.0191448
0.0204403
0.0217646
0.0231195
0.0245069
0.0259283
0.0215561
0.0145915
0.00797925
0.00443491
0.00447751
0.0053094
0.00622463
0.00720006
0.0082202
0.00927215
0.0103517
0.011455
0.0125798
0.0137242
0.014887
0.0160673
0.0172643
0.0184771
0.0197056
0.0209504
0.022212
0.0234914
0.0247892
0.0261036
0.0227082
0.0153903
0.00842973
0.00470688
0.00484356
0.00575107
0.00670723
0.00772319
0.00877869
0.00986696
0.0109762
0.0120994
0.013237
0.0143872
0.0155453
0.0167137
0.0178878
0.0190638
0.0202469
0.0214366
0.0226354
0.0238481
0.0250707
0.0262879
0.000408269
0.00139937
0.00293406
0.00474755
0.00656328
0.00835997
0.0101523
0.0119418
0.0137302
0.0155202
0.0173159
0.0191232
0.0209472
0.0227903
0.024654
0.026568
0.0285964
0.030773
0.0330604
0.03557
0.0384214
0.0415374
0.0448467
0.0482878
0.000302571
0.000820653
0.00190955
0.00340867
0.0050072
0.00658537
0.00815164
0.00972594
0.0113283
0.0129692
0.0146504
0.0163724
0.0181362
0.019943
0.0217959
0.0237055
0.0256976
0.0278039
0.0300411
0.0324679
0.0351509
0.0380213
0.04125
0.0447654
0.000130936
0.000509435
0.00121514
0.0022092
0.00350898
0.0051406
0.00698728
0.00877403
0.0104926
0.0121601
0.0137967
0.0154199
0.0170459
0.0186905
0.020371
0.0221063
0.0239201
0.0258435
0.0279122
0.0301707
0.0326674
0.035406
0.0384483
0.0417027
0.000149266
0.000421185
0.000994465
0.00179303
0.00284212
0.00417445
0.00582832
0.00771531
0.0096105
0.0114663
0.0132738
0.0150266
0.0167228
0.0183672
0.0199745
0.0215694
0.0231862
0.0248694
0.0266725
0.0286552
0.0308779
0.0333852
0.0362123
0.0393292
0.000111931
0.000363987
0.00085923
0.00154766
0.00245176
0.00359636
0.00501382
0.00674104
0.00871442
0.0107128
0.0126775
0.0145955
0.0164562
0.0182463
0.0199555
0.0215839
0.0231483
0.0246863
0.0262576
0.0279405
0.0298239
0.031993
0.0345122
0.0374002
0.000104084
0.000330274
0.000777704
0.00139338
0.00220304
0.0032268
0.00449435
0.00604079
0.00790108
0.00995249
0.0120292
0.0140822
0.0160941
0.0180488
0.0199251
0.0217025
0.0233678
0.0249268
0.0264131
0.0278953
0.0294746
0.0312721
0.0334061
0.0359799
9.01298e-05
0.00030389
0.000714983
0.00127756
0.00201976
0.00295698
0.00411564
0.00552754
0.00722934
0.00923564
0.0113778
0.0135356
0.0156709
0.0177652
0.0197983
0.0217444
0.0235757
0.0252698
0.0268226
0.0282638
0.0296697
0.0311647
0.0329045
0.0350383
8.4113e-05
0.000288421
0.000669027
0.00119151
0.00188219
0.00275384
0.00383065
0.00514202
0.00672247
0.00860886
0.0107509
0.0129781
0.0152119
0.0174229
0.0195903
0.0216895
0.0236895
0.0255562
0.0272605
0.0287922
0.0301806
0.031514
0.0329434
0.0346516
7.9927e-05
0.000280942
0.000632466
0.00112359
0.00177225
0.00259197
0.00360396
0.00483555
0.00631887
0.00809083
0.0101707
0.0124287
0.0147375
0.017045
0.0193262
0.0215575
0.0237094
0.0257456
0.027626
0.0293162
0.0308038
0.032124
0.033383
0.0347496
7.79494e-05
0.000277378
0.000603352
0.0010692
0.00168325
0.00246075
0.00342018
0.00458707
0.00599179
0.00766967
0.00965631
0.0119036
0.0142615
0.0166472
0.0190246
0.0213696
0.0236544
0.0258439
0.0278958
0.0297645
0.0314119
0.0328278
0.0340593
0.0352287
7.65701e-05
0.000275183
0.000579333
0.00102417
0.00160968
0.00235221
0.00326814
0.0043814
0.00572083
0.0073199
0.0092163
0.0114166
0.0137963
0.0162421
0.0187005
0.0211431
0.0235435
0.0258688
0.0280775
0.0301208
0.0319479
0.0335192
0.0348306
0.035941
7.58538e-05
0.000273599
0.000559614
0.000986963
0.00154863
0.00226205
0.00314153
0.00420989
0.00549448
0.00702751
0.00884568
0.0109781
0.0133532
0.0158406
0.0183661
0.0208925
0.0233934
0.0258378
0.0281867
0.0303915
0.0323966
0.0341464
0.0356016
0.0367648
7.55866e-05
0.000272534
0.00054336
0.000956033
0.00149777
0.00218671
0.00303562
0.00406604
0.00530433
0.00678114
0.00853224
0.0105935
0.0129417
0.0154526
0.0180317
0.0206302
0.0232185
0.0257675
0.0282406
0.0305913
0.0327634
0.0346941
0.0363243
0.0376214
7.57098e-05
0.000271746
0.000530006
0.000930485
0.00145549
0.00212394
0.00294705
0.00394549
0.00514444
0.00657356
0.00826721
0.010263
0.0125689
0.0150863
0.0177065
0.0203666
0.0230315
0.0256726
0.0282556
0.0307369
0.0330617
0.0351654
0.0369794
0.0384475
7.61626e-05
0.000271257
0.000519139
0.000909525
0.00142062
0.00207166
0.0028731
0.00384453
0.00501022
0.00639883
0.00804358
0.00998188
0.0122383
0.0147483
0.0173978
0.0201104
0.0228432
0.025566
0.0282469
0.0308447
0.0333078
0.0355721
0.0375649
0.0392135
7.686e-05
0.00027087
0.000510323
0.000892434
0.00139229
0.00202816
0.00281135
0.00376007
0.00489773
0.00625195
0.00785494
0.0097436
0.0119503
0.0144426
0.0171111
0.0198682
0.0226615
0.0254582
0.0282269
0.0309299
0.0335178
0.0359297
0.0380926
0.0399291
7.7862e-05
0.000270554
0.000503102
0.000878228
0.00136862
0.00199186
0.00275968
0.00368935
0.00480328
0.00612844
0.007696
0.00954199
0.0117026
0.0141702
0.0168495
0.0196439
0.0224922
0.0253564
0.0282055
0.0310038
0.0337055
0.0362523
0.0385736
0.0405898
7.90549e-05
0.000270322
0.00049724
0.000866317
0.00134875
0.00196126
0.00271618
0.00362969
0.00472368
0.00602406
0.00756148
0.0093711
0.0114903
0.0139296
0.0166129
0.019439
0.0223374
0.0252646
0.0281883
0.0310745
0.0338803
0.0365509
0.039018
0.0412014
8.04191e-05
0.00027016
0.000492554
0.000856287
0.00133189
0.00193529
0.00267919
0.00357902
0.00465591
0.00593529
0.00744686
0.00922513
0.0113081
0.0137176
0.0163995
0.0192522
0.0221969
0.0251834
0.0281775
0.0311458
0.034048
0.0368322
0.0394332
0.0417717
8.19431e-05
0.000270122
0.00048892
0.0008477
0.00131739
0.00191291
0.00264737
0.00353536
0.00459756
0.0058588
0.00734815
0.00909926
0.0111501
0.0135302
0.0162062
0.019081
0.0220683
0.0251114
0.0281724
0.0312181
0.0342102
0.0370994
0.0398227
0.0423011
8.35061e-05
0.00027015
0.000486156
0.0008403
0.00130478
0.00189336
0.00261954
0.00349726
0.00454662
0.00579201
0.00726176
0.00898911
0.0110116
0.0133633
0.0160295
0.0189219
0.0219485
0.0250455
0.0281707
0.0312904
0.0343673
0.0373549
0.0401932
0.0428084
8.51524e-05
0.000270286
0.000484168
0.000833798
0.00129352
0.00187593
0.00259475
0.00346331
0.00450126
0.00573257
0.00718509
0.00889126
0.0108884
0.013213
0.0158662
0.0187718
0.0218341
0.0249823
0.0281694
0.0313596
0.0345167
0.0375957
0.0405377
0.043265
8.68008e-05
0.000270476
0.000482744
0.000827928
0.00128335
0.00186013
0.0025723
0.00343256
0.00446025
0.00567882
0.00711572
0.00880286
0.0107768
0.013076
0.0157133
0.0186275
0.0217219
0.0249186
0.0281653
0.0314237
0.0346577
0.0378235
0.0408647
0.043708
8.84199e-05
0.000270714
0.000481755
0.000822552
0.00127395
0.00184553
0.00255154
0.00340421
0.00442248
0.0056294
0.00705199
0.00872165
0.0106745
0.0129494
0.0155687
0.018487
0.0216092
0.0248515
0.0281555
0.0314799
0.034788
0.038037
0.0411717
0.0441179
8.99972e-05
0.000270986
0.00048111
0.000817546
0.00126511
0.00183179
0.00253206
0.00337763
0.0043871
0.00558318
0.00699251
0.00864593
0.0105791
0.0128312
0.0154309
0.0183487
0.0214942
0.0247787
0.0281375
0.0315259
0.034906
0.038236
0.0414629
0.0445186
9.14933e-05
0.000271284
0.00048068
0.00081278
0.00125667
0.0018187
0.00251352
0.00335236
0.00435351
0.00553937
0.0069362
0.00857437
0.010489
0.0127193
0.0152985
0.0182115
0.0213756
0.0246983
0.0281093
0.0315593
0.0350089
0.0384166
0.0417305
0.0448818
9.29124e-05
0.000271602
0.000480418
0.000808207
0.00124855
0.00180611
0.00249572
0.0033281
0.00432128
0.0054974
0.00688232
0.00850604
0.0104031
0.0126127
0.0151707
0.018075
0.0212528
0.0246097
0.0280695
0.0315787
0.0350955
0.0385787
0.0419774
0.0452251
9.42494e-05
0.000271939
0.000480275
0.000803801
0.00124069
0.00179392
0.00247847
0.00330463
0.00429017
0.00545692
0.00683042
0.00844028
0.0103206
0.0125102
0.015047
0.0179393
0.0211261
0.0245126
0.0280179
0.0315834
0.0351651
0.0387213
0.0422028
0.0455455
9.55013e-05
0.000272291
0.000480216
0.000799549
0.00123308
0.00178211
0.00246176
0.0032819
0.00426005
0.00541776
0.00678024
0.00837676
0.010241
0.0124113
0.014927
0.0178047
0.0209957
0.0244073
0.0279543
0.0315733
0.0352173
0.038844
0.0424051
0.0458393
9.67007e-05
0.000272667
0.000480247
0.000795476
0.00122575
0.0017707
0.00244557
0.0032599
0.00423091
0.00537986
0.0067317
0.00831533
0.010164
0.0123157
0.0148106
0.0176717
0.0208626
0.0242948
0.0278796
0.0315489
0.0352527
0.0389477
0.0425862
0.046108
9.78459e-05
0.000273066
0.000480365
0.000791596
0.00121873
0.00175972
0.00242997
0.00323866
0.00420275
0.00534325
0.00668483
0.00825601
0.0100897
0.0122235
0.0146978
0.0175409
0.0207278
0.0241759
0.0277943
0.0315105
0.0352711
0.0390319
0.0427458
0.0463532
9.89129e-05
0.000273474
0.000480497
0.000787889
0.00121204
0.0017493
0.00241497
0.00321819
0.00417562
0.00530801
0.00663972
0.00819894
0.0100182
0.0121347
0.014589
0.0174131
0.0205928
0.0240524
0.0277001
0.0314594
0.0352735
0.0390966
0.0428827
0.0465775
9.99272e-05
0.000273896
0.00048066
0.000784353
0.00120567
0.00173943
0.00240059
0.00319854
0.00414957
0.00527418
0.00659644
0.00814424
0.00994973
0.0120497
0.0144847
0.0172895
0.0204592
0.0239264
0.0275992
0.0313977
0.0352614
0.0391426
0.0429953
0.0467653
0.000100899
0.00027432
0.000480828
0.000780962
0.00119956
0.00172996
0.00238681
0.00317973
0.00412464
0.00524181
0.00655506
0.00809198
0.00988434
0.0119686
0.0143851
0.0171708
0.0203288
0.0238004
0.0274948
0.031329
0.035239
0.0391746
0.043089
0.0469276
0.00010185
0.000274762
0.000481047
0.000777769
0.00119377
0.00172096
0.00237367
0.00316179
0.00410088
0.00521095
0.00651559
0.00804214
0.00982202
0.0118913
0.0142903
0.0170574
0.0202027
0.023676
0.0273891
0.0312565
0.0352105
0.0391988
0.0431737
0.0470821
0.000102763
0.0002752
0.000481264
0.000774745
0.00118826
0.0017124
0.0023612
0.00314476
0.0040783
0.00518159
0.00647804
0.00799469
0.00976269
0.0118178
0.0142001
0.0169492
0.020081
0.0235542
0.0272837
0.0311822
0.0351788
0.0392186
0.0432536
0.0472318
0.000103654
0.000275642
0.000481499
0.000771906
0.00118308
0.00170433
0.00234942
0.00312864
0.0040569
0.00515377
0.00644241
0.00794963
0.0097063
0.0117478
0.0141142
0.0168457
0.0199635
0.0234348
0.0271785
0.0311062
0.0351439
0.0392342
0.0433282
0.0473747
0.000104527
0.000276089
0.000481752
0.000769251
0.00117822
0.00169675
0.00233835
0.00311347
0.00403675
0.00512753
0.00640875
0.00790699
0.00965286
0.0116814
0.0140324
0.0167469
0.0198501
0.0233175
0.0270731
0.0310278
0.0351049
0.0392445
0.0433968
0.0475108
0.000105384
0.000276538
0.00048202
0.000766773
0.00117367
0.00168965
0.00232797
0.00309924
0.00401783
0.00510288
0.00637709
0.00786683
0.00960242
0.0116187
0.013955
0.0166528
0.019741
0.0232027
0.0269676
0.0309466
0.0350605
0.0392471
0.0434554
0.0476369
0.000106231
0.000276988
0.000482301
0.000764461
0.00116941
0.00168301
0.00231825
0.00308593
0.00400014
0.0050798
0.00634744
0.00782918
0.00955508
0.0115596
0.013882
0.0165639
0.0196369
0.0230914
0.0268629
0.0308634
0.0350112
0.039241
0.0434999
0.0477381
0.000107067
0.000277434
0.000482586
0.000762303
0.00116543
0.00167679
0.00230916
0.0030735
0.00398361
0.00505826
0.00631976
0.00779402
0.00951084
0.0115044
0.0138137
0.0164804
0.0195385
0.0229848
0.0267611
0.0307807
0.0349598
0.0392303
0.0435363
0.0478251
0.000107885
0.000277872
0.000482864
0.000760286
0.0011617
0.00167098
0.00230067
0.00306188
0.00396818
0.00503815
0.00629393
0.00776122
0.00946959
0.0114529
0.0137499
0.0164025
0.0194462
0.022884
0.0266637
0.0307007
0.0349098
0.0392198
0.0435728
0.0479142
0.000108702
0.000278306
0.000483149
0.0007584
0.00115821
0.00166554
0.00229272
0.00305102
0.00395379
0.00501941
0.00626987
0.00773069
0.0094312
0.011405
0.0136906
0.0163298
0.01936
0.022789
0.0265714
0.0306248
0.0348629
0.0392126
0.0436146
0.0480168
0.000109521
0.000278735
0.000483449
0.000756639
0.00115494
0.00166044
0.00228528
0.00304087
0.00394033
0.00500191
0.00624744
0.00770223
0.00939543
0.0113604
0.0136354
0.0162621
0.0192794
0.0226998
0.026484
0.0305526
0.0348187
0.0392066
0.0436549
0.0481094
0.00011032
0.000279149
0.000483726
0.000754975
0.00115185
0.00165563
0.00227827
0.00303132
0.0039277
0.00498552
0.00622645
0.00767565
0.00936205
0.0113189
0.0135839
0.0161991
0.0192042
0.022616
0.0264015
0.0304844
0.0347776
0.0392031
0.0436972
0.0482061
0.000111088
0.000279546
0.000483964
0.0007534
0.00114893
0.00165109
0.00227165
0.00302231
0.0039158
0.00497009
0.00620673
0.00765071
0.0093308
0.01128
0.0135358
0.0161401
0.0191337
0.0225371
0.0263232
0.0304196
0.0347391
0.0392019
0.0437421
0.0483016
0.000111855
0.000279926
0.00048419
0.000751925
0.00114618
0.00164679
0.00226538
0.00301378
0.00390454
0.00495551
0.00618813
0.00762723
0.00930141
0.0112434
0.0134907
0.0160849
0.0190676
0.0224626
0.0262487
0.0303576
0.0347023
0.0392017
0.0437884
0.048406
0.000112651
0.000280302
0.000484465
0.000750573
0.0011436
0.00164273
0.00225944
0.00300569
0.00389385
0.00494167
0.00617046
0.00760495
0.00927358
0.0112089
0.0134482
0.016033
0.0190053
0.0223922
0.0261778
0.0302979
0.0346662
0.0392003
0.0438313
0.0485026
0.000113436
0.000280665
0.000484743
0.000749291
0.00114116
0.0016389
0.00225382
0.002998
0.00388367
0.00492846
0.00615359
0.00758369
0.00924704
0.0111761
0.0134078
0.0159837
0.0189465
0.0223255
0.0261104
0.0302408
0.0346313
0.0391977
0.0438692
0.0485881
0.000114189
0.000281021
0.000485
0.000748091
0.00113886
0.00163528
0.0022485
0.00299069
0.00387396
0.00491583
0.00613744
0.0075633
0.00922157
0.0111445
0.0133691
0.0159366
0.0188902
0.0222618
0.0260459
0.0301864
0.0345988
0.039197
0.0439065
0.0486628
0.000114927
0.000281368
0.000485255
0.000746976
0.00113672
0.00163188
0.00224348
0.00298378
0.00386472
0.00490378
0.00612198
0.00754371
0.00919704
0.0111141
0.0133317
0.0158911
0.0188358
0.0222
0.025983
0.0301335
0.034568
0.0391998
0.0439531
0.0487656
0.000115636
0.000281701
0.000485486
0.000745932
0.0011347
0.00162869
0.00223874
0.00297723
0.00385597
0.00489233
0.00610721
0.00752492
0.00917342
0.0110847
0.0132954
0.0158468
0.0187827
0.0221393
0.0259205
0.0300799
0.0345357
0.0392
0.0439947
0.0488546
0.000116338
0.000282024
0.000485707
0.000744968
0.00113284
0.00162571
0.00223429
0.00297108
0.00384773
0.00488149
0.00609318
0.00750699
0.00915078
0.0110564
0.0132603
0.0158036
0.0187307
0.0220791
0.0258575
0.0300245
0.0345006
0.0391969
0.0440333
0.0489434
0.00011705
0.000282346
0.000485953
0.00074409
0.0011311
0.00162292
0.00223014
0.00296531
0.00383998
0.00487126
0.00607991
0.00748999
0.00912921
0.0110293
0.0132265
0.0157619
0.0186798
0.0220196
0.0257941
0.029967
0.0344616
0.0391885
0.044066
0.0490261
0.000117749
0.000282653
0.00048619
0.000743277
0.00112949
0.00162033
0.00222625
0.00295994
0.00383272
0.00486168
0.00606736
0.0074739
0.00910877
0.0110035
0.0131942
0.0157218
0.0186306
0.0219614
0.0257306
0.0299074
0.034418
0.0391729
0.0440878
0.0490905
0.000118425
0.000282957
0.000486412
0.000742525
0.00112795
0.00161788
0.00222261
0.00295483
0.00382583
0.00485263
0.00605568
0.00745881
0.00908962
0.0109793
0.0131638
0.0156839
0.0185839
0.0219055
0.0256687
0.0298476
0.0343719
0.0391523
0.0441033
0.0491504
0.000119101
0.000283246
0.000486639
0.000741823
0.00112654
0.00161556
0.00221916
0.00295006
0.00381942
0.00484408
0.0060446
0.00744468
0.00907152
0.0109565
0.0131352
0.0156482
0.0185399
0.0218529
0.0256097
0.0297897
0.0343259
0.03913
0.044115
0.0492071
0.000119775
0.000283543
0.000486892
0.000741214
0.00112524
0.00161347
0.00221597
0.0029456
0.00381336
0.00483612
0.00603418
0.00743129
0.00905457
0.010935
0.0131084
0.0156148
0.0184989
0.0218035
0.0255546
0.0297354
0.0342826
0.0391085
0.0441252
0.049257
0.000120421
0.000283823
0.000487122
0.000740635
0.00112405
0.00161152
0.00221301
0.00294139
0.00380769
0.00482859
0.00602441
0.00741872
0.00903848
0.0109149
0.0130831
0.0155834
0.0184602
0.0217574
0.0255031
0.0296851
0.0342433
0.0390907
0.0441375
0.0493025
0.000121065
0.000284076
0.000487331
0.000740177
0.00112302
0.00160976
0.00221028
0.00293758
0.00380244
0.00482155
0.00601513
0.00740674
0.00902333
0.0108956
0.0130591
0.0155536
0.0184235
0.0217137
0.0254544
0.0296378
0.0342075
0.0390777
0.0441585
0.0493703
0.000121708
0.000284346
0.000487576
0.000739737
0.00112206
0.00160816
0.00220781
0.002934
0.0037975
0.00481495
0.0060065
0.00739548
0.00900886
0.0108774
0.0130362
0.0155252
0.0183887
0.0216718
0.0254075
0.0295918
0.0341724
0.0390646
0.0441775
0.0494297
0.000122284
0.000284604
0.000487768
0.000739403
0.00112128
0.00160676
0.00220561
0.0029308
0.00379305
0.00480886
0.00599835
0.00738486
0.00899517
0.01086
0.0130143
0.0154979
0.0183551
0.0216317
0.0253621
0.0295468
0.034137
0.0390497
0.0441927
0.049483
0.000122924
0.000284873
0.000488058
0.000739185
0.00112065
0.00160563
0.00220373
0.00292803
0.00378904
0.00480336
0.00599094
0.00737501
0.00898243
0.0108436
0.0129935
0.0154718
0.0183229
0.0215928
0.0253181
0.0295028
0.0341022
0.0390343
0.044206
0.049531
0.00012352
0.000285125
0.000488327
0.000739006
0.00112014
0.00160465
0.00220212
0.00292555
0.00378552
0.00479835
0.00598412
0.00736599
0.00897046
0.0108282
0.0129737
0.0154469
0.0182919
0.0215552
0.0252752
0.0294598
0.0340682
0.0390202
0.0442218
0.0495827
0.000124104
0.000285352
0.000488559
0.000738905
0.00111976
0.00160392
0.00220078
0.0029235
0.00378247
0.00479405
0.0059781
0.00735779
0.0089596
0.0108138
0.0129553
0.0154232
0.0182621
0.0215187
0.0252329
0.0294168
0.0340338
0.0390064
0.0442413
0.0496515
0.000124699
0.000285602
0.000488849
0.000738868
0.0011195
0.00160335
0.00219975
0.00292181
0.0037799
0.00479034
0.00597292
0.00735058
0.00894982
0.0108008
0.0129382
0.0154011
0.0182338
0.0214835
0.0251915
0.0293729
0.0339964
0.0389868
0.0442504
0.0496956
0.000125223
0.00028584
0.000489058
0.000738904
0.0011194
0.00160296
0.00219898
0.00292052
0.00377789
0.00478728
0.00596845
0.00734433
0.00894125
0.0107893
0.0129228
0.0153809
0.0182075
0.0214503
0.0251514
0.0293296
0.0339571
0.0389624
0.0442517
0.0497317
0.000125781
0.000286079
0.000489323
0.000739043
0.00111943
0.00160286
0.00219854
0.00291966
0.00377635
0.0047849
0.0059649
0.00733916
0.00893406
0.0107794
0.0129094
0.015363
0.0181841
0.02142
0.0251145
0.0292885
0.0339192
0.0389372
0.0442507
0.0497653
0.000126334
0.000286303
0.000489586
0.000739242
0.00111962
0.00160293
0.00219841
0.00291913
0.00377533
0.00478306
0.00596204
0.007335
0.00892795
0.0107709
0.0128977
0.0153474
0.0181634
0.0213933
0.0250814
0.0292515
0.0338843
0.0389144
0.0442504
0.0498008
0.00012691
0.000286542
0.0004899
0.000739565
0.00111997
0.00160327
0.00219857
0.00291903
0.00377478
0.00478193
0.00595999
0.00733174
0.00892318
0.010764
0.0128882
0.0153341
0.0181458
0.0213702
0.0250527
0.0292193
0.0338541
0.0388942
0.0442499
0.0498291
0.000127478
0.000286788
0.000490225
0.000739945
0.00112046
0.00160381
0.00219906
0.00291931
0.00377476
0.00478141
0.00595877
0.00732946
0.00891945
0.0107585
0.0128802
0.0153232
0.0181308
0.0213507
0.0250284
0.0291923
0.0338295
0.0388791
0.0442507
0.0498505
0.000127988
0.000286991
0.000490478
0.000740459
0.00112119
0.00160465
0.00219991
0.00292013
0.00377535
0.00478159
0.00595825
0.00732806
0.00891688
0.0107543
0.0128739
0.0153141
0.0181183
0.0213342
0.0250081
0.0291707
0.033812
0.0388728
0.0442603
0.0498681
0.000128528
0.000287217
0.000490789
0.000741085
0.00112205
0.00160573
0.00220115
0.00292136
0.00377645
0.00478245
0.00595871
0.00732772
0.00891552
0.0107514
0.0128691
0.0153069
0.018108
0.0213202
0.0249909
0.0291529
0.0338004
0.0388773
0.0442939
0.0499523
0.000129073
0.000287431
0.000491124
0.000741824
0.00112316
0.00160712
0.00220279
0.00292315
0.00377829
0.00478408
0.00596002
0.00732854
0.00891533
0.01075
0.0128658
0.0153013
0.0180994
0.0213082
0.0249756
0.0291368
0.0337896
0.0388818
0.0443251
0.0500227
0.000129628
0.000287657
0.000491501
0.000742718
0.00112449
0.00160888
0.00220487
0.00292553
0.00378078
0.00478664
0.00596237
0.00733047
0.00891662
0.0107501
0.0128644
0.0152976
0.018093
0.0212982
0.0249623
0.0291222
0.0337791
0.0388835
0.0443475
0.0500699
0.000130162
0.00028787
0.000491884
0.000743719
0.00112606
0.00161093
0.00220741
0.00292843
0.00378405
0.00479005
0.00596584
0.00733376
0.00891932
0.010752
0.0128649
0.0152962
0.0180888
0.0212908
0.0249515
0.0291098
0.0337708
0.0388881
0.0443751
0.0501315
0.000130702
0.000288059
0.000492267
0.000744876
0.00112783
0.00161335
0.0022104
0.00293197
0.00378803
0.00479443
0.0059704
0.00733832
0.00892371
0.0107556
0.0128676
0.0152971
0.0180873
0.0212862
0.0249435
0.0291003
0.0337647
0.0388941
0.0444035
0.0501943
0.000131247
0.000288266
0.0004927