/*--------------------------------*- C++ -*----------------------------------*\
| =========                 |                                                 |
| \\      /  F ield         | OpenFOAM: The Open Source CFD Toolbox           |
|  \\    /   O peration     | Version:  2.3.0                                 |
|   \\  /    A nd           | Web:      www.OpenFOAM.org                      |
|    \\/     M anipulation  |                                                 |
\*---------------------------------------------------------------------------*/
FoamFile
{
    version     2.0;
    format      ascii;
    class       volScalarField;
    location    "8000";
    object      nuTilda;
}
// * * * * * * * * * * * * * * * * * * * * * * * * * * * * * * * * * * * * * //

dimensions      [0 2 -1 0 0 0 0];

internalField   nonuniform List<scalar> 
14769
(
0.0520727
0.048943
0.0459097
0.0429976
0.0402254
0.0376144
0.0351846
0.0329592
0.0309647
0.0292032
0.0275481
0.025923
0.0243499
0.0228428
0.021403
0.0200255
0.0187023
0.0174274
0.0161927
0.0149927
0.0138164
0.0126552
0.0115237
0.010653
0.0559371
0.0533313
0.0508162
0.0483984
0.0460828
0.0438721
0.04177
0.03978
0.0379061
0.0361511
0.0345138
0.0329915
0.0315877
0.0303085
0.0291611
0.0281513
0.027286
0.0265705
0.0260112
0.025612
0.025377
0.025306
0.0253993
0.0256536
0.0594017
0.0572261
0.0551331
0.0531257
0.0512064
0.0493771
0.0476389
0.0459942
0.0444457
0.0429949
0.0416446
0.0403983
0.0392592
0.0382318
0.0373209
0.0365311
0.0358672
0.035334
0.0349345
0.0346714
0.0345442
0.0345526
0.0346905
0.0349509
0.0624926
0.0606687
0.0589163
0.057237
0.0556323
0.0541025
0.0526495
0.0512741
0.0499784
0.0487644
0.0476346
0.0465925
0.0456414
0.0447846
0.0440274
0.0433732
0.0428265
0.0423916
0.0420711
0.0418674
0.0417804
0.0418098
0.0419529
0.0422041
0.0652438
0.0637028
0.0622242
0.060806
0.0594481
0.058152
0.0569182
0.0557485
0.0546438
0.0536065
0.0526388
0.0517445
0.050926
0.0501881
0.0495345
0.0489704
0.0484994
0.0481257
0.0478529
0.0476835
0.0476189
0.0476587
0.0478015
0.0480443
0.0676746
0.0663708
0.065114
0.0639039
0.0627411
0.061627
0.0605629
0.0595511
0.0585925
0.0576893
0.0568438
0.0560583
0.0553374
0.0546851
0.0541057
0.053604
0.0531847
0.0528523
0.0526103
0.0524622
0.0524103
0.0524549
0.0525957
0.0528308
0.0698293
0.0687175
0.0676397
0.0665967
0.0655891
0.0646184
0.0636868
0.0627968
0.0619513
0.0611513
0.0603996
0.059698
0.0590511
0.0584627
0.057938
0.0574821
0.0570999
0.0567961
0.0565754
0.0564414
0.0563973
0.0564444
0.0565825
0.0568108
0.0717393
0.0707836
0.0698501
0.0689422
0.0680598
0.0672039
0.0663762
0.0655809
0.0648228
0.0641046
0.0634267
0.0627915
0.0622026
0.0616641
0.0611808
0.0607602
0.060406
0.060123
0.0599162
0.059792
0.0597529
0.059801
0.0599363
0.0601585
0.0734303
0.0726065
0.0717874
0.0709898
0.0702101
0.0694477
0.0687043
0.0679811
0.0672912
0.0666363
0.0660183
0.0654376
0.0648957
0.0643995
0.0639463
0.0635531
0.0632227
0.0629572
0.0627574
0.0626393
0.0626036
0.0626518
0.0627848
0.0630016
0.0749343
0.0742298
0.0734876
0.072779
0.0720863
0.0714003
0.0707333
0.0700597
0.0694187
0.0688102
0.068238
0.0677074
0.0672037
0.066758
0.066321
0.0659481
0.0656362
0.0653933
0.0651924
0.0650787
0.0650439
0.065092
0.0652236
0.0654355
0.0116799
0.0139167
0.015412
0.0168695
0.0184531
0.0201974
0.022104
0.024161
0.0263547
0.0286721
0.0311024
0.033637
0.0362686
0.0389908
0.041798
0.0446844
0.0476437
0.0506694
0.0537542
0.056891
0.0600714
0.0632868
0.0665276
0.0697836
0.0260528
0.0266096
0.0273494
0.0282733
0.0293799
0.0306627
0.0321115
0.0337137
0.0354569
0.0373282
0.0393153
0.0414081
0.0435963
0.0458709
0.0482244
0.0506505
0.0531424
0.0556942
0.0583002
0.0609545
0.0636514
0.0663848
0.0691486
0.0719443
0.0353226
0.0358172
0.036454
0.037236
0.0381616
0.0392272
0.0404269
0.0417531
0.0431973
0.0447511
0.0464049
0.0481508
0.0499807
0.0518876
0.0538645
0.0559063
0.058007
0.0601619
0.0623662
0.0646154
0.0669049
0.0692304
0.0715883
0.0739837
0.0425569
0.043018
0.0435993
0.0443017
0.0451231
0.0460607
0.0471094
0.048263
0.049514
0.0508561
0.0522814
0.0537832
0.0553542
0.0569892
0.0586826
0.0604294
0.0622254
0.0640665
0.0659492
0.0678698
0.0698252
0.0718126
0.0738297
0.0758828
0.0483826
0.0488203
0.0493646
0.0500143
0.0507668
0.0516189
0.0525656
0.0536006
0.0547173
0.0559095
0.0571703
0.0584935
0.0598731
0.061304
0.0627818
0.0643019
0.0658609
0.0674552
0.0690819
0.0707386
0.0724227
0.0741325
0.0758666
0.0776336
0.0531567
0.0535761
0.0540921
0.0547029
0.0554055
0.0561957
0.0570686
0.0580179
0.0590364
0.0601183
0.0612568
0.0624461
0.0636808
0.0649563
0.0662686
0.0676134
0.0689871
0.0703871
0.0718105
0.0732554
0.07472
0.0762031
0.0777036
0.0792311
0.0571266
0.0575308
0.0580243
0.0586045
0.0592686
0.0600118
0.0608288
0.0617132
0.0626576
0.063655
0.0646994
0.0657849
0.0669071
0.0680618
0.0692448
0.0704523
0.07168
0.0729254
0.0741861
0.0754602
0.0767464
0.0780441
0.0793526
0.0806777
0.0604658
0.0608576
0.0613322
0.0618877
0.0625202
0.063226
0.0639998
0.0648344
0.0657212
0.0666522
0.0676212
0.0686237
0.0696565
0.070716
0.0717972
0.0728951
0.0740062
0.0751274
0.0762565
0.0773916
0.0785318
0.0796773
0.0808271
0.0819834
0.0633011
0.0636845
0.0641406
0.0646753
0.0652807
0.0659562
0.0666963
0.0674932
0.0683357
0.0692114
0.0701171
0.0710511
0.0720121
0.0729958
0.0739964
0.0750055
0.0760223
0.0770423
0.0780639
0.0790847
0.0801035
0.0811241
0.0821428
0.083155
0.0657216
0.0661037
0.0665352
0.067054
0.0676356
0.0682891
0.0690042
0.0697707
0.0705739
0.0713932
0.0722442
0.07312
0.0740251
0.0749504
0.0758871
0.0768216
0.0777633
0.0787
0.079634
0.0805585
0.0814697
0.0823909
0.0833286
0.0842145
0.0749316
0.069408
0.0642308
0.0593335
0.054677
0.0502361
0.0459959
0.0419495
0.0380942
0.0344302
0.0309588
0.0276838
0.02461
0.0217419
0.0190816
0.0166276
0.014376
0.012322
0.0104806
0.00890836
0.00767586
0.00646167
0.00514722
0.00361698
0.0775557
0.0728115
0.0683502
0.0641118
0.060059
0.056166
0.0524184
0.0488083
0.0453337
0.0419954
0.0387954
0.0357366
0.0328259
0.0300795
0.0275281
0.0252105
0.0231105
0.0211233
0.0191539
0.0171472
0.015078
0.0128998
0.0105523
0.00795569
0.0803718
0.076352
0.0725706
0.068973
0.0655234
0.0621959
0.0589736
0.0558491
0.0528231
0.0499003
0.0470855
0.0443775
0.0417658
0.0392339
0.0367605
0.0343268
0.031907
0.0294711
0.0269797
0.0243904
0.02166
0.018747
0.0156083
0.012198
0.083298
0.0799443
0.0767935
0.0737961
0.0709185
0.0681272
0.065393
0.0626987
0.0600361
0.0574015
0.0547916
0.0522015
0.049623
0.0470437
0.0444479
0.0418153
0.0391245
0.0363497
0.0334602
0.0304207
0.0271926
0.0237354
0.0200092
0.0159781
0.0862803
0.0835151
0.0809204
0.0784306
0.075991
0.0735677
0.0711421
0.068703
0.066244
0.0637615
0.0612502
0.0587044
0.056116
0.0534737
0.0507636
0.0479686
0.0450676
0.0420351
0.0388434
0.0354582
0.0318424
0.0279571
0.0237641
0.0192265
0.0892347
0.0869668
0.0847884
0.0826366
0.0804775
0.0782914
0.0760662
0.0737931
0.0714675
0.0690829
0.0666338
0.0641139
0.0615136
0.0588213
0.0560229
0.0531011
0.0500352
0.0468015
0.0433697
0.0397067
0.0357763
0.0315394
0.0269562
0.0219892
0.0920628
0.0901506
0.0882469
0.0863213
0.0843553
0.0823366
0.0802551
0.0781033
0.0758746
0.0735629
0.0711616
0.0686623
0.0660537
0.0633239
0.0604574
0.0574362
0.0542397
0.050842
0.0472139
0.0433212
0.039128
0.0345932
0.0296761
0.0243371
0.0946704
0.0929861
0.0912746
0.0895146
0.0876933
0.0858018
0.0838313
0.0817732
0.0796216
0.0773688
0.075007
0.0725256
0.0699133
0.067155
0.064235
0.0611345
0.0578314
0.0542994
0.0505066
0.0464196
0.042003
0.0372118
0.0320028
0.0263368
0.0969946
0.0954766
0.0939097
0.0922783
0.0905738
0.0887843
0.0869027
0.0849194
0.082831
0.0806285
0.078301
0.0758378
0.0732252
0.0704436
0.06748
0.0643132
0.0609224
0.057279
0.0533486
0.0490918
0.0444847
0.0394725
0.0340067
0.0280472
0.0990454
0.0976537
0.0962022
0.094671
0.0930711
0.0913666
0.0895613
0.087634
0.0855958
0.0834375
0.0811438
0.0786977
0.0760918
0.073287
0.070286
0.0670592
0.0635933
0.0598597
0.055826
0.0514047
0.0466388
0.041444
0.0357503
0.02952
0.00185503
0.000911402
0.00111652
0.00141377
0.00169725
0.00198286
0.00228876
0.00264185
0.00308013
0.00364626
0.00432498
0.00510552
0.00598791
0.00697685
0.0080797
0.00930399
0.0106572
0.0121474
0.0137835
0.015575
0.0175314
0.0196618
0.0219762
0.0244886
0.00502388
0.00233391
0.00148664
0.00171161
0.00201968
0.00235328
0.0027354
0.00319135
0.0037424
0.00440796
0.00516508
0.00600829
0.00693984
0.00796415
0.00908674
0.0103131
0.0116494
0.0131021
0.0146788
0.0163871
0.0182351
0.0202313
0.022384
0.0246939
0.00844275
0.0045243
0.00215033
0.00201271
0.00235766
0.00276599
0.00324388
0.00380415
0.00445355
0.00520191
0.00602602
0.00692386
0.00789795
0.00895152
0.0100886
0.0113128
0.012629
0.0140425
0.0155591
0.0171854
0.0189278
0.0207933
0.0227893
0.0249246
0.0115696
0.00683164
0.00312715
0.00234281
0.00270981
0.00320453
0.003778
0.00443101
0.00516437
0.00598172
0.00686313
0.00780784
0.0088179
0.00989526
0.011042
0.0122608
0.0135555
0.0149304
0.0163896
0.0179385
0.0195821
0.0213259
0.023174
0.0251233
0.0142762
0.00892363
0.00424848
0.00272128
0.00307218
0.00365215
0.0043118
0.0050434
0.00585178
0.0067281
0.00765942
0.00864476
0.00968523
0.0107815
0.0119344
0.0131463
0.0144195
0.0157571
0.0171628
0.0186399
0.0201923
0.0218237
0.0235374
0.025339
0.0165765
0.0107236
0.00535284
0.0031412
0.00343776
0.0040952
0.00483047
0.00563153
0.00650479
0.00743291
0.00840795
0.00942895
0.0104952
0.0116065
0.0127635
0.0139673
0.0152197
0.0165225
0.0178782
0.0192892
0.020758
0.0222876
0.0238817
0.0255473
0.0185214
0.0122436
0.00635369
0.00357999
0.00379879
0.00452409
0.00532634
0.0061903
0.00711897
0.00809288
0.00910664
0.0101583
0.0112464
0.0123702
0.0135296
0.0147251
0.0159575
0.0172279
0.0185377
0.0198883
0.0212813
0.0227192
0.0242053
0.025745
0.0201664
0.0135235
0.00722603
0.0040128
0.00415114
0.00493454
0.00579501
0.00671627
0.00769247
0.00870684
0.0097548
0.0108332
0.0119401
0.0130742
0.0142351
0.0154225
0.0166364
0.017877
0.0191448
0.0204403
0.0217646
0.0231195
0.0245069
0.0259283
0.0215561
0.0145915
0.00797927
0.00443498
0.00447758
0.00530944
0.00622467
0.00720008
0.00822022
0.00927216
0.0103517
0.011455
0.0125798
0.0137242
0.014887
0.0160674
0.0172643
0.0184771
0.0197056
0.0209504
0.022212
0.0234914
0.0247892
0.0261036
0.0227082
0.0153903
0.00842975
0.00470695
0.00484362
0.00575111
0.00670726
0.00772321
0.00877871
0.00986698
0.0109762
0.0120994
0.013237
0.0143872
0.0155453
0.0167137
0.0178878
0.0190638
0.0202469
0.0214366
0.0226354
0.0238481
0.0250707
0.0262879
0.000416088
0.00140007
0.00293422
0.00474761
0.00656331
0.00835999
0.0101523
0.0119418
0.0137302
0.0155202
0.0173159
0.0191232
0.0209472
0.0227903
0.024654
0.026568
0.0285964
0.030773
0.0330604
0.03557
0.0384214
0.0415374
0.0448467
0.0482878
0.000315823
0.000822687
0.00190993
0.00340879
0.00500726
0.0065854
0.00815166
0.00972595
0.0113283
0.0129692
0.0146504
0.0163724
0.0181362
0.019943
0.0217959
0.0237055
0.0256976
0.0278039
0.0300411
0.0324679
0.0351509
0.0380213
0.04125
0.0447654
0.000168616
0.000514593
0.00121607
0.00220948
0.00350909
0.00514065
0.00698731
0.00877405
0.0104926
0.0121601
0.0137967
0.0154199
0.0170459
0.0186905
0.020371
0.0221063
0.0239201
0.0258435
0.0279122
0.0301707
0.0326674
0.035406
0.0384483
0.0417027
0.000182915
0.000428567
0.000995854
0.00179346
0.00284229
0.00417453
0.00582836
0.00771533
0.00961051
0.0114663
0.0132738
0.0150266
0.0167228
0.0183672
0.0199746
0.0215694
0.0231862
0.0248694
0.0266725
0.0286552
0.0308779
0.0333852
0.0362123
0.0393292
0.000154115
0.000373615
0.000861087
0.00154823
0.00245199
0.00359646
0.00501388
0.00674108
0.00871444
0.0107128
0.0126775
0.0145955
0.0164562
0.0182463
0.0199555
0.0215839
0.0231483
0.0246863
0.0262576
0.0279405
0.0298239
0.031993
0.0345122
0.0374002
0.000148199
0.000341696
0.000779965
0.00139409
0.00220333
0.00322693
0.00449442
0.00604083
0.0079011
0.00995251
0.0120292
0.0140822
0.0160941
0.0180488
0.0199251
0.0217025
0.0233678
0.0249268
0.0264131
0.0278953
0.0294746
0.0312721
0.0334061
0.0359799
0.000137725
0.000317046
0.000717652
0.0012784
0.0020201
0.00295714
0.00411572
0.00552759
0.00722937
0.00923566
0.0113778
0.0135356
0.015671
0.0177653
0.0197983
0.0217444
0.0235757
0.0252698
0.0268226
0.0282638
0.0296697
0.0311647
0.0329045
0.0350383
0.000133207
0.00030276
0.000672068
0.00119248
0.00188258
0.00275402
0.00383074
0.00514208
0.00672251
0.00860888
0.010751
0.0129781
0.0152119
0.0174229
0.0195903
0.0216895
0.0236895
0.0255562
0.0272605
0.0287922
0.0301806
0.031514
0.0329434
0.0346516
0.000130055
0.000295904
0.00063586
0.00112468
0.00177269
0.00259217
0.00360407
0.0048356
0.0063189
0.00809085
0.0101707
0.0124287
0.0147375
0.017045
0.0193262
0.0215575
0.0237094
0.0257456
0.027626
0.0293162
0.0308038
0.032124
0.033383
0.0347496
0.000128562
0.000292648
0.000607073
0.0010704
0.00168373
0.00246098
0.0034203
0.00458714
0.00599182
0.00766969
0.00965633
0.0119036
0.0142615
0.0166472
0.0190246
0.0213696
0.0236544
0.0258439
0.0278958
0.0297645
0.0314119
0.0328278
0.0340593
0.0352287
0.000127518
0.000290647
0.000583359
0.00102548
0.00161021
0.00235246
0.00326827
0.00438148
0.00572088
0.00731993
0.00921632
0.0114166
0.0137963
0.0162422
0.0187005
0.0211431
0.0235435
0.0258688
0.0280775
0.0301208
0.0319479
0.0335192
0.0348306
0.035941
0.000126976
0.000289206
0.000563919
0.000988373
0.0015492
0.00226232
0.00314167
0.00420997
0.00549453
0.00702754
0.0088457
0.0109781
0.0133532
0.0158406
0.0183661
0.0208925
0.0233934
0.0258378
0.0281867
0.0303915
0.0323966
0.0341464
0.0356016
0.0367648
0.000126774
0.000288237
0.000547917
0.000957535
0.00149838
0.002187
0.00303577
0.00406612
0.00530438
0.00678117
0.00853226
0.0105935
0.0129417
0.0154526
0.0180317
0.0206302
0.0232185
0.0257675
0.0282406
0.0305913
0.0327634
0.0346941
0.0363243
0.0376214
0.000126867
0.000287522
0.000534787
0.000932071
0.00145614
0.00212424
0.00294721
0.00394557
0.00514449
0.00657359
0.00826723
0.0102631
0.0125689
0.0150863
0.0177065
0.0203666
0.0230315
0.0256726
0.0282556
0.0307369
0.0330617
0.0351654
0.0369794
0.0384475
0.000127211
0.000287078
0.000524114
0.000911183
0.00142131
0.00207198
0.00287327
0.00384462
0.00501028
0.00639887
0.00804361
0.0099819
0.0122383
0.0147483
0.0173978
0.0201104
0.0228432
0.025566
0.0282469
0.0308447
0.0333078
0.0355721
0.0375649
0.0392135
0.00012774
0.000286726
0.000515464
0.000894156
0.001393
0.0020285
0.00281152
0.00376017
0.00489779
0.00625198
0.00785496
0.00974361
0.0119503
0.0144426
0.0171112
0.0198682
0.0226616
0.0254582
0.0282269
0.0309299
0.0335178
0.0359297
0.0380926
0.0399291
0.000128499
0.000286439
0.000508385
0.000880006
0.00136935
0.00199221
0.00275987
0.00368945
0.00480334
0.00612848
0.00769603
0.00954201
0.0117026
0.0141702
0.0168495
0.0196439
0.0224922
0.0253564
0.0282055
0.0310038
0.0337055
0.0362523
0.0385736
0.0405898
0.000129401
0.000286229
0.000502643
0.000868144
0.00134951
0.00196162
0.00271637
0.0036298
0.00472374
0.0060241
0.0075615
0.00937111
0.0114903
0.0139296
0.0166129
0.019439
0.0223374
0.0252646
0.0281883
0.0310745
0.0338803
0.0365509
0.039018
0.0412014
0.000130431
0.000286082
0.000498055
0.000858156
0.00133266
0.00193566
0.00267939
0.00357913
0.00465598
0.00593533
0.00744688
0.00922514
0.0113081
0.0137176
0.0163996
0.0192522
0.0221969
0.0251834
0.0281775
0.0311458
0.034048
0.0368322
0.0394332
0.0417717
0.00013158
0.000286047
0.000494499
0.000849607
0.00131818
0.00191328
0.00264757
0.00353547
0.00459763
0.00585884
0.00734818
0.00909927
0.0111501
0.0135302
0.0162062
0.019081
0.0220683
0.0251114
0.0281724
0.0312181
0.0342102
0.0370994
0.0398227
0.0423011
0.000132757
0.000286073
0.000491795
0.00084224
0.00130559
0.00189374
0.00261974
0.00349738
0.00454669
0.00579205
0.00726178
0.00898913
0.0110116
0.0133633
0.0160295
0.0189219
0.0219485
0.0250455
0.0281707
0.0312904
0.0343673
0.0373549
0.0401932
0.0428084
0.000133996
0.000286196
0.000489852
0.000835768
0.00129435
0.00187632
0.00259496
0.00346342
0.00450132
0.00573261
0.00718512
0.00889128
0.0108884
0.013213
0.0158662
0.0187718
0.0218341
0.0249823
0.0281694
0.0313596
0.0345167
0.0375957
0.0405377
0.043265
0.000135235
0.000286369
0.00048846
0.000829927
0.00128418
0.00186053
0.00257251
0.00343268
0.00446032
0.00567886
0.00711575
0.00880288
0.0107769
0.013076
0.0157133
0.0186275
0.0217219
0.0249186
0.0281653
0.0314237
0.0346577
0.0378235
0.0408647
0.043708
0.000136451
0.000286585
0.000487493
0.000824577
0.0012748
0.00184593
0.00255175
0.00340433
0.00442255
0.00562944
0.00705202
0.00872167
0.0106745
0.0129495
0.0155687
0.018487
0.0216092
0.0248515
0.0281555
0.0314799
0.034788
0.038037
0.0411717
0.0441179
0.000137634
0.000286833
0.000486862
0.000819595
0.00126597
0.0018322
0.00253227
0.00337775
0.00438717
0.00558322
0.00699254
0.00864595
0.0105791
0.0128312
0.0154309
0.0183487
0.0214942
0.0247787
0.0281375
0.0315259
0.034906
0.038236
0.0414629
0.0445186
0.000138757
0.000287103
0.000486443
0.000814852
0.00125754
0.00181911
0.00251374
0.00335248
0.00435358
0.00553942
0.00693623
0.00857439
0.010489
0.0127193
0.0152985
0.0182115
0.0213756
0.0246983
0.0281093
0.0315593
0.0350089
0.0384166
0.0417305
0.0448818
0.000139822
0.000287392
0.000486186
0.000810303
0.00124943
0.00180654
0.00249594
0.00332822
0.00432135
0.00549744
0.00688235
0.00850606
0.0104032
0.0126127
0.0151707
0.018075
0.0212528
0.0246097
0.0280695
0.0315787
0.0350955
0.0385787
0.0419774
0.0452251
0.000140825
0.000287698
0.000486047
0.00080592
0.00124158
0.00179435
0.00247869
0.00330476
0.00429024
0.00545696
0.00683045
0.0084403
0.0103206
0.0125102
0.015047
0.0179393
0.0211261
0.0245126
0.0280179
0.0315834
0.0351651
0.0387213
0.0422028
0.0455455
0.000141764
0.000288018
0.000485989
0.000801691
0.00123399
0.00178255
0.00246199
0.00328203
0.00426013
0.0054178
0.00678027
0.00837678
0.010241
0.0124113
0.014927
0.0178047
0.0209957
0.0244073
0.0279543
0.0315733
0.0352173
0.038844
0.0424051
0.0458394
0.000142664
0.00028836
0.000486019
0.000797639
0.00122667
0.00177114
0.00244581
0.00326003
0.00423099
0.00537991
0.00673173
0.00831535
0.010164
0.0123157
0.0148106
0.0176717
0.0208626
0.0242948
0.0278796
0.0315489
0.0352527
0.0389477
0.0425862
0.046108
0.000143523
0.000288723
0.000486135
0.00079378
0.00121966
0.00176017
0.0024302
0.0032388
0.00420283
0.00534329
0.00668486
0.00825603
0.0100897
0.0122235
0.0146978
0.0175409
0.0207278
0.0241759
0.0277943
0.0315105
0.0352711
0.0390319
0.0427458
0.0463532
0.000144324
0.000289094
0.000486264
0.000790093
0.00121298
0.00174976
0.00241521
0.00321833
0.0041757
0.00530806
0.00663975
0.00819896
0.0100182
0.0121347
0.0145891
0.0174131
0.0205928
0.0240524
0.0277001
0.0314594
0.0352735
0.0390966
0.0428827
0.0465775
0.000145086
0.000289477
0.000486423
0.000786577
0.00120662
0.00173989
0.00240083
0.00319867
0.00414965
0.00527423
0.00659647
0.00814426
0.00994974
0.0120497
0.0144847
0.0172895
0.0204592
0.0239264
0.0275992
0.0313977
0.0352614
0.0391426
0.0429953
0.0467653
0.000145816
0.000289864
0.000486588
0.000783205
0.00120052
0.00173042
0.00238706
0.00317987
0.00412472
0.00524186
0.00655509
0.008092
0.00988435
0.0119686
0.0143851
0.0171708
0.0203289
0.0238004
0.0274948
0.031329
0.035239
0.0391746
0.043089
0.0469276
0.00014653
0.000290266
0.000486801
0.00078003
0.00119473
0.00172142
0.00237392
0.00316193
0.00410096
0.005211
0.00651562
0.00804216
0.00982203
0.0118913
0.0142903
0.0170574
0.0202027
0.023676
0.0273891
0.0312565
0.0352105
0.0391988
0.0431737
0.0470821
0.000147217
0.000290665
0.000487013
0.000777024
0.00118924
0.00171287
0.00236145
0.0031449
0.00407839
0.00518165
0.00647808
0.00799472
0.0097627
0.0118178
0.0142001
0.0169492
0.020081
0.0235542
0.0272837
0.0311822
0.0351788
0.0392186
0.0432536
0.0472318
0.000147887
0.000291068
0.000487243
0.000774201
0.00118407
0.0017048
0.00234967
0.00312878
0.00405699
0.00515382
0.00644244
0.00794965
0.00970632
0.0117478
0.0141142
0.0168457
0.0199635
0.0234348
0.0271785
0.0311062
0.0351439
0.0392342
0.0433282
0.0473747
0.000148544
0.000291475
0.000487491
0.000771562
0.00117921
0.00169723
0.0023386
0.00311361
0.00403683
0.00512759
0.00640879
0.00790702
0.00965287
0.0116814
0.0140325
0.0167469
0.0198501
0.0233175
0.0270731
0.0310278
0.0351049
0.0392445
0.0433968
0.0475108
0.000149189
0.000291884
0.000487753
0.000769098
0.00117467
0.00169013
0.00232822
0.00309939
0.00401792
0.00510293
0.00637712
0.00786685
0.00960244
0.0116187
0.013955
0.0166529
0.019741
0.0232027
0.0269676
0.0309466
0.0350605
0.0392471
0.0434555
0.0476369
0.000149826
0.000292294
0.000488027
0.0007668
0.00117042
0.0016835
0.00231851
0.00308608
0.00400022
0.00507985
0.00634747
0.0078292
0.0095551
0.0115596
0.013882
0.0165639
0.0196369
0.0230914
0.0268629
0.0308634
0.0350112
0.039241
0.0434999
0.0477381
0.000150455
0.000292701
0.000488305
0.000764655
0.00116644
0.00167728
0.00230942
0.00307364
0.0039837
0.00505831
0.0063198
0.00779404
0.00951086
0.0115044
0.0138137
0.0164804
0.0195385
0.0229848
0.0267611
0.0307807
0.0349598
0.0392303
0.0435363
0.0478251
0.000151072
0.000293101
0.000488578
0.000762651
0.00116272
0.00167147
0.00230093
0.00306203
0.00396827
0.0050382
0.00629397
0.00776124
0.0094696
0.011453
0.0137499
0.0164025
0.0194462
0.022884
0.0266637
0.0307007
0.0349098
0.0392198
0.0435728
0.0479142
0.000151688
0.000293497
0.000488856
0.000760777
0.00115924
0.00166603
0.00229298
0.00305117
0.00395387
0.00501947
0.00626991
0.00773071
0.00943121
0.0114051
0.0136906
0.0163298
0.01936
0.0227891
0.0265714
0.0306248
0.0348629
0.0392126
0.0436146
0.0480168
0.000152306
0.000293889
0.000489149
0.000759026
0.00115597
0.00166094
0.00228554
0.00304102
0.00394042
0.00500197
0.00624747
0.00770225
0.00939545
0.0113605
0.0136354
0.0162621
0.0192794
0.0226998
0.026484
0.0305526
0.0348187
0.0392066
0.0436549
0.0481094
0.000152909
0.000294267
0.00048942
0.000757373
0.00115289
0.00165613
0.00227853
0.00303147
0.00392779
0.00498558
0.00622648
0.00767567
0.00936207
0.0113189
0.0135839
0.0161991
0.0192042
0.022616
0.0264015
0.0304844
0.0347776
0.0392031
0.0436972
0.0482061
0.00015349
0.000294629
0.000489653
0.000755808
0.00114997
0.0016516
0.00227191
0.00302246
0.00391589
0.00497015
0.00620677
0.00765074
0.00933082
0.01128
0.0135358
0.0161401
0.0191337
0.0225371
0.0263232
0.0304196
0.0347391
0.0392019
0.0437421
0.0483016
0.00015407
0.000294976
0.000489874
0.000754342
0.00114723
0.0016473
0.00226565
0.00301394
0.00390463
0.00495557
0.00618816
0.00762725
0.00930142
0.0112434
0.0134907
0.0160849
0.0190676
0.0224626
0.0262487
0.0303576
0.0347023
0.0392017
0.0437884
0.048406
0.000154671
0.00029532
0.000490142
0.000752998
0.00114465
0.00164324
0.00225971
0.00300585
0.00389394
0.00494172
0.00617049
0.00760497
0.00927359
0.0112089
0.0134482
0.016033
0.0190054
0.0223922
0.0261778
0.0302979
0.0346662
0.0392003
0.0438313
0.0485026
0.000155266
0.000295652
0.000490414
0.000751725
0.00114221
0.00163941
0.00225409
0.00299815
0.00388376
0.00492851
0.00615363
0.00758371
0.00924706
0.0111761
0.0134078
0.0159837
0.0189465
0.0223255
0.0261104
0.0302408
0.0346313
0.0391977
0.0438692
0.0485881
0.000155835
0.000295977
0.000490666
0.000750533
0.00113992
0.0016358
0.00224877
0.00299085
0.00387405
0.00491589
0.00613748
0.00756332
0.00922159
0.0111446
0.0133691
0.0159366
0.0188902
0.0222618
0.0260459
0.0301864
0.0345988
0.039197
0.0439065
0.0486628
0.000156395
0.000296295
0.000490915
0.000749425
0.00113778
0.0016324
0.00224376
0.00298394
0.00386481
0.00490384
0.00612201
0.00754373
0.00919706
0.0111141
0.0133317
0.0158911
0.0188358
0.0222
0.0259831
0.0301335
0.034568
0.0391998
0.0439531
0.0487656
0.000156933
0.0002966
0.000491141
0.000748388
0.00113577
0.00162921
0.00223901
0.00297739
0.00385607
0.00489239
0.00610724
0.00752495
0.00917344
0.0110847
0.0132954
0.0158468
0.0187827
0.0221393
0.0259205
0.0300799
0.0345357
0.0392
0.0439947
0.0488546
0.000157465
0.000296895
0.000491357
0.00074743
0.00113391
0.00162623
0.00223457
0.00297123
0.00384783
0.00488155
0.00609322
0.00750702
0.00915079
0.0110564
0.0132603
0.0158036
0.0187307
0.0220791
0.0258576
0.0300245
0.0345006
0.0391969
0.0440333
0.0489434
0.000158005
0.000297189
0.000491598
0.000746558
0.00113217
0.00162344
0.00223042
0.00296547
0.00384007
0.00487132
0.00607995
0.00749002
0.00912922
0.0110293
0.0132265
0.0157619
0.0186798
0.0220196
0.0257941
0.029967
0.0344616
0.0391885
0.044066
0.0490261
0.000158536
0.000297471
0.000491829
0.00074575
0.00113057
0.00162085
0.00222653
0.0029601
0.00383282
0.00486174
0.0060674
0.00747392
0.00910878
0.0110035
0.0131942
0.0157218
0.0186306
0.0219614
0.0257306
0.0299075
0.034418
0.0391729
0.0440878
0.0490905
0.00015905
0.000297749
0.000492046
0.000745003
0.00112903
0.0016184
0.00222288
0.00295499
0.00382593
0.00485269
0.00605572
0.00745883
0.00908964
0.0109793
0.0131638
0.0156839
0.0185839
0.0219055
0.0256687
0.0298476
0.0343719
0.0391523
0.0441033
0.0491504
0.000159564
0.000298014
0.000492268
0.000744306
0.00112762
0.00161608
0.00221944
0.00295022
0.00381952
0.00484414
0.00604464
0.00744471
0.00907153
0.0109565
0.0131352
0.0156482
0.0185399
0.0218529
0.0256097
0.0297897
0.0343259
0.03913
0.044115
0.0492071
0.000160077
0.000298286
0.000492516
0.0007437
0.00112633
0.001614
0.00221625
0.00294575
0.00381346
0.00483618
0.00603422
0.00743132
0.00905459
0.0109351
0.0131084
0.0156148
0.0184989
0.0218035
0.0255546
0.0297354
0.0342826
0.0391085
0.0441252
0.049257
0.000160569
0.000298543
0.000492741
0.000743125
0.00112514
0.00161205
0.00221329
0.00294155
0.00380778
0.00482865
0.00602445
0.00741875
0.0090385
0.0109149
0.0130831
0.0155834
0.0184602
0.0217574
0.0255031
0.0296851
0.0342433
0.0390907
0.0441375
0.0493025
0.00016106
0.000298774
0.000492945
0.00074267
0.00112411
0.00161029
0.00221056
0.00293774
0.00380254
0.00482161
0.00601517
0.00740677
0.00902335
0.0108957
0.0130591
0.0155536
0.0184235
0.0217137
0.0254544
0.0296378
0.0342075
0.0390777
0.0441585
0.0493703
0.00016155
0.000299021
0.000493185
0.000742233
0.00112315
0.00160869
0.00220809
0.00293416
0.0037976
0.00481501
0.00600653
0.00739551
0.00900888
0.0108774
0.0130362
0.0155252
0.0183887
0.0216718
0.0254075
0.0295918
0.0341724
0.0390646
0.0441775
0.0494297
0.00016199
0.000299258
0.000493373
0.000741902
0.00112238
0.00160729
0.00220589
0.00293097
0.00379315
0.00480892
0.00599838
0.00738489
0.00899518
0.0108601
0.0130143
0.0154979
0.0183551
0.0216317
0.0253621
0.0295468
0.034137
0.0390497
0.0441927
0.049483
0.000162479
0.000299505
0.000493656
0.000741685
0.00112174
0.00160616
0.00220401
0.00292819
0.00378914
0.00480342
0.00599098
0.00737504
0.00898245
0.0108436
0.0129936
0.0154718
0.018323
0.0215928
0.0253181
0.0295028
0.0341022
0.0390343
0.044206
0.049531
0.000162934
0.000299736
0.000493919
0.000741507
0.00112124
0.00160519
0.0022024
0.00292571
0.00378561
0.00479841
0.00598416
0.00736602
0.00897048
0.0108282
0.0129738
0.0154469
0.0182919
0.0215552
0.0252752
0.0294598
0.0340682
0.0390202
0.0442218
0.0495827
0.000163381
0.000299944
0.000494146
0.000741407
0.00112085
0.00160445
0.00220106
0.00292366
0.00378256
0.00479411
0.00597814
0.00735781
0.00895962
0.0108138
0.0129553
0.0154232
0.0182621
0.0215187
0.0252329
0.0294168
0.0340338
0.0390064
0.0442413
0.0496515
0.000163836
0.000300174
0.00049443
0.00074137
0.0011206
0.00160388
0.00220003
0.00292197
0.00378
0.0047904
0.00597296
0.00735061
0.00894984
0.0108009
0.0129382
0.0154011
0.0182338
0.0214835
0.0251915
0.0293729
0.0339964
0.0389868
0.0442504
0.0496956
0.000164237
0.000300392
0.000494635
0.000741405
0.00112049
0.0016035
0.00219926
0.00292068
0.00377799
0.00478734
0.00596849
0.00734436
0.00894127
0.0107893
0.0129228
0.0153809
0.0182075
0.0214503
0.0251514
0.0293296
0.0339571
0.0389624
0.0442517
0.0497317
0.000164665
0.000300611
0.000494894
0.000741544
0.00112053
0.0016034
0.00219883
0.00291982
0.00377645
0.00478496
0.00596494
0.00733919
0.00893407
0.0107794
0.0129094
0.015363
0.0181841
0.02142
0.0251145
0.0292885
0.0339192
0.0389372
0.0442507
0.0497653
0.000165088
0.000300817
0.000495151
0.000741742
0.00112072
0.00160346
0.0021987
0.00291929
0.00377542
0.00478312
0.00596208
0.00733502
0.00892797
0.0107709
0.0128977
0.0153474
0.0181634
0.0213933
0.0250814
0.0292515
0.0338843
0.0389144
0.0442504
0.0498008
0.00016553
0.000301036
0.000495458
0.000742063
0.00112106
0.00160381
0.00219885
0.00291919
0.00377487
0.00478199
0.00596003
0.00733177
0.0089232
0.010764
0.0128882
0.0153342
0.0181458
0.0213702
0.0250527
0.0292193
0.0338541
0.0388942
0.0442499
0.0498291
0.000165966
0.000301262
0.000495777
0.00074244
0.00112156
0.00160435
0.00219935
0.00291948
0.00377486
0.00478147
0.00595881
0.00732949
0.00891947
0.0107585
0.0128802
0.0153232
0.0181309
0.0213507
0.0250284
0.0291923
0.0338295
0.0388791
0.0442507
0.0498505
0.000166357
0.000301448
0.000496023
0.000742951
0.00112228
0.00160518
0.0022002
0.00292029
0.00377544
0.00478165
0.00595829
0.00732809
0.0089169
0.0107543
0.012874
0.0153141
0.0181183
0.0213342
0.0250081
0.0291707
0.033812
0.0388728
0.0442603
0.0498681
0.000166772
0.000301656
0.000496328
0.000743573
0.00112314
0.00160627
0.00220143
0.00292152
0.00377655
0.00478251
0.00595875
0.00732775
0.00891554
0.0107514
0.0128691
0.0153069
0.018108
0.0213202
0.0249909
0.0291529
0.0338004
0.0388773
0.0442939
0.0499523
0.000167192
0.000301852
0.000496655
0.000744306
0.00112425
0.00160765
0.00220308
0.00292331
0.00377838
0.00478414
0.00596006
0.00732857
0.00891534
0.01075
0.0128658
0.0153013
0.0180994
0.0213082
0.0249756
0.0291368
0.0337896
0.0388818
0.0443251
0.0500227
0.000167618
0.00030206
0.000497025
0.000745195
0.00112558
0.00160941
0.00220516
0.00292569
0.00378088
0.0047867
0.0059624
0.0073305
0.00891664
0.0107501
0.0128644
0.0152976
0.018093
0.0212982
0.0249623
0.0291222
0.0337791
0.0388835
0.0443475
0.0500699
0.000168029
0.000302255
0.0004974
0.000746189
0.00112714
0.00161147
0.00220769
0.00292859
0.00378414
0.00479011
0.00596588
0.00733379
0.00891934
0.010752
0.0128649
0.0152962
0.0180888
0.0212908
0.0249515
0.0291098
0.0337708
0.0388881
0.0443751
0.0501315
0.000168445
0.000302429
0.000497774
0.000747339
0.00112891
0.00161388
0.00221068
0.00293213
0.00378812
0.00479449
0.00597044
0.00733835
0.00892372
0.0107557
0.0128676
0.0152971
0.0180873
0.0212862
0.0249435
0.0291003
0.0337647
0.0388941
0.0444035
0.0501943
0.000168865
0.00030262