/*--------------------------------*- C++ -*----------------------------------*\
| =========                 |                                                 |
| \\      /  F ield         | OpenFOAM: The Open Source CFD Toolbox           |
|  \\    /   O peration     | Version:  2.3.0                                 |
|   \\  /    A nd           | Web:      www.OpenFOAM.org                      |
|    \\/     M anipulation  |                                                 |
\*---------------------------------------------------------------------------*/
FoamFile
{
    version     2.0;
    format      ascii;
    class       volScalarField;
    location    "5000";
    object      p;
}
// * * * * * * * * * * * * * * * * * * * * * * * * * * * * * * * * * * * * * //

dimensions      [0 2 -2 0 0 0 0];

internalField   nonuniform List<scalar> 
38250
(
-7.71389e-05
1.21529
2.5977
4.01307
5.44031
6.88371
8.34797
9.83282
11.3405
12.8705
14.4245
16.0036
17.6063
19.236
20.8902
22.57
24.2724
25.9969
27.7404
29.4987
31.2644
33.0322
34.7939
36.5406
38.2552
39.9208
41.5279
43.0417
44.4404
45.6815
46.7199
47.4816
47.8706
47.7988
47.1281
45.6613
43.1956
39.404
33.9206
26.2597
16.0675
1.24379
-25.7771
-0.501135
0.551369
1.80468
3.08714
4.38505
5.70224
7.04251
8.40349
9.78851
11.1951
12.6265
14.0823
15.5634
17.0718
18.6076
20.1737
21.7717
23.4031
25.0695
26.7741
28.5181
30.3018
32.1247
33.9853
35.8791
37.797
39.729
41.6568
43.5547
45.3879
47.1099
48.6672
49.9914
50.9755
51.4782
51.3227
50.2914
48.1125
44.4436
38.8787
30.8504
19.3533
2.62843
-1.10144
-0.228848
0.840637
1.93049
3.02633
4.12908
5.24244
6.36265
7.49133
8.62577
9.76605
10.9105
12.0586
13.2084
14.358
15.5052
16.6471
17.7805
18.9014
20.0044
21.0847
22.1339
23.145
24.1079
25.0077
25.8322
26.5597
27.1706
27.634
27.9125
27.9642
27.7301
27.1385
26.1044
24.5372
22.3327
19.3605
15.49
10.5924
4.52884
-2.77679
-11.3589
-21.0112
-1.66572
-0.947007
-0.0279352
0.915423
1.86502
2.82055
3.78422
4.755
5.73215
6.71488
7.70149
8.69175
9.68506
10.68
11.6749
12.6688
13.6595
14.644
15.6196
16.5822
17.5266
18.4443
19.3292
20.172
20.9563
21.6705
22.2912
22.8
23.1669
23.3573
23.3342
23.0487
22.4474
21.4696
20.0387
18.0732
15.4853
12.1878
8.11095
3.18322
-2.60012
-9.20929
-16.4867
-2.31055
-1.66318
-0.855511
-0.0320649
0.792082
1.6192
2.44971
3.28517
4.12296
4.96277
5.80183
6.63926
7.47372
8.30308
9.12524
9.93833
10.7396
11.5262
12.2931
13.0366
13.7507
14.4275
15.0606
15.6401
16.1525
16.5846
16.9178
17.132
17.2018
17.0991
16.7909
16.2382
15.3941
14.2093
12.6303
10.601
8.06707
4.97253
1.29328
-2.99316
-7.85497
-13.2247
-18.9664
-2.88125
-2.32464
-1.60898
-0.887981
-0.16882
0.554697
1.27739
2.00819
2.74028
3.47299
4.20428
4.93337
5.65924
6.37892
7.08858
7.78786
8.47336
9.14511
9.7972
10.4269
11.0224
11.5802
12.0937
12.5535
12.9485
13.2639
13.4828
13.5833
13.5414
13.3368
12.9381
12.3192
11.4359
10.2455
8.709
6.78685
4.43845
1.62389
-1.67023
-5.44021
-9.65522
-14.2464
-19.1126
-3.33339
-2.93399
-2.30413
-1.66154
-1.02861
-0.392376
0.234406
0.881874
1.53187
2.18125
2.82557
3.46509
4.1021
4.73541
5.35428
5.9614
6.55049
7.11605
7.66424
8.20364
8.70217
9.15393
9.5619
9.91949
10.2163
10.4436
10.5794
10.6002
10.4785
10.1976
9.72684
9.05372
8.1469
6.95735
5.45569
3.62198
1.4146
-1.1911
-4.2145
-7.62985
-11.3861
-15.4386
-19.6925
-3.57525
-3.42745
-2.92195
-2.35857
-1.79478
-1.22254
-0.69783
-0.131949
0.447173
1.03729
1.62213
2.18811
2.74997
3.32261
3.87572
4.41551
4.9616
5.45064
5.89078
6.36726
6.81643
7.1972
7.51987
7.7941
8.00888
8.17161
8.2618
8.25429
8.11254
7.8292
7.33994
6.64508
5.7808
4.65164
3.2323
1.48441
-0.538372
-2.95462
-5.70265
-8.91497
-12.3536
-16.0713
-19.8854
-3.94574
-3.78848
-3.41708
-2.99113
-2.61572
-1.93928
-1.53177
-1.09462
-0.647746
-0.154582
0.3689
0.874056
1.34572
1.84555
2.34886
2.78844
3.17764
3.81798
4.14563
4.53735
4.97191
5.35624
5.64692
5.85176
5.97748
6.06046
6.09673
6.0644
5.90305
5.60409
5.12725
4.6415
4.02442
2.98932
1.61842
0.00987988
-1.8152
-3.82144
-6.37514
-9.2316
-12.5817
-15.7459
-19.2268
-93.0782
-116.379
-120.273
-122.725
-124.511
-124.511
-123.363
-121.665
-119.724
-117.597
-115.373
-113.128
-110.826
-108.523
-106.204
-103.873
-101.549
-99.2132
-96.8858
-94.5732
-92.2729
-89.9972
-87.7485
-85.5359
-83.3606
-81.2296
-79.1456
-77.1082
-75.1225
-73.1869
-71.3023
-69.4675
-67.6815
-65.9413
-64.2476
-62.5975
-60.9896
-59.4217
-57.8921
-56.3999
-54.9428
-53.526
-52.118
-20.562
-44.4155
-62.2156
-75.0481
-84.4848
-91.2924
-95.9464
-98.925
-100.591
-101.234
-101.101
-100.399
-99.2672
-97.8194
-96.1654
-94.3633
-92.484
-90.5562
-88.6096
-86.6769
-84.7619
-82.884
-81.0385
-79.237
-77.4737
-75.7541
-74.0732
-72.4295
-70.8215
-69.2469
-67.705
-66.1929
-64.7105
-63.256
-61.8302
-60.4312
-59.0593
-57.7139
-56.395
-55.1032
-53.8373
-52.5962
-51.3051
-31.1547
-40.9561
-49.5263
-56.7521
-62.7118
-67.5397
-71.337
-74.2422
-76.4016
-77.9254
-78.9332
-79.5187
-79.7606
-79.7245
-79.4608
-79.0169
-78.4242
-77.707
-76.8949
-75.9987
-75.0393
-74.0261
-72.9666
-71.8757
-70.7565
-69.6196
-68.4661
-67.3051
-66.1386
-64.9705
-63.8063
-62.6454
-61.4919
-60.3466
-59.2114
-58.0873
-56.9748
-55.8745
-54.7867
-53.7129
-52.6517
-51.5915
-50.4128
-24.1931
-31.9085
-39.2154
-45.8431
-51.6698
-56.6484
-60.8001
-64.1773
-66.8597
-68.9253
-70.4632
-71.5491
-72.2509
-72.6332
-72.7449
-72.641
-72.3544
-71.9213
-71.3714
-70.7212
-69.9968
-69.214
-68.3795
-67.5089
-66.612
-65.6926
-64.7574
-63.8132
-62.8612
-61.9056
-60.9482
-59.9917
-59.0369
-58.0853
-57.1385
-56.1978
-55.263
-54.3345
-53.4127
-52.4988
-51.5921
-50.6825
-49.7031
-24.8974
-30.8085
-36.4814
-41.7404
-46.4754
-50.6315
-54.1999
-57.195
-59.6665
-61.6593
-63.2197
-64.4139
-65.2841
-65.8803
-66.2411
-66.4092
-66.4026
-66.2626
-66.0037
-65.6458
-65.2047
-64.6979
-64.1305
-63.5154
-62.8632
-62.1768
-61.4655
-60.7347
-59.9853
-59.2242
-58.4525
-57.6737
-56.8899
-56.1034
-55.3161
-54.5297
-53.7445
-52.9608
-52.18
-51.4028
-50.6316
-49.8642
-49.174
-24.1329
-29.1395
-33.9966
-38.5679
-42.7546
-46.5052
-49.7945
-52.6172
-54.9985
-56.9724
-58.5689
-59.8308
-60.803
-61.5168
-62.0137
-62.3189
-62.4626
-62.4697
-62.3576
-62.1458
-61.8485
-61.4798
-61.0522
-60.5726
-60.0541
-59.4999
-58.9214
-58.3202
-57.7013
-57.0669
-56.4203
-55.7656
-55.1029
-54.437
-53.7684
-53.1
-52.4322
-51.7618
-51.0916
-50.4226
-49.7576
-49.0964
-48.5636
-24.0876
-28.437
-32.702
-36.7411
-40.4747
-43.8652
-46.8648
-49.4624
-51.6803
-53.5353
-55.079
-56.3255
-57.3235
-58.0807
-58.6476
-59.0311
-59.2704
-59.3707
-59.3641
-59.2554
-59.0695
-58.8053
-58.4858
-58.1145
-57.7019
-57.2541
-56.786
-56.291
-55.7784
-55.2445
-54.6992
-54.1453
-53.5753
-53.0082
-52.4356
-51.8667
-51.2946
-50.7106
-50.1261
-49.5451
-48.9709
-48.4011
-48.0029
-23.8706
-27.7895
-31.6375
-35.3147
-38.7123
-41.8048
-44.5938
-47.0461
-49.1489
-50.9449
-52.4594
-53.676
-54.6878
-55.4766
-56.0946
-56.5058
-56.8041
-56.9642
-57.0374
-56.9883
-56.8792
-56.6784
-56.4318
-56.1294
-55.7907
-55.4191
-55.0377
-54.6203
-54.1859
-53.7233
-53.2556
-52.774
-52.266
-51.7903
-51.3029
-50.8176
-50.3063
-49.7772
-49.2651
-48.7619
-48.2678
-47.7664
-47.4403
-23.5243
-26.9881
-30.5172
-33.9669
-37.056
-39.9239
-42.5758
-44.807
-47.3726
-49.2787
-50.7547
-51.8492
-52.8889
-53.7066
-54.3412
-54.7017
-55.0561
-55.2277
-55.3609
-55.3073
-55.2282
-55.0263
-54.8074
-54.5235
-54.2419
-53.9177
-53.6076
-53.2331
-52.8463
-52.4153
-51.9901
-51.5442
-51.0738
-50.7087
-50.2651
-49.831
-49.3858
-48.925
-48.5162
-48.1058
-47.6873
-47.2267
-46.8959
-47.4758
-47.1254
-46.8088
-46.4758
-46.1348
-45.7844
-45.424
-45.0527
-44.6687
-44.2707
-43.8562
-43.4239
-42.9717
-42.4983
-42.0031
-41.4858
-40.9475
-40.3898
-39.8163
-39.2303
-38.6365
-38.0397
-37.446
-36.8611
-36.2903
-35.7397
-35.2141
-34.7182
-34.2557
-33.829
-33.4405
-33.0914
-32.7811
-32.508
-32.2699
-32.0625
-31.8802
-31.7171
-31.5642
-31.4146
-31.2748
-31.1519
-30.7822
-46.7904
-46.4482
-46.148
-45.8375
-45.5232
-45.2053
-44.8842
-44.5602
-44.2338
-43.9058
-43.576
-43.2452
-42.9135
-42.5811
-42.2475
-41.9125
-41.5754
-41.2354
-40.8918
-40.5432
-40.189
-39.8276
-39.4579
-39.0789
-38.6901
-38.2904
-37.8797
-37.4577
-37.0246
-36.5804
-36.1254
-35.6602
-35.1853
-34.7013
-34.209
-33.7101
-33.2069
-32.7042
-32.2095
-31.7343
-31.2894
-30.9106
-30.6489
-46.1653
-45.85
-45.5692
-45.2783
-44.9842
-44.6875
-44.3883
-44.0872
-43.784
-43.4793
-43.1728
-42.8648
-42.5554
-42.2445
-41.9314
-41.6159
-41.2975
-40.9749
-40.6482
-40.3163
-39.9784
-39.6332
-39.2804
-38.9186
-38.5469
-38.1644
-37.7707
-37.3654
-36.9482
-36.5189
-36.0782
-35.6265
-35.1645
-34.6935
-34.2152
-33.7327
-33.2499
-32.7725
-32.3099
-31.8744
-31.4646
-31.049
-30.7381
-45.623
-45.3157
-45.045
-44.7654
-44.4819
-44.1951
-43.9042
-43.6093
-43.3101
-43.0059
-42.696
-42.3801
-42.0582
-41.73
-41.3952
-41.0541
-40.7065
-40.352
-39.9909
-39.6234
-39.2503
-38.8711
-38.4861
-38.0951
-37.6984
-37.2952
-36.8856
-36.4696
-36.0474
-35.6195
-35.1863
-34.7484
-34.3075
-33.865
-33.4229
-32.984
-32.552
-32.1316
-31.7295
-31.3553
-31.0108
-30.6402
-30.3913
-45.1334
-44.8447
-44.588
-44.322
-44.0521
-43.7793
-43.502
-43.2205
-42.9346
-42.6433
-42.3451
-42.0399
-41.7275
-41.4081
-41.0815
-40.7481
-40.4071
-40.0582
-39.7016
-39.3374
-38.9659
-38.5874
-38.2025
-37.8109
-37.4124
-37.0063
-36.5925
-36.1707
-35.7414
-35.3053
-34.8633
-34.417
-33.9684
-33.5199
-33.0747
-32.6373
-32.2123
-31.8047
-31.4201
-31.0638
-30.7399
-30.3835
-30.1568
-44.7096
-44.435
-44.1931
-43.9423
-43.6878
-43.4307
-43.1684
-42.9015
-42.6307
-42.3545
-42.071
-41.7792
-41.479
-41.1712
-40.8565
-40.5352
-40.2068
-39.8703
-39.5251
-39.1713
-38.8087
-38.4385
-38.0618
-37.6786
-37.2892
-36.8924
-36.4869
-36.0719
-35.6477
-35.2147
-34.7741
-34.3283
-33.879
-33.4282
-32.9812
-32.5461
-32.1317
-31.7449
-31.3851
-31.0466
-30.7298
-30.3641
-30.1133
-44.3422
-44.077
-43.8481
-43.6101
-43.3687
-43.1258
-42.876
-42.6188
-42.3591
-42.095
-41.8229
-41.5406
-41.2479
-40.9456
-40.637
-40.3222
-40.0011
-39.6721
-39.3338
-38.9847
-38.6251
-38.2557
-37.8789
-37.4963
-37.1091
-36.716
-36.3136
-35.902
-35.4794
-35.0452
-34.5995
-34.1499
-33.6993
-33.2462
-32.7914
-32.3485
-31.936
-31.5757
-31.2857
-31.0238
-30.7514
-30.4223
-30.1619
-44.0094
-43.7631
-43.5479
-43.3211
-43.0899
-42.862
-42.6262
-42.374
-42.1231
-41.873
-41.6157
-41.3461
-41.063
-40.7635
-40.4602
-40.1532
-39.8425
-39.5278
-39.2052
-38.869
-38.5188
-38.1535
-37.7806
-37.4046
-37.0318
-36.6609
-36.2839
-35.8901
-35.491
-35.0845
-34.6529
-34.214
-33.7768
-33.3303
-32.8612
-32.4008
-31.9894
-31.6513
-31.4165
-31.2354
-30.9566
-30.6159
-30.1865
-43.6946
-43.4772
-43.2712
-43.049
-42.8174
-42.6057
-42.3882
-42.1269
-41.8729
-41.632
-41.3834
-41.1328
-40.8698
-40.5669
-40.2596
-39.9454
-39.626
-39.3065
-38.9861
-38.6506
-38.3061
-37.9222
-37.5153
-37.0922
-36.667
-36.2566
-35.8543
-35.4557
-35.0001
-34.5648
-34.0769
-33.5933
-33.1552
-32.7456
-32.2355
-31.6506
-31.0665
-30.5977
-30.685
-31.0041
-30.7251
-30.9333
-30.482
-29.8043
-28.8984
-27.8653
-26.9804
-26.1735
-25.4381
-24.763
-24.1389
-23.5585
-23.0155
-22.5032
-22.0167
-21.5531
-21.1086
-20.6813
-20.2687
-19.8698
-19.4832
-19.1082
-18.7445
-18.3902
-18.0458
-17.7109
-17.3844
-17.0665
-16.7572
-16.4556
-16.162
-15.8757
-15.597
-15.3251
-15.0598
-14.8016
-14.5492
-14.3029
-14.0622
-13.8266
-13.5958
-13.3691
-13.1467
-12.9279
-12.708
-12.4698
-30.1504
-29.6468
-28.9801
-28.3328
-27.6628
-27.0051
-26.3666
-25.7528
-25.166
-24.6061
-24.0718
-23.5607
-23.0725
-22.6032
-22.1531
-21.7184
-21.2988
-20.8926
-20.4985
-20.116
-19.743
-19.3791
-19.0236
-18.6756
-18.3348
-18.0003
-17.6717
-17.3493
-17.031
-16.719
-16.411
-16.1082
-15.8103
-15.5163
-15.2277
-14.9435
-14.6641
-14.39
-14.1208
-13.858
-13.6034
-13.3545
-13.0998
-30.1253
-29.5285
-28.8907
-28.2869
-27.674
-27.0731
-26.4837
-25.91
-25.3541
-24.8174
-24.3
-23.8015
-23.3217
-22.8596
-22.4145
-21.9845
-21.5696
-21.168
-20.7792
-20.4023
-20.0363
-19.6801
-19.3331
-18.9951
-18.665
-18.3421
-18.0263
-17.7169
-17.4129
-17.1149
-16.8215
-16.5333
-16.249
-15.969
-15.6931
-15.4205
-15.1514
-14.8861
-14.6241
-14.366
-14.1134
-13.863
-13.5898
-29.8695
-29.316
-28.723
-28.1398
-27.5515
-26.9749
-26.4091
-25.8579
-25.3229
-24.8053
-24.3044
-23.8213
-23.3551
-22.9057
-22.4719
-22.0528
-21.6486
-21.257
-20.8785
-20.511
-20.1551
-19.8087
-19.4719
-19.1437
-18.8239
-18.5119
-18.2076
-17.9098
-17.6185
-17.3333
-17.0538
-16.7798
-16.5109
-16.247
-15.9877
-15.7324
-15.4813
-15.2343
-14.9909
-14.7512
-14.5165
-14.2834
-14.0317
-29.6882
-29.1793
-28.6337
-28.0839
-27.5268
-26.9753
-26.4311
-25.8983
-25.3794
-24.8753
-24.3874
-23.9158
-23.4604
-23.021
-22.597
-22.1874
-21.7917
-21.4089
-21.0387
-20.6795
-20.3314
-19.9932
-19.6639
-19.3431
-19.0317
-18.7275
-18.432
-18.1429
-17.8596
-17.5828
-17.3122
-17.047
-16.7883
-16.5339
-16.2849
-16.0397
-15.7991
-15.563
-15.3311
-15.1035
-14.8817
-14.6626
-14.4252
-29.6267
-29.111
-28.5729
-28.0355
-27.4958
-26.961
-26.4335
-25.9156
-25.4098
-24.9167
-24.4387
-23.9757
-23.5286
-23.0979
-22.6822
-22.2809
-21.893
-21.5178
-21.1549
-20.8044
-20.4631
-20.1317
-19.809
-19.4962
-19.1931
-18.8981
-18.6119
-18.3316
-18.0564
-17.7887
-17.5279
-17.2737
-17.0258
-16.7821
-16.543
-16.308
-16.0781
-15.8528
-15.6321
-15.4158
-15.2057
-14.9988
-14.7721
-29.6276
-29.0684
-28.5095
-27.9698
-27.4415
-26.9202
-26.4059
-25.8968
-25.3952
-24.9067
-24.4365
-23.9822
-23.5455
-23.1248
-22.7188
-22.3264
-21.9469
-21.5789
-21.2229
-20.8813
-20.5476
-20.2231
-19.9085
-19.6033
-19.3071
-19.0213
-18.7464
-18.4759
-18.2068
-17.9482
-17.6978
-17.4561
-17.2197
-16.9869
-16.7568
-16.5333
-16.3144
-16.1005
-15.8908
-15.6865
-15.4888
-15.2954
-15.0714
-29.5083
-28.9311
-28.3858
-27.8856
-27.3758
-26.866
-26.3668
-25.8733
-25.3844
-24.9152
-24.4561
-24.0112
-23.5804
-23.168
-22.773
-22.3906
-22.0124
-21.6449
-21.3006
-20.9798
-20.6504
-20.3205
-20.0017
-19.6993
-19.4137
-19.1509
-18.8925
-18.6156
-18.3352
-18.0887
-17.8532
-17.6208
-17.3953
-17.1687
-16.9435
-16.7274
-16.5163
-16.314
-16.1127
-15.9178
-15.7311
-15.5542
-15.3434
-29.6358
-28.9167
-28.2911
-27.783
-27.3147
-26.8441
-26.3894
-25.8866
-25.3513
-24.8187
-24.3555
-23.8921
-23.4886
-23.107
-22.7266
-22.3405
-21.9529
-21.6102
-21.3039
-20.9905
-20.5944
-20.2391
-19.9698
-19.7137
-19.4681
-19.2239
-18.9204
-18.5929
-18.3272
-18.1785
-17.9332
-17.7168
-17.5045
-17.2858
-17.0596
-16.8655
-16.6806
-16.5067
-16.3045
-16.1346
-15.9764
-15.8334
-15.6576
302.935
273.968
246.699
223.329
202.588
183.592
166.381
150.903
137.089
124.776
113.829
104.12
95.4983
87.829
80.9887
74.8586
69.3401
64.3416
59.7895
55.6129
51.7569
48.1727
44.818
41.6651
38.6816
35.8461
33.1393
30.5489
28.0593
25.6635
23.3508
21.118
18.9551
16.8605
14.8288
12.857
10.9415
9.07857
7.26673
5.50015
3.76712
2.10856
0.889937
135.315
133.348
131.301
127.542
122.832
117.671
112.31
106.882
101.469
96.1365
90.93
85.8834
81.0216
76.3532
71.8931
67.6344
63.5772
59.722
56.052
52.5601
49.2398
46.0756
43.0546
40.1699
37.4069
34.7592
32.2136
29.7653
27.4034
25.122
22.9166
20.7797
18.7075
16.695
14.7387
12.8359
10.9823
9.17685
7.41712
5.6983
4.00483
2.3845
1.25919
92.6075
95.2694
97.0761
97.79
97.7381
96.998
95.6245
93.6962
91.3059
88.5406
85.4829
82.2063
78.7743
75.2433
71.6647
68.0772
64.5104
60.9975
57.554
54.1917
50.9287
47.7636
44.7044
41.7502
38.8987
36.1508
33.4986
30.9422
28.4751
26.0908
23.7897
21.5614
19.4067
17.3183
15.2935
13.3301
11.4215
9.56841
7.76551
6.00945
4.28465
2.62974
1.47539
98.9693
99.0381
97.7065
96.1515
94.4699
92.6128
90.5573
88.3137
85.899
83.3301
80.6261
77.809
74.8987
71.9186
68.8879
65.8267
62.7539
59.6854
56.6359
53.617
50.6425
47.7161
44.8496
42.0452
39.3075
36.6399
34.0423
31.516
29.0605
26.6734
24.3563
22.1044
19.918
17.7942
15.7298
13.7249
11.7743
9.87884
8.03494
6.23891
4.4759
2.78007
1.55966
87.0772
86.6874
85.6225
84.5033
83.2496
81.8557
80.3297
78.6786
76.9053
75.0129
73.0061
70.8916
68.6769
66.372
63.9901
61.5395
59.0376
56.4923
53.9186
51.3292
48.7349
46.1451
43.5699
41.0178
38.4947
36.0086
33.562
31.1608
28.8066
26.5015
24.2487
22.0461
19.896
17.7981
15.7506
13.755
11.809
9.91161
8.06373
6.26052
4.49041
2.78504
1.51536
72.5215
72.4608
72.219
71.8941
71.4087
70.7704
69.9825
69.0474
67.9655
66.7422
65.3828
63.8934
62.2811
60.5557
58.7259
56.8019
54.796
52.7162
50.5766
48.387
46.1583
43.9021
41.6274
39.3441
37.0589
34.7838
32.5193
30.277
28.0592
25.8696
23.715
21.5943
19.5129
17.4709
15.4701
13.5108
11.5941
9.71976
7.88831
6.0983
4.3391
2.63752
1.32297
63.5231
63.5202
63.4163
63.2059
62.8826
62.4503
61.906
61.2462
60.4698
59.5776
58.5709
57.4505
56.2206
54.8856
53.4495
51.9187
50.3006
48.6002
46.8274
44.9899
43.0945
41.1527
39.17
37.1566
35.1198
33.0695
31.0087
28.9482
26.8931
24.8466
22.8172
20.807
18.8201
16.8588
14.9281
13.0278
11.1598
9.32782
7.53006
5.76788
4.03254
2.34152
0.967757
56.3945
56.373
56.257
56.0461
55.759
55.3966
54.9544
54.4297
53.8204
53.1241
52.3388
51.4628
50.4974
49.4413
48.2968
47.0653
45.751
44.3559
42.8863
41.3467
39.7419
38.0798
36.3654
34.6067
32.8092
30.9811
29.1291
27.2584
25.3769
23.4889
21.6011
19.718
17.8447
15.9843
14.1416
12.319
10.5194
8.74508
6.99815
5.27872
3.58145
1.91679
0.498463
49.4572
49.4681
49.4069
49.2701
49.0741
48.8168
48.4952
48.1069
47.6497
47.12
46.516
45.8362
45.0795
44.244
43.3293
42.3367
41.2667
40.1204
38.9015
37.6121
36.256
34.8378
33.361
31.8322
30.256
28.6377
26.9849
25.301
23.5937
21.8672
20.1288
18.3814
16.6322
14.8844
13.1424
11.4101
9.6916
7.98871
6.30512
4.64231
2.99452
1.37333
-0.0389579
43.1201
43.1745
43.1665
43.0978
42.9795
42.8105
42.5877
42.3085
41.97
41.5706
41.1083
40.5807
39.9861
39.3226
38.5891
37.7856
36.912
35.9683
34.9552
33.8749
32.7287
31.5199
30.2515
28.9267
27.5496
26.1249
24.657
23.1508
21.6119
20.0448
18.4546
16.8462
15.225
13.5961
11.9622
10.3292
8.7001
7.07935
5.46917
3.87408
2.2915
0.733908
-0.629133
37.564
37.6284
37.6364
37.5983
37.5206
37.4021
37.2398
37.0308
36.774
36.4665
36.1065
35.6913
35.2191
34.6873
34.0946
33.4402
32.7232
31.9426
31.0987
30.1917
29.2221
28.1919
27.103
25.957
24.7566
23.5062
22.2083
20.8667
19.4865
18.0708
16.6253
15.1543
13.6612
12.1517
10.6301
9.10004
7.56611
6.03271
4.50228
2.97782
1.45879
-0.0418595
-1.366
32.4333
32.5194
32.5496
32.5417
32.4992
32.4215
32.3072
32.1546
31.9614
31.7255
31.445
31.1177
30.7417
30.3144
29.8341
29.2997
28.7094
28.0623
27.3575
26.5947
25.774
24.8959
23.9608
22.9706
21.9262
20.8305
19.6862
18.4951
17.262
15.9887
14.6807
13.3409
11.9735
10.5826
9.17279
7.7475
6.31145
4.86857
3.42293
1.97733
0.532989
-0.896323
-2.12786
27.7165
27.8099
27.8504
27.8624
27.8461
27.8009
27.7254
27.6172
27.4747
27.2967
27.0801
26.8234
26.5248
26.1819
25.7925
25.356
24.8697
24.3326
23.7436
23.1015
22.4065
21.6577
20.8553
19.9999
19.0924
18.134
17.1271
16.0723
14.9734
13.8326
12.653
11.4376
10.1903
8.91463
7.61435
6.29284
4.95497
3.6034
2.24274
0.876113
-0.497845
-1.8728
-3.0953
23.3107
23.4155
23.469
23.5006
23.5079
23.4901
23.4464
23.3748
23.2739
23.1422
22.9778
22.7785
22.5428
22.2686
21.9543
21.5981
21.198
20.7523
20.2602
19.7202
19.1315
18.4929
17.8051
17.0671
16.2792
15.442
14.5574
13.6257
12.6487
11.6291
10.5688
9.47006
8.33644
7.17064
5.97647
4.75627
3.51474
2.25423
0.979303
-0.307558
-1.6074
-2.91776
-4.11231
19.2084
19.3194
19.3809
19.4258
19.4502
19.4535
19.4349
19.3925
19.325
19.2311
19.109
18.9569
18.773
18.5556
18.3031
18.0139
17.6856
17.3167
16.9065
16.4529
15.9549
15.4113
14.8217
14.1858
13.5031
12.7729
11.997
11.1753
10.309
9.39979
8.44938
7.45914
6.43219
5.37026
4.27742
3.15516
2.00742
0.836968
-0.352546
-1.55856
-2.78082
-4.01876
-5.17294
15.3279
15.4509
15.5238
15.5824
15.6236
15.6462
15.6496
15.6327
15.5934
15.5315
15.4454
15.3331
15.1928
15.0233
14.8231
14.59
14.3224
14.0189
13.6782
13.2983
12.8782
12.4165
11.9124
11.3652
10.7745
10.1391
9.45995
8.73687
7.97037
7.16163
6.31175
5.42171
4.49407
3.52992
2.53292
1.50421
0.447206
-0.635454
-1.74114
-2.86634
-4.01147
-5.17695
-6.28977
11.6833
11.8133
11.8914
11.9594
12.012
12.0493
12.0705
12.0741
12.0587
12.0235
11.9674
11.8883
11.7847
11.6559
11.4996
11.3145
11.0986
10.8505
10.5695
10.2533
9.90019
9.5096
9.08009
8.61066
8.10062
7.54897
6.95575
6.32121
5.6447
4.92719
4.16894
3.37145
2.53568
1.66319
0.756398
-0.183473
-1.15361
-2.1516
-3.17481
-4.22026
-5.28667
-6.37302
-7.42167
8.2061
8.35025
8.43726
8.51566
8.5809
8.63226
8.66967
8.69179
8.69704
8.68503
8.65461
8.60389
8.53215
8.43795
8.31971
8.17559
8.00416
7.80406
7.57434
7.31276
7.01808
6.68942
6.32509
5.92411
5.4855
5.00802
4.49184
3.93631
3.34084
2.70588
2.03145
1.31871
0.568093
-0.219146
-1.04137
-1.89726
-2.78488
-3.70173
-4.64561
-5.61452
-6.60657
-7.6211
-8.60608
4.9124
5.06274
5.1532
5.24015
5.3158
5.37942
5.43024
5.46818
5.49161
5.49987
5.49138
5.46549
5.42112
5.35653
5.27075
5.16244
5.02974
4.87126
4.68605
4.4723
4.22872
3.95414
3.64701
3.30629
2.93078
2.51961
2.07216
1.58756
1.06511
0.505187
-0.0928148
-0.727838
-1.39983
-2.10803
-2.85144
-3.62842
-4.43768
-5.27697
-6.1447
-7.03787
-7.95351
-8.88969
-9.7993
1.79876
1.94577
2.03626
2.128
2.2101
2.28203
2.34338
2.39346
2.43118
2.45594
2.46618
2.46152
2.44023
2.40135
2.3437
2.26609
2.16669
2.04456
1.8983
1.72659
1.52783
1.30086
1.04431
0.756898
0.437597
0.0853499
-0.300691
-0.721459
-1.17776
-1.66965
-2.19787
-2.7617
-3.36128
-3.99623
-4.66617
-5.36927
-6.10491
-6.87132
-7.66744
-8.49066
-9.33826
-10.2111
-11.1227
-1.20035
-1.05136
-0.956098
-0.857501
-0.767637
-0.686531
-0.614867
-0.553394
-0.502482
-0.463012
-0.436011
-0.422588
-0.423296
-0.439696
-0.472568
-0.523359
-0.592999
-0.683339
-0.795352
-0.930114
-1.08927
-1.2739
-1.48572
-1.72555
-1.99454
-2.29417
-2.62507
-2.98817
-3.38458
-3.81483
-4.27914
-4.7779
-5.3108
-5.87806
-6.47925
-7.11341
-7.78001
-8.47772
-9.20604
-9.96395
-10.7498
-11.5637
-12.4299
-4.05481
-3.91075
-3.81581
-3.7145
-3.62036
-3.53271
-3.45322
-3.38199
-3.31986
-3.26753
-3.22597
-3.19611
-3.1787
-3.17534
-3.18668
-3.21336
-3.257
-3.31918
-3.40051
-3.50277
-3.62681
-3.77378
-3.94539
-4.14265
-4.36673
-4.61903
-4.90017
-5.21143
-5.55367
-5.92766
-6.33369
-6.77252
-7.24403
-7.74865
-8.28589
-8.85543
-9.45697
-10.0892
-10.7517
-11.4442
-12.1644
-12.9106
-13.6859
-6.82789
-6.68202
-6.58141
-6.47381
-6.37261
-6.2772
-6.18866
-6.10762
-6.03473
-5.97009
-5.91514
-5.87014
-5.83642
-5.81515
-5.80644
-5.81162
-5.83232
-5.86924
-5.9234
-5.99615
-6.08879
-6.20226
-6.338
-6.49697
-6.68072
-6.89017
-7.1265
-7.39058
-7.68349
-8.00628
-8.35924
-8.74289
-9.1578
-9.60443
-10.0823
-10.5913
-11.1312
-11.7009
-12.2992
-12.9244
-13.5727
-14.2394
-14.8552
-9.50263
-9.35415
-9.24883
-9.13524
-9.02741
-8.92432
-8.82738
-8.73704
-8.65363
-8.57773
-8.51019
-8.45155
-8.40322
-8.36554
-8.33907
-8.32501
-8.32478
-8.33916
-8.36865
-8.41496
-8.47925
-8.56268
-8.66608
-8.7908
-8.93802
-9.10888
-9.30448
-9.52571
-9.77364
-10.0496
-10.3538
-10.6871
-11.0499
-11.4428
-11.8657
-12.3185
-12.8013
-13.3132
-13.8533
-14.4202
-15.0113
-15.6304
-16.256
-12.0795
-11.928
-11.819
-11.7002
-11.5868
-11.4771
-11.3728
-11.2742
-11.1814
-11.0955
-11.0168
-10.9461
-10.8845
-10.8322
-10.7899
-10.7587
-10.7397
-10.7333
-10.741
-10.7637
-10.8026
-10.8585
-10.9325
-11.0263
-11.1405
-11.2762
-11.4349
-11.6171
-11.8242
-12.0572
-12.3167
-12.6036
-12.9184
-13.2616
-13.6336
-14.0342
-14.4639
-14.9222
-15.408
-15.9205
-16.4586
-17.0245
-17.5604
-14.5331
-14.3859
-14.2786
-14.1597
-14.0446
-13.9321
-13.8236
-13.7195
-13.6203
-13.5264
-13.4388
-13.358
-13.2847
-13.2197
-13.1636
-13.117
-13.081
-13.0564
-13.0444
-13.0459
-13.0617
-13.093
-13.1408
-13.2062
-13.2902
-13.394
-13.519
-13.6656
-13.8352
-14.0289
-14.2473
-14.4914
-14.7618
-15.0592
-15.3839
-15.7362
-16.1164
-16.5244
-16.9593
-17.4207
-17.9083
-18.4267
-18.9229
-16.9467
-16.7944
-16.6803
-16.5548
-16.4343
-16.316
-16.2014
-16.0907
-15.9841
-15.8826
-15.7864
-15.6957
-15.6117
-15.535
-15.4661
-15.4056
-15.3542
-15.313
-15.283
-15.2651
-15.2599
-15.2688
-15.2927
-15.3324
-15.3889
-15.4636
-15.5577
-15.6719
-15.8072
-15.9646
-16.1452
-16.3498
-16.5793
-16.8341
-17.1149
-17.4222
-17.7564
-18.1174
-18.5052
-18.9199
-19.3622
-19.8419
-20.3289
-19.2491
-19.1036
-18.9915
-18.8658
-18.7439
-18.6228
-18.5041
-18.3882
-18.2757
-18.1675
-18.0634
-17.964
-17.87
-17.7826
-17.702
-17.6287
-17.5635
-17.5073
-17.4609
-17.4253
-17.4011
-17.3893
-17.3911
-17.4072
-17.4387
-17.4868
-17.5526
-17.6369
-17.7406
-17.8647
-18.0105
-18.1787
-18.3702
-18.5855
-18.8254
-19.0905
-19.3814
-19.6984
-20.0415
-20.4108
-20.8075
-21.241
-21.6969
-21.5031
-21.3569
-21.2417
-21.1131
-20.9877
-20.8626
-20.7398
-20.6188
-20.5007
-20.3858
-20.2744
-20.1669
-20.0643
-19.9669
-19.8754
-19.7903
-19.7126
-19.6427
-19.5811
-19.5292
-19.4876
-19.4571
-19.4387
-19.4333
-19.4419
-19.4655
-19.5051
-19.5617
-19.6364
-19.7299
-19.8433
-19.9778
-20.134
-20.3124
-20.5142
-20.7398
-20.9899
-21.2651
-21.5654
-21.8906
-22.2415
-22.626
-23.0402
-23.7156
-23.5614
-23.4411
-23.3075
-23.1769
-23.0465
-22.9178
-22.7908
-22.6662
-22.5445
-22.4255
-22.3104
-22.1993
-22.0926
-21.991
-21.8949
-21.8051
-21.7224
-21.6471
-21.5801
-21.5223
-21.4745
-21.4376
-21.4126
-21.3999
-21.4009
-21.4165
-21.4477
-21.4955
-21.5607
-21.644
-21.747
-21.8703
-22.0145
-22.1805
-22.3693
-22.5811
-22.8166
-23.0762
-23.3595
-23.667
-24.0062
-24.3772
-25.83
-25.6795
-25.562
-25.4287
-25.2964
-25.1633
-25.031
-24.8998
-24.7703
-24.6429
-24.5179
-24.3957
-24.2766
-24.1615
-24.0508
-23.9446
-23.844
-23.7493
-23.6611
-23.5805
-23.508
-23.4443
-23.3903
-23.3468
-23.3146
-23.2948
-23.2882
-23.2957
-23.3185
-23.3574
-23.413
-23.4867
-23.5794
-23.6916
-23.8243
-23.9783
-24.1543
-24.3524
-24.5734
-24.8168
-25.0825
-25.3766
-25.699
-27.8973
-27.7474
-27.629
-27.4932
-27.3583
-27.2224
-27.0867
-26.9517
-26.8175
-26.6852
-26.5546
-26.4258
-26.3
-26.1772
-26.0579
-25.9425
-25.8319
-25.7263
-25.6264
-25.533
-25.4467
-25.3684
-25.2985
-25.238
-25.1877
-25.1485
-25.1214
-25.1071
-25.1066
-25.1208
-25.1506
-25.1972
-25.2613
-25.3437
-25.4451
-25.5666
-25.7087
-25.872
-26.0571
-26.264
-26.4927
-26.7499
-27.0428
-29.9077
-29.7597
-29.6412
-29.5047
-29.3683
-29.2296
-29.0904
-28.9515
-28.8133
-28.6761
-28.54
-28.4054
-28.2728
-28.1428
-28.0157
-27.8917
-27.7717
-27.656
-27.5452
-27.44
-27.3411
-27.249
-27.1644
-27.0881
-27.021
-26.9637
-26.9175
-26.8829
-26.8608
-26.8521
-26.8578
-26.8789
-26.9162
-26.9704
-27.0427
-27.1337
-27.244
-27.3746
-27.5259
-27.6986
-27.893
-28.1159
-28.3809
-31.8702
-31.724
-31.6051
-31.4673
-31.3286
-31.1871
-31.045
-30.9024
-30.7599
-30.618
-30.4769
-30.3368
-30.1979
-30.061
-29.9264
-29.7945
-29.6659
-29.5407
-29.4197
-29.3034
-29.1925
-29.0877
-28.9896
-28.8986
-28.8157
-28.7417
-28.6776
-28.624
-28.5818
-28.5519
-28.535
-28.5323
-28.5444
-28.5723
-28.6172
-28.6794
-28.7598
-28.8594
-28.9786
-29.1183
-29.2791
-29.468
-29.7123
-33.8029
-33.6517
-33.5295
-33.3888
-33.2464
-33.1014
-32.9552
-32.8086
-32.6615
-32.5146
-32.3684
-32.2226
-32.078
-31.9348
-31.793
-31.6534
-31.5166
-31.3825
-31.252
-31.1255
-31.0035
-30.8866
-30.7757
-30.6711
-30.5736
-30.4839
-30.4032
-30.3318
-30.2709
-30.2208
-30.1829
-30.1579
-30.1465
-30.1497
-30.1684
-30.2034
-30.2554
-30.3255
-30.4141
-30.5218
-30.6489
-30.8025
-31.0214
-35.6585
-35.5133
-35.3941
-35.2535
-35.1107
-34.9643
-34.8158
-34.6665
-34.5161
-34.3654
-34.2147
-34.0641
-33.9142
-33.7648
-33.6168
-33.4701
-33.3255
-33.1834
-33.044
-32.9077
-32.7755
-32.6475
-32.5245
-32.4071
-32.2959
-32.1917
-32.0952
-32.0072
-31.9286
-31.8598
-31.8021
-31.7562
-31.7227
-31.7025
-31.6967
-31.706
-31.7312
-31.7729
-31.8321
-31.9085
-32.0023
-32.1218
-32.3133
-37.499
-37.3501
-37.2268
-37.0831
-36.9369
-36.7873
-36.6358
-36.483
-36.329
-36.1744
-36.0194
-35.8641
-35.709
-35.5541
-35.4
-35.2467
-35.0949
-34.9451
-34.7973
-34.652
-34.5098
-34.3715
-34.2375
-34.108
-33.984
-33.8661
-33.755
-33.6514
-33.5561
-33.4697
-33.3934
-33.3277
-33.2732
-33.231
-33.2023
-33.1873
-33.1872
-33.2025
-33.2342
-33.2827
-33.3468
-33.4341
-33.6447
-39.2715
-39.126
-39.0057
-38.8627
-38.7163
-38.5657
-38.4125
-38.2571
-38.1003
-37.9425
-37.7837
-37.6242
-37.464
-37.3041
-37.1443
-36.985
-36.8265
-36.6693
-36.5137
-36.3599
-36.2087
-36.0607
-35.916
-35.7752
-35.6392
-35.5086
-35.3837
-35.2654
-35.1544
-35.0514
-34.9575
-34.8732
-34.7991
-34.7362
-34.6856
-34.6476
-34.6232
-34.6131
-34.6177
-34.6371
-34.6703
-34.7183
-34.8106
-41.0185
-40.8735
-40.7518
-40.6072
-40.4587
-40.3062
-40.1507
-39.993
-39.8333
-39.6722
-39.5097
-39.3461
-39.1816
-39.0166
-38.8517
-38.6866
-38.5218
-38.3578
-38.1946
-38.033
-37.8733
-37.7159
-37.5614
-37.41
-37.2626
-37.1198
-36.982
-36.8499
-36.7242
-36.6057
-36.4951
-36.3933
-36.3007
-36.2184
-36.147
-36.0872
-36.0401
-36.0062
-35.986
-35.9797
-35.9873
-36.0118
-36.0811
-42.7484
-42.5986
-42.4727
-42.324
-42.1719
-42.0161
-41.8571
-41.6957
-41.5323
-41.3672
-41.2007
-41.0328
-40.8638
-40.6942
-40.524
-40.3533
-40.1825
-40.0119
-39.8418
-39.6728
-39.5049
-39.3387
-39.1747
-39.0135
-38.8553
-38.7009
-38.551
-38.4059
-38.2665
-38.1332
-38.0069
-37.8884
-37.7784
-37.6776
-37.5867
-37.5065
-37.4381
-37.3819
-37.3386
-37.309
-37.2937
-37.2987
-37.363
-44.4068
-44.2608
-44.1385
-43.9918
-43.8399
-43.6834
-43.5229
-43.3595
-43.1938
-43.0258
-42.856
-42.6845
-42.5115
-42.3376
-42.1624
-41.9864
-41.8098
-41.633
-41.4563
-41.2801
-41.1047
-40.9303
-40.7575
-40.5868
-40.4186
-40.2532
-40.0919
-39.9345
-39.7819
-39.6346
-39.4936
-39.3594
-39.2328
-39.1144
-39.0051
-38.9057
-38.8168
-38.7394
-38.6739
-38.6213
-38.5821
-38.5637
-38.6086
-46.0426
-45.8973
-45.7743
-45.6261
-45.4732
-45.3153
-45.1534
-44.9882
-44.8203
-44.6497
-44.477
-44.3021
-44.1255
-43.9474
-43.7679
-43.587
-43.4052
-43.2226
-43.0395
-42.8565
-42.674
-42.4918
-42.3105
-42.1309
-41.9531
-41.7776
-41.6053
-41.4362
-41.2712
-41.1109
-40.9558
-40.8068
-40.6646
-40.5294
-40.4026
-40.2847
-40.1764
-40.0785
-39.9916
-39.9164
-39.8537
-39.8092
-39.8258
-47.6668
-47.5169
-47.3899
-47.2391
-47.083
-46.9218
-46.757
-46.5886
-46.4173
-46.2436
-46.0675
-45.8891
-45.7085
-45.5263
-45.3423
-45.1567
-44.9697
-44.7816
-44.5926
-44.4031
-44.2137
-44.0242
-43.835
-43.647
-43.46
-43.275
-43.0921
-42.912
-42.7354
-42.5625
-42.3943
-42.2311
-42.0738
-41.923
-41.7796
-41.644
-41.5171
-41.3996
-41.292
-41.1948
-41.1083
-41.0387