/*--------------------------------*- C++ -*----------------------------------*\
| =========                 |                                                 |
| \\      /  F ield         | OpenFOAM: The Open Source CFD Toolbox           |
|  \\    /   O peration     | Version:  2.3.0                                 |
|   \\  /    A nd           | Web:      www.OpenFOAM.org                      |
|    \\/     M anipulation  |                                                 |
\*---------------------------------------------------------------------------*/
FoamFile
{
    version     2.0;
    format      ascii;
    class       volScalarField;
    location    "1000";
    object      nuTilda;
}
// * * * * * * * * * * * * * * * * * * * * * * * * * * * * * * * * * * * * * //

dimensions      [0 2 -1 0 0 0 0];

internalField   nonuniform List<scalar> 
6748
(
0.0593659
0.0535217
0.0482264
0.0436339
0.0398665
0.0369447
0.0346466
0.0323388
0.0299123
0.0273218
0.0245917
0.0222293
0.066559
0.0623511
0.0586504
0.0554425
0.0527438
0.0505662
0.0489012
0.0477112
0.0469419
0.0465356
0.046434
0.0465833
0.0726528
0.0696247
0.0670176
0.0648161
0.0630083
0.0615771
0.0604974
0.0597369
0.0592597
0.0590288
0.0590066
0.0591585
0.0778101
0.0755856
0.0737001
0.0721226
0.070834
0.0698145
0.0690431
0.0684973
0.0681549
0.0679932
0.0679914
0.0681284
0.0821047
0.0804501
0.079044
0.0778646
0.0768954
0.0761224
0.0755313
0.0751089
0.0748423
0.0747187
0.0747261
0.074852
0.0856971
0.0844368
0.0833564
0.0824411
0.0816805
0.081066
0.0805898
0.0802447
0.0800248
0.0799235
0.0799344
0.0800502
0.0887111
0.0877267
0.0868737
0.0861407
0.0855222
0.0850156
0.0846175
0.0843248
0.0841355
0.0840482
0.0840606
0.0841684
0.0912468
0.0904625
0.0897744
0.089173
0.0886538
0.0882237
0.0878824
0.0876275
0.0874592
0.0873802
0.0873926
0.0874943
0.0933933
0.0927552
0.0921899
0.0916926
0.0912399
0.0908652
0.0905675
0.0903434
0.0901903
0.0901137
0.0901246
0.0902218
0.0952294
0.0946945
0.0942164
0.0938165
0.0933983
0.0930644
0.092801
0.0926054
0.0924674
0.0923845
0.0923919
0.0924848
0.0236841
0.0275048
0.0299065
0.032367
0.0353299
0.0389119
0.0431032
0.047848
0.053077
0.0587144
0.0646791
0.0709111
0.0469003
0.0474252
0.0482787
0.0495188
0.0511938
0.0533395
0.0559747
0.0590965
0.062682
0.0666913
0.0710753
0.0758117
0.0594432
0.0598829
0.0605395
0.0614444
0.0626284
0.0641199
0.0659435
0.0681152
0.0706418
0.07352
0.0767389
0.0803243
0.0683826
0.0687666
0.0693134
0.0700413
0.0709678
0.0721105
0.073486
0.0751083
0.0769882
0.0791328
0.081549
0.0842838
0.0750831
0.0754273
0.0759032
0.0765208
0.0772892
0.0782179
0.0793163
0.0805927
0.0820547
0.0837094
0.0855662
0.0876733
0.0802627
0.0805764
0.0810018
0.0815436
0.0822059
0.0829926
0.0839074
0.0849538
0.0861347
0.0874533
0.0889138
0.0905375
0.0843665
0.0846566
0.0850444
0.0855311
0.0861176
0.0868042
0.0875907
0.0884766
0.0894609
0.0905428
0.0917253
0.0930281
0.087681
0.0879525
0.0883113
0.0887564
0.0892862
0.0898991
0.0905926
0.0913628
0.0922049
0.0931142
0.0940887
0.0951398
0.0904006
0.0906562
0.0909923
0.0914048
0.0918903
0.0924472
0.0930714
0.0937554
0.0944919
0.0952739
0.0960923
0.096957
0.0926599
0.0928969
0.0932149
0.0936008
0.0940489
0.094561
0.0951324
0.0957469
0.0963982
0.0970849
0.0978124
0.0985225
0.065297
0.0540517
0.0450069
0.037681
0.0316411
0.0265477
0.0223169
0.0192122
0.016789
0.0143179
0.011598
0.00843517
0.0686773
0.0594871
0.0523764
0.0469156
0.04289
0.0395856
0.0362008
0.0326519
0.0289387
0.0250029
0.0207593
0.0161085
0.0726259
0.06548
0.0602488
0.0566649
0.053317
0.0498466
0.0461454
0.0421464
0.0378033
0.0330754
0.02792
0.0222967
0.0769111
0.0715287
0.0678995
0.064624
0.0612332
0.057591
0.0536264
0.0492848
0.0445159
0.039271
0.0335008
0.0271619
0.0811923
0.0772946
0.0740998
0.070873
0.0674238
0.0636585
0.0595111
0.0549232
0.0498387
0.0441981
0.0379414
0.0310096
0.0852054
0.0820821
0.0790468
0.0758495
0.0723709
0.0685298
0.0642583
0.0594911
0.0541616
0.0482004
0.0415347
0.0340923
0.088872
0.085978
0.0830343
0.0798704
0.0763861
0.0725022
0.0681457
0.0632438
0.05772
0.0514928
0.0444772
0.0365889
0.0918581
0.089134
0.0862733
0.0831532
0.0796815
0.0757765
0.071361
0.0663559
0.0606753
0.054226
0.0469101
0.0386321
0.0942822
0.0916939
0.088918
0.0858528
0.0824084
0.0784992
0.0740412
0.0689533
0.0631443
0.0565153
0.0489525
0.0403394
0.0962577
0.0937705
0.0910804
0.0880808
0.0846775
0.08078
0.07629
0.0711265
0.0652042
0.0584449
0.0507185
0.0418561
0.00472201
0.00191523
0.00185129
0.00244253
0.00314602
0.00415504
0.00569237
0.00767314
0.010158
0.0132278
0.016963
0.0214423
0.0108042
0.00518394
0.00258686
0.00300296
0.00389794
0.00511945
0.00674874
0.00876793
0.0112176
0.0141619
0.0176656
0.0217928
0.0159927
0.00889665
0.00388257
0.00366456
0.00474864
0.00613713
0.00785648
0.00990578
0.0123139
0.0151278
0.0183969
0.022169
0.0200623
0.0120497
0.00545219
0.00440865
0.00562564
0.00714571
0.00894702
0.0110175
0.0133797
0.0160688
0.0191404
0.0227327
0.0232331
0.0145196
0.00697443
0.00520529
0.00649344
0.0081236
0.00999131
0.0120755
0.0143933
0.0169772
0.0198861
0.0232012
0.0257259
0.0164336
0.00830175
0.00601431
0.00733271
0.00905514
0.0109766
0.0130701
0.0153486
0.0178418
0.0205917
0.0236231
0.0277037
0.0179227
0.00940894
0.0067997
0.00813148
0.00993208
0.0118983
0.013999
0.0162432
0.0186519
0.0212449
0.024019
0.0292894
0.0190899
0.0103235
0.00754193
0.00888388
0.0107508
0.0127555
0.0148621
0.0170741
0.0194009
0.0218446
0.0243927
0.0305932
0.0200208
0.0110687
0.00822317
0.00958204
0.0115145
0.0135545
0.0156628
0.0178412
0.0200886
0.0223944
0.024746
0.0318303
0.0210939
0.0118827
0.00888796
0.0102552
0.0122075
0.0142362
0.0163505
0.0185272
0.0207054
0.0228745
0.0250532
0.00114824
0.00399527
0.00838046
0.013259
0.0181432
0.0228337
0.0272481
0.031539
0.035916
0.0402513
0.0457946
0.052508
0.000664986
0.00258751
0.00640729
0.0101144
0.0139768
0.0180994
0.022416
0.0268404
0.0313404
0.0358694
0.0410601
0.0469613
0.000420052
0.00175248
0.0044288
0.0084328
0.0128274
0.0169814
0.0210276
0.0250558
0.0291432
0.033381
0.0380878
0.0435013
0.000544199
0.00147683
0.00371007
0.00710953
0.0116901
0.016318
0.0207375
0.0248656
0.0287239
0.0324942
0.0365365
0.0412911
0.00051568
0.00131723
0.00329516
0.00628197
0.0105847
0.0155212
0.0203751
0.0249521
0.0290774
0.0327281
0.0362136
0.0401766
0.00050859
0.00120297
0.00301164
0.00573857
0.00968659
0.0147157
0.0198946
0.024904
0.0295018
0.0334448
0.0367598
0.0400496
0.000494164
0.00111764
0.00280055
0.00533193
0.00899166
0.0139422
0.0193525
0.0247099
0.0297603
0.0341823
0.0377234
0.0406635
0.00048561
0.00105247
0.00263965
0.00502373
0.00846788
0.0132366
0.0187843
0.024425
0.0298637
0.0347764
0.0387775
0.0418078
0.000478269
0.00100112
0.00251295
0.00478111
0.00805492
0.0126233
0.0182288
0.0240983
0.0298667
0.035223
0.0397481
0.0431195
0.000473404
0.000961538
0.0024142
0.00459063
0.00772878
0.0121179
0.01772
0.0237743
0.0298265
0.0355719
0.0405993
0.0444598
0.00047022
0.000931796
0.00233828
0.00444296
0.00747366
0.0117135
0.0172743
0.0234778
0.0297786
0.035861
0.0413294
0.0456649
0.000468547
0.000910549
0.00228017
0.00432903
0.00727491
0.0113933
0.0168921
0.0232182
0.0297416
0.0361169
0.0419629
0.0467271
0.000467549
0.00089438
0.00223547
0.00424094
0.00712011
0.0111403
0.0165677
0.0230003
0.0297366
0.0363837
0.042571
0.0477534
0.000466591
0.000881017
0.00219883
0.00416886
0.00699378
0.0109337
0.0162854
0.0228064
0.0297499
0.0366618
0.0431708
0.0487427
0.000465382
0.000869176
0.00216625
0.00410472
0.00688132
0.0107493
0.0160189
0.0225969
0.0297264
0.0368814
0.043679
0.0495732
0.000463843
0.000858635
0.00213715
0.00404756
0.00678128
0.0105855
0.0157747
0.0223845
0.0296842
0.0370747
0.0441623
0.0504444
0.000461887
0.000848803
0.00211005
0.00399472
0.00668922
0.0104351
0.0155457
0.0221622
0.0296134
0.0372223
0.0445651
0.0511287
0.000459456
0.000839137
0.00208388
0.00394431
0.0066025
0.0102952
0.0153329
0.021938
0.0295329
0.0373654
0.0449805
0.0518954
0.000456446
0.000829127
0.00205708
0.00389288
0.00651446
0.0101539
0.0151167
0.0216824
0.0293984
0.0374442
0.0453115
0.052501
0.00045287
0.000818713
0.00202953
0.00384035
0.00642517
0.0100118
0.0149003
0.021405
0.0292151
0.0374695
0.0456037
0.0531308
0.000448856
0.000807794
0.00200083
0.00378565
0.00633232
0.00986426
0.0146758
0.0210985
0.0289573
0.0373848
0.0457511
0.0535537
0.000444635
0.000796901
0.00197246
0.00373189
0.0062415
0.00972071
0.0144585
0.0207952
0.0286719
0.0372486
0.0458404
0.0539493
0.000440322
0.000786135
0.00194457
0.00367922
0.00615294
0.00958146
0.0142488
0.0204988
0.0283673
0.0370626
0.0458448
0.0541895
0.000436008
0.000775608
0.00191745
0.00362823
0.00606768
0.00944828
0.0140497
0.0202174
0.0280654
0.0368651
0.0458329
0.0544377
0.000431731
0.000765452
0.00189119
0.00357874
0.00598485
0.00931905
0.0138571
0.0199443
0.0277598
0.0366501
0.0457906
0.0546234
0.000427531
0.000755703
0.00186595
0.00353094
0.00590451
0.00919318
0.0136688
0.0196751
0.0274427
0.0364071
0.0457093
0.0547599
0.000423494
0.000746686
0.0018424
0.00348602
0.00582849
0.00907322
0.0134882
0.0194141
0.0271207
0.0361401
0.0455925
0.0548536
0.000419641
0.000738385
0.00182076
0.00344474
0.00575833
0.00896209
0.0133198
0.0191692
0.026808
0.035865
0.0454569
0.0549271
0.000416001
0.000730921
0.00180132
0.00340767
0.00569533
0.00886195
0.0131677
0.0189462
0.0265157
0.0355941
0.0453095
0.0549738
0.000412546
0.000724051
0.00178362
0.00337424
0.00563902
0.00877315
0.0130334
0.0187501
0.0262561
0.0353466
0.0451718
0.0550213
0.000409269
0.000717666
0.00176723
0.00334344
0.00558757
0.00869277
0.012913
0.0185753
0.0260238
0.0351165
0.0450217
0.0549944
0.000406092
0.000711599
0.00175166
0.00331425
0.00553913
0.00861804
0.0128031
0.0184203
0.0258269
0.0349436
0.0449561
0.0551165
0.000402937
0.000705809
0.00173661
0.00328564
0.00549099
0.00854269
0.0126909
0.0182595
0.0256175
0.0347552
0.0448752
0.0551886
0.000399761
0.000700172
0.00172198
0.0032577
0.00544364
0.00846762
0.0125769
0.0180917
0.0253855
0.034516
0.044723
0.0551601
0.000396603
0.000694736
0.00170791
0.00323084
0.00539804
0.00839521
0.0124666
0.0179285
0.0251561
0.0342638
0.044547
0.0551275
0.000393475
0.000689475
0.00169443
0.00320531
0.00535507
0.00832757
0.0123646
0.0177793
0.0249483
0.0340339
0.0443906
0.0551279
0.000390378
0.000684465
0.00168153
0.00318078
0.00531378
0.00826279
0.0122676
0.0176392
0.0247571
0.0338294
0.044272
0.0551948
0.000387286
0.0006795
0.00166887
0.00315677
0.00527329
0.00819894
0.0121711
0.0174972
0.0245557
0.033589
0.0440692
0.055062
0.000384219
0.000674788
0.00165676
0.00313375
0.00523459
0.00813832
0.0120802
0.0173651
0.0243715
0.0333743
0.0439123
0.055055
0.000381149
0.000670103
0.00164476
0.0031109
0.00519611
0.00807796
0.0119897
0.0172338
0.0241877
0.033154
0.043734
0.0549779
0.000378127
0.000665764
0.00163346
0.00308911
0.005159
0.00801922
0.0119011
0.0171047
0.0240065
0.0329338
0.0435596
0.0549439
0.000375138
0.000661644
0.00162281
0.00306848
0.00512359
0.00796254
0.0118145
0.0169767
0.0238233
0.0327
0.0433488
0.0548369
0.000372271
0.00065797
0.00161333
0.00305006
0.0050918
0.00791129
0.0117354
0.0168585
0.0236521
0.0324755
0.0431342
0.054717
0.000369518
0.000654601
0.00160474
0.0030336
0.00506372
0.00786635
0.0116663
0.016755
0.0235018
0.0322766
0.0429385
0.0545962
0.00036684
0.000651492
0.00159691
0.00301871
0.00503864
0.00782682
0.0116065
0.0166668
0.0233754
0.0321137
0.0427922
0.0545358
0.000364163
0.000648363
0.0015891
0.003004
0.00501421
0.00778902
0.0115505
0.0165864
0.023264
0.0319784
0.0426999
0.0545888
0.000361486
0.000645263
0.00158126
0.00298897
0.00498903
0.00774979
0.0114921
0.016502
0.023145
0.0318251
0.0425655
0.0545548
0.000358816
0.000642222
0.00157347
0.00297385
0.00496333
0.00770946
0.0114317
0.0164148
0.0230227
0.031668
0.0424253
0.0545031
0.000356227
0.000639574
0.00156642
0.0029596
0.0049383
0.00766892
0.0113695
0.0163229
0.0228913
0.0314938
0.0422565
0.0544247
0.000353775
0.00063753
0.00156074
0.00294756
0.0049163
0.00763202
0.011311
0.0162338
0.0227598
0.0313119
0.0420669
0.054324
0.000351523
0.00063642
0.00155721
0.00293914
0.00489962
0.00760228
0.0112616
0.0161555
0.0226409
0.0311432
0.0418866
0.0542363
0.000349496
0.000636338
0.00155621
0.00293531
0.0048901
0.0075827
0.0112255
0.0160939
0.0225413
0.0309946
0.0417169
0.0541343
0.000347667
0.000637493
0.00155826
0.00293696
0.00488947
0.0075764
0.011208
0.016057
0.0224737
0.0308858
0.0415969
0.054127
0.000345961
0.000639518
0.00156272
0.00294345
0.00489723
0.00758338
0.0112102
0.0160474
0.0224411
0.0308173
0.041503
0.054052
0.000344383
0.000642474
0.00156947
0.0029543
0.00491268
0.0076032
0.0112327
0.0160685
0.0224525
0.0308064
0.0414683
0.0539986
0.000342782
0.000646228
0.00157813
0.00296857
0.00493388
0.0076326
0.0112716
0.0161182
0.0225156
0.0308934
0.0416379
0.0544176
0.00034114
0.000650796
0.00158851
0.00298538
0.00495814
0.00766502
0.0113125
0.0161675
0.0225733
0.0309637
0.0417624
0.054694
0.000339501
0.000656557
0.00160163
0.00300678
0.00498885
0.00770522
0.011361
0.0162209
0.0226251
0.0310043
0.041803
0.0548226
0.000337838
0.000663729
0.00161814
0.00303445
0.00502956
0.00775994
0.011429
0.0162986
0.0227044
0.0310715
0.04186
0.0549601
0.000336017
0.000672153
0.00163792
0.0030683
0.00508081
0.0078312
0.0115216
0.0164117
0.0228332
0.0312059
0.0419989
0.0551646
0.000333996
0.000682053
0.00166086
0.00310745
0.00514068
0.00791583
0.0116344
0.0165552
0.0230078
0.0314111
0.0422508
0.0555341
0.000331614
0.000693249
0.00168664
0.00315131
0.00520724
0.00800975
0.0117596
0.0167145
0.0232029
0.0316432
0.0425397
0.0560054
0.000328726
0.000706057
0.00171591
0.00320097
0.00528182
0.0081135
0.0118955
0.0168829
0.0234005
0.0318604
0.0427689
0.0563527
0.000325214
0.000720985
0.00174984
0.00325854
0.0053682
0.00823299
0.0120506
0.0170728
0.0236192
0.0320922
0.0429888
0.056623
0.0003208
0.000738543
0.00178961
0.00332613
0.00546963
0.00837311
0.0122323
0.0172953
0.0238756
0.0323675
0.0432628
0.0569681
0.000314928
0.000759338
0.00183661
0.00340635
0.00559028
0.00853972
0.0124482
0.0175594
0.0241796
0.032693
0.0435778
0.0572984
0.000306443
0.000783855
0.00189248
0.00350214
0.00573458
0.00873907
0.0127065
0.0178751
0.0245423
0.0330805
0.0439551
0.0576818
0.000293281
0.000813067
0.00195972
0.00361737
0.00590835
0.00898025
0.0130202
0.0182605
0.0249884
0.0335602
0.0444131
0.0580302
0.000272377
0.000847163
0.00203914
0.00375405
0.00611446
0.00926651
0.0133931
0.0187205
0.0255279
0.0341627
0.0450617
0.0587576
0.000241467
0.000888077
0.00213433
0.00391751
0.00635941
0.00960383
0.0138283
0.0192507
0.0261385
0.0348232
0.0457232
0.0593606
0.000216721
0.000941958
0.00225149
0.00411648
0.00665502
0.0100062
0.0143397
0.0198618
0.0268239
0.0355365
0.0463915
0.0598789
0.000215839
0.00101744
0.00239927
0.00436581
0.00702368
0.0105034
0.0149634
0.0205949
0.0276307
0.0363605
0.0471528
0.0604759
0.00022104
0.00110692
0.00258934
0.00469106
0.00750411
0.0111447
0.0157551
0.0215063
0.0286104
0.0373379
0.0480429
0.061197
0.000239772
0.00128649
0.00295009
0.00526407
0.00829628
0.0121434
0.0169251
0.0227861
0.0299175
0.038578
0.0491065
0.0619426
0.000354463
0.00191189
0.00413471
0.00694987
0.0103651
0.0144656
0.0193651
0.0251918
0.0321399
0.040519
0.0506804
0.0630649
0.00123078
0.00477686
0.00906572
0.0139222
0.0192914
0.0251204
0.0313528
0.0379296
0.0447875
0.0518628
0.0590978
0.066457
1.37522e-06
0.00185947
0.00489549
0.00877915
0.0135096
0.0190168
0.0252202
0.0320092
0.0392683
0.0468764
0.0547172
0.0627061
0.000643621
0.00172313
0.00406565
0.00722751
0.0112484
0.0161181
0.0218126
0.0282718
0.0354007
0.0430709
0.0511313
0.0594248
0.000670621
0.00157017
0.00358953
0.00633465
0.00987915
0.0142582
0.0194957
0.0255803
0.0324556
0.0400153
0.0481072
0.0565465
0.000688242
0.00138638
0.00317845
0.00563537
0.00884268
0.0128563
0.0177271
0.0234771
0.0300843
0.0374724
0.0455068
0.0540111
0.00068763
0.001237
0.00285884
0.00509806
0.00804615
0.011769
0.0163337
0.0217853
0.0281299
0.0353206
0.0432491
0.0517614
0.000688048
0.00112661
0.00261365
0.0046798
0.00741902
0.0109018
0.0152059
0.0203921
0.0264889
0.0334756
0.04127
0.0497291
0.000687567
0.00104091
0.00241706
0.00434048
0.00690659
0.0101874
0.014267
0.0192186
0.0250882
0.0318799
0.0395453
0.0479876
0.00068753
0.000972061
0.00225532
0.00405926
0.00647806
0.00958591
0.013471
0.0182149
0.0238788
0.0304882
0.0380234
0.0464149
0.000687694
0.000915759
0.0021202
0.00382236
0.00611406
0.00907212
0.0127864
0.0173452
0.0228203
0.0292514
0.0366255
0.0448262
0.000687773
0.000868878
0.0020054
0.00361953
0.00580039
0.00862711
0.01219
0.0165819
0.0218821
0.0281402
0.035354
0.0434516
0.000687755
0.000829202
0.00190643
0.0034434
0.00552653
0.00823687
0.0116643
0.0159046
0.0210426
0.0271362
0.0341952
0.0421629
0.000687733
0.000796002
0.00182003
0.00328866
0.00528473
0.00789103
0.0111963
0.0152981
0.0202856
0.0262246
0.0331379
0.0409922
0.000688714
0.000775936
0.00174382
0.00315138
0.00506919
0.00758173
0.010776
0.0147507
0.019599
0.0253934
0.0321686
0.0399055
0.000691487
0.00077181
0.00167609
0.00302857
0.00487545
0.00730288
0.0103957
0.0142536
0.0189725
0.024631
0.0312725
0.0388825
0.000695298
0.000775254
0.00161555
0.00291789
0.00470013
0.00704982
0.0100496
0.0137997
0.0183986
0.0239304
0.0304485
0.0379621
0.000699174
0.000780085
0.00156124
0.00281779
0.00454134
0.00681892
0.00973299
0.0133832
0.0178699
0.0232806
0.0296709
0.0370239
0.00070264
0.000784158
0.00151237
0.0027269
0.00439662
0.0066072
0.00944196
0.0129994
0.0173812
0.0226785
0.0289565
0.036249
0.000705611
0.00078713
0.0014682
0.00264394
0.00426392
0.00641228
0.00917339
0.0126443
0.0169277
0.0221169
0.028279
0.0354164
0.000708145
0.00078914
0.00142813
0.00256789
0.00414171
0.00623208
0.00892462
0.0123146
0.0165053
0.0215919
0.0276458
0.0346978
0.000710309
0.000790394
0.00139209
0.00249784
0.00402865
0.0060649
0.00869338
0.0120075
0.0161108
0.0211004
0.027053
0.0340095
0.000712226
0.000791642
0.0013637
0.00243319
0.00392369
0.00590922
0.00847772
0.0117206
0.0157416
0.0206405
0.0265016
0.0333875
0.00071416
0.000794427
0.00134948
0.00237369
0.00382599
0.00576385
0.00827605
0.011452
0.0153958
0.0202099
0.0259844
0.0327832
0.000716308
0.000799487
0.00134766
0.00231908
0.00373478
0.0056277
0.00808701
0.0112
0.015071
0.0198043
0.0254923
0.0321935
0.000718653
0.000806136
0.00135168
0.00226892
0.00364951
0.00550007
0.00790943
0.0109631
0.0147656
0.0194238
0.025038
0.0317059
0.000721065
0.000813303
0.00135695
0.00222268
0.00356975
0.00538068
0.00774235
0.01074
0.0144778
0.0190638
0.0245968
0.0311285
0.000723381
0.000820094
0.00136136
0.00217987
0.0034951
0.00526865
0.00758487
0.0105295
0.0142056
0.0187213
0.0241739
0.0306256
0.000725567
0.000826208
0.00136431
0.00214008
0.0034251
0.00516325
0.00743619
0.0103304
0.0139477
0.0183961
0.0237753
0.0301666
0.000727625
0.000831469
0.00136577
0.00210293
0.00335931
0.00506385
0.00729555
0.0101418
0.0137029
0.0180869
0.0233957
0.0297103
0.000729476
0.000835914
0.00136588
0.00206814
0.00329736
0.00496989
0.00716224
0.0099628
0.0134701
0.0177926
0.0230345
0.0292825
0.000731165
0.000839693
0.00136486
0.00203545
0.00323887
0.00488091
0.00703569
0.00979263
0.0132486
0.0175126
0.0226905
0.0288724
0.000732717
0.000842886
0.00136293
0.00200479
0.00318358
0.00479651
0.00691539
0.00963069
0.0130377
0.0172456
0.0223614
0.0284747
0.000734161
0.000845628
0.00136035
0.00197648
0.00313122
0.00471635
0.00680089
0.00947644
0.0128366
0.0169907
0.0220469
0.0280978
0.000735518
0.000848032
0.00135761
0.00195213
0.00308168
0.00464012
0.00669175
0.0093293
0.0126447
0.016747
0.0217451
0.0277303
0.000736823
0.000850329
0.0013557
0.00193486
0.00303497
0.00456752
0.00658756
0.00918877
0.0124612
0.0165136
0.0214548
0.0273744
0.000738133
0.000852844
0.00135575
0.00192634
0.00299121
0.0044984
0.00648833
0.00905442
0.0122855
0.0162897
0.0211763
0.0270409
0.000739504
0.000855832
0.00135827
0.00192497
0.00295046
0.00443267
0.00639392
0.00892592
0.0121172
0.0160753
0.0209106
0.0267259
0.000740969
0.000859391
0.00136303
0.0019278
0.00291254
0.00437021
0.00630395
0.00880297
0.0119561
0.01587
0.0206564
0.0264182
0.000742534
0.000863407
0.0013693
0.00193241
0.00287721
0.00431082
0.00621809
0.00868521
0.0118016
0.0156727
0.0204094
0.0261067
0.000744178
0.000867724
0.00137634
0.00193732
0.00284414
0.0042543
0.00613602
0.00857237
0.0116534
0.0154838
0.0201773
0.0258582
0.00074587
0.000872116
0.00138353
0.00194179
0.00281306
0.00420045
0.0060575
0.00846418
0.0115114
0.015303
0.0199552
0.0255861
0.000747585
0.000876418
0.00139046
0.0019455
0.00278372
0.00414911
0.00598236
0.00836044
0.0113753
0.01513
0.019742
0.0253306
0.000749305
0.000880527
0.00139689
0.00194833
0.00275592
0.00410014
0.00591039
0.00826097
0.0112447
0.0149643
0.0195378
0.0250872
0.00075102
0.000884379
0.00140273
0.00195028
0.00272954
0.00405336
0.00584153
0.0081656
0.0111196
0.0148054
0.0193418
0.0248494
0.000752726
0.000887963
0.00140791
0.00195138
0.0027044
0.00400866
0.00577553
0.00807418
0.0109997
0.0146528
0.019151
0.0246012
0.000754425
0.000891265
0.00141247
0.00195173
0.00268053
0.00396591
0.0057123
0.00798649
0.0108845
0.0145054
0.0189642
0.024361
0.000756118
0.000894338
0.00141646
0.00195146
0.002658
0.00392507
0.00565181
0.00790236
0.0107737
0.0143634
0.0187854
0.0241502
0.000757812
0.000897191
0.00141995
0.00195073
0.00263725
0.00388604
0.00559375
0.00782149
0.0106673
0.0142265
0.0186105
0.0239201
0.000759516
0.000899861
0.00142305
0.00194988
0.00261915
0.00384894
0.00553821
0.0077441
0.010565
0.014095
0.0184497
0.0237741
0.000761241
0.000902402
0.00142593
0.00194938
0.00260497
0.00381363
0.00548497
0.00766993
0.0104666
0.0139689
0.0182924
0.0235496
0.000763
0.00090489
0.00142883
0.00194981
0.00259573
0.00378029
0.00543407
0.00759897
0.0103721
0.0138476
0.0181402
0.0233688
0.00076478
0.000907347
0.00143198
0.0019516
0.00259143
0.00374904
0.00538548
0.00753112
0.0102814
0.013731
0.0179925
0.023176
0.000766629
0.000909927
0.0014356
0.00195498
0.00259135
0.00372011
0.00533943
0.0074665
0.0101946
0.0136191
0.017851
0.0230058
0.00076861
0.000912666
0.00143983
0.00195994
0.00259413
0.00369322
0.00529557
0.00740477
0.0101117
0.013512
0.0177159
0.0228413
0.000770728
0.000915602
0.00144476
0.00196614
0.0025985
0.00366823
0.00525386
0.00734578
0.0100322
0.0134095
0.0175873
0.022688
0.000773005
0.000918848
0.00145028
0.00197316
0.00260375
0.0036452
0.00521447
0.00728973
0.00995646
0.0133115
0.0174647
0.022538
0.000775365
0.000922172
0.00145618
0.00198073
0.00260933
0.00362375
0.00517712
0.0072363
0.00988413
0.0132181
0.0173473
0.0223902
0.000777848
0.000925605
0.00146235
0.00198856
0.00261492
0.0036038
0.00514179
0.00718556
0.00981532
0.0131291
0.0172345
0.0222441
0.00078047
0.000929184
0.00146869
0.00199646
0.00262046
0.00358544
0.00510869
0.0071377
0.00975002
0.0130444
0.0171261
0.0221038
0.000783157
0.000932508
0.00147497
0.0020043
0.00262568
0.00356837
0.00507751
0.0070925
0.00968843
0.0129641
0.0170225
0.0219688
0.000785967
0.00093613
0.00148121
0.00201189
0.00263057
0.00355258
0.00504836
0.00705002
0.00963028
0.0128882
0.016924
0.0218426
0.00078927
0.000939938
0.00148761
0.00201934
0.0026352
0.00353832
0.00502152
0.00701061
0.00957596
0.0128166
0.0168307
0.0217213
0.000792613
0.000943584
0.00149379
0.00202652
0.00263961
0.00352535
0.00499682
0.00697407
0.00952537
0.0127496
0.0167436
0.0216134
0.000796174
0.00094726
0.00149981
0.00203345
0.00264387
0.00351382
0.00497442
0.00694068
0.00947883
0.0126877
0.0166628
0.021509
0.000800011
0.000950897
0.00150567
0.00204014
0.00264802
0.00350378
0.00495444
0.00691061
0.00943658
0.0126314
0.0165896
0.0214203
0.000804109
0.000954638
0.00151147
0.00204676
0.00265237
0.00349554
0.0049373
0.00688433
0.00939904
0.0125811
0.0165233
0.0213294
0.000808441
0.000958065
0.00151705
0.00205315
0.00265671
0.00348907
0.00492299
0.00686202
0.00936705
0.0125375
0.0164663
0.0212691
0.000813195
0.000961959
0.00152271
0.00205959
0.00266128
0.00348468
0.00491199
0.00684427
0.0093411
0.0125019
0.0164203
0.0212127
0.000818891
0.000966156
0.00152855
0.00206609
0.00266637
0.00348296
0.00490513
0.00683216
0.00932247
0.0124752
0.0163843
0.0211585
0.000825094
0.000970431
0.00153453
0.00207286
0.00267222
0.00348425
0.00490302
0.0068265
0.00931224
0.0124588
0.0163599
0.0211215
0.000832159
0.00097482
0.00154055
0.00207991
0.00267897
0.00348905
0.00490656
0.00682861
0.009312
0.0124544
0.0163477
0.0210875
0.000840581
0.000980645
0.00154825
0.00208859
0.00268811
0.00350029
0.00491931
0.00684223
0.00932523
0.0124653
0.0163544
0.0211048
0.000849106
0.000981171
0.00155151
0.00209459
0.00269585
0.0035123
0.00493616
0.00686371
0.00935051
0.0124919
0.0163785
0.0210971
0.000887623
0.00101907
0.00158076
0.00212204
0.00272728
0.00356614
0.00500157
0.00693537
0.0094238
0.0125613
0.0164379
0.0211682
0.000495671
0.000842773
0.00151414
0.00206598
0.00266382
0.00349018
0.00492608
0.00686816
0.00937274
0.0125344
0.0164458
0.0212042
0.137263
0.138655
0.112525
0.140044
0.138449
0.0381205
0.117665
0.138606
0.134909
0.0743515
0.0697838
0.0548573
0.127837
0.137201
0.128132
0.0950446
0.131763
0.0390846
0.132037
0.17929
0.0771057
0.137954
0.121595
0.0825171
0.137732
0.117638
0.138765
0.102034
0.0810804
0.134932
0.137627
0.0621096
0.118837
0.102237
0.137625
0.0304459
0.110343
0.0927696
0.135186
0.125338
0.105418
0.135096
0.126783
0.0972067
0.132713
0.0736504
0.110285
0.138213
0.139064
0.127317
0.140052
0.116443
0.139358
0.0938588
0.0760659
0.347004
0.13438
0.107781
0.0790855
0.130516
0.140038
0.101625
0.0969044
0.114361
0.134652
0.111247
0.12382
0.0916616
0.136063
0.106377
0.276872
0.103007
0.0742967
0.331669
0.0764912
0.0577472
0.0935737
0.130614
0.0533605
0.0874813
0.125317
0.124801
0.112803
0.139885
0.135893
0.102535
0.134783
0.120223
0.282441
0.0977373
0.137818
0.139727
0.139891
0.120913
0.139783
0.0918985
0.138725
0.116069
0.136119
0.0697193
0.0751889
0.0556034
0.0698527
0.103095
0.109674
0.121672
0.135234
0.138962
0.0948686
0.128182
0.0474776
0.137723
0.138039
0.0171725
0.123011
0.1506
0.123227
0.0816642
0.102204
0.248108
0.138861
0.0971662
0.0657964
0.11926
0.0742314
0.121468
0.0996162
0.0278179
0.138571
0.114521
0.112623
0.0569343
0.139932
0.128196
0.0993289
0.136225
0.0898232
0.135858
0.122792
0.126087
0.138457
0.139204
0.138226
0.126047
0.107177
0.0864718
0.120529
0.131452
0.0684989
0.103642
0.14562
0.13562
0.115445
0.138235
0.033005
0.13503
0.117983
0.126729
0.101843
0.128662
0.0927246
0.0846488
0.104194
0.0594829
0.130809
0.309561
0.0992001
0.123056
0.108575
0.064734
0.0475859
0.134552
0.135259
0.0703677
0.0485498
0.138397
0.115994
0.0886332
0.132845
0.137468
0.119774
0.0854883
0.137539
0.12999
0.139789
0.177704
0.147494
0.0848161
0.138239
0.293934
0.136198
0.113537
0.0846425
0.109913
0.114743
0.0802372
0.102954
0.072219
0.120974
0.0983943
0.137168
0.118007
0.138128
0.0810526
0.106481
0.125789
0.144779
0.086189
0.107481
0.177086
0.112468
0.111253
0.11815
0.1369
0.0913495
0.0162626
0.0706883
0.125892
0.0433187
0.0733121
0.117248
0.132309
0.129243
0.125827
0.116256
0.138449
0.0875348
0.12469
0.138014
0.0381279
0.106661
0.114139
0.128862
0.0500794
0.088458
0.129736
0.0954151
0.1012
0.13705
0.139496
0.131003
0.0703543
0.135625
0.139996
0.115371
0.0527652
0.13986
0.117038
0.107216
0.139043
0.126634
0.124935
0.0761123
0.126471
0.125642
0.094101
0.0434283
0.130357
0.0914924
0.101425
0.108593
0.13707
0.125161
0.104908
0.0743856
0.127641
0.135753
0.137162
0.140052
0.0881939
0.126528
0.136697
0.123847
0.0629727
0.0630515
0.0992614
0.133252
0.105853
0.136651
0.0636645
0.0769093
0.0495528
0.139819
0.0657969
0.0958322
0.135992
0.1284
0.138581
0.13662
0.026391
0.0520511
0.127007
0.119627
0.111107
0.112947
0.131722
0.120628
0.139973
0.094346
0.0583367
0.0696304
0.108995
0.0515329
0.115172
0.138005
0.138218
0.12114
0.136587
0.0736398
0.0496361
0.119652
0.0929396
0.136503
0.0425137
0.228772
0.136084
0.0355978
0.135554
0.139285
0.0777857
0.121219
0.120134
0.126002
0.137897
0.131567
0.0766962
0.135556
0.139283
0.0563345
0.134675
0.131145
0.0953565
0.0538689
0.125743
0.111257
0.0836202
0.0838441
0.142318
0.140443
0.135263
0.175783
0.120468
0.11841
0.263773
0.110071
0.0938795
0.135796
0.11907
0.145386
0.127422
0.136527
0.139991
0.12195
0.0360943
0.126301
0.138959
0.136758
0.137959
0.219377
0.0889831
0.0962987
0.137611
0.120116
0.134074
0.0566732
0.190446
0.129476
0.109629
0.137105
0.0855512
0.128378
0.0891342
0.137097
0.13945
0.0318566
0.0746922
0.0492476
0.0743192
0.156574
0.0535205
0.137057
0.114679
0.138302
0.136583
0.0994054
0.136534
0.0756173
0.0427612
0.0915311
0.105844
0.0657279
0.0554714
0.139955
0.132937
0.132374
0.136972
0.0874199
0.0671282
0.12955
0.0833863
0.131175
0.0624528
0.0563775
0.110575
0.136243
0.11247
0.086476
0.038925
0.112212
0.029743
0.063049
0.113127
0.139836
0.136543
0.11679
0.0726779
0.0654028
0.146703
0.137872
0.138963
0.134569
0.120851
0.138262
0.110894
0.137113
0.138059
0.093123
0.134
0.120992
0.111674
0.135044
0.050796
0.126699
0.0915465
0.130817
0.0807872
0.0490373
0.1373
0.0754924
0.10873
0.0808175
0.0904284
0.138045
0.116173
0.132091
0.0932655
0.139339
0.137991
0.0985863
0.121887
0.123336
0.13475
0.0560094
0.158789
0.0922488
0.0759496
0.140033
0.133707
0.0859104
0.138619
0.135486
0.11589
0.138504
0.0766811
0.0749898
0.140049
0.137081
0.0858301
0.0277057
0.105128
0.0833977
0.0799134
0.131477
0.0391724
0.0700335
0.0836642
0.0754763
0.0737249
0.14006
0.127519
0.108192
0.126483
0.106999
0.0868033
0.109995
0.131845
0.134033
0.10668
0.138361
0.138887
0.0692732
0.136921
0.0542564
0.138472
0.141563
0.135853
0.122183
0.0977626
0.133312
0.117751
0.139043
0.0885891
0.138517
0.126084
0.110017
0.139515
0.1103
0.13982
0.0601937
0.13459
0.114703
0.117348
0.0973018
0.11039
0.0403435
0.0911539
0.0745616
0.137913
0.14005
0.0905425
0.261997
0.133247
0.0766525
0.128707
0.139971
0.111308
0.103794
0.0451417
0.0422195
0.0712642
0.0774077
0.118761
0.0898662
0.0627639
0.137913
0.0659706
0.143885
0.0677454
0.0868203
0.0835281
0.030164
0.137809
0.109318
0.104372
0.0404111
0.140001
0.120684
0.0265034
0.0921914
0.122126
0.127384
0.102284
0.0338164
0.143465
0.0996033
0.139244
0.13854
0.0339406
0.0696267
0.0422458
0.133446
0.132325
0.128546
0.0982079
0.124319
0.139849
0.0815756
0.134191
0.114987
0.0406907
0.136983
0.120128
0.134326
0.089518