/*--------------------------------*- C++ -*----------------------------------*\
| =========                 |                                                 |
| \\      /  F ield         | OpenFOAM: The Open Source CFD Toolbox           |
|  \\    /   O peration     | Version:  2.3.0                                 |
|   \\  /    A nd           | Web:      www.OpenFOAM.org                      |
|    \\/     M anipulation  |                                                 |
\*---------------------------------------------------------------------------*/
FoamFile
{
    version     2.0;
    format      ascii;
    class       volScalarField;
    location    "1000";
    object      p;
}
// * * * * * * * * * * * * * * * * * * * * * * * * * * * * * * * * * * * * * //

dimensions      [0 2 -2 0 0 0 0];

internalField   nonuniform List<scalar> 
6748
(
-0.152327
-0.795283
-0.50473
0.596137
2.54709
5.58245
10.2142
17.3673
27.5899
39.1145
49.8559
69.114
17.4975
19.8941
23.4689
28.5721
35.4726
44.3338
55.1647
67.9116
82.342
98.07
114.851
132.21
31.6661
36.2459
41.4653
47.5474
54.3877
61.9478
70.1403
78.8586
87.9247
97.1523
106.368
115.391
42.0739
47.2552
52.7529
58.9553
65.7332
73.0103
80.6699
88.5898
96.6097
104.573
112.308
119.665
49.9576
55.1188
60.2954
65.8929
71.8008
77.9725
84.34
90.8349
97.3633
103.839
110.159
116.238
56.1403
60.9247
65.6684
70.7402
76.0458
81.5479
87.1938
92.9295
98.6876
104.4
109.991
115.392
60.8639
65.1992
69.465
74.0064
78.7479
83.6484
88.6768
93.7904
98.9442
104.083
109.141
114.061
64.4123
68.3561
72.2126
76.3338
80.633
85.0744
89.6517
94.3051
99.0199
103.75
108.423
112.985
67.3196
70.9033
74.4746
78.2759
82.1263
86.1991
90.4942
94.8176
99.1861
103.564
107.929
112.235
69.8017
73.4004
76.8053
79.9155
83.7181
87.4513
91.46
95.4602
99.5638
103.667
107.847
112.048
118.412
143.984
161.969
176.687
188.762
197.89
203.926
206.905
207.065
204.847
201.091
196.76
147.858
160.609
171.006
179.263
185.467
189.717
192.195
193.15
192.83
191.452
189.429
187.237
124.199
132.955
141.476
149.499
156.8
163.197
168.529
172.683
175.583
177.216
177.873
177.963
126.629
133.319
139.715
145.693
151.137
155.962
160.103
163.525
166.193
168.08
169.411
170.806
122.096
127.811
133.349
138.617
143.523
147.996
151.974
155.413
158.266
160.498
162.269
163.743
120.594
125.637
130.494
135.101
139.396
143.333
146.877
150.005
152.694
154.919
156.778
158.676
118.821
123.43
127.857
132.049
135.96
139.556
142.811
145.714
148.253
150.409
152.287
153.964
117.413
121.702
125.816
129.706
133.327
136.652
139.66
142.363
144.76
146.812
148.648
150.278
116.442
120.494
124.358
128.001
131.376
134.47
137.271
139.822
142.085
143.902
145.526
147.162
116.183
120.04
123.662
127.035
130.107
132.966
135.586
137.983
140.117
141.537
142.929
144.397
0.338575
-0.884206
-2.0549
-3.04194
-3.73969
-4.04699
-3.9157
-3.35448
-2.36596
-0.931414
1.37411
6.66561
2.75856
1.43759
0.352189
-0.443081
-0.864853
-0.831838
-0.200774
1.2007
3.53991
6.99269
11.5758
16.9259
5.20113
4.07197
3.1917
2.66645
2.60634
3.08646
4.18799
6.0012
8.61098
12.0323
16.1426
20.5627
7.71339
6.82867
6.20458
5.95741
6.16072
6.86024
8.10755
9.94874
12.4012
15.42
18.874
22.5159
10.1941
9.48159
9.05103
8.97989
9.31413
10.0923
11.3513
13.1153
15.3846
18.1136
21.2006
24.4547
12.4711
11.8774
11.6031
11.6444
12.0356
12.8166
14.0223
15.6747
17.7716
20.2804
23.1213
26.1406
14.2429
14.0353
13.9041
14.0036
14.4095
15.1722
16.3243
17.8839
19.8457
22.2012
24.8841
27.7461
16.0424
15.9977
15.9327
16.0566
16.4452
17.1543
18.2233
19.6722
21.4659
23.6455
26.1819
28.8982
17.6754
17.7087
17.7093
17.9183
18.3509
19.0971
20.2189
21.7574
23.5685
25.7698
28.3812
30.9734
19.1888
18.543
17.8488
17.6273
17.3533
17.4565
18.0389
19.2957
20.7738
22.2028
25.1821
28.5971
17.8865
23.1779
26.6085
29.9681
33.3236
36.5802
39.7528
42.9005
46.0838
49.3395
52.6568
56.0083
22.6386
26.1382
28.2131
30.4086
32.9008
35.6491
38.5774
41.6144
44.719
47.8842
51.0711
54.1462
24.855
28.821
31.3461
33.3439
35.4047
37.6018
39.937
42.3978
44.9735
47.6715
50.4578
53.1443
26.1386
29.7707
32.4717
34.4951
36.53
38.6176
40.769
42.987
45.2757
47.651
50.1605
52.7019
27.7012
30.8958
33.5056
35.4549
37.4006
39.3813
41.4088
43.4802
45.5953
47.7502
49.9986
52.4444
29.1758
32.1402
34.6957
36.6308
38.5019
40.3734
42.2618
44.1703
46.1049
48.0564
50.0567
52.2458
30.627
33.4333
35.9228
37.8429
39.6438
41.4179
43.1803
44.939
46.704
48.4705
50.2568
52.1799
31.6713
34.4498
37.0165
38.9742
40.709
42.3906
44.0427
45.6727
47.2946
48.9079
50.532
52.2577
33.5376
36.1656
38.615
40.3094
41.7742
43.2998
44.8341
46.344
47.8438
49.3253
50.8166
52.383
31.5597
35.0215
39.3525
41.3253
42.609
44.082
45.5857
46.9781
48.364
49.7249
51.1248
52.6044
-209.92
-191.348
-169.863
-152.611
-135.046
-115.905
-96.5292
-77.891
-60.6771
-45.7032
-33.5055
-23.9986
-115.377
-115.028
-113.401
-111.516
-109.656
-106.36
-100.793
-92.752
-82.2127
-69.676
-56.2996
-43.801
-119.875
-119.722
-119.606
-118.689
-116.474
-112.993
-108.135
-101.46
-92.8214
-82.3106
-70.2058
-57.9126
-108.805
-108.736
-108.546
-108.194
-107.54
-106.304
-104.267
-101.118
-96.144
-88.7984
-78.9385
-68.1001
-106.268
-106.242
-106.196
-106.043
-105.676
-104.908
-103.495
-101.198
-97.6114
-92.1742
-84.2999
-75.0955
-102.094
-102.071
-102.018
-101.899
-101.669
-101.24
-100.454
-99.0896
-96.7892
-93.0041
-86.9828
-78.9643
-99.2839
-99.267
-99.2349
-99.1565
-98.995
-98.6883
-98.1303
-97.1551
-95.5317
-92.8553
-88.483
-82.9271
-96.5683
-96.5531
-96.5223
-96.4549
-96.326
-96.0957
-95.6942
-94.9975
-93.834
-91.9176
-88.6448
-84.092
-94.2892
-94.2755
-94.2488
-94.1922
-94.0867
-93.9021
-93.5879
-93.0542
-92.1647
-90.7179
-88.2519
-86.04
-92.2324
-92.22
-92.1965
-92.1483
-92.0612
-91.9112
-91.6612
-91.2445
-90.5504
-89.4237
-87.4836
-85.6433
-90.3803
-90.3698
-90.3493
-90.3084
-90.2353
-90.1099
-89.9034
-89.5646
-89.0035
-88.0787
-86.4756
-85.096
-88.658
-88.6504
-88.6348
-88.6029
-88.5454
-88.4455
-88.2802
-88.0084
-87.5555
-86.7991
-85.534
-84.6521
-86.9903
-86.9861
-86.9764
-86.9556
-86.9165
-86.8455
-86.7249
-86.5211
-86.1726
-85.5743
-84.5533
-83.4138
-85.2908
-85.2889
-85.2833
-85.2693
-85.2409
-85.1863
-85.0895
-84.9192
-84.6195
-84.0965
-83.143
-81.2909
-83.5663
-83.5652
-83.5625
-83.554
-83.5347
-83.4946
-83.4201
-83.2845
-83.0379
-82.5946
-81.8069
-80.6987
-81.7937
-81.7933
-81.7933
-81.7893
-81.7767
-81.7462
-81.6848
-81.5665
-81.3469
-80.9641
-80.2863
-78.6643
-79.9906
-79.991
-79.9939
-79.9954
-79.992
-79.9758
-79.9364
-79.852
-79.6822
-79.3586
-78.7813
-78.0664
-78.1257
-78.1271
-78.1328
-78.1388
-78.1421
-78.1356
-78.1091
-78.0415
-77.8937
-77.6105
-77.088
-75.7301
-76.213
-76.2153
-76.2237
-76.235
-76.2469
-76.2545
-76.2503
-76.2189
-76.1241
-75.8943
-75.4417
-75.0985
-74.2263
-74.229
-74.2381
-74.2504
-74.2632
-74.272
-74.2693
-74.2391
-74.1452
-73.9231
-73.4668
-72.4205
-72.2271
-72.2297
-72.2384
-72.2505
-72.2632
-72.2727
-72.2726
-72.2493
-72.1718
-71.9802
-71.5922
-70.9668
-70.2213
-70.2239
-70.2325
-70.2442
-70.2558
-70.2635
-70.261
-70.2352
-70.158
-69.9779
-69.6302
-68.9621
-68.2531
-68.2553
-68.2632
-68.2739
-68.2844
-68.2913
-68.2886
-68.2646
-68.1949
-68.0323
-67.7048
-67.1066
-66.3175
-66.3199
-66.3282
-66.3394
-66.3507
-66.3591
-66.3589
-66.3394
-66.2793
-66.141
-65.8784
-65.3506
-64.43
-64.4322
-64.4398
-64.4504
-64.4613
-64.4699
-64.4714
-64.456
-64.4045
-64.2797
-64.0351
-63.5924
-62.5798
-62.5822
-62.59
-62.6007
-62.6118
-62.6209
-62.6237
-62.6114
-62.5672
-62.4561
-62.2218
-61.751
-60.7843
-60.7864
-60.7931
-60.8025
-60.812
-60.8196
-60.8213
-60.8096
-60.7691
-60.667
-60.4453
-60.0173
-59.0361
-59.0382
-59.0449
-59.054
-59.063
-59.0697
-59.0704
-59.0579
-59.0183
-58.9203
-58.7102
-58.3192
-57.3479
-57.3497
-57.3556
-57.3638
-57.3719
-57.378
-57.3786
-57.3678
-57.3345
-57.255
-57.0814
-56.7535
-55.7058
-55.7078
-55.7138
-55.7218
-55.7292
-55.7337
-55.7315
-55.7156
-55.6746
-55.5873
-55.4071
-54.907
-54.1299
-54.1316
-54.1372
-54.145
-54.153
-54.1591
-54.1598
-54.1493
-54.1165
-54.0393
-53.8877
-53.7538
-52.5886
-52.5908
-52.5976
-52.6072
-52.6178
-52.6277
-52.6338
-52.6302
-52.6076
-52.5515
-52.4369
-52.0782
-51.0825
-51.0847
-51.0917
-51.1021
-51.1145
-51.1281
-51.1407
-51.1485
-51.1441
-51.1099
-51.0132
-50.9107
-49.586
-49.5885
-49.5959
-49.6067
-49.6191
-49.6323
-49.6442
-49.6505
-49.6436
-49.6059
-49.4892
-49.1488
-48.1277
-48.1298
-48.1363
-48.146
-48.1573
-48.1693
-48.1798
-48.1846
-48.1755
-48.1338
-48.0294
-47.8332
-46.6897
-46.6922
-46.6995
-46.7104
-46.7231
-46.737
-46.7503
-46.7595
-46.758
-46.733
-46.6681
-46.6074
-45.2862
-45.2884
-45.2949
-45.3049
-45.3167
-45.3297
-45.3418
-45.3493
-45.3457
-45.3201
-45.2424
-44.8846
-43.9034
-43.9059
-43.9134
-43.9245
-43.9378
-43.9529
-43.9683
-43.9812
-43.9859
-43.9674
-43.9018
-43.9295
-42.5505
-42.5528
-42.5596
-42.5699
-42.5823
-42.5966
-42.6111
-42.6228
-42.6261
-42.6105
-42.5507
-42.2896
-41.2159
-41.2185
-41.2259
-41.2371
-41.2508
-41.2667
-41.2836
-41.2994
-41.3091
-41.3024
-41.2682
-41.2666
-39.9099
-39.9123
-39.919
-39.9293
-39.9418
-39.9564
-39.9719
-39.986
-39.9938
-39.986
-39.9483
-39.8505
-38.6247
-38.6273
-38.6341
-38.6445
-38.657
-38.6711
-38.6857
-38.6986
-38.7055
-38.6981
-38.6632
-38.5759
-37.3759
-37.3781
-37.3842
-37.3934
-37.4043
-37.4166
-37.4289
-37.4387
-37.4415
-37.4298
-37.3878
-37.268
-36.1542
-36.1567
-36.1631
-36.1729
-36.1844
-36.1971
-36.2095
-36.219
-36.2212
-36.2063
-36.1516
-36.0361
-34.9683
-34.9706
-34.9769
-34.9867
-34.9986
-35.0125
-35.0272
-35.0406
-35.0494
-35.0443
-35.0011
-34.9221
-33.7983
-33.8009
-33.8078
-33.8185
-33.8317
-33.847
-33.8633
-33.8786
-33.8888
-33.8869
-33.8638
-33.7708
-32.6545
-32.6568
-32.6634
-32.6739
-32.6871
-32.7033
-32.7213
-32.7399
-32.7554
-32.7609
-32.7499
-32.7738
-31.5203
-31.523
-31.5299
-31.5409
-31.5545
-31.5708
-31.5886
-31.6063
-31.6204
-31.6259
-31.6112
-31.4799
-30.4132
-30.4157
-30.4222
-30.4326
-30.4457
-30.4614
-30.479
-30.4967
-30.5106
-30.5126
-30.4957
-30.5165
-29.3202
-29.323
-29.3298
-29.3407
-29.3542
-29.3703
-29.3882
-29.4064
-29.422
-29.4287
-29.4133
-29.3662
-28.2551
-28.2576
-28.2639
-28.2739
-28.2866
-28.3017
-28.3185
-28.3353
-28.3491
-28.3539
-28.3291
-28.1805
-27.2047
-27.2079
-27.2151
-27.2264
-27.2407
-27.2578
-27.277
-27.2973
-27.3158
-27.3261
-27.3223
-27.3405
-26.1731
-26.1763
-26.1836
-26.1952
-26.21
-26.2281
-26.249
-26.2719
-26.2949
-26.3153
-26.3362
-26.4086
-25.1496
-25.153
-25.1606
-25.1728
-25.1882
-25.2066
-25.2269
-25.2472
-25.2645
-25.2762
-25.2684
-25.0476
-24.1388
-24.1428
-24.1516
-24.1658
-24.1844
-24.2075
-24.2347
-24.2653
-24.2973
-24.3263
-24.3476
-24.4666
-23.1163
-23.1209
-23.131
-23.1474
-23.1692
-23.1969
-23.23
-23.2681
-23.3097
-23.354
-23.394
-23.3515
-22.0821
-22.0871
-22.0981
-22.1162
-22.1403
-22.1713
-22.209
-22.2531
-22.3022
-22.3537
-22.3976
-22.4085
-21.0262
-21.032
-21.0445
-21.0648
-21.092
-21.1268
-21.169
-21.2182
-21.2728
-21.3284
-21.3712
-21.3687
-19.953
-19.9594
-19.973
-19.9958
-20.0266
-20.0665
-20.1155
-20.1733
-20.2384
-20.3062
-20.3578
-20.3679
-18.8426
-18.8505
-18.8673
-18.8944
-18.9315
-18.9796
-19.0392
-19.11
-19.1904
-19.2754
-19.3454
-19.3507
-17.6932
-17.7025
-17.7222
-17.7543
-17.7985
-17.8567
-17.9301
-18.0191
-18.1224
-18.2358
-18.3539
-18.5081
-16.483
-16.4939
-16.5168
-16.5545
-16.6067
-16.6759
-16.7638
-16.871
-16.9962
-17.1341
-17.2717
-17.3814
-15.2056
-15.2185
-15.2455
-15.2895
-15.3508
-15.4326
-15.5373
-15.6663
-15.8186
-15.988
-16.1574
-16.3272
-13.8499
-13.8653
-13.8971
-13.9488
-14.021
-14.1174
-14.2412
-14.3939
-14.574
-14.7752
-14.9842
-15.1513
-12.4089
-12.4274
-12.4654
-12.5269
-12.6128
-12.728
-12.8766
-13.0612
-13.2811
-13.5286
-13.7872
-14.0753
-10.8695
-10.8919
-10.9371
-11.01
-11.1121
-11.2491
-11.4256
-11.6445
-11.9029
-12.1884
-12.4743
-12.7195
-9.21932
-9.24739
-9.30375
-9.39292
-9.51781
-9.68523
-9.90129
-10.1693
-10.486
-10.8333
-11.1768
-11.5933
-7.45291
-7.48773
-7.5573
-7.66684
-7.82017
-8.0261
-8.29144
-8.61899
-9.00224
-9.42084
-9.8448
-10.2206
-5.55833
-5.60218
-5.68982
-5.8266
-6.01891
-6.27715
-6.61011
-7.02002
-7.49784
-8.01732
-8.55385
-9.15984
-3.50598
-3.56319
-3.67716
-3.85221
-4.09708
-4.42431
-4.84234
-5.35019
-5.9299
-6.53853
-7.11501
-7.57727
-1.31497
-1.3897
-1.54367
-1.77641
-2.09955
-2.52681
-3.06462
-3.70456
-4.41491
-5.13191
-5.77203
-6.31431
0.79875
0.711539
0.516401
0.215045
-0.205166
-0.756129
-1.43568
-2.21927
-3.05205
-3.84719
-4.51394
-5.00046
2.82657
2.70099
2.42692
1.99992
1.42231
0.697523
-0.154136
-1.08377
-2.00941
-2.82038
-3.41191
-3.74449
5.46716
5.11942
4.61449
3.89473
2.97245
1.87681
0.692847
-0.457833
-1.44192
-2.14002
-2.47476
-2.42458
5.76931
3.24548
1.36485
0.130183
-0.693208
-1.30704
-1.77849
-2.12209
-2.30077
-2.24716
-1.89348
-1.20218
374.862
366.845
354.379
338.49
320.096
300.066
279.708
260.392
243.156
228.41
216.242
206.571
266.245
267.427
266.94
265.361
262.873
259.221
254.075
247.274
238.933
229.462
219.666
210.579
244.648
245.669
245.694
245.359
244.442
242.748
240.118
236.417
231.522
225.374
218.203
210.672
247.809
247.466
246.28
244.749
242.744
240.174
236.947
232.993
228.257
222.691
216.37
209.623
236.42
236.109
235.507
234.679
233.502
231.89
229.733
226.91
223.311
218.849
213.562
207.763
224.891
224.762
224.552
224.181
223.591
222.705
221.42
219.611
217.142
213.872
209.753
205.052
217.523
217.427
217.259
216.948
216.476
215.785
214.794
213.408
211.51
208.964
205.655
201.753
211.404
211.323
211.174
210.907
210.515
209.945
209.136
208.01
206.471
204.403
201.687
198.32
205.573
205.514
205.404
205.203
204.906
204.467
203.838
202.952
201.723
200.055
197.838
194.977
200.311
200.269
200.185
200.03
199.797
199.451
198.95
198.237
197.236
195.856
193.991
191.456
195.643
195.61
195.541
195.413
195.219
194.932
194.516
193.924
193.093
191.941
190.385
188.401
191.394
191.367
191.31
191.202
191.039
190.797
190.447
189.948
189.247
188.271
186.924
185.173
187.466
187.446
187.397
187.306
187.168
186.962
186.663
186.236
185.635
184.795
183.621
182.023
183.819
183.805
183.765
183.687
183.568
183.391
183.133
182.764
182.242
181.514
180.495
179.07
180.423
180.414
180.38
180.313
180.21
180.055
179.83
179.508
179.051
178.414
177.523
176.251
177.244
177.24
177.21
177.151
177.061
176.925
176.727
176.444
176.043
175.483
174.711
173.599
174.252
174.249
174.223
174.172
174.091
173.971
173.795
173.544
173.187
172.686
171.996
171.008
171.422
171.421
171.397
171.352
171.281
171.173
171.018
170.795
170.48
170.038
169.439
168.65
168.735
168.734
168.713
168.673
168.609
168.513
168.373
168.174
167.893
167.497
166.949
166.237
166.171
166.17
166.151
166.115
166.057
165.971
165.845
165.666
165.412
165.055
164.558
163.929
163.716
163.714
163.698
163.665
163.613
163.535
163.421
163.258
163.027
162.703
162.249
161.666
161.355
161.355
161.341
161.312
161.264
161.193
161.089
160.941
160.731
160.437
160.026
159.509
159.084
159.083
159.072
159.046
159.003
158.938
158.843
158.706
158.514
158.243
157.867
157.428
156.89
156.89
156.881
156.859
156.819
156.759
156.672
156.546
156.368
156.115
155.759
155.376
154.774
154.775
154.766
154.746
154.709
154.654
154.572
154.455
154.29
154.057
153.722
153.355
152.723
152.724
152.717
152.699
152.665
152.614
152.538
152.43
152.277
152.062
151.75
151.442
150.737
150.738
150.731
150.714
150.682
150.635
150.565
150.465
150.324
150.128
149.843
149.569
148.8
148.802
148.796
148.78
148.752
148.707
148.643
148.55
148.42
148.24
147.976
147.702
146.916
146.916
146.91
146.896
146.868
146.827
146.766
146.679
146.557
146.387
146.135
145.856
145.072
145.073
145.067
145.053
145.028
144.989
144.932
144.851
144.737
144.578
144.348
144.101
143.267
143.268
143.262
143.25
143.227
143.19
143.137
143.062
142.957
142.811
142.601
142.38
141.5
141.5
141.494
141.483
141.461
141.427
141.377
141.307
141.208
141.071
140.873
140.666
139.76
139.76
139.756
139.745
139.725
139.693
139.646
139.58
139.486
139.357
139.169
138.975
138.052
138.051
138.047
138.037
138.018
137.988
137.944
137.881
137.793
137.671
137.494
137.318
136.366
136.366
136.362
136.353
136.336
136.308
136.267
136.208
136.125
136.01
135.841
135.678
134.706
134.706
134.702
134.695
134.679
134.652
134.613
134.558
134.481
134.375
134.219
134.088
133.064
133.064
133.062
133.055
133.041
133.016
132.98
132.929
132.857
132.76
132.617
132.503
131.443
131.443
131.44
131.434
131.42
131.397
131.363
131.314
131.247
131.155
131.018
130.91
129.834
129.834
129.832
129.826
129.814
129.792
129.759
129.713
129.649
129.561
129.43
129.346
128.237
128.238
128.236
128.231
128.22
128.199
128.169
128.125
128.064
127.982
127.856
127.793
126.656
126.656
126.654
126.649
126.638
126.618
126.589
126.548
126.491
126.413
126.288
126.218
125.079
125.08
125.078
125.074
125.064
125.046
125.018
124.98
124.927
124.857
124.744
124.673
123.512
123.513
123.51
123.506
123.497
123.479
123.454
123.418
123.369
123.306
123.207
123.133
121.946
121.946
121.944
121.941
121.932
121.916
121.892
121.859
121.812
121.753
121.661
121.59
120.383
120.383
120.381
120.377
120.368
120.353
120.33
120.299
120.255
120.197
120.11
120.039
118.816
118.817
118.814
118.811
118.803
118.789
118.768
118.738
118.698
118.645
118.568
118.532
117.247
117.247
117.245
117.242
117.235
117.222
117.203
117.176
117.14
117.093
117.026
117.061
115.675
115.674
115.672
115.669
115.662
115.65
115.632
115.607
115.573
115.531
115.456
115.483
114.09
114.091
114.088
114.086
114.08
114.069
114.051
114.028
113.996
113.956
113.878
113.854
112.499
112.499
112.496
112.493
112.488
112.478
112.462
112.44
112.412
112.378
112.309
112.27
110.892
110.892
110.889
110.887
110.883
110.875
110.861
110.843
110.82
110.797
110.752
110.675
109.272
109.271
109.268
109.266
109.262
109.255
109.244
109.231
109.214
109.202
109.189
109.145
107.62
107.62
107.619
107.618
107.616
107.612
107.603
107.592
107.58
107.571
107.57
107.477
105.948
105.948
105.946
105.945
105.944
105.94
105.932
105.923
105.912
105.902
105.904
105.794
104.252
104.251
104.249
104.247
104.246
104.242
104.235
104.228
104.22
104.212
104.228
104.143
102.509
102.511
102.511
102.511
102.512
102.511
102.507
102.504
102.502
102.501
102.529
102.471
100.748
100.748
100.746
100.746
100.747
100.747
100.746
100.746
100.75
100.757
100.794
100.76
98.9443
98.9441
98.9425
98.9421
98.9438
98.9448
98.9454
98.9486
98.958
98.9738
99.0224
99.004
97.0912
97.0909
97.0892
97.089
97.0915
97.0944
97.0978
97.1055
97.1219
97.149
97.2145
97.208
95.1879
95.1854
95.1823
95.1816
95.1846
95.189
95.1959
95.209
95.2339
95.2737
95.36
95.3714
93.1947
93.1961
93.1967
93.1995
93.2065
93.2161
93.229
93.2499
93.2854
93.3398
93.4491
93.4887
91.1451
91.1463
91.147
91.1506
91.1597
91.173
91.1918
91.2211
91.2691
91.341
91.4763
91.5476
89.0239
89.0238
89.0228
89.0259
89.036
89.0522
89.0763
89.1144
89.1764
89.2691
89.4357
89.548
86.7975
86.7976
86.7971
86.8015
86.8143
86.8348
86.866
86.9151
86.9939
87.1113
87.3138
87.4637
84.4524
84.4525
84.4526
84.4587
84.4749
84.5016
84.5422
84.6057
84.7058
84.854
85.1023
85.3022
81.9703
81.9702
81.9705
81.9782
81.9987
82.0329
82.0855
82.1674
82.2947
82.4818
82.7857
83.0415
79.3284
79.3256
79.325
79.334
79.3592
79.403
79.4715
79.5777
79.7411
79.98
80.36
80.7139
76.4431
76.4467
76.4531
76.4713
76.5089
76.5704
76.6636
76.8046
77.0177
77.3248
77.7987
78.2671
73.3382
73.3408
73.3479
73.3703
73.4195
73.501
73.6257
73.8131
74.0925
74.4907
75.0868
75.7002
69.9176
69.9199
69.9293
69.9598
70.0256
70.1354
70.3039
70.5564
70.9275
71.4485
72.2014
72.9934
66.066
66.0713
66.0873
66.1335
66.2279
66.3842
66.6226
66.9747
67.4811
68.1775
69.1521
70.2006
61.6272
61.6294
61.6594
61.7315
61.8764
62.1144
62.4715
62.9864
63.7025
64.6533
65.937
67.3988
56.3223
56.3754
56.4168
56.5466
56.7923
57.1813
57.7475
58.5303
59.5684
60.8752
62.5169
64.4883
49.732
49.5051
49.6647
49.9877
50.5011
51.2459
52.2431
53.5113
55.0675
56.8981
59.011
61.4517
40.0603
40.5862
41.2067
41.9461
43.0447
44.4857
46.23
48.2494
50.5271
53.0279
55.7233
58.6786
85.3682
16.6683
129.304
87.0961
13.2488
150.496
84.9956
93.4437
100.796
97.2586
183.308
168.007
91.3731
78.5752
70.5968
-33.1125
84.1303
131.423
108.39
79.61
-0.576736
74.867
84.8716
128.675
85.9209
-9.69342
77.6056
145.529
156.348
102.582
93.8584
-29.5924
18.0195
62.0359
96.5489
119.771
140.054
147.562
63.4803
11.991
18.8087
92.1221
99.1338
119.069
57.6971
-39.4489
24.3383
74.2028
90.7552
51.5273
76.6123
-8.51768
90.4426
136.174
-53.3251
75.6531
21.3789
103.296
82.52
13.7948
89.4132
4.67766
18.5919
-15.66
103.726
-5.56704
90.1379
-35.8803
83.0907
133.418
61.5936
-3.29191
75.5643
91.2102
-31.5653
69.7661
-34.9392
105.9
-79.4414
77.1991
39.249
75.4349
-15.4642
83.5915
21.1529
67.6148
39.1162
136.785
101.018
81.2882
85.847
89.9561
89.7546
77.7885
86.9163
144.004
77.5737
107.626
79.0762
176.99
-55.2738
176.634
-14.848
-22.7041
123.623
84.9255
98.2455
74.5642
100.503
85.7957
115.566
78.8429
91.2485
49.6396
6.4288
67.551
123.406
-14.9529
24.0175
78.7085
83.4129
107.753
-47.0752
133.293
84.6881
83.09
-27.2303
99.3471
94.1286
22.5339
32.5045
-69.6758
90.2347
81.5322
15.8102
66.9149
-35.6236
87.4508
45.9101
85.4314
94.6263
80.4158
73.639
89.7505
151.997
-6.2776
35.1322
114.313
94.7357
129.984
80.494
102.951
55.7947
87.4861
57.7292
79.3843
27.3626
115.326
-17.9282
45.3119
-24.5181
-18.4585
121.553
76.0159
88.8654
81.301
9.15898
42.5149
114.143
-47.1055
-76.8933
95.3868
72.1659
200.112
150.488
88.8767
57.6176
177.931
95.9527
79.2998
-11.642
-32.2324
85.9079
89.1537
90.4104
79.4363
53.049
-0.0674132
95.2101
67.6458
72.3728
124.062
152.139
118.037
112.757
-24.5853
9.57145
-30.4811
38.3333
-17.5254
75.3386
-11.6229
73.9668
-11.5002
86.9157
70.3543
45.5535
148.93
85.3859
80.2055
15.6343
77.3917
139.261
76.3168
-2.97305
52.0261
103.087
88.0157
164.954
93.5409
106.284
61.1698
98.1189
88.1495
122.403
90.6973
120.328
47.4976
73.1785
59.3626
-17.9709
83.6436
86.6932
-43.8427
14.7286
100.467
47.8444
151.983
95.5907
88.0246
52.2378
-46.9484
94.4417
85.0411
75.8216
94.5489
85.814
66.1961
126.462
81.8367
82.5091
85.8929
-24.5085
68.3022
47.3836
1.61561
93.5768
59.942
173.416
22.8594
151.433
94.472
81.8604
157.572
189.675
61.0165
68.8763
88.865
89.0594
-32.0383
85.2225
98.9687
84.7004
-50.8469
-56.5491
6.85151
86.8246
12.6043
81.4635
-41.0268
-41.6773
118.159
84.6984
-29.2449
82.825
89.7148
107.921
87.5863
100.318
56.4
-57.1223
83.0203
123.175
98.867
110.731
89.8929
27.48
89.3039
80.4049
133.664
-32.3657
22.3981
133.551
36.8197
89.4302
87.1243
127.221
71.4552
-24.6201
-57.7619
86.6317
5.20761
94.9047
61.4912
82.788
71.362
70.2501
90.3286
89.972
152.918
56.5578
27.38
85.9688
96.442
110.849
-1.71122
81.7051
89.8613
89.6124
63.5518
91.8589
4.44872
141.564
94.7155
140.784
-0.286059
-13.722
82.3035
90.3469
87.6067
81.7823
104.655
30.3446
70.222
53.9344
173.661
86.4431
40.3227
77.2994
59.0896
73.8243
87.8883
84.9912
145.25
115.255
90.1741
97.6225
86.5046
73.8935
-14.4817
-36.2009
70.8476
114.301
67.4198
182.81
86.0493
117.524
28.2624
81.7899
135.429
96.3385
19.1412
79.9431
89.8824
56.4473
-28.1525
87.9771
165.318
88.029
-73.737
71.8646
97.2263
57.1507
71.4947
-14.4342
68.2857
-28.1757
110.145
34.0877
-22.75
-36.7152
161.364
89.7589
87.4857
89.1973
78.4624
137.804
150.778
76.1164
-44.2563
59.0861
185.369
-54.5984
65.4631
67.8439
148.887
9.02006
65.5099
25.2988
55.5741
71.0197
17.4265
83.8596
84.0239
16.2092
-9.77707
-41.8237
24.6085
76.7906
89.8463
64.1314
29.8219
94.0568
137.31
84.8246
75.3597
97.7447
59.8823
90.4522
35.6027
76.318
70.0794
60.228
123.001
116.066
-41.8004
139.465
84.1406
186.023
129.088
-18.1929
-9.61112
73.8543
31.1091
97.8579
44.3615
81.5726
31.8428
126.948
133.863
35.7079
77.2493
77.502
75.7969
-9.76943
182.624
86.8715
59.7124
182.177
82.5425
68.3416
47.9808
90.108
-40.7263
-56.5372
86.9611
97.1177
2.62914
97.6217
147.406
169.554
100
85.6123
69.9349
-29.0832
23.3789
142.857
124.972
87.3426
40.3281
6.85692
96.7242
148.518
-18.0477
106.429
62.0775
98.0229
99.7316
91.6096
87.4021
-60.642
79.1008
-32.127
91.6243
16.2786
79.8826
90.0921
122.125
85.7677
139.596
85.0164
5.8101
89.8264
85.5807
144.694
84.0546
72.9137
16.4775
142.855
88.0547
48.5638
79.7393
-0.332724
-8.50759
115.333
-14.7014
-4.62913
73.1947
89.1002
51.1187
79.0913
86.035
159.459
61.5675
88.6067
-11.9731
154.64
66.8348
162.913
118.375
-51.5229
136.926
24.3013
72.9923
81.7015
-41.1829
27.5729
87.5402
131.347
-34.321
60.2238
89.0604
154.443
160.337
60.2512
89.4311
84.4896
71.9538
9.65916
134.02
44.0465
90.0153
69.078
25.986
18.9651
83.7887
76.4635
135.144
-21.6383
135.857
59.5244
96.7846
84.235
-15.4028
112.415
88.3788
-33.1936
91.674
30.8901
72.9175
73.6775
98.083
53.7822
19.5814
90.8696
88.4517
86.0761
-66.9561
156.266
78.9895
82.3044
-1.6395
66.0451
74.0472
121.008
104.498
97.3608
-64.3039
83.5712
64.9547
-44.4958
105.429
-66.451
-62.9053
81.3241
81.6871
139.664
43.8975
15.3571
93.6508
58.845
-7.87508
-10.1877
51.1652
73.675
5.86891
37.404
86.7134
80.3874
9.36391
64.897
185.413
97.8193
83.6119
145.123
80.0189
72.6468
37.7807
93.1634
138.462
22.0276
81.0369
153.116
75.8608
122.464
126.847
130.174
77.4687
95.5237
100.527
-3.07097
90.3328
77.4302
89.6367
-32.3056
82.0918
142.367
-32.1617
21.4449
111.367
99.1259
69.8371
24.5075
-12.1275
-24.3743
16.1608
-31.5861
-12.7161
71.2354
125.67
96.4382
76.7422
132.577
-65.2821
93.189
155.51
87.6464
-70.9124
71.0614
47.1119
89.2268
56.845
83.4844
52.0708
51.6719
125.676
126.43
-48.0173
124.699
77.0668
88.322
89.0068
75.2694
135.026
94.2495
85.3449
71.7335
116.155
-36.7806
45.2464
-33.099
99.8856
126.538
75.145
135.76
87.2277
-14.0175
73.6028
101.907
48.9218
-63.9561
99.6521
98.0123
84.6996
47.2738
-29.9738
120.549
77.3743
112.148
62.9931
46.8016
-15.5803
79.1666
79.4132
150.718
-22.7605
155.448
85.5237
96.1986
81.3157
-53.5446
88.0589
83.3955
-10.4186
110.753
132.336
88.2248
66.1062
52.2427
39.4223
82.2415
94.6362
102.324
-19.6514
84.1568
148.832
68.8087
85.5596
88.3775
119.451
98.3777
57.2243
79.8436
-15.3129
-46.1019
69.3258
48.0772
144.522
-19.1075
92.7032
169.048
83.2887
-2.94449
-33.0455
-15.4424
155.76
111.185
87.7987
131.974
86.4369
6.00755
50.1804
-14.6936
85.3033
43.7703
107.404
86.5816
78.0363
74.5413
-38.9364
28.6246
74.515
95.6337
118.209
160.761
80.6712
83.7599
78.58
-66.3449
79.2151
88.9438
66.3559
-0.597594
68.6054
-6.42485
62.4765
-49.7969
84.0545
-13.1306
88.297
87.275
63.1547
23.7731
84.5061
69.9295
-25.413
142.1
-78.0168
-30.7254
-23.5542
10.5991
31.9009
16.1798
84.7248
75.9045
82.9156
84.2654
77.2563
52.3664
76.49
-42.7374
9.02212
86.0268
-8.2291
74.1824
75.701
110.029
71.3683
-5.06888
85.2792
-13.6556
50.6076
-79.212
-25.687
34.9975
-45.3912
62.7238
76.8925
55.106
-30.6804
89.4199
75.3543
-58.2035
41.279
92.7943
0.031536
83.4862
62.3362
90.2039
85.9946
-24.6257
-8.48712
-41.2693
195.059
73.5107
127.887
72.9739
110.316
-24.3883
82.1444
34.8375
11.6878
123.492
85.3136
157.512
23.4957
89.2574
138.868
-36.4889
153.541
85.388
130.29
-0.137944
-2.2253
41.5125
78.7701
15.1
104.628
180.552
90.1351
128.999
78.9559
82.7183
11.4403
74.0762
76.571
96.9737
-43.5797
53.407
112.225
58.5769
126.164
90.4302
104.316
-12.9523
74.2994
-14.6528
26.6043
-13.6466
116.642
80.3495
108.07
74.5966
85.6373
53.8073
97.0133
85.9794
10.3798
95.2062
84.7675
162.302
133.577
43.6458
84.3851
53.6986
17.6596
35.5703
91.7899
75.3269
89.8846
70.8113
-16.2826
90.7381
80.3244
84.4122
51.1883
19.0199
116.53
116.098
126.902
85.8537
84.9355
173.663
73.3257
-16.3951
69.0837
-2.47218
112.454
86.1614
140.478
63.7458
87.0038
-0.746153
133.668
66.1717
150.233
78.472
83.3223
78.2688
84.1165
34.4007
12.6051
105.224
178.498
81.936
-5.93933
33.4835
109.461
102.26
134.36
4.76385
-24.9311
158.54
31.5965
-1.34561
72.981
89.7436
75.7533
86.5089
71.3435
-42.6077
47.2222
88.9881
55.4914
3.68561
45.0201
-27.1828
89.8469
47.7621
131.524
85.4974
68.1112
80.4151
90.515
53.2873
132.621
88.2936
36.2812
102.835
25.2329
148.094
127.889
-34.4683
67.6085
143.753
115.453
70.0915
95.0461
84.3903
55.4175
74.5511
11.3433
-27.9866
165.348
81.5803
192.975
79.4353
134.666
-29.3119
66.3747
89.442
89.5765
63.0305
111.009
87.8736
37.5626
-67.3378
128.407
118.222
63.2787
33.0288
103.033
-16.736
72.7978
86.9502
124.339
86.7879
52.0969
131.786
84.298
35.5286
88.782
-74.8304
65.0069
-39.2795
-48.6775
78.385
-18.8432
-4.32369
88.7373
12.485
16.3373
78.9724
42.9518
141.397
78.8422
-62.3723
-50.5436
104.753
0.0255624
-8.19452
31.0786
-6.91251
80.962
68.8647
34.802
87.824
14.4972
67.5972
89.994
-53.2399
-69.9517
88.523
60.3065
10.1772
0.350013
165.796
93.9709
64.2853
85.3935
-30.4489
125.282
54.7859
79.1667
93.6969
22.3955
-28.0035
46.9144
56.1446
70.3396
148.908
122.179
63.1465
154.159
62.2308
-51.4199
0.0654086
16.6079
81.8188
15.7916
7.65809
-51.5948
-4.66441
0.709598
80.4936
86.2689
172.255
77.9209
87.0897
83.1982
-35.9698
-36.3316
93.3942
80.5217
125.643
81.1254
24.0337
32.8527
84.7585
60.4165
62.4559
80.6629
93.3581
78.8603
34.3444
62.5726
85.1424
60.1634
48.6865
142.791
23.1157
40.7509
97.9823
129.543
-6.99575
82.6834
65.4268
129.073
-47.367
97.5191
-4.55456
130.546
138.225
116.37
65.9876
36.0349
6.70606
-38.7985
24.5356
25.582
77.4987
27.4451
72.2357
156.78
36.9549
172.943
121.843
-35.0335
174.992
23.5344
81.7565
90.1037
75.7865
-28.0673
110.253
28.5029
125.165
-17.0092
117.564
134.682
70.9668
164.423
86.063
100.542
100.402
95.8942
57.5567
143.931
166.987
96.6311
83.73
74.0869
87.7645
148.766
-48.4133
-16.9508
82.512
201.316
-60.0836
95.6076
56.9026
-44.054
-63.745
86.2983
90.7166
60.4569
134.026
83.9156
87.7074
83.6094
180.461
-17.5268
124.122
142.299
-32.3547
-11.6093
76.3294
189.63
56.2423
52.8784
122.632
104.382
85.6385
3.99043
-23.0161
194.116
62.7827
55.9085
91.3765
66.3269
133.793
113.198
-42.4463
132.303
140.881
69.1668
95.0179
63.0121
-28.9623
22.4508
81.0841
85.8679
94.2437
76.1293
-16.0596
25.8203
-10.8832
92.918
57.216
75.8228
75.3332
18.3291
6.66047
75.4305
167.724
21.611
64.6228
71.5612
173.956
74.0727
52.7342
11.1722
82.1185
79.0375
24.8614
85.4991
81.4924
80.5839
148.6
30.2284
90.5704
62.3294
84.23
-21.1789
-6.43461
86.9441
94.3663
-12.3386
155.254
73.076
98.9207
87.1951
-3.23291
-31.0151
109.599
-14.7421
108.69
101.888
135.87
156.157
169.458
83.1596
75.8097
67.5491
137.236
108.533
76.1953
-27.2792
73.0869
85.1575
66.9374
97.5874
-19.9296
103.543
84.0708
80.6409
35.9112
77.6425
102.363
86.7626
143.218