/*--------------------------------*- C++ -*----------------------------------*\
| =========                 |                                                 |
| \\      /  F ield         | OpenFOAM: The Open Source CFD Toolbox           |
|  \\    /   O peration     | Version:  2.3.0                                 |
|   \\  /    A nd           | Web:      www.OpenFOAM.org                      |
|    \\/     M anipulation  |                                                 |
\*---------------------------------------------------------------------------*/
FoamFile
{
    version     2.0;
    format      ascii;
    class       surfaceScalarField;
    location    "1000";
    object      phi;
}
// * * * * * * * * * * * * * * * * * * * * * * * * * * * * * * * * * * * * * //

dimensions      [0 3 -1 0 0 0 0];

internalField   nonuniform List<scalar> 
13381
(
-0.0202829
-0.0238147
0.0270602
0.0170289
-0.0229062
-0.019688
0.0223112
-0.024961
-0.0162717
0.0183261
-0.0264423
-0.0134265
0.0149077
-0.0273386
-0.011047
0.0119432
-0.0276741
-0.00905024
0.00938593
-0.0275142
-0.00737451
0.00721461
-0.0269538
-0.00597177
0.0054116
-0.0260914
-0.00480459
0.00394218
-0.0250137
-0.00384454
0.00276711
-0.0238016
-0.00306421
0.00185199
-0.00243028
-0.0226962
0.00132516
-0.0174749
-0.0212959
0.0149566
-0.0193146
-0.0178481
-0.0206064
-0.0149801
-0.021435
-0.0125977
-0.0218597
-0.0106223
-0.0219232
-0.00898657
-0.0216613
-0.00763651
-0.0211078
-0.00652506
-0.0203003
-0.00561214
-0.019275
-0.00486973
-0.0180737
-0.00426557
-0.0037814
-0.0167224
-0.0152781
-0.0192228
0.0132054
-0.0167246
-0.0164014
-0.0176546
-0.0140501
-0.0181499
-0.0121023
-0.0182888
-0.0104834
-0.0181347
-0.00914053
-0.0177428
-0.00802852
-0.0171616
-0.00710613
-0.0164292
-0.0063446
-0.0155822
-0.00571668
-0.0146464
-0.00520135
-0.00477994
-0.0136478
-0.0133851
-0.0174759
0.0116384
-0.0145912
-0.0151953
-0.0153425
-0.0132987
-0.0157248
-0.0117199
-0.0158022
-0.0104061
-0.0156298
-0.0093128
-0.015257
-0.00840141
-0.014722
-0.00764106
-0.014058
-0.00700865
-0.0132933
-0.00648132
-0.0124516
-0.00604302
-0.00568161
-0.0115499
-0.0117774
-0.0159697
0.0102713
-0.0128039
-0.0141687
-0.0134358
-0.0126667
-0.0137414
-0.0114143
-0.0137841
-0.0103634
-0.0136131
-0.0094838
-0.0132686
-0.00874584
-0.0127862
-0.00812343
-0.0121932
-0.00760173
-0.0115129
-0.00716157
-0.0107646
-0.00679138
-0.00648183
-0.00996431
-0.01041
-0.0146454
0.0090858
-0.0113072
-0.0132715
-0.0118567
-0.0121173
-0.0121199
-0.011151
-0.0121508
-0.0103325
-0.0119928
-0.00964181
-0.011682
-0.00905666
-0.0112461
-0.0085593
-0.010713
-0.00813485
-0.0101005
-0.007774
-0.00942501
-0.00746693
-0.00720565
-0.00870117
-0.0092372
-0.0134708
0.00806264
-0.0100332
-0.0124755
-0.0105192
-0.0116312
-0.0107532
-0.010917
-0.0107783
-0.0103074
-0.0106345
-0.0097856
-0.0103539
-0.00933729
-0.00996319
-0.00894996
-0.00948107
-0.00861698
-0.00892806
-0.008327
-0.00831796
-0.00807704
-0.00786174
-0.00766186
-0.00822806
-0.0124259
0.0071831
-0.00894132
-0.0117622
-0.00937477
-0.0111978
-0.00958388
-0.0107079
-0.00960618
-0.0102851
-0.0094793
-0.00991247
-0.00922672
-0.00958988
-0.00887244
-0.00930423
-0.00843817
-0.00905125
-0.00793714
-0.00882803
-0.00738352
-0.00863067
-0.00845735
-0.0067879
-0.00735013
-0.0114881
0.00641229
-0.00798893
-0.0111234
-0.00838272
-0.010804
-0.00857243
-0.0105182
-0.00859504
-0.0102625
-0.00847841
-0.0100291
-0.00825147
-0.00981681
-0.00793289
-0.00962282
-0.00753889
-0.00944526
-0.00708468
-0.00928224
-0.00658233
-0.00913301
-0.00899778
-0.00604192
-0.00658526
0.00573385
-0.0106366
-0.00716037
-0.0105483
-0.0075156
-0.0104487
-0.00768991
-0.0103439
-0.00770812
-0.0102443
-0.00760505
-0.0101321
-0.00740112
-0.0100207
-0.00711398
-0.00990996
-0.00675688
-0.00980236
-0.0063438
-0.00969532
-0.00588825
-0.00958856
-0.00539752
-0.00948849
-0.0201365
-0.00223197
-0.000327956
-0.0179718
-0.00244136
0.000276763
-0.015941
-0.00276844
0.000737486
-0.0139991
-0.00321824
0.00127643
-0.0121644
-0.00380694
0.00197216
-0.0104831
-0.00456156
0.00288031
-0.00902353
-0.00551769
0.00405809
-0.00786617
-0.00671914
0.00556177
-0.00709429
-0.00822056
0.00744871
-0.00678635
-0.0100899
0.00978198
-0.00701545
-0.0124129
0.012642
-0.0153028
0.0161447
-0.00785735
-0.0152951
-0.0036594
-0.0138682
-0.00386821
-0.0124839
-0.00415281
-0.0111762
-0.00452585
-0.00997225
-0.00501092
-0.00890304
-0.00563074
-0.00800278
-0.00641795
-0.00730965
-0.00741226
-0.00687156
-0.00865863
-0.00674879
-0.0102127
-0.00701924
-0.0121425
-0.0145393
-0.00778273
-0.0126293
-0.00467795
-0.011623
-0.00487451
-0.0106442
-0.00513159
-0.00970617
-0.00546384
-0.00882782
-0.00588929
-0.00803418
-0.00642435
-0.00735558
-0.00709653
-0.0068347
-0.00793313
-0.00652172
-0.0089716
-0.00647869
-0.0102557
-0.00677952
-0.0118416
-0.0138084
-0.00751038
-0.0106415
-0.00558641
-0.00976967
-0.00574627
-0.00894395
-0.00595732
-0.00817611
-0.00623165
-0.00748129
-0.0065841
-0.00687812
-0.0070275
-0.00639115
-0.00758349
-0.00605038
-0.00827388
-0.00589403
-0.00912794
-0.00597042
-0.0101793
-0.00634219
-0.0114699
-0.0130561
-0.00709449
-0.00916043
-0.0063903
-0.00839917
-0.00650751
-0.00768777
-0.00666872
-0.00703671
-0.00688268
-0.00645987
-0.00716094
-0.00597285
-0.0075145
-0.00559735
-0.00795898
-0.00535895
-0.00851228
-0.00529086
-0.00919602
-0.00543515
-0.010035
-0.00584295
-0.0110621
-0.0123247
-0.00657441
-0.00797592
-0.00711555
-0.0072954
-0.00718802
-0.00666535
-0.00729877
-0.00609701
-0.007451
-0.0056027
-0.00765524
-0.00519678
-0.0079204
-0.00489841
-0.00825735
-0.00473202
-0.00867865
-0.00472609
-0.00920194
-0.00491672
-0.00984438
-0.00534767
-0.0106311
-0.0115892
-0.00608316
-0.00700687
-0.00777055
-0.00639293
-0.00780196
-0.00583091
-0.00786079
-0.00532803
-0.00795388
-0.00489612
-0.00808715
-0.00454977
-0.00826674
-0.0043064
-0.00850071
-0.00418648
-0.00879855
-0.00421723
-0.00917118
-0.00443095
-0.00963065
-0.0048669
-0.0101952
-0.010886
-0.0055701
-0.00619269
-0.00836576
-0.005639
-0.00835565
-0.00513312
-0.00836666
-0.00468367
-0.00840332
-0.00430298
-0.00846783
-0.00400268
-0.00856703
-0.00379968
-0.00870371
-0.00371261
-0.00888562
-0.00376568
-0.00911811
-0.0039903
-0.00940602
-0.00442
-0.00976545
-0.0102074
-0.00509859
-0.00550095
-0.00890672
-0.00499842
-0.00885817
-0.00454187
-0.00882321
-0.00413908
-0.00880611
-0.00380009
-0.00880681
-0.00353758
-0.00882953
-0.00336566
-0.00887563
-0.00330139
-0.00894988
-0.00336735
-0.00905215
-0.00359226
-0.0091811
-0.00400787
-0.00934984
-0.00956274
-0.00465252
-0.00490577
-0.00939847
-0.00445058
-0.00931335
-0.00403779
-0.00923599
-0.00367526
-0.00916864
-0.0033723
-0.00910976
-0.00314078
-0.00906106
-0.0029929
-0.0090235
-0.00294733
-0.00899545
-0.00302015
-0.00897933
-0.00323817
-0.00896309
-0.00363129
-0.00895673
-0.00895855
-0.00423549
0.00362924
-0.00136273
0.00132583
-0.00359244
0.003597
-0.00131568
0.00134781
0.00354502
-0.00106823
0.00112015
0.00347779
-0.000730617
0.000797727
0.00337649
-0.000367311
0.000468583
0.00321035
-9.73313e-06
0.000175727
0.00294326
0.000333568
-6.64936e-05
0.00253421
0.000670781
-0.00026189
0.00193524
0.00102001
-0.000421054
0.00108197
0.00141108
-0.000557992
-0.00011882
0.00188802
-0.000687238
0.00251811
-0.00183244
-0.000804657
0.00323942
-0.00129412
-0.0033081
0.00310507
-0.0011814
0.00293734
-0.00090054
0.00274249
-0.00053584
0.00250974
-0.000134606
0.00221799
0.000281936
0.00184094
0.000710598
0.00134996
0.00116166
0.000717796
0.00165217
-7.78382e-05
0.00220662
-0.00103446
0.00284463
0.00356302
-0.00207944
0.00274836
-0.00114688
-0.00289567
0.00254213
-0.000975206
0.00230882
-0.000667267
0.00205666
-0.000283729
0.00178003
0.000141999
0.00146412
0.000597797
0.0010891
0.00108561
0.000635141
0.00161558
8.41505e-05
0.00220315
-0.000573304
0.00286402
-0.00133598
0.0036073
0.00441722
-0.00219024
0.00226579
-0.00095162
-0.00246109
0.00203254
-0.000741996
0.00178747
-0.000422225
0.00153732
-3.3611e-05
0.0012753
0.000404
0.000987761
0.000885307
0.000657934
0.00141542
0.00026742
0.00200606
-0.000199315
0.00266988
-0.000758713
0.00342339
-0.00142032
0.0042689
0.00519583
-0.00219897
0.00184122
-0.000740787
-0.0020521
0.00161197
-0.000512775
0.00138422
-0.000194495
0.00115941
0.000191174
0.000929406
0.000633992
0.000680645
0.00113405
0.000397083
0.00169897
6.21754e-05
0.00234095
-0.000343016
0.00307506
-0.000834098
0.00391445
-0.00143142
0.00486621
0.00591385
-0.00214947
0.00147959
-0.000533094
-0.00168732
0.00127304
-0.000306236
0.00107397
4.55227e-06
0.000880886
0.00038424
0.000684518
0.000830346
0.000472164
0.00134639
0.000228338
0.00194279
-6.3617e-05
0.00263289
-0.000421372
0.00343281
-0.000862224
0.00435528
-0.00140445
0.00540842
0.0065743
-0.00206492
0.00118553
-0.000348357
-0.0013703
0.00100515
-0.000125871
0.000835368
0.000174324
0.000671827
0.000547766
0.000505236
0.000996924
0.000322665
0.00152894
0.000110749
0.00215469
-0.000146199
0.00288983
-0.000464756
0.00375136
-0.000864045
0.00475456
-0.00135938
0.00590375
0.0071831
-0.0019682
0.000947818
-0.000184912
-0.00111129
0.000793353
2.85796e-05
0.000650124
0.000317542
0.000512924
0.000684954
0.000371177
0.00113866
0.000213556
0.00168655
2.67321e-05
0.0023415
-0.000200992
0.00311754
-0.000488449
0.0040388
-0.000851587
0.00511769
-0.00130319
0.00635534
0.00773933
-0.00185943
0.000754931
-4.57708e-05
-0.000894103
0.000623991
0.000159511
0.000504202
0.000437321
0.000390462
0.000798685
0.000271486
0.00125762
0.00013375
0.00182428
-3.37522e-05
0.002509
-0.000240361
0.00332414
-0.00050095
0.00429938
-0.000829168
0.00544589
-0.00123901
0.00676517
0.00824744
-0.00174713
0.000604291
6.59703e-05
-0.000716063
0.000489883
0.000273909
0.000385484
0.000541715
0.000291564
0.0008926
0.000190121
0.00135906
7.02349e-05
0.00194416
-8.6631e-05
0.00266585
-0.000278025
0.00351552
-0.000511064
0.0045324
-0.000818563
0.00575338
-0.00119099
0.00713758
-0.00165582
0.00871226
-0.00255224
0.00373852
-0.00301871
-0.00363269
0.00529371
-0.00421335
-0.00479527
0.00654369
-0.00538111
-0.00581975
0.00768175
-0.00665733
-0.00663467
0.00894246
-0.00812756
-0.0071881
0.0103826
-0.00982923
-0.00743669
0.0120539
-0.0118054
-0.00732787
0.014019
-0.0141279
-0.00680389
0.0163377
-0.0168618
-0.00579157
0.0190856
-0.0200979
-0.00421218
0.0223519
-0.0239313
0.0262318
-0.0284774
-0.00196659
-0.00298103
0.0046401
-0.00393215
0.00624476
-0.004971
0.00758252
-0.00587747
0.00858816
-0.00657199
0.00963694
-0.00702169
0.0108323
-0.00719455
0.0122268
-0.00704346
0.0138679
-0.00651971
0.015814
-0.0055594
0.0181252
-0.00407817
0.0208706
0.0241437
-0.00199015
-0.00309841
0.00554826
-0.00398079
0.00712708
-0.00488743
0.00848913
-0.0056863
0.00938696
-0.00629253
0.0102431
-0.00668284
0.0112225
-0.0068191
0.012363
-0.00666439
0.0137131
-0.00616793
0.0153175
-0.00527169
0.017229
-0.00390574
0.0195047
0.0222109
-0.00197295
-0.00306094
0.00641022
-0.0039008
0.00796688
-0.00470425
0.00929256
-0.00540928
0.0100919
-0.00594475
0.0107786
-0.0062833
0.011561
-0.00639581
0.0124755
-0.00624394
0.0135612
-0.00578449
0.014858
-0.00495888
0.0164034
-0.00370187
0.0182476
0.0204442
-0.00193514
-0.00294992
0.00721066
-0.00373663
0.00875355
-0.00446249
0.0100184
-0.00508836
0.0107178
-0.00556513
0.0112553
-0.0058624
0.0118583
-0.00595589
0.0125689
-0.00581445
0.0134198
-0.00539046
0.014434
-0.00463283
0.0156457
-0.00348267
0.0170975
0.0188316
-0.00187012
-0.00280631
0.00795203
-0.00353241
0.00947962
-0.00419095
0.0106769
-0.00475127
0.0112781
-0.0051731
0.0116771
-0.0054373
0.0121224
-0.00552247
0.0126541
-0.00538746
0.0132847
-0.00499747
0.014044
-0.00430905
0.0149573
-0.0032606
0.016049
0.0173617
-0.00179066
-0.00264881
0.00863262
-0.00331505
0.0101458
-0.00390872
0.0112706
-0.00440626
0.0117756
-0.00478492
0.0120558
-0.00502456
0.0123621
-0.00509664
0.0127262
-0.0049743
0.0131624
-0.00462229
0.013692
-0.00399175
0.0143268
-0.00303953
0.0150968
0.0160191
-0.00169694
-0.00248539
0.00925856
-0.00309546
0.0107559
-0.00363059
0.0118057
-0.00407705
0.012222
-0.00441374
0.0123925
-0.00462801
0.0125763
-0.00468987
0.012788
-0.00457869
0.0130512
-0.00425615
0.0133694
-0.00368652
0.0137571
-0.00281962
0.0142299
0.014799
-0.00159959
-0.00232003
0.00983144
-0.00287102
0.0113068
-0.00335074
0.0122854
-0.00374927
0.0126205
-0.0040583
0.0127015
-0.00424938
0.0127674
-0.00430857
0.0128472
-0.00420727
0.0129499
-0.00391458
0.0130767
-0.00339745
0.01324
-0.00260904
0.0134415
0.0136916
-0.0015016
-0.00218932
0.0103649
-0.00269655
0.0118141
-0.00309763
0.0126865
-0.00344488
0.0129678
-0.00372298
0.0129795
-0.00389824
0.0129426
-0.00395027
0.0128992
-0.00385802
0.0128576
-0.00359541
0.012814
-0.00312639
0.0127709
-0.00241002
0.0127251
0.0126849
-0.0014034
0.00287878
-0.00155288
0.00557178
-0.000841105
0.00833808
1.56932e-06
0.0110984
0.00118183
0.0136988
0.00281176
0.0159335
0.00497999
0.0176218
0.00769789
0.018629
0.0109362
0.01891
0.0146265
0.0185441
0.0186923
0.0177316
0.0231243
0.0280845
0.016708
-3.80096e-05
-0.00151496
0.000724497
-0.00160342
0.00210127
-0.00137551
0.00403203
-0.000748896
0.00646204
0.000381682
0.00924601
0.00219605
0.0120743
0.00486975
0.0145552
0.00845548
0.0163285
0.0128534
0.0171905
0.0178305
0.0171812
0.023134
0.0287061
0.0165601
-9.67322e-05
-0.00141811
-0.000120208
-0.00157979
8.02392e-05
-0.0015759
0.000711942
-0.0013805
0.00196583
-0.000872144
0.00396945
0.000192545
0.00666605
0.00217325
0.00973569
0.00538602
0.0126446
0.00994457
0.0148283
0.015647
0.0159452
0.0220172
0.0286118
0.0160398
-4.88487e-06
-0.00141261
5.41807e-05
-0.00163849
0.000199998
-0.00172149
0.000489535
-0.00166985
0.00102309
-0.00140557
0.0019839
-0.0007681
0.00361595
0.00054133
0.00603501
0.00296711
0.00900971
0.00697003
0.0119352
0.0127217
0.0141006
0.019852
0.027595
0.0151175
-8.74278e-06
-0.00140363
7.16734e-06
-0.00165423
7.23681e-05
-0.00178656
0.000220582
-0.00181792
0.000508026
-0.00169291
0.00104113
-0.00130104
0.0020063
-0.000423719
0.00364552
0.00132804
0.00608461
0.0045311
0.00906657
0.00973982
0.0118853
0.0170333
0.0256837
0.0137966
-9.73072e-06
-0.00139347
6.86066e-06
-0.00167056
5.96315e-05
-0.00183915
0.000167826
-0.00192594
0.000362955
-0.00188792
0.000704634
-0.00164254
0.00130472
-0.00102369
0.00235626
0.000276665
0.00411231
0.00277519
0.00666479
0.00718746
0.00961978
0.0140784
0.0232027
0.0121009
-5.20907e-06
-0.00138802
6.5374e-06
-0.00168211
4.36885e-05
-0.00187617
0.000119486
-0.00200159
0.000256637
-0.00202499
0.000494362
-0.00188011
0.000907991
-0.0014372
0.00163193
-0.000447131
0.00288225
0.00152502
0.00489596
0.00517382
0.00764374
0.0113307
0.0203275
0.010519
-3.95752e-06
-0.00138372
7.93674e-06
-0.00169372
3.9899e-05
-0.00190801
0.000101766
-0.00206329
0.000209321
-0.00213246
0.000389854
-0.00206049
0.000694466
-0.00174171
0.00121963
-0.000972154
0.00212936
0.000615406
0.00366532
0.00363794
0.00600181
0.00899427
0.0175354
0.00879394
-8.26026e-07
-0.00138266
1.1532e-05
-0.00170586
4.02078e-05
-0.00193658
9.24382e-05
-0.00211536
0.000180914
-0.00222086
0.000325553
-0.00220499
0.000563551
-0.00197962
0.000965768
-0.00137425
0.00165717
-7.58633e-05
0.00283998
0.00245521
0.00475675
0.00707756
0.0148448
0.00744744
1.58849e-06
-0.0013839
1.48014e-05
-0.00171877
4.14289e-05
-0.00196309
8.80023e-05
-0.00216176
0.000164082
-0.00229686
0.000285427
-0.0023262
0.000479466
-0.00217356
0.000799348
-0.00169401
0.00134103
-0.000617414
0.00226731
0.00152904
0.00381187
0.0055331
0.0125228
0.00613401
3.65592e-06
-0.00138736
1.65994e-05
-0.0017315
4.11906e-05
-0.00198759
8.25402e-05
-0.00220296
0.000149197
-0.00236345
0.000253429
-0.00243029
0.000416093
-0.00233614
0.000677731
-0.00195552
0.00111217
-0.00105172
0.00184748
0.000793864
0.00308318
0.00429746
0.0105643
0.00504175
5.37443e-06
-0.00139238
1.71403e-05
-0.00174296
3.91669e-05
-0.0020095
7.61453e-05
-0.00223975
0.000134768
-0.00242199
0.00022554
-0.00252093
0.000365361
-0.00247587
0.000585817
-0.00217585
0.000945998
-0.00141176
0.00154932
0.000190646
0.00257001
0.00327688
0.00887454
0.00425981
5.18696e-06
-0.00139741
1.48533e-05
-0.00175243
3.35979e-05
-0.00202817
6.5117e-05
-0.00227112
0.000115404
-0.00247223
0.000193486
-0.00259888
0.000312982
-0.00259528
0.000499721
-0.00236248
0.000801841
-0.00171374
0.00130468
-0.000312091
0.00215282
0.00242883
0.0074626
0.00356485
3.46128e-06
-0.00140052
1.01983e-05
-0.00175886
2.45202e-05
-0.00204237
4.97819e-05
-0.0022962
9.07246e-05
-0.00251309
0.000154902
-0.00266292
0.000253358
-0.00269366
0.000405785
-0.00251478
0.000649377
-0.00195723
0.00105006
-0.000712659
0.00171869
0.00176028
0.00640167
0.00277972
1.25943e-06
-0.00140166
5.49854e-06
-0.00176293
1.5969e-05
-0.00205279
3.57662e-05
-0.00231586
6.90693e-05
-0.00254635
0.000122642
-0.00271638
0.000205677
-0.00277662
0.000334963
-0.00264398
0.000541555
-0.00216371
0.000880835
-0.00105187
0.00145001
0.00119116
0.00539356
0.0024582
-9.10038e-07
-0.0014004
8.15108e-07
-0.00176435
7.59711e-06
-0.00205945
2.19689e-05
-0.00233005
4.80779e-05
-0.00257239
9.16519e-05
-0.00275983
0.000161113
-0.00284601
0.000270219
-0.002753
0.000445304
-0.00233869
0.000734732
-0.00134122
0.00122359
0.000702433
0.00462257
0.00199468
-2.89498e-06
-0.00139744
-3.62384e-06
-0.00176345
-5.16169e-07
-0.00206254
9.27155e-06
-0.00233969
2.89272e-05
-0.00259203
6.43595e-05
-0.00279513
0.000122972
-0.00290456
0.000217821
-0.00284775
0.000372437
-0.00249319
0.00062949
-0.00159815
0.00106469
0.000267354
0.00381292
0.00187443
-4.85755e-06
-0.00139224
-8.47583e-06
-0.00175952
-9.1633e-06
-0.00206176
-4.72181e-06
-0.00234395
8.07089e-06
-0.00260477
3.4008e-05
-0.00282095
8.02138e-05
-0.0029507
0.000157539
-0.00292497
0.000286267
-0.00262184
0.000503943
-0.00181569
0.000873985
-0.000102678
0.00326158
0.00142541
-6.92505e-06
-0.00138527
-1.32004e-05
-0.00175312
-1.73595e-05
-0.00205758
-1.74307e-05
-0.00234376
-1.08921e-05
-0.00261129
7.0207e-06
-0.00283876
4.25172e-05
-0.00298614
0.000106354
-0.00298875
0.000217763
-0.00273316
0.000412342
-0.00201024
0.000755084
-0.000445317
0.00258636
0.00143036
-8.9618e-06
-0.00137597
-1.79471e-05
-0.00174386
-2.56299e-05
-0.0020498
-3.04443e-05
-0.00233881
-3.02372e-05
-0.00261144
-2.14064e-05
-0.00284751
1.46285e-06
-0.00300896
4.65399e-05
-0.00303375
0.000129318
-0.00281587
0.000279276
-0.00216012
0.000549304
-0.000715227
0.00214234
0.000993441
-1.0357e-05
-0.0013656
-2.10194e-05
-0.00173312
-3.08344e-05
-0.00203996
-3.85051e-05
-0.00233106
-4.2221e-05
-0.00260771
-3.87833e-05
-0.00285087
-2.35133e-05
-0.00302419
1.11274e-05
-0.00306832
7.88449e-05
-0.0028835
0.00020619
-0.00228737
0.000442262
-0.00095117
0.00168605
0.000898646
-1.10576e-05
-0.00135422
-2.28425e-05
-0.00172108
-3.42124e-05
-0.00202849
-4.4035e-05
-0.00232111
-5.06898e-05
-0.002601
-5.13556e-05
-0.00285013
-4.19587e-05
-0.00303354
-1.5772e-05
-0.00309442
3.88886e-05
-0.00293809
0.000145494
-0.00239386
0.000348263
-0.0011539
0.00131735
0.00071703
-1.15426e-05
-0.00134268
-2.38396e-05
-0.00170875
-3.5972e-05
-0.00201633
-4.69483e-05
-0.00231008
-5.52629e-05
-0.00259266
-5.83621e-05
-0.00284695
-5.23804e-05
-0.00303946
-3.12431e-05
-0.00311549
1.60173e-05
-0.00298525
0.000110051
-0.00248784
0.000288665
-0.00133246
0.000980145
0.000625993
-1.14661e-05
-0.00133089
-2.40454e-05
-0.00169595
-3.67258e-05
-0.00200355
-4.853e-05
-0.00229817
-5.81734e-05
-0.00258296
-6.3265e-05
-0.00284179
-6.01573e-05
-0.00304251
-4.29622e-05
-0.0031326
-1.81711e-06
-0.00302629
8.26112e-05
-0.0025722
0.000246804
-0.00149647
0.000680552
0.000546589
-1.16845e-05
-0.00131923
-2.4504e-05
-0.00168312
-3.74037e-05
-0.00199062
-4.98849e-05
-0.00228564
-6.06181e-05
-0.00257219
-6.75081e-05
-0.00283483
-6.7165e-05
-0.00304279
-5.42398e-05
-0.00314542
-1.94513e-05
-0.00306099
5.44175e-05
-0.00264592
0.0001991
-0.00164098
0.00040766
0.000472136
-1.13959e-05
-0.00130752
-2.41375e-05
-0.00167017
-3.73949e-05
-0.00197726
-5.02681e-05
-0.00227267
-6.19068e-05
-0.00256049
-7.03186e-05
-0.00282635
-7.25565e-05
-0.00304049
-6.36609e-05
-0.00315423
-3.52294e-05
-0.00308934
2.89643e-05
-0.00271002
0.000159064
-0.0017711
0.000159914
0.000406948
-1.13673e-05
-0.0012962
-2.40926e-05
-0.00165744
-3.70886e-05
-0.00196425
-5.02669e-05
-0.00225945
-6.21989e-05
-0.00254853
-7.17428e-05
-0.00281673
-7.58932e-05
-0.00303628
-7.03707e-05
-0.00315969
-4.7665e-05
-0.00311198
6.95648e-06
-0.00276467
0.000122193
-0.00188618
-7.02554e-05
0.000352175
-1.08298e-05
-0.00128505
-2.31759e-05
-0.00164487
-3.60923e-05
-0.00195123
-4.8963e-05
-0.00224647
-6.12906e-05
-0.00253613
-7.10887e-05
-0.00280688
-7.6469e-05
-0.00303086
-7.34795e-05
-0.00316264
-5.55124e-05
-0.0031299
-9.75811e-06
-0.00281034
8.92955e-05
-0.00198537
-0.000272355
0.000291492
-1.05922e-05
-0.00127449
-2.24578e-05
-0.00163299
-3.50677e-05
-0.00193859
-4.76829e-05
-0.00223381
-5.95956e-05
-0.00252419
-6.94027e-05
-0.00279702
-7.51187e-05
-0.00302511
-7.32082e-05
-0.00316451
-5.7742e-05
-0.00314532
-1.72227e-05
-0.00285089
7.15873e-05
-0.002074
-0.000460702
0.000259685
-1.00219e-05
-0.00126415
-2.15194e-05
-0.00162126
-3.36851e-05
-0.00192631
-4.60785e-05
-0.00222132
-5.78611e-05
-0.00251236
-6.77961e-05
-0.00278703
-7.38595e-05
-0.00301901
-7.32405e-05
-0.00316508
-6.1273e-05
-0.00315725
-2.89528e-05
-0.00288313
4.05827e-05
-0.00214363
-0.000576402
0.000156285
-9.68764e-06
-0.00125448
-2.0813e-05
-0.00161014
-3.26946e-05
-0.00191441
-4.46466e-05
-0.00220933
-5.59433e-05
-0.00250103
-6.51662e-05
-0.00277776
-7.04e-05
-0.00301374
-6.83072e-05
-0.00316714
-5.40104e-05
-0.00317149
-1.904e-05
-0.00291811
5.37638e-05
-0.00221629
-0.00074897
0.000226237
-9.38177e-06
-0.00124482
-2.0364e-05
-0.00159896
-3.21281e-05
-0.00190253
-4.43615e-05
-0.00219702
-5.59591e-05
-0.00248937
-6.58602e-05
-0.00276781
-7.17292e-05
-0.00300784
-7.04683e-05
-0.00316835
-5.69711e-05
-0.00318495
-2.22775e-05
-0.0029527
4.89211e-05
-0.00228754
-0.000851454
0.000151529
-9.57273e-06
-0.0012353
-2.07944e-05
-0.00158778
-3.31497e-05
-0.00189018
-4.55461e-05
-0.00218461
-5.80085e-05
-0.00247689
-6.89376e-05
-0.00275686
-7.65821e-05
-0.00300016
-7.75057e-05
-0.00316739
-6.65907e-05
-0.0031958
-3.46716e-05
-0.0029846
3.53856e-05
-0.00235755
-0.0010119
0.000195994
-9.71122e-06
-0.00122535
-2.12406e-05
-0.00157611
-3.38072e-05
-0.0018775
-4.72843e-05
-0.00217109
-6.08333e-05
-0.0024633
-7.36013e-05
-0.00274405
-8.40586e-05
-0.00298968
-8.97135e-05
-0.00316169
-8.6584e-05
-0.00319889
-6.74924e-05
-0.0030037
-1.90422e-05
-0.00240587
-0.00110083
6.99943e-05
-9.85573e-06
-0.00121561
-2.15874e-05
-0.00156448
-3.43742e-05
-0.00186475
-4.79231e-05
-0.00215757
-6.18422e-05
-0.00244938
-7.52954e-05
-0.0027306
-8.67035e-05
-0.00297825
-9.41048e-05
-0.00315427
-9.39e-05
-0.00319911
-7.99994e-05
-0.00301753
-4.00499e-05
-0.00244587
-0.00119488
5.4308e-05
-9.67898e-06
-0.00120571
-2.12381e-05
-0.00155281
-3.42058e-05
-0.0018517
-4.8075e-05
-0.00214368
-6.23242e-05
-0.0024351
-7.61002e-05
-0.00271684
-8.81214e-05
-0.00296625
-9.58685e-05
-0.00314655
-9.57839e-05
-0.00319921
-8.1167e-05
-0.00303221
-3.85157e-05
-0.0024884
-0.00130506
7.1794e-05
-9.87112e-06
-0.00119598
-2.1738e-05
-0.00154106
-3.47519e-05
-0.00183873
-4.89037e-05
-0.00212959
-6.36315e-05
-0.00242041
-7.82871e-05
-0.00270223
-9.14131e-05
-0.00295316
-0.000101213
-0.00313678
-0.000104306
-0.00319617
-9.4991e-05
-0.00304152
-6.34199e-05
-0.00252002
-0.00134566
-2.26462e-05
-9.65588e-06
-0.00118611
-2.13606e-05
-0.00152928
-3.46266e-05
-0.0018254
-4.90101e-05
-0.00211523
-6.40624e-05
-0.00240536
-7.90531e-05
-0.00268728
-9.2863e-05
-0.00293938
-0.000103191
-0.00312649
-0.000106779
-0.00319259
-9.78331e-05
-0.00305055
-6.40066e-05
-0.00255373
-0.00146194
5.23209e-05
-9.93094e-06
-0.00117633
-2.19038e-05
-0.00151744
-3.52412e-05
-0.0018121
-4.99785e-05
-0.00210054
-6.54409e-05
-0.0023899
-8.13255e-05
-0.00267141
-9.6305e-05
-0.00292441
-0.000108846
-0.00311395
-0.000115968
-0.00318549
-0.000112722
-0.00305376
-9.03769e-05
-0.00257608
-0.00149387
-5.84045e-05
-9.6874e-06
-0.00116642
-2.15875e-05
-0.00150541
-3.51592e-05
-0.00179844
-4.99707e-05
-0.0020857
-6.58992e-05
-0.00237394
-8.21608e-05
-0.00265516
-9.79372e-05
-0.00290863
-0.000111288
-0.0031006
-0.000119514
-0.00317726
-0.000117654
-0.00305564
-9.59177e-05
-0.00259778
-0.00156854
-2.12863e-05
-9.94222e-06
-0.00115662
-2.20039e-05
-0.00149345
-3.55971e-05
-0.00178489
-5.07533e-05
-0.00207058
-6.69092e-05
-0.00235779
-8.38848e-05
-0.00263818
-0.000100608
-0.00289191
-0.000115871
-0.00308533
-0.000127099
-0.00316601
-0.000130253
-0.0030525
-0.000117281
-0.0026107
-0.00160672
-7.90805e-05
-9.77056e-06
-0.00114666
-2.16059e-05
-0.00148152
-3.52337e-05
-0.00177119
-5.02908e-05
-0.00205549
-6.66819e-05
-0.00234137
-8.38125e-05
-0.00262105
-0.000100988
-0.00287472
-0.000116957
-0.00306934
-0.000129664
-0.00315332
-0.000135381
-0.00304674
-0.000127137
-0.00261898
-0.00164428
-8.96024e-05
-9.6605e-06
-0.0011372
-2.14107e-05
-0.00146987
-3.49723e-05
-0.00175768
-4.99444e-05
-0.00204055
-6.61185e-05
-0.0023252
-8.30475e-05
-0.00260412
-0.000100189
-0.00285758
-0.000116189
-0.00305334
-0.00012933
-0.00314018
-0.000136198
-0.00303992
-0.000130253
-0.00262497
-0.00167321
-0.00010131
-9.17063e-06
-0.00112783
-2.07533e-05
-0.0014582
-3.3982e-05
-0.00174439
-4.87925e-05
-0.00202572
-6.47923e-05
-0.00230919
-8.15954e-05
-0.00258733
-9.82317e-05
-0.00284094
-0.000113788
-0.0030378
-0.000125851
-0.00312814
-0.000131464
-0.00303436
-0.000123657
-0.00263277
-0.00170982
-8.71041e-05
-9.21088e-06
-0.00111881
-2.05967e-05
-0.00144693
-3.38676e-05
-0.00173118
-4.8603e-05
-0.00201104
-6.4506e-05
-0.0022933
-8.10656e-05
-0.0025708
-9.75661e-05
-0.00282446
-0.000112411
-0.00302298
-0.000123575
-0.00311702
-0.000126805
-0.00303113
-0.000115489
-0.00264418
-0.00175473
-7.05699e-05
-9.00907e-06
-0.00110966
-2.04734e-05
-0.00143541
-3.37731e-05
-0.00171784
-4.88413e-05
-0.00199598
-6.50834e-05
-0.00227706
-8.23061e-05
-0.00255361
-9.94626e-05
-0.00280732
-0.000115546
-0.00300694
-0.000128423
-0.00310419
-0.00013503
-0.00302462
-0.000128605
-0.00265057
-0.00177896
-0.000104433
-9.15795e-06
-0.00110071
-2.075e-05
-0.00142396
-3.43389e-05
-0.00170431
-4.96534e-05
-0.00198073
-6.62231e-05
-0.00226051
-8.38081e-05
-0.00253607
-0.000101714
-0.00278946
-0.000118516
-0.00299018
-0.000132475
-0.0030903
-0.000140485
-0.00301663
-0.000137331
-0.00265381
-0.00181457
-0.000101775
-8.99771e-06
-0.00109158
-2.0681e-05
-0.00141223
-3.44138e-05
-0.00169055
-5.01432e-05
-0.00196503
-6.72954e-05
-0.00224338
-8.57572e-05
-0.00251767
-0.000104615
-0.00277065
-0.00012304
-0.00297182
-0.000139196
-0.0030742
-0.000150633
-0.00300527
-0.000153734
-0.00265076
-0.00181033
-0.000158055
-9.01175e-06
-0.00108274
-2.07637e-05
-0.00140064
-3.47279e-05
-0.00167666
-5.0487e-05
-0.00194936
-6.7973e-05
-0.00222594
-8.66865e-05
-0.00249902
-0.00010601
-0.00275137
-0.000124894
-0.00295299
-0.000141585
-0.00305755
-0.000153395
-0.0029935
-0.000154982
-0.00264923
-0.00183898
-0.000126397
-8.76305e-06
-0.0010739
-2.04719e-05
-0.00138891
-3.44294e-05
-0.00166268
-5.05236e-05
-0.0019333
-6.82287e-05
-0.00220825
-8.72273e-05
-0.00248005
-0.000107054
-0.00273157
-0.000126467
-0.0029336
-0.000143839
-0.0030402
-0.000155808
-0.00298156
-0.000156184
-0.0026489
-0.00186494
-0.000130204
-8.69412e-06
-0.00106543
-2.06184e-05
-0.00137716
-3.45831e-05
-0.00164879
-5.066e-05
-0.00191729
-6.85282e-05
-0.00219041
-8.78779e-05
-0.00246074
-0.000107999
-0.00271147
-0.000128227
-0.00291339
-0.000146868
-0.00302159
-0.000161399
-0.00296707
-0.000167198
-0.0026431
-0.00186907
-0.000163065
-8.27571e-06
-0.00105713
-1.98997e-05
-0.00136556
-3.41788e-05
-0.00163451
-5.05331e-05
-0.00190099
-6.86047e-05
-0.00217236
-8.80286e-05
-0.00244136
-0.000108371
-0.00269117
-0.000128538
-0.00289326
-0.00014716
-0.003003
-0.000161279
-0.00295297
-0.000164484
-0.00263991
-0.00189665
-0.000136823
-8.49935e-06
-0.00104887
-2.04227e-05
-0.00135384
-3.49071e-05
-0.00162012
-5.16588e-05
-0.00188434
-7.01904e-05
-0.00215388
-9.02288e-05
-0.0024214
-0.000111072
-0.00267037
-0.000132181
-0.0028722
-0.000152157
-0.00298307
-0.000168955
-0.00293619
-0.000177666
-0.00263116
-0.00191565
-0.000158661
-8.40955e-06
-0.00104047
-2.05912e-05
-0.00134174
-3.56836e-05
-0.00160505
-5.30669e-05
-0.00186704
-7.23089e-05
-0.00213467
-9.304e-05
-0.00240074
-0.000114912
-0.00264855
-0.000137241
-0.00284991
-0.000159716
-0.00296064
-0.000181543
-0.00291437
-0.000203187
-0.00260959
-0.00186876
-0.00025008
-8.5474e-06
-0.00103221
-2.12155e-05
-0.00132929
-3.68143e-05
-0.00158955
-5.49541e-05
-0.00184901
-7.48382e-05
-0.00211486
-9.6186e-05
-0.00237946
-0.000118022
-0.00262677
-0.00013952
-0.00282846
-0.000158994
-0.00294122
-0.000174444
-0.00289898
-0.000180623
-0.00260349
-0.0019077
-0.000141791
-9.20662e-06
-0.00102303
-2.26908e-05
-0.00131589
-3.96434e-05
-0.00157263
-5.91845e-05
-0.00182955
-8.09518e-05
-0.00209312
-0.000104262
-0.00235622
-0.000128571
-0.00260251
-0.000152775
-0.00280433
-0.000175738
-0.00291831
-0.000195381
-0.00287943
-0.000208517
-0.00259042
-0.00189504
-0.000221269
-9.92762e-06
-0.00101336
-2.46874e-05
-0.00130134
-4.31575e-05
-0.00155425
-6.4618e-05
-0.00180821
-8.84335e-05
-0.00206937
-0.000114222
-0.00233051
-0.000141328
-0.00257547
-0.000168986
-0.00277673
-0.000196224
-0.00289114
-0.000221986
-0.00285375
-0.000245523
-0.00256691
-0.00187641
-0.000264189
-1.07041e-05
-0.00100269
-2.68172e-05
-0.00128532
-4.69041e-05
-0.00153419
-7.05023e-05
-0.00178471
-9.6673e-05
-0.00204325
-0.00012514
-0.00230213
-0.000155078
-0.0025456
-0.000185935
-0.00274595
-0.000216629
-0.00286052
-0.00024615
-0.00282427
-0.000272525
-0.0025406
-0.00185676
-0.000292179
-1.18202e-05
-0.00099111
-3.01188e-05
-0.00126723
-5.16992e-05
-0.0015127
-7.75121e-05
-0.00175901
-0.000106426
-0.0020144
-0.000137626
-0.00227101
-0.000170584
-0.0025127
-0.000204198
-0.0027124
-0.00023746
-0.00282733
-0.000268726
-0.00279309
-0.000295303
-0.00251404
-0.00184439
-0.000307758
-1.33456e-05
-0.000977851
-3.25981e-05
-0.0012481
-5.79493e-05
-0.00148738
-8.62718e-05
-0.00173079
-0.00011847
-0.00198224
-0.000153642
-0.00223592
-0.000190493
-0.00247591
-0.000228035
-0.00267492
-0.000264828
-0.0027906
-0.000299106
-0.00275884
-0.00032934
-0.00248391
-0.00181772
-0.000356076
-1.50049e-05