/*--------------------------------*- C++ -*----------------------------------*\
| =========                 |                                                 |
| \\      /  F ield         | OpenFOAM: The Open Source CFD Toolbox           |
|  \\    /   O peration     | Version:  2.3.0                                 |
|   \\  /    A nd           | Web:      www.OpenFOAM.org                      |
|    \\/     M anipulation  |                                                 |
\*---------------------------------------------------------------------------*/
FoamFile
{
    version     2.0;
    format      ascii;
    class       volScalarField;
    location    "100";
    object      nut;
}
// * * * * * * * * * * * * * * * * * * * * * * * * * * * * * * * * * * * * * //

dimensions      [0 2 -1 0 0 0 0];

internalField   nonuniform List<scalar> 
7994
(
0.0689308
0.0642664
0.0598683
0.0557864
0.0520756
0.0487874
0.0459606
0.0436073
0.0417001
0.0401668
0.0388969
0.0377594
0.0366199
0.0353529
0.0338508
0.0750373
0.0719688
0.0692782
0.0669879
0.0651027
0.0636104
0.0624823
0.0616755
0.0611383
0.0608154
0.0606524
0.0605995
0.0606135
0.0606587
0.0607066
0.0804374
0.0784353
0.0767998
0.0755086
0.0745309
0.0738281
0.073357
0.0730732
0.0729331
0.0728965
0.0729278
0.0729958
0.0730739
0.0731393
0.0731728
0.0849512
0.0836358
0.0826196
0.0818667
0.0813389
0.0809974
0.0808046
0.0807256
0.0807287
0.0807861
0.0808736
0.0809701
0.0810576
0.08112
0.0811433
0.0886509
0.0877592
0.0870948
0.0866232
0.08631
0.0861232
0.0860338
0.0860167
0.0860495
0.0861134
0.086192
0.0862708
0.0863374
0.0863806
0.0863901
0.0916803
0.0910351
0.090568
0.0902416
0.0900263
0.0898976
0.0898341
0.0898182
0.0898348
0.0898709
0.0899158
0.0899601
0.0899954
0.0900142
0.0900093
0.0941311
0.0936539
0.0933036
0.0930526
0.0928794
0.0927659
0.0926973
0.0926612
0.0926475
0.0926479
0.0926552
0.0926638
0.0926684
0.0926643
0.092647
0.0961436
0.0957791
0.0954973
0.0952849
0.0951273
0.095012
0.0949284
0.0948683
0.094825
0.094793
0.094768
0.0947467
0.0947261
0.0947037
0.094677
0.0978463
0.0975331
0.0972875
0.0970939
0.0969404
0.0968178
0.0967188
0.0966378
0.0965705
0.0965136
0.0964643
0.0964209
0.0963819
0.0963462
0.096313
0.0992614
0.09899
0.0987689
0.098586
0.0984327
0.0983025
0.0981907
0.0980938
0.0980093
0.097935
0.0978693
0.0978111
0.0977598
0.0977154
0.0976779
0.100453
0.100215
0.100012
0.0998363
0.0996824
0.0995462
0.0994248
0.0993166
0.0992205
0.0991353
0.0990598
0.098993
0.0989344
0.0988845
0.0988443
0.10147
0.10126
0.10107
0.100899
0.100745
0.100605
0.100477
0.10036
0.100256
0.100165
0.100085
0.100015
0.0999527
0.0998995
0.0998572
0.102354
0.102164
0.101981
0.101813
0.101661
0.101518
0.101385
0.101263
0.101153
0.101058
0.100979
0.10091
0.100846
0.100791
0.100746
0.103126
0.102955
0.102776
0.102609
0.102457
0.102315
0.102179
0.102054
0.101937
0.101839
0.101763
0.101703
0.101634
0.101581
0.101531
0.0338525
0.0353532
0.0365958
0.0377026
0.0388038
0.0400371
0.0415356
0.0434102
0.0457329
0.0485316
0.0517954
0.0554894
0.0595669
0.0639781
0.0686782
0.0606833
0.0605886
0.060496
0.0604349
0.0604421
0.0605616
0.0608443
0.0613456
0.0621222
0.0632275
0.0647063
0.0665901
0.0688945
0.0716178
0.0747403
0.0731434
0.0730511
0.0729269
0.0727914
0.0726684
0.0725855
0.0725755
0.0726755
0.0729274
0.0733766
0.0740701
0.0750536
0.0763679
0.078046
0.0801103
0.0811097
0.0810193
0.0808908
0.0807395
0.0805827
0.0804398
0.0803332
0.0802889
0.0803367
0.0805101
0.0808463
0.0813849
0.0821665
0.0832298
0.0846109
0.0863545
0.0862741
0.0861615
0.0860284
0.0858875
0.0857527
0.0856399
0.0855672
0.0855553
0.0856283
0.0858132
0.0861405
0.0866431
0.0873558
0.088312
0.0899734
0.0899069
0.0898186
0.0897172
0.0896117
0.0895121
0.0894293
0.0893757
0.0893657
0.0894159
0.0895456
0.0897768
0.0901348
0.0906485
0.0913539
0.0926119
0.0925596
0.0924962
0.092428
0.0923611
0.0923023
0.0922589
0.0922393
0.0922532
0.0923119
0.0924286
0.0926187
0.0929003
0.0932943
0.0938279
0.0946434
0.0946035
0.0945619
0.0945225
0.0944896
0.0944676
0.0944612
0.0944758
0.0945177
0.0945945
0.0947149
0.0948896
0.0951309
0.0954524
0.0958655
0.0962811
0.0962514
0.0962269
0.0962105
0.0962047
0.0962123
0.0962362
0.0962796
0.0963464
0.0964416
0.0965709
0.0967415
0.096962
0.0972432
0.0975989
0.0976476
0.0976256
0.0976141
0.097615
0.0976297
0.0976597
0.0977066
0.0977722
0.0978588
0.0979693
0.0981073
0.0982773
0.0984853
0.0987387
0.0990476
0.0988153
0.0987989
0.098797
0.0988107
0.0988406
0.0988869
0.0989505
0.0990322
0.0991333
0.0992553
0.0994001
0.0995703
0.0997694
0.100002
0.100275
0.0998288
0.0998164
0.099822
0.0998454
0.0998863
0.0999442
0.10002
0.100113
0.100224
0.100354
0.100503
0.100673
0.100865
0.101081
0.101324
0.100717
0.100708
0.100719
0.100751
0.1008
0.100866
0.100949
0.10105
0.101168
0.101304
0.101456
0.101624
0.10181
0.102014
0.102233
0.101502
0.101495
0.101511
0.10155
0.101605
0.101675
0.101766
0.101871
0.101993
0.102135
0.102287
0.102452
0.102634
0.102831
0.103029
0.0140673
0.0111247
0.0087633
0.00692434
0.00567484
0.00478979
0.00409932
0.00351608
0.00299683
0.00251988
0.0020749
0.00165873
0.00127284
0.000918325
0.000658125
0.0141416
0.0114045
0.00918634
0.00744195
0.00617924
0.005248
0.00452911
0.00393744
0.00342099
0.00295041
0.00251022
0.00209364
0.00169845
0.00132395
0.00101896
0.0142436
0.0117126
0.00963238
0.00798661
0.0067138
0.00573508
0.00497057
0.00434835
0.00381478
0.00333468
0.00288719
0.00246129
0.00205054
0.00165082
0.00131662
0.0143662
0.0120236
0.0100705
0.00850725
0.00723874
0.00622204
0.00540788
0.00474229
0.00417697
0.00367495
0.00321122
0.00277047
0.00234184
0.00191782
0.00155925
0.0144969
0.0123255
0.0104915
0.0089928
0.00773735
0.0066945
0.0058347
0.00512123
0.0045153
0.00398227
0.00349531
0.0030355
0.00258772
0.0021409
0.00175998
0.014645
0.0126161
0.0108915
0.00944439
0.00820429
0.00714449
0.00624602
0.00548561
0.0048351
0.00426515
0.0037496
0.00326729
0.00279934
0.00233089
0.00192898
0.0147688
0.0128895
0.0112652
0.00986403
0.00863919
0.00756826
0.00663792
0.00583427
0.00513873
0.00452875
0.00398092
0.00347343
0.0029844
0.00249515
0.00207346
0.0149225
0.0131499
0.0116111
0.010253
0.00904323
0.00796471
0.00700808
0.00616571
0.00542687
0.00477595
0.00419371
0.00365911
0.00314826
0.00263886
0.00219852
0.0150235
0.0133898
0.0119302
0.0106129
0.00941799
0.00833415
0.00735549
0.00647881
0.00569947
0.00500827
0.00439076
0.00382789
0.00329471
0.00276569
0.00230774
0.0151589
0.0136146
0.0122242
0.0109454
0.00976527
0.00867771
0.00768026
0.00677319
0.00595654
0.00522665
0.00457404
0.00398242
0.00342668
0.00287852
0.00240385
0.0152607
0.0138232
0.0124956
0.0112524
0.0100868
0.00899674
0.00798301
0.00704883
0.00619798
0.00543153
0.00474465
0.00412433
0.00354612
0.00297947
0.00248904
0.0153898
0.0140212
0.0127471
0.0115365
0.0103847
0.00929307
0.00826541
0.00730726
0.00642525
0.0056245
0.00490491
0.00425651
0.00365569
0.00307063
0.00256514
0.0154915
0.0142075
0.0129812
0.0117994
0.0106597
0.00956513
0.00852209
0.00754124
0.0066315
0.00579967
0.00504732
0.00437217
0.00375251
0.0031522
0.00263281
0.0156239
0.0144119
0.0132214
0.0120599
0.0109454
0.00987148
0.00883599
0.00782308
0.00687048
0.00600007
0.00522821
0.00451676
0.00385533
0.00322721
0.00269528
0.000660992
0.000918965
0.00127105
0.00165354
0.00206442
0.00250173
0.00296834
0.00347457
0.0040432
0.00472231
0.00561382
0.00691257
0.00877452
0.0111573
0.0141232
0.00102221
0.00132351
0.00169294
0.00208281
0.00249268
0.00292418
0.00338415
0.00388906
0.00447114
0.00518841
0.00613307
0.00742148
0.00920335
0.0114409
0.0141897
0.00132035
0.0016495
0.00204199
0.00244574
0.00286384
0.00330228
0.00377269
0.00429778
0.00491605
0.00568492
0.00667699
0.00796829
0.00965376
0.0117513
0.0142959
0.00156355
0.00191594
0.002331
0.00275137
0.00318378
0.00363889
0.00413308
0.00469345
0.00535949
0.00618091
0.00721068
0.00849789
0.0100957
0.0120654
0.0144217
0.00176495
0.0021388
0.0025753
0.003014
0.00346548
0.00394489
0.00447236
0.00507654
0.0057935
0.00666216
0.00771845
0.00899228
0.0105165
0.0123683
0.0145451
0.00193469
0.00232886
0.00278599
0.00324444
0.00371887
0.0042283
0.00479499
0.00544639
0.00621238
0.00712073
0.00819376
0.00944913
0.0109116
0.012661
0.014711
0.00207998
0.00249345
0.00297067
0.00345013
0.0039505
0.00449379
0.00510263
0.00580113
0.00661181
0.00755238
0.00863522
0.00987103
0.0112813
0.0129385
0.0148436
0.00220588
0.00263772
0.00313463
0.0036361
0.00416453
0.00474382
0.00539545
0.00613885
0.00698909
0.00795562
0.00904403
0.0102613
0.0116265
0.0132013
0.0149973
0.00231597
0.00276533
0.0032816
0.00380576
0.00436351
0.00497956
0.00567303
0.00645809
0.00734297
0.00833068
0.00942243
0.010623
0.0119489
0.0134486
0.0151286
0.00241292
0.00287901
0.00341435
0.0039616
0.00454917
0.0052017
0.00593514
0.00675827
0.00767347
0.00867898
0.00977305
0.0109587
0.012249
0.0136786
0.01525
0.00249916
0.00298115
0.00353505
0.00410534
0.00472263
0.00541064
0.00618168
0.00703944
0.00798138
0.00900224
0.0100982
0.0112704
0.0125272
0.0138908
0.0153594
0.00257532
0.00307261
0.00364508
0.00423853
0.00488508
0.005607
0.00641284
0.00730179
0.00826768
0.00930233
0.0104
0.0115597
0.0127851
0.0140903
0.0154823
0.00264755
0.00315932
0.00374761
0.00436185
0.00503565
0.00578999
0.00662932
0.00754949
0.00853687
0.00958277
0.0106818
0.0118291
0.0130255
0.0142777
0.0155882
0.0026908
0.00321588
0.00383054
0.00447524
0.0051846
0.00597032
0.00683932
0.00775787
0.00875511
0.0098252
0.0109185
0.0120669
0.0132342
0.0144309
0.0156421
0.00135877
0.00411242
0.00715837
0.0104445
0.01397
0.0177342
0.0217456
0.0260194
0.0305716
0.0354117
0.0405355
0.0459223
0.0515361
0.057332
0.0632636
1.15285e-07
0.000424559
0.00170291
0.00396881
0.00659348
0.00973037
0.0133863
0.017558
0.0222325
0.0273851
0.0329767
0.0389528
0.0452441
0.0517713
0.0584509
0
0.000203483
0.00106516
0.00260846
0.00450623
0.0069273
0.0099176
0.0135111
0.0177275
0.0225667
0.0280047
0.0339909
0.0404479
0.047277
0.0543681
2.14872e-07
5.34666e-05
0.00111944
0.00222767
0.00373393
0.0057093
0.0082174
0.0113185
0.0150633
0.0194849
0.0245919
0.0303611
0.0367339
0.0436174
0.0508941
4.92038e-05
0.000466909
0.00108375
0.00200862
0.00329568
0.00499938
0.00718766
0.00993184
0.0133
0.0173488
0.0221151
0.027606
0.0337908
0.0405975
0.0479157
0.000326539
0.000632446
0.00101296
0.00182936
0.00297205
0.00449239
0.00645713
0.00894023
0.0120174
0.0157591
0.0202216
0.0254365
0.0314001
0.0380646
0.0453325
0.000397247
0.000617365
0.000988896
0.00168039
0.00271216
0.00409513
0.0058914
0.0081741
0.0110216
0.0145114
0.0187121
0.0236736
0.0294144
0.035911
0.0430888
0.000392226
0.000576824
0.000976219
0.00155866
0.00249996
0.00377306
0.00543467
0.00755612
0.010216
0.0134954
0.0174705
0.0222034
0.0277289
0.0340387
0.0410533
0.000383216
0.000553192
0.000949555
0.00145744
0.00232509
0.00350753
0.00505752
0.00704465
0.00954695
0.0126469
0.0164254
0.0209533
0.0262789
0.0324153
0.0393379
0.00037698
0.000540909
0.000919277
0.00137309
0.00217899
0.00328529
0.00474073
0.00661338
0.00898042
0.0119248
0.0155305
0.0198746
0.0250169
0.0309885
0.0377843
0.000372086
0.000534078
0.000898131
0.00132237
0.00205725
0.0030968
0.00447071
0.0062442
0.00849336
0.0113011
0.0147534
0.018932
0.0239055
0.0297173
0.0363692
0.000368048
0.00053084
0.000889004
0.00130002
0.00195617
0.00293512
0.00423763
0.00592416
0.00806938
0.0107559
0.0140707
0.0180991
0.0229156
0.0285709
0.0350697
0.000364616
0.000529459
0.000885996
0.0012861
0.001871
0.00279499
0.00403422
0.00564368
0.0076964
0.0102744
0.0134653
0.0173567
0.0220287
0.0275431
0.0339392
0.000361489
0.000528281
0.000883665
0.00127188
0.00179765
0.00267222
0.00385496
0.00539555
0.00736527
0.00984542
0.0129238
0.0166901
0.0212291
0.0266111
0.0328822
0.000358475
0.000526594
0.000880199
0.00125733
0.00173987
0.00256423
0.00369568
0.00517422
0.00706897
0.00946033
0.0124361
0.0160874
0.0205021
0.0257542
0.031882
0.000355598
0.000524822
0.000877315
0.00124795
0.00170824
0.00247059
0.00355339
0.00497544
0.00680201
0.00911233
0.0119939
0.0155388
0.0198365
0.0249634
0.0309634
0.000352959
0.000523555
0.000876492
0.00124477
0.00169327
0.00238977
0.00342574
0.00479585
0.00656002
0.00879595
0.0115907
0.0150367
0.0192253
0.0242391
0.0301453
0.000350577
0.000522833
0.000877306
0.00124466
0.00168289
0.00231909
0.00331068
0.00463276
0.00633948
0.00850683
0.0112212
0.0145752
0.0186625
0.0235703
0.0293723
0.000348383
0.000522284
0.000878433
0.00124453
0.00167179
0.0022564
0.00320638
0.00448392
0.00613755
0.00824139
0.0108811
0.0141496
0.018142
0.0229492
0.028647
0.00034629
0.000521554
0.000878881
0.00124307
0.00165967
0.00220386
0.00311168
0.00434754
0.00595187
0.00799669
0.0105669
0.0137552
0.0176576
0.0223658
0.0279524
0.000344258
0.000520584
0.000878657
0.00124117
0.00165005
0.00216921
0.0030267
0.00422223
0.0057805
0.0077703
0.0102755
0.013389
0.0172087
0.0218344
0.02738
0.000342304
0.00051957
0.000878437
0.00124038
0.00164527
0.00215061
0.00295132
0.00410694
0.00562186
0.00756018
0.0100046
0.0130478
0.0167883
0.0213232
0.0267199
0.000340463
0.000518714
0.000878762
0.00124124
0.00164436
0.00213961
0.00288425
0.00400072
0.00547459
0.0073646
0.00975192
0.0127289
0.0163942
0.0208473
0.0261857
0.000338742
0.000518056
0.000879644
0.00124321
0.00164506
0.00213032
0.00282386
0.00390257
0.00533755
0.00718205
0.00951558
0.01243
0.0160245
0.0204014
0.0256624
0.000337124
0.000517501
0.000880726
0.00124537
0.00164555
0.00212031
0.0027692
0.00381161
0.00520971
0.00701125
0.00929401
0.0121493
0.0156765
0.0199784
0.0251485
0.000335577
0.000516914
0.000881601
0.00124699
0.00164503
0.00210961
0.00272199
0.00372731
0.00509018
0.00685108
0.00908579
0.0118849
0.0153475
0.019575
0.0246541
0.000334076
0.00051622
0.000882075
0.00124794
0.00164391
0.00210026
0.00268716
0.00364986
0.00497827
0.00670053
0.00888959
0.011635
0.015035
0.0191886
0.0241786
0.000332613
0.000515434
0.000882238
0.00124858
0.00164326
0.00209434
0.00266558
0.00357951
0.00487345
0.00655873
0.00870429
0.0113984
0.0147386
0.0188258
0.023763
0.000331197
0.000514634
0.000882338
0.00124944
0.00164383
0.00209204
0.00265262
0.00351582
0.00477522
0.00642492
0.00852891
0.0111739
0.0144572
0.0184805
0.0233445
0.000329839
0.000513893
0.000882588
0.00125079
0.00164567
0.00209217
0.00264338
0.00345781
0.00468306
0.00629845
0.00836268
0.0109609
0.01419
0.0181532
0.0229545
0.000328545
0.000513239
0.00088305
0.00125259
0.0016483
0.00209324
0.00263489
0.00340448
0.00459643
0.00617873
0.00820487
0.0107582
0.0139349
0.0178358
0.0225493
0.000327311
0.000512651
0.000883645
0.0012546
0.0016511
0.00209417
0.00262591
0.00335539
0.00451484
0.00606524
0.00805482
0.0105651
0.0136916
0.0175363
0.0222064
0.000326127
0.000512085
0.000884226
0.0012565
0.00165358
0.0020944
0.00261639
0.00331149
0.00443798
0.0059575
0.00791196
0.0103809
0.0134591
0.017248
0.0218444
0.00032498
0.000511496
0.000884665
0.00125809
0.00165552
0.00209401
0.00260733
0.00327567
0.00436594
0.00585512
0.00777576
0.0102049
0.0132362
0.0169695
0.0214985
0.000323862
0.000510863
0.000884902
0.00125931
0.00165701
0.00209355
0.00260027
0.00325003
0.004299
0.00575781
0.00764574
0.0100366
0.0130231
0.0167065
0.0211957
0.000322769
0.000510193
0.000884967
0.00126027
0.00165838
0.00209372
0.00259606
0.00323323
0.00423724
0.00566534
0.00752151
0.00987537
0.0128182
0.0164491
0.0208586
0.000321703
0.000509509
0.000884949
0.00126117
0.00165995
0.0020949
0.00259451
0.00322199
0.0041803
0.00557746
0.00740268
0.00972081
0.0126218
0.0162066
0.020591
0.000320668
0.000508842
0.000884943
0.00126217
0.00166192
0.00209707
0.00259479
0.00321338
0.00412754
0.0054939
0.00728897
0.0095727
0.0124341
0.0159764
0.0203191
0.000319668
0.000508211
0.000885005
0.00126334
0.00166428
0.00209994
0.00259595
0.00320555
0.00407833
0.00541438
0.00718011
0.00943072
0.0122541
0.0157535
0.0200391
0.000318703
0.000507623
0.000885147
0.00126466
0.00166689
0.00210312
0.00259723
0.00319755
0.00403231
0.00533864
0.00707586
0.00929457
0.0120815
0.0155407
0.0197907
0.000317772
0.000507065
0.000885336
0.00126605
0.00166954
0.00210624
0.00259816
0.0031891
0.00398967
0.00526645
0.00697599
0.00916401
0.0119162
0.0153375
0.0195484
0.000316871
0.000506523
0.000885522
0.00126738
0.00167206
0.00210904
0.00259855
0.00318047
0.00395162
0.00519778
0.00688028
0.00903866
0.011757
0.0151381
0.0192862
0.000315994
0.00050598
0.000885651
0.00126858
0.00167431
0.00211142
0.00259853
0.00317242
0.00392008
0.00513276
0.00678854
0.00891818
0.0116036
0.0149469
0.0190625
0.000315138
0.000505426
0.000885689
0.00126959
0.00167626
0.00211345
0.00259848
0.00316591
0.00389623
0.00507165
0.00670061
0.00880231
0.0114558
0.014763
0.0188376
0.0003143
0.000504856
0.000885632
0.00127041
0.00167797
0.00211534
0.00259884
0.00316156
0.00387935
0.00501452
0.00661636
0.00869075
0.0113131
0.0145833
0.0186054
0.000313479
0.000504275
0.000885499
0.00127109
0.00167954
0.0021173
0.00259992
0.0031594
0.0038675
0.00496124
0.00653565
0.00858327
0.0111752
0.0144089
0.0183871
0.000312675
0.000503691
0.000885324
0.00127171
0.00168111
0.0021195
0.00260183
0.00315902
0.00385863
0.00491144
0.00645829
0.00847948
0.011041
0.0142366
0.0181585
0.00031189
0.000503118
0.000885144
0.00127233
0.00168277
0.00212204
0.00260448
0.00315983
0.00385122
0.00486469
0.00638408
0.00837922
0.0109112
0.0140733
0.0179763
0.000311124
0.000502563
0.000884988
0.00127301
0.00168458
0.00212488
0.00260766
0.00316126
0.0038443
0.0048206
0.00631282
0.0082823
0.0107852
0.013912
0.0177559
0.000310379
0.000502029
0.000884869
0.00127375
0.00168651
0.00212794
0.00261112
0.00316284
0.00383731
0.00477892
0.0062443
0.00818848
0.0106628
0.013755
0.0175623
0.000309655
0.000501516
0.000884786
0.00127455
0.00168852
0.0021311
0.00261461
0.00316425
0.00383005
0.0047397
0.00617836
0.00809764
0.0105441
0.013605
0.0173893
0.000308952
0.00050102
0.000884722
0.00127537
0.00169054
0.00213423
0.00261796
0.00316532
0.00382255
0.00470348
0.00611494
0.00800976
0.0104293
0.0134602
0.0172056
0.000308267
0.000500536
0.000884659
0.00127617
0.0016925
0.00213721
0.00262104
0.00316603
0.00381514
0.00467125
0.00605406
0.00792459
0.0103173
0.0133143
0.0170008
0.000307599
0.000500056
0.000884576
0.00127691
0.00169434
0.00213999
0.00262382
0.0031665
0.00380836
0.00464418
0.00599585
0.00784216
0.0102092
0.0131797
0.0168722
0.000306947
0.000499577
0.000884458
0.00127756
0.00169602
0.00214254
0.00262635
0.00316696
0.00380275
0.0046228
0.00594045
0.00776236
0.0101039
0.0130427
0.0166601
0.000306309
0.000499095
0.000884295
0.00127811
0.00169754
0.00214488
0.00262874
0.00316769
0.00379872
0.00460666
0.00588796
0.00768511
0.0100015
0.0129112
0.0165095
0.000305684
0.00049861
0.000884088
0.00127856
0.00169892
0.00214707
0.00263111
0.00316889
0.00379635
0.00459463
0.0058383
0.0076103
0.00990153
0.0127802
0.0163243
0.000305072
0.000498124
0.000883845
0.00127894
0.00170018
0.00214919
0.00263361
0.00317069
0.00379546
0.00458541
0.00579127
0.00753779
0.00980382
0.0126521
0.0161642
0.000304474
0.00049764
0.000883581
0.00127927
0.0017014
0.00215132
0.00263631
0.00317309
0.00379573
0.00457788
0.00574663
0.00746748
0.00970858
0.0125285
0.0160162
0.000303889
0.000497161
0.000883307
0.00127957
0.0017026
0.0021535
0.00263924
0.003176
0.00379678
0.00457121
0.0057041
0.00739933
0.00961601
0.0124094
0.0158713
0.000303318
0.000496693
0.00088304
0.00127988
0.00170382
0.00215578
0.00264239
0.0031793
0.00379828
0.00456486
0.00566346
0.00733331
0.0095261
0.0122935
0.0157242
0.000302763
0.000496235
0.000882787
0.00128021
0.00170508
0.00215815
0.00264571
0.00318284
0.00379994
0.00455848
0.0056246
0.00726934
0.00943866
0.0121802
0.0155803
0.000302223
0.000495791
0.000882555
0.00128056
0.00170639
0.00216059
0.00264914
0.00318646
0.00380153
0.00455191
0.00558749
0.00720742
0.00935387
0.0120716
0.0154545
0.000301701
0.000495359
0.000882342
0.00128093
0.00170772
0.00216306
0.00265259
0.00319005
0.00380293
0.00454511
0.00555235
0.00714752
0.00927172
0.0119664
0.0153227
0.000301195
0.000494939
0.000882144
0.00128131
0.00170905
0.00216553
0.002656
0.00319349
0.00380405
0.00453818
0.00551959
0.00708968
0.00919207
0.0118639
0.0151926
0.000300709
0.000494527
0.000881954
0.0012817
0.00171037
0.00216794
0.00265929
0.00319674
0.00380491
0.00453133
0.00548989
0.00703394
0.00911482
0.011764
0.0150651
0.000300242
0.000494122
0.000881767
0.00128207
0.00171165
0.00217027
0.00266245
0.00319977
0.00380558
0.00452491
0.00546395
0.00698039
0.00903979
0.0116659
0.0149375
0.0002998
0.000493722
0.000881572
0.00128241
0.00171286
0.00217249
0.00266543
0.0032026
0.0038062
0.00451925
0.00544222
0.00692913
0.00896701
0.0115711
0.0148222
0.000299381
0.000493326
0.000881379
0.00128272
0.00171402
0.00217461
0.00266827
0.00320531
0.00380695
0.00451469
0.0054247
0.00688029
0.0088966
0.0114795
0.0147096
0.000299011
0.000492921
0.000881151
0.00128297
0.00171506
0.00217659
0.00267097
0.00320796
0.00380798
0.00451139
0.00541093
0.00683395
0.00882863
0.0113907
0.0145963
0.000298638
0.000492544
0.000881028
0.0012833
0.00171616
0.00217858
0.00267368
0.00321073
0.0038095
0.00450948
0.0054003
0.00679012
0.00876295
0.0113038
0.0144832
0.000298483
0.000492067
0.000880678
0.00128343
0.00171716
0.00218059
0.00267653
0.00321387
0.0038118
0.00450903
0.00539216
0.00674922
0.0087004
0.0112223
0.0143924
0.000297899
0.000491847
0.000880713
0.0012834
0.00171741
0.00218143
0.00267804
0.0032157
0.00381313
0.00450827
0.00538461
0.00670862
0.00863839
0.0111395
0.0142691
0.000299906
0.00049247
0.000883974
0.00129053
0.00172777
0.00219415
0.0026923
0.00323066
0.00382771
0.00452063
0.00538945
0.00668578
0.00859241
0.0110711
0.0141952
0.000281054
0.000468577
0.000839901
0.00123505
0.00166739
0.00213318
0.00263309
0.00317386
0.00377222
0.00446323
0.00532372
0.00657915
0.0084716
0.0109497
0.0140629
0.00135515
0.0040972
0.00712753
0.0103946
0.0139001
0.017643
0.0216327
0.0258846
0.0304151
0.0352337
0.0403368
0.0457061
0.0513101
0.0571081
0.0630599
1.14078e-07
0.000422124
0.001693
0.00394858
0.00656227
0.00968587
0.013326
0.0174796
0.0221346
0.0272667
0.0328384
0.0387967
0.0450758
0.0516009
0.0582936
0
0.000205138
0.00107039
0.0026084
0.0045005
0.00691422
0.00989418
0.0134742
0.0176742
0.0224949
0.0279137
0.0338818
0.0403251
0.0471486
0.0542441
3.86383e-07
7.59702e-05
0.00112298
0.00223422
0.00373717
0.00570786
0.0082093
0.0113011
0.0150337
0.0194407
0.0245316
0.0302849
0.0366445
0.043521
0.050799
4.96834e-05
0.000468727
0.00108359
0.0020104
0.00329823
0.0049994
0.00718327
0.0099211
0.0132806
0.0173187
0.0220726
0.0275507
0.0337244
0.0405243
0.0478425
0.000326644
0.000625081
0.00101094
0.00182715
0.00297032
0.00449098
0.00645349
0.00893232
0.0120034
0.0157372
0.0201902
0.0253952
0.0313498
0.0380084
0.0452755
0.000399721
0.000606044
0.000965376
0.0016745
0.00270751
0.00409083
0.00588746
0.00816792
0.0110111
0.014495
0.0186886
0.0236423
0.0293759
0.0358676
0.043045
0.000394999
0.000567489
0.000952926
0.00155077
0.00249358
0.003767
0.00542938
0.00755061
0.010208
0.013483
0.0174526
0.0221793
0.027699
0.0340045
0.041017
0.000386175
0.000546973
0.000931713
0.00144914
0.00231768
0.0035002
0.00505066
0.00703882
0.00954027
0.0126374
0.0164118
0.0209348
0.0262556
0.0323885
0.0393103
0.000380185
0.000536912
0.00090581
0.00136362
0.00217096
0.00327707
0.00473273
0.0066064
0.00897423
0.0119173
0.01552
0.0198603
0.024999
0.0309682
0.0377656
0.000375269
0.000530395
0.000883367
0.00129904
0.00204737
0.00308773
0.00446177
0.00623606
0.00848696
0.0112948
0.0147453
0.0189212
0.0238922
0.0297029
0.0363582
0.000371035
0.000526708
0.0008721
0.00127011
0.00194441
0.00292524
0.00422792
0.00591517
0.00806223
0.0107502
0.0140645
0.0180912
0.0229062
0.0285616
0.0350648
0.000367477
0.000525403
0.000869447
0.00125812
0.0018583
0.00278443
0.00402383
0.00563388
0.00768812
0.0102687
0.0134603
0.0173512
0.0220227
0.0275382
0.0339397
0.000364367
0.000524977
0.000869342
0.00124829
0.00178477
0.00266122
0.003844
0.00538504
0.00735622
0.00983931
0.0129196
0.0166866
0.021226
0.02661
0.0328867
0.000361432
0.000524159
0.000868044
0.00123617
0.00172098
0.00255234
0.00368422
0.00516317
0.00705933
0.00945358
0.0124324
0.0160854
0.0205014
0.025756
0.0318892
0.00035856
0.000522724
0.000865451
0.00122456
0.00167523
0.00245642
0.0035413
0.00496388
0.00679176
0.00910471
0.0119904
0.0155379
0.0198379
0.0249685
0.0309771
0.000355835
0.000521341
0.000863853
0.0012188
0.00165399
0.00237334
0.00341293
0.00478379
0.00654922
0.00878774
0.011587
0.0150367
0.0192287
0.0242472
0.0301627
0.000353354
0.000520526
0.000864353
0.00121847
0.00164482
0.0023014
0.00329722
0.00462024
0.00632824
0.0084982
0.0112172
0.014576
0.0186675
0.0235807
0.0293907
0.000351115
0.000520188
0.000866186
0.00122021
0.00163766
0.00223809
0.00319247
0.00447103
0.00612594
0.00823237
0.0108766
0.0141507
0.018148
0.0229601
0.0286613
0.000349036
0.000519915
0.000868007
0.0012213
0.0016288
0.00218151
0.0030971
0.0043343
0.00593992
0.00798729
0.0105618
0.0137565
0.017665
0.02238
0.0279775
0.000347034
0.000519381
0.000868942
0.00122076
0.00161854
0.00213408
0.00301017
0.00420854
0.00576823
0.00776052
0.01027
0.0133898
0.0172141
0.0218363
0.0273343
0.000345076
0.000518567
0.000869112
0.00121965
0.00161062
0.00210386
0.00293199
0.0040926
0.00560923
0.00755
0.00999849
0.0130475
0.0167921
0.0213256
0.0267277
0.000343189
0.000517696
0.000869261
0.00121962
0.00160747
0.00208912
0.00286259
0.00398562
0.00546157
0.00735395
0.009745
0.0127268
0.0163947
0.0208404
0.0261368
0.000341408
0.000516985
0.000869968
0.00122127
0.00160815
0.00208147
0.00280085
0.00388678
0.00532406
0.00717081
0.00950759
0.0124257
0.0160218
0.0203912
0.0256362
0.000339747
0.000516484
0.000871264
0.00122406
0.00161042
0.00207516
0.00274517
0.00379522
0.00519571
0.00699929
0.0092847
0.0121426
0.01567
0.0199612
0.0250953
0.000338188
0.000516094
0.00087279
0.00122708
0.00161243
0.00206781
0.0026944
0.00371012
0.0050756
0.00683826
0.00907499
0.0118756
0.0153371
0.0195534
0.0246085
0.0003367
0.000515675
0.000874117
0.00122954
0.00161328
0.00205912
0.00264919
0.00363089
0.00496294
0.00668674
0.0088772
0.0116233
0.0150212
0.0191653
0.0241411
0.000335255
0.000515135
0.000874994
0.00123118
0.00161313
0.00205076
0.00261407
0.00355756
0.00485711
0.00654387
0.0086903
0.0113844
0.0147224
0.0188024
0.023731
0.000333841
0.000514472
0.000875458
0.0012323
0.00161301
0.00204519
0.00259226
0.00349061
0.00475764
0.00640894
0.0085134
0.011158
0.0144392
0.0184578
0.0233167
0.000332465
0.000513759
0.000875758
0.00123344
0.00161391
0.00204333
0.0025805
0.00342996
0.00466416
0.00628133
0.00834578
0.0109434
0.0141708
0.0181314
0.0229299
0.00033114
0.000513086
0.000876157
0.00123504
0.00161615
0.00204434
0.00257353
0.00337485
0.0045763
0.00616053
0.00818674
0.0107395
0.0139149
0.017815
0.0225282
0.000329875
0.0005125
0.000876785
0.00123716
0.00161941
0.00204675
0.0025678
0.00332428
0.00449361
0.00604602
0.00803564
0.0105454
0.0136713
0.0175165
0.022188
0.000328672
0.000511997
0.000877604
0.00123962
0.00162308
0.00204929
0.00256159
0.00327745
0.00441564
0.00593738
0.00789191
0.0103606
0.0134389
0.0172297
0.0218308
0.000327521
0.000511535
0.000878478
0.00124209
0.00162657
0.00205118
0.00255438
0.0032343
0.00434202
0.00583417
0.00775501
0.0101842
0.0132162
0.0169527
0.0214883
0.00032641
0.000511063
0.000879252
0.00124431
0.00162952
0.00205217
0.00254659
0.00319646
0.00427258
0.00573601
0.00762446
0.0100156
0.0130037
0.0166916
0.0211914
0.000325329
0.000510546
0.000879818
0.00124611
0.00163184
0.00205256
0.00253958
0.0031672
0.00420756
0.00564261
0.00749981
0.0098544
0.0127994
0.016436
0.020857
0.000324269
0.000509975
0.00088016
0.00124753
0.00163374
0.00205305
0.00253485
0.0031479
0.00414734
0.00555374
0.00738067
0.00969999
0.012604
0.0161961
0.0205982
0.000323231
0.000509367
0.00088034
0.00124872
0.00163561
0.00205431
0.00253302
0.00313638
0.0040919
0.00546924
0.00726674
0.00955221
0.0124176
0.0159691
0.0203327
0.000322219
0.000508754
0.000880465
0.00124991
0.00163777
0.00205664
0.00253367
0.00312927
0.00404084
0.00538891
0.00715777
0.00941072
0.0122389
0.0157485
0.0200519
0.000321237
0.000508165
0.00088063
0.00125125
0.00164036
0.00205995
0.00253588
0.00312397
0.00399353
0.00531253
0.00705352
0.00927517
0.0120678
0.0155382
0.0198096
0.000320289
0.00050762
0.00088089
0.00125279
0.00164336
0.00206389
0.00253874
0.00311894
0.00394936
0.00523985
0.00695376
0.00914531
0.0119039
0.0153374
0.0195697
0.000319375
0.000507118
0.000881236
0.00125448
0.00164659
0.00206806
0.00254155
0.00311343
0.00390796
0.00517063
0.00685825
0.00902074
0.0117461
0.0151402
0.0193099
0.000318493
0.000506645
0.000881633
0.00125623
0.00164985
0.0020721
0.00254389
0.00310726
0.00386947
0.00510467
0.00676674
0.00890108
0.0115942
0.014951
0.0190883
0.000317638
0.000506184
0.000882015
0.00125792
0.00165294
0.00207577
0.00254559
0.00310068
0.00383495
0.00504188
0.00667899
0.00878605
0.0114478
0.0147689
0.0188644
0.000316806
0.000505717
0.000882335
0.00125946
0.00165573
0.00207897
0.00254679
0.00309447
0.00380641
0.0049824
0.00659482
0.00867532
0.0113064
0.0145905
0.0186323
0.000315991
0.000505233
0.00088255
0.00126078
0.00165819
0.00208178
0.00254786
0.00308963
0.00378538
0.00492648
0.00651407
0.0085686
0.0111695
0.0144171
0.0184134
0.000315193
0.000504728
0.000882662
0.0012619
0.00166038
0.00208439
0.00254929
0.00308692
0.00377144
0.00487428
0.00643657
0.00846549
0.0110363
0.0142454
0.0181851
0.000314408
0.000504208
0.000882684
0.00126286
0.00166242
0.00208706
0.00255144
0.00308645
0.00376273
0.00482569
0.0063622
0.00836586
0.0109075
0.0140837
0.0180072
0.000313641
0.000503684
0.00088266
0.00126376
0.00166445
0.00208998
0.00255446
0.00308788
0.00375712
0.00478039
0.0062908
0.00826942
0.0107819
0.0139204
0.0177715
0.00031289
0.000503169
0.000882628
0.00126467
0.00166658
0.00209325
0.00255828
0.00309061
0.00375299
0.00473794
0.0062222
0.00817607
0.0106605
0.0137698
0.0176354
0.00031216
0.000502671
0.000882624
0.00126563
0.00166887
0.00209689
0.0025627
0.00309403
0.0037493
0.00469793
0.00615627
0.00808593
0.0105441
0.0136287
0.0174763
0.00031145
0.000502196
0.000882664
0.00126669
0.00167133
0.00210079
0.00256747
0.00309764
0.00374545
0.00466006
0.00609293
0.00799908
0.0104323
0.013489
0.0172776
0.000310762
0.000501745
0.000882747
0.00126781
0.00167389