/*--------------------------------*- C++ -*----------------------------------*\
| =========                 |                                                 |
| \\      /  F ield         | OpenFOAM: The Open Source CFD Toolbox           |
|  \\    /   O peration     | Version:  2.3.0                                 |
|   \\  /    A nd           | Web:      www.OpenFOAM.org                      |
|    \\/     M anipulation  |                                                 |
\*---------------------------------------------------------------------------*/
FoamFile
{
    version     2.0;
    format      ascii;
    class       volVectorField;
    location    "100";
    object      U;
}
// * * * * * * * * * * * * * * * * * * * * * * * * * * * * * * * * * * * * * //

dimensions      [0 1 -1 0 0 0 0];

internalField   nonuniform List<vector> 
7994
(
(20.0951 0.156919 3.71863e-22)
(20.1026 0.173441 4.83698e-22)
(20.1103 0.192857 -1.26595e-21)
(20.1177 0.214699 3.77389e-22)
(20.1241 0.238559 -4.73369e-21)
(20.1289 0.263602 1.34223e-20)
(20.1312 0.28878 -8.47965e-21)
(20.1299 0.313104 0)
(20.1244 0.335762 0)
(20.1143 0.356161 -1.27794e-20)
(20.0995 0.373901 1.17656e-20)
(20.08 0.388749 -1.59478e-20)
(20.056 0.400509 1.46054e-20)
(20.0273 0.406446 0)
(19.9949 0.409249 0)
(20.0755 0.154803 0)
(20.077 0.166799 0)
(20.0769 0.178599 0)
(20.0745 0.190249 -2.96587e-21)
(20.0698 0.201816 5.98473e-21)
(20.0629 0.213315 4.61752e-22)
(20.0544 0.224627 -7.1527e-21)
(20.0445 0.235506 3.65586e-21)
(20.0335 0.245631 -5.39313e-21)
(20.0218 0.254689 -1.29498e-21)
(20.0097 0.262408 1.28847e-20)
(19.9974 0.268603 -1.0539e-20)
(19.9851 0.273155 3.66726e-21)
(19.9731 0.275992 0)
(19.9619 0.27704 9.17721e-36)
(20.0618 0.151642 0)
(20.0614 0.161888 0)
(20.0605 0.17204 8.55026e-21)
(20.0587 0.181662 -8.30206e-21)
(20.0557 0.190473 -1.06031e-20)
(20.0514 0.198247 -1.3557e-21)
(20.0459 0.204867 -1.28434e-21)
(20.0393 0.210305 1.12805e-20)
(20.0317 0.214584 0)
(20.0236 0.217763 0)
(20.015 0.219911 0)
(20.0063 0.221107 0)
(19.9976 0.221431 0)
(19.9891 0.220972 0)
(19.9809 0.21981 0)
(20.0503 0.144667 0)
(20.0481 0.151901 -4.61642e-21)
(20.0455 0.159007 4.53394e-21)
(20.0424 0.165578 0)
(20.0388 0.171572 -1.12233e-20)
(20.0346 0.176904 1.07003e-20)
(20.0299 0.181516 -1.18245e-20)
(20.0247 0.185375 2.31902e-20)
(20.0193 0.188472 -5.33498e-21)
(20.0136 0.190819 -5.73105e-21)
(20.0079 0.192439 0)
(20.0021 0.193367 0)
(19.9964 0.193648 0)
(19.9908 0.193334 -1.49087e-21)
(19.9855 0.192477 1.4574e-21)
(20.0423 0.137703 0)
(20.0397 0.142816 0)
(20.0371 0.147963 5.74323e-21)
(20.0342 0.152594 4.7753e-22)
(20.0312 0.156733 -5.84023e-21)
(20.0278 0.160342 -6.45101e-21)
(20.0242 0.163402 6.18954e-21)
(20.0204 0.165908 0)
(20.0164 0.167862 0)
(20.0123 0.169276 0)
(20.0081 0.170165 0)
(20.0039 0.17055 0)
(19.9998 0.170457 -3.30981e-21)
(19.9958 0.169917 3.23392e-21)
(19.992 0.168964 -5.86051e-36)
(20.0365 0.130827 0)
(20.0338 0.134278 -2.85464e-21)
(20.0311 0.137839 2.80344e-21)
(20.0284 0.14098 0)
(20.0256 0.143755 0)
(20.0227 0.146153 6.57206e-21)
(20.0198 0.14817 -1.30304e-20)
(20.0167 0.1498 -2.62048e-22)
(20.0137 0.151043 -2.31882e-22)
(20.0106 0.151898 -2.03926e-22)
(20.0075 0.152372 6.66755e-21)
(20.0044 0.152471 0)
(20.0014 0.152209 0)
(19.9985 0.151603 -1.72865e-21)
(19.9958 0.150675 1.71772e-21)
(20.0324 0.124683 0)
(20.03 0.126925 0)
(20.0275 0.129337 0)
(20.0251 0.13144 0)
(20.0227 0.133267 0)
(20.0203 0.134815 0)
(20.0178 0.136083 0)
(20.0154 0.137066 0)
(20.0129 0.137765 0)
(20.0105 0.138178 0)
(20.0081 0.138308 0)
(20.0058 0.138158 0)
(20.0035 0.137736 0)
(20.0013 0.137055 0)
(19.9992 0.136129 0)
(20.0298 0.118856 -1.43558e-21)
(20.0275 0.120519 1.43479e-21)
(20.0253 0.122143 0)
(20.0231 0.123546 0)
(20.021 0.124733 0)
(20.0189 0.125704 0)
(20.0169 0.126462 -6.90984e-21)
(20.0148 0.127005 6.82101e-21)
(20.0128 0.127331 0)
(20.0108 0.127442 0)
(20.0089 0.127337 -3.68258e-21)
(20.007 0.12702 3.66828e-21)
(20.0052 0.126498 0)
(20.0035 0.125778 0)
(20.0018 0.124872 3.47364e-36)
(20.028 0.113635 1.44808e-21)
(20.026 0.115041 -1.46692e-21)
(20.0239 0.116148 0)
(20.022 0.117085 0)
(20.0202 0.117841 0)
(20.0184 0.118424 -3.42208e-21)
(20.0166 0.118839 6.88366e-21)
(20.0149 0.119086 -7.03194e-21)
(20.0132 0.119164 -8.75465e-23)
(20.0115 0.119072 3.62515e-21)
(20.0099 0.118812 3.77971e-21)
(20.0083 0.118386 -3.78228e-21)
(20.0068 0.117801 1.96294e-21)
(20.0054 0.117065 -9.68282e-22)
(20.004 0.116184 -1.0038e-21)
(20.0267 0.109381 0)
(20.0249 0.110464 0)
(20.0232 0.111183 0)
(20.0215 0.111787 3.28334e-21)
(20.0198 0.112245 -3.25634e-21)
(20.0182 0.112564 0)
(20.0167 0.112749 0)
(20.0152 0.112801 3.59901e-21)
(20.0137 0.112716 -3.59781e-21)
(20.0123 0.112495 -3.76555e-21)
(20.0109 0.112138 5.70151e-21)
(20.0095 0.111648 -1.9328e-21)
(20.0082 0.111031 0)
(20.0069 0.110294 1.02657e-21)
(20.0057 0.109442 -1.0327e-21)
(20.0259 0.105648 -7.54363e-22)
(20.0243 0.10655 2.31344e-21)
(20.0227 0.107019 -1.55185e-21)
(20.0212 0.107399 3.28783e-21)
(20.0198 0.107655 -3.27108e-21)
(20.0184 0.107793 3.44795e-21)
(20.017 0.107824 -3.44401e-21)
(20.0156 0.107748 0)
(20.0143 0.107559 0)
(20.013 0.107257 -1.89986e-21)
(20.0118 0.106842 1.90928e-21)
(20.0106 0.106318 0)
(20.0094 0.105688 0)
(20.0083 0.104958 0)
(20.0072 0.104134 0)
(20.0253 0.1026 0)
(20.0239 0.103231 0)
(20.0225 0.103519 -1.60363e-21)
(20.0212 0.103733 3.23749e-21)
(20.0199 0.103849 -1.63661e-21)
(20.0186 0.103862 0)
(20.0174 0.103785 0)
(20.0161 0.103625 0)
(20.0149 0.103369 1.85509e-21)
(20.0138 0.103016 -1.86483e-21)
(20.0126 0.10257 -1.95079e-21)
(20.0115 0.102033 1.96353e-21)
(20.0105 0.101404 0)
(20.0094 0.100684 0)
(20.0084 0.0998805 0)
(20.0249 0.100054 0)
(20.0237 0.100384 0)
(20.0225 0.100541 1.60125e-21)
(20.0213 0.100627 -1.59453e-21)
(20.0201 0.100652 -1.67461e-21)
(20.0189 0.10059 3.38787e-21)
(20.0178 0.100438 -1.71652e-21)
(20.0166 0.100218 1.79914e-21)
(20.0155 0.0999119 -1.80757e-21)
(20.0144 0.0995231 0)
(20.0134 0.0990665 1.9408e-21)
(20.0124 0.0985361 -1.95355e-21)
(20.0114 0.0979201 1.01834e-21)
(20.0104 0.0972135 -1.02501e-21)
(20.0094 0.0964107 0)
(20.0247 0.0976855 0)
(20.0235 0.0979056 0)
(20.0225 0.0980062 0)
(20.0214 0.0979648 -1.67356e-21)
(20.0203 0.0979311 3.35793e-21)
(20.0193 0.0978591 -1.61205e-21)
(20.0181 0.0976515 0)
(20.017 0.0973765 0)
(20.016 0.0970351 0)
(20.015 0.0966082 0)
(20.014 0.0961446 0)
(20.013 0.0956477 9.76742e-22)
(20.0121 0.0950516 -9.78954e-22)
(20.0112 0.0943791 -2.50545e-22)
(20.0103 0.0935605 2.57182e-22)
(19.9479 0.376296 0)
(19.9021 0.36082 0)
(19.8628 0.341764 3.30229e-20)
(19.8306 0.324937 -3.6123e-20)
(19.8062 0.306828 4.00792e-20)
(19.79 0.286783 -4.36046e-20)
(19.7823 0.264759 0)
(19.7826 0.240975 0)
(19.7903 0.215819 -1.02359e-19)
(19.8038 0.189942 2.09892e-19)
(19.8214 0.164274 -1.06077e-19)
(19.8414 0.139896 -4.98208e-20)
(19.8622 0.11782 9.65181e-20)
(19.8825 0.0987473 -2.42535e-20)
(19.9016 0.0817825 -2.07768e-20)
(19.9512 0.276377 -9.20949e-36)
(19.9409 0.273578 0)
(19.9311 0.268165 8.51269e-21)
(19.9217 0.260237 -2.94105e-20)
(19.9131 0.249841 4.54493e-20)
(19.9054 0.237143 1.34688e-21)
(19.8992 0.222445 -2.93011e-20)
(19.8946 0.206198 3.35324e-20)
(19.892 0.188967 -7.22786e-20)
(19.8914 0.17137 2.93434e-22)
(19.8932 0.153983 7.97354e-20)
(19.8974 0.137235 -4.09196e-20)
(19.9039 0.121365 0)
(19.9125 0.106481 0)
(19.9224 0.0918472 0)
(19.973 0.218011 0)
(19.9651 0.215482 0)
(19.9572 0.212082 0)
(19.9495 0.207765 0)
(19.9422 0.202464 0)
(19.9356 0.196127 0)
(19.9299 0.18872 0)
(19.9254 0.180227 2.34962e-20)
(19.9225 0.170657 5.16904e-22)
(19.9212 0.160053 4.53675e-22)
(19.9218 0.148514 -2.91472e-20)
(19.9241 0.136219 -3.09381e-20)
(19.9281 0.123462 3.18451e-20)
(19.9333 0.110624 0)
(19.9392 0.0976374 0)
(19.9804 0.191095 1.53975e-21)
(19.9755 0.189127 -1.5801e-21)
(19.9706 0.186488 0)
(19.9659 0.183131 0)
(19.9615 0.179006 0)
(19.9575 0.174077 -8.69945e-21)
(19.954 0.16832 -9.69853e-21)
(19.9512 0.161729 4.03149e-20)
(19.9491 0.154324 -2.15517e-20)
(19.9479 0.146152 2.37521e-20)
(19.9474 0.1373 -2.49149e-20)
(19.9479 0.127895 0)
(19.9492 0.118099 1.38814e-20)
(19.9512 0.108072 -1.4124e-20)
(19.9539 0.0977449 0)
(19.9883 0.167608 5.87482e-36)
(19.9847 0.165814 3.45995e-21)
(19.9812 0.163539 -3.54416e-21)
(19.9779 0.160761 0)
(19.9747 0.157458 0)
(19.9718 0.153617 0)
(19.9693 0.149228 0)
(19.9671 0.144289 0)
(19.9653 0.138805 1.00461e-20)
(19.9641 0.13279 -1.04727e-20)
(19.9633 0.126272 -1.13425e-20)
(19.9631 0.119296 -2.00294e-22)
(19.9634 0.111929 1.23088e-20)
(19.9641 0.104219 0)
(19.9652 0.0961882 0)
(19.9932 0.14943 1.76925e-21)
(19.9906 0.147844 -1.7852e-21)
(19.9882 0.145894 0)
(19.9858 0.143571 0)
(19.9836 0.140867 8.00256e-21)
(19.9815 0.137778 1.51637e-22)
(19.9797 0.134307 1.64417e-22)
(19.978 0.130455 1.76376e-22)
(19.9767 0.126228 -1.90222e-20)
(19.9755 0.121634 9.91352e-21)
(19.9747 0.116686 0)
(19.9741 0.111404 0)
(19.9738 0.105816 5.80302e-21)
(19.9737 0.0999334 -5.90615e-21)
(19.9738 0.0938588 0)
(19.9973 0.134962 0)
(19.9953 0.133541 0)
(19.9935 0.131852 0)
(19.9917 0.129892 0)
(19.99 0.12766 0)
(19.9884 0.125158 0)
(19.9869 0.122388 0)
(19.9856 0.119355 0)
(19.9844 0.116061 0)
(19.9834 0.11251 0)
(19.9826 0.108704 0)
(19.9818 0.104646 0)
(19.9813 0.100339 0)
(19.9809 0.0957667 0)
(19.9807 0.0910119 0)
(20.0003 0.123785 -3.48009e-36)
(19.9988 0.122506 0)
(19.9973 0.121029 0)
(19.9959 0.119354 4.15713e-21)
(19.9945 0.117482 -4.17546e-21)
(19.9932 0.115415 0)
(19.992 0.113158 0)
(19.9909 0.110712 9.08221e-21)
(19.9899 0.108081 -9.20194e-21)
(19.989 0.105264 0)
(19.9882 0.102263 0)
(19.9874 0.0990717 0)
(19.9868 0.0956875 0)
(19.9862 0.0921092 2.71907e-21)
(19.9857 0.0883718 -2.7492e-21)
(20.0027 0.115165 -1.03452e-21)
(20.0014 0.114 -1.0604e-21)
(20.0002 0.112687 2.08853e-21)
(19.999 0.111226 -4.28739e-21)
(19.9979 0.10962 4.28637e-21)
(19.9968 0.107871 4.41022e-21)
(19.9958 0.105984 6.15038e-23)
(19.9948 0.10396 -9.07444e-21)
(19.9939 0.101801 9.26605e-21)
(19.9931 0.0995085 -4.70828e-21)
(19.9923 0.0970791 0)
(19.9916 0.0945081 0)
(19.9909 0.0917883 0)
(19.9903 0.0889303 -2.63728e-21)
(19.9896 0.0858736 2.6512e-21)
(20.0046 0.108481 -1.06515e-21)
(20.0035 0.107406 1.06072e-21)
(20.0024 0.106217 0)
(20.0014 0.104915 -2.19303e-21)
(20.0004 0.103504 6.61576e-21)
(19.9994 0.101987 -4.41925e-21)
(19.9985 0.100367 -4.53243e-21)
(19.9977 0.098646 4.53464e-21)
(19.9969 0.096826 0)
(19.9961 0.094908 0)
(19.9954 0.0928898 -4.83866e-21)
(19.9947 0.0907665 4.87807e-21)
(19.9941 0.0885297 0)
(19.9934 0.086189 0)
(19.9928 0.0836324 0)
(20.0061 0.10322 0)
(20.0051 0.102217 0)
(20.0042 0.101122 0)
(20.0032 0.0999393 0)
(20.0023 0.0986745 2.24014e-21)
(20.0015 0.0973271 -2.22963e-21)
(20.0007 0.0959022 0)
(19.9999 0.0944017 0)
(19.9991 0.0928285 -4.65813e-21)
(19.9984 0.0911848 4.66341e-21)
(19.9978 0.0894685 -4.79024e-21)
(19.9971 0.0876753 4.81413e-21)
(19.9965 0.0857961 -2.47622e-21)
(19.9959 0.0838422 3.75372e-21)
(19.9953 0.0816809 -1.26668e-21)
(20.0074 0.0990038 0)
(20.0065 0.0980585 0)
(20.0056 0.0970374 0)
(20.0047 0.0959479 2.23017e-21)
(20.0039 0.094793 -2.21625e-21)
(20.0031 0.0935724 -2.26154e-21)
(20.0023 0.0922932 2.25001e-21)
(20.0016 0.0909567 0)
(20.0009 0.0895684 0)
(20.0003 0.0881321 0)
(19.9996 0.0866438 -2.37003e-21)
(19.999 0.0851025 4.77909e-21)
(19.9985 0.0835014 -2.41338e-21)
(19.9979 0.0818434 0)
(19.9974 0.0800141 0)
(20.0085 0.095562 0)
(20.0076 0.0946667 -1.09246e-21)
(20.0068 0.0937078 1.08576e-21)
(20.0059 0.092699 -2.21811e-21)
(20.0052 0.0916232 2.20401e-21)
(20.0044 0.0905 0)
(20.0037 0.0893322 -2.26097e-21)
(20.003 0.0881176 2.25059e-21)
(20.0023 0.0868749 -2.29476e-21)
(20.0017 0.0856011 4.60609e-21)
(20.0011 0.0842859 -2.31559e-21)
(20.0006 0.0829437 -2.3678e-21)
(20.0001 0.0815686 2.37743e-21)
(19.9996 0.0801493 0)
(19.999 0.0786419 0)
(20.0094 0.0927376 2.73523e-22)
(20.0085 0.091885 -2.71007e-22)
(20.0077 0.0909585 -1.09364e-21)
(20.0069 0.0900442 1.05025e-21)
(20.0062 0.089024 0)
(20.0055 0.0879862 0)
(20.0048 0.0868934 0)
(20.0041 0.0857493 0)
(20.0035 0.0846327 0)
(20.0029 0.0834903 -2.29359e-21)
(20.0023 0.0822903 4.67022e-21)
(20.0018 0.0811141 -2.34393e-21)
(20.0013 0.0799242 0)
(20.0009 0.0786488 0)
(20.0004 0.0773968 0)
(20.0561 0.00758744 -9.12127e-21)
(20.0122 0.00414523 1.02192e-20)
(19.9378 0.000513529 0)
(19.8166 -0.00358901 0)
(19.6311 -0.00834688 0)
(19.3707 -0.0138096 0)
(19.0342 -0.0199401 4.52824e-21)
(18.6243 -0.026854 -5.02967e-21)
(18.1438 -0.0345414 0)
(17.5908 -0.0429287 0)
(16.954 -0.0522932 -1.0353e-20)
(16.2019 -0.0627773 1.22487e-20)
(15.2644 -0.076204 2.77956e-22)
(14.0263 -0.0658432 -2.3994e-21)
(12.6641 -0.0792332 2.77425e-21)
(20.0531 0.00500207 0)
(20.0146 0.00202617 -2.21715e-20)
(19.9524 -0.00144519 2.44524e-20)
(19.8547 -0.00598194 0)
(19.7077 -0.0119556 0)
(19.5009 -0.0192053 0)
(19.2289 -0.0273012 0)
(18.8897 -0.035848 6.49845e-20)
(18.4809 -0.0444954 -7.20197e-20)
(17.9966 -0.0530308 8.95044e-20)
(17.4214 -0.0617641 3.15855e-21)
(16.7206 -0.0708505 -1.22017e-19)
(15.8308 -0.0823602 7.6049e-20)
(14.7022 -0.0777676 -4.71561e-20)
(13.6284 -0.049364 -6.19318e-20)
(20.0506 0.000535453 0)
(20.0167 -0.00392879 0)
(19.9638 -0.00912481 3.02468e-20)
(19.8825 -0.0151893 -3.29683e-20)
(19.762 -0.0220137 -4.33968e-20)
(19.5922 -0.0291605 -3.44337e-21)
(19.3656 -0.0362369 -2.9226e-21)
(19.0767 -0.0430686 6.3529e-20)
(18.7196 -0.0496605 0)
(18.2848 -0.0561619 0)
(17.7537 -0.0631279 0)
(17.0892 -0.0706894 0)
(16.2339 -0.0788763 0)
(15.1697 -0.074821 0)
(14.2105 -0.0362787 0)
(20.0464 -0.00303986 0)
(20.0148 -0.00783161 -1.12929e-20)
(19.9671 -0.0130228 1.22435e-20)
(19.8961 -0.0186438 0)
(19.7933 -0.0246246 -3.18621e-20)
(19.6496 -0.0307336 3.44521e-20)
(19.4564 -0.0367816 -3.82901e-20)
(19.2059 -0.0427005 8.35615e-20)
(18.8891 -0.048548 -2.28158e-20)
(18.4935 -0.054502 -2.54547e-20)
(17.9971 -0.0610836 0)
(17.3615 -0.0684559 0)
(16.5322 -0.0751552 0)
(15.5054 -0.070446 -1.19228e-20)
(14.5961 -0.0310538 1.44809e-20)
(20.0415 -0.00495733 0)
(20.0119 -0.00939885 0)
(19.9688 -0.0140861 1.08169e-20)
(19.9065 -0.0190982 1.71303e-22)
(19.8181 -0.024431 1.60547e-22)
(19.6952 -0.0299493 -2.77103e-20)
(19.5289 -0.0355056 1.50237e-20)
(19.3095 -0.0410161 -1.65691e-20)
(19.0257 -0.0465169 -1.31305e-22)
(18.6625 -0.0521919 1.99501e-20)
(18.1955 -0.0585184 0)
(17.5845 -0.0657267 0)
(16.7763 -0.0717324 -1.50261e-20)
(15.7732 -0.0664738 1.77917e-20)
(14.8884 -0.0283007 0)
(20.0373 -0.00642904 0)
(20.0099 -0.010427 0)
(19.9711 -0.0147732 1.00582e-20)
(19.9163 -0.0194151 -2.17177e-20)
(19.8396 -0.0243109 2.37291e-20)
(19.7331 -0.0293736 2.53155e-22)
(19.5879 -0.0345006 -2.83194e-20)
(19.3934 -0.0396322 1.53826e-20)
(19.1366 -0.0448152 -1.70607e-20)
(18.8005 -0.0502439 3.74319e-20)
(18.3586 -0.0563505 -2.07395e-20)
(17.7691 -0.0633734 0)
(16.9787 -0.0690248 0)
(15.9918 -0.0634444 0)
(15.1199 -0.0265145 0)
(20.0336 -0.00737077 0)
(20.0082 -0.0111109 0)
(19.973 -0.0152583 0)
(19.9242 -0.0196174 0)
(19.8564 -0.0241641 0)
(19.7627 -0.0288689 0)
(19.6341 -0.0336817 0)
(19.4595 -0.0385681 0)
(19.2251 -0.0435684 0)
(18.9118 -0.0488656 0)
(18.4916 -0.0548451 0)
(17.9211 -0.0617087 0)
(17.1459 -0.0671223 0)
(16.1708 -0.0613109 0)
(15.3058 -0.0252345 0)
(20.0303 -0.00817499 0)
(20.0064 -0.0115006 4.05512e-21)
(19.9742 -0.0154195 -4.27107e-21)
(19.9301 -0.0195621 9.30443e-21)
(19.8695 -0.0238886 1.8167e-22)
(19.7858 -0.0284011 -2.14226e-20)
(19.6705 -0.0330708 -2.42994e-22)
(19.5122 -0.0378696 -2.79246e-22)
(19.2963 -0.0428256 2.08172e-20)
(19.0026 -0.048094 1.87373e-22)
(18.6015 -0.0540105 -8.49419e-21)
(18.0479 -0.0607336 9.8843e-21)
(17.2862 -0.0659383 -1.67555e-20)
(16.3201 -0.0599036 6.49527e-21)
(15.4587 -0.0243317 0)
(20.0269 -0.00809679 1.79314e-21)
(20.0046 -0.0114257 -1.88542e-21)
(19.9749 -0.0152858 0)
(19.9347 -0.0193282 0)
(19.8798 -0.0235787 0)
(19.8042 -0.028058 -4.87942e-21)
(19.6996 -0.0327468 1.04862e-20)
(19.5547 -0.0376138 -1.15058e-20)
(19.3544 -0.0426608 -2.33325e-22)
(19.0777 -0.0480099 6.96843e-21)
(18.6935 -0.0539374 0)
(18.1552 -0.0605135 0)
(17.4057 -0.0654267 5.37211e-21)
(16.4472 -0.0590435 -2.99447e-21)
(15.5876 -0.023611 -3.50319e-21)
(20.0238 -0.00827618 0)
(20.0029 -0.0113104 0)
(19.9752 -0.0149896 0)
(19.9383 -0.0189472 3.80873e-21)
(19.888 -0.02319 -3.98492e-21)
(19.8189 -0.0277423 0)
(19.7231 -0.0325851 0)
(19.5894 -0.0376673 5.30921e-21)
(19.4025 -0.0429593 -5.64843e-21)
(19.1405 -0.0485369 -6.77453e-21)
(18.7715 -0.0546386 1.11869e-20)
(18.2474 -0.0612747 -4.23183e-21)
(17.5093 -0.066038 0)
(16.5572 -0.0592215 3.04985e-21)
(15.6984 -0.0235563 -3.42496e-21)
(20.0209 -0.00761507 0)
(20.0012 -0.0108002 0)
(19.9753 -0.0144389 0)
(19.9409 -0.0183574 3.39344e-21)
(19.8943 -0.0226627 2.95414e-23)
(19.8304 -0.0274153 -7.55372e-21)
(19.7415 -0.0325949 4.01872e-21)
(19.617 -0.0381046 0)
(19.4412 -0.0438377 0)
(19.192 -0.0499023 -3.18173e-21)
(18.8361 -0.0564552 3.41003e-21)
(18.3247 -0.0631566 0)
(17.5979 -0.0674883 0)
(16.6529 -0.0598934 0)
(15.7952 -0.0232524 0)
(20.0184 -0.00728763 0)
(19.9996 -0.0101723 1.47052e-21)
(19.9753 -0.0136348 -2.97444e-21)
(19.943 -0.017419 1.51039e-21)
(19.8995 -0.0216854 0)
(19.8398 -0.0265648 0)
(19.757 -0.0321732 3.39511e-21)
(19.6405 -0.038322 -3.56642e-21)
(19.475 -0.0445946 0)
(19.2373 -0.0510041 -2.71178e-21)
(18.8946 -0.0584105 -4.23125e-22)
(18.396 -0.0668516 1.44636e-21)
(17.6793 -0.0720884 2.3172e-21)
(16.7389 -0.0636195 -1.65463e-21)
(15.8807 -0.0261144 1.83417e-21)
(20.0158 -0.00640249 0)
(19.9977 -0.00936871 0)
(19.9747 -0.0127094 0)
(19.9442 -0.0163242 0)
(19.9025 -0.0206553 0)
(19.8454 -0.0258577 1.27389e-21)
(19.7655 -0.032168 -1.32742e-21)
(19.6545 -0.0395218 0)
(19.4968 -0.0465677 0)
(19.2675 -0.053767 0)
(18.9296 -0.0622533 0)
(18.4391 -0.0715732 -2.25766e-21)
(17.7401 -0.0768444 2.45138e-21)
(16.8135 -0.0662143 0)
(15.957 -0.0254674 0)
(20.014 -0.00536901 0)
(19.9972 -0.00822826 0)
(19.976 -0.011469 0)
(19.9466 -0.0144496 -9.85483e-22)
(19.9081 -0.0181307 1.78879e-21)
(19.8562 -0.0224752 -7.96812e-22)
(19.7836 -0.0289907 0)
(19.6793 -0.0381867 0)
(19.5348 -0.0457846 0)
(19.3159 -0.0508737 0)
(19.0051 -0.0598126 0)
(18.5235 -0.079949 0)
(17.8258 -0.0898079 0)
(16.8883 -0.0758151 -9.74216e-22)
(16.0252 -0.0434161 1.07269e-21)
(12.7346 0.0863837 2.27332e-21)
(14.147 0.0699777 -7.85686e-22)
(15.4011 0.0796837 -6.77867e-22)
(16.3457 0.0660691 1.4952e-20)
(17.1021 0.0556198 -1.2643e-20)
(17.7414 0.0463212 0)
(18.2948 0.0380521 0)
(18.7731 0.030561 4.73035e-22)
(19.1774 0.0239893 -4.25988e-22)
(19.5043 0.0183941 0)
(19.751 0.0137443 0)
(19.9197 0.0101902 0)
(20.0233 0.00767001 0)
(20.081 0.00605168 8.75337e-21)
(20.1091 0.00488357 -7.87665e-21)
(13.6846 0.0577274 -6.15375e-20)
(14.82 0.0834001 -4.65537e-20)
(15.9705 0.0871851 7.52944e-20)
(16.8681 0.0754668 -1.2032e-19)
(17.5722 0.0664734 3.43929e-21)
(18.1484 0.0578609 8.80398e-20)
(18.6315 0.0494725 -7.01261e-20)
(19.0364 0.0410353 6.32906e-20)
(19.3686 0.0328316 0)
(19.6303 0.025273 0)
(19.8238 0.0188385 0)
(19.9554 0.0140512 0)
(20.0375 0.0110554 2.19746e-20)
(20.0846 0.009484 -1.99288e-20)
(20.1087 0.00860055 0)
(14.2632 0.0453014 0)
(15.2869 0.0816472 0)
(16.3758 0.0847646 0)
(17.2393 0.0763494 0)
(17.9061 0.0689257 0)
(18.4369 0.0621535 0)
(18.869 0.0558705 0)
(19.2208 0.04955 6.16769e-20)
(19.5018 0.043098 -3.20837e-21)
(19.7178 0.0365678 -3.71924e-21)
(19.8748 0.0302113 -4.14543e-20)
(19.9813 0.0245025 -3.07176e-20)
(20.0484 0.0198885 2.81752e-20)
(20.0877 0.0164829 0)
(20.1085 0.0140708 0)
(14.6484 0.040763 1.43649e-20)
(15.6235 0.0783134 -1.17961e-20)
(16.6763 0.082045 0)
(17.5136 0.0751065 0)
(18.1506 0.067875 0)
(18.6453 0.0615099 -2.47574e-20)
(19.0371 0.0558017 -2.19905e-20)
(19.3475 0.0502568 8.07165e-20)
(19.5894 0.0447486 -3.68875e-20)
(19.7719 0.0392769 3.27578e-20)
(19.9036 0.0339762 -3.02903e-20)
(19.9936 0.029095 0)
(20.0517 0.0248774 1.12597e-20)
(20.087 0.0213948 -1.03868e-20)
(20.1066 0.0186095 0)
(14.9412 0.0386698 0)
(15.8927 0.0752182 1.75024e-20)
(16.9221 0.0795221 -1.47878e-20)
(17.7379 0.0732818 0)
(18.3494 0.0662078 0)
(18.8137 0.0601003 1.93454e-20)
(19.172 0.054678 -2.11253e-22)
(19.4486 0.0494952 -1.5996e-20)
(19.6591 0.0444222 1.43442e-20)
(19.815 0.0394805 -2.63687e-20)
(19.9264 0.0348088 2.45276e-22)
(20.0031 0.0305919 2.68244e-22)
(20.0536 0.0269654 1.00767e-20)
(20.0854 0.0239323 0)
(20.1039 0.0214657 0)
(15.1735 0.0375505 0)
(16.1127 0.07299 0)
(17.1259 0.077651 0)
(17.9233 0.0717698 0)
(18.5124 0.0648728 -2.01594e-20)
(18.9507 0.058982 3.63201e-20)
(19.2811 0.0538093 -1.65216e-20)
(19.5302 0.0489581 1.47507e-20)
(19.7156 0.0442898 -2.70805e-20)
(19.8506 0.0398136 3.20668e-22)
(19.9463 0.0356308 2.23903e-20)
(20.0122 0.0318618 -2.0309e-20)
(20.0562 0.0285853 9.35772e-21)
(20.0845 0.0258236 0)
(20.1017 0.0236621 0)
(15.3602 0.0369912 0)
(16.2932 0.0716471 0)
(17.2944 0.0765548 0)
(18.0758 0.0709031 0)
(18.6451 0.0641531 0)
(19.0609 0.0583851 0)
(19.3677 0.0533486 0)
(19.5942 0.0486985 0)
(19.7596 0.0443072 0)
(19.8783 0.0401814 0)
(19.962 0.0363844 0)
(20.0196 0.0329735 0)
(20.0585 0.0299638 0)
(20.084 0.0273518 0)
(20.0999 0.0252988 0)
(15.5139 0.0367367 0)
(16.4437 0.0709623 6.36996e-21)
(17.4355 0.0761255 -1.63654e-20)
(18.2029 0.0706944 9.63935e-21)
(18.7545 0.0640827 -8.1827e-21)
(19.1505 0.0583775 2.32547e-22)
(19.4372 0.053383 1.98255e-20)
(19.6449 0.0488036 -3.62205e-22)
(19.7941 0.0445341 -3.23379e-22)
(19.8999 0.0405852 -1.992e-20)
(19.9741 0.0370007 2.67821e-22)
(20.0252 0.033805 8.51767e-21)
(20.0601 0.0309821 -3.79617e-21)
(20.0833 0.0285129 3.60323e-21)
(20.0982 0.0265724 0)
(15.6438 0.0367986 -3.46769e-21)
(16.5722 0.070853 -2.90999e-21)
(17.5559 0.0763346 5.2615e-21)
(18.3104 0.0711679 0)
(18.846 0.0647032 0)
(19.2245 0.0590134 6.6116e-21)
(19.4939 0.0539731 -2.85259e-22)
(19.6858 0.0493442 -1.07414e-20)
(19.8217 0.0450553 9.66847e-21)
(19.9172 0.041131 -4.46927e-21)
(19.9837 0.0376034 0)
(20.0297 0.0344831 0)
(20.0612 0.0317472 0)
(20.0824 0.0293774 -1.56256e-21)
(20.0965 0.0275562 1.50307e-21)
(15.7548 0.0368968 -3.40643e-21)
(16.6827 0.0714693 3.02323e-21)
(17.6594 0.0775651 0)
(18.4021 0.0726716 -4.10405e-21)
(18.9232 0.0662028 1.07692e-20)
(19.2861 0.060354 -6.49656e-21)
(19.5404 0.0550994 -5.24782e-21)
(19.719 0.050274 4.9337e-21)
(19.8439 0.0458374 0)
(19.9309 0.0417975 0)
(19.9913 0.0381945 -3.37976e-21)
(20.0331 0.0350409 3.23097e-21)
(20.0619 0.0323135 0)
(20.0817 0.0299981 0)
(20.095 0.0283108 0)
(15.8539 0.0379568 0)
(16.7813 0.073128 0)
(17.7504 0.0797232 0)
(18.481 0.074952 0)
(18.9883 0.0684528 3.21168e-21)
(19.3372 0.0623458 -2.99788e-21)
(19.5785 0.0567203 0)
(19.7459 0.0515308 0)
(19.8617 0.0467451 3.39952e-21)
(19.9418 0.0424454 -6.2683e-21)
(19.9973 0.038654 1.34775e-22)
(20.0357 0.035388 2.65404e-21)
(20.0624 0.0326252 0)
(20.0809 0.0303197 0)
(20.0936 0.0286448 0)
(15.9373 0.0373835 1.9069e-21)
(16.8634 0.0766373 -1.71456e-21)
(17.8255 0.0848732 2.35378e-21)
(18.5474 0.0795153 1.48867e-21)
(19.0436 0.0719489 -5.30477e-22)
(19.3796 0.064921 -2.68076e-21)
(19.6098 0.05845 0)
(19.7672 0.0527363 -3.09494e-21)
(19.8753 0.0477311 2.94689e-21)
(19.95 0.0430402 0)
(20.0015 0.0389303 0)
(20.0375 0.0354978 9.88458e-22)
(20.0625 0.0326743 -1.91594e-21)
(20.08 0.0304335 9.32244e-22)
(20.0922 0.0288612 0)
(16.033 0.0429597 0)
(16.9566 0.0851186 0)
(17.9006 0.0906205 2.00642e-21)
(18.6079 0.0819004 -1.84853e-21)
(19.0892 0.0751246 0)
(19.4141 0.0678677 0)
(19.6341 0.0604078 0)
(19.7859 0.0545834 0)
(19.8875 0.0485389 -7.95265e-22)
(19.9568 0.0431738 7.63362e-22)
(20.0054 0.0387447 0)
(20.0389 0.0351618 0)
(20.0627 0.0323922 0)
(20.0795 0.0302286 0)
(20.0913 0.0288325 0)
(16.0728 0.0280903 1.52305e-21)
(16.985 0.0968445 -1.37541e-21)
(17.9182 0.105163 0)
(18.6475 0.089496 0)
(19.1339 0.0809757 0)
(19.4407 0.0703156 0)
(19.66 0.0606439 0)
(19.7976 0.0543775 0)
(19.8895 0.0500623 0)
(19.9601 0.0433885 -3.33305e-22)
(20.0051 0.0384729 6.6807e-22)
(20.0394 0.0346308 -3.36378e-22)
(20.0616 0.0318482 0)
(20.0784 0.0298593 0)
(20.0896 0.028998 0)
(19.4212 0.144108 0)
(19.9681 0.0903234 0)
(20.0723 0.105218 0)
(20.1282 0.115964 0)
(20.1617 0.126989 0)
(20.1819 0.137274 0)
(20.1926 0.147171 0)
(20.1958 0.156245 0)
(20.1927 0.163838 0)
(20.1845 0.169082 0)
(20.1723 0.171189 0)
(20.1578 0.169681 0)
(20.1425 0.164638 0)
(20.1276 0.156709 0)
(20.1143 0.146558 0)
(17.5731 -0.282798 0)
(19.8914 0.20352 0)
(19.9467 0.111222 0)
(19.9948 0.102252 0)
(20.0391 0.10645 0)
(20.0763 0.11244 0)
(20.1063 0.118246 0)
(20.1294 0.123956 0)
(20.1457 0.129384 0)
(20.1551 0.13416 0)
(20.158 0.137865 0)
(20.1549 0.140039 0)
(20.1471 0.140247 0)
(20.136 0.138271 0)
(20.1236 0.133212 0)
(15.6367 -0.147067 -1.49194e-37)
(19.8761 0.232481 0)
(19.97 0.11697 0)
(19.9872 0.115928 0)
(20.0203 0.118299 0)
(20.0532 0.119084 0)
(20.0822 0.119779 0)
(20.1061 0.121028 0)
(20.1247 0.122614 0)
(20.1378 0.124236 0)
(20.1453 0.125611 0)
(20.1472 0.126467 0)
(20.1442 0.126516 0)
(20.137 0.12561 0)
(20.1271 0.122596 0)
(13.6469 -0.0650098 0)
(19.9009 0.168936 0)
(20.0489 0.0760382 0)
(20.0317 0.091443 0)
(20.0444 0.093981 0)
(20.0665 0.0946525 0)
(20.089 0.0959013 0)
(20.1089 0.098121 0)
(20.1248 0.10095 0)
(20.1362 0.104122 0)
(20.1431 0.107344 0)
(20.1453 0.110246 0)
(20.1432 0.112418 0)
(20.1375 0.113648 0)
(20.1288 0.112924 0)
(13.5512 0.0234034 0)
(19.2848 0.0316648 0)
(19.9313 0.0284606 0)
(20.0129 0.0572225 0)
(20.035 0.0617202 0)
(20.0548 0.0647744 0)
(20.0754 0.0685109 0)
(20.095 0.073079 0)
(20.1118 0.078159 0)
(20.125 0.0835623 0)
(20.134 0.0890295 0)
(20.1386 0.0942146 0)
(20.139 0.0986941 0)
(20.1354 0.102174 0)
(20.1287 0.103745 0)
(14.4252 0.0573268 0)
(18.4069 -0.0458187 0)
(19.6128 0.0241126 0)
(19.9126 0.0490891 0)
(19.9913 0.0544603 0)
(20.0245 0.0583425 0)
(20.0488 0.0620524 0)
(20.0705 0.0660336 0)
(20.0898 0.070428 0)
(20.1061 0.0752361 0)
(20.1186 0.0802883 0)
(20.1269 0.085322 0)
(20.1308 0.0899888 0)
(20.1305 0.0939963 0)
(20.1264 0.0966029 0)
(14.957 0.0259439 5.23994e-36)
(17.8381 -0.0333455 0)
(19.2694 0.035002 0)
(19.7747 0.0518532 0)
(19.9371 0.0600251 0)
(19.9977 0.064689 0)
(20.0298 0.0676101 0)
(20.0538 0.0700206 0)
(20.0743 0.0726033 0)
(20.092 0.0755755 0)
(20.1062 0.0789132 0)
(20.1167 0.0824749 0)
(20.123 0.086022 0)
(20.1251 0.0893024 0)
(20.1234 0.0918292 0)
(15.0961 0.00439308 0)
(17.5247 -0.00359791 0)
(18.9825 0.0371832 0)
(19.6272 0.0520126 0)
(19.8764 0.0633535 0)
(19.9736 0.0690408 0)
(20.0186 0.071931 0)
(20.046 0.0736931 0)
(20.0671 0.0752706 0)
(20.0848 0.0770456 0)
(20.0993 0.0791336 0)
(20.1104 0.0814983 0)
(20.1177 0.0839944 0)
(20.1211 0.0864042 0)
(20.1209 0.0884449 0)
(14.9984 0.00123008 -1.06029e-35)
(17.3283 0.0134018 0)
(18.7544 0.0351254 0)
(19.4822 0.0506461 0)
(19.807 0.0631629 0)
(19.9442 0.0696566 0)
(20.0064 0.0730797 0)
(20.0401 0.0749412 0)
(20.0628 0.0762387 0)
(20.0806 0.0774905 0)
(20.0951 0.0789321 0)
(20.1063 0.08061 0)
(20.1141 0.0824542 0)
(20.1183 0.0842931 0)
(20.1191 0.0860273 0)
(14.8217 0.00327551 -1.0732e-35)
(17.1549 0.0186371 0)
(18.5644 0.0332961 0)
(19.3461 0.0488822 0)
(19.7323 0.0612059 0)
(19.9083 0.0683755 0)
(19.9904 0.072517 0)
(20.0326 0.0747916 0)
(20.0584 0.0761704 0)
(20.0771 0.0772609 0)
(20.0918 0.0783903 0)
(20.1032 0.0796755 0)
(20.1113 0.081106 0)
(20.1161 0.0825531 0)
(20.1175 0.0839684 0)
(14.6383 0.00458858 0)
(16.9805 0.0185979 0)
(18.396 0.031742 0)
(19.2187 0.0465644 0)
(19.6557 0.0584311 0)
(19.8682 0.0662093 0)
(19.971 0.0709963 0)
(20.0234 0.0737587 0)
(20.0535 0.0753945 0)
(20.0737 0.0765355 0)
(20.0889 0.0775633 0)
(20.1005 0.0786478 0)
(20.1089 0.0798243 0)
(20.1141 0.081 0)
(20.1161 0.08213 0)
(14.4693 0.00473807 1.06225e-35)
(16.8087 0.017044 0)
(18.24 0.0299259 0)
(19.0968 0.0438438 0)
(19.5782 0.0554771 0)
(19.8251 0.0637501 0)
(19.9488 0.0690213 0)
(20.0124 0.0722314 0)
(20.0479 0.0741704 0)
(20.0703 0.0754532 0)
(20.0862 0.0764905 0)
(20.0982 0.0774948 0)
(20.107 0.0785371 0)
(20.1125 0.0795564 0)
(20.115 0.0805184 0)
(14.317 0.00438771 0)
(16.645 0.015405 0)
(18.092 0.0279236 0)
(18.978 0.0411057 0)
(19.4997 0.0526706 0)
(19.7798 0.0612731 0)
(19.9244 0.0669 0)
(19.9998 0.0704983 0)
(20.0413 0.072737 0)
(20.0665 0.0741959 0)
(20.0836 0.075297 0)
(20.0961 0.0762864 0)
(20.1052 0.0772681 0)
(20.1111 0.0782146 0)
(20.1141 0.0791305 0)
(14.1785 0.00394608 1.98803e-35)
(16.4916 0.0140854 0)
(17.9505 0.0260392 0)
(18.862 0.038649 0)
(19.4206 0.0501644 0)
(19.7327 0.0589599 0)
(19.898 0.0648689 0)
(19.9857 0.0687933 0)
(20.0338 0.0712977 0)
(20.0622 0.0729273 0)
(20.0808 0.074103 0)
(20.094 0.075097 0)
(20.1035 0.076038 0)
(20.1098 0.0769242 0)
(20.1132 0.0777577 0)
(14.0501 0.00358145 -1.91628e-35)
(16.3482 0.0130916 0)
(17.8153 0.0243819 0)
(18.7491 0.0364552 0)
(19.3414 0.0478666 0)
(19.6842 0.056769 0)
(19.8702 0.0629478 0)
(19.9704 0.0671502 0)
(20.0255 0.0698903 0)
(20.0576 0.0716837 0)
(20.0779 0.0729409 0)
(20.0919 0.0739495 0)
(20.1019 0.0748586 0)
(20.1086 0.0756843 0)
(20.1123 0.0764319 0)
(13.9299 0.0033248 0)
(16.2139 0.0122731 0)
(17.6867 0.0228951 0)
(18.64 0.0344238 0)
(19.2622 0.0456861 0)
(19.6343 0.0546956 0)
(19.841 0.0611746 0)
(19.954 0.0656146 0)
(20.0166 0.0685607 0)
(20.0525 0.0705041 0)
(20.0748 0.0718421 0)
(20.0898 0.0728723 0)
(20.1003 0.0737616 0)
(20.1074 0.074549 0)
(20.1116 0.0752696 0)
(13.8174 0.00314294 0)
(16.088 0.0115013 0)
(17.5651 0.0214912 0)
(18.5351 0.032487 0)
(19.1829 0.0435606 0)
(19.5829 0.0527137 0)
(19.8106 0.0594969 0)
(19.9367 0.0641507 0)
(20.0069 0.0672892 0)
(20.0472 0.0693785 0)
(20.0716 0.0708027 0)
(20.0877 0.0718652 0)
(20.0988 0.0727477 0)
(20.1063 0.0735108 0)
(20.1109 0.0742217 0)
(13.7126 0.00298754 1.7781e-35)
(15.9702 0.0107561 0)
(17.45 0.0201702 0)
(18.4338 0.0306812 0)
(19.1037 0.0415432 0)
(19.5302 0.0508385 0)
(19.779 0.0578871 0)
(19.9185 0.0627408 0)
(19.9967 0.0660649 0)
(20.0414 0.0682962 0)
(20.0683 0.0698095 0)
(20.0856 0.0709102 0)
(20.0973 0.0717911 0)
(20.1053 0.0725262 0)
(20.1101 0.0732004 0)
(13.615 0.00283243 -1.74763e-35)
(15.8599 0.0100809 0)
(17.3409 0.0189786 0)
(18.3358 0.0290613 0)
(19.0251 0.0396948 0)
(19.4764 0.0490858 0)
(19.7462 0.0563427 0)
(19.8994 0.0613878 0)