/*--------------------------------*- C++ -*----------------------------------*\
| =========                 |                                                 |
| \\      /  F ield         | OpenFOAM: The Open Source CFD Toolbox           |
|  \\    /   O peration     | Version:  2.3.0                                 |
|   \\  /    A nd           | Web:      www.OpenFOAM.org                      |
|    \\/     M anipulation  |                                                 |
\*---------------------------------------------------------------------------*/
FoamFile
{
    version     2.0;
    format      ascii;
    class       volScalarField;
    location    "5000";
    object      nut;
}
// * * * * * * * * * * * * * * * * * * * * * * * * * * * * * * * * * * * * * //

dimensions      [0 2 -1 0 0 0 0];

internalField   nonuniform List<scalar> 
37387
(
0.0672539
0.0655197
0.0637879
0.0620561
0.060324
0.058592
0.0568607
0.0551306
0.0534029
0.0516784
0.0499583
0.0482438
0.0465364
0.0448372
0.0431481
0.0414704
0.0398056
0.0381555
0.0365219
0.0349069
0.0333129
0.0317422
0.0301985
0.0286854
0.0272093
0.0257781
0.0244
0.0230821
0.0218323
0.0206612
0.0195714
0.0185244
0.0174783
0.0164248
0.0153669
0.014307
0.0132428
0.0121673
0.0110701
0.00993674
0.00875466
0.00754811
0.00657267
0.068577
0.0670553
0.0655326
0.0640101
0.0624882
0.0609669
0.0594468
0.0579277
0.0564105
0.0548954
0.0533832
0.0518748
0.0503706
0.0488718
0.0473793
0.0458939
0.0444167
0.0429493
0.0414927
0.0400483
0.0386172
0.0372011
0.0358018
0.0344201
0.0330586
0.0317192
0.030405
0.0291189
0.0278638
0.0266446
0.0254656
0.02433
0.023241
0.0222051
0.0212302
0.020328
0.0195104
0.0187932
0.0181925
0.0177246
0.0174061
0.0172532
0.0172818
0.0698011
0.0684552
0.0671081
0.0657608
0.064414
0.0630674
0.0617216
0.0603759
0.0590311
0.0576868
0.0563437
0.0550026
0.0536633
0.0523265
0.0509929
0.0496631
0.0483381
0.0470187
0.045706
0.0444016
0.0431066
0.0418225
0.0405513
0.0392945
0.0380544
0.0368331
0.0356326
0.0344567
0.0333093
0.0321934
0.0311139
0.0300761
0.0290869
0.028154
0.0272859
0.0264926
0.0257846
0.0251744
0.0246745
0.0242969
0.0240508
0.0239428
0.0239774
0.0709272
0.0697303
0.0685316
0.0673327
0.0661337
0.0649344
0.0637344
0.0625334
0.0613316
0.0601287
0.0589253
0.0577217
0.0565177
0.0553144
0.0541114
0.0529094
0.0517091
0.0505111
0.0493163
0.0481257
0.046941
0.0457638
0.044596
0.0434394
0.0422957
0.0411685
0.0400599
0.0389726
0.0379114
0.0368799
0.0358824
0.0349252
0.0340144
0.033157
0.0323619
0.0316379
0.0309944
0.0304423
0.0299913
0.0296508
0.0294285
0.029329
0.0293549
0.0719593
0.070889
0.069817
0.0687443
0.067671
0.0665961
0.065519
0.0644394
0.0633574
0.0622725
0.0611849
0.060095
0.0590031
0.0579095
0.0568146
0.0557181
0.0546207
0.053523
0.0524257
0.0513294
0.0502352
0.0491452
0.0480611
0.046985
0.0459193
0.0448668
0.0438303
0.0428131
0.0418192
0.0408525
0.0399181
0.0390216
0.0381692
0.0373675
0.0366239
0.0359472
0.0353468
0.0348313
0.0344098
0.0340905
0.0338799
0.0337824
0.0337997
0.0729011
0.0719399
0.0709763
0.0700114
0.0690451
0.0680759
0.067103
0.0661261
0.0651451
0.0641593
0.0631683
0.062173
0.0611738
0.0601712
0.0591653
0.0581559
0.0571437
0.0561291
0.0551129
0.0540954
0.053077
0.0520592
0.0510442
0.050034
0.0490312
0.0480393
0.0470609
0.0460994
0.0451583
0.0442423
0.0433565
0.0425065
0.0416982
0.0409383
0.0402334
0.0395909
0.0390203
0.0385295
0.0381269
0.0378207
0.0376162
0.0375182
0.0375281
0.0737596
0.072892
0.072021
0.071148
0.0702732
0.0693949
0.0685106
0.0676203
0.0667251
0.0658233
0.0649141
0.0639979
0.0630757
0.0621485
0.0612167
0.0602797
0.0593376
0.0583916
0.0574433
0.056492
0.0555376
0.0545813
0.0536243
0.0526691
0.051718
0.0507748
0.0498448
0.0489288
0.0480299
0.047153
0.0463045
0.045491
0.0447178
0.0439906
0.0433154
0.0426992
0.0421503
0.0416763
0.0412867
0.0409887
0.0407878
0.0406889
0.0406927
0.0745412
0.0737542
0.072962
0.0721671
0.0713704
0.070571
0.0697637
0.0689447
0.0681225
0.0672939
0.0664541
0.0656051
0.0647476
0.0638817
0.0630117
0.0621362
0.0612525
0.0603617
0.0594698
0.0585749
0.0576753
0.0567702
0.0558667
0.054955
0.0540508
0.0531435
0.0522538
0.0513767
0.0505151
0.0496696
0.0488481
0.0480624
0.0473166
0.0466156
0.0459643
0.0453699
0.0448386
0.0443768
0.0439958
0.0437026
0.0435039
0.0434042
0.0434043
0.0752583
0.0745406
0.0738128
0.0730819
0.0723473
0.0716137
0.07088
0.0701163
0.0693552
0.0685928
0.0678119
0.0670186
0.0662198
0.0653999
0.0645786
0.0637543
0.0629251
0.0620747
0.0612268
0.0603772
0.0595307
0.058659
0.057824
0.0569322
0.0560896
0.055196
0.0543427
0.0534951
0.0526679
0.0518564
0.0510508
0.050284
0.0495568
0.0488741
0.0482437
0.0476684
0.0471561
0.0467042
0.0463305
0.0460417
0.0458452
0.0457458
0.0457453
0.00736451
0.00927483
0.0104595
0.0116121
0.0128252
0.0140982
0.0154211
0.0167807
0.0181664
0.0195711
0.0209908
0.0224207
0.023859
0.0253044
0.026755
0.0282109
0.0296716
0.0311363
0.0326046
0.0340774
0.0355537
0.0370335
0.0385167
0.0400037
0.0414935
0.042987
0.0444832
0.0459825
0.0474843
0.0489885
0.0504949
0.0520031
0.053513
0.0550241
0.0565361
0.0580486
0.059561
0.0610727
0.0625834
0.0640923
0.0655986
0.0671012
0.0686019
0.0174983
0.0179028
0.0184778
0.0192064
0.0200676
0.021038
0.0220964
0.0232241
0.0244056
0.0256297
0.0268847
0.0281638
0.029461
0.0307717
0.0320933
0.0334225
0.0347576
0.0360964
0.0374389
0.038784
0.0401306
0.0414782
0.042827
0.0441763
0.0455263
0.0468765
0.0482272
0.0495776
0.0509277
0.0522779
0.0536278
0.0549773
0.0563265
0.057675
0.0590229
0.0603699
0.0617158
0.0630604
0.0644033
0.0657444
0.0670833
0.0684201
0.0697587
0.0241519
0.0244678
0.0249238
0.0255113
0.0262174
0.0270258
0.0279223
0.0288915
0.0299208
0.0309981
0.0321134
0.0332593
0.034428
0.0356151
0.0368158
0.038027
0.0392446
0.0404682
0.0416951
0.0429238
0.0441538
0.045384
0.0466134
0.0478424
0.0490704
0.0502964
0.0515206
0.052743
0.0539632
0.0551814
0.0563974
0.0576115
0.0588233
0.0600331
0.0612408
0.0624465
0.0636501
0.0648513
0.0660503
0.0672468
0.0684407
0.0696321
0.0708244
0.0295038
0.0297758
0.0301697
0.0306799
0.0312964
0.032008
0.0328026
0.0336681
0.0345928
0.0355662
0.0365795
0.0376247
0.0386946
0.0397844
0.0408893
0.0420044
0.0431272
0.0442552
0.0453861
0.0465187
0.0476514
0.0487831
0.0499133
0.0510416
0.0521669
0.0532886
0.0544068
0.0555214
0.0566321
0.0577389
0.058842
0.0599415
0.0610372
0.0621294
0.0632183
0.0643036
0.0653856
0.0664642
0.0675395
0.0686113
0.0696793
0.0707433
0.0718039
0.0339299
0.0341723
0.0345265
0.0349868
0.0355454
0.0361921
0.0369171
0.0377095
0.0385591
0.0394564
0.0403932
0.0413617
0.0423552
0.0433685
0.0443965
0.0454351
0.0464806
0.0475303
0.0485827
0.0496359
0.0506881
0.0517389
0.052787
0.0538312
0.0548705
0.0559051
0.0569347
0.0579589
0.0589776
0.0599909
0.060999
0.062002
0.0629998
0.0639925
0.0649802
0.0659632
0.0669417
0.0679155
0.0688846
0.0698489
0.0708083
0.0717627
0.0727149
0.037644
0.0378653
0.0381909
0.0386154
0.0391322
0.0397331
0.0404077
0.0411461
0.0419395
0.0427793
0.0436576
0.0445667
0.0455005
0.0464535
0.0474204
0.0483966
0.0493791
0.0503651
0.051353
0.052341
0.0533278
0.0543118
0.0552915
0.0562654
0.0572333
0.0581949
0.0591502
0.0600987
0.06104
0.0619747
0.062903
0.0638247
0.0647398
0.065648
0.0665497
0.0674455
0.0683358
0.0692203
0.0700983
0.07097
0.0718352
0.0726941
0.0735481
0.0407981
0.0410036
0.0413072
0.0417039
0.0421894
0.0427562
0.0433926
0.0440893
0.0448393
0.045634
0.0464658
0.0473283
0.0482154
0.0491202
0.0500372
0.0509624
0.0518925
0.0528256
0.05376
0.0546951
0.0556277
0.0565566
0.0574795
0.0583945
0.0593017
0.060202
0.0610952
0.0619798
0.0628559
0.0637244
0.0645852
0.0654387
0.0662838
0.0671197
0.0679479
0.0687697
0.0695849
0.070393
0.0711927
0.0719842
0.0727681
0.0735438
0.0743125
0.0435032
0.0436951
0.0439821
0.0443537
0.0448162
0.0453581
0.0459638
0.0466247
0.0473414
0.0480991
0.0488941
0.0497198
0.0505707
0.0514347
0.052311
0.0531931
0.0540787
0.0549674
0.0558584
0.0567509
0.0576376
0.0585225
0.0593967
0.0602592
0.0611147
0.0619656
0.0628067
0.0636364
0.0644568
0.06527
0.0660736
0.0668707
0.0676551
0.0684279
0.0691935
0.0699534
0.0707046
0.0714479
0.0721791
0.0729009
0.0736152
0.0743187
0.0750121
0.0458417
0.0460185
0.0462989
0.0466398
0.0470898
0.0476131
0.0481906
0.0488152
0.0495123
0.0502352
0.0510031
0.0517983
0.0526227
0.0534469
0.0542913
0.0551319
0.0559798
0.0568316
0.0576887
0.0585526
0.0593931
0.0602456
0.0610695
0.061886
0.0627016
0.0635163
0.0643092
0.0650907
0.0658651
0.0666359
0.0673879
0.0681407
0.0688676
0.0695868
0.0703028
0.071014
0.0717077
0.0723958
0.0730644
0.0737279
0.0743861
0.07503
0.0756572
0.0403445
0.0390966
0.0378477
0.0365983
0.0353487
0.0340994
0.0328503
0.0316012
0.0303518
0.0291014
0.0278499
0.0265966
0.0253412
0.0240839
0.0228254
0.0215669
0.0203113
0.0190628
0.0178275
0.0166129
0.0154284
0.0142845
0.0131897
0.0121486
0.0111626
0.0102299
0.00934819
0.00851484
0.00772802
0.00698533
0.00628486
0.00562447
0.00500368
0.00442052
0.00387441
0.00336523
0.00289271
0.00245937
0.00207379
0.00175428
0.00150281
0.00121515
0.000810671
0.04047
0.039328
0.0381844
0.0370395
0.0358937
0.034747
0.0335994
0.0324505
0.0312998
0.0301468
0.0289908
0.0278313
0.0266675
0.0254989
0.0243254
0.023147
0.0219647
0.0207804
0.0195971
0.0184193
0.0172544
0.016111
0.014999
0.0139268
0.0129009
0.0119234
0.010994
0.0101123
0.00927599
0.00848401
0.00773417
0.0070269
0.00636102
0.00573728
0.00515717
0.00462478
0.00414815
0.00373796
0.00339503
0.00303076
0.00261709
0.00210852
0.00141405
0.0405964
0.0395533
0.0385075
0.0374595
0.0364093
0.0353569
0.034302
0.0332443
0.0321834
0.0311187
0.0300493
0.0289747
0.0278939
0.0268063
0.0257113
0.0246086
0.0234978
0.0223795
0.0212548
0.0201262
0.0189966
0.0178724
0.0167607
0.0156706
0.0146121
0.0135934
0.0126198
0.0116921
0.0108098
0.00997171
0.00917812
0.00842892
0.00772624
0.00707369
0.00647979
0.00595394
0.00551287
0.00508856
0.00464278
0.00414534
0.0035597
0.00283113
0.00188691
0.0407207
0.0397667
0.0388088
0.0378472
0.0368821
0.0359133
0.0349404
0.0339632
0.0329812
0.0319937
0.031
0.0299994
0.028991
0.027974
0.0269477
0.0259112
0.0248641
0.023806
0.0227372
0.0216578
0.0205696
0.0194757
0.0183798
0.0172885
0.0162114
0.0151605
0.0141465
0.013176
0.0122503
0.0113702
0.0105356
0.00974936
0.00901556
0.00834361
0.00774456
0.00723425
0.00675083
0.00624914
0.00570113
0.00507673
0.00433592
0.00341735
0.00226809
0.0408424
0.0399677
0.039088
0.0382034
0.0373137
0.0364185
0.0355179
0.0346112
0.0336982
0.0327782
0.0318503
0.0309138
0.0299677
0.0290113
0.0280436
0.0270639
0.0260713
0.0250652
0.024045
0.0230105
0.0219617
0.0208995
0.019826
0.0187449
0.0176633
0.0165917
0.0155451
0.0145372
0.0135735
0.0126551
0.0117842
0.010965
0.0102049
0.0095167
0.0089106
0.00837355
0.00782801
0.00724709
0.00660306
0.00586337
0.00498484
0.00390232
0.00257821
0.0409593
0.0401555
0.0393457
0.0385295
0.0377065
0.0368765
0.0360391
0.0351942
0.0343415
0.0334803
0.0326097
0.0317288
0.0308367
0.0299319
0.0290141
0.0280824
0.027136
0.0261735
0.0251949
0.0241985
0.023184
0.0221516
0.0211015
0.0200354
0.0189569
0.0178751
0.0168055
0.015767
0.0147708
0.0138196
0.0129178
0.0120707
0.0112897
0.0105869
0.00997824
0.0093861
0.00877445
0.00811653
0.00738281
0.00653848
0.00553633
0.00430856
0.00283193
0.041069
0.0403296
0.0395826
0.0388275
0.0380638
0.0372911
0.0365091
0.0357179
0.0349173
0.0341074
0.0332871
0.0324554
0.0316102
0.03075
0.0298745
0.0289835
0.0280756
0.0271501
0.0262058
0.0252417
0.0242567
0.0232502
0.0222217
0.021171
0.0201
0.0190151
0.0179297
0.016867
0.0158437
0.0148658
0.0139381
0.0130686
0.0122712
0.0115543
0.0109189
0.0102789
0.00960759
0.00887897
0.00806317
0.00712345
0.00600961
0.00465196
0.00303932
0.0411702
0.0404905
0.0397997
0.039099
0.0383884
0.0376667
0.0369327
0.0361877
0.0354319
0.0346661
0.03389
0.0331024
0.0323004
0.0314797
0.0306392
0.029782
0.0289075
0.0280122
0.0270962
0.0261594
0.0251991
0.0242141
0.0232045
0.0221692
0.0211083
0.0200248
0.0189296
0.0178475
0.0168016
0.0158005
0.0148516
0.0139658
0.0131568
0.0124379
0.0117595
0.0110711
0.0103447
0.00955213
0.0086612
0.00763417
0.00641824
0.00494308
0.00321157
0.0412719
0.0406405
0.0399981
0.039345
0.0386829
0.0380086
0.0373156
0.0366099
0.0358905
0.0351617
0.0344233
0.0336757
0.032917
0.0321363
0.0313219
0.0304899
0.0296467
0.0287773
0.0278821
0.0269683
0.0260302
0.0250612
0.0240668
0.0230459
0.0219962
0.0209201
0.0198224
0.0187226
0.0176548
0.0166322
0.0156654
0.0147679
0.0139484
0.0132187
0.012505
0.0117735
0.0109983
0.0101505
0.00919251
0.00808383
0.00677187
0.00518265
0.00330752
0.000457549
0.00049408
0.00068192
0.000859889
0.00102899
0.00119228
0.00135356
0.00151872
0.00169582
0.00189549
0.00212657
0.00238922
0.0026818
0.00300153
0.00334697
0.00371687
0.00411116
0.00452989
0.00497299
0.00544142
0.00593558
0.0064559
0.00700267
0.00757658
0.00817789
0.00880754
0.00946628
0.0101545
0.0108732
0.011623
0.0124048
0.0132196
0.0140683
0.0149517
0.0158707
0.0168261
0.0178191
0.0188507
0.0199217
0.021033
0.0221855
0.0233808
0.0246217
0.000729628
0.000659081
0.000841374
0.00102818
0.00120873
0.00138814
0.00157379
0.00177418
0.00199765
0.00225097
0.00253944
0.00285779
0.00320152
0.00356858
0.00395778
0.00436874
0.00480126
0.00525535
0.00573121
0.00622892
0.00674908
0.00729171
0.00785702
0.00844543
0.00905729
0.00969293
0.0103533
0.0110386
0.0117497
0.0124871
0.0132515
0.0140436
0.014864
0.0157139
0.0165936
0.0175039
0.0184459
0.0194202
0.0204277
0.0214691
0.0225456
0.0236589
0.024812
0.000987805
0.000811219
0.000989891
0.00118871
0.00138714
0.00159264
0.00181444
0.00206008
0.00233443
0.00264025
0.00298057
0.00334746
0.00373616
0.00414528
0.00457424
0.00502249
0.00548974
0.00597608
0.00648118
0.00700538
0.00754855
0.00811087
0.00869219
0.00929291
0.00991319
0.0105536
0.0112142
0.0118958
0.0125985
0.0133229
0.0140697
0.0148392
0.015632
0.0164488
0.01729
0.0181566
0.0190488
0.0199676
0.0209136
0.0218877
0.0228908
0.0239248
0.0249931
0.00120527
0.000946014
0.00112563
0.00134085
0.0015636
0.00180284
0.00206649
0.002359
0.00268152
0.00303518
0.00342121
0.00382973
0.0042579
0.00470442
0.00516841
0.00564961
0.00614761
0.0066622
0.00719309
0.00774007
0.00830302
0.0088819
0.00947674
0.0100876
0.0107144
0.0113577
0.0120177
0.0126944
0.0133886
0.0141001
0.0148297
0.0155777
0.0163443
0.0171301
0.0179354
0.018761
0.0196073
0.0204745
0.0213637
0.0222752
0.0232098
0.0241674
0.0251449
0.00138205
0.00106505
0.00125121
0.00148721
0.00173937
0.00201593
0.00232205
0.00265866
0.00302472
0.00342179
0.00384746
0.00429305
0.00475615
0.00523564
0.00573084
0.00624125
0.00676651
0.00730607
0.0078593
0.008426
0.00900599
0.00959887
0.0102048
0.0108238
0.0114558
0.012101
0.0127594
0.0134313
0.0141167
0.014816
0.0155291
0.0162567
0.016999
0.0177562
0.0185284
0.0193162
0.0201202
0.0209403
0.0217771
0.022631
0.0235021
0.0243904
0.0252956
0.00152482
0.00117064
0.00136903
0.00162928
0.00191366
0.00222812
0.00257451
0.00295093
0.00335593
0.00379281
0.00425325
0.00473154
0.00522575
0.0057349
0.00625804
0.00679447
0.00734373
0.00790517
0.00847792
0.00906164
0.00965639
0.0102616
0.0108771
0.0115029
0.0121389
0.0127852
0.0134416
0.0141082
0.0147854
0.0154729
0.0161708
0.0168794
0.017599
0.0183297
0.0190715
0.0198248
0.0205899
0.0213669
0.0221556
0.0229567
0.0237698
0.0245945
0.0254293
0.00163991
0.0012666
0.00148252
0.00176925
0.00208628
0.0024369
0.00281975
0.00323173
0.00367235
0.00414381
0.00463531
0.00514292
0.00566528
0.00620078
0.00674896
0.00730885
0.00787948
0.00846023
0.00905035
0.00964932
0.010257
0.0108728
0.0114967
0.0121282
0.0127671
0.0134138
0.014068
0.0147295
0.0153985
0.016075
0.0167588
0.0174499
0.0181485
0.0188547
0.0195687
0.0202904
0.0210199
0.021757
0.0225018
0.0232543
0.0240145
0.0247815
0.0255538
0.00174007
0.00135184
0.00158438
0.00189733
0.00224565
0.00263091
0.00304795
0.00349344
0.00396799
0.00447033
0.00499014
0.00552551
0.00607442
0.00663492
0.00720598
0.00778712
0.00837801
0.00897718
0.00958296
0.0101955
0.0108148
0.0114401
0.0120705
0.012706
0.0133467
0.0139927
0.014644
0.0153002
0.0159612
0.0166272
0.0172976
0.0179725
0.0186517
0.0193355
0.0200239
0.020717
0.0214139
0.022114
0.0228183
0.0235263
0.0242381
0.0249529
0.0256705
0.00177762
0.00143824
0.00171312
0.00206121
0.00245143
0.00286569
0.00331352
0.0037851
0.00428892
0.00481356
0.00536523
0.00593163
0.00650189
0.00708083
0.00766469
0.00826701
0.00888218
0.00949595
0.0101074
0.0107294
0.0113586
0.0119881
0.0126176
0.013251
0.0138883
0.0145311
0.0151778
0.0158271
0.0164803
0.0171368
0.0177939
0.0184522
0.0191132
0.0197762
0.0204421
0.0211109
0.021777
0.0224413
0.0231078
0.023775
0.0244426
0.0251094
0.0257751
0.000360877
0.00140489
0.00291569
0.00440933
0.00586191
0.00726783
0.00862758
0.00994326
0.0112176
0.0124536
0.0136549
0.0148258
0.015974
0.0171159
0.0182678
0.0194321
0.0206003
0.021815
0.0231657
0.0246299
0.0261782
0.0277884
0.0294472
0.031144
0.0328718
0.0346255
0.0364009
0.0381945
0.0400032
0.0418249
0.0436574
0.0454991
0.047348
0.0492023
0.0510607
0.0529215
0.0547839
0.0566466
0.0585088
0.0603696
0.0622289
0.0640873
0.0659477
0.000346329
0.00108048
0.00245039
0.00378483
0.00499966
0.00615549
0.00728981
0.00841709
0.00954166
0.0106646
0.0117857
0.0129045
0.0140215
0.0151396
0.0162627
0.0173953
0.0185443
0.0197305
0.0209846
0.0223091
0.0236844
0.0251393
0.0267306
0.0284215
0.0301812
0.0319903
0.0338356
0.0357084
0.0376016
0.0395103
0.0414313
0.0433617
0.0452983
0.0472395
0.0491833
0.0511277
0.0530717
0.0550141
0.0569541
0.0588903
0.0608229
0.0627513
0.0646749
0.000251414
0.000801379
0.00183576
0.00317149
0.00460821
0.00592657
0.00712846
0.00824263
0.00929507
0.0103066
0.0112944
0.0122723
0.0132515
0.0142403
0.0152459
0.0162751
0.0173366
0.0184409
0.0195995
0.0208208
0.0221065
0.0234651
0.0249044
0.0264088
0.0280377
0.0297916
0.0316313
0.0335289
0.035466
0.0374305
0.039414
0.0414108
0.0434159
0.0454266
0.0474396
0.0494531
0.0514649
0.0534739
0.0554786
0.0574784
0.0594722
0.0614593
0.0634372
0.000279361
0.000744746
0.00168321
0.00288302
0.00429967
0.00571965
0.00704911
0.00827849
0.00941464
0.0104676
0.0114507
0.0123797
0.013272
0.014146
0.015019
0.0159077
0.0168275
0.0177927
0.0188154
0.0199065
0.0210738
0.0223216
0.0236501
0.0250571
0.0265505
0.0281234
0.0298186
0.0316466
0.0335647
0.0355412
0.0375562
0.0395961
0.0416519
0.0437171
0.0457873
0.047859
0.0499296
0.0519969
0.0540594
0.0561161
0.0581655
0.0602062
0.0622358
0.000273507
0.000708392
0.00159518
0.00271853
0.0040704
0.00553429
0.00695935
0.00829455
0.00953332
0.0106797
0.0117385
0.0127165
0.0136235
0.0144737
0.0152846
0.0160772
0.0168734
0.0176957
0.018565
0.0194995
0.020514
0.0216181
0.022816
0.0241081
0.0254914
0.0269605
0.0285183
0.0301635
0.0319582
0.0338763
0.0358753
0.0379258
0.0400087
0.0421111
0.0442248
0.0463436
0.0484636
0.0505815
0.0526951
0.0548027
0.0569026
0.0589938
0.0610783
0.000279864
0.000692401
0.00155108
0.00263008
0.00392771
0.00539104
0.00687832
0.00830134
0.00963405
0.0108728
0.0120192
0.0130759
0.0140465
0.0149377
0.0157602
0.0165294
0.0172654
0.0179923
0.0187363
0.0195238
0.0203787
0.0213205
0.0223623
0.0235105
0.0247654
0.0261224
0.0275746
0.0291156
0.0307535
0.0325066
0.0344138
0.036425
0.0385013
0.0406176
0.0427575
0.0449106
0.0470698
0.0492297
0.0513871
0.0535392
0.0556838
0.0578196
0.059944
0.000280628
0.000679203
0.00151778
0.00256644
0.00382359
0.00526726
0.00679296
0.00829018
0.0097086
0.0110349
0.0122672
0.0134063
0.0144536
0.0154114
0.0162845
0.0170818
0.0178168
0.0185087
0.0191815
0.0198638
0.0205851
0.0213737
0.0222536
0.0232414
0.0243457
0.0255677
0.026902
0.0283402
0.0298744
0.0315017
0.0332344
0.0351332
0.0371538
0.0392509
0.0413948
0.0435659
0.0457518
0.0479442
0.0501374
0.0523274
0.0545113
0.0566869
0.0588509
0.000282208
0.000671266
0.00149629
0.00252359
0.00375143
0.00516943
0.00671156
0.00826517
0.00975947
0.0111671
0.0124812
0.0137007
0.0148256
0.0158562
0.0167945
0.0176445
0.018414
0.0191159
0.0197684
0.0203961
0.0210281
0.0216965
0.0224326
0.0232635
0.0242088
0.0252791
0.0264759
0.0277939
0.0292229
0.030752
0.0323751
0.0341065
0.036002
0.038033
0.0401492
0.0423169
0.0445144
0.046728
0.0489483
0.0511691
0.0533867
0.0555978
0.0578012
0.000282102
0.000664382
0.00147863
0.00248934
0.0036944
0.00508725
0.00663024
0.00822484
0.00978455
0.0112676
0.0126594
0.0139562
0.0151569
0.0162611
0.0172687
0.0181812
0.0190026
0.0197406
0.0204077
0.0210226
0.0216098
0.0221999
0.0228263
0.0235224
0.0243176
0.0252331
0.0262806
0.0274621
0.0287711
0.0301963
0.0317257
0.0333527
0.0350907
0.036993
0.0390383
0.041174
0.0433639
0.0455849
0.047822
0.0500662
0.0523107
0.0545512
0.056784
0.00028128
0.000658958
0.00146444
0.00246179
0.00364824
0.00501882
0.00655264
0.00817298
0.00978676
0.0113379
0.0128025
0.0141731
0.0154471
0.0166232
0.0177003
0.0186786
0.0195594
0.020347
0.0210494
0.0216796
0.0222571
0.0228074
0.023362
0.0239557
0.0246233
0.0253953
0.0262938
0.0273304
0.0285064
0.0298147
0.031243
0.0327788
0.034415
0.0361648
0.0380856
0.0401515
0.0423083
0.0445195
0.0467615
0.0490197
0.0512846
0.0535499
0.055813
0.00027947
0.000653979
0.00145161
0.00243733
0.00360794
0.00495872
0.00647785
0.00811114
0.00976772
0.0113791
0.0129117
0.0143522
0.0156964
0.016942
0.0180875
0.0191318
0.0200749
0.0209186
0.0216675
0.0223307
0.0229223
0.0234627
0.0239791
0.0245041
0.0250738
0.0257238
0.0264848
0.0273784
0.0284155
0.0295962
0.0309122
0.0323503
0.0338974
0.0355467
0.0373163
0.0392666
0.0413586
0.0435383
0.0457704
0.0480322
0.0503096
0.0525943
0.0548848
0.000277005
0.000649291
0.00143978
0.00241505
0.00357157
0.00490444
0.00640687
0.00804259
0.00973052
0.011394
0.0129887
0.0144952
0.0159062
0.0172186
0.0184304
0.0195397
0.0205455
0.021448
0.0222495
0.0229558
0.023577
0.0241287
0.0246333
0.0251193
0.025621
0.0261754
0.0268183
0.0275798
0.0284802
0.0295286
0.0307233
0.0320546
0.0335084
0.0350713
0.0367389
0.0385391
0.0405275
0.0426493
0.0448533
0.0471061
0.0493865
0.0516817
0.0539835
0.000273937
0.000644741
0.00142839
0.00239396
0.00353757
0.00485405
0.00633914
0.00796961
0.00967831
0.0113851
0.0130359
0.014604
0.0160784
0.0174548
0.0187303
0.0199028
0.0209706
0.0219325
0.0227895
0.0235447
0.024205
0.0247824
0.0252943
0.0257651
0.0262253
0.0267107
0.027259
0.0279054
0.0286785
0.0295966
0.030666
0.031883
0.033236
0.0347104
0.0362936
0.0379863
0.0398313
0.0418622
0.0440159
0.0462446
0.0485175
0.0508155
0.053127
0.000270295
0.000640197
0.00141709
0.00237352
0.00350497
0.00480613
0.00627411
0.00789417
0.00961404
0.0113554
0.0130557
0.0146808
0.0162152
0.0176524
0.0189891
0.0202226
0.0213508
0.0223717
0.0232851
0.0240922
0.0247976
0.0254099
0.0259428
0.0264162
0.0268566
0.027297
0.0277741
0.0283258
0.0289863
0.0297818
0.0307273
0.0318263
0.0330723
0.0344524
0.0359518
0.0375598
0.039285
0.0411886
0.0432649
0.0454514
0.0477047
0.049997
0.0523126
0.000266149
0.000635556
0.00140595
0.00235337
0.00347315
0.00475992
0.00621112
0.0078176
0.00954073
0.0113079
0.013051
0.0147282
0.0163187
0.0178138
0.0192089
0.0205011
0.0216877
0.0227665
0.023736
0.0245964
0.0253501
0.0260034
0.0265666
0.0270557
0.0274935
0.0279087
0.0283363
0.0288141
0.0293795
0.0300646
0.0308922
0.0318738
0.0330093
0.0342899
0.0357012
0.0372289
0.0388661
0.0406366
0.0426075
0.0447312
0.0469502
0.0492272
0.0515377
0.000261568
0.000630904
0.00139469
0.00233332
0.00344182
0.00471464
0.00614956
0.00774074
0.00946061
0.0112455
0.0130246
0.0147486
0.0163916
0.0179413
0.0193921
0.0207404
0.0219834
0.0231183
0.0241431
0.0250569
0.0258608
0.0265587
0.0271584
0.0276727
0.0281205
0.028527
0.0289237
0.0293471
0.0298356
0.030425
0.0311447
0.0320134
0.0330383
0.0342159
0.0355349
0.0369804
0.0385395
0.0402135
0.0420524
0.0440892
0.046258
0.0485093
0.0508136
0.000256554
0.000626094
0.00138322
0.002313
0.00341051
0.00466987
0.00608882
0.00766383
0.00937558
0.0111709
0.012979
0.0147446
0.0164359
0.0180371
0.0195409
0.0209429
0.0222399
0.0234292
0.0245079
0.0254746
0.0263291
0.0270737
0.0277141
0.0282603
0.0287277
0.029138
0.0295194
0.0299059
0.030335
0.0308446
0.0314685
0.0322319
0.0331493
0.0342232
0.0354468
0.0368069
0.0382888
0.0398835
0.0416067
0.0435318
0.0456315
0.0478431
0.0501239
0.000251161
0.000621115
0.00137148
0.00229267
0.00337927
0.00462534
0.00602872
0.00758719
0.00928739
0.0110865
0.0129169
0.0147187
0.0164542
0.0181037
0.0196576
0.0211107
0.0224596
0.0237011
0.0248322
0.0258507
0.0267557
0.0275481
0.0282318
0.0288144
0.0293084
0.0297324
0.0301111
0.0304753
0.0308611
0.0313066
0.0318481
0.0325162
0.0333316
0.0343037
0.0354307
0.0367027
0.0381056
0.0396263
0.0412636
0.0430626
0.0450742
0.0472337
0.0494926
0.00024546
0.000616097
0.0013597
0.0022721
0.00334779
0.00458095
0.00596913
0.00751089
0.00919718
0.0109945
0.0128409
0.0146734
0.0164488
0.0181432
0.0197445
0.0212462
0.0226447
0.0239364
0.0251182
0.0261872
0.027142
0.0279824
0.0287107
0.0293328
0.0298586
0.0303037
0.0306896
0.031044
0.0314005
0.0317965
0.0322695
0.0328535
0.0335749
0.034449
0.0354801
0.0366627
0.0379844
0.0394314
0.0409945
0.0426882
0.0445894
0.046678
0.0488861
0.000239446
0.000610911
0.00134765
0.0022512
0.00331628
0.00453654
0.0059098
0.00743479
0.00910565
0.0108969
0.0127533
0.014611
0.016422
0.0181579
0.0198036
0.0213517
0.0227975
0.0241373
0.0253678
0.026486
0.0274895
0.0283775
0.0291512
0.0298147
0.0303759
0.0308476
0.0312485
0.0316032
0.0319426
0.0323024
0.03272
0.0332318
0.0338682
0.0346503
0.0355883
0.0366813
0.0379204
0.0392925
0.0407853
0.0423986
0.0441799
0.0461821
0.0483385
0.000233162
0.000605645
0.00133543
0.00223026
0.00328455
0.00449207
0.00585057
0.00735899
0.0090136
0.0107951
0.0126561
0.0145339
0.016376
0.0181498
0.0198373
0.0214292
0.0229201
0.024306
0.0255833
0.0267489
0.0278
0.028735
0.0295541
0.0302601
0.030859
0.0313615
0.0317835
0.0321467
0.0324793
0.0328144
0.0331891
0.0336404
0.0342018
0.0348991
0.035748
0.036753
0.0379091
0.039205
0.040628
0.0421705
0.0438505
0.0457469
0.0478311
0.000226624
0.000600343
0.00132306
0.00220902
0.00325254
0.00444761
0.00579143
0.0072835
0.00892118
0.0106904
0.0125513
0.0144439
0.0163129
0.0181212
0.0198476
0.0214808
0.0230145
0.0244444
0.0257668
0.0269781
0.0280753
0.0290564
0.0299206
0.0306696
0.0313079
0.0318441
0.0322918
0.03267
0.0330041
0.0333249
0.0336677
0.0340698
0.0345664
0.0351871
0.0359525
0.0368723
0.0379459
0.0391652
0.0405178
0.0419932
0.0435938
0.0453738
0.0473724
0.000219825
0.000594854
0.00131051
0.00218758
0.00322053
0.004403
0.0057324
0.0072082
0.00882875
0.0105838
0.0124406
0.0143432
0.0162346
0.0180739
0.0198363
0.0215085
0.0230829
0.0245548
0.0259203
0.0271756
0.0283175
0.0293435
0.0302522
0.0310442
0.0317228
0.0322948
0.0327718
0.0331702
0.0335127
0.0338277
0.0341486
0.0345118
0.0349537
0.0355064
0.0361947
0.0370333
0.0380264
0.039169
0.0404506
0.0418596
0.0433908
0.0450688
0.0469774
0.000212827
0.000589373
0.00129785
0.00216615
0.00318835
0.00435836
0.00567352
0.00713327
0.00873646
0.010476
0.0123253
0.0142335
0.0161431
0.0180098
0.0198054
0.021514
0.023127
0.024639
0.0260458
0.0273434
0.0285285
0.0295981
0.0305504
0.0313851
0.0321044
0.0327137
0.0332224
0.0336451
0.0340018
0.0343182
0.0346258
0.0349598
0.0353564
0.0358498
0.0364681
0.0372305
0.0381456
0.0392125
0.040423
0.0417657
0.0432316
0.0448291
0.0466313
0.000205601
0.000583812
0.00128515
0.0021445
0.00315609
0.00431368
0.00561473
0.0070584
0.00864452
0.0103676
0.0122067
0.0141164
0.0160403
0.0179309
0.0197566
0.0214994
0.0231489
0.024699
0.0261451
0.0274834
0.0287101
0.029822
0.0308168
0.0316937
0.0324537
0.0331011
0.0336436
0.0340936
0.0344689
0.034793
0.0350948
0.035408
0.0357683
0.036211
0.0367667
0.0374583
0.038299
0.0392918
0.0404315
0.0417077
0.0431101
0.044637
0.0463287
0.00019814
0.000578204
0.00127232
0.00212281
0.00312377
0.00426908
0.00555601
0.00698407
0.00855294
0.0102591
0.0120857
0.0139936
0.0159277
0.0178386
0.0196917
0.0214662
0.0231501
0.0247363
0.0262201
0.0275973
0.028864
0.030017
0.0310532
0.0319715
0.032772
0.0334579
0.0340354
0.0345152
0.0349128
0.0352494
0.0355519
0.0358518
0.0361841
0.0365843
0.0370848
0.0377116
0.0384821
0.0394032
0.0404729
0.0416828
0.0430216
0.0444814
0.0460764
0.000190504
0.000572588
0.00125949
0.00210109
0.0030915
0.00422456
0.00549762
0.00690999
0.00846186
0.0101506
0.0119635
0.0138662
0.0158068
0.0177347
0.0196123
0.021416
0.0231322
0.0247528
0.0262725
0.027687
0.0289922
0.0301847
0.0312612
0.03222
0.0330606
0.0337851
0.0343984
0.0349097
0.0353325
0.0356858
0.0359943
0.0362876
0.0365994
0.0369647
0.0374173
0.0379857
0.0386906
0.0395429
0.0405441
0.0416882
0.0429646
0.0443637
0.0458944
0.000182649
0.000566971
0.00124657
0.00207938
0.00305926
0.00418019
0.00543946
0.00683639
0.00837138
0.0100426
0.0118403
0.0137352
0.0156792
0.0176208
0.0195198
0.0213504
0.0230969
0.02475
0.0263039
0.0277541
0.0290963
0.0303268
0.0314425
0.0324407
0.0333207
0.0340836
0.0347333
0.0352773
0.0357276
0.036101
0.0364201
0.0367125
0.0370103
0.037348
0.0377597
0.0382759
0.0389204
0.0397075
0.0406424
0.0417219
0.042937
0.0442788
0.0457503
0.000174563
0.000561282
0.00123371
0.00205767
0.00302714
0.004136
0.00538161
0.00676335
0.00828156
0.00993528
0.0117168
0.0136019
0.015546
0.017498
0.019416
0.021271
0.0230455
0.0247295
0.0263159
0.0278001
0.0291778
0.0304452
0.0315985
0.0326352
0.0335539
0.0343548
0.035041
0.0356186
0.036098
0.0364943
0.0368278
0.0371242
0.0374139
0.0377305
0.0381081
0.0385784
0.0391676
0.0398935
0.0407649
0.0417814
0.0429367
0.0442229
0.0456394
0.00016628
0.000555701
0.00122082
0.00203603
0.00299511
0.00409207
0.00532415
0.00669086
0.00819246
0.00982864
0.0115935
0.0134669
0.0154083
0.0173679
0.0193018
0.0211789
0.0229797
0.0246925
0.0263098
0.0278266
0.0292384
0.030541
0.0317309
0.0328049
0.0337614
0.0345998
0.0353224
0.0359342
0.036444
0.0368653
0.0372164
0.0375211
0.0378079
0.0381093
0.038459
0.0388895
0.0394289
0.0400979
0.0409088
0.0418646
0.0429614
0.0441922
0.0455518
0.000157764
0.000550114
0.00120801
0.00201451
0.00296327
0.00404838
0.00526714
0.0066189
0.0081042
0.0097229
0.0114707
0.0133308
0.0152672
0.0172315
0.0191788
0.0210757
0.0229006
0.0246405
0.0262872
0.0278351
0.0292794
0.0306159
0.0318411
0.0329514
0.0339446
0.03482
0.0355787
0.0362249
0.036766
0.037214
0.0375853
0.0379018
0.0381904
0.0384819
0.0388094
0.039206
0.039701
0.0403178
0.0410717
0.0419691
0.0430094
0.0441881