/*--------------------------------*- C++ -*----------------------------------*\
| =========                 |                                                 |
| \\      /  F ield         | OpenFOAM: The Open Source CFD Toolbox           |
|  \\    /   O peration     | Version:  2.3.0                                 |
|   \\  /    A nd           | Web:      www.OpenFOAM.org                      |
|    \\/     M anipulation  |                                                 |
\*---------------------------------------------------------------------------*/
FoamFile
{
    version     2.0;
    format      ascii;
    class       volVectorField;
    location    "5000";
    object      U;
}
// * * * * * * * * * * * * * * * * * * * * * * * * * * * * * * * * * * * * * //

dimensions      [0 1 -1 0 0 0 0];

internalField   nonuniform List<vector> 
37387
(
(25.6174 10.3072 2.27716e-21)
(25.6208 10.6203 1.97424e-21)
(25.6194 10.9234 -2.58585e-21)
(25.6115 11.2335 -7.5242e-21)
(25.597 11.5498 0)
(25.575 11.8728 1.12204e-20)
(25.5451 12.2025 0)
(25.5068 12.5393 -7.76974e-21)
(25.4596 12.8834 0)
(25.403 13.2353 -9.28298e-21)
(25.3367 13.5953 0)
(25.2604 13.9639 0)
(25.1737 14.3414 0)
(25.076 14.7283 5.33136e-21)
(24.9666 15.1252 1.42982e-20)
(24.8448 15.5328 1.90489e-19)
(24.7099 15.9516 -2.07218e-19)
(24.5608 16.3826 2.37807e-19)
(24.3966 16.8267 -2.46248e-19)
(24.2161 17.285 6.18362e-21)
(24.0181 17.7583 2.96731e-19)
(23.8012 18.2474 -2.90443e-19)
(23.5638 18.753 7.51191e-21)
(23.3037 19.2751 6.20115e-21)
(23.0179 19.8128 -8.48129e-21)
(22.7025 20.3646 0)
(22.3524 20.9275 4.31752e-19)
(21.9612 21.4972 -4.448e-19)
(21.5206 22.0675 4.77318e-19)
(21.021 22.6305 -1.02126e-18)
(20.4505 23.1768 5.40105e-19)
(19.7943 23.6955 -1.99125e-20)
(19.0334 24.1749 -1.55252e-20)
(18.1462 24.6013 -5.78407e-21)
(17.1073 24.96 -3.26711e-19)
(15.8875 25.2353 3.63228e-19)
(14.4548 25.4128 0)
(12.7731 25.4754 -3.74542e-21)
(10.8026 25.3841 0)
(8.50691 25.087 6.81676e-20)
(5.87456 24.6411 -5.79513e-20)
(2.92477 24.2479 5.17832e-20)
(-0.208474 23.4853 -7.86347e-20)
(25.3108 10.3289 4.09249e-22)
(25.2947 10.6026 9.37256e-22)
(25.2769 10.8734 -2.83196e-21)
(25.2534 11.1501 0)
(25.2236 11.432 -1.40081e-21)
(25.187 11.7192 1.1849e-20)
(25.1429 12.0116 -1.17249e-20)
(25.0911 12.3094 -3.43029e-20)
(25.0308 12.6125 4.17827e-20)
(24.9616 12.9213 0)
(24.883 13.2359 0)
(24.7945 13.5566 0)
(24.6959 13.8836 8.39003e-20)
(24.5865 14.2172 -1.67584e-19)
(24.4657 14.5573 9.18025e-20)
(24.3329 14.9043 -1.07418e-19)
(24.187 15.258 1.07948e-19)
(24.0268 15.6188 0)
(23.8509 15.9867 8.48671e-21)
(23.6578 16.3619 -6.17746e-21)
(23.4459 16.7448 -1.40629e-19)
(23.213 17.1355 1.42689e-19)
(22.9571 17.5347 -4.12467e-21)
(22.676 17.9426 1.78765e-19)
(22.3667 18.3592 -1.66444e-19)
(22.0264 18.7849 0)
(21.6514 19.219 0)
(21.2378 19.6607 6.24562e-21)
(20.7812 20.1081 0)
(20.2763 20.5584 0)
(19.7182 21.0075 -5.55667e-21)
(19.1013 21.4496 8.64876e-20)
(18.42 21.8757 -8.37538e-20)
(17.6693 22.2743 5.45554e-20)
(16.8454 22.6305 -7.26973e-20)
(15.9467 22.9252 2.28298e-20)
(14.9741 23.1356 3.16074e-20)
(13.932 23.2325 -9.25833e-20)
(12.8297 23.1809 1.17477e-19)
(11.6879 22.9396 -5.37093e-20)
(10.5425 22.4687 -1.15598e-20)
(9.42143 21.7255 0)
(8.31772 20.6599 2.32221e-20)
(25.0382 10.3234 0)
(25.0117 10.5685 -2.32601e-21)
(24.9821 10.8115 -6.15928e-21)
(24.947 11.0592 -6.74225e-21)
(24.906 11.3112 1.42243e-20)
(24.8586 11.5675 -3.65008e-21)
(24.8044 11.8279 -1.43149e-20)
(24.7427 12.0924 7.25223e-21)
(24.673 12.3611 -3.25111e-21)
(24.5948 12.6341 0)
(24.5073 12.9113 0)
(24.4101 13.1931 2.10796e-20)
(24.3027 13.4798 -4.66193e-20)
(24.1849 13.7715 5.69952e-20)
(24.056 14.0683 -3.10387e-20)
(23.9157 14.3704 -5.60996e-22)
(23.763 14.6776 0)
(23.5973 14.9901 0)
(23.4174 15.3075 4.81044e-20)
(23.222 15.6297 -5.14158e-20)
(23.0096 15.9563 0)
(22.7784 16.2871 0)
(22.5267 16.6214 -6.07005e-20)
(22.2522 16.9587 1.15302e-19)
(21.9525 17.2981 -1.12745e-19)
(21.625 17.6386 5.62992e-20)
(21.2668 17.9786 0)
(20.8745 18.3162 4.0855e-21)
(20.4445 18.6487 1.37128e-20)
(19.9731 18.973 -7.79443e-21)
(19.4562 19.2848 -4.39428e-21)
(18.8899 19.5788 1.6058e-20)
(18.2702 19.8481 1.99062e-20)
(17.5938 20.0843 1.96031e-20)
(16.8585 20.2774 -5.49642e-20)
(16.0643 20.4161 -4.64149e-20)
(15.2134 20.4876 -2.36098e-20)
(14.312 20.4771 7.76831e-20)
(13.3713 20.3695 0)
(12.4097 20.151 -2.89095e-20)
(11.4546 19.8116 6.30249e-20)
(10.5418 19.3422 1.66326e-20)
(9.71985 18.7385 -3.52729e-20)
(24.7966 10.3046 1.13932e-20)
(24.7627 10.5232 8.61386e-21)
(24.7253 10.742 0)
(24.6826 10.9643 2.34412e-20)
(24.6345 11.1905 -2.13611e-20)
(24.5808 11.4203 0)
(24.5209 11.6536 0)
(24.4544 11.8903 -2.18194e-20)
(24.3808 12.1304 2.2972e-20)
(24.2994 12.374 -2.05725e-20)
(24.2095 12.6208 1.38374e-20)
(24.1105 12.8712 -3.96926e-22)
(24.0018 13.1252 1.17252e-20)
(23.8827 13.3831 -1.44008e-20)
(23.7531 13.6449 1.84779e-20)
(23.6124 13.911 -1.79585e-20)
(23.46 14.1811 -2.48806e-21)
(23.2952 14.4553 0)
(23.1173 14.7334 1.27604e-21)
(22.9252 15.015 -1.74704e-20)
(22.7175 15.2999 1.77774e-20)
(22.4929 15.5875 1.95391e-20)
(22.2497 15.8772 -1.97617e-20)
(21.9863 16.1684 -1.37342e-20)
(21.7009 16.46 1.56895e-20)
(21.3913 16.7507 0)
(21.0555 17.0391 0)
(20.6912 17.3233 2.92621e-21)
(20.2959 17.6003 0)
(19.8673 17.8675 4.76776e-21)
(19.4033 18.121 3.5003e-21)
(18.9014 18.3556 0)
(18.3602 18.5657 1.12663e-19)
(17.7787 18.7443 -2.02109e-19)
(17.157 18.8833 7.41637e-20)
(16.4969 18.9733 1.10827e-19)
(15.8025 19.0047 -1.03989e-19)
(15.0801 18.9666 -1.89131e-20)
(14.3401 18.8488 -9.05303e-20)
(13.596 18.6425 5.65797e-20)
(12.8658 18.3424 -1.27365e-20)
(12.17 17.9482 -1.49398e-20)
(11.5327 17.4665 1.72603e-20)
(24.5824 10.2752 -7.72599e-21)
(24.5442 10.471 7.48295e-21)
(24.5017 10.6685 -7.20968e-21)
(24.4542 10.8688 -2.39466e-20)
(24.4017 11.0725 2.2015e-20)
(24.3441 11.2794 2.15276e-20)
(24.2812 11.4893 -2.12982e-20)
(24.2122 11.7022 0)
(24.1367 11.9182 5.65786e-21)
(24.0544 12.1373 4.42522e-20)
(23.9644 12.359 -3.24802e-21)
(23.866 12.5836 -2.85687e-20)
(23.7584 12.811 0)
(23.6409 13.0414 2.73005e-21)
(23.513 13.2751 3.09315e-20)
(23.3744 13.512 -2.59792e-20)
(23.2245 13.7524 2.52263e-21)
(23.063 13.9962 0)
(22.8891 14.2431 -1.29505e-21)
(22.7021 14.4928 1.34949e-21)
(22.501 14.745 -1.4347e-21)
(22.2843 14.9989 -3.51781e-20)
(22.0507 15.254 8.23697e-20)
(21.7988 15.5094 -4.62764e-20)
(21.5268 15.7641 0)
(21.233 16.0168 6.00023e-20)
(20.9157 16.2659 -6.64955e-20)
(20.5729 16.5093 7.42182e-20)
(20.2026 16.7444 -7.35956e-20)
(19.8029 16.9686 -4.829e-21)
(19.3724 17.1785 2.37051e-21)
(18.9096 17.3698 0)
(18.4137 17.5373 0)
(17.8845 17.6753 1.03782e-19)
(17.3227 17.7775 -2.06626e-19)
(16.7308 17.8364 -4.42555e-20)
(16.1129 17.8447 5.74229e-20)
(15.4756 17.795 1.1616e-19)
(14.8279 17.6805 7.35222e-20)
(14.1816 17.4959 -7.44132e-20)
(13.5509 17.2386 0)
(12.9515 16.9099 1.03835e-19)
(12.3998 16.5162 -7.08111e-20)
(24.3917 10.2387 2.78343e-22)
(24.3518 10.4154 -8.58587e-21)
(24.3066 10.5942 -8.461e-21)
(24.2563 10.7753 1.55965e-20)
(24.2014 10.9595 6.69208e-21)
(24.1419 11.1468 -2.84651e-20)
(24.0778 11.3369 4.80008e-20)
(24.0082 11.5295 -3.4858e-20)
(23.9323 11.725 -5.78551e-20)
(23.8506 11.9236 4.62091e-20)
(23.7623 12.1248 1.25201e-20)
(23.6663 12.3283 -5.25083e-21)
(23.5618 12.5343 7.04387e-21)
(23.4479 12.7426 0)
(23.3238 12.9535 4.92421e-20)
(23.1894 13.1672 -5.45351e-20)
(23.0439 13.3836 5.09001e-20)
(22.8869 13.6029 -5.13037e-20)
(22.718 13.8252 3.88701e-21)
(22.5371 14.0499 0)
(22.343 14.2766 0)
(22.1346 14.5047 6.06631e-20)
(21.9108 14.7336 -6.50385e-20)
(21.6704 14.9623 0)
(21.4117 15.1899 5.54863e-21)
(21.1335 15.4152 6.04191e-21)
(20.8341 15.6367 5.03039e-21)
(20.5127 15.8523 -1.01918e-19)
(20.1667 16.0591 1.05871e-19)
(19.7948 16.2548 -5.96783e-20)
(19.3957 16.4366 1.29931e-19)
(18.9689 16.6007 7.90426e-21)
(18.5144 16.7425 -9.04324e-20)
(18.0319 16.8568 0)
(17.5225 16.9383 -1.12588e-19)
(16.9884 16.981 2.952e-19)
(16.4334 16.9784 -2.54124e-19)
(15.8632 16.9256 8.70715e-20)
(15.286 16.8175 2.42121e-20)
(14.7113 16.6503 5.83228e-20)
(14.1502 16.4226 -3.0125e-20)
(13.6147 16.1355 -7.00744e-20)
(13.1166 15.7947 3.65181e-20)
(24.2237 10.1976 -1.99778e-20)
(24.1823 10.3591 -4.73143e-21)
(24.1357 10.5214 4.69941e-21)
(24.0843 10.6859 9.74902e-21)
(24.0283 10.8532 0)
(23.9679 11.0235 0)
(23.904 11.1968 -2.60224e-20)
(23.8352 11.372 4.11129e-20)
(23.7596 11.5499 0)
(23.679 11.7313 0)
(23.5926 11.9153 1.5037e-21)
(23.4995 12.1016 6.36641e-20)
(23.3988 12.2902 -6.9399e-21)
(23.2895 12.4807 -6.37204e-20)
(23.17 12.6734 0)
(23.0407 12.8684 -6.59609e-20)
(22.9006 13.0655 6.63547e-20)
(22.7488 13.2649 6.94951e-20)
(22.5848 13.4671 -1.46188e-19)
(22.4097 13.672 7.79815e-20)
(22.2226 13.8782 0)
(22.0217 14.0856 -5.58654e-21)
(21.8063 14.2939 0)
(21.5763 14.5015 0)
(21.3281 14.7081 -5.61961e-21)
(21.063 14.9124 1.0538e-19)
(20.7767 15.1127 -1.22126e-19)
(20.4723 15.3081 -7.3612e-21)
(20.146 15.4943 -7.35224e-20)
(19.7961 15.6693 -1.49175e-20)
(19.4207 15.8304 9.3864e-20)
(19.0196 15.9753 1.0102e-19)
(18.5944 16.0997 -1.18118e-19)
(18.1449 16.1984 1.57555e-20)
(17.6725 16.2671 5.4696e-20)
(17.1792 16.3002 -7.29175e-20)
(16.6686 16.2921 2.0536e-20)
(16.1442 16.2391 -1.46334e-19)
(15.6147 16.1378 7.33305e-20)
(15.088 15.9852 2.75356e-20)
(14.574 15.7804 -1.04321e-21)
(14.0822 15.5238 -3.43334e-20)
(13.6215 15.2197 3.82436e-20)
(24.0691 10.1522 1.00411e-20)
(24.0306 10.3033 1.13597e-20)
(23.985 10.4512 0)
(23.934 10.6015 -2.07482e-20)
(23.8783 10.7543 0)
(23.8177 10.91 -1.05254e-20)
(23.7548 11.0687 0)
(23.6889 11.2296 -2.83527e-20)
(23.614 11.3919 3.83384e-20)
(23.5341 11.5586 -4.80546e-20)
(23.4497 11.7282 2.89933e-20)
(23.3592 11.8999 -2.78557e-20)
(23.262 12.0744 3.78268e-20)
(23.1581 12.251 0)
(23.0435 12.4287 -5.1195e-21)
(22.9194 12.6089 0)
(22.7852 12.7907 -4.0713e-20)
(22.6396 12.9741 3.55731e-20)
(22.4804 13.1594 0)
(22.3102 13.3485 -4.43818e-20)
(22.1298 13.5389 -1.47114e-21)
(21.9375 13.7299 9.67318e-20)
(21.7276 13.9207 -5.72652e-20)
(21.5101 14.1123 -7.26675e-21)
(21.2686 14.3004 0)
(21.0176 14.4892 8.30635e-21)
(20.7401 14.6721 7.96713e-21)
(20.4491 14.8533 7.60588e-20)
(20.1388 15.0247 -7.79919e-20)
(19.8085 15.1848 1.13868e-20)
(19.4545 15.3294 0)
(19.074 15.4589 1.10442e-19)
(18.6727 15.5708 -9.93977e-20)
(18.2492 15.6592 5.19711e-20)
(17.8057 15.7205 -5.14499e-20)
(17.3441 15.7498 1.99969e-20)
(16.8695 15.7397 2.21417e-20)
(16.3792 15.687 2.40203e-20)
(15.885 15.5913 -2.65848e-20)
(15.3922 15.45 0)
(14.9115 15.2636 0)
(14.4514 15.0309 -1.33121e-21)
(14.0176 14.755 -9.87044e-22)
(23.9172 10.1032 5.94124e-21)
(23.8919 10.2502 -1.1456e-20)
(23.8511 10.3852 -5.61629e-21)
(23.802 10.5229 4.63558e-20)
(23.7484 10.6643 -2.33323e-20)
(23.6888 10.8082 4.88275e-21)
(23.6256 10.9534 -1.62593e-20)
(23.5652 11.1032 1.14604e-20)
(23.4917 11.2503 5.04292e-20)
(23.4121 11.4043 -3.38687e-20)
(23.3307 11.5626 4.36238e-20)
(23.2442 11.7219 -5.88334e-20)
(23.1488 11.8832 0)
(23.0521 12.0513 4.3354e-20)
(22.944 12.2168 -3.26397e-20)
(22.8265 12.3854 0)
(22.6977 12.5543 4.56543e-20)
(22.5611 12.7267 -8.77517e-20)
(22.408 12.8972 1.03212e-19)
(22.2424 13.0738 -5.55836e-20)
(22.0645 13.2516 0)
(21.8838 13.4317 1.40546e-20)
(21.6691 13.604 -5.19423e-20)
(21.4691 13.7872 6.72249e-20)
(21.2275 13.9533 6.659e-20)
(20.9951 14.134 -6.67253e-20)
(20.7234 14.298 0)
(20.4455 14.4703 -8.34145e-20)
(20.1502 14.6313 -1.6478e-20)
(19.8347 14.7824 7.93301e-20)
(19.5043 14.9159 0)
(19.1444 15.0316 -1.47142e-20)
(18.7715 15.1347 0)
(18.3795 15.2153 -8.60709e-20)
(17.9664 15.2708 3.25416e-20)
(17.5319 15.3009 6.21974e-20)
(17.0918 15.2918 -1.05657e-19)
(16.6256 15.2379 -2.55454e-20)
(16.1578 15.1447 2.7799e-20)
(15.6876 15.0097 -1.32232e-20)
(15.2316 14.8366 -1.54102e-20)
(14.7967 14.6229 -3.48818e-20)
(14.3723 14.3742 0)
(-2.74488 20.9086 -2.22021e-20)
(-1.73269 18.6024 0)
(-0.692206 16.8188 -2.49713e-20)
(0.244499 15.4314 0)
(1.08689 14.3153 -1.17642e-18)
(1.8519 13.3801 1.13475e-18)
(2.56109 12.5972 0)
(3.2216 11.9332 0)
(3.83628 11.3633 4.22725e-20)
(4.40747 10.8694 0)
(4.93827 10.4373 2.21008e-18)
(5.43076 10.0551 -4.24218e-18)
(5.88805 9.71381 2.03511e-18)
(6.31313 9.40648 2.02061e-18)
(6.70863 9.12715 -1.95439e-18)
(7.07762 8.87154 1.87223e-18)
(7.42261 8.63593 -3.69642e-18)
(7.74592 8.41727 1.82839e-18)
(8.04973 8.21298 3.4588e-18)
(8.33627 8.02145 -6.76316e-18)
(8.60715 7.84059 3.36856e-18)
(8.86405 7.66909 -2.01811e-21)
(9.10836 7.50561 -5.15088e-20)
(9.34145 7.34933 0)
(9.56426 7.19909 -3.13983e-18)
(9.77787 7.05444 3.0488e-18)
(9.98301 6.91449 0)
(10.1805 6.77876 2.96639e-18)
(10.3708 6.64673 -3.04294e-18)
(10.5545 6.51799 -9.29985e-20)
(10.732 6.39224 1.36516e-18)
(10.9039 6.26921 -3.35749e-21)
(11.0704 6.14863 -1.45909e-18)
(11.232 6.03036 -1.54858e-18)
(11.3888 5.91417 2.83194e-18)
(11.5413 5.79999 -1.47042e-18)
(11.6896 5.68758 1.83083e-19)
(11.8341 5.57683 0)
(11.9748 5.46762 1.63541e-18)
(12.112 5.35983 -1.6176e-18)
(12.2457 5.25366 0)
(12.3759 5.14996 -1.7322e-19)
(12.505 5.03683 1.69887e-19)
(7.28052 19.3288 -4.32746e-19)
(6.63434 17.9779 9.22118e-19)
(6.29524 16.7764 -5.14915e-19)
(6.16304 15.7182 -1.08709e-18)
(6.16693 14.7858 1.07749e-18)
(6.2605 13.9615 1.12879e-18)
(6.41333 13.2314 2.21796e-20)
(6.60506 12.5835 -1.10001e-18)
(6.82133 12.0071 0)
(7.05237 11.4931 0)
(7.29043 11.0326 -3.21992e-20)
(7.5308 10.6183 2.03336e-18)
(7.77002 10.2439 -3.88875e-18)
(8.0058 9.90348 -3.44706e-22)
(8.23688 9.59253 1.86292e-18)
(8.46216 9.3069 -5.47505e-20)
(8.68122 9.043 1.08513e-19)
(8.89367 8.79786 1.66066e-18)
(9.09978 8.56912 -1.6256e-18)
(9.29958 8.35465 0)
(9.49314 8.15253 0)
(9.68068 7.96128 -4.9416e-20)
(9.86256 7.77962 0)
(10.0389 7.6064 0)
(10.2101 7.44071 -1.44509e-18)
(10.3763 7.28169 2.94365e-18)
(10.5377 7.12869 -4.72007e-21)
(10.6945 6.98107 -1.35219e-18)
(10.8468 6.83833 -1.5167e-18)
(10.9949 6.70011 4.71503e-21)
(11.1389 6.56599 4.35208e-18)
(11.2792 6.43567 -5.59841e-18)
(11.4159 6.30885 2.94274e-18)
(11.5491 6.18526 1.33892e-18)
(11.6792 6.0647 -1.52945e-18)
(11.8062 5.9469 0)
(11.9304 5.83167 -2.72497e-19)
(12.0519 5.71877 0)
(12.1709 5.60797 1.79437e-19)
(12.2873 5.49913 1.79461e-19)
(12.4011 5.39236 -8.79649e-19)
(12.512 5.28819 6.93413e-19)
(12.6209 5.17594 -1.65118e-19)
(9.04591 18.0178 -3.18157e-19)
(8.55514 17.2261 3.00014e-19)
(8.2196 16.4152 2.64067e-20)
(8.01178 15.6211 8.62578e-19)
(7.90529 14.8645 -8.32501e-19)
(7.87716 14.156 0)
(7.90967 13.4997 0)
(7.98751 12.8959 0)
(8.09902 12.3429 9.32679e-19)
(8.2345 11.8371 -8.53339e-19)
(8.3866 11.3749 0)
(8.54986 10.9521 1.86203e-18)
(8.71973 10.5646 -1.81605e-18)
(8.89323 10.2087 0)
(9.06787 9.88083 0)
(9.24196 9.57778 -1.61773e-18)
(9.41402 9.29653 1.52864e-18)
(9.58354 9.03481 0)
(9.74977 8.79032 -5.03352e-20)
(9.91232 8.56112 0)
(10.0711 8.3455 -4.70662e-20)
(10.2261 8.14199 0)
(10.377 7.94923 -1.47423e-18)
(10.5242 7.76618 1.45075e-18)
(10.6676 7.5918 -1.38366e-18)
(10.8072 7.42516 1.41167e-18)
(10.9431 7.26554 -1.39589e-18)
(11.0755 7.11228 1.47352e-18)
(11.2044 6.96482 8.71248e-20)
(11.3301 6.8227 -2.66403e-18)
(11.4527 6.68542 4.12732e-18)
(11.5724 6.55266 -1.46443e-18)
(11.6893 6.42397 -8.70564e-20)
(11.8036 6.2991 8.74298e-20)
(11.9155 6.17773 1.3957e-18)
(12.0251 6.05965 -1.40852e-18)
(12.1326 5.94452 1.77017e-19)
(12.238 5.83209 0)
(12.3415 5.72207 6.16098e-19)
(12.4431 5.61428 -7.02705e-19)
(12.5426 5.50851 5.20975e-19)
(12.6404 5.40475 -3.42241e-19)
(12.7381 5.29441 1.65623e-19)
(10.9753 16.913 1.30476e-19)
(10.5104 16.3096 -1.5115e-19)
(10.1395 15.6811 -4.75127e-20)
(9.85806 15.0493 -2.52732e-20)
(9.65653 14.4303 0)
(9.52374 13.8349 0)
(9.44851 13.2695 8.50763e-19)
(9.42023 12.7376 -8.89607e-19)
(9.42952 12.2405 0)
(9.46849 11.7781 -1.11682e-19)
(9.53066 11.349 0)
(9.61068 10.9513 -1.34017e-21)
(9.70404 10.5827 0)
(9.80742 10.2407 0)
(9.91797 9.92309 0)
(10.0332 9.62736 0)
(10.1515 9.35154 5.05302e-20)
(10.2715 9.09364 -1.52569e-18)
(10.3923 8.85185 -3.00189e-21)
(10.5132 8.62468 1.5144e-18)
(10.6336 8.41054 4.69791e-20)
(10.753 8.20814 0)
(10.8711 8.01631 -1.39582e-18)
(10.9878 7.83401 1.41583e-18)
(11.1026 7.66026 -8.71676e-20)
(11.2153 7.49424 -1.37804e-18)
(11.326 7.33533 1.20515e-21)
(11.4345 7.1829 1.35477e-18)
(11.5409 7.03642 1.26434e-18)
(11.6451 6.89542 -8.64291e-20)
(11.7474 6.75951 -1.9384e-21)
(11.8477 6.62822 -2.60963e-18)
(11.9462 6.50123 2.70385e-18)
(12.0429 6.37821 -6.81136e-19)
(12.1378 6.2589 -6.84286e-19)
(12.2313 6.14308 0)
(12.3232 6.03038 -7.7997e-19)
(12.4138 5.92055 6.96094e-19)
(12.503 5.81331 6.06233e-19)
(12.5907 5.70853 -6.91413e-19)
(12.6768 5.60614 8.5275e-20)
(12.7611 5.50656 3.37872e-19)
(12.8433 5.40491 -5.05219e-19)
(11.9082 16.0682 -1.26707e-19)
(11.4837 15.5782 -2.35329e-19)
(11.1297 15.061 4.0906e-19)
(10.8452 14.5324 4.88711e-20)
(10.6259 14.0052 3.65376e-19)
(10.465 13.489 -8.38706e-19)
(10.355 12.9904 4.75453e-19)
(10.2875 12.514 -5.35859e-20)
(10.2555 12.063 0)
(10.2527 11.6384 1.08683e-19)
(10.2741 11.2403 8.65541e-19)
(10.3148 10.868 -8.98943e-19)
(10.3708 10.52 5.19807e-20)
(10.4389 10.1948 8.80811e-19)
(10.516 9.89071 -1.57433e-18)
(10.5998 9.60611 1.59613e-18)
(10.6884 9.33945 -7.81949e-19)
(10.7805 9.08922 7.22691e-19)
(10.8751 8.854 -1.51275e-18)
(10.9714 8.63242 7.88995e-19)
(11.0686 8.42316 0)
(11.1662 8.22507 -1.43798e-18)
(11.2636 8.03707 1.32168e-18)
(11.3604 7.85819 0)
(11.4561 7.68759 1.41238e-18)
(11.5505 7.5246 -1.31091e-18)
(11.6435 7.36864 0)
(11.735 7.21913 -1.08113e-21)
(11.8249 7.07563 1.03234e-21)
(11.9133 6.93768 5.78371e-19)
(12.0004 6.80485 -6.60711e-19)
(12.0861 6.67672 -5.78922e-19)
(12.1704 6.5529 7.46694e-19)
(12.2532 6.43314 5.83758e-19)
(12.3348 6.31725 -5.8829e-19)
(12.4153 6.20492 -6.75885e-19)
(12.4948 6.0958 6.8179e-19)
(12.5733 5.98957 -5.98216e-19)
(12.6506 5.88598 6.83709e-19)
(12.7267 5.78484 -3.40162e-19)
(12.8014 5.68602 -8.43008e-20)
(12.8747 5.58942 5.85383e-19)
(12.947 5.48935 -8.23582e-20)
(12.6651 15.4081 0)
(12.2655 14.9854 4.37286e-20)
(11.9228 14.5374 -3.80056e-19)
(11.6368 14.0759 3.78986e-19)
(11.4063 13.6116 5.05619e-20)
(11.2279 13.152 -4.19207e-19)
(11.0947 12.7026 4.13596e-19)
(10.9991 12.2689 -3.75467e-19)
(10.9366 11.8549 4.20921e-19)
(10.9027 11.4623 -5.35556e-20)
(10.8932 11.0917 0)
(10.904 10.7428 0)
(10.9315 10.4145 -1.03258e-19)
(10.972 10.1058 -5.12921e-20)
(11.0227 9.8157 -5.04688e-20)
(11.0811 9.54319 -8.3872e-19)
(11.1456 9.28705 1.54784e-18)
(11.215 9.0461 -7.11721e-19)
(11.2881 8.8192 0)
(11.3644 8.60496 -9.19451e-20)
(11.4428 8.40228 0)
(11.5224 8.21009 0)
(11.6027 8.02739 -6.52432e-19)
(11.6829 7.85335 6.84452e-19)
(11.7627 7.68733 0)
(11.8418 7.52874 -4.19862e-20)
(11.9201 7.37698 0)
(11.9973 7.23164 5.74325e-19)
(12.0735 7.09229 -1.22515e-18)
(12.149 6.95851 1.63158e-19)
(12.2235 6.82974 6.51377e-19)
(12.2971 6.70562 -8.19028e-20)
(12.3695 6.58577 4.90359e-19)
(12.4407 6.47003 -5.74933e-19)
(12.511 6.35832 5.77874e-19)
(12.5808 6.25021 -6.66316e-19)
(12.6499 6.14522 -6.70625e-19)
(12.7182 6.04316 1.01011e-18)
(12.7856 5.9438 -3.80166e-22)
(12.8519 5.84686 -4.20128e-19)
(12.9171 5.75236 0)
(12.9817 5.66005 -8.311e-20)
(13.0457 5.56543 -8.2677e-20)
(13.2001 14.8744 4.09711e-20)
(12.8199 14.4974 4.34455e-20)
(12.4904 14.0966 -4.56954e-20)
(12.2074 13.6821 -4.8461e-19)
(11.9747 13.2644 3.86694e-19)
(11.7913 12.8469 0)
(11.648 12.4336 4.16007e-19)
(11.5348 12.0326 -8.2885e-19)
(11.4537 11.6486 4.63588e-19)
(11.4003 11.2825 0)
(11.3716 10.9354 0)
(11.3637 10.6067 8.758e-19)
(11.3733 10.2955 -7.04669e-19)
(11.3955 10.0013 -8.0351e-19)
(11.4277 9.72397 -5.51252e-20)
(11.4681 9.46291 8.22114e-19)
(11.5155 9.2172 0)
(11.5688 8.9856 -5.88039e-22)
(11.6267 8.76725 -7.8586e-19)
(11.6891 8.5605 7.70049e-19)
(11.7536 8.36438 0)
(11.8199 8.17822 0)
(11.8874 8.00107 0)
(11.9552 7.83236 0)
(12.0228 7.67136 -4.1532e-20)
(12.09 7.51745 0)
(12.1567 7.37024 4.06943e-20)
(12.2228 7.22944 0)
(12.2882 7.09477 0)
(12.3537 6.96541 -7.24951e-19)
(12.4181 6.84092 8.01671e-20)
(12.4819 6.72098 1.36813e-18)
(12.5446 6.60531 -5.64777e-19)
(12.6063 6.49398 0)
(12.6675 6.38683 -8.12229e-20)
(12.7289 6.28314 -3.28267e-19)
(12.7895 6.18237 3.3097e-19)
(12.8491 6.08465 2.48924e-19)
(12.9082 5.98979 -6.65365e-19)
(12.9662 5.89739 4.15732e-19)
(13.0234 5.80763 -8.24943e-20)
(13.0804 5.72045 8.19176e-20)
(13.1374 5.63119 8.30034e-20)
(13.6209 14.4377 -5.63958e-23)
(13.2507 14.0937 -4.27477e-20)
(12.9361 13.7242 4.4942e-20)
(12.6518 13.3441 9.31776e-20)
(12.4199 12.9635 1.9552e-19)
(12.2398 12.5778 -1.93669e-19)
(12.0912 12.1889 -3.55622e-19)
(11.96 11.8151 3.99707e-19)
(11.8687 11.4562 -4.10324e-19)
(11.8017 11.1123 4.02215e-19)
(11.7605 10.7847 -5.02619e-20)
(11.7402 10.4731 -5.04163e-20)
(11.7377 10.1752 -5.20904e-22)
(11.7451 9.89336 -3.94048e-19)
(11.7628 9.62727 4.34052e-19)
(11.7892 9.37693 0)
(11.8236 9.14118 0)
(11.8648 8.91849 -4.64768e-20)
(11.9115 8.7082 -6.83546e-19)
(11.9636 8.50734 7.1345e-19)
(12.0162 8.31761 0)
(12.0728 8.13725 -4.28481e-20)
(12.1303 7.96597 7.21034e-19)
(12.1881 7.80266 -6.26327e-19)
(12.2459 7.64659 4.14372e-20)
(12.3037 7.49691 -1.2656e-18)
(12.3609 7.35421 6.45736e-19)
(12.4179 7.21826 1.28443e-18)
(12.4748 7.08835 -6.78505e-19)
(12.5323 6.96286 3.96524e-20)
(12.5881 6.84269 -1.19396e-19)
(12.6441 6.72685 -7.98535e-20)
(12.699 6.61567 0)
(12.7528 6.50899 0)
(12.8068 6.40643 8.07638e-20)
(12.8616 6.30661 0)
(12.9145 6.2098 3.26554e-19)
(12.9667 6.11647 -6.56483e-19)
(13.0191 6.02661 8.21565e-20)
(13.0701 5.9387 1.645e-19)
(13.12 5.85355 1.63984e-19)
(13.1702 5.77145 1.62635e-19)
(13.2202 5.68715 -8.19383e-20)
(13.9872 14.0721 -7.81276e-20)
(13.6056 13.7595 8.44025e-20)
(13.3103 13.4039 -8.57115e-20)
(13.0119 13.0518 -9.21533e-20)
(12.7811 12.7063 0)
(12.6057 12.3425 -4.60683e-20)
(12.4505 11.964 -2.32332e-22)
(12.2965 11.6243 4.51347e-19)
(12.2062 11.2857 -3.82009e-19)
(12.1245 10.9573 3.9784e-19)
(12.0774 10.6448 -2.91541e-19)
(12.0489 10.3481 -3.43357e-19)
(12.0388 10.0582 3.82805e-19)
(12.032 9.78962 3.38986e-19)
(12.04 9.53307 -7.17379e-19)
(12.0553 9.29438 4.29859e-19)
(12.0812 9.06762 -3.33124e-19)
(12.1139 8.85255 7.44144e-19)
(12.1531 8.6485 -3.61075e-19)
(12.199 8.4493 0)
(12.2411 8.26957 2.99124e-19)
(12.2934 8.0951 -2.8663e-19)
(12.3405 7.9308 -4.17908e-20)
(12.3899 7.77126 2.90711e-19)
(12.44 7.61909 -3.26677e-19)
(12.4909 7.4721 -4.0427e-20)
(12.5397 7.33495 -3.64373e-19)
(12.5891 7.20387 3.23852e-19)
(12.6395 7.07743 4.0603e-20)
(12.691 6.95371 -4.05126e-19)
(12.7391 6.83971 3.55147e-19)
(12.7903 6.72795 0)
(12.8369 6.62213 0)
(12.8835 6.51906 4.07496e-20)
(12.9315 6.41936 0)
(12.9809 6.32143 3.69624e-19)
(13.0263 6.22934 -6.0042e-19)
(13.073 6.14147 3.56075e-19)
(13.1202 6.05762 -1.2221e-19)
(13.1642 5.97259 -1.22837e-19)
(13.2068 5.89035 1.23654e-19)
(13.2513 5.81108 -4.29698e-20)
(13.2989 5.72755 8.4182e-20)
(7.2986 -2.68158 2.56087e-18)
(6.96575 -2.63772 -5.44794e-19)
(6.64402 -2.59515 -5.4184e-19)
(6.33326 -2.55399 5.49684e-19)
(6.03343 -2.51423 2.76681e-19)
(5.74438 -2.47584 8.32334e-19)
(5.46597 -2.43876 -5.56537e-19)
(5.198 -2.40295 0)
(4.94025 -2.36835 5.55508e-19)
(4.69245 -2.33493 5.58313e-19)
(4.45435 -2.30265 8.46087e-19)
(4.22565 -2.2715 -5.70415e-19)
(4.00604 -2.24145 5.78213e-19)
(3.79521 -2.21246 0)
(3.59286 -2.18452 5.98222e-19)
(3.39863 -2.15755 -6.17152e-19)
(3.21218 -2.13155 0)
(3.03318 -2.10643 9.77655e-19)
(2.86133 -2.08213 -6.80393e-19)
(2.69627 -2.05864 -3.54337e-19)
(2.53773 -2.03587 1.83741e-19)
(2.38557 -2.01388 1.9345e-19)
(2.23965 -1.99265 0)
(2.09987 -1.97223 4.35068e-19)
(1.96621 -1.95266 -2.23157e-21)
(1.83869 -1.93398 -4.96261e-19)
(1.71731 -1.91631 -2.68268e-19)
(1.60216 -1.89969 2.88279e-19)
(1.49337 -1.88428 3.10687e-19)
(1.3911 -1.87014 -8.40679e-20)
(1.29556 -1.85734 6.42093e-19)
(1.20708 -1.84592 -2.01375e-19)
(1.12618 -1.83593 6.60427e-19)
(1.05373 -1.82713 -1.46235e-18)
(0.99115 -1.81912 5.42378e-19)
(0.941289 -1.81096 0)
(0.909735 -1.80087 3.05593e-18)
(0.908682 -1.78634 -3.07173e-18)
(0.967129 -1.76478 0)
(1.15754 -1.73725 -2.46065e-19)
(1.67272 -1.72331 9.08297e-18)
(3.05563 -1.83781 -1.03671e-17)
(7.10144 -2.617 -1.14684e-17)
(7.194 -2.68453 -5.32435e-19)
(6.89116 -2.64496 5.48691e-19)
(6.59642 -2.60825 0)
(6.3106 -2.57277 -5.57298e-19)
(6.03372 -2.53843 -5.59088e-19)
(5.76563 -2.50516 -1.37995e-19)
(5.5062 -2.47294 7.01348e-19)
(5.25525 -2.44172 0)
(5.01261 -2.41143 0)
(4.77804 -2.38202 -2.83473e-19)
(4.55132 -2.35345 9.17547e-22)
(4.33216 -2.32569 0)
(4.1203 -2.29875 2.90467e-19)
(3.91552 -2.27265 0)
(3.71753 -2.24737 -1.13908e-21)
(3.52613 -2.22289 0)
(3.34101 -2.19921 0)
(3.16195 -2.17631 3.24041e-19)
(2.98867 -2.15416 3.33444e-19)
(2.82087 -2.13273 -3.47237e-19)
(2.65837 -2.11198 3.63377e-19)
(2.50096 -2.0919 3.81028e-19)
(2.34846 -2.07249 2.01469e-19)
(2.20077 -2.05371 2.12169e-19)
(2.05791 -2.03565 -1.13324e-18)
(1.9199 -2.01828 1.45233e-18)
(1.78692 -2.00162 -5.18516e-19)
(1.65929 -1.98566 0)
(1.53732 -1.97034 1.51512e-19)
(1.42156 -1.95554 1.62366e-19)
(1.31288 -1.94099 -3.51015e-19)
(1.21267 -1.92638 1.91021e-19)
(1.12311 -1.91105 4.18202e-19)
(1.04788 -1.89408 -9.19024e-19)
(0.993308 -1.87404 -7.54793e-19)
(0.970688 -1.84898 1.18335e-21)
(1.00067 -1.8168 6.06926e-19)
(1.12162 -1.77609 -2.65691e-18)
(1.40553 -1.73029 -5.18347e-21)
(1.99151 -1.69973 3.22796e-18)
(3.16464 -1.75898 4.68442e-19)
(5.52282 -2.1362 -5.17627e-19)
(10.2919 -3.32185 1.54606e-20)
(7.09927 -2.68059 1.76034e-21)
(6.81807 -2.64517 5.55422e-19)
(6.54391 -2.61173 5.59916e-19)
(6.2772 -2.57907 -1.12804e-18)
(6.01781 -2.54731 2.84e-19)
(5.76561 -2.51639 -8.46443e-19)
(5.52042 -2.48635 -2.83291e-19)
(5.28211 -2.45721 0)
(5.05066 -2.42894 0)
(4.8259 -2.40147 2.82928e-19)
(4.60763 -2.37471 -1.41774e-19)
(4.3956 -2.34865 -2.8893e-19)
(4.18958 -2.32331 -4.34714e-19)
(3.98937 -2.29872 -2.95509e-19)
(3.7948 -2.27492 5.98513e-19)
(3.60572 -2.2519 -3.06654e-19)
(3.42187 -2.22964 1.47692e-21)
(3.24315 -2.20811 3.23612e-19)
(3.06931 -2.1873 -3.31611e-19)
(2.90018 -2.16716 -9.746e-22)
(2.73552 -2.14762 -1.80963e-19)
(2.57526 -2.12864 0)
(2.41927 -2.11016 -1.98026e-19)
(2.26743 -2.09207 -2.09199e-19)
(2.11984 -2.07434 8.7963e-22)
(1.97665 -2.05685 2.39818e-19)
(1.83827 -2.03954 0)
(1.70525 -2.0222 0)
(1.57843 -2.00458 2.45233e-21)
(1.45908 -1.98631 0)
(1.34916 -1.96683 0)
(1.25165 -1.94541 5.6017e-19)
(1.17127 -1.92096 -1.01339e-18)
(1.11567 -1.8921 4.36714e-19)
(1.09733 -1.85715 4.80728e-19)
(1.13669 -1.81443 -5.21159e-19)
(1.26694 -1.76346 -8.42365e-19)
(1.54238 -1.70766 6.02996e-19)
(2.05683 -1.65981 0)
(2.97474 -1.65786 -3.72296e-19)
(4.58734 -1.80173 -4.149e-19)
(7.40007 -2.31831 0)
(11.9973 -3.59949 -4.24395e-19)
(7.01201 -2.67819 1.14078e-18)
(6.7516 -2.64423 0)
(6.49655 -2.61325 0)
(6.2476 -2.5831 2.81703e-19)
(6.00461 -2.55379 -5.67042e-19)
(5.76746 -2.52516 9.94425e-19)
(5.53585 -2.49721 1.41253e-19)
(5.30972 -2.4701 0)
(5.08913 -2.44387 3.55977e-20)
(4.87405 -2.41835 -3.22522e-19)
(4.66432 -2.39341 0)
(4.45969 -2.36893 -1.80656e-21)
(4.25986 -2.34492 -1.46032e-19)
(4.06462 -2.32145 4.43394e-19)
(3.87389 -2.29862 -2.99996e-19)
(3.68753 -2.27641 -7.15788e-22)
(3.50546 -2.2548 2.70827e-21)
(3.32753 -2.23375 3.23374e-19)
(3.15365 -2.21326 2.29055e-21)
(2.98367 -2.19324 1.03679e-18)
(2.81753 -2.17366 -1.80965e-19)
(2.65519 -2.15446 0)
(2.49657 -2.13549 -1.98719e-19)
(2.34169 -2.11662 2.09501e-19)
(2.19076 -2.09768 -6.65785e-19)
(2.04416 -2.0785 7.09737e-19)
(1.90241 -2.05886 -5.06299e-19)
(1.7665 -2.03844 0)
(1.63789 -2.01683 -2.90036e-19)
(1.51871 -1.99343 0)
(1.41205 -1.96744 0)
(1.32262 -1.93788 -5.48421e-19)
(1.25762 -1.90353 5.94154e-19)
(1.2283 -1.863 4.27882e-19)
(1.252 -1.81509 -4.63866e-19)
(1.35524 -1.75951 9.95624e-19)
(1.57851 -1.69865 -1.61267e-18)
(1.98575 -1.64067 -6.20231e-21)
(2.68104 -1.60666 -6.387e-19)
(3.83331 -1.64643 -3.59499e-19)
(5.71168 -1.86802 7.77078e-19)
(8.72828 -2.48057 8.00185e-19)
(13.1266 -3.77031 3.12799e-18)
(6.93378 -2.67383 -5.74361e-19)
(6.69203 -2.64215 2.8443e-19)
(6.45429 -2.61366 8.81582e-22)
(6.22153 -2.58582 5.71708e-19)
(5.99359 -2.55871 2.86974e-19)
(5.77031 -2.53203 -1.41674e-19)
(5.5512 -2.50568 2.1479e-19)
(5.33602 -2.48001 -7.16794e-20)
(5.12508 -2.45531 0)
(4.91864 -2.43138 3.5898e-19)
(4.71665 -2.40792 7.21255e-20)
(4.51884 -2.38467 2.90483e-19)
(4.3248 -2.36156 2.9508e-19)
(4.13423 -2.3387 1.49915e-19)
(3.94699 -2.31631 0)
(3.76326 -2.29446 0)
(3.58301 -2.27305 -6.3178e-19)
(3.40607 -2.25199 3.25466e-19)
(3.23238 -2.23134 -3.33034e-19)
(3.06204 -2.21101 -3.4702e-19)
(2.89492 -2.19087 -3.61047e-19)
(2.73105 -2.17088 1.88531e-19)
(2.57058 -2.15094 1.975e-19)
(2.41373 -2.13087 -2.08811e-19)
(2.26078 -2.11039 2.2161e-19)
(2.11222 -2.08921 -2.34818e-19)
(1.96886 -2.06704 2.50797e-19)
(1.83206 -2.04351 0)
(1.70394 -2.0181 0)
(1.58743 -1.99005 3.8916e-20)
(1.48678 -1.95836 2.5322e-19)
(1.4082 -1.9219 4.53867e-20)
(1.36095 -1.87943 0)
(1.35904 -1.82983 4.24054e-19)
(1.42311 -1.77267 4.5211e-19)
(1.58336 -1.70919 -4.86969e-19)
(1.88491 -1.64427 1.04364e-18)
(2.39743 -1.58999 -2.86026e-21)
(3.22892 -1.57346 1.8464e-18)
(4.54509 -1.65183 6.78501e-19)
(6.59312 -1.93419 -7.2588e-19)
(9.7077 -2.61241 -7.33321e-19)
(13.9616 -3.89362 0)
(6.86102 -2.66838 -2.80468e-19)
(6.63733 -2.64059 -2.85618e-19)
(6.41593 -2.61337 -2.86878e-19)
(6.19785 -2.58733 1.43888e-19)
(5.98356 -2.56216 -4.31766e-19)
(5.77316 -2.53722 -2.87491e-19)
(5.56572 -2.51202 -2.52741e-19)
(5.36045 -2.48717 -3.60627e-20)
(5.15804 -2.46351 -2.89568e-19)
(4.95923 -2.4409 -2.90611e-19)
(4.76424 -2.41883 0)
(4.57285 -2.39682 1.46717e-19)
(4.38451 -2.37451 -4.44566e-19)
(4.19848 -2.35196 1.55785e-21)
(4.01458 -2.32965 -1.52754e-19)
(3.83322 -2.30794 -8.82429e-22)
(3.65488 -2.28662 -3.19072e-19)
(3.47917 -2.26531 2.8235e-22)
(3.30591 -2.24425 2.20903e-21)
(3.13557 -2.22346 5.23578e-19)
(2.96794 -2.20251 1.81529e-19)
(2.80307 -2.18147 1.90174e-19)
(2.64124 -2.16034 3.98141e-19)
(2.48299 -2.13898 -2.09893e-19)
(2.32867 -2.11691 2.21244e-19)
(2.17899 -2.09376 -2.35531e-19)
(2.03491 -2.06915 -3.7722e-19)
(1.89804 -2.04272 1.34479e-19)
(1.77108 -2.01402 0)
(1.65799 -1.98224 -3.10963e-19)
(1.56412 -1.9462 -3.32584e-19)
(1.49689 -1.90461 0)