/*--------------------------------*- C++ -*----------------------------------*\
| =========                 |                                                 |
| \\      /  F ield         | OpenFOAM: The Open Source CFD Toolbox           |
|  \\    /   O peration     | Version:  2.3.0                                 |
|   \\  /    A nd           | Web:      www.OpenFOAM.org                      |
|    \\/     M anipulation  |                                                 |
\*---------------------------------------------------------------------------*/
FoamFile
{
    version     2.0;
    format      ascii;
    class       volScalarField;
    location    "10000";
    object      p;
}
// * * * * * * * * * * * * * * * * * * * * * * * * * * * * * * * * * * * * * //

dimensions      [0 2 -2 0 0 0 0];

internalField   nonuniform List<scalar> 
42168
(
0.152745
-0.470457
-1.11115
-1.7959
-2.49009
-3.18645
-3.89026
-4.59668
-5.31172
-6.02911
-6.75223
-7.47591
-8.20183
-8.92525
-9.64262
-10.3536
-11.0497
-11.7292
-12.3891
-13.0211
-13.6203
-14.1829
-14.6962
-15.1525
-15.5525
-15.8876
-16.1406
-16.3075
-16.3521
-16.2773
-16.0512
-15.6239
-14.945
-13.9351
-12.4673
-10.3995
-7.6365
-3.95163
1.49487
9.49685
17.3989
20.6646
34.4593
3.89488
3.40447
3.01961
2.64406
2.29541
1.97122
1.66823
1.38812
1.12815
0.89571
0.689093
0.511646
0.360694
0.242604
0.153803
0.0965846
0.0750011
0.0908445
0.144176
0.244018
0.387292
0.590283
0.859302
1.20587
1.65354
2.23772
2.97966
3.93293
5.14456
6.68758
8.62606
11.0737
14.1239
17.9143
22.6066
28.3777
35.4462
44.0463
54.4783
67.0575
82.0101
99.7835
120.561
7.12985
6.81479
6.60835
6.41985
6.26307
6.13176
6.02878
5.95403
5.90394
5.88834
5.90334
5.95898
6.05077
6.19474
6.38888
6.63821
6.95145
7.33734
7.79961
8.34951
8.99275
9.74373
10.6101
11.6055
12.7459
14.0391
15.5185
17.2098
19.1355
21.3416
23.8655
26.7732
30.1084
33.9495
38.3649
43.4385
49.26
55.9025
63.4189
71.8255
81.1432
91.4047
102.501
9.94008
9.89484
9.86957
9.85252
9.86385
9.9088
9.98528
10.0964
10.2408
10.4247
10.6436
10.9108
11.2225
11.586
12.0052
12.4841
13.0275
13.65
14.3494
15.1387
16.0278
17.0291
18.1559
19.4277
20.8535
22.4695
24.2926
26.3461
28.6687
31.2989
34.2813
37.6534
41.4747
45.7976
50.6656
56.1354
62.2391
69.0001
76.4069
84.4107
92.9137
101.736
110.63
12.835
12.7776
12.8564
12.9522
13.0806
13.2445
13.4403
13.671
13.9376
14.244
14.5901
14.9827
15.4251
15.9217
16.4732
17.0908
17.779
18.5478
19.4026
20.351
21.4027
22.5701
23.8597
25.2874
26.8706
28.6256
30.5712
32.7313
35.1404
37.8186
40.7929
44.1112
47.7999
51.9083
56.4572
61.4852
67.0105
73.0246
79.5181
86.4238
93.6627
101.096
108.55
15.4422
15.4187
15.5968
15.7841
15.9999
16.2541
16.5452
16.8642
17.2263
17.6223
18.0583
18.5397
19.07
19.6561
20.2951
20.9958
21.7718
22.6212
23.5589
24.5944
25.7379
26.996
28.3757
29.8941
31.5561
33.3942
35.4179
37.6451
40.1068
42.8243
45.8283
49.1475
52.7988
56.8225
61.2237
66.0374
71.2669
76.8984
82.8978
89.2019
95.7383
102.39
109.021
17.8178
17.8634
18.1142
18.3808
18.6663
18.993
19.3622
19.7441
20.1723
20.639
21.1305
21.6763
22.2656
22.9128
23.6169
24.3622
25.192
26.088
27.0678
28.1516
29.3393
30.6535
32.0686
33.6303
35.3207
37.1972
39.2311
41.4746
43.922
46.591
49.5216
52.7551
56.2951
60.1998
64.4607
69.0756
74.0223
79.3165
84.8857
90.7063
96.6879
102.776
108.823
20.1303
20.2364
20.5066
20.8171
21.1345
21.5118
21.9419
22.3666
22.8581
23.3745
23.8784
24.4691
25.0983
25.7756
26.527
27.2885
28.1564
29.0796
30.0674
31.181
32.3701
33.7402
35.1616
36.7546
38.4278
40.3146
42.3059
44.5476
46.9822
49.625
52.5141
55.6456
58.9867
62.6828
66.7398
71.1678
75.874
80.9574
86.2507
91.7395
97.2916
102.977
108.615
22.755
23.0751
23.1241
23.3031
23.4837
23.7878
24.2036
24.5548
25.0957
25.6906
26.1292
26.7164
27.3639
28.0033
28.6611
29.2889
30.1409
31.0633
32.0125
33.1766
34.2943
35.72
37.1069
38.7438
40.3387
42.3086
44.1288
46.1973
48.4762
51.0664
54.1222
57.4518
60.635
63.8472
67.2422
71.1
75.2896
80.245
85.5342
90.9546
96.2801
101.856
107.508
97.15
129.14
146.371
157.594
165.977
172.417
177.293
180.958
183.682
185.676
187.094
188.051
188.636
188.924
188.975
188.827
188.511
188.06
187.498
186.848
186.124
185.337
184.5
183.626
182.727
181.807
180.875
179.931
178.983
178.03
177.075
176.12
175.163
174.207
173.248
172.288
171.324
170.354
169.379
168.387
167.373
166.431
166.05
139.841
153.135
163.01
170.634
176.549
181.039
184.361
186.735
188.353
189.368
189.908
190.075
189.957
189.618
189.112
188.479
187.757
186.965
186.127
185.255
184.36
183.453
182.539
181.619
180.697
179.772
178.846
177.919
176.992
176.065
175.138
174.212
173.287
172.362
171.437
170.513
169.588
168.664
167.741
166.809
165.86
164.956
164.514
113.67
124.098
133.407
141.473
148.344
154.119
158.92
162.868
166.083
168.675
170.742
172.368
173.629
174.578
175.271
175.747
176.043
176.187
176.201
176.107
175.921
175.653
175.32
174.928
174.489
174.008
173.49
172.942
172.366
171.768
171.15
170.513
169.86
169.192
168.51
167.816
167.11
166.392
165.664
164.923
164.167
163.432
163.026
119.257
127.333
134.692
141.238
146.963
151.891
156.079
159.593
162.51
164.906
166.849
168.403
169.629
170.572
171.276
171.779
172.113
172.303
172.373
172.343
172.226
172.039
171.791
171.49
171.146
170.764
170.348
169.905
169.437
168.948
168.44
167.916
167.376
166.822
166.257
165.68
165.092
164.494
163.89
163.277
162.654
162.046
161.677
115.835
122.796
129.29
135.214
140.523
145.21
149.288
152.804
155.8
158.337
160.462
162.224
163.676
164.854
165.795
166.536
167.102
167.519
167.81
167.993
168.081
168.089
168.027
167.903
167.728
167.506
167.243
166.945
166.617
166.263
165.886
165.487
165.069
164.634
164.183
163.719
163.244
162.757
162.263
161.762
161.251
160.749
160.433
115.49
121.696
127.526
132.903
137.771
142.124
145.958
149.312
152.21
154.698
156.812
158.593
160.085
161.319
162.326
163.138
163.778
164.274
164.653
164.924
165.101
165.197
165.222
165.185
165.094
164.955
164.774
164.557
164.313
164.045
163.753
163.438
163.101
162.747
162.38
162
161.61
161.209
160.802
160.39
159.973
159.563
159.353
114.724
120.422
125.783
130.779
135.328
139.429
143.076
146.306
149.13
151.584
153.69
155.488
157.02
158.305
159.355
160.217
160.913
161.483
161.948
162.301
162.551
162.722
162.819
162.854
162.835
162.762
162.641
162.492
162.326
162.134
161.913
161.654
161.375
161.082
160.783
160.473
160.15
159.814
159.478
159.139
158.795
158.45
158.34
114.081
119.422
124.457
129.202
133.517
137.427
140.906
144.042
146.81
149.248
151.341
153.139
154.699
155.992
157.028
157.9
158.633
159.276
159.806
160.204
160.486
160.707
160.85
160.93
160.954
160.906
160.821
160.741
160.647
160.501
160.308
160.063
159.834
159.609
159.373
159.111
158.838
158.556
158.289
158.025
157.733
157.448
157.479
112.843
118.125
123.056
127.684
131.935
135.787
139.185
142.325
145.073
147.502
149.555
151.248
152.73
153.987
154.949
155.825
156.574
157.202
157.719
158.115
158.397
158.661
158.818
158.898
158.927
158.91
158.901
158.896
158.837
158.71
158.536
158.373
158.315
158.233
158.042
157.829
157.627
157.436
157.268
157.04
156.782
156.576
156.769
-136.355
-136.168
-136.032
-135.888
-135.732
-135.565
-135.386
-135.196
-134.993
-134.78
-134.555
-134.319
-134.069
-133.808
-133.534
-133.25
-132.956
-132.652
-132.34
-132.021
-131.698
-131.372
-131.044
-130.716
-130.391
-130.072
-129.759
-129.456
-129.163
-128.883
-128.619
-128.37
-128.139
-127.925
-127.728
-127.545
-127.369
-127.181
-126.94
-126.584
-125.993
-124.782
-122.068
-136.936
-136.652
-136.418
-136.175
-135.919
-135.653
-135.38
-135.1
-134.819
-134.533
-134.247
-133.963
-133.681
-133.402
-133.127
-132.858
-132.594
-132.337
-132.087
-131.842
-131.603
-131.37
-131.143
-130.923
-130.706
-130.493
-130.284
-130.08
-129.878
-129.679
-129.478
-129.276
-129.068
-128.849
-128.608
-128.328
-127.98
-127.525
-126.881
-125.839
-123.956
-120.748
-116.364
-137.559
-137.33
-137.173
-137.011
-136.842
-136.671
-136.494
-136.313
-136.128
-135.939
-135.745
-135.546
-135.344
-135.139
-134.93
-134.715
-134.495
-134.273
-134.046
-133.816
-133.582
-133.347
-133.109
-132.867
-132.622
-132.375
-132.124
-131.869
-131.608
-131.338
-131.057
-130.76
-130.437
-130.073
-129.65
-129.14
-128.495
-127.627
-126.383
-124.486
-121.482
-116.99
-111.127
-138.133
-137.923
-137.804
-137.676
-137.538
-137.395
-137.246
-137.09
-136.929
-136.763
-136.591
-136.414
-136.232
-136.043
-135.85
-135.654
-135.454
-135.247
-135.036
-134.82
-134.6
-134.375
-134.144
-133.908
-133.665
-133.412
-133.148
-132.87
-132.575
-132.259
-131.915
-131.531
-131.092
-130.582
-129.972
-129.213
-128.238
-126.931
-125.111
-122.495
-118.763
-113.739
-107.752
-138.539
-138.478
-138.381
-138.274
-138.164
-138.054
-137.937
-137.81
-137.678
-137.542
-137.396
-137.241
-137.083
-136.916
-136.743
-136.563
-136.374
-136.179
-135.974
-135.759
-135.535
-135.304
-135.066
-134.815
-134.554
-134.278
-133.983
-133.663
-133.313
-132.929
-132.505
-132.026
-131.467
-130.802
-129.997
-128.994
-127.711
-126.017
-123.729
-120.603
-116.421
-111.137
-105.22
-138.952
-138.974
-138.903
-138.806
-138.708
-138.621
-138.525
-138.412
-138.293
-138.179
-138.053
-137.909
-137.767
-137.607
-137.443
-137.268
-137.084
-136.898
-136.698
-136.475
-136.236
-135.989
-135.734
-135.463
-135.182
-134.881
-134.555
-134.193
-133.779
-133.318
-132.825
-132.261
-131.596
-130.803
-129.838
-128.626
-127.07
-125.045
-122.386
-118.88
-114.38
-108.931
-103.046
-139.548
-139.452
-139.378
-139.281
-139.182
-139.119
-139.051
-138.954
-138.839
-138.754
-138.658
-138.502
-138.378
-138.213
-138.059
-137.899
-137.711
-137.53
-137.36
-137.141
-136.872
-136.594
-136.318
-136.025
-135.729
-135.412
-135.064
-134.679
-134.198
-133.615
-133.044
-132.431
-131.678
-130.776
-129.682
-128.327
-126.584
-124.325
-121.436
-117.686
-113.011
-107.491
-101.615
-139.961
-139.93
-139.87
-139.743
-139.578
-139.513
-139.481
-139.374
-139.195
-139.088
-139.068
-138.858
-138.756
-138.548
-138.341
-138.164
-137.932
-137.685
-137.544
-137.388
-137.102
-136.742
-136.404
-136.002
-135.643
-135.323
-134.976
-134.688
-134.263
-133.419
-132.661
-132.072
-131.33
-130.381
-129.185
-127.724
-125.764
-123.175
-119.992
-115.845
-110.862
-105.278
-99.5135
-140.772
-140.992
-141.336
-141.481
-141.372
-141.386
-141.637
-141.804
-141.294
-141.204
-141.157
-140.996
-141.107
-141.264
-141.086
-141.019
-140.883
-140.541
-140.329
-140.367
-140.327
-139.979
-140.117
-139.414
-138.751
-138.176
-137.621
-137.245
-137.481
-135.981
-134.836
-133.84
-132.967
-132.158
-131.313
-130.444
-128.989
-126.592
-123.674
-119.739
-114.512
-108.328
-101.903
-113.748
-107.458
-101.555
-96.4139
-91.7436
-87.5227
-83.6794
-80.1548
-76.8949
-73.8572
-70.9973
-68.2889
-65.7014
-63.2202
-60.8256
-58.5034
-56.2484
-54.0484
-51.8985
-49.7921
-47.7239
-45.6908
-43.6896
-41.7191
-39.7734
-37.8529
-35.9569
-34.0804
-32.2248
-30.3889
-28.5701
-26.7692
-24.984
-23.2162
-21.4638
-19.7277
-18.0063
-16.3013
-14.6102
-12.9333
-11.2786
-9.63901
-7.92449
-110.347
-106.534
-102.239
-97.9423
-93.6264
-89.4629
-85.4838
-81.7071
-78.1344
-74.7552
-71.5592
-68.5292
-65.6523
-62.9109
-60.2945
-57.7913
-55.388
-53.0756
-50.846
-48.6918
-46.6052
-44.5808
-42.6124
-40.6964
-38.8268
-37.001
-35.214
-33.4627
-31.7438
-30.055
-28.3924
-26.7554
-25.1396
-23.5444
-21.9662
-20.404
-18.8555
-17.3203
-15.796
-14.281
-12.7759
-11.2906
-9.78265
-105.123
-101.275
-97.4222
-93.7124
-90.0035
-86.3907
-82.884
-79.5058
-76.2625
-73.1558
-70.189
-67.3528
-64.64
-62.0428
-59.5541
-57.1647
-54.8674
-52.6534
-50.5156
-48.4466
-46.442
-44.4976
-42.6059
-40.7632
-38.965
-37.2103
-35.4935
-33.8117
-32.1628
-30.5449
-28.9537
-27.3892
-25.8486
-24.3282
-22.8292
-21.3498
-19.8871
-18.4406
-17.0088
-15.5905
-14.1804
-12.7974
-11.464
-102.239
-98.4944
-94.9359
-91.4765
-88.0259
-84.6686
-81.4077
-78.2596
-75.2266
-72.31
-69.5099
-66.8217
-64.2394
-61.7576
-59.3707
-57.0715
-54.8541
-52.7139
-50.6434
-48.6384
-46.6918
-44.8031
-42.9643
-41.1738
-39.4284
-37.724
-36.0581
-34.4273
-32.8298
-31.2624
-29.7227
-28.2097
-26.7218
-25.2545
-23.8101
-22.3844
-20.9767
-19.5873
-18.2145
-16.8604
-15.5207
-14.196
-12.9276
-100.007
-96.454
-93.2033
-89.9518
-86.6901
-83.4935
-80.3703
-77.3412
-74.4142
-71.5907
-68.8711
-66.2533
-63.7339
-61.31
-58.9761
-56.7281
-54.5591
-52.4654
-50.4395
-48.4776
-46.5764
-44.7321
-42.9426
-41.2028
-39.5103
-37.8595
-36.2516
-34.6794
-33.1428
-31.638
-30.1632
-28.716
-27.294
-25.8954
-24.5195
-23.1632
-21.8273
-20.5094
-19.2093
-17.9272
-16.6644
-15.4009
-14.049
-97.9483
-94.5055
-91.4506
-88.359
-85.2638
-82.2135
-79.2218
-76.3075
-73.4775
-70.7396
-68.0953
-65.5429
-63.0847
-60.7194
-58.4409
-56.2461
-54.1322
-52.0887
-50.1067
-48.1876
-46.3345
-44.5391
-42.798
-41.11
-39.4715
-37.8767
-36.3238
-34.8074
-33.3294
-31.8839
-30.4694
-29.0861
-27.7271
-26.3905
-25.0794
-23.7928
-22.5228
-21.2742
-20.0473
-18.8386
-17.6533
-16.4647
-15.1619
-96.4513
-92.9458
-89.9475
-86.9454
-83.9723
-81.0408
-78.163
-75.3537
-72.6227
-69.9702
-67.4046
-64.9163
-62.5204
-60.2163
-57.9928
-55.8485
-53.7882
-51.7882
-49.8343
-47.9513
-46.1415
-44.3893
-42.6957
-41.0562
-39.4628
-37.9135
-36.4039
-34.9372
-33.5071
-32.1139
-30.75
-29.4208
-28.1182
-26.8275
-25.5753
-24.3535
-23.1378
-21.9518
-20.7936
-19.6529
-18.5362
-17.4325
-16.2538
-94.5291
-91.3163
-88.5585
-85.7188
-82.8881
-80.0692
-77.2974
-74.5647
-71.9062
-69.2888
-66.7665
-64.2786
-61.9203
-59.6527
-57.4589
-55.3579
-53.3663
-51.3903
-49.4188
-47.5718
-45.8221
-44.1066
-42.4496
-40.8537
-39.2993
-37.802
-36.3324
-34.923
-33.5432
-32.2037
-30.8923
-29.6284
-28.3801
-27.1203
-25.9456
-24.7962
-23.6152
-22.4993
-21.4171
-20.3426
-19.2842
-18.2407
-17.1708
-94.858
-90.5048
-87.6063
-84.7823
-82.032
-79.2633
-76.582
-73.8576
-71.3185
-68.7187
-66.3361
-63.8661
-61.6264
-59.4826
-57.3396
-55.3181
-53.4346
-51.3978
-49.3209
-47.631
-45.9613
-44.1862
-42.6089
-41.0855
-39.5676
-38.1331
-36.6564
-35.3062
-33.9276
-32.6416
-31.3458
-30.1376
-28.9003
-27.6013
-26.5628
-25.4762
-24.2195
-23.2172
-22.2162
-21.1537
-20.1125
-19.1007
-18.0966
-164.488
-154.334
-143.665
-134.935
-125.829
-116.068
-106.469
-97.4117
-88.879
-80.9317
-73.5767
-66.8533
-60.7545
-55.2503
-50.3314
-45.9561
-42.0737
-38.6278
-35.5747
-32.8681
-30.4625
-28.3091
-26.3583
-24.5822
-22.9474
-21.4335
-20.0174
-18.6831
-17.4158
-16.2038
-15.0401
-13.9159
-12.8263
-11.7688
-10.7386
-9.73488
-8.75691
-7.80451
-6.87436
-5.9715
-5.09377
-4.25717
-3.46264
-111.016
-110.568
-109.056
-107.179
-105.539
-103.94
-101.932
-99.3833
-96.3355
-92.9044
-89.1327
-85.1148
-80.897
-76.5579
-72.1764
-67.8194
-63.5503
-59.4218
-55.4618
-51.7148
-48.1857
-44.8832
-41.7967
-38.9243
-36.251
-33.7583
-31.4274
-29.2424
-27.1876
-25.2521
-23.4222
-21.6872
-20.0384
-18.4677
-16.9673
-15.5321
-14.1562
-12.8355
-11.5669
-10.3497
-9.17954
-8.05846
-6.96657
-115.394
-115.19
-115.201
-114.963
-114.159
-112.768
-110.979
-108.933
-106.582
-103.849
-100.744
-97.3196
-93.613
-89.6821
-85.5792
-81.3635
-77.0922
-72.8266
-68.6136
-64.498
-60.5226
-56.7151
-53.0882
-49.6547
-46.4126
-43.3568
-40.4796
-37.771
-35.2183
-32.8094
-30.531
-28.3726
-26.3266
-24.3822
-22.5321
-20.7688
-19.0862
-17.4782
-15.9418
-14.4731
-13.0693
-11.7311
-10.4499
-107.573
-107.469
-107.293
-107.024
-106.646
-106.123
-105.413
-104.475
-103.332
-102.021
-100.478
-98.6465
-96.5043
-94.0377
-91.2497
-88.1704
-84.8261
-81.2716
-77.5637
-73.7511
-69.9127
-66.0795
-62.3147
-58.6485
-55.1123
-51.7199
-48.4821
-45.3993
-42.4716
-39.6942
-37.0583
-34.5564
-32.1793
-29.9193
-27.7688
-25.7204
-23.7682
-21.9059
-20.1281
-18.4311
-16.8094
-15.2585
-13.7446
-105.772
-105.719
-105.715
-105.671
-105.562
-105.356
-105.013
-104.492
-103.765
-102.822
-101.667
-100.291
-98.676
-96.8076
-94.6789
-92.2907
-89.6386
-86.7469
-83.6203
-80.3086
-76.845
-73.2763
-69.6614
-66.0347
-62.4484
-58.9321
-55.5127
-52.2102
-49.037
-45.9951
-43.0877
-40.3129
-37.6659
-35.1404
-32.7316
-30.4336
-28.2406
-26.147
-24.148
-22.2404
-20.4191
-18.6849
-16.9781
-102.525
-102.478
-102.451
-102.395
-102.302
-102.157
-101.945
-101.642
-101.225
-100.677
-99.9745
-99.104
-98.0507
-96.7897
-95.3062
-93.5807
-91.6071
-89.3871
-86.9146
-84.2136
-81.2925
-78.1882
-74.9366
-71.5768
-68.1599
-64.7303
-61.3185
-57.9637
-54.6871
-51.5086
-48.438
-45.4835
-42.6445
-39.9208
-37.3124
-34.8149
-32.4233
-30.1349
-27.9438
-25.8475
-23.8369
-21.9046
-19.9018
-100.224
-100.192
-100.192
-100.178
-100.143
-100.073
-99.9587
-99.7815
-99.5207
-99.1572
-98.6748
-98.0559
-97.2861
-96.3509
-95.2337
-93.9165
-92.3854
-90.6363
-88.6567
-86.4503
-84.0196
-81.3822
-78.5563
-75.5662
-72.4461
-69.2353
-65.9703
-62.6964
-59.4374
-56.2313
-53.0921
-50.0398
-47.0837
-44.2289
-41.4776
-38.8311
-36.2866
-33.8421
-31.4943
-29.2415
-27.0763
-24.9995
-22.8422
-97.8405
-97.8148
-97.8134
-97.8033
-97.7784
-97.7317
-97.6545
-97.537
-97.3649
-97.1211
-96.7913
-96.3615
-95.8166
-95.1412
-94.3213
-93.3383
-92.1733
-90.8181
-89.254
-87.4789
-85.4863
-83.2807
-80.8662
-78.2668
-75.4962
-72.5832
-69.5607
-66.4672
-63.3264
-60.1891
-57.0721
-53.9985
-50.9931
-48.0658
-45.2245
-42.4758
-39.8197
-37.2579
-34.7874
-32.4094
-30.1155
-27.9105
-25.5936
-95.6931
-95.675
-95.6794
-95.6796
-95.6706
-95.6468
-95.6017
-95.5272
-95.4137
-95.2473
-95.0142
-94.7017
-94.2975
-93.7881
-93.1599
-92.3999
-91.4902
-90.4174
-89.1664
-87.7255
-86.0923
-84.2552
-82.2147
-79.9782
-77.5537
-74.959
-72.2207
-69.3694
-66.4212
-63.4223
-60.3958
-57.3728
-54.3799
-51.436
-48.554
-45.7457
-43.0189
-40.3753
-37.8156
-35.3416
-32.9452
-30.6336
-28.1729
-93.6235
-93.6102
-93.6161
-93.6196
-93.6173
-93.6046
-93.5767
-93.5274
-93.4496
-93.3335
-93.1673
-92.9387
-92.637
-92.2513
-91.7688
-91.1778
-90.4643
-89.6129
-88.6126
-87.4435
-86.1
-84.5674
-82.849
-80.9383
-78.8388
-76.5597
-74.108
-71.514
-68.7919
-65.9809
-63.0999
-60.1873
-57.2603
-54.3509
-51.4744
-48.6494
-45.8874
-43.195
-40.5781
-38.0401
-35.5772
-33.2085
-30.6944
-91.6701
-91.6605
-91.668
-91.6753
-91.679
-91.6757
-91.6616
-91.6313
-91.5792
-91.4985
-91.3797
-91.2115
-90.9834
-90.686
-90.309
-89.8412
-89.2714
-88.5856
-87.7725
-86.8166
-85.7065
-84.4291
-82.977
-81.3421
-79.5242
-77.5288
-75.3571
-73.0289
-70.5537
-67.9558
-65.2553
-62.4829
-59.6644
-56.8319
-54.0006
-51.1954
-48.4319
-45.7211
-43.0741
-40.4967
-37.9885
-35.5737
-32.9955
-89.7944
-89.7876
-89.7966
-89.8067
-89.8147
-89.8181
-89.8137
-89.7969
-89.7633
-89.7077
-89.6232
-89.5
-89.3282
-89.0985
-88.8026
-88.4305
-87.9722
-87.4155
-86.7497
-85.9609
-85.0372
-83.968
-82.7428
-81.3505
-79.7818
-78.0399
-76.1225
-74.037
-71.7943
-69.4089
-66.9075
-64.3036
-61.6279
-58.9019
-56.1496
-53.3983
-50.665
-47.9634
-45.3102
-42.7155
-40.1825
-37.7443
-35.1957
-87.9964
-87.9918
-88.0023
-88.0148
-88.027
-88.0364
-88.0399
-88.034
-88.0153
-87.9792
-87.9206
-87.8318
-87.7037
-87.5272
-87.2945
-86.9967
-86.6255
-86.1705
-85.622
-84.9682
-84.1959
-83.2924
-82.2472
-81.051
-79.6971
-78.178
-76.489
-74.6345
-72.6206
-70.451
-68.1463
-65.7179
-63.1962
-60.5995
-57.9513
-55.2747
-52.5954
-49.9281
-47.2912
-44.6983
-42.1541
-39.6932
-37.1122
-86.2631
-86.2603
-86.272
-86.2865
-86.3021
-86.3163
-86.3263
-86.3296
-86.3231
-86.3025
-86.264
-86.2018
-86.1082
-85.9743
-85.7928
-85.5557
-85.2555
-84.8824
-84.428
-83.8814
-83.2322
-82.4691
-81.5812
-80.5551
-79.3823
-78.0547
-76.5683
-74.9136
-73.101
-71.1288
-69.0175
-66.7692
-64.4063
-61.9527
-59.4245
-56.848
-54.2445
-51.6315
-49.0301
-46.4551
-43.9161
-41.4487
-38.8401
-84.5862
-84.5849
-84.5979
-84.6146
-84.6333
-84.6519
-84.668
-84.6793
-84.683
-84.6756
-84.6539
-84.6131
-84.5476
-84.4488
-84.3094
-84.1217
-83.8791
-83.5733
-83.1965
-82.7389
-82.1911
-81.5414
-80.7796
-79.8949
-78.8767
-77.714
-76.4008
-74.9318
-73.3099
-71.5274
-69.592
-67.5217
-65.3206
-63.0119
-60.611
-58.1409
-55.6256
-53.0829
-50.5344
-47.9961
-45.4776
-43.0199
-40.3821
-82.9567
-82.957
-82.9717
-82.9907
-83.0123
-83.035
-83.0567
-83.075
-83.0878
-83.0919
-83.0843
-83.0613
-83.0186
-82.9491
-82.8451
-82.6995
-82.506
-82.2571
-81.9451
-81.562
-81.099
-80.5459
-79.8907
-79.125
-78.237
-77.2207
-76.0636
-74.7563
-73.2958
-71.6849
-69.921
-68.0111
-65.9648
-63.7987
-61.5327
-59.1811
-56.768
-54.3063
-51.8229
-49.3339
-46.8477
-44.4138
-41.7083
-81.3704
-81.3721
-81.3883
-81.4093
-81.4336
-81.4599
-81.4865
-81.5113
-81.532
-81.546
-81.5508
-81.543
-81.5194
-81.474
-81.4003
-81.2904
-81.1383
-80.9376
-80.6809
-80.3605
-79.9687
-79.4964
-78.9338
-78.2723
-77.4985
-76.6025
-75.5756
-74.4108
-73.102
-71.6432
-70.0336
-68.2811
-66.3901
-64.3646
-62.2305
-59.9927
-57.684
-55.3136
-52.9045
-50.4803
-48.0374
-45.6364
-42.7315
-79.822
-79.825
-79.8425
-79.8654
-79.8922
-79.9218
-79.9528
-79.9833
-80.0112
-80.0341
-80.0499
-80.0554
-80.048
-80.023
-79.9748
-79.8961
-79.7802
-79.6208
-79.4117
-79.1455
-78.8157
-78.413
-77.9293
-77.3531
-76.6766
-75.8898
-74.9822
-73.9432
-72.7657
-71.4474
-69.9812
-68.3647
-66.6121
-64.7241
-62.7174
-60.6008
-58.3984
-56.1277
-53.8046
-51.4551
-49.0788
-46.7621
-43.772
-78.3056
-78.3102
-78.3291
-78.3539
-78.3834
-78.4163
-78.4512
-78.4866
-78.5209
-78.5519
-78.5773
-78.5945
-78.6009
-78.5929
-78.566
-78.5138
-78.4293
-78.306
-78.1382
-77.919
-77.6423
-77.3001
-76.8839
-76.3839
-75.791
-75.0951
-74.2887
-73.3612
-72.3029
-71.1064
-69.7716
-68.2937
-66.6742
-64.9134
-63.0309
-61.034
-58.94
-56.7647
-54.5292
-52.2636
-49.9741
-47.7749
-44.9968
-76.8216
-76.8272
-76.8476
-76.8743
-76.906
-76.9417
-76.9802
-77.02
-77.0599
-77.0977
-77.1315
-77.1587
-77.1771
-77.1838
-77.1749
-77.145
-77.0877
-76.9962
-76.8645
-76.6863
-76.4553
-76.1637
-75.8049
-75.3712
-74.8545
-74.242
-73.5235
-72.6923
-71.7413
-70.661
-69.4425
-68.0794
-66.582
-64.9482
-63.1836
-61.2944
-59.308
-57.2365
-55.0954
-52.9103
-50.6943
-48.5617
-46.1028
-75.3681
-75.3748
-75.3961
-75.4245
-75.458
-75.4961
-75.5377
-75.5815
-75.6261
-75.6697
-75.7108
-75.7468
-75.7758
-75.7948
-75.801
-75.7898
-75.7554
-75.691
-75.5906
-75.4481
-75.2576
-75.0126
-74.7061
-74.329
-73.8731
-73.3314
-72.6947
-71.9517
-71.0918
-70.1068
-68.9969
-67.7514
-66.368
-64.8446
-63.1943
-61.4209
-59.5361
-57.5542
-55.4972
-53.3858
-51.227
-49.077
-46.923
-73.9438
-73.9518
-73.9746
-74.0045
-74.0399
-74.0803
-74.1247
-74.1718
-74.2204
-74.2689
-74.3159
-74.3594
-74.3972
-74.4265
-74.445
-74.449
-74.4339
-74.3931
-74.3199
-74.2084
-74.0529
-73.8469
-73.5844
-73.2578
-72.8597
-72.3805
-71.8105
-71.1429
-70.3684
-69.4763
-68.46
-67.3126
-66.0358
-64.6224
-63.0776
-61.4074
-59.6248
-57.7411
-55.7731
-53.7368
-51.6471
-49.5056
-47.5473
-72.5529
-72.5617
-72.5856
-72.6168
-72.6536
-72.6957
-72.7422
-72.7919
-72.8438
-72.8963
-72.9482
-72.9976
-73.0426
-73.0806
-73.1094
-73.1259
-73.1263
-73.1047
-73.0549
-72.97
-72.8449
-72.6731
-72.4493
-72.1656
-71.8144
-71.39
-70.8823
-70.2805
-69.5793
-68.7682
-67.8391
-66.7854
-65.6035
-64.2918
-62.8513
-61.2806
-59.5964
-57.8091
-55.9296
-53.9776
-51.9678
-49.8862
-48.0412
-71.196
-71.2058
-71.2308
-71.2633
-71.3013
-71.3449
-71.3932
-71.4449
-71.4993
-71.555
-71.6107
-71.6647
-71.7154
-71.7601
-71.797
-71.8232
-71.8357
-71.8293
-71.7986
-71.7365
-71.6375
-71.4951
-71.3039
-71.058
-70.7504
-70.3722
-69.9172
-69.3767
-68.7397
-68.0001
-67.1511
-66.1817
-65.09
-63.868
-62.521
-61.0515
-59.4627
-57.7664
-55.976
-54.1124
-52.194
-50.2004
-48.5076
-69.8779
-69.8884
-69.9141
-69.9474
-69.9864
-70.0309
-70.0803
-70.1335
-70.1897
-70.2476
-70.306
-70.3634
-70.4182
-70.4682
-70.5115
-70.5452
-70.5669
-70.5724
-70.557
-70.5137
-70.4364
-70.319
-70.1565
-69.9426
-69.6703
-69.3336
-68.9247
-68.4338
-67.8553
-67.179
-66.3982
-65.5038
-64.493
-63.3599
-62.103
-60.7222
-59.2252
-57.625
-55.9282
-54.1502
-52.3232
-50.4182
-48.8974
-68.6016
-68.6128
-68.6394
-68.6734
-68.7131
-68.7583
-68.8084
-68.8626
-68.9199
-68.9791
-69.0392
-69.0987
-69.1562
-69.2097
-69.2572
-69.2963
-69.3245
-69.3384
-69.334
-69.3053
-69.2457
-69.1492
-69.0101
-68.8225
-68.5808
-68.2783
-67.9085
-67.4636
-66.9352
-66.3154
-65.5958
-64.7698
-63.8314
-62.7758
-61.6017
-60.3108
-58.9048
-57.3891
-55.7828
-54.0944
-52.3528
-50.5372
-49.2083
-67.3715
-67.3833
-67.4106
-67.4452
-67.4852
-67.5306
-67.581
-67.6355
-67.6932
-67.753
-67.814
-67.8747
-67.9336
-67.9891
-68.0393
-68.0819
-68.1144
-68.134
-68.1375
-68.1196
-68.0738
-67.994
-67.8746
-67.7102
-67.4945
-67.2219
-66.8859
-66.4792
-65.9937
-65.4216
-64.7569
-63.9918
-63.1198
-62.1377
-61.0402
-59.8266
-58.501
-57.0729
-55.5499
-53.9428
-52.2811
-50.5385
-49.3261
-66.1933
-66.2057
-66.2333
-66.2682
-66.3084
-66.3539
-66.4043
-66.4586
-66.5161
-66.5758
-66.6366
-66.6972
-66.7564
-66.8123
-66.8636
-66.9077
-66.9424
-66.9649
-66.9727
-66.9614
-66.9255
-66.8584
-66.7543
-66.6074
-66.4123
-66.163
-65.8538
-65.4787
-65.0304
-64.5019
-63.8862
-63.1744
-62.3617
-61.4429
-60.415
-59.2783
-58.0312
-56.6812
-55.2403
-53.7191
-52.137
-50.4704
-49.3579
-65.0706
-65.0834
-65.1112
-65.1463
-65.1864
-65.2317
-65.2816
-65.3353
-65.392
-65.4508
-65.5108
-65.5705
-65.629
-65.6843
-65.7349
-65.7789
-65.814
-65.8378
-65.8475
-65.8396
-65.8097
-65.7515
-65.6587
-65.526
-65.348
-65.1183
-64.8324
-64.4845
-64.0673
-63.5734
-62.9965
-62.3304
-61.5699
-60.7091
-59.7442
-58.6746
-57.5033
-56.2319
-54.8677
-53.4212
-51.9136
-50.311
-49.1695
-64.0092
-64.0223
-64.0501
-64.0851
-64.1249
-64.1696
-64.2187
-64.2714
-64.3269
-64.3843
-64.4427
-64.5007
-64.5573
-64.6107
-64.6596
-64.7018
-64.7357
-64.7583
-64.7675
-64.76
-64.7323
-64.6793
-64.5944
-64.4712
-64.3049
-64.0912
-63.8241
-63.4969
-63.104
-62.6408
-62.1017
-61.477
-60.7623
-59.9531
-59.0459
-58.0398
-56.9336
-55.7288
-54.4387
-53.0677
-51.6301
-50.1003
-48.9553
-63.0107
-63.0242
-63.0521
-63.087
-63.1262
-63.1702
-63.2183
-63.2697
-63.3237
-63.3792
-63.4354
-63.4911
-63.5451
-63.5958
-63.6419
-63.6812
-63.7121
-63.7322
-63.7392
-63.7299
-63.7016
-63.6498
-63.569
-63.4527
-63.2956
-63.0923
-62.838
-62.5285
-62.1575
-61.7186
-61.2061
-60.6151
-59.9397
-59.1763
-58.3214
-57.3708
-56.3267
-55.1917
-53.9711
-52.6717
-51.3093
-49.8646
-48.8082
-62.0818
-62.0955
-62.1233
-62.1579
-62.1965
-62.2394
-62.2862
-62.336
-62.3881
-62.4413
-62.4948
-62.5474
-62.598
-62.645
-62.6872
-62.7225
-62.7493
-62.7653
-62.7681
-62.7552
-62.7237
-62.6701
-62.5898
-62.4766
-62.3248
-62.1293
-61.8849
-61.5877
-61.2319
-60.8125
-60.3247
-59.7636
-59.1236
-58.399
-57.5865
-56.687
-55.7011
-54.6281
-53.4734
-52.2424
-50.9504
-49.5809
-48.5232
-61.2231
-61.2368
-61.2645
-61.2986
-61.3365
-61.3783
-61.4235
-61.4715
-61.5213
-61.5719
-61.6224
-61.6715
-61.7183
-61.761
-61.7986
-61.8291
-61.8508
-61.8615
-61.859
-61.8408
-61.8044
-61.7466
-61.6637
-61.5504
-61.4006
-61.2088
-60.9718
-60.6836
-60.3398
-59.9366
-59.469
-58.931
-58.318
-57.6277
-56.8574
-56.0029
-55.0652
-54.0471
-52.9565
-51.7964
-50.5803
-49.311
-48.5073
-60.438
-60.4519
-60.4794
-60.5131
-60.5502
-60.5908
-60.6346
-60.6805
-60.7278
-60.7755
-60.8226
-60.8679
-60.9103
-60.9482
-60.9805
-61.0053
-61.021
-61.0254
-61.0164
-60.9916
-60.9488
-60.8849
-60.7968
-60.6803
-60.5299
-60.34
-60.1057
-59.8231
-59.4877
-59.0947
-58.641
-58.1221
-57.5341
-56.8734
-56.1364
-55.3221
-54.4336
-53.4706
-52.4381
-51.3434
-50.2068
-49.0445
-48.5255
-59.7268
-59.7407
-59.768
-59.8012
-59.8375
-59.8768
-59.9189
-59.9628
-60.0076
-60.0522
-60.0957
-60.1369
-60.1747
-60.2076
-60.2342
-60.253
-60.2621
-60.2594
-60.2433
-60.2111
-60.1608
-60.0893
-59.9942
-59.872
-59.7181
-59.5269
-59.2937
-59.0144
-58.6853
-58.3012
-57.8587
-57.3552
-56.7874
-56.151
-55.4439
-54.6647
-53.814
-52.8934
-51.9113
-50.8692
-49.7771
-48.6292
-48.0227
-59.0919
-59.1057
-59.1326
-59.1654
-59.2008
-59.2389
-59.2793
-59.3211
-59.3633
-59.4048
-59.4446
-59.4815
-59.5144
-59.5419
-59.5625
-59.5746
-59.5766
-59.5665
-59.5424
-59.5021
-59.4433
-59.3634
-59.2601
-59.1302
-58.9704
-58.7757
-58.5408
-58.2613
-57.9344
-57.5565
-57.1232
-56.6314
-56.0782
-55.4608
-54.7782
-54.0297
-53.2163
-52.3386
-51.4
-50.4043
-49.3605
-48.2556
-47.7587
-58.5325
-58.5461
-58.5726
-58.6048
-58.6391
-58.6759
-58.7146
-58.7542
-58.7937
-58.832
-58.8681
-58.9007
-58.9287
-58.9506
-58.9651
-58.9705
-58.9653
-58.9474
-58.915
-58.8662
-58.7985
-58.7097
-58.5974
-58.4589
-58.2913
-58.0909
-57.8528
-57.5726
-57.2467
-56.8711
-56.4431
-55.9599
-55.42
-54.8213
-54.1613
-53.438
-52.6522
-51.8086
-50.9114
-49.9612
-48.9642
-47.91
-47.3649
-58.0493
-58.0626
-58.0887
-58.1202
-58.1536
-58.189
-58.2259
-58.2633
-58.3002
-58.3353
-58.3676
-58.3959
-58.4189
-58.4352
-58.4434
-58.4419
-58.4292
-58.4033
-58.3626
-58.3047
-58.2278
-58.1295
-58.0078
-57.86
-57.6836
-57.4757
-57.2324
-56.9485
-56.6209
-56.2472
-55.8241
-55.3489
-54.819
-54.2329
-53.5899
-52.8898
-52.1336
-51.3228
-50.4614
-49.5528
-48.6072
-47.624
-47.0899
-57.6406
-57.6536
-57.6792
-57.7099
-57.7423
-57.7762
-57.8112
-57.8464
-57.8805
-57.9124
-57.941
-57.9649
-57.9831
-57.9939
-57.9959
-57.9876
-57.9674
-57.9336
-57.8843
-57.8175
-57.7314
-57.6236
-57.4922
-57.3348
-57.1492
-56.9329
-56.6827
-56.3947
-56.0654
-55.6919
-55.2706
-54.799
-54.2771
-53.7037
-53.0763
-52.3958
-51.6637
-50.8822
-50.054
-49.183
-48.2761
-47.3308
-46.7501
-57.3069
-57.3195
-57.3444
-57.3743
-57.4055
-57.4379
-57.4711
-57.5039
-57.5352
-57.5639
-57.5886
-57.6082
-57.6214
-57.6266
-57.6225
-57.6074
-57.5798
-57.538
-57.4802
-57.4045
-57.3091
-57.1919
-57.0509
-56.8839
-56.6889
-56.4636
-56.2058
-55.9122
-55.5794
-55.2042
-54.7847
-54.3184
-53.803
-53.2378
-52.6245
-51.9619
-51.2503
-50.4927
-49.6945
-48.8579
-47.9887
-47.083
-46.3855
-57.045
-57.057
-57.0813
-57.1103
-57.1402
-57.171
-57.2021
-57.2325
-57.261
-57.2864
-57.3074
-57.3227
-57.3309
-57.3307
-57.3206
-57.2989
-57.2641
-57.2146
-57.1486
-57.0642
-56.9598
-56.8333
-56.6829
-56.5066
-56.3024
-56.0684
-55.8027
-55.5028
-55.1654
-54.7879
-54.3685
-53.9048
-53.3957
-52.8406
-52.2384
-51.5903
-50.8979
-50.1642
-49.3922
-48.5841
-47.7503
-46.8884
-46.1276
-56.8524
-56.864
-56.8877
-56.916
-56.9448
-56.974
-57.0032
-57.0313
-57.057
-57.0791
-57.0963
-57.1073
-57.1108
-57.1052
-57.0891
-57.0609
-57.0192
-56.9621
-56.888
-56.7953
-56.6822
-56.5468
-56.3874
-56.2021
-55.9892
-55.7468
-55.4732
-55.1666
-54.825
-54.4452
-54.0255
-53.5643
-53.0598
-52.5113
-51.9198
-51.2861
-50.6123
-49.9003
-49.1531
-48.3755
-47.5789
-46.7721
-46.0657
-56.7267
-56.7378
-56.7608
-56.7884
-56.8161