/*--------------------------------*- C++ -*----------------------------------*\
| =========                 |                                                 |
| \\      /  F ield         | OpenFOAM: The Open Source CFD Toolbox           |
|  \\    /   O peration     | Version:  2.3.0                                 |
|   \\  /    A nd           | Web:      www.OpenFOAM.org                      |
|    \\/     M anipulation  |                                                 |
\*---------------------------------------------------------------------------*/
FoamFile
{
    version     2.0;
    format      ascii;
    class       volVectorField;
    location    "10000";
    object      U;
}
// * * * * * * * * * * * * * * * * * * * * * * * * * * * * * * * * * * * * * //

dimensions      [0 1 -1 0 0 0 0];

internalField   nonuniform List<vector> 
42168
(
(19.241 8.35239 -9.10379e-22)
(19.1969 8.47717 0)
(19.1496 8.60304 -1.79934e-21)
(19.1008 8.73132 9.67189e-21)
(19.0507 8.86262 -2.31658e-20)
(18.999 8.99704 1.2881e-20)
(18.9456 9.13482 5.46706e-22)
(18.8902 9.27619 2.35416e-20)
(18.8328 9.42134 -2.26292e-20)
(18.7732 9.57043 -2.53022e-21)
(18.7111 9.72365 2.77865e-21)
(18.6461 9.88123 9.25917e-22)
(18.5779 10.0435 -7.6736e-20)
(18.506 10.2107 7.7987e-20)
(18.4301 10.3834 -5.15614e-21)
(18.3499 10.562 0)
(18.2648 10.747 -1.0579e-19)
(18.1745 10.9391 1.11836e-19)
(18.0787 11.139 1.23509e-19)
(17.977 11.3472 -1.21836e-19)
(17.8687 11.5644 0)
(17.7532 11.7912 -1.01357e-21)
(17.6295 12.0278 -4.69093e-21)
(17.4965 12.2746 -5.05317e-21)
(17.3526 12.5313 1.11161e-21)
(17.1958 12.7976 -4.7617e-21)
(17.0231 13.0726 -4.13615e-21)
(16.8311 13.3549 0)
(16.6151 13.6425 -9.96686e-20)
(16.3698 13.9329 2.01871e-19)
(16.0883 14.2228 1.83169e-21)
(15.7618 14.5086 -1.07707e-19)
(15.3797 14.7859 -9.69467e-20)
(14.9288 15.0504 1.11763e-19)
(14.3927 15.2971 -8.7348e-20)
(13.7519 15.5206 9.13316e-20)
(12.9835 15.7157 4.83929e-20)
(12.0604 15.8763 -5.52715e-20)
(10.948 15.9843 0)
(9.60781 16.0103 -6.07745e-21)
(8.01912 15.982 1.40352e-20)
(6.18874 16.0108 -8.1401e-20)
(4.12078 15.8404 -1.18799e-19)
(19.1217 8.31759 2.42806e-21)
(19.0724 8.42747 -7.55788e-21)
(19.0229 8.54025 8.9532e-22)
(18.9722 8.65415 6.97178e-21)
(18.92 8.77009 0)
(18.8658 8.88824 6.29071e-21)
(18.8095 9.00892 -8.94638e-21)
(18.751 9.13232 -8.23049e-22)
(18.6902 9.25861 0)
(18.6269 9.38794 0)
(18.5609 9.52036 2.70952e-21)
(18.492 9.656 -7.07829e-22)
(18.4197 9.79498 -3.00103e-21)
(18.3436 9.93737 0)
(18.2631 10.0833 1.27003e-21)
(18.1776 10.2331 1.39193e-21)
(18.0865 10.3868 -7.71623e-22)
(17.9891 10.5449 -1.94474e-22)
(17.8847 10.7076 3.58989e-22)
(17.7725 10.8752 -3.31818e-21)
(17.6516 11.0484 1.52158e-21)
(17.5211 11.2273 1.67291e-22)
(17.3799 11.4126 1.02575e-21)
(17.2266 11.6046 8.36228e-21)
(17.0599 11.8038 -8.56031e-21)
(16.8778 12.0105 0)
(16.6785 12.225 -2.70535e-21)
(16.4594 12.4472 1.92104e-21)
(16.218 12.6768 0)
(15.9511 12.913 -4.91102e-20)
(15.6555 13.1544 4.79963e-20)
(15.3274 13.3988 0)
(14.9627 13.6425 -2.34828e-21)
(14.5573 13.8806 -2.67898e-22)
(14.1072 14.106 -3.46276e-21)
(13.6088 14.3089 0)
(13.0594 14.4764 0)
(12.4579 14.5917 1.96987e-19)
(11.8056 14.6333 -1.95431e-19)
(11.1093 14.5739 5.13559e-21)
(10.3853 14.3823 -6.80124e-21)
(9.64772 14.0233 0)
(8.89151 13.4586 1.55468e-20)
(19.0147 8.27925 8.00366e-21)
(18.9627 8.37635 -8.24823e-21)
(18.9116 8.47598 0)
(18.8592 8.5764 -4.84936e-21)
(18.805 8.67837 1.45095e-20)
(18.7486 8.78208 2.15412e-21)
(18.6898 8.8877 -1.404e-20)
(18.6284 8.99542 2.33346e-21)
(18.5644 9.10546 -2.68583e-20)
(18.4977 9.2179 2.67012e-20)
(18.428 9.33285 -2.9103e-20)
(18.3553 9.45045 2.57018e-20)
(18.2793 9.57076 2.45902e-21)
(18.1996 9.69384 -2.82292e-20)
(18.1157 9.81972 2.56669e-20)
(18.0273 9.94851 -9.96135e-22)
(17.9335 10.0803 0)
(17.8338 10.2152 4.1595e-21)
(17.7274 10.3533 -3.73655e-20)
(17.6136 10.4948 7.84628e-20)
(17.4916 10.6398 -3.9344e-20)
(17.3606 10.7885 -5.04362e-20)
(17.2195 10.9407 5.01404e-20)
(17.0673 11.0964 6.12494e-20)
(16.9027 11.2554 3.53298e-21)
(16.7242 11.4175 -7.06295e-20)
(16.5299 11.582 8.68037e-20)
(16.3179 11.7484 4.36651e-21)
(16.0858 11.9156 -1.08472e-19)
(15.8311 12.082 -1.30951e-19)
(15.5511 12.2458 1.37887e-19)
(15.2427 12.4044 6.37946e-21)
(14.9031 12.5543 2.27661e-21)
(14.5295 12.6917 1.21681e-19)
(14.1193 12.8112 -1.32124e-19)
(13.6709 12.9062 -1.55208e-19)
(13.1837 12.9691 1.71603e-19)
(12.6593 12.9905 2.27322e-19)
(12.1018 12.9606 3.2473e-20)
(11.5198 12.8694 -2.70385e-19)
(10.9271 12.7067 1.10892e-20)
(10.3437 12.4628 -1.99863e-19)
(9.7979 12.1303 2.01137e-19)
(18.9196 8.24026 -6.70563e-21)
(18.8689 8.32472 3.39303e-21)
(18.8178 8.4122 0)
(18.7655 8.50058 4.86178e-21)
(18.7114 8.59032 0)
(18.6551 8.68145 0)
(18.5963 8.77413 3.41133e-21)
(18.5349 8.86852 2.09886e-20)
(18.4707 8.96477 -2.31587e-20)
(18.4037 9.06292 0)
(18.3338 9.16316 5.09193e-20)
(18.2607 9.26556 -4.83934e-20)
(18.1843 9.3702 -6.22104e-21)
(18.1043 9.47718 0)
(18.0203 9.58644 -5.64247e-20)
(17.932 9.69805 5.52407e-20)
(17.8388 9.81195 0)
(17.7399 9.9281 -7.68135e-21)
(17.6346 10.0465 0)
(17.522 10.1674 -2.61261e-21)
(17.4015 10.2907 -8.03709e-20)
(17.2721 10.4165 -8.83278e-23)
(17.1331 10.5448 8.32554e-20)
(16.9835 10.6753 0)
(16.8226 10.8078 -1.0455e-19)
(16.6491 10.9419 2.36667e-19)
(16.4619 11.077 -1.18014e-19)
(16.2595 11.2122 -1.33344e-21)
(16.0406 11.3465 4.28654e-21)
(15.8033 11.4782 0)
(15.546 11.6054 0)
(15.2669 11.7257 -6.3126e-21)
(14.9644 11.8358 0)
(14.6369 11.9321 -1.01512e-20)
(14.2838 12.01 -1.61679e-19)
(13.9048 12.0642 3.8598e-19)
(13.5011 12.0885 -4.52897e-19)
(13.0754 12.0762 2.44612e-19)
(12.6322 12.0202 -8.36813e-21)
(12.1787 11.9141 0)
(11.7246 11.7521 -1.082e-20)
(11.2826 11.5311 -1.06822e-19)
(10.8675 11.2525 -2.2415e-20)
(18.8398 8.19451 1.45537e-20)
(18.7881 8.2711 -2.20946e-20)
(18.7377 8.34913 1.52392e-20)
(18.6862 8.42732 -2.65203e-20)
(18.6329 8.50655 3.05894e-20)
(18.5775 8.58688 -4.32429e-21)
(18.5196 8.66849 3.23133e-20)
(18.459 8.75158 -3.11233e-20)
(18.3957 8.83621 0)
(18.3294 8.92243 -4.53985e-21)
(18.2601 9.0104 4.62946e-21)
(18.1875 9.10021 0)
(18.1116 9.19198 3.77161e-21)
(18.032 9.28575 5.0238e-21)
(17.9488 9.38167 4.04008e-21)
(17.8616 9.47961 5.41127e-21)
(17.77 9.57949 0)
(17.6732 9.68117 -8.24683e-20)
(17.5707 9.78458 8.80356e-20)
(17.4615 9.88968 2.62228e-21)
(17.3447 9.9964 0)
(17.2195 10.1047 -3.01642e-21)
(17.0851 10.2145 6.38949e-20)
(16.9406 10.3256 -6.18755e-20)
(16.7852 10.4377 -3.85856e-21)
(16.618 10.5504 5.12318e-21)
(16.4381 10.663 9.34334e-22)
(16.2445 10.7748 -9.51194e-20)
(16.036 10.8844 9.67897e-20)
(15.8114 10.9905 1.22762e-19)
(15.5695 11.0912 -1.10574e-19)
(15.309 11.1842 0)
(15.0289 11.2668 1.4984e-19)
(14.7282 11.3356 -1.65968e-19)
(14.4067 11.3868 -2.39601e-20)
(14.0647 11.4164 2.25201e-19)
(13.7035 11.4192 -2.31522e-19)
(13.3262 11.3907 0)
(12.9372 11.3261 1.92238e-20)
(12.543 11.2211 0)
(12.1519 11.0727 1.91471e-19)
(11.7736 10.8796 -1.68695e-19)
(11.4188 10.6437 2.73624e-20)
(18.7655 8.1532 -9.11855e-21)
(18.7176 8.21976 4.98688e-21)
(18.6692 8.28889 -5.04413e-21)
(18.6193 8.35803 1.4552e-20)
(18.5676 8.42817 -3.76841e-20)
(18.5139 8.49928 1.79957e-20)
(18.4576 8.57145 -9.591e-21)
(18.3985 8.64502 -3.39108e-20)
(18.3369 8.72001 4.43034e-20)
(18.2723 8.79634 -3.5972e-20)
(18.2045 8.87422 7.15486e-20)
(18.1335 8.95369 1.14123e-21)
(18.059 9.03475 -4.23748e-20)
(17.9807 9.11763 -5.0425e-21)
(17.8987 9.20248 -6.2305e-21)
(17.8128 9.28938 -5.43697e-21)
(17.7229 9.37805 -4.40524e-20)
(17.6285 9.46836 5.12377e-20)
(17.5289 9.56015 5.24665e-20)
(17.4234 9.65316 -1.16346e-19)
(17.3108 9.7473 1.19436e-19)
(17.1904 9.84241 -6.86758e-20)
(17.0611 9.93849 -7.23456e-20)
(16.9223 10.0353 1.46591e-19)
(16.7732 10.1324 4.5298e-21)
(16.613 10.2294 -9.70276e-20)
(16.4407 10.3257 -5.61454e-21)
(16.2558 10.4207 1.07528e-19)
(16.0576 10.5131 -1.1598e-22)
(15.8452 10.6017 -1.2943e-19)
(15.6178 10.6846 1.35516e-19)
(15.3746 10.7597 -1.47919e-19)
(15.1149 10.8247 1.96844e-19)
(14.8384 10.8764 -3.64553e-19)
(14.545 10.9115 1.04905e-19)
(14.235 10.9266 2.16175e-19)
(13.9095 10.9173 -1.23066e-19)
(13.571 10.8801 0)
(13.2234 10.8116 -1.90899e-20)
(12.8724 10.709 -1.77313e-19)
(12.5247 10.5704 1.80357e-19)
(12.1884 10.3953 7.93288e-20)
(11.8712 10.1854 -4.94721e-20)
(18.7024 8.11353 0)
(18.6577 8.17097 -5.72882e-21)
(18.6112 8.23196 -1.67338e-20)
(18.5631 8.29322 2.16542e-20)
(18.513 8.35558 5.88233e-21)
(18.4612 8.4189 -7.66298e-22)
(18.4069 8.483 2.79129e-20)
(18.3495 8.54852 1.81531e-20)
(18.2898 8.61558 -4.48655e-20)
(18.2272 8.68381 0)
(18.1613 8.75351 -4.29521e-20)
(18.0925 8.82461 4.18722e-20)
(18.0201 8.89701 -6.71281e-21)
(17.9437 8.9709 0)
(17.863 9.04656 -8.81511e-22)
(17.7784 9.12442 -5.28674e-20)
(17.6902 9.20408 1.09159e-19)
(17.5977 9.28523 -1.21164e-19)
(17.5008 9.36788 6.60716e-20)
(17.3987 9.45157 -6.82832e-20)
(17.2903 9.53598 7.34721e-20)
(17.1746 9.62093 8.12798e-20)
(17.0503 9.70654 -7.82395e-20)
(16.9171 9.79253 1.06734e-20)
(16.774 9.87843 0)
(16.6205 9.9636 1.0751e-19)
(16.4548 10.0476 -1.04112e-19)
(16.2773 10.1299 6.91873e-21)
(16.0871 10.2095 -6.13186e-22)
(15.8842 10.2851 0)
(15.6682 10.3551 9.6586e-21)
(15.4378 10.4175 8.48036e-20)
(15.1925 10.4704 -9.80973e-20)
(14.9331 10.5111 -1.02468e-19)
(14.6595 10.5361 9.14227e-20)
(14.3722 10.5423 2.98554e-20)
(14.0721 10.5263 -1.66637e-20)
(13.7615 10.4846 0)
(13.4425 10.4148 1.99008e-20)
(13.1204 10.3152 8.88126e-20)
(12.8015 10.1849 2.91737e-20)
(12.4931 10.0231 -2.25672e-19)
(12.2009 9.83126 7.74096e-20)
(18.6479 8.07367 0)
(18.6069 8.12493 -1.30104e-20)
(18.5621 8.17841 1.21753e-20)
(18.5157 8.23299 0)
(18.4672 8.28877 -5.88642e-21)
(18.4174 8.34567 1.25826e-20)
(18.3656 8.40293 6.71262e-21)
(18.3096 8.46144 -2.60571e-20)
(18.2516 8.52208 1.9711e-20)
(18.1915 8.58376 0)
(18.1274 8.6467 5.49014e-20)
(18.0609 8.71134 -5.54973e-20)
(17.9912 8.77687 -5.09113e-20)
(17.9172 8.84341 5.77555e-20)
(17.8386 8.91124 6.84525e-20)
(17.7547 8.98168 -1.28838e-19)
(17.668 9.05417 6.39621e-20)
(17.5771 9.12775 0)
(17.4817 9.20314 0)
(17.3828 9.27957 0)
(17.2778 9.35641 0)
(17.1669 9.43331 -5.34097e-21)
(17.0468 9.51068 0)
(16.9191 9.5884 -5.61788e-21)
(16.7811 9.66611 1.02465e-19)
(16.6349 9.74254 5.15613e-21)
(16.4757 9.81693 -1.12446e-19)
(16.3049 9.88973 -5.58941e-20)
(16.1214 9.95957 7.35476e-20)
(15.926 10.0259 -8.41104e-20)
(15.7191 10.0866 -1.41371e-20)
(15.5001 10.1388 8.35519e-20)
(15.2667 10.1819 0)
(15.0208 10.2143 -1.05345e-19)
(14.7627 10.2323 1.35787e-19)
(14.493 10.2328 1.26058e-19)
(14.2119 10.214 -2.33268e-19)
(13.9239 10.1709 6.5574e-20)
(13.6263 10.1009 3.7223e-20)
(13.3254 10.0039 0)
(13.0263 9.88036 -1.1749e-19)
(12.7386 9.72859 1.20319e-19)
(12.4642 9.54931 0)
(18.5863 8.03674 -9.57044e-21)
(18.5581 8.08309 1.30046e-20)
(18.5168 8.12848 0)
(18.4737 8.17746 0)
(18.4279 8.22771 -3.67029e-21)
(18.3804 8.27941 -6.681e-21)
(18.3334 8.33118 2.56023e-20)
(18.2793 8.38303 -3.2364e-20)
(18.2217 8.43836 0)
(18.1649 8.49545 3.87236e-21)
(18.1032 8.5525 3.0223e-20)
(18.0387 8.61215 -1.88026e-20)
(17.9719 8.67248 3.17102e-20)
(17.9012 8.73348 7.52998e-22)
(17.8276 8.79428 5.17986e-21)
(17.7448 8.85805 -2.94538e-20)
(17.66 8.92542 0)
(17.572 8.99271 4.80059e-21)
(17.4763 9.06168 0)
(17.3805 9.13273 0)
(17.2772 9.20357 -4.77534e-20)
(17.1724 9.27391 4.85396e-20)
(17.0546 9.34424 -6.0323e-21)
(16.9337 9.41558 0)
(16.7974 9.48702 0)
(16.6599 9.55818 0)
(16.5078 9.62426 0)
(16.3454 9.68914 -7.46638e-20)
(16.1694 9.75083 6.83214e-20)
(15.9799 9.81017 8.64697e-20)
(15.7771 9.86591 -8.8165e-20)
(15.566 9.91174 1.11421e-20)
(15.342 9.94642 -1.21579e-20)
(15.1102 9.97115 0)
(14.8706 9.98171 -1.38737e-20)
(14.6221 9.97496 -1.50635e-20)
(14.3576 9.95497 -1.62645e-20)
(14.0912 9.9126 0)
(13.8076 9.84377 -8.05358e-20)
(13.5206 9.74872 1.0368e-19)
(13.2321 9.63206 0)
(12.9591 9.4884 -2.43119e-20)
(12.6933 9.31829 -2.61126e-20)
(2.11014 14.4878 3.66584e-19)
(2.3073 12.8467 -1.8264e-19)
(2.72253 11.5736 -2.80287e-20)
(3.17744 10.5591 4.05775e-19)
(3.63149 9.72902 -4.36443e-19)
(4.07761 9.03445 0)
(4.50943 8.44412 0)
(4.92243 7.93697 0)
(5.31437 7.4971 0)
(5.68421 7.1118 -7.6955e-19)
(6.03215 6.77134 7.58494e-19)
(6.35898 6.46784 0)
(6.66583 6.19514 -2.43052e-20)
(6.95412 5.94826 4.42839e-20)
(7.22537 5.72289 -1.34241e-18)
(7.48105 5.51568 1.29476e-18)
(7.72276 5.32416 0)
(7.95191 5.14608 0)
(8.16979 4.97956 -3.73593e-20)
(8.37761 4.82301 1.10013e-18)
(8.57647 4.67505 -1.04127e-18)
(8.76742 4.53469 -1.48688e-21)
(8.9513 4.40107 3.28878e-20)
(9.12885 4.27334 -3.19142e-20)
(9.30079 4.15079 -1.12392e-21)
(9.46773 4.03292 6.0712e-20)
(9.63018 3.91917 0)
(9.78859 3.8092 -9.10549e-19)
(9.94332 3.70263 -5.12249e-20)
(10.0947 3.59919 9.50361e-19)
(10.2429 3.4986 5.64389e-20)
(10.3881 3.40064 5.60396e-20)
(10.5306 3.30517 -1.21333e-21)
(10.6703 3.212 8.17406e-19)
(10.8075 3.12104 -1.80266e-18)
(10.9421 3.03215 7.6534e-19)
(11.0743 2.94528 0)
(11.204 2.86033 -1.08046e-19)
(11.3313 2.77717 4.28315e-19)
(11.4562 2.6958 -5.29726e-19)
(11.5787 2.61636 -9.81325e-22)
(11.6988 2.53924 -7.46009e-20)
(11.8155 2.444 -2.32235e-20)
(8.14998 12.7105 -7.45718e-20)
(7.64112 11.89 9.6906e-20)
(7.3402 11.1161 1.94386e-20)
(7.18771 10.4084 2.34897e-20)
(7.13569 9.76821 0)
(7.15327 9.19123 0)
(7.21944 8.67261 8.20755e-19)
(7.31955 8.20693 -7.96414e-19)
(7.44298 7.78835 7.39524e-19)
(7.58195 7.41133 -7.58687e-19)
(7.73096 7.07081 2.11531e-20)
(7.88596 6.76192 -7.30586e-19)
(8.04386 6.48049 6.65724e-19)
(8.2028 6.22289 1.84442e-20)
(8.36128 5.98598 3.86976e-20)
(8.51829 5.76693 -1.34512e-21)
(8.67323 5.5635 3.49734e-20)
(8.82583 5.37362 0)
(8.97572 5.19562 1.0841e-18)
(9.12294 5.02808 -5.03393e-21)
(9.26742 4.86974 -1.09491e-18)
(9.40914 4.71955 -3.14355e-20)
(9.54827 4.57661 2.97847e-20)
(9.68488 4.44015 0)
(9.81907 4.30956 9.25087e-19)
(9.95096 4.18431 -9.68761e-19)
(10.0806 4.06395 5.51037e-20)
(10.2082 3.94809 -8.8141e-19)
(10.3338 3.83639 9.85305e-19)
(10.4574 3.72851 -1.07973e-19)
(10.5791 3.6242 0)
(10.699 3.52319 0)
(10.8172 3.4253 -8.32282e-22)
(10.9335 3.3303 0)
(11.0482 3.23806 5.38243e-20)
(11.1611 3.1484 -3.7477e-19)
(11.2724 3.06118 -5.09673e-20)
(11.3821 2.97628 9.65436e-19)
(11.4902 2.89353 -5.31814e-19)
(11.5968 2.81285 2.09045e-19)
(11.7018 2.73428 -2.06232e-19)
(11.8052 2.65804 -1.00006e-19)
(11.9057 2.57217 -9.49547e-20)
(9.32728 11.7122 1.52787e-20)
(8.96123 11.2303 1.66083e-20)
(8.6927 10.7183 -7.27724e-20)
(8.50896 10.2032 -8.03259e-20)
(8.39549 9.70199 1.51148e-19)
(8.33914 9.22396 0)
(8.32849 8.77408 -3.64971e-19)
(8.35369 8.35442 -2.68971e-19)
(8.40655 7.96505 6.49587e-19)
(8.4802 7.60485 -3.86703e-20)
(8.56941 7.2722 5.973e-19)
(8.66987 6.96475 -5.22142e-19)
(8.77826 6.68043 -5.88993e-19)
(8.89212 6.417 5.33746e-19)
(9.00942 6.17243 -5.92956e-19)
(9.12871 5.94472 5.40875e-19)
(9.24896 5.73224 -1.44069e-21)
(9.36934 5.53328 -3.18731e-20)
(9.48933 5.34653 1.0376e-18)
(9.60854 5.17072 -9.53564e-19)
(9.72667 5.00469 6.04636e-20)
(9.8436 4.84753 9.08697e-19)
(9.95917 4.69839 -9.17913e-19)
(10.0733 4.5565 -8.67806e-19)
(10.186 4.42125 8.53016e-19)
(10.2973 4.29205 5.4959e-20)
(10.4072 4.16841 -1.07023e-19)
(10.5157 4.04992 8.43014e-19)
(10.6229 3.93615 -9.43475e-19)
(10.7288 3.82671 5.26115e-20)
(10.8334 3.72132 0)
(10.9367 3.61963 0)
(11.0388 3.52143 3.09026e-19)
(11.1396 3.42646 -1.65012e-21)
(11.2391 3.33456 -3.64124e-19)
(11.3373 3.2455 -7.43915e-22)
(11.4342 3.15915 6.97846e-22)
(11.5299 3.07538 0)
(11.6245 2.99405 1.04209e-19)
(11.7179 2.91509 1.01981e-19)
(11.8101 2.83848 2.02362e-19)
(11.9012 2.76452 -1.21686e-20)
(11.99 2.68574 1.19532e-20)
(10.4944 10.9225 1.32758e-19)
(10.1736 10.552 -4.93472e-20)
(9.90999 10.1557 3.80978e-20)
(9.70309 9.74848 1.12281e-19)
(9.5485 9.34208 5.40201e-21)
(9.44042 8.9446 -1.49243e-19)
(9.3725 8.56159 1.92886e-20)
(9.33847 8.19648 -7.60106e-20)
(9.33231 7.85112 3.06081e-19)
(9.34882 7.52606 -2.60026e-19)
(9.38349 7.22116 -3.61673e-20)
(9.43243 6.93567 5.79796e-19)
(9.49263 6.6686 3.83533e-20)
(9.56162 6.41871 -5.51135e-19)
(9.63725 6.18478 3.40756e-20)
(9.71787 5.96552 -3.32259e-20)
(9.80227 5.75971 -5.45374e-19)
(9.88953 5.56621 4.1149e-22)
(9.97881 5.38388 4.8761e-19)
(10.0695 5.21169 4.76564e-19)
(10.1611 5.04876 -4.6695e-19)
(10.2532 4.89424 5.67734e-20)
(10.3455 4.74743 8.59493e-19)
(10.4377 4.60769 -1.79452e-18)
(10.5296 4.47445 1.81068e-21)
(10.6212 4.3472 -5.00796e-20)
(10.7123 4.2255 5.44222e-20)
(10.8029 4.10897 8.73062e-19)
(10.893 3.99715 5.13145e-20)
(10.9824 3.88974 4.04097e-19)
(11.0712 3.78637 -4.03779e-19)
(11.1592 3.68678 -4.99224e-20)
(11.2463 3.59072 5.06705e-20)
(11.3326 3.49797 -3.52487e-19)
(11.4181 3.40835 7.57881e-19)
(11.5026 3.32166 -4.57646e-19)
(11.5863 3.23776 5.12432e-20)
(11.669 3.1565 -5.06852e-20)
(11.7509 3.07779 -2.02454e-19)
(11.832 3.00159 5.0141e-20)
(11.9123 2.92782 5.01196e-20)
(11.9917 2.85671 0)
(12.0696 2.7831 0)
(11.0963 10.3697 -2.97479e-20)
(10.8118 10.0638 3.1754e-20)
(10.5694 9.73451 3.34905e-20)
(10.3701 9.39169 -3.48712e-20)
(10.2123 9.04429 3.47535e-20)
(10.0929 8.69912 0)
(10.0081 8.36157 -3.27796e-19)
(9.95329 8.03523 3.0774e-20)
(9.92421 7.72254 2.85271e-19)
(9.91665 7.4248 2.87271e-19)
(9.92693 7.14251 -2.43753e-19)
(9.95174 6.87576 -3.52261e-20)
(9.9883 6.6242 -3.45164e-20)
(10.0344 6.38716 0)
(10.088 6.16394 -5.52914e-19)
(10.1476 5.95369 5.38022e-19)
(10.2121 5.75554 -3.06858e-20)
(10.2805 5.56859 3.0722e-20)
(10.3518 5.39187 -5.33816e-19)
(10.4255 5.22458 4.34065e-19)
(10.5008 5.06589 -2.86256e-20)
(10.5773 4.9152 -4.42331e-19)
(10.6545 4.77192 4.59188e-19)
(10.7321 4.63546 -3.96988e-19)
(10.8099 4.50537 4.16867e-19)
(10.8878 4.38118 2.63311e-20)
(10.9656 4.26247 -5.02669e-20)
(11.0433 4.14887 -5.05591e-20)
(11.1209 4.03997 0)
(11.1981 3.9354 0)
(11.2749 3.83484 0)
(11.3511 3.73804 4.95335e-20)
(11.4267 3.6448 4.41961e-19)
(11.5016 3.55491 -3.95455e-19)
(11.5759 3.46814 0)
(11.6494 3.38433 0)
(11.7223 3.30332 0)
(11.7943 3.22496 -9.95644e-20)
(11.8656 3.14923 1.99241e-19)
(11.9363 3.07604 -4.96429e-20)
(12.0063 3.00535 4.91494e-20)
(12.0758 2.93734 0)
(12.1448 2.86805 0)
(11.5798 9.94443 -2.74769e-20)
(11.3186 9.67687 -2.94789e-20)
(11.0908 9.38867 -9.78158e-22)
(10.8982 9.08701 3.28994e-20)
(10.7401 8.77881 -1.72599e-19)
(10.6147 8.47006 1.36278e-19)
(10.5194 8.16546 3.5298e-20)
(10.4512 7.86851 3.46305e-20)
(10.4068 7.58146 -3.45058e-20)
(10.3827 7.30599 -3.42116e-20)
(10.3756 7.04296 -3.37941e-20)
(10.3827 6.79282 0)
(10.4016 6.55561 2.97875e-19)
(10.4303 6.33096 -2.90055e-19)
(10.4669 6.11858 3.20273e-20)
(10.5101 5.91786 -3.13268e-20)
(10.5589 5.72811 -4.55514e-19)
(10.6125 5.54857 5.03583e-19)
(10.6698 5.37839 4.94414e-19)
(10.7299 5.21685 -4.25598e-19)
(10.7921 5.0634 4.43284e-19)
(10.8557 4.91753 -4.6025e-19)
(10.9205 4.77873 -5.30239e-20)
(10.9861 4.64653 -2.5811e-20)
(11.0524 4.52049 4.34268e-19)
(11.119 4.40017 -7.55741e-19)
(11.1859 4.28523 4.48407e-19)
(11.2531 4.17527 -3.93706e-19)
(11.3204 4.06984 3.91092e-19)
(11.3877 3.96862 -3.88173e-19)
(11.4545 3.8713 3.39321e-19)
(11.5208 3.77777 0)
(11.5867 3.68778 -5.44837e-22)
(11.6522 3.60107 -4.8642e-20)
(11.7171 3.51746 4.82759e-20)
(11.7814 3.43676 0)
(11.845 3.35882 1.9559e-19)
(11.9079 3.28356 -2.94395e-19)
(11.9702 3.21093 0)
(12.0318 3.14086 0)
(12.0929 3.07339 9.63048e-20)
(12.1535 3.0088 -2.38124e-22)
(12.2139 2.94365 4.70822e-20)
(11.9306 9.61293 -2.8507e-20)
(11.687 9.37129 2.81039e-22)
(11.4719 9.11115 3.09492e-20)
(11.2874 8.83776 3.3008e-20)
(11.1323 8.55683 3.62442e-20)
(11.0057 8.27405 -2.67349e-19)
(10.906 7.99367 -3.24411e-21)
(10.8313 7.71877 1.33228e-19)
(10.7786 7.45155 6.07772e-22)
(10.7448 7.19359 3.38328e-20)
(10.7269 6.94611 3.3458e-20)
(10.7226 6.70985 -3.24132e-20)
(10.7299 6.48483 1.93843e-19)
(10.7468 6.27106 -2.19594e-19)
(10.7716 6.06847 -2.78947e-19)
(10.8036 5.87654 2.41856e-19)
(10.8418 5.6946 -2.94662e-20)
(10.8851 5.52193 -2.93163e-20)
(10.9325 5.35785 0)
(10.9829 5.20181 -4.02473e-22)
(11.0352 5.05346 -2.69894e-20)
(11.0892 4.91243 0)
(11.1447 4.77823 2.62298e-20)
(11.2012 4.65039 4.09461e-19)
(11.2585 4.52845 -4.2785e-19)
(11.3165 4.41208 -4.96021e-20)
(11.375 4.30099 4.15975e-19)
(11.4341 4.19468 -3.88037e-19)
(11.4934 4.09265 -3.84489e-19)
(11.5526 3.9947 3.82621e-19)
(11.6114 3.90069 5.0491e-22)
(11.6697 3.81048 0)
(11.7278 3.72375 -4.77425e-20)
(11.7856 3.64018 -2.37434e-19)
(11.8429 3.55967 1.43098e-19)
(11.8995 3.48202 0)
(11.9555 3.40706 0)
(12.0107 3.33481 -4.79143e-20)
(12.0652 3.2652 9.63595e-20)
(12.1191 3.19813 9.58213e-20)
(12.1724 3.13368 -1.90775e-19)
(12.2253 3.07218 -4.14616e-20)
(12.278 3.00961 -9.89616e-20)
(12.2087 9.34726 0)
(11.9788 9.12402 2.90814e-20)
(11.7735 8.88504 -3.02574e-20)
(11.5968 8.63204 -3.08529e-20)
(11.445 8.3707 -3.24779e-20)
(11.3185 8.10704 6.3592e-20)
(11.2164 7.84508 -1.63938e-19)
(11.1383 7.58675 1.28721e-19)
(11.0801 7.33547 6.52409e-20)
(11.0397 7.09123 0)
(11.0139 6.85678 3.19122e-20)
(11.0012 6.63202 3.19439e-20)
(11 6.41733 3.14673e-20)
(11.0081 6.21364 -3.05195e-20)
(11.0243 6.01996 3.03781e-20)
(11.0483 5.83579 0)
(11.0787 5.66058 -2.03356e-19)
(11.1145 5.49372 2.27158e-19)
(11.1543 5.33526 0)
(11.1969 5.18439 -2.74151e-20)
(11.2413 5.04097 2.4013e-19)
(11.2878 4.90474 -1.82695e-19)
(11.3359 4.77502 -2.54299e-20)
(11.3852 4.65128 3.09555e-22)
(11.4356 4.53334 -1.98025e-19)
(11.4868 4.42087 1.95586e-19)
(11.5387 4.31343 -2.1714e-19)
(11.5914 4.21031 1.67324e-19)
(11.6443 4.11128 2.35481e-20)
(11.6968 4.01662 -1.88271e-19)
(11.749 3.92603 4.73783e-20)
(11.8009 3.83918 -4.6252e-20)
(11.853 3.75547 1.87174e-19)
(11.9044 3.67458 -1.40138e-19)
(11.9552 3.59706 1.88007e-19)
(12.0055 3.5223 1.41493e-19)
(12.0551 3.45012 -1.42448e-19)
(12.1037 3.38072 -4.72866e-20)
(12.1518 3.31393 -1.42042e-19)
(12.1989 3.24963 9.47147e-20)
(12.2456 3.18822 2.99401e-22)
(12.2918 3.12964 -5.24148e-20)
(12.3376 3.06863 9.78728e-20)
(12.4443 9.12912 2.61637e-20)
(12.2236 8.91679 0)
(12.0216 8.698 -2.90488e-20)
(11.8524 8.45997 -3.25774e-22)
(11.7006 8.21406 3.02013e-20)
(11.573 7.96537 3.10548e-20)
(11.4687 7.71804 -9.51212e-20)
(11.3885 7.47069 9.26469e-20)
(11.3256 7.23462 -6.28051e-20)
(11.2808 7.00006 0)
(11.2489 6.77846 9.3454e-20)
(11.2315 6.56204 -1.21663e-19)
(11.2246 6.35747 -2.77377e-19)
(11.2266 6.16514 2.928e-20)
(11.2374 5.97847 4.84404e-19)
(11.2564 5.79971 -2.04891e-19)
(11.2815 5.62935 -1.98575e-19)
(11.3123 5.46717 2.19877e-19)
(11.3468 5.31541 2.72511e-20)
(11.3834 5.1692 0)
(11.4213 5.0302 2.65434e-20)
(11.4624 4.89854 1.83354e-19)
(11.5049 4.77305 -1.79067e-19)
(11.5486 4.65291 -1.50874e-19)
(11.5938 4.53919 1.9902e-19)
(11.6391 4.43006 -1.47369e-19)
(11.6856 4.32511 1.93134e-19)
(11.7334 4.22412 4.7666e-20)
(11.7807 4.12814 -1.88609e-19)
(11.8274 4.03779 1.89645e-19)
(11.874 3.95066 0)
(11.9203 3.86671 -1.18238e-19)
(11.9668 3.78481 3.77694e-19)
(12.0113 3.70563 -1.65064e-19)
(12.0567 3.63183 0)
(12.1018 3.55952 2.38164e-20)
(12.1456 3.48974 -7.09908e-20)
(12.188 3.42281 -4.70169e-20)
(12.2301 3.3584 2.38134e-20)
(12.2711 3.2966 1.17078e-19)
(12.3124 3.23887 4.79623e-20)
(12.353 3.18243 1.81172e-20)
(12.3937 3.11865 -6.33448e-20)
(-3.28891 -2.51915 -1.03898e-18)
(-3.11373 -2.5478 5.46225e-19)
(-2.93614 -2.57775 2.78864e-19)
(-2.75666 -2.60788 -1.43421e-18)
(-2.5759 -2.63805 2.93599e-19)
(-2.39435 -2.66809 2.98917e-19)
(-2.21242 -2.69784 0)
(-2.03042 -2.72716 0)
(-1.84868 -2.75594 0)
(-1.66751 -2.78404 0)
(-1.48718 -2.81132 3.18039e-19)
(-1.30786 -2.83772 0)
(-1.12971 -2.86315 -1.6661e-19)
(-0.952987 -2.88753 1.70099e-19)
(-0.77783 -2.91079 -3.05547e-21)
(-0.60432 -2.93289 -8.91778e-20)
(-0.432659 -2.95376 -4.56392e-19)
(-0.262925 -2.9734 3.11239e-21)
(-0.0951561 -2.99178 1.93131e-19)
(0.0705337 -3.00887 3.02822e-19)
(0.234019 -3.02471 2.09141e-19)
(0.395298 -3.03923 -1.1179e-19)
(0.554304 -3.05252 -3.5027e-19)
(0.711016 -3.0646 0)
(0.865344 -3.07552 -2.60985e-19)
(1.01727 -3.08534 2.79983e-19)
(1.16681 -3.09414 -3.00563e-19)
(1.31392 -3.10202 6.45517e-19)
(1.45861 -3.10902 -5.2791e-19)
(1.60086 -3.11532 3.31929e-21)
(1.74061 -3.12097 0)
(1.87796 -3.12599 -8.05118e-19)
(2.01299 -3.13052 1.02243e-18)
(2.14582 -3.13444 1.14316e-18)
(2.27682 -3.13755 -2.58374e-18)
(2.40692 -3.1393 1.10959e-18)
(2.53845 -3.13867 2.13775e-19)
(2.67744 -3.13411 0)
(2.84023 -3.12481 2.96741e-19)
(3.07516 -3.11533 0)
(3.53532 -3.1413 -2.16026e-19)
(4.72845 -3.40947 9.10076e-18)
(8.64786 -4.87874 -9.95566e-18)
(-3.22001 -2.54595 -2.6194e-19)
(-3.05801 -2.57268 4.28489e-22)
(-2.89426 -2.60095 -5.55925e-19)
(-2.7288 -2.62949 8.51754e-19)
(-2.56202 -2.65823 2.89607e-19)
(-2.39425 -2.68704 0)
(-2.2258 -2.7158 0)
(-2.05688 -2.74445 -1.74426e-21)
(-1.88768 -2.77289 -1.52537e-19)
(-1.7184 -2.80107 -1.53909e-19)
(-1.5492 -2.82892 -1.57637e-19)
(-1.38025 -2.85637 -3.16762e-19)
(-1.21163 -2.88337 3.9026e-22)
(-1.04343 -2.90987 1.6346e-19)
(-0.875772 -2.9358 8.46527e-20)
(-0.708766 -2.9611 2.56488e-19)
(-0.542471 -2.98573 8.65426e-20)
(-0.376923 -3.00964 -1.81246e-19)
(-0.212128 -3.03279 1.8833e-19)
(-0.0481816 -3.05513 -2.92881e-19)
(0.11491 -3.0766 -3.04953e-19)
(0.277157 -3.09717 -1.0735e-19)
(0.438547 -3.11675 -1.81868e-21)
(0.599061 -3.13529 2.35997e-19)
(0.758749 -3.15273 2.48728e-19)
(0.917614 -3.16901 2.63353e-19)
(1.07573 -3.18406 -5.63025e-19)
(1.23323 -3.19782 3.02211e-19)
(1.39025 -3.21012 -1.63862e-19)
(1.54704 -3.22085 3.51311e-19)
(1.70405 -3.22978 -7.68327e-19)
(1.86204 -3.23663 2.11362e-19)
(2.02217 -3.24101 1.15666e-18)
(2.18651 -3.24235 -1.02483e-18)
(2.35877 -3.23989 -9.94927e-19)
(2.54616 -3.233 2.71468e-18)
(2.76252 -3.22171 -5.45137e-19)
(3.03552 -3.20804 -1.63429e-18)
(3.42154 -3.20198 -2.3222e-19)
(4.04188 -3.23879 -2.67114e-19)
(5.16739 -3.43493 3.23078e-19)
(7.41396 -4.13896 5.77012e-18)
(12.171 -6.19985 -5.51841e-18)
(-3.15068 -2.56312 7.71785e-19)
(-2.99879 -2.58969 -2.67892e-19)
(-2.84503 -2.61772 0)
(-2.68945 -2.64603 -5.56489e-19)
(-2.5324 -2.67462 1.07151e-21)
(-2.37404 -2.7034 2.8769e-19)
(-2.21463 -2.73225 -1.0408e-21)
(-2.05437 -2.76109 2.93183e-19)
(-1.89339 -2.78985 1.48373e-19)
(-1.73182 -2.81847 -2.11311e-22)
(-1.5698 -2.84689 3.02436e-19)
(-1.40743 -2.87506 3.06816e-19)
(-1.24478 -2.90295 -1.56417e-19)
(-1.08188 -2.93049 0)
(-0.918781 -2.9576 -1.61393e-19)
(-0.755532 -2.98425 1.66866e-19)
(-0.592148 -3.01037 2.54837e-19)
(-0.428672 -3.03591 -8.7984e-20)
(-0.265084 -3.06083 -4.34144e-20)
(-0.101323 -3.0851 2.34192e-19)
(0.0626442 -3.10866 1.94622e-19)
(0.226931 -3.13143 2.032e-19)
(0.391595 -3.1533 2.12936e-19)
(0.556837 -3.17415 -2.23984e-19)
(0.72283 -3.19386 -1.18272e-19)
(0.889734 -3.21224 -1.26728e-19)
(1.05787 -3.22912 0)
(1.22774 -3.2443 0)
(1.39995 -3.25751 4.60519e-19)
(1.57544 -3.26839 -1.67146e-19)
(1.75562 -3.27649 0)
(1.94254 -3.28124 -1.93642e-19)
(2.1395 -3.28201 -1.05908e-18)
(2.35189 -3.27823 9.3039e-19)
(2.58839 -3.26959 -2.54051e-19)
(2.86366 -3.25656 0)
(3.20285 -3.24196 3.09106e-19)
(3.65044 -3.23451 1.36945e-18)
(4.28815 -3.25708 -1.55468e-18)
(5.26825 -3.36882 2.41075e-18)
(6.87333 -3.71721 -1.54086e-18)
(9.62521 -4.64654 -2.10963e-18)
(14.1379 -6.73832 6.11167e-18)
(-3.08334 -2.57026 4.18786e-22)
(-2.94019 -2.5962 -7.81543e-22)
(-2.79571 -2.62292 2.422e-22)
(-2.64945 -2.64978 -5.04117e-22)
(-2.50156 -2.67694 2.77589e-19)
(-2.35211 -2.70431 -2.79802e-19)
(-2.20125 -2.73177 5.68086e-19)
(-2.04915 -2.75928 -2.86225e-19)
(-1.89587 -2.78681 0)
(-1.7415 -2.81428 1.46311e-19)
(-1.58613 -2.84165 -1.4726e-19)
(-1.42982 -2.8689 7.49518e-20)
(-1.27255 -2.89601 7.66079e-20)
(-1.11432 -2.92293 -2.32988e-19)
(-0.955092 -2.94962 7.91382e-20)
(-0.794839 -2.97601 -1.61313e-19)
(-0.633551 -3.002 4.14913e-20)
(-0.471189 -3.02753 1.28829e-19)
(-0.307765 -3.05252 -1.75964e-19)
(-0.143173 -3.07696 0)
(0.0227858 -3.10082 0)
(0.190271 -3.12402 9.90262e-20)
(0.359634 -3.14645 -1.03829e-19)
(0.531171 -3.16791 0)
(0.705221 -3.18815 0)
(0.882244 -3.20694 -3.30503e-22)
(1.06281 -3.22398 -1.29448e-19)
(1.24787 -3.23902 -2.73822e-19)
(1.43861 -3.25173 5.85721e-19)
(1.63688 -3.26166 -3.14228e-19)
(1.84518 -3.26822 0)
(2.06715 -3.27074 3.63253e-19)
(2.30808 -3.26871 -5.90972e-19)
(2.57609 -3.2619 8.50109e-19)
(2.88375 -3.25089 -9.26758e-19)
(3.25076 -3.23814 2.51448e-19)
(3.71013 -3.23 -1.09677e-18)
(4.31686 -3.24153 3.18122e-19)
(5.16268 -3.30621 -3.13604e-19)
(6.40162 -3.49708 -3.46716e-19)
(8.28604 -3.96715 1.7042e-18)
(11.207 -5.01919 0)
(15.3915 -7.03771 2.19079e-18)
(-3.01631 -2.57116 -2.49181e-19)
(-2.88132 -2.59584 -9.84764e-22)
(-2.74496 -2.62054 0)
(-2.60693 -2.64559 -1.09692e-21)
(-2.46706 -2.67106 0)
(-2.32523 -2.69683 -2.75035e-19)
(-2.18159 -2.72266 -4.16827e-19)
(-2.03631 -2.74855 1.40555e-19)
(-1.88945 -2.77453 0)
(-1.74093 -2.80052 0)
(-1.59087 -2.82643 -1.44433e-19)
(-1.43935 -2.85228 -7.37889e-20)
(-1.28625 -2.87809 -2.23049e-19)
(-1.13153 -2.90379 7.54019e-20)
(-0.975089 -2.92938 -7.7716e-20)
(-0.816871 -2.95476 0)
(-0.656709 -2.97987 0)
(-0.49446 -3.00456 -2.08244e-19)
(-0.330226 -3.02865 4.31396e-20)
(-0.163922 -3.0521 -1.3441e-19)
(0.00467737 -3.07499 -7.76605e-23)
(0.175943 -3.09731 1.45303e-19)
(0.350456 -3.11897 2.023e-19)
(0.528691 -3.13976 0)
(0.711264 -3.15943 0)
(0.898953 -3.17754 2.35092e-19)
(1.09258 -3.19373 4.96232e-19)
(1.29336 -3.20765 0)
(1.50296 -3.21913 0)
(1.72419 -3.22794 2.99392e-19)
(1.96089 -3.23362 1.60005e-19)
(2.21781 -3.23537 0)
(2.50186 -3.23281 1.83526e-19)
(2.82301 -3.22637 0)
(3.19652 -3.21754 2.13347e-19)
(3.64612 -3.21056 -2.31656e-19)
(4.20876 -3.21494 0)
(4.94388 -3.25075 -2.07937e-21)
(5.94427 -3.35838 3.09244e-19)
(7.35424 -3.61684 0)
(9.39233 -4.17565 -6.88758e-21)
(12.3404 -5.2916 1.49562e-18)
(16.2584 -7.22997 -3.56001e-18)
(-2.94742 -2.56696 5.4322e-22)
(-2.82173 -2.58973 3.8523e-19)
(-2.69317 -2.61225 -1.31028e-19)
(-2.56265 -2.63524 3.97349e-19)
(-2.43004 -2.65881 2.84662e-22)
(-2.29498 -2.68285 -1.35413e-19)
(-2.1576 -2.70689 -2.26916e-22)
(-2.01828 -2.73092 -1.37967e-19)
(-1.87703 -2.75513 -6.94461e-20)
(-1.73349 -2.77949 2.10811e-19)
(-1.58783 -2.80368 0)
(-1.44035 -2.8278 2.87431e-19)
(-1.29061 -2.85203 0)
(-1.13876 -2.87612 0)
(-0.984535 -2.90025 3.02918e-19)
(-0.827695 -2.92429 -1.166e-19)
(-0.668193 -2.94819 -3.97595e-20)
(-0.505598 -2.97186 0)