/*--------------------------------*- C++ -*----------------------------------*\
| =========                 |                                                 |
| \\      /  F ield         | OpenFOAM: The Open Source CFD Toolbox           |
|  \\    /   O peration     | Version:  2.3.0                                 |
|   \\  /    A nd           | Web:      www.OpenFOAM.org                      |
|    \\/     M anipulation  |                                                 |
\*---------------------------------------------------------------------------*/
FoamFile
{
    version     2.0;
    format      ascii;
    class       volScalarField;
    location    "1000";
    object      nuTilda;
}
// * * * * * * * * * * * * * * * * * * * * * * * * * * * * * * * * * * * * * //

dimensions      [0 2 -1 0 0 0 0];

internalField   nonuniform List<scalar> 
14050
(
0.0587404
0.0554585
0.0522433
0.0491103
0.0460725
0.0431441
0.0403434
0.0376916
0.0352143
0.0329309
0.0308641
0.0290373
0.0274425
0.0259406
0.0244492
0.022977
0.0215359
0.0201295
0.0187511
0.017389
0.0160216
0.0146242
0.0132019
0.0120158
0.0622362
0.0595213
0.0568768
0.0543105
0.051828
0.0494348
0.0471366
0.0449385
0.0428471
0.0408676
0.0390063
0.0372714
0.0356687
0.0342014
0.0328709
0.0316835
0.0306472
0.0297696
0.0290592
0.0285199
0.0281557
0.0279685
0.0279568
0.028118
0.0653807
0.0631165
0.0609224
0.0587999
0.0567525
0.0547835
0.0528971
0.0510968
0.0493868
0.0477713
0.0462548
0.0448416
0.0435374
0.042347
0.0412764
0.0403306
0.0395169
0.0388398
0.0383034
0.0379116
0.0376646
0.0375611
0.0375969
0.0377646
0.068188
0.066292
0.0644594
0.0626887
0.0609815
0.05934
0.0577676
0.056267
0.0548413
0.0534941
0.0522288
0.0510497
0.0499611
0.0489675
0.0480741
0.0472859
0.0466074
0.0460444
0.0456
0.0452773
0.0450778
0.0450007
0.0450433
0.0452012
0.0706769
0.0690867
0.0675455
0.0660539
0.0646133
0.0632258
0.0618936
0.0606195
0.0594064
0.0582575
0.0571755
0.0561647
0.0552294
0.0543737
0.0536023
0.05292
0.0523317
0.0518419
0.0514551
0.0511741
0.0510015
0.0509379
0.0509822
0.0511315
0.0728915
0.071544
0.0702357
0.0689658
0.0677354
0.0665459
0.0653994
0.0642988
0.0632471
0.0622473
0.0613023
0.0604161
0.0595931
0.0588376
0.0581542
0.0575477
0.0570227
0.0565844
0.0562365
0.0559834
0.0558279
0.0557715
0.0558146
0.0559559
0.0748507
0.0737015
0.0725811
0.071489
0.0704254
0.0693918
0.0683904
0.0674243
0.0664971
0.0656117
0.0647713
0.0639797
0.0632412
0.0625609
0.0619437
0.0613942
0.0609167
0.060516
0.0601969
0.0599636
0.0598201
0.059768
0.0598093
0.0599434
0.0765855
0.0755962
0.0746279
0.0736795
0.0727502
0.071841
0.0709547
0.0700938
0.0692636
0.0684679
0.0677096
0.0669917
0.0663182
0.0656951
0.065129
0.064624
0.0641839
0.0638132
0.0635164
0.0632981
0.0631632
0.0631142
0.0631531
0.0632812
0.0781188
0.0772607
0.0764157
0.0755852
0.0747654
0.0739562
0.0731654
0.0723865
0.0716319
0.070907
0.0702145
0.0695561
0.0689348
0.0683542
0.0678283
0.0673585
0.0669503
0.0666037
0.0663278
0.066119
0.0659914
0.0659454
0.0659804
0.0661037
0.0794832
0.0787246
0.0779726
0.0772355
0.0765121
0.0757832
0.0750838
0.0743662
0.0736678
0.0729978
0.0723576
0.0717475
0.0711777
0.0706247
0.0701308
0.0696832
0.0693091
0.0689788
0.0687326
0.0685241
0.0684027
0.0683646
0.0683893
0.0685085
0.0130116
0.0153816
0.0169136
0.0183776
0.0199618
0.021716
0.0236387
0.0257153
0.0279284
0.0302628
0.0327075
0.0352521
0.0378888
0.0406113
0.0434131
0.0462877
0.049229
0.0522304
0.0552844
0.0583835
0.0615193
0.0646824
0.0678633
0.071064
0.0284334
0.0289133
0.0295839
0.0304488
0.0315048
0.0327438
0.0341541
0.0357228
0.0374354
0.0392775
0.0412369
0.0433005
0.0454583
0.0477011
0.0500205
0.0524094
0.054861
0.0573697
0.0599296
0.0625344
0.0651781
0.067854
0.0705553
0.0732829
0.0380508
0.0384643
0.0390242
0.0397346
0.0405934
0.0415964
0.0427373
0.044008
0.0453995
0.046902
0.0485062
0.0502027
0.0519834
0.0538407
0.0557679
0.0577586
0.0598072
0.0619093
0.0640596
0.0662536
0.0684867
0.070754
0.0730504
0.0753776
0.0454661
0.0458433
0.0463432
0.0469674
0.0477146
0.0485809
0.049561
0.0506482
0.0518353
0.053115
0.0544794
0.055921
0.057433
0.0590096
0.0606448
0.0623338
0.0640721
0.0658556
0.0676809
0.0695444
0.0714431
0.0733738
0.0753337
0.0773256
0.0513805
0.0517324
0.0521929
0.0527615
0.0534362
0.0542129
0.055086
0.0560492
0.057096
0.0582199
0.0594139
0.0606716
0.0619872
0.0633553
0.064771
0.0662301
0.0677291
0.0692644
0.0708331
0.0724328
0.0740615
0.075717
0.0773988
0.0791146
0.0561917
0.0565242
0.0569558
0.0574846
0.058108
0.0588208
0.0596172
0.0604911
0.0614362
0.0624459
0.0635145
0.064636
0.0658046
0.0670155
0.0682646
0.0695474
0.0708607
0.0722019
0.0735682
0.0749575
0.0763684
0.0777992
0.0792499
0.0807302
0.0601687
0.0604857
0.0608949
0.0613941
0.0619792
0.0626439
0.0633824
0.0641886
0.065056
0.0659788
0.0669517
0.067969
0.0690252
0.0701153
0.071235
0.0723804
0.073548
0.0747357
0.0759413
0.0771622
0.0783966
0.0796435
0.0809027
0.0821814
0.0634975
0.0638013
0.0641929
0.0646696
0.0652255
0.0658527
0.0665459
0.0672985
0.0681041
0.0689584
0.0698562
0.070792
0.0717603
0.0727558
0.0737735
0.0748097
0.0758616
0.0769269
0.0780037
0.0790892
0.0801795
0.0812755
0.0823768
0.0834944
0.0663125
0.0666034
0.0669805
0.0674407
0.0679761
0.0685711
0.0692279
0.0699373
0.0706908
0.0714894
0.0723279
0.0731992
0.0740983
0.0750183
0.075954
0.0769023
0.0778606
0.0788273
0.079801
0.0807781
0.0817474
0.0827195
0.083689
0.0846725
0.0687141
0.0689881
0.069351
0.0697945
0.0703189
0.0708785
0.0715038
0.0721802
0.0728862
0.0736412
0.0744335
0.0752542
0.0761005
0.0769598
0.07783
0.0787083
0.0795908
0.0804799
0.0813759
0.082272
0.0831263
0.0839986
0.0848555
0.0857346
0.0590109
0.0535334
0.0481296
0.04306
0.038459
0.0343098
0.0305687
0.0271939
0.024148
0.0213978
0.0189138
0.0166701
0.0146449
0.0128193
0.0111771
0.00970746
0.00840024
0.00724287
0.00622745
0.00537596
0.00475676
0.00410998
0.00336096
0.00242578
0.059874
0.054908
0.0499898
0.0453357
0.0410756
0.0372046
0.0336879
0.0304922
0.0275878
0.024948
0.0225504
0.0203778
0.0184162
0.0166591
0.0150951
0.0137176
0.0125296
0.0115628
0.0106691
0.00972641
0.00870238
0.00755894
0.00624602
0.00468631
0.0608409
0.056362
0.0519056
0.0476371
0.0436937
0.0400869
0.0367896
0.0337746
0.0310191
0.0285039
0.0262151
0.0241435
0.022288
0.0206388
0.019191
0.0179534
0.0169061
0.0158508
0.0147299
0.0135034
0.0121334
0.0105837
0.00881144
0.00676657
0.0618364
0.0578013
0.0537671
0.0498528
0.0461977
0.0428328
0.0397376
0.0368915
0.0342779
0.0318854
0.0297074
0.0277456
0.0259946
0.0244513
0.0231235
0.021971
0.0208113
0.0195826
0.0182445
0.0167619
0.0150988
0.0132188
0.0110799
0.00863971
0.0628009
0.059169
0.0555119
0.051921
0.048529
0.0453837
0.042472
0.0397797
0.0372967
0.0350186
0.0329468
0.0310833
0.0294246
0.0279722
0.0267313
0.0255092
0.0242277
0.0228424
0.0213175
0.019617
0.0177063
0.0155464
0.0130951
0.0103109
0.063709
0.0604338
0.0571089
0.0538085
0.0506544
0.0477075
0.0449617
0.042408
0.0400428
0.0378676
0.0358911
0.0341139
0.0325386
0.031179
0.0299129
0.0286127
0.0272236
0.0257063
0.0240238
0.0221401
0.0200174
0.0176155
0.0148914
0.0118002
0.064549
0.0615785
0.0585432
0.0555
0.0525595
0.0497912
0.0471945
0.0447657
0.0425057
0.0404222
0.0385273
0.0368219
0.0353105
0.0339968
0.0326944
0.0313272
0.02985
0.0282239
0.0264114
0.0243735
0.0220702
0.0194595
0.0164947
0.0131279
0.0653077
0.0625926
0.0598087
0.0569925
0.0542414
0.0516329
0.0491715
0.0468553
0.0446888
0.0426857
0.0408592
0.0392174
0.0377725
0.0364544
0.0351147
0.033693
0.0321455
0.0304322
0.0285136
0.026348
0.0238923
0.0211016
0.0179257
0.0143141
0.0659228
0.0634609
0.0609049
0.0582883
0.0557029
0.0532366
0.0509004
0.048689
0.0466058
0.0446695
0.0428972
0.0413037
0.0399084
0.0385771
0.0372064
0.035742
0.0341413
0.0323605
0.0303571
0.0280859
0.0255021
0.0225586
0.0192033
0.0153772
0.066448
0.0641942
0.0618431
0.0593968
0.0569507
0.0546058
0.0523926
0.0502871
0.0482802
0.0463964
0.0446616
0.0431048
0.041719
0.0403858
0.0389999
0.0375007
0.0358597
0.0340351
0.0319653
0.0296026
0.0269068
0.023839
0.0203472
0.0163458
0.00128413
0.000851643
0.00110378
0.00140326
0.00169175
0.00197429
0.00226062
0.00256556
0.0029125
0.00333745
0.00388722
0.00455888
0.00533695
0.0062203
0.00721299
0.00832176
0.00955315
0.0109137
0.0124114
0.0140554
0.0158557
0.0178225
0.0199667
0.0223066
0.00284397
0.00149929
0.00140872
0.00169099
0.00199023
0.00229357
0.00261704
0.00298257
0.00341523
0.00394031
0.0045825
0.00532243
0.00615116
0.00706998
0.00808326
0.00919581
0.0104122
0.0117386
0.0131817
0.0147497
0.0164507
0.0182939
0.0202914
0.0224598
0.00443017
0.00233024
0.00172483
0.00195495
0.00227609
0.00261998
0.0030041
0.00344978
0.00397362
0.00458712
0.00530397
0.00609982
0.00697104
0.00791941
0.00894818
0.0100601
0.011259
0.0125502
0.0139391
0.0154322
0.017037
0.0187616
0.0206157
0.0226081
0.00587696
0.0031983
0.00205477
0.00219875
0.00255223
0.00295171
0.00340867
0.00393712
0.0045435
0.00523214
0.00600853
0.0068509
0.00775746
0.00872986
0.00976924
0.0108775
0.0120578
0.0133142
0.0146515
0.0160749
0.0175903
0.0192047
0.0209251
0.0227574
0.00716766
0.00402268
0.00239101
0.00242997
0.00282372
0.00328681
0.00381823
0.00442256
0.00509911
0.00585349
0.00667939
0.00756136
0.00849794
0.00948925
0.0105359
0.0116388
0.0128006
0.0140244
0.0153136
0.0166726
0.0181062
0.0196193
0.0212169
0.0229031
0.00831543
0.00477441
0.00272317
0.0026531
0.00309171
0.00362019
0.00422141
0.00489248
0.00562982
0.00644127
0.00730979
0.00822607
0.00918822
0.0101949
0.0112463
0.0123432
0.0134871
0.0146804
0.0159255
0.0172256
0.0185841
0.0200043
0.0214892
0.0230387
0.00933563
0.00545029
0.00304253
0.0028693
0.00335369
0.00394523
0.00461008
0.00534018
0.00613245
0.00699156
0.00789747
0.00884363
0.00982737
0.0108468
0.0119017
0.0129923
0.0141194
0.0152845
0.0164892
0.0177353
0.0190252
0.0203609
0.0217444
0.02318
0.0102448
0.00605485
0.00334484
0.003078
0.00360752
0.00425798
0.00497953
0.0057615
0.00660343
0.0075032
0.00844207
0.00941446
0.0104167
0.011447
0.0125044
0.0135887
0.0147002
0.0158394
0.017007
0.0182039
0.0194313
0.0206901
0.0219814
0.0233057
0.0110592
0.00659103
0.00362186
0.00328286
0.00385306
0.00455405
0.00532403
0.00615134
0.00704
0.00797634
0.00894492
0.00993989
0.0109581
0.0119979
0.0130583
0.0141374
0.0152339
0.016348
0.0174807
0.0186322
0.0198027
0.0209913
0.0221975
0.0234215
0.0118421
0.00718756
0.00392559
0.00345094
0.0040625
0.00482739
0.00565732
0.00653582
0.00746437
0.00842717
0.00941442
0.0104281
0.0114659
0.0125214
0.0135912
0.014661
0.0157285
0.0168092
0.0179056
0.0190143
0.0201345
0.0212588
0.0223859
0.023518
0.000518364
0.00177615
0.00370543
0.00588637
0.0080533
0.0101823
0.0122709
0.0143191
0.0163275
0.0182949
0.02022
0.0221069
0.023989
0.0259319
0.0279791
0.0301138
0.0323631
0.0350026
0.0379686
0.0411697
0.044542
0.0480437
0.0516448
0.0553272
0.000404759
0.00111607
0.00260627
0.00445283
0.00625858
0.00802962
0.00980382
0.0116068
0.0134408
0.0153012
0.0171818
0.0190777
0.0209913
0.022939
0.0249467
0.0270347
0.0292432
0.0316888
0.0343688
0.0373113
0.040666
0.0443036
0.0481198
0.0520514
0.000250467
0.000720454
0.00172293
0.00310121
0.00488614
0.00693863
0.00891042
0.0107869
0.012597
0.0143647
0.0161092
0.0178477
0.0195972
0.0213766
0.023211
0.0251322
0.0271831
0.0294239
0.031898
0.0346415
0.0376797
0.0410708
0.0448746
0.0489521
0.000269958
0.00061295
0.00144786
0.00259266
0.004087
0.00596712
0.00803362
0.0100799
0.0120643
0.0139761
0.0158102
0.0175685
0.0192632
0.0209179
0.0225681
0.0242614
0.0260561
0.0280184
0.0302157
0.0327032
0.0355077
0.0386531
0.0421051
0.0460663
0.000249334
0.000549327
0.00128721
0.00230359
0.00362323
0.0052824
0.00728846
0.00942126
0.0115363
0.0135955
0.0155846
0.0174884
0.0192931
0.020995
0.0226082
0.0241706
0.0257452
0.027416
0.0292797
0.0314284
0.0339274
0.0368072
0.0400412
0.0436375
0.000250379
0.00051477
0.00119709
0.00213525
0.00334904
0.00487192
0.00673888
0.00886115
0.0110495
0.0132187
0.0153382
0.0173886
0.0193472
0.0211905
0.0229033
0.0244894
0.0259837
0.0274591
0.0290244
0.0308077
0.0329281
0.0354644
0.0384328
0.0418145
0.000246809
0.000489119
0.001131
0.0020157
0.00315693
0.00458486
0.00633579
0.00840235
0.0106258
0.0128773
0.0151017
0.0172732
0.0193691
0.0213622
0.0232233
0.0249296
0.0264782
0.0279032
0.0292887
0.0307682
0.0325019
0.0346338
0.0372489
0.0403636
0.000247212
0.000472171
0.0010867
0.00193388
0.00302375
0.00438427
0.00605036
0.00804331
0.010266
0.0125731
0.0148829
0.0171575
0.019372
0.0214994
0.0235075
0.0253622
0.0270364
0.0285253
0.029868
0.0311658
0.0325817
0.0343077
0.0365075
0.0392701
0.000247477
0.000459243
0.00105282
0.00187202
0.0029237
0.00423382
0.00583551
0.00775957
0.00996151
0.0123043
0.0146849
0.0170498
0.0193685
0.0216144
0.0237558
0.0257557
0.0275759
0.0291877
0.0305894
0.0318334
0.0330478
0.0344316
0.0362082
0.0385548
0.000248608
0.000449598
0.00102736
0.00182527
0.00284771
0.00411929
0.00567127
0.00753747
0.00970685
0.0120681
0.0145056
0.0169497
0.0193623
0.0217151
0.023977
0.0261113
0.028076
0.02983
0.0313457
0.0326318
0.0337647
0.0349115
0.0363142
0.0382264
0.000249904
0.000442028
0.00100727
0.00178842
0.00278787
0.00402891
0.00554162
0.00735998
0.00949308
0.0118598
0.0143424
0.0168568
0.0193551
0.0218055
0.0241776
0.0264354
0.0285363
0.0304338
0.0320857
0.0334704
0.0346165
0.0356387
0.0367567
0.0382635
0.000251447
0.000436003
0.00099117
0.00175892
0.00273987
0.00395643
0.00543731
0.00721634
0.00931362
0.0116763
0.0141929
0.0167691
0.0193462
0.0218873
0.0243614
0.0267335
0.0289614
0.0309968
0.03279
0.0343009
0.0355217
0.0365146
0.0374508
0.0386194
0.000253051
0.000431145
0.000978084
0.00173488
0.00270067
0.00389703
0.00535182
0.00709806
0.00916209
0.0115144
0.0140558
0.0166857
0.0193352
0.0219613
0.0245307
0.0270093
0.029356
0.0315221
0.0334542
0.0351014
0.0364318
0.037464
0.0383133
0.0392303
0.000254753
0.0004272
0.000967353
0.00171503
0.00266824
0.0038478
0.00528084
0.00699952
0.00903379
0.0113715
0.0139298
0.016606
0.0193221
0.0220279
0.0246873
0.027266
0.029724
0.0320135
0.0340793
0.0358646
0.0373217
0.0384374
0.0392758
0.0400325
0.000256447
0.000423928
0.000958404
0.00169851
0.00264116
0.00380668
0.00522126
0.00691667
0.0089244
0.0112458
0.0138143
0.01653
0.0193072
0.022088
0.0248327
0.0275062
0.0300694
0.0324753
0.0346687
0.0365894
0.0381802
0.0394054
0.040288
0.0409668
0.000258106
0.000421243
0.000951046
0.00168479
0.00261852
0.00377205
0.00517107
0.00684646
0.00883095
0.0111353
0.0137094
0.0164582
0.0192913
0.022143
0.024969
0.0277327
0.0303957
0.032912
0.035227
0.0372786
0.0390041
0.0403526
0.0413159
0.0419815
0.000259768
0.000419018
0.000944828
0.00167317
0.00259938
0.00374271
0.00512841
0.00678673
0.00875078
0.0110383
0.0136142
0.0163909
0.0192749
0.0221938
0.0250977
0.0279481
0.0307063
0.0333277
0.0357584
0.0379361
0.0397942
0.0412719
0.0423364
0.0430242
0.000261391
0.000417226
0.000939729
0.00166344
0.00258316
0.0037178
0.00509189
0.00673544
0.00868154
0.0109532
0.0135279
0.016328
0.0192585
0.0222411
0.02522
0.0281539
0.0310039
0.033726
0.0362674
0.0385662
0.0405535
0.0421618
0.0433403
0.0440844
0.000262962
0.000415807
0.000935736
0.0016552
0.00256932
0.00369632
0.00506049
0.00669108
0.00862143
0.0108778
0.0134495
0.0162689
0.0192418
0.0222847
0.0253361
0.028351
0.0312896
0.0341087
0.0367565
0.0391714
0.0412838
0.0430209
0.0443188
0.0451431
0.000264437
0.000414596
0.000932301
0.00164804
0.00255723
0.00367761
0.00503289
0.00665211
0.00856826
0.0108105
0.0133774
0.0162124
0.0192239
0.0223239
0.0254451
0.0285387
0.0315635
0.0344764
0.0372266
0.0397533
0.0419861
0.0438493
0.0452697
0.0461954
0.000265772
0.000413493
0.000929279
0.00164173
0.00254653
0.00366094
0.0050084
0.00661738
0.0085207
0.0107495
0.0133104
0.0161575
0.0192037
0.0223576
0.0255461
0.0287161
0.0318247
0.0348286
0.0376777
0.0403119
0.0426608
0.0446463
0.0461886
0.0472205
0.000267034
0.000412541
0.000926591
0.00163604
0.00253689
0.00364587
0.00498619
0.00658586
0.00847759
0.0106936
0.0132473
0.0161033
0.0191802
0.0223844
0.0256375
0.0288817
0.0320716
0.0351637
0.0381084
0.0408463
0.0433069
0.0454107
0.047073
0.0482153
0.000268152
0.000411619
0.000924098
0.0016308
0.00252801
0.00363209
0.00496576
0.0065569
0.00843771
0.0106416
0.0131871
0.0160491
0.0191527
0.0224035
0.0257183
0.0290341
0.032303
0.0354805
0.0385175
0.0413552
0.0439234
0.0461412
0.0479203
0.0491724
0.0002691
0.000410759
0.000921826
0.00162599
0.00251978
0.00361917
0.0049467
0.00652979
0.00840051
0.0105927
0.0131292
0.0159943
0.0191208
0.0224146
0.0257879
0.0291728
0.0325182
0.0357785
0.0389047
0.0418387
0.0445108
0.0468397
0.0487352
0.0501062
0.000269934
0.000409918
0.000919665
0.00162144
0.00251198
0.00360698
0.00492867
0.00650419
0.00836529
0.0105462
0.0130732
0.015939
0.0190847
0.0224176
0.0258462
0.0292977
0.0327171
0.0360577
0.0392704
0.0422976
0.0450704
0.0475073
0.0495174
0.0510053
0.000270632
0.000409111
0.000917584
0.00161706
0.00250449
0.00359526
0.00491138
0.00647969
0.00833163
0.0105017
0.0130186
0.015883
0.0190442
0.0224126
0.0258934
0.0294087
0.0328999
0.0363183
0.0396149
0.0427325
0.0456027
0.0481444
0.0502654
0.0518661
0.000271171
0.000408287
0.00091556
0.00161284
0.00249723
0.00358391
0.00489467
0.00645601
0.00829913
0.0104586
0.0129652
0.0158261
0.0189996
0.0223997
0.0259293
0.0295058
0.0330665
0.0365605
0.0399383
0.0431435
0.0461081
0.048751
0.0509794
0.0526907
0.000271572
0.000407472
0.000913561
0.00160869
0.00249014
0.00357283
0.00487833
0.00643296
0.00826755
0.0104166
0.0129126
0.0157684
0.018951
0.0223791
0.0259542
0.0295891
0.0332167
0.0367839
0.0402405
0.0435304
0.0465859
0.0493264
0.0516578
0.0534737
0.000271843
0.000406683
0.000911662
0.0016047
0.00248326
0.00356202
0.00486239
0.00641042
0.00823667
0.0103755
0.0128608
0.01571
0.0188986
0.0223511
0.0259682
0.0296586
0.0333506
0.0369887
0.0405216
0.0438934
0.0470373
0.0498727
0.0523057
0.054231
0.000271956
0.000405874
0.000909738
0.00160074
0.00247647
0.00355143
0.00484679
0.00638837
0.00820644
0.0103353
0.0128096
0.015651
0.0188429
0.0223162
0.025972
0.0297148
0.0334688
0.0371753
0.0407821
0.0442336
0.0474633
0.0503915
0.0529248
0.0549576
0.000271951
0.000405117
0.00090792
0.00159696
0.00246993
0.00354113
0.00483156
0.00636683
0.0081769
0.0102959
0.0127592
0.0155918
0.0187845
0.0222752
0.025966
0.0297582
0.0335714
0.0373437
0.0410219
0.0445499
0.0478621
0.0508788
0.0535052
0.0556265
0.000271808
0.000404372
0.000906094
0.00159327
0.00246356
0.00353115
0.00481682
0.00634593
0.00814818
0.0102575
0.0127098
0.0155328
0.0187243
0.0222292
0.0259516
0.02979
0.0336596
0.0374952
0.041242
0.0448439
0.0482359
0.0513394
0.0540614
0.0562967
0.000271516
0.000403662
0.000904297
0.00158969
0.00245739
0.00352146
0.00480249
0.00632565
0.00812036
0.0102203
0.0126616
0.0154746
0.018663
0.0221792
0.0259302
0.0298118
0.0337352
0.0376315
0.0414442
0.0451173
0.0485862
0.0517733
0.0545864
0.0569195
0.000271091
0.000402907
0.000902466
0.00158613
0.00245129
0.00351194
0.00478853
0.00630592
0.00809331
0.0101842
0.0126148
0.0154174
0.0186012
0.0221263
0.025903
0.0298252
0.0337997
0.0377542
0.0416304
0.0453718
0.0489146
0.0521817
0.0550814
0.0575065
0.000270529
0.0004021
0.000900562
0.00158249
0.00244513
0.00350243
0.00477465
0.00628646
0.00806678
0.0101489
0.012569
0.0153611
0.0185393
0.0220711
0.0258709
0.0298312
0.0338546
0.0378653
0.0418027
0.04561
0.0492239
0.0525683
0.0555529
0.0580722
0.00026982
0.000401202
0.000898498
0.00157862
0.00243869
0.00349261
0.00476049
0.00626677
0.00804016
0.0101136
0.0125236
0.0153051
0.0184767
0.0220134
0.0258341
0.0298303
0.0339008
0.0379657
0.0419623
0.0458333
0.0495157
0.0529346
0.0560007
0.0586096
0.000268959
0.000400188
0.000896196
0.00157437
0.00243172
0.00348211
0.00474551
0.0062462
0.00801264
0.0100775
0.0124772
0.0152479
0.0184121
0.0219518
0.0257914
0.0298218
0.0339377
0.0380555
0.0421097
0.0460423
0.0497908
0.0532808
0.0564239
0.0591172
0.000267934
0.000399024
0.000893578
0.00156959
0.00242397
0.00347056
0.00472919
0.00622399
0.0079832
0.0100393
0.0124285
0.0151878
0.0183433
0.021884
0.0257404
0.0298032
0.0339634
0.0381329
0.0422437
0.0462365
0.0500491
0.0536077
0.0568243
0.0595947
0.000266746
0.000397722
0.000890644
0.00156426
0.00241536
0.00345778
0.00471122
0.00619966
0.00795114
0.00999783
0.0123759
0.0151229
0.018268
0.0218072
0.0256776
0.029771
0.0339743
0.0381948
0.0423616
0.0464142
0.0502899
0.0539157
0.0572036
0.0600496
0.000265396
0.000396284
0.000887402
0.00155837
0.00240587
0.0034437
0.00469146
0.00617294
0.00791597
0.0099525
0.0123185
0.0150519
0.0181845
0.0217187
0.0255995
0.0297204
0.033965
0.0382358
0.0424582
0.0465701
0.0505087
0.054201
0.0575589
0.0604782
0.0002639
0.000394735
0.000883901
0.00155202
0.00239562
0.0034285
0.00467011
0.00614406
0.00787793
0.00990343
0.0122563
0.0149747
0.0180922
0.0216174
0.0255036
0.0296478
0.0339305
0.0382495
0.0425261
0.0466963
0.0506967
0.054454
0.0578798
0.0608664
0.000262273
0.000393092
0.000880192
0.0015453
0.00238481
0.00341247
0.00464758
0.00611355
0.00783773
0.00985152
0.0121904
0.0148924
0.0179928
0.0215052
0.0253913
0.029553
0.033869
0.0382323
0.04256
0.0467853
0.0508436
0.0546608
0.0581462
0.0611876
0.000260531
0.000391394
0.000876372
0.00153838
0.0023737
0.00339601
0.00462445
0.00608222
0.00779642
0.00979814
0.0121225
0.0148076
0.0178896
0.0213862
0.0252673
0.0294405
0.0337841
0.0381865
0.0425604
0.0468358
0.050946
0.0548143
0.058343
0.0613953
0.000258697
0.000389657
0.000872491
0.0015314
0.0023625
0.00337946
0.00460123
0.00605082
0.00775504
0.00974472
0.0120547
0.0147228
0.017786
0.0212655
0.0251383
0.0293185
0.0336849
0.0381223
0.0425393
0.0468631
0.0510265
0.054955
0.0585596
0.061743
0.000256786
0.000387907
0.000868602
0.00152442
0.00235136
0.00336303
0.00457826
0.00601981
0.0077143
0.00969224
0.0119881
0.0146398
0.0176845
0.0211466
0.0250095
0.0291938
0.0335799
0.0380496
0.042508
0.0468802
0.0510992
0.055093
0.0587788
0.0620658
0.000254813
0.00038614
0.000864707
0.00151747
0.00234031
0.0033468
0.00455562
0.00598937
0.00767442
0.00964103
0.0119234
0.0145592
0.0175862
0.0210311
0.0248832
0.0290698
0.0334731
0.037973
0.0424711
0.0468905
0.0511642
0.055222
0.0589837
0.0623607
0.000252781
0.000384369
0.000860814
0.00151055
0.00232935
0.00333076
0.00453332
0.00595948
0.00763538
0.00959104
0.0118604
0.014481
0.0174909
0.0209191
0.02476
0.0289475
0.0333662
0.0378942
0.0424299
0.0468946
0.0512203
0.0553374
0.0591656
0.0626119
0.000250703
0.000382579
0.000856895
0.00150361
0.00231839
0.00331479
0.00451121
0.00592992
0.00759691
0.00954195
0.0117988
0.0144046
0.0173981
0.0208098
0.0246393
0.0288266
0.0332591
0.0378133
0.0423849
0.0468927
0.0512681
0.0554418
0.0593348
0.0628552
0.000248548
0.00038076
0.000852918
0.00149661
0.00230737
0.00329876
0.00448907
0.00590044
0.00755864
0.00949326
0.0117378
0.0143293
0.0173067
0.0207022
0.0245199
0.028706
0.0331509
0.0377299
0.0423358
0.0468853
0.0513089
0.0555383
0.0594962
0.0630964
0.000246341
0.000378872
0.000848833
0.00148945
0.00229615
0.00328249
0.00446669
0.0058707
0.00752015
0.00944442
0.0116768
0.0142542
0.0172156
0.0205948
0.0244
0.0285836
0.0330394
0.0376417
0.0422804
0.0468698
0.0513394
0.0556212
0.0596387
0.063305
0.00024406
0.000376965
0.000844673
0.00148214
0.00228469
0.00326591
0.0044439
0.00584048
0.00748112
0.00939497
0.0116151
0.0141783
0.0171237
0.0204862
0.0242779
0.0284576
0.0329226
0.0375464
0.0422161
0.0468432
0.0513562
0.0556866
0.059758
0.0634823
0.000241718
0.000374968
0.000840349
0.00147457
0.00227288
0.00324888
0.00442054
0.00580956
0.00744124
0.00934455
0.0115523
0.0141011
0.0170302
0.0203755
0.0241527
0.0283266
0.0327988
0.0374421
0.0421409
0.0468037
0.0513577
0.0557337
0.059855
0.0636331
0.000239343
0.000372976
0.000835954
0.0014668
0.00226077
0.00323138
0.00439656
0.00577784
0.0074004
0.00929291
0.0114881
0.0140223
0.0169347
0.0202621
0.0240236
0.0281898
0.0326669
0.0373279
0.0420539
0.0467509
0.0513437
0.0557632
0.0599322
0.0637622
0.000236885
0.000370908
0.000831425
0.00145879
0.00224826
0.0032134
0.00437189
0.0057453
0.00735844
0.00924002
0.0114223
0.0139415
0.0168369
0.0201459
0.0238903
0.0280469
0.0325268
0.0372031
0.0419546
0.0466842
0.051315
0.0557769
0.0599937
0.0638772
0.000234401
0.000368818
0.000826887
0.00145061
0.00223549
0.00319494
0.00434669
0.00571193
0.00731553
0.00918583
0.0113551
0.013859
0.0167369
0.0200268
0.0237532
0.0278979
0.0323781
0.0370678
0.041843
0.0466036
0.051271
0.0557745
0.0600386
0.0639775
0.000231837
0.000366667
0.00082216
0.00144221
0.0022224
0.00317614
0.00432092
0.0056779
0.00727173
0.00913062
0.0112864
0.013775
0.016635
0.0199054
0.0236125
0.0277437
0.0322215
0.036922
0.0417189
0.046509
0.0512116
0.0557551
0.0600646
0.0640549
0.000229234
0.000364448
0.000817378
0.0014337
0.00220913
0.00315701
0.00429477
0.00564339
0.00722735
0.0090747
0.0112171
0.0136898
0.0165319
0.0197823
0.0234692
0.0275851
0.0320585
0.0367671
0.0415833
0.0464011
0.0511373
0.0557198
0.0600739
0.0641165
0.000226636
0.000362297
0.000812628
0.00142512
0.00219578
0.00313776
0.00426845
0.00560862
0.00718272
0.00901832
0.0111471
0.0136042
0.0164282
0.0196582
0.0233246
0.0274237
0.0318901
0.0366046
0.041438
0.0462814
0.0510497
0.0556696
0.0600667
0.0641578
0.000223986
0.000360077
0.00080777
0.00141648
0.00218234
0.00311849
0.00424204
0.00557385
0.00713793
0.00896197
0.0110771
0.0135185
0.0163245
0.0195343
0.0231794
0.0272608
0.0317184
0.0364364
0.0412846
0.0461519
0.0509504
0.0556064
0.0600458
0.0641869
0.000221302
0.00035787
0.000802987
0.00140791
0.002169
0.00309922
0.00421576
0.0055391
0.00709332
0.00890574
0.0110075
0.0134332
0.0162213
0.019411
0.023035
0.0270977
0.0315452
0.0362645
0.0411259
0.0460148
0.0508423
0.0555332
0.0600139
0.0642049
0.000218638
0.00035566
0.000798158
0.00139932
0.00215568
0.0030801
0.00418961
0.00550467
0.00704907
0.00884998
0.0109384
0.0133488
0.0161191
0.019289
0.0228919
0.0269356
0.0313714
0.0360907
0.0409629
0.0458724
0.0507271
0.0554518
0.0599729
0.0642119
0.000215963
0.000353511
0.00079343
0.00139088
0.00214251
0.00306119
0.00416373
0.00547059
0.00700527
0.00879496
0.0108702
0.0132654
0.0160183
0.0191686
0.0227506
0.0267749
0.0311983
0.0359157
0.0407972
0.0457254
0.0506063
0.0553633
0.059923
0.0642076
0.000213303
0.000351385
0.000788812
0.0013826
0.00212961
0.0030426
0.00413838
0.00543707
0.00696223
0.00874073
0.0108031
0.0131833
0.0159191
0.0190501
0.0226114
0.0266162
0.0310259
0.0357403
0.0406296
0.0455746
0.0504799
0.0552676
0.0598641
0.0641905
0.000210626
0.000349305
0.000784232
0.00137442
0.00211689
0.00302435
0.00411337
0.00540413
0.00691992
0.00868751
0.0107371
0.0131027
0.0158217
0.0189338
0.0224746
0.0264597
0.0308553
0.035565
0.0404604
0.0454208
0.0503488
0.0551659
0.0597989
0.064172
0.000207943
0.000347219
0.000779744
0.00136642
0.00210443
0.00300642
0.00408892
0.00537188
0.00687849
0.00863543
0.0106727
0.0130239
0.0157265
0.01882
0.0223406
0.0263061
0.0306871
0.0353911
0.040291
0.045265
0.0502142
0.0550587
0.0597258
0.0641402
0.000205314
0.000345226
0.00077535
0.00135856
0.00209223
0.00298886
0.00406496
0.00534029
0.00683804
0.00858445
0.0106096
0.0129469
0.0156334
0.0187087
0.0222098
0.026156
0.0305217
0.0352191
0.0401223
0.0451085
0.0500769
0.0549473
0.0596467
0.0641008
0.000202637
0.000343225
0.000770961
0.00135079
0.00208018
0.00297162
0.00404141
0.00530935
0.00679827
0.00853456
0.0105478
0.0128715
0.0155425
0.0186002
0.022082
0.026009
0.0303597
0.0350497
0.0399548
0.0449517
0.0499381
0.0548323
0.0595617
0.0640518
0.000199966
0.000341207
0.000766623
0.00134308
0.00206825
0.0029545
0.00401818
0.00527876
0.00675918
0.00848545
0.0104872
0.0127975
0.0154533
0.0184938
0.0219568
0.0258651
0.0302004
0.0348826
0.039789
0.0447952
0.0497979
0.0547143
0.0594716
0.0639968
0.000197268
0.000339224
0.000762277
0.00133539
0.00205635
0.00293753
0.00399503
0.00524842
0.00672038
0.00843686
0.0104272
0.0127246
0.0153654
0.0183891
0.0218337
0.0257236
0.0300435
0.0347175
0.0396242
0.0446389
0.0496565
0.054593
0.0593752
0.0639303
0.000194551
0.000337178
0.000757884
0.00132765
0.00204439
0.00292043
0.00397187
0.00521807
0.00668163
0.00838841
0.0103676
0.012652
0.0152781
0.0182853
0.0217117
0.0255832
0.0298882
0.0345536
0.0394602
0.0444826
0.0495143
0.0544697
0.0592748
0.0638565
0.00019185
0.000335192
0.000753517
0.00131984
0.00203235
0.00290321
0.00394851
0.00518746
0.00664267
0.0083396
0.0103075
0.0125791
0.0151906
0.0181811
0.0215896
0.0254429
0.0297323
0.0343892
0.0392957
0.0443257
0.0493713
0.0543456
0.059173
0.0637741
0.000189095
0.000333133
0.000749032
0.00131193
0.00202015
0.00288583
0.00392488
0.00515661
0.00660321
0.00829034
0.0102468
0.0125053
0.015102
0.0180758
0.0214658
0.0253004
0.0295741
0.0342216
0.0391275
0.0441653
0.0492257
0.0542216
0.0590794
0.0637295
0.000186329
0.000331087
0.000744595
0.00130404
0.00200793
0.00286831
0.00390113
0.00512541
0.00656339
0.00824047
0.0101855
0.0124307
0.0150123
0.0179689
0.02134
0.025155
0.0294115
0.0340486
0.0389528
0.0439972
0.049071
0.0540857
0.0589666
0.0636407
0.000183577
0.000329048
0.000740115
0.00129611
0.00199569
0.00285085
0.00387734
0.0050942
0.00652345
0.00819043
0.0101238
0.0123556
0.0149217
0.0178611
0.0212127
0.0250075
0.0292455
0.0338703
0.038771
0.0438204
0.048906
0.0539375
0.0588398
0.0635427
0.000180831
0.000327056
0.000735708
0.00128827
0.00198354
0.00283346
0.00385365
0.00506311
0.00648367
0.00814062
0.0100623
0.0122806
0.0148314
0.0177532
0.0210853
0.0248594
0.0290785
0.0336899
0.0385856
0.0436388
0.048735
0.0537821
0.0587033
0.0634243
0.000178104
0.000325109
0.000731414
0.00128061
0.00197165
0.00281636
0.0038304
0.00503243
0.0064444
0.00809127
0.0100014
0.0122065
0.0147419
0.0176463
0.0209591
0.0247126
0.0289122
0.0335097
0.0384001
0.0434563
0.0485633
0.0536277
0.0585733
0.0633299
0.00017536
0.0003232
0.000727162
0.00127305
0.00195993
0.0027996
0.00380748
0.00500232
0.00640581
0.00804283
0.00994147
0.0121334
0.0146539
0.0175412
0.0208348
0.0245679
0.0287482
0.0333312
0.0382154
0.0432745
0.0483921
0.0534738
0.0584433
0.0632314
0.000172598
0.000321303
0.000723035
0.00126572
0.00194851
0.00278318
0.00378515
0.00497291
0.0063681
0.0079955
0.00988302
0.012062
0.0145678
0.0174383
0.0207131
0.0244259
0.0285868
0.0331548
0.0380318
0.0430923
0.0482191
0.053316
0.0583053
0.0631159
0.000169871
0.000319444