/*--------------------------------*- C++ -*----------------------------------*\
| =========                 |                                                 |
| \\      /  F ield         | OpenFOAM: The Open Source CFD Toolbox           |
|  \\    /   O peration     | Version:  2.3.0                                 |
|   \\  /    A nd           | Web:      www.OpenFOAM.org                      |
|    \\/     M anipulation  |                                                 |
\*---------------------------------------------------------------------------*/
FoamFile
{
    version     2.0;
    format      ascii;
    class       volVectorField;
    location    "1000";
    object      U;
}
// * * * * * * * * * * * * * * * * * * * * * * * * * * * * * * * * * * * * * //

dimensions      [0 1 -1 0 0 0 0];

internalField   nonuniform List<vector> 
14050
(
(23.4855 9.51879 -1.3775e-20)
(23.3558 9.96046 -6.47861e-21)
(23.2096 10.4171 -5.17413e-20)
(23.0486 10.8876 9.74544e-20)
(22.8736 11.3752 -3.29379e-20)
(22.6852 11.8815 3.75166e-20)
(22.4826 12.4069 3.70271e-20)
(22.2628 12.949 0)
(22.0189 13.5024 -1.04335e-19)
(21.7411 14.0591 1.26933e-21)
(21.4169 14.6092 1.35355e-19)
(21.032 15.1418 -4.48287e-20)
(20.5709 15.6465 -9.8138e-21)
(20.0173 16.1153 -6.44723e-21)
(19.3551 16.5424 0)
(18.5693 16.9232 -1.11576e-20)
(17.6464 17.2549 5.57422e-20)
(16.5752 17.5377 -2.13524e-20)
(15.3454 17.7685 0)
(13.9453 17.9352 -2.16357e-19)
(12.3667 18.0144 2.30307e-19)
(10.6307 18.039 -2.55114e-20)
(8.79101 18.1102 0)
(6.86609 18.0323 9.94875e-19)
(23.066 9.40509 -3.66817e-20)
(22.9105 9.78127 7.38006e-20)
(22.7386 10.1597 -7.44912e-20)
(22.5483 10.541 -1.57055e-19)
(22.3377 10.9255 1.63935e-19)
(22.1054 11.3138 2.88893e-20)
(21.8499 11.7068 0)
(21.5695 12.105 2.14196e-19)
(21.2623 12.5085 -1.93148e-19)
(20.9259 12.9162 2.04277e-20)
(20.5574 13.3257 2.79379e-20)
(20.1538 13.7328 7.39227e-21)
(19.7116 14.1318 -4.0679e-19)
(19.2277 14.5148 4.63889e-19)
(18.6995 14.8721 2.35367e-20)
(18.1254 15.1919 -7.51228e-19)
(17.5055 15.4609 1.74979e-18)
(16.842 15.6648 -9.79784e-19)
(16.1387 15.7881 -6.81111e-19)
(15.4024 15.8138 6.52772e-19)
(14.6449 15.7241 9.45731e-19)
(13.885 15.5035 1.70424e-19)
(13.137 15.1395 1.61364e-19)
(12.3999 14.624 -5.47151e-19)
(22.7107 9.26793 -8.40578e-20)
(22.5425 9.58936 -8.9609e-20)
(22.3598 9.90766 4.71468e-20)
(22.1612 10.2254 1.6861e-19)
(21.9454 10.5414 -1.68976e-19)
(21.7114 10.8549 -3.4699e-20)
(21.4579 11.1649 -6.07023e-20)
(21.1831 11.47 0)
(20.8849 11.7688 -2.23068e-20)
(20.561 12.0594 -5.73114e-19)
(20.2092 12.3394 -1.23326e-19)
(19.8273 12.6059 1.28177e-18)
(19.4136 12.8553 -7.12943e-19)
(18.9667 13.0836 0)
(18.486 13.2856 4.43024e-19)
(17.972 13.4558 -4.98273e-19)
(17.4266 13.5877 0)
(16.8537 13.675 0)
(16.2589 13.711 7.30124e-19)
(15.6505 13.6894 -6.8918e-19)
(15.0394 13.6052 -9.53288e-19)
(14.4399 13.4552 8.98605e-19)
(13.8681 13.2379 6.01518e-19)
(13.3428 12.954 -1.11254e-18)
(22.4116 9.12267 8.54798e-20)
(22.2428 9.39456 3.16136e-20)
(22.0599 9.66103 -2.1279e-19)
(21.8626 9.9253 4.02615e-19)
(21.6502 10.1862 -1.71264e-19)
(21.4222 10.4431 2.72194e-19)
(21.178 10.6952 7.98279e-20)
(20.9171 10.9413 -2.50046e-19)
(20.6385 11.1799 4.46727e-20)
(20.3412 11.4091 -3.66862e-19)
(20.0242 11.6269 3.59429e-19)
(19.6866 11.8306 0)
(19.3278 12.0171 4.79655e-19)
(18.9473 12.183 -4.84777e-19)
(18.5456 12.3242 5.81667e-19)
(18.1235 12.4365 -1.15081e-18)
(17.6831 12.5153 -1.41675e-20)
(17.2275 12.5558 1.49644e-18)
(16.7612 12.5537 6.72839e-20)
(16.29 12.5054 1.27808e-19)
(15.8213 12.408 -8.26612e-19)
(15.3634 12.2606 0)
(14.9256 12.0644 -1.39224e-19)
(14.5175 11.8233 0)
(22.1675 8.9807 -6.12888e-20)
(22.0007 9.20608 -7.51701e-20)
(21.8225 9.42965 1.47272e-19)
(21.6322 9.65065 -1.24149e-20)
(21.4293 9.86765 -6.97993e-20)
(21.213 10.0799 -2.46278e-19)
(20.9827 10.2868 6.40535e-19)
(20.7381 10.4872 -3.95611e-19)
(20.4785 10.6797 3.5665e-19)
(20.2031 10.8629 2.69022e-20)
(19.9114 11.035 -3.22108e-19)
(19.6027 11.1938 -4.99452e-19)
(19.2769 11.337 5.04649e-19)
(18.9339 11.4617 0)
(18.5742 11.565 -6.37088e-19)
(18.1989 11.6436 5.65424e-19)
(17.81 11.6942 -4.4251e-20)
(17.4101 11.7134 8.20054e-19)
(17.0033 11.6983 -1.66738e-18)
(16.5944 11.6466 3.62676e-19)
(16.1893 11.5566 4.24773e-19)
(15.7946 11.4281 0)
(15.4171 11.2624 7.29211e-20)
(15.0635 11.0624 0)
(21.9635 8.82931 8.05299e-20)
(21.8017 9.02465 0)
(21.6318 9.21631 -2.41414e-19)
(21.452 9.40388 2.44543e-19)
(21.2611 9.58706 4.56487e-19)
(21.0584 9.76554 -6.84863e-20)
(20.8435 9.93891 -3.35324e-19)
(20.6163 10.1063 -5.39911e-20)
(20.3764 10.2665 5.70677e-20)
(20.1234 10.4182 6.05249e-20)
(19.8568 10.5598 -5.94707e-20)
(19.5763 10.6894 -6.87757e-20)
(19.2818 10.8049 0)
(18.9736 10.9042 0)
(18.652 10.9847 0)
(18.3181 11.0434 -7.43526e-19)
(17.9732 11.0777 1.15751e-18)
(17.6193 11.0847 2.57011e-20)
(17.2595 11.0627 -4.97087e-19)
(16.8978 11.0096 0)
(16.5391 10.9245 -6.72338e-19)
(16.1883 10.8073 5.47372e-19)
(15.8509 10.659 7.45823e-20)
(15.5322 10.4821 0)
(21.7879 8.6965 -8.5544e-20)
(21.6368 8.86106 0)
(21.4774 9.0251 0)
(21.3092 9.18549 -9.83577e-20)
(21.1313 9.34189 -2.43985e-19)
(20.9423 9.49401 -9.42799e-21)
(20.7418 9.64173 1.54588e-19)
(20.53 9.78421 5.44029e-20)
(20.3067 9.9205 -3.02276e-19)
(20.072 10.0493 1.8522e-19)
(19.8252 10.169 0)
(19.5661 10.278 6.95133e-20)
(19.2945 10.3746 7.78635e-20)
(19.0108 10.4569 0)
(18.7159 10.5229 8.90998e-20)
(18.411 10.5699 -2.92671e-19)
(18.0969 10.595 -2.26309e-20)
(17.7749 10.5959 3.14717e-19)
(17.447 10.571 -1.17887e-19)
(17.1169 10.519 0)
(16.7886 10.4389 1.3419e-19)
(16.4667 10.3308 4.3685e-19)
(16.1554 10.1955 -5.24897e-19)
(15.8595 10.035 -1.60047e-19)
(21.6443 8.57459 -1.01239e-19)
(21.5019 8.71342 9.44159e-20)
(21.3516 8.85482 5.12586e-20)
(21.1942 8.99367 9.90541e-20)
(21.0291 9.12886 -5.14463e-20)
(20.8537 9.26023 5.68922e-20)
(20.6669 9.38815 5.60104e-20)
(20.4691 9.51159 0)
(20.26 9.62996 0)
(20.0408 9.74214 3.42767e-19)
(19.811 9.84602 1.35291e-20)
(19.57 9.94003 -2.17267e-19)
(19.3175 10.0225 -7.85702e-20)
(19.0534 10.0921 0)
(18.7782 10.1483 -8.9964e-20)
(18.4954 10.188 -1.9488e-19)
(18.2057 10.2076 4.28919e-19)
(17.9094 10.2047 -7.84346e-19)
(17.6068 10.1783 9.50462e-20)
(17.3005 10.1277 8.9517e-19)
(16.9953 10.0518 -6.68681e-19)
(16.6948 9.95025 -1.44796e-19)
(16.4024 9.82412 1.53414e-19)
(16.1226 9.6755 6.51999e-19)
(21.5237 8.46264 9.70746e-20)
(21.3904 8.57985 -5.30864e-20)
(21.2487 8.703 -1.59618e-19)
(21.1012 8.82528 -1.15301e-19)
(20.948 8.94427 -8.52949e-21)
(20.7856 9.05916 -1.26047e-19)
(20.6103 9.17155 -7.17768e-20)
(20.4257 9.27972 2.49249e-19)
(20.2286 9.38338 6.74616e-20)
(20.0217 9.48346 2.03893e-21)
(19.8059 9.57638 0)
(19.5799 9.6603 -7.67449e-20)
(19.343 9.73241 -3.38273e-19)
(19.0953 9.7901 2.54475e-19)
(18.8331 9.83851 -4.76573e-19)
(18.566 9.87462 5.87283e-19)
(18.2947 9.89226 0)
(18.0199 9.88699 4.64271e-19)
(17.7371 9.85975 -4.71849e-19)
(17.4493 9.81028 -5.32119e-22)
(17.1618 9.73829 4.15794e-19)
(16.8779 9.64179 -2.83094e-19)
(16.5995 9.52154 1.52835e-19)
(16.331 9.38234 -3.24394e-19)
(21.4177 8.35855 5.34433e-20)
(21.2993 8.46124 2.26202e-19)
(21.1705 8.56873 -1.13467e-19)
(21.0355 8.67704 1.77181e-19)
(20.8921 8.78334 -1.13574e-19)
(20.7368 8.88446 -1.8948e-19)
(20.5667 8.98562 3.17664e-19)
(20.3961 9.08397 0)
(20.2123 9.17276 -1.40421e-19)
(20.0162 9.26245 -3.72387e-19)
(19.8136 9.34675 -1.24621e-20)
(19.601 9.42407 3.10293e-19)
(19.3744 9.49283 0)
(19.1401 9.53879 4.56638e-19)
(18.8898 9.577 -2.864e-19)
(18.6379 9.60953 -1.02343e-19)
(18.3797 9.62939 0)
(18.1154 9.62365 0)
(17.8431 9.59728 0)
(17.5701 9.54916 -1.37079e-19)
(17.2956 9.48019 2.68823e-19)
(17.0216 9.38983 -1.4227e-19)
(16.7535 9.27207 -1.52321e-19)
(16.4921 9.14113 -1.58966e-19)
(4.97171 16.9897 -1.73226e-18)
(4.80747 15.4472 7.28038e-19)
(5.00225 14.1115 0)
(5.31972 12.951 -6.4426e-20)
(5.69647 11.9223 -3.54854e-20)
(6.12007 11.0049 0)
(6.5757 10.18 -2.47106e-19)
(7.05097 9.43717 -1.06884e-18)
(7.53498 8.76705 1.24219e-18)
(8.01861 8.16217 1.42039e-18)
(8.49474 7.61608 1.0759e-18)
(8.95743 7.12266 -2.46094e-18)
(9.40254 6.67682 0)
(9.82768 6.2739 0)
(10.2316 5.90906 -2.9702e-19)
(10.6146 5.57785 0)
(10.9778 5.27601 -5.7475e-19)
(11.323 4.99923 -1.16552e-18)
(11.6523 4.74338 2.25083e-18)
(11.9676 4.50482 -1.62084e-18)
(12.2705 4.2805 -1.55547e-18)
(12.5623 4.06891 -1.97802e-18)
(12.8435 3.86575 9.29027e-19)
(13.1129 3.64752 -8.46946e-19)
(11.687 13.9785 -1.49768e-18)
(11.13 13.2459 8.51593e-19)
(10.7318 12.4994 0)
(10.4657 11.7695 -5.77297e-20)
(10.3032 11.0692 6.14838e-20)
(10.2232 10.4052 0)
(10.21 9.78171 6.82424e-19)
(10.2512 9.20081 -6.88286e-19)
(10.3363 8.66273 1.39074e-19)
(10.4564 8.16642 0)
(10.6043 7.70968 0)
(10.7738 7.28954 8.53947e-19)
(10.96 6.9027 -1.11935e-18)
(11.1588 6.54537 -1.94494e-18)
(11.367 6.21396 2.74485e-20)
(11.5821 5.90489 3.27009e-18)
(11.8019 5.61504 -5.33873e-19)
(12.0247 5.34179 5.17773e-19)
(12.249 5.08288 -5.17589e-19)
(12.4734 4.83662 4.93727e-19)
(12.6968 4.60186 5.24305e-19)
(12.9182 4.37829 2.14255e-18)
(13.1365 4.16343 -2.29027e-19)
(13.3512 3.94255 8.35635e-19)
(12.8785 12.6057 5.8324e-19)
(12.4836 12.1962 3.40004e-19)
(12.1585 11.7394 -7.30876e-20)
(11.9029 11.2546 -2.82181e-19)
(11.7124 10.7569 -1.01039e-19)
(11.5815 10.2576 1.05426e-19)
(11.5041 9.7651 4.45827e-19)
(11.4738 9.28553 -9.05905e-19)
(11.4842 8.82301 5.74026e-19)
(11.529 8.38045 9.52617e-19)
(11.6027 7.95932 -7.16686e-19)
(11.6998 7.56029 1.22798e-18)
(11.8159 7.18332 -7.33289e-19)
(11.9469 6.82774 -2.54717e-19)
(12.0896 6.49274 4.96446e-19)
(12.2411 6.17705 0)
(12.3993 5.87948 9.83162e-19)
(12.5624 5.59861 -1.95743e-18)
(12.7292 5.33303 4.87667e-19)
(12.8985 5.08134 -1.43654e-18)
(13.0694 4.84231 1.4147e-18)
(13.2412 4.61514 -8.10768e-19)
(13.4131 4.39762 -1.10594e-19)
(13.5845 4.17787 -1.65987e-18)
(14.1437 11.542 0)
(13.8055 11.2225 -8.52352e-20)
(13.5066 10.8705 -9.15041e-20)
(13.2507 10.4954 1.91595e-19)
(13.0389 10.1059 9.7376e-20)
(12.87 9.70958 3.12544e-19)
(12.7416 9.31285 -3.17919e-19)
(12.6505 8.92084 -1.07465e-19)
(12.5933 8.53748 1.05353e-19)
(12.5662 8.16564 0)
(12.5656 7.80726 -1.37662e-18)
(12.5881 7.4635 1.84369e-18)
(12.6306 7.13485 -1.15889e-18)
(12.6903 6.82131 0)
(12.7647 6.52253 -2.36529e-19)
(12.8517 6.23789 0)
(12.9493 5.96661 0)
(13.056 5.70783 0)
(13.1702 5.46063 -5.78463e-21)
(13.2906 5.22416 1.83218e-18)
(13.416 4.99764 -8.99753e-19)
(13.5452 4.78074 4.35831e-19)
(13.6773 4.57224 0)
(13.8114 4.36238 1.63818e-18)
(14.7368 10.8312 -8.11727e-20)
(14.4374 10.5697 8.77809e-20)
(14.1682 10.2813 1.84455e-19)
(13.9322 9.97215 -2.82247e-19)
(13.7308 9.64818 -1.00426e-19)
(13.5637 9.31521 -1.03514e-19)
(13.4296 8.97852 3.1541e-19)
(13.3265 8.64242 -3.09093e-19)
(13.252 8.31053 2.12734e-19)
(13.2034 7.9856 -2.16039e-19)
(13.178 7.66965 2.23144e-19)
(13.1734 7.36399 0)
(13.187 7.06939 -1.1044e-18)
(13.2164 6.7862 8.82968e-19)
(13.2597 6.51446 2.19065e-19)
(13.315 6.25396 0)
(13.3806 6.00428 0)
(13.455 5.76494 6.62624e-19)
(13.5369 5.5353 -1.33067e-18)
(13.6252 5.31474 4.29015e-19)
(13.7187 5.10281 9.13564e-21)
(13.8165 4.89944 -4.3141e-19)
(13.9182 4.70375 4.17407e-19)
(14.0224 4.50596 -3.66995e-21)
(15.2348 10.2789 4.24574e-19)
(14.9597 10.0506 -2.51768e-19)
(14.7095 9.79991 1.90215e-21)
(14.4867 9.53137 0)
(14.2925 9.24934 -1.93925e-19)
(14.1268 8.95849 0)
(13.9888 8.66311 0)
(13.8768 8.36698 6.3036e-19)
(13.7892 8.0734 -4.17005e-19)
(13.7243 7.78488 -2.14844e-19)
(13.6801 7.50322 4.2902e-19)
(13.6548 7.22964 -1.06751e-18)
(13.6462 6.96489 8.56558e-19)
(13.6526 6.70938 0)
(13.6721 6.46326 -2.17544e-19)
(13.7031 6.22648 0)
(13.7442 5.99878 0)
(13.7942 5.77971 2.12268e-19)
(13.8517 5.5688 -8.54327e-19)
(13.9155 5.36554 6.2904e-19)
(13.9846 5.16962 6.32304e-19)
(14.0581 4.98127 1.03976e-19)
(14.1363 4.79947 -1.02223e-19)
(14.2193 4.61278 -3.95123e-19)
(15.582 9.85129 1.67964e-19)
(15.3244 9.64565 2.64112e-19)
(15.0889 9.42076 -2.61234e-21)
(14.8781 9.18027 2.40327e-20)
(14.6929 8.92716 3.16417e-19)
(14.5322 8.66558 4.90984e-20)
(14.3956 8.39926 -3.85346e-21)
(14.2813 8.13165 2.06624e-19)
(14.1882 7.86602 -6.22084e-19)
(14.1155 7.60474 4.13119e-19)
(14.0618 7.3492 0)
(14.0254 7.10046 2.11729e-19)
(14.0045 6.8592 -2.11829e-19)
(13.9974 6.62584 4.20256e-19)
(14.0024 6.40068 2.46125e-21)
(14.0183 6.18377 -4.17028e-19)
(14.0437 5.97489 0)
(14.0774 5.77361 -2.06471e-19)
(14.1181 5.57957 -4.13836e-19)
(14.1648 5.39224 -3.69753e-21)
(14.2157 5.21161 -1.02754e-18)
(14.2706 5.03854 0)
(14.3306 4.87268 -3.98049e-19)
(14.3954 4.70414 0)
(15.8592 9.50572 -3.3289e-19)
(15.6141 9.31599 -1.58291e-21)
(15.3892 9.10966 -1.83635e-19)
(15.188 8.88991 -2.10951e-19)
(15.0114 8.65806 -3.62335e-19)
(14.8552 8.41757 -9.94579e-20)
(14.7208 8.17288 -3.01056e-19)
(14.6052 7.92657 2.06826e-19)
(14.508 7.68243 -2.01792e-19)
(14.4299 7.44253 0)
(14.3699 7.20774 0)
(14.3262 6.97889 2.03619e-19)
(14.2972 6.75659 -4.11988e-19)
(14.2808 6.54123 4.08205e-19)
(14.2757 6.33349 2.02944e-19)
(14.2808 6.13347 -4.09315e-19)
(14.2951 5.94079 4.06633e-19)
(14.3174 5.75498 2.04995e-19)
(14.346 5.57591 1.38983e-21)
(14.3801 5.40261 2.01888e-19)
(14.4168 5.23573 3.5485e-19)
(14.4564 5.07676 -1.48298e-19)
(14.5016 4.92538 3.97058e-19)
(14.5521 4.76926 -1.04711e-21)
(16.078 9.22358 -1.74407e-19)
(15.8424 9.04503 2.59151e-19)
(15.6238 8.85292 -1.80316e-19)
(15.4292 8.64881 2.77884e-19)
(15.262 8.43439 1.9104e-19)
(15.1099 8.20785 0)
(14.9793 7.98042 2.9422e-19)
(14.8634 7.75015 9.78856e-20)
(14.7631 7.52246 -3.08422e-21)
(14.6822 7.30006 1.99114e-19)
(14.6189 7.08203 2.02039e-19)
(14.5711 6.86913 2.01174e-19)
(14.5375 6.66203 3.48159e-21)
(14.5149 6.4609 -8.0166e-19)
(14.5027 6.26762 -5.3492e-21)
(14.5004 6.08184 3.98175e-19)
(14.5074 5.9029 1.97874e-19)
(14.5217 5.73023 1.99155e-19)
(14.5417 5.56397 -1.98093e-19)
(14.5666 5.40217 -1.96797e-19)
(14.5916 5.24768 0)
(14.6182 5.10132 2.46346e-19)
(14.6523 4.96299 -2.41681e-19)
(14.6914 4.81598 -3.85147e-19)
(16.2466 8.99325 -1.63358e-19)
(16.0207 8.82065 -1.71448e-19)
(15.8023 8.64112 -1.71317e-19)
(15.6077 8.44837 0)
(15.4536 8.25637 -1.85761e-19)
(15.3022 8.036 -2.37211e-19)
(15.1772 7.826 -1.50515e-19)
(15.0642 7.60721 1.0046e-19)
(14.9642 7.38967 1.02387e-19)
(14.8846 7.18151 -5.85471e-22)
(14.8219 6.97637 2.03241e-19)
(14.7729 6.77509 -4.01296e-19)
(14.7376 6.57982 0)
(14.7109 6.38866 1.98287e-19)
(14.6936 6.20748 -5.9792e-19)
(14.6865 6.03308 0)
(14.6882 5.86542 -2.02834e-19)
(14.6961 5.70289 1.98763e-19)
(14.7089 5.54669 -1.94207e-19)
(14.7269 5.39241 1.93202e-19)
(14.7428 5.25157 0)
(14.7608 5.1167 -1.43607e-19)
(14.7883 4.99005 2.48645e-19)
(14.8176 4.84418 -2.81933e-19)
(3.23965 -1.97214 3.86838e-19)
(2.82201 -1.95173 -7.4152e-21)
(2.45314 -1.93999 0)
(2.12848 -1.93287 0)
(1.84473 -1.92892 -2.62816e-19)
(1.59927 -1.9271 0)
(1.38961 -1.92661 0)
(1.21338 -1.92675 0)
(1.06832 -1.92695 -1.61952e-19)
(0.95237 -1.92668 0)
(0.863673 -1.92541 1.84284e-19)
(0.800702 -1.92244 -1.95657e-19)
(0.762343 -1.91699 1.05424e-19)
(0.748099 -1.90784 -1.11295e-19)
(0.758454 -1.89327 1.19355e-19)
(0.795627 -1.87066 -1.01474e-18)
(0.864931 -1.8361 1.16875e-18)
(0.977785 -1.78416 -7.63518e-20)
(1.15765 -1.70757 -2.44594e-19)
(1.45214 -1.59662 8.78885e-20)
(1.9527 -1.44128 -7.24198e-19)
(2.84075 -1.23046 2.65171e-18)
(4.51877 -0.961768 -2.1274e-18)
(7.93946 -0.803998 0)
(3.19098 -2.00507 -3.98307e-19)
(2.80375 -1.99859 -6.3698e-21)
(2.4595 -1.99815 -4.64146e-19)
(2.15317 -1.99929 -2.45865e-19)
(1.88171 -2.0019 7.67936e-19)
(1.64308 -2.00527 -8.07635e-19)
(1.43557 -2.00854 5.67965e-19)
(1.25772 -2.01084 0)
(1.1084 -2.0113 -1.57033e-19)
(0.986906 -2.00888 1.30198e-18)
(0.8931 -2.00243 -1.54236e-18)
(0.827708 -1.99038 1.78525e-19)
(0.792632 -1.97073 -1.87804e-19)
(0.791599 -1.9408 8.96337e-19)
(0.831078 -1.89708 -8.40197e-19)
(0.921851 -1.8351 9.98625e-19)
(1.08111 -1.74938 -1.0473e-18)
(1.33528 -1.63402 -3.41227e-21)
(1.72552 -1.48372 1.94618e-19)
(2.31971 -1.29515 0)
(3.23112 -1.07239 0)
(4.64706 -0.840996 4.6263e-21)
(6.86334 -0.673039 0)
(10.2739 -0.712868 -2.00056e-18)
(3.12576 -2.03365 -3.51162e-21)
(2.77078 -2.03021 4.31002e-19)
(2.4487 -2.03122 6.28442e-19)
(2.15874 -2.03376 5.91426e-20)
(1.89958 -2.03705 5.0785e-19)
(1.67025 -2.04001 4.51473e-21)
(1.47002 -2.04141 0)
(1.29845 -2.03996 -1.4481e-19)
(1.15556 -2.03425 1.48332e-19)
(1.04203 -2.02267 -4.65503e-19)
(0.959438 -2.00334 6.53143e-19)
(0.910629 -1.974 -6.80099e-19)
(0.900257 -1.93192 1.42378e-18)
(0.935469 -1.87387 -5.56402e-19)
(1.02677 -1.79618 -9.6035e-20)
(1.18929 -1.69497 -5.04536e-19)
(1.44399 -1.56699 4.20705e-19)
(1.82149 -1.40978 1.08934e-19)
(2.36813 -1.22265 -3.52356e-19)
(3.15345 -1.00991 1.25802e-19)
(4.27998 -0.786736 0)
(5.8906 -0.590969 -7.77859e-20)
(8.16441 -0.498191 0)
(11.2428 -0.634418 9.88843e-20)
(3.07577 -2.05537 1.9826e-19)
(2.74526 -2.04967 -2.18952e-19)
(2.44347 -2.04804 -1.6958e-19)
(2.17015 -2.04873 -5.97803e-20)
(1.92463 -2.04955 3.82699e-21)
(1.70671 -2.04891 -7.73795e-19)
(1.51646 -2.04525 8.05648e-19)
(1.35435 -2.03703 -2.81075e-19)
(1.22148 -2.02254 5.81062e-19)
(1.11979 -1.99988 -7.57036e-19)
(1.05229 -1.96692 0)
(1.02356 -1.92121 0)
(1.04009 -1.86002 -1.72706e-19)
(1.11089 -1.78045 5.35636e-19)
(1.24827 -1.67967 -7.39428e-19)
(1.46836 -1.55555 0)
(1.7936 -1.4066 3.01287e-19)
(2.25656 -1.23261 -5.27689e-19)
(2.90316 -1.03647 3.36417e-19)
(3.79792 -0.827107 0)
(5.02873 -0.624735 0)
(6.70694 -0.468546 0)
(8.95633 -0.425021 1.70986e-19)
(11.8526 -0.590754 -1.53184e-18)
(3.03841 -2.06248 1.99138e-19)
(2.72744 -2.05594 2.15645e-19)
(2.44444 -2.05156 -2.28591e-19)
(2.18729 -2.04904 -1.20134e-19)
(1.95558 -2.04605 -3.6742e-19)
(1.74983 -2.0408 2.57135e-19)
(1.57079 -2.03151 -1.40696e-21)
(1.41968 -2.01648 1.38971e-19)
(1.29842 -1.99393 -5.69796e-19)
(1.20994 -1.96189 1.81613e-21)
(1.15832 -1.91818 1.55173e-21)
(1.14919 -1.86042 6.42096e-19)
(1.1901 -1.78613 -6.69556e-19)
(1.29096 -1.69295 8.67166e-19)
(1.46435 -1.57912 0)
(1.72712 -1.4434 0)
(2.10264 -1.28533 -9.99833e-20)
(2.62311 -1.10635 1.03369e-19)
(3.33294 -0.911406 -1.65467e-19)
(4.29164 -0.711579 -6.00928e-20)
(5.57633 -0.528548 -1.35289e-19)
(7.28082 -0.399984 0)
(9.50387 -0.384787 -1.61949e-19)
(12.3008 -0.560725 -1.82627e-19)
(3.00406 -2.05327 -2.00153e-19)
(2.71457 -2.04833 2.1663e-19)
(2.45019 -2.04382 2.81438e-19)
(2.20906 -2.03843 4.10887e-19)
(1.99101 -2.0316 0)
(1.7975 -2.02194 -3.77717e-19)
(1.62987 -2.00748 -1.31626e-19)
(1.48978 -1.98652 1.36495e-19)
(1.3798 -1.95736 0)
(1.30363 -1.91813 1.44677e-19)
(1.26615 -1.86671 -1.51032e-19)
(1.27373 -1.80087 -3.15341e-19)
(1.33446 -1.71842 4.90253e-19)
(1.45864 -1.61752 -3.39902e-19)
(1.659 -1.49698 0)
(1.95312 -1.35613 0)
(2.36466 -1.19505 0)
(2.92507 -1.01619 2.03993e-19)
(3.67696 -0.825722 -2.22846e-19)
(4.67664 -0.6354 3.02708e-19)
(5.99402 -0.466797 3.32651e-19)
(7.71194 -0.355746 0)
(9.9151 -0.356127 0)
(12.6481 -0.535718 1.7442e-19)
(2.96751 -2.04681 1.01312e-19)
(2.70471 -2.03898 -1.0908e-19)
(2.45979 -2.0309 0)
(2.23456 -2.02166 2.47272e-21)
(2.02954 -2.01073 -8.86212e-22)
(1.84776 -1.99702 3.7442e-19)
(1.69105 -1.97804 -1.30618e-19)
(1.56134 -1.95203 1.34514e-19)
(1.46147 -1.91753 -7.48293e-22)
(1.39589 -1.87293 -4.34153e-19)
(1.37019 -1.81619 1.51273e-19)
(1.39124 -1.7452 1.56797e-19)
(1.4675 -1.658 0)
(1.6096 -1.55298 -3.38061e-19)
(1.83021 -1.42926 3.48578e-19)
(2.14767 -1.28688 -8.08645e-22)
(2.58616 -1.12597 1.35691e-21)
(3.17551 -0.949312 -2.03271e-19)
(3.95728 -0.764462 2.17163e-19)
(4.98661 -0.583102 -2.05638e-19)
(6.32801 -0.425027 -6.86333e-19)
(8.05646 -0.324708 -1.46496e-19)
(10.2465 -0.333855 0)
(12.9361 -0.515321 6.9309e-19)
(2.94623 -2.04406 -1.77497e-21)
(2.70195 -2.02775 -1.09353e-19)
(2.4739 -2.01507 0)
(2.26383 -2.00145 -5.65268e-20)
(2.07025 -1.98616 5.93307e-20)
(1.89916 -1.96892 4.54806e-22)
(1.75288 -1.94614 -3.84522e-19)
(1.63294 -1.91581 2.65922e-19)
(1.54187 -1.87689 0)
(1.4849 -1.82827 1.41863e-19)
(1.4683 -1.76797 -5.93255e-19)
(1.49967 -1.69392 3.09773e-19)
(1.58728 -1.60447 1.60527e-19)
(1.743 -1.49795 -1.66976e-19)
(1.97788 -1.37285 3.44287e-19)
(2.31154 -1.23095 -1.68949e-21)
(2.77009 -1.07222 1.88831e-19)
(3.38016 -0.898168 -2.00667e-19)
(4.18131 -0.718782 0)
(5.23327 -0.546829 0)
(6.59381 -0.397414 1.24879e-19)
(8.3287 -0.30273 6.98026e-19)
(10.5046 -0.314818 -2.99247e-19)
(13.1575 -0.495693 0)
(2.9357 -2.03044 -2.0923e-19)
(2.70604 -2.0121 1.08497e-19)
(2.4928 -1.998 0)
(2.29713 -1.98012 -1.15038e-19)
(2.11139 -1.95986 0)
(1.94788 -1.93963 1.22872e-19)
(1.80984 -1.91345 -4.04311e-22)
(1.69864 -1.87903 -1.31542e-19)
(1.61516 -1.83588 2.71883e-19)
(1.56546 -1.78384 -1.42036e-19)
(1.55697 -1.72105 0)
(1.59733 -1.64537 -1.50969e-19)
(1.69508 -1.55516 -1.564e-19)
(1.86543 -1.45043 1.63318e-19)
(2.11422 -1.3253 9.20403e-24)
(2.46057 -1.18369 0)
(2.94101 -1.03018 1.85714e-19)
(3.57136 -0.861276 0)
(4.38529 -0.685037 0)
(5.45563 -0.523162 2.28661e-19)
(6.84293 -0.378766 0)
(8.60527 -0.284876 0)
(10.7786 -0.298731 0)
(13.4011 -0.485143 0)
(2.91273 -2.02084 0)
(2.701 -1.99499 -1.44734e-19)
(2.50689 -1.97921 5.56006e-20)
(2.33716 -1.95749 -2.92578e-20)
(2.16193 -1.93223 -1.23935e-19)
(2.01346 -1.91069 2.79825e-22)
(1.88781 -1.88311 1.26188e-19)
(1.7822 -1.84616 -1.26332e-19)
(1.70099 -1.79966 -1.32918e-19)
(1.64949 -1.74513 1.38215e-19)
(1.63852 -1.67814 -1.45782e-19)
(1.67978 -1.60374 1.52663e-19)
(1.76644 -1.50858 0)
(1.93814 -1.40926 0)
(2.18527 -1.28756 -1.60847e-19)
(2.52482 -1.13754 -8.31295e-20)
(2.99889 -0.982067 2.80784e-19)
(3.64464 -0.834377 4.80014e-20)
(4.46442 -0.643361 1.55428e-19)
(5.56813 -0.496973 -2.34699e-20)
(6.95539 -0.365123 2.97789e-20)
(8.66842 -0.256562 1.36326e-19)
(10.7921 -0.233055 4.15631e-19)
(13.4049 -0.41891 1.73609e-20)
(14.7313 -1.60112 -1.69287e-19)
(18.0816 -2.40675 -5.29636e-18)
(19.3887 -2.68179 8.81852e-18)
(20.1131 -2.80427 -3.72636e-18)
(20.6235 -2.87763 1.04154e-19)
(21.0007 -2.92503 -9.6279e-20)
(21.2825 -2.95345 -5.46374e-18)
(21.49 -2.96719 4.821e-18)
(21.6365 -2.96927 -4.80913e-18)
(21.7316 -2.96171 4.45362e-18)
(21.7836 -2.94619 1.33751e-19)
(21.8009 -2.9242 -4.03474e-18)
(21.7915 -2.89726 3.78956e-18)
(21.7615 -2.8665 -2.30294e-19)
(21.7161 -2.83289 0)
(21.6588 -2.79707 -3.1985e-18)
(21.5924 -2.75953 3.26727e-18)
(21.5191 -2.72054 -2.55228e-21)
(21.4404 -2.68035 0)
(21.3574 -2.63908 0)
(21.2711 -2.59689 7.55504e-19)
(21.1822 -2.55361 0)
(21.0913 -2.50786 -2.18368e-18)
(20.9972 -2.472 2.09626e-18)
(14.6661 -1.28164 2.16186e-18)
(18.3516 -2.10109 0)
(19.9086 -2.44388 0)
(20.5983 -2.56497 3.575e-18)
(21.0481 -2.63926 -3.24955e-18)
(21.3644 -2.69137 2.92069e-18)
(21.5853 -2.72666 -2.65696e-18)
(21.7335 -2.7485 1.56776e-19)
(21.8243 -2.7592 1.48585e-19)
(21.8702 -2.7607 4.48385e-18)
(21.8816 -2.75468 -8.70909e-18)
(21.8674 -2.74271 8.04692e-18)
(21.8346 -2.72606 -3.82552e-18)
(21.7881 -2.70574 -3.73145e-18)
(21.7316 -2.6825 3.78101e-18)
(21.6678 -2.65692 -3.27714e-18)
(21.5985 -2.62939 -4.21824e-20)
(21.525 -2.60019 5.77801e-18)
(21.4482 -2.56952 -3.21591e-18)
(21.3687 -2.53755 -3.97338e-19)
(21.287 -2.50446 0)
(21.2036 -2.46997 -7.68945e-19)
(21.1187 -2.4337 7.56492e-19)
(21.0313 -2.40331 0)
(14.9574 -1.14134 0)
(18.4856 -1.88201 -3.96351e-18)
(20.2184 -2.28101 3.8064e-18)
(20.8858 -2.40771 0)
(21.2822 -2.47708 0)
(21.549 -2.52537 0)
(21.7247 -2.55895 0)
(21.8325 -2.58095 -2.55252e-18)
(21.8893 -2.59361 -1.79869e-19)
(21.9083 -2.59878 4.51884e-18)
(21.8998 -2.5979 -1.59659e-18)
(21.8718 -2.59229 2.576e-19)
(21.83 -2.58279 3.9582e-18)
(21.7783 -2.57014 -7.58043e-18)
(21.7195 -2.5548 7.10674e-18)
(21.6556 -2.53718 -3.98798e-18)
(21.5878 -2.51757 0)
(21.5172 -2.49616 -1.28462e-18)
(21.4443 -2.47315 2.07651e-18)
(21.3697 -2.44868 2.47104e-18)
(21.2935 -2.42289 -1.60983e-18)
(21.2159 -2.39558 2.40449e-18)
(21.1373 -2.3666 -2.35753e-18)
(21.0568 -2.34015 0)
(15.2919 -1.05391 3.16788e-18)
(18.6228 -1.72825 -1.93043e-19)
(20.445 -2.15757 -1.82424e-18)
(21.0981 -2.29182 0)
(21.446 -2.35686 1.98606e-19)
(21.6682 -2.40187 0)
(21.8052 -2.43357 0)
(21.8808 -2.45503 1.61123e-19)
(21.9126 -2.46843 0)
(21.9134 -2.47547 0)
(21.8929 -2.47748 2.61833e-21)
(21.8575 -2.47547 -2.60213e-19)
(21.8117 -2.47015 2.01957e-18)
(21.7587 -2.46203 -1.92736e-18)
(21.7004 -2.45151 0)
(21.6384 -2.43889 2.27874e-19)
(21.5736 -2.42442 0)
(21.5066 -2.40826 0)
(21.438 -2.39058 -4.29325e-19)
(21.368 -2.37147 -2.12458e-18)
(21.2969 -2.35106 -1.62101e-20)
(21.2247 -2.32922 1.23323e-18)
(21.1516 -2.30587 0)
(21.0771 -2.28356 1.2126e-18)
(15.5786 -0.996029 -3.18442e-21)
(18.7563 -1.62531 2.17009e-19)
(20.6118 -2.06457 -2.0121e-18)
(21.2546 -2.20399 1.46622e-18)
(21.5617 -2.26454 -3.3465e-18)
(21.7469 -2.30633 3.08865e-18)
(21.8528 -2.33606 -3.44615e-19)
(21.9039 -2.35668 1.64109e-19)
(21.9175 -2.37019 2.46197e-18)
(21.9057 -2.37816 -2.02318e-18)
(21.8769 -2.38175 -2.76757e-19)
(21.8366 -2.38182 2.67323e-19)
(21.7886 -2.37896 0)
(21.735 -2.37362 0)
(21.6777 -2.36612 1.9317e-18)
(21.6177 -2.35677 -3.74478e-18)
(21.5557 -2.34573 1.59242e-18)
(21.4923 -2.33319 2.02881e-18)
(21.4278 -2.31928 -3.53495e-18)
(21.3623 -2.3041 -1.57301e-20)
(21.2961 -2.28774 4.1663e-19)
(21.2292 -2.2701 2.56459e-18)
(21.1616 -2.25118 -8.45754e-19)
(21.0926 -2.23264 -8.26215e-22)
(15.815 -0.952736 1.92675e-19)
(18.8774 -1.55017 0)
(20.734 -1.98962 -2.20714e-19)
(21.3663 -2.13323 2.0687e-19)
(21.6387 -2.1904 0)
(21.7935 -2.22969 -2.0177e-18)
(21.8751 -2.25774 1.71206e-18)
(21.9081 -2.27745 -3.24231e-19)
(21.9089 -2.29074 3.11009e-19)
(21.8886 -2.29905 2.07935e-18)
(21.8546 -2.30346 3.05727e-19)
(21.8115 -2.30472 -4.33841e-18)
(21.7623 -2.30337 1.82034e-18)
(21.709 -2.29981 -2.03469e-18)
(21.6529 -2.29436 1.95841e-18)
(21.595 -2.28724 0)
(21.5358 -2.27863 2.34308e-19)
(21.4757 -2.2687 1.39114e-18)
(21.415 -2.25759 -2.12288e-19)
(21.3538 -2.24538 -1.78981e-18)
(21.2923 -2.23211 3.44175e-21)
(21.2305 -2.21768 -8.8487e-19)
(21.1682 -2.20205 1.31694e-18)
(21.105 -2.18669 -5.85701e-22)
(16.022 -0.919919 -1.50164e-18)
(18.993 -1.49362 8.07635e-19)
(20.8309 -1.9292 4.21449e-19)
(21.4482 -2.07545 -4.13624e-19)
(21.6897 -2.12991 0)
(21.8193 -2.16726 -1.10519e-18)
(21.8821 -2.19396 1.72291e-18)
(21.9017 -2.2128 -1.64904e-18)
(21.8935 -2.22564 -3.23367e-19)
(21.8675 -2.23389 -1.11581e-20)
(21.8301 -2.23861 8.55848e-19)
(21.7854 -2.2405 1.7309e-21)
(21.7358 -2.24007 1.604e-18)
(21.6831 -2.23771 -1.28809e-18)
(21.6285 -2.23364 -1.00949e-18)
(21.5726 -2.22806 9.77467e-19)
(21.5159 -2.22117 9.65611e-19)
(21.4588 -2.21316 -4.69061e-19)
(21.4015 -2.20416 2.33071e-19)
(21.3442 -2.19423 2.31252e-19)
(21.2868 -2.18341 1.37948e-18)
(21.2296 -2.17158 -1.36649e-18)
(21.1722 -2.15886 4.5693e-19)
(21.114 -2.14762 -9.13385e-19)
(16.181 -0.888302 -3.65537e-19)
(19.0798 -1.43919 -3.98589e-19)
(20.8965 -1.86958 4.17592e-19)
(21.5024 -2.02162 4.04549e-19)
(21.7215 -2.07785 3.87389e-19)
(21.8321 -2.11558 0)
(21.8809 -2.14161 2.75517e-21)
(21.8907 -2.15957 3.2869e-19)
(21.876 -2.17165 0)
(21.846 -2.17947 -1.21378e-18)
(21.8062 -2.18416 -3.0129e-19)
(21.7603 -2.18632 5.55341e-19)
(21.7105 -2.18641 5.46297e-19)
(21.6585 -2.18483 -7.85375e-19)
(21.6053 -2.18173 1.28564e-18)
(21.5513 -2.1772 -9.98136e-19)
(21.4969 -2.17152 0)
(21.4424 -2.16498 9.72151e-19)
(21.3881 -2.15766 -1.19239e-18)
(21.3342 -2.14956 7.14732e-19)
(21.2807 -2.14074 -7.03945e-19)
(21.2276 -2.13099 0)
(21.1744 -2.12033 -9.42049e-19)
(21.1206 -2.11158 4.79844e-19)
(16.3795 -0.875434 7.00748e-19)
(19.2151 -1.41303 3.83898e-19)
(20.974 -1.83273 -1.22716e-18)
(21.5506 -1.9862 8.01322e-19)
(21.7424 -2.041 -3.81523e-19)
(21.8375 -2.07584 0)
(21.8757 -2.09943 -6.92135e-19)
(21.8785 -2.11545 0)
(21.859 -2.12613 -3.1753e-19)
(21.8256 -2.13313 -1.22182e-18)
(21.7837 -2.13755 -1.13127e-20)
(21.7373 -2.13978 1.41033e-18)
(21.6875 -2.14019 1.37623e-18)
(21.636 -2.1394 -1.06364e-18)
(21.5844 -2.13715 -2.59966e-19)
(21.532 -2.13328 0)
(21.4791 -2.12844 1.25647e-18)
(21.4265 -2.12301 -1.47879e-18)
(21.3746 -2.11708 -9.81738e-19)
(21.3236 -2.11044 9.67953e-19)
(21.273 -2.1032 3.99488e-22)
(21.2238 -2.09486 -4.85078e-19)
(21.1743 -2.08544 4.8317e-19)
(21.1245 -2.07862 0)
(16.3557 -0.796001 -3.40807e-19)
(19.158 -1.29905 7.57633e-19)
(20.9407 -1.73642 -1.19547e-18)
(21.5324 -1.92643 4.03703e-19)
(21.7445 -2.00173 -3.83703e-19)
(21.8371 -2.0418 3.63976e-19)
(21.8694 -2.06417 -1.85351e-21)
(21.8669 -2.07834 -3.33863e-19)
(21.843 -2.08705 1.27342e-18)
(21.8064 -2.09291 -1.2346e-18)
(21.7628 -2.09728 5.84052e-19)
(21.7159 -2.09968 1.14726e-18)
(21.6651 -2.10009 0)
(21.6136 -2.09997 0)
(21.564 -2.09839 2.64624e-19)
(21.5124 -2.09432 0)
(21.4615 -2.09007 7.99303e-22)
(21.4113 -2.0859 2.54698e-19)
(21.3623 -2.08139 -2.53278e-19)
(21.3149 -2.07576 2.47354e-19)
(21.2674 -2.06956 4.33838e-22)
(21.2246 -2.06281 0)
(21.177 -2.0537 7.54081e-19)
(21.135 -2.0503 -1.01917e-18)
(0.329268 2.21847 -3.76781e-19)
(2.1484 2.634 -6.23902e-18)
(4.47185 3.65205 0)
(6.82249 4.95172 0)
(9.03151 6.25408 -5.09008e-20)
(11.0799 7.53903 1.31191e-18)
(13.0031 8.78813 -1.14176e-18)
(14.8011 9.95629 -8.73467e-19)
(16.4542 10.9999 1.70705e-19)
(17.9406 11.8846 1.22411e-18)
(19.2401 12.5874 -5.44321e-19)
(20.3412 13.0944 -6.12062e-20)
(21.2409 13.4009 -5.55131e-20)
(21.9473 13.5131 0)
(22.4789 13.4476 0)
(22.8639 13.231 1.68464e-19)
(23.1353 12.8955 -1.47275e-19)
(23.3269 12.4757 -2.09985e-19)
(23.4689 12.0047 7.87588e-20)
(23.5835 11.5096 -8.11212e-20)
(23.6848 11.0092 1.47752e-19)
(23.7788 10.5147 8.61822e-20)
(23.8668 10.0294 -6.06212e-20)
(23.949 9.56136 5.82978e-20)
(-12.1795 1.75465 -1.3714e-17)
(-10.7772 1.77027 -2.14563e-19)
(-8.8097 1.89109 5.1853e-20)
(-6.62471 2.23961 1.41463e-19)
(-4.08174 2.75778 1.75395e-19)
(-1.1903 3.43132 1.60499e-20)
(1.90259 4.2556 1.74663e-20)
(5.0989 5.21112 1.34642e-18)
(8.25465 6.27194 -1.31488e-19)
(11.2576 7.39258 -7.68062e-19)
(14.0206 8.51145 -6.87499e-20)
(16.4784 9.56089 7.6833e-19)
(18.586 10.4789 1.26091e-19)
(20.3189 11.2148 4.84862e-19)
(21.6753 11.7349 -4.08311e-20)
(22.6779 12.0271 -3.95511e-19)
(23.3717 12.1014 1.28019e-19)
(23.8169 11.9861 2.56998e-19)
(24.0804 11.7225 -3.02354e-20)
(24.2256 11.3555 -2.07285e-19)
(24.3038 10.9264 -1.66316e-19)
(24.3495 10.4678 -2.43257e-19)