/*--------------------------------*- C++ -*----------------------------------*\
| =========                 |                                                 |
| \\      /  F ield         | OpenFOAM: The Open Source CFD Toolbox           |
|  \\    /   O peration     | Version:  2.3.0                                 |
|   \\  /    A nd           | Web:      www.OpenFOAM.org                      |
|    \\/     M anipulation  |                                                 |
\*---------------------------------------------------------------------------*/
FoamFile
{
    version     2.0;
    format      ascii;
    class       volScalarField;
    location    "2000";
    object      nuTilda;
}
// * * * * * * * * * * * * * * * * * * * * * * * * * * * * * * * * * * * * * //

dimensions      [0 2 -1 0 0 0 0];

internalField   nonuniform List<scalar> 
38144
(
0.0718239
0.0702203
0.0686113
0.0669973
0.0653794
0.0637585
0.0621354
0.0605112
0.0588864
0.0572619
0.0556384
0.0540163
0.0523966
0.0507798
0.0491668
0.047558
0.0459542
0.0443559
0.0427636
0.0411781
0.0395999
0.0380293
0.0364671
0.0349141
0.0333713
0.0318391
0.0303187
0.0288115
0.0273191
0.0258434
0.0243864
0.0229507
0.0215404
0.0201594
0.0188128
0.0175064
0.0162474
0.015044
0.0139008
0.0128129
0.011733
0.0104207
0.00860638
0.072946
0.0715269
0.0701036
0.0686765
0.0672463
0.0658135
0.064379
0.0629432
0.0615066
0.0600695
0.0586319
0.0571946
0.0557582
0.0543224
0.0528882
0.051456
0.0500264
0.0485998
0.0471767
0.0457578
0.0443435
0.0429345
0.0415317
0.0401358
0.0387481
0.0373704
0.0360037
0.0346505
0.0333138
0.031996
0.0307008
0.0294334
0.0282005
0.027009
0.0258691
0.0247914
0.0237907
0.0228828
0.0220859
0.0214196
0.0209005
0.0205433
0.0203593
0.0739855
0.0727251
0.0714606
0.0701923
0.0689205
0.0676461
0.0663693
0.0650909
0.063811
0.0625293
0.0612459
0.0599612
0.0586753
0.0573884
0.0561011
0.0548136
0.0535264
0.0522398
0.0509545
0.0496711
0.0483902
0.0471124
0.0458386
0.0445701
0.0433082
0.0420548
0.0408117
0.0395821
0.0383688
0.0371753
0.0360063
0.0348672
0.0337648
0.0327072
0.0317028
0.0307623
0.0298985
0.0291241
0.0284525
0.0278974
0.0274709
0.0271825
0.0270373
0.0749456
0.0738224
0.0726946
0.0715622
0.0704257
0.0692855
0.0681422
0.0669962
0.0658475
0.0646961
0.0635418
0.0623845
0.0612239
0.0600604
0.0588947
0.0577265
0.0565564
0.0553853
0.0542133
0.0530409
0.051869
0.0506987
0.0495304
0.0483653
0.0472052
0.0460518
0.0449076
0.0437757
0.0426587
0.0415605
0.040487
0.0394431
0.0384349
0.0374705
0.0365584
0.0357079
0.0349295
0.0342346
0.0336338
0.0331375
0.0327555
0.0324959
0.0323612
0.0758295
0.074825
0.0738151
0.0727996
0.0717786
0.0707526
0.0697224
0.068688
0.0676499
0.0666081
0.0655621
0.0645116
0.0634558
0.0623953
0.0613303
0.060261
0.0591875
0.0581108
0.0570315
0.0559504
0.0548683
0.0537856
0.0527032
0.0516226
0.0505448
0.0494717
0.0484065
0.0473513
0.0463096
0.045286
0.0442848
0.0433114
0.0423724
0.0414754
0.0406286
0.0398402
0.039119
0.0384754
0.0379189
0.0374587
0.0371027
0.0368579
0.0367273
0.0766394
0.0757388
0.0748307
0.073916
0.0729943
0.0720657
0.0711313
0.0701916
0.0692467
0.068297
0.0673422
0.0663815
0.065414
0.0644395
0.0634586
0.0624717
0.0614788
0.0604805
0.0594771
0.0584702
0.0574612
0.0564508
0.0554396
0.0544281
0.0534178
0.05241
0.0514079
0.0504145
0.0494331
0.0484678
0.0475228
0.0466038
0.0457171
0.0448704
0.0440718
0.0433284
0.0426481
0.04204
0.041514
0.0410781
0.0407389
0.0405025
0.0403728
0.0773823
0.0765705
0.0757501
0.0749227
0.0740875
0.0732418
0.0723885
0.0715289
0.0706627
0.0697903
0.0689124
0.0680281
0.0671358
0.0662336
0.0653229
0.0644052
0.0634799
0.0625473
0.0616073
0.0606609
0.0597109
0.0587598
0.0578074
0.0568538
0.0558997
0.0549461
0.0539954
0.0530518
0.0521195
0.0512011
0.0503009
0.0494248
0.0485786
0.0477693
0.047007
0.046299
0.0456505
0.0450684
0.0445643
0.0441455
0.0438185
0.0435877
0.0434572
0.0780632
0.077327
0.0765815
0.0758282
0.0750724
0.0742962
0.0735109
0.0727201
0.071921
0.0711123
0.0702981
0.069479
0.0686525
0.0678122
0.0669588
0.0660998
0.0652317
0.0643551
0.0634687
0.062574
0.0616705
0.0607665
0.0598624
0.0589579
0.0580519
0.0571452
0.0562379
0.0553331
0.0544405
0.0535616
0.0526987
0.0518574
0.0510438
0.0502622
0.049526
0.0488463
0.0482286
0.047664
0.0471763
0.0467703
0.0464526
0.0462266
0.0460936
0.078696
0.0780161
0.0773337
0.0766377
0.0759668
0.0752474
0.0745163
0.0737821
0.073042
0.0722822
0.0715164
0.0707467
0.0699769
0.0691974
0.0683873
0.0675809
0.066757
0.0659319
0.0650886
0.0642469
0.0633784
0.0625095
0.0616424
0.0607785
0.0599131
0.0590497
0.0581867
0.057309
0.0564489
0.0556034
0.0547745
0.0539602
0.0531799
0.0524188
0.0516997
0.0510358
0.0504643
0.0499071
0.0494328
0.049035
0.0487249
0.0485055
0.0483644
0.00904963
0.0110986
0.0122402
0.0132926
0.0144042
0.0155894
0.0168326
0.0181206
0.0194398
0.0207819
0.0221417
0.0235132
0.0248949
0.0262847
0.0276812
0.0290831
0.0304898
0.0319012
0.0333168
0.0347365
0.0361593
0.0375859
0.0390159
0.0404495
0.0418863
0.0433261
0.0447692
0.0462148
0.0476636
0.0491149
0.0505684
0.0520241
0.0534817
0.0549411
0.0564015
0.0578626
0.0593243
0.0607859
0.062247
0.0637071
0.0651654
0.0666212
0.0680733
0.0203551
0.0205414
0.0209157
0.0214647
0.0221654
0.0229921
0.023922
0.0249333
0.0260089
0.0271344
0.0282979
0.0294914
0.0307071
0.0319401
0.0331867
0.0344435
0.0357087
0.0369796
0.0382555
0.0395352
0.040818
0.042103
0.0433903
0.0446794
0.0459696
0.0472611
0.0485536
0.0498473
0.0511416
0.0524367
0.0537322
0.0550283
0.0563247
0.0576211
0.0589176
0.060214
0.0615101
0.0628057
0.0641005
0.0653945
0.0666871
0.0679778
0.0692663
0.0270326
0.0271719
0.0274584
0.0278848
0.0284387
0.0291058
0.0298708
0.0307182
0.031633
0.0326034
0.0336189
0.0346698
0.0357482
0.0368494
0.0379677
0.0390992
0.0402408
0.04139
0.0425448
0.0437039
0.0448658
0.0460295
0.0471949
0.0483607
0.049527
0.0506931
0.0518589
0.0530241
0.0541886
0.0553522
0.0565148
0.0576763
0.0588365
0.0599956
0.0611536
0.0623104
0.063466
0.0646204
0.0657736
0.0669254
0.0680757
0.0692242
0.0703709
0.0323498
0.0324636
0.0327038
0.0330643
0.0335375
0.0341134
0.0347792
0.0355231
0.036333
0.0371986
0.0381092
0.0390564
0.0400337
0.0410344
0.042053
0.043086
0.0441295
0.0451808
0.0462378
0.0472986
0.0483617
0.0494265
0.0504914
0.0515562
0.05262
0.0536825
0.0547431
0.0558014
0.0568576
0.0579116
0.058963
0.0600117
0.0610577
0.062101
0.0631419
0.0641804
0.0652168
0.0662511
0.0672831
0.068313
0.0693407
0.0703661
0.0713889
0.0367097
0.036806
0.0370162
0.0373358
0.0377587
0.0382753
0.0388758
0.0395499
0.0402873
0.0410776
0.0419124
0.0427833
0.0436835
0.0446065
0.0455478
0.0465029
0.0474684
0.0484413
0.049419
0.0504002
0.0513834
0.0523667
0.05335
0.0543318
0.0553114
0.0562878
0.0572611
0.0582309
0.0591972
0.0601599
0.0611183
0.0620724
0.0630221
0.0639678
0.0649097
0.0658481
0.0667833
0.0677152
0.0686436
0.0695687
0.0704908
0.0714098
0.0723254
0.0403494
0.0404321
0.0406211
0.0409125
0.0412996
0.0417753
0.04233
0.0429541
0.0436379
0.0443731
0.0451511
0.0459636
0.0468038
0.0476665
0.0485465
0.0494396
0.0503424
0.0512515
0.0521654
0.0530819
0.0539995
0.0549171
0.0558334
0.056747
0.0576567
0.058562
0.0594627
0.060359
0.0612509
0.0621374
0.0630177
0.0638918
0.0647603
0.0656235
0.0664817
0.0673354
0.0681845
0.0690289
0.0698686
0.0707037
0.0715346
0.0723616
0.0731847
0.0434285
0.0435011
0.0436736
0.0439428
0.0443044
0.04475
0.0452702
0.0458565
0.0465004
0.0471936
0.0479277
0.0486935
0.049486
0.0503009
0.0511319
0.0519746
0.052826
0.0536831
0.0545445
0.0554082
0.0562727
0.0571363
0.0579977
0.0588548
0.0597059
0.0605511
0.0613911
0.062227
0.0630575
0.06388
0.0646934
0.0655001
0.0662997
0.0670932
0.0678803
0.0686621
0.0694378
0.0702075
0.0709711
0.0717284
0.0724803
0.0732275
0.0739703
0.0460609
0.0461256
0.0462829
0.046534
0.0468776
0.0473004
0.0477929
0.0483486
0.0489624
0.0496238
0.0503218
0.0510487
0.0518032
0.0525804
0.0533713
0.0541722
0.0549804
0.0557942
0.0566125
0.0574332
0.0582545
0.0590739
0.0598909
0.0606996
0.0615001
0.0622937
0.0630843
0.0638717
0.0646517
0.0654185
0.0661724
0.0669243
0.0676635
0.0683993
0.0691245
0.0698467
0.0705587
0.0712649
0.0719627
0.0726522
0.0733359
0.0740139
0.0746862
0.0483295
0.0483893
0.0485282
0.0487605
0.0490934
0.0494964
0.0499623
0.0504905
0.0510815
0.0517173
0.0523814
0.0530745
0.0538011
0.0545486
0.0553028
0.0560685
0.0568415
0.0576209
0.0584064
0.0591943
0.0599813
0.0607646
0.0615477
0.0623097
0.0630677
0.063819
0.0645739
0.0653222
0.0660572
0.0667727
0.0674731
0.0681902
0.0688663
0.0695632
0.0702273
0.0709066
0.0715569
0.0722116
0.0728496
0.0734811
0.0741084
0.074729
0.0753447
0.0189932
0.0183466
0.01772
0.0171109
0.0165179
0.0159399
0.015376
0.0148254
0.0142872
0.0137607
0.0132453
0.0127404
0.0122454
0.0117597
0.0112829
0.0108145
0.0103539
0.00990082
0.00945472
0.00901518
0.00858177
0.00815411
0.00773179
0.00731438
0.00690156
0.00649295
0.00608816
0.00568693
0.00528889
0.00489384
0.00450163
0.00411216
0.00372557
0.00334225
0.00296297
0.00258889
0.00222192
0.00186452
0.00151981
0.00119102
0.000879873
0.000593241
0.000365986
0.0189481
0.0183544
0.0177744
0.0172089
0.0166569
0.0161176
0.0155902
0.0150739
0.014568
0.0140719
0.0135849
0.0131065
0.0126361
0.0121733
0.0117175
0.0112683
0.0108252
0.0103877
0.00995554
0.00952809
0.00910502
0.00868594
0.00827039
0.00785792
0.00744829
0.00704103
0.00663574
0.00623221
0.00583005
0.00542912
0.00502925
0.00463047
0.00423297
0.00383713
0.00344374
0.00305403
0.00266949
0.00229176
0.00192204
0.001559
0.00119642
0.000875351
0.000600273
0.018918
0.0183668
0.0178305
0.0173063
0.0167934
0.0162907
0.0157978
0.0153137
0.0148381
0.0143702
0.0139094
0.0134554
0.0130076
0.0125655
0.0121286
0.0116966
0.0112689
0.0108452
0.010425
0.0100079
0.00959356
0.0091815
0.00877129
0.00836257
0.00795501
0.00754815
0.00714162
0.00673519
0.00632847
0.00592135
0.0055136
0.00510534
0.00469662
0.00428783
0.00387964
0.00347299
0.00306888
0.0026679
0.00226896
0.0018674
0.00146182
0.00110691
0.00077589
0.0188802
0.0183774
0.0178822
0.017396
0.0169185
0.0164491
0.0159873
0.0155323
0.0150838
0.014641
0.0142037
0.0137713
0.0133433
0.0129194
0.012499
0.0120819
0.0116676
0.0112556
0.0108457
0.0104373
0.0100301
0.00962367
0.00921766
0.00881167
0.00840535
0.00799828
0.00759008
0.00718049
0.00676912
0.00635583
0.00594045
0.00552292
0.00510331
0.00468191
0.00425927
0.00383593
0.00341238
0.00298799
0.00255962
0.00212144
0.00168659
0.00129362
0.000913677
0.0188555
0.0183882
0.0179293
0.0174773
0.0170319
0.0165924
0.0161585
0.0157295
0.0153051
0.0148848
0.0144682
0.0140548
0.0136444
0.0132364
0.0128304
0.0124262
0.0120233
0.0116214
0.0112201
0.010819
0.0104178
0.0100159
0.00961323
0.00920921
0.00880354
0.00839581
0.00798569
0.00757278
0.00715683
0.00673761
0.00631486
0.00588851
0.0054586
0.00502532
0.00458899
0.00414986
0.00370775
0.00326079
0.00280418
0.00233196
0.0018737
0.00144543
0.00102527
0.018827
0.0183974
0.0179719
0.017551
0.0171344
0.0167218
0.0163129
0.0159072
0.0155044
0.0151041
0.0147059
0.0143094
0.0139143
0.0135202
0.0131269
0.0127339
0.012341
0.0119477
0.0115538
0.0111589
0.0107625
0.0103645
0.00996436
0.00956174
0.00915623
0.00874756
0.0083353
0.00791917
0.00749875
0.00707387
0.00664414
0.0062096
0.0057701
0.00532575
0.00487677
0.00442294
0.00396339
0.00349527
0.00301196
0.00250804
0.00203026
0.00157064
0.00111769
0.0188065
0.0184066
0.0180106
0.0176176
0.017227
0.0168387
0.0164523
0.0160676
0.0156842
0.0153017
0.0149199
0.0145384
0.0141569
0.0137751
0.0133929
0.0130097
0.0126254
0.0122395
0.0118519
0.0114622
0.0110701
0.0106752
0.0102771
0.00987544
0.00946972
0.00905981
0.00864538
0.00822607
0.00780147
0.00737123
0.00693508
0.00649292
0.00604458
0.00559009
0.00512938
0.00466199
0.00418643
0.00369826
0.00318865
0.00264702
0.00215886
0.0016732
0.00119403
0.0187837
0.0184144
0.0180458
0.017678
0.0173109
0.0169443
0.0165783
0.0162125
0.0158466
0.0154804
0.0151134
0.0147454
0.0143759
0.014005
0.0136326
0.0132583
0.0128817
0.0125021
0.0121194
0.0117342
0.0113458
0.0109536
0.0105576
0.0101571
0.0097508
0.00933885
0.00892182
0.00849953
0.00807123
0.00763614
0.00719396
0.00674475
0.00628831
0.00582436
0.00535255
0.00487248
0.00438199
0.00387541
0.0033419
0.00277034
0.00226817
0.00176257
0.00126334
0.0187657
0.0184215
0.0180778
0.017733
0.017387
0.0170396
0.0166917
0.0163435
0.0159939
0.0156427
0.01529
0.0149355
0.0145767
0.0142147
0.0138514
0.013485
0.0131168
0.0127436
0.0123631
0.0119814
0.0115964
0.0112068
0.0108126
0.0104168
0.0100119
0.00959565
0.00917312
0.00874714
0.0083164
0.00787818
0.0074306
0.00697479
0.00651161
0.00603967
0.00555541
0.00506037
0.00455389
0.0040288
0.00347106
0.00287707
0.00234256
0.0018016
0.00129216
0.000367398
0.000481999
0.000675206
0.0008604
0.00103857
0.00121079
0.00137826
0.00154252
0.00170575
0.00187116
0.00204377
0.00223046
0.00243952
0.00267646
0.00294314
0.00323917
0.00356238
0.00391129
0.00428515
0.00468344
0.00510643
0.00555427
0.00602747
0.00652664
0.00705232
0.00760516
0.00818568
0.00879436
0.00943193
0.0100991
0.0107965
0.0115252
0.012286
0.0130798
0.0139076
0.0147705
0.0156694
0.0166056
0.0175799
0.0185933
0.0196467
0.0207414
0.0218802
0.000507074
0.00063317
0.000833207
0.00102935
0.0012178
0.00139962
0.0015772
0.00175388
0.00193421
0.00212386
0.00232932
0.00255739
0.00281452
0.00310277
0.00341785
0.00375725
0.00411949
0.00450361
0.00490909
0.00533609
0.00578453
0.00625462
0.00674684
0.00726155
0.00779901
0.00835965
0.00894376
0.00955176
0.0101843
0.0108419
0.0115251
0.0122349
0.0129718
0.0137366
0.0145303
0.0153535
0.0162072
0.0170923
0.0180094
0.0189594
0.0199429
0.0209599
0.0220075
0.000638722
0.000770141
0.000978173
0.00118506
0.0013843
0.00157786
0.00177005
0.00196639
0.00217317
0.00239669
0.00264248
0.00291514
0.00321881
0.00355182
0.00390781
0.00428452
0.00468078
0.00509608
0.00553013
0.00598264
0.0064539
0.00694389
0.00745282
0.00798091
0.00852818
0.00909476
0.00968102
0.0102873
0.0109139
0.0115614
0.0122303
0.0129212
0.0136345
0.0143708
0.015131
0.0159157
0.0167253
0.0175606
0.0184221
0.0193102
0.0202254
0.0211675
0.0221356
0.000754449
0.000890664
0.00110715
0.00132451
0.00153538
0.00174344
0.00195497
0.00217698
0.00241604
0.00267724
0.00296382
0.00327853
0.00362448
0.00399537
0.00438601
0.00479465
0.00522052
0.00566295
0.00612168
0.00659661
0.0070876
0.00759462
0.00811767
0.00865668
0.00921167
0.00978266
0.0103698
0.0109734
0.0115937
0.0122311
0.0128859
0.0135585
0.0142494
0.0149591
0.0156879
0.0164363
0.0172047
0.0179936
0.0188035
0.0196345
0.0204866
0.02136
0.0222545
0.00085448
0.00099646
0.00122171
0.00144978
0.00167379
0.00189934
0.00213417
0.00238555
0.00265893
0.0029573
0.00328207
0.00363527
0.00401788
0.00442128
0.00484192
0.00527849
0.00573013
0.00619636
0.0066768
0.00717117
0.0076793
0.00820096
0.00873593
0.00928392
0.009845
0.010419
0.0110062
0.0116066
0.0122205
0.012848
0.0134894
0.0141448
0.0148148
0.0154994
0.016199
0.016914
0.0176445
0.0183908
0.0191532
0.0199317
0.0207265
0.0215379
0.0223663
0.000941003
0.00108971
0.00132408
0.00156346
0.0018023
0.00204781
0.00230831
0.00259033
0.00289744
0.00323053
0.00358997
0.00397822
0.00439223
0.00482407
0.00527113
0.00573235
0.00620688
0.00669424
0.00719384
0.00770537
0.00822843
0.00876262
0.00930761
0.0098631
0.010429
0.0110054
0.011592
0.012189
0.0127964
0.0134144
0.0140431
0.0146826
0.015333
0.0159946
0.0166671
0.0173512
0.0180469
0.0187542
0.0194733
0.0202041
0.0209467
0.0217016
0.0224695
0.00101628
0.00117316
0.00141691
0.00166827
0.00192343
0.00219057
0.00247769
0.00278979
0.00312838
0.0034929
0.00388343
0.0043031
0.00474439
0.0052013
0.00567193
0.00615517
0.00665014
0.00715632
0.00767303
0.00819977
0.00873593
0.00928106
0.0098348
0.0103968
0.0109669
0.0115447
0.0121302
0.0127235
0.0133247
0.0139338
0.0145508
0.0151754
0.0158078
0.0164478
0.0170954
0.017751
0.0184148
0.0190864
0.0197659
0.0204532
0.0211485
0.0218516
0.0225625
0.00108208
0.00124469
0.00149805
0.00176266
0.00203464
0.00232323
0.00263628
0.00297696
0.00334468
0.00373754
0.00415735
0.00460551
0.00507189
0.0055524
0.00604531
0.00654929
0.0070633
0.0075868
0.00811936
0.00865998
0.009208
0.00976305
0.0103246
0.0108922
0.0114651
0.0120428
0.0126256
0.0132144
0.0138096
0.014411
0.0150174
0.0156282
0.0162436
0.0168631
0.0174868
0.018116
0.0187508
0.0193907
0.0200342
0.0206814
0.0213336
0.0219907
0.0226533
0.00114024
0.00132517
0.00159079
0.00186443
0.0021557
0.00247334
0.00281765
0.00318956
0.003582
0.00401055
0.00446479
0.00493785
0.00542627
0.00593104
0.0064404
0.00696206
0.00748589
0.00802384
0.00856825
0.00911831
0.00967459
0.0102366
0.0108023
0.0113717
0.0119411
0.0125097
0.0130836
0.0136667
0.0142581
0.0148552
0.0154523
0.0160488
0.0166477
0.0172445
0.0178432
0.0184477
0.0190583
0.0196723
0.0202813
0.0208901
0.0215033
0.0221198
0.0227391
0.000690421
0.00236493
0.00405811
0.00569709
0.00728632
0.00884683
0.0103988
0.0119496
0.0135034
0.0150628
0.0166276
0.0182015
0.0197864
0.0213823
0.0229905
0.0246105
0.0262417
0.0278836
0.0295357
0.0311972
0.0328675
0.0345464
0.0362334
0.0379278
0.0396289
0.0413367
0.0430503
0.0447696
0.0464936
0.0482218
0.0499538
0.0516888
0.053426
0.0551643
0.0569036
0.0586425
0.0603803
0.0621162
0.0638491
0.0655779
0.0673018
0.0690199
0.0707322
0.000399259
0.00199159
0.00315235
0.00438338
0.00567659
0.00700156
0.00833259
0.00964722
0.0109388
0.0122631
0.0137233
0.015271
0.016867
0.0184938
0.0201437
0.0218132
0.0234996
0.0252014
0.0269168
0.0286448
0.0303838
0.0321325
0.0338906
0.0356562
0.0374295
0.0392088
0.0409939
0.0427842
0.0445786
0.0463764
0.048177
0.0499797
0.0517834
0.0535874
0.0553911
0.0571931
0.0589927
0.0607893
0.0625812
0.064368
0.0661482
0.067921
0.0696851
0.000333611
0.00161908
0.00318421
0.00444025
0.0055814
0.00668728
0.00778722
0.00888908
0.00999765
0.0111297
0.0123074
0.0135546
0.0149645
0.0164927
0.0180914
0.019736
0.0214151
0.0231214
0.0248507
0.0266
0.0283662
0.0301472
0.0319416
0.0337472
0.0355629
0.037387
0.0392185
0.0410563
0.0428992
0.0447463
0.0465967
0.0484492
0.0503027
0.0521565
0.0540095
0.0558604
0.0577086
0.0595527
0.0613919
0.0632248
0.0650504
0.0668673
0.068674
0.000286818
0.00141106
0.00291587
0.00436218
0.00560002
0.00669921
0.00772329
0.00871449
0.00969931
0.0106953
0.0117155
0.0127786
0.0139171
0.015189
0.0166318
0.018182
0.0198013
0.0214695
0.0231757
0.0249127
0.0266755
0.0284611
0.0302659
0.0320873
0.0339235
0.035772
0.037631
0.0394992
0.0413751
0.0432569
0.0451436
0.0470336
0.048926
0.0508193
0.0527121
0.0546035
0.0564923
0.058377
0.0602566
0.0621298
0.063995
0.0658508
0.067695
0.000255056
0.00124503
0.00260093
0.00408652
0.0054442
0.00663383
0.00769709
0.00867953
0.00961835
0.0105416
0.0114705
0.0124226
0.0134166
0.0144817
0.0156726
0.0170529
0.0185625
0.0201569
0.0218116
0.0235121
0.0252501
0.0270196
0.0288158
0.0306352
0.0324748
0.0343319
0.036204
0.0380889
0.0399847
0.0418896
0.0438016
0.0457192
0.0476409
0.049565
0.0514901
0.0534147
0.0553373
0.0572567
0.0591713
0.0610796
0.0629801
0.0648709
0.0667493
0.000233365
0.00113124
0.00236745
0.00378694
0.00518873
0.00645883
0.00759193
0.00861699
0.009567
0.0104725
0.0113593
0.0122486
0.0131593
0.0141117
0.0151361
0.0162907
0.0176386
0.0191245
0.0207029
0.0223482
0.024045
0.0257838
0.0275576
0.0293621
0.0311926
0.0330462
0.0349196
0.0368102
0.0387156
0.0406335
0.0425619
0.0444983
0.0464413
0.0483888
0.050339
0.0522901
0.054241
0.0561895
0.0581341
0.0600731
0.062005
0.0639282
0.0658414
0.000216642
0.00104288
0.00218483
0.00352126
0.00491013
0.00622264
0.00741488
0.00849316
0.00948
0.0104012
0.0112817
0.0121443
0.0130095
0.0138969
0.0148281
0.0158366
0.0169869
0.0183296
0.0198085
0.0213818
0.0230246
0.0247214
0.0264633
0.028243
0.0300553
0.0318962
0.0337621
0.0356499
0.0375566
0.0394796
0.0414163
0.0433643
0.0453214
0.0472857
0.0492548
0.0512272
0.0532006
0.0551732
0.0571433
0.059109
0.0610687
0.0630212
0.0649667
0.000203124
0.000970978
0.00203543
0.00329367
0.0046423
0.00596494
0.00719549
0.00831985
0.0093482
0.0102994
0.0111945
0.0120549
0.0129011
0.0137524
0.0146287
0.0155537
0.0165666
0.0177398
0.0190965
0.0205822
0.0221594
0.023806
0.0255081
0.0272561
0.0290435
0.0308651
0.0327169
0.0345952
0.0364965
0.038418
0.0403568
0.0423102
0.0442758
0.0462511
0.0482341
0.0502223
0.0522135
0.0542059
0.0561972
0.0581855
0.0601693
0.0621473
0.064119
0.000191837
0.00091092
0.00191015
0.00309834
0.00439673
0.00570752
0.00695699
0.00811506
0.00918044
0.0101646
0.0110836
0.0119561
0.0128005
0.0136358
0.0144806
0.0153554
0.0162874
0.0173239
0.0185409
0.0199248
0.0214267
0.0230154
0.0246716
0.0263829
0.0281403
0.0299379
0.0317705
0.0336342
0.0355251
0.03744
0.0393759
0.0413298
0.0432988
0.0452807
0.0472726
0.049272
0.051277
0.0532848
0.0552934
0.0573007
0.059305
0.0613045
0.0632976
0.000182376
0.000859758
0.00180312
0.00292927
0.0041751
0.00546087
0.00671374
0.00789334
0.00898821
0.0100026
0.0109481
0.0118393
0.0126926
0.0135252
0.0143545
0.0151992
0.0160816
0.0170344
0.0181176
0.0193889
0.0208069
0.0223316
0.0239373
0.0256075
0.0273313
0.0291011
0.0309112
0.0327564
0.0346332
0.0365376
0.0384665
0.0404166
0.0423852
0.0443692
0.0463661
0.0483732
0.0503879
0.0524076
0.0544301
0.0564531
0.0584744
0.0604917
0.0625018
0.000177043
0.000815537
0.00171057
0.0027815
0.0039763
0.00522966
0.00647437
0.00766472
0.00878113
0.00982122
0.0107918
0.0117041
0.0125718
0.0134099
0.0142344
0.0150627
0.0159143
0.0168145
0.017805
0.0189577
0.0202844
0.0217395
0.0232905
0.0249167
0.0266041
0.0283437
0.0301281
0.0319525
0.0338119
0.0357029
0.0376215
0.0395648
0.0415294
0.0435125
0.045511
0.0475222
0.0495434
0.051572
0.0536053
0.0556409
0.0576766
0.0597097
0.0617371
0.000179317
0.000776608
0.0016297
0.00265156
0.0037983
0.00501562
0.00624406
0.0074362
0.0085666
0.00962693
0.0106197
0.0115527
0.012437
0.0132855
0.0141125
0.0149337
0.0157668
0.016633
0.017564
0.0186145
0.0198454
0.0212266
0.0227198
0.0242993
0.0259483
0.0276553
0.0294126
0.0312137
0.0330539
0.034929
0.0368351
0.0387688
0.0407269
0.0427061
0.0447034
0.0467161
0.0487409
0.0507755
0.052817
0.0548627
0.0569105
0.0589581
0.0610056
0.000184803
0.000742119
0.00155841
0.00253632
0.00363844
0.00481902
0.00602569
0.00721252
0.00834998
0.00942526
0.0104366
0.0113887
0.0122899
0.013151
0.0139848
0.0148053
0.0156284
0.0164728
0.0173642
0.0183434
0.0194782
0.0207823
0.0222149
0.0237458
0.0253545
0.0270279
0.0287564
0.0305331
0.0323524
0.0342099
0.0361015
0.0380236
0.0399729
0.041946
0.0439399
0.0459514
0.0479777
0.0500159
0.0520631
0.0541165
0.0561739
0.0582325
0.0602892
0.000190379
0.000711504
0.00149489
0.00243331
0.00349429
0.00463855
0.00582038
0.00699635
0.00813525
0.00922047
0.0102466
0.0112152
0.0121324
0.0130072
0.0138502
0.0146741
0.0154931
0.0163242
0.017189
0.0181198
0.0191716
0.020397
0.0217674
0.0232479
0.0248155
0.026454
0.0281529
0.029904
0.0317012
0.0335399
0.0354155
0.0373245
0.0392633
0.0412286
0.043217
0.0452255
0.0472511
0.0492909
0.0513416
0.0534008
0.0554657
0.0575336
0.0596012
0.000195316
0.000684264
0.00143813
0.00234083
0.00336387
0.00447294
0.00562814
0.0067895
0.00792511
0.00901576
0.0100529
0.0110354
0.0119672
0.0128553
0.0137087
0.0145386
0.0153577
0.0161814
0.0170284
0.0179254
0.0189156
0.020063
0.0213696
0.022799
0.0243244
0.0259275
0.0275959
0.0293208
0.0310952
0.0329141
0.0347728
0.0366674
0.0385945
0.0405503
0.0425317
0.0445356
0.0465588
0.0485981
0.0506508
0.0527139
0.0547849
0.0568616
0.0589438
0.000199536
0.000660022
0.00138704
0.00225725
0.00324536
0.00432092
0.005449
0.00659297
0.00772147
0.00881365
0.00985818
0.0108518
0.0117964
0.012697
0.0135611
0.0143985
0.0152205
0.0160408
0.0168763
0.0177497
0.018696
0.0197728
0.0210156
0.0223932
0.0238757
0.025443
0.0270807
0.0287787
0.0305298
0.0323283
0.0341691
0.0360486
0.0379628
0.0399081
0.0418813
0.043879
0.0458983
0.0479359
0.0499887
0.0520541
0.0541292
0.0562117
0.0582994
0.000203159
0.000638413
0.00134083
0.00218133
0.0031372
0.00418109
0.00528216
0.00640692
0.00752547
0.00861575
0.00966466
0.0106668
0.0116221
0.012534
0.0134085
0.014254
0.0150806
0.0159006
0.0167291
0.0175859
0.0185003
0.0195199
0.0206996
0.0220251
0.0234648
0.0249958
0.0266024
0.0282734
0.0300009
0.0317784
0.0336011
0.0354647
0.0373651
0.039299
0.0412628
0.0432533
0.0452675
0.0473019
0.0493536
0.0514195
0.0534967
0.0555815
0.057668
0.000206344
0.00061924
0.001299
0.0021122
0.00303821
0.00405232
0.00512686
0.00623149
0.00733776
0.00842342
0.00947384
0.010482
0.0114461
0.0123678
0.0132521
0.0141058
0.014938
0.0157597
0.0165844
0.0174299
0.0183209
0.0192972
0.0204167
0.0216904
0.0230871
0.0245819
0.0261574
0.0278013
0.0295048
0.0312614
0.0330656
0.0349126
0.0367988
0.0387204
0.0406741
0.0426565
0.0446643
0.0466945
0.0487436
0.0508089
0.0528867
0.0549741
0.0570688
0.000209123
0.000602126
0.00126098
0.00204889
0.00294732
0.00393332
0.00498216
0.00606616
0.00715869
0.00823728
0.00928691
0.0102988
0.0112697
0.0121999
0.0130929
0.0139548
0.0147931
0.0156178
0.0164411
0.0172789
0.0181529
0.0190965
0.0201626
0.021385
0.022739
0.0241978
0.0257423
0.0273591
0.0290388
0.0307741
0.0325592
0.0343896
0.036261
0.0381699
0.0401128
0.0420862
0.0440869
0.0461117
0.0481574
0.0502205
0.0522976
0.0543846
0.0564758
0.000211537
0.000586766
0.00122617
0.00199075
0.00286344
0.00382311
0.00484706
0.00591045
0.00698797
0.00805804
0.00910481
0.0101183
0.0110941
0.0120313
0.0129322
0.0138016
0.0146462
0.0154747
0.0162983
0.0171312
0.0179927
0.0189115
0.019933
0.0211056
0.0224174
0.0238403
0.0253539
0.0269438
0.0285997
0.0303137
0.0320798
0.0338932
0.0357497
0.0376454
0.0395769
0.0415407
0.0435336
0.0455522
0.0475932
0.0496532
0.0517286
0.0538158
0.0559115
0.000213754
0.000573179
0.00119444
0.00193724
0.002786
0.00372075
0.00472093
0.00576371
0.00682571
0.00788585
0.00892794
0.00994131
0.0109204
0.0118631
0.0127708
0.013647
0.0144977
0.0153306
0.0161556
0.0169857
0.017838
0.0187378
0.0197241
0.0208494
0.0221192
0.0235067
0.0249898
0.026553
0.0281852
0.0298779
0.0316251
0.0334214
0.0352626
0.0371449
0.0390646
0.0410182
0.0430026
0.0450143
0.0470499
0.049106
0.0511789
0.0532646
0.055358
0.000215863
0.000561166
0.00116545
0.00188794
0.0027143
0.00362568
0.00460302
0.00562561
0.00667155
0.00772063
0.00875671
0.00976844
0.0107492
0.0116961
0.0126094
0.0134918
0.0143484
0.0151857
0.0160129
0.0168416
0.0176875
0.0185726
0.0195311
0.0206132
0.0218422
0.0231946
0.0246476
0.0261844
0.027793
0.0294647
0.0311929
0.0329722
0.034798
0.0366665
0.0385741
0.0405172
0.0424925
0.0444966
0.0465263
0.0485777
0.0506475
0.0527316
0.0548269
0.000217765
0.000550342
0.0011389
0.00184238
0.00264774
0.00353696
0.00449266
0.00549554
0.00652522
0.00756252
0.00859143
0.00960013
0.0105812
0.0115309
0.0124488
0.0133367
0.0141986
0.0150404
0.0158703
0.0166988
0.0175401
0.0184139
0.0193503
0.0203947
0.0215839
0.022902
0.0243253
0.0258358
0.0274213
0.0290723
0.0307816
0.0325437
0.0343541
0.0362087
0.0381039
0.0400362
0.0420019
0.0439982
0.0460213
0.0480675
0.0501334
0.052214
0.0543015
0.000219564
0.000540785
0.00111456
0.00180014
0.00258576
0.00345424
0.00438923
0.00537292
0.00638634
0.00741135
0.00843216
0.0094366
0.0104167
0.0113682
0.0122897
0.0131822
0.0140489
0.014895
0.0157278
0.0165568
0.0173951
0.0182603
0.0191789
0.0201917
0.0213426
0.0226271
0.024021
0.0255058
0.0270684
0.0286986
0.0303892
0.0321343
0.0339292
0.0357699
0.0376526
0.0395737
0.0415299
0.0435177
0.0455339
0.0475749
0.0496372
0.0517175
0.0538157
0.000221291
0.000532195
0.00109221
0.00176104
0.00252811
0.00337689
0.00429205
0.00525718
0.00625458
0.00726693
0.00827879
0.00927807
0.0102562
0.0112085
0.0121325
0.0130287
0.0138997
0.0147499
0.0155856
0.0164158
0.017252
0.0181106
0.019015
0.0200016
0.0211166
0.022368
0.0237331
0.0251927
0.0267327
0.0283425
0.0300145
0.0317427
0.0335223
0.035349
0.037219
0.0391288
0.041075
0.0430543
0.0450634
0.0470988
0.0491574
0.051237
0.0533374
0.000222913
0.000524517
0.00107165
0.00172465
0.0024742
0.00330433
0.00420066
0.00514788
0.00612951
0.00712888
0.00813134
0.00912458
0.0100999
0.0110519
0.0119775
0.0128768
0.0137515
0.0146053
0.015444
0.0162756
0.0171107
0.0179642
0.0188571
0.0198222
0.0209042
0.0221233
0.0234603
0.0248951
0.0264127
0.0280024
0.0296562
0.0313677
0.0331319
0.0349446
0.0368019
0.0387003
0.0406364
0.0426069
0.0446086
0.0466382
0.0486926
0.050769
0.0528641
0.000224469
0.000517586
0.00105266
0.00169077
0.00242373
0.00323626
0.00411455
0.00504453
0.0060105
0.00699699
0.00798959
0.0089762
0.00994786
0.0108986
0.0118251
0.0127267
0.0136045
0.0144616
0.0153031
0.0161363
0.0169709
0.0178205
0.0187043
0.0196514
0.0207039
0.0218918
0.0232012
0.0246116
0.0261073
0.0276772
0.029313
0.0310079
0.0327569
0.0345557
0.0364003
0.0382872
0.0402131
0.0421747
0.0441688
0.0461922
0.0482419
0.0503152
0.0524087
0.00022597
0.000511351
0.0010352
0.00165922
0.00237652
0.00317221
0.00403344
0.00494669
0.00589754
0.00687107
0.00785345
0.00883283
0.00980013
0.0107489
0.0116756
0.0125787
0.013459
0.014319
0.0151632
0.0159981
0.0168327
0.0176793
0.0185556
0.0194876
0.0205145
0.0216723
0.0229547
0.024341
0.0258154
0.0273659
0.0289838
0.0306624
0.0323964
0.0341812
0.0360131
0.0378886
0.0398043
0.0417568
0.043743
0.0457602
0.0478052
0.0498759
0.0519706
0.000227379
0.00050566
0.00101904
0.0016297
0.00233215
0.00311193
0.00395678
0.00485404
0.00578997
0.0067506
0.00772268
0.00869453
0.0096568
0.010603
0.0115291
0.0124332
0.0133154
0.0141778
0.0150244
0.015861
0.0166958
0.0175403
0.0184104
0.01933
0.0203347
0.0214638
0.0227197
0.0240826
0.0255358
0.0270672
0.0286676
0.0303301
0.0320491
0.0338203
0.0356396
0.0375036
0.0394089
0.0413523
0.0433307
0.0453414
0.0473815
0.0494489
0.0515429
0.000228773
0.000500661
0.00100411
0.00160222
0.00229057
0.00305525
0.00388444
0.00476615
0.00568756
0.00663552
0.00759715
0.00856102
0.00951788
0.010461
0.0113858
0.0122901
0.0131738
0.0140383
0.014887
0.0157252
0.0165604
0.0174032
0.0182683
0.0191774
0.0201629
0.0212653
0.0224954
0.0238354
0.0252679
0.0267806
0.0283637
0.0300102
0.0317146
0.033472
0.0352788
0.0371314
0.0390263
0.0409604
0.0429309
0.0449348
0.0469693
0.0490317
0.0511183
0.000230115
0.000495985
0.00099031
0.00157648
0.00225143
0.00300167
0.00381593
0.00468279
0.00559017
0.00652554
0.00747664
0.00843225
0.00938326
0.0103226
0.0112457
0.0121498
0.0130343
0.0139004
0.014751
0.0155907
0.0164265
0.0172681