/*--------------------------------*- C++ -*----------------------------------*\
| =========                 |                                                 |
| \\      /  F ield         | OpenFOAM: The Open Source CFD Toolbox           |
|  \\    /   O peration     | Version:  2.3.0                                 |
|   \\  /    A nd           | Web:      www.OpenFOAM.org                      |
|    \\/     M anipulation  |                                                 |
\*---------------------------------------------------------------------------*/
FoamFile
{
    version     2.0;
    format      ascii;
    class       volVectorField;
    location    "2000";
    object      U;
}
// * * * * * * * * * * * * * * * * * * * * * * * * * * * * * * * * * * * * * //

dimensions      [0 1 -1 0 0 0 0];

internalField   nonuniform List<vector> 
38144
(
(23.3583 6.36937 -3.49163e-21)
(23.3785 6.51268 1.0126e-21)
(23.3999 6.65129 -2.62661e-22)
(23.4212 6.79377 -2.15225e-21)
(23.4425 6.9396 -6.72942e-21)
(23.4637 7.08903 -9.97863e-21)
(23.4849 7.24231 2.21651e-20)
(23.5059 7.39971 -1.39984e-20)
(23.5267 7.56156 -1.59121e-20)
(23.5471 7.72815 5.37343e-21)
(23.5671 7.89989 -6.12007e-21)
(23.5865 8.07718 8.43693e-20)
(23.6053 8.26051 -7.29017e-20)
(23.6233 8.45048 0)
(23.6404 8.64775 -9.66217e-20)
(23.6564 8.85301 -8.5818e-21)
(23.6712 9.06712 9.42904e-20)
(23.6845 9.29108 1.05116e-19)
(23.6962 9.52607 -1.13073e-20)
(23.7057 9.77342 -1.36015e-19)
(23.7129 10.0347 0)
(23.7174 10.3117 1.70824e-19)
(23.7186 10.6065 -1.73884e-19)
(23.7162 10.9215 1.01299e-20)
(23.7093 11.2593 0)
(23.6972 11.6228 2.21739e-19)
(23.6788 12.015 -4.92947e-19)
(23.6525 12.4394 2.35611e-19)
(23.616 12.8993 -2.81992e-19)
(23.5659 13.3982 3.06307e-19)
(23.4975 13.9389 -1.91222e-19)
(23.4036 14.524 1.70991e-19)
(23.2736 15.1547 -2.27795e-20)
(23.0921 15.8308 -2.60574e-20)
(22.8374 16.5477 1.50076e-19)
(22.4783 17.2986 -3.01829e-19)
(21.9712 18.0699 6.61115e-20)
(21.2556 18.839 7.77202e-20)
(20.2503 19.5646 8.19359e-21)
(18.8535 20.1821 -9.9283e-21)
(16.9419 20.6646 -3.45199e-20)
(14.3562 20.9993 -4.68563e-21)
(10.9991 20.666 5.20046e-21)
(23.2129 6.3971 4.238e-21)
(23.2219 6.52675 0)
(23.2322 6.65436 -7.57166e-22)
(23.242 6.78529 3.26227e-22)
(23.2511 6.91908 0)
(23.2596 7.05597 3.50311e-21)
(23.2671 7.19614 -6.57999e-21)
(23.2737 7.33986 9.48512e-21)
(23.2793 7.48733 -1.91467e-21)
(23.2835 7.6388 -2.28251e-20)
(23.2864 7.79458 -1.66873e-20)
(23.2876 7.95489 4.3364e-20)
(23.2869 8.12013 0)
(23.284 8.29064 -6.14695e-20)
(23.2787 8.46682 5.65878e-20)
(23.2706 8.64909 6.89195e-20)
(23.2594 8.83788 1.11711e-20)
(23.2445 9.03372 -7.58506e-20)
(23.2256 9.23709 -9.79046e-20)
(23.2016 9.44857 -2.85918e-21)
(23.172 9.66888 9.91532e-20)
(23.1356 9.89878 0)
(23.0911 10.1391 0)
(23.0372 10.391 -4.17258e-21)
(22.9721 10.6555 1.48022e-19)
(22.8937 10.934 -1.39711e-19)
(22.7999 11.2282 -7.32362e-21)
(22.6877 11.5394 0)
(22.5538 11.8694 8.24573e-21)
(22.3943 12.2198 0)
(22.2046 12.5923 -9.00028e-21)
(21.979 12.9876 -1.07798e-19)
(21.7108 13.4061 1.21268e-19)
(21.3927 13.8464 -4.53039e-21)
(21.0158 14.3049 -4.24537e-21)
(20.571 14.7751 1.11647e-20)
(20.0482 15.2444 2.84251e-21)
(19.4378 15.6939 0)
(18.7322 16.0938 1.03784e-20)
(17.9298 16.4027 1.33448e-20)
(17.0406 16.5669 -6.05414e-20)
(16.082 16.5008 1.63936e-19)
(15.078 16.083 -2.74608e-19)
(23.0804 6.41083 0)
(23.0828 6.53113 0)
(23.0855 6.64896 5.96024e-21)
(23.0875 6.7694 7.95972e-21)
(23.0886 6.89227 0)
(23.0885 7.01779 1.17988e-21)
(23.0871 7.14617 -8.08672e-22)
(23.0844 7.27762 -3.52215e-22)
(23.0801 7.41235 2.46039e-21)
(23.0742 7.55058 -5.34324e-21)
(23.0664 7.69255 5.70443e-21)
(23.0565 7.83844 4.88005e-21)
(23.0442 7.98861 -1.02492e-20)
(23.0292 8.14331 4.77078e-21)
(23.0111 8.30293 -1.88789e-21)
(22.9897 8.46783 -3.08911e-20)
(22.9645 8.63841 7.67228e-20)
(22.9353 8.81508 -3.70304e-20)
(22.9015 8.99823 4.5629e-21)
(22.8625 9.18829 4.36284e-20)
(22.8177 9.38565 -4.85456e-20)
(22.766 9.59067 2.24083e-21)
(22.7066 9.80379 -2.93672e-20)
(22.6379 10.0254 -7.08474e-21)
(22.5585 10.2558 6.69155e-20)
(22.4665 10.4954 -3.33185e-20)
(22.3598 10.7444 -2.76297e-20)
(22.236 11.0027 3.59411e-20)
(22.0921 11.2705 -8.2661e-21)
(21.9249 11.5471 -3.53883e-20)
(21.7305 11.8316 4.55106e-20)
(21.5042 12.1224 -1.86008e-21)
(21.2409 12.4168 1.20033e-21)
(20.9349 12.711 4.4977e-21)
(20.5803 12.9999 4.20444e-21)
(20.1707 13.2761 0)
(19.7006 13.5296 -1.00878e-20)
(19.1658 13.7479 5.18988e-21)
(18.565 13.9153 -2.7324e-21)
(17.9016 14.0134 2.74916e-21)
(17.1865 14.0219 4.76607e-20)
(16.4411 13.9187 -3.83651e-20)
(15.7058 13.6856 0)
(22.9609 6.41896 0)
(22.9573 6.52843 -2.1252e-21)
(22.9543 6.6364 -3.93803e-21)
(22.9503 6.74673 -2.64886e-21)
(22.9451 6.8592 -6.38712e-21)
(22.9386 6.97397 -7.13301e-22)
(22.9305 7.09121 -1.06206e-21)
(22.9208 7.21118 4.32438e-21)
(22.9093 7.33401 -5.39151e-22)
(22.8959 7.45988 2.17521e-21)
(22.8803 7.58897 -2.27843e-21)
(22.8625 7.72146 7.11446e-22)
(22.8419 7.85755 1.11507e-21)
(22.8183 7.99745 -1.12128e-21)
(22.7911 8.1414 1.90723e-21)
(22.7602 8.28975 -2.92032e-21)
(22.725 8.44275 -3.94761e-22)
(22.685 8.6007 6.17685e-21)
(22.6399 8.76393 -2.77607e-21)
(22.5891 8.9328 0)
(22.5319 9.10748 0)
(22.4675 9.28827 -1.26447e-20)
(22.395 9.47539 1.03306e-20)
(22.3131 9.66893 2.41921e-22)
(22.2205 9.86904 8.85928e-21)
(22.1156 10.0758 -1.18393e-20)
(21.9964 10.2891 -1.08135e-20)
(21.861 10.5087 1.08833e-20)
(21.7073 10.7343 0)
(21.533 10.965 0)
(21.3351 11.1995 0)
(21.111 11.436 1.87844e-21)
(20.8575 11.6718 -1.21029e-21)
(20.5713 11.9031 -4.45747e-21)
(20.2495 12.125 0)
(19.8895 12.3311 0)
(19.4894 12.5135 4.83552e-21)
(19.0493 12.6624 1.3225e-20)
(18.5716 12.7671 -2.49189e-20)
(18.0623 12.8157 8.51607e-21)
(17.5316 12.7961 -9.9806e-21)
(16.9949 12.6981 -1.55496e-19)
(16.4731 12.518 1.27808e-19)
(22.852 6.4201 0)
(22.8452 6.52013 6.52313e-21)
(22.8382 6.61915 0)
(22.8299 6.72018 -2.52032e-21)
(22.8204 6.82322 2.49337e-21)
(22.8095 6.92827 -1.59368e-21)
(22.7967 7.03546 -3.33418e-21)
(22.7823 7.14518 0)
(22.766 7.25746 0)
(22.7477 7.37245 -6.48073e-21)
(22.7272 7.49033 -9.53859e-21)
(22.7043 7.61128 4.62713e-21)
(22.6788 7.73545 1.66153e-20)
(22.6503 7.86293 -8.48363e-21)
(22.6181 7.99396 0)
(22.5821 8.1288 3.70209e-21)
(22.5419 8.26766 -6.43527e-21)
(22.4968 8.41074 9.77619e-21)
(22.4465 8.55831 6.94497e-24)
(22.3905 8.71057 -5.8239e-21)
(22.3281 8.86769 7.34228e-21)
(22.2588 9.02991 2.14154e-22)
(22.1819 9.19726 -4.80929e-21)
(22.0961 9.36965 6.25121e-21)
(22.0005 9.54701 0)
(21.8933 9.72911 0)
(21.7728 9.91554 0)
(21.6372 10.1061 2.22891e-22)
(21.4848 10.3 0)
(21.3134 10.4962 1.15166e-20)
(21.1209 10.6934 -1.18641e-20)
(20.9051 10.8897 5.42821e-21)
(20.6639 11.0826 -2.95038e-20)
(20.3952 11.2686 2.02583e-20)
(20.0972 11.4433 -2.74988e-20)
(19.7686 11.6014 1.84668e-20)
(19.4088 11.7366 0)
(19.0189 11.8416 -3.00328e-20)
(18.6018 11.909 1.67146e-20)
(18.1639 11.9312 -4.79245e-22)
(17.7137 11.9014 -3.1831e-20)
(17.2632 11.8142 8.72059e-20)
(16.8268 11.6691 0)
(22.7546 6.41734 0)
(22.7453 6.50834 -6.55287e-21)
(22.7353 6.59896 7.49663e-21)
(22.7239 6.69146 0)
(22.7112 6.78604 -6.19957e-21)
(22.6975 6.88243 1.73745e-20)
(22.6816 6.98057 -1.23233e-20)
(22.6638 7.08115 0)
(22.6443 7.18416 -6.00883e-21)
(22.6227 7.28956 4.20565e-21)
(22.5988 7.39757 0)
(22.5726 7.50842 -9.22693e-21)
(22.5437 7.62222 1.59008e-20)
(22.5119 7.73904 -1.76483e-20)
(22.4766 7.85899 0)
(22.4373 7.98233 1.33851e-20)
(22.3938 8.10921 -2.33909e-22)
(22.3455 8.23976 -1.42375e-20)
(22.292 8.37429 5.21475e-21)
(22.2327 8.51282 5.32335e-21)
(22.1671 8.65549 -1.46764e-21)
(22.0945 8.80246 0)
(22.0145 8.95387 -1.59097e-21)
(21.9264 9.10954 0)
(21.8293 9.26925 3.43681e-21)
(21.7217 9.43264 1.24112e-20)
(21.602 9.5991 -1.27151e-20)
(21.4684 9.76818 0)
(21.3192 9.93924 2.33232e-20)
(21.1529 10.1113 -1.27921e-20)
(20.9678 10.2827 -6.72159e-21)
(20.762 10.4518 -5.49208e-21)
(20.5341 10.6165 4.95463e-20)
(20.2827 10.7736 -3.74225e-20)
(20.0071 10.9194 9.67395e-21)
(19.707 11.0494 0)
(19.3822 11.158 0)
(19.0335 11.2391 2.1658e-20)
(18.6635 11.2875 -4.98992e-21)
(18.2783 11.2982 -2.34954e-20)
(17.885 11.2663 -2.90386e-20)
(17.493 11.1888 0)
(17.1124 11.0653 3.95938e-20)
(22.6673 6.41028 8.70509e-21)
(22.6564 6.49395 -2.05419e-21)
(22.6444 6.57702 -1.41198e-20)
(22.6308 6.66184 -3.87734e-21)
(22.6155 6.74887 1.95163e-20)
(22.6002 6.83793 -1.47362e-20)
(22.5823 6.92793 2.07864e-20)
(22.5622 7.02044 -1.45585e-20)
(22.5405 7.11544 2.67748e-20)
(22.517 7.21261 -1.32314e-20)
(22.4911 7.31206 0)
(22.4626 7.41412 5.51648e-21)
(22.4316 7.51897 -6.90809e-21)
(22.3979 7.62683 1.22861e-20)
(22.3609 7.73747 -5.29043e-21)
(22.3198 7.85125 1.21801e-20)
(22.2748 7.96825 -1.22589e-20)
(22.2247 8.08847 7.13482e-21)
(22.1697 8.21233 7.41457e-21)
(22.1091 8.3399 -1.8236e-20)
(22.0425 8.47104 -7.68758e-21)
(21.9686 8.60567 0)
(21.8874 8.74426 1.49424e-20)
(21.7983 8.88657 -1.52265e-20)
(21.7011 9.03243 -8.22512e-21)
(21.5945 9.18129 -1.86736e-20)
(21.4771 9.3325 3.96287e-20)
(21.3469 9.48519 -4.98739e-20)
(21.2016 9.63889 3.66981e-20)
(21.041 9.79303 4.08905e-21)
(20.8631 9.94559 -1.41453e-20)
(20.6664 10.0947 0)
(20.4495 10.2388 -1.97905e-20)
(20.2119 10.3753 1.04555e-20)
(19.9528 10.501 1.39651e-20)
(19.6739 10.6123 0)
(19.3755 10.7039 9.21647e-21)
(19.0572 10.7698 -3.02429e-20)
(18.7187 10.8063 1.75482e-20)
(18.3682 10.811 5.41304e-21)
(18.0118 10.7793 8.78717e-20)
(17.6574 10.7096 -6.71901e-20)
(17.313 10.6011 1.82943e-19)
(22.5885 6.39944 -4.79177e-21)
(22.5769 6.47788 1.45872e-20)
(22.5639 6.55437 8.09221e-21)
(22.5493 6.63248 -8.93787e-21)
(22.5316 6.71216 -1.25134e-20)
(22.5157 6.79564 1.27788e-20)
(22.4968 6.87835 -1.04188e-22)
(22.4748 6.9635 -9.33281e-21)
(22.4514 7.05156 -1.48215e-20)
(22.4269 7.142 1.58364e-20)
(22.3999 7.23422 8.32439e-21)
(22.3703 7.32868 0)
(22.3377 7.42554 8.16962e-21)
(22.3031 7.52563 -8.18815e-21)
(22.2654 7.6286 -6.91215e-21)
(22.2229 7.73414 0)
(22.1772 7.84316 7.20778e-21)
(22.1263 7.95451 -1.57544e-20)
(22.0704 8.06953 8.77944e-21)
(22.0087 8.18801 9.06137e-21)
(21.9422 8.31037 2.53343e-20)
(21.8684 8.43498 -2.76333e-20)
(21.7871 8.56321 -1.92591e-20)
(21.6978 8.69461 1.96131e-20)
(21.6007 8.82936 4.78094e-21)
(21.4952 8.96656 0)
(21.3801 9.10595 -2.56358e-20)
(21.2542 9.2463 3.2412e-20)
(21.113 9.38624 1.46778e-20)
(20.9576 9.52704 -1.62328e-20)
(20.7867 9.66581 -8.44679e-21)
(20.5986 9.80019 1.07241e-20)
(20.3907 9.92889 1.07617e-20)
(20.1645 10.0505 0)
(19.9178 10.1617 -1.36851e-20)
(19.6547 10.2607 -1.58153e-20)
(19.3758 10.3406 -2.93856e-20)
(19.0851 10.3966 3.07077e-20)
(18.7691 10.4234 1.42739e-21)
(18.4434 10.4251 -1.28414e-20)
(18.1129 10.3952 4.50281e-20)
(17.7853 10.332 -1.01476e-19)
(17.4671 10.2341 -1.94847e-21)
(22.5144 6.38313 -5.6488e-21)
(22.5041 6.46134 -1.51366e-20)
(22.4915 6.5324 9.82864e-21)
(22.478 6.60502 1.00694e-20)
(22.4567 6.67493 4.82103e-21)
(22.4412 6.75525 -4.67491e-21)
(22.4231 6.83183 0)
(22.3998 6.9106 8.81738e-21)
(22.3748 6.9924 4.79108e-22)
(22.3499 7.07821 -1.81905e-20)
(22.3226 7.16501 1.028e-20)
(22.2934 7.25409 1.81824e-20)
(22.26 7.34414 -2.64468e-20)
(22.224 7.43674 -9.49164e-21)
(22.1874 7.5332 1.79948e-20)
(22.1433 7.63042 -1.86163e-20)
(22.0982 7.73478 8.55936e-21)
(22.0477 7.83804 3.74678e-20)
(21.9931 7.94599 -1.90589e-20)
(21.9291 8.0549 -2.85302e-20)
(21.8629 8.17205 2.07782e-20)
(21.7902 8.28906 -1.1173e-20)
(21.7106 8.40957 0)
(21.6225 8.53228 2.37184e-20)
(21.5266 8.65816 -2.4178e-20)
(21.4236 8.7853 1.27295e-20)
(21.3088 8.91373 -2.75874e-20)
(21.1883 9.04643 -1.59303e-20)
(21.051 9.17416 -9.64025e-21)
(20.8999 9.30467 2.78561e-20)
(20.7348 9.43314 -1.95519e-20)
(20.557 9.55654 -1.084e-20)
(20.3547 9.67177 0)
(20.1381 9.7831 0)
(19.899 9.88158 1.53615e-20)
(19.6457 9.97184 0)
(19.3697 10.0416 -1.89933e-20)
(19.1005 10.093 0)
(18.7993 10.1078 -2.42157e-20)
(18.4929 10.1081 -8.24944e-20)
(18.18 10.0809 -3.02364e-20)
(17.8692 10.0244 -1.84453e-21)
(17.5697 9.93243 -4.52078e-21)
(7.52312 18.4542 3.52282e-19)
(7.16679 16.1314 -8.20118e-19)
(7.38952 14.5315 5.68248e-19)
(7.79826 13.2726 -1.29998e-18)
(8.26683 12.2536 1.31832e-18)
(8.7482 11.4049 -4.55147e-20)
(9.21762 10.689 0)
(9.66485 10.0814 5.92137e-20)
(10.084 9.56216 -5.59413e-20)
(10.4734 9.11463 -1.469e-18)
(10.8331 8.7265 2.66097e-18)
(11.1637 8.38629 8.20163e-21)
(11.4673 8.08598 -1.24302e-18)
(11.7456 7.81905 4.15908e-20)
(12.0008 7.57983 7.03493e-20)
(12.235 7.36344 -1.40392e-19)
(12.4505 7.16629 -1.93036e-18)
(12.6494 6.98523 1.9822e-18)
(12.8334 6.81786 1.26426e-19)
(13.0043 6.66216 -1.90155e-18)
(13.1635 6.51625 1.84811e-18)
(13.3124 6.37877 -1.79058e-18)
(13.4522 6.24859 1.81018e-18)
(13.5839 6.12476 -1.71245e-18)
(13.7084 6.00637 1.63231e-18)
(13.8265 5.89271 1.60362e-18)
(13.9388 5.78324 -7.77247e-21)
(14.0459 5.67738 -1.57545e-18)
(14.1484 5.57479 -9.6546e-20)
(14.2466 5.47511 0)
(14.3409 5.37797 -1.54472e-18)
(14.4317 5.28313 3.09479e-18)
(14.5192 5.19039 -1.55253e-18)
(14.6037 5.09955 0)
(14.6854 5.01037 -7.77705e-19)
(14.7644 4.92269 1.37153e-18)
(14.8409 4.83641 -9.86705e-19)
(14.9149 4.75138 0)
(14.9867 4.66751 -5.93748e-19)
(15.0562 4.58476 9.94505e-19)
(15.1237 4.50303 7.90475e-19)
(15.1893 4.42252 -7.88109e-19)
(15.2543 4.33972 -3.82708e-19)
(14.1029 15.3115 -2.49146e-19)
(13.4018 14.3848 9.51095e-19)
(12.9278 13.4762 2.13905e-20)
(12.629 12.6418 -5.92808e-19)
(12.456 11.8913 -3.82937e-20)
(12.3745 11.2219 3.99082e-20)
(12.3588 10.6279 -3.7939e-20)
(12.3899 10.102 0)
(12.4535 9.63643 -3.79964e-20)
(12.5394 9.22368 -1.26166e-18)
(12.6398 8.85657 1.26644e-18)
(12.749 8.52876 0)
(12.8632 8.23436 6.8705e-20)
(12.9796 7.96855 1.11012e-18)
(13.0962 7.72716 -1.19473e-18)
(13.2116 7.50665 1.24707e-19)
(13.325 7.30408 -1.22837e-19)
(13.4355 7.1169 -9.39041e-19)
(13.5431 6.94299 9.11859e-19)
(13.6475 6.7805 -8.78793e-19)
(13.7487 6.62791 8.56626e-19)
(13.8465 6.48394 5.26548e-20)
(13.9413 6.34754 -9.15332e-19)
(14.033 6.21776 8.02279e-19)
(14.1216 6.09384 6.86033e-19)
(14.2074 5.97511 -3.58751e-21)
(14.2905 5.86103 -8.64408e-19)
(14.3709 5.75118 -7.60272e-19)
(14.4489 5.6451 7.61571e-19)
(14.5245 5.54249 7.53872e-19)
(14.5979 5.44299 -1.60291e-18)
(14.6692 5.34636 7.57287e-19)
(14.7386 5.25232 6.62893e-19)
(14.8062 5.16062 -7.63238e-19)
(14.8719 5.07105 8.59697e-19)
(14.9359 4.98341 -1.3486e-18)
(14.9983 4.89755 1.55358e-18)
(15.0589 4.81331 -7.8351e-19)
(15.118 4.7306 -2.48993e-21)
(15.1757 4.64933 -3.94273e-19)
(15.2318 4.5694 5.94639e-19)
(15.2866 4.49106 -5.92302e-19)
(15.3402 4.4117 5.73453e-19)
(15.0423 13.328 -1.77352e-19)
(14.5024 12.8796 1.58919e-19)
(14.0848 12.3802 0)
(13.7759 11.8641 0)
(13.5578 11.3542 -2.9495e-20)
(13.4143 10.8643 5.10058e-19)
(13.3303 10.4023 -5.31892e-19)
(13.2929 9.97204 1.06892e-18)
(13.2909 9.57451 -1.01229e-18)
(13.3158 9.20907 -6.56883e-20)
(13.3605 8.87387 0)
(13.4191 8.56672 -1.10156e-18)
(13.4873 8.285 8.67986e-19)
(13.562 8.02629 -9.73635e-19)
(13.6407 7.78809 -9.44641e-19)
(13.7215 7.56806 2.67691e-18)
(13.8031 7.36411 -8.85413e-19)
(13.8847 7.17443 8.633e-19)
(13.9654 6.99739 -8.39963e-19)
(14.045 6.83152 -5.06515e-20)
(14.1229 6.67554 -1.92716e-21)
(14.199 6.52838 0)
(14.2733 6.38911 4.93838e-20)
(14.3456 6.25685 0)
(14.416 6.13091 0)
(14.4844 6.01063 7.43651e-19)
(14.551 5.89548 -6.45344e-19)
(14.6157 5.785 0)
(14.6788 5.67875 9.2641e-20)
(14.7403 5.57637 7.29967e-19)
(14.8003 5.47748 -6.39918e-19)
(14.859 5.38177 0)
(14.9163 5.28889 7.37745e-19)
(14.9723 5.19862 -1.48301e-18)
(15.027 5.11069 1.39971e-18)
(15.0805 5.02491 -6.60505e-19)
(15.1327 4.94109 0)
(15.1837 4.85909 0)
(15.2335 4.7788 -1.94019e-19)
(15.2822 4.70007 -3.87419e-19)
(15.3299 4.62278 3.9187e-19)
(15.3765 4.54695 1.92826e-19)
(15.4226 4.47017 -1.88925e-19)
(15.9886 12.2613 0)
(15.5581 11.942 2.35647e-19)
(15.1903 11.58 -1.92504e-19)
(14.8873 11.1949 -4.50771e-19)
(14.6459 10.8022 4.78716e-19)
(14.4601 10.4133 5.88723e-20)
(14.3226 10.0364 2.2635e-21)
(14.2259 9.67634 0)
(14.1629 9.33617 5.79972e-19)
(14.1273 9.01707 -3.7953e-19)
(14.1136 8.71914 0)
(14.1169 8.44168 -9.88404e-19)
(14.1337 8.18365 1.9784e-18)
(14.1606 7.9437 -9.29423e-19)
(14.1952 7.72045 -9.08053e-19)
(14.2356 7.51246 8.26643e-19)
(14.2803 7.31829 0)
(14.328 7.13662 8.90092e-19)
(14.3778 6.96622 -8.67272e-19)
(14.4289 6.80597 8.50163e-19)
(14.4809 6.65483 -8.80408e-19)
(14.5332 6.51195 4.73827e-20)
(14.5855 6.37647 -7.55371e-19)
(14.6376 6.24772 1.4892e-18)
(14.6893 6.12503 -6.44882e-19)
(14.7404 6.00785 9.00545e-20)
(14.7908 5.8957 -7.2213e-19)
(14.8406 5.78815 7.19233e-19)
(14.8896 5.68485 7.15911e-19)
(14.9381 5.5854 -8.05024e-19)
(14.9859 5.48943 -7.16014e-19)
(15.033 5.39662 1.43762e-18)
(15.0794 5.30666 -6.32016e-19)
(15.1251 5.2193 0)
(15.1699 5.13432 0)
(15.2139 5.05154 -4.62027e-19)
(15.257 4.9708 3.73138e-19)
(15.2994 4.89197 0)
(15.3409 4.81491 2.84609e-19)
(15.3816 4.73949 -7.63818e-19)
(15.4217 4.66565 1.93529e-19)
(15.4612 4.59337 3.83751e-19)
(15.5003 4.52086 0)
(16.4175 11.4702 -1.66704e-19)
(16.0452 11.2246 3.07513e-19)
(15.7168 10.943 -1.85057e-19)
(15.4356 10.6381 0)
(15.2018 10.3209 0)
(15.0126 10.0006 -5.23639e-19)
(14.8638 9.68415 5.20025e-19)
(14.7506 9.37649 4.26121e-19)
(14.6676 9.08104 -5.38759e-19)
(14.6101 8.79972 -6.18273e-20)
(14.5736 8.53352 0)
(14.5541 8.28265 2.06729e-21)
(14.5482 8.04688 0)
(14.5531 7.82567 4.48144e-19)
(14.5668 7.61823 -3.78377e-19)
(14.5874 7.42361 -3.20036e-19)
(14.6134 7.24085 7.79717e-19)
(14.6436 7.06895 -4.57036e-19)
(14.6769 6.90697 1.26392e-21)
(14.7125 6.75404 -4.82092e-20)
(14.7498 6.60939 4.84319e-20)
(14.7883 6.47226 -7.99834e-19)
(14.8276 6.34203 1.48039e-18)
(14.8673 6.21806 -7.30129e-19)
(14.9072 6.09982 -9.12134e-20)
(14.947 5.98681 -9.03215e-20)
(14.9867 5.87867 0)
(15.0262 5.77505 7.06696e-19)
(15.0655 5.67561 -7.04879e-19)
(15.1048 5.57991 1.76097e-19)
(15.1438 5.4876 0)
(15.1825 5.39838 0)
(15.2207 5.31195 -3.55182e-19)
(15.2585 5.2281 8.04142e-19)
(15.2956 5.14661 -3.60651e-19)
(15.3321 5.06734 0)
(15.368 4.99017 3.66685e-19)
(15.4034 4.91493 -4.62782e-19)
(15.4381 4.84148 9.22549e-22)
(15.4723 4.76973 -3.76265e-19)
(15.5061 4.69961 2.84669e-19)
(15.5394 4.63111 1.89283e-19)
(15.5725 4.56265 -2.80607e-19)
(16.7524 10.8988 -7.71507e-20)
(16.4197 10.6944 0)
(16.1202 10.459 -4.74253e-20)
(15.8571 10.2021 0)
(15.6316 9.93219 -2.1828e-19)
(15.4434 9.65664 1.61725e-19)
(15.29 9.38126 5.62569e-20)
(15.1676 9.11044 5.86838e-20)
(15.0723 8.84755 5.7774e-20)
(15.0004 8.59473 9.40764e-19)
(14.9485 8.35312 -4.46879e-19)
(14.9126 8.12344 -3.91116e-19)
(14.89 7.906 -3.9126e-19)
(14.8785 7.70072 3.78443e-19)
(14.8764 7.50717 -5.26218e-20)
(14.8818 7.32461 -1.04153e-19)
(14.8934 7.15236 1.01948e-19)
(14.9097 6.98968 4.4955e-19)
(14.93 6.83582 -3.40996e-19)
(14.9531 6.69012 4.84443e-20)
(14.9786 6.55196 -3.77563e-19)
(15.0058 6.4208 -4.67662e-20)
(15.0343 6.29606 3.65242e-19)
(15.0639 6.17716 8.95263e-20)
(15.0941 6.06366 0)
(15.1246 5.9552 3.53735e-19)
(15.1554 5.85148 8.72906e-20)
(15.1865 5.75221 -7.854e-19)
(15.2181 5.65701 3.48245e-19)
(15.2501 5.56532 3.4674e-19)
(15.2819 5.47689 -6.96433e-19)
(15.3137 5.3915 3.49288e-19)
(15.3453 5.30882 8.72174e-20)
(15.3765 5.22866 -4.41621e-19)
(15.4073 5.15085 3.55767e-19)
(15.4377 5.0753 0)
(15.4676 5.00187 -4.51936e-19)
(15.4971 4.93037 1.83086e-19)
(15.5262 4.86065 4.61586e-19)
(15.5549 4.79265 0)
(15.5833 4.72635 9.39131e-20)
(15.6114 4.66175 -9.39663e-20)
(15.6395 4.59739 1.86193e-19)
(16.9854 10.4562 -3.68694e-20)
(16.6804 10.2784 0)
(16.4021 10.0728 2.85939e-19)
(16.1531 9.84761 -2.41505e-19)
(15.9363 9.61029 -5.15101e-20)
(15.7523 9.36631 8.64709e-22)
(15.5991 9.12073 -2.79404e-19)
(15.4735 8.87711 2.20663e-19)
(15.3725 8.6388 3.99581e-19)
(15.293 8.4078 -4.43857e-19)
(15.2323 8.18562 -5.50991e-20)
(15.1861 7.97292 5.43359e-20)
(15.1527 7.77071 -5.44783e-20)
(15.1308 7.57903 4.79278e-19)
(15.1185 7.39744 -7.78794e-19)
(15.114 7.22542 5.08184e-19)
(15.1158 7.06251 3.50786e-19)
(15.1228 6.90813 -4.40809e-19)
(15.134 6.76163 4.78038e-20)
(15.1484 6.62256 4.69778e-20)
(15.1655 6.49055 0)
(15.1846 6.36508 1.37223e-19)
(15.2055 6.24558 -8.97959e-20)
(15.2276 6.13153 -1.7862e-19)
(15.2505 6.02267 0)
(15.274 5.91871 0)
(15.298 5.81944 -8.74895e-20)
(15.323 5.72454 8.7009e-20)
(15.349 5.63345 -8.57347e-20)
(15.3755 5.54551 -1.72242e-19)
(15.4015 5.46093 -8.57186e-20)
(15.428 5.3793 3.45505e-19)
(15.4542 5.30029 -7.811e-19)
(15.4804 5.22377 3.49014e-19)
(15.5059 5.14961 -8.74807e-20)
(15.5313 5.07773 3.54374e-19)
(15.5562 5.008 8.96199e-20)
(15.5811 4.94022 -4.51785e-19)
(15.6057 4.87412 9.07429e-20)
(15.6298 4.80979 0)
(15.6536 4.74717 -1.84909e-19)
(15.6774 4.68643 2.7783e-19)
(15.7019 4.62565 -4.67176e-19)
(17.1627 10.1046 -1.22086e-19)
(16.8783 9.94536 8.29472e-20)
(16.6166 9.75939 -4.57492e-20)
(16.3775 9.5564 4.83135e-20)
(16.1673 9.34335 5.05074e-20)
(15.9893 9.12174 1.04341e-19)
(15.8377 8.89847 2.70082e-19)
(15.7108 8.6752 -2.13729e-19)
(15.6069 8.45609 -2.20672e-19)
(15.524 8.2414 2.14699e-19)
(15.458 8.03512 2.71371e-19)
(15.4044 7.83603 -4.26019e-19)
(15.3638 7.64668 2.60697e-19)
(15.335 7.46659 -5.14712e-20)
(15.3159 7.29476 0)
(15.3044 7.13164 -1.00056e-19)
(15.2992 6.97682 0)
(15.2995 6.8296 0)
(15.3041 6.6894 -4.7751e-20)
(15.3118 6.55617 3.26981e-19)
(15.3224 6.42969 -3.66731e-19)
(15.3353 6.30946 -9.11397e-20)
(15.3505 6.19453 -2.68055e-19)
(15.3665 6.08491 7.07644e-19)
(15.3834 5.98044 -3.49474e-19)
(15.4011 5.88082 0)
(15.42 5.78572 0)
(15.4404 5.6949 8.52344e-20)
(15.4623 5.60728 8.18788e-22)
(15.4841 5.52253 8.57109e-20)
(15.5048 5.44207 8.57329e-20)
(15.5278 5.36373 -3.4217e-19)
(15.5493 5.28846 3.43481e-19)
(15.5716 5.21518 3.45402e-19)
(15.5925 5.14474 -8.6634e-20)
(15.614 5.07611 -8.80269e-20)
(15.6349 5.01031 8.87837e-20)
(15.6563 4.94594 -1.78545e-19)
(15.6772 4.88338 -3.60251e-19)
(15.6976 4.82255 1.81747e-19)
(15.7178 4.76327 0)
(15.7379 4.70605 9.18186e-20)
(15.76 4.64786 -9.30595e-20)
(17.2793 9.81467 1.58017e-19)
(17.0116 9.67155 0)
(16.7682 9.49797 0)
(16.5342 9.31095 -9.51307e-20)
(16.3266 9.12045 0)
(16.1541 8.91348 -5.13244e-20)
(16.0039 8.70769 1.65876e-19)
(15.8797 8.50015 -2.16053e-19)
(15.7747 8.29903 3.28134e-19)
(15.6907 8.09547 -1.01525e-19)
(15.6221 7.90448 -2.14712e-19)
(15.5662 7.71571 5.64611e-20)
(15.523 7.53724 -2.60294e-19)
(15.4909 7.36703 -5.30977e-20)
(15.469 7.20272 1.00568e-19)
(15.4536 7.04759 1.48037e-19)
(15.4451 6.89991 1.97092e-19)
(15.4424 6.75836 -4.84143e-19)
(15.4433 6.62295 1.91062e-19)
(15.4463 6.49437 1.89012e-19)
(15.4526 6.37256 -1.84941e-19)
(15.461 6.25706 0)
(15.4723 6.14545 1.80887e-19)
(15.4827 6.04043 9.12494e-20)
(15.4954 5.9399 -3.5778e-19)
(15.5089 5.84407 1.7652e-19)
(15.5245 5.75219 0)
(15.5418 5.6652 -8.25663e-20)
(15.561 5.58049 8.24687e-20)
(15.5783 5.49847 -1.71781e-19)
(15.5946 5.42331 8.57264e-20)
(15.6169 5.34622 1.7096e-19)
(15.6325 5.276 -1.71101e-19)
(15.6532 5.20429 0)
(15.669 5.13849 1.7207e-19)
(15.6885 5.07174 -8.68279e-20)
(15.7051 5.01117 8.74407e-20)
(15.7246 4.94934 -1.72481e-19)
(15.7418 4.89052 9.06962e-20)
(15.7591 4.83257 -1.85785e-19)
(15.7765 4.77598 2.8331e-19)
(15.7941 4.72153 -1.9039e-19)
(15.8167 4.663 1.93008e-19)
(18.3473 -3.75611 -7.50556e-19)
(18.1655 -3.75915 3.99823e-19)
(17.9769 -3.76431 -2.04885e-19)
(17.7826 -3.76696 1.04716e-19)
(17.5825 -3.76773 5.12523e-20)
(17.3769 -3.76651 -5.7093e-21)
(17.1658 -3.7633 4.60207e-19)
(16.9495 -3.75816 2.07407e-19)
(16.7282 -3.7511 -3.87818e-21)
(16.5019 -3.74216 4.18357e-19)
(16.271 -3.73137 2.16413e-19)
(16.0354 -3.71876 -4.26063e-19)
(15.7954 -3.70436 0)
(15.5511 -3.68819 4.39172e-19)
(15.3025 -3.67025 -4.44731e-19)
(15.0499 -3.65058 0)
(14.7931 -3.62915 -2.25672e-19)
(14.5324 -3.60602 1.15442e-19)
(14.2676 -3.58114 1.09888e-18)
(13.999 -3.55455 -1.129e-18)
(13.7262 -3.52617 0)
(13.4494 -3.49602 0)
(13.1685 -3.46408 5.60512e-19)
(12.8831 -3.4303 -5.83604e-19)
(12.5932 -3.39464 3.41523e-21)
(12.2985 -3.35699 -5.61552e-19)
(11.9985 -3.31736 6.77349e-19)
(11.6928 -3.27556 0)
(11.3808 -3.23152 7.63965e-19)
(11.0616 -3.18505 -4.08739e-19)
(10.7344 -3.13596 -5.48866e-19)
(10.3978 -3.08389 0)
(10.0501 -3.02852 -1.29238e-19)
(9.68929 -2.96932 -7.59458e-20)
(9.31248 -2.90554 2.78777e-21)
(8.91574 -2.83595 1.78409e-19)
(8.49369 -2.75902 8.11176e-19)
(8.03848 -2.67203 -1.99564e-18)
(7.53855 -2.57056 1.25056e-18)
(6.97889 -2.44631 -2.72055e-18)
(6.36094 -2.28287 3.67947e-18)
(5.88189 -2.08064 -2.83146e-19)
(7.27664 -2.05652 5.29456e-18)
(18.2933 -3.72709 -2.62209e-21)
(18.1253 -3.72944 1.26947e-18)
(17.9516 -3.7343 2.17042e-19)
(17.7733 -3.73702 -3.21113e-19)
(17.5901 -3.73825 -1.08757e-19)
(17.4021 -3.73786 6.45473e-19)
(17.2093 -3.73583 0)
(17.0117 -3.73216 -2.14856e-19)
(16.8096 -3.72684 0)
(16.6028 -3.71989 -4.31429e-19)
(16.3915 -3.71128 2.15264e-19)
(16.1757 -3.70101 4.36396e-19)
(15.9554 -3.68909 9.55304e-22)
(15.7306 -3.67551 -6.67842e-19)
(15.5012 -3.66024 0)
(15.2673 -3.64325 -2.30349e-19)
(15.0288 -3.62451 0)
(14.7857 -3.60401 -1.20147e-19)
(14.5377 -3.58169 -4.92202e-19)
(14.2849 -3.55752 5.05427e-19)
(14.0269 -3.53144 1.30952e-19)
(13.7637 -3.50337 -5.40413e-19)
(13.495 -3.47327 5.60469e-19)
(13.2203 -3.44103 0)
(12.9396 -3.40656 -1.02524e-21)
(12.6522 -3.36974 -1.6284e-19)
(12.3576 -3.33044 -6.80368e-19)
(12.0553 -3.28848 1.26027e-18)
(11.7443 -3.24366 -9.60132e-19)
(11.4239 -3.19573 -1.03391e-19)
(11.0928 -3.14435 1.11508e-19)
(10.7495 -3.0891 0)
(10.3922 -3.02944 1.31523e-19)
(10.0186 -2.96464 2.89361e-19)
(9.6254 -2.89376 0)
(9.20872 -2.81541 1.26703e-21)
(8.76298 -2.72764 0)
(8.28117 -2.6274 2.36118e-19)
(7.75702 -2.5095 1.1052e-18)
(7.19875 -2.36656 -1.33086e-18)
(6.70063 -2.19794 2.92812e-18)
(6.78221 -2.10457 -4.74788e-18)
(9.55806 -2.44836 -3.47877e-18)
(18.2435 -3.70324 1.12381e-21)
(18.0879 -3.70358 1.12078e-21)
(17.9269 -3.70729 0)
(17.7619 -3.70941 3.77688e-21)
(17.5925 -3.71029 2.51135e-19)
(17.4185 -3.70974 -4.74501e-19)
(17.24 -3.70773 0)
(17.057 -3.70422 -2.23514e-19)
(16.8694 -3.69922 2.23639e-19)
(16.6773 -3.69269 -2.2229e-19)
(16.4806 -3.68463 2.23311e-19)
(16.2792 -3.67501 6.78306e-19)
(16.0731 -3.66383 -4.54495e-19)
(15.8623 -3.65108 4.58793e-19)
(15.6466 -3.63671 1.10566e-21)
(15.4261 -3.62071 -2.37796e-19)
(15.2005 -3.60303 -1.21922e-19)
(14.9698 -3.58361 1.2343e-19)
(14.7337 -3.56242 3.82545e-19)
(14.4921 -3.53937 -3.92498e-19)
(14.2448 -3.51439 -1.34492e-19)
(13.9914 -3.48738 0)
(13.7317 -3.45824 0)
(13.4653 -3.42684 6.07455e-19)
(13.1917 -3.39307 -7.92641e-19)
(12.9105 -3.35675 0)
(12.621 -3.3177 -5.29876e-19)
(12.3225 -3.27569 5.58458e-19)
(12.0141 -3.23041 1.97583e-19)
(11.6948 -3.18157 1.05695e-19)
(11.3633 -3.12873 1.29232e-21)
(11.0181 -3.07141 -1.95538e-21)
(10.6571 -3.00895 -1.34773e-19)
(10.2779 -2.94055 6.07287e-22)
(9.87727 -2.86515 -8.17476e-20)
(9.45104 -2.78126 -9.03132e-20)
(8.99417 -2.68679 0)
(8.50195 -2.57853 7.09827e-19)
(7.97696 -2.4516 -1.09885e-18)
(7.45835 -2.30146 0)
(7.13542 -2.1418 4.02349e-19)
(7.72439 -2.11699 -5.271e-21)
(10.9931 -2.63748 -4.02134e-19)
(18.1984 -3.67681 -4.31895e-19)
(18.0532 -3.67784 -2.29711e-19)
(17.9031 -3.68078 0)
(17.7492 -3.68207 -9.33983e-19)
(17.5913 -3.68225 -2.33445e-19)
(17.4291 -3.68118 2.30636e-19)
(17.2627 -3.67883 2.3195e-19)
(17.0918 -3.67516 2.29703e-19)
(16.9165 -3.67015 1.44611e-21)
(16.7367 -3.66376 1.1674e-21)
(16.5522 -3.65599 5.24499e-22)
(16.3631 -3.64679 2.35951e-19)
(16.1691 -3.63614 0)
(15.9701 -3.62403 7.16899e-19)
(15.7661 -3.61042 1.23026e-19)
(15.5569 -3.59526 1.25155e-19)
(15.3423 -3.5785 1.26523e-19)
(15.1221 -3.56008 -5.14988e-19)
(14.8961 -3.53995 0)
(14.664 -3.518 1.36636e-19)
(14.4255 -3.49413 0)
(14.1804 -3.46822 -4.37062e-19)
(13.9283 -3.44012 7.5653e-19)
(13.6686 -3.40969 0)
(13.4009 -3.37677 -3.3065e-19)
(13.1247 -3.34118 1.72414e-19)
(12.8391 -3.3027 1.81676e-19)
(12.5436 -3.26106 0)
(12.2371 -3.2159 0)
(11.9185 -3.16683 4.40205e-19)
(11.5865 -3.11339 -7.06737e-19)
(11.2394 -3.05502 2.54499e-19)
(10.875 -2.99101 0)
(10.4909 -2.92048 0)
(10.0836 -2.84228 2.51328e-19)
(9.64904 -2.75483 9.25959e-20)
(9.18295 -2.65592 0)
(8.68365 -2.54223 -4.75352e-19)
(8.16403 -2.40951 5.49754e-19)
(7.69384 -2.25733 0)
(7.53904 -2.11553 -3.94593e-19)
(8.5141 -2.14804 -4.0936e-21)
(11.9764 -2.75524 0)
(18.1577 -3.65487 -1.09805e-21)
(18.0225 -3.65472 -2.39214e-19)
(17.8827 -3.65648 6.08244e-19)
(17.7393 -3.65712 1.18585e-19)
(17.592 -3.65689 2.54855e-19)
(17.4408 -3.65557 1.50394e-20)
(17.2854 -3.65312 -5.07568e-19)
(17.1257 -3.64952 2.39253e-19)
(16.9616 -3.64472 0)
(16.793 -3.63867 1.10217e-21)
(16.6197 -3.63134 -2.38452e-19)
(16.4417 -3.62267 -2.4108e-19)
(16.2586 -3.61262 0)
(16.0703 -3.6012 0)
(15.8767 -3.58837 -1.24959e-19)
(15.6776 -3.57405 -1.27125e-19)
(15.4727 -3.55816 0)
(15.2618 -3.54065 0)
(15.0446 -3.52147 0)
(14.8207 -3.50053 -1.40189e-19)
(14.59 -3.47772 -1.45093e-19)
(14.3521 -3.45287 3.01195e-19)
(14.1065 -3.42578 9.54449e-22)
(13.8527 -3.39627 1.6323e-19)
(13.5901 -3.36415 1.70727e-19)
(13.318 -3.32927 5.35888e-19)
(13.0357 -3.29145 -5.6481e-19)
(12.7425 -3.25039 -1.99658e-19)
(12.4374 -3.20566 0)
(12.1193 -3.15677 4.51877e-19)
(11.7866 -3.1032 -2.42472e-19)
(11.4376 -3.04435 6.49657e-22)
(11.0701 -2.97947 0)
(10.6813 -2.9076 3.84817e-20)
(10.2679 -2.82746 -3.99545e-20)
(9.82587 -2.73732 -1.87315e-19)
(9.35176 -2.63485 -2.10169e-19)
(8.84732 -2.5166 4.75378e-19)
(8.33585 -2.37913 5.47195e-19)
(7.91435 -2.22607 0)
(7.90603 -2.10292 1.141e-18)
(9.16669 -2.18649 3.91455e-19)
(12.7111 -2.84199 -6.52127e-19)
(18.1224 -3.63181 -1.25745e-21)
(17.9957 -3.63262 0)
(17.8652 -3.63422 -6.27468e-19)
(17.7313 -3.63456 6.23616e-19)
(17.5937 -3.6341 -2.48881e-19)
(17.4523 -3.63265 2.16796e-19)
(17.3068 -3.63016 3.37877e-19)
(17.157 -3.62661 -3.06443e-19)
(17.0028 -3.62199 0)
(16.8439 -3.61625 -1.2328e-19)
(16.6804 -3.60931 -1.23195e-19)
(16.5119 -3.60109 0)
(16.3383 -3.59149 -2.51667e-19)
(16.1591 -3.58057 2.54045e-19)
(15.9744 -3.56836 1.29392e-19)
(15.784 -3.55474 0)
(15.5874 -3.53954 0)
(15.3844 -3.52271 0)
(15.1746 -3.50424 0)
(14.9577 -3.48411 0)
(14.7335 -3.46223 -4.48073e-19)
(14.5015 -3.43837 1.54659e-19)
(14.2615 -3.41233 -1.60137e-19)
(14.0126 -3.3838 -1.66778e-19)