/*--------------------------------*- C++ -*----------------------------------*\
| =========                 |                                                 |
| \\      /  F ield         | OpenFOAM: The Open Source CFD Toolbox           |
|  \\    /   O peration     | Version:  2.3.0                                 |
|   \\  /    A nd           | Web:      www.OpenFOAM.org                      |
|    \\/     M anipulation  |                                                 |
\*---------------------------------------------------------------------------*/
FoamFile
{
    version     2.0;
    format      ascii;
    class       volScalarField;
    location    "1000";
    object      nuTilda;
}
// * * * * * * * * * * * * * * * * * * * * * * * * * * * * * * * * * * * * * //

dimensions      [0 2 -1 0 0 0 0];

internalField   nonuniform List<scalar> 
37387
(
0.0664296
0.0646578
0.0628903
0.0611243
0.0593595
0.0575959
0.0558344
0.0540755
0.0523206
0.0505708
0.0488274
0.047092
0.0453662
0.0436516
0.0419501
0.0402636
0.0385938
0.0369427
0.0353129
0.0337071
0.0321285
0.0305807
0.0290691
0.0275996
0.026181
0.0248212
0.0235256
0.0223018
0.0211545
0.0200558
0.0189652
0.0178749
0.0167906
0.0157172
0.0146554
0.0136027
0.0125538
0.011501
0.0104363
0.00935117
0.00824319
0.00714647
0.00630664
0.0678088
0.0662566
0.0647045
0.0631539
0.0616052
0.0600582
0.0585133
0.0569707
0.0554311
0.0538949
0.0523633
0.0508369
0.0493167
0.0478037
0.0462993
0.0448042
0.04332
0.041848
0.0403895
0.0389459
0.0375184
0.0361089
0.0347192
0.0333505
0.0320055
0.0306863
0.0293961
0.0281375
0.0269134
0.0257265
0.0245776
0.023469
0.0224066
0.0213997
0.0204567
0.0195892
0.0188082
0.0181285
0.0175658
0.0171354
0.0168539
0.0167371
0.0168001
0.0690828
0.067711
0.0663392
0.0649685
0.0635993
0.0622313
0.0608649
0.0594996
0.058136
0.056774
0.0554143
0.0540577
0.0527042
0.0513548
0.0500101
0.048671
0.0473385
0.0460137
0.0446977
0.0433921
0.0420983
0.0408177
0.0395522
0.0383034
0.0370738
0.0358652
0.0346799
0.0335214
0.0323937
0.0312994
0.0302431
0.02923
0.0282667
0.0273613
0.0265223
0.0257596
0.0250831
0.0245054
0.024038
0.0236929
0.0234785
0.0234013
0.023465
0.0702524
0.0690333
0.0678136
0.0665948
0.0653768
0.0641595
0.0629421
0.0617245
0.0605068
0.0592888
0.0580711
0.056854
0.0556376
0.0544229
0.0532097
0.0519987
0.0507909
0.049587
0.0483879
0.0471949
0.0460096
0.0448337
0.0436693
0.0425181
0.0413818
0.040264
0.0391667
0.0380926
0.0370464
0.0360319
0.035053
0.034116
0.033227
0.0323928
0.0316222
0.0309241
0.0303074
0.0297828
0.0293597
0.0290472
0.0288526
0.0287802
0.0288323
0.0713224
0.0702328
0.0691428
0.0680531
0.0669636
0.0658733
0.0647813
0.0636875
0.0625919
0.0614939
0.060394
0.0592923
0.0581893
0.0570856
0.0559813
0.0548764
0.0537716
0.0526677
0.0515656
0.0504658
0.0493697
0.0482795
0.047197
0.0461243
0.0450638
0.0440182
0.0429904
0.0419837
0.0410019
0.0400491
0.03913
0.0382504
0.0374164
0.0366345
0.0359119
0.0352574
0.0346802
0.0341887
0.0337919
0.0334973
0.0333116
0.0332386
0.0332799
0.0722971
0.0713192
0.0703401
0.0693605
0.0683803
0.0673978
0.0664121
0.0654229
0.0644301
0.0634329
0.0624311
0.0614254
0.0604164
0.0594047
0.0583902
0.0573729
0.0563536
0.055333
0.0543116
0.0532901
0.0522688
0.0512496
0.0502347
0.0492262
0.0482268
0.04724
0.0462683
0.0453151
0.0443839
0.0434794
0.0426066
0.0417711
0.0409786
0.0402357
0.0395491
0.038926
0.0383759
0.0379064
0.0375259
0.0372421
0.0370602
0.0369847
0.0370168
0.0731845
0.0723024
0.0714178
0.0705321
0.0696452
0.0687554
0.06786
0.0669589
0.0660533
0.0651416
0.0642228
0.0632975
0.0623665
0.061431
0.0604913
0.059547
0.0585983
0.0576464
0.0566929
0.0557372
0.0547793
0.0538208
0.0528628
0.0519079
0.0509588
0.0500191
0.0490942
0.0481849
0.0472941
0.0464268
0.0455894
0.0447883
0.0440289
0.0433167
0.0426577
0.0420588
0.0415281
0.0410733
0.0407035
0.0404261
0.0402461
0.0401682
0.0401928
0.0739914
0.0731921
0.0723878
0.0715816
0.0707744
0.0699649
0.069148
0.0683194
0.0674881
0.0666507
0.0658024
0.0649452
0.0640799
0.0632064
0.0623293
0.061447
0.060557
0.0596605
0.0587635
0.0578641
0.0569608
0.0560529
0.0551476
0.0542351
0.0533317
0.0524265
0.0515407
0.050669
0.049814
0.0489766
0.0481645
0.0473897
0.046656
0.0459684
0.0453317
0.0447528
0.0442379
0.0437935
0.0434306
0.0431564
0.0429771
0.0428972
0.042917
0.0747307
0.0740025
0.0732641
0.0725231
0.0717792
0.0710367
0.0702947
0.0695224
0.0687531
0.0679828
0.0671942
0.0663937
0.065588
0.0647613
0.0639334
0.0631026
0.0622676
0.0614116
0.0605589
0.0597049
0.0588547
0.0579794
0.0571426
0.0562488
0.0554064
0.0545135
0.0536631
0.0528196
0.0519981
0.0511935
0.0503958
0.0496387
0.0489224
0.0482518
0.0476345
0.0470736
0.0465762
0.0461402
0.0457831
0.0455118
0.0453335
0.0452527
0.0452711
0.00712628
0.00900387
0.0101877
0.0113488
0.0125719
0.0138545
0.0151836
0.0165477
0.0179371
0.0193452
0.0207682
0.0222014
0.0236431
0.0250921
0.0265464
0.0280063
0.029471
0.03094
0.0324129
0.0338903
0.0353714
0.0368562
0.0383445
0.0398368
0.041332
0.0428309
0.0443327
0.0458377
0.0473453
0.0488552
0.0503674
0.0518815
0.0533971
0.0549141
0.0564319
0.0579502
0.0594684
0.060986
0.0625023
0.064017
0.065529
0.0670373
0.068544
0.017049
0.017483
0.0180837
0.0188346
0.019715
0.020702
0.0217749
0.0229155
0.0241085
0.0253431
0.0266078
0.027896
0.0292019
0.0305208
0.0318504
0.0331873
0.03453
0.0358762
0.037226
0.0385784
0.0399322
0.0412869
0.0426427
0.043999
0.0453559
0.046713
0.0480704
0.0494276
0.0507843
0.0521411
0.0534975
0.0548534
0.0562089
0.0575637
0.0589177
0.0602708
0.0616227
0.0629731
0.0643219
0.0656687
0.0670133
0.0683556
0.0697001
0.0236672
0.024009
0.0244892
0.025099
0.0258254
0.0266522
0.0275656
0.0285502
0.0295937
0.0306841
0.0318117
0.0329691
0.0341488
0.0353463
0.036557
0.0377778
0.0390047
0.0402373
0.041473
0.0427103
0.0439487
0.045187
0.0464245
0.0476614
0.048897
0.0501306
0.0513622
0.0525918
0.0538191
0.0550442
0.056267
0.0574876
0.0587059
0.0599221
0.0611361
0.0623479
0.0635574
0.0647645
0.0659692
0.0671713
0.0683706
0.0695674
0.0707654
0.0290064
0.0293024
0.0297192
0.030251
0.0308877
0.0316182
0.0324303
0.0333122
0.0342521
0.0352398
0.0362666
0.0373246
0.0384067
0.039508
0.0406239
0.0417496
0.0428826
0.0440205
0.045161
0.0463029
0.0474447
0.0485851
0.0497238
0.0508605
0.0519939
0.0531233
0.0542492
0.0553712
0.0564891
0.0576029
0.0587129
0.059819
0.0609212
0.0620197
0.0631147
0.0642061
0.065294
0.0663783
0.0674591
0.0685362
0.0696094
0.0706785
0.0717441
0.0334333
0.0336981
0.0340739
0.034555
0.0351333
0.0357984
0.0365409
0.0373498
0.038215
0.039127
0.0400777
0.0410594
0.0420655
0.0430908
0.0441303
0.0451799
0.046236
0.047296
0.0483584
0.0494213
0.0504828
0.0515426
0.0525994
0.0536521
0.0546996
0.0557421
0.0567794
0.057811
0.0588369
0.0598571
0.060872
0.0618815
0.0628857
0.0638845
0.0648783
0.0658672
0.0668513
0.0678307
0.0688051
0.0697746
0.0707389
0.0716981
0.072655
0.0371543
0.0373968
0.0377429
0.0381872
0.038723
0.0393419
0.0400337
0.0407884
0.0415973
0.0424518
0.0433441
0.0442664
0.045213
0.0461781
0.0471566
0.048144
0.0491373
0.0501338
0.0511317
0.0521295
0.0531257
0.0541188
0.0551073
0.0560896
0.0570657
0.0580352
0.058998
0.0599538
0.0609022
0.0618437
0.0627786
0.0637067
0.064628
0.0655422
0.0664497
0.0673512
0.068247
0.0691368
0.0700199
0.0708965
0.0717664
0.0726298
0.073488
0.0403186
0.0405441
0.0408672
0.0412828
0.0417866
0.0423709
0.0430241
0.0437367
0.0445019
0.0453111
0.0461568
0.0470326
0.0479323
0.0488491
0.0497778
0.0507141
0.051655
0.0525986
0.0535431
0.054488
0.0554299
0.0563679
0.0572995
0.0582228
0.059138
0.0600461
0.0609467
0.0618383
0.0627213
0.0635965
0.0644637
0.0653233
0.0661744
0.0670161
0.0678499
0.0686773
0.0694978
0.0703111
0.0711156
0.0719117
0.0727001
0.0734799
0.0742528
0.0430352
0.0432462
0.0435516
0.0439415
0.0444216
0.0449805
0.0456024
0.046279
0.0470105
0.0477825
0.0485911
0.0494299
0.0502932
0.0511692
0.0520569
0.0529499
0.0538463
0.0547455
0.0556466
0.0565486
0.0574446
0.0583385
0.0592212
0.0600919
0.0609553
0.0618137
0.0626619
0.0634985
0.0643256
0.0651452
0.065955
0.066758
0.0675482
0.0683266
0.0690976
0.0698628
0.0706192
0.0713674
0.0721034
0.0728296
0.073548
0.0742554
0.0749528
0.0453858
0.0455813
0.0458788
0.0462371
0.0467043
0.0472442
0.0478372
0.0484773
0.0491889
0.0499256
0.0507067
0.0515149
0.0523514
0.0531875
0.0540431
0.0548945
0.0557531
0.0566154
0.0574825
0.0583555
0.0592052
0.0600667
0.060899
0.0617235
0.0625467
0.0633685
0.0641684
0.0649566
0.0657373
0.0665142
0.0672722
0.0680307
0.0687632
0.0694877
0.0702089
0.0709253
0.0716241
0.072317
0.0729902
0.0736577
0.0743196
0.0749672
0.0755979
0.0390898
0.0377649
0.0364532
0.035156
0.0338738
0.0326072
0.0313563
0.0301211
0.0289013
0.0276967
0.026507
0.0253318
0.0241703
0.0230221
0.0218867
0.0207636
0.0196526
0.0185536
0.017467
0.0163933
0.0153336
0.0142904
0.0132661
0.0122641
0.0112888
0.0103444
0.00943575
0.00856702
0.00774214
0.00696283
0.00622965
0.00554169
0.00489877
0.00429886
0.00374102
0.00322468
0.00274891
0.00231418
0.00192214
0.0015875
0.0013523
0.00109713
0.00073923
0.0390413
0.0378208
0.0366115
0.0354142
0.0342293
0.033057
0.0318975
0.0307507
0.0296164
0.0284944
0.0273843
0.0262857
0.0251981
0.0241211
0.0230541
0.0219966
0.0209481
0.0199085
0.0188776
0.017855
0.0168416
0.015838
0.0148456
0.0138656
0.012901
0.0119545
0.0110292
0.0101302
0.00926089
0.00842626
0.00762981
0.00687703
0.0061701
0.0055106
0.00489861
0.00433511
0.00382466
0.00338066
0.00302974
0.00268904
0.00232058
0.00187497
0.00125907
0.0389908
0.0378669
0.0367527
0.0356482
0.0345536
0.0334688
0.0323939
0.0313285
0.0302729
0.0292265
0.0281892
0.0271606
0.0261404
0.025128
0.0241232
0.0231256
0.0221345
0.0211498
0.020171
0.0191982
0.0182308
0.0172697
0.0163151
0.0153673
0.0144275
0.0134969
0.0125777
0.0116714
0.0107806
0.00990808
0.00905915
0.00824149
0.00746723
0.00674477
0.0060773
0.00547055
0.00493949
0.0045066
0.00408778
0.00364212
0.00312925
0.00249032
0.00165246
0.0389373
0.0378997
0.0368703
0.0358488
0.0348347
0.033828
0.0328282
0.0318355
0.0308497
0.0298704
0.0288973
0.0279304
0.0269693
0.0260135
0.025063
0.0241172
0.0231758
0.0222385
0.0213052
0.0203751
0.0194483
0.018525
0.0176046
0.0166872
0.015773
0.0148624
0.0139556
0.0130525
0.0121534
0.0112597
0.0103735
0.00950369
0.0086708
0.00789325
0.00717812
0.0065402
0.00600386
0.00550809
0.00499958
0.00444255
0.00379255
0.00298232
0.00196186
0.0388835
0.0379221
0.0369682
0.0360205
0.0350781
0.0341407
0.033208
0.0322796
0.0313555
0.0304354
0.0295189
0.028606
0.0276962
0.0267897
0.0258857
0.0249844
0.0240853
0.0231882
0.0222927
0.0213986
0.0205055
0.019613
0.0187209
0.0178287
0.0169362
0.0160426
0.0151474
0.0142493
0.0133473
0.01244
0.011528
0.010619
0.0097411
0.00891948
0.00816473
0.0074963
0.00693067
0.00636916
0.00577708
0.00511828
0.00434499
0.00338542
0.00220934
0.0388282
0.0379369
0.0370512
0.0361696
0.0352912
0.0344157
0.0335425
0.0326712
0.0318019
0.030934
0.0300674
0.0292018
0.028337
0.0274726
0.0266088
0.0257454
0.0248821
0.0240186
0.0231549
0.0222903
0.0214244
0.0205572
0.019688
0.0188162
0.0179404
0.0170602
0.0161743
0.0152804
0.0143763
0.0134591
0.0125284
0.0115896
0.0106784
0.00982489
0.00904663
0.00836911
0.00774541
0.00711615
0.00644579
0.00569516
0.00481159
0.00372002
0.00240915
0.0387764
0.0379488
0.0371247
0.0363028
0.035482
0.0346617
0.0338414
0.0330209
0.0321999
0.0313785
0.0305561
0.0297326
0.0289071
0.0280793
0.0272497
0.0264185
0.0255853
0.0247502
0.0239126
0.0230724
0.022229
0.0213823
0.0205315
0.0196755
0.0188131
0.0179431
0.0170635
0.0161721
0.0152657
0.014341
0.0133951
0.012433
0.0114962
0.0106168
0.00981763
0.00912494
0.00845298
0.00776391
0.00702351
0.00619052
0.00520847
0.00399995
0.00257023
0.038731
0.0379629
0.037195
0.0364271
0.0356584
0.0348876
0.0341142
0.0333387
0.0325606
0.0317801
0.0309974
0.030212
0.0294224
0.0286266
0.0278252
0.0270209
0.0262134
0.0254012
0.0245851
0.0237652
0.0229402
0.0221095
0.0212735
0.0204305
0.019579
0.0187168
0.0178415
0.0169507
0.0160415
0.0151096
0.0141511
0.0131704
0.0122138
0.011313
0.0104937
0.00977859
0.00906761
0.00832778
0.0075251
0.00661799
0.00554714
0.00423454
0.00270379
0.0387046
0.0379861
0.0372679
0.0365485
0.035828
0.0351027
0.0343702
0.0336346
0.0328933
0.0321488
0.0314011
0.0306508
0.0298974
0.0291326
0.0283512
0.0275674
0.0267833
0.0259898
0.0251892
0.0243863
0.023577
0.0227576
0.0219329
0.021101
0.0202583
0.0194033
0.0185319
0.0176389
0.0167244
0.0157847
0.0148158
0.0138211
0.0128509
0.0119337
0.0110992
0.010356
0.00960869
0.00882516
0.00796668
0.00698989
0.00583518
0.00442038
0.00276506
0.000444623
0.0004924
0.000675465
0.000849952
0.00101633
0.00117734
0.00133676
0.00150048
0.00167663
0.00187583
0.00210661
0.00236874
0.00266034
0.00297864
0.00332232
0.00369017
0.00408219
0.00449843
0.00493886
0.00540445
0.00589559
0.00641265
0.00695593
0.00752609
0.00812341
0.00874882
0.00940307
0.0100865
0.0108002
0.0115447
0.0123209
0.0131297
0.0139723
0.0148493
0.0157615
0.0167099
0.0176957
0.0187197
0.019783
0.0208862
0.0220306
0.0232175
0.0244499
0.000678629
0.00065102
0.000832369
0.00101613
0.0011942
0.00137166
0.00155584
0.00175516
0.00197784
0.00223047
0.00251821
0.00283514
0.00317705
0.00354198
0.00392882
0.00433721
0.00476697
0.00521816
0.00569095
0.00618544
0.00670221
0.00724119
0.00780263
0.00838698
0.00899455
0.00962571
0.0102813
0.0109617
0.0116677
0.0123997
0.0131585
0.0139447
0.0147591
0.0156026
0.0164758
0.0173793
0.0183143
0.0192814
0.0202816
0.0213155
0.0223843
0.0234898
0.024635
0.000895852
0.000796744
0.00097895
0.00117507
0.0013713
0.00157516
0.00179571
0.00204025
0.00231348
0.00261806
0.00295697
0.00332168
0.00370791
0.00411433
0.00454041
0.00498564
0.00544971
0.00593276
0.00643444
0.00695507
0.00749445
0.00805277
0.00862992
0.0092263
0.00984205
0.0104778
0.0111335
0.01181
0.0125075
0.0132265
0.0139676
0.0147313
0.0155182
0.0163288
0.0171638
0.0180238
0.0189094
0.0198214
0.0207605
0.0217275
0.0227234
0.0237501
0.024811
0.00107604
0.000925548
0.00111323
0.00132608
0.00154688
0.00178461
0.00204693
0.002338
0.00265887
0.00301079
0.00339453
0.00380026
0.00422543
0.00466877
0.00512946
0.00560724
0.00610171
0.00661267
0.0071398
0.00768282
0.00824163
0.00881622
0.00940662
0.0100129
0.010635
0.0112734
0.0119284
0.0126
0.0132888
0.013995
0.014719
0.0154613
0.0162221
0.017002
0.0178012
0.0186205
0.0194604
0.0203212
0.0212039
0.0221087
0.0230367
0.0239875
0.0249582
0.00122147
0.00103956
0.00123774
0.0014716
0.00172193
0.00199689
0.00230133
0.00263594
0.00299972
0.00339462
0.0038173
0.0042596
0.00471924
0.00519515
0.00568668
0.00619334
0.00671477
0.00725035
0.00779944
0.00836186
0.00893741
0.00952575
0.010127
0.0107413
0.0113684
0.0120086
0.012662
0.0133286
0.0140087
0.0147026
0.0154102
0.0161322
0.0168689
0.0176202
0.0183866
0.0191684
0.0199663
0.0207803
0.021611
0.0224587
0.0233236
0.0242055
0.0251044
0.00133898
0.00114133
0.00135475
0.00161298
0.00189548
0.00220807
0.00255226
0.00292612
0.00332839
0.00376248
0.0042194
0.00469396
0.00518434
0.00568956
0.00620873
0.00674112
0.0072862
0.00784332
0.00841161
0.00899076
0.00958084
0.0101813
0.010792
0.0114128
0.0120438
0.012685
0.0133363
0.0139977
0.0146696
0.0153517
0.0160441
0.0167473
0.0174614
0.0181864
0.0189226
0.0196702
0.0204295
0.0212007
0.0219836
0.0227788
0.0235861
0.024405
0.0252341
0.00143441
0.00123477
0.00146756
0.00175223
0.00206719
0.00241553
0.00279568
0.00320461
0.00364217
0.00411013
0.00459768
0.0051012
0.0056194
0.0061507
0.00669463
0.00725015
0.00781628
0.00839241
0.0089778
0.00957196
0.0101747
0.0107857
0.0114045
0.0120309
0.0126648
0.0133063
0.0139553
0.0146116
0.0152753
0.0159465
0.0166249
0.0173106
0.0180039
0.0187046
0.0194132
0.0201294
0.0208533
0.021585
0.0223243
0.0230713
0.0238261
0.0245877
0.0253548
0.00151762
0.00131717
0.00156881
0.00187972
0.00222568
0.00260818
0.00302196
0.00346387
0.00393511
0.0044334
0.0049489
0.00547987
0.00602433
0.00658035
0.00714684
0.0077233
0.00830939
0.00890365
0.00950444
0.0101119
0.0107262
0.0113464
0.0119716
0.012602
0.0132375
0.0138782
0.0145243
0.0151752
0.015831
0.0164918
0.0171569
0.0178265
0.0185005
0.0191789
0.0198621
0.02055
0.0212416
0.0219366
0.0226357
0.0233386
0.0240452
0.0247551
0.0254679
0.00155708
0.00140915
0.00169754
0.00204228
0.0024297
0.00284073
0.00328474
0.00375234
0.00425252
0.00477275
0.00531973
0.00588129
0.00644685
0.00702106
0.00760014
0.00819744
0.00880743
0.00941604
0.0100224
0.0106392
0.0112632
0.0118875
0.0125117
0.01314
0.0137721
0.0144097
0.0150513
0.0156954
0.0163434
0.0169948
0.0176468
0.0182999
0.0189558
0.0196137
0.0202744
0.0209382
0.0215993
0.0222587
0.0229203
0.0235828
0.0242457
0.0249079
0.0255691
0.000338513
0.00126787
0.00264932
0.00402959
0.00537699
0.00669943
0.00799534
0.00926472
0.0105091
0.0117314
0.0129354
0.0141247
0.015301
0.0164666
0.0176269
0.0187938
0.0199771
0.0211728
0.0223764
0.0236798
0.025107
0.0266315
0.0282294
0.0298834
0.0315828
0.0333197
0.0350874
0.036881
0.0386959
0.0405291
0.0423778
0.0442396
0.046112
0.0479928
0.0498802
0.0517724
0.0536679
0.0555655
0.057464
0.0593626
0.0612609
0.0631602
0.0650639
0.000328772
0.000951814
0.00216455
0.0034305
0.00460477
0.00571206
0.00679091
0.00786559
0.00894363
0.0100286
0.0111221
0.0122248
0.0133365
0.0144574
0.0155878
0.0167296
0.0178854
0.019058
0.0202554
0.021507
0.022832
0.0242209
0.0256561
0.0272083
0.0288776
0.03063
0.0324424
0.0342996
0.0361902
0.038106
0.0400418
0.041993
0.0439553
0.0459261
0.0479028
0.0498828
0.0518645
0.0538465
0.0558275
0.0578063
0.0597827
0.0617567
0.0637279
0.00023704
0.000674895
0.00156098
0.00271777
0.00408572
0.00538324
0.00657661
0.00768305
0.00872705
0.00972885
0.0107052
0.0116707
0.0126374
0.0136149
0.0146106
0.0156301
0.0166781
0.0177598
0.0188823
0.0200561
0.0212908
0.0225908
0.0239568
0.0254037
0.0269264
0.0285163
0.0302436
0.0320761
0.0339803
0.0359344
0.0379232
0.0399366
0.0419667
0.0440084
0.0460572
0.0481099
0.0501638
0.052217
0.0542676
0.0563148
0.0583574
0.0603946
0.0624242
0.000261574
0.000627869
0.00142823
0.00246154
0.00372444
0.00507711
0.00637989
0.00760322
0.00874839
0.00982029
0.010827
0.0117792
0.0126903
0.0135759
0.0144519
0.0153338
0.0162362
0.0171725
0.018155
0.0191948
0.0203017
0.0214839
0.0227464
0.0240923
0.0255189
0.0270235
0.0286141
0.0302802
0.032085
0.0340008
0.0359914
0.0380315
0.040104
0.0421972
0.0443034
0.0464167
0.0485328
0.0506486
0.0527617
0.0548706
0.0569737
0.0590692
0.0611546
0.000256667
0.000595544
0.00135029
0.00231644
0.0034934
0.00483877
0.00620866
0.00752361
0.00876345
0.00992742
0.0110176
0.0120371
0.0129903
0.0138853
0.0147334
0.0155502
0.0163537
0.0171639
0.0180013
0.0188851
0.0198331
0.0208599
0.0219767
0.0231891
0.0244985
0.0259025
0.027396
0.028973
0.0306401
0.0323971
0.0343006
0.0363083
0.0383834
0.040501
0.042645
0.0448042
0.0469714
0.0491409
0.0513092
0.0534736
0.0556319
0.0577826
0.0599274
0.000263789
0.000583153
0.00131492
0.00224402
0.00337014
0.00467986
0.00607696
0.00745755
0.00877769
0.0100253
0.0111987
0.0122979
0.0133237
0.0142774
0.0151637
0.0159905
0.0167704
0.0175207
0.0182629
0.019021
0.0198199
0.0206838
0.0216329
0.0226823
0.023841
0.0251112
0.0264895
0.027969
0.029542
0.0312016
0.0329539
0.0348328
0.0368445
0.0389435
0.0410965
0.043282
0.0454857
0.0476981
0.0499129
0.0521257
0.0543331
0.056533
0.0587219
0.000266433
0.000573264
0.00128914
0.00219374
0.00328548
0.00456029
0.00596485
0.00739586
0.00878657
0.0101116
0.0113633
0.01254
0.0136411
0.0146659
0.0156147
0.0164903
0.0172983
0.0180493
0.018759
0.0194486
0.0201439
0.0208734
0.0216658
0.0225466
0.0235355
0.0246449
0.0258783
0.0272329
0.0286999
0.0302689
0.0319304
0.0336854
0.0355474
0.0375621
0.0396812
0.0418642
0.0440849
0.0463262
0.0485772
0.0508302
0.0530805
0.0553244
0.0575574
0.000270183
0.000568383
0.00127454
0.00216291
0.00323139
0.00447828
0.00587652
0.00734042
0.00879028
0.0101853
0.0115108
0.0127618
0.0139364
0.0150328
0.01605
0.0169876
0.0178472
0.0186337
0.0193562
0.0200296
0.0206746
0.021318
0.0219905
0.0227243
0.0235489
0.0244879
0.0255567
0.0267607
0.0280968
0.0295555
0.0311242
0.0327906
0.034548
0.0364105
0.0384329
0.0405715
0.0427814
0.0450332
0.0473071
0.0495909
0.0518771
0.0541601
0.0564371
0.000272736
0.000564683
0.00126377
0.0021404
0.00319199
0.00441691
0.00580263
0.00728672
0.00878519
0.0102442
0.0116393
0.0129614
0.014207
0.0153738
0.0164596
0.0174628
0.0183826
0.0192205
0.0199808
0.0206724
0.0213097
0.0219137
0.022512
0.023137
0.0238234
0.024604
0.0255054
0.0265448
0.0277291
0.0290546
0.0305109
0.032083
0.0337565
0.0355228
0.0373966
0.0394329
0.0415934
0.0438297
0.0461093
0.0484123
0.0507253
0.0530399
0.0553504
0.000274927
0.000562473
0.00125664
0.00212479
0.00316368
0.00437168
0.00574316
0.0072365
0.00877292
0.0102884
0.0117484
0.0131384
0.0144525
0.0156875
0.0168407
0.0179098
0.0188926
0.0197883
0.0205985
0.0213274
0.0219843
0.0225841
0.0231485
0.0237061
0.0242911
0.0249404
0.0256889
0.0265651
0.0275875
0.0287627
0.0300865
0.031547
0.0331278
0.0348125
0.0365932
0.0384852
0.0405443
0.0427301
0.0449927
0.0472991
0.0496286
0.0519683
0.0543121
0.000276432
0.000560816
0.00125124
0.00211275
0.00314185
0.00433643
0.00569388
0.00718876
0.00875347
0.0103178
0.0118379
0.0132925
0.0146725
0.0159735
0.0171924
0.0183263
0.0193723
0.0203284
0.0211938
0.0219701
0.0226626
0.023281
0.0238414
0.0243667
0.0248873
0.0254393
0.026061
0.0267889
0.0276525
0.02867
0.0298474
0.0311789
0.032651
0.0342458
0.0359468
0.0377459
0.0396634
0.0417538
0.0439689
0.0462589
0.0485914
0.0509474
0.0533199
0.000277423
0.0005596
0.00124714
0.00210338
0.00312461
0.00430815
0.00565305
0.00714427
0.00872822
0.0103338
0.0119085
0.013424
0.0148672
0.0162319
0.0175146
0.0187118
0.0198202
0.0208369
0.0217598
0.0225887
0.0233257
0.0239768
0.0245534
0.0250729
0.0255601
0.0260476
0.0265732
0.0271769
0.0278958
0.0287592
0.029784
0.0309743
0.0323227
0.0338135
0.0354279
0.0371492
0.0389715
0.040924
0.0430528
0.0453002
0.0476183
0.0499769
0.052358
0.000277923
0.000558621
0.00124378
0.00209563
0.00311029
0.00428457
0.00561818
0.00710276
0.00869837
0.0103374
0.011961
0.0135335
0.015037
0.0164634
0.0178077
0.0190664
0.0202358
0.0213125
0.0222936
0.0231773
0.0239637
0.0246561
0.0252618
0.0257937
0.0262715
0.0267227
0.0271817
0.0276886
0.0282843
0.0290059
0.0298812
0.030925
0.0321387
0.0335122
0.0350282
0.0366671
0.0384125
0.0402631
0.0422628
0.0444345
0.0467163
0.049063
0.0514473
0.000277918
0.000557755
0.00124073
0.00208885
0.00309778
0.00426402
0.00558758
0.00706398
0.00866491
0.0103302
0.0119967
0.0136219
0.0151829
0.0166682
0.0180722
0.0193906
0.0206195
0.0217551
0.022794
0.0237331
0.0245715
0.02531
0.0259532
0.02651
0.0269956
0.0274325
0.0278507
0.0282873
0.0287841
0.0293826
0.0301188
0.0310181
0.0320919
0.0333382
0.0347441
0.0362907
0.0379577
0.0397306
0.0416155
0.0436748
0.0458936
0.0482112
0.0505885
0.000277414
0.000556953
0.00123796
0.0020826
0.00308634
0.00424552
0.00555987
0.00702739
0.00862903
0.0103135
0.0120168
0.0136904
0.0153054
0.0168476
0.0183091
0.0196852
0.0209718
0.022165
0.0232606
0.0242553
0.0251466
0.0259341
0.0266198
0.0272098
0.0277155
0.0281546
0.0285526
0.0289427
0.0293646
0.0298613
0.0304742
0.0312371
0.0321716
0.0332853
0.0345721
0.0360162
0.0375972
0.0392952
0.0410988
0.0430316
0.0451586
0.0474269
0.0497822
0.000276547
0.000556161
0.00123517
0.0020766
0.00307555
0.00422815
0.00553406
0.00699255
0.00859134
0.0102888
0.0120231
0.0137401
0.0154061
0.0170022
0.0185192
0.0199511
0.0212938
0.0225428
0.0236941
0.0247434
0.025688
0.0265257
0.027257
0.0278857
0.0284199
0.0288735
0.0292674
0.0296305
0.0299994
0.0304159
0.030924
0.0315634
0.0323648
0.0333452
0.0345072
0.0358406
0.0373271
0.0389452
0.0406766
0.0425185
0.0445233
0.046719
0.0490438
0.000275304
0.000555262
0.00123225
0.00207042
0.00306488
0.00421134
0.00550925
0.0069588
0.00855233
0.0102576
0.0120167
0.0137726
0.0154857
0.0171332
0.0187034
0.0201893
0.0215861
0.0228895
0.0240949
0.0251981
0.0261953
0.0270837
0.0278625
0.0285334
0.0291019
0.0295787
0.0299809
0.0303329
0.0306674
0.0310238
0.0314461
0.0319777
0.0326561
0.0335072
0.0345427
0.0357597
0.0371441
0.0386756
0.0403329
0.0421018
0.0439951
0.0460929
0.0483642
0.000273729
0.000554215
0.00122909
0.00206423
0.00305426
0.00419475
0.00548506
0.00692583
0.0085125
0.010221
0.0119994
0.0137891
0.0155456
0.0172418
0.018863
0.0204008
0.02185
0.023206
0.0244642
0.0256199
0.026669
0.0276081
0.0284351
0.0291503
0.0297571
0.0302635
0.030683
0.0310364
0.031352
0.0316661
0.032021
0.0324615
0.0330298
0.0337592
0.0346702
0.0357682
0.0370451
0.0384834
0.0400617
0.0417608
0.0435752
0.0455554
0.0477572
0.000271873
0.00055312
0.00122587
0.00205776
0.00304331
0.00417812
0.00546115
0.00689326
0.00847205
0.01018
0.0119726
0.0137912
0.0155871
0.0173291
0.0189989
0.0205867
0.0220865
0.0234935
0.0248028
0.0260097
0.0271097
0.0280989
0.0289743
0.029735
0.0303828
0.0309232
0.031367
0.0317313
0.0320406
0.0323276
0.0326319
0.0329979
0.0334704
0.0340884
0.0348802
0.0358595
0.0370255
0.0383654
0.0398592
0.0414862
0.0432321
0.0451101
0.0471977
0.000269724
0.000551841
0.00122231
0.00205087
0.00303217
0.00416122
0.00543717
0.00686065
0.00843091
0.0101357
0.0119376
0.0137803
0.0156117
0.0173962
0.0191121
0.0207481
0.0222968
0.023753
0.0251118
0.0263686
0.0275184
0.0285568
0.0294803
0.0302871
0.0309774
0.0315551
0.0320282
0.0324108
0.0327238
0.0329963
0.0332648
0.0335721
0.0339635
0.034482
0.0351623
0.0360261
0.0370803
0.0383179
0.0397226
0.0412733
0.0429519
0.0447543
0.0467255
0.000267323
0.000550446
0.00121851
0.00204377
0.00302055
0.0041439
0.00541282
0.00682787
0.00838931
0.0100886
0.0118957
0.0137578
0.0156206
0.0174442
0.0192041
0.020886
0.0224818
0.0239856
0.0253926
0.0266976
0.0278959
0.0289825
0.0299537
0.0308066
0.0315404
0.0321573
0.0326634
0.03307
0.0333949
0.0336633
0.0339086
0.0341711
0.0344958
0.0349275
0.0355059
0.0362598
0.0372036
0.0383371
0.0396484
0.0411184
0.042727
0.0444602
0.0463272
0.000264683
0.000548966
0.00121445
0.00203618
0.00300836
0.00412617
0.00538798
0.00679473
0.00834697
0.0100393
0.011848
0.0137249
0.0156151
0.0174748
0.0192759
0.0210017
0.0226427
0.0241925
0.0256459
0.0269979
0.0282432
0.0293772
0.0303952
0.0312939
0.0320717
0.0327292
0.0332709
0.0337057
0.0340485
0.0343215
0.0345543
0.0347847
0.0350559
0.0354136
0.0359007
0.036552
0.0373889
0.0384184
0.0396339
0.0410191
0.0425533
0.0442169
0.0459999
0.000261795
0.000547239
0.00121007
0.00202814
0.00299579
0.00410777
0.00536259
0.00676099
0.00830394
0.00998821
0.0117954
0.013683
0.0155964
0.0174889
0.0193285
0.0210961
0.0227805
0.0243747
0.025873
0.0272704
0.0285617
0.0297417
0.0308056
0.0317497
0.0325714
0.0332704
0.0338495
0.0343157
0.0346814
0.0349657
0.0351951
0.0354042
0.0356341
0.03593
0.0363371
0.0368942
0.0376295
0.0385566
0.0396748
0.0409722
0.0424289
0.0440235
0.0457412
0.000258727
0.000545447
0.00120542
0.00201984
0.00298264
0.00408876
0.00533657
0.00672669
0.00826012
0.00993548
0.0117387
0.0136333
0.015566
0.0174877
0.0193632
0.0211704
0.0228964
0.0245333
0.0260751
0.0275165
0.0288522
0.030077
0.0311859
0.0321746
0.03304
0.0337808
0.0343986
0.0348986
0.0352911
0.0355922
0.0358256
0.0360227
0.0362221
0.0364679
0.0368058
0.0372781
0.0379182
0.0387463
0.0397678
0.0409752
0.0423515
0.0438753
0.0455285
0.000255454
0.000543486
0.00120052
0.00201099
0.00296893
0.00406907
0.00530982
0.00669142
0.00821553
0.00988135
0.0116787
0.0135766
0.0155249
0.0174726
0.019381
0.0212257
0.0229915
0.0246694
0.0262531
0.027737
0.0291159
0.0303843
0.0315371
0.0325697
0.0334783
0.034261
0.0349182
0.0354537
0.0358757
0.0361981
0.0364416
0.0366347
0.0368132
0.0370194
0.0372989
0.0376959
0.0382482
0.0389817
0.039908
0.0410249
0.0423189
0.0437692
0.0453543
0.00025198
0.000541391
0.00119532
0.00200176
0.00295467
0.00404877
0.00528224
0.00665559
0.00817006
0.00982598
0.0116159
0.0135143
0.0154744
0.0174445
0.0193833
0.0212631
0.0230667
0.0247841
0.0264082
0.0279332
0.0293538
0.0306647
0.0318603
0.0329358
0.0338871
0.0347115
0.0354086
0.0359807
0.0364344
0.0367815
0.0370402
0.037236
0.0374018
0.037578
0.0378091
0.0381404
0.0386128
0.0392572
0.0400914
0.0411184
0.0423288
0.0437038
0.045222
0.000248376
0.00053919
0.00118988
0.00199216
0.00293993
0.00402783
0.00525406
0.00661884
0.00812374
0.00976936
0.0115509
0.0134471
0.0154155
0.0174048
0.019371
0.0212835
0.0231232
0.0248783
0.0265413
0.0281061
0.0295672
0.0309191
0.0321564
0.0332739
0.0342671
0.035133
0.0358699
0.0364794
0.0369666
0.0373412
0.0376191
0.0378231
0.0379836
0.0381382
0.0383302
0.0386051
0.0390057
0.0395675
0.0403133
0.0412521
0.0423791
0.0436801
0.04514
0.000244608
0.000536872
0.00118413
0.00198217
0.00292464
0.00400626
0.0052251
0.00658132
0.00807655
0.0097117
0.0114837
0.0133755
0.0153493
0.0173545
0.0193452
0.0212882
0.0231619
0.0249531
0.0266535
0.0282567
0.0297569
0.0311487
0.0324265
0.033585
0.0346194
0.0355261
0.0363029
0.0369503
0.0374721
0.0378764
0.0381768
0.0383937
0.0385549
0.0386955
0.0388569
0.0390841
0.0394213
0.0399072
0.0405695
0.0414226
0.0424669
0.0436922
0.0450832
0.000240691
0.000534383
0.00117821
0.00197179
0.00290892
0.0039841
0.00519544
0.00654311
0.00802852
0.00965309
0.0114148
0.0133005
0.0152767
0.0172946
0.0193072
0.0212781
0.0231837
0.0250096
0.0267459
0.028386
0.0299241
0.0313545
0.0326717
0.0338702
0.0349449
0.0358918
0.0367083
0.0373938
0.037951
0.0383865
0.0387122
0.038946
0.0391131
0.0392462
0.0393847
0.0395724
0.0398542
0.0402712
0.0408553
0.041626
0.0425887
0.0437371
0.0450562
0.000236671
0.000531878
0.001172
0.00196107
0.00289267
0.00396138
0.00516512
0.00650414
0.00797968
0.00959347
0.0113445
0.0132225
0.0151984
0.0172262
0.0192576
0.0212542
0.02319
0.0250485
0.0268193
0.0284951
0.0300698
0.0315376
0.032893
0.0341304
0.0352446
0.036231
0.0370867
0.0378103
0.0384035
0.0388715
0.0392245
0.0394784
0.0396559
0.0397873
0.0399097
0.0400656
0.0402998
0.0406549
0.0411666
0.0418587
0.0427415
0.043812
0.0450545
0.000232535
0.000529245
0.00116564
0.00195005
0.00287601
0.00393807
0.00513419
0.00646438
0.00793009
0.00953294
0.0112729
0.013142
0.0151155
0.0171501
0.0191976
0.0212176
0.0231815
0.0250711
0.0268749
0.0285849
0.0301949
0.0316989
0.0330914
0.0343667
0.0355193
0.0365446
0.037439
0.0382006
0.0388301
0.0393315
0.0397135
0.0399901
0.0401817
0.0403163
0.0404287
0.0405598
0.0407537
0.041054
0.0414991
0.0421169
0.0429223