/*--------------------------------*- C++ -*----------------------------------*\
| =========                 |                                                 |
| \\      /  F ield         | OpenFOAM: The Open Source CFD Toolbox           |
|  \\    /   O peration     | Version:  2.3.0                                 |
|   \\  /    A nd           | Web:      www.OpenFOAM.org                      |
|    \\/     M anipulation  |                                                 |
\*---------------------------------------------------------------------------*/
FoamFile
{
    version     2.0;
    format      ascii;
    class       volScalarField;
    location    "10000";
    object      nuTilda;
}
// * * * * * * * * * * * * * * * * * * * * * * * * * * * * * * * * * * * * * //

dimensions      [0 2 -1 0 0 0 0];

internalField   nonuniform List<scalar> 
41067
(
0.0622025
0.0604722
0.0587469
0.0570274
0.0553144
0.0536098
0.0519144
0.0502292
0.0485553
0.0468935
0.0452447
0.0436104
0.0419911
0.0403876
0.0388015
0.037234
0.035686
0.0341591
0.0326544
0.0311744
0.0297206
0.0282949
0.026902
0.0255458
0.0242317
0.0229658
0.021751
0.0205931
0.0195015
0.0184834
0.0175229
0.0165795
0.0156369
0.0146944
0.0137549
0.0128188
0.0118832
0.010941
0.00998241
0.00899348
0.00795771
0.00688677
0.00600522
0.0637154
0.062194
0.0606763
0.0591636
0.0576563
0.0561561
0.0546629
0.0531782
0.051702
0.0502352
0.0487786
0.0473329
0.0458976
0.0444738
0.0430622
0.041664
0.0402795
0.0389102
0.0375566
0.036219
0.0348994
0.033598
0.0323163
0.031056
0.0298189
0.0286066
0.0274209
0.0262649
0.0251408
0.0240529
0.0230036
0.0219953
0.0210311
0.0201165
0.0192595
0.018471
0.0177621
0.0171468
0.0166388
0.0162539
0.0160072
0.0159136
0.0159872
0.0651029
0.0637552
0.0624127
0.0610738
0.059739
0.0584087
0.0570838
0.0557642
0.0544511
0.0531451
0.0518463
0.0505545
0.0492703
0.0479938
0.0467257
0.0454667
0.0442172
0.0429782
0.0417507
0.0405358
0.0393338
0.0381465
0.0369751
0.0358203
0.0346844
0.0335692
0.0324769
0.0314107
0.0303733
0.0293682
0.0283997
0.027473
0.0265942
0.0257689
0.0250055
0.0243136
0.0237026
0.0231844
0.022769
0.022468
0.0222909
0.0222431
0.0223279
0.0663624
0.0651689
0.0639766
0.0627861
0.0615973
0.0604109
0.0592271
0.0580463
0.0568693
0.0556963
0.0545283
0.053365
0.0522061
0.0510516
0.0499025
0.0487583
0.0476202
0.0464889
0.0453653
0.0442503
0.0431457
0.0420517
0.0409705
0.0399032
0.0388515
0.0378177
0.0368038
0.035813
0.0348486
0.0339142
0.0330153
0.0321559
0.0313433
0.0305834
0.0298835
0.029253
0.0286992
0.0282323
0.027861
0.0275944
0.02744
0.0274018
0.0274816
0.0675115
0.0664492
0.0653855
0.0643216
0.0632574
0.0621933
0.0611288
0.0600648
0.0590017
0.0579403
0.0568811
0.0558245
0.0547702
0.0537179
0.0526674
0.0516191
0.0505732
0.0495309
0.0484933
0.047461
0.0464354
0.0454182
0.0444105
0.0434141
0.0424313
0.0414637
0.0405136
0.0395834
0.038677
0.0377986
0.0369526
0.0361449
0.0353814
0.0346681
0.034013
0.033424
0.0329083
0.0324739
0.0321293
0.0318819
0.0317381
0.0317018
0.0317753
0.0685625
0.0676085
0.0666545
0.0656988
0.0647411
0.0637809
0.0628184
0.0618537
0.0608867
0.059918
0.0589493
0.0579818
0.057015
0.0560482
0.055081
0.054113
0.0531447
0.0521766
0.0512098
0.0502459
0.049286
0.0483315
0.0473837
0.0464449
0.0455179
0.0446046
0.0437068
0.0428266
0.0419673
0.0411327
0.0403284
0.03956
0.0388332
0.0381545
0.0375318
0.0369722
0.0364832
0.0360716
0.035745
0.0355095
0.0353707
0.0353335
0.0354
0.0695088
0.0686554
0.0677966
0.0669338
0.0660675
0.0651966
0.0643215
0.0634416
0.0625565
0.0616657
0.0607723
0.0598785
0.0589844
0.0580897
0.0571926
0.0562932
0.0553906
0.0544851
0.0535781
0.0526703
0.051765
0.0508636
0.0499653
0.0490726
0.0481906
0.0473213
0.0464665
0.0456281
0.0448089
0.0440113
0.0432396
0.0425009
0.0418025
0.0411503
0.0405512
0.0400123
0.0395427
0.0391491
0.0388361
0.0386083
0.0384719
0.0384326
0.038493
0.0703718
0.0696028
0.0688245
0.0680415
0.067254
0.0664599
0.0656588
0.0648526
0.064039
0.0632154
0.0623834
0.0615498
0.0607154
0.0598813
0.0590436
0.0582016
0.0573589
0.0565044
0.0556507
0.0547884
0.053928
0.0530708
0.0522182
0.0513615
0.0505154
0.0496807
0.0488608
0.0480575
0.0472724
0.0465092
0.0457668
0.045047
0.044372
0.0437413
0.0431599
0.0426339
0.0421777
0.0417992
0.0415003
0.0412786
0.0411418
0.0410993
0.0411541
0.0711654
0.0704668
0.0697524
0.0690349
0.0683132
0.0675865
0.0668467
0.0661025
0.0653517
0.0645916
0.0638083
0.0630236
0.0622343
0.0614466
0.060663
0.059861
0.0590901
0.0582637
0.0574664
0.0566397
0.0558213
0.0549855
0.0541845
0.0533578
0.0525441
0.0517351
0.0509404
0.0501671
0.049409
0.0486754
0.0479796
0.0472586
0.0466017
0.0459895
0.0454291
0.0449095
0.044459
0.0440917
0.0438138
0.0435983
0.0434566
0.0434102
0.0434584
0.00676169
0.00856021
0.00968781
0.0107893
0.0119522
0.0131781
0.0144558
0.0157733
0.0171194
0.0184879
0.019873
0.0212717
0.0226813
0.0241003
0.025528
0.0269629
0.0284049
0.0298533
0.0313082
0.0327692
0.0342361
0.0357089
0.0371869
0.0386709
0.0401602
0.0416551
0.0431552
0.0446605
0.0461707
0.0476857
0.0492051
0.0507289
0.0522566
0.0537874
0.0553211
0.0568572
0.0583949
0.0599336
0.0614727
0.0630114
0.064549
0.0660848
0.0676148
0.0162339
0.0166547
0.0172369
0.0179645
0.0188184
0.0197774
0.0208222
0.0219349
0.0231012
0.0243092
0.0255494
0.0268148
0.0280993
0.0293996
0.0307111
0.0320321
0.0333605
0.0346948
0.0360342
0.0373771
0.0387237
0.0400727
0.0414244
0.0427784
0.0441345
0.0454927
0.0468528
0.0482149
0.0495789
0.0509448
0.0523121
0.053681
0.0550513
0.0564225
0.0577943
0.0591666
0.0605387
0.0619106
0.0632819
0.0646522
0.066021
0.0673875
0.0687462
0.0225436
0.022892
0.0233739
0.0239803
0.0246993
0.0255171
0.0264193
0.027392
0.0284225
0.0295003
0.0306161
0.0317616
0.0329314
0.0341195
0.0353215
0.0365345
0.0377555
0.0389829
0.0402145
0.0414491
0.0426854
0.0439231
0.0451615
0.0464001
0.047639
0.0488775
0.0501158
0.051354
0.0525919
0.0538292
0.055066
0.0563023
0.0575377
0.058772
0.0600049
0.0612365
0.0624666
0.0636951
0.0649218
0.0661468
0.0673698
0.0685907
0.0698061
0.0276779
0.0279906
0.02842
0.0289601
0.0296018
0.0303348
0.0311473
0.0320274
0.0329647
0.0339493
0.0349728
0.0360275
0.0371072
0.038206
0.0393196
0.0404444
0.0415771
0.042715
0.0438561
0.044999
0.0461429
0.0472866
0.0484292
0.0495702
0.0507098
0.0518475
0.0529829
0.0541162
0.0552474
0.0563764
0.0575029
0.0586266
0.0597473
0.060865
0.0619794
0.0630908
0.0641992
0.0653045
0.0664068
0.0675063
0.068603
0.069697
0.0707859
0.031957
0.032246
0.0326423
0.0331401
0.0337315
0.0344075
0.0351582
0.0359734
0.0368431
0.0377589
0.038713
0.0396979
0.0407072
0.0417355
0.0427779
0.0438311
0.0448911
0.0459549
0.0470211
0.048088
0.0491548
0.0502196
0.0512817
0.0523412
0.0533974
0.0544501
0.0554992
0.0565448
0.0575867
0.0586247
0.0596582
0.0606867
0.0617102
0.0627287
0.0637422
0.0647508
0.0657548
0.0667543
0.0677493
0.0687402
0.0697275
0.0707109
0.0716889
0.0355699
0.0358421
0.0362148
0.0366825
0.0372386
0.0378736
0.0385792
0.0393459
0.0401648
0.0410283
0.0419288
0.0428592
0.0438136
0.0447857
0.045771
0.0467655
0.0477656
0.0487687
0.0497727
0.0507765
0.0517785
0.0527773
0.0537727
0.0547637
0.05575
0.0567318
0.0577092
0.0586814
0.0596484
0.06061
0.0615652
0.0625132
0.0634539
0.0643878
0.065315
0.0662359
0.0671506
0.0680591
0.0689614
0.0698583
0.0707504
0.0716375
0.0725176
0.0386533
0.038912
0.0392669
0.0397124
0.0402419
0.0408465
0.0415179
0.0422466
0.0430251
0.0438469
0.0447053
0.0455933
0.0465038
0.0474309
0.0483697
0.0493158
0.050266
0.0512179
0.0521699
0.0531211
0.054069
0.0550125
0.055951
0.0568843
0.0578125
0.0587353
0.0596525
0.0605635
0.0614681
0.0623657
0.0632549
0.0641339
0.0650033
0.0658647
0.0667185
0.0675645
0.0684027
0.0692326
0.0700545
0.07087
0.0716797
0.0724832
0.0732789
0.0413059
0.0415545
0.0418967
0.0423238
0.0428323
0.0434138
0.0440581
0.0447545
0.0454989
0.0462876
0.0471131
0.0479676
0.0488427
0.0497333
0.0506336
0.0515391
0.0524463
0.0533546
0.0542632
0.0551711
0.0560734
0.0569693
0.0578598
0.0587444
0.0596237
0.0604976
0.0613648
0.0622247
0.0630772
0.0639214
0.0647552
0.0655726
0.0663803
0.0671801
0.0679716
0.0687531
0.0695262
0.0702875
0.0710391
0.0717844
0.0725229
0.0732535
0.0739744
0.0436008
0.0438407
0.044175
0.0445816
0.0450689
0.045632
0.0462538
0.046921
0.0476354
0.048399
0.0491992
0.0500257
0.0508694
0.0517304
0.0525968
0.0534672
0.0543359
0.055208
0.0560817
0.0569559
0.0578156
0.0586718
0.0595228
0.0603677
0.0612088
0.0620448
0.062872
0.0636908
0.0645015
0.0653001
0.0660847
0.0668415
0.0676021
0.0683503
0.0690914
0.0698142
0.0705318
0.0712299
0.0719218
0.0726095
0.0732893
0.0739584
0.0746154
0.064778
0.0621331
0.059588
0.0571372
0.054773
0.0524879
0.0502759
0.0481314
0.0460486
0.0440239
0.042053
0.0401324
0.0382593
0.0364311
0.0346465
0.0329032
0.0312
0.029536
0.0279105
0.0263226
0.0247721
0.0232587
0.0217825
0.0203447
0.0189445
0.0175813
0.0162565
0.0149703
0.0137228
0.0125162
0.0113498
0.0102252
0.00914416
0.00810791
0.00711904
0.0061816
0.00529882
0.00447358
0.00371391
0.00305324
0.00251484
0.00193396
0.00121186
0.0653761
0.0630123
0.0607308
0.0585252
0.056389
0.054317
0.0523044
0.0503453
0.0484364
0.0465731
0.044752
0.0429704
0.0412245
0.039513
0.0378333
0.0361838
0.0345635
0.0329708
0.0314055
0.0298663
0.0283529
0.0268648
0.0254027
0.0239662
0.0225563
0.0211737
0.0198186
0.0184921
0.0171971
0.0159345
0.0147055
0.0135141
0.0123625
0.0112557
0.0101963
0.00919375
0.00827293
0.00744648
0.00661851
0.00574568
0.00480374
0.0037427
0.00246594
0.0660111
0.063895
0.0618465
0.0598586
0.0579273
0.0560482
0.0542161
0.0524277
0.0506788
0.0489662
0.0472868
0.0456374
0.0440158
0.0424193
0.0408465
0.039295
0.0377641
0.0362523
0.0347593
0.0332837
0.0318252
0.0303842
0.0289606
0.0275543
0.0261662
0.0247976
0.0234488
0.0221231
0.0208217
0.019548
0.0183049
0.0170957
0.0159305
0.0148242
0.013774
0.0127433
0.0117009
0.0106287
0.00950241
0.00829139
0.00695604
0.0054456
0.00368594
0.0666671
0.0647696
0.0629267
0.0611331
0.059385
0.0576782
0.0560094
0.0543748
0.052772
0.0511975
0.049649
0.0481232
0.0466183
0.0451324
0.0436625
0.0422081
0.0407668
0.0393388
0.0379221
0.0365169
0.0351227
0.0337391
0.0323669
0.0310059
0.0296571
0.0283216
0.0270015
0.025699
0.024419
0.0231659
0.0219443
0.0207492
0.0195706
0.0183961
0.0172144
0.0160085
0.0147602
0.0134477
0.0120479
0.0105297
0.00885484
0.00697046
0.00481716
0.0673287
0.0656248
0.0639646
0.0623436
0.0607581
0.0592056
0.0576825
0.0561867
0.0547154
0.0532662
0.0518367
0.0504248
0.0490281
0.0476446
0.0462728
0.0449104
0.0435572
0.0422108
0.0408717
0.039539
0.0382118
0.0368914
0.0355777
0.0342706
0.0329714
0.0316816
0.0304026
0.0291341
0.0278742
0.0266208
0.025369
0.0241135
0.022846
0.0215564
0.020232
0.0188593
0.0174209
0.0158958
0.0142584
0.0124776
0.0105133
0.00831593
0.0058324
0.0679841
0.0664526
0.0649545
0.0634863
0.0620459
0.06063
0.059237
0.0578649
0.0565112
0.0551743
0.0538527
0.0525437
0.0512459
0.0499575
0.0486764
0.0474014
0.0461306
0.0448629
0.0435988
0.0423367
0.0410768
0.0398195
0.0385641
0.0373094
0.0360536
0.0347962
0.0335341
0.0322662
0.0309902
0.0297013
0.0283956
0.027067
0.0257073
0.0243075
0.022855
0.021336
0.0197322
0.0180226
0.0161804
0.0141729
0.0119606
0.00949536
0.00672614
0.068629
0.0672474
0.0658919
0.0645591
0.0632475
0.0619532
0.0606756
0.0594133
0.0581647
0.0569283
0.0557026
0.0544866
0.053278
0.052076
0.0508791
0.0496848
0.048491
0.0472969
0.0461012
0.044903
0.0437013
0.0424948
0.0412813
0.0400596
0.0388275
0.037581
0.0363179
0.0350354
0.0337308
0.0324007
0.0310397
0.0296414
0.0281992
0.0267024
0.0251387
0.0234927
0.0217464
0.019877
0.0178566
0.0156518
0.0132222
0.0105207
0.00750032
0.06925
0.068003
0.0667741
0.0655609
0.0643647
0.0631782
0.0620021
0.0608375
0.0596824
0.0585346
0.0573948
0.056262
0.0551333
0.0540085
0.0528882
0.051768
0.0506441
0.0495133
0.0483741
0.0472242
0.0460645
0.0448943
0.0437075
0.0425032
0.0412825
0.0400378
0.0387674
0.0374667
0.0361331
0.0347625
0.0333491
0.0318886
0.0303735
0.0287928
0.0271332
0.0253782
0.0235089
0.0214997
0.0193219
0.0169424
0.0143202
0.0114058
0.00815886
0.069847
0.0687177
0.0676012
0.0664898
0.0654015
0.0643108
0.0632224
0.0621426
0.0610722
0.0600018
0.0589367
0.0578795
0.0568245
0.0557625
0.0547098
0.0536548
0.0525904
0.0515123
0.0504161
0.0492995
0.0481621
0.0470228
0.0458611
0.0446598
0.0434475
0.0421969
0.0409193
0.0396026
0.0382415
0.0368371
0.0353741
0.033855
0.0322758
0.0306235
0.0288809
0.0270282
0.0250575
0.0229263
0.0206057
0.0180695
0.0152731
0.0121579
0.0086621
0.000557048
0.000519338
0.000703997
0.000879804
0.00104752
0.00121192
0.00137961
0.00155995
0.00176469
0.00200464
0.00227831
0.00258283
0.00291494
0.00327337
0.00365707
0.00406556
0.00449901
0.00495777
0.00544237
0.00595332
0.00649103
0.00705616
0.0076491
0.0082706
0.00892116
0.00960163
0.0103126
0.0110545
0.0118289
0.012636
0.0134767
0.0143522
0.0152633
0.0162108
0.0171954
0.0182182
0.0192799
0.0203813
0.0215231
0.0227059
0.0239303
0.0251966
0.0265063
0.00112182
0.000709614
0.000864702
0.0010507
0.00123489
0.00142517
0.00163144
0.00186288
0.00212675
0.00242762
0.00276105
0.00312061
0.00350427
0.00391093
0.0043402
0.00479157
0.00526509
0.00576118
0.00627994
0.00682168
0.00738677
0.00797556
0.008588
0.00922446
0.00988582
0.0105725
0.0112849
0.0120235
0.0127892
0.0135827
0.0144045
0.0152554
0.016136
0.0170471
0.0179892
0.0189633
0.0199698
0.0210095
0.0220827
0.0231901
0.0243323
0.0255095
0.0267231
0.00182218
0.000933171
0.00101767
0.00121985
0.00143134
0.00166055
0.00191645
0.0022038
0.00252441
0.00288076
0.00326643
0.00367498
0.00410501
0.00455586
0.00502663
0.0055173
0.00602766
0.00655791
0.00710787
0.00767752
0.00826671
0.00887606
0.00950539
0.0101548
0.0108249
0.011516
0.0122284
0.0129627
0.0137191
0.0144983
0.0153009
0.0161272
0.0169775
0.0178528
0.0187535
0.01968
0.0206327
0.0216122
0.0226191
0.0236535
0.0247159
0.0258071
0.0269282
0.00253134
0.00118272
0.00116232
0.00138707
0.00163413
0.00190881
0.0022159
0.00255566
0.00292748
0.00333405
0.00376554
0.00421767
0.00468904
0.00517929
0.00568751
0.00621315
0.00675612
0.00731617
0.00789331
0.00848703
0.00909707
0.00972372
0.0103672
0.0110271
0.0117039
0.0123978
0.0131092
0.0138381
0.0145849
0.01535
0.0161337
0.0169365
0.0177584
0.0185999
0.0194614
0.0203435
0.0212462
0.02217
0.0231153
0.0240823
0.0250713
0.0260828
0.027118
0.00318965
0.00144277
0.00130207
0.00155389
0.00184124
0.00216246
0.00251777
0.0029048
0.00332327
0.0037738
0.00424606
0.00473706
0.00524564
0.00577096
0.00631231
0.00686903
0.00744081
0.00802728
0.00862801
0.00924255
0.00987053
0.0105121
0.0111674
0.0118359
0.0125179
0.0132135
0.0139228
0.0146459
0.0153832
0.0161346
0.0169004
0.0176808
0.0184759
0.0192861
0.0201116
0.0209526
0.0218094
0.0226821
0.023571
0.0244762
0.0253982
0.0263369
0.0272932
0.00377653
0.00169834
0.00143887
0.00172014
0.00204868
0.0024141
0.00281313
0.00324238
0.00370402
0.00419332
0.00470206
0.0052281
0.00576997
0.00632678
0.00689781
0.0074823
0.0080798
0.00868936
0.00931068
0.00994344
0.0105869
0.0112413
0.0119065
0.0125821
0.0132681
0.0139647
0.0146716
0.0153888
0.0161167
0.0168551
0.0176039
0.0183635
0.0191339
0.019915
0.0207071
0.0215105
0.0223252
0.0231511
0.0239886
0.0248376
0.0256984
0.0265712
0.0274569
0.00428733
0.00193509
0.00157261
0.00188558
0.00225401
0.00265975
0.00309768
0.00356498
0.00406535
0.00458926
0.0051307
0.00568807
0.00625982
0.00684508
0.00744286
0.00805221
0.00867233
0.00930255
0.00994226
0.010591
0.0112486
0.0119142
0.012588
0.0132696
0.0139588
0.0146555
0.0153598
0.0160714
0.0167903
0.0175165
0.0182496
0.0189897
0.0197371
0.0204912
0.0212526
0.0220212
0.0227971
0.0235803
0.0243708
0.0251686
0.0259737
0.0267863
0.0276075
0.00472802
0.00217833
0.00170825
0.00204053
0.00244526
0.00288756
0.00336127
0.00386457
0.00440023
0.00495677
0.00552923
0.00611632
0.00671641
0.00732861
0.00795121
0.00858353
0.00922469
0.00987375
0.0105302
0.0111936
0.0118637
0.0125396
0.0132206
0.0139067
0.0145981
0.0152945
0.015996
0.0167019
0.0174122
0.0181267
0.018845
0.0195664
0.0202915
0.0210203
0.0217524
0.0224885
0.0232287
0.023973
0.0247208
0.0254716
0.0262257
0.0269832
0.0277447
0.00494561
0.00217665
0.00179207
0.00222175
0.00267125
0.00315376
0.00366446
0.00420556
0.00477986
0.00535862
0.00596117
0.00657104
0.00719968
0.00783379
0.00847016
0.0091208
0.00977745
0.0104396
0.0111093
0.0117843
0.0124646
0.0131469
0.013829
0.0145145
0.0152058
0.0158998
0.0165971
0.0172964
0.017997
0.0187004
0.0194034
0.0201038
0.0208058
0.0215092
0.0222117
0.0229157
0.0236234
0.0243325
0.0250414
0.0257496
0.026456
0.0271619
0.0278691
0.000325612
0.00120186
0.0025368
0.00386522
0.00514572
0.00638221
0.00757691
0.00873349
0.00985622
0.0109497
0.0120181
0.0130649
0.0140959
0.0151206
0.0161557
0.0172141
0.0182964
0.0193928
0.0205068
0.0217237
0.0230468
0.0244524
0.025921
0.0274387
0.0289982
0.0305942
0.0322213
0.0338759
0.0355552
0.037257
0.038979
0.0407192
0.0424764
0.0442493
0.0460363
0.0478361
0.0496475
0.05147
0.0533018
0.0551413
0.0569874
0.058839
0.0606958
0.000288858
0.000889334
0.00201138
0.00318437
0.00426844
0.00529674
0.00629959
0.0072937
0.0082838
0.00927228
0.0102602
0.0112485
0.0122386
0.0132333
0.0142375
0.0152565
0.0162949
0.0173558
0.0184483
0.0195983
0.0208174
0.0220956
0.0234153
0.0248221
0.0263379
0.0279341
0.0295892
0.0312904
0.0330288
0.0347979
0.0365927
0.0384089
0.0402442
0.0420961
0.0439621
0.0458407
0.0477306
0.0496301
0.0515377
0.0534522
0.0553718
0.0572953
0.0592207
0.00019348
0.00060495
0.00139339
0.00241778
0.00365595
0.00484547
0.00593845
0.00695292
0.00791121
0.0088308
0.00972575
0.0106078
0.0114865
0.0123703
0.0132664
0.0141817
0.0151226
0.0160961
0.0171107
0.0181758
0.0192997
0.0204855
0.0217323
0.0230499
0.0244394
0.0258857
0.0274262
0.0290763
0.030805
0.0325913
0.0344206
0.0362835
0.038173
0.0400836
0.0420113
0.0439536
0.0459077
0.0478715
0.0498434
0.0518213
0.0538036
0.0557885
0.0577733
0.000206931
0.000532778
0.0012136
0.00209357
0.00317456
0.00439348
0.00558066
0.00669645
0.00774213
0.00872383
0.00964927
0.0105278
0.0113703
0.012189
0.0129966
0.0138062
0.0146305
0.015482
0.0163728
0.0173138
0.0183148
0.0193838
0.020526
0.0217438
0.0230369
0.0244012
0.0258418
0.0273544
0.0289424
0.0306531
0.0324542
0.0343195
0.0362316
0.0381778
0.0401499
0.042142
0.0441492
0.0461685
0.0481968
0.0502315
0.0522708
0.0543122
0.056354
0.000193873
0.000483421
0.00110067
0.00189476
0.00286531
0.00400948
0.0052329
0.00642275
0.0075497
0.00861207
0.00961286
0.0105551
0.0114428
0.0122819
0.0130811
0.0138521
0.0146089
0.0153671
0.0161437
0.0169554
0.017818
0.0187459
0.0197501
0.0208379
0.0220125
0.0232738
0.0246192
0.0260434
0.0275437
0.0291231
0.0307846
0.0325728
0.0344534
0.0363981
0.0383889
0.0404121
0.0424587
0.0445227
0.0465989
0.048684
0.0507745
0.0528681
0.0549628
0.000194428
0.000458108
0.00103628
0.0017773
0.00267965
0.00374413
0.00494361
0.00616864
0.00735514
0.00848503
0.00955599
0.0105684
0.0115229
0.0124208
0.0132647
0.0140602
0.0148157
0.0155433
0.0162587
0.0169802
0.0177278
0.0185216
0.0193803
0.0203194
0.0213497
0.0224772
0.0237029
0.0250236
0.026434
0.0279274
0.0294995
0.0311543
0.0329109
0.0347905
0.0367568
0.0387818
0.0408477
0.0429415
0.0450552
0.0471817
0.0493169
0.0514566
0.0535959
0.000191873
0.00043835
0.000987187
0.00169051
0.00254438
0.0035495
0.00470158
0.00593507
0.00716424
0.00835076
0.00948323
0.0105594
0.0115787
0.0125407
0.0134454
0.0142936
0.0150884
0.0158361
0.0165464
0.0172336
0.0179158
0.0186141
0.0193517
0.0201507
0.021031
0.0220075
0.0230894
0.0242797
0.0255761
0.026972
0.0284599
0.0300322
0.031687
0.0334278
0.0353012
0.0372815
0.0393348
0.0414373
0.0435729
0.0457302
0.0479019
0.0500815
0.0522633
0.000191409
0.000424539
0.00095252
0.00162822
0.00244642
0.00340758
0.00451265
0.00573172
0.00698456
0.00821521
0.00940082
0.010534
0.0116127
0.0126355
0.0136011
0.0145086
0.0153578
0.0161506
0.0168916
0.0175887
0.0182548
0.0189072
0.0195673
0.0202597
0.0210096
0.02184
0.0227699
0.0238115
0.0249702
0.0262447
0.0276288
0.0291132
0.0306882
0.0323471
0.034096
0.0359605
0.0379512
0.0400291
0.0421646
0.0443376
0.0465351
0.0487477
0.0509703
0.000190625
0.00041333
0.000924595
0.0015786
0.00236904
0.00329582
0.00436106
0.00555409
0.00681546
0.00807945
0.00931078
0.0104954
0.0116284
0.0127075
0.0137309
0.0146967
0.0156033
0.01645
0.0172379
0.0179704
0.0186546
0.0193022
0.0199297
0.0205586
0.0212145
0.0219243
0.0227141
0.0236057
0.0246145
0.0257478
0.0270057
0.0283817
0.0298659
0.0314475
0.033118
0.0348773
0.0367418
0.0387458
0.0408482
0.0430152
0.0452238
0.0474598
0.0497164
0.000190203
0.000404376
0.000902305
0.00153898
0.00230714
0.00320645
0.00423901
0.00540247
0.00665992
0.00794603
0.00921525
0.0104457
0.0116285
0.0127598
0.0138372
0.0148585
0.0158212
0.0167234
0.0175639
0.0183433
0.0190647
0.0197344
0.0203635
0.0209682
0.0215703
0.0221957
0.0228731
0.0236307
0.0244928
0.0254771
0.0265927
0.0278404
0.029214
0.0307031
0.0322951
0.0339794
0.0357519
0.037628
0.0396501
0.041779
0.0439779
0.046223
0.0485002
0.000189734
0.000396838
0.000883584
0.00150587
0.0022556
0.00313213
0.00413744
0.00527257
0.00651746
0.00781584
0.00911541
0.0103864
0.0116147
0.0127945
0.0139224
0.014996
0.0160123
0.0169688
0.017863
0.0186936
0.0194611
0.020168
0.0208208
0.0214304
0.0220129
0.0225904
0.0231899
0.0238413
0.0245744
0.0254156
0.0263842
0.0274904
0.0287354
0.0301133
0.0316121
0.0332182
0.0349193
0.0367099
0.0386062
0.0406528
0.042812
0.0450462
0.0473343
0.000189297
0.000390371
0.000867658
0.0014777
0.00221186
0.00306915
0.00405144
0.00516104
0.0063883
0.0076904
0.00901283
0.0103186
0.0115885
0.0128134
0.0139887
0.0151114
0.0161786
0.0171872
0.018134
0.0190168
0.0198339
0.0205857
0.0212749
0.0219081
0.0224964
0.0230564
0.0236112
0.0241883
0.0248192
0.0255351
0.0263637
0.0273253
0.0284307
0.0296813
0.0310699
0.0325837
0.0342081
0.0359299
0.0377437
0.0396677
0.0417461
0.0439402
0.0462117
0.000188815
0.000384743
0.000853722
0.00145321
0.00217385
0.00301455
0.00397699
0.00506384
0.00627166
0.0075705
0.00890876
0.010244
0.0115512
0.0128179
0.0140376
0.0152067
0.0163221
0.0173803
0.018378
0.019312
0.0201797
0.0209797
0.0217122
0.0223804
0.0229912
0.0235564
0.0240936
0.0246267
0.0251848
0.0258004
0.026506
0.0273303
0.0282937
0.0294072
0.0306711
0.032077
0.0336115
0.0352589
0.0370057
0.0388476
0.0408065
0.0429253
0.0451643
0.00018829
0.000379691
0.000841305
0.00143146
0.00214028
0.00296646
0.00391145
0.00497819
0.00616634
0.00745686
0.00880441
0.0101636
0.011504
0.0128092
0.0140707
0.0152836
0.0164446
0.0175501
0.0185965
0.0195802
0.0204979
0.021347
0.022126
0.0228357
0.0234796
0.0240654
0.0246059
0.02512
0.025633
0.0261753
0.026781
0.0274835
0.0283115
0.0292858
0.0304157
0.0317006
0.0331307
0.0346915
0.0363667
0.0381428
0.0400179
0.0420219
0.0441902
0.0001877
0.000375155
0.000830158
0.00141193
0.00211017
0.00292336
0.0038529
0.00490156
0.00607094
0.00734964
0.00870093
0.0100786
0.0114481
0.0127886
0.0140892
0.0153435
0.0165477
0.0176982
0.0187912
0.0198227
0.0207892
0.0216871
0.0225138
0.0232683
0.0239516
0.0245682
0.0251266
0.0256412
0.0261324
0.026627
0.0271575
0.027759
0.0284656
0.0293059
0.0302995
0.0314542
0.0327676
0.0342285
0.0358211
0.0375288
0.0393389
0.0412537
0.043315
0.000187024
0.00037097
0.000819956
0.00139411
0.00208274
0.00288431
0.00379989
0.00483232
0.00598397
0.00724901
0.00859921
0.00999048
0.0113847
0.0127573
0.0140942
0.0153878
0.0166331
0.0178263
0.0189637
0.0200413
0.0210548
0.0220005
0.0228749
0.0236756
0.0244019
0.0250556
0.025642
0.0261711
0.026659
0.0271279
0.027607
0.0281301
0.0287338
0.0294523
0.0303136
0.0313352
0.0325228
0.033872
0.0353698
0.0369992
0.0387443
0.040595
0.042564
0.000186295
0.000367136
0.000810547
0.00137769
0.00205757
0.00284848
0.00375136
0.00476897
0.00590418
0.0071547
0.00849991
0.00989993
0.0113149
0.0127163
0.0140871
0.0154175
0.0167019
0.0179359
0.0191157
0.0202372
0.0212962
0.0222884
0.0232098
0.0240569
0.0248279
0.0255225
0.0261434
0.0266972
0.0271957
0.0276567
0.0281052
0.0285721
0.0290935
0.0297065
0.0304453
0.0313362
0.0323943
0.033623
0.0350148
0.036555
0.0382268
0.0400144
0.0419109
0.000185467
0.000363582
0.000801785
0.00136243
0.00203418
0.0028152
0.00370654
0.00471047
0.00583043
0.00706611
0.00840349
0.00980826
0.0112399
0.0126668
0.0140687
0.0154339
0.0167554
0.0180283
0.0192486
0.0204123
0.0215149
0.022552
0.0235192
0.0244124
0.0252287
0.0259663
0.0266258
0.0272111
0.0277304
0.0281975
0.0286326
0.0290631
0.0295228
0.0300489
0.0306793
0.0314473
0.0323768
0.0334799
0.0347566
0.036197
0.0377856
0.0395049
0.0413425
0.00018457
0.000360154
0.000793518
0.0013481
0.00201227
0.00278423
0.00366466
0.0046561
0.00576172
0.00698281
0.00831052
0.00971617
0.0111606
0.0126097
0.0140402
0.0154379
0.0167945
0.0181046
0.0193637
0.0205677
0.0217122
0.0227927
0.0238044
0.0247428
0.0256042
0.0263857
0.0270864
0.0277078
0.0282552
0.0287387
0.0291745
0.0295856
0.0300023
0.0304604
0.0309989
0.0316556
0.0324619
0.0334389
0.034595
0.0359267
0.0374215
0.0390613
0.0408243
0.00018363
0.000356967
0.000785647
0.00133454
0.00199164
0.00275503
0.00362538
0.00460504
0.00569731
0.00690434
0.00822098
0.00962445
0.011078
0.0125459
0.0140024
0.0154306
0.0168205
0.018166
0.0194621
0.0207049
0.0218896
0.0230118
0.0240665
0.0250491
0.0259549
0.0267807
0.0275238
0.0281842
0.0287647
0.0292724
0.0297197
0.0301253
0.0305157
0.0309238
0.0313877
0.0319475
0.0326399
0.0334942
0.0345274
0.0357438
0.0371363
0.0386893
0.0403853
0.000182623
0.000353865
0.000778172
0.00132169
0.00197206
0.00272735
0.00358824
0.00455691
0.00563653
0.00683016
0.00813488
0.00953365
0.010993
0.0124768
0.0139563
0.0154127
0.0168342
0.0182134
0.0195451
0.0208248
0.0220483
0.0232106
0.024307
0.0253324
0.0262819
0.0271513
0.0279375
0.0286387
0.0292558
0.0297932
0.0302601
0.0306716
0.0310497
0.0314239
0.0318301
0.0323085
0.0328994
0.0336379
0.0345496
0.0356472
0.0369303
0.0383878
0.0400021
0.000181565
0.000350907
0.000771047
0.00130936
0.00195337
0.00270105
0.00355292
0.00451124
0.00557907
0.00675956
0.00805222
0.00944419
0.0109064
0.0124027
0.0139029
0.0153854
0.0168365
0.0182478
0.0196135
0.0209288
0.0221894
0.0233904
0.0245269
0.0255938
0.026586
0.0274986
0.0283276
0.0290705
0.0297263
0.0302975
0.0307902
0.0312162
0.0315936
0.0319479
0.0323122
0.0327249
0.0332279
0.0338605
0.0346555
0.0356339
0.0368032
0.0381585
0.0396869
0.000180442
0.000348057
0.000764121
0.00129752
0.00193545
0.00267583
0.00351923
0.00446763
0.00552425
0.00669228
0.00797268
0.00935645
0.0108187
0.0123249
0.0138429
0.0153493
0.0168282
0.0182701
0.0196683
0.0210178
0.022314
0.0235522
0.0247275
0.0258345
0.0268681
0.027823
0.0286947
0.0294795
0.0301754
0.030783
0.0313061
0.0317534
0.0321395
0.032486
0.0328222
0.0331843
0.0336137
0.0341522
0.0348379
0.0356996
0.0367531
0.0380006
0.0394332
0.000179258
0.000345255
0.000757489
0.00128612
0.00191818
0.00265162
0.00348687
0.00442585
0.00547175
0.00662798
0.00789611
0.00927058
0.0107307
0.0122438
0.0137772
0.0153052
0.0168103
0.0182811
0.0197103
0.0210926
0.0224231
0.0236972
0.0249098
0.0260557
0.0271295
0.0281257
0.0290393
0.0298659
0.0306026
0.0312484
0.0318051
0.0322789
0.0326811
0.0330296
0.03335
0.0336753
0.0340452
0.0345024
0.0350885
0.0358388
0.0367771
0.037913
0.0392418
0.000178034
0.000342526
0.000751059
0.00127505
0.00190154
0.00262827
0.00345567
0.0043857
0.00542135
0.00656606
0.0078224
0.00918683
0.0106427
0.0121603
0.0137066
0.015254
0.0167833
0.0182816
0.0197405
0.0211542
0.0225177
0.0238263
0.0250749
0.0262583
0.0273711
0.0284075
0.0293622
0.0302303
0.031008
0.031693
0.0322856
0.0327898
0.0332139
0.0335726
0.0338876
0.0341884
0.0345122
0.034901
0.0353987
0.0360452
0.0368716
0.0378964
0.0391258
0.000176766
0.000339882
0.000744734
0.00126436
0.00188534
0.00260565
0.00342554
0.00434696
0.00537275
0.00650655
0.00775117
0.009105
0.0105553
0.012075
0.0136316
0.0151964
0.016748
0.0182722
0.0197595
0.0212033
0.0225985
0.0239403
0.0252238
0.0264434
0.0275939
0.0286694
0.0296644
0.0305733
0.0313917
0.0321166
0.0327467
0.033284
0.0337345
0.0341098
0.0344282
0.0347154
0.0350055
0.0353387
0.0357596
0.0363113
0.0370309
0.0379438
0.0390611
0.000175458
0.000337295
0.000738631
0.00125388
0.00186962
0.00258368
0.00339634
0.00430944
0.00532586
0.00644902
0.00768223
0.00902537
0.0104686
0.0119884
0.0135531
0.015133
0.0167053
0.0182536
0.0197679
0.0212406
0.0226664
0.0240403
0.0253572
0.026612
0.0277989
0.0289125
0.0299465
0.0308956
0.0317545
0.0325193
0.0331878
0.0337603
0.0342407
0.0346378
0.0349666
0.0352496
0.035517
0.0358069
0.0361627
0.0366296
0.0372488
0.0380516
0.0390524
0.000174105
0.000334752
0.00073267
0.0012437
0.00185432
0.00256232
0.00336796
0.00427302
0.0052803
0.00639329
0.00761548
0.00894767
0.0103829
0.0119008
0.0134715
0.0150646
0.0166554
0.0182267
0.0197666
0.021267
0.0227221
0.0241268
0.0254761
0.0267648
0.0279871
0.0291374
0.0302097
0.031198
0.0320968
0.0329015
0.033609
0.034218
0.0347308
0.0351538
0.035499
0.0357853
0.0360398
0.0362975
0.0365999
0.0369926
0.03752
0.0382194
0.0391181
0.000172727
0.000332235
0.000726788
0.00123376
0.00183936
0.00254147
0.00334033
0.00423759
0.00523609
0.00633926
0.0075506
0.00887187
0.0102984
0.0118129
0.0133875
0.0149916
0.0165994
0.0181919
0.019756
0.021283
0.0227664
0.0242008
0.0255813
0.0269026
0.0281593
0.0293453
0.0304547
0.0314814
0.0324194
0.0332637
0.0340102
0.0346567
0.0352038
0.0356558
0.0360221
0.0363185
0.0365686
0.036804
0.037064
0.0373933
0.0378381
0.0384399
0.0392282
0.000171321
0.000329827
0.000721081
0.00122401
0.00182475
0.00252113
0.00331335
0.00420306
0.00519298
0.00628662
0.00748752
0.00879798
0.0102151
0.0117249
0.0133015
0.0149147
0.0165377
0.0181499
0.019737
0.0212892
0.0227998
0.0242629
0.0256735
0.0270265
0.0283162
0.0295369
0.0306824
0.0317464
0.0327229
0.0336063
0.0343918
0.0350763
0.035659
0.0361424
0.0365337
0.0368456
0.0370985
0.0373206
0.0375483
0.037825
0.0381972
0.0387106
0.039405
0.000169854
0.000327387
0.000715439
0.00121442
0.00181039
0.00250116
0.00328693
0.00416936
0.005151
0.00623535
0.00742602
0.00872586
0.0101333
0.0116371
0.0132141
0.0148346
0.0164709
0.0181012
0.01971
0.0212864
0.0228229
0.0243136
0.0257534
0.0271369
0.0284588
0.029713
0.0308935
0.031994
0.0330082
0.0339299
0.0347542
0.035477
0.0360962
0.0366128
0.037032
0.0373639
0.0376258
0.0378425
0.0380474