/*--------------------------------*- C++ -*----------------------------------*\
| =========                 |                                                 |
| \\      /  F ield         | OpenFOAM: The Open Source CFD Toolbox           |
|  \\    /   O peration     | Version:  2.3.0                                 |
|   \\  /    A nd           | Web:      www.OpenFOAM.org                      |
|    \\/     M anipulation  |                                                 |
\*---------------------------------------------------------------------------*/
FoamFile
{
    version     2.0;
    format      ascii;
    class       volScalarField;
    location    "10000";
    object      p;
}
// * * * * * * * * * * * * * * * * * * * * * * * * * * * * * * * * * * * * * //

dimensions      [0 2 -2 0 0 0 0];

internalField   nonuniform List<scalar> 
41067
(
0.018494
-1.39393
-2.90334
-4.46176
-6.03296
-7.61697
-9.2156
-10.8279
-12.4576
-14.1042
-15.7645
-17.438
-19.1213
-20.8115
-22.5003
-24.1936
-25.8716
-27.5385
-29.1914
-30.8085
-32.3985
-33.9444
-35.4373
-36.8658
-38.2288
-39.5212
-40.7176
-41.8048
-42.73
-43.4854
-43.9933
-44.1761
-43.9235
-43.1441
-41.6257
-39.1657
-35.5735
-30.5448
-22.7049
-10.7256
0.67322
3.56345
22.3885
6.62536
5.54818
4.55399
3.56722
2.62029
1.7077
0.827957
-0.0153568
-0.823767
-1.59636
-2.32766
-3.01239
-3.65875
-4.25747
-4.80682
-5.31246
-5.7605
-6.15524
-6.49055
-6.75746
-6.95178
-7.04778
-7.03783
-6.88365
-6.55112
-6.00869
-5.18085
-4.00247
-2.38428
-0.251031
2.53926
6.14942
10.7437
16.5316
23.7776
32.7366
43.7257
57.0583
73.2043
92.6065
115.409
142.068
172.774
12.2882
11.5854
10.9574
10.331
9.75171
9.20603
8.70097
8.22943
7.801
7.41775
7.08684
6.80892
6.58806
6.43821
6.36704
6.38271
6.48903
6.70176
7.02435
7.48273
8.07306
8.8329
9.76042
10.886
12.2354
13.825
15.709
17.9257
20.5054
23.5391
27.0687
31.1971
36.0114
41.6056
48.1341
55.6752
64.391
74.3682
85.7016
98.4268
112.511
128.058
144.897
17.1916
16.8741
16.5715
16.2559
15.9848
15.7544
15.5697
15.4319
15.3492
15.3196
15.3493
15.4473
15.619
15.8683
16.2024
16.6347
17.1627
17.8132
18.5736
19.4825
20.5399
21.7818
23.2115
24.87
26.783
28.9871
31.523
34.4347
37.7718
41.6019
45.9674
50.9694
56.6632
63.1207
70.4503
78.6816
87.8948
98.0944
109.265
121.331
134.097
147.315
160.607
21.6438
21.5401
21.4842
21.3921
21.3359
21.3206
21.3502
21.4323
21.5623
21.7494
21.9987
22.3163
22.7084
23.1881
23.7604
24.4373
25.2275
26.1346
27.1589
28.3321
29.6574
31.1621
32.8613
34.7791
36.9387
39.3744
42.1104
45.1896
48.6607
52.5548
56.9204
61.8228
67.2946
73.4097
80.2133
87.7484
96.0274
105.069
114.823
125.212
136.082
147.233
158.407
25.8985
25.7684
25.846
25.9002
25.9945
26.1324
26.32
26.5603
26.857
27.2046
27.6118
28.0836
28.6321
29.2634
29.9954
30.84
31.8136
32.9076
34.1006
35.4348
36.9264
38.5986
40.4559
42.5385
44.8525
47.4516
50.3381
53.5731
57.1738
61.1794
65.6303
70.5595
75.9931
82.0086
88.6064
95.8308
103.659
112.104
121.108
130.574
140.374
150.32
160.236
29.4268
29.486
29.6809
29.8411
30.0452
30.2972
30.6065
30.9562
31.3725
31.8423
32.3645
32.9322
33.5901
34.3249
35.1411
36.0612
37.146
38.4292
39.7236
41.1779
42.7412
44.5332
46.4869
48.6487
50.978
53.6245
56.5294
59.7879
63.407
67.4093
71.7993
76.6395
81.9115
87.7236
94.0054
100.841
108.188
116.05
124.385
133.118
142.118
151.228
160.326
32.7733
32.9294
33.1325
33.3085
33.5738
33.8962
34.2906
34.6903
35.2048
35.784
36.4002
36.9888
37.6985
38.4832
39.3593
40.2556
41.3752
42.8474
44.1969
45.802
47.3318
49.1404
51.1714
53.5587
55.9065
58.5742
61.4217
64.6214
68.222
72.288
76.7652
81.512
86.5116
92.204
98.2627
104.825
111.78
119.307
127.229
135.41
143.748
152.214
160.711
36.3546
36.3242
36.3442
36.3604
36.545
36.8103
37.19
37.5323
38.0904
38.7585
39.4865
39.9642
40.5523
41.1011
42.0451
43.3443
43.9731
46.2815
46.9967
49.1177
50.5122
51.9554
53.3477
56.6289
58.9895
61.6901
64.3601
67.385
70.864
74.8239
79.739
84.6071
89.1125
94.787
101.008
107.789
114.663
122.334
130.542
138.838
146.892
154.77
162.597
119.224
171.778
200.859
220.16
234.324
245.002
253.218
259.533
264.394
268.059
270.835
272.862
274.305
275.264
275.836
276.09
276.077
275.842
275.424
274.858
274.163
273.368
272.492
271.546
270.547
269.504
268.43
267.33
266.213
265.084
263.944
262.797
261.645
260.49
259.331
258.17
257.004
255.838
254.669
253.506
252.355
251.13
249.441
201.067
220.283
234.665
245.876
254.644
261.434
266.588
270.403
273.137
275.003
276.182
276.815
277.028
276.907
276.537
275.973
275.264
274.447
273.549
272.596
271.599
270.575
269.531
268.471
267.404
266.331
265.252
264.17
263.086
262
260.913
259.826
258.74
257.655
256.572
255.49
254.413
253.338
252.267
251.204
250.152
249.031
247.469
161.869
177.69
191.846
204.161
214.699
223.599
231.049
237.229
242.322
246.484
249.86
252.577
254.74
256.439
257.754
258.742
259.458
259.942
260.231
260.355
260.338
260.2
259.958
259.627
259.22
258.747
258.217
257.64
257.019
256.364
255.679
254.967
254.231
253.473
252.698
251.906
251.099
250.279
249.447
248.61
247.773
246.858
245.519
173.48
185.51
196.488
206.28
214.873
222.304
228.654
234.025
238.524
242.26
245.332
247.837
249.855
251.463
252.723
253.688
254.403
254.909
255.237
255.415
255.466
255.407
255.257
255.03
254.736
254.383
253.983
253.541
253.062
252.553
252.015
251.453
250.869
250.264
249.642
249.003
248.349
247.682
247.003
246.317
245.627
244.866
243.72
169.312
179.739
189.47
198.376
206.381
213.467
219.667
225.027
229.623
233.534
236.838
239.61
241.926
243.84
245.418
246.699
247.725
248.536
249.158
249.62
249.939
250.139
250.237
250.244
250.172
250.034
249.839
249.591
249.299
248.968
248.603
248.208
247.783
247.33
246.855
246.36
245.847
245.318
244.776
244.226
243.67
243.055
242.209
169.898
179.167
187.875
195.941
203.283
209.844
215.668
220.75
225.155
228.944
232.182
234.941
237.273
239.236
240.882
242.244
243.365
244.27
244.99
245.556
245.981
246.291
246.497
246.615
246.654
246.628
246.541
246.404
246.221
246.001
245.75
245.469
245.152
244.8
244.429
244.04
243.634
243.212
242.774
242.327
241.873
241.356
240.545
169.19
177.699
185.716
193.219
200.17
206.387
212.007
216.907
221.181
224.886
228.081
230.842
233.194
235.217
236.931
238.377
239.588
240.58
241.389
242.054
242.58
242.984
243.284
243.492
243.62
243.68
243.681
243.635
243.538
243.431
243.291
243.097
242.85
242.567
242.286
241.992
241.681
241.345
240.979
240.611
240.24
239.823
239.297
168.959
176.909
184.424
191.606
198.486
204.362
209.866
214.432
218.429
221.939
225.044
227.773
230.11
232.167
233.904
235.403
236.649
237.672
238.506
239.237
239.799
240.235
240.582
240.838
241.026
241.154
241.228
241.264
241.248
241.282
241.22
241.031
240.816
240.582
240.416
240.218
239.965
239.654
239.325
239.033
238.751
238.464
238.254
170.105
177.528
184.717
191.972
199.159
204.066
209.533
213.347
216.792
219.931
222.866
225.519
227.726
229.705
231.339
232.802
233.924
234.844
235.539
236.336
236.838
237.287
237.733
238.113
238.448
238.719
238.906
239.052
239.096
239.223
238.895
238.937
238.849
238.671
238.684
238.464
238.06
237.863
237.724
237.637
237.491
237.274
237.297
8.16385
7.75673
7.4499
7.16161
6.88101
6.61225
6.35801
6.11969
5.89843
5.69529
5.51277
5.35163
5.21312
5.09733
5.00584
4.9396
4.89878
4.88285
4.89169
4.92537
4.98216
5.06057
5.15779
5.2725
5.40466
5.55102
5.70962
5.87882
6.05636
6.24027
6.42849
6.61895
6.81068
7.00447
7.20188
7.40839
7.64043
7.93014
8.32736
8.88406
9.69547
11.1903
14.708
8.40289
8.0396
7.7548
7.49912
7.26451
7.05182
6.8615
6.69242
6.54409
6.41524
6.3043
6.20999
6.1309
6.06635
6.01418
5.97251
5.94024
5.91645
5.90042
5.89095
5.88779
5.89081
5.90042
5.9168
5.93933
5.96895
6.00738
6.05438
6.11167
6.18218
6.26888
6.37605
6.51083
6.68444
6.91691
7.23112
7.65741
8.24834
9.12211
10.5124
12.8471
16.6033
21.7449
8.62828
8.28247
7.98107
7.69767
7.42738
7.17087
6.92735
6.69692
6.47902
6.27357
6.08091
5.90019
5.73239
5.57754
5.43611
5.30834
5.19411
5.0937
5.00701
4.93484
4.87652
4.83294
4.80523
4.79343
4.79767
4.81942
4.86065
4.92388
5.01179
5.12839
5.28163
5.48245
5.74338
6.08021
6.51822
7.09837
7.88646
8.97183
10.5065
12.7442
16.0307
20.6499
26.4903
8.8559
8.53798
8.2381
7.9519
7.67742
7.41497
7.16419
6.92584
6.69975
6.48485
6.28153
6.08997
5.90899
5.74049
5.58399
5.4399
5.30795
5.18734
5.07867
4.98231
4.89948
4.83045
4.77563
4.73774
4.7196
4.72418
4.75323
4.81234
4.90881
5.05109
5.24821
5.51404
5.86611
6.32879
6.93611
7.73486
8.79969
10.2353
12.197
14.8894
18.5206
23.1726
28.6253
9.0751
8.79049
8.49748
8.21394
7.93724
7.67034
7.41115
7.16241
6.92429
6.69538
6.47539
6.26486
6.06339
5.87171
5.69181
5.52402
5.36946
5.22752
5.09844
4.98519
4.88688
4.80596
4.74277
4.69851
4.67661
4.68536
4.72687
4.80878
4.93523
5.11557
5.36343
5.69409
6.13131
6.70415
7.45104
8.4266
9.70767
11.4043
13.6454
16.5954
20.3683
24.9478
30.0947
9.28987
9.04098
8.75924
8.48543
8.21301
7.95009
7.68889
7.43742
7.19663
6.96397
6.73961
6.52375
6.31275
6.10991
5.91688
5.73783
5.57436
5.42281
5.28301
5.16055
5.0547
4.97127
4.91222
4.86815
4.84193
4.85521
4.90417
4.99988
5.14893
5.35737
5.63703
6.00842
6.50382
7.15252
7.99533
9.09075
10.5147
12.3759
14.7603
17.8028
21.5836
26.087
31.0784
9.51008
9.28992
9.01679
8.75939
8.49086
8.23965
7.97866
7.72671
7.48758
7.25732
7.03199
6.81874
6.6041
6.39559
6.19068
6.002
5.83187
5.67425
5.52172
5.38863
5.2766
5.18226
5.13926
5.108
5.07326
5.09467
5.14158
5.24854
5.4168
5.65212
5.97218
6.37146
6.90069
7.60338
8.5153
9.67664
11.1812
13.2055
15.702
18.8396
22.6959
27.2444
32.3261
9.70804
9.52603
9.25394
9.03206
8.76745
8.54379
8.2738
8.00788
7.77378
7.55639
7.33256
7.14354
6.9293
6.72551
6.51134
6.31945
6.16369
6.03705
5.88554
5.73909
5.64229
5.51401
5.46383
5.50631
5.44362
5.4934
5.54468
5.66288
5.85606
6.1078
6.4568
6.84159
7.38378
8.14985
9.10118
10.2669
11.694
13.9154
16.3323
19.2406
22.696
26.7368
31.4167
9.89637
9.74155
9.48423
9.31816
9.10193
8.89745
8.59766
8.22684
7.94031
7.72007
7.40524
7.24367
7.01895
6.74203
6.3937
6.06848
5.80704
5.72672
5.6445
5.41013
5.29301
5.14012
5.11251
5.34219
5.02404
4.92828
4.92742
5.1914
5.49065
5.96274
6.52609
6.75462
7.12094
7.98492
9.34438
10.2626
11.8867
15.3221
18.545
21.6067
25.4752
30.5963
36.9309
24.0096
29.6951
34.6697
39.0109
42.945
46.4924
49.7185
52.6718
55.3982
57.9355
60.3155
62.5682
64.7153
66.7765
68.7659
70.6952
72.5728
74.4082
76.2074
77.9751
79.7145
81.4294
83.1221
84.7944
86.4488
88.0872
89.7092
91.315
92.9077
94.4867
96.0528
97.6062
99.1482
100.677
102.193
103.699
105.192
106.673
108.143
109.601
111.035
112.47
114.034
28.1219
31.3539
34.6701
38.0562
41.4897
44.8352
48.0568
51.1316
54.0553
56.8315
59.4703
61.9836
64.3797
66.6716
68.8693
70.9794
73.0116
74.9739
76.8722
78.7122
80.499
82.2369
83.9303
85.5828
87.1989
88.7802
90.3305
91.8508
93.3458
94.8171
96.265
97.6931
99.1019
100.494
101.87
103.233
104.581
105.918
107.245
108.561
109.854
111.153
112.574
32.367
35.8392
38.7709
41.6193
44.4988
47.3475
50.1506
52.8782
55.5198
58.0717
60.5275
62.8903
65.1624
67.349
69.4536
71.4832
73.4418
75.3365
77.1702
78.9495
80.6774
82.3598
83.9994
85.5984
87.1602
88.6878
90.1845
91.652
93.0911
94.505
95.8952
97.2635
98.6102
99.9379
101.246
102.537
103.811
105.07
106.316
107.547
108.755
109.97
111.306
33.9313
37.5657
40.3691
43.1075
45.8485
48.5493
51.1963
53.7743
56.2751
58.6968
61.0362
63.2931
65.4715
67.5754
69.6063
71.5686
73.468
75.3089
77.0939
78.8282
80.513
82.1537
83.7522
85.3116
86.8343
88.3224
89.7784
91.2054
92.6038
93.9757
95.3245
96.6499
97.9522
99.2351
100.498
101.742
102.969
104.179
105.376
106.557
107.713
108.876
110.166
35.081
38.6852
41.3437
43.988
46.6335
49.254
51.8292
54.3436
56.7902
59.1605
61.4563
63.676
65.8201
67.8922
69.8942
71.8298
73.7041
75.5179
77.2769
78.9829
80.638
82.247
83.8121
85.3353
86.8197
88.2672
89.6808
91.0606
92.412
93.7354
95.0321
96.3029
97.5513
98.7768
99.9809
101.165
102.33
103.48
104.616
105.735
106.83
107.928
109.153
35.997
39.7134
42.3799
44.9783
47.5412
50.0835
52.588
55.0404
57.4324
59.7551
62.0096
64.1946
66.3061
68.3456
70.3169
72.2238
74.0694
75.8554
77.5861
79.2624
80.8851
82.4609
83.9915
85.4774
86.9229
88.329
89.6977
91.0329
92.3381
93.6148
94.863
96.0827
97.2784
98.448
99.5954
100.719
101.826
102.915
103.989
105.045
106.077
107.109
108.254
37.5068
41.2641
43.6932
46.046
48.446
50.8751
53.3
55.6898
58.0267
60.2988
62.511
64.666
66.7436
68.7453
70.6861
72.5673
74.3884
76.1486
77.8538
79.5008
81.0937
82.6394
84.1389
85.591
87.0043
88.3737
89.7039
91.0001
92.267
93.5058
94.7117
95.8866
97.0393
98.1622
99.2596
100.33
101.384
102.422
103.444
104.443
105.421
106.397
107.467
37.227
41.9326
44.2194
46.6143
49.031
51.4497
53.8762
56.2533
58.5764
60.8132
63.0196
65.1783
67.2286
69.197
71.1283
73.0015
74.8083
76.5465
78.2402
79.8593
81.4277
82.9528
84.4241
85.837
87.2234
88.5484
89.8349
91.0946
92.331
93.5405
94.6984
95.8229
96.9363
98.0014
99.0401
100.046
101.046
102.035
103
103.936
104.856
105.777
106.787
45.3445
48.0346
46.5213
47.5737
49.6777
51.9012
54.3421
56.6531
58.9343
61.0766
63.2471
65.4481
67.4202
69.2988
71.2581
73.0943
74.8839
76.578
78.2819
79.8347
81.3761
82.8756
84.3184
85.6862
87.0802
88.3399
89.6047
90.8491
92.0732
93.2563
94.3438
95.4325
96.5449
97.5457
98.5707
99.5408
100.546
101.528
102.468
103.361
104.272
105.204
106.218
-262.418
-251.05
-239.227
-228.829
-216.952
-203.46
-189.637
-176.176
-163.179
-150.713
-138.974
-127.995
-117.853
-108.551
-100.038
-92.3196
-85.3335
-79.0272
-73.3332
-68.1976
-63.5589
-59.353
-55.5064
-51.957
-48.6613
-45.5746
-42.6616
-39.8965
-37.2541
-34.7163
-32.2622
-29.8825
-27.5658
-25.2995
-23.078
-20.9001
-18.7596
-16.6541
-14.5795
-12.5377
-10.5269
-8.56209
-6.71963
-193.314
-192.773
-190.874
-188.484
-186.481
-184.834
-182.842
-180.032
-176.301
-171.707
-166.402
-160.397
-153.86
-146.884
-139.6
-132.155
-124.669
-117.278
-110.064
-103.113
-96.486
-90.2041
-84.2856
-78.7265
-73.517
-68.6249
-64.0221
-59.6839
-55.5795
-51.6876
-47.9884
-44.4623
-41.0902
-37.8577
-34.7517
-31.7615
-28.876
-26.0856
-23.3821
-20.7586
-18.2131
-15.7487
-13.4653
-203.824
-203.496
-203.438
-203.193
-202.33
-200.715
-198.522
-195.966
-193.038
-189.573
-185.482
-180.747
-175.416
-169.515
-163.13
-156.337
-149.232
-141.925
-134.521
-127.135
-119.858
-112.763
-105.92
-99.364
-93.1176
-87.1831
-81.5526
-76.2229
-71.1682
-66.3688
-61.8068
-57.4628
-53.3162
-49.3555
-45.5657
-41.9306
-38.4393
-35.0818
-31.8454
-28.7222
-25.7051
-22.7868
-20.097
-195.246
-195.057
-194.714
-194.26
-193.704
-193.018
-192.156
-191.056
-189.691
-188.09
-186.201
-183.895
-181.079
-177.667
-173.628
-168.96
-163.682
-157.843
-151.539
-144.886
-137.991
-130.966
-123.945
-117.004
-110.227
-103.665
-97.349
-91.2975
-85.5114
-79.9917
-74.7269
-69.7039
-64.9041
-60.3174
-55.9306
-51.7272
-47.6956
-43.8249
-40.1033
-36.5212
-33.0721
-29.7452
-26.834
-195.223
-195.12
-195.027
-194.887
-194.672
-194.352
-193.887
-193.232
-192.349
-191.192
-189.749
-188.011
-185.928
-183.438
-180.49
-177.047
-173.067
-168.523
-163.432
-157.828
-151.784
-145.366
-138.713
-131.901
-125.058
-118.259
-111.587
-105.086
-98.7939
-92.7312
-86.9035
-81.3151
-75.959
-70.8244
-65.903
-61.1847
-56.6576
-52.3111
-48.1334
-44.1106
-40.2315
-36.465
-33.1758
-192.664
-192.573
-192.447
-192.277
-192.058
-191.78
-191.43
-190.988
-190.432
-189.736
-188.864
-187.78
-186.451
-184.829
-182.853
-180.475
-177.643
-174.305
-170.441
-166.019
-161.072
-155.613
-149.726
-143.491
-137.015
-130.389
-123.723
-117.091
-110.56
-104.186
-97.991
-91.9998
-86.2224
-80.6548
-75.2997
-70.1496
-65.1971
-60.4362
-55.8543
-51.441
-47.1882
-43.0721
-39.5838
-191.319
-191.242
-191.16
-191.052
-190.913
-190.731
-190.495
-190.19
-189.797
-189.296
-188.664
-187.869
-186.882
-185.672
-184.197
-182.41
-180.265
-177.715
-174.715
-171.225
-167.231
-162.708
-157.685
-152.207
-146.339
-140.162
-133.782
-127.284
-120.758
-114.282
-107.902
-101.669
-95.6049
-89.7234
-84.0368
-78.5444
-73.2458
-68.1374
-63.2146
-58.4702
-53.9006
-49.4767
-45.7636
-189.586
-189.517
-189.439
-189.337
-189.211
-189.054
-188.858
-188.615
-188.312
-187.936
-187.468
-186.888
-186.169
-185.283
-184.2
-182.874
-181.264
-179.329
-177.013
-174.275
-171.08
-167.392
-163.204
-158.516
-153.368
-147.798
-141.897
-135.739
-129.422
-123.033
-116.637
-110.309
-104.085
-98.0031
-92.0817
-86.3337
-80.764
-75.375
-70.1671
-65.1363
-60.2851
-55.5672
-51.5302
-188.015
-187.951
-187.884
-187.801
-187.699
-187.574
-187.419
-187.227
-186.99
-186.695
-186.328
-185.874
-185.312
-184.62
-183.772
-182.735
-181.475
-179.954
-178.124
-175.942
-173.366
-170.358
-166.881
-162.917
-158.478
-153.567
-148.244
-142.56
-136.604
-130.458
-124.197
-117.911
-111.652
-105.473
-99.4118
-93.4904
-87.7239
-82.1202
-76.6872
-71.4247
-66.3436
-61.4094
-57.3463
-186.348
-186.288
-186.227
-186.151
-186.061
-185.953
-185.821
-185.66
-185.463
-185.222
-184.925
-184.56
-184.112
-183.562
-182.887
-182.064
-181.062
-179.849
-178.384
-176.627
-174.534
-172.067
-169.18
-165.847
-162.05
-157.777
-153.053
-147.908
-142.408
-136.619
-130.618
-124.492
-118.311
-112.136
-106.021
-100.004
-94.1079
-88.3514
-82.7442
-77.2873
-71.9937
-66.7949
-62.295
-184.674
-184.616
-184.56
-184.492
-184.413
-184.319
-184.207
-184.071
-183.907
-183.706
-183.46
-183.159
-182.789
-182.337
-181.784
-181.11
-180.29
-179.297
-178.099
-176.658
-174.936
-172.889
-170.481
-167.67
-164.426
-160.732
-156.581
-151.982
-146.977
-141.615
-135.959
-130.091
-124.082
-118.004
-111.919
-105.877
-99.9186
-94.0685
-88.3462
-82.7599
-77.3304
-72.0266
-67.6295
-182.942
-182.887
-182.835
-182.774
-182.703
-182.62
-182.522
-182.405
-182.264
-182.093
-181.885
-181.631
-181.321
-180.942
-180.48
-179.919
-179.237
-178.41
-177.413
-176.213
-174.776
-173.063
-171.036
-168.655
-165.88
-162.689
-159.058
-154.978
-150.471
-145.566
-140.306
-134.763
-129.003
-123.098
-117.119
-111.123
-105.162
-99.2703
-93.4771
-87.7959
-82.249
-76.7783
-71.7784
-181.177
-181.123
-181.075
-181.018
-180.954
-180.88
-180.793
-180.691
-180.568
-180.421
-180.243
-180.026
-179.761
-179.439
-179.046
-178.569
-177.991
-177.291
-176.448
-175.434
-174.218
-172.767
-171.043
-169.01
-166.627
-163.865
-160.692
-157.087
-153.054
-148.601
-143.762
-138.584
-133.126
-127.457
-121.648
-115.758
-109.851
-103.97
-98.1508
-92.4166
-86.7922
-81.2397
-75.8776
-179.368
-179.316
-179.27
-179.218
-179.159
-179.092
-179.015
-178.924
-178.817
-178.689
-178.534
-178.346
-178.117
-177.839
-177.5
-177.09
-176.593
-175.993
-175.27
-174.401
-173.359
-172.115
-170.636
-168.886
-166.827
-164.427
-161.647
-158.467
-154.87
-150.848
-146.429
-141.634
-136.51
-131.123
-125.531
-119.805
-114.004
-108.182
-102.384
-96.6421
-90.9879
-85.4264
-79.8237
-177.522
-177.471
-177.428
-177.38
-177.325
-177.264
-177.195
-177.114
-177.019
-176.906
-176.77
-176.607
-176.407
-176.164
-175.869
-175.512
-175.08
-174.558
-173.931
-173.177
-172.275
-171.198
-169.915
-168.396
-166.604
-164.506
-162.065
-159.254
-156.049
-152.43
-148.411
-143.999
-139.229
-134.152
-128.818
-123.296
-117.644
-111.922
-106.184
-100.467
-94.8042
-89.2257
-83.3997
-175.644
-175.593
-175.552
-175.506
-175.455
-175.399
-175.336
-175.264
-175.179
-175.078
-174.959
-174.814
-174.639
-174.426
-174.167
-173.852
-173.473
-173.015
-172.465
-171.805
-171.016
-170.073
-168.95
-167.621
-166.05
-164.208
-162.056
-159.564
-156.704
-153.452
-149.806
-145.762
-141.347
-136.587
-131.536
-126.25
-120.788
-115.207
-109.566
-103.91
-98.2735
-92.7186
-86.9144
-173.731
-173.681
-173.643
-173.6
-173.553
-173.501
-173.444
-173.378
-173.302
-173.213
-173.107
-172.978
-172.823
-172.634
-172.404
-172.126
-171.79
-171.386
-170.899
-170.316
-169.618
-168.788
-167.797
-166.625
-165.239
-163.609
-161.701
-159.484
-156.929
-154.005
-150.7
-147.006
-142.934
-138.499
-133.747
-128.718
-123.468
-118.057
-112.544
-106.979
-101.403
-95.8812
-90.3521
-171.795
-171.745
-171.708
-171.667
-171.623
-171.575
-171.523
-171.463
-171.394
-171.314
-171.218
-171.104
-170.966
-170.798
-170.593
-170.345
-170.046
-169.685
-169.251
-168.732
-168.112
-167.373
-166.493
-165.451
-164.219
-162.769
-161.07
-159.089
-156.799
-154.167
-151.173
-147.802
-144.056
-139.937
-135.483
-130.721
-125.709
-120.498
-115.145
-109.701
-104.216
-98.7502
-93.5808
-169.835
-169.785
-169.749
-169.711
-169.669
-169.625
-169.576
-169.521
-169.459
-169.386
-169.3
-169.198
-169.075
-168.924
-168.741
-168.519
-168.25
-167.927
-167.539
-167.073
-166.517
-165.856
-165.069
-164.136
-163.035
-161.739
-160.218
-158.442
-156.381
-154.005
-151.289
-148.214
-144.772
-140.96
-136.8
-132.317
-127.552
-122.55
-117.366
-112.054
-106.667
-101.204
-96.1756
-167.854
-167.805
-167.771
-167.734
-167.695
-167.653
-167.608
-167.558
-167.501
-167.435
-167.358
-167.266
-167.155
-167.02
-166.855
-166.655
-166.413
-166.121
-165.771
-165.352
-164.851
-164.255
-163.548
-162.709
-161.719
-160.552
-159.183
-157.583
-155.722
-153.573
-151.107
-148.299
-145.139
-141.616
-137.738
-133.526
-129.012
-124.24
-119.254
-114.105
-108.858
-103.508
-98.8324
-165.856
-165.808
-165.775
-165.74
-165.703
-165.664
-165.622
-165.576
-165.524
-165.464
-165.394
-165.311
-165.211
-165.09
-164.941
-164.76
-164.541
-164.277
-163.96
-163.58
-163.126
-162.587
-161.947
-161.188
-160.292
-159.239
-158.001
-156.554
-154.869
-152.918
-150.673
-148.107
-145.202
-141.948
-138.347
-134.402
-130.136
-125.591
-120.806
-115.827
-110.719
-105.438
-100.664
-163.846
-163.799
-163.768
-163.734
-163.699
-163.663
-163.624
-163.581
-163.533
-163.478
-163.415
-163.339
-163.249
-163.139
-163.005
-162.841
-162.642
-162.402
-162.114
-161.768
-161.356
-160.865
-160.283
-159.594
-158.781
-157.824
-156.7
-155.385
-153.853
-152.077
-150.028
-147.681
-145.017
-142.016
-138.665
-134.974
-130.963
-126.649
-122.072
-117.269
-112.303
-107.137
-102.415
-161.83
-161.783
-161.752
-161.719
-161.686
-161.651
-161.615
-161.575
-161.531
-161.48
-161.422
-161.354
-161.272
-161.172
-161.051
-160.902
-160.721
-160.502
-160.239
-159.923
-159.546
-159.098
-158.567
-157.938
-157.197
-156.324
-155.299
-154.1
-152.703
-151.08
-149.206
-147.053
-144.597
-141.82
-138.711
-135.265
-131.492
-127.41
-123.051
-118.444
-113.643
-108.627
-104.052
-159.803
-159.757
-159.727
-159.696
-159.665
-159.632
-159.598
-159.561
-159.52
-159.474
-159.421
-159.358
-159.284
-159.194
-159.083
-158.948
-158.782
-158.582
-158.341
-158.052
-157.707
-157.297
-156.81
-156.233
-155.554
-154.755
-153.818
-152.721
-151.442
-149.955
-148.236
-146.258
-143.997
-141.435
-138.552
-135.342
-131.801
-127.942
-123.796
-119.385
-114.751
-109.864
-105.359
-157.777
-157.731
-157.702
-157.672
-157.641
-157.61
-157.578
-157.543
-157.505
-157.463
-157.414
-157.357
-157.289
-157.207
-157.106
-156.983
-156.832
-156.648
-156.427
-156.161
-155.844
-155.466
-155.019
-154.489
-153.865
-153.131
-152.269
-151.262
-150.088
-148.723
-147.143
-145.323
-143.237
-140.863
-138.181
-135.184
-131.869
-128.236
-124.3
-120.087
-115.624
-110.865
-105.268
-155.746
-155.701
-155.674
-155.645
-155.616
-155.586
-155.555
-155.523
-155.488
-155.449
-155.404
-155.351
-155.289
-155.214
-155.122
-155.009
-154.871
-154.703
-154.499
-154.255
-153.962
-153.614
-153.201
-152.713
-152.138
-151.462
-150.669
-149.741
-148.658
-147.401
-145.944
-144.263
-142.335
-140.141
-137.653
-134.859
-131.753
-128.334
-124.619
-120.624
-116.384
-111.999
-106.578
-153.719
-153.674
-153.648
-153.62
-153.592
-153.564
-153.535
-153.505
-153.472
-153.435
-153.394
-153.346
-153.289
-153.22
-153.136
-153.033
-152.906
-152.751
-152.563
-152.337
-152.067
-151.745
-151.364
-150.912
-150.381
-149.755
-149.022
-148.165
-147.166
-146.005
-144.659
-143.106
-141.324
-139.286
-136.972
-134.367
-131.461
-128.25
-124.744
-120.968
-116.948
-112.831
-107.944
-151.698
-151.654
-151.627
-151.6
-151.573
-151.545
-151.518
-151.489
-151.459
-151.425
-151.386
-151.342
-151.289
-151.227
-151.15
-151.055
-150.938
-150.796
-150.622
-150.413
-150.163
-149.865
-149.511
-149.093
-148.6
-148.02
-147.341
-146.548
-145.623
-144.547
-143.3
-141.86
-140.203
-138.309
-136.156
-133.731
-131.017
-127.999
-124.687
-121.095
-117.244
-113.246
-108.537
-149.678
-149.635
-149.61
-149.584
-149.558
-149.532
-149.506
-149.479
-149.45
-149.419
-149.383
-149.343
-149.295
-149.237
-149.166
-149.079
-148.972
-148.84
-148.68
-148.486
-148.254
-147.977
-147.648
-147.259
-146.801
-146.263
-145.633
-144.895
-144.036
-143.038
-141.881
-140.545
-139.007
-137.25
-135.247
-132.971
-130.418
-127.583
-124.46
-121.055
-117.376
-113.478
-109.607
-147.672
-147.629
-147.604
-147.578
-147.553
-147.528
-147.503
-147.478
-147.45
-147.421
-147.387
-147.349
-147.305
-147.252
-147.187
-147.107
-147.008
-146.887
-146.738
-146.558
-146.342
-146.085
-145.779
-145.417
-144.99
-144.489
-143.902
-143.216
-142.417
-141.488
-140.412
-139.168
-137.735
-136.091
-134.217
-132.099
-129.716
-127.049
-124.099
-120.865
-117.363
-113.595
-109.834
-145.674
-145.631
-145.606
-145.581
-145.557
-145.533
-145.509
-145.484
-145.459
-145.431
-145.4
-145.365
-145.324
-145.275
-145.215
-145.141
-145.05
-144.937
-144.8
-144.633
-144.432
-144.192
-143.906
-143.568
-143.171
-142.703
-142.156
-141.516
-140.77
-139.904
-138.9
-137.741
-136.405
-134.877
-133.132
-131.145
-128.903
-126.392
-123.61
-120.549
-117.231
-113.637
-110.706
-143.686
-143.644
-143.62
-143.595
-143.572
-143.549
-143.526
-143.503
-143.479
-143.453
-143.424
-143.391
-143.353
-143.307
-143.252
-143.184
-143.1
-142.996
-142.868
-142.712
-142.525
-142.301
-142.034
-141.718
-141.347
-140.909
-140.398
-139.8
-139.104
-138.295
-137.357
-136.275
-135.028
-133.595
-131.953
-130.09
-127.99
-125.631
-123.007
-120.105
-116.939
-113.446
-110.381
-141.711
-141.669
-141.647
-141.623
-141.6
-141.578
-141.556
-141.534
-141.511
-141.486
-141.459
-141.429
-141.393
-141.351
-141.3
-141.237
-141.159
-141.063
-140.944
-140.799
-140.624
-140.414
-140.165
-139.87
-139.521
-139.112
-138.632
-138.072
-137.421
-136.664
-135.787
-134.773
-133.603
-132.261
-130.73
-128.987
-127.01
-124.782
-122.298
-119.542
-116.528
-113.177
-110.207
-139.751
-139.71
-139.688
-139.665
-139.642
-139.621
-139.6
-139.579
-139.557
-139.534
-139.508
-139.48
-139.447
-139.408
-139.36
-139.302
-139.23
-139.14
-139.03
-138.894
-138.731
-138.535
-138.301
-138.024
-137.697
-137.313
-136.864
-136.34
-135.729
-135.018
-134.196
-133.246
-132.151
-130.897
-129.46
-127.817
-125.957
-123.863
-121.519
-118.909
-116.04
-112.861
-110.075
-137.81
-137.769
-137.746
-137.723
-137.702
-137.68
-137.66
-137.64
-137.619
-137.597
-137.573
-137.546
-137.515
-137.479
-137.435
-137.381
-137.314
-137.231
-137.128
-137.001
-136.848
-136.664
-136.445
-136.185
-135.878
-135.517
-135.094
-134.601
-134.027
-133.361
-132.589
-131.697
-130.667
-129.483
-128.13
-126.591
-124.843
-122.866
-120.647
-118.177
-115.448
-112.385
-109.873
-135.882
-135.842
-135.82
-135.797
-135.776
-135.756
-135.736
-135.716
-135.696
-135.675
-135.653
-135.627
-135.599
-135.565
-135.524
-135.474
-135.412
-135.334
-135.237
-135.119
-134.976
-134.804
-134.598
-134.353
-134.064
-133.725
-133.328
-132.864
-132.325
-131.697
-130.971
-130.133
-129.17
-128.063
-126.79
-125.336
-123.684
-121.817
-119.717
-117.36
-114.726
-111.691
-108.309
-133.972
-133.932
-133.911
-133.889
-133.869
-133.849
-133.83
-133.811
-133.792
-133.772
-133.75
-133.726
-133.699
-133.667
-133.63
-133.583
-133.525
-133.453
-133.363
-133.253
-133.118
-132.956
-132.762
-132.532
-132.261
-131.941
-131.566
-131.129
-130.62
-130.03
-129.347
-128.557
-127.645
-126.598
-125.404
-124.041
-122.486
-120.724
-118.74
-116.525
-114.066
-111.334
-108.186
-132.081
-132.042
-132.021
-132
-131.98
-131.961
-131.942
-131.924
-131.906
-131.887
-131.866
-131.843
-131.818
-131.788
-131.753
-131.709
-131.655
-131.587
-131.503
-131.4
-131.274
-131.121
-130.939
-130.722
-130.465
-130.164
-129.811
-129.398
-128.919
-128.362
-127.718
-126.973
-126.115
-125.133
-124.004
-122.711
-121.249
-119.598
-117.736
-115.651
-113.358
-110.908
-107.824
-130.213
-130.174
-130.153
-130.132
-130.112
-130.093
-130.074
-130.057
-130.039
-130.021
-130.001
-129.98
-129.955
-129.927
-129.894
-129.853
-129.803
-129.74
-129.661
-129.564
-129.445
-129.302
-129.13
-128.925
-128.683
-128.399
-128.065
-127.676
-127.222
-126.696
-126.088
-125.387
-124.579
-123.648
-122.583
-121.37
-119.986
-118.416
-116.649
-114.673
-112.476
-110.063
-106.966
-128.362
-128.324
-128.303
-128.283
-128.263
-128.244
-128.226
-128.209
-128.192
-128.174
-128.155
-128.135
-128.112
-128.085
-128.054
-128.016
-127.969
-127.91
-127.836
-127.745
-127.634
-127.499
-127.336
-127.143
-126.914
-126.645
-126.329
-125.96
-125.532
-125.035
-124.46
-123.796
-123.032
-122.156
-121.153
-120.004
-118.699
-117.22
-115.55
-113.677
-111.594
-109.309
-106.811
-126.533
-126.495
-126.475
-126.454
-126.435
-126.416
-126.399
-126.382
-126.365
-126.348
-126.33
-126.311
-126.289
-126.264
-126.234
-126.198
-126.154
-126.099
-126.03
-125.944
-125.839
-125.712
-125.558
-125.375
-125.159
-124.904
-124.605
-124.257
-123.852
-123.381
-122.837
-122.209
-121.484
-120.651
-119.698
-118.614
-117.379
-115.974
-114.39
-112.611
-110.634
-108.464
-105.423
-124.723
-124.685
-124.666
-124.646
-124.627
-124.609
-124.592
-124.576
-124.56
-124.543
-124.526
-124.508
-124.487
-124.463
-124.435
-124.401
-124.36
-124.308
-124.243
-124.162
-124.063
-123.943
-123.798
-123.625
-123.42
-123.179
-122.895
-122.565
-122.18
-121.735
-121.219
-120.625
-119.941
-119.157
-118.257
-117.226
-116.054
-114.727
-113.228
-111.536
-109.65
-107.595
-105.853
-122.937
-122.9
-122.881
-122.861
-122.842
-122.825
-122.808
-122.792
-122.776
-122.76
-122.744
-122.726
-122.706
-122.683
-122.657
-122.625
-122.585
-122.537
-122.476
-122.4
-122.306
-122.193
-122.055
-121.891
-121.697
-121.468
-121.199
-120.886
-120.521
-120.098
-119.609
-119.045
-118.395
-117.648
-116.794
-115.82
-114.708
-113.444
-112.016
-110.409
-108.61
-106.6
-104.593
-121.174
-121.138
-121.119
-121.099
-121.08
-121.063
-121.047
-121.031
-121.015
-121
-120.984
-120.966
-120.947
-120.925
-120.9
-120.87
-120.833
-120.787
-120.729
-120.658
-120.57
-120.462
-120.332
-120.177
-119.992
-119.775
-119.52
-119.222
-118.876
-118.474
-118.01
-117.474
-116.858
-116.153
-115.343
-114.415
-113.362
-112.166
-110.806
-109.269
-107.544
-105.558
-103.647
-119.433
-119.396
-119.378
-119.358
-119.34
-119.323
-119.307
-119.291