/*--------------------------------*- C++ -*----------------------------------*\
| =========                 |                                                 |
| \\      /  F ield         | OpenFOAM: The Open Source CFD Toolbox           |
|  \\    /   O peration     | Version:  2.3.0                                 |
|   \\  /    A nd           | Web:      www.OpenFOAM.org                      |
|    \\/     M anipulation  |                                                 |
\*---------------------------------------------------------------------------*/
FoamFile
{
    version     2.0;
    format      ascii;
    class       volScalarField;
    location    "1000";
    object      nut;
}
// * * * * * * * * * * * * * * * * * * * * * * * * * * * * * * * * * * * * * //

dimensions      [0 2 -1 0 0 0 0];

internalField   nonuniform List<scalar> 
39563
(
0.0527381
0.0510172
0.0493131
0.0476277
0.0459637
0.0443222
0.0427036
0.0411099
0.0395417
0.0380009
0.0364892
0.0350085
0.0335616
0.0321524
0.0307847
0.0294604
0.0281809
0.02695
0.025765
0.0246112
0.0234762
0.02236
0.0212672
0.0202009
0.0191649
0.0181604
0.0171878
0.0162471
0.0153371
0.0144567
0.0136036
0.0127755
0.0119692
0.0111815
0.0104086
0.00964791
0.0088968
0.00815435
0.00742234
0.00670561
0.00601526
0.00538739
0.00500279
0.0547121
0.0532029
0.0517064
0.0502253
0.0487614
0.047315
0.0458869
0.0444775
0.0430869
0.0417156
0.0403645
0.039034
0.037725
0.0364384
0.0351749
0.0339352
0.0327204
0.0315303
0.0303659
0.0292257
0.0281081
0.0270124
0.0259409
0.0248935
0.0238721
0.0228786
0.0219151
0.0209827
0.0200836
0.0192203
0.0183958
0.0176143
0.0168798
0.0161973
0.0155745
0.0150189
0.0145401
0.0141504
0.0138607
0.0136848
0.0136389
0.0137357
0.0139869
0.0565044
0.0551712
0.0538493
0.0525399
0.051244
0.0499621
0.0486947
0.0474414
0.0462027
0.0449787
0.0437691
0.0425748
0.0413962
0.0402335
0.0390873
0.0379583
0.0368469
0.0357537
0.0346795
0.0336246
0.0325897
0.0315757
0.0305828
0.0296131
0.0286677
0.0277479
0.026856
0.0259948
0.0251667
0.0243744
0.0236227
0.0229147
0.0222571
0.0216548
0.0211147
0.0206456
0.0202553
0.0199537
0.0197503
0.0196543
0.0196734
0.0198134
0.0200756
0.0581242
0.0569422
0.0557694
0.0546061
0.0534529
0.0523098
0.0511778
0.0500568
0.0489465
0.0478467
0.0467576
0.0456794
0.0446122
0.0435568
0.042513
0.041482
0.0404639
0.0394592
0.0384693
0.0374946
0.036536
0.035595
0.0346732
0.0337712
0.0328908
0.0320345
0.0312035
0.0304009
0.0296298
0.0288931
0.028195
0.0275409
0.0269357
0.026385
0.0258953
0.0254746
0.0251305
0.0248712
0.0247039
0.0246366
0.0246751
0.0248228
0.0250813
0.0595858
0.058535
0.0574908
0.0564525
0.0554203
0.0543951
0.0533772
0.0523671
0.0513651
0.0503708
0.0493836
0.0484033
0.0474303
0.0464652
0.0455087
0.0445608
0.0436222
0.0426932
0.0417748
0.0408681
0.0399742
0.0390945
0.0382306
0.0373842
0.0365569
0.0357514
0.0349697
0.034214
0.0334871
0.0327934
0.0321362
0.0315209
0.0309531
0.0304384
0.0299831
0.029594
0.029279
0.0290447
0.0288988
0.0288465
0.0288934
0.029043
0.0292955
0.0609006
0.0599656
0.0590325
0.0581017
0.0571733
0.0562482
0.0553265
0.0544099
0.0534992
0.0525943
0.0516937
0.0507965
0.0499032
0.0490139
0.0481303
0.0472532
0.0463821
0.0455173
0.0446597
0.0438104
0.0429705
0.0421418
0.0413259
0.0405246
0.0397402
0.0389755
0.038233
0.0375148
0.0368237
0.0361633
0.0355378
0.0349522
0.0344123
0.0339228
0.0334914
0.0331247
0.0328287
0.0326111
0.0324779
0.0324346
0.0324851
0.0326332
0.0328794
0.0620855
0.061251
0.060414
0.0595751
0.0587361
0.0578965
0.0570564
0.0562182
0.0553838
0.0545533
0.0537263
0.0529015
0.0520762
0.051251
0.0504283
0.0496103
0.0487969
0.0479878
0.0471829
0.0463825
0.0455883
0.0448027
0.044027
0.0432633
0.0425131
0.0417806
0.0410701
0.0403823
0.0397198
0.0390863
0.0384857
0.0379231
0.0374042
0.0369343
0.0365201
0.0361688
0.0358861
0.0356794
0.0355548
0.0355174
0.0355703
0.0357157
0.0359555
0.0631561
0.062407
0.0616525
0.0608921
0.0601302
0.059365
0.0585951
0.0578221
0.0570506
0.0562811
0.0555153
0.0547526
0.0539888
0.0532183
0.0524454
0.0516756
0.0509107
0.0501492
0.0493907
0.0486341
0.0478793
0.0471302
0.0463898
0.0456598
0.0449383
0.0442295
0.0435445
0.0428821
0.0422436
0.0416321
0.0410516
0.0405069
0.0400046
0.03955
0.0391491
0.0388082
0.0385346
0.0383347
0.0382158
0.0381837
0.0382401
0.0383834
0.0386154
0.0641284
0.06345
0.062768
0.0620703
0.0613733
0.0606721
0.059966
0.0592466
0.058527
0.0578028
0.0570814
0.0563663
0.0556577
0.0549391
0.0542067
0.0534742
0.052747
0.0520246
0.0513063
0.0505906
0.0498707
0.0491528
0.0484396
0.0477419
0.0470562
0.046363
0.0456968
0.0450547
0.0444372
0.043846
0.0432843
0.042755
0.0422671
0.0418271
0.0414372
0.0411039
0.0408393
0.0406442
0.0405283
0.0405014
0.0405662
0.0407119
0.0409316
0.00587253
0.00756155
0.00870327
0.00985775
0.011085
0.0123783
0.0137241
0.0151084
0.0165217
0.017958
0.0194128
0.0208838
0.0223684
0.0238648
0.0253719
0.0268889
0.0284155
0.0299505
0.0314937
0.0330445
0.0346032
0.0361693
0.0377422
0.0393218
0.0409078
0.0424999
0.0440977
0.0457008
0.0473092
0.048922
0.0505388
0.0521593
0.053783
0.0554092
0.0570371
0.0586664
0.0602961
0.061926
0.0635556
0.065184
0.0668109
0.0684355
0.0700473
0.0143998
0.0149776
0.0157017
0.0165598
0.0175342
0.0186065
0.0197587
0.0209757
0.0222437
0.0235516
0.0248911
0.0262548
0.0276378
0.0290359
0.0304457
0.0318652
0.0332922
0.0347251
0.0361632
0.0376054
0.0390511
0.0404998
0.0419511
0.0434042
0.044859
0.0463155
0.0477734
0.0492324
0.0506925
0.0521531
0.0536141
0.0550752
0.0565364
0.0579973
0.0594572
0.0609162
0.0623741
0.0638304
0.0652851
0.0667378
0.0681884
0.069636
0.071072
0.0204585
0.0209671
0.0216011
0.0223521
0.0232089
0.0241582
0.0251868
0.0262821
0.0274321
0.0286265
0.0298569
0.0311151
0.0323952
0.0336928
0.0350034
0.0363237
0.0376511
0.0389839
0.0403203
0.0416587
0.0429982
0.0443382
0.045678
0.0470167
0.0483543
0.0496906
0.0510252
0.0523577
0.0536885
0.055017
0.056343
0.0576666
0.0589876
0.0603059
0.0616214
0.0629339
0.0642436
0.0655503
0.066854
0.0681546
0.0694522
0.0707467
0.0720475
0.0254474
0.0259245
0.026513
0.0272054
0.0279945
0.0288696
0.0298192
0.0308326
0.0319002
0.0330119
0.0341593
0.0353351
0.0365332
0.0377487
0.0389771
0.0402143
0.0414577
0.0427053
0.0439546
0.0452045
0.0464532
0.0477
0.0489444
0.0501856
0.0514232
0.0526568
0.0538862
0.0551112
0.0563317
0.0575475
0.0587585
0.0599647
0.0611661
0.0623628
0.0635545
0.0647415
0.065924
0.0671019
0.0682754
0.0694444
0.0706086
0.0717673
0.0729226
0.0296496
0.0301063
0.0306651
0.0313197
0.0320637
0.0328877
0.0337819
0.0347364
0.0357425
0.0367915
0.037875
0.038986
0.0401186
0.0412674
0.042428
0.0435963
0.0447699
0.0459461
0.0471223
0.0482973
0.0494695
0.050638
0.0518018
0.0529603
0.0541132
0.05526
0.0564005
0.0575345
0.0586618
0.059782
0.0608952
0.0620016
0.063101
0.0641938
0.0652801
0.0663596
0.0674328
0.0684999
0.0695609
0.0706158
0.0716647
0.0727069
0.0737427
0.0332237
0.0336656
0.0342029
0.0348306
0.0355419
0.0363281
0.0371806
0.0380907
0.0390497
0.0400499
0.0410835
0.0421429
0.0432229
0.0443178
0.0454228
0.0465344
0.0476501
0.0487669
0.0498821
0.0509943
0.0521023
0.0532049
0.054301
0.0553897
0.056471
0.0575445
0.0586104
0.0596678
0.0607161
0.0617552
0.0627852
0.0638066
0.0648192
0.0658235
0.0668195
0.0678066
0.0687856
0.0697571
0.070721
0.0716774
0.0726263
0.0735675
0.0745008
0.0362911
0.0367214
0.0372429
0.0378502
0.0385358
0.0392918
0.0401112
0.0409868
0.0419093
0.0428706
0.0438636
0.0448816
0.0459188
0.0469693
0.0480281
0.0490924
0.05016
0.0512271
0.0522908
0.0533504
0.0544048
0.0554517
0.0564901
0.0575195
0.0585403
0.0595525
0.0605557
0.0615481
0.0625286
0.0634979
0.0644571
0.0654061
0.0663446
0.0672735
0.0681918
0.0690989
0.0699971
0.0708862
0.0717661
0.0726372
0.0734994
0.0743527
0.0751973
0.0389422
0.0393635
0.0398745
0.040466
0.0411318
0.0418599
0.0426519
0.0434997
0.0443929
0.0453226
0.0462822
0.047266
0.0482689
0.0492818
0.0503013
0.0513264
0.0523541
0.0533787
0.0543981
0.0554131
0.0564234
0.0574228
0.0584107
0.0593889
0.0603586
0.0613194
0.0622701
0.0632065
0.0641277
0.0650368
0.0659364
0.066824
0.067698
0.0685645
0.0694153
0.0702516
0.0710814
0.0718993
0.0727061
0.0735034
0.0742907
0.0750662
0.0758316
0.041247
0.0416627
0.0421692
0.0427494
0.0434043
0.0440943
0.0448632
0.0456879
0.0465561
0.04746
0.0483922
0.0493481
0.0503239
0.0513001
0.0522849
0.0532787
0.0542745
0.0552586
0.0562392
0.0572183
0.0581934
0.0591469
0.0600895
0.0610254
0.0619534
0.0628722
0.0637803
0.0646644
0.0655324
0.0663919
0.0672452
0.0680804
0.0688976
0.0697183
0.0705056
0.071276
0.0720519
0.0728046
0.0735488
0.074284
0.0750092
0.0757155
0.0764147
0.0497838
0.0469998
0.0443521
0.0418347
0.0394416
0.0371666
0.035004
0.0329486
0.0309951
0.0291386
0.0273742
0.0256972
0.0241036
0.0225896
0.0211507
0.0197838
0.018485
0.0172514
0.0160795
0.0149666
0.0139098
0.0129063
0.0119544
0.0110508
0.0101941
0.00938179
0.00861243
0.00788361
0.00719366
0.00654143
0.00592511
0.00534379
0.00479602
0.00428148
0.00379981
0.00335166
0.00294049
0.00256863
0.00224515
0.00200916
0.00177562
0.00148068
0.00105137
0.0496334
0.047067
0.0446164
0.0422771
0.0400441
0.0379124
0.0358778
0.0339358
0.032082
0.0303128
0.0286237
0.0270112
0.025472
0.0240029
0.0226004
0.0212615
0.0199831
0.0187623
0.0175969
0.0164843
0.0154219
0.0144082
0.0134404
0.0125172
0.0116371
0.0107987
0.0100007
0.00924199
0.00852182
0.00783944
0.00719461
0.00658721
0.00601907
0.00549251
0.00501348
0.00458888
0.00422781
0.00395254
0.00367145
0.0033537
0.00297451
0.00249461
0.00184173
0.049481
0.047114
0.0448457
0.0426719
0.0405887
0.0385922
0.0366789
0.0348451
0.0330878
0.0314032
0.0297886
0.0282408
0.0267572
0.0253351
0.0239718
0.0226645
0.0214108
0.0202086
0.0190555
0.0179488
0.0168867
0.0158675
0.0148893
0.0139509
0.0130508
0.0121888
0.0113645
0.0105771
0.00982682
0.00911418
0.00844018
0.00780682
0.00721856
0.00668344
0.00621104
0.00581148
0.00549478
0.00517382
0.00482069
0.00440992
0.00391109
0.00328375
0.00246724
0.0493343
0.0471476
0.0450439
0.0430203
0.0410736
0.0392011
0.0373997
0.0356666
0.0339994
0.0323954
0.0308522
0.0293672
0.0279386
0.0265641
0.0252416
0.023969
0.0227439
0.0215647
0.0204287
0.0193339
0.0182784
0.0172596
0.0162763
0.0153269
0.0144103
0.0135265
0.0126759
0.0118589
0.0110772
0.010332
0.00962564
0.00896196
0.00834858
0.00779821
0.00732392
0.00694312
0.00657814
0.00619418
0.00576658
0.0052687
0.00466868
0.00392426
0.00298176
0.0492059
0.0471806
0.0452251
0.0433373
0.0415144
0.0397547
0.0380557
0.0364154
0.0348318
0.0333033
0.0318273
0.0304025
0.0290276
0.0277004
0.0264195
0.0251829
0.0239891
0.0228362
0.021722
0.0206444
0.019601
0.018589
0.017606
0.0166499
0.0157192
0.0148146
0.0139367
0.0130881
0.0122718
0.0114906
0.0107478
0.0100491
0.00940345
0.00882718
0.0083321
0.00792265
0.00750994
0.00706779
0.00657248
0.0059972
0.00530881
0.00446483
0.00341466
0.0491049
0.0472247
0.045403
0.0436372
0.0419259
0.040268
0.0386622
0.0371068
0.0356007
0.034142
0.0327291
0.0313611
0.0300373
0.0287564
0.027517
0.0263175
0.0251561
0.0240315
0.0229417
0.0218848
0.0208577
0.0198567
0.0188779
0.0179185
0.016977
0.0160536
0.0151485
0.0142656
0.013411
0.0125901
0.011808
0.0110708
0.0103901
0.00978438
0.0092698
0.00880863
0.00834087
0.00783963
0.00727961
0.00663264
0.00586461
0.00493079
0.00378273
0.0490393
0.0472903
0.045589
0.0439333
0.042322
0.0407553
0.0392334
0.0377555
0.0363206
0.0349269
0.0335722
0.0322568
0.0309809
0.0297446
0.028546
0.0273832
0.0262542
0.0251575
0.0240914
0.0230538
0.0220421
0.0210519
0.0200782
0.0191166
0.0181658
0.0172261
0.0162983
0.0153845
0.014491
0.013629
0.0128053
0.0120279
0.0113085
0.0106677
0.0101228
0.00961253
0.00909131
0.00853285
0.00791115
0.00719701
0.00635501
0.00533876
0.00409999
0.0490149
0.0473863
0.0457946
0.0442375
0.0427155
0.0412296
0.0397818
0.0383737
0.0370045
0.0356714
0.0343709
0.0331031
0.03187
0.0306745
0.0295166
0.0283901
0.0272908
0.0262178
0.0251701
0.0241456
0.0231441
0.0221634
0.021195
0.0202316
0.01927
0.0183124
0.0173654
0.0164304
0.0155055
0.0146035
0.0137395
0.0129213
0.0121629
0.0114846
0.0109039
0.010346
0.00977392
0.0091615
0.00848177
0.00770354
0.00679334
0.00570199
0.00437809
0.0490413
0.0475217
0.0460296
0.0445606
0.0431175
0.0417011
0.0403174
0.0389703
0.037661
0.0363878
0.0351383
0.033913
0.0327154
0.0315527
0.0304359
0.0293462
0.0282696
0.0272126
0.0261769
0.0251596
0.024161
0.0231874
0.022227
0.0212648
0.0202941
0.0193112
0.0183361
0.0173925
0.0164492
0.0155122
0.0146113
0.0137535
0.012959
0.0122435
0.0116261
0.0110189
0.0103979
0.00973408
0.00900084
0.00816078
0.00718829
0.00603707
0.00465353
0.000542341
0.00052211
0.00073571
0.000946148
0.00114551
0.00133524
0.00151712
0.001693
0.00186476
0.00203494
0.00220662
0.00238402
0.00257329
0.00278313
0.00302428
0.00330272
0.00361776
0.00396567
0.00434303
0.00474826
0.00518066
0.00563991
0.00612599
0.00663967
0.00718126
0.00775121
0.0083499
0.0089779
0.00963573
0.010324
0.0110438
0.0117954
0.01258
0.0133987
0.0142522
0.0151417
0.0160678
0.0170314
0.0180335
0.0190745
0.0201553
0.0212758
0.022433
0.00102895
0.000743397
0.000910414
0.00112593
0.00133316
0.00153028
0.0017194
0.00190333
0.00208536
0.00226984
0.00246214
0.00266875
0.00289739
0.00315679
0.00345412
0.00378557
0.00414607
0.00453285
0.00494408
0.00537888
0.00583691
0.00631812
0.00682265
0.00735083
0.00790301
0.0084792
0.00907989
0.00970527
0.0103558
0.0110323
0.0117353
0.0124655
0.0132235
0.0140102
0.0148263
0.0156727
0.0165499
0.0174586
0.0183995
0.019373
0.0203797
0.0214204
0.0224972
0.00149336
0.000972961
0.00107096
0.00128843
0.00150367
0.00170911
0.00190761
0.00210348
0.00230199
0.00250945
0.0027326
0.00297824
0.00325273
0.00356232
0.00390865
0.00428313
0.00468129
0.00510115
0.00554169
0.00600237
0.00648308
0.00698387
0.0075045
0.00804529
0.00860623
0.00918711
0.00978839
0.0104104
0.0110533
0.0117179
0.0124043
0.0131134
0.0138455
0.0146012
0.0153811
0.0161857
0.0170156
0.0178713
0.0187532
0.0196618
0.0205976
0.021561
0.0225524
0.00188425
0.00118838
0.00121393
0.0014309
0.00165389
0.00186876
0.00207938
0.00229175
0.00251297
0.00275014
0.00300964
0.00329669
0.00361568
0.00397121
0.00435738
0.00476663
0.00519585
0.00564366
0.00610923
0.00659226
0.0070924
0.00760966
0.00814395
0.00869486
0.00926251
0.00984663
0.0104475
0.0110655
0.0117005
0.0123533
0.013024
0.013713
0.0144207
0.0151473
0.0158934
0.0166593
0.0174455
0.0182522
0.0190797
0.0199286
0.0207991
0.0216914
0.0226056
0.00220732
0.00137917
0.00134033
0.00155605
0.00178718
0.00201301
0.00223852
0.00247139
0.00271943
0.00298958
0.00328656
0.00361333
0.00397292
0.00436749
0.00478655
0.00522501
0.00568076
0.00615249
0.00663975
0.00714217
0.00765928
0.0081907
0.00873606
0.00929513
0.0098679
0.0104542
0.0110539
0.0116674
0.0122949
0.0129364
0.0135921
0.0142622
0.0149472
0.015647
0.0163619
0.0170923
0.0178384
0.0186003
0.0193783
0.0201728
0.0209841
0.0218126
0.02266
0.00247519
0.00154376
0.00145189
0.00166686
0.00190663
0.00214501
0.002388
0.00264423
0.00292144
0.00322494
0.00355748
0.00392048
0.00431703
0.00474356
0.00519059
0.00565434
0.00613306
0.00662596
0.00713217
0.00765144
0.00818318
0.00872658
0.00928131
0.00984718
0.010424
0.0110115
0.0116098
0.012219
0.0128389
0.0134696
0.0141112
0.0147639
0.0154278
0.0161028
0.0167892
0.017487
0.0181965
0.0189177
0.0196507
0.0203958
0.0211533
0.0219236
0.0227067
0.00269999
0.00168428
0.00155013
0.00176547
0.00201486
0.0022674
0.00252975
0.00281086
0.00311727
0.00345263
0.00381759
0.00421294
0.00464227
0.00509615
0.00556738
0.00605327
0.0065524
0.00706396
0.00758715
0.00812114
0.00866536
0.00921902
0.0097819
0.0103534
0.0109336
0.0115219
0.0121185
0.0127234
0.0133363
0.0139569
0.0145854
0.0152218
0.0158662
0.0165184
0.0171785
0.0178466
0.0185227
0.0192069
0.019899
0.0205993
0.021308
0.0220252
0.0227511
0.00288794
0.00180132
0.0016376
0.00185535
0.00211481
0.00238199
0.00266425
0.00297001
0.00330445
0.00366926
0.0040639
0.00448892
0.00494572
0.00542332
0.00591631
0.0064225
0.00694019
0.00746831
0.00800637
0.00855373
0.00910925
0.00967204
0.0102419
0.0108185
0.0114015
0.0119907
0.0125858
0.0131866
0.0137926
0.0144035
0.0150193
0.0156401
0.016266
0.0168975
0.0175336
0.0181744
0.0188202
0.0194706
0.0201255
0.0207849
0.0214492
0.0221183
0.0227924
0.00309706
0.00192425
0.00171259
0.00192883
0.00219909
0.00248496
0.00279042
0.00312279
0.00348716
0.00388127
0.00430091
0.00475175
0.0052339
0.005736
0.00625194
0.0067774
0.00730961
0.00785016
0.00840185
0.0089636
0.00952876
0.0100981
0.0106752
0.0112559
0.0118403
0.0124312
0.0130248
0.0136209
0.0142193
0.0148182
0.0154191
0.0160234
0.016631
0.0172455
0.0178576
0.0184735
0.0190921
0.0197128
0.0203331
0.0209539
0.021578
0.0222034
0.0228294
0.000200509
0.000789366
0.00169339
0.00261681
0.00351567
0.00439319
0.00525806
0.00612129
0.00698273
0.00784294
0.00870328
0.00956657
0.0104363
0.0113165
0.0122113
0.0131251
0.0140622
0.0150265
0.0160211
0.0170481
0.0181089
0.0192028
0.0203284
0.0214826
0.0226633
0.0238716
0.02511
0.026376
0.0276655
0.0290068
0.030428
0.0319161
0.0334569
0.0350418
0.0366675
0.0383307
0.040028
0.0417568
0.0435139
0.0452978
0.0471063
0.0489359
0.0507839
0.000136325
0.000502831
0.00112841
0.00194681
0.00283563
0.00369097
0.00452218
0.00532146
0.00609901
0.00686538
0.00762999
0.00839865
0.00917532
0.0099639
0.0107683
0.0115929
0.0124418
0.0133196
0.0142304
0.0151782
0.0161658
0.0171952
0.0182671
0.0193809
0.0205347
0.021727
0.0229561
0.0242199
0.0255178
0.0268597
0.0282579
0.0297105
0.0312048
0.0327452
0.0343635
0.0360456
0.0377769
0.0395513
0.0413632
0.0432081
0.0450822
0.0469807
0.0489003
1.19787e-05
0.00030791
0.000721585
0.00127384
0.00196438
0.00278754
0.00374673
0.00470476
0.00561417
0.00647779
0.00730199
0.00809443
0.00886339
0.009617
0.0103628
0.0111081
0.0118608
0.0126285
0.013419
0.01424
0.0150983
0.016
0.0169502
0.0179519
0.0190069
0.0201155
0.0212764
0.0224883
0.0237501
0.0250634
0.0264316
0.0278554
0.0293305
0.0308561
0.0324378
0.0340666
0.0357495
0.0375127
0.0393365
0.0412098
0.0431238
0.0450711
0.0470478
1.53351e-05
0.000264162
0.000611408
0.00106107
0.00162316
0.00229913
0.00309254
0.00400779
0.00499235
0.00595541
0.00688244
0.00777368
0.00863126
0.00945697
0.0102537
0.0110254
0.0117773
0.0125162
0.0132502
0.0139886
0.0147416
0.0155198
0.0163333
0.0171917
0.018103
0.0190732
0.0201065
0.0212049
0.0223697
0.0236013
0.0249001
0.026266
0.0276967
0.02919
0.0307429
0.0323502
0.0340102
0.0357246
0.037489
0.0393381
0.0412549
0.0432243
0.0452354
8.3513e-06
0.000225338
0.000529721
0.000917669
0.00140245
0.00198678
0.00267189
0.0034615
0.00435985
0.00536162
0.00636928
0.00734695
0.00829061
0.00920128
0.0100801
0.0109279
0.0117455
0.0125346
0.0132982
0.0140414
0.0147711
0.0154965
0.0162286
0.0169798
0.0177628
0.0185903
0.0194735
0.0204221
0.0214433
0.0225421
0.0237219
0.0249839
0.0263276
0.0277503
0.0292482
0.0308156
0.0324468
0.0341367
0.0358797
0.03768
0.039537
0.0414825
0.0434937
7.59698e-06
0.000207452
0.000479457
0.000826385
0.00125707
0.00177823
0.00239041
0.00309712
0.00390292
0.00481285
0.00582366
0.00685516
0.00786648
0.00884919
0.00980247
0.0107262
0.0116201
0.0124834
0.0133155
0.0141168
0.014889
0.015636
0.0163638
0.0170815
0.0178005
0.0185346
0.0192989
0.0201087
0.0209788
0.0219219
0.0229485
0.0240658
0.0252781
0.0265866
0.0279888
0.02948
0.0310535
0.0327018
0.0344167
0.0361924
0.0380247
0.0399174
0.0418688
6.53108e-06
0.000198966
0.000438979
0.000755035
0.00114554
0.00161767
0.00217489
0.00281894
0.00355385
0.00438427
0.00531543
0.00634347
0.00739759
0.00843716
0.00945225
0.010441
0.0114026
0.0123361
0.0132398
0.0141122
0.0149518
0.0157584
0.0165329
0.0172786
0.0180016
0.0187111
0.0194196
0.0201428
0.0208979
0.0217033
0.0225767
0.0235339
0.0245873
0.0257452
0.0270116
0.0283859
0.0298634
0.0314369
0.033097
0.034834
0.0366394
0.038505
0.0404155
6.03736e-06
0.000193046
0.000408882
0.000700985
0.00106026
0.00149338
0.00200677
0.00260128
0.00328041
0.00404864
0.00491101
0.00587281
0.00692341
0.00799662
0.0090587
0.0101002
0.0111185
0.0121122
0.0130798
0.014019
0.0149274
0.0158027
0.0166428
0.0174471
0.0182164
0.0189543
0.0196675
0.0203665
0.0210658
0.0217832
0.0225391
0.0233548
0.0242508
0.0252447
0.0263495
0.0275728
0.0289165
0.0303773
0.0319474
0.0336166
0.0353735
0.0372059
0.039101
5.60479e-06
0.000189068
0.000385713
0.000658491
0.000993125
0.00139563
0.0018723
0.00242649
0.00306039
0.003778
0.00458418
0.00548421
0.00648296
0.00755735
0.00864844
0.00973004
0.010794
0.0118375
0.0128589
0.013856
0.0148261
0.0157662
0.0166732
0.017544
0.0183767
0.0191704
0.0199265
0.0206496
0.0213481
0.0220349
0.0227273
0.0234466
0.0242166
0.0250614
0.0260032
0.0270597
0.0282429
0.0295575
0.0310019
0.0325686
0.0342466
0.0360225
0.0378826
5.34795e-06
0.00018684
0.000370171
0.000625783
0.000940493
0.00131834
0.00176512
0.00228617
0.00288285
0.00355875
0.00431845
0.00516709
0.00611011
0.00714943
0.00824611
0.00935323
0.0104517
0.011535
0.0126004
0.0136456
0.0146684
0.0156654
0.0166331
0.0175678
0.0184658
0.0193239
0.0201401
0.0209142
0.0216492
0.0223513
0.023032
0.0237077
0.0244
0.0251341
0.0259371
0.0268351
0.0278505
0.028999
0.0302888
0.0317201
0.033286
0.034975
0.0367729
5.21284e-06
0.000187097
0.000362721
0.000601234
0.000899769
0.00125797
0.0016808
0.0021743
0.00274031
0.00338181
0.00410299
0.00490873
0.00580451
0.00679554
0.00787328
0.00898956
0.010111
0.0112245
0.0123248
0.0134092
0.0144753
0.0155203
0.0165406
0.0175321
0.0184906
0.0194118
0.0202917
0.0211275
0.0219176
0.0226633
0.0233699
0.0240472
0.0247108
0.0253823
0.026088
0.0268573
0.0277199
0.0287018
0.0298228
0.0310942
0.032518
0.0340885
0.035796
5.18335e-06
0.000189133
0.000360879
0.000583401
0.00086875
0.0012114
0.00161541
0.00208626
0.00262735
0.00324072
0.0039302
0.00470045
0.00555671
0.00650461
0.00754671
0.00865551
0.00978819
0.0109226
0.0120495
0.0131648
0.0142659
0.0153502
0.0164143
0.0174544
0.0184661
0.0194447
0.0203852
0.021283
0.0221345
0.0229373
0.0236915
0.0244012
0.0250753
0.0257289
0.0263833
0.0270658
0.0278079
0.0286423
0.0295987
0.0307003
0.0319611
0.0333857
0.0349705
5.22672e-06
0.000192223
0.00036197
0.000571578
0.000845849
0.00117615
0.00156528
0.00201824
0.00253943
0.00313015
0.00379383
0.00453492
0.00535854
0.00627013
0.00727472
0.00836319
0.00949568
0.0106422
0.0117882
0.0129272
0.014056
0.0151719
0.0162719
0.0173524
0.0184092
0.0194376
0.0204323
0.0213881
0.0222998
0.0231628
0.0239743
0.0247335
0.0254438
0.0261133
0.0267567
0.0273955
0.0280584
0.0287787
0.0295918
0.0305306
0.0316217
0.0328822
0.0343204
5.33756e-06
0.000196193
0.000364959
0.000565629
0.000829832
0.00115044
0.00152811
0.00196711
0.00247268
0.00304552
0.0036887
0.00440635
0.00520333
0.00608503
0.00705695
0.00811869
0.00924226
0.010393
0.0115514
0.012708
0.0138583
0.0149993
0.0161281
0.0172416
0.0183358
0.0194063
0.0204479
0.021455
0.022422
0.0233432
0.0242134
0.0250291
0.0257893
0.0264966
0.0271588
0.0277907
0.0284145
0.02906
0.0297628
0.0305611
0.0314911
0.0325836
0.0338628
5.50912e-06
0.000200727
0.000369311
0.000564692
0.000819395
0.00113245
0.00150167
0.00193049
0.00242386
0.00298288
0.00361005
0.00430926
0.00508513
0.00594278
0.00688776
0.00792316
0.0090322
0.0101812
0.0113465
0.0125156
0.0136822
0.0148429
0.0159948
0.0171349
0.0182597
0.0193652
0.0204463
0.0214977
0.0225134
0.0234874
0.0244135
0.0252862
0.0261015
0.0268581
0.0275581
0.0282098
0.0288281
0.0294365
0.0300664
0.030756
0.0315467
0.0324794
0.0335929
5.73512e-06
0.000205583
0.000374408
0.00056697
0.000813272
0.00112065
0.00148381
0.0019053
0.00238973
0.00293857
0.00355386
0.00423906
0.00499856
0.00583738
0.0067609
0.00777344
0.00886628
0.0100096
0.0111777
0.0123552
0.0135344
0.0147107
0.0158809
0.0170426
0.0181923
0.0193264
0.0204404
0.0215291
0.0225868
0.0236073
0.0245839
0.0255103
0.0263806
0.0271905
0.0279384
0.0286268
0.029264
0.0298663
0.0304586
0.0310749
0.0317563
0.0325484
0.033494
6.01618e-06
0.000210509
0.000379898
0.000570977
0.00081052
0.00111382
0.00147293
0.00188954
0.00236784
0.00290963
0.00351642
0.00419145
0.00493891
0.00576353
0.00667054
0.00766482
0.00874216
0.00987834
0.0110466
0.01223
0.0134187
0.0146075
0.0157929
0.0169721
0.0181422
0.0192999
0.020441
0.0215609
0.022654
0.0237145
0.0247355
0.0257103
0.0266322
0.0274949
0.0282942
0.0290283
0.0297001
0.0303192
0.0309031
0.0314792
0.0320846
0.0327651
0.0335739
6.34686e-06
0.000215434
0.000385491
0.00057589
0.000810434
0.00111112
0.00146785
0.00188154
0.00235608
0.00289338
0.00349469
0.00416287
0.00490182
0.0057163
0.00661125
0.00759165
0.00865621
0.00978518
0.0109527
0.0121402
0.0133369
0.0145364
0.0157345
0.0169286
0.0181158
0.019293
0.0204568
0.0216026
0.0227255
0.0238198
0.0248791
0.0258965
0.0268648
0.0277771
0.028627
0.02941
0.0301249
0.0307756
0.0313728
0.0319366
0.0324976
0.0330982
0.0337929
6.73452e-06
0.000220307
0.000391118
0.00058137
0.000812556
0.00111179
0.00146752
0.00187999
0.00235273
0.00288776
0.00348596
0.00415006
0.0048838
0.00569152
0.00657827
0.0075489
0.0086036
0.00972681
0.0108937
0.012085
0.0132888
0.0144978
0.0157076
0.0169148
0.0181168
0.0193109
0.0204938
0.0216616
0.0228095
0.0239325
0.0250244
0.0260786
0.0270878
0.0280447
0.0289421
0.0297735
0.0305348
0.0312254
0.0318504
0.0324228
0.032966
0.0335158
0.0341219
7.18041e-06
0.00022509
0.000396652
0.000587159
0.000816389
0.00111524
0.00147115
0.00188371
0.00235628
0.00289084
0.00348805
0.00415042
0.00488143
0.0056855
0.00656725
0.00753161
0.00857988
0.00969921
0.0108664
0.0120619
0.013273
0.0144914
0.0157121
0.0169318
0.0181475
0.0193568
0.0205564
0.0217431
0.0229126
0.0240598
0.0251796
0.0262653
0.02731
0.0283064
0.0292467
0.0301236
0.0309308
0.0316648
0.032326
0.0329215
0.0334672
0.0339909
0.034533
7.69494e-06
0.000229751
0.000402117
0.000593183
0.000821617
0.00112096
0.00147802
0.00189189
0.00236563
0.00290122
0.00349907
0.00416158
0.00489221
0.00569499
0.00657463
0.00753589
0.00858056
0.00969834
0.0108674
0.0120681
0.013287
0.0145152
0.0157474
0.0169793
0.0182084
0.0194319
0.0206471
0.0218508
0.023039
0.0242075
0.025351
0.0264639
0.0275393
0.0285701
0.0295486
0.0304668
0.0313175
0.0320949
0.0327961
0.0334231
0.0339856
0.0345032
0.035007
8.28747e-06
0.000234312
0.00040744
0.000599287
0.000827873
0.00112859
0.00148761
0.00190364
0.00237967
0.00291749
0.00351746
0.00418178
0.0049137
0.00571738
0.00659716
0.00755785
0.00860178
0.00972016
0.0108928
0.0121
0.0133278
0.014567
0.015811
0.017056
0.0182987
0.0195364
0.0207666
0.0219861
0.0231917
0.024379
0.0255437
0.0266801
0.0277821
0.0288429
0.0298547
0.0308099
0.0317004
0.0325191
0.0332608
0.0339238
0.0345124
0.035039
0.0355266
8.96585e-06
0.000238694
0.000412594
0.000605404
0.000834935
0.00113771
0.00149942
0.00191848
0.0023977
0.00293873
0.00354183
0.00420921
0.00494407
0.00575023
0.00663224
0.00759465
0.00863994
0.00976108
0.010939
0.0121543
0.0133924
0.0146435
0.0159008
0.0171597
0.0184167
0.0196692
0.0209146
0.02215
0.0233719
0.024577
0.0257607
0.0269181
0.0280435
0.0291304
0.0301717
0.0311594
0.0320857
0.0329425
0.0337232
0.0344234
0.0350432
0.035589
0.0360768
9.74218e-06
0.000242923
0.00041757
0.000611512
0.000842651
0.00114815
0.00151309
0.00193575
0.0024189
0.00296396
0.00357122
0.00424274
0.0049816
0.00579181
0.00667752
0.00764334
0.00869215
0.0098178
0.0110028
0.0122276
0.0134775
0.014742
0.0160137
0.0172878
0.0185604
0.0198287
0.02109
0.0223414
0.0235799
0.024802
0.0260039
0.0271806
0.028327
0.0294373
0.0305044
0.031521
0.0324789
0.0333703
0.0341873
0.034924
0.0355771
0.036149
0.036649
1.06409e-05
0.000246951
0.000422361
0.000617563
0.000850899
0.00115962
0.00152828
0.00195511
0.00244278
0.00299253
0.00360454
0.00428105
0.00502507
0.00584029
0.0067311
0.00770191
0.00875565
0.00988755
0.011081
0.0123168
0.0135799
0.0148591
0.0161469
0.0174376
0.0187272
0.0200124
0.0212907
0.0225591
0.0238146
0.025054
0.0262735
0.0274688
0.0286349
0.0297663
0.0308567
0.0318989
0.0328853
0.0338076
0.0346578
0.0354288
0.0361154
0.0367162
0.0372363
1.16794e-05
0.000250818
0.000426986
0.000623586
0.000859636
0.00117201
0.00154477
0.00197611
0.00246877
0.00302373
0.00364124
0.00432334
0.00507318
0.00589448
0.00679132
0.00776825
0.00882847
0.0099678
0.011171
0.0124192
0.0136968
0.0149923
0.0162974
0.0176062
0.0189142
0.020218
0.0215145
0.022801
0.0240746
0.0253318
0.0265694
0.0277829
0.028968
0.0301194
0.0312311
0.0322967
0.0333084
0.0342585
0.0351389
0.0359416
0.0366602
0.0372907
0.0378338
1.28911e-05
0.000254479
0.000431447
0.000629548
0.000868782
0.00118511
0.00156225
0.00199849
0.00249652
0.00305711
0.00368046
0.00436882
0.00512516
0.00595307
0.00685689
0.00784095
0.00890848
0.0100565
0.0112705
0.0125322
0.0138255
0.0151385
0.0164625
0.0177907
0.0191187
0.0204424
0.0217588
0.0230649
0.0243575
0.0256338
0.02689
0.0281223
0.0293263
0.0304971
0.0316292
0.0327162
0.0337512
0.0347265
0.0356341
0.0364658
0.0372143
0.0378735
0.0384403
1.43111e-05
0.000257938
0.000435708
0.000635419
0.000878263
0.00119884
0.00158059
0.00202192
0.00252562
0.0030921
0.00372176
0.00441668
0.00517993
0.0060152
0.00692653
0.00791842
0.00899433
0.0101517
0.0113775
0.0126535
0.0139637
0.0152955
0.0166394
0.0179887
0.019338
0.0206832
0.0220209
0.023348
0.0246613
0.0259576
0.0272337
0.0284855
0.0297088
0.0308991
0.0320509
0.0331586
0.0342152
0.0352137
0.036146
0.0370041
0.0377799
0.0384665
0.0390574
1.59898e-05
0.000261162
0.000439826
0.000641249
0.000888075
0.00121302
0.00159954
0.00204624
0.00255582
0.00312849
0.00376462
0.00446647
0.00523707
0.00607997
0.00699942
0.00799975
0.00908446
0.010252
0.0114902
0.0127814
0.0141092
0.0154607
0.0168259
0.0181974
0.0195694
0.0209376
0.0222982
0.0236479
0.0249832
0.0263012
0.0275982
0.0288706
0.0301141
0.0313243
0.032496
0.0336238
0.0347013
0.0357213
0.0366764
0.0375584
0.0383593
0.0390709
0.0396864
1.79831e-05
0.000264186
0.000443775
0.000646985
0.000898116
0.00122761
0.00161904
0.00207115
0.00258678
0.00316578
0.00380867
0.00451762
0.00529577
0.00614675
0.00707457
0.0080837
0.00917791
0.010356
0.0116071
0.0129141
0.0142604
0.0156324
0.0170198
0.0184146
0.0198108
0.0212033
0.0225881
0.0239617
0.0253208
0.0266617
0.0279813
0.0292755
0.0305402
0.0317711
0.0329632
0.0341112
0.0352089
0.0362497
0.0372261
0.0381301
0.0389536
0.0396883
0.0403267
2.03764e-05
0.000266977
0.000447611
0.000652661
0.000908347
0.00124244
0.00163889
0.00209661
0.00261839