/*--------------------------------*- C++ -*----------------------------------*\
| =========                 |                                                 |
| \\      /  F ield         | OpenFOAM: The Open Source CFD Toolbox           |
|  \\    /   O peration     | Version:  2.3.0                                 |
|   \\  /    A nd           | Web:      www.OpenFOAM.org                      |
|    \\/     M anipulation  |                                                 |
\*---------------------------------------------------------------------------*/
FoamFile
{
    version     2.0;
    format      ascii;
    class       volScalarField;
    location    "1000";
    object      nuTilda;
}
// * * * * * * * * * * * * * * * * * * * * * * * * * * * * * * * * * * * * * //

dimensions      [0 2 -1 0 0 0 0];

internalField   nonuniform List<scalar> 
39563
(
0.0527381
0.0510172
0.0493131
0.0476277
0.0459637
0.0443222
0.0427036
0.0411099
0.0395417
0.0380009
0.0364892
0.0350085
0.0335616
0.0321524
0.0307847
0.0294604
0.0281809
0.02695
0.025765
0.0246113
0.0234762
0.02236
0.0212672
0.0202009
0.0191649
0.0181604
0.0171878
0.0162471
0.0153371
0.0144567
0.0136036
0.0127755
0.0119692
0.0111815
0.0104086
0.00964793
0.00889682
0.00815437
0.00742237
0.00670564
0.0060153
0.00538744
0.00500285
0.0547121
0.0532029
0.0517064
0.0502253
0.0487614
0.047315
0.0458869
0.0444775
0.0430869
0.0417156
0.0403645
0.039034
0.037725
0.0364384
0.0351749
0.0339352
0.0327204
0.0315303
0.030366
0.0292257
0.0281081
0.0270124
0.0259409
0.0248935
0.0238721
0.0228786
0.0219151
0.0209827
0.0200836
0.0192203
0.0183958
0.0176143
0.0168798
0.0161973
0.0155745
0.0150189
0.0145401
0.0141504
0.0138607
0.0136848
0.0136389
0.0137357
0.0139869
0.0565044
0.0551712
0.0538493
0.0525399
0.051244
0.0499621
0.0486947
0.0474415
0.0462027
0.0449787
0.0437691
0.0425748
0.0413962
0.0402335
0.0390873
0.0379583
0.0368469
0.0357537
0.0346795
0.0336246
0.0325897
0.0315757
0.0305828
0.0296131
0.0286677
0.0277479
0.026856
0.0259948
0.0251667
0.0243744
0.0236227
0.0229147
0.0222571
0.0216548
0.0211147
0.0206456
0.0202553
0.0199537
0.0197503
0.0196543
0.0196734
0.0198134
0.0200756
0.0581242
0.0569422
0.0557694
0.0546061
0.0534529
0.0523098
0.0511778
0.0500568
0.0489465
0.0478467
0.0467576
0.0456794
0.0446122
0.0435568
0.042513
0.041482
0.0404639
0.0394592
0.0384693
0.0374946
0.036536
0.035595
0.0346732
0.0337712
0.0328908
0.0320345
0.0312035
0.0304009
0.0296298
0.0288931
0.028195
0.0275409
0.0269357
0.026385
0.0258953
0.0254746
0.0251305
0.0248712
0.0247039
0.0246366
0.0246751
0.0248228
0.0250813
0.0595858
0.058535
0.0574908
0.0564525
0.0554203
0.0543951
0.0533772
0.0523671
0.0513651
0.0503708
0.0493836
0.0484033
0.0474303
0.0464652
0.0455087
0.0445608
0.0436222
0.0426932
0.0417748
0.0408681
0.0399742
0.0390945
0.0382306
0.0373842
0.0365569
0.0357515
0.0349697
0.034214
0.0334871
0.0327934
0.0321362
0.0315209
0.0309531
0.0304384
0.0299831
0.029594
0.029279
0.0290447
0.0288988
0.0288465
0.0288934
0.029043
0.0292955
0.0609006
0.0599656
0.0590325
0.0581017
0.0571733
0.0562482
0.0553265
0.0544099
0.0534993
0.0525943
0.0516937
0.0507965
0.0499032
0.0490139
0.0481303
0.0472532
0.0463821
0.0455173
0.0446597
0.0438104
0.0429705
0.0421418
0.0413259
0.0405246
0.0397402
0.0389755
0.038233
0.0375148
0.0368237
0.0361633
0.0355378
0.0349522
0.0344123
0.0339228
0.0334914
0.0331247
0.0328287
0.0326111
0.0324779
0.0324346
0.0324851
0.0326332
0.0328794
0.0620855
0.061251
0.060414
0.0595752
0.0587361
0.0578965
0.0570564
0.0562182
0.0553838
0.0545533
0.0537263
0.0529015
0.0520762
0.051251
0.0504283
0.0496103
0.0487969
0.0479878
0.0471829
0.0463826
0.0455883
0.0448027
0.044027
0.0432633
0.0425131
0.0417806
0.0410701
0.0403823
0.0397198
0.0390863
0.0384857
0.0379231
0.0374042
0.0369343
0.0365201
0.0361688
0.0358861
0.0356794
0.0355548
0.0355174
0.0355703
0.0357157
0.0359555
0.0631561
0.062407
0.0616525
0.0608921
0.0601302
0.059365
0.0585951
0.0578221
0.0570506
0.0562811
0.0555153
0.0547526
0.0539888
0.0532183
0.0524454
0.0516756
0.0509107
0.0501492
0.0493907
0.0486341
0.0478793
0.0471302
0.0463898
0.0456598
0.0449383
0.0442295
0.0435445
0.0428821
0.0422436
0.0416321
0.0410516
0.0405069
0.0400046
0.03955
0.0391491
0.0388082
0.0385346
0.0383347
0.0382158
0.0381837
0.0382401
0.0383834
0.0386154
0.0641284
0.06345
0.062768
0.0620703
0.0613733
0.0606721
0.059966
0.0592466
0.058527
0.0578028
0.0570814
0.0563663
0.0556577
0.0549391
0.0542067
0.0534742
0.052747
0.0520246
0.0513063
0.0505906
0.0498707
0.0491528
0.0484396
0.0477419
0.0470562
0.046363
0.0456968
0.0450547
0.0444372
0.043846
0.0432843
0.042755
0.0422671
0.0418271
0.0414372
0.0411039
0.0408393
0.0406442
0.0405283
0.0405014
0.0405662
0.0407119
0.0409316
0.00587257
0.00756158
0.00870328
0.00985776
0.011085
0.0123783
0.0137241
0.0151084
0.0165217
0.017958
0.0194128
0.0208838
0.0223684
0.0238648
0.0253719
0.0268889
0.0284155
0.0299505
0.0314937
0.0330445
0.0346032
0.0361693
0.0377422
0.0393218
0.0409078
0.0424999
0.0440977
0.0457008
0.0473092
0.048922
0.0505388
0.0521593
0.053783
0.0554092
0.0570371
0.0586664
0.0602961
0.061926
0.0635556
0.065184
0.0668109
0.0684355
0.0700473
0.0143998
0.0149776
0.0157017
0.0165598
0.0175342
0.0186065
0.0197587
0.0209757
0.0222437
0.0235516
0.0248911
0.0262548
0.0276378
0.0290359
0.0304457
0.0318652
0.0332922
0.0347251
0.0361632
0.0376054
0.0390511
0.0404998
0.0419511
0.0434042
0.044859
0.0463155
0.0477734
0.0492324
0.0506925
0.0521531
0.0536141
0.0550752
0.0565364
0.0579973
0.0594572
0.0609162
0.0623741
0.0638304
0.0652851
0.0667378
0.0681884
0.069636
0.071072
0.0204585
0.0209671
0.0216011
0.0223521
0.0232089
0.0241582
0.0251869
0.0262821
0.0274321
0.0286265
0.0298569
0.0311151
0.0323952
0.0336928
0.0350034
0.0363237
0.0376511
0.0389839
0.0403203
0.0416587
0.0429982
0.0443382
0.045678
0.0470167
0.0483543
0.0496906
0.0510252
0.0523577
0.0536885
0.055017
0.056343
0.0576666
0.0589876
0.0603059
0.0616214
0.0629339
0.0642436
0.0655503
0.066854
0.0681546
0.0694522
0.0707467
0.0720475
0.0254474
0.0259245
0.026513
0.0272055
0.0279945
0.0288696
0.0298192
0.0308326
0.0319002
0.0330119
0.0341593
0.0353351
0.0365332
0.0377487
0.0389771
0.0402143
0.0414577
0.0427053
0.0439546
0.0452045
0.0464532
0.0477
0.0489444
0.0501856
0.0514232
0.0526568
0.0538862
0.0551112
0.0563317
0.0575475
0.0587585
0.0599647
0.0611661
0.0623628
0.0635545
0.0647415
0.065924
0.0671019
0.0682754
0.0694444
0.0706086
0.0717673
0.0729226
0.0296496
0.0301063
0.0306651
0.0313197
0.0320637
0.0328877
0.0337819
0.0347364
0.0357425
0.0367915
0.037875
0.038986
0.0401186
0.0412674
0.042428
0.0435963
0.0447699
0.0459461
0.0471223
0.0482973
0.0494695
0.050638
0.0518018
0.0529603
0.0541132
0.05526
0.0564005
0.0575345
0.0586618
0.059782
0.0608952
0.0620016
0.063101
0.0641938
0.0652801
0.0663596
0.0674328
0.0684999
0.0695609
0.0706158
0.0716647
0.0727069
0.0737427
0.0332237
0.0336656
0.0342029
0.0348306
0.0355419
0.0363281
0.0371806
0.0380907
0.0390497
0.0400499
0.0410835
0.0421429
0.0432229
0.0443178
0.0454228
0.0465344
0.0476501
0.0487669
0.0498821
0.0509943
0.0521023
0.0532049
0.054301
0.0553897
0.056471
0.0575445
0.0586104
0.0596678
0.0607161
0.0617552
0.0627852
0.0638066
0.0648192
0.0658235
0.0668195
0.0678066
0.0687856
0.0697571
0.070721
0.0716774
0.0726263
0.0735675
0.0745008
0.0362911
0.0367214
0.0372429
0.0378502
0.0385358
0.0392918
0.0401112
0.0409868
0.0419093
0.0428706
0.0438636
0.0448816
0.0459188
0.0469693
0.0480281
0.0490924
0.05016
0.0512271
0.0522908
0.0533504
0.0544048
0.0554517
0.0564901
0.0575195
0.0585403
0.0595525
0.0605557
0.0615481
0.0625286
0.0634979
0.0644571
0.0654061
0.0663446
0.0672735
0.0681918
0.0690989
0.0699971
0.0708862
0.0717661
0.0726372
0.0734994
0.0743527
0.0751973
0.0389422
0.0393635
0.0398745
0.040466
0.0411318
0.0418599
0.0426519
0.0434997
0.0443929
0.0453226
0.0462822
0.047266
0.0482689
0.0492818
0.0503013
0.0513264
0.0523541
0.0533787
0.0543981
0.0554131
0.0564234
0.0574228
0.0584107
0.0593889
0.0603586
0.0613194
0.0622701
0.0632065
0.0641277
0.0650368
0.0659364
0.066824
0.067698
0.0685645
0.0694153
0.0702516
0.0710814
0.0718993
0.0727061
0.0735034
0.0742907
0.0750662
0.0758316
0.041247
0.0416627
0.0421692
0.0427494
0.0434043
0.0440943
0.0448632
0.0456879
0.0465561
0.04746
0.0483922
0.0493481
0.0503239
0.0513001
0.0522849
0.0532787
0.0542745
0.0552586
0.0562392
0.0572183
0.0581934
0.0591469
0.0600895
0.0610254
0.0619534
0.0628722
0.0637803
0.0646644
0.0655324
0.0663919
0.0672452
0.0680804
0.0688976
0.0697183
0.0705056
0.071276
0.0720519
0.0728046
0.0735488
0.074284
0.0750092
0.0757155
0.0764147
0.0497838
0.0469998
0.0443521
0.0418347
0.0394416
0.0371666
0.035004
0.0329486
0.0309951
0.0291386
0.0273742
0.0256972
0.0241036
0.0225896
0.0211507
0.0197838
0.018485
0.0172514
0.0160795
0.0149666
0.0139098
0.0129063
0.0119544
0.0110508
0.0101941
0.0093818
0.00861245
0.00788364
0.00719369
0.00654146
0.00592515
0.00534384
0.00479608
0.00428155
0.00379991
0.00335179
0.00294065
0.00256885
0.00224542
0.0020095
0.00177607
0.00148131
0.00105262
0.0496334
0.047067
0.0446164
0.0422771
0.0400441
0.0379124
0.0358778
0.0339358
0.032082
0.0303128
0.0286237
0.0270112
0.025472
0.0240029
0.0226004
0.0212615
0.0199831
0.0187623
0.0175969
0.0164844
0.0154219
0.0144082
0.0134404
0.0125172
0.0116372
0.0107987
0.0100007
0.009242
0.00852184
0.00783946
0.00719464
0.00658725
0.00601911
0.00549256
0.00501354
0.00458895
0.00422789
0.00395263
0.00367155
0.00335382
0.00297467
0.00249484
0.00184214
0.049481
0.047114
0.0448457
0.0426719
0.0405887
0.0385922
0.0366789
0.0348451
0.0330878
0.0314032
0.0297886
0.0282408
0.0267572
0.0253351
0.0239718
0.0226645
0.0214108
0.0202086
0.0190555
0.0179488
0.0168867
0.0158675
0.0148893
0.0139509
0.0130508
0.0121888
0.0113645
0.0105771
0.00982683
0.0091142
0.0084402
0.00780684
0.00721859
0.00668347
0.00621108
0.00581152
0.00549482
0.00517387
0.00482075
0.00440999
0.00391118
0.00328388
0.00246747
0.0493343
0.0471476
0.0450439
0.0430203
0.0410736
0.0392011
0.0373997
0.0356666
0.0339994
0.0323954
0.0308522
0.0293672
0.0279386
0.0265641
0.0252416
0.023969
0.0227439
0.0215647
0.0204288
0.0193339
0.0182784
0.0172596
0.0162763
0.0153269
0.0144103
0.0135265
0.0126759
0.0118589
0.0110772
0.010332
0.00962565
0.00896197
0.0083486
0.00779824
0.00732395
0.00694315
0.00657817
0.00619422
0.00576662
0.00526875
0.00466874
0.00392435
0.00298192
0.0492059
0.0471806
0.0452251
0.0433373
0.0415144
0.0397547
0.0380557
0.0364154
0.0348318
0.0333033
0.0318273
0.0304025
0.0290276
0.0277004
0.0264195
0.0251829
0.0239891
0.0228362
0.021722
0.0206444
0.019601
0.018589
0.017606
0.0166499
0.0157192
0.0148146
0.0139367
0.0130881
0.0122718
0.0114906
0.0107478
0.0100491
0.00940346
0.0088272
0.00833212
0.00792267
0.00750996
0.00706782
0.00657251
0.00599724
0.00530886
0.0044649
0.00341478
0.0491049
0.0472247
0.045403
0.0436372
0.0419259
0.040268
0.0386622
0.0371068
0.0356007
0.034142
0.0327291
0.0313611
0.0300373
0.0287564
0.027517
0.0263175
0.0251561
0.0240315
0.0229417
0.0218848
0.0208577
0.0198567
0.0188779
0.0179185
0.016977
0.0160536
0.0151485
0.0142656
0.013411
0.0125901
0.011808
0.0110708
0.0103901
0.0097844
0.00926981
0.00880865
0.00834089
0.00783966
0.00727963
0.00663267
0.00586465
0.00493085
0.00378283
0.0490393
0.0472903
0.045589
0.0439333
0.042322
0.0407553
0.0392334
0.0377555
0.0363206
0.0349269
0.0335722
0.0322568
0.0309809
0.0297446
0.028546
0.0273832
0.0262542
0.0251575
0.0240914
0.0230538
0.0220421
0.0210519
0.0200782
0.0191167
0.0181658
0.0172261
0.0162983
0.0153845
0.014491
0.013629
0.0128053
0.0120279
0.0113085
0.0106677
0.0101228
0.00961254
0.00909132
0.00853287
0.00791117
0.00719704
0.00635504
0.00533881
0.00410007
0.0490149
0.0473863
0.0457946
0.0442375
0.0427155
0.0412296
0.0397818
0.0383737
0.0370045
0.0356714
0.0343709
0.0331031
0.03187
0.0306745
0.0295166
0.0283901
0.0272908
0.0262178
0.0251701
0.0241456
0.0231441
0.0221634
0.021195
0.0202316
0.01927
0.0183124
0.0173654
0.0164304
0.0155055
0.0146035
0.0137395
0.0129213
0.0121629
0.0114846
0.0109039
0.010346
0.00977393
0.00916152
0.00848179
0.00770356
0.00679337
0.00570203
0.00437816
0.0490413
0.0475217
0.0460296
0.0445606
0.0431175
0.0417011
0.0403174
0.0389703
0.037661
0.0363878
0.0351383
0.033913
0.0327154
0.0315527
0.0304359
0.0293462
0.0282696
0.0272126
0.0261769
0.0251596
0.024161
0.0231874
0.022227
0.0212648
0.0202941
0.0193112
0.0183361
0.0173925
0.0164492
0.0155122
0.0146113
0.0137536
0.0129591
0.0122435
0.0116261
0.011019
0.0103979
0.00973409
0.00900086
0.0081608
0.00718831
0.00603711
0.0046536
0.000546946
0.000527033
0.000738233
0.000947682
0.00114656
0.00133602
0.00151772
0.00169348
0.00186516
0.00203528
0.0022069
0.00238426
0.0025735
0.00278331
0.00302443
0.00330285
0.00361787
0.00396576
0.00434311
0.00474832
0.00518071
0.00563995
0.00612603
0.0066397
0.00718128
0.00775124
0.00834992
0.00897791
0.00963575
0.0103241
0.0110438
0.0117954
0.01258
0.0133987
0.0142522
0.0151417
0.0160678
0.0170314
0.0180335
0.0190745
0.0201553
0.0212758
0.022433
0.00103026
0.000745875
0.000912069
0.00112702
0.00133393
0.00153087
0.00171987
0.00190371
0.00208568
0.00227011
0.00246237
0.00266894
0.00289756
0.00315693
0.00345424
0.00378566
0.00414615
0.00453292
0.00494414
0.00537893
0.00583695
0.00631816
0.00682268
0.00735085
0.00790303
0.00847922
0.0090799
0.00970528
0.0103558
0.0110324
0.0117353
0.0124655
0.0132235
0.0140102
0.0148264
0.0156727
0.0165499
0.0174586
0.0183995
0.019373
0.0203797
0.0214204
0.0224972
0.00149399
0.000974419
0.00107215
0.00128926
0.00150428
0.00170958
0.00190799
0.00210379
0.00230225
0.00250967
0.00273278
0.00297839
0.00325286
0.00356243
0.00390874
0.0042832
0.00468135
0.0051012
0.00554174
0.0060024
0.00648312
0.0069839
0.00750452
0.00804531
0.00860625
0.00918713
0.00978841
0.0104104
0.0110533
0.0117179
0.0124043
0.0131134
0.0138455
0.0146012
0.0153811
0.0161857
0.0170156
0.0178713
0.0187532
0.0196618
0.0205976
0.0215611
0.0225524
0.00188464
0.00118936
0.00121486
0.00143158
0.00165439
0.00186916
0.0020797
0.00229202
0.00251319
0.00275032
0.00300979
0.00329681
0.00361579
0.0039713
0.00435745
0.00476669
0.0051959
0.0056437
0.00610927
0.00659229
0.00709243
0.00760968
0.00814398
0.00869488
0.00926253
0.00984665
0.0104475
0.0110655
0.0117006
0.0123533
0.013024
0.013713
0.0144207
0.0151473
0.0158934
0.0166593
0.0174455
0.0182522
0.0190797
0.0199286
0.0207991
0.0216914
0.0226056
0.0022076
0.0013799
0.00134109
0.00155662
0.00178761
0.00201335
0.00223879
0.00247162
0.00271962
0.00298973
0.00328668
0.00361344
0.00397301
0.00436756
0.00478661
0.00522506
0.0056808
0.00615252
0.00663978
0.0071422
0.00765931
0.00819072
0.00873608
0.00929515
0.00986791
0.0104542
0.0110539
0.0116674
0.0122949
0.0129364
0.0135921
0.0142622
0.0149472
0.015647
0.0163619
0.0170923
0.0178384
0.0186003
0.0193783
0.0201728
0.0209841
0.0218126
0.02266
0.00247541
0.00154435
0.00145254
0.00166736
0.00190701
0.00214531
0.00238824
0.00264442
0.00292161
0.00322507
0.00355759
0.00392057
0.0043171
0.00474363
0.00519064
0.00565439
0.00613309
0.00662599
0.00713219
0.00765147
0.0081832
0.0087266
0.00928132
0.0098472
0.010424
0.0110115
0.0116098
0.012219
0.0128389
0.0134696
0.0141113
0.0147639
0.0154278
0.0161028
0.0167892
0.017487
0.0181965
0.0189177
0.0196507
0.0203958
0.0211533
0.0219236
0.0227067
0.00270018
0.00168477
0.00155071
0.00176591
0.0020152
0.00226766
0.00252996
0.00281103
0.00311741
0.00345275
0.00381768
0.00421301
0.00464233
0.0050962
0.00556742
0.00605331
0.00655243
0.00706399
0.00758717
0.00812116
0.00866538
0.00921903
0.00978192
0.0103534
0.0109336
0.0115219
0.0121185
0.0127234
0.0133363
0.0139569
0.0145854
0.0152218
0.0158662
0.0165184
0.0171785
0.0178466
0.0185227
0.0192069
0.019899
0.0205993
0.021308
0.0220252
0.0227511
0.0028881
0.00180175
0.00163811
0.00185575
0.00211512
0.00238224
0.00266444
0.00297016
0.00330458
0.00366937
0.00406398
0.00448899
0.00494578
0.00542336
0.00591635
0.00642253
0.00694022
0.00746833
0.0080064
0.00855375
0.00910927
0.00967205
0.0102419
0.0108186
0.0114015
0.0119907
0.0125858
0.0131866
0.0137926
0.0144035
0.0150193
0.0156401
0.016266
0.0168975
0.0175336
0.0181744
0.0188202
0.0194706
0.0201255
0.0207849
0.0214492
0.0221183
0.0227924
0.00309721
0.00192463
0.00171306
0.0019292
0.00219938
0.00248518
0.00279059
0.00312293
0.00348728
0.00388136
0.00430098
0.00475181
0.00523395
0.00573605
0.00625197
0.00677743
0.00730964
0.00785018
0.00840187
0.00896362
0.00952878
0.0100981
0.0106752
0.0112559
0.0118403
0.0124312
0.0130248
0.0136209
0.0142193
0.0148182
0.0154191
0.0160234
0.016631
0.0172455
0.0178576
0.0184735
0.0190921
0.0197128
0.0203331
0.0209539
0.021578
0.0222034
0.0228294
0.000224907
0.000791566
0.00169388
0.00261701
0.00351578
0.00439326
0.00525811
0.00612132
0.00698276
0.00784297
0.0087033
0.00956659
0.0104363
0.0113165
0.0122113
0.0131251
0.0140623
0.0150265
0.0160211
0.0170481
0.0181089
0.0192028
0.0203284
0.0214826
0.0226633
0.0238716
0.02511
0.026376
0.0276655
0.0290068
0.030428
0.0319161
0.0334569
0.0350418
0.0366675
0.0383307
0.040028
0.0417568
0.0435139
0.0452978
0.0471063
0.0489359
0.0507839
0.00017285
0.000508134
0.0011295
0.00194718
0.0028358
0.00369107
0.00452224
0.00532151
0.00609905
0.00686541
0.00763001
0.00839867
0.00917534
0.00996391
0.0107684
0.0115929
0.0124418
0.0133196
0.0142305
0.0151782
0.0161658
0.0171952
0.0182671
0.0193809
0.0205347
0.021727
0.0229561
0.0242199
0.0255178
0.0268597
0.0282579
0.0297105
0.0312048
0.0327452
0.0343635
0.0360456
0.0377769
0.0395513
0.0413632
0.0432081
0.0450822
0.0469807
0.0489003
6.70428e-05
0.000320818
0.000724215
0.00127469
0.00196473
0.00278771
0.00374683
0.00470482
0.00561422
0.00647782
0.00730202
0.00809445
0.00886341
0.00961701
0.0103628
0.0111081
0.0118608
0.0126285
0.013419
0.01424
0.0150983
0.016
0.0169502
0.0179519
0.0190069
0.0201155
0.0212765
0.0224883
0.0237501
0.0250634
0.0264316
0.0278554
0.0293305
0.0308561
0.0324378
0.0340666
0.0357495
0.0375127
0.0393365
0.0412098
0.0431238
0.0450711
0.0470478
7.20715e-05
0.000280692
0.000615046
0.0010623
0.00162369
0.00229939
0.00309268
0.00400788
0.0049924
0.00595544
0.00688246
0.0077737
0.00863128
0.00945699
0.0102537
0.0110254
0.0117773
0.0125162
0.0132502
0.0139886
0.0147416
0.0155198
0.0163333
0.0171917
0.018103
0.0190732
0.0201065
0.0212049
0.0223697
0.0236013
0.0249001
0.026266
0.0276967
0.02919
0.0307429
0.0323502
0.0340102
0.0357246
0.037489
0.0393381
0.0412549
0.0432243
0.0452354
6.05216e-05
0.000246221
0.000534524
0.000919304
0.00140315
0.00198713
0.00267208
0.00346162
0.00435992
0.00536167
0.00636931
0.00734698
0.00829063
0.0092013
0.0100801
0.0109279
0.0117455
0.0125346
0.0132982
0.0140414
0.0147711
0.0154965
0.0162286
0.0169798
0.0177628
0.0185903
0.0194736
0.0204221
0.0214433
0.0225421
0.0237219
0.0249839
0.0263276
0.0277503
0.0292482
0.0308156
0.0324468
0.0341367
0.0358797
0.03768
0.039537
0.0414825
0.0434937
5.89507e-05
0.000230777
0.000485268
0.000828398
0.00125795
0.00177866
0.00239065
0.00309727
0.00390301
0.00481291
0.0058237
0.00685519
0.0078665
0.00884921
0.00980249
0.0107262
0.0116201
0.0124834
0.0133155
0.0141168
0.014889
0.015636
0.0163638
0.0170815
0.0178005
0.0185346
0.0192989
0.0201087
0.0209788
0.021922
0.0229485
0.0240658
0.0252781
0.0265866
0.0279888
0.02948
0.0310535
0.0327018
0.0344167
0.0361924
0.0380247
0.0399174
0.0418688
5.65573e-05
0.000223553
0.000445839
0.000757442
0.0011466
0.00161819
0.00217518
0.00281911
0.00355396
0.00438434
0.00531548
0.0063435
0.00739762
0.00843718
0.00945227
0.0104411
0.0114026
0.0123361
0.0132398
0.0141122
0.0149518
0.0157584
0.0165329
0.0172786
0.0180016
0.0187111
0.0194196
0.0201428
0.0208979
0.0217033
0.0225767
0.0235339
0.0245873
0.0257452
0.0270116
0.0283859
0.0298634
0.0314369
0.033097
0.034834
0.0366394
0.038505
0.0404155
5.53687e-05
0.000218569
0.000416707
0.000703771
0.00106149
0.001494
0.00200711
0.00260149
0.00328054
0.00404873
0.00491107
0.00587285
0.00692344
0.00799664
0.00905872
0.0101002
0.0111185
0.0121122
0.0130798
0.014019
0.0149274
0.0158027
0.0166428
0.0174471
0.0182164
0.0189543
0.0196675
0.0203665
0.0210658
0.0217832
0.0225391
0.0233548
0.0242508
0.0252447
0.0263495
0.0275728
0.0289165
0.0303773
0.0319474
0.0336166
0.0353735
0.0372059
0.039101
5.42684e-05
0.000215235
0.000394413
0.000661639
0.000994523
0.00139634
0.00187269
0.00242672
0.00306054
0.0037781
0.00458425
0.00548426
0.006483
0.00755738
0.00864846
0.00973006
0.010794
0.0118375
0.0128589
0.013856
0.0148261
0.0157662
0.0166732
0.017544
0.0183767
0.0191704
0.0199265
0.0206496
0.0213481
0.0220349
0.0227273
0.0234466
0.0242166
0.0250614
0.0260032
0.0270597
0.0282429
0.0295575
0.0310019
0.0325686
0.0342466
0.0360225
0.0378826
5.35777e-05
0.000213361
0.000379527
0.000629259
0.00094205
0.00131914
0.00176557
0.00228643
0.00288302
0.00355886
0.00431852
0.00516715
0.00611014
0.00714946
0.00824613
0.00935325
0.0104517
0.011535
0.0126004
0.0136457
0.0146684
0.0156654
0.0166331
0.0175678
0.0184658
0.0193239
0.0201401
0.0209142
0.0216492
0.0223513
0.023032
0.0237077
0.0244
0.0251341
0.0259371
0.0268351
0.0278505
0.028999
0.0302889
0.0317201
0.033286
0.034975
0.0367729
5.31922e-05
0.000213553
0.000372406
0.00060499
0.000901469
0.00125884
0.00168129
0.00217459
0.0027405
0.00338193
0.00410307
0.00490879
0.00580455
0.00679557
0.0078733
0.00898958
0.0101111
0.0112245
0.0123248
0.0134092
0.0144754
0.0155203
0.0165406
0.0175321
0.0184906
0.0194118
0.0202918
0.0211275
0.0219176
0.0226633
0.0233699
0.0240472
0.0247108
0.0253823
0.026088
0.0268573
0.0277199
0.0287018
0.0298228
0.0310942
0.032518
0.0340885
0.035796
5.30905e-05
0.000215234
0.000370642
0.00058738
0.000870571
0.00121234
0.00161593
0.00208657
0.00262755
0.00324086
0.00393029
0.00470051
0.00555675
0.00650464
0.00754673
0.00865553
0.0097882
0.0109226
0.0120495
0.0131648
0.0142659
0.0153502
0.0164143
0.0174544
0.0184661
0.0194447
0.0203852
0.021283
0.0221345
0.0229373
0.0236915
0.0244012
0.0250753
0.0257289
0.0263833
0.0270658
0.0278079
0.0286423
0.0295987
0.0307003
0.0319611
0.0333857
0.0349705
5.319e-05
0.000217805
0.000371674
0.000575713
0.000847768
0.00117714
0.00156585
0.00201858
0.00253964
0.00313029
0.00379393
0.00453499
0.00535859
0.00627016
0.00727475
0.00836321
0.00949569
0.0106422
0.0117882
0.0129272
0.014056
0.0151719
0.0162719
0.0173524
0.0184092
0.0194376
0.0204323
0.0213881
0.0222998
0.0231628
0.0239743
0.0247335
0.0254438
0.0261133
0.0267567
0.0273956
0.0280584
0.0287787
0.0295918
0.0305306
0.0316217
0.0328823
0.0343204
5.34753e-05
0.000221129
0.000374516
0.000569845
0.000831824
0.00115148
0.0015287
0.00196746
0.0024729
0.00304566
0.0036888
0.00440642
0.00520338
0.00608506
0.00705698
0.00811872
0.00924228
0.010393
0.0115514
0.012708
0.0138583
0.0149993
0.0161281
0.0172416
0.0183358
0.0194063
0.0204479
0.021455
0.022422
0.0233432
0.0242134
0.0250292
0.0257893
0.0264966
0.0271588
0.0277907
0.0284145
0.02906
0.0297628
0.0305611
0.0314911
0.0325836
0.0338628
5.39216e-05
0.000224951
0.000378664
0.000568916
0.000821435
0.00113352
0.00150228
0.00193086
0.00242409
0.00298303
0.00361016
0.00430933
0.00508519
0.00594281
0.00688779
0.00792319
0.00903222
0.0101812
0.0113465
0.0125156
0.0136822
0.0148429
0.0159948
0.0171349
0.0182597
0.0193652
0.0204463
0.0214977
0.0225134
0.0234874
0.0244135
0.0252862
0.0261016
0.0268581
0.0275581
0.0282098
0.0288281
0.0294365
0.0300664
0.030756
0.0315467
0.0324794
0.0335929
5.45024e-05
0.000229073
0.000383531
0.00057116
0.000815341
0.00112174
0.00148444
0.00190568
0.00238997
0.00293873
0.00355397
0.00423914
0.00499862
0.00583742
0.00676093
0.00777347
0.0088663
0.0100097
0.0111777
0.0123553
0.0135344
0.0147107
0.015881
0.0170426
0.0181923
0.0193264
0.0204404
0.0215291
0.0225868
0.0236073
0.0245839
0.0255103
0.0263806
0.0271905
0.0279384
0.0286268
0.029264
0.0298663
0.0304586
0.0310749
0.0317563
0.0325484
0.033494
5.52075e-05
0.000233281
0.000388784
0.000575109
0.000812603
0.00111493
0.00147356
0.00188993
0.00236808
0.00290979
0.00351653
0.00419152
0.00493897
0.00576357
0.00667058
0.00766484
0.00874218
0.00987836
0.0110466
0.01223
0.0134187
0.0146075
0.0157929
0.0169721
0.0181422
0.0192999
0.020441
0.0215609
0.022654
0.0237145
0.0247355
0.0257103
0.0266322
0.027495
0.0282942
0.0290283
0.0297001
0.0303192
0.0309031
0.0314792
0.0320846
0.0327651
0.0335739
5.60116e-05
0.000237514
0.000394145
0.000579952
0.000812517
0.00111223
0.00146849
0.00188193
0.00235632
0.00289354
0.0034948
0.00416295
0.00490188
0.00571635
0.00661128
0.00759168
0.00865622
0.0097852
0.0109527
0.0121402
0.0133369
0.0145364
0.0157345
0.0169286
0.0181158
0.019293
0.0204568
0.0216026
0.0227255
0.0238198
0.0248791
0.0258965
0.0268648
0.0277771
0.028627
0.02941
0.0301249
0.0307756
0.0313728
0.0319366
0.0324976
0.0330982
0.0337929
5.69212e-05
0.000241726
0.000399547
0.000585358
0.000814626
0.0011129
0.00146816
0.00188038
0.00235297
0.00288792
0.00348608
0.00415014
0.00488386
0.00569156
0.0065783
0.00754892
0.00860362
0.00972682
0.0108937
0.012085
0.0132888
0.0144978
0.0157076
0.0169148
0.0181168
0.0193109
0.0204938
0.0216616
0.0228095
0.0239325
0.0250244
0.0260786
0.0270878
0.0280447
0.0289421
0.0297735
0.0305348
0.0312254
0.0318504
0.0324228
0.032966
0.0335158
0.0341219
5.79268e-05
0.000245884
0.000404868
0.000591071
0.000818439
0.00111635
0.00147179
0.0018841
0.00235653
0.002891
0.00348816
0.0041505
0.00488148
0.00568555
0.00656728
0.00753163
0.0085799
0.00969922
0.0108664
0.0120619
0.013273
0.0144915
0.0157121
0.0169318
0.0181475
0.0193568
0.0205565
0.0217431
0.0229126
0.0240598
0.0251796
0.0262653
0.02731
0.0283064
0.0292467
0.0301236
0.0309308
0.0316648
0.032326
0.0329215
0.0334672
0.0339909
0.034533
5.90384e-05
0.000249956
0.00041013
0.000597018
0.000823642
0.00112205
0.00147865
0.00189227
0.00236588
0.00290138
0.00349918
0.00416166
0.00489227
0.00569503
0.00657466
0.00753591
0.00858058
0.00969835
0.0108674
0.0120681
0.013287
0.0145152
0.0157474
0.0169793
0.0182084
0.0194319
0.0206471
0.0218508
0.023039
0.0242075
0.025351
0.0264639
0.0275393
0.0285701
0.0295486
0.0304668
0.0313175
0.0320949
0.0327961
0.0334231
0.0339856
0.0345032
0.035007
6.0261e-05
0.00025396
0.000415263
0.000603047
0.000829867
0.00112966
0.00148823
0.00190402
0.00237992
0.00291765
0.00351757
0.00418185
0.00491376
0.00571742
0.00659719
0.00755787
0.0086018
0.00972018
0.0108928
0.0121
0.0133279
0.014567
0.015811
0.017056
0.0182987
0.0195364
0.0207666
0.0219861
0.0231917
0.0243791
0.0255437
0.0266801
0.0277821
0.0288429
0.0298547
0.0308099
0.0317004
0.0325191
0.0332608
0.0339238
0.0345124
0.035039
0.0355266
6.1594e-05
0.000257824
0.000420238
0.00060909
0.000836895
0.00113877
0.00150003
0.00191886
0.00239794
0.00293889
0.00354194
0.00420929
0.00494413
0.00575027
0.00663227
0.00759468
0.00863996
0.00976109
0.0109391
0.0121543
0.0133924
0.0146435
0.0159008
0.0171597
0.0184168
0.0196692
0.0209146
0.02215
0.0233719
0.024577
0.0257607
0.0269181
0.0280435
0.0291304
0.0301717
0.0311594
0.0320857
0.0329425
0.0337232
0.0344234
0.0350432
0.035589
0.0360768
6.30433e-05
0.00026157
0.000425047
0.000615127
0.000844575
0.00114919
0.00151369
0.00193611
0.00241913
0.00296412
0.00357132
0.00424281
0.00498166
0.00579186
0.00667755
0.00764337
0.00869217
0.00981782
0.0110028
0.0122276
0.0134775
0.014742
0.0160137
0.0172878
0.0185604
0.0198287
0.02109
0.0223414
0.0235799
0.024802
0.0260039
0.0271806
0.028327
0.0294373
0.0305044
0.031521
0.0324789
0.0333703
0.0341873
0.034924
0.0355771
0.036149
0.036649
6.46336e-05
0.000265151
0.000429683
0.000621109
0.000852787
0.00116064
0.00152887
0.00195547
0.00244301
0.00299269
0.00360464
0.00428112
0.00502513
0.00584033
0.00673113
0.00770193
0.00875567
0.00988756
0.011081
0.0123169
0.0135799
0.0148591
0.0161469
0.0174376
0.0187272
0.0200124
0.0212907
0.0225591
0.0238146
0.025054
0.0262735
0.0274688
0.0286349
0.0297663
0.0308567
0.0318989
0.0328853
0.0338076
0.0346578
0.0354288
0.0361154
0.0367162
0.0372363
6.63709e-05
0.000268602
0.000434162
0.000627066
0.000861486
0.00117301
0.00154534
0.00197646
0.00246899
0.00302388
0.00364134
0.00432341
0.00507324
0.00589452
0.00679135
0.00776827
0.00882849
0.00996782
0.011171
0.0124192
0.0136968
0.0149923
0.0162974
0.0176062
0.0189142
0.020218
0.0215145
0.022801
0.0240746
0.0253318
0.0265694
0.0277829
0.028968
0.0301194
0.0312311
0.0322967
0.0333084
0.0342585
0.0351389
0.0359416
0.0366602
0.0372907
0.0378338
6.82833e-05
0.00027188
0.000438486
0.000632963
0.000870593
0.00118609
0.00156281
0.00199883
0.00249674
0.00305726
0.00368057
0.00436889
0.00512521
0.00595311
0.00685692
0.00784097
0.0089085
0.0100565
0.0112706
0.0125322
0.0138255
0.0151385
0.0164625
0.0177907
0.0191187
0.0204424
0.0217588
0.0230649
0.0243575
0.0256338
0.02689
0.0281223
0.0293263
0.0304971
0.0316292
0.0327162
0.0337512
0.0347265
0.0356341
0.0364658
0.0372143
0.0378735
0.0384403
7.03927e-05
0.000274987
0.000442619
0.000638773
0.000880035
0.0011998
0.00158114
0.00202226
0.00252584
0.00309224
0.00372186
0.00441675
0.00517998
0.00601523
0.00692656
0.00791844
0.00899434
0.0101517
0.0113775
0.0126535
0.0139637
0.0152955
0.0166394
0.0179887
0.019338
0.0206832
0.0220209
0.023348
0.0246613
0.0259576
0.0272338
0.0284855
0.0297088
0.0308991
0.0320509
0.0331586
0.0342152
0.0352137
0.036146
0.0370041
0.0377799
0.0384665
0.0390574
7.27344e-05
0.000277892
0.000446617
0.000644544
0.000889809
0.00121395
0.00160007
0.00204657
0.00255603
0.00312863
0.00376471
0.00446654
0.00523712
0.00608
0.00699945
0.00799977
0.00908447
0.010252
0.0114902
0.0127815
0.0141093
0.0154607
0.0168259
0.0181974
0.0195695
0.0209376
0.0222982
0.0236479
0.0249832
0.0263012
0.0275982
0.0288707
0.0301141
0.0313243
0.032496
0.0336238
0.0347013
0.0357213
0.0366764
0.0375584
0.0383593
0.0390709
0.0396864
7.53407e-05
0.000280622
0.000450454
0.000650223
0.00089981
0.00122852
0.00161956
0.00207147
0.00258698
0.00316591
0.00380877
0.00451769
0.00529581
0.00614679
0.0070746
0.00808372
0.00917793
0.010356
0.0116071
0.0129141
0.0142604
0.0156324
0.0170198
0.0184146
0.0198108
0.0212033
0.0225881
0.0239617
0.0253208
0.0266617
0.0279814
0.0292755
0.0305402
0.0317711
0.0329632
0.0341112
0.0352089
0.0362497
0.0372261
0.0381301
0.0389536
0.0396883
0.0403267
7.82693e-05
0.000283149
0.000454184
0.000655844
0.000910004
0.00124333
0.0016394
0.00209692
0.00261859
0.00320397