/*--------------------------------*- C++ -*----------------------------------*\
| =========                 |                                                 |
| \\      /  F ield         | OpenFOAM: The Open Source CFD Toolbox           |
|  \\    /   O peration     | Version:  2.3.0                                 |
|   \\  /    A nd           | Web:      www.OpenFOAM.org                      |
|    \\/     M anipulation  |                                                 |
\*---------------------------------------------------------------------------*/
FoamFile
{
    version     2.0;
    format      ascii;
    class       surfaceScalarField;
    location    "1000";
    object      phi;
}
// * * * * * * * * * * * * * * * * * * * * * * * * * * * * * * * * * * * * * //

dimensions      [0 3 -1 0 0 0 0];

internalField   nonuniform List<scalar> 
78786
(
-0.00627308
-0.00612674
0.00673353
0.00566546
-0.00682853
-0.00586824
0.00642368
-0.00733994
-0.00561948
0.00613084
-0.00781122
-0.00537966
0.00585094
-0.00823687
-0.00514867
0.00557429
-0.00862355
-0.00493185
0.00531853
-0.00897148
-0.0047177
0.00506562
-0.00928098
-0.0045164
0.0048259
-0.00955638
-0.0043198
0.0045952
-0.009798
-0.00413152
0.00437314
-0.0100084
-0.0039504
0.00416079
-0.0101886
-0.00377603
0.0039562
-0.0103406
-0.00360697
0.00375899
-0.0104644
-0.00344519
0.00356899
-0.0105617
-0.00328977
0.00338713
-0.0106368
-0.0031378
0.00321286
-0.0106865
-0.00299303
0.0030427
-0.0107168
-0.00285098
0.00288131
-0.0107224
-0.00271597
0.00272151
-0.0107088
-0.00258432
0.0025708
-0.0106755
-0.00245748
0.00242412
-0.0106225
-0.00233199
0.00227905
-0.0105511
-0.0022137
0.00214226
-0.0104591
-0.00209596
0.00200397
-0.0103487
-0.00198191
0.0018715
-0.0102198
-0.00186901
0.00174011
-0.0100709
-0.00176091
0.00161201
-0.00990366
-0.00165327
0.001486
-0.00971713
-0.00154776
0.00136123
-0.00951363
-0.00144205
0.00123855
-0.00929302
-0.00133743
0.00111682
-0.00905678
-0.00123367
0.000997435
-0.00880786
-0.00112988
0.000880964
-0.00855127
-0.00102403
0.000767436
-0.00828984
-0.000917078
0.000655646
-0.0080282
-0.000809026
0.000547376
-0.00777361
-0.00069725
0.000442662
-0.0075283
-0.000585424
0.00034011
-0.00730126
-0.000471252
0.000244216
-0.007106
-0.000351561
0.000156283
-0.00694674
-0.000235932
7.66758e-05
-0.00683187
-0.000126714
1.18334e-05
-1.78756e-05
-0.00684809
3.41068e-05
-0.00564388
-0.00558506
0.00510221
-0.00614191
-0.00537022
-0.00659696
-0.00516444
-0.00701174
-0.00496489
-0.007387
-0.00477342
-0.00773007
-0.00458877
-0.00803661
-0.00441116
-0.00831193
-0.00424109
-0.00855519
-0.00407654
-0.00876947
-0.00391724
-0.00895485
-0.00376502
-0.00911398
-0.0036169
-0.00924658
-0.00347437
-0.00935461
-0.00333716
-0.00944042
-0.00320396
-0.00950428
-0.00307394
-0.00954714
-0.00295016
-0.00956877
-0.00282936
-0.00957399
-0.00271074
-0.00956202
-0.00259629
-0.00953421
-0.00248529
-0.0094888
-0.0023774
-0.00943309
-0.00226941
-0.00936328
-0.00216577
-0.00928067
-0.00206451
-0.00918626
-0.00196342
-0.00908265
-0.00186452
-0.00897057
-0.00176535
-0.00884931
-0.00166903
-0.0087191
-0.00157226
-0.00857861
-0.00147792
-0.00843328
-0.00137901
-0.00827916
-0.001284
-0.00811371
-0.00118947
-0.00793892
-0.00109187
-0.00774952
-0.000998425
-0.00754473
-0.000902041
-0.00732283
-0.000807323
-0.00707731
-0.000716767
-0.00680105
-0.000627825
-0.0064925
-0.000544487
-0.00615204
-0.000467174
-0.000397617
-0.00577229
-0.00507932
-0.00510542
0.0045997
-0.00552038
-0.00492916
-0.00592411
-0.00476071
-0.00629337
-0.00459562
-0.0066297
-0.00443709
-0.00693226
-0.00428622
-0.00720398
-0.00413944
-0.00744715
-0.00399793
-0.0076621
-0.00386159
-0.00784816
-0.00373118
-0.00801055
-0.00360264
-0.00814855
-0.00347891
-0.00826299
-0.00335993
-0.00835535
-0.00324481
-0.00842823
-0.00313108
-0.0084796
-0.00302257
-0.00851257
-0.0029172
-0.00852957
-0.00281235
-0.00852828
-0.00271204
-0.00851024
-0.00261433
-0.00847791
-0.00251762
-0.00843318
-0.00242213
-0.0083728
-0.0023298
-0.0082988
-0.00223976
-0.0082156
-0.00214772
-0.00811823
-0.00206079
-0.00801145
-0.0019713
-0.0078938
-0.001883
-0.00776592
-0.00179691
-0.00762859
-0.00170959
-0.00748561
-0.0016209
-0.00733033
-0.00153429
-0.0071666
-0.00144773
-0.00699668
-0.00135939
-0.00681711
-0.00127144
-0.00663181
-0.00118373
-0.00643842
-0.00109542
-0.00623385
-0.00101189
-0.00602308
-0.000927544
-0.00580393
-0.000846975
-0.00557494
-0.000773472
-0.00533834
-0.000703771
-0.000646497
-0.00508946
-0.0045751
-0.00467736
0.00414704
-0.00496715
-0.00453711
-0.00532875
-0.00439911
-0.00565799
-0.00426637
-0.00595406
-0.00414102
-0.00622514
-0.00401513
-0.00646719
-0.00389739
-0.00668153
-0.00378358
-0.00687192
-0.00367119
-0.00703957
-0.00356353
-0.00718305
-0.00345916
-0.00730377
-0.00335818
-0.00740427
-0.00325944
-0.00748623
-0.00316285
-0.0075469
-0.00307041
-0.00759132
-0.00297815
-0.00761908
-0.00288944
-0.00762963
-0.0028018
-0.00762558
-0.00271608
-0.00760773
-0.00263219
-0.00757533
-0.00255002
-0.00752983
-0.00246763
-0.00747267
-0.00238695
-0.0074038
-0.00230863
-0.00732333
-0.0022282
-0.00723407
-0.00215005
-0.00713461
-0.00207076
-0.00702414
-0.00199348
-0.00690802
-0.00191303
-0.00678192
-0.00183569
-0.00664582
-0.00175699
-0.00650389
-0.00167622
-0.00635622
-0.00159539
-0.00619936
-0.00151625
-0.0060336
-0.0014372
-0.00586204
-0.00135529
-0.00567997
-0.00127748
-0.00549383
-0.00119804
-0.00529874
-0.00112263
-0.005095
-0.00105072
-0.00488644
-0.000982024
-0.00466925
-0.000920962
-0.000866052
-0.0044497
-0.00411811
-0.00429415
0.00373491
-0.0044716
-0.00418362
-0.00479287
-0.00407784
-0.00508688
-0.00397236
-0.00535507
-0.00387283
-0.00559455
-0.00377565
-0.00580984
-0.0036821
-0.0060015
-0.00359192
-0.006172
-0.00350069
-0.00631911
-0.00341642
-0.00644771
-0.00333057
-0.00655446
-0.00325142
-0.00664442
-0.00316948
-0.00671419
-0.00309307
-0.00676999
-0.00301461
-0.00680752
-0.00294062
-0.00683031
-0.00286665
-0.0068376
-0.00279452
-0.00683161
-0.00272207
-0.00681183
-0.00265196
-0.00678059
-0.00258127
-0.00673673
-0.00251149
-0.0066817
-0.00244197
-0.00661745
-0.00237288
-0.00654114
-0.00230451
-0.00645665
-0.00223453
-0.00636296
-0.00216445
-0.00626069
-0.00209575
-0.00614863
-0.00202508
-0.00603054
-0.00195377
-0.00590555
-0.00188199
-0.00577389
-0.00180789
-0.00563248
-0.00173679
-0.00548662
-0.00166212
-0.00533646
-0.00158735
-0.00517761
-0.00151414
-0.00501478
-0.00144031
-0.00484513
-0.00136768
-0.0046704
-0.00129736
-0.00448953
-0.00123158
-0.00430456
-0.001167
-0.00411632
-0.0011092
-0.00105793
-0.00392444
-0.00371016
-0.00395062
0.00336664
-0.00402526
-0.00386852
-0.0043168
-0.0037863
-0.00457729
-0.00371188
-0.00481833
-0.00363178
-0.00503214
-0.00356183
-0.00522474
-0.0034895
-0.00539861
-0.00341805
-0.00555036
-0.00334893
-0.005683
-0.00328378
-0.00579389
-0.00321968
-0.00589199
-0.00315332
-0.00596911
-0.00309236
-0.00603307
-0.00302911
-0.00608024
-0.00296744
-0.00611387
-0.00290699
-0.00613281
-0.00284771
-0.00613957
-0.00278776
-0.00613311
-0.00272853
-0.00611424
-0.00267083
-0.00608475
-0.00261076
-0.0060431
-0.00255314
-0.0059924
-0.00249267
-0.00593191
-0.00243337
-0.00586266
-0.00237377
-0.00578451
-0.00231268
-0.00569672
-0.00225224
-0.00560244
-0.00219003
-0.00550083
-0.0021267
-0.00539225
-0.00206235
-0.00527583
-0.00199841
-0.00515328
-0.00193044
-0.00502712
-0.00186295
-0.00489243
-0.0017968
-0.00475442
-0.00172536
-0.00461007
-0.00165848
-0.00446122
-0.00158917
-0.00430656
-0.00152234
-0.00414817
-0.00145574
-0.00398606
-0.00139369
-0.0038194
-0.00133366
-0.00364884
-0.00127976
-0.00122968
-0.00347708
-0.00334589
-0.00364106
0.00303633
-0.00362885
-0.00358555
-0.0038867
-0.00352844
-0.00412417
-0.00347441
-0.00433699
-0.00341896
-0.00453097
-0.00336786
-0.00470517
-0.00331531
-0.00485862
-0.0032646
-0.00499412
-0.00321344
-0.00511366
-0.00316423
-0.00521533
-0.00311801
-0.00530072
-0.00306792
-0.00537207
-0.00302101
-0.00542823
-0.00297295
-0.00546935
-0.00292631
-0.00549951
-0.00287683
-0.00551566
-0.00283156
-0.00552071
-0.00278271
-0.00551426
-0.00273499
-0.00549658
-0.00268851
-0.00546845
-0.00263888
-0.0054315
-0.0025901
-0.00538236
-0.0025418
-0.00532728
-0.00248844
-0.00526255
-0.0024385
-0.00519066
-0.00238457
-0.00511297
-0.00232993
-0.00502631
-0.00227669
-0.0049318
-0.0022212
-0.00483077
-0.00216338
-0.00472539
-0.00210379
-0.0046136
-0.00204223
-0.00449527
-0.00198128
-0.00437421
-0.00191786
-0.00424715
-0.00185242
-0.00411629
-0.00178935
-0.00398038
-0.00172507
-0.00384101
-0.00166171
-0.00369699
-0.00159977
-0.00355047
-0.00154021
-0.00339991
-0.00148422
-0.00324723
-0.00143243
-0.00138338
-0.00309353
-0.00301545
-0.00336396
0.00273836
-0.00327079
-0.00333022
-0.00350387
-0.00329535
-0.00371696
-0.00326132
-0.00391049
-0.00322543
-0.00408445
-0.00319389
-0.00424
-0.00315976
-0.0043784
-0.0031262
-0.00450018
-0.00309166
-0.00460632
-0.00305809
-0.00469963
-0.0030247
-0.00477524
-0.00299232
-0.00483761
-0.00295865
-0.00488747
-0.00292308
-0.00492675
-0.00288703
-0.00495054
-0.00285304
-0.00496647
-0.00281563
-0.00496932
-0.00277986
-0.00496291
-0.00274139
-0.00494787
-0.00270354
-0.00492097
-0.00266579
-0.00488616
-0.00262491
-0.00484443
-0.00258353
-0.00479161
-0.00254125
-0.00473285
-0.00249726
-0.00466764
-0.00244978
-0.00459363
-0.00240394
-0.0045162
-0.00235411
-0.00443125
-0.00230616
-0.00434085
-0.00225377
-0.00424309
-0.00220156
-0.00413919
-0.00214612
-0.00403285
-0.00208762
-0.0039227
-0.00202801
-0.00380573
-0.00196938
-0.00368542
-0.00190966
-0.00356245
-0.00184805
-0.00343516
-0.00178899
-0.00330541
-0.00172952
-0.00317344
-0.00167219
-0.00303806
-0.0016196
-0.00289931
-0.00157118
-0.00152306
-0.00275963
-0.00272068
0.00246999
-0.00311327
-0.00295057
-0.00310033
-0.00315984
-0.00308609
-0.00335158
-0.00306957
-0.00352442
-0.0030526
-0.00368142
-0.00303689
-0.00382252
-0.00301866
-0.00394872
-0.00299999
-0.0040565
-0.00298389
-0.00415341
-0.00296117
-0.00423632
-0.00294179
-0.0043072
-0.00292143
-0.00436507
-0.00290078
-0.00441141
-0.00287674
-0.00444256
-0.00285589
-0.00446769
-0.0028279
-0.00447965
-0.00280368
-0.00448281
-0.00277669
-0.0044772
-0.00274701
-0.00446062
-0.00272012
-0.00443907
-0.00268734
-0.00440622
-0.00265776
-0.00436758
-0.00262217
-0.00432117
-0.00258766
-0.0042683
-0.00255013
-0.00420452
-0.00251356
-0.00414124
-0.00246722
-0.00406738
-0.00242796
-0.00399091
-0.00238264
-0.0039079
-0.00233677
-0.00381871
-0.00229075
-0.00372601
-0.00223882
-0.00362702
-0.00218661
-0.00352496
-0.00213007
-0.00341816
-0.00207619
-0.00330978
-0.00201803
-0.00319679
-0.00196103
-0.00308248
-0.0019033
-0.00296328
-0.00184872
-0.00284257
-0.0017929
-0.00271951
-0.00174265
-0.00259339
-0.0016973
-0.00246594
-0.0016505
-0.0061181
4.84765e-05
-0.000778467
-0.00561765
3.22393e-05
-0.000532686
-0.0052149
3.13528e-06
-0.000405885
-0.00486811
-3.29911e-05
-0.0003138
-0.00456034
-7.33555e-05
-0.000234411
-0.0042796
-0.000116579
-0.000164155
-0.0040195
-0.00016212
-9.79783e-05
-0.00377755
-0.000208283
-3.36657e-05
-0.00354959
-0.000255997
2.80348e-05
-0.00333318
-0.000305255
8.88522e-05
-0.00312595
-0.000355891
0.000148654
-0.00292758
-0.000407138
0.000208769
-0.00273724
-0.000459862
0.000269524
-0.0025544
-0.000514227
0.00033139
-0.0023781
-0.000570192
0.000393889
-0.00220982
-0.000626298
0.00045802
-0.00204725
-0.000685918
0.000523352
-0.00189155
-0.000746632
0.000590934
-0.00174352
-0.000808843
0.000660814
-0.00160367
-0.000873275
0.00073342
-0.00147164
-0.000939567
0.000807541
-0.00134731
-0.00100921
0.000884881
-0.00123322
-0.00108022
0.000966122
-0.00112803
-0.00115495
0.00104977
-0.0010331
-0.00123223
0.0011373
-0.00094861
-0.0013128
0.00122831
-0.000875769
-0.00139646
0.00132362
-0.000816322
-0.00148311
0.00142366
-0.000769772
-0.00157389
0.00152734
-0.000736702
-0.00166936
0.00163629
-0.000719885
-0.00176747
0.00175066
-0.000719055
-0.00187092
0.00187009
-0.000736111
-0.001978
0.00199506
-0.00077111
-0.00209073
0.00212572
-0.000825919
-0.00220824
0.00226304
-0.000901833
-0.00233084
0.00240675
-0.00100021
-0.00245924
0.00255762
-0.00112209
-0.0025929
0.00271479
-0.00126937
-0.00273304
0.00288031
-0.00144318
-0.00287958
0.00305339
-0.00164511
-0.00303336
0.00323528
-0.0018765
-0.00319404
0.00342543
-0.00336215
0.0036253
-0.00213965
-0.00537611
-0.00034771
-0.00501672
-0.000327148
-0.00469243
-0.000321158
-0.00439769
-0.000327728
-0.00412719
-0.00034385
-0.00387646
-0.00036731
-0.00364327
-0.000395311
-0.0034235
-0.00042805
-0.00321405
-0.000465445
-0.0030155
-0.000503805
-0.00282566
-0.00054573
-0.00264286
-0.000589944
-0.00246758
-0.000635134
-0.00229947
-0.00068234
-0.00213838
-0.000731286
-0.00198256
-0.000782112
-0.00183465
-0.000833833
-0.0016939
-0.000887374
-0.00156051
-0.000942239
-0.00143341
-0.00100037
-0.00131437
-0.00105861
-0.00120402
-0.00111956
-0.00110129
-0.00118295
-0.00100768
-0.00124856
-0.000924233
-0.00131567
-0.000851705
-0.00138533
-0.000789606
-0.00145856
-0.00073848
-0.00153423
-0.000700684
-0.00161169
-0.000676105
-0.00169394
-0.000665207
-0.00177837
-0.000669186
-0.00186694
-0.000689151
-0.00195804
-0.000725844
-0.00205403
-0.000780294
-0.00215379
-0.000854128
-0.002257
-0.00094798
-0.00236539
-0.00106309
-0.00247779
-0.00120028
-0.00259586
-0.00136127
-0.00271859
-0.00154735
-0.00284727
-0.00175881
-0.00298258
-0.00312491
-0.00199605
-0.00483038
-0.000606784
-0.00457284
-0.000584692
-0.00431826
-0.000575735
-0.00407279
-0.000573202
-0.00383644
-0.000580199
-0.00361093
-0.00059282
-0.00339366
-0.000612574
-0.00318561
-0.000636097
-0.00298739
-0.00066367
-0.00279651
-0.000694686
-0.00261455
-0.000727684
-0.00243917
-0.000765326
-0.00227202
-0.000802285
-0.00211121
-0.00084315
-0.00195831
-0.000884184
-0.00181171
-0.000928715
-0.00167236
-0.000973185
-0.00154027
-0.00101946
-0.00141426
-0.00106825
-0.00129741
-0.00111722
-0.00118674
-0.00116928
-0.0010852
-0.00122109
-0.000991881
-0.00127627
-0.000908481
-0.00133196
-0.000833061
-0.00139109
-0.000768038
-0.00145035
-0.000713391
-0.00151321
-0.0006704
-0.00157722
-0.000638183
-0.00164391
-0.000618578
-0.00171355
-0.00061194
-0.00178501
-0.000619663
-0.00185921
-0.000641146
-0.00193655
-0.000678189
-0.00201699
-0.000732239
-0.00209974
-0.000802294
-0.00218695
-0.000891329
-0.00227636
-0.000998976
-0.00237014
-0.00112726
-0.00246758
-0.00127645
-0.00256939
-0.00144836
-0.00267537
-0.00164475
-0.00278619
-0.00290157
-0.00186809
-0.00422729
-0.000829183
-0.00400788
-0.000804108
-0.00379213
-0.00079148
-0.00358157
-0.000783764
-0.00337842
-0.00078335
-0.0031818
-0.000789439
-0.00299201
-0.000802359
-0.0028103
-0.000817808
-0.00263518
-0.000838787
-0.0024665
-0.000863371
-0.00230335
-0.00089083
-0.00214855
-0.000920124
-0.00199818
-0.000952656
-0.00185582
-0.000985516
-0.00171805
-0.00102195
-0.00158755
-0.00105922
-0.00146354
-0.0010972
-0.00134539
-0.00113761
-0.00123497
-0.00117867
-0.00113096
-0.00122122
-0.00103441
-0.00126584
-0.000944901
-0.0013106
-0.000863673
-0.0013575
-0.000790404
-0.00140523
-0.000726851
-0.00145464
-0.000671452
-0.00150575
-0.000626093
-0.00155857
-0.000590588
-0.00161273
-0.000565248
-0.00166925
-0.000552079
-0.00172671
-0.000550277
-0.00178681
-0.000560935
-0.00184856
-0.000584918
-0.00191257
-0.000623433
-0.00197847
-0.000675271
-0.0020479
-0.000743824
-0.00211839
-0.000828472
-0.00219171
-0.000930137
-0.00226848
-0.0010498
-0.00234791
-0.00118893
-0.00243026
-0.00134818
-0.00251612
-0.00152874
-0.00260564
-0.0026981
-0.00173221
-0.00373383
-0.00101979
-0.00354304
-0.000994896
-0.0033562
-0.000978326
-0.00317403
-0.000965932
-0.00299593
-0.00096145
-0.00282254
-0.000962826
-0.00265528
-0.000969622
-0.00249209
-0.000980999
-0.00233424
-0.000996635
-0.00218397
-0.00101364
-0.00203796
-0.00103685
-0.00189846
-0.00105962
-0.00176429
-0.00108682
-0.00163487
-0.00111494
-0.00151194
-0.00114488
-0.00139482
-0.00117634
-0.00128358
-0.00120843
-0.00117842
-0.00124278
-0.0010788
-0.00127829
-0.000985973
-0.00131404
-0.000900633
-0.00135118
-0.000821818
-0.00138941
-0.000750683
-0.00142863
-0.000686762
-0.00146915
-0.000631164
-0.00151024
-0.000583684
-0.00155323
-0.000545446
-0.00159681
-0.000516224
-0.00164195
-0.000497734
-0.00168774
-0.000488285
-0.00173616
-0.00049075
-0.00178435
-0.000503963
-0.00183534
-0.000529159
-0.00188738
-0.000567054
-0.00194058
-0.000619357
-0.00199559
-0.000684755
-0.00205299
-0.000764585
-0.00211188
-0.000860582
-0.00217248
-0.000972604
-0.00223589
-0.00110201
-0.00230086
-0.00124923
-0.00236889
-0.00141535
-0.00243952
-0.00251198
-0.00160148
-0.0033069
-0.00118997
-0.00313721
-0.00116459
-0.00297241
-0.00114312
-0.00280913
-0.00112921
-0.00265048
-0.0011201
-0.00249572
-0.00111759
-0.00234619
-0.00111915
-0.00220102
-0.00112617
-0.00206135
-0.0011363
-0.00192526
-0.00114973
-0.00179573
-0.00116638
-0.00166901
-0.00118634
-0.00154906
-0.00120677
-0.00143403
-0.00122997
-0.00132324
-0.00125567
-0.00121847
-0.0012811
-0.00111896
-0.00130795
-0.00102513
-0.0013366
-0.000937126
-0.00136629
-0.000855008
-0.00139616
-0.000778464
-0.00142772
-0.000709475
-0.0014584
-0.000646714
-0.00149139
-0.000591928
-0.00152394
-0.000543408
-0.00155876
-0.000503557
-0.00159308
-0.000471948
-0.00162842
-0.000448693
-0.00166521
-0.000433416
-0.00170301
-0.000429183
-0.0017404
-0.000433464
-0.00178006
-0.000449128
-0.00181968
-0.000475603
-0.0018609
-0.000513514
-0.00190267
-0.000562967
-0.00194614
-0.00062568
-0.00199028
-0.000701769
-0.00203579
-0.000791909
-0.00208234
-0.000896813
-0.00213099
-0.0010168
-0.00218088
-0.0011531
-0.00223259
-0.00130661
-0.002286
-0.00234136
-0.00147723
-0.002939
-0.0013445
-0.00278784
-0.00131574
-0.00263873
-0.00129224
-0.00249338
-0.00127455
-0.00235071
-0.00126277
-0.00221242
-0.00125588
-0.0020779
-0.00125366
-0.001949
-0.00125507
-0.00182303
-0.00126227
-0.00170088
-0.00127188
-0.00158292
-0.00128433
-0.00147091
-0.00129835
-0.00136233
-0.00131536
-0.00125828
-0.00133402
-0.00115958
-0.00135437
-0.00106555
-0.00137513
-0.000976368
-0.00139714
-0.000892292
-0.00142068
-0.000813352
-0.00144523
-0.000740665
-0.00146885
-0.000673919
-0.00149446
-0.000611856
-0.00152047
-0.000557538
-0.00154571
-0.000508551
-0.00157293
-0.000467821
-0.00159949
-0.000433694
-0.00162721
-0.000406456
-0.00165565
-0.000387377
-0.00168429
-0.000376934
-0.00171346
-0.000374629
-0.0017427
-0.000382366
-0.00177233
-0.000398724
-0.00180332
-0.000425412
-0.00183421
-0.000461909
-0.00186617
-0.000510318
-0.00189773
-0.0005702
-0.0019304
-0.000642078
-0.00196391
-0.000726105
-0.00199831
-0.000823836
-0.00203325
-0.000935492
-0.00206922
-0.00106132
-0.00210677
-0.00120304
-0.00214427
-0.00218315
-0.00136125
-0.00261965
-0.00148448
-0.00248391
-0.00145148
-0.00235019
-0.00142596
-0.0022188
-0.00140594
-0.00209074
-0.00139083
-0.00196565
-0.00138097
-0.00184479
-0.00137452
-0.00172711
-0.00137276
-0.00161378
-0.0013756
-0.00150396
-0.0013817
-0.00139854
-0.00138975
-0.00129606
-0.00140084
-0.00119929
-0.00141212
-0.00110559
-0.00142772
-0.00101771
-0.00144225
-0.000933004
-0.00145984
-0.000852811
-0.00147733
-0.000777176
-0.00149632
-0.000707007
-0.0015154
-0.000641212
-0.00153465
-0.000581504
-0.00155417
-0.000528185
-0.00157379
-0.000479988
-0.00159391
-0.000437762
-0.00161515
-0.000401714
-0.00163554
-0.000371547
-0.00165737
-0.000349264
-0.00167794
-0.000333731
-0.00169982
-0.000326552
-0.00172064
-0.00032681
-0.00174244
-0.000334989
-0.00176415
-0.000352628
-0.00178568
-0.000378636
-0.0018082
-0.000414952
-0.00182986
-0.000461092
-0.00185159
-0.000517581
-0.00187391
-0.000584805
-0.00189669
-0.000664313
-0.00191881
-0.000754713
-0.00194285
-0.000858067
-0.00196587
-0.000974433
-0.0019904
-0.00110404
-0.00201466
-0.00203887
-0.00124833
-0.00233974
-0.00161068
-0.00221642
-0.0015748
-0.00209441
-0.00154797
-0.00197715
-0.00152321
-0.00186097
-0.001507
-0.00175034
-0.0014916
-0.00164061
-0.00148424
-0.00153438
-0.00147899
-0.00143106
-0.00147892
-0.00133284
-0.00147992
-0.00123676
-0.00148583
-0.00114511
-0.00149248
-0.00105683
-0.0015004
-0.000973437
-0.00151112
-0.000893304
-0.00152238
-0.000816546
-0.0015366
-0.000745012
-0.00154886
-0.00067753
-0.0015638
-0.00061505
-0.00157788
-0.000556142
-0.00159355
-0.000503212
-0.0016071
-0.000455064
-0.00162193
-0.000412644
-0.00163633
-0.000375333
-0.00165246
-0.000343342
-0.00166753
-0.000318565
-0.00168215
-0.000298935
-0.00169757
-0.000287681
-0.00171107
-0.000282157
-0.00172616
-0.000284303
-0.0017403
-0.000293719
-0.00175473
-0.000311319
-0.00176808
-0.000337365
-0.00178216
-0.000372079
-0.00179514
-0.000415396
-0.00180828
-0.00046897
-0.00182034
-0.000532093
-0.00183356
-0.00060502
-0.00184588
-0.000689875
-0.001858
-0.000785002
-0.00187074
-0.000892775
-0.00188263
-0.00101225
-0.00189519
-0.0011452
-0.00190592
0.000676738
0.00121627
-0.0013113
-0.000581713
0.000757796
0.00114414
-0.0012252
0.000825758
0.00107459
-0.00114255
0.00088154
0.00100798
-0.00106377
0.000926096
0.000943972
-0.000988526
0.000960075
0.000883001
-0.000916979
0.00098534
0.000824126
-0.00084939
0.00100146
0.000768756
-0.000784878
0.0010097
0.000715769
-0.000724009
0.00101143
0.000665043
-0.000666771
0.00100695
0.000617212
-0.000612732
0.000997351
0.000571939
-0.000562336
0.000982873
0.000528698
-0.000514218
0.000964481
0.00048796
-0.000469566
0.000943276
0.000449204
-0.000427997
0.000918876
0.000412941
-0.000388539
0.000893045
0.000378186
-0.000352354
0.000865384
0.000345964
-0.000318301
0.000836874
0.000315157
-0.000286645
0.00080808
0.000286238
-0.000257443
0.000779414
0.000259128
-0.00023046
0.000751333
0.000233518
-0.000205433
0.000723871
0.000209886
-0.000182422
0.000697939
0.000187496
-0.000161562
0.00067351
0.000166649
-0.000142217
0.000650932
0.000147425
-0.000124844
0.000630645
0.000129495
-0.000109205
0.000612671
0.000113145
-9.51676e-05
0.000597332
9.81158e-05
-8.27732e-05
0.000584614
8.47239e-05
-7.20021e-05
0.000574276
7.28303e-05
-6.24892e-05
0.000566475
6.25992e-05
-5.47941e-05
0.000560823
5.40877e-05
-4.84323e-05
0.000556565
4.78044e-05
-4.35429e-05
0.000552821
4.40308e-05
-4.02835e-05
0.00054797
4.34712e-05
-3.86161e-05
0.000539467
4.73784e-05
-3.88716e-05
0.000522797
5.79061e-05
-4.12306e-05
0.000491052
7.8481e-05
-4.6733e-05
0.000432139
0.0001159
-5.6979e-05
0.000324956
0.000183347
-7.61625e-05
0.00012686
0.000310688
-0.000112583
0.000570692
-0.000265631
-0.0001782
0.000614599
0.00112851
-0.000526836
0.00069008
0.00106866
0.000754305
0.00101036
0.000807722
0.000954567
0.000851307
0.000900388
0.00088569
0.00084862
0.000911553
0.000798263
0.000929702
0.000750609
0.000941352
0.000704119
0.000945626
0.000660771
0.000944724
0.000618114
0.000938634
0.000578031
0.000928224
0.000539109
0.000913614
0.000502571
0.000895858
0.000466961
0.000875326
0.000433475
0.000851953
0.00040156
0.000827407
0.000370512
0.000801375
0.00034119
0.000774254
0.000313361
0.000746899
0.000286484
0.000719398
0.000261021
0.000692479
0.000236807
0.000666218
0.000213759
0.00064111
0.000191759
0.000617555
0.000170982
0.000595742
0.000151309
0.000576016
0.000132873
0.000558315
0.000115818
0.000542906
0.000100135
0.000529711
8.60266e-05
0.000518374
7.39388e-05
0.000508551
6.39122e-05
0.000499066
5.72905e-05
0.000488602
5.44958e-05
0.000474427
5.76485e-05
0.000453034
6.87726e-05
0.000419224
9.17181e-05
0.000365001
0.000132706
0.000279663
0.000201241
0.000147021
0.000315991
-5.04004e-05
0.000508113
0.000827401
-0.000307109
0.000555765
0.00104775
-0.000475002
0.000626109
0.000998318
0.000685946
0.000950529
0.000736612
0.000903902
0.000778284
0.000858716
0.000811969
0.000814935
0.000837567
0.000772665
0.000856539
0.000731637
0.000868789
0.00069187
0.000875697
0.000653863
0.000876783
0.000617029
0.000873103
0.000581711
0.000865124
0.000547088
0.000853523
0.000514172
0.000838201
0.000482284
0.000820337
0.00045134
0.000800402
0.000421496
0.000778056
0.000392858
0.000754176
0.000365072
0.000729266
0.000338272
0.000703681
0.000312071
0.000677392
0.000287311
0.000651372
0.000262828
0.00062573
0.000239402
0.000600585
0.000216905
0.000576664
0.000194904
0.000553805
0.000174169
0.000532314
0.000154365
0.000512692
0.000135441
0.0004948
0.000118028
0.000478312
0.000102514
0.00046324
8.90117e-05
0.000448661
7.84917e-05
0.000433729
7.22228e-05
0.000416535
7.16905e-05
0.000394835
7.93491e-05
0.000364986
9.86214e-05
0.000322508
0.000134197
0.000261081
0.000194132
0.000171717
0.000290607
4.58785e-05
0.000441829
-0.000122395
0.000676388
0.00102678
-0.000321771
0.00050127
0.000973049
-0.000426571
0.000566223
0.000933365
0.000622263
0.000894489
0.00066988
0.000856285
0.000709733
0.000818864
0.000742523
0.000782146
0.000768055
0.000747134
0.000787194
0.000712499
0.000800379
0.000678687
0.000808443
0.0006458
0.000811419
0.000614053
0.000809887
0.000583243
0.000804168
0.000552808
0.000794884
0.000523457
0.00078266
0.000494509
0.000767015
0.000466986
0.000749157
0.000439355
0.000729319
0.000412696
0.000707615
0.000386777
0.000684725
0.000361163
0.000660555
0.000336242
0.000636076
0.000311791
0.000611061
0.000287844
0.000586067
0.000264396
0.000561218
0.000241755
0.000536885
0.000219239
0.000513318
0.000197736
0.000491069
0.000176615
0.000469639
0.000156871
0.000449602
0.000138066
0.00043083
0.000121287
0.000412785
0.000107058
0.00039481
9.64671e-05
0.000376265
9.07681e-05
0.000355491
9.24639e-05
0.000330265
0.000104576
0.000297819
0.000131067
0.000253822
0.000178194
0.000193262
0.000254692
0.000110185
0.000373684
-2.58442e-06
0.000554598
-0.000148698
0.000822503
0.00120382
-0.000325742
0.000451003
0.000904525
-0.000382479
0.000511053
0.000873316
0.000563574
0.000841968
0.000608338
0.000811521
0.000646454
0.000780749
0.000677409
0.000751191
0.000702783
0.00072176
0.000721817
0.000693464
0.000735755
0.00066475
0.000744471
0.000637084
0.000748667
0.000609857
0.000749238
0.000582673
0.000745355
0.000556692
0.000737936
0.000530877
0.000727326
0.000505119
0.000714475
0.000479838
0.000698742
0.000455088
0.000680873
0.000430566
0.000661444
0.000406207
0.000640398
0.000382209
0.000618309
0.000358332
0.000595408
0.000334692
0.000571798
0.000311455
0.000547681
0.000288513
0.00052371
0.000265727
0.000499962
0.000242987
0.000476462
0.000221237
0.000453593
0.000199484
0.000431749
0.000178716
0.000410527
0.000159288
0.000390305
0.000141509
0.000370545
0.000126818
0.000351031
0.00011598
0.000330656
0.000111144
0.00030826
0.000114859
0.000281878
0.000130958
0.00024915
0.000163796
0.000206665
0.000220679
0.000149872
0.000311485
7.33882e-05
0.000450168
-2.74537e-05
0.00065544
-0.000157866
0.000952915
0.00136354
-0.000317588
0.000405266
0.000841146
-0.000341887
0.000461055
0.000817527
0.000509437
0.000793586
0.000551603
0.000769355
0.000587108
0.000745244
0.000617298
0.000721001
0.000641571
0.000697487
0.000660942
0.000674094
0.000674649
0.000651043
0.00068445
0.000627283
0.000689699
0.000604608
0.000690831
0.000581541
0.00068876
0.000558763
0.000683608
0.000536029
0.000674923
0.000513805
0.000663374
0.000491387
0.000649729
0.000468733
0.000633978
0.000446317
0.000616423
0.000423762
0.00059751
0.000401123
0.000577344
0.000378498
0.000555802
0.000356234
0.00053382
0.000333436
0.000511409
0.000310924
0.000488674
0.000288462
0.000465612
0.000266049
0.000442807
0.000244043
0.000420089
0.000222202
0.000397926
0.000200878
0.000376635
0.00018058
0.000355736
0.000162408
0.000335673
0.000146881
0.000315372
0.000136282
0.000294364
0.000132152
0.000271487
0.000137738
0.000245437
0.000157008
0.000213645
0.000195588
0.000173076
0.000261247
0.000119884
0.000364678
5.03244e-05
0.000519728
-4.17844e-05
0.000747549
-0.00016046
0.00107159
0.00151091
-0.000307822
0.000362976
0.000783204
-0.000305034
0.000414725
0.000765779
0.000460208
0.000748103
0.000499556
0.000730008
0.000533627
0.000711173
0.000562165
0.000692462
0.000585792
0.000673861
0.000604433
0.000655453
0.000618725
0.000636752
0.000627849
0.000618159
0.000634192
0.000598265
0.000636699
0.000579035
0.000636069
0.000559394
0.00063167
0.000540428
0.000624822
0.000520654
0.000615218
0.000500991
0.000603398
0.000480554
0.000589436
0.000460279
0.000573939
0.000439259
0.000556566
0.000418495
0.000537757
0.000397308
0.000518242
0.000375749
0.000497811
0.000353867
0.00047701
0.000331726
0.000455865
0.000309606
0.000434074
0.000287841
0.000412212
0.000265905
0.000390242
0.000244172
0.000368766
0.000222355
0.000347427
0.00020192
0.000326719
0.000183117
0.000306223
0.000167376
0.000286004
0.000156501
0.000265028
0.000153128
0.000242623
0.000160143
0.000217442
0.00018219
0.000187542
0.000225488
0.000149979
0.00029881
0.000100674
0.000413982
3.53559e-05
0.000585047
-4.84414e-05
0.000831347
-0.000156845
0.00117999
0.00164703
-0.000292973
0.000325232
0.000729273
-0.000271302
0.000373173
0.000717839
0.000415413
0.000705863
0.00045224
0.000693181
0.000484206
0.000679208
0.00051128
0.000665388
0.00053407
0.000651071
0.000552347
0.000637177
0.00056609
0.000623009
0.00057624
0.000608009
0.000582199
0.000592307
0.000585395
0.000575839
0.000585392
0.000559398
0.000582965
0.000542856
0.000577355
0.000526263
0.000569372
0.000508973
0.000558406
0.00049152
0.000546314
0.000472371
0.000532228
0.000453346
0.000516736
0.000433987
0.000499946
0.000414098
0.000481576
0.000394119
0.000462665
0.000372778
0.000443243
0.000351148
0.000423501
0.000329348
0.000403477
0.000307866
0.000383148
0.000286233
0.000362152
0.000265168
0.000340949
0.000243558
0.000320393
0.000222477
0.000300026
0.000203484
0.00028022
0.000187183
0.000260526
0.000176195
0.0002402
0.000173455
0.000218583
0.00018176
0.000194475
0.000206298
0.000166749
0.000253214
0.000132457
0.000333103
8.68341e-05
0.000459606
2.45969e-05
0.000647285
-5.16539e-05
0.000907598
-0.000152079
0.00128042
0.00177269
-0.000277737
0.000291233
0.000680106
-0.000242066
0.000335798
0.000673273
0.000374827
0.000666834
0.000409425
0.000658584
0.000439325
0.000649308
0.00046513
0.000639584
0.000486793
0.000629408
0.000504955
0.000619015
0.000518779
0.000609186
0.000528782
0.000598006
0.000535638
0.000585453
0.000539088
0.000572389
0.00054046
0.000558026
0.000539289
0.000544027
0.000535068
0.000530485
0.000528084
0.000515958
0.000519435
0.000500169
0.000508019
0.000483788
0.000495664
0.000465702
0.000481943
0.000447709
0.000466952
0.000429089
0.000450709
0.000410363
0.00043307
0.000390417
0.000414999