/*--------------------------------*- C++ -*----------------------------------*\
| =========                 |                                                 |
| \\      /  F ield         | OpenFOAM: The Open Source CFD Toolbox           |
|  \\    /   O peration     | Version:  2.3.0                                 |
|   \\  /    A nd           | Web:      www.OpenFOAM.org                      |
|    \\/     M anipulation  |                                                 |
\*---------------------------------------------------------------------------*/
FoamFile
{
    version     2.0;
    format      ascii;
    class       volScalarField;
    location    "1000";
    object      nut;
}
// * * * * * * * * * * * * * * * * * * * * * * * * * * * * * * * * * * * * * //

dimensions      [0 2 -1 0 0 0 0];

internalField   nonuniform List<scalar> 
38144
(
0.0718261
0.0702225
0.0686134
0.0669994
0.0653815
0.0637604
0.0621372
0.0605129
0.058888
0.0572634
0.0556398
0.0540175
0.0523976
0.0507806
0.0491674
0.0475584
0.0459544
0.0443558
0.0427633
0.0411776
0.0395991
0.0380282
0.0364658
0.0349126
0.0333695
0.0318371
0.0303165
0.0288091
0.0273165
0.0258405
0.0243834
0.0229475
0.0215372
0.0201562
0.0188095
0.0175032
0.0162444
0.0150413
0.0138988
0.012812
0.0117333
0.0104193
0.0086047
0.0729484
0.0715292
0.0701059
0.0686788
0.0672485
0.0658157
0.0643811
0.0629452
0.0615085
0.0600713
0.0586336
0.0571962
0.0557596
0.0543237
0.0528894
0.051457
0.0500272
0.0486004
0.0471771
0.0457581
0.0443436
0.0429344
0.0415314
0.0401353
0.0387474
0.0373696
0.0360027
0.0346493
0.0333124
0.0319945
0.0306991
0.0294317
0.0281987
0.027007
0.025867
0.0247893
0.0237886
0.0228808
0.0220839
0.0214177
0.0208987
0.0205417
0.0203579
0.0739878
0.0727275
0.0714629
0.0701946
0.0689229
0.0676484
0.0663716
0.0650931
0.0638131
0.0625313
0.0612478
0.059963
0.058677
0.0573901
0.0561026
0.0548149
0.0535276
0.052241
0.0509555
0.0496719
0.0483908
0.0471129
0.045839
0.0445703
0.0433083
0.0420547
0.0408115
0.0395817
0.0383684
0.0371747
0.0360056
0.0348664
0.0337639
0.0327062
0.0317018
0.0307613
0.0298975
0.0291232
0.0284516
0.0278967
0.0274703
0.0271821
0.027037
0.0749481
0.0738249
0.0726971
0.0715647
0.0704281
0.0692879
0.0681446
0.0669985
0.0658497
0.0646983
0.0635439
0.0623865
0.0612258
0.0600623
0.0588964
0.0577282
0.056558
0.0553867
0.0542146
0.0530421
0.0518701
0.0506997
0.0495312
0.048366
0.0472058
0.0460522
0.0449079
0.043776
0.0426588
0.0415606
0.040487
0.039443
0.0384347
0.0374703
0.0365582
0.0357077
0.0349293
0.0342345
0.0336338
0.0331375
0.0327556
0.0324962
0.0323617
0.075832
0.0748275
0.0738176
0.072802
0.0717811
0.0707551
0.0697248
0.0686904
0.0676522
0.0666104
0.0655643
0.0645137
0.0634579
0.0623973
0.0613322
0.0602629
0.0591893
0.0581125
0.0570331
0.0559519
0.0548696
0.0537869
0.0527044
0.0516237
0.0505457
0.0494726
0.0484072
0.0473519
0.0463102
0.0452865
0.0442852
0.0433118
0.0423727
0.0414758
0.0406289
0.0398405
0.0391193
0.0384758
0.0379194
0.0374592
0.0371034
0.0368587
0.0367283
0.0766419
0.0757413
0.0748332
0.0739185
0.0729968
0.0720682
0.0711337
0.070194
0.0692491
0.0682993
0.0673445
0.0663837
0.0654162
0.0644416
0.0634606
0.0624737
0.0614807
0.0604823
0.0594789
0.0584719
0.0574628
0.0564523
0.0554409
0.0544294
0.053419
0.0524111
0.0514089
0.0504154
0.049434
0.0484686
0.0475235
0.0466045
0.0457178
0.0448711
0.0440725
0.0433291
0.0426488
0.0420408
0.0415149
0.041079
0.0407399
0.0405037
0.0403741
0.0773848
0.0765731
0.0757527
0.0749252
0.0740901
0.0732443
0.0723909
0.0715313
0.0706651
0.0697926
0.0689147
0.0680304
0.067138
0.0662357
0.065325
0.0644072
0.0634819
0.0625492
0.0616091
0.0606627
0.0597126
0.0587614
0.0578089
0.0568553
0.0559011
0.0549474
0.0539966
0.0530529
0.0521206
0.0512022
0.0503019
0.0494258
0.0485795
0.0477703
0.047008
0.0463
0.0456515
0.0450695
0.0445655
0.0441468
0.0438198
0.0435892
0.0434588
0.0780657
0.0773295
0.0765841
0.0758308
0.0750749
0.0742987
0.0735134
0.0727225
0.0719234
0.0711147
0.0703004
0.0694812
0.0686547
0.0678144
0.0669609
0.0661019
0.0652337
0.0643571
0.0634706
0.0625758
0.0616722
0.0607682
0.059864
0.0589595
0.0580534
0.0571467
0.0562393
0.0553345
0.0544418
0.0535628
0.0526999
0.0518585
0.051045
0.0502633
0.0495272
0.0488475
0.0482299
0.0476653
0.0471776
0.0467718
0.0464541
0.0462283
0.0460954
0.0786985
0.0780186
0.0773363
0.0766402
0.0759693
0.0752498
0.0745188
0.0737845
0.0730444
0.0722845
0.0715187
0.070749
0.0699791
0.0691996
0.0683894
0.067583
0.066759
0.0659339
0.0650905
0.0642488
0.0633802
0.0625113
0.0616441
0.0607802
0.0599147
0.0590512
0.0581882
0.0573104
0.0564503
0.0556047
0.0547758
0.0539615
0.0531812
0.0524201
0.051701
0.0510372
0.0504657
0.0499085
0.0494344
0.0490366
0.0487266
0.0485073
0.0483664
0.00904861
0.0110977
0.0122395
0.0132923
0.0144043
0.0155899
0.0168336
0.018122
0.0194416
0.0207842
0.0221443
0.0235162
0.0248983
0.0262885
0.0276854
0.0290877
0.0304948
0.0319065
0.0333225
0.0347426
0.0361658
0.0375926
0.039023
0.0404569
0.041894
0.0433341
0.0447774
0.0462233
0.0476724
0.0491239
0.0505776
0.0520335
0.0534913
0.0549507
0.0564112
0.0578725
0.0593341
0.0607957
0.0622568
0.0637169
0.0651751
0.0666307
0.0680827
0.020354
0.0205407
0.0209154
0.0214649
0.0221659
0.0229931
0.0239234
0.0249351
0.0260111
0.027137
0.0283009
0.0294947
0.0307109
0.0319443
0.0331912
0.0344483
0.0357139
0.0369852
0.0382614
0.0395414
0.0408246
0.0421099
0.0433975
0.0446868
0.0459774
0.0472691
0.0485618
0.0498558
0.0511503
0.0524455
0.0537412
0.0550374
0.056334
0.0576305
0.0589271
0.0602235
0.0615197
0.0628152
0.0641101
0.065404
0.0666965
0.0679871
0.0692754
0.0270326
0.0271722
0.027459
0.0278857
0.0284399
0.0291073
0.0298727
0.0307205
0.0316356
0.0326064
0.0336223
0.0346735
0.0357523
0.0368538
0.0379725
0.0391043
0.0402462
0.0413957
0.0425509
0.0437103
0.0448724
0.0460364
0.0472021
0.0483682
0.0495347
0.050701
0.051867
0.0530324
0.0541971
0.0553608
0.0565236
0.0576852
0.0588456
0.0600048
0.0611628
0.0623196
0.0634753
0.0646297
0.0657828
0.0669346
0.0680848
0.0692331
0.0703797
0.0323504
0.0324645
0.0327049
0.0330658
0.0335393
0.0341154
0.0347816
0.0355258
0.036336
0.0372019
0.0381129
0.0390605
0.0400381
0.041039
0.042058
0.0430913
0.0441351
0.0451867
0.0462439
0.047305
0.0483684
0.0494335
0.0504986
0.0515636
0.0526276
0.0536903
0.054751
0.0558096
0.0568659
0.05792
0.0589716
0.0600204
0.0610665
0.0621099
0.0631508
0.0641893
0.0652258
0.06626
0.067292
0.0683218
0.0693494
0.0703747
0.0713974
0.0367109
0.0368073
0.0370179
0.0373377
0.0377608
0.0382777
0.0388785
0.0395529
0.0402906
0.0410812
0.0419163
0.0427875
0.043688
0.0446113
0.0455529
0.0465083
0.0474741
0.0484472
0.0494252
0.0504066
0.05139
0.0523735
0.053357
0.0543391
0.0553188
0.0562954
0.0572689
0.0582388
0.0592053
0.0601681
0.0611267
0.0620808
0.0630306
0.0639763
0.0649183
0.0658567
0.0667919
0.0677238
0.0686521
0.0695772
0.0704993
0.0714181
0.0723336
0.0403509
0.0404338
0.040623
0.0409146
0.041302
0.041778
0.0423329
0.0429573
0.0436414
0.0443769
0.0451552
0.0459679
0.0468084
0.0476713
0.0485516
0.049445
0.050348
0.0512574
0.0521715
0.0530883
0.054006
0.0549239
0.0558404
0.0567541
0.057664
0.0585694
0.0594702
0.0603667
0.0612587
0.0621453
0.0630257
0.0639
0.0647685
0.0656318
0.06649
0.0673437
0.0681928
0.0690372
0.0698769
0.070712
0.0715428
0.0723697
0.0731927
0.0434303
0.043503
0.0436757
0.0439452
0.044307
0.0447528
0.0452732
0.0458598
0.046504
0.0471975
0.0479318
0.0486979
0.0494906
0.0503058
0.0511371
0.05198
0.0528316
0.0536889
0.0545505
0.0554144
0.0562791
0.0571429
0.0580044
0.0588617
0.059713
0.0605583
0.0613984
0.0622345
0.0630651
0.0638877
0.0647012
0.065508
0.0663076
0.0671012
0.0678883
0.0686701
0.0694458
0.0702154
0.070979
0.0717363
0.0724882
0.0732353
0.073978
0.0460628
0.0461277
0.0462851
0.0465365
0.0468803
0.0473033
0.047796
0.0483521
0.0489661
0.0496277
0.0503259
0.0510531
0.0518078
0.0525852
0.0533764
0.0541775
0.0549859
0.0557999
0.0566184
0.0574393
0.0582607
0.0590803
0.0598975
0.0607062
0.0615069
0.0623007
0.0630914
0.0638789
0.064659
0.0654259
0.0661798
0.0669318
0.0676711
0.0684069
0.0691322
0.0698543
0.0705663
0.0712726
0.0719704
0.0726599
0.0733435
0.0740214
0.0746936
0.0483315
0.0483915
0.0485305
0.0487631
0.0490962
0.0494994
0.0499655
0.050494
0.0510852
0.0517212
0.0523855
0.0530788
0.0538057
0.0545534
0.0553078
0.0560737
0.0568469
0.0576265
0.0584121
0.0592002
0.0599874
0.0607708
0.061554
0.0623162
0.0630743
0.0638257
0.0645807
0.0653291
0.0660643
0.0667798
0.0674803
0.0681974
0.0688736
0.0695706
0.0702346
0.070914
0.0715643
0.072219
0.072857
0.0734885
0.0741157
0.0747363
0.0753519
0.0187667
0.0181093
0.0174739
0.016858
0.0162601
0.0156791
0.0151138
0.0145634
0.0140269
0.0135035
0.0129924
0.012493
0.0120044
0.0115262
0.0110575
0.010598
0.0101469
0.00970379
0.00926808
0.00883927
0.00841684
0.00800032
0.00758924
0.0071831
0.00678151
0.00638403
0.0059902
0.0055997
0.0052121
0.00482714
0.00444459
0.00406428
0.00368626
0.00331084
0.00293866
0.0025708
0.00220906
0.00185582
0.00151414
0.00118722
0.000876653
0.000588306
0.000355504
0.018718
0.0181143
0.017526
0.0169538
0.0163967
0.0158539
0.0153246
0.0148077
0.0143026
0.0138085
0.0133247
0.0128507
0.0123856
0.011929
0.0114802
0.0110388
0.0106041
0.0101757
0.00975307
0.00933562
0.00892292
0.0085145
0.00810985
0.00770846
0.00730999
0.00691394
0.00651983
0.00612738
0.00573612
0.00534586
0.00495633
0.00456748
0.0041794
0.00379241
0.00340715
0.00302477
0.00264669
0.00227446
0.0019093
0.00154994
0.00119037
0.000870048
0.000595114
0.0186843
0.0181238
0.0175795
0.0170488
0.0165306
0.0160242
0.0155287
0.0150434
0.0145677
0.0141009
0.0136424
0.0131916
0.012748
0.012311
0.0118801
0.0114549
0.0110347
0.0106191
0.0102077
0.00979986
0.00939524
0.00899335
0.00859368
0.00819578
0.00779928
0.00740364
0.00700843
0.00661334
0.00621791
0.00582195
0.00542514
0.00502751
0.00462902
0.00422995
0.00383087
0.00343262
0.00303612
0.00264192
0.00224892
0.00185247
0.00145067
0.00109913
0.000771251
0.0186425
0.0181311
0.0176283
0.0171357
0.0166529
0.0161795
0.0157146
0.0152579
0.0148086
0.0143662
0.0139302
0.0135001
0.0130754
0.0126557
0.0122404
0.0118291
0.0114213
0.0110167
0.0106148
0.010215
0.009817
0.00942029
0.00902445
0.00862903
0.00823362
0.00783775
0.00744095
0.00704291
0.00664315
0.00624144
0.00583754
0.00543126
0.0050226
0.00461173
0.00419909
0.00378513
0.00337026
0.00295383
0.00253268
0.00210092
0.00167087
0.00128313
0.000908699
0.0186136
0.0181382
0.0176721
0.0172139
0.0167631
0.0163194
0.0158821
0.0154508
0.0150252
0.0146045
0.0141885
0.0137768
0.0133688
0.0129641
0.0125624
0.0121632
0.0117662
0.0113709
0.0109769
0.0105839
0.0101913
0.00979873
0.00940583
0.00901214
0.00861724
0.00822066
0.007822
0.0074208
0.00701672
0.00660946
0.00619865
0.00578412
0.00536581
0.0049438
0.00451829
0.00408945
0.00365703
0.00321913
0.00277094
0.0023064
0.00185399
0.00143248
0.00101979
0.0185806
0.0181434
0.017711
0.017284
0.0168621
0.0164451
0.0160326
0.0156243
0.0152197
0.0148185
0.0144203
0.0140247
0.0136314
0.01324
0.0128502
0.0124616
0.0120738
0.0116865
0.0112994
0.0109119
0.0105238
0.0101346
0.009744
0.00935148
0.00895659
0.00855902
0.00815827
0.00775399
0.00734568
0.00693309
0.00651572
0.00609351
0.00566622
0.0052338
0.00479641
0.00435371
0.00390479
0.00344678
0.00297309
0.00247823
0.00200711
0.00155556
0.00111175
0.0185557
0.0181482
0.0177457
0.0173467
0.0169508
0.016558
0.0161679
0.0157802
0.0153946
0.0150108
0.0146285
0.0142473
0.013867
0.0134874
0.0131081
0.0127287
0.0123489
0.0119685
0.0115871
0.0112044
0.0108201
0.0104337
0.0100448
0.00965302
0.00925779
0.00885894
0.00845608
0.00804873
0.00763646
0.00721881
0.0067954
0.00636605
0.00593046
0.00548855
0.00504014
0.00458467
0.00412063
0.00364356
0.00314475
0.00261387
0.00213292
0.00165636
0.00118776
0.0185282
0.0181516
0.0177765
0.0174029
0.0170305
0.0166594
0.0162895
0.0159206
0.0155523
0.0151843
0.0148164
0.0144483
0.0140795
0.0137101
0.0133401
0.0129691
0.0125965
0.0122218
0.011845
0.0114664
0.0110853
0.0107014
0.0103143
0.0099234
0.00952745
0.00912653
0.00872113
0.00831094
0.00789515
0.00747291
0.00704384
0.00660787
0.00616469
0.0057139
0.00525507
0.00478769
0.00430956
0.00381501
0.00329324
0.00273266
0.00223954
0.00174423
0.00125672
0.0185057
0.0181542
0.0178042
0.0174537
0.0171026
0.0167507
0.0163989
0.0160474
0.0156952
0.015342
0.014988
0.0146329
0.0142743
0.0139135
0.0135521
0.0131884
0.0128238
0.012455
0.0120799
0.0117045
0.0113266
0.010945
0.0105594
0.010173
0.0097781
0.00937274
0.00896193
0.00854824
0.00813019
0.00770503
0.00727086
0.00682869
0.00637921
0.00592092
0.00545022
0.00496861
0.00447529
0.00396308
0.00341784
0.00283483
0.00231139
0.00178252
0.00128613
0.00035823
0.000477616
0.000674728
0.000862266
0.00104235
0.00121635
0.00138558
0.00155165
0.00171675
0.00188416
0.0020589
0.00224793
0.00245952
0.00269911
0.00296853
0.00326735
0.00359342
0.00394525
0.00432213
0.00472353
0.00514972
0.00560086
0.00607746
0.00658013
0.00710936
0.00766581
0.00824993
0.00886219
0.00950328
0.0101739
0.0108746
0.0116064
0.0123702
0.0131666
0.0139969
0.0148619
0.0157627
0.0167003
0.0176757
0.0186898
0.0197434
0.0208378
0.0219758
0.00050281
0.000632051
0.000834842
0.00103313
0.00122356
0.00140732
0.00158689
0.00176565
0.00194818
0.00214016
0.00234811
0.0025788
0.00283867
0.00312974
0.0034477
0.00379003
0.00415527
0.00454245
0.00495107
0.00538128
0.00583301
0.00630645
0.0068021
0.00732028
0.0078612
0.00842529
0.00901279
0.00962411
0.0102598
0.0109205
0.0116067
0.0123192
0.0130586
0.0138258
0.0146215
0.0154465
0.0163016
0.0171878
0.0181057
0.0190562
0.0200397
0.0210562
0.022103
0.000636726
0.000770977
0.000981468
0.00119055
0.00139194
0.0015877
0.00178218
0.00198093
0.00219026
0.00241643
0.00266497
0.00294043
0.00324698
0.00358297
0.003942
0.00432179
0.00472119
0.00513969
0.00557699
0.00603281
0.00650742
0.00700081
0.00751316
0.00804464
0.00859525
0.00916508
0.0097545
0.0103638
0.0109934
0.0116436
0.0123151
0.0130083
0.0137238
0.0144621
0.015224
0.0160102
0.0168209
0.0176571
0.0185191
0.0194074
0.0203224
0.021264
0.0222312
0.000753763
0.000892931
0.00111187
0.00133158
0.00154484
0.00175538
0.00196953
0.00219427
0.00243617
0.00270027
0.00298978
0.00330744
0.00365641
0.00403044
0.00442427
0.00483614
0.0052653
0.00571104
0.00617313
0.00665144
0.00714584
0.00765627
0.00818268
0.00872497
0.00928315
0.0098572
0.0104473
0.0110537
0.0116766
0.0123165
0.0129736
0.0136483
0.0143411
0.0150523
0.0157825
0.0165321
0.0173014
0.0180909
0.0189011
0.0197321
0.020584
0.0214569
0.0223505
0.00085472
0.000999904
0.00122771
0.00145833
0.001685
0.00191333
0.00215108
0.00240547
0.00268193
0.00298338
0.00331122
0.00366749
0.0040533
0.00446
0.00488399
0.00532394
0.00577898
0.00624864
0.00673252
0.00723035
0.00774192
0.00826694
0.00880518
0.00935633
0.00992044
0.0104973
0.0110873
0.0116903
0.0123066
0.0129363
0.0135797
0.0142369
0.0149085
0.0155945
0.0162952
0.0170111
0.0177423
0.018489
0.0192516
0.02003
0.0208245
0.0216352
0.0224628
0.000941993
0.00109419
0.00133126
0.00157342
0.00181518
0.00206376
0.00232745
0.00261272
0.0029231
0.00325942
0.00362207
0.00401351
0.0044309
0.00486619
0.00531674
0.00578147
0.00625951
0.0067504
0.00725353
0.00776856
0.00829504
0.00883253
0.0093807
0.00993923
0.0105081
0.0110871
0.0116763
0.0122757
0.0128853
0.0135053
0.0141358
0.0147768
0.0154287
0.0160914
0.0167649
0.0174497
0.0181458
0.0188534
0.0195725
0.0203031
0.0210454
0.0217996
0.0225667
0.00101795
0.00117858
0.00142521
0.00167958
0.00193792
0.00220839
0.00249892
0.00281447
0.00315647
0.00352435
0.00391819
0.00434123
0.00478607
0.00524659
0.00572084
0.00620771
0.00670631
0.00721611
0.00773642
0.00826666
0.0088062
0.00935457
0.00991139
0.0104763
0.0110492
0.0116296
0.0122175
0.012813
0.0134162
0.0140271
0.0146457
0.0152716
0.0159053
0.0165462
0.0171946
0.0178508
0.0185149
0.0191867
0.0198661
0.0205532
0.021248
0.0219505
0.0226605
0.0010843
0.00125093
0.00150736
0.00177523
0.00205063
0.00234279
0.00265946
0.00300375
0.00337502
0.00377136
0.0041946
0.00464635
0.00511644
0.0056007
0.00609736
0.0066051
0.00712284
0.00765004
0.00818622
0.00873031
0.00928166
0.00983988
0.0104044
0.0109748
0.0115504
0.0121305
0.0127155
0.0133064
0.0139035
0.0145065
0.0151144
0.0157264
0.0163427
0.016963
0.0175874
0.0182171
0.0188521
0.0194921
0.0201354
0.0207823
0.0214341
0.0220905
0.0227522
0.00114337
0.00133241
0.00160127
0.00187835
0.00217327
0.00249472
0.00284285
0.00321849
0.00361457
0.00404677
0.0045046
0.00498139
0.00547367
0.0059823
0.00649552
0.00702101
0.0075486
0.00809026
0.00863825
0.00919172
0.00975126
0.0103163
0.0108849
0.011457
0.0120289
0.0125997
0.0131758
0.0137609
0.0143541
0.0149527
0.015551
0.0161486
0.0167483
0.0173458
0.017945
0.0185499
0.0191607
0.0197748
0.0203836
0.020992
0.0216047
0.0222205
0.0228388
0.000687029
0.00236421
0.00405791
0.00569647
0.00728452
0.00884368
0.0103948
0.0119451
0.0134988
0.0150582
0.0166231
0.0181972
0.0197823
0.0213784
0.0229868
0.0246071
0.0262384
0.0278807
0.029533
0.0311948
0.0328655
0.0345446
0.036232
0.0379267
0.039628
0.0413361
0.04305
0.0447695
0.0464938
0.0482222
0.0499544
0.0516896
0.0534271
0.0551656
0.056905
0.058644
0.060382
0.062118
0.063851
0.0655799
0.0673038
0.069022
0.0707344
0.000391232
0.00199312
0.00315493
0.00438569
0.00567832
0.00700298
0.00833433
0.00964984
0.0109419
0.0122634
0.0137206
0.0152671
0.0168626
0.0184893
0.0201393
0.0218089
0.0234956
0.0251977
0.0269134
0.0286418
0.0303811
0.0321301
0.0338885
0.0356545
0.0374281
0.0392077
0.0409931
0.0427837
0.0445784
0.0463764
0.0481773
0.0499802
0.0517841
0.0535884
0.0553922
0.0571944
0.0589942
0.0607909
0.062583
0.0643698
0.0661501
0.067923
0.0696871
0.000321622
0.00161832
0.00318665
0.00444483
0.00558686
0.0066931
0.00779333
0.0088955
0.0100041
0.0111356
0.0123123
0.0135569
0.0149631
0.0164894
0.0180873
0.0197317
0.0214109
0.0231173
0.0248468
0.0265965
0.0283629
0.0301443
0.031939
0.033745
0.035561
0.0373854
0.0392173
0.0410554
0.0428987
0.044746
0.0465967
0.0484494
0.0503032
0.0521572
0.0540104
0.0558616
0.0577099
0.0595542
0.0613935
0.0632265
0.0650522
0.0668692
0.0686759
0.000271023
0.00141118
0.00291819
0.00436738
0.0056073
0.00670775
0.00773251
0.00872397
0.0097088
0.0107046
0.0117244
0.0127866
0.0139231
0.0151902
0.01663
0.0181788
0.0197975
0.0214655
0.0231718
0.024909
0.026672
0.0284579
0.0302631
0.0320848
0.0339213
0.0357702
0.0376295
0.0394981
0.0413743
0.0432564
0.0451434
0.0470336
0.0489263
0.0508198
0.0527129
0.0546045
0.0564934
0.0583784
0.0602581
0.0621314
0.0639967
0.0658526
0.0676968
0.000235601
0.00124516
0.00260323
0.00409158
0.00545191
0.00664351
0.00770807
0.00869124
0.00963035
0.0105536
0.0114822
0.0124339
0.0134267
0.0144896
0.0156761
0.0170527
0.0185604
0.0201538
0.0218081
0.0235085
0.0252466
0.0270163
0.0288128
0.0306325
0.0324725
0.0343299
0.0362023
0.0380875
0.0399837
0.0418889
0.0438012
0.0457191
0.047641
0.0495654
0.0514907
0.0534155
0.0553383
0.057258
0.0591727
0.0610811
0.0629817
0.0648726
0.0667511
0.000210687
0.00113134
0.00236988
0.00379185
0.0051964
0.00646887
0.00760375
0.00863002
0.00958075
0.0104866
0.0113733
0.0122623
0.0131723
0.0141235
0.0151456
0.0162957
0.0176395
0.0191232
0.0207005
0.0223453
0.0240419
0.0257808
0.0275548
0.0293594
0.0311902
0.0330441
0.0349178
0.0368088
0.0387144
0.0406327
0.0425613
0.044498
0.0464413
0.0483891
0.0503395
0.0522909
0.0542419
0.0561906
0.0581354
0.0600745
0.0620065
0.0639298
0.0658431
0.000190948
0.00104279
0.00218719
0.00352597
0.00491757
0.00623265
0.007427
0.00850689
0.00949482
0.0104167
0.0112974
0.0121599
0.0130248
0.0139114
0.0148413
0.0158471
0.0169925
0.0183312
0.0198078
0.02138
0.0230222
0.0247188
0.0264606
0.0282405
0.030053
0.0318941
0.0337603
0.0356484
0.0375554
0.0394787
0.0414156
0.043364
0.0453213
0.0472858
0.0492552
0.0512279
0.0532015
0.0551743
0.0571445
0.0591103
0.0610702
0.0630227
0.0649684
0.000174603
0.000970658
0.00203766
0.00329812
0.00464939
0.00597472
0.00720761
0.00833385
0.00936362
0.0103158
0.0112115
0.012072
0.0129181
0.013769
0.0146444
0.0155679
0.0165776
0.0177454
0.0190984
0.020582
0.0221581
0.0238041
0.0255059
0.0272539
0.0290415
0.0308632
0.0327152
0.0345937
0.0364953
0.0384171
0.0403561
0.0423099
0.0442757
0.0462513
0.0482345
0.0502229
0.0522143
0.0542069
0.0561983
0.0581868
0.0601707
0.0621488
0.0641206
0.000160667
0.000910355
0.00191222
0.00310253
0.00440344
0.00571693
0.0069689
0.00812907
0.00919613
0.0101815
0.0111014
0.0119743
0.0128189
0.013654
0.0144983
0.015372
0.0163021
0.0173347
0.0185464
0.0199269
0.0214269
0.0230145
0.0246702
0.0263812
0.0281386
0.0299362
0.031769
0.0336329
0.035524
0.0374392
0.0393753
0.0413294
0.0432987
0.0452808
0.0472729
0.0492725
0.0512777
0.0532858
0.0552945
0.057302
0.0593064
0.061306
0.0632992
0.000148728
0.000858941
0.00180504
0.00293323
0.00418144
0.00546986
0.00672531
0.00790718
0.00900393
0.0100198
0.0109664
0.0118584
0.0127121
0.0135446
0.0143736
0.0152177
0.0160987
0.0170489
0.0181272
0.0193938
0.020809
0.0223319
0.0239367
0.0256065
0.0273301
0.0290998
0.03091
0.0327553
0.0346322
0.0365368
0.038466
0.0404163
0.0423851
0.0443694
0.0463665
0.0483738
0.0503886
0.0524085
0.0544312
0.0564543
0.0584758
0.0604932
0.0625033
0.000141464
0.000814482
0.00171233
0.00278523
0.00398229
0.00523821
0.00648552
0.00767826
0.00879671
0.00983848
0.0108103
0.0117236
0.0125919
0.0134303
0.0142548
0.0150826
0.0159332
0.0168316
0.0178187
0.0189658
0.0202886
0.0217414
0.0232911
0.0249164
0.0266034
0.0283428
0.0301272
0.0319517
0.0338112
0.0357023
0.0376211
0.0395646
0.0415294
0.0435127
0.0455114
0.0475228
0.0495442
0.051573
0.0536064
0.0556422
0.057678
0.0597111
0.0617387
0.000143897
0.00077531
0.0016313
0.00265508
0.00380397
0.00502374
0.00625475
0.00744934
0.00858191
0.00964408
0.0106383
0.0115725
0.0124576
0.0133066
0.0141337
0.0149547
0.0157871
0.016652
0.0175805
0.0186263
0.0198523
0.0212303
0.0227216
0.0242999
0.0259483
0.027655
0.0294121
0.0312132
0.0330534
0.0349286
0.0368349
0.0387688
0.0407271
0.0427064
0.0447039
0.0467167
0.0487418
0.0507765
0.0528181
0.054864
0.0569119
0.0589596
0.0610072
0.000150786
0.000740559
0.00155985
0.00253963
0.0036438
0.00482673
0.00603592
0.00722522
0.00836494
0.00944217
0.0104552
0.0114085
0.0123107
0.0131725
0.0140067
0.0148272
0.0156498
0.0164933
0.0173829
0.0183586
0.0194878
0.020788
0.0222182
0.0237475
0.0253553
0.0270282
0.0287563
0.0305329
0.0323522
0.0342098
0.0361015
0.0380238
0.0399732
0.0419464
0.0439405
0.0459522
0.0479786
0.050017
0.0520643
0.0541179
0.0561753
0.058234
0.0602908
0.000157852
0.00070967
0.00149618
0.00243644
0.00349937
0.00464588
0.00583015
0.00700858
0.00814978
0.00923705
0.0102649
0.011235
0.0121533
0.0130289
0.0138725
0.0146966
0.0155154
0.0163458
0.0172092
0.0181373
0.0191843
0.0204049
0.0217722
0.0232508
0.0248171
0.026455
0.0281534
0.0299043
0.0317014
0.0335401
0.0354157
0.0373248
0.0392638
0.0412292
0.0432177
0.0452264
0.0472522
0.0492921
0.0513428
0.0534022
0.0554672
0.0575352
0.0596029
0.000164078
0.000682152
0.00143927
0.00234378
0.00336869
0.00447991
0.00563746
0.00680124
0.00793918
0.00903195
0.0100709
0.011055
0.0119881
0.0128771
0.0137313
0.0145615
0.0153806
0.0162038
0.0170497
0.0179447
0.0189311
0.0200733
0.0213761
0.0228031
0.024327
0.0259291
0.027597
0.0293215
0.0310957
0.0329146
0.0347733
0.036668
0.0385952
0.0405511
0.0425326
0.0445366
0.04656
0.0485994
0.0506521
0.0527154
0.0547865
0.0568633
0.0589455
0.000169363
0.000657633
0.00138805
0.00226003
0.00324994
0.00432755
0.0054579
0.00660424
0.00773506
0.00882939
0.00987584
0.0108711
0.0118171
0.0127188
0.0135837
0.0144216
0.0152437
0.0160638
0.0168985
0.0177704
0.0187136
0.0197854
0.0210239
0.0223986
0.0238793
0.0254454
0.0270824
0.0287799
0.0305308
0.0323291
0.0341699
0.0360495
0.0379637
0.0399091
0.0418824
0.0438802
0.0458995
0.0479373
0.0499902
0.0520557
0.0541308
0.0562134
0.0583012
0.00017387
0.000635748
0.00134169
0.00218395
0.00314156
0.00418741
0.00529066
0.00641772
0.00753856
0.008631
0.00968189
0.0106858
0.0116426
0.0125556
0.0134311
0.0142772
0.0151041
0.015924
0.0167519
0.0176075
0.0185196
0.0195349
0.0207098
0.0220319
0.0234695
0.024999
0.0266047
0.0282752
0.0300023
0.0317796
0.0336023
0.0354658
0.0373663
0.0393002
0.041264
0.0432547
0.0452689
0.0473034
0.0493552
0.0514212
0.0534984
0.0555833
0.0576699
0.000177807
0.000616305
0.00129973
0.00211467
0.00304236
0.00405835
0.00513497
0.00624184
0.00735035
0.00843818
0.0094906
0.0105006
0.0114662
0.0123892
0.0132745
0.014129
0.0149617
0.0157834
0.0166078
0.0174523
0.0183414
0.0193143
0.0204287
0.0216987
0.0230928
0.024586
0.0261603
0.0278036
0.0295067
0.031263
0.033067
0.034914
0.0368002
0.0387218
0.0406755
0.042658
0.0446659
0.0466961
0.0487454
0.0508106
0.0528885
0.054976
0.0570707
0.000181223
0.000598929
0.00126157
0.00205122
0.00295128
0.00393908
0.00498992
0.00607607
0.0071708
0.00825154
0.00930318
0.0103169
0.0112894
0.012221
0.0131151
0.0139778
0.0148168
0.0156416
0.0164648
0.0173018
0.0181743
0.0191151
0.0201765
0.0213947
0.0227458
0.0242027
0.025746
0.027362
0.0290411
0.0307761
0.032561
0.0343913
0.0362627
0.0381716
0.0401144
0.0420879
0.0440887
0.0461135
0.0481593
0.0502224
0.0522995
0.0543866
0.0564779
0.000184176
0.000583316
0.00122664
0.00199295
0.00286721
0.00382861
0.00485449
0.00591996
0.00699961
0.0080718
0.00912058
0.010136
0.0111134
0.012052
0.0129541
0.0138245
0.0146697
0.0154985
0.0163221
0.0171545
0.0180148
0.0189312
0.0199487
0.0211168
0.0224253
0.0238461
0.0253583
0.0269472
0.0286025
0.0303161
0.0320819
0.0338952
0.0357516
0.0376473
0.0395787
0.0415426
0.0435355
0.0455541
0.0475952
0.0496553
0.0517307
0.0538179
0.0559136
0.000186876
0.000569488
0.00119478
0.0019393
0.0027896
0.00372601
0.00472804
0.00577282
0.00683689
0.00789911
0.00894319
0.00995842
0.0109392
0.0118833
0.0127923
0.0136696
0.014521
0.0153544
0.0161795
0.0170092
0.0178606
0.0187584
0.0197413
0.020862
0.0221283
0.0235134
0.0249948
0.026557
0.0281885
0.0298807
0.0316276
0.0334237
0.0352648
0.0371471
0.0390667
0.0410203
0.0430047
0.0450164
0.0470521
0.0491082
0.0511811
0.0532668
0.0553603
0.000189432
0.000557252
0.00116567
0.00188987
0.00271773
0.00363072
0.00460983
0.00563434
0.0066823
0.00773341
0.00877145
0.00978504
0.0107675
0.0117159
0.0126305
0.013514
0.0143715
0.0152093
0.0160368
0.0168653
0.0177104
0.0185939
0.0195496
0.0206272
0.0218524
0.0232022
0.0246534
0.026189
0.0277967
0.0294679
0.0311957
0.0329748
0.0348005
0.0366689
0.0385764
0.0405195
0.0424948
0.0444989
0.0465286
0.0485801
0.0506498
0.0527339
0.0548292
0.00019173
0.000546216
0.00113901
0.00184419
0.00265102
0.00354179
0.00449919
0.00550392
0.00653555
0.00757483
0.00860567
0.00961622
0.010599
0.0115502
0.0124694
0.0133585
0.0142213
0.0150638
0.015894
0.0167225
0.0175632
0.0184358
0.0193697
0.0204101
0.0215952
0.0229105
0.0243318
0.025841
0.0274255
0.0290759
0.0307848
0.0325466
0.0343568
0.0362113
0.0381064
0.0400387
0.0420044
0.0440007
0.0460237
0.04807
0.0501359
0.0522165
0.054304
0.000193895
0.000536464
0.00111455
0.00180184
0.00258888
0.00345887
0.0043955
0.00538097
0.00639627
0.0074232
0.0084459
0.00945217
0.010434
0.011387
0.0123099
0.0132036
0.0140713
0.0149181
0.0157513
0.0165804
0.0174183
0.0182824
0.019199
0.0202083
0.021355
0.0226364
0.0240281
0.0255115
0.0270731
0.0287026
0.0303927
0.0321376
0.0339322
0.0357728
0.0376554
0.0395764
0.0415326
0.0435204
0.0455365
0.0475776
0.0496398
0.0517201
0.0538183
0.000195967
0.000527692
0.0010921
0.00176263
0.0025311
0.00338133
0.00429807
0.00526491
0.00626412
0.00727834
0.00829204
0.00929312
0.010273
0.0112268
0.0121522
0.0130496
0.0139217
0.0147726
0.0156089
0.0164393
0.0172753
0.018133
0.0190357
0.0200192
0.02113
0.0223781
0.023741
0.025199
0.0267378
0.0283469
0.0300184
0.0317463
0.0335256
0.0353521
0.037222
0.0391318
0.0410779
0.0430571
0.0450663
0.0471016
0.0491602
0.0512398
0.0533401
0.000197908
0.000519846
0.00107145
0.00172613
0.00247706
0.0033086
0.00420645
0.00515532
0.00613869
0.00713986
0.00814413
0.00913912
0.0101161
0.0110696
0.0119967
0.0128972
0.013773
0.0146276
0.0154669
0.0162988
0.0171338
0.0179866
0.0188782
0.0198406
0.0209186
0.0221343
0.0234688
0.0249019
0.0264184
0.0280072
0.0296604
0.0313716
0.0331355
0.0349479
0.0368051
0.0387035
0.0406395
0.04261
0.0446116
0.0466411
0.0486956
0.0507719
0.0528669
0.000199766
0.00051276
0.00105236
0.00169215
0.00242646
0.00324035
0.00412012
0.00505168
0.00601933
0.00700756
0.00800192
0.00899025
0.00996356
0.0109158
0.0118438
0.0127466
0.0136255
0.0144835
0.0153257
0.0161593
0.0169939
0.017843
0.0187256
0.0196704
0.0207192
0.0219035
0.0232103
0.0246189
0.0261134
0.0276824
0.0293176
0.0310121
0.0327607
0.0345593
0.0364038
0.0382906
0.0402164
0.042178
0.044172
0.0461953
0.048245
0.0503182
0.0524117
0.000201552
0.000506381
0.00103481
0.00166051
0.00237913
0.00317615
0.0040388
0.00495357
0.00590604
0.00688126
0.00786534
0.00884639
0.00981531
0.0107656
0.0116937
0.0125981
0.0134796
0.0143405
0.0151854
0.0160207
0.0168554
0.0177017
0.018577
0.0195071
0.0205306
0.0216848
0.0229645
0.0243489
0.0258219
0.0273715
0.0289887
0.0306668
0.0324005
0.0341851
0.0360169
0.0378922
0.0398078
0.0417602
0.0437463
0.0457634
0.0478085
0.0498791
0.0519736
0.000203226
0.000500556
0.00101856
0.0016309
0.00233464
0.00311572
0.00396194
0.00486066
0.00579816
0.00676041
0.00773414
0.00870762
0.00967148
0.0106192
0.0115467
0.012452
0.0133354
0.0141988
0.0150462
0.0158832
0.0167183
0.0175625
0.0184318
0.0193497
0.0203515
0.021477
0.02273
0.024091
0.0255428
0.0270732
0.0286729
0.0303349
0.0320535
0.0338245
0.0356436
0.0375074
0.0394126
0.0413559
0.0433342
0.0453448
0.0473849
0.0494522
0.0515461
0.000204877
0.000495437
0.00100356
0.00160334
0.00229296
0.00305889
0.00388941
0.00477254
0.00569545
0.00664497
0.00760819
0.00857365
0.00953206
0.0104766
0.0114028
0.0123084
0.0131933
0.0140588
0.0149082
0.015747
0.0165825
0.0174252
0.0182897
0.0191973
0.0201803
0.0212792
0.0225064
0.0238442
0.0252753
0.0267869
0.0283692
0.0300152
0.0317192
0.0334764
0.035283
0.0371354
0.0390302
0.0409642
0.0429346
0.0449384
0.0469728
0.0490352
0.0511217
0.000206465
0.000490646
0.000989686
0.00157753
0.00225372
0.00300517
0.00382072
0.00468895
0.00559777
0.00653464
0.00748728
0.00844443
0.00939695
0.0103378
0.0112622
0.0121676
0.0130533
0.0139204
0.0147718
0.0156121
0.0164482
0.0172898
0.0181502
0.0190492