/*--------------------------------*- C++ -*----------------------------------*\
| =========                 |                                                 |
| \\      /  F ield         | OpenFOAM: The Open Source CFD Toolbox           |
|  \\    /   O peration     | Version:  2.3.0                                 |
|   \\  /    A nd           | Web:      www.OpenFOAM.org                      |
|    \\/     M anipulation  |                                                 |
\*---------------------------------------------------------------------------*/
FoamFile
{
    version     2.0;
    format      ascii;
    class       volScalarField;
    location    "1000";
    object      p;
}
// * * * * * * * * * * * * * * * * * * * * * * * * * * * * * * * * * * * * * //

dimensions      [0 2 -2 0 0 0 0];

internalField   nonuniform List<scalar> 
38144
(
-0.000670852
-1.27518
-2.85317
-4.48892
-6.17178
-7.90356
-9.68862
-11.5321
-13.4349
-15.4014
-17.4337
-19.5346
-21.7116
-23.9618
-26.2887
-28.692
-31.1714
-33.7309
-36.3607
-39.0592
-41.8172
-44.6344
-47.5002
-50.4102
-53.3422
-56.3065
-59.3012
-62.3092
-65.3457
-68.408
-71.5105
-74.6572
-77.8663
-81.07
-84.2813
-87.3797
-90.2303
-92.4594
-92.8397
-90.4523
-87.6387
-84.986
-53.0889
3.37978
2.34789
1.0721
-0.241439
-1.58478
-2.95814
-4.36236
-5.79918
-7.26855
-8.77258
-10.3141
-11.8882
-13.5059
-15.1623
-16.8639
-18.6099
-20.4048
-22.2546
-24.1549
-26.1094
-28.1228
-30.1885
-32.2983
-34.453
-36.6153
-38.7769
-40.9016
-42.9239
-44.7873
-46.4034
-47.6672
-48.4097
-48.4679
-47.5766
-45.4814
-41.7974
-36.0876
-27.8398
-16.3509
-1.01597
19.0155
45.7737
80.6265
6.58258
5.78123
4.7945
3.78615
2.76854
1.74193
0.705545
-0.338971
-1.39136
-2.45051
-3.51555
-4.58129
-5.64981
-6.71312
-7.77214
-8.81816
-9.84566
-10.8499
-11.8205
-12.7503
-13.6236
-14.4321
-15.1629
-15.7957
-16.3108
-16.6924
-16.9025
-16.9081
-16.6755
-16.1465
-15.2566
-13.9331
-12.0661
-9.54415
-6.23887
-1.96492
3.44901
10.2013
18.485
28.4529
40.2442
54.0259
69.5566
9.43403
8.83803
8.07607
7.30066
6.52285
5.74474
4.96423
4.18469
3.40792
2.63496
1.86924
1.11093
0.36047
-0.374148
-1.09447
-1.79842
-2.47373
-3.12038
-3.72941
-4.29336
-4.78924
-5.21826
-5.54912
-5.76475
-5.84569
-5.75165
-5.44954
-4.89597
-4.04857
-2.83433
-1.18526
0.964503
3.72475
7.18441
11.461
16.6648
22.9172
30.3052
38.8902
48.6774
59.5904
71.4273
83.7379
12.0293
11.5983
11.0177
10.4264
9.83771
9.25989
8.68103
8.11221
7.55515
7.01068
6.48378
5.97845
5.49358
5.03786
4.61106
4.21656
3.866
3.56297
3.31328
3.13213
3.02818
3.01351
3.10964
3.33741
3.70774
4.26287
5.01955
6.01173
7.28608
8.89247
10.8799
13.3033
16.2387
19.7578
23.936
28.8399
34.5491
41.1018
48.502
56.7312
65.694
75.2258
85.0281
14.3668
14.0633
13.6324
13.1913
12.7464
12.3269
11.8964
11.4803
11.0829
10.7011
10.3388
10.0059
9.70499
9.43437
9.19834
8.99228
8.8419
8.73782
8.69349
8.718
8.82259
9.02331
9.33529
9.78886
10.3898
11.1785
12.177
13.4102
14.919
16.7408
18.9296
21.5294
24.5915
28.1816
32.3432
37.1387
42.6094
48.7815
55.6015
63.0521
71.0205
79.3804
87.9143
16.454
16.2767
15.9589
15.6316
15.2886
15.0159
14.7011
14.3995
14.1278
13.8728
13.6293
13.4242
13.2588
13.1413
13.0606
13.0018
13.0143
13.0714
13.1978
13.3777
13.6448
13.9956
14.4686
15.0773
15.8423
16.7943
17.9432
19.3291
20.9501
22.8775
25.1458
27.7977
30.8375
34.3621
38.3554
42.9025
48.0165
53.7867
60.0541
66.8821
74.0871
81.5871
89.2264
18.3941
18.3193
18.0306
17.7524
17.4454
17.3445
17.1319
16.9147
16.7409
16.5931
16.4198
16.2932
16.1907
16.1708
16.2048
16.2651
16.4128
16.5727
16.8433
17.1651
17.575
17.9808
18.5329
19.2126
20.0567
21.1322
22.4035
23.9135
25.5777
27.5589
29.8674
32.5731
35.6296
39.145
42.972
47.3961
52.4033
57.8671
63.6581
70.0149
76.6697
83.6005
90.6085
20.2878
20.2572
20.0004
19.8902
19.4502
19.5137
19.309
19.0421
18.8909
18.8381
18.7151
18.6129
18.5157
18.6235
18.8313
18.8086
19.0262
19.1576
19.4492
19.865
20.5012
20.9252
21.4547
22.0747
22.8402
23.856
25.2248
26.9471
28.6078
30.6084
32.8944
35.5485
38.635
42.2698
46.0461
50.5742
56.0508
62.4562
67.6221
73.4175
79.6859
86.4222
93.1613
55.4077
99.1796
124.369
142.469
156.442
167.001
174.956
180.843
185.177
188.319
190.515
192.016
192.94
193.418
193.559
193.444
193.128
192.652
192.049
191.347
190.579
189.755
188.891
188
187.095
186.184
185.273
184.37
183.473
182.589
181.721
180.869
180.033
179.213
178.411
177.624
176.854
176.1
175.359
174.631
173.915
173.22
172.636
114.288
138.194
155.015
167.356
176.514
183.167
187.865
191.034
193.037
194.16
194.621
194.611
194.26
193.668
192.899
192.011
191.054
190.059
189.051
188.046
187.057
186.091
185.151
184.237
183.354
182.498
181.668
180.863
180.079
179.318
178.576
177.852
177.144
176.453
175.778
175.116
174.469
173.835
173.214
172.604
172.006
171.426
170.969
85.5426
100.719
114.35
126.15
136.187
144.591
151.54
157.226
161.839
165.553
168.509
170.841
172.667
174.077
175.154
175.961
176.542
176.939
177.187
177.308
177.323
177.255
177.112
176.91
176.658
176.363
176.036
175.679
175.3
174.903
174.492
174.07
173.639
173.203
172.762
172.318
171.872
171.425
170.978
170.529
170.079
169.634
169.277
95.9857
107.576
118.184
127.621
135.859
142.91
148.881
153.865
157.991
161.373
164.131
166.359
168.142
169.548
170.647
171.488
172.122
172.579
172.893
173.092
173.193
173.215
173.175
173.079
172.943
172.767
172.565
172.335
172.088
171.823
171.544
171.255
170.956
170.65
170.336
170.017
169.692
169.363
169.032
168.697
168.359
168.027
167.768
94.8232
104.31
113.234
121.415
128.774
135.266
140.929
145.806
149.972
153.502
156.473
158.963
161.037
162.756
164.18
165.344
166.296
167.064
167.682
168.166
168.542
168.824
169.029
169.161
169.241
169.267
169.252
169.196
169.114
169.002
168.869
168.717
168.547
168.364
168.166
167.957
167.738
167.51
167.277
167.037
166.791
166.547
166.365
96.4002
104.65
112.488
119.743
126.359
132.285
137.532
142.118
146.093
149.525
152.466
154.966
157.085
158.872
160.375
161.638
162.691
163.562
164.289
164.877
165.362
165.747
166.057
166.294
166.473
166.596
166.673
166.708
166.716
166.7
166.654
166.593
166.509
166.411
166.293
166.165
166.022
165.873
165.715
165.548
165.376
165.205
165.105
96.829
104.258
111.374
117.987
124.065
129.563
134.511
138.893
142.73
146.079
149.008
151.517
153.667
155.506
157.074
158.425
159.567
160.537
161.358
162.037
162.62
163.094
163.499
163.827
164.096
164.295
164.446
164.558
164.648
164.722
164.745
164.769
164.747
164.721
164.661
164.599
164.517
164.428
164.325
164.211
164.095
163.988
163.99
97.6481
104.54
111.091
117.227
122.945
128.06
132.79
136.994
140.704
143.897
146.778
149.175
151.257
153.089
154.679
156.054
157.224
158.226
159.076
159.79
160.424
160.955
161.436
161.829
162.147
162.39
162.59
162.776
162.963
163.109
163.157
163.263
163.259
163.298
163.26
163.258
163.208
163.157
163.082
162.996
162.914
162.841
162.983
99.9043
106.348
112.227
117.784
123.205
128.521
133.106
136.764
140.236
143.506
146.386
148.331
150.209
152
153.503
154.75
155.796
156.685
157.459
158.136
158.795
159.336
159.866
160.286
160.602
160.825
161.007
161.225
161.508
161.639
161.562
161.814
161.749
161.922
161.855
161.929
161.872
161.908
161.922
161.894
161.833
161.743
162.001
72.5336
72.8993
73.2447
73.6057
73.97
74.3361
74.7026
75.0679
75.4307
75.7893
76.1424
76.4885
76.8262
77.1537
77.4697
77.7725
78.0605
78.332
78.5862
78.8213
79.0365
79.2301
79.4013
79.549
79.6731
79.7728
79.8472
79.8972
79.9221
79.9229
79.9004
79.8557
79.79
79.7054
79.6048
79.4908
79.3677
79.24
79.1144
79.0005
78.9148
78.9292
79.2722
73.2437
73.5547
73.7991
74.0415
74.2754
74.5012
74.7183
74.9271
75.1274
75.3195
75.504
75.6817
75.8533
76.0193
76.1807
76.3384
76.4933
76.6462
76.7979
76.9493
77.1012
77.254
77.4085
77.5651
77.7244
77.8865
78.0518
78.2206
78.3928
78.5687
78.7486
78.9325
79.1205
79.3128
79.5095
79.7103
79.9144
80.1202
80.3265
80.5461
80.8345
81.3015
81.78
73.9655
74.199
74.4054
74.6118
74.8131
75.0113
75.207
75.4005
75.5921
75.7824
75.9713
76.1593
76.3466
76.5329
76.7182
76.9025
77.0859
77.268
77.4493
77.6293
77.8083
77.9868
78.1648
78.3425
78.5206
78.6989
78.8776
79.0576
79.2391
79.4229
79.6094
79.7991
79.9924
80.1891
80.389
80.5915
80.7955
80.9994
81.2041
81.4276
81.7363
82.2809
83.0494
74.5683
74.8565
75.0742
75.2948
75.5135
75.7311
75.9481
76.164
76.3788
76.5926
76.8051
77.0164
77.2265
77.4347
77.641
77.8455
78.048
78.2481
78.4457
78.6405
78.8324
79.022
79.2094
79.3949
79.5791
79.7619
79.9432
80.1235
80.3031
80.4827
80.6626
80.8435
81.0253
81.2078
81.3911
81.5741
81.7558
81.9367
82.1219
82.3375
82.6472
83.1512
83.9231
75.2058
75.4307
75.6463
75.865
76.08
76.2932
76.5053
76.7156
76.9247
77.1322
77.3386
77.5439
77.7493
77.9545
78.1583
78.3607
78.5625
78.764
78.9647
79.1638
79.3605
79.5555
79.7489
79.9415
80.1343
80.3276
80.5198
80.7097
80.8979
81.0854
81.2726
81.4598
81.6471
81.8341
82.0209
82.2072
82.3927
82.5792
82.777
83.0179
83.3694
83.8796
84.6553
75.6553
75.9247
76.1318
76.341
76.5457
76.7489
76.9519
77.1542
77.3567
77.558
77.7588
77.9589
78.1609
78.3652
78.5693
78.7723
78.9762
79.1812
79.3874
79.5936
79.7967
79.9978
80.1962
80.3914
80.5861
80.7852
80.9866
81.1836
81.3762
81.5651
81.7515
81.937
82.1212
82.3023
82.482
82.6609
82.8394
83.0197
83.216
83.4662
83.8432
84.3598
85.171
76.1602
76.3669
76.5627
76.7677
76.9647
77.1598
77.3579
77.5558
77.7573
77.9573
78.1583
78.3555
78.5568
78.765
78.9742
79.1764
79.3805
79.5889
79.802
80.0192
80.2277
80.436
80.6397
80.8402
81.0333
81.2376
81.4524
81.6547
81.8486
82.036
82.2178
82.3979
82.5757
82.7439
82.9035
83.0578
83.2129
83.3682
83.5465
83.8026
84.2323
84.8465
85.7756
76.5335
76.7844
76.9659
77.1671
77.3504
77.5323
77.7232
77.9087
78.1022
78.2914
78.4876
78.6645
78.8452
79.052
79.2755
79.4749
79.6697
79.8719
80.0731
80.3151
80.5378
80.755
80.9659
81.1537
81.3042
81.49
81.7602
81.9996
82.205
82.3895
82.5584
82.7361
82.9208
83.0822
83.2363
83.3879
83.5446
83.6714
83.7792
83.9303
84.2551
84.781
85.8144
76.7383
77.0222
77.2139
77.4781
77.678
77.843
78.0656
78.274
78.5113
78.7161
78.9689
79.1787
79.3258
79.5035
79.777
79.9839
80.201
80.3945
80.519
80.7878
81.0176
81.2832
81.544
81.9323
82.0165
81.9654
82.2202
82.5063
82.7707
82.9799
83.1209
83.2539
83.4632
83.6108
83.6568
83.6711
83.7913
83.8864
83.9299
84.0747
84.6678
86.1296
87.9339
81.8813
84.1403
86.4594
88.45
90.2619
91.9036
93.4002
94.7738
96.043
97.2251
98.3343
99.3809
100.374
101.321
102.232
103.11
103.961
104.792
105.605
106.404
107.192
107.97
108.739
109.501
110.255
111.003
111.745
112.48
113.209
113.931
114.645
115.353
116.053
116.745
117.429
118.104
118.77
119.427
120.075
120.712
121.337
121.95
122.551
83.2386
84.3353
85.7704
87.2121
88.7211
90.2128
91.6696
93.0767
94.4299
95.727
96.9697
98.1606
99.3039
100.402
101.461
102.481
103.467
104.42
105.343
106.237
107.103
107.944
108.762
109.556
110.329
111.082
111.816
112.531
113.23
113.914
114.582
115.238
115.88
116.511
117.13
117.739
118.338
118.929
119.51
120.083
120.647
121.204
121.761
84.548
85.7413
87.0866
88.3796
89.7161
91.0437
92.3619
93.6559
94.9194
96.1467
97.3352
98.4831
99.5913
100.66
101.69
102.683
103.642
104.567
105.46
106.323
107.159
107.968
108.752
109.513
110.253
110.972
111.672
112.355
113.021
113.671
114.307
114.929
115.537
116.134
116.718
117.292
117.855
118.408
118.951
119.485
120.012
120.528
121.021
85.252
86.4612
87.7863
89.0739
90.3879
91.683
92.9607
94.2092
95.4245
96.6026
97.741
98.8393
99.8976
100.917
101.899
102.844
103.756
104.635
105.485
106.306
107.101
107.872
108.62
109.346
110.053
110.74
111.41
112.064
112.701
113.325
113.935
114.532
115.117
115.69
116.251
116.802
117.344
117.874
118.395
118.907
119.41
119.901
120.36
85.8826
87.0524
88.3065
89.5548
90.8331
92.0986
93.3483
94.5687
95.7556
96.9048
98.0141
99.0834
100.113
101.105
102.059
102.979
103.865
104.72
105.545
106.343
107.115
107.864
108.589
109.292
109.975
110.637
111.282
111.909
112.521
113.118
113.702
114.272
114.829
115.373
115.906
116.429
116.942
117.445
117.938
118.422
118.897
119.363
119.816
86.4099
87.6012
88.8385
90.0718
91.3222
92.5584
93.7776
94.9687
96.1269
97.2469
98.3284
99.3705
100.375
101.341
102.271
103.167
104.029
104.861
105.664
106.441
107.192
107.919
108.623
109.302
109.96
110.598
111.217
111.82
112.408
112.981
113.54
114.084
114.614
115.131
115.636
116.133
116.62
117.094
117.559
118.014
118.46
118.901
119.363
87.0325
88.2189
89.4272
90.6312
91.849
93.0537
94.2399
95.3972
96.5201
97.6056
98.652
99.6619
100.637
101.575
102.478
103.347
104.184
104.993
105.774
106.53
107.263
107.973
108.656
109.314
109.951
110.567
111.165
111.747
112.314
112.867
113.404
113.925
114.43
114.922
115.405
115.879
116.343
116.791
117.23
117.661
118.08
118.495
118.958
87.2073
88.5224
89.8157
91.062
92.2705
93.4578
94.6264
95.7595
96.8679
97.9291
98.9486
99.9404
100.896
101.82
102.701
103.549
104.366
105.158
105.924
106.667
107.39
108.088
108.747
109.379
109.987
110.574
111.143
111.702
112.256
112.793
113.312
113.81
114.285
114.75
115.21
115.667
116.116
116.532
116.944
117.351
117.743
118.135
118.583
88.65
89.6454
90.6898
91.7004
92.8129
93.969
95.089
96.186
97.2354
98.2401
99.1966
100.161
101.073
101.97
102.805
103.618
104.41
105.183
105.93
106.659
107.372
108.051
108.666
109.276
109.869
110.46
111.043
111.623
112.196
112.7
113.2
113.666
114.102
114.556
115.026
115.49
115.935
116.279
116.665
117.078
117.476
117.882
118.319
-601.273
-548.036
-487.355
-441.049
-398.449
-356.703
-318.111
-283.648
-253.136
-226.239
-202.643
-181.985
-163.936
-148.147
-134.326
-122.172
-111.451
-101.937
-93.443
-85.8191
-78.9353
-72.6698
-66.9298
-61.6482
-56.7557
-52.2049
-47.9463
-43.9506
-40.1888
-36.6383
-33.2782
-30.0895
-27.06
-24.1781
-21.4307
-18.8101
-16.3042
-13.9077
-11.6135
-9.41364
-7.30467
-5.28344
-3.66807
-364.772
-361.203
-350.751
-337.255
-321.267
-303.383
-284.65
-265.676
-246.84
-228.465
-210.825
-194.118
-178.502
-164.005
-150.644
-138.388
-127.171
-116.931
-107.577
-99.026
-91.2099
-84.0392
-77.4475
-71.3728
-65.7524
-60.545
-55.6938
-51.1675
-46.9307
-42.953
-39.2093
-35.6775
-32.3385
-29.1747
-26.1707
-23.317
-20.597
-18.0042
-15.5267
-13.156
-10.8846
-8.70144
-6.89351
-289.338
-289.16
-286.949
-281.083
-273.041
-263.638
-253.187
-241.919
-230.067
-217.869
-205.538
-193.236
-181.126
-169.345
-158.003
-147.182
-136.917
-127.237
-118.138
-109.608
-101.633
-94.1743
-87.2151
-80.7128
-74.6361
-68.9573
-63.6399
-58.6556
-53.9802
-49.5845
-45.4446
-41.544
-37.8589
-34.3741
-31.0724
-27.9413
-24.9647
-22.1349
-19.4373
-16.8618
-14.4018
-12.0443
-10.0812
-239.882
-240.427
-240.737
-239.56
-236.654
-232.311
-226.772
-220.22
-212.803
-204.702
-196.081
-187.106
-177.911
-168.611
-159.329
-150.165
-141.218
-132.547
-124.197
-116.201
-108.57
-101.307
-94.4185
-87.8903
-81.7146
-75.8756
-70.3606
-65.146
-60.2211
-55.5651
-51.1604
-46.993
-43.0439
-39.3019
-35.7513
-32.3788
-29.1728
-26.1213
-23.2154
-20.4408
-17.7923
-15.2563
-13.1453
-209.282
-209.706
-210.149
-209.876
-208.543
-206.159
-202.852
-198.733
-193.888
-188.411
-182.396
-175.94
-169.137
-162.069
-154.817
-147.451
-140.055
-132.705
-125.465
-118.383
-111.486
-104.807
-98.366
-92.1645
-86.2192
-80.5243
-75.0853
-69.8908
-64.9385
-60.2191
-55.7258
-51.4455
-47.3696
-43.4888
-39.7919
-36.2693
-32.911
-29.7066
-26.6489
-23.7253
-20.9281
-18.2448
-16.0199
-185.283
-185.644
-186.077
-186.137
-185.601
-184.366
-182.432
-179.844
-176.652
-172.911
-168.683
-164.018
-158.983
-153.633
-148.029
-142.214
-136.237
-130.164
-124.051
-117.954
-111.91
-105.955
-100.117
-94.4162
-88.8719
-83.4922
-78.2916
-73.2734
-68.4399
-63.7908
-59.3292
-55.0478
-50.945
-47.0152
-43.2529
-39.6509
-36.2037
-32.9037
-29.7439
-26.7156
-23.8116
-21.0261
-18.7539
-166.558
-166.886
-167.295
-167.478
-167.305
-166.678
-165.55
-163.915
-161.792
-159.208
-156.196
-152.789
-149.027
-144.95
-140.598
-136.006
-131.202
-126.231
-121.128
-115.951
-110.735
-105.518
-100.325
-95.1877
-90.1228
-85.1511
-80.2855
-75.5393
-70.924
-66.4413
-62.1021
-57.9051
-53.8537
-49.9474
-46.1855
-42.5636
-39.0817
-35.7338
-32.517
-29.4245
-26.452
-23.5919
-21.2464
-151.619
-151.915
-152.286
-152.511
-152.503
-152.191
-151.518
-150.461
-149.019
-147.2
-145.02
-142.497
-139.657
-136.521
-133.12
-129.475
-125.612
-121.553
-117.322
-112.961
-108.501
-103.977
-99.4169
-94.8466
-90.2871
-85.7587
-81.2809
-76.864
-72.5271
-68.2776
-64.1249
-60.0786
-56.1412
-52.3182
-48.6112
-45.0238
-41.5535
-38.2016
-34.967
-31.8452
-28.8348
-25.9193
-23.4355
-139.411
-139.675
-140.003
-140.235
-140.31
-140.173
-139.775
-139.082
-138.085
-136.783
-135.181
-133.286
-131.114
-128.677
-125.994
-123.079
-119.952
-116.629
-113.121
-109.455
-105.656
-101.754
-97.7745
-93.7399
-89.6722
-85.5876
-81.5072
-77.446
-73.4171
-69.4364
-65.5117
-61.6567
-57.877
-54.1814
-50.574
-47.0607
-43.6429
-40.3245
-37.1061
-33.987
-30.9685
-28.0368
-25.4644
-129.305
-129.537
-129.826
-130.051
-130.166
-130.129
-129.898
-129.44
-128.741
-127.793
-126.596
-125.152
-123.466
-121.548
-119.407
-117.054
-114.502
-111.762
-108.841
-105.754
-102.518
-99.1555
-95.6898
-92.1415
-88.5271
-84.8651
-81.1708
-77.4618
-73.7501
-70.0506
-66.3759
-62.7365
-59.1426
-55.6029
-52.1267
-48.7173
-45.3833
-42.1267
-38.9526
-35.8604
-32.8525
-29.9167
-27.2885
-120.856
-121.051
-121.304
-121.512
-121.641
-121.66
-121.532
-121.227
-120.727
-120.023
-119.114
-117.996
-116.671
-115.142
-113.414
-111.494
-109.391
-107.112
-104.662
-102.051
-99.2857
-96.3848
-93.3655
-90.2466
-87.0404
-83.765
-80.4332
-77.0597
-73.658
-70.2401
-66.8198
-63.4068
-60.0139
-56.6481
-53.3215
-50.0394
-46.8106
-43.6384
-40.5306
-37.4852
-34.5064
-31.5863
-28.9801
-113.705
-113.863
-114.083
-114.273
-114.405
-114.453
-114.389
-114.185
-113.824
-113.294
-112.591
-111.712
-110.654
-109.418
-108.006
-106.422
-104.672
-102.758
-100.687
-98.4635
-96.0897
-93.5781
-90.9412
-88.1954
-85.3507
-82.4225
-79.4208
-76.3603
-73.2502
-70.1042
-66.9332
-63.7477
-60.5593
-57.3778
-54.212
-51.0708
-47.9627
-44.8933
-41.8721
-38.8988
-35.9802
-33.1226
-30.8051
-107.591
-107.721
-107.914
-108.086
-108.213
-108.276
-108.25
-108.113
-107.848
-107.442
-106.89
-106.187
-105.33
-104.318
-103.151
-101.83
-100.358
-98.7361
-96.9701
-95.0611
-93.0111
-90.8255
-88.5138
-86.0889
-83.5601
-80.9383
-78.2335
-75.457
-72.6175
-69.7257
-66.7938
-63.8284
-60.8433
-57.846
-54.846
-51.8532
-48.8753
-45.9189
-42.9951
-40.1039
-37.254
-34.437
-32.1111
-102.329
-102.438
-102.606
-102.76
-102.881
-102.95
-102.947
-102.855
-102.655
-102.339
-101.899
-101.329
-100.623
-99.7826
-98.8055
-97.6904
-96.4383
-95.0504
-93.5302
-91.8774
-90.0939
-88.1811
-86.1448
-83.9948
-81.7389
-79.3866
-76.9445
-74.4233
-71.8304
-69.1736
-66.4648
-63.7096
-60.9195
-58.1031
-55.2686
-52.4251
-49.5809
-46.7442
-43.9226
-41.1196
-38.3433
-35.575
-33.133
-97.7713
-97.8649
-98.011
-98.1476
-98.2575
-98.3264
-98.337
-98.2738
-98.1218
-97.8704
-97.5118
-97.0403
-96.4528
-95.7457
-94.9167
-93.9647
-92.889
-91.6902
-90.3693
-88.9269
-87.3628
-85.6774
-83.8741
-81.9582
-79.938
-77.8194
-75.6096
-73.3158
-70.944
-68.5022
-65.9988
-63.4396
-60.8347
-58.1914
-55.5181
-52.8228
-50.1133
-47.3992
-44.6863
-41.9822
-39.2969
-36.6212
-34.2546
-93.8058
-93.8857
-94.0124
-94.1331
-94.2315
-94.2958
-94.3125
-94.2674
-94.1479
-93.9442
-93.6478
-93.2531
-92.7557
-92.1521
-91.44
-90.6174
-89.6834
-88.6377
-87.479
-86.209
-84.8259
-83.3305
-81.7233
-80.0077
-78.1897
-76.2747
-74.2676
-72.1751
-70.0015
-67.7531
-65.4376
-63.0592
-60.6276
-58.1481
-55.6284
-53.0771
-50.5003
-47.907
-45.3038
-42.6978
-40.0976
-37.4899
-35.0726
-90.3364
-90.4045
-90.5133
-90.619
-90.7067
-90.7657
-90.7849
-90.7515
-90.6544
-90.4844
-90.233
-89.8954
-89.4681
-88.9465
-88.3274
-87.6089
-86.7891
-85.8675
-84.8426
-83.7148
-82.4828
-81.1464
-79.7052
-78.1599
-76.5158
-74.7769
-72.9474
-71.0313
-69.0346
-66.9599
-64.8141
-62.6022
-60.3295
-58.0035
-55.6297
-53.2149
-50.7658
-48.2901
-45.7934
-43.2804
-40.7582
-38.2131
-35.7398
-87.2881
-87.3448
-87.4382
-87.5299
-87.606
-87.6579
-87.6757
-87.6485
-87.5667
-87.4219
-87.2063
-86.9141
-86.5412
-86.0843
-85.5394
-84.9047
-84.1782
-83.3585
-82.4438
-81.4339
-80.3279
-79.1244
-77.8232
-76.4233
-74.929
-73.3422
-71.6673
-69.9074
-68.0664
-66.1471
-64.1547
-62.0938
-59.9677
-57.7836
-55.5459
-53.2611
-50.9349
-48.5742
-46.1855
-43.7747
-41.3487
-38.9144
-36.7083
-84.5948
-84.6425
-84.7227
-84.8021
-84.8683
-84.9136
-84.9292
-84.9054
-84.834
-84.7066
-84.5169
-84.2598
-83.9303
-83.5244
-83.0392
-82.4725
-81.8218
-81.0856
-80.2623
-79.3509
-78.3502
-77.2589
-76.0762
-74.8011
-73.4352
-71.9808
-70.4408
-68.8179
-67.1145
-65.3339
-63.4791
-61.5543
-59.5624
-57.509
-55.3978
-53.2349
-51.0245
-48.7734
-46.4862
-44.1684
-41.8238
-39.4451
-37.2236
-82.211
-82.25
-82.318
-82.3862
-82.4424
-82.48
-82.4916
-82.4692
-82.4042
-82.2896
-82.1196
-81.889
-81.5938
-81.2297
-80.793
-80.2822
-79.6945
-79.0278
-78.2806
-77.4515
-76.5394
-75.5431
-74.4614
-73.2926
-72.0376
-70.6978
-69.2756
-67.7728
-66.1913
-64.5342
-62.8024
-61.0007
-59.1308
-57.197
-55.2028
-53.1532
-51.0526
-48.9057
-46.719
-44.4976
-42.2487
-39.9749
-38.0307
-80.1037
-80.1327
-80.1886
-80.2451
-80.2915
-80.3212
-80.3275
-80.3034
-80.2419
-80.1368
-79.9817
-79.7717
-79.5027
-79.1713
-78.7744
-78.3092
-77.7729
-77.1638
-76.4804
-75.7212
-74.8842
-73.9682
-72.9719
-71.8948
-70.7356
-69.4956
-68.1758
-66.7786
-65.3049
-63.757
-62.136
-60.4447
-58.6853
-56.861
-54.9745
-53.0296
-51.0309
-48.9817
-46.8872
-44.7507
-42.5772
-40.3515
-38.3404
-78.216
-78.2383
-78.2853
-78.333
-78.3707
-78.3931
-78.3944
-78.3688
-78.3098
-78.2109
-78.0667
-77.8731
-77.6262
-77.322
-76.957
-76.5287
-76.0355
-75.475
-74.8447
-74.1438
-73.3707
-72.5242
-71.602
-70.6034
-69.5268
-68.3734
-67.1438
-65.8393
-64.4609
-63.01
-61.488
-59.8963
-58.2367
-56.5117
-54.7244
-52.8763
-50.9722
-49.0146
-47.0081
-44.9544
-42.8585
-40.7068
-38.8212
-76.5317
-76.5474
-76.5855
-76.6243
-76.654
-76.6697
-76.6661
-76.6376
-76.5787
-76.4841
-76.3487
-76.1679
-75.9378
-75.6552
-75.3172
-74.9209
-74.4638
-73.944
-73.3594
-72.7083
-71.9894
-71.2013
-70.3426
-69.4118
-68.4077
-67.3297
-66.1792
-64.9564
-63.6623
-62.2978
-60.864
-59.3618
-57.7929
-56.1583
-54.4611
-52.7032
-50.8871
-49.0156
-47.0929
-45.1184
-43.0977
-41.0158
-39.2645
-75.0296
-75.0385
-75.0684
-75.0989
-75.1205
-75.129
-75.1201
-75.0886
-75.0291
-74.9368
-74.8075
-74.6366
-74.4202
-74.1551
-73.8385
-73.468
-73.0411
-72.5555
-72.0093
-71.401
-70.7291
-69.9917
-69.1874
-68.3153
-67.3736
-66.3619
-65.2809
-64.1297
-62.9107
-61.6232
-60.2683
-58.8463
-57.3592
-55.8074
-54.1924
-52.5172
-50.783
-48.9926
-47.1494
-45.2522
-43.3084
-41.3046
-39.7147
-73.6774
-73.6816
-73.7047
-73.7276
-73.7425
-73.7453
-73.7314
-73.6965
-73.6361
-73.5457
-73.4206
-73.257
-73.0514
-72.8011
-72.5031
-72.1542
-71.7525
-71.2961
-70.7828
-70.2107
-69.5786
-68.8851
-68.1286
-67.3077
-66.4207
-65.4669
-64.4467
-63.3592
-62.2065
-60.9874
-59.7031
-58.3537
-56.94
-55.4631
-53.924
-52.3243
-50.6665
-48.9524
-47.1864
-45.3701
-43.5123
-41.6037
-40.1984
-72.4695
-72.4678
-72.4842
-72.5004
-72.5083
-72.5045
-72.4853
-72.4466
-72.3843
-72.2938
-72.1717
-72.0142
-71.8175
-71.5791
-71.2956
-70.965
-70.5851
-70.1532
-69.668
-69.1275
-68.53
-67.8744
-67.1587
-66.3822
-65.5431
-64.6402
-63.6738
-62.643
-61.5491
-60.3911
-59.1699
-57.8857
-56.5384
-55.1293
-53.6589
-52.1286
-50.54
-48.8947
-47.1964
-45.445
-43.6461
-41.7669
-40.1841
-71.3809
-71.3747
-71.3855
-71.3953
-71.3972
-71.3878
-71.3638
-71.3218
-71.2575
-71.1671
-71.0469
-70.8936
-70.7037
-70.4746
-70.2035
-69.8881
-69.5262
-69.1155
-68.6542
-68.1408
-67.5734
-66.9507
-66.2709
-65.5335
-64.7365
-63.8786
-62.9596
-61.9791
-60.9373
-59.8338
-58.6692
-57.4436
-56.1562
-54.8086
-53.4006
-51.9332
-50.4081
-48.8258
-47.189
-45.4971
-43.7546
-41.9334
-40.3094
-70.4058
-70.3946
-70.3995
-70.403
-70.3986
-70.3837
-70.3548
-70.3085
-70.2413
-70.15
-70.0311
-69.8811
-69.6969
-69.4757
-69.2152
-68.9129
-68.5666
-68.174
-67.7334
-67.2431
-66.7017
-66.1081
-65.46
-64.7565
-63.9961
-63.1777
-62.3008
-61.3647
-60.3697
-59.3151
-58.2013
-57.0282
-55.795
-54.503
-53.152
-51.7421
-50.2754
-48.752
-47.1744
-45.5424
-43.8615
-42.1154
-40.5401
-69.5233
-69.5088
-69.5095
-69.5082
-69.4988
-69.4788
-69.4455
-69.3961
-69.3268
-69.2344
-69.1156
-68.9675
-68.7876
-68.5728
-68.3207
-68.029
-67.6957
-67.3187
-66.8963
-66.4266
-65.9077
-65.3387
-64.7179
-64.0446
-63.3171
-62.5339
-61.6944
-60.7979
-59.8444
-58.8337
-57.7653
-56.6395
-55.4555
-54.2138
-52.9145
-51.5574
-50.1444
-48.6755
-47.1527
-45.5775
-43.9551
-42.2734
-40.7473
-68.7381
-68.7182
-68.713
-68.7053
-68.69
-68.6647
-68.6269
-68.5734
-68.501
-68.4069
-68.2883
-68.142
-67.9651
-67.7554
-67.5106
-67.2279
-66.9056
-66.542
-66.1348
-65.6827
-65.1842
-64.6376
-64.0414
-63.3945
-62.6955
-61.9432
-61.1368
-60.2758
-59.3594
-58.3879
-57.3607
-56.2774
-55.1377
-53.9417
-52.6893
-51.3804
-50.0159
-48.5961
-47.1223
-45.5948
-44.0168
-42.3758
-40.8522
-68.0175
-67.9961
-67.9884
-67.9773
-67.9583
-67.9292
-67.8873
-67.8302
-67.7552
-67.6597
-67.5406
-67.3956
-67.2217
-67.0162
-66.7772
-66.5027
-66.1902
-65.8379
-65.4442
-65.0074
-64.5257
-63.9982
-63.4235
-62.8001
-62.1267
-61.4022
-60.6254
-59.7961
-58.9132
-57.9768
-56.9864
-55.9415
-54.842
-53.6874
-52.4775
-51.2124
-49.8924
-48.5175
-47.0889
-45.607
-44.0742
-42.481
-41.0155
-67.3809
-67.3549
-67.3425
-67.3262
-67.3019
-67.2681
-67.2223
-67.1619
-67.0842
-66.9867
-66.8669
-66.7219
-66.5496
-66.3475
-66.1132
-65.8446
-65.5401
-65.1981
-64.8163
-64.3931
-63.9271
-63.4167
-62.8607
-62.2579
-61.6072
-60.9073
-60.157
-59.3558
-58.503
-57.5982
-56.6411
-55.6311
-54.5678
-53.4509
-52.2798
-51.0547
-49.7752
-48.4416
-47.0544
-45.6136
-44.1202
-42.5621
-41.1017
-66.8058
-66.7766
-66.7602
-66.7395
-66.711
-66.6726
-66.6226
-66.5585
-66.4779
-66.3782
-66.257
-66.1122
-65.9412
-65.7417
-65.5117
-65.2492
-64.9519
-64.6181
-64.2461
-63.8347
-63.382
-62.8868
-62.3479
-61.7637
-61.1333
-60.4552
-59.7288
-58.953
-58.1273
-57.251
-56.3238
-55.3455
-54.315
-53.2323
-52.0967
-50.9081
-49.6659
-48.3702
-47.0213
-45.618
-44.1617
-42.6389
-41.1909
-66.2876
-66.2553
-66.2357
-66.2113
-66.1787
-66.1364
-66.0825
-66.0151
-65.9317
-65.8301
-65.708
-65.5629
-65.3926
-65.195
-64.9682
-64.7101
-64.4186
-64.0926
-63.7298
-63.3287
-62.8878
-62.406
-61.8819
-61.3141
-60.7015
-60.0432
-59.3381
-58.5849
-57.7836
-56.933
-56.0332
-55.0835
-54.083
-53.0315
-51.9283
-50.7733
-49.5655
-48.3052
-46.9921
-45.6255
-44.2063
-42.7236
-41.3068
-65.8155
-65.7814
-65.7595
-65.732
-65.6963
-65.6509
-65.5941
-65.5237
-65.4377
-65.3343
-65.2109
-65.0657
-64.8963
-64.7003
-64.4761
-64.2219
-63.9358
-63.6158
-63.2607
-62.8689
-62.4387
-61.9688
-61.458
-60.9052
-60.3088
-59.6682
-58.9821
-58.2495
-57.4702
-56.6431
-55.768
-54.8442
-53.8712
-52.8482
-51.7747
-50.6506
-49.4746
-48.2472
-46.9681
-45.6357
-44.2521
-42.807
-41.4239
-65.402
-65.3643
-65.3383
-65.3066
-65.2666
-65.2171
-65.1566
-65.0832
-64.9946
-64.8889
-64.764
-64.6179
-64.4485
-64.2539
-64.0324
-63.7816
-63.5001
-63.186
-62.8376
-62.4537
-62.0327
-61.5732
-61.0741
-60.5343
-59.9524
-59.3275
-58.6587
-57.9448
-57.1853
-56.3794
-55.5268
-54.6265
-53.6785
-52.6816
-51.6355
-50.5398
-49.3935
-48.1965
-46.9489
-45.649
-44.2987
-42.888
-41.5438
-65.0224
-64.9832
-64.9554
-64.9212
-64.8786
-64.8264
-64.763
-64.6866
-64.5954
-64.4879
-64.3616
-64.2149
-64.0455
-63.8515
-63.6312
-63.3829
-63.1049
-62.7956
-62.4535
-62.0766
-61.664
-61.2142
-60.7258
-60.1979
-59.6292
-59.0187
-58.3655
-57.6684
-56.9268
-56.1402
-55.308
-54.4293
-53.5042
-52.5312
-51.5102
-50.4405
-49.3217
-48.153
-46.9345
-45.665
-44.3449
-42.966
-41.6748
-64.6845
-64.6437
-64.6139
-64.5769
-64.5312
-64.4757
-64.4093
-64.3302
-64.2366
-64.1269
-63.9992
-63.8515
-63.682
-63.489
-63.2705
-63.0248
-62.7502
-62.4451
-62.108
-61.7374
-61.332
-60.8904
-60.4115
-59.8942
-59.337
-58.7394
-58.1002
-57.4184
-56.6932
-55.9243
-55.1105
-54.2517
-53.3472
-52.3962
-51.3983
-50.3527
-49.259
-48.1168
-46.9261
-45.6861
-44.398
-43.0538
-41.835
-64.3915
-64.3469
-64.3132
-64.2724
-64.223
-64.1643
-64.0947
-64.0126
-63.9167
-63.8049
-63.6752
-63.5264
-63.3563
-63.1633
-62.9455
-62.7016
-62.4298
-62.1283
-61.7958
-61.4309
-61.0321
-60.5981
-60.1278
-59.6199
-59.0734
-58.4875
-57.8609
-57.1928
-56.4825
-55.7295
-54.9327
-54.092
-53.2065
-52.2757
-51.2989
-50.2754
-49.2048
-48.0867
-46.9208
-45.706
-44.4428
-43.1195
-41.923
-64.1245
-64.0786
-64.0433
-64.0003
-63.9483
-63.8867
-63.8142
-63.7293
-63.6305
-63.5164
-63.3853
-63.2353
-63.0647
-62.8719
-62.655
-62.4125
-62.1427
-61.8444
-61.5158
-61.1556
-60.7625
-60.3351
-59.8726
-59.3734
-58.8365
-58.2608
-57.6459
-56.9904
-56.2937
-55.555
-54.7738
-53.9494
-53.0813
-52.1689
-51.2113
-50.2083
-49.1588
-48.063
-46.9202
-45.7301
-44.4941
-43.2006
-42.0452
-63.8861
-63.8384
-63.801
-63.7556
-63.701
-63.6367
-63.5616
-63.4745
-63.3739
-63.258
-63.1253
-62.9742
-62.8029
-62.61
-62.3936
-62.1526
-61.8848
-61.5893
-61.2643
-60.9085
-60.5205
-60.0991
-59.6432
-59.1515
-58.6234
-58.0576
-57.4531
-56.8089
-56.1246
-55.3991
-54.6321
-53.8227
-52.9707
-52.075
-51.1352
-50.1505
-49.1207
-48.0447
-46.9227
-45.7537
-44.5388
-43.2634
-42.0887
-63.6784
-63.6286
-63.5893
-63.5412
-63.484
-63.4172
-63.3397
-63.25
-63.1467
-63.0287
-62.8942
-62.7418
-62.5697
-62.3765
-62.1606
-61.9204
-61.6543
-61.361
-61.039
-60.6872
-60.3039
-59.8881
-59.4384
-58.9538
-58.4333
-57.876
-57.2809
-56.6472
-55.9741
-55.2608
-54.5066
-53.711
-52.8736
-51.9933
-51.0698
-50.1021
-49.0899
-48.0322
-46.9288
-45.7784
-44.5807
-43.3221
-42.1364
-63.4946
-63.4434
-63.402
-63.3516
-63.292
-63.2225
-63.1424
-63.0503
-62.9452
-62.8254
-62.6892
-62.5355
-62.3627
-62.1691
-61.9534
-61.714
-61.4492
-61.158
-60.8386
-60.4899
-60.1106
-59.6995
-59.2553
-58.7773
-58.2639
-57.7145
-57.1281
-56.5038
-55.8409
-55.1386
-54.3963
-53.6134
-52.7893
-51.9231
-51.0145
-50.0626
-49.0666
-48.0262
-46.9402
-45.8082
-44.6292
-43.3924
-42.2118
-63.3354
-63.282
-63.2387
-63.186
-63.1239
-63.0519
-62.9693
-62.8749
-62.7673
-62.6453
-62.5075
-62.3525
-62.1786
-61.9846
-61.7688
-61.5298
-61.2664
-60.9769
-60.66
-60.3143
-59.9387
-59.5319
-59.0928
-58.6203
-58.1133
-57.5712
-56.9926
-56.3771
-55.7236
-55.0315
-54.3001
-53.5288
-52.717
-51.864
-50.9692
-50.0317
-49.0512
-48.0265
-46.9573
-45.8429