# Forces     
# CofR       : (0.000000e+00 0.000000e+00 0.000000e+00)
# Time       forces(pressure viscous porous) moment(pressure viscous porous)
5.000000e+00	((-9.324580e-19 1.458171e-01 -1.861395e-36) (5.369679e-01 1.215488e-07 7.922780e-39) (0.000000e+00 0.000000e+00 0.000000e+00)) ((-7.290856e-03 -4.662290e-20 3.325738e-02) (-6.077440e-09 2.684839e-02 8.696923e-10) (0.000000e+00 0.000000e+00 0.000000e+00))
1.000000e+01	((5.574376e-19 -7.770300e-02 -6.021051e-37) (5.218717e-01 -6.542557e-07 4.852464e-39) (0.000000e+00 0.000000e+00 0.000000e+00)) ((3.885150e-03 2.787188e-20 -2.017406e-02) (3.271278e-08 2.609358e-02 -1.591407e-08) (0.000000e+00 0.000000e+00 0.000000e+00))
1.500000e+01	((-2.820664e-18 5.030267e-01 -3.910146e-37) (5.065225e-01 8.322042e-07 4.050887e-39) (0.000000e+00 0.000000e+00 0.000000e+00)) ((-2.515134e-02 -1.410332e-19 1.131049e-01) (-4.161021e-08 2.532613e-02 2.359303e-08) (0.000000e+00 0.000000e+00 0.000000e+00))
2.000000e+01	((-2.614033e-18 5.179933e-01 -2.295035e-37) (4.913936e-01 2.761154e-06 2.748300e-39) (0.000000e+00 0.000000e+00 0.000000e+00)) ((-2.589966e-02 -1.307017e-19 1.083739e-01) (-1.380577e-07 2.456968e-02 4.124117e-07) (0.000000e+00 0.000000e+00 0.000000e+00))
2.500000e+01	((-3.057622e-18 4.545335e-01 -1.083742e-37) (4.770889e-01 8.077940e-07 1.414004e-39) (0.000000e+00 0.000000e+00 0.000000e+00)) ((-2.272668e-02 -1.528811e-19 5.836817e-02) (-4.038970e-08 2.385445e-02 -5.634712e-07) (0.000000e+00 0.000000e+00 0.000000e+00))
3.000000e+01	((-5.268289e-18 7.746402e-01 1.251231e-37) (4.635105e-01 2.750258e-06 -1.758747e-39) (0.000000e+00 0.000000e+00 0.000000e+00)) ((-3.873201e-02 -2.634145e-19 1.131220e-01) (-1.375129e-07 2.317552e-02 -7.316825e-07) (0.000000e+00 0.000000e+00 0.000000e+00))
3.500000e+01	((-5.427422e-18 8.301368e-01 3.121175e-37) (4.499672e-01 5.103143e-06 -4.660923e-39) (0.000000e+00 0.000000e+00 0.000000e+00)) ((-4.150684e-02 -2.713711e-19 1.133719e-01) (-2.551572e-07 2.249836e-02 -6.724404e-07) (0.000000e+00 0.000000e+00 0.000000e+00))
4.000000e+01	((-4.950685e-18 7.474117e-01 4.174089e-37) (4.380733e-01 5.975190e-06 -6.359344e-39) (0.000000e+00 0.000000e+00 0.000000e+00)) ((-3.737059e-02 -2.475343e-19 8.277124e-02) (-2.987595e-07 2.190366e-02 -1.099105e-06) (0.000000e+00 0.000000e+00 0.000000e+00))
4.500000e+01	((-5.100927e-18 7.551407e-01 4.247136e-37) (4.254592e-01 7.242962e-06 -6.802757e-39) (0.000000e+00 0.000000e+00 0.000000e+00)) ((-3.775704e-02 -2.550464e-19 7.893474e-02) (-3.621481e-07 2.127296e-02 -1.573876e-06) (0.000000e+00 0.000000e+00 0.000000e+00))
5.000000e+01	((-5.073174e-18 7.651435e-01 4.116266e-37) (4.142253e-01 8.965122e-06 -6.749573e-39) (0.000000e+00 0.000000e+00 0.000000e+00)) ((-3.825718e-02 -2.536587e-19 8.169540e-02) (-4.482561e-07 2.071127e-02 -1.838168e-06) (0.000000e+00 0.000000e+00 0.000000e+00))
5.500000e+01	((-4.965714e-18 7.526185e-01 3.850101e-37) (4.032381e-01 1.091249e-05 -6.484414e-39) (0.000000e+00 0.000000e+00 0.000000e+00)) ((-3.763093e-02 -2.482857e-19 7.646228e-02) (-5.456246e-07 2.016191e-02 -2.271221e-06) (0.000000e+00 0.000000e+00 0.000000e+00))
6.000000e+01	((-5.041049e-18 7.579456e-01 3.600338e-37) (3.928205e-01 1.293851e-05 -6.202905e-39) (0.000000e+00 0.000000e+00 0.000000e+00)) ((-3.789728e-02 -2.520524e-19 7.383650e-02) (-6.469256e-07 1.964103e-02 -2.849625e-06) (0.000000e+00 0.000000e+00 0.000000e+00))
6.500000e+01	((-5.106249e-18 7.730247e-01 3.241468e-37) (3.829149e-01 1.599558e-05 -5.700756e-39) (0.000000e+00 0.000000e+00 0.000000e+00)) ((-3.865124e-02 -2.553124e-19 7.413835e-02) (-7.997790e-07 1.914575e-02 -3.541882e-06) (0.000000e+00 0.000000e+00 0.000000e+00))
7.000000e+01	((-5.135394e-18 7.784673e-01 2.967188e-37) (3.735033e-01 1.935124e-05 -5.316969e-39) (0.000000e+00 0.000000e+00 0.000000e+00)) ((-3.892337e-02 -2.567697e-19 7.098297e-02) (-9.675621e-07 1.867516e-02 -4.388459e-06) (0.000000e+00 0.000000e+00 0.000000e+00))
7.500000e+01	((-5.226617e-18 7.920909e-01 2.775800e-37) (3.645706e-01 2.377686e-05 -5.060285e-39) (0.000000e+00 0.000000e+00 0.000000e+00)) ((-3.960454e-02 -2.613309e-19 6.866022e-02) (-1.188843e-06 1.822853e-02 -5.539027e-06) (0.000000e+00 0.000000e+00 0.000000e+00))
8.000000e+01	((-5.306156e-18 8.071452e-01 2.562632e-37) (3.560958e-01 2.859619e-05 -4.747301e-39) (0.000000e+00 0.000000e+00 0.000000e+00)) ((-4.035726e-02 -2.653078e-19 6.663448e-02) (-1.429810e-06 1.780479e-02 -6.760650e-06) (0.000000e+00 0.000000e+00 0.000000e+00))
8.500000e+01	((-5.366179e-18 8.199689e-01 2.357982e-37) (3.481276e-01 3.421946e-05 -4.433588e-39) (0.000000e+00 0.000000e+00 0.000000e+00)) ((-4.099844e-02 -2.683090e-19 6.366763e-02) (-1.710973e-06 1.740638e-02 -8.191489e-06) (0.000000e+00 0.000000e+00 0.000000e+00))
9.000000e+01	((-5.429739e-18 8.331686e-01 2.191063e-37) (3.410272e-01 3.981665e-05 -4.171552e-39) (0.000000e+00 0.000000e+00 0.000000e+00)) ((-4.165843e-02 -2.714870e-19 6.074249e-02) (-1.990832e-06 1.705136e-02 -9.632914e-06) (0.000000e+00 0.000000e+00 0.000000e+00))
9.500000e+01	((-5.494699e-18 8.468495e-01 2.031936e-37) (3.349138e-01 4.578269e-05 -3.907203e-39) (0.000000e+00 0.000000e+00 0.000000e+00)) ((-4.234248e-02 -2.747350e-19 5.799693e-02) (-2.289135e-06 1.674569e-02 -1.116995e-05) (0.000000e+00 0.000000e+00 0.000000e+00))
1.000000e+02	((-5.553023e-18 8.596293e-01 1.882757e-37) (3.293820e-01 5.129845e-05 -3.653090e-39) (0.000000e+00 0.000000e+00 0.000000e+00)) ((-4.298146e-02 -2.776511e-19 5.526405e-02) (-2.564923e-06 1.646910e-02 -1.260525e-05) (0.000000e+00 0.000000e+00 0.000000e+00))
1.050000e+02	((-5.606857e-18 8.715226e-01 1.746933e-37) (3.242192e-01 5.683274e-05 -3.419303e-39) (0.000000e+00 0.000000e+00 0.000000e+00)) ((-4.357613e-02 -2.803428e-19 5.262519e-02) (-2.841637e-06 1.621096e-02 -1.404875e-05) (0.000000e+00 0.000000e+00 0.000000e+00))
1.100000e+02	((-5.655933e-18 8.824452e-01 1.631737e-37) (3.194541e-01 6.160258e-05 -3.220418e-39) (0.000000e+00 0.000000e+00 0.000000e+00)) ((-4.412226e-02 -2.827966e-19 5.019569e-02) (-3.080129e-06 1.597271e-02 -1.530673e-05) (0.000000e+00 0.000000e+00 0.000000e+00))
1.150000e+02	((-5.698935e-18 8.921663e-01 1.530050e-37) (3.151920e-01 6.626332e-05 -3.043676e-39) (0.000000e+00 0.000000e+00 0.000000e+00)) ((-4.460832e-02 -2.849468e-19 4.796355e-02) (-3.313166e-06 1.575960e-02 -1.653881e-05) (0.000000e+00 0.000000e+00 0.000000e+00))
1.200000e+02	((-5.735806e-18 9.006004e-01 1.428659e-37) (3.113222e-01 7.007698e-05 -2.865467e-39) (0.000000e+00 0.000000e+00 0.000000e+00)) ((-4.503002e-02 -2.867903e-19 4.593426e-02) (-3.503849e-06 1.556611e-02 -1.755937e-05) (0.000000e+00 0.000000e+00 0.000000e+00))
1.250000e+02	((-5.765038e-18 9.075133e-01 1.359883e-37) (3.077067e-01 7.407349e-05 -2.750096e-39) (0.000000e+00 0.000000e+00 0.000000e+00)) ((-4.537566e-02 -2.882519e-19 4.416835e-02) (-3.703675e-06 1.538534e-02 -1.865310e-05) (0.000000e+00 0.000000e+00 0.000000e+00))
1.300000e+02	((-5.788841e-18 9.133395e-01 1.277037e-37) (3.043089e-01 7.780841e-05 -2.605396e-39) (0.000000e+00 0.000000e+00 0.000000e+00)) ((-4.566697e-02 -2.894421e-19 4.260152e-02) (-3.890420e-06 1.521545e-02 -1.971598e-05) (0.000000e+00 0.000000e+00 0.000000e+00))
1.350000e+02	((-5.806824e-18 9.181387e-01 1.229279e-37) (3.011466e-01 7.974941e-05 -2.528631e-39) (0.000000e+00 0.000000e+00 0.000000e+00)) ((-4.590693e-02 -2.903412e-19 4.123557e-02) (-3.987471e-06 1.505733e-02 -2.016533e-05) (0.000000e+00 0.000000e+00 0.000000e+00))
1.400000e+02	((-5.817433e-18 9.215235e-01 1.187916e-37) (2.982424e-01 8.142621e-05 -2.463711e-39) (0.000000e+00 0.000000e+00 0.000000e+00)) ((-4.607618e-02 -2.908716e-19 4.012303e-02) (-4.071310e-06 1.491212e-02 -2.063120e-05) (0.000000e+00 0.000000e+00 0.000000e+00))
1.450000e+02	((-5.822097e-18 9.237899e-01 1.165038e-37) (2.955307e-01 8.436898e-05 -2.435676e-39) (0.000000e+00 0.000000e+00 0.000000e+00)) ((-4.618950e-02 -2.911048e-19 3.920399e-02) (-4.218449e-06 1.477654e-02 -2.149576e-05) (0.000000e+00 0.000000e+00 0.000000e+00))
1.500000e+02	((-5.823424e-18 9.252741e-01 1.148107e-37) (2.929832e-01 8.637581e-05 -2.419659e-39) (0.000000e+00 0.000000e+00 0.000000e+00)) ((-4.626370e-02 -2.911712e-19 3.852876e-02) (-4.318790e-06 1.464916e-02 -2.209180e-05) (0.000000e+00 0.000000e+00 0.000000e+00))
1.550000e+02	((-5.818876e-18 9.259853e-01 1.155757e-37) (2.906077e-01 8.735990e-05 -2.453289e-39) (0.000000e+00 0.000000e+00 0.000000e+00)) ((-4.629927e-02 -2.909438e-19 3.796521e-02) (-4.367995e-06 1.453038e-02 -2.234749e-05) (0.000000e+00 0.000000e+00 0.000000e+00))
1.600000e+02	((-5.811335e-18 9.262167e-01 1.160591e-37) (2.883812e-01 8.764817e-05 -2.481734e-39) (0.000000e+00 0.000000e+00 0.000000e+00)) ((-4.631083e-02 -2.905668e-19 3.754941e-02) (-4.382408e-06 1.441906e-02 -2.242358e-05) (0.000000e+00 0.000000e+00 0.000000e+00))
1.650000e+02	((-5.798787e-18 9.256954e-01 1.160076e-37) (2.862954e-01 8.925131e-05 -2.499523e-39) (0.000000e+00 0.000000e+00 0.000000e+00)) ((-4.628477e-02 -2.899393e-19 3.727585e-02) (-4.462566e-06 1.431477e-02 -2.287025e-05) (0.000000e+00 0.000000e+00 0.000000e+00))
1.700000e+02	((-5.782162e-18 9.245631e-01 1.181357e-37) (2.843364e-01 8.989268e-05 -2.561716e-39) (0.000000e+00 0.000000e+00 0.000000e+00)) ((-4.622816e-02 -2.891081e-19 3.714298e-02) (-4.494634e-06 1.421682e-02 -2.309255e-05) (0.000000e+00 0.000000e+00 0.000000e+00))
1.750000e+02	((-5.761689e-18 9.230043e-01 1.183865e-37) (2.825021e-01 9.056385e-05 -2.585722e-39) (0.000000e+00 0.000000e+00 0.000000e+00)) ((-4.615022e-02 -2.880844e-19 3.711997e-02) (-4.528192e-06 1.412511e-02 -2.326631e-05) (0.000000e+00 0.000000e+00 0.000000e+00))
1.800000e+02	((-5.739339e-18 9.212710e-01 1.202742e-37) (2.807715e-01 9.116371e-05 -2.643832e-39) (0.000000e+00 0.000000e+00 0.000000e+00)) ((-4.606355e-02 -2.869670e-19 3.717146e-02) (-4.558185e-06 1.403858e-02 -2.349208e-05) (0.000000e+00 0.000000e+00 0.000000e+00))
1.850000e+02	((-5.715609e-18 9.194732e-01 1.214045e-37) (2.791389e-01 9.208002e-05 -2.686790e-39) (0.000000e+00 0.000000e+00 0.000000e+00)) ((-4.597366e-02 -2.857804e-19 3.724728e-02) (-4.604001e-06 1.395694e-02 -2.377148e-05) (0.000000e+00 0.000000e+00 0.000000e+00))
1.900000e+02	((-5.692549e-18 9.176817e-01 1.231561e-37) (2.775952e-01 9.175174e-05 -2.742950e-39) (0.000000e+00 0.000000e+00 0.000000e+00)) ((-4.588408e-02 -2.846275e-19 3.737001e-02) (-4.587587e-06 1.387976e-02 -2.365760e-05) (0.000000e+00 0.000000e+00 0.000000e+00))
1.950000e+02	((-5.661887e-18 9.154663e-01 1.229188e-37) (2.761499e-01 9.179312e-05 -2.758001e-39) (0.000000e+00 0.000000e+00 0.000000e+00)) ((-4.577332e-02 -2.830944e-19 3.750920e-02) (-4.589656e-06 1.380750e-02 -2.360828e-05) (0.000000e+00 0.000000e+00 0.000000e+00))
2.000000e+02	((-5.631015e-18 9.131456e-01 1.233753e-37) (2.747830e-01 9.165188e-05 -2.787792e-39) (0.000000e+00 0.000000e+00 0.000000e+00)) ((-4.565728e-02 -2.815507e-19 3.770701e-02) (-4.582594e-06 1.373915e-02 -2.361483e-05) (0.000000e+00 0.000000e+00 0.000000e+00))
2.050000e+02	((-5.595156e-18 9.105332e-01 1.213576e-37) (2.734931e-01 9.281128e-05 -2.765976e-39) (0.000000e+00 0.000000e+00 0.000000e+00)) ((-4.552666e-02 -2.797578e-19 3.788964e-02) (-4.640564e-06 1.367465e-02 -2.396171e-05) (0.000000e+00 0.000000e+00 0.000000e+00))
2.100000e+02	((-5.559473e-18 9.080551e-01 1.206681e-37) (2.722732e-01 9.328676e-05 -2.771907e-39) (0.000000e+00 0.000000e+00 0.000000e+00)) ((-4.540275e-02 -2.779736e-19 3.805858e-02) (-4.664338e-06 1.361366e-02 -2.412902e-05) (0.000000e+00 0.000000e+00 0.000000e+00))
2.150000e+02	((-5.522678e-18 9.056491e-01 1.193108e-37) (2.711226e-01 9.302691e-05 -2.763776e-39) (0.000000e+00 0.000000e+00 0.000000e+00)) ((-4.528245e-02 -2.761339e-19 3.818389e-02) (-4.651346e-06 1.355613e-02 -2.401272e-05) (0.000000e+00 0.000000e+00 0.000000e+00))
2.200000e+02	((-5.482999e-18 9.032034e-01 1.175285e-37) (2.700260e-01 9.226683e-05 -2.746398e-39) (0.000000e+00 0.000000e+00 0.000000e+00)) ((-4.516017e-02 -2.741499e-19 3.825692e-02) (-4.613342e-06 1.350130e-02 -2.377379e-05) (0.000000e+00 0.000000e+00 0.000000e+00))
2.250000e+02	((-5.441684e-18 9.007081e-01 1.140616e-37) (2.689956e-01 9.307881e-05 -2.693003e-39) (0.000000e+00 0.000000e+00 0.000000e+00)) ((-4.503540e-02 -2.720842e-19 3.830418e-02) (-4.653941e-06 1.344978e-02 -2.397468e-05) (0.000000e+00 0.000000e+00 0.000000e+00))
2.300000e+02	((-5.397869e-18 8.980530e-01 1.101227e-37) (2.680225e-01 9.305014e-05 -2.628904e-39) (0.000000e+00 0.000000e+00 0.000000e+00)) ((-4.490265e-02 -2.698934e-19 3.832945e-02) (-4.652507e-06 1.340112e-02 -2.398744e-05) (0.000000e+00 0.000000e+00 0.000000e+00))
2.350000e+02	((-5.352067e-18 8.953070e-01 1.058325e-37) (2.671077e-01 9.321077e-05 -2.556564e-39) (0.000000e+00 0.000000e+00 0.000000e+00)) ((-4.476535e-02 -2.676033e-19 3.831539e-02) (-4.660539e-06 1.335539e-02 -2.398737e-05) (0.000000e+00 0.000000e+00 0.000000e+00))
2.400000e+02	((-5.305758e-18 8.925796e-01 1.013362e-37) (2.662388e-01 9.339532e-05 -2.479031e-39) (0.000000e+00 0.000000e+00 0.000000e+00)) ((-4.462898e-02 -2.652879e-19 3.824817e-02) (-4.669766e-06 1.331194e-02 -2.406654e-05) (0.000000e+00 0.000000e+00 0.000000e+00))
2.450000e+02	((-5.258825e-18 8.899283e-01 9.663040e-38) (2.654165e-01 9.401402e-05 -2.396242e-39) (0.000000e+00 0.000000e+00 0.000000e+00)) ((-4.449641e-02 -2.629413e-19 3.809378e-02) (-4.700701e-06 1.327083e-02 -2.423001e-05) (0.000000e+00 0.000000e+00 0.000000e+00))
2.500000e+02	((-5.209332e-18 8.872181e-01 9.156527e-38) (2.646341e-01 9.345366e-05 -2.305046e-39) (0.000000e+00 0.000000e+00 0.000000e+00)) ((-4.436091e-02 -2.604666e-19 3.784669e-02) (-4.672683e-06 1.323171e-02 -2.402107e-05) (0.000000e+00 0.000000e+00 0.000000e+00))
2.550000e+02	((-5.159179e-18 8.844317e-01 8.630258e-38) (2.639058e-01 9.332390e-05 -2.208935e-39) (0.000000e+00 0.000000e+00 0.000000e+00)) ((-4.422159e-02 -2.579589e-19 3.754955e-02) (-4.666195e-06 1.319529e-02 -2.389133e-05) (0.000000e+00 0.000000e+00 0.000000e+00))
2.600000e+02	((-5.108520e-18 8.814727e-01 8.008004e-38) (2.632165e-01 9.304406e-05 -2.091590e-39) (0.000000e+00 0.000000e+00 0.000000e+00)) ((-4.407363e-02 -2.554260e-19 3.720326e-02) (-4.652203e-06 1.316083e-02 -2.382733e-05) (0.000000e+00 0.000000e+00 0.000000e+00))
2.650000e+02	((-5.057991e-18 8.783952e-01 7.347313e-38) (2.625677e-01 9.410859e-05 -1.965292e-39) (0.000000e+00 0.000000e+00 0.000000e+00)) ((-4.391976e-02 -2.528995e-19 3.678461e-02) (-4.705429e-06 1.312839e-02 -2.411568e-05) (0.000000e+00 0.000000e+00 0.000000e+00))
2.700000e+02	((-5.008534e-18 8.752643e-01 6.866912e-38) (2.619553e-01 9.450819e-05 -1.877197e-39) (0.000000e+00 0.000000e+00 0.000000e+00)) ((-4.376321e-02 -2.504267e-19 3.628952e-02) (-4.725410e-06 1.309776e-02 -2.423144e-05) (0.000000e+00 0.000000e+00 0.000000e+00))
2.750000e+02	((-4.960550e-18 8.721610e-01 6.401835e-38) (2.613814e-01 9.418997e-05 -1.791970e-39) (0.000000e+00 0.000000e+00 0.000000e+00)) ((-4.360805e-02 -2.480275e-19 3.568906e-02) (-4.709498e-06 1.306907e-02 -2.406844e-05) (0.000000e+00 0.000000e+00 0.000000e+00))
2.800000e+02	((-4.911389e-18 8.688388e-01 5.745914e-38) (2.608326e-01 9.337538e-05 -1.665024e-39) (0.000000e+00 0.000000e+00 0.000000e+00)) ((-4.344194e-02 -2.455694e-19 3.493980e-02) (-4.668769e-06 1.304163e-02 -2.378573e-05) (0.000000e+00 0.000000e+00 0.000000e+00))
2.850000e+02	((-4.863923e-18 8.654082e-01 5.305709e-38) (2.603231e-01 9.414073e-05 -1.584346e-39) (0.000000e+00 0.000000e+00 0.000000e+00)) ((-4.327041e-02 -2.431962e-19 3.411903e-02) (-4.707036e-06 1.301615e-02 -2.394701e-05) (0.000000e+00 0.000000e+00 0.000000e+00))
2.900000e+02	((-4.818279e-18 8.617465e-01 4.779479e-38) (2.598459e-01 9.406184e-05 -1.484462e-39) (0.000000e+00 0.000000e+00 0.000000e+00)) ((-4.308733e-02 -2.409139e-19 3.324135e-02) (-4.703092e-06 1.299230e-02 -2.392187e-05) (0.000000e+00 0.000000e+00 0.000000e+00))
2.950000e+02	((-4.774848e-18 8.578742e-01 4.271616e-38) (2.594036e-01 9.417361e-05 -1.387983e-39) (0.000000e+00 0.000000e+00 0.000000e+00)) ((-4.289371e-02 -2.387424e-19 3.228846e-02) (-4.708681e-06 1.297018e-02 -2.388601e-05) (0.000000e+00 0.000000e+00 0.000000e+00))
3.000000e+02	((-4.735694e-18 8.540194e-01 3.811481e-38) (2.589849e-01 9.430319e-05 -1.301275e-39) (0.000000e+00 0.000000e+00 0.000000e+00)) ((-4.270097e-02 -2.367847e-19 3.129182e-02) (-4.715159e-06 1.294924e-02 -2.393052e-05) (0.000000e+00 0.000000e+00 0.000000e+00))
3.050000e+02	((-4.699789e-18 8.501290e-01 3.387572e-38) (2.585919e-01 9.486243e-05 -1.221891e-39) (0.000000e+00 0.000000e+00 0.000000e+00)) ((-4.250645e-02 -2.349894e-19 3.017920e-02) (-4.743121e-06 1.292959e-02 -2.406146e-05) (0.000000e+00 0.000000e+00 0.000000e+00))
3.100000e+02	((-4.665791e-18 8.460045e-01 2.966565e-38) (2.582189e-01 9.423239e-05 -1.142583e-39) (0.000000e+00 0.000000e+00 0.000000e+00)) ((-4.230023e-02 -2.332895e-19 2.890879e-02) (-4.711620e-06 1.291094e-02 -2.382154e-05) (0.000000e+00 0.000000e+00 0.000000e+00))
3.150000e+02	((-4.636073e-18 8.419101e-01 2.600782e-38) (2.578810e-01 9.402583e-05 -1.074737e-39) (0.000000e+00 0.000000e+00 0.000000e+00)) ((-4.209551e-02 -2.318036e-19 2.764612e-02) (-4.701292e-06 1.289405e-02 -2.366261e-05) (0.000000e+00 0.000000e+00 0.000000e+00))
3.200000e+02	((-4.609137e-18 8.374768e-01 2.284848e-38) (2.575642e-01 9.365854e-05 -1.017268e-39) (0.000000e+00 0.000000e+00 0.000000e+00)) ((-4.187384e-02 -2.304568e-19 2.630744e-02) (-4.682927e-06 1.287821e-02 -2.357108e-05) (0.000000e+00 0.000000e+00 0.000000e+00))
3.250000e+02	((-4.586037e-18 8.329082e-01 1.990845e-38) (2.572705e-01 9.462838e-05 -9.640379e-40) (0.000000e+00 0.000000e+00 0.000000e+00)) ((-4.164541e-02 -2.293019e-19 2.493544e-02) (-4.731419e-06 1.286352e-02 -2.383401e-05) (0.000000e+00 0.000000e+00 0.000000e+00))
3.300000e+02	((-4.567653e-18 8.285986e-01 1.552643e-38) (2.569964e-01 9.492568e-05 -8.783027e-40) (0.000000e+00 0.000000e+00 0.000000e+00)) ((-4.142993e-02 -2.283826e-19 2.364085e-02) (-4.746284e-06 1.284982e-02 -2.392667e-05) (0.000000e+00 0.000000e+00 0.000000e+00))
3.350000e+02	((-4.552983e-18 8.242338e-01 1.331457e-38) (2.567449e-01 9.449739e-05 -8.398696e-40) (0.000000e+00 0.000000e+00 0.000000e+00)) ((-4.121169e-02 -2.276491e-19 2.226738e-02) (-4.724870e-06 1.283724e-02 -2.374293e-05) (0.000000e+00 0.000000e+00 0.000000e+00))
3.400000e+02	((-4.542276e-18 8.197109e-01 1.110500e-38) (2.565029e-01 9.356455e-05 -8.009937e-40) (0.000000e+00 0.000000e+00 0.000000e+00)) ((-4.098554e-02 -2.271138e-19 2.076395e-02) (-4.678227e-06 1.282515e-02 -2.344224e-05) (0.000000e+00 0.000000e+00 0.000000e+00))
3.450000e+02	((-4.535619e-18 8.155601e-01 7.285101e-39) (2.562854e-01 9.420323e-05 -7.258519e-40) (0.000000e+00 0.000000e+00 0.000000e+00)) ((-4.077800e-02 -2.267809e-19 1.940744e-02) (-4.710161e-06 1.281427e-02 -2.358789e-05) (0.000000e+00 0.000000e+00 0.000000e+00))
3.500000e+02	((-4.531633e-18 8.112468e-01 4.971379e-39) (2.560856e-01 9.399616e-05 -6.835129e-40) (0.000000e+00 0.000000e+00 0.000000e+00)) ((-4.056234e-02 -2.265816e-19 1.806716e-02) (-4.699808e-06 1.280428e-02 -2.355005e-05) (0.000000e+00 0.000000e+00 0.000000e+00))
3.550000e+02	((-4.530435e-18 8.070962e-01 2.596597e-39) (2.559066e-01 9.397304e-05 -6.392455e-40) (0.000000e+00 0.000000e+00 0.000000e+00)) ((-4.035481e-02 -2.265217e-19 1.682695e-02) (-4.698652e-06 1.279533e-02 -2.350296e-05) (0.000000e+00 0.000000e+00 0.000000e+00))
3.600000e+02	((-4.531547e-18 8.031832e-01 9.007121e-40) (2.557377e-01 9.396522e-05 -6.095140e-40) (0.000000e+00 0.000000e+00 0.000000e+00)) ((-4.015916e-02 -2.265774e-19 1.566776e-02) (-4.698261e-06 1.278688e-02 -2.353856e-05) (0.000000e+00 0.000000e+00 0.000000e+00))
3.650000e+02	((-4.535925e-18 7.994308e-01 -9.047854e-40) (2.555812e-01 9.437970e-05 -5.767890e-40) (0.000000e+00 0.000000e+00 0.000000e+00)) ((-3.997154e-02 -2.267962e-19 1.448573e-02) (-4.718985e-06 1.277906e-02 -2.366231e-05) (0.000000e+00 0.000000e+00 0.000000e+00))
3.700000e+02	((-4.543886e-18 7.958883e-01 -2.848848e-39) (2.554318e-01 9.360627e-05 -5.404428e-40) (0.000000e+00 0.000000e+00 0.000000e+00)) ((-3.979441e-02 -2.271943e-19 1.334870e-02) (-4.680314e-06 1.277159e-02 -2.341781e-05) (0.000000e+00 0.000000e+00 0.000000e+00))
3.750000e+02	((-4.553164e-18 7.928234e-01 -5.529805e-39) (2.553050e-01 9.325717e-05 -4.871081e-40) (0.000000e+00 0.000000e+00 0.000000e+00)) ((-3.964117e-02 -2.276582e-19 1.242001e-02) (-4.662858e-06 1.276525e-02 -2.325524e-05) (0.000000e+00 0.000000e+00 0.000000e+00))
3.800000e+02	((-4.560524e-18 7.902320e-01 -7.481946e-39) (2.551869e-01 9.275898e-05 -4.495336e-40) (0.000000e+00 0.000000e+00 0.000000e+00)) ((-3.951160e-02 -2.280262e-19 1.172428e-02) (-4.637949e-06 1.275934e-02 -2.316082e-05) (0.000000e+00 0.000000e+00 0.000000e+00))
3.850000e+02	((-4.571871e-18 7.873318e-01 -9.172194e-39) (2.550801e-01 9.359417e-05 -4.173036e-40) (0.000000e+00 0.000000e+00 0.000000e+00)) ((-3.936659e-02 -2.285935e-19 1.097633e-02) (-4.679709e-06 1.275400e-02 -2.342038e-05) (0.000000e+00 0.000000e+00 0.000000e+00))
3.900000e+02	((-4.582214e-18 7.854887e-01 -9.547568e-39) (2.549811e-01 9.376573e-05 -4.140664e-40) (0.000000e+00 0.000000e+00 0.000000e+00)) ((-3.927443e-02 -2.291107e-19 1.043337e-02) (-4.688287e-06 1.274905e-02 -2.351125e-05) (0.000000e+00 0.000000e+00 0.000000e+00))
3.950000e+02	((-4.592592e-18 7.838022e-01 -1.169049e-38) (2.548932e-01 9.320277e-05 -3.707898e-40) (0.000000e+00 0.000000e+00 0.000000e+00)) ((-3.919011e-02 -2.296296e-19 1.000350e-02) (-4.660138e-06 1.274466e-02 -2.332183e-05) (0.000000e+00 0.000000e+00 0.000000e+00))
4.000000e+02	((-4.606827e-18 7.823742e-01 -1.205050e-38) (2.548038e-01 9.219307e-05 -3.673519e-40) (0.000000e+00 0.000000e+00 0.000000e+00)) ((-3.911871e-02 -2.303413e-19 9.623210e-03) (-4.609653e-06 1.274019e-02 -2.302254e-05) (0.000000e+00 0.000000e+00 0.000000e+00))
4.050000e+02	((-4.614600e-18 7.814642e-01 -1.277473e-38) (2.547280e-01 9.276252e-05 -3.553691e-40) (0.000000e+00 0.000000e+00 0.000000e+00)) ((-3.907321e-02 -2.307300e-19 9.477808e-03) (-4.638126e-06 1.273640e-02 -2.316673e-05) (0.000000e+00 0.000000e+00 0.000000e+00))
4.100000e+02	((-4.627733e-18 7.808007e-01 -1.370620e-38) (2.546597e-01 9.246308e-05 -3.385481e-40) (0.000000e+00 0.000000e+00 0.000000e+00)) ((-3.904003e-02 -2.313867e-19 9.368469e-03) (-4.623154e-06 1.273298e-02 -2.312528e-05) (0.000000e+00 0.000000e+00 0.000000e+00))
4.150000e+02	((-4.636964e-18 7.805576e-01 -1.445824e-38) (2.546022e-01 9.234820e-05 -3.255712e-40) (0.000000e+00 0.000000e+00 0.000000e+00)) ((-3.902788e-02 -2.318482e-19 9.405942e-03) (-4.617410e-06 1.273011e-02 -2.307025e-05) (0.000000e+00 0.000000e+00 0.000000e+00))
4.200000e+02	((-4.648514e-18 7.807346e-01 -1.536203e-38) (2.545450e-01 9.229280e-05 -3.092117e-40) (0.000000e+00 0.000000e+00 0.000000e+00)) ((-3.903673e-02 -2.324257e-19 9.521472e-03) (-4.614640e-06 1.272725e-02 -2.310512e-05) (0.000000e+00 0.000000e+00 0.000000e+00))
4.250000e+02	((-4.659553e-18 7.812557e-01 -1.544358e-38) (2.544911e-01 9.269437e-05 -3.112418e-40) (0.000000e+00 0.000000e+00 0.000000e+00)) ((-3.906279e-02 -2.329776e-19 9.722188e-03) (-4.634718e-06 1.272456e-02 -2.323093e-05) (0.000000e+00 0.000000e+00 0.000000e+00))
4.300000e+02	((-4.671326e-18 7.821102e-01 -1.531151e-38) (2.544358e-01 9.193539e-05 -3.180285e-40) (0.000000e+00 0.000000e+00 0.000000e+00)) ((-3.910551e-02 -2.335663e-19 1.000240e-02) (-4.596769e-06 1.272179e-02 -2.299384e-05) (0.000000e+00 0.000000e+00 0.000000e+00))
4.350000e+02	((-4.682151e-18 7.830550e-01 -1.553593e-38) (2.543954e-01 9.159388e-05 -3.165563e-40) (0.000000e+00 0.000000e+00 0.000000e+00)) ((-3.915275e-02 -2.341075e-19 1.031435e-02) (-4.579694e-06 1.271977e-02 -2.284027e-05) (0.000000e+00 0.000000e+00 0.000000e+00))
4.400000e+02	((-4.693951e-18 7.842530e-01 -1.497875e-38) (2.543564e-01 9.110399e-05 -3.326382e-40) (0.000000e+00 0.000000e+00 0.000000e+00)) ((-3.921265e-02 -2.346976e-19 1.067919e-02) (-4.555200e-06 1.271782e-02 -2.275881e-05) (0.000000e+00 0.000000e+00 0.000000e+00))
4.450000e+02	((-4.706393e-18 7.856594e-01 -1.375853e-38) (2.543219e-01 9.194881e-05 -3.635365e-40) (0.000000e+00 0.000000e+00 0.000000e+00)) ((-3.928297e-02 -2.353197e-19 1.106018e-02) (-4.597440e-06 1.271610e-02 -2.303337e-05) (0.000000e+00 0.000000e+00 0.000000e+00))
4.500000e+02	((-4.719321e-18 7.872151e-01 -1.319629e-38) (2.542890e-01 9.217229e-05 -3.795487e-40) (0.000000e+00 0.000000e+00 0.000000e+00)) ((-3.936075e-02 -2.359661e-19 1.144691e-02) (-4.608615e-06 1.271445e-02 -2.314941e-05) (0.000000e+00 0.000000e+00 0.000000e+00))
4.550000e+02	((-4.734319e-18 7.892765e-01 -1.148255e-38) (2.542617e-01 9.169667e-05 -4.215529e-40) (0.000000e+00 0.000000e+00 0.000000e+00)) ((-3.946382e-02 -2.367160e-19 1.193125e-02) (-4.584833e-06 1.271309e-02 -2.299124e-05) (0.000000e+00 0.000000e+00 0.000000e+00))
4.600000e+02	((-4.745128e-18 7.908435e-01 -1.060945e-38) (2.542279e-01 9.075497e-05 -4.441919e-40) (0.000000e+00 0.000000e+00 0.000000e+00)) ((-3.954217e-02 -2.372564e-19 1.222579e-02) (-4.537749e-06 1.271139e-02 -2.272526e-05) (0.000000e+00 0.000000e+00 0.000000e+00))
4.650000e+02	((-4.759356e-18 7.928916e-01 -9.274354e-39) (2.542033e-01 9.140667e-05 -4.775494e-40) (0.000000e+00 0.000000e+00 0.000000e+00)) ((-3.964458e-02 -2.379678e-19 1.268302e-02) (-4.570333e-06 1.271016e-02 -2.290966e-05) (0.000000e+00 0.000000e+00 0.000000e+00))
4.700000e+02	((-4.769359e-18 7.943352e-01 -8.531826e-39) (2.541821e-01 9.122466e-05 -4.969415e-40) (0.000000e+00 0.000000e+00 0.000000e+00)) ((-3.971676e-02 -2.384679e-19 1.296372e-02) (-4.561233e-06 1.270911e-02 -2.291377e-05) (0.000000e+00 0.000000e+00 0.000000e+00))
4.750000e+02	((-4.780284e-18 7.962143e-01 -7.147579e-39) (2.541681e-01 9.122605e-05 -5.309985e-40) (0.000000e+00 0.000000e+00 0.000000e+00)) ((-3.981071e-02 -2.390142e-19 1.335944e-02) (-4.561303e-06 1.270841e-02 -2.290682e-05) (0.000000e+00 0.000000e+00 0.000000e+00))
4.800000e+02	((-4.790046e-18 7.978143e-01 -6.272630e-39) (2.541512e-01 9.129510e-05 -5.531800e-40) (0.000000e+00 0.000000e+00 0.000000e+00)) ((-3.989071e-02 -2.395023e-19 1.361699e-02) (-4.564755e-06 1.270756e-02 -2.299051e-05) (0.000000e+00 0.000000e+00 0.000000e+00))
4.850000e+02	((-4.801218e-18 7.999500e-01 -5.993609e-39) (2.541345e-01 9.183109e-05 -5.621712e-40) (0.000000e+00 0.000000e+00 0.000000e+00)) ((-3.999750e-02 -2.400609e-19 1.399035e-02) (-4.591554e-06 1.270673e-02 -2.316506e-05) (0.000000e+00 0.000000e+00 0.000000e+00))
4.900000e+02	((-4.811411e-18 8.019374e-01 -4.699437e-39) (2.541136e-01 9.122262e-05 -5.937793e-40) (0.000000e+00 0.000000e+00 0.000000e+00)) ((-4.009687e-02 -2.405706e-19 1.429605e-02) (-4.561131e-06 1.270568e-02 -2.297621e-05) (0.000000e+00 0.000000e+00 0.000000e+00))
4.950000e+02	((-4.819391e-18 8.035579e-01 -4.310019e-39) (2.541049e-01 9.102967e-05 -6.047178e-40) (0.000000e+00 0.000000e+00 0.000000e+00)) ((-4.017790e-02 -2.409695e-19 1.458176e-02) (-4.551484e-06 1.270525e-02 -2.287040e-05) (0.000000e+00 0.000000e+00 0.000000e+00))
5.000000e+02	((-4.828317e-18 8.053547e-01 -4.397252e-39) (2.540951e-01 9.070420e-05 -6.047666e-40) (0.000000e+00 0.000000e+00 0.000000e+00)) ((-4.026773e-02 -2.414159e-19 1.486941e-02) (-4.535210e-06 1.270476e-02 -2.283396e-05) (0.000000e+00 0.000000e+00 0.000000e+00))
5.050000e+02	((-4.837324e-18 8.072092e-01 -3.427998e-39) (2.540873e-01 9.171169e-05 -6.286208e-40) (0.000000e+00 0.000000e+00 0.000000e+00)) ((-4.036046e-02 -2.418662e-19 1.515103e-02) (-4.585585e-06 1.270436e-02 -2.314990e-05) (0.000000e+00 0.000000e+00 0.000000e+00))
5.100000e+02	((-4.846281e-18 8.089761e-01 -2.681823e-39) (2.540788e-01 9.209762e-05 -6.472438e-40) (0.000000e+00 0.000000e+00 0.000000e+00)) ((-4.044880e-02 -2.423141e-19 1.538673e-02) (-4.604881e-06 1.270394e-02 -2.330331e-05) (0.000000e+00 0.000000e+00 0.000000e+00))
5.150000e+02	((-4.855809e-18 8.108507e-01 -2.344818e-39) (2.540737e-01 9.178531e-05 -6.566449e-40) (0.000000e+00 0.000000e+00 0.000000e+00)) ((-4.054254e-02 -2.427905e-19 1.562341e-02) (-4.589266e-06 1.270369e-02 -2.318062e-05) (0.000000e+00 0.000000e+00 0.000000e+00))
5.200000e+02	((-4.865830e-18 8.127276e-01 -1.809548e-39) (2.540600e-01 9.100911e-05 -6.704057e-40) (0.000000e+00 0.000000e+00 0.000000e+00)) ((-4.063638e-02 -2.432915e-19 1.584501e-02) (-4.550455e-06 1.270300e-02 -2.294631e-05) (0.000000e+00 0.000000e+00 0.000000e+00))
5.250000e+02	((-4.873976e-18 8.142340e-01 -1.087321e-39) (2.540536e-01 9.180548e-05 -6.881979e-40) (0.000000e+00 0.000000e+00 0.000000e+00)) ((-4.071170e-02 -2.436988e-19 1.601383e-02) (-4.590274e-06 1.270268e-02 -2.315745e-05) (0.000000e+00 0.000000e+00 0.000000e+00))
5.300000e+02	((-4.882332e-18 8.156947e-01 -1.173070e-39) (2.540486e-01 9.175711e-05 -6.875502e-40) (0.000000e+00 0.000000e+00 0.000000e+00)) ((-4.078473e-02 -2.441166e-19 1.618370e-02) (-4.587856e-06 1.270243e-02 -2.318440e-05) (0.000000e+00 0.000000e+00 0.000000e+00))
5.350000e+02	((-4.890551e-18 8.171184e-01 -5.267753e-40) (2.540490e-01 9.188988e-05 -7.033846e-40) (0.000000e+00 0.000000e+00 0.000000e+00)) ((-4.085592e-02 -2.445275e-19 1.632504e-02) (-4.594494e-06 1.270245e-02 -2.319937e-05) (0.000000e+00 0.000000e+00 0.000000e+00))
5.400000e+02	((-4.899246e-18 8.185894e-01 -2.094997e-40) (2.540448e-01 9.207938e-05 -7.117737e-40) (0.000000e+00 0.000000e+00 0.000000e+00)) ((-4.092947e-02 -2.449623e-19 1.645392e-02) (-4.603969e-06 1.270224e-02 -2.330116e-05) (0.000000e+00 0.000000e+00 0.000000e+00))
5.450000e+02	((-4.907782e-18 8.200379e-01 3.538942e-40) (2.540393e-01 9.271888e-05 -7.256700e-40) (0.000000e+00 0.000000e+00 0.000000e+00)) ((-4.100190e-02 -2.453891e-19 1.655469e-02) (-4.635944e-06 1.270196e-02 -2.349147e-05) (0.000000e+00 0.000000e+00 0.000000e+00))
5.500000e+02	((-4.915750e-18 8.213748e-01 4.464460e-40) (2.540281e-01 9.219601e-05 -7.288592e-40) (0.000000e+00 0.000000e+00 0.000000e+00)) ((-4.106874e-02 -2.457875e-19 1.665320e-02) (-4.609800e-06 1.270140e-02 -2.331584e-05) (0.000000e+00 0.000000e+00 0.000000e+00))