/*--------------------------------*- C++ -*----------------------------------*\
| =========                 |                                                 |
| \\      /  F ield         | OpenFOAM: The Open Source CFD Toolbox           |
|  \\    /   O peration     | Version:  2.3.0                                 |
|   \\  /    A nd           | Web:      www.OpenFOAM.org                      |
|    \\/     M anipulation  |                                                 |
\*---------------------------------------------------------------------------*/
FoamFile
{
    version     2.0;
    format      ascii;
    class       volScalarField;
    location    "2000";
    object      nuTilda;
}
// * * * * * * * * * * * * * * * * * * * * * * * * * * * * * * * * * * * * * //

dimensions      [0 2 -1 0 0 0 0];

internalField   nonuniform List<scalar> 
6710
(
0.0558463
0.050243
0.0455714
0.0419259
0.038978
0.0359441
0.033005
0.0302114
0.0275526
0.0250024
0.0225945
0.020751
0.063681
0.0594498
0.0557793
0.0526526
0.050084
0.0480613
0.0465503
0.0455011
0.04486
0.0445709
0.044581
0.0448398
0.0703344
0.0673053
0.0647401
0.0626044
0.0608802
0.0595437
0.0585644
0.0579055
0.0575287
0.0573939
0.0574633
0.0577009
0.075898
0.0736817
0.0718348
0.0703097
0.0690833
0.0681333
0.0674356
0.066966
0.0667
0.0666142
0.0666864
0.066895
0.0804908
0.078855
0.0774847
0.0763474
0.0754268
0.0747072
0.0741741
0.0738119
0.0736069
0.0735455
0.0736146
0.0738014
0.0842913
0.0830766
0.0820306
0.0811496
0.0804269
0.0798549
0.0794253
0.0791299
0.0789611
0.0789122
0.0789758
0.0791444
0.0874974
0.0865558
0.0857307
0.0850244
0.0844353
0.083962
0.0836024
0.0833521
0.0832079
0.0831666
0.0832248
0.083379
0.0901928
0.0894448
0.0887761
0.0881944
0.0876991
0.0872939
0.0869827
0.0867653
0.0866398
0.086604
0.0866571
0.0867993
0.0924631
0.0918675
0.091308
0.0908205
0.0903951
0.0900356
0.0897579
0.089565
0.0894553
0.0894255
0.0894725
0.0896045
0.0943934
0.093926
0.0934304
0.0930202
0.092655
0.0923205
0.092064
0.0918888
0.0917924
0.0917743
0.0918098
0.0919318
0.0223651
0.0261519
0.0286305
0.0311977
0.0342761
0.0379732
0.0422793
0.0471409
0.0524888
0.0582456
0.0643271
0.0706893
0.0452644
0.0459016
0.0468748
0.0482386
0.0500418
0.0523192
0.0550876
0.0583435
0.0620621
0.0662005
0.0707063
0.0755626
0.0580672
0.0585903
0.0593362
0.0603367
0.0616219
0.06322
0.0651541
0.0674395
0.0700813
0.0730728
0.0763986
0.0800703
0.0672186
0.0676737
0.0682959
0.0691037
0.0701146
0.0713461
0.0728139
0.0745315
0.0765088
0.0787506
0.0812582
0.0840562
0.0740935
0.0745003
0.0750423
0.0757292
0.0765702
0.0775748
0.078752
0.0801096
0.0816555
0.0833958
0.0853371
0.0875061
0.0794109
0.0797807
0.0802651
0.0808687
0.0815952
0.0824483
0.0834316
0.0845487
0.0858032
0.0871985
0.0887404
0.090459
0.0836249
0.0839654
0.0844066
0.0849491
0.0855933
0.0863388
0.0871853
0.0881331
0.0891824
0.0903334
0.0915876
0.0929631
0.0870283
0.0873453
0.0877527
0.088249
0.0888315
0.0894967
0.0902427
0.0910661
0.091966
0.0929387
0.0939851
0.0951167
0.0898196
0.0901176
0.0904978
0.0909577
0.0914931
0.0920949
0.0927653
0.0934927
0.0942817
0.095119
0.0960097
0.0969592
0.0921345
0.0924166
0.0927736
0.0932007
0.0936974
0.0942426
0.0948568
0.0955041
0.0962128
0.0969447
0.0977176
0.0985251
0.0668468
0.0568268
0.0486342
0.0417234
0.035611
0.0301918
0.0257431
0.0223704
0.0193925
0.01638
0.0131525
0.00947631
0.070848
0.0632862
0.0574695
0.0531309
0.0491438
0.0450857
0.0408985
0.0366018
0.0321961
0.0276147
0.0227581
0.0175119
0.0757022
0.070492
0.0667804
0.0631055
0.059226
0.0550926
0.0506904
0.0459936
0.0409704
0.0355812
0.0297791
0.0235164
0.0809102
0.0774768
0.0741579
0.0705895
0.066695
0.0624502
0.0578367
0.0528254
0.047379
0.0414527
0.0349981
0.02797
0.0861444
0.0831329
0.0799424
0.0764201
0.0725126
0.06819
0.0634214
0.05817
0.0523919
0.0460348
0.0390438
0.0313613
0.0904877
0.0876678
0.0845696
0.0810991
0.077202
0.0728364
0.067959
0.0625226
0.056473
0.0497502
0.0422895
0.0340256
0.0940159
0.0913331
0.0883305
0.084927
0.0810626
0.0766829
0.0717321
0.0661508
0.0598754
0.0528361
0.0449592
0.036176
0.0968597
0.0943126
0.091416
0.0880934
0.0842781
0.0799073
0.0749112
0.0692176
0.0627533
0.0554379
0.0471916
0.0379429
0.099154
0.0967415
0.0939569
0.0907247
0.0869663
0.0826237
0.0776069
0.0718305
0.0652083
0.0576529
0.0490744
0.0394034
0.10102
0.0987208
0.0960428
0.0929157
0.0892049
0.0849072
0.0798941
0.0740655
0.0673157
0.0595514
0.0506636
0.0405652
0.00526203
0.00206195
0.00186562
0.00248401
0.00327587
0.00443529
0.006092
0.00819936
0.0108261
0.0140486
0.017954
0.0226478
0.0116071
0.00544171
0.00266231
0.00316269
0.00417709
0.00552497
0.00728715
0.00943064
0.0120149
0.0151032
0.0187718
0.0230988
0.016562
0.00890835
0.00391322
0.00396354
0.00518498
0.00669526
0.00854579
0.0107152
0.0132492
0.016199
0.0196239
0.0235759
0.0201682
0.0116067
0.00529737
0.00483835
0.00622131
0.00786535
0.00978791
0.0119729
0.0144529
0.0172703
0.0204843
0.024213
0.022826
0.01358
0.00657197
0.00573774
0.00723338
0.00899669
0.0109777
0.0131704
0.0155993
0.0183021
0.0213324
0.0247458
0.0248401
0.0150357
0.00766313
0.00662633
0.00821021
0.0100695
0.0120983
0.0142942
0.0166773
0.0192769
0.0221257
0.0252355
0.0264112
0.0161408
0.00858427
0.00748036
0.0091373
0.0110746
0.0131428
0.0153403
0.0176808
0.0201819
0.0228565
0.0257054
0.0276649
0.017007
0.00937057
0.00828626
0.0100064
0.0120077
0.0141095
0.016307
0.0186063
0.021013
0.0235285
0.026155
0.0286699
0.0177107
0.0100758
0.00903093
0.0108082
0.0128708
0.0150033
0.0171968
0.0194539
0.0217721
0.0241452
0.026577
0.029317
0.0179369
0.0104242
0.00975818
0.01162
0.0136742
0.0157766
0.0179627
0.020208
0.0224491
0.0246844
0.0269579
0.000963537
0.00332084
0.0072542
0.0116697
0.0162553
0.0209267
0.0256182
0.0302291
0.0346219
0.0390372
0.0438558
0.0491432
0.000731285
0.00206112
0.00519463
0.00889739
0.012699
0.0166955
0.0209707
0.025472
0.0300864
0.0347549
0.0396105
0.0448301
0.000441253
0.00129441
0.0033111
0.00641218
0.0108881
0.0153831
0.0197249
0.0240067
0.0282869
0.0326085
0.0370811
0.0419278
0.000466022
0.00105392
0.00269837
0.00524986
0.00902976
0.0138654
0.0187528
0.023512
0.0280105
0.0322029
0.0362195
0.0404243
0.000427639
0.000930093
0.0023587
0.00457294
0.0078331
0.0124582
0.0176617
0.0228722
0.0279008
0.0324977
0.0365209
0.0402406
0.000421831
0.000845418
0.00213094
0.0041324
0.00707852
0.0112853
0.0165712
0.0220902
0.0275754
0.032751
0.0372504
0.0409633
0.00041349
0.00078941
0.00197503
0.00382707
0.0065452
0.0104209
0.0156074
0.0213089
0.0271189
0.032785
0.0379092
0.0420635
0.000412414
0.000752751
0.00187032
0.00362034
0.00618191
0.00982865
0.0148291
0.0206196
0.0266681
0.0327141
0.0384108
0.043268
0.000413856
0.000729364
0.0018012
0.00348215
0.00593522
0.00941968
0.0142407
0.0200674
0.0262999
0.0326431
0.0387943
0.0442555
0.000418129
0.000715184
0.00175734
0.00339247
0.00577183
0.00914303
0.0138202
0.0196611
0.0260503
0.03264
0.0391525
0.0451502
0.000423891
0.000707116
0.00173071
0.00333633
0.00566608
0.00895829
0.0135261
0.0193758
0.025911
0.0327209
0.0395239
0.0459081
0.000430516
0.000702944
0.00171562
0.00330288
0.00560003
0.00883769
0.0133244
0.0191823
0.0258645
0.0328926
0.0399607
0.0466685
0.000437343
0.000700942
0.00170734
0.00328322
0.00555905
0.00875926
0.0131862
0.0190488
0.0258795
0.0331361
0.0404772
0.0475233
0.000443907
0.000699816
0.00170217
0.0032703
0.00553115
0.00870431
0.0130863
0.0189457
0.0259167
0.0334044
0.0410199
0.0483832
0.000450035
0.000698991
0.00169831
0.00326039
0.00550936
0.00866081
0.0130057
0.0188512
0.025945
0.0336537
0.0415296
0.0491687
0.000455608
0.000698107
0.00169478
0.00325166
0.00549066
0.00862423
0.0129387
0.0187649
0.0259691
0.033901
0.0420614
0.0500645
0.000460606
0.000697001
0.00169092
0.00324241
0.00547155
0.008588
0.0128738
0.0186727
0.0259646
0.0341039
0.0425251
0.0507938
0.000464988
0.000695617
0.00168645
0.00323222
0.00545128
0.00855073
0.0128088
0.0185759
0.0259341
0.034272
0.042967
0.0515703
0.00046882
0.000694066
0.00168162
0.00322099
0.00542931
0.00851107
0.0127405
0.0184693
0.0258652
0.034378
0.043332
0.0522355
0.000472119
0.000692404
0.0016767
0.0032088
0.00540614
0.00847025
0.0126717
0.018361
0.0257706
0.0344301
0.043625
0.052833
0.000474988
0.000690631
0.00167138
0.00319594
0.00538196
0.00842813
0.0126016
0.0182507
0.0256562
0.0344348
0.0438451
0.0533202
0.000477493
0.000688837
0.001666
0.00318327
0.00535829
0.00838717
0.012534
0.0181446
0.0255357
0.0344142
0.0440288
0.0537828
0.000479744
0.000687162
0.00166091
0.00317117
0.00533545
0.00834744
0.0124683
0.0180406
0.0254066
0.0343593
0.0441455
0.0541152
0.000481775
0.000685672
0.00165629
0.00316029
0.00531481
0.0083113
0.0124082
0.0179454
0.0252842
0.0343004
0.0442533
0.0544654
0.000483692
0.000684434
0.00165246
0.00315096
0.00529678
0.00827923
0.0123541
0.0178583
0.0251674
0.034235
0.0443392
0.0547618
0.000485414
0.000683294
0.00164909
0.00314293
0.00528134
0.00825159
0.012307
0.0177811
0.0250595
0.0341678
0.0444121
0.0550323
0.000486966
0.000682213
0.00164614
0.003136
0.0052681
0.00822801
0.0122668
0.0177147
0.0249645
0.0341082
0.0444895
0.0553112
0.000488337
0.000681026
0.00164305
0.00312922
0.00525577
0.00820682
0.0122314
0.0176571
0.0248814
0.0340567
0.0445748
0.0556133
0.000489553
0.00067969
0.00163974
0.00312207
0.00524314
0.00818603
0.0121979
0.017604
0.0248046
0.0340048
0.0446486
0.0558961
0.000490448
0.000678069
0.00163575
0.00311377
0.00522879
0.00816295
0.0121626
0.0175509
0.0247303
0.0339497
0.0447026
0.0561207
0.000491129
0.000676349
0.00163149
0.00310468
0.00521265
0.00813683
0.0121228
0.0174926
0.0246511
0.0338877
0.0447462
0.0563325
0.000491623
0.000674556
0.0016269
0.00309503
0.00519536
0.00810832
0.0120783
0.0174266
0.0245607
0.0338096
0.0447794
0.0565587
0.000491991
0.000672796
0.00162248
0.00308548
0.00517789
0.00807871
0.0120306
0.0173525
0.0244513
0.0336898
0.0447498
0.0567185
0.000492094
0.000670974
0.00161792
0.00307594
0.00516058
0.00804978
0.0119843
0.0172794
0.0243385
0.0335426
0.0446383
0.0566856
0.00049206
0.000669234
0.0016135
0.00306655
0.00514358
0.00802143
0.0119395
0.0172111
0.0242379
0.0334194
0.0445692
0.0567459
0.000491863
0.000667579
0.00160915
0.00305747
0.00512693
0.00799352
0.011895
0.0171434
0.0241395
0.0333013
0.0445153
0.0568746
0.000491548
0.00066617
0.00160537
0.00304925
0.00511138
0.00796656
0.0118511
0.0170746
0.0240359
0.0331665
0.0444184
0.0569022
0.000491123
0.00066496
0.00160209
0.00304209
0.00509757
0.00794234
0.011811
0.01701
0.0239349
0.0330245
0.0442904
0.0568732
0.000490707
0.000664085
0.00159963
0.00303649
0.00508633
0.00792211
0.0117769
0.0169551
0.0238492
0.0329023
0.0441755
0.0568382
0.000490261
0.000663524
0.00159798
0.00303237
0.00507751
0.00790547
0.0117479
0.0169076
0.0237751
0.0328012
0.0440956
0.056866
0.000489758
0.000663355
0.00159744
0.00303027
0.00507174
0.00789326
0.0117251
0.0168679
0.0237104
0.0327085
0.0440188
0.0568918
0.000489221
0.000663416
0.0015976
0.0030297
0.00506888
0.00788562
0.0117087
0.0168367
0.0236554
0.0326238
0.0439386
0.0568899
0.000488624
0.00066375
0.00159855
0.00303089
0.00506911
0.00788327
0.0117005
0.0168171
0.023616
0.0325582
0.0438752
0.0568962
0.000487955
0.000664247
0.00160005
0.00303315
0.00507148
0.0078848
0.0116993
0.0168091
0.0235943
0.0325158
0.0438342
0.0569149
0.000487197
0.000665046
0.0016022
0.00303641
0.00507527
0.00788877
0.0117027
0.0168102
0.0235892
0.0325017
0.0438314
0.0569507
0.000486403
0.000666106
0.00160488
0.00304052
0.00508014
0.0078939
0.0117076
0.0168141
0.0235915
0.0325062
0.0438757
0.0570711
0.00048551
0.000667703
0.00160868
0.00304621
0.00508674
0.0079004
0.0117125
0.0168159
0.0235889
0.0325042
0.0439257
0.0572785
0.000484497
0.000669733
0.00161364
0.00305375
0.00509575
0.00790938
0.0117188
0.0168156
0.0235762
0.0324741
0.0439044
0.0573242
0.000483382
0.000672422
0.00162021
0.0030642
0.00510917
0.00792419
0.011732
0.0168217
0.0235676
0.0324428
0.0438775
0.057403
0.00048218
0.000675646
0.00162824
0.00307764
0.00512781
0.00794716
0.0117564
0.0168422
0.023574
0.0324222
0.0438432
0.0574477
0.000480818
0.000679501
0.00163787
0.00309392
0.00515139
0.00797821
0.0117935
0.0168809
0.0236052
0.0324309
0.0438298
0.0574865
0.000479281
0.000683899
0.00164896
0.00311251
0.00517901
0.0080162
0.0118422
0.0169381
0.0236651
0.0324817
0.0438715
0.0575763
0.000477612
0.000688956
0.00166175
0.00313353
0.00521023
0.00805944
0.0118991
0.0170094
0.023749
0.0325733
0.0439796
0.0577665
0.000475776
0.000694894
0.0016762
0.00315694
0.00524455
0.00810657
0.0119603
0.0170861
0.0238418
0.0326822
0.0441154
0.0579395
0.000473617
0.000701406
0.00169225
0.00318334
0.00528334
0.00815878
0.0120265
0.0171658
0.0239347
0.0327908
0.0442745
0.058303
0.000471141
0.0007089
0.00171082
0.00321396
0.00532802
0.0082187
0.0121015
0.0172527
0.0240266
0.0328761
0.0443481
0.0584974
0.000468407
0.000717315
0.0017314
0.00324819
0.00537895
0.00828856
0.01219
0.0173562
0.0241351
0.0329701
0.0444041
0.0586011
0.000465278
0.000726461
0.00175378
0.00328633
0.00543697
0.00836961
0.0122957
0.0174849
0.0242792
0.0331113
0.044512
0.0587308
0.000461703
0.000736622
0.0017785
0.00332823
0.00550031
0.0084588
0.0124148
0.0176358
0.0244602
0.0333138
0.0447205
0.059001
0.00045764
0.000748016
0.00180564
0.00337349
0.00556831
0.0085541
0.0125412
0.0177968
0.0246574
0.0335457
0.0449846
0.0593564
0.000453001
0.000760841
0.0018359
0.00342396
0.00564337
0.00865711
0.0126743
0.0179609
0.0248522
0.033772
0.0452541
0.0597883
0.000447815
0.000775766
0.00187052
0.00348143
0.00572786
0.00877139
0.0128187
0.0181314
0.0250394
0.033959
0.0454136
0.0599364
0.000441943
0.000792748
0.00190986
0.00354768
0.00582646
0.00890549
0.0129881
0.01833
0.025252
0.0341566
0.0455506
0.0600052
0.000435313
0.000812461
0.00195535
0.00362472
0.00594157
0.00906351
0.0131906
0.0185725
0.0255186
0.0344114
0.0457185
0.0599407
0.000427807
0.000835206
0.00200718
0.00371258
0.00607376
0.00924702
0.0134293
0.0188652
0.0258569
0.0347776
0.0460896
0.0603381
0.000419282
0.000861159
0.00206549
0.00381194
0.00622348
0.00945464
0.0136993
0.0191966
0.02624
0.0351894
0.0464849
0.0606368
0.000409888
0.000891302
0.00213197
0.00392468
0.00639243
0.0096877
0.0140013
0.0195666
0.0266683
0.0356556
0.0469588
0.0610981
0.000400374
0.000926869
0.00220818
0.004053
0.00658359
0.00994989
0.0143372
0.0199717
0.0271273
0.036137
0.0474132
0.0614601
0.000392618
0.000969549
0.00229675
0.00420165
0.00680407
0.0102497
0.0147175
0.0204235
0.0276278
0.0366455
0.0478688
0.0618
0.000389115
0.00102228
0.00240186
0.00437684
0.00706202
0.0105979
0.0151552
0.020937
0.0281855
0.0371919
0.0483119
0.0619807
0.000392724
0.00108836
0.00252967
0.00458916
0.00737338
0.0110149
0.0156739
0.0215391
0.0288333
0.0378257
0.0488509
0.0623374
0.000348536
0.00116203
0.00269029
0.00485832
0.00776609
0.0115347
0.01631
0.022263
0.0295951
0.038551
0.0494412
0.0626673
0.000253319
0.00125203
0.00291118
0.00524005
0.00832265
0.0122622
0.0171796
0.023221
0.0305702
0.0394462
0.0501504
0.0630812
0.000277992
0.00146107
0.0033444
0.00594226
0.0093071
0.0135141
0.0186413
0.0247858
0.0320838
0.0407513
0.051125
0.0636027
0.000400394
0.00217267
0.00472394
0.00794371
0.0118101
0.0163661
0.0216955
0.0278762
0.0349862
0.0431997
0.052876
0.0645866
0.00100418
0.00421148
0.00831282
0.0131172
0.0184827
0.024345
0.0306401
0.0373037
0.0442671
0.0514544
0.0588051
0.06629
0.000341341
0.00206879
0.00494813
0.00873481
0.0133701
0.0187971
0.0249435
0.0317074
0.0389762
0.0466256
0.0545323
0.0625899
0.000589007
0.00180675
0.00415004
0.00729604
0.0112701
0.016085
0.0217285
0.0281511
0.035266
0.0429506
0.0510564
0.0594452
0.000628528
0.0015798
0.00361026
0.00635821
0.00988545
0.0142419
0.0194573
0.0255266
0.0323999
0.0399776
0.0481133
0.0566342
0.00064045
0.00137423
0.00317463
0.00563872
0.00884042
0.0128469
0.017712
0.0234614
0.0300774
0.0374886
0.0455647
0.0541275
0.000648017
0.00122565
0.00285281
0.00510169
0.008049
0.0117716
0.0163388
0.0217975
0.0281572
0.0353741
0.0433406
0.0518926
0.000651333
0.00111723
0.00260856
0.00468673
0.00742802
0.0109145
0.0152257
0.020424
0.02654
0.0335546
0.0413852
0.0498868
0.000653264
0.00103317
0.0024143
0.00435097
0.00692111
0.0102081
0.0142979
0.0192643
0.0251541
0.0319693
0.0396505
0.0480722
0.000655133
0.000965702
0.00225496
0.00407229
0.00649766
0.00961349
0.0135101
0.0182694
0.0239507
0.0305735
0.0380994
0.0464214
0.000656853
0.000910412
0.0021216
0.00383701
0.00613812
0.00910546
0.012832
0.0174055
0.0228958
0.029338
0.0367156
0.0449583
0.000658347
0.0008642
0.00200791
0.00363488
0.00582808
0.0086651
0.0122406
0.0166473
0.0219628
0.028235
0.035463
0.0435781
0.00065964
0.000824893
0.00190948
0.00345871
0.00555701
0.00827863
0.0117194
0.0159749
0.0211295
0.0272406
0.0343198
0.0423094
0.000660796
0.000791069
0.00182336
0.00330383
0.0053175
0.0079361
0.0112554
0.0153735
0.0203796
0.0263396
0.0332776
0.0411621
0.000661836
0.000761902
0.00174761
0.00316735
0.00510409
0.00762988
0.0108392
0.0148317
0.0197004
0.0255184
0.0323197
0.0400797
0.000663329
0.00074138
0.00168047
0.00304574
0.00491242
0.00735406
0.0104631
0.0143402
0.0190816
0.024766
0.0314371
0.0390836
0.000666402
0.000735977
0.00162049
0.00293638
0.00473911
0.00710406
0.0101213
0.0138923
0.0185161
0.0240778
0.0306351
0.0382139
0.000670766
0.000740043
0.00156659
0.00283732
0.00458142
0.00687616
0.00980912
0.0134821
0.0179965
0.0234418
0.0298786
0.0372999
0.000675454
0.000746584
0.00151795
0.00274706
0.00443716
0.00666734
0.00952252
0.0131047
0.0175171
0.022853
0.0291815
0.036538
0.000679846
0.000752597
0.00147386
0.00266443
0.00430456
0.00647517
0.00925835
0.012756
0.0170725
0.0223034
0.0285178
0.0357181
0.000683762
0.000757427
0.00143374
0.00258843
0.0041821
0.00629756
0.00901379
0.0124324
0.0166585
0.0217894
0.0278988
0.0350223
0.000687227
0.000761133
0.00139707
0.00251842
0.00406928
0.00613283
0.00878655
0.0121311
0.016272
0.0213089
0.0273228
0.0343648
0.000690294
0.000763911
0.00136356
0.00245391
0.00396522
0.00597962
0.00857476
0.0118497
0.0159107
0.0208603
0.0267875
0.0337612
0.000693034
0.000766034
0.00133343
0.00239431
0.00386871
0.00583665
0.00837684
0.0115865
0.0155726
0.0204407
0.0262854
0.0331773
0.000695579
0.00076824
0.00131049
0.00233915
0.00377878
0.00570289
0.00819145
0.0113399
0.0152557
0.0200466
0.0258106
0.0326159
0.000698148
0.00077193
0.00130045
0.00228823
0.00369471
0.00557743
0.00801745
0.0111082
0.0149577
0.019675
0.0253592
0.0320763
0.000700919
0.000777724
0.00130144
0.00224139
0.00361598
0.00545958
0.00785382
0.0108902
0.0146765
0.0193226
0.024927
0.0315517
0.000703887
0.000785016
0.0013076
0.00219831
0.0035421
0.00534857
0.00769964
0.0106845
0.0144106
0.0189885
0.0245191
0.0310836
0.000706921
0.000792736
0.00131475
0.00215851
0.0034727
0.00524391
0.00755408
0.01049
0.0141589
0.0186719
0.024133
0.0306259
0.000709897
0.000800135
0.00132099
0.00212148
0.00340736
0.00514497
0.00741636
0.0103059
0.0139204
0.0183715
0.023764
0.030176
0.000712704
0.00080678
0.00132581
0.0020869
0.0033457
0.00505143
0.00728598
0.0101313
0.0136937
0.0180844
0.0234072
0.029731
0.000715351
0.000812733
0.00132918
0.00205455
0.0032876
0.00496334
0.00716223
0.00996534
0.0134778
0.017811
0.0230714
0.029356
0.000717902
0.000817899
0.00133118
0.00202412
0.00323285
0.00488026
0.00704465
0.0098074
0.013272
0.0175505
0.022751
0.0289646
0.000720279
0.000822398
0.00133205
0.0019955
0.00318118
0.00480156
0.00693271
0.00965689
0.0130759
0.0173018
0.0224431
0.0285853
0.000722481
0.000826279
0.00133197
0.00196853
0.00313222
0.00472679
0.00682613
0.00951331
0.0128884
0.0170626
0.0221422
0.0282011
0.000724577
0.000829799
0.00133118
0.00194327
0.00308588
0.0046557
0.00672437
0.00937598
0.0127089
0.0168345
0.0218635
0.0279107
0.000726658
0.000832945
0.00132988
0.00192013
0.0030419
0.00458793
0.00662707
0.00924464
0.012537
0.0166151
0.0215872
0.0275275
0.000728647
0.000835791
0.00132858
0.00190083
0.00300017
0.0045233
0.00653407
0.00911895
0.0123725
0.0164056
0.0213323
0.0272848
0.000730561
0.000838633
0.00132827
0.00188817
0.00296083
0.0044616
0.00644513
0.00899863
0.0122151
0.0162057
0.0210867
0.0269637
0.000732502
0.000841701
0.00132982
0.00188325
0.00292399
0.00440276
0.00636002
0.0088835
0.0120644
0.0160146
0.0208509
0.026688
0.000734546
0.000845304
0.00133366
0.00188443
0.00288966
0.00434659
0.00627852
0.00877332
0.0119205
0.0158316
0.020623
0.026399
0.000736665
0.000849335
0.00133948
0.00188919
0.00285764
0.00429301
0.00620059
0.00866796
0.0117826
0.0156559
0.0204035
0.0261277
0.000738864
0.000853902
0.00134669
0.00189553
0.00282782
0.00424196
0.0061261
0.00856686
0.0116503
0.0154869
0.020191
0.0258613
0.00074123
0.000858699
0.00135456
0.00190212
0.00279991
0.00419334
0.00605512
0.00847006
0.0115234
0.0153243
0.0199861
0.02561
0.000743637
0.000863581
0.00136257
0.00190828
0.0027736
0.00414702
0.00598747
0.00837734
0.0114014
0.0151677
0.0197905
0.025379
0.000746071
0.000868371
0.00137038
0.00191377
0.00274883
0.00410301
0.00592306
0.00828824
0.0112841
0.0150172
0.0196023
0.0251479
0.000748476
0.000872962
0.00137772
0.00191848
0.00272537
0.00406089
0.00586109
0.00820256
0.0111713
0.0148725
0.0194197
0.0249148
0.000750914
0.000877373
0.0013845
0.00192229
0.0027032
0.00402097
0.00580201
0.00812055
0.011063
0.0147331
0.0192456
0.024717
0.00075333
0.000881485
0.00139073
0.00192538
0.00268203
0.00398263
0.00574523
0.00804156
0.0109589
0.0145996
0.0190795
0.0245147
0.000755764
0.000885413
0.00139633
0.00192778
0.00266212
0.00394624
0.00569112
0.007966
0.010859
0.0144718
0.0189206
0.0243211
0.000758298
0.000889134
0.00140143
0.00192952
0.00264324
0.00391173
0.00563951
0.00789358
0.0107634
0.0143491
0.0187657
0.0241192
0.000760829
0.000892746
0.00140621
0.00193084
0.00262539
0.00387854
0.00558984
0.00782425
0.0106719
0.0142315
0.0186169
0.0239378
0.000763356
0.000896044
0.00141042
0.00193176
0.0026091
0.00384713
0.0055427
0.00775813
0.0105843
0.0141186
0.0184749
0.0237656
0.000765969
0.000899235
0.00141431
0.00193249
0.00259469
0.00381747
0.00549782
0.00769476
0.0105004
0.0140107
0.0183392
0.0236
0.000768659
0.000902466
0.00141815
0.00193345
0.00258299
0.00378915
0.00545476
0.00763433
0.0104206
0.0139077
0.0182084
0.0234298
0.000771345
0.000905429
0.00142178
0.00193502
0.00257518
0.00376288
0.0054142
0.00757699
0.0103444
0.013809
0.0180836
0.0232758
0.000774196
0.000908603
0.00142567
0.00193752
0.00257116
0.00373812
0.00537545
0.00752214
0.0102718
0.013715
0.0179617
0.0231078
0.000777218
0.000911773
0.00142985
0.00194138
0.00257119
0.00371558
0.00533913
0.0074704
0.0102028
0.0136254
0.017848
0.0229875
0.00078035
0.00091514
0.0014346
0.00194658
0.0025742
0.00369506
0.0053051
0.0074217
0.0101375
0.0135407
0.017742
0.0228617
0.000783623
0.000918729
0.00144004
0.00195304
0.00257916
0.00367616
0.00527311
0.00737618
0.0100763
0.0134613
0.0176421
0.0227309
0.000787069
0.000922421
0.00144582
0.00196046
0.00258567
0.00365937
0.00524367
0.00733391
0.0100189
0.0133868
0.0175467
0.0226078
0.000790855
0.000926379
0.00145214
0.00196856
0.00259288
0.0036445
0.00521671
0.00729484
0.0099657
0.0133179
0.0174623
0.022532
0.000794849
0.000930609
0.00145899
0.0019772
0.00260041
0.00363121
0.00519204
0.00725914
0.00991703
0.0132546
0.0173811
0.0224013
0.000799057
0.000934843
0.00146596
0.00198613
0.00260833
0.00361998
0.00517028
0.00722711
0.00987286
0.0131977
0.0173142
0.0223726
0.000803612
0.000939273
0.00147315
0.00199512
0.00261611
0.00361041
0.00515105
0.00719865
0.00983393
0.0131479
0.0172519
0.0222497
0.000808504
0.000943809
0.00148041
0.0020042
0.00262417
0.00360302
0.00513506
0.00717462
0.00980047
0.0131045
0.0171942
0.0221741
0.000813749
0.00094845
0.0014878
0.00201325
0.00263224
0.00359785
0.00512255
0.0071551
0.00977294
0.0130682
0.0171469
0.0221221
0.000819499
0.000953434
0.00149541
0.00202239
0.00264044
0.00359485
0.00511348
0.00714058
0.00975209
0.0130398
0.0171046
0.0220234
0.000825865
0.000958344
0.00150284
0.00203152
0.00264908
0.00359478
0.00510893
0.00713211
0.00973861
0.0130197
0.0170719
0.0219913
0.000832957
0.000963499
0.00151042
0.00204067
0.00265809
0.003598
0.00510947
0.00713035
0.00973361
0.0130096
0.0170542
0.0219786
0.000840937
0.000969095
0.00151843
0.00205019
0.00266779
0.00360502
0.00511602
0.00713687
0.00973914
0.0130126
0.0170539
0.0219794
0.000850052
0.00097467
0.00152632
0.00205996
0.00267864
0.00361714
0.00513034
0.00715357
0.00975719
0.0130308
0.017071
0.0219851
0.000860977
0.000982016
0.00153604
0.00207122
0.00269156
0.00363738
0.00515606
0.00718457
0.00979258
0.0130691
0.0171107
0.0220394
0.00087208
0.000983297
0.00154108
0.00207968
0.00270368
0.00366077
0.00518948
0.00722796
0.00984483
0.0131288
0.0171771
0.0221077
0.0009239
0.00102806
0.0015741
0.00211115
0.00274025
0.00373434
0.00528003
0.00733015
0.00995432
0.0132403
0.0172866
0.0222072
0.00037676
0.000826257
0.00150665
0.00204941
0.00267257
0.00367005
0.00522638
0.00729357
0.00994195
0.0132621
0.0173493
0.0222986
0.138585
0.111872
0.115859
0.140095
0.109808
0.139372
0.100742
0.156469
0.0493327
0.135694
0.137858
0.130068
0.129678
0.0476742
0.134696
0.0819042
0.134354
0.0511461
0.0721888
0.0540012
0.0738196
0.137177
0.0973978
0.118829
0.191298
0.139834
0.0361914
0.36385
0.107121
0.121292
0.120542
0.105944
0.108529
0.135544
0.124195
0.0765081
0.0925411
0.0580107
0.162219
0.126473
0.138244
0.11635
0.12265
0.119595
0.0909455
0.13838
0.13935
0.127647
0.140082
0.140537
0.165481
0.0566606
0.131153
0.132336
0.136678
0.0755146
0.138492
0.129999
0.086844
0.133803
0.133389
0.123743
0.0579309
0.139627
0.105101
0.136524
0.133542
0.137804
0.138274
0.11063
0.11942
0.105544
0.0945412
0.138312
0.134729
0.108192
0.111176
0.126826
0.137509
0.140114
0.129908
0.107726
0.139125
0.130349
0.0552893
0.114606
0.136875
0.14107
0.135359
0.13785
0.080939
0.105693
0.136011
0.109194
0.111451
0.139579
0.0647467
0.115926
0.140097
0.0673731
0.1078
0.125325
0.111509
0.110048
0.137097
0.0984256
0.13865
0.134926
0.137466
0.173015
0.140001
0.106543
0.0673111
0.0383816
0.119749
0.14
0.0827116
0.134522
0.0984781
0.108732
0.124796
0.117405
0.0455942
0.132258
0.114226
0.134159
0.140129
0.101378
0.0687494
0.135647
0.141292
0.104715
0.107601
0.113536
0.0640931
0.108233
0.0798537
0.137685
0.112277
0.138638
0.0747429
0.0976354
0.0959151
0.130982
0.137816
0.099677
0.136552
0.136962
0.135809
0.0753367
0.100755
0.139143
0.0971009
0.134335
0.0345814
0.133565
0.137699
0.0357193
0.120422
0.137782
0.100527
0.0753538
0.138628
0.0939953
0.120815
0.14002
0.13794
0.050281
0.0754744
0.108007
0.0907435
0.137724
0.112948
0.13493
0.138128
0.0927566
0.100278
0.12366
0.126605
0.262743
0.100722
0.13132
0.0857529
0.126018
0.140061
0.138853
0.144249
0.0187355
0.0913519
0.129288
0.0539552
0.0521528
0.12823
0.125632
0.121782
0.107425
0.134784
0.09759
0.0537981
0.139751
0.128546
0.150766
0.133574
0.107638
0.133191
0.122263
0.13905
0.0903832
0.13341
0.139018
0.11375
0.087326
0.0635035
0.108672
0.122513
0.13802
0.128196
0.0828266
0.0791853
0.122512
0.0858644
0.125006
0.178749
0.139504
0.136377
0.0938954
0.126506
0.0475879
0.1874
0.135291
0.136561
0.0440776
0.106463
0.04965
0.0555801
0.0512278
0.124989
0.136098
0.156735
0.0776233
0.108493
0.0973372
0.0907552
0.136735
0.074124
0.0967509
0.0602457
0.0546586
0.140012
0.268542
0.137996
0.123481
0.093617
0.139204
0.140129
0.0833704
0.0660774
0.116926
0.138683
0.0699742
0.137589
0.0705107
0.0518375
0.141638
0.0404417
0.117235
0.0922876
0.131452
0.0649588
0.077859
0.0915857
0.134194
0.136263
0.0991934
0.140119
0.0807635
0.139706
0.027995
0.120202
0.0686828
0.032865
0.0487153
0.138996
0.0974287
0.140052
0.138611
0.139977
0.0810692
0.0925806
0.0902418
0.206487
0.140019
0.0946547
0.123331
0.130064
0.115233
0.105899
0.138465
0.0559221
0.122733
0.12297
0.0900618
0.138887
0.114376
0.138039
0.139813
0.0843937
0.131549
0.110721
0.0928929
0.0408974
0.0883035
0.109938
0.135582
0.121
0.0921919
0.0906215
0.099584
0.136248
0.106728
0.135558
0.113605
0.0722561
0.138603
0.0940272
0.136535
0.119761
0.11089
0.129648
0.120722
0.131782
0.0580084
0.340203
0.0578091
0.135085
0.117079
0.136996
0.14004
0.152541
0.114933
0.0318619
0.0943084
0.0774524
0.109237
0.120603
0.137481
0.0657292
0.149015
0.0859599
0.103794
0.0906226
0.134798
0.065964
0.0586271
0.133993
0.0698709
0.11541
0.125231
0.136248
0.0950266
0.0653005
0.138868
0.187041
0.129921
0.1004
0.146885
0.137772
0.129493
0.13985
0.0339902
0.134469
0.124026
0.139646
0.120274
0.0729455
0.335287
0.134793
0.134214
0.0985123
0.0980993
0.0873918
0.0888101
0.133017
0.0566807
0.114868
0.0863347
0.115763
0.0531041
0.139477
0.0604662
0.089084
0.103999
0.147754
0.130105
0.139075
0.106323
0.150822
0.0953761
0.135024
0.100258
0.138077
0.137038
0.137932
0.0951248
0.123442
0.077319
0.143841
0.0444943
0.14946
0.130733
0.350726
0.0814346
0.128687
0.147986
0.103758
0.0799656
0.0507101
0.0656143
0.0376963
0.0966417
0.125798
0.0302239
0.0353747
0.0650987
0.123928
0.134746
0.0392223
0.111469
0.137695
0.0920256
0.0816839
0.13134
0.130392
0.139029
0.113187
0.134894
0.0783501
0.137586
0.136729
0.0959714
0.123434
0.0773746
0.137458
0.133314
0.130263
0.14031
0.139314
0.101153
0.0881106
0.0507808
0.0887051
0.0990106
0.1074
0.127008
0.122268
0.136093
0.346261
0.0431166
0.137724
0.1319
0.057857
0.136302
0.138466
0.143914
0.138262
0.143676
0.13227
0.0903386
0.322228
0.027471
0.137775
0.149863
0.101669
0.134382
0.136488
0.123488
0.306501
0.136372
0.141371
0.123993
0.138219
0.0919275
0.120355
0.118079
0.0655941
0.116096
0.102673
0.0701388
0.117711
0.140127
0.137237
0.137322
0.128105
0.135455
0.142648
0.150006
0.136076
0.135719
0.0501874
0.11781
0.115478
0.137451
0.119413
0.0981699
0.130918
0.112491
0.0559242
0.0872326
0.0316749
0.0869725
0.103965
0.139151
0.123207
0.116012
0.148124
0.0453976
0.0896454
0.0649459
0.139831
0.0295685
0.0907488
0.0630317
0.139403
0.136438
0.132101
0.13716
0.0910857
0.137222
0.0316473
0.0419584
0.137859
0.0703777
0.138616
0.139932
0.103579
0.139981
0.120505
0.110951
0.0611316
0.0277099
0.111671
0.143588
0.0741838
0.143304
0.140107
0.111763
0.20259
0.136256
0.131398
0.0676704
0.0677049
0.111869
0.0443438
0.134292
0.138165
0.123567
0.110433
0.041658
0.12054
0.125764
0.136969
0.0848833
0.0736424
0.128137
0.137292
0.106655
0.106395
0.124931
0.139704
0.138706
0.135251
0.136326
0.136413
0.128126
0.139839
0.118662
0.0283963
0.109785