/*--------------------------------*- C++ -*----------------------------------*\
| =========                 |                                                 |
| \\      /  F ield         | OpenFOAM: The Open Source CFD Toolbox           |
|  \\    /   O peration     | Version:  2.3.0                                 |
|   \\  /    A nd           | Web:      www.OpenFOAM.org                      |
|    \\/     M anipulation  |                                                 |
\*---------------------------------------------------------------------------*/
FoamFile
{
    version     2.0;
    format      ascii;
    class       volScalarField;
    location    "2000";
    object      p;
}
// * * * * * * * * * * * * * * * * * * * * * * * * * * * * * * * * * * * * * //

dimensions      [0 2 -2 0 0 0 0];

internalField   nonuniform List<scalar> 
6710
(
0.277135
0.821173
1.9287
3.76826
6.65993
10.87
16.7002
25.0811
36.7632
48.9323
57.1447
73.9777
21.4092
25.2962
30.5464
37.489
46.3065
57.1029
69.8629
84.4806
100.658
117.829
135.61
153.623
37.5366
43.5918
50.1057
57.4413
65.5029
74.2368
83.5529
93.3229
103.364
113.477
123.515
133.32
49.6237
56.1962
63.0349
70.5218
78.5413
86.996
95.764
104.7
113.645
122.426
130.888
138.879
58.6515
64.8229
71.2095
77.871
84.7916
91.9156
99.1831
106.517
113.831
121.029
128.016
134.707
66.1207
71.3235
77.1302
83.1312
89.3383
95.6964
102.156
108.659
115.142
121.53
127.749
133.73
71.345
75.9034
81.1418
86.5092
92.0477
97.7166
103.483
109.309
115.141
120.921
126.584
132.069
74.939
79.1786
83.959
88.8217
93.8611
99.0304
104.297
109.631
114.983
120.317
125.585
130.716
78.2964
82.0033
86.2229
90.6133
95.2292
99.9622
104.834
109.82
114.829
119.865
124.828
129.688
81.8485
84.5067
88.5128
92.3991
96.5977
100.834
105.316
110.092
114.981
119.957
124.649
129.232
129.485
160.734
181.406
197.47
210.748
221.008
228.09
232.001
232.91
231.217
227.936
224.254
169.802
182.769
193.454
202.148
208.869
213.656
216.658
218.093
218.18
217.13
215.501
213.717
142.916
152.467
161.792
170.6
178.659
185.77
191.764
196.511
199.916
201.979
203.055
203.415
146.42
153.661
160.6
167.105
173.058
178.368
182.966
186.807
189.844
192.067
193.69
194.804
141.145
147.426
153.525
159.337
164.766
169.734
174.175
178.038
181.276
183.867
185.943
187.544
139.481
145.05
150.421
155.519
160.283
164.658
168.607
172.1
175.114
177.63
179.768
181.573
137.366
142.49
147.412
152.075
156.435
160.441
164.081
167.324
170.172
172.597
174.699
176.514
135.688
140.483
145.063
149.391
153.442
157.158
160.563
163.583
166.287
168.587
170.621
172.432
134.44
139.023
143.382
147.514
151.387
154.826
158.04
160.784
163.338
165.401
167.319
168.979
133.751
138.09
142.217
146.208
149.959
153.055
155.914
158.248
160.629
162.45
164.279
165.762
-11.0102
-12.5589
-14.021
-15.2436
-16.0637
-16.364
-16.11
-15.3153
-13.9785
-12.0659
-9.12292
-2.67947
-7.70256
-9.19114
-10.5169
-11.5065
-12.019
-11.9291
-11.0987
-9.34875
-6.48738
-2.3309
3.10183
9.3921
-3.93338
-5.16379
-6.19148
-6.8058
-6.86691
-6.28716
-4.96738
-2.79089
0.322556
4.38595
9.24979
14.4695
0.0522962
-0.804683
-1.45018
-1.68478
-1.40066
-0.536584
0.971603
3.18098
6.1061
9.70497
13.8113
18.1374
4.02751
3.47162
3.12303
3.16322
3.66676
4.67959
6.24696
8.39973
11.1395
14.4156
18.0995
21.9631
8.00484
7.51744
7.36527
7.5931
8.23006
9.30638
10.8641
12.9321
15.5155
18.566
21.9784
25.5591
11.8424
11.2822
11.2245
11.551
12.2623
13.3414
14.8587
16.8331
19.2802
22.1376
25.3249
28.6753
15.3503
14.7159
14.6817
15.0377
15.8118
16.8711
18.3486
20.2503
22.6611
25.4036
28.472
31.7101
18.7533
17.9267
17.7366
17.9949
18.8709
19.8163
21.1502
22.8477
25.2142
27.7397
30.5513
33.542
22.9933
21.6328
20.9325
21.3905
23.0255
24.0187
25.3346
27.0596
29.5242
31.8612
34.9296
38.4723
10.7611
17.4017
22.0112
26.6121
31.2358
35.7741
40.2415
44.6912
49.1764
53.7202
58.2641
62.9457
16.0898
20.4657
23.5453
26.9063
30.6236
34.6397
38.8559
43.1871
47.5832
52.0216
56.4213
60.7812
19.5592
24.3829
27.9061
31.0285
34.2205
37.5501
41.009
44.5872
48.2769
52.0835
55.9459
59.7156
22.4461
26.7962
30.3293
33.3492
36.3978
39.4919
42.6319
45.8261
49.0787
52.4049
55.8569
59.3333
25.7969
29.5665
32.8161
35.5774
38.3775
41.212
44.082
46.9899
49.933
52.9035
55.9658
59.2573
29.098
32.5022
35.5064
38.0466
40.6009
43.1707
45.7612
48.3769
51.0198
53.6762
56.385
59.3133
31.9849
35.1466
37.9639
40.3366
42.6944
45.0527
47.4153
49.785
52.1659
54.5482
56.9536
59.5072
34.8793
37.8292
40.3524
42.4349
44.5598
46.7236
48.901
51.0742
53.2439
55.4032
57.5752
59.8498
36.5795
39.5932
42.1336
44.1098
46.1082
48.1569
50.2074
52.2265
54.2257
56.1973
58.1892
60.2638
41.6394
44.2872
45.3807
45.9114
47.5065
49.4495
51.4376
53.3078
55.1467
56.9613
58.8517
60.8267
-181.657
-168.14
-152.775
-139.784
-125.755
-109.817
-93.4781
-77.5395
-62.3781
-48.6221
-36.9419
-27.7247
-105.795
-105.825
-104.875
-103.498
-102.333
-100.847
-97.6946
-92.2127
-84.3164
-74.2215
-62.5784
-51.1324
-113.015
-112.859
-112.825
-112.499
-111.317
-109.068
-105.902
-101.632
-95.6783
-87.8009
-77.9971
-67.7427
-105.805
-105.768
-105.642
-105.43
-105.088
-104.484
-103.34
-101.479
-98.6313
-94.0965
-87.1777
-79.5376
-105.593
-105.568
-105.525
-105.42
-105.204
-104.804
-104.079
-102.817
-100.814
-97.745
-92.7673
-87.1225
-104.091
-104.066
-104.01
-103.908
-103.742
-103.481
-103.061
-102.36
-101.198
-99.2577
-95.8306
-90.9678
-103.738
-103.715
-103.667
-103.582
-103.442
-103.226
-102.892
-102.379
-101.57
-100.291
-98.1387
-95.6405
-103.529
-103.507
-103.46
-103.38
-103.256
-103.07
-102.799
-102.407
-101.821
-100.941
-99.5151
-97.5738
-103.695
-103.676
-103.635
-103.563
-103.456
-103.297
-103.07
-102.755
-102.304
-101.643
-100.667
-100.681
-104.027
-104.011
-103.974
-103.912
-103.819
-103.685
-103.495
-103.236
-102.877
-102.375
-101.668
-101.457
-104.493
-104.48
-104.448
-104.395
-104.318
-104.207
-104.05
-103.838
-103.55
-103.153
-102.596
-102.527
-104.996
-104.986
-104.96
-104.917
-104.856
-104.769
-104.646
-104.481
-104.26
-103.951
-103.522
-103.598
-105.474
-105.467
-105.445
-105.41
-105.361
-105.293
-105.199
-105.072
-104.907
-104.687
-104.371
-104.089
-105.871
-105.865
-105.847
-105.818
-105.776
-105.719
-105.638
-105.527
-105.376
-105.17
-104.843
-104.126
-106.186
-106.181
-106.166
-106.141
-106.107
-106.061
-105.996
-105.907
-105.787
-105.623
-105.372
-105.067
-106.386
-106.382
-106.369
-106.349
-106.321
-106.283
-106.229
-106.152
-106.046
-105.904
-105.684
-104.888
-106.485
-106.482
-106.471
-106.453
-106.431
-106.401
-106.358
-106.299
-106.217
-106.098
-105.908
-105.725
-106.457
-106.455
-106.446
-106.433
-106.415
-106.391
-106.356
-106.306
-106.233
-106.127
-105.945
-105.322
-106.322
-106.32
-106.312
-106.3
-106.286
-106.268
-106.243
-106.209
-106.16
-106.083
-105.961
-106.067
-106.063
-106.062
-106.055
-106.045
-106.031
-106.014
-105.988
-105.95
-105.892
-105.795
-105.624
-105.206
-105.722
-105.72
-105.714
-105.704
-105.692
-105.677
-105.656
-105.627
-105.584
-105.518
-105.424
-105.354
-105.279
-105.278
-105.273
-105.265
-105.254
-105.239
-105.218
-105.186
-105.137
-105.06
-104.939
-104.684
-104.782
-104.781
-104.775
-104.766
-104.754
-104.739
-104.718
-104.688
-104.641
-104.567
-104.44
-104.196
-104.211
-104.21
-104.205
-104.198
-104.188
-104.175
-104.156
-104.127
-104.083
-104.014
-103.91
-103.68
-103.596
-103.595
-103.59
-103.582
-103.573
-103.561
-103.543
-103.518
-103.478
-103.415
-103.317
-103.137
-102.919
-102.918
-102.914
-102.909
-102.903
-102.893
-102.88
-102.858
-102.824
-102.768
-102.672
-102.466
-102.205
-102.204
-102.2
-102.195
-102.189
-102.182
-102.172
-102.156
-102.131
-102.087
-102.007
-101.836
-101.422
-101.421
-101.42
-101.418
-101.416
-101.414
-101.41
-101.404
-101.39
-101.365
-101.31
-101.196
-100.591
-100.59
-100.589
-100.587
-100.587
-100.587
-100.588
-100.588
-100.586
-100.577
-100.556
-100.503
-99.6883
-99.6885
-99.6886
-99.6894
-99.6914
-99.6946
-99.6983
-99.7007
-99.6987
-99.6883
-99.6493
-99.4236
-98.7454
-98.7447
-98.7443
-98.7448
-98.7475
-98.7527
-98.7604
-98.7696
-98.7782
-98.7795
-98.7736
-98.8881
-97.7256
-97.7262
-97.7276
-97.7307
-97.7364
-97.7453
-97.7573
-97.7715
-97.786
-97.8006
-97.8065
-97.6517
-96.6606
-96.6612
-96.6626
-96.6657
-96.6723
-96.6827
-96.6979
-96.7182
-96.7437
-96.7722
-96.7955
-96.8912
-95.5276
-95.5286
-95.5316
-95.5367
-95.5449
-95.5568
-95.5727
-95.5923
-95.6145
-95.6347
-95.6239
-95.4529
-94.3623
-94.3624
-94.3646
-94.3691
-94.3776
-94.3905
-94.4092
-94.434
-94.4645
-94.4975
-94.5287
-94.6149
-93.1278
-93.1285
-93.132
-93.1384
-93.1487
-93.1638
-93.1849
-93.2125
-93.247
-93.2893
-93.3459
-93.474
-91.8603
-91.8606
-91.8635
-91.869
-91.8784
-91.8924
-91.9119
-91.9372
-91.9679
-92.0047
-92.0301
-91.8553
-90.5423
-90.543
-90.5469
-90.5541
-90.5653
-90.5813
-90.6029
-90.6311
-90.6664
-90.7051
-90.7457
-90.9473
-89.2017
-89.2021
-89.2052
-89.2112
-89.2213
-89.2359
-89.2558
-89.2811
-89.3109
-89.3437
-89.3645
-89.2501
-87.8143
-87.8154
-87.82
-87.8284
-87.8411
-87.8589
-87.8827
-87.9134
-87.9516
-87.9962
-88.0532
-88.2363
-86.4036
-86.4046
-86.4091
-86.417
-86.4294
-86.447
-86.4707
-86.5014
-86.5393
-86.5841
-86.6381
-86.7035
-84.9518
-84.9531
-84.9583
-84.9679
-84.9821
-85.0017
-85.0276
-85.0606
-85.1014
-85.1511
-85.2117
-85.2968
-83.4741
-83.4753
-83.4805
-83.4899
-83.5045
-83.5249
-83.5523
-83.5872
-83.6301
-83.682
-83.7454
-83.8124
-81.9519
-81.9537
-81.9603
-81.9719
-81.989
-82.0123
-82.043
-82.0816
-82.1291
-82.1869
-82.2562
-82.3581
-80.4049
-80.4064
-80.4129
-80.4249
-80.4431
-80.4684
-80.5021
-80.5447
-80.5968
-80.6574
-80.7154
-80.695
-78.805
-78.8075
-78.8159
-78.8309
-78.8534
-78.8847
-78.9268
-78.9816
-79.0515
-79.1369
-79.2464
-79.4806
-77.1582
-77.1607
-77.1697
-77.1857
-77.21
-77.2441
-77.2907
-77.3524
-77.4321
-77.5345
-77.6747
-77.9352
-75.4497
-75.4531
-75.4635
-75.4814
-75.5078
-75.544
-75.5927
-75.6557
-75.736
-75.8376
-75.9607
-76
-73.6966
-73.6997
-73.7102
-73.729
-73.757
-73.7957
-73.8479
-73.9159
-74.0023
-74.1089
-74.2422
-74.4776
-71.8793
-71.884
-71.8968
-71.9184
-71.9498
-71.9923
-72.0488
-72.1216
-72.2142
-72.3307
-72.4764
-72.6637
-70.0224
-70.0261
-70.0385
-70.0608
-70.0937
-70.1389
-70.1992
-70.2768
-70.3745
-70.4957
-70.6377
-70.7319
-68.093
-68.098
-68.1126
-68.1384
-68.1763
-68.228
-68.2969
-68.3856
-68.4976
-68.6354
-68.8118
-69.0883
-66.0983
-66.105
-66.1226
-66.1523
-66.1949
-66.2529
-66.3301
-66.4296
-66.5551
-66.7101
-66.9076
-67.2432
-64.045
-64.0512
-64.0692
-64.101
-64.1475
-64.2117
-64.2976
-64.4086
-64.5487
-64.7219
-64.9226
-65.0182
-61.8974
-61.9056
-61.927
-61.964
-62.0179
-62.092
-62.1919
-62.323
-62.492
-62.7045
-62.9708
-63.4458
-59.6619
-59.6713
-59.6955
-59.7367
-59.7955
-59.876
-59.9837
-60.1237
-60.3023
-60.5269
-60.8141
-61.1618
-57.3454
-57.3552
-57.3807
-57.425
-57.4887
-57.5763
-57.6928
-57.8433
-58.0326
-58.2667
-58.555
-58.8355
-54.9294
-54.9417
-54.9716
-55.0223
-55.0948
-55.1936
-55.3249
-55.4943
-55.7079
-55.972
-56.291
-56.6504
-52.4262
-52.4392
-52.472
-52.5284
-52.6093
-52.7202
-52.8681
-53.0597
-53.3012
-53.5974
-53.9512
-54.3032
-49.8062
-49.8218
-49.8593
-49.9234
-50.0154
-50.1423
-50.3124
-50.5342
-50.8159
-51.1661
-51.6101
-52.2024
-47.0598
-47.0789
-47.123
-47.1965
-47.3013
-47.445
-47.6371
-47.8873
-48.2049
-48.6003
-49.0987
-49.6548
-44.2004
-44.2214
-44.2696
-44.3512
-44.4678
-44.6281
-44.8428
-45.1229
-45.4789
-45.9231
-46.4711
-47.1018
-41.201
-41.2262
-41.2818
-41.3748
-41.5072
-41.6881
-41.9287
-42.2399
-42.6317
-43.1117
-43.6819
-44.1675
-38.0774
-38.1074
-38.1723
-38.2796
-38.4316
-38.6399
-38.917
-39.2756
-39.7269
-40.2773
-40.9363
-41.7823
-34.8116
-34.847
-34.9219
-35.0461
-35.2223
-35.4636
-35.784
-36.1972
-36.7143
-37.3421
-38.0774
-38.7338
-31.3965
-31.4393
-31.5284
-31.6742
-31.8815
-32.1649
-32.5416
-33.0274
-33.6348
-34.3655
-35.2131
-36.2583
-27.8232
-27.8743
-27.9801
-28.1525
-28.3967
-28.731
-29.1741
-29.7434
-30.4507
-31.2989
-32.2676
-33.1542
-24.1021
-24.1647
-24.2919
-24.4966
-24.787
-25.1842
-25.7097
-26.3821
-27.2122
-28.1952
-29.3026
-30.431
-20.2466
-20.324
-20.4795
-20.7262
-21.0753
-21.5509
-22.1765
-22.9701
-23.9365
-25.0601
-26.2806
-27.3452
-16.2886
-16.3863
-16.581
-16.8849
-17.3134
-17.8942
-18.652
-19.602
-20.7401
-22.0338
-23.3839
-24.5225
-12.2999
-12.4242
-12.6762
-13.0618
-13.6021
-14.3273
-15.2594
-16.4028
-17.7336
-19.1907
-20.6464
-21.7596
-8.69852
-8.8402
-9.14917
-9.62707
-10.2974
-11.1899
-12.3158
-13.6588
-15.1636
-16.7326
-18.1966
-19.2592
-5.44162
-5.63431
-6.04777
-6.68985
-7.56949
-8.6999
-10.0676
-11.6201
-13.255
-14.8282
-16.1499
-16.949
-1.82529
-2.28536
-3.00349
-4.05451
-5.43487
-7.09875
-8.92785
-10.762
-12.428
-13.77
-14.6581
-14.9522
-2.27021
-5.34224
-7.773
-9.48362
-10.7098
-11.6857
-12.4948
-13.1659
-13.6566
-13.8788
-13.7412
-13.1545
378.179
374.202
366.484
355.275
340.479
323.199
304.832
286.851
270.416
256.076
244.099
234.764
293.44
293.869
292.5
290.503
287.988
284.691
280.177
274.136
266.505
257.546
248.044
238.932
282.71
282.862
282.065
280.748
278.728
275.912
272.227
267.616
261.999
255.31
247.798
240.089
280.633
280.046
278.869
277.275
275.151
272.389
268.887
264.571
259.395
253.339
246.535
239.411
267.245
266.916
266.408
265.629
264.494
262.902
260.728
257.835
254.09
249.389
243.759
237.536
256.299
256.159
255.945
255.534
254.884
253.912
252.509
250.547
247.886
244.378
239.944
234.774
248.89
248.784
248.597
248.247
247.719
246.945
245.841
244.304
242.214
239.431
235.838
231.5
242.283
242.201
242.044
241.761
241.34
240.724
239.845
238.619
236.937
234.675
231.704
228.028
236.082
236.023
235.908
235.695
235.374
234.899
234.214
233.246
231.901
230.063
227.603
224.505
230.541
230.498
230.408
230.239
229.983
229.602
229.051
228.268
227.173
225.666
223.625
221.034
225.572
225.538
225.462
225.321
225.107
224.788
224.328
223.673
222.754
221.482
219.735
217.431
221.003
220.975
220.912
220.793
220.612
220.342
219.952
219.396
218.614
217.527
216.023
214.008
216.767
216.745
216.691
216.589
216.435
216.205
215.873
215.398
214.729
213.798
212.508
210.775
212.824
212.806
212.76
212.673
212.539
212.341
212.053
211.642
211.062
210.253
209.123
207.569
209.13
209.117
209.078
209.002
208.886
208.712
208.461
208.101
207.593
206.884
205.898
204.53
205.653
205.645
205.611
205.544
205.442
205.289
205.067
204.75
204.302
203.678
202.822
201.627
202.365
202.361
202.331
202.271
202.18
202.044
201.845
201.562
201.16
200.595
199.814
198.721
199.244
199.242
199.215
199.162
199.08
198.958
198.78
198.526
198.166
197.66
196.967
196.035
196.272
196.27
196.246
196.199
196.125
196.015
195.855
195.626
195.302
194.847
194.216
193.385
193.43
193.429
193.407
193.365
193.298
193.198
193.053
192.847
192.554
192.143
191.575
190.853
190.704
190.703
190.683
190.645
190.584
190.493
190.361
190.173
189.906
189.532
189.011
188.355
188.08
188.079
188.061
188.026
187.971
187.887
187.766
187.594
187.35
187.006
186.527
185.931
185.547
185.547
185.531
185.5
185.448
185.372
185.26
185.101
184.877
184.561
184.118
183.569
183.1
183.099
183.085
183.057
183.009
182.939
182.836
182.689
182.481
182.189
181.779
181.281
180.729
180.728
180.716
180.69
180.646
180.581
180.485
180.349
180.156
179.885
179.504
179.056
178.423
178.423
178.414
178.391
178.351
178.29
178.202
178.075
177.897
177.646
177.289
176.882
176.184
176.185
176.176
176.155
176.118
176.062
175.98
175.864
175.7
175.471
175.148
174.806
174.004
174.005
173.996
173.976
173.942
173.889
173.813
173.705
173.554
173.344
173.045
172.727
171.869
171.87
171.862
171.844
171.812
171.763
171.691
171.59
171.448
171.25
170.967
170.656
169.775
169.776
169.77
169.753
169.723
169.678
169.611
169.515
169.38
169.192
168.922
168.624
167.726
167.727
167.721
167.705
167.677
167.634
167.571
167.481
167.355
167.18
166.93
166.683
165.72
165.72
165.713
165.698
165.671
165.63
165.57
165.485
165.367
165.202
164.964
164.731
163.742
163.742
163.736
163.722
163.697
163.658
163.601
163.52
163.408
163.252
163.028
162.816
161.791
161.791
161.786
161.773
161.75
161.713
161.66
161.584
161.476
161.327
161.111
160.912
159.871
159.871
159.866
159.854
159.832
159.798
159.747
159.675
159.574
159.433
159.228
159.072
157.981
157.981
157.975
157.963
157.942
157.909
157.861
157.793
157.698
157.566
157.369
157.244
156.107
156.107
156.102
156.091
156.072
156.041
155.996
155.934
155.847
155.729
155.549
155.443
154.246
154.246
154.242
154.234
154.216
154.188
154.147
154.089
154.008
153.899
153.723
153.564
152.408
152.407
152.403
152.394
152.377
152.35
152.311
152.256
152.18
152.08
151.923
151.726
150.572
150.572
150.569
150.562
150.546
150.521
150.484
150.433
150.362
150.271
150.137
149.92
148.745
148.745
148.742
148.735
148.721
148.697
148.663
148.615
148.548
148.462
148.352
148.151
146.919
146.92
146.918
146.912
146.899
146.877
146.844
146.797
146.732
146.644
146.534
146.366
145.106
145.106
145.102
145.096
145.083
145.061
145.028
144.983
144.92
144.831
144.716
144.596
143.289
143.289
143.286
143.281
143.268
143.247
143.216
143.173
143.114
143.032
142.921
142.843
141.471
141.472
141.469
141.464
141.453
141.434
141.405
141.365
141.31
141.236
141.129
141.066
139.657
139.657
139.653
139.648
139.637
139.619
139.591
139.554
139.503
139.435
139.334
139.29
137.831
137.832
137.829
137.824
137.814
137.797
137.772
137.737
137.691
137.631
137.541
137.533
135.997
135.997
135.994
135.99
135.981
135.965
135.942
135.911
135.87
135.817
135.732
135.726
134.146
134.147
134.144
134.141
134.134
134.12
134.099
134.071
134.034
133.989
133.915
133.915
132.288
132.288
132.284
132.28
132.273
132.26
132.241
132.215
132.182
132.143
132.077
132.079
130.396
130.398
130.396
130.394
130.389
130.378
130.361
130.339
130.311
130.279
130.227
130.249
128.503
128.501
128.496
128.491
128.485
128.474
128.458
128.439
128.415
128.391
128.351
128.379
126.559
126.558
126.555
126.552
126.547
126.538
126.524
126.508
126.489
126.471
126.44
126.478
124.57
124.571
124.571
124.571
124.569
124.563
124.553
124.541
124.527
124.516
124.496
124.552
122.58
122.577
122.572
122.568
122.564
122.557
122.548
122.539
122.531
122.528
122.521
122.618
120.512
120.512
120.511
120.51
120.509
120.505
120.499
120.495
120.493
120.499
120.504
120.636
118.396
118.397
118.396
118.397
118.4
118.4
118.398
118.399
118.405
118.423
118.441
118.613
116.255
116.253
116.248
116.246
116.246
116.245
116.245
116.25
116.263
116.292
116.32
116.505
114.01
114.011
114.011
114.013
114.017
114.021
114.026
114.037
114.058
114.1
114.146
114.345
111.721
111.719
111.715
111.715
111.719
111.725
111.734
111.751
111.783
111.842
111.917
112.156
109.327
109.327
109.325
109.327
109.334
109.343
109.358
109.384
109.429
109.508
109.615
109.922
106.823
106.825
106.826
106.832
106.843
106.859
106.881
106.919
106.979
107.077
107.206
107.595
104.241
104.24
104.236
104.239
104.25
104.268
104.298
104.346
104.426
104.553
104.723
105.232
101.499
101.499
101.498
101.504
101.52
101.544
101.583
101.647
101.748
101.907
102.101
102.662
98.5846
98.5872
98.5904
98.6011
98.6242
98.6595
98.7124
98.7951
98.924
99.1256
99.3718
99.9239
95.5252
95.5237
95.5231
95.5326
95.5577
95.6005
95.6677
95.7737
95.937
96.192
96.5262
97.1275
92.1998
92.2034
92.2094
92.2264
92.2627
92.3209
92.4104
92.549
92.7596
93.0792
93.5222
94.3248
88.6409
88.6396
88.6415
88.6598
88.7044
88.7797
88.8974
89.0797
89.3552
89.7627
90.3232
91.3847
84.6995
84.7021
84.7116
84.7413
84.8035
84.9068
85.0662
85.31
85.674
86.2019
86.9019
88.1632
80.3074
80.3145
80.3325
80.3774
80.4673
80.6132
80.8361
81.1705
81.6609
82.3591
83.268
84.7642
75.3889
75.3937
75.4127
75.4728
75.5966
75.8022
76.1177
76.5865
77.2609
78.1993
79.4058
81.2391
69.6012
69.6057
69.6494
69.7501
69.9463
70.2654
70.7447
71.4369
72.3989
73.6856
75.2941
77.5889
62.5972
62.6736
62.7404
62.9266
63.2683
63.8009
64.5714
65.6356
67.0453
68.8379
70.983
73.8129
53.7637
53.4803
53.7076
54.1612
54.8776
55.906
57.2766
59.02
61.1566
63.6912
66.5615
70.0579
40.5804
41.3028
42.22
43.3289
44.8927
46.8866
49.2788
52.051
55.1765
58.6206
62.2842
66.3836
101.874
-2.72705
86.7328
101.016
-80.7006
107.048
159.067
70.2732
208.913
91.3888
86.6732
64.7716
94.8168
183.473
9.27948
96.0209
-41.9177
76.8917
157.335
77.371
-4.83449
104.765
92.3861
18.3582
89.9865
95.3966
71.1971
99.1359
-10.7994
155.302
137.244
145.508
91.7428
68.415
5.39862
89.4431
154.511
-42.0264
85.6816
35.6497
102.675
163.917
48.6089
156.589
-87.4272
104.165
107.546
-32.136
103.065
100.693
101.412
200.024
52.4645
67.6954
117.131
-37.7694
86.9157
10.5987
-98.6854
108.33
-50.154
-32.3221
150.255
99.5583
77.6172
76.7033
62.631
87.059
103.541
120.454
-24.8327
-84.7542
-80.4377
95.2686
23.2426
-82.886
-32.7032
-49.1954
101.082
100.159
134.936
181.977
97.3642
86.2256
-104.885
121.433
115.352
100.488
100.645
112.775
89.9444
-48.2886
99.6956
-71.5725
116.967
-9.28094
230.995
-63.9489
100.346
230.775
50.1764
122.919
24.4007
175.303
101.128
-60.9566
106.872
100.949
83.9965
100.058
97.1109
174.108
127.658
175.934
-73.8877
95.9052
213.578
121.939
174.237
162.698
111.62
69.9438
74.9456
71.7478
167.378
91.6733
102.146
-83.6404
-94.6751
99.0261
84.7197
134.602
156.543
25.7079
-103.243
137.584
-52.9377
79.9748
-49.3034
109.67
172.749
10.0952
-31.9327
50.9235
84.337
-61.8691
113.143
78.7208
-41.1129
-90.1431
-12.9983
108.172
1.98635
64.229
160.184
106.94
82.4197
66.6161
95.5431
100.467
96.2985
-57.4229
90.411
-78.0225
151.962
96.993
84.0165
-96.9132
-74.5599
29.3538
-49.163
85.2365
133.733
112.51
90.7811
-65.0296
142.206
77.3203
95.0749
75.7003
84.0573
-39.0478
-38.6649
78.9106
103.647
104.135
-6.13348
57.655
-4.8673
136.763
124.528
144.127
-54.3577
93.4801
74.6129
14.3433
122.79
142.151
174.614
93.4204
70.9582
102.887
100.21
102.617
105.263
57.2972
106.423
-29.6888
101.682
106.511
154.976
30.2881
175.382
100.931
21.9796
109.906
95.2425
126.978
-72.3157
0.263303
-91.1272
143.411
85.8722
102.381
115.99
53.11
113.282
-53.392
86.4396
92.055
86.774
197.101
70.1614
172.795
138.469
76.1758
14.7712
91.0455
60.6117
122.613
95.9691
-79.1019
96.6891
100.183
-96.2264
-1.87944
-66.4566
131.828
104.776
92.4501
80.4766
83.0052
193.776
103.311
103.125
-89.8781
-96.6383
139.293
89.6846
119.93
87.5266
-72.7485
-81.577
98.3278
69.5837
96.8106
-23.5413
108.504
-53.7222
208.958
-32.4959
114.947
99.2617
145.588
101.532
-53.3536
106.708
64.1878
133.682
-38.7337
67.6555
-74.1243
91.3493
98.2226
96.3975
88.1921
95.5829
99.0496
4.12439
-3.23161
89.169
96.6522
30.7571
150.702
86.42
117.778
96.0156
101.049
79.4346
96.1207
22.0807
203.577
105.945
-83.1467
104.184
106.268
-36.2447
61.6989
14.7328
162.686
110.678
-74.6174
83.2091
88.0034
148.175
-12.8426
147.998
18.7425
75.4483
49.0595
51.9298
3.68352
-65.2112
104.394
-26.3091
92.1842
-64.806
-45.7822
108.089
159.185
110.046
-101.256
103.991
206.6
69.1951
15.7195
114.872
95.8137
67.1226
11.257
64.3011
-93.3373
-31.506
13.7221
15.9121
110.439
91.8785
28.8039
36.8132
176.713
91.8472
99.8143
-80.0387
-86.5953
63.4816
-83.5155
168.208
125.632
91.0168
-37.0337
84.8214
102.56
99.5064
115.625
-66.5695
36.3855
79.8621
133.26
106.043
65.5358
88.017
36.1999
104.302
97.9153
-57.011
100.865
102.105
63.8286
58.6058
-91.2556
-40.7987
-26.5772
85.9808
94.1478
162.408
-27.1164
6.20037
218.19
91.9619
185.817
135.608
185.692
14.0235
97.0742
108.276
-12.3746
90.7466
25.8193
70.3854
39.0042
101.333
111.588
85.2985
-91.0865
116.567
97.3655
86.9897
72.4513
55.7114
93.4313
88.1477
-47.2893
141.163
12.6791
54.0481
174.077
37.1154
168.54
132.928
-22.1936
32.1336
69.6266
115.803
-46.5397
113.764
114.902
74.1294
-53.7696
83.5982
142.945
25.7378
-43.0977
49.324
107.296
159.101
69.9861
203.169
82.9339
73.2022
181.311
153.447
-101.085
82.5844
75.8273
129.059
89.3282
101.765
155.686
-3.79571
-39.0827
61.1716
12.6215
-11.5504
58.9923
-38.1715
91.7018
82.7363
162.856
49.071
100.715
91.1884
105.715
97.5237
87.806
86.5449
32.35
120.567
-97.3712
102.167
88.797
96.2441
28.5314
173.639
97.9975
74.7232
145.281
89.006
85.1651
92.6484
89.0097
99.3014
-81.7126
-54.64
19.1503
84.0194
29.9119
65.448
-88.5485
142.508
100.666
101.882
102.787
136.29
-26.1802
71.8525
92.8277
116.256
76.1978
78.2453
154.58
115.018
114.32
140.207
7.44456
94.4655
137.37
140.704
145.542
69.1701
-41.8592
20.6588
103.588
41.122
90.4478
23.1437
158.145
-79.6593
-33.1961
96.6376
126.287
-15.4725
-102.028
90.8986
99.122
98.6028
109.437
94.5236
84.1875
142.429
128.183
85.3679
138.903
101.448
105.386
123.799
96.6825
140.36
74.2714
-95.8543
107.278
175.109
61.482
-102.572
105.016
102.403
99.1023
82.8397
117.504
76.6468
-91.8075
89.616
55.0421
-79.9998
91.1557
81.7616
47.1971
-82.8955
84.4087
46.3111
-19.7954
100.395
170.463
-74.9762
96.984
97.5537
34.5427
-5.87822
30.6304
92.3126
84.8379
76.8919
102.457
103.368
50.3831
93.7677
115.935
114.242
-81.5532
228.722
111.758
101.985
86.0361
182.05
131.821
-39.8963
80.8295
12.0319
99.9568
177.646
102.205
100.013
98.2504
155.887
147.041
-64.9524
98.2485
98.4693
56.8946
95.6093
-39.278
102.951
99.7085
99.6624
102.003
201.66
90.3895
94.0342
65.0552
108.235
90.5057
-46.2648
-94.5254
105.001
83.0088
93.0329
100.286
103.037
113.764
171.746
-95.3081
53.9675
103.29
-43.3341
72.2846
125.75
-85.546
-81.2256
118.829
-45.292
-85.4415
87.7272
174.858
129.827
87.0696
86.1959
-68.9075
-61.2372
45.3407
117.769
102.054
71.3103
97.0562
192.925
95.8558
-35.6173
63.093
96.3987
-97.0422
182.156
87.8277
118.397
90.4078
99.9666
-94.0058
95.5744
135.432
84.3127
87.6714
-52.1267
101.214
81.6767
96.5448
198.876
80.3693
92.8915
99.6473
43.0792
84.3216
71.1955
-55.5846
111.27
98.5273
-55.2561
-51.366
11.2773
97.9013
65.4623
192.506
79.5287
149.44
88.0588
158.575
-32.4645
85.4638
189.166
89.6323
-81.5687
102.862
187.235
-100.108
21.2498
89.6861
200.316
112.371
125.09
91.5391
100.842
109.643
102.457
-17.6798
109.255
96.1574
140.186
-32.2251
96.6486
174.678
103.428
-3.69256
-41.3075
179.282
101.252
-8.19581
62.7362
-38.8274
67.5701
110.525
-64.4843
67.1624
-43.8334
202.68
-67.1777
-79.6769
3.45756
72.6782
-86.3969
216.755
94.8876
-88.1593
92.5889
64.4507
51.6079
-23.4311
103.929
85.9114
-89.6127
152.213
165.623
119.343
197.485
159.068
135.986
100.83
93.5592
96.5778
91.2719
107.921
90.1275
-29.3502
-64.6754
72.1727
104.09
-91.4629
136.168
95.526
123.932
-21.3727
-106.162
109.96
1.964
160.593
189.405
-34.5221
132.926
-1.88488
40.6185
-92.44
-31.0034
38.7299
140.061
-105.019
-89.3801
103.884
97.6745
101.906
-13.2219
87.2116
-72.4453
97.5542
98.2922
-77.7097
-40.5449
-41.9382
-14.8189
140.471
-1.8466
74.3346
109.348
138.209
105.073
111.645
92.9824
92.8795
-13.8672
98.6009
116.649
106.403
11.3265
78.3876
-44.4039
3.63255
85.8871
-44.2318
96.3634
-93.0637
87.8986
74.8803
104.659
94.2619
114.324
100.628
63.24
90.7129
-33.3591
155.056
121.211
125.673
140.115
-54.0983
111.472
97.0412
43.8517
97.9143
59.0603
-75.0426
68.5054
113.591
114.287
23.6533
182.112
-56.8029
48.9269
113.266
79.4963
136.839
90.7916
28.3644
-22.1021
49.1314
53.9368
176.296
120.516
89.648
61.7244
105.989
91.7925
27.9652
89.1889
91.4631
109.44
86.434
170.136
39.2553
98.5832
99.6525
0.0828031
-80.3591
35.4847
-8.87451
78.9616
93.0493
5.64321
-68.4447
186.069
101.786
-22.3699
93.856
128.785
104.033
109.08
103.04
141.237
100.508
98.9669
86.5582
-91.6802
98.6757
88.7437
121.862
178.56
71.6131
140.172
42.3727
76.337
-74.9803
-16.1593
89.1974
85.0053
90.0372
7.26375
105.809
-74.0005
53.6892
96.7125
206.39
172.846
104.604
108.182
105.338
98.6508
101.948
106.073
101.098
110.886
78.2965
93.7409
89.8024
94.3353
84.3827
97.8176
82.0934
4.98002
78.5639
153.611
131.133
161.776
90.8973
129.063
-40.109
147.805
165.1
83.271
65.4083
49.7509
88.6672
90.2976
101.228
122.977
-73.0316
115.083
-43.3382
131.049
-61.7669
86.7768
55.6605
-18.8809
112.898
-99.0995
103.515
95.5518
95.8479
-45.3262
123
-7.35504
86.6948
19.5701
-97.5766
211.397
103.819
28.693
131.348
142.856
96.2196
104.056
99.9779
128.747
101.777
103.149
-93.8919
67.9036
95.4093
-12.8672
22.5134
84.7183
93.2179
131.683
123.498
-105.312
106.486
35.2705
-86.3936
38.3535
98.6738
129.31
119.039
102.702
-72.316
12.7191
99.1519
138.902
103.069
52.2713
100.138
135.833
151.747
113.647
-80.3103
127.622
169.615
-75.5213
110.133
-12.4131
137.281
-96.4951
-6.83054
-17.5507
42.4932
88.8187
99.4271
117.483
-6.94763
110.722
16.7259
-74.6907
-98.2974
42.2889
85.6738
120.713
126.896
94.8191
-66.6356
99.8255
102.636
176.532
117.405
20.0181
74.2651
108.546
61.2419
154.889
92.4438
131.081
-97.3258
-84.0622
-21.1319
2.83139
93.3861
79.9041
90.8856
101.673
23.574
154.551
-56.8585
57.1794
135.517
-80.7215
106.861
67.6842
-82.9761
199.675
87.4171
103.803
68.6846
46.3877
-76.647
125.207
-59.9488
75.2691
197.364
-87.0553
-65.6417
80.267
46.9333
109.91
146.87
110.965
88.1965
-12.1387
101.664
92.4946
-16.4407
169.072
24.1973
70.1022
115.874
62.4483
104.939
100.504
-91.4242
92.1413
112.086
185.782
41.164
-11.9336
90.3602
68.3268
178.699
88.6073
121.21
99.4224
-95.3081
172.034
-84.4749
92.3229
-52.9258
43.3833
76.2594
-33.8665
101.468
211.713
73.1963
-74.7538
111.867
89.5368
103.424
69.0339
94.1745
151.153
104.117
110.62
104.565
130.078
46.8658
106.715
97.4543
57.4691
11.4508
97.1197
60.507
-102.81
-101.645
169.381
168.241
35.9764
-50.3643
66.3486
114.323
10.6592
98.4357
-93.4389
-39.0969
73.8789
-76.917
103.985
-9.53297
149.437
81.8991
76.9795
75.7913
21.6237
27.4524
180.256
92.521
102.669
70.9334
157.791
116.463
34.3703
92.8624
5.99012
104.38
142.078
7.72175
90.8514
22.7125
104.531
-89.8694
151.486
46.2428
91.676
90.1113
167.892
75.7045
-3.76123
94.4691
104.566
94.5808
99.9924
106.489
86.9272
78.1059
55.9051
220.892
142.183
-19.0646
201.566
-64.0723
-35.0013
108.448
23.9016
44.7296
-58.2288
5.23149
104.083
87.2411
71.1332
105.127
-77.2434
93.8924
142.37
86.8764
125.213
87.5489
42.0864
54.4952
103.482
159.764
24.9495
55.0316
132.301
178.473
74.0572
115.068
96.4047
40.5608
70.1563
105.74
156.532
99.6158
-22.649
168.752
-94.3557
-47.0121
-69.1778
93.4003
-31.3772
17.9189
42.516
30.1974
100.296
84.6591
89.0474
150.009
-69.7601
-90.8531
-20.1251
151.288
90.4764
-52.6097
118.564
191.131
-32.6142
-18.0474
98.4596
-100.024
103.341
83.4472
120.767
72.7261
111.675
48.5082
35.6581
113.459
81.7084
52.3022
55.732
112.509
97.4708
78.1712
92.5492
-96.0445
78.107
30.5646
133.759
106.96
-92.0947
133.035
60.668
79.0225
53.5293
194.337
182.173
109.381
114.119
83.9389
27.7383
41.1095
44.4027
53.6959
-5.65721
1.69324