/*--------------------------------*- C++ -*----------------------------------*\
| =========                 |                                                 |
| \\      /  F ield         | OpenFOAM: The Open Source CFD Toolbox           |
|  \\    /   O peration     | Version:  2.3.0                                 |
|   \\  /    A nd           | Web:      www.OpenFOAM.org                      |
|    \\/     M anipulation  |                                                 |
\*---------------------------------------------------------------------------*/
FoamFile
{
    version     2.0;
    format      ascii;
    class       surfaceScalarField;
    location    "2000";
    object      phi;
}
// * * * * * * * * * * * * * * * * * * * * * * * * * * * * * * * * * * * * * //

dimensions      [0 3 -1 0 0 0 0];

internalField   nonuniform List<scalar> 
13305
(
-0.0242128
-0.0225015
0.0256604
0.0210247
-0.0266565
-0.0183875
0.0208312
-0.0284096
-0.0149948
0.0167478
-0.0294807
-0.0121833
0.0132543
-0.0299141
-0.00984764
0.010281
-0.0298009
-0.00790733
0.00779409
-0.0292616
-0.00630091
0.00576162
-0.0284251
-0.00497972
0.00414307
-0.0273991
-0.0039021
0.00287611
-0.0262631
-0.00303739
0.00190127
-0.0251356
-0.00234982
0.00122239
-0.00180936
-0.0242593
0.000932933
-0.0207399
-0.0200881
0.0183266
-0.0224625
-0.0166649
-0.0236168
-0.0138405
-0.0242948
-0.0115053
-0.0245523
-0.00959016
-0.0244432
-0.0080164
-0.0240115
-0.0067326
-0.0233065
-0.00568478
-0.0223699
-0.00483874
-0.0212493
-0.004158
-0.019988
-0.00361117
-0.00317588
-0.0186215
-0.018053
-0.0181519
0.016117
-0.0193622
-0.0153558
-0.0201547
-0.013048
-0.0205194
-0.0111406
-0.0205415
-0.00956806
-0.0202848
-0.00827306
-0.0198104
-0.00720704
-0.0191636
-0.00633153
-0.0183894
-0.00561299
-0.017522
-0.00502544
-0.0165855
-0.00454756
-0.00416119
-0.0156003
-0.0157971
-0.0165205
0.0141657
-0.0168881
-0.0142648
-0.0175332
-0.0124029
-0.017816
-0.0108578
-0.0178073
-0.00957669
-0.0175627
-0.00851767
-0.0171313
-0.00763843
-0.0165544
-0.00690841
-0.0158632
-0.00630422
-0.0150844
-0.00580426
-0.0142417
-0.00539026
-0.00505068
-0.0133522
-0.01389
-0.0151199
0.0124895
-0.0148158
-0.013339
-0.0153572
-0.0118615
-0.0155869
-0.010628
-0.0155617
-0.00960193
-0.0153389
-0.0087404
-0.0149548
-0.00802255
-0.0144432
-0.00741998
-0.0138339
-0.0069135
-0.0131492
-0.00648899
-0.0124049
-0.00613453
-0.00583811
-0.0116175
-0.0122635
-0.0138854
0.0110289
-0.0130796
-0.0125228
-0.0135582
-0.0113829
-0.013761
-0.0104252
-0.0137407
-0.00962221
-0.0135416
-0.00893946
-0.0132007
-0.00836348
-0.0127455
-0.0078751
-0.0122011
-0.00745795
-0.0115857
-0.00710437
-0.0109158
-0.00680442
-0.00654935
-0.0102046
-0.0108808
-0.0127883
0.00978375
-0.0116056
-0.011798
-0.0120331
-0.0109554
-0.0122149
-0.0102434
-0.0122008
-0.00963637
-0.0120275
-0.00911268
-0.0117226
-0.00866841
-0.0113166
-0.00828111
-0.0108272
-0.00794729
-0.010273
-0.0076586
-0.00966876
-0.00740866
-0.007194
-0.0090241
-0.00968483
-0.0118129
0.00870944
-0.0103392
-0.0111436
-0.0107241
-0.0105705
-0.0108928
-0.0100747
-0.0108841
-0.00964506
-0.0107291
-0.00926765
-0.0104604
-0.00893705
-0.0100955
-0.00864606
-0.0096541
-0.00838865
-0.00915246
-0.00816024
-0.0086036
-0.00795751
-0.00777918
-0.00801842
-0.00864748
-0.0109298
0.00776441
-0.00923895
-0.0105522
-0.00958867
-0.0102207
-0.00974316
-0.00992024
-0.00973779
-0.00965043
-0.00960292
-0.00940251
-0.00936207
-0.0091779
-0.00903468
-0.00897345
-0.00863689
-0.00878645
-0.00818181
-0.00861532
-0.00768297
-0.00845635
-0.00831155
-0.00715059
-0.00773529
-0.0101323
0.00693777
-0.00827553
-0.0100119
-0.00859525
-0.00990102
-0.00873916
-0.00977634
-0.00873711
-0.00965248
-0.00861527
-0.00952435
-0.00840024
-0.00939293
-0.00810654
-0.00926714
-0.0077481
-0.00914487
-0.00733525
-0.00902817
-0.00688067
-0.00891094
-0.00639604
-0.00879619
-0.0217188
-0.00162726
-0.00091304
-0.0195745
-0.00179717
-0.000347163
-0.0175676
-0.00207631
6.94972e-05
-0.0156613
-0.00245731
0.000551007
-0.01386
-0.00296446
0.00116321
-0.0121982
-0.00362453
0.00196278
-0.0107327
-0.00447174
0.00300627
-0.00953845
-0.00554721
0.00435297
-0.00869323
-0.0069041
0.0060589
-0.00827409
-0.00860701
0.00818787
-0.00835377
-0.0107387
0.0108184
-0.0134087
0.014061
-0.00900607
-0.0171931
-0.00305567
-0.0157726
-0.00321771
-0.0144
-0.00344884
-0.013093
-0.00376435
-0.0118759
-0.00418155
-0.0107767
-0.00472371
-0.00982569
-0.00542279
-0.00905984
-0.00631307
-0.00852339
-0.00744056
-0.0082728
-0.00885761
-0.00838398
-0.0106275
-0.0128433
-0.00894939
-0.0145977
-0.00405824
-0.0135966
-0.00421887
-0.0126111
-0.00443424
-0.0116562
-0.00471934
-0.0107473
-0.00509046
-0.00990779
-0.00556321
-0.00916813
-0.00616246
-0.00856687
-0.00691434
-0.0081522
-0.00785524
-0.00798386
-0.00902596
-0.00812979
-0.0104816
-0.0122962
-0.00867695
-0.0124575
-0.00495295
-0.0115942
-0.0050821
-0.0107674
-0.0052611
-0.00998852
-0.00549822
-0.00927185
-0.00580713
-0.00863411
-0.00620096
-0.00809639
-0.00670019
-0.00768701
-0.00732373
-0.00744234
-0.00809992
-0.00740689
-0.00906142
-0.00763859
-0.0102499
-0.0117218
-0.00821293
-0.0108292
-0.00574125
-0.0100758
-0.00583552
-0.00936655
-0.00597035
-0.00870866
-0.00615612
-0.0081141
-0.00640169
-0.0075983
-0.00671677
-0.00718061
-0.00711789
-0.00688471
-0.00761964
-0.00674146
-0.00824317
-0.00679055
-0.00901233
-0.00708154
-0.00995893
-0.0111279
-0.00767552
-0.00949296
-0.00645287
-0.00882075
-0.00650773
-0.00819356
-0.00659753
-0.00762001
-0.00672968
-0.00711282
-0.00690888
-0.00668299
-0.0071466
-0.00634984
-0.00745104
-0.00613456
-0.00783493
-0.00606388
-0.00831386
-0.0061713
-0.00890491
-0.0064992
-0.00963103
-0.0105248
-0.00710226
-0.00838046
-0.00709651
-0.00777593
-0.00711227
-0.0072164
-0.00715706
-0.00671055
-0.00723553
-0.00626843
-0.00735099
-0.00590332
-0.00751171
-0.00563032
-0.00772405
-0.00547021
-0.00799504
-0.00544597
-0.0083381
-0.00558893
-0.00876196
-0.00593556
-0.0092844
-0.00992607
-0.0065343
-0.00743395
-0.00768097
-0.00688785
-0.00765837
-0.00638631
-0.0076586
-0.00593562
-0.00768622
-0.00554552
-0.00774109
-0.00523033
-0.0078269
-0.00500351
-0.00795087
-0.00488208
-0.00811648
-0.00488871
-0.00833147
-0.0050524
-0.00859828
-0.00540493
-0.00893186
-0.00934119
-0.00598982
-0.0066203
-0.00821127
-0.00612635
-0.00815231
-0.0056739
-0.00811105
-0.00527084
-0.00808928
-0.00492422
-0.00808771
-0.00464858
-0.00810254
-0.00445541
-0.00814406
-0.00436405
-0.00820784
-0.0043905
-0.00830503
-0.00456277
-0.008426
-0.00491072
-0.00858392
-0.00878044
-0.00547146
-0.00591401
-0.00869329
-0.00546603
-0.00860029
-0.00505916
-0.0085179
-0.00469876
-0.00844969
-0.0043875
-0.00839895
-0.00414608
-0.00834397
-0.00398053
-0.00830961
-0.00391011
-0.00827827
-0.00394835
-0.00826679
-0.00412298
-0.00825138
-0.00445983
-0.00824706
-0.00499169
-0.00824858
0.0043047
-0.00369576
0.00403572
-0.00464467
0.00401904
-0.00303263
0.00331837
0.00380409
-0.00229203
0.00250697
0.00363858
-0.0015711
0.00173679
0.00347931
-0.000917382
0.00107658
0.0032769
-0.000342768
0.000545482
0.00297779
0.000163716
0.000135254
0.00253052
0.000623024
-0.000175356
0.00187606
0.00106399
-0.000409682
0.000946921
0.00152462
-0.000595026
-0.000356367
0.00205627
-0.000753211
0.00272745
-0.00219656
-0.000886841
0.00363899
-0.00327764
-0.00405707
0.00325538
-0.002649
0.00292179
-0.00195847
0.00262501
-0.00127425
0.00233251
-0.000624936
0.00200436
-1.45018e-05
0.00159947
0.000568501
0.00107909
0.00114359
0.00040601
0.00173692
-0.000446789
0.00237763
-0.00147774
0.00308706
0.00385876
-0.00260882
0.00294159
-0.00280596
-0.00341327
0.00250784
-0.00221526
0.00212292
-0.00157357
0.00177573
-0.000927004
0.00144084
-0.000290102
0.00108792
0.000338498
0.000685386
0.000970973
0.000203802
0.00162528
-0.000381852
0.0023225
-0.00108506
0.00308096
-0.00190873
0.00391064
0.00478641
-0.00283623
0.00231533
-0.00232913
-0.00279214
0.00188436
-0.00178428
0.00150609
-0.00119533
0.00116841
-0.000589311
0.000849976
2.83051e-05
0.000525185
0.000663327
0.000167338
0.00132876
-0.000249325
0.00204199
-0.000747449
0.00282056
-0.00134793
0.0036815
-0.00206095
0.00462359
0.00563029
-0.00290476
0.00179694
-0.00188502
-0.00224106
0.00140195
-0.00138929
0.00105872
-0.000852109
0.000754541
-0.000285111
0.00047049
0.000312329
0.000184209
0.000949623
-0.000128121
0.00164106
-0.00048944
0.00240332
-0.000923662
0.00325473
-0.00145003
0.00420789
-0.00209277
0.00526628
0.00640193
-0.00286438
0.00138704
-0.00148663
-0.0017854
0.00104049
-0.00104273
0.000741122
-0.000552737
0.000476432
-2.04122e-05
0.00022915
0.000559601
-2.09684e-05
0.00119975
-0.00029439
0.00191445
-0.000612936
0.00272187
-0.000998469
0.00364023
-0.00147198
0.00468141
-0.00205437
0.00584863
0.00710767
-0.00276009
0.00106907
-0.00114124
-0.0014144
0.00077351
-0.000747142
0.000518322
-0.00029754
0.000291239
0.000206685
7.78439e-05
0.000772988
-0.000141045
0.00141864
-0.000383987
0.00215739
-0.000668907
0.00300679
-0.00101474
0.00398604
-0.00144447
0.00511114
-0.00197404
0.00637819
0.00775404
-0.0026204
0.00082082
-0.000853793
-0.00110824
0.000575317
-0.000501628
0.000361172
-8.33925e-05
0.000167876
0.000399986
-1.54848e-05
0.00095635
-0.000207473
0.00161064
-0.000424238
0.00237414
-0.000683335
0.00326589
-0.000998416
0.00430112
-0.00139032
0.00550305
-0.00187692
0.00686477
0.0083427
-0.00246557
0.000629679
-0.0006175
-0.000865957
0.000427856
-0.000299799
0.000249382
9.50804e-05
8.48949e-05
0.000564483
-7.00674e-05
0.00111132
-0.000238969
0.00177954
-0.000433587
0.00256876
-0.000671856
0.00350416
-0.000957286
0.00458654
-0.00131411
0.00585987
-0.00175832
0.00730898
0.00888358
-0.00229921
0.000482687
-0.000421583
-0.000678578
0.000316713
-0.000133812
0.00016653
0.000245289
2.93107e-05
0.000701725
-9.69754e-05
0.00123762
-0.000243875
0.00192645
-0.000418064
0.00274295
-0.000635368
0.00372148
-0.000895373
0.00484655
-0.0012244
0.0061889
-0.0016341
0.00771868
-0.00212314
0.00937261
-0.00298978
0.0039944
-0.00320148
-0.00414525
0.00558799
-0.00443225
-0.00536533
0.00684893
-0.00562911
-0.00642533
0.00798762
-0.00692746
-0.0072625
0.00925225
-0.00841517
-0.00782527
0.0106946
-0.0101318
-0.00807737
0.0123779
-0.0121258
-0.0079621
0.0143483
-0.0144636
-0.00742319
0.0166768
-0.0172157
-0.00639493
0.0194328
-0.020461
-0.00479333
0.0226968
-0.0242984
0.0265655
-0.0288379
-0.00252094
-0.00360061
0.00498602
-0.0046343
0.00662191
-0.00571405
0.00792854
-0.00663121
0.00890496
-0.00732223
0.00994319
-0.00776245
0.011135
-0.00791748
0.0125329
-0.0077438
0.0141747
-0.00719176
0.0161248
-0.00619571
0.0184367
-0.00468102
0.0211821
0.0244432
-0.00255874
-0.00382543
0.00597516
-0.00477746
0.0075741
-0.00570901
0.00886003
-0.00649881
0.00969489
-0.00709022
0.0105346
-0.00745718
0.011502
-0.00756619
0.012642
-0.00738244
0.0139909
-0.00685238
0.0155948
-0.0059211
0.0175054
-0.00451307
0.019774
0.0224746
-0.00254457
-0.00383566
0.006906
-0.00472452
0.00846305
-0.00553912
0.0096746
-0.00622371
0.0103795
-0.00673483
0.0110457
-0.00704725
0.0118145
-0.00713113
0.0127258
-0.00694611
0.013806
-0.00645083
0.0150995
-0.00558932
0.0166439
-0.00429573
0.0184804
0.0206687
-0.00248979
-0.00371892
0.0077605
-0.00453938
0.00928356
-0.00526516
0.0104003
-0.00587014
0.0109846
-0.00631728
0.0114928
-0.0065903
0.0120875
-0.00665404
0.0127896
-0.00648368
0.0136356
-0.0060266
0.0146425
-0.00523543
0.0158528
-0.00405178
0.0172967
0.0190188
-0.00240193
-0.0035429
0.00854328
-0.00428821
0.0100289
-0.00494043
0.0110526
-0.00547472
0.0115189
-0.00587331
0.0118914
-0.00611282
0.0123271
-0.00617134
0.0128481
-0.00600889
0.0134732
-0.0055945
0.0142281
-0.00487309
0.0151314
-0.00379363
0.0162173
0.0175174
-0.00229219
-0.00333177
0.00925463
-0.00401143
0.0107086
-0.00459098
0.0116321
-0.00507053
0.0119984
-0.00542631
0.0122472
-0.00564424
0.012545
-0.00569311
0.012897
-0.00554914
0.0133292
-0.00517024
0.0138492
-0.00451575
0.0144769
-0.00353656
0.0152381
0.0161484
-0.00216761
-0.00310988
0.00989893
-0.0037168
0.0113155
-0.00424175
0.0121571
-0.00467059
0.0124273
-0.00499458
0.0125712
-0.00518923
0.0127397
-0.00523563
0.0129434
-0.00510436
0.013198
-0.00476066
0.0135056
-0.00416972
0.0138859
-0.00327761
0.0143459
0.0149087
-0.00203795
-0.0028914
0.0104911
-0.00343881
0.0118629
-0.00390568
0.0126239
-0.00429165
0.0128133
-0.004583
0.0128625
-0.00476005
0.0129167
-0.00480171
0.0129851
-0.00468274
0.013079
-0.00437498
0.0131978
-0.00383743
0.0133484
-0.00303271
0.0135412
0.0137795
-0.00190353
-0.00264926
0.0110172
-0.00312795
0.0123416
-0.0035532
0.0130492
-0.00392316
0.0131833
-0.00419697
0.0131364
-0.00436013
0.01308
-0.00439889
0.0130239
-0.00429137
0.0129715
-0.00401198
0.0129184
-0.00352884
0.0128653
-0.00279727
0.0128096
0.0127559
-0.00177362
0.00251612
-0.00158309
0.00489126
-0.00115273
0.00744063
-0.000648194
0.0102247
9.19276e-05
0.0131154
0.00125223
0.0159208
0.00295612
0.0184047
0.00531014
0.0203396
0.00834604
0.0215424
0.0120513
0.0219352
0.0163549
0.0215962
0.0211703
0.0265206
0.0207361
-0.000236394
-0.00134675
0.000204589
-0.00159407
0.00119454
-0.00163807
0.00273924
-0.00145299
0.00487145
-0.000879939
0.00759119
0.000236243
0.0107728
0.00212854
0.0140815
0.0050373
0.0170574
0.00907531
0.0192449
0.0141675
0.0203605
0.0200547
0.0264545
0.0204267
-0.000102809
-0.00124364
-0.00017256
-0.00152444
-0.000103228
-0.00170723
0.000220636
-0.00177703
0.00100054
-0.00165977
0.00245061
-0.00121398
0.00474873
-0.000169609
0.00788928
0.00189672
0.0115454
0.00541914
0.0150935
0.0106193
0.0178232
0.017325
0.0250107
0.0192671
-1.72996e-05
-0.0012262
1.20911e-05
-0.00155414
9.53018e-05
-0.00179022
0.000267878
-0.00194983
0.000598911
-0.00199068
0.00121121
-0.00182645
0.00232001
-0.00127842
0.00422616
-9.51808e-06
0.0071214
0.00252383
0.01078
0.00696069
0.0144716
0.0136334
0.0221775
0.0173048
-1.05368e-05
-0.00121562
-2.47463e-08
-0.0015649
4.43132e-05
-0.00183446
0.000140136
-0.00204588
0.000325258
-0.00217576
0.000662466
-0.00216386
0.00127488
-0.00189088
0.002381
-0.00111574
0.00430131
0.000603389
0.00726468
0.00399725
0.0110187
0.00987943
0.0184763
0.0147199
-4.29942e-06
-0.00121127
1.88675e-05
-0.00158838
6.89221e-05
-0.00188435
0.000153796
-0.00213099
0.000293924
-0.0023158
0.000523757
-0.00239389
0.000913158
-0.00228032
0.00159619
-0.0017989
0.00280778
-0.00060833
0.00489696
0.00190805
0.00806036
0.00671598
0.0147261
0.0118106
5.45786e-06
-0.00121665
3.41287e-05
-0.00161734
8.34358e-05
-0.00193348
0.000158869
-0.00220665
0.000274266
-0.0024311
0.00045274
-0.00257253
0.000737265
-0.00256486
0.00121283
-0.00227457
0.00203952
-0.00143512
0.00349651
0.000450985
0.00595052
0.00426199
0.0111973
0.00947935
1.28635e-05
-0.00122942
4.77394e-05
-0.00165251
0.000100682
-0.00198624
0.000175111
-0.0022813
0.000281962
-0.00253785
0.000436722
-0.00272745
0.000667436
-0.00279559
0.00103012
-0.00263734
0.00163436
-0.00203944
0.00268104
-0.000595709
0.00450066
0.0024424
0.00837568
0.00732234
2.03729e-05
-0.00124983
5.93462e-05
-0.00169183
0.000113707
-0.00204046
0.000187462
-0.00235529
0.000289136
-0.00263943
0.000430305
-0.00286875
0.000631993
-0.0029973
0.000932579
-0.00293798
0.00140959
-0.00251651
0.00220921
-0.00139534
0.00359283
0.00105882
0.00597102
0.00599744
2.57325e-05
-0.00127542
6.64467e-05
-0.00173282
0.000121578
-0.0020954
0.000194311
-0.00242823
0.000291799
-0.00273681
0.000423095
-0.00300018
0.000604369
-0.00317858
0.000863519
-0.00319718
0.00125654
-0.00290962
0.00189144
-0.00203026
0.00296916
-1.89571e-05
0.00412182
0.00481835
2.89816e-05
-0.00130447
7.0145e-05
-0.00177432
0.000124588
-0.00214971
0.000194979
-0.00249885
0.00028749
-0.00282922
0.000410453
-0.00312327
0.000576188
-0.00334433
0.000806403
-0.00342746
0.00114288
-0.00324616
0.0016665
-0.00255395
0.00252793
-0.000880345
0.00265309
0.00399656
3.05585e-05
-0.00133483
7.0592e-05
-0.00181457
0.000122727
-0.00220165
0.000189441
-0.00256575
0.000276473
-0.00291614
0.000390518
-0.00323744
0.000542403
-0.00349621
0.000749159
-0.00363427
0.00104367
-0.00354074
0.00148917
-0.00299944
0.00220829
-0.00159948
0.00141182
0.00344966
3.00009e-05
-0.00136497
6.75542e-05
-0.00185247
0.000116279
-0.00225027
0.000178223
-0.00262791
0.000258614
-0.00299644
0.000363009
-0.00334196
0.000500568
-0.00363378
0.000685212
-0.00381897
0.000942713
-0.00379832
0.00132304
-0.00337976
0.00192332
-0.00219974
0.000409458
0.00292571
2.86339e-05
-0.00139336
6.33018e-05
-0.00188731
0.00010795
-0.00229471
0.00016469
-0.00268481
0.000237725
-0.00306936
0.000332207
-0.00343656
0.000455957
-0.00375752
0.000619549
-0.00398262
0.000842544
-0.00402135
0.0011615
-0.00369874
0.00164393
-0.00268208
-0.000331189
0.00238442
2.659e-05
-0.00142007
5.81008e-05
-0.00191912
9.90851e-05
-0.00233561
0.000150873
-0.00273678
0.000217575
-0.00313599
0.000303746
-0.00352284
0.000416445
-0.00387021
0.000565437
-0.00413166
0.000767658
-0.00422364
0.00105482
-0.00398582
0.00148717
-0.00311455
-0.00106918
0.0022253
2.45772e-05
-0.00144435
5.30385e-05
-0.00194766
8.99354e-05
-0.0023723
0.000136495
-0.00278347
0.000196654
-0.00319606
0.00027421
-0.00360051
0.000375714
-0.00397173
0.000509525
-0.00426556
0.00069025
-0.00440443
0.000944567
-0.00424019
0.0013222
-0.0034921
-0.0016072
0.00186009
2.20069e-05
-0.00146656
4.7423e-05
-0.00197343
8.04428e-05
-0.00240534
0.000122491
-0.00282573
0.00017645
-0.00325002
0.000246289
-0.0036705
0.000337956
-0.00406346
0.000459343
-0.00438704
0.000623414
-0.00456863
0.000853925
-0.00447066
0.0011942
-0.00383256
-0.00219186
0.0017791
1.98566e-05
-0.00148615
4.23583e-05
-0.00199602
7.183e-05
-0.00243465
0.000109019
-0.00286309
0.000157017
-0.003298
0.000219117
-0.00373276
0.000300653
-0.00414507
0.000408602
-0.00449512
0.000554328
-0.00471443
0.000758748
-0.00467517
0.00105824
-0.00413198
-0.00259758
0.00146396
1.73286e-05
-0.00150367
3.70929e-05
-0.00201611
6.31442e-05
-0.00246073
9.62321e-05
-0.00289637
0.000138957
-0.00334074
0.000194306
-0.00378823
0.000267197
-0.00421801
0.000364203
-0.0045922
0.000496005
-0.00484634
0.000682486
-0.00486163
0.000962844
-0.00441241
-0.00309763
0.00146312
1.52869e-05
-0.00151866
3.2732e-05
-0.00203357
5.56912e-05
-0.0024835
8.47486e-05
-0.00292551
0.000122349
-0.00337826
0.00017103
-0.003837
0.000235021
-0.00428205
0.000319691
-0.00467694
0.000433397
-0.00496013
0.000591129
-0.00501938
0.000820054
-0.00464139
-0.00342467
0.00114715
1.33116e-05
-0.00153224
2.87639e-05
-0.00204934
4.92392e-05
-0.002504
7.52917e-05
-0.00295173
0.000109021
-0.00341199
0.000152873
-0.00388096
0.000210806
-0.00434001
0.000288131
-0.00475436
0.000393006
-0.00506511
0.000539985
-0.00516644
0.000757632
-0.00485915
-0.00377993
0.00111283
1.20221e-05
-0.00154396
2.58439e-05
-0.00206315
4.40138e-05
-0.00252202
6.70301e-05
-0.00297483
9.69932e-05
-0.0034419
0.00013603
-0.00392009
0.000187772
-0.00439179
0.000256647
-0.00482333
0.000349556
-0.00515809
0.000478701
-0.00529574
0.000666841
-0.00504725
-0.00406067
0.000947607
1.04065e-05
-0.00155476
2.29229e-05
-0.00207601
3.93322e-05
-0.00253852
6.0226e-05
-0.0029959
8.73889e-05
-0.0034691
0.000122912
-0.00395573
0.000170124
-0.00443906
0.000233305
-0.0048866
0.000318898
-0.0052438
0.000437983
-0.00541485
0.000610729
-0.00521998
-0.00432934
0.000879333
9.86778e-06
-0.00156439
2.12787e-05
-0.00208741
3.61472e-05
-0.00255327
5.48869e-05
-0.00301473
7.94361e-05
-0.00349362
0.000111686
-0.00398808
0.000154764
-0.00448222
0.000212723
-0.00494466
0.000291712
-0.00532295
0.000401915
-0.00552513
0.00056288
-0.00538122
-0.00457374
0.000807037
8.91363e-06
-0.00157368
1.92028e-05
-0.00209803
3.25178e-05
-0.00256671
4.96754e-05
-0.00303204
7.20446e-05
-0.00351604
0.000101508
-0.00401768
0.000141015
-0.00452179
0.00019445
-0.00499826
0.00026746
-0.0053961
0.000369571
-0.00562747
0.000518559
-0.00553046
-0.00480393
0.000748579
8.32013e-06
-0.00158174
1.78931e-05
-0.00210754
3.0048e-05
-0.0025787
4.53812e-05
-0.00304744
6.55146e-05
-0.00353613
9.22275e-05
-0.00404448
0.000128279
-0.00455792
0.000177232
-0.00504734
0.000244604
-0.00546357
0.000339215
-0.00572224
0.000477647
-0.00566879
-0.00501674
0.000690286
7.31771e-06
-0.00158942
1.58323e-05
-0.00211634
2.67376e-05
-0.00258974
4.04947e-05
-0.00306131
5.86169e-05
-0.0035543
8.28724e-05
-0.00406883
0.00011587
-0.00459095
0.000160946
-0.00509245
0.000222884
-0.00552559
0.000310583
-0.00580982
0.000439104
-0.00579756
-0.00521764
0.00064048
7.40914e-06
-0.00159651
1.45814e-05
-0.00212339
2.40588e-05
-0.00259904
3.59531e-05
-0.00307322
5.22139e-05
-0.0035705
7.34452e-05
-0.00409007
0.000102832
-0.00462034
0.000143521
-0.00513316
0.000200293
-0.00558235
0.00027994
-0.00588956
0.000397762
-0.00591506
-0.00540099
0.000581012
6.10171e-06
-0.00160296
1.22604e-05
-0.00212981
2.01466e-05
-0.00260707
3.08219e-05
-0.00308397
4.42267e-05
-0.00358394
6.31476e-05
-0.00410902
8.89238e-05
-0.00464609
0.000125112
-0.00516933
0.000175638
-0.00563289
0.000247339
-0.0059611
0.000351759
-0.00601975
-0.00556946
0.000520961
5.31868e-06
-0.00160794
1.07877e-05
-0.00213511
1.75285e-05
-0.00261363
2.57219e-05
-0.00309213
3.71576e-05
-0.0035953
5.29735e-05
-0.00412481
7.52656e-05
-0.00466836
0.000106751
-0.0052008
0.000151065
-0.00567713
0.000212979
-0.00602306
0.000300145
-0.00610658
-0.00567745
0.000408456
4.14517e-06
-0.00161241
8.32734e-06
-0.00213951
1.3615e-05
-0.00261906
2.05588e-05
-0.00309912
3.02573e-05
-0.00360502
4.3423e-05
-0.00413797
6.30273e-05
-0.00468791
9.12437e-05
-0.00522894
0.00013186
-0.00571772
0.000190844
-0.00608183
0.000276784
-0.00619257
-0.0058276
0.000427418
4.12799e-06
-0.00161615
7.01123e-06
-0.00214216
1.09449e-05
-0.0026228
1.61661e-05
-0.00310427
2.32131e-05
-0.00361199
3.36848e-05
-0.00414839
4.95019e-05
-0.00470367
7.32181e-05
-0.00525261
0.000108852
-0.00575322
0.000161204
-0.00613417
0.00023948
-0.00627051
-0.00591977
0.000331807
2.76186e-06
-0.00161924
4.76436e-06
-0.00214434
7.49282e-06
-0.00262568
1.09312e-05
-0.00310771
1.60478e-05
-0.00361713
2.4473e-05
-0.00415676
3.69297e-05
-0.00471605
5.67098e-05
-0.00527227
8.72292e-05
-0.00578363
0.000134657
-0.0061814
0.000209686
-0.00634532
-0.00606127
0.000351354
2.00668e-06
-0.00162085
3.50112e-06
-0.00214557
4.74603e-06
-0.00262674
6.6508e-06
-0.0031095
9.81808e-06
-0.0036202
1.53131e-05
-0.00416216
2.48053e-05
-0.00472546
3.99998e-05
-0.00528735
6.38377e-05
-0.00580733
0.000101105
-0.00621847
0.000158485
-0.00640263
-0.00614102
0.000238158
1.07312e-06
-0.00162222
1.29274e-06
-0.0021459
1.60444e-06
-0.00262719
2.32903e-06
-0.00311018
4.16542e-06
-0.00362205
7.5399e-06
-0.00416543
1.45103e-05
-0.00473231
2.68319e-05
-0.00529954
4.79653e-05
-0.00582832
8.16246e-05
-0.00625201
0.00013679
-0.00645778
-0.00623954
0.000235095
5.8494e-07
-0.00162238
3.49572e-07
-0.00214534
-4.57084e-07
-0.00262619
-1.12093e-06
-0.00310933
-1.49957e-06
-0.00362152
-6.21465e-08
-0.0041667
3.78198e-06
-0.004736
1.25484e-05
-0.00530817
2.8607e-05
-0.00584421
5.6142e-05
-0.00627944
0.000103312
-0.00650514
-0.00632869
0.000192413
-4.33743e-07
-0.00162226
-1.07974e-06
-0.00214472
-2.96775e-06
-0.00262437
-5.03511e-06
-0.00310714
-6.8208e-06
-0.00361967
-7.2652e-06
-0.0041661
-5.65255e-06
-0.00473747
-3.63126e-07
-0.00531333
1.07718e-05
-0.0058552
3.12964e-05
-0.0063
6.53185e-05
-0.00653895
-0.00636147
9.77815e-05
-4.89363e-07
-0.00162121
-2.05934e-06
-0.00214276
-4.52466e-06
-0.00262165
-7.61928e-06
-0.00310385
-1.0652e-05
-0.0036165
-1.28079e-05
-0.00416382
-1.2848e-05
-0.00473735
-9.62631e-06
-0.00531647
-8.62512e-07
-0.00586392
1.74546e-05
-0.00631815
5.24437e-05
-0.00657417
-0.00645541
0.000146435
-8.34979e-07
-0.00162062
-3.24344e-06
-0.00214041
-6.68039e-06
-0.00261831
-1.05591e-05
-0.00309994
-1.46816e-05
-0.00361238
-1.85418e-05
-0.00415993
-2.06854e-05
-0.00473519
-2.0148e-05
-0.00531701
-1.46799e-05
-0.00586933
-2.53834e-06
-0.00633036
2.13357e-05
-0.00659796
-0.00647901
4.4988e-05
-9.50378e-07
-0.0016191
-3.5338e-06
-0.00213746
-7.49644e-06
-0.00261409
-1.27116e-05
-0.00309457
-1.82231e-05
-0.00360681
-2.2947e-05
-0.00415514
-2.67449e-05
-0.00473137
-2.74607e-05
-0.00531625
-2.35034e-05
-0.00587325
-1.15142e-05
-0.00634227
1.43322e-05
-0.0066238
-0.0065447
8.0034e-05
-1.72975e-06
-0.00161757
-4.65356e-06
-0.00213454
-9.91695e-06
-0.00260892
-1.58767e-05
-0.00308855
-2.24233e-05
-0.00360025
-2.87743e-05
-0.00414873
-3.39267e-05
-0.00472618
-3.71334e-05
-0.005313
-3.688e-05
-0.00587347
-3.00943e-05
-0.00634897
-1.29044e-05
-0.00664107
-0.00657655
1.89052e-05
-1.60868e-06
-0.00161545
-5.62225e-06
-0.00213015
-1.12248e-05
-0.0026031
-1.8223e-05
-0.00308138
-2.5752e-05
-0.00359265
-3.37127e-05
-0.00414067
-4.06436e-05
-0.0047192
-4.56751e-05
-0.00530793
-4.71742e-05
-0.00587188
-4.37836e-05
-0.00635239
-3.12139e-05
-0.00665357
-0.00660682
-1.02703e-06
-2.3397e-06
-0.00161325
-6.71598e-06
-0.00212575
-1.33442e-05
-0.00259654
-2.11528e-05
-0.00307348
-3.02071e-05
-0.00358358
-3.90377e-05
-0.00413176
-4.77001e-05
-0.00471049
-5.45296e-05
-0.00530103
-5.82584e-05
-0.0058681
-5.73877e-05
-0.00635313
-4.86028e-05
-0.00666244
-0.0066283
-2.7146e-05
-2.448e-06
-0.00161035
-7.16863e-06
-0.00212065
-1.47885e-05
-0.00258874
-2.40943e-05
-0.00306399
-3.4493e-05
-0.00357312
-4.5079e-05
-0.00412107
-5.519e-05
-0.00470033
-6.36108e-05
-0.00529255
-6.91866e-05
-0.00586243
-7.02016e-05
-0.00635211
-6.40491e-05
-0.00666848
-0.00665434
-3.78613e-05
-3.31057e-06
-0.00160714
-8.98347e-06
-0.00211491
-1.7563e-05
-0.00258023
-2.78826e-05
-0.00305357
-3.95729e-05
-0.00356143
-5.17474e-05
-0.00410881
-6.34484e-05
-0.00468858
-7.39076e-05
-0.00528201
-8.18531e-05
-0.0058544
-8.52996e-05
-0.00634858
-8.37772e-05
-0.00666989
-0.00665287
-8.51227e-05
-3.20879e-06
-0.00160356
-1.01703e-05
-0.0021076
-1.98862e-05
-0.00257039
-3.15191e-05
-0.00304175
-4.50152e-05
-0.0035479
-5.94158e-05
-0.0040943
-7.34928e-05
-0.00467445
-8.60964e-05
-0.00526932
-9.5311e-05
-0.00584511
-9.91974e-05
-0.0063446
-9.31986e-05
-0.00667588
-0.00668183
-6.41409e-05
-4.43592e-06
-0.0015992
-1.2256e-05
-0.00209967
-2.35922e-05
-0.00255912
-3.73037e-05
-0.00302791
-5.28043e-05
-0.0035324
-6.9282e-05
-0.00407771
-8.67517e-05
-0.00465692
-0.000103276
-0.00525273
-0.000117596
-0.0058307
-0.00012782
-0.00633438
-0.000130355
-0.0066733
-0.00669758
-0.000114551
-5.00237e-06
-0.00159393
-1.37356e-05
-0.0020906
-2.67414e-05
-0.00254606
-4.2404e-05
-0.00301205
-6.03446e-05
-0.00351444
-7.96959e-05
-0.00405824
-9.99841e-05
-0.00463658
-0.000120342
-0.00523229
-0.00014031
-0.00581065
-0.000158259
-0.00631636
-0.000174041
-0.00665747
-0.00667014
-0.000201415
-6.00703e-06
-0.00158799
-1.62727e-05
-0.00208017
-3.0658e-05
-0.00253174
-4.792e-05
-0.00299464
-6.75793e-05
-0.00349478
-8.94664e-05
-0.00403623
-0.000112254
-0.00461373
-0.000135861
-0.00520861
-0.00015872
-0.00578771
-0.000179369
-0.00629564
-0.000195149
-0.00664163
-0.00667423
-0.000190983
-6.60845e-06
-0.00158114
-1.8164e-05
-0.00206827
-3.42012e-05
-0.00251567
-5.32688e-05
-0.00297536
-7.57304e-05
-0.0034723
-0.000100034
-0.0040118
-0.000125983
-0.00458773
-0.000152755
-0.00518176
-0.000179252
-0.00576113
-0.000204494
-0.00627032
-0.000224394
-0.00662165
-0.00666891
-0.000229692
-7.81827e-06
-0.00157334
-2.04772e-05
-0.00205539
-3.84498e-05
-0.00249776
-6.00284e-05
-0.0029536
-8.4472e-05
-0.00344788
-0.000111188
-0.00398495
-0.000140416
-0.00455845
-0.000170571
-0.00515152
-0.000201183
-0.00573041
-0.000231647
-0.00623977
-0.000261534
-0.00659167
-0.00663722
-0.000293135
-8.84251e-06
-0.00156431
-2.31763e-05
-0.00204071
-4.29468e-05
-0.00247799
-6.63406e-05
-0.00292998
-9.37287e-05
-0.00342049
-0.000123689
-0.00395485
-0.000155598
-0.00452649
-0.000189051
-0.00511797
-0.000223041
-0.00569632
-0.000256318
-0.00620638
-0.000287381
-0.00656053
-0.00661595
-0.000308562
-9.85792e-06
-0.00155441
-2.54207e-05
-0.00202488
-4.76005e-05
-0.00245585
-7.4424e-05
-0.00290296
-0.000104676
-0.00339025
-0.000138357
-0.00392102
-0.000174489
-0.0044903
-0.000212278
-0.00508008
-0.000250628
-0.00565785
-0.000288965
-0.00616794
-0.000326413
-0.00652301
-0.00658799
-0.000354333
-1.12224e-05
-0.00154305
-3.024e-05
-0.00200553
-5.4819e-05
-0.0024313
-8.38361e-05
-0.00287372
-0.000117112
-0.00335698
-0.000154652
-0.00388333
-0.000195471
-0.00444942
-0.000238324
-0.00503712
-0.000282287
-0.00561377
-0.000325977
-0.00612416
-0.000370191
-0.00647875
-0.00652056
-0.000437511
-1.31161e-05
-0.00152983
-3.34968e-05
-0.00198484
-6.10884e-05
-0.00240373
-9.31418e-05
-0.00284145
-0.000131774
-0.00331834
-0.000173442
-0.00384151
-0.000219135
-0.00440364
-0.000267515
-0.00498863
-0.000316894
-0.00556425
-0.000364932
-0.00607603
-0.000406499
-0.00643705
-0.00651148
-0.000415469
-1.52525e-05
-0.00151443
-3.76841e-05
-0.00196208
-6.85411e-05
-0.00237287
-0.000106027
-0.00280374
-0.000148044
-0.0032763
-0.000195353
-0.00379405
-0.000246927
-0.00435198
-0.000303101
-0.00493233
-0.000362987
-0.00550424
-0.000425005
-0.00601389
-0.000487542
-0.00637442
-0.00644798
-0.000550971
-1.66759e-05
-0.0014976
-4.38021e-05
-0.00193463
-7.79431e-05
-0.00233872
-0.000118198
-0.00276327
-0.000164261
-0.00323021
-0.00021661
-0.00374155
-0.000274664
-0.00429385
-0.000337605
-0.00486926
-0.000404637
-0.00543709
-0.0004761
-0.00594233
-0.000551982
-0.00629849
-0.00636309
-0.000636774
-1.94214e-05
-0.00147795
-4.87753e-05
-0.00190497
-8.65616e-05
-0.00230087
-0.000130848
-0.00271878
-0.000183427
-0.00317757
-0.000241179
-0.00368365
-0.0003052
-0.00422973
-0.000373923
-0.00480044
-0.00044681
-0.00536408
-0.00052219
-0.00586689
-0.000597696
-0.00622289
-0.00629857
-0.000662235
-2.18908e-05
-0.00145587
-5.44563e-05
-0.00187207
-9.68805e-05
-0.00225843
-0.000147565
-0.00266788
-0.000204956
-0.00312016
-0.000269369
-0.0036191
-0.000340359
-0.00415867
-0.000417202
-0.00472349
-0.000498754
-0.00528244
-0.000583185
-0.00578237
-0.000668687
-0.00613742
-0.00621083
-0.000756321
-2.5127e-05
-0.00143055
-6.24089e-05
-0.0018345
-0.000109613
-0.00221117
-0.000165064
-0.00261224
-0.000228327
-0.00305686
-0.000300395
-0.00354691
-0.00038035
-0.00407867
-0.000466834
-0.00463693
-0.000558637
-0.00519054
-0.000652564
-0.00568844
-0.000744459
-0.00604543
-0.00613144
-0.000823938
-2.8891e-05
-0.0014014
-6.99945e-05
-0.00179305
-0.000122966
-0.00215818
-0.000185234
-0.00254977
-0.000257782
-0.00298431
-0.000338675
-0.00346591