/*--------------------------------*- C++ -*----------------------------------*\
| =========                 |                                                 |
| \\      /  F ield         | OpenFOAM: The Open Source CFD Toolbox           |
|  \\    /   O peration     | Version:  2.3.0                                 |
|   \\  /    A nd           | Web:      www.OpenFOAM.org                      |
|    \\/     M anipulation  |                                                 |
\*---------------------------------------------------------------------------*/
FoamFile
{
    version     2.0;
    format      ascii;
    class       volScalarField;
    location    "150";
    object      nut;
}
// * * * * * * * * * * * * * * * * * * * * * * * * * * * * * * * * * * * * * //

dimensions      [0 2 -1 0 0 0 0];

internalField   nonuniform List<scalar> 
28256
(
0.0237177
0.0225399
0.021347
0.0202289
0.0192376
0.0184086
0.0177529
0.0172759
0.0169713
0.0168012
0.0167323
0.0167146
0.016705
0.0166593
0.0165506
0.0163408
0.0160258
0.0155888
0.0150636
0.014403
0.0260746
0.0253373
0.0246423
0.0240713
0.0236822
0.023509
0.0235615
0.0238426
0.0243218
0.0249609
0.0257118
0.0265225
0.0273482
0.0281445
0.0288826
0.029524
0.0300793
0.0305081
0.0308188
0.0310081
0.0286721
0.0284217
0.0282618
0.0282624
0.0284662
0.0288916
0.029535
0.0303718
0.0313546
0.0324357
0.0335667
0.0346991
0.0357841
0.0367962
0.0377067
0.0384937
0.0391448
0.0396661
0.0400267
0.0402246
0.0314567
0.0317101
0.0320762
0.0326081
0.0333315
0.0342453
0.0353287
0.0365444
0.0378393
0.0391733
0.0405031
0.0417825
0.0429801
0.0440762
0.045045
0.0458863
0.0465803
0.0471166
0.0474966
0.0477193
0.0343807
0.035118
0.0359677
0.0369639
0.0381121
0.0393969
0.04079
0.0422508
0.0437371
0.0452084
0.0466303
0.0479742
0.0492147
0.0503366
0.0513265
0.0521765
0.0528755
0.053424
0.0538173
0.054043
0.037365
0.0385706
0.0398476
0.0412282
0.042706
0.0442616
0.0458632
0.0474783
0.0490716
0.0506094
0.0520695
0.0534334
0.0546798
0.0557976
0.0567821
0.057626
0.0583225
0.0588753
0.0592663
0.0595046
0.0404176
0.0420086
0.0436412
0.0453254
0.0470502
0.048796
0.0505353
0.0522406
0.0538868
0.0554507
0.0569196
0.0582741
0.0595076
0.0606103
0.0615793
0.0624112
0.0631015
0.0636441
0.0640387
0.0642817
0.0434362
0.0453671
0.0472857
0.0492029
0.0511072
0.0529813
0.054805
0.0565582
0.0582235
0.0597904
0.0612461
0.0625816
0.0637935
0.0648746
0.0658251
0.0666393
0.0673154
0.0678531
0.0682488
0.0684942
0.0464318
0.0486067
0.0507396
0.0528255
0.0548515
0.0568068
0.0586775
0.0604498
0.0621155
0.0636689
0.0651022
0.0664137
0.0675985
0.0686557
0.0695844
0.0703808
0.0710464
0.0715775
0.0719692
0.0722223
0.0493289
0.0516799
0.0539629
0.0561623
0.058265
0.0602644
0.0621537
0.0639268
0.0655802
0.0671112
0.0685187
0.0698017
0.0709595
0.0719922
0.0728993
0.0736798
0.0743333
0.0748564
0.0752485
0.075505
0.0520386
0.0545291
0.0569159
0.0591858
0.0613309
0.0633476
0.065236
0.066996
0.0686274
0.070131
0.0715094
0.0727639
0.0738947
0.0749033
0.0757892
0.0765547
0.0771956
0.0777135
0.0781047
0.0783683
0.054498
0.0571115
0.0595684
0.0618755
0.0640339
0.0660473
0.0679202
0.0696561
0.0712585
0.072732
0.0740802
0.0753059
0.0764095
0.0773941
0.0782621
0.0790111
0.0796424
0.0801549
0.0805461
0.0808152
0.056749
0.0594153
0.0618986
0.064211
0.0663594
0.0683516
0.0701963
0.0719002
0.0734693
0.0749096
0.0762259
0.0774215
0.0784987
0.0794613
0.08031
0.0810447
0.0816661
0.0821732
0.0825654
0.0828401
0.0587489
0.0614161
0.0638863
0.0661737
0.06829
0.0702462
0.0720522
0.0737169
0.0752484
0.0766527
0.0779357
0.0791012
0.0801528
0.0810928
0.0819223
0.082643
0.0832548
0.0837575
0.0841507
0.084433
0.06045
0.0630834
0.0655077
0.0677446
0.0698094
0.0717149
0.0734725
0.0750922
0.0765813
0.0779473
0.0791953
0.0803299
0.0813548
0.0822717
0.0830832
0.0837899
0.0843928
0.0848922
0.085287
0.0855765
0.0618541
0.064396
0.0667392
0.068901
0.0708969
0.0727394
0.0744399
0.0760075
0.0774505
0.0787749
0.0799861
0.0810891
0.0820867
0.0829808
0.0837743
0.0844682
0.085063
0.0855591
0.0859566
0.0862546
0.0629005
0.0653177
0.0675514
0.0696176
0.071529
0.0732973
0.074933
0.0764438
0.0778363
0.0791162
0.0802894
0.0813598
0.0823296
0.0832012
0.0839776
0.0846595
0.0852473
0.0857421
0.0861433
0.0864508
0.0635395
0.065806
0.0679081
0.069861
0.071677
0.0733638
0.0749293
0.0763783
0.0777177
0.0789514
0.080085
0.0811213
0.0820642
0.0829142
0.0836748
0.0843468
0.0849304
0.0854252
0.085833
0.0861519
0.0637442
0.0658212
0.0677678
0.0695959
0.071307
0.0729084
0.0744025
0.0757914
0.0770763
0.0782622
0.0793525
0.0803542
0.0812702
0.0821012
0.0828499
0.0835154
0.0840969
0.0845968
0.0850143
0.0853483
0.0634308
0.0652941
0.0670759
0.0687775
0.0703762
0.071895
0.0733273
0.0746644
0.0759062
0.0770437
0.0780817
0.0790388
0.0799255
0.0807433
0.0814884
0.0821547
0.0827396
0.0832467
0.0836789
0.0840361
0.0143924
0.0150531
0.0156362
0.0160985
0.0164788
0.0167609
0.0169674
0.0171216
0.0172463
0.0173879
0.0175932
0.017911
0.0183818
0.0190415
0.0199151
0.0210183
0.0223593
0.0239393
0.0257498
0.0277699
0.0310338
0.0309125
0.030681
0.0303404
0.0298764
0.0293441
0.0287296
0.0280704
0.0273881
0.0267323
0.0261465
0.025683
0.0253921
0.0253207
0.0255048
0.0259682
0.0267206
0.0277609
0.0290752
0.0306337
0.0402659
0.0401636
0.0398929
0.0394882
0.0389676
0.0383126
0.0375567
0.0367013
0.0357884
0.0348471
0.0339135
0.033045
0.0322878
0.031698
0.0313311
0.0312243
0.0314068
0.0318918
0.0326762
0.0337379
0.0477739
0.0476609
0.0474048
0.0470074
0.0464684
0.0457849
0.0449858
0.0440702
0.0430701
0.0420023
0.0409067
0.0398186
0.0387772
0.0378503
0.0370795
0.0365212
0.036217
0.0361953
0.0364672
0.0370255
0.0541102
0.0540191
0.053774
0.0533899
0.0528485
0.0521837
0.0513872
0.0504665
0.0494416
0.0483389
0.0471712
0.045968
0.04478
0.0436351
0.0425904
0.0417005
0.0410092
0.0405553
0.0403626
0.0404365
0.0595838
0.0595028
0.0592803
0.0589086
0.0584025
0.0577582
0.0569852
0.0560867
0.0550784
0.0539783
0.0527881
0.0515469
0.0502761
0.049009
0.0477911
0.0466662
0.0456814
0.0448773
0.0442841
0.0439262
0.0643691
0.0643094
0.0641023
0.0637623
0.0632813
0.0626706
0.0619302
0.0610644
0.0600933
0.0590167
0.0578454
0.0565981
0.0552983
0.0539665
0.0526427
0.0513617
0.050163
0.0490831
0.0481626
0.0474291
0.0685966
0.0685506
0.0683686
0.0680524
0.0676059
0.0670259
0.0663242
0.0655056
0.0645755
0.0635368
0.0623982
0.0611714
0.0598689
0.0585148
0.0571362
0.0557571
0.0544076
0.0531227
0.0519414
0.0508891
0.0723334
0.0723056
0.0721487
0.0718612
0.0714429
0.0709013
0.0702413
0.0694705
0.0685833
0.067587
0.0664872
0.0652961
0.064017
0.0626679
0.0612652
0.0598298
0.058382
0.0569529
0.0555692
0.0542577
0.0756279
0.0756196
0.0754841
0.0752231
0.0748386
0.0743361
0.0737186
0.0729888
0.0721482
0.0711947
0.0701454
0.0689962
0.067754
0.0664276
0.0650255
0.0635628
0.0620603
0.0605311
0.0590048
0.0575003
0.0785029
0.07851
0.0783964
0.0781639
0.0778148
0.0773507
0.0767715
0.0760857
0.0752903
0.074389
0.0733859
0.072284
0.0710847
0.0697902
0.0684084
0.0669493
0.0654186
0.0638348
0.0622131
0.0605666
0.0809605
0.0809866
0.0808956
0.080691
0.0803723
0.0799445
0.0794088
0.0787677
0.078021
0.0771699
0.076217
0.0751652
0.0740098
0.0727577
0.071411
0.0699698
0.0684437
0.0668376
0.0651585
0.0634242
0.0829988
0.0830415
0.082974
0.0827954
0.0825107
0.0821207
0.0816265
0.0810303
0.0803313
0.0795301
0.0786312
0.0776303
0.0765275
0.0753241
0.0740184
0.0726141
0.0711078
0.0695047
0.0678085
0.0660301
0.0846038
0.0846656
0.0846203
0.084472
0.0842203
0.0838665
0.0834137
0.0828626
0.0822108
0.0814626
0.080617
0.0796708
0.0786227
0.0774722
0.0762182
0.0748586
0.073391
0.071814
0.07013
0.0683465
0.0857611
0.0858413
0.0858208
0.0857011
0.0854823
0.0851666
0.0847553
0.0842495
0.0836472
0.0829507
0.082158
0.0812664
0.0802776
0.0791857
0.0779904
0.0766863
0.0752697
0.0737381
0.0720882
0.0703245
0.0864529
0.0865528
0.0865567
0.0864657
0.0862815
0.0860034
0.0856345
0.0851728
0.084619
0.0839738
0.0832352
0.082402
0.0814718
0.0804435
0.0793112
0.0780686
0.0767152
0.0752411
0.0736393
0.0719025
0.0866641
0.0867843
0.0868134
0.0867521
0.0866009
0.0863607
0.0860315
0.0856132
0.0851063
0.084512
0.0838275
0.0830513
0.0821824
0.081218
0.0801523
0.0789823
0.0776997
0.0762972
0.0747659
0.073091
0.0863822
0.0865247
0.0865796
0.0865474
0.0864283
0.086222
0.0859292
0.0855506
0.0850871
0.084539
0.0839057
0.0831861
0.082378
0.0814789
0.0804848
0.0793914
0.0781914
0.0768771
0.0754385
0.0738604
0.0855994
0.0857663
0.0858492
0.0858464
0.0857574
0.0855789
0.085313
0.084963
0.0845331
0.0840245
0.0834382
0.0827713
0.0820216
0.0811888
0.0802687
0.0792564
0.0781465
0.0769319
0.0756052
0.0741564
0.0843102
0.0845072
0.0846239
0.0846572
0.0846028
0.0844321
0.0841618
0.0838127
0.0834017
0.0829274
0.0823902
0.0817649
0.0810614
0.0803
0.0794543
0.0785227
0.0775005
0.0763911
0.0751921
0.0738931
0.00415527
0.00493839
0.00588978
0.00683019
0.00767662
0.00840866
0.00903783
0.00958466
0.0100706
0.0105064
0.0108939
0.0112242
0.0114842
0.0116585
0.0117345
0.0117078
0.0115699
0.0113231
0.0109731
0.0105156
0.00731401
0.00877433
0.0101974
0.0115244
0.01276
0.0139343
0.0150789
0.0162186
0.0173616
0.0185041
0.0196269
0.0207096
0.0217248
0.022651
0.0234697
0.0241672
0.0247346
0.0251708
0.0254629
0.025615
0.0112503
0.0130803
0.0148144
0.0164669
0.0180721
0.0196614
0.0212522
0.022846
0.0244296
0.0259794
0.0274692
0.028869
0.0301561
0.0313114
0.0323174
0.0331655
0.033849
0.0343615
0.0347039
0.0348711
0.0153884
0.0174792
0.0194843
0.021436
0.0233644
0.0252844
0.0271945
0.0290791
0.0309158
0.0326774
0.0343358
0.0358705
0.0372607
0.0384935
0.0395595
0.0404535
0.0411686
0.041703
0.0420571
0.0422245
0.0196164
0.0219308
0.0241788
0.0263847
0.0285639
0.0307164
0.0328292
0.0348811
0.0368473
0.038704
0.04043
0.0420085
0.0434276
0.0446777
0.0457542
0.0466527
0.0473716
0.0479077
0.048259
0.048426
0.0238947
0.0264115
0.0288631
0.0312636
0.0336164
0.0359132
0.0381368
0.040266
0.0422804
0.0441619
0.0458949
0.0474691
0.0488763
0.0501116
0.0511729
0.0520566
0.052763
0.0532891
0.0536335
0.0537944
0.0281999
0.0308893
0.0334972
0.0360305
0.0384873
0.040857
0.0431226
0.045268
0.0472777
0.0491396
0.0508441
0.0523851
0.0537584
0.054961
0.0559922
0.0568511
0.0575354
0.058045
0.0583776
0.0585306
0.0325096
0.035332
0.0380462
0.0406567
0.0431597
0.0455465
0.0478059
0.0499253
0.0518963
0.0537118
0.0553668
0.0568575
0.0581836
0.0593431
0.0603365
0.0611624
0.0618205
0.0623091
0.0626269
0.062771
0.0367813
0.0397085
0.0424842
0.0451231
0.0476269
0.0499907
0.0522086
0.0542751
0.0561856
0.0579377
0.0595296
0.0609613
0.0622317
0.0633422
0.0642924
0.0650816
0.0657095
0.0661746
0.0664747
0.0666076
0.0410289
0.0440007
0.0467921
0.0494194
0.051888
0.0541998
0.056353
0.0583479
0.0601843
0.0618633
0.0633849
0.0647504
0.0659613
0.0670184
0.0679217
0.0686715
0.0692659
0.0697047
0.0699854
0.0701057
0.0452215
0.0481873
0.0509548
0.0535376
0.0559452
0.0581834
0.060257
0.0621689
0.0639228
0.0655217
0.0669686
0.0682652
0.0694131
0.0704141
0.0712683
0.0719753
0.0725345
0.0729445
0.0732032
0.0733088
0.0493043
0.052242
0.0549574
0.0574716
0.0597992
0.0619503
0.0639333
0.0657557
0.0674225
0.0689382
0.0703073
0.0715323
0.0726156
0.0735583
0.0743611
0.0750235
0.0755448
0.0759235
0.0761584
0.0762462
0.0532727
0.0561486
0.0587874
0.0612146
0.0634488
0.0655042
0.0673913
0.0691197
0.0706968
0.072128
0.0734181
0.0745706
0.0755873
0.0764702
0.0772193
0.077835
0.0783159
0.078661
0.0788684
0.0789365
0.0571186
0.059892
0.0624315
0.0647583
0.0668908
0.0688451
0.0706337
0.0722674
0.0737542
0.0751003
0.0763112
0.0773901
0.0783395
0.0791609
0.0798547
0.0804209
0.0808588
0.0811673
0.0813446
0.081389
0.0607811
0.0634389
0.0658695
0.0680893
0.0701168
0.0719688
0.0736592
0.0751987
0.0765964
0.0778588
0.0789906
0.0799961
0.0808772
0.0816358
0.0822724
0.0827868
0.0831789
0.0834472
0.0835907
0.0836075
0.0641775
0.0667496
0.0690767
0.0711902
0.0731138
0.074866
0.0764606
0.0779095
0.0792207
0.080401
0.0814558
0.0823882
0.083201
0.0838958
0.0844732
0.0849337
0.0852766
0.0855014
0.085607
0.0855916
0.0673717
0.0698247
0.0720386
0.0740448
0.0758667
0.0775228
0.079027
0.0803898
0.0816194
0.082722
0.083702
0.0845635
0.0853085
0.0859389
0.0864558
0.0868596
0.0871505
0.0873277
0.0873906
0.0873375
0.0703127
0.0726374
0.0747325
0.07663
0.0783537
0.0799196
0.0813403
0.0826252
0.0837806
0.084812
0.0857231
0.0865168
0.0871958
0.0877619
0.0882168
0.0885616
0.0887969
0.0889225
0.0889373
0.0888406
0.0729856
0.0751615
0.0771263
0.0789121
0.0805419
0.0820264
0.0833736
0.0845926
0.0856866
0.0866585
0.0875106
0.088244
0.0888608
0.0893629
0.0897531
0.0900355
0.0902115
0.0902813
0.0902434
0.0900956
0.0753794
0.0773624
0.0791726
0.0808315
0.0823781
0.0837989
0.0850825
0.0862553
0.087311
0.0882435
0.0890567
0.0897438
0.0903094
0.0907466
0.0910617
0.0912724
0.0913838
0.0913991
0.0913094
0.0910978
0.0105086
0.0109598
0.0112969
0.0115334
0.0116613
0.0116845
0.0116061
0.0114377
0.0111954
0.0108991
0.0105732
0.0102428
0.00993146
0.00966518
0.00948296
0.00944278
0.00963139
0.0101614
0.0111517
0.0126962
0.0256032
0.0254175
0.0250983
0.0246395
0.0240499
0.0233323
0.0225009
0.0215681
0.0205552
0.0194884
0.018397
0.0173133
0.016268
0.0152912
0.0144135
0.0136758
0.0131427
0.0129177
0.0131395
0.0139419
0.0348514
0.0346491
0.0342696
0.0337221
0.0330068
0.0321314
0.0311014
0.0299292
0.028632
0.0272305
0.0257543
0.024234
0.0227071
0.021211
0.0197836
0.0184647
0.0173072
0.0163908
0.0158392
0.0158069
0.0422039
0.041991
0.0415974
0.0410198
0.0402664
0.0393385
0.0382403
0.0369797
0.0355678
0.0340208
0.0323572
0.0306058
0.0287968
0.0269665
0.0251546
0.0234017
0.0217549
0.0202764
0.0190614
0.0182474
0.0484021
0.0481879
0.0477878
0.0472058
0.0464432
0.0455018
0.0443862
0.0430994
0.041649
0.0400438
0.0382993
0.0364326
0.0344688
0.0324376
0.0303725
0.0283119
0.0262969
0.0243783
0.0226261
0.021144
0.0537677
0.0535547
0.0531578
0.0525798
0.0518229
0.0508899
0.0497816
0.0485005
0.0470506
0.0454381
0.0436701
0.0417604
0.039724
0.0375828
0.0353638
0.0330976
0.0308179
0.0285646
0.0263894
0.0243621
0.0585022
0.0582908
0.0578999
0.0573326
0.05659
0.0556748
0.0545872
0.0533288
0.0519016
0.0503075
0.0485524
0.0466414
0.044585
0.042397
0.0400952
0.0377019
0.0352418
0.0327444
0.0302445
0.0277837
0.0627388
0.0625296
0.0621473
0.0615922
0.0608684
0.0599757
0.0589157
0.057689
0.0562953
0.0547359
0.0530118
0.0511258
0.0490823
0.0468881
0.0445538
0.0420922
0.0395193
0.0368531
0.0341142
0.0313258
0.0665708
0.0663643
0.0659888
0.0654485
0.0647434
0.0638763
0.062847
0.0616555
0.0603009
0.0587828
0.0571007
0.055254
0.0532431
0.0510696
0.0487368
0.0462503
0.0436163
0.0408423
0.037937
0.0349096
0.0700631
0.0698566
0.0694889
0.0689614
0.0682763
0.0674342
0.0664356
0.06528
0.0639659
0.0624924
0.0608571
0.0590575
0.0570904
0.0549538
0.0526457
0.0501645
0.0475081
0.0446754
0.0416635
0.0384699
0.0732581
0.0730512
0.0726886
0.0721729
0.071506
0.0706873
0.0697184
0.0685976
0.0673236
0.0658943
0.064307
0.0625567
0.0606396
0.0585493
0.0562803
0.0538249
0.0511754
0.0483219
0.045252
0.0419513
0.0761855
0.0759748
0.0756155
0.0751096
0.0744577
0.0736606
0.0727184
0.0716297
0.0703932
0.0690064
0.0674649
0.0657646
0.0638985
0.0618593
0.0596374
0.0572222
0.0546004
0.0517555
0.0486668
0.0453083
0.0788624
0.0786452
0.0782863
0.0777864
0.0771466
0.0763671
0.0754477
0.0743879
0.0731852
0.0718366
0.0703383
0.0686847
0.066869
0.0648814
0.0627116
0.0603454
0.0577657
0.0549516
0.0518752
0.0485025
0.081298
0.0810709
0.0807078
0.0802101
0.0795781
0.0788116
0.0779108
0.0768746
0.0757004
0.0743851
0.0729249
0.0713144
0.0695455
0.0676086
0.0654917
0.063179
0.0606516
0.0578848
0.0548465
0.0514975
0.0834955
0.0832534
0.0828818
0.0823808
0.0817511
0.0809924
0.0801041
0.0790852
0.0779331
0.0766452
0.0752171
0.0736434
0.0719167
0.0700268
0.0679613
0.0657043
0.0632356
0.0605288
0.0575495
0.0542565
0.0854532
0.0851909
0.0848043
0.0842943
0.0836603
0.082902
0.0820188
0.0810094
0.079872
0.0786033
0.0771994
0.0756553
0.0739639
0.0721159
0.0700991
0.0678975
0.0654905
0.0628517
0.0599444
0.0567206
0.0871671
0.0868778
0.0864697
0.0859426
0.085296
0.0845291
0.0836416
0.082632
0.0814987
0.0802392
0.0788499
0.0773265
0.0756624
0.0738495
0.0718765
0.0697283
0.0673857
0.064823
0.0620047
0.058887
0.0886311
0.0883076
0.0878697
0.0873167
0.0866473
0.0858605
0.0849556
0.0839319
0.082789
0.0815251
0.0801384
0.0786246
0.0769785
0.0751927
0.0732575
0.0711596
0.0688816
0.0663994
0.0636809
0.0606954
0.089838
0.0894722
0.0889967
0.0884096
0.0877061
0.0868826
0.0859401
0.0848811
0.0837087
0.0824233
0.081024
0.0795073
0.0778677
0.0760994
0.0741954
0.0721444
0.0699305
0.0675379
0.0649502
0.0621495
0.090773
0.0903557
0.0898415
0.0892259
0.0884788
0.0875866
0.0865683
0.0854342
0.0842054
0.0828758
0.0814515
0.0799201
0.0782734
0.0765091
0.0746283
0.0726262
0.070494
0.0682087
0.065765
0.0631828
8.0434e-05
0.000428588
0.000807387
0.00123806
0.00173881
0.00229951
0.00293495
0.00364618
0.00444157
0.00532235
0.00630162
0.00738419
0.00858251
0.00990606
0.0113521
0.0129174
0.0145899
0.0163421
0.0181345
0.0198904
1.20844e-13
3.07259e-11
7.47043e-10
8.28627e-09
1.17714e-06
2.67627e-05
0.000548936
0.000923703
0.00139861
0.00198284
0.00269146
0.00354039
0.00454389
0.00571441
0.00706058
0.00858408
0.0102775
0.0121236
0.0140898
0.0161214
0
0
0
5.51559e-15
3.08183e-06
0.000176451
0.000401795
0.000640063
0.000944898
0.00133495
0.00182838
0.00244435
0.0032028
0.0041239
0.00522606
0.00652382
0.00802501
0.00972835
0.0116212
0.0136761
4.61875e-18
6.17769e-16
3.30805e-09
1.1179e-06
0.000108942
0.00024313
0.000388115
0.00057083
0.000806278
0.00110954
0.00149708
0.00198727
0.00260055
0.00335895
0.00428501
0.00540021
0.00672265
0.00826452
0.0100291
0.0120063
8.07198e-09
5.21931e-07
5.44695e-06
3.64028e-05
0.000118597
0.000222678
0.000347291
0.000504235
0.000705196
0.000963171
0.00129279
0.00171083
0.00223663
0.00289176
0.00369967
0.00468462
0.00587017
0.00727709
0.00892072
0.0108069
1.1301e-08
9.23717e-07
7.99477e-06
3.3867e-05
9.67005e-05
0.000189492
0.000302127
0.000442457
0.000620654
0.000848611
0.00113967
0.00150928
0.00197546
0.00255891
0.00328272
0.0041721
0.00525326
0.00655184
0.00809074
0.00988562
1.0086e-08
8.12108e-07
6.73116e-06
2.74414e-05
7.65721e-05
0.000160465
0.000264053
0.00039125
0.000552141
0.000757484
0.00101968
0.00135312
0.00177475
0.00230427
0.00296423
0.00378
0.00477903
0.00598988
0.00744057
0.0091551
8.92568e-09
7.26927e-07
5.9738e-06
2.38038e-05
6.27725e-05
0.000137279
0.000233252
0.000350075
0.000497376
0.000684944
0.000924443
0.00122945
0.00161602
0.00210303
0.00271254
0.00346981
0.00440318
0.00554383
0.00692558
0.00858616
8.23401e-09
6.9078e-07
5.76155e-06
2.28059e-05
5.79703e-05
0.00012018
0.000208804
0.000317336
0.000453323
0.000626484
0.000847596
0.00112957
0.00148764
0.00193991
0.00250777
0.00321598
0.00409268
0.00516897
0.00647716
0.00804595
7.68018e-09
6.59441e-07
5.58806e-06
2.20532e-05
5.47437e-05
0.000106886
0.000188814
0.000290485
0.000417065
0.000578362
0.000784321
0.00104716
0.0013814
0.00180447
0.00233698
0.00300301
0.00383032
0.00484997
0.00609528
0.00760084
7.17794e-09
6.28985e-07
5.37357e-06
2.1233e-05
5.21461e-05
9.86275e-05
0.000172549
0.000268047
0.000386765
0.000537985
0.000731155
0.000977791
0.00129183
0.00168999
0.00219219
0.00282205
0.00360715
0.00457912
0.00577408
0.00723442
6.8168e-09
6.07834e-07
5.2775e-06
2.1017e-05
5.14145e-05
9.55669e-05
0.000159802
0.000249275
0.000361285
0.000503605
0.000685799
0.000918589
0.00121529
0.00159199
0.00206801
0.00266645
0.00341446
0.00434346
0.00548888
0.00688824
6.50144e-09
5.89749e-07
5.17146e-06
2.07315e-05
5.05551e-05
9.26668e-05
0.000149146
0.000233146
0.000339286
0.000473814
0.000646523
0.000867313
0.00114895
0.00150694
0.00196005
0.00253082
0.00324597
0.00413681
0.00523954
0.00659639
6.20142e-09
5.68577e-07
5.03526e-06
2.03023e-05
4.9534e-05
9.01644e-05
0.000142099
0.000219513
0.000320182
0.000447907
0.000612134
0.000822393
0.00109078
0.00143228
0.00186511
0.00241117
0.00309659
0.00395214
0.00501287
0.00631699
5.94513e-09
5.53051e-07
4.94556e-06
2.01403e-05
4.92819e-05
8.94045e-05
0.000139229
0.000208444
0.000303667
0.000425331
0.000581764
0.000782628
0.00103926
0.00136611
0.00178081
0.00230472
0.00296351
0.00378763
0.00481283
0.00608132
5.72173e-09
5.3809e-07
4.87249e-06
2.00434e-05
4.91976e-05
8.89247e-05
0.000136982
0.000199033
0.000289172
0.000405331
0.000554667
0.00074707
0.000993169
0.00130685
0.00170521
0.0022091
0.00284361
0.00363868
0.00462933
0.00585553
5.50265e-09
5.22651e-07
4.77067e-06
1.97754e-05
4.87229e-05
8.79046e-05
0.000134378
0.000191288
0.000276252
0.000387306
0.000530193
0.000714962
0.00095154
0.00125326
0.00163671
0.00212216
0.00273399
0.00350117
0.00445725
0.00563944
5.29533e-09
5.07234e-07
4.66505e-06
1.9512e-05
4.83298e-05
8.72569e-05
0.000132942
0.000187214
0.000265331
0.000371296
0.000508373
0.000685831
0.000913608
0.00120431
0.00157397
0.00204221
0.00263265
0.00337324
0.00429649
0.00543857
5.10646e-09
4.94097e-07
4.59141e-06
1.93909e-05
4.82781e-05
8.72424e-05
0.000132562
0.000185171
0.000256114
0.000356996
0.000488603
0.000659139
0.000878734
0.00115926
0.00151608
0.00196828
0.00253884
0.00325515
0.0041497
0.00526085
4.95406e-09
4.83011e-07
4.52508e-06
1.92778e-05
4.82424e-05
8.72251e-05
0.000132121
0.000183122
0.000247911
0.000343988
0.000470445
0.000634509
0.000846481
0.00111749
0.00146241
0.00189968
0.00245174
0.00314543
0.00401238
0.00508866
4.78016e-09
4.69226e-07
4.42948e-06
1.9033e-05
4.79136e-05
8.67665e-05
0.000131184
0.000180768
0.000241004
0.000332008
0.000453514
0.000611483
0.000816354
0.00107856
0.00141248
0.00183605
0.0023713
0.00304499
0.00388945
0.00494473
4.60809e-09
4.55789e-07
4.32991e-06
1.87642e-05
4.75344e-05
8.63183e-05
0.000130501
0.000179298
0.000237006
0.000321502
0.000437989
0.000590317
0.000788243
0.00104218
0.00136588
0.00177687
0.00229675
0.00295202
0.0037747
0.00480286
4.45838e-09
4.43182e-07
4.233e-06
1.85594e-05
4.73305e-05
8.62168e-05
0.000130402
0.000178812
0.000234899
0.00031246
0.000423878
0.000570833
0.000762115
0.00100837
0.0013226
0.00172188
0.00222742
0.00286519
0.00366623
0.00466696
4.28347e-09
4.27476e-07
4.15823e-06
1.83618e-05
4.71712e-05
8.62212e-05
0.000130429
0.000178451
0.00023303
0.000304469
0.000411038
0.000552912
0.000737961
0.000977021
0.00128244
0.00167079
0.00216281
0.00278368
0.00356359
0.00453773
4.1537e-09
4.19264e-07
4.06084e-06
1.8095e-05
4.68726e-05
8.59526e-05
0.000130109
0.000177693
0.000230828
0.000297363
0.000399271
0.000536353
0.000715551
0.000947925
0.00124509
0.00162314
0.00210221
0.00270674
0.00346587
0.00441326
4.04379e-09
4.06674e-07
3.96606e-06
1.77757e-05
4.63514e-05
8.53964e-05
0.000129492
0.000176741
0.000228844
0.000292171
0.000388698
0.000521093
0.000694817
0.000920764
0.00121015
0.00157842
0.00204511
0.0026341
0.00337381
0.00429747
3.93502e-09
3.95465e-07
3.85357e-06
1.74112e-05
4.5789e-05
8.479e-05
0.000128907
0.000176053
0.000227659
0.000289188
0.000379501
0.000507142
0.000675729
0.0008954
0.0011774
0.0015365
0.00199178
0.00256688
0.0032907
0.00419958
3.81313e-09
3.84261e-07
3.77282e-06
1.70987e-05
4.53203e-05
8.43138e-05
0.000128516
0.000175675
0.000226987
0.000287155
0.000371367
0.000494346
0.000658017
0.000871663
0.00114672
0.00149728
0.00194204
0.00250434
0.00321287
0.00410218
3.72485e-09
3.7506e-07
3.68296e-06
1.68317e-05
4.4896e-05
8.39308e-05
0.000128223
0.000175389
0.000226349
0.000285176
0.000364007
0.000482543
0.000641529
0.000849443
0.00111796
0.0014606
0.00189554
0.00244577
0.00313927
0.00400937
3.60933e-09
3.64804e-07
3.59191e-06
1.65175e-05
4.44129e-05
8.34211e-05
0.000127743
0.000174849
0.000225395
0.00028292
0.000357205
0.000471515
0.000626071
0.000828589
0.00109097
0.00142607
0.00185171
0.00239024
0.00306872
0.00391887
3.50969e-09
3.54765e-07
3.50295e-06
1.61999e-05
4.38453e-05
8.27382e-05
0.000127033
0.000174008
0.000224156
0.000280568
0.000351328
0.000461241
0.000611526
0.000808942
0.00106553
0.00139355
0.0018104
0.00233815
0.0030039
0.00384153
3.44413e-09
3.46641e-07
3.43091e-06
1.59119e-05
4.32639e-05
8.20171e-05
0.000126238
0.000173126
0.000223001
0.000278649
0.000347078
0.000451925
0.000597965
0.000790629
0.00104155
0.0013629
0.00177149
0.00228901
0.00294216
0.00376298
3.37996e-09
3.39254e-07
3.3559e-06
1.56116e-05
4.27073e-05
8.13045e-05
0.000125509
0.000172384
0.000222143
0.000277347
0.000344258
0.00044362
0.000585412
0.000773517
0.0010189
0.0013339
0.0017348
0.00224285
0.00288463
0.00369295
3.26877e-09
3.28709e-07
3.28411e-06
1.53259e-05
4.21732e-05
8.0704e-05
0.000124917
0.000171834
0.000221551
0.000276438
0.000342122
0.000436123
0.00057372
0.000757477
0.000997587
0.00130654
0.0017001
0.0021992
0.00282996
0.0036243
3.19846e-09
3.23651e-07
3.22192e-06
1.50892e-05
4.17667e-05
8.02309e-05
0.000124474
0.000171423
0.000221082
0.000275653
0.000340145
0.000429255
0.000562814
0.000742353
0.000977418
0.00128064
0.00166722
0.00215774
0.00277784
0.00355871
3.138e-09
3.16371e-07
3.16537e-06
1.48667e-05
4.13735e-05
7.9769e-05
0.000124036
0.000170994
0.000220575
0.000274765
0.000338056
0.00042281
0.000552559
0.000728071
0.00095826
0.00125604
0.00163608
0.00211845
0.00272857
0.00349777
3.07907e-09
3.11222e-07
3.10509e-06
1.46446e-05
4.09523e-05
7.924e-05
0.000123513
0.000170484
0.000219954
0.000273721
0.000335854
0.000416839
0.000542882
0.000714559
0.000940113
0.00123267
0.00160636
0.00208089
0.00268103
0.00343685
3.02853e-09
3.04763e-07
3.05115e-06
1.4419e-05
4.05056e-05
7.86674e-05
0.000122921
0.000169865
0.000219176
0.000272544
0.000333676
0.000411597
0.000533753
0.000701665
0.000922757
0.00121039
0.00157809
0.00204516
0.00263631
0.00338249
2.95582e-09
2.98302e-07
2.98493e-06
1.41702e-05
4.00232e-05
7.80435e-05
0.000122255
0.000169168
0.000218362
0.00027142
0.000331781
0.000407485
0.000525326
0.00068954
0.000906499
0.00118922
0.00155116
0.00201132
0.00259436
0.00333141
2.89333e-09
2.92052e-07
2.93322e-06
1.39476e-05
3.95809e-05
7.74521e-05
0.000121604
0.000168501
0.000217651
0.000270523
0.000330381
0.000404541
0.000517621
0.000678104
0.000891089
0.00116902
0.00152549
0.001979
0.00255365
0.00327895
2.8521e-09
2.87339e-07
2.88198e-06
1.37596e-05
3.91798e-05
7.69262e-05
0.000121036
0.000167954
0.000217113
0.000269896
0.000329425
0.000402401
0.000510641
0.000667419
0.000876559
0.00114986
0.00150118
0.00194862
0.00251663
0.00323741
2.80423e-09
2.82268e-07
2.83851e-06
1.35721e-05
3.88187e-05
7.64894e-05
0.0001206
0.000167543
0.000216733
0.00026948
0.000328725
0.000400609
0.000504213
0.000657346
0.000862765
0.00113168
0.00147818
0.00192013
0.00248209
0.00319574
2.78271e-09
2.78764e-07
2.80136e-06
1.3411e-05
3.85173e-05
7.61221e-05
0.000120243
0.000167232
0.00021645
0.000269152
0.000328102
0.000398927
0.000498235
0.000647876
0.000849741
0.00111444
0.00145636
0.00189288
0.00244783
0.00315037
2.75564e-09
2.75364e-07
2.76186e-06
1.32663e-05
3.82407e-05
7.57784e-05
0.000119937
0.000166976
0.000216207
0.000268821
0.000327443
0.000397219
0.000492608
0.000638902
0.000837346
0.0010981
0.00143573
0.00186733
0.00241682
0.00311557
2.71709e-09
2.71111e-07
2.72365e-06
1.31221e-05
3.79503e-05
7.54593e-05
0.000119635
0.000166703
0.000215935
0.000268459
0.000326726
0.00039546
0.000487344
0.000630455
0.000825624
0.00108249
0.00141578
0.00184172
0.00238225
0.00306104
2.68401e-09
2.66926e-07
2.69112e-06
1.29868e-05
3.76782e-05
7.51098e-05
0.000119286
0.00016638
0.000215611
0.000268014
0.000325913
0.000393688
0.000482496
0.000622395
0.000814382
0.00106746
0.0013965
0.00181729
0.00235226
0.00303235
2.63578e-09
2.62824e-07
2.65584e-06
1.28479e-05
3.73772e-05
7.47208e-05
0.000118896
0.000166011
0.000215228
0.000267513
0.000325074
0.000391995
0.000478252
0.000614773
0.00080361
0.00105301
0.00137784
0.00179339
0.0023212
0.00298681
2.58565e-09
2.58343e-07
2.62038e-06
1.26924e-05
3.70657e-05
7.43213e-05
0.000118485
0.000165617
0.000214821
0.000267016
0.000324318
0.000390574
0.000474869
0.000607634
0.00079331
0.00103916
0.00135965
0.0017698
0.00229016
0.00294608
2.55664e-09
2.56062e-07
2.59396e-06
1.25681e-05
3.68125e-05
7.39803e-05
0.000118115
0.000165251
0.000214449
0.000266597
0.000323718
0.000389501
0.000472361
0.000601027
0.0007835
0.00102585
0.00134209
0.00174736
0.00226279
0.00291831
2.53556e-09
2.53865e-07
2.57155e-06
1.24671e-05
3.65851e-05
7.36839e-05
0.000117802
0.000164962
0.000214196
0.000266342
0.000323373
0.000388838
0.000470557
0.000594921
0.000774116
0.00101304
0.00132517
0.00172593
0.00223599
0.00288265
2.51213e-09
2.51819e-07
2.54912e-06
1.23704e-05
3.6396e-05
7.34309e-05
0.00011757
0.00016478
0.000214066
0.000266243
0.000323232
0.000388447
0.000469186
0.00058926
0.000765173
0.0010008
0.00130903
0.00170558
0.00221111
0.00285413
2.49216e-09
2.49266e-07
2.52583e-06
1.2284e-05
3.62184e-05
7.32241e-05
0.000117402
0.000164669
0.000214028
0.000266265
0.000323228
0.000388211
0.000468022
0.000583987
0.000756699
0.000989108
0.0012936
0.00168606
0.00218655
0.00282122
2.45978e-09
2.46603e-07
2.5036e-06
1.22011e-05
3.60635e-05
7.30419e-05
0.000117258
0.000164619
0.000214082
0.000266388
0.000323338
0.000388079
0.000466945
0.000579012
0.000748601
0.00097788
0.00127867
0.00166692
0.00216165
0.00278727
2.44114e-09
2.44561e-07
2.48699e-06
1.21293e-05
3.59337e-05
7.29256e-05
0.000117199
0.000164639
0.000214181
0.000266555
0.000323481
0.000387954
0.000465891
0.000574312
0.000740875
0.000967096
0.00126429
0.00164844
0.00213817
0.00275901
2.42933e-09
2.43258e-07
2.47209e-06
1.20667e-05
3.58239e-05
7.28241e-05
0.00011717
0.0001647
0.000214316
0.000266733
0.000323613
0.0003878
0.000464794
0.000569821
0.000733448
0.000956674
0.00125018
0.00162985
0.00211298
0.00272106
2.40137e-09
2.40806e-07
2.45277e-06
1.19953e-05
3.57025e-05
7.271e-05
0.000117121
0.000164737
0.000214451
0.000266913
0.000323724
0.000387607
0.000463691
0.000565606
0.000726281
0.000946507
0.00123641
0.00161206
0.002091
0.00270002
2.39197e-09
2.39361e-07
2.43372e-06
1.19317e-05
3.55868e-05
7.26103e-05
0.000117079
0.000164787
0.000214588
0.000267078
0.000323809
0.000387379
0.000462584
0.000561706
0.000719378
0.000936637
0.00122295
0.00159449
0.00206797
0.00266595
2.39847e-09
2.3846e-07
2.42179e-06
1.18756e-05
3.54982e-05
7.25319e-05
0.00011705
0.000164846
0.000214703
0.000267214
0.000323885
0.000387178
0.0004616