/*--------------------------------*- C++ -*----------------------------------*\
| =========                 |                                                 |
| \\      /  F ield         | OpenFOAM: The Open Source CFD Toolbox           |
|  \\    /   O peration     | Version:  2.3.0                                 |
|   \\  /    A nd           | Web:      www.OpenFOAM.org                      |
|    \\/     M anipulation  |                                                 |
\*---------------------------------------------------------------------------*/
FoamFile
{
    version     2.0;
    format      ascii;
    class       volScalarField;
    location    "150";
    object      p;
}
// * * * * * * * * * * * * * * * * * * * * * * * * * * * * * * * * * * * * * //

dimensions      [0 2 -2 0 0 0 0];

internalField   nonuniform List<scalar> 
28256
(
-0.203451
20.3264
35.4899
48.569
59.1652
66.4559
70.2922
71.3458
69.5669
65.6895
60.2769
53.2291
45.1482
35.6524
25.1534
12.9167
0.676931
-12.9111
-20.8913
-30.5546
-5.89071
9.72218
20.8113
30.3057
38.1837
44.2131
48.3645
50.6826
50.6771
48.3291
43.258
35.5327
25.0796
12.4905
-2.31934
-18.6661
-36.2398
-54.3519
-73.9411
-92.4305
-12.5083
-0.410284
7.28157
13.0792
16.7491
17.9626
16.9211
13.5476
8.22604
1.32541
-6.90998
-16.0406
-25.9117
-36.0904
-46.7933
-57.3606
-68.2354
-78.889
-89.6476
-100.115
-20.9311
-10.3209
-5.07121
-1.7239
-0.183862
-0.58322
-2.65815
-6.3694
-11.4061
-17.5161
-24.5854
-32.3929
-40.7345
-49.3728
-58.2876
-67.2346
-76.2667
-85.2283
-94.1291
-102.769
-29.7039
-20.1815
-16.8117
-15.3561
-15.5505
-17.3597
-20.5571
-24.9381
-30.222
-36.2028
-42.6845
-49.4749
-56.4271
-63.4966
-70.6225
-77.7428
-84.7859
-91.719
-98.585
-105.276
-37.8517
-29.4764
-27.3841
-27.1565
-28.2362
-30.5354
-33.8843
-38.046
-42.85
-48.0857
-53.6295
-59.4164
-65.3562
-71.3472
-77.3621
-83.3609
-89.2823
-95.1347
-100.921
-106.594
-45.075
-38.2795
-37.0927
-37.5943
-39.166
-41.6709
-44.963
-48.8388
-53.1757
-57.8144
-62.6864
-67.6902
-72.7616
-77.8576
-82.9465
-88.0098
-93.0801
-98.0635
-102.932
-107.704
-49.7746
-46.1308
-45.7244
-46.6078
-48.3629
-50.8379
-53.914
-57.4271
-61.2621
-65.3201
-69.534
-73.8586
-78.2384
-82.6558
-87.0978
-91.5111
-95.8779
-100.18
-104.418
-108.569
-54.248
-53.3201
-53.4737
-54.5494
-56.3269
-58.6401
-61.4024
-64.495
-67.8485
-71.4003
-75.072
-78.8383
-82.6653
-86.5155
-90.3639
-94.1837
-97.972
-101.755
-105.461
-109.1
-60.7932
-60.0641
-60.3968
-61.5217
-63.1957
-65.3195
-67.7954
-70.5246
-73.4484
-76.5214
-79.7187
-82.9929
-86.3148
-89.6827
-93.0519
-96.4571
-99.7994
-103.107
-106.381
-109.588
-67.8328
-66.1836
-66.5658
-67.7133
-69.2669
-71.1252
-73.2552
-75.6154
-78.1529
-80.8323
-83.6099
-86.4707
-89.3686
-92.3296
-95.2695
-98.2306
-101.199
-104.119
-106.98
-109.831
-73.5713
-71.6554
-72.1127
-73.2131
-74.6052
-76.2384
-78.0903
-80.1272
-82.304
-84.5915
-86.9674
-89.4331
-91.9581
-94.5272
-97.1283
-99.7043
-102.286
-104.873
-107.435
-109.943
-77.3648
-76.4898
-77.1127
-78.1568
-79.3722
-80.7652
-82.335
-84.0474
-85.8883
-87.855
-89.926
-92.0605
-94.2433
-96.4651
-98.7252
-101.009
-103.285
-105.534
-107.789
-110.007
-81.922
-81.3673
-81.8417
-82.6918
-83.7059
-84.8547
-86.1447
-87.5729
-89.1202
-90.7536
-92.4847
-94.2763
-96.1297
-98.0414
-99.9862
-101.947
-103.942
-105.931
-107.887
-109.834
-86.1464
-85.7235
-86.056
-86.7269
-87.54
-88.4652
-89.5125
-90.6559
-91.9056
-93.2523
-94.6892
-96.2148
-97.8131
-99.4465
-101.126
-102.83
-104.534
-106.251
-107.991
-109.706
-89.7436
-89.6489
-89.912
-90.3927
-90.99
-91.6687
-92.443
-93.3352
-94.3216
-95.4001
-96.5585
-97.7905
-99.0998
-100.466
-101.88
-103.323
-104.804
-106.298
-107.783
-109.274
-92.9966
-93.107
-93.2605
-93.5545
-93.9372
-94.4099
-94.9696
-95.6255
-96.3758
-97.2293
-98.1767
-99.2008
-100.298
-101.457
-102.674
-103.933
-105.206
-106.497
-107.803
-109.108
-95.9029
-95.9848
-95.9896
-96.1017
-96.2802
-96.5142
-96.8235
-97.2078
-97.7046
-98.2688
-98.931
-99.6911
-100.563
-101.5
-102.5
-103.56
-104.656
-105.764
-106.903
-108.055
-98.6563
-98.5948
-98.4981
-98.4989
-98.6039
-98.8109
-99.1314
-99.5228
-99.9974
-100.542
-101.164
-101.867
-102.697
-103.598
-104.571
-105.511
-106.428
-107.351
-108.322
-109.328
-101.075
-100.498
-99.4919
-98.4556
-97.6457
-97.1418
-96.6671
-96.3241
-96.0508
-96.1078
-96.3805
-96.6099
-96.821
-96.9883
-97.7183
-99.0536
-100.416
-101.405
-102.122
-102.712
-89.0006
-130.097
-155.413
-174.955
-192.772
-207.956
-221.039
-231.688
-240.191
-246.683
-251.133
-253.587
-253.867
-251.875
-247.468
-240.691
-231.781
-221.224
-209.415
-200.269
-109.98
-127.658
-146.087
-162.834
-178.829
-193.31
-205.917
-216.861
-225.503
-231.873
-235.73
-237.362
-236.793
-234.344
-230.297
-224.844
-218.162
-210.344
-201.349
-195.437
-110.335
-120.315
-130.409
-140.395
-149.911
-159.35
-168.325
-177.026
-185.037
-192.41
-198.725
-203.88
-207.612
-209.658
-209.948
-208.393
-205.134
-200.269
-193.912
-189.503
-111.215
-119.608
-127.827
-135.943
-143.922
-151.687
-159.153
-166.263
-172.885
-179.011
-184.322
-188.81
-192.338
-194.666
-195.83
-195.639
-194.09
-191.122
-186.714
-182.864
-111.766
-118.201
-124.553
-130.796
-136.924
-142.871
-148.72
-154.41
-159.862
-165.053
-169.902
-174.276
-178.008
-181.023
-183.104
-184.117
-183.982
-182.596
-179.884
-176.813
-112.153
-117.593
-122.927
-128.137
-133.237
-138.266
-143.162
-147.912
-152.509
-156.878
-161.012
-164.817
-168.212
-171.076
-173.314
-174.8
-175.384
-174.998
-173.559
-172.365
-112.377
-116.947
-121.471
-125.894
-130.214
-134.403
-138.557
-142.582
-146.471
-150.202
-153.747
-157.084
-160.153
-162.887
-165.148
-166.852
-167.884
-168.139
-167.485
-167.153
-112.633
-116.59
-120.489
-124.275
-128.03
-131.67
-135.189
-138.621
-141.954
-145.203
-148.302
-151.25
-153.978
-156.434
-158.56
-160.269
-161.463
-162.056
-161.959
-162.272
-112.685
-116.169
-119.57
-122.871
-126.124
-129.32
-132.428
-135.436
-138.33
-141.148
-143.851
-146.379
-148.777
-150.988
-152.955
-154.625
-155.902
-156.679
-156.932
-157.644
-112.697
-115.775
-118.831
-121.78
-124.624
-127.379
-130.094
-132.762
-135.323
-137.791
-140.164
-142.433
-144.551
-146.507
-148.275
-149.798
-151.03
-151.907
-152.374
-153.276
-112.639
-115.363
-118.005
-120.586
-123.128
-125.623
-128.037
-130.376
-132.619
-134.804
-136.891
-138.876
-140.758
-142.521
-144.11
-145.52
-146.694
-147.564
-148.167
-149.205
-112.413
-114.833
-117.222
-119.549
-121.835
-124.019
-126.14
-128.213
-130.213
-132.149
-134.017
-135.797
-137.468
-139.014
-140.432
-141.688
-142.752
-143.603
-144.255
-145.318
-112.197
-114.339
-116.442
-118.476
-120.463
-122.42
-124.327
-126.174
-127.969
-129.687
-131.317
-132.868
-134.339
-135.73
-137.007
-138.158
-139.155
-139.95
-140.613
-141.669
-111.762
-113.66
-115.528
-117.349
-119.135
-120.881
-122.574
-124.211
-125.792
-127.319
-128.785
-130.189
-131.516
-132.74
-133.868
-134.871
-135.743
-136.49
-137.143
-138.119
-111.398
-113.062
-114.688
-116.3
-117.874
-119.404
-120.9
-122.343
-123.737
-125.086
-126.391
-127.61
-128.756
-129.835
-130.829
-131.748
-132.54
-133.194
-133.811
-134.747
-110.757
-112.235
-113.703
-115.126
-116.523
-117.889
-119.208
-120.509
-121.767
-122.96
-124.092
-125.184
-126.219
-127.169
-128.051
-128.845
-129.551
-130.161
-130.726
-131.782
-110.402
-111.684
-112.946
-114.203
-115.432
-116.623
-117.776
-118.891
-119.971
-121.002
-121.994
-122.928
-123.802
-124.625
-125.389
-126.078
-126.701
-127.252
-127.784
-128.525
-109.226
-110.384
-111.528
-112.675
-113.82
-114.943
-116.007
-117.029
-118.007
-118.958
-119.854
-120.702
-121.492
-122.196
-122.871
-123.482
-124.016
-124.49
-124.963
-125.599
-110.395
-111.428
-112.382
-113.289
-114.199
-115.07
-115.828
-116.599
-117.403
-118.152
-118.853
-119.535
-120.122
-120.653
-121.192
-121.633
-122.025
-122.396
-122.703
-123.019
-103.741
-104.598
-104.981
-105.718
-107.747
-110.162
-111.211
-111.65
-112.424
-113.116
-114.181
-115.767
-116.326
-116.186
-117.323
-117.71
-117.769
-118.089
-118.214
-118.091
-156.287
-153.106
-150.543
-148.648
-147.551
-147.347
-148.117
-149.932
-152.84
-156.865
-161.951
-167.977
-174.812
-182.371
-190.56
-199.241
-208.347
-218.983
-235.446
-258.03
-155.794
-152.901
-150.962
-150.076
-150.279
-151.436
-153.276
-155.492
-157.799
-159.972
-161.855
-163.348
-164.422
-165.037
-165.225
-164.995
-164.383
-163.479
-162.434
-161.34
-156.879
-155.072
-154.183
-154.239
-155.092
-156.531
-158.331
-160.302
-162.279
-164.112
-165.699
-166.96
-167.838
-168.324
-168.439
-168.181
-167.59
-166.677
-165.462
-164.045
-158.436
-157.638
-157.372
-157.832
-158.814
-160.107
-161.511
-162.846
-163.987
-164.86
-165.43
-165.683
-165.639
-165.297
-164.681
-163.802
-162.683
-161.316
-159.725
-157.956
-160.284
-160.313
-160.506
-161.263
-162.386
-163.685
-164.998
-166.209
-167.242
-168.033
-168.559
-168.795
-168.744
-168.399
-167.773
-166.865
-165.693
-164.265
-162.596
-160.722
-162.45
-163.179
-163.665
-164.563
-165.675
-166.825
-167.889
-168.786
-169.462
-169.896
-170.072
-169.99
-169.643
-169.039
-168.18
-167.079
-165.74
-164.186
-162.423
-160.491
-165.447
-166.031
-166.73
-167.686
-168.737
-169.763
-170.674
-171.419
-171.961
-172.279
-172.354
-172.185
-171.766
-171.103
-170.195
-169.059
-167.702
-166.138
-164.378
-162.455
-168.197
-168.937
-169.682
-170.593
-171.534
-172.401
-173.133
-173.69
-174.041
-174.179
-174.093
-173.779
-173.234
-172.466
-171.477
-170.279
-168.881
-167.3
-165.546
-163.651
-170.329
-171.589
-172.428
-173.281
-174.105
-174.838
-175.425
-175.844
-176.074
-176.105
-175.92
-175.528
-174.922
-174.11
-173.093
-171.886
-170.494
-168.939
-167.224
-165.377
-172.783
-174.16
-174.998
-175.759
-176.459
-177.055
-177.507
-177.792
-177.9
-177.82
-177.549
-177.077
-176.412
-175.554
-174.513
-173.297
-171.919
-170.387
-168.718
-166.927
-175.328
-176.942
-177.554
-178.133
-178.681
-179.134
-179.46
-179.633
-179.641
-179.471
-179.126
-178.602
-177.902
-177.025
-175.983
-174.778
-173.428
-171.937
-170.322
-168.593
-178.107
-179.316
-179.855
-180.314
-180.73
-181.06
-181.266
-181.334
-181.255
-181.018
-180.616
-180.049
-179.318
-178.431
-177.391
-176.207
-174.887
-173.444
-171.885
-170.227
-179.597
-181.46
-181.983
-182.328
-182.622
-182.844
-182.956
-182.94
-182.784
-182.485
-182.038
-181.445
-180.702
-179.816
-178.79
-177.634
-176.356
-174.965
-173.468
-171.88
-181.832
-183.579
-183.981
-184.205
-184.392
-184.517
-184.539
-184.45
-184.237
-183.895
-183.416
-182.801
-182.052
-181.174
-180.169
-179.047
-177.812
-176.476
-175.044
-173.528
-184.833
-185.896
-185.997
-186.046
-186.102
-186.118
-186.055
-185.897
-185.628
-185.246
-184.742
-184.118
-183.373
-182.51
-181.533
-180.45
-179.264
-177.987
-176.621
-175.179
-187.033
-187.745
-187.803
-187.763
-187.715
-187.645
-187.512
-187.299
-186.991
-186.579
-186.059
-185.43
-184.69
-183.845
-182.897
-181.853
-180.717
-179.497
-178.198
-176.828
-189.17
-189.33
-189.36
-189.279
-189.17
-189.038
-188.855
-188.601
-188.261
-187.831
-187.305
-186.683
-185.963
-185.149
-184.243
-183.249
-182.172
-181.016
-179.786
-178.488
-190.796
-191.586
-191.334
-191.052
-190.82
-190.606
-190.372
-190.088
-189.724
-189.267
-188.714
-188.071
-187.335
-186.518
-185.626
-184.662
-183.628
-182.526
-181.354
-180.12
-193.113
-192.805
-192.445
-192.106
-191.758
-191.477
-191.21
-190.908
-190.54
-190.107
-189.622
-189.09
-188.455
-187.733
-186.94
-186.081
-185.161
-184.185
-183.116
-181.916
-196.601
-196.246
-196.716
-196.259
-194.932
-194.598
-194.694
-194.741
-194.173
-193.216
-192.067
-191.078
-190.037
-189.048
-188.154
-187.308
-186.446
-185.511
-184.134
-182.552
-254.643
-230.023
-213.72
-203.815
-195.945
-188.916
-182.659
-177.105
-172.155
-167.731
-163.791
-160.323
-157.313
-154.742
-152.555
-150.659
-148.919
-147.162
-145.219
-143.371
-160.47
-159.671
-158.682
-157.688
-156.646
-155.576
-154.498
-153.493
-152.618
-151.905
-151.348
-150.9
-150.481
-150.009
-149.422
-148.686
-147.777
-146.643
-145.171
-143.684
-162.58
-161.102
-159.654
-158.266
-156.966
-155.74
-154.581
-153.477
-152.419
-151.415
-150.472
-149.622
-148.883
-148.261
-147.732
-147.233
-146.677
-145.95
-144.894
-143.613
-156.123
-154.324
-152.638
-151.125
-149.785
-148.646
-147.714
-146.988
-146.458
-146.112
-145.917
-145.835
-145.823
-145.833
-145.821
-145.744
-145.55
-145.163
-144.463
-143.45
-158.753
-156.78
-154.889
-153.125
-151.512
-150.059
-148.776
-147.675
-146.757
-146.019
-145.456
-145.06
-144.81
-144.685
-144.642
-144.627
-144.57
-144.383
-143.947
-143.16
-158.463
-156.438
-154.492
-152.668
-150.982
-149.455
-148.106
-146.944
-145.976
-145.204
-144.62
-144.209
-143.955
-143.827
-143.792
-143.805
-143.808
-143.726
-143.445
-142.79
-160.432
-158.397
-156.408
-154.508
-152.717
-151.053
-149.536
-148.181
-146.999
-145.994
-145.172
-144.527
-144.051
-143.73
-143.537
-143.433
-143.366
-143.263
-143.013
-142.292
-161.664
-159.657
-157.684
-155.782
-153.966
-152.26
-150.678
-149.239
-147.956
-146.837
-145.887
-145.106
-144.488
-144.019
-143.682
-143.447
-143.27
-143.096
-142.836
-142.186
-163.439
-161.475
-159.527
-157.629
-155.793
-154.042
-152.395
-150.868
-149.475
-148.226
-147.128
-146.185
-145.395
-144.755
-144.247
-143.85
-143.532
-143.243
-142.914
-142.305
-165.055
-163.146
-161.245
-159.374
-157.553
-155.797
-154.126
-152.553
-151.095
-149.761
-148.562
-147.501
-146.581
-145.796
-145.138
-144.59
-144.124
-143.702
-143.265
-142.604
-166.789
-164.943
-163.097
-161.264
-159.468
-157.718
-156.036
-154.435
-152.93
-151.529
-150.245
-149.083
-148.046
-147.132
-146.336
-145.643
-145.031
-144.466
-143.894
-143.125
-168.493
-166.719
-164.931
-163.152
-161.392
-159.67
-157.999
-156.392
-154.862
-153.423
-152.082
-150.845
-149.719
-148.703
-147.792
-146.973
-146.229
-145.533
-144.841
-144.001
-170.221
-168.52
-166.8
-165.079
-163.368
-161.683
-160.035
-158.439
-156.905
-155.445
-154.068
-152.782
-151.589
-150.491
-149.484
-148.562
-147.705
-146.885
-146.067
-145.142
-171.945
-170.321
-168.672
-167.016
-165.362
-163.725
-162.115
-160.544
-159.024
-157.564
-156.172
-154.855
-153.619
-152.465
-151.392
-150.389
-149.444
-148.535
-147.637
-146.712
-173.674
-172.126
-170.552
-168.966
-167.375
-165.795
-164.233
-162.702
-161.209
-159.766
-158.381
-157.06
-155.805
-154.621
-153.506
-152.455
-151.455
-150.49
-149.536
-148.599
-175.4
-173.932
-172.434
-170.921
-169.4
-167.883
-166.378
-164.897
-163.447
-162.038
-160.674
-159.363
-158.107
-156.908
-155.763
-154.666
-153.604
-152.544
-151.418
-150.291
-177.137
-175.745
-174.323
-172.881
-171.427
-169.972
-168.523
-167.097
-165.699
-164.338
-163.017
-161.742
-160.514
-159.337
-158.208
-157.124
-156.07
-155.026
-153.941
-152.927
-178.844
-177.535
-176.196
-174.831
-173.446
-172.066
-170.686
-169.34
-168.026
-166.743
-165.484
-164.26
-163.073
-161.925
-160.812
-159.737
-158.668
-157.577
-156.432
-155.335
-180.656
-179.363
-178.095
-176.844
-175.556
-174.231
-172.784
-171.415
-170.11
-168.887
-167.69
-166.537
-165.423
-164.344
-163.31
-162.369
-161.415
-160.415
-159.423
-158.544
-181.639
-181.226
-180.545
-179.206
-177.105
-175.317
-173.928
-173.416
-173.053
-172.337
-171.205
-170.017
-168.82
-167.775
-166.893
-166.205
-165.024
-163.817
-162.799
-161.563
465.921
460.578
450.655
438.701
425.865
413.906
399.007
380.325
358.307
333.4
305.486
274.843
241.736
206.726
170.955
135.522
101.604
70.3139
41.6583
14.0181
32.2958
32.9199
34.3066
36.0884
38.2239
40.1725
40.7739
40.9532
41.7575
42.7157
43.5699
44.2196
44.4845
44.0869
42.6191
39.5821
34.4955
26.9826
16.7107
3.04829
50.0494
50.0922
50.2156
50.4477
50.7501
50.9586
50.9345
50.8738
50.6149
49.9603
48.7662
46.8825
44.1479
40.4166
35.5789
29.5838
22.4428
14.2107
4.87299
-5.90821
10.8799
10.9145
11.05
11.3029
11.5597
11.5641
11.4638
11.3242
11.1039
10.7703
10.2885
9.59596
8.61273
7.21996
5.26563
2.56436
-1.07681
-5.81833
-11.7615
-19.1209
-37.2915
-37.2293
-37.005
-36.4775
-35.761
-34.9535
-34.0387
-33.0289
-31.9352
-30.7817
-29.5979
-28.4387
-27.3691
-26.4907
-25.9278
-25.8482
-26.4466
-27.9269
-30.4297
-34.2403
-61.8912
-61.8059
-61.5765
-61.1332
-60.5012
-59.7261
-58.8195
-57.7854
-56.6271
-55.3542
-53.9858
-52.551
-51.0919
-49.6729
-48.3836
-47.3461
-46.7157
-46.6599
-47.2673
-48.7803
-83.2889
-83.2061
-82.9974
-82.5887
-81.989
-81.2272
-80.3108
-79.2399
-78.0083
-76.617
-75.0712
-73.3866
-71.5855
-69.713
-67.8332
-66.0401
-64.4632
-63.2546
-62.5078
-62.269
-100.837
-100.763
-100.576
-100.204
-99.636
-98.9005
-98.0098
-96.9536
-95.7218
-94.3079
-92.7071
-90.9246
-88.9691
-86.8674
-84.6612
-82.4208
-80.2468
-78.2651
-76.6129
-75.7114
-114.477
-114.411
-114.254
-113.925
-113.407
-112.729
-111.895
-110.9
-109.727
-108.366
-106.808
-105.048
-103.087
-100.937
-98.6216
-96.1878
-93.7089
-91.289
-89.0355
-87.0627
-125.353
-125.3
-125.162
-124.88
-124.424
-123.811
-123.051
-122.131
-121.039
-119.762
-118.285
-116.598
-114.696
-112.578
-110.255
-107.756
-105.124
-102.442
-99.838
-97.4312
-134.349
-134.3
-134.183
-133.937
-133.533
-132.981
-132.286
-131.441
-130.431
-129.241
-127.855
-126.261
-124.446
-122.404
-120.137
-117.659
-114.997
-112.203
-109.406
-107.058
-141.771
-141.73
-141.627
-141.411
-141.053
-140.556
-139.925
-139.153
-138.222
-137.118
-135.826
-134.328
-132.611
-130.663
-128.477
-126.055
-123.41
-120.578
-117.647
-114.724
-147.946
-147.908
-147.82
-147.631
-147.315
-146.871
-146.303
-145.6
-144.748
-143.732
-142.536
-141.143
-139.538
-137.706
-135.638
-133.331
-130.792
-128.046
-125.218
-122.819
-153.129
-153.097
-153.018
-152.852
-152.569
-152.17
-151.652
-151.008
-150.224
-149.284
-148.172
-146.87
-145.363
-143.632
-141.664
-139.448
-136.979
-134.26
-131.339
-128.425
-157.483
-157.454
-157.386
-157.238
-156.984
-156.623
-156.152
-155.563
-154.844
-153.977
-152.946
-151.736
-150.328
-148.706
-146.852
-144.756
-142.407
-139.81
-137.004
-134.243
-161.132
-161.107
-161.047
-160.915
-160.688
-160.363
-159.936
-159.4
-158.74
-157.94
-156.987
-155.863
-154.55
-153.033
-151.293
-149.316
-147.093
-144.62
-141.921
-139.199
-164.135
-164.114
-164.06
-163.943
-163.741
-163.447
-163.06
-162.571
-161.966
-161.229
-160.347
-159.303
-158.08
-156.659
-155.024
-153.157
-151.045
-148.678
-146.064
-143.333
-166.655
-166.636
-166.589
-166.484
-166.3
-166.032
-165.678
-165.227
-164.668
-163.986
-163.166
-162.192
-161.048
-159.716
-158.178
-156.415
-154.411
-152.154
-149.646
-146.991
-168.692
-168.676
-168.634
-168.54
-168.374
-168.131
-167.807
-167.395
-166.882
-166.253
-165.495
-164.591
-163.526
-162.283
-160.843
-159.189
-157.304
-155.175
-152.797
-150.281
-170.285
-170.272
-170.235
-170.151
-170.001
-169.781
-169.486
-169.11
-168.64
-168.062
-167.361
-166.523
-165.532
-164.372
-163.025
-161.471
-159.69
-157.665
-155.39
-152.907
-171.494
-171.482
-171.45
-171.375
-171.241
-171.041
-170.774
-170.432
-170.002
-169.472
-168.827
-168.054
-167.139
-166.065
-164.815
-163.371
-161.714
-159.826
-157.703
-155.469
-172.29
-172.281
-172.254
-172.189
-172.07
-171.893
-171.654
-171.347
-170.96
-170.481
-169.897
-169.195
-168.36
-167.377
-166.231
-164.905
-163.379
-161.638
-159.669
-157.59
-172.609
-172.602
-172.581
-172.526
-172.425
-172.272
-172.066
-171.8
-171.463
-171.046
-170.533
-169.912
-169.169
-168.289
-167.256
-166.052
-164.658
-163.057
-161.226
-159.222
-172.761
-172.756
-172.737
-172.691
-172.603
-172.47
-172.29
-172.057
-171.762
-171.394
-170.94
-170.388
-169.725
-168.936
-168.005
-166.916
-165.647
-164.18
-162.489
-160.604
-172.83
-172.826
-172.81
-172.77
-172.693
-172.578
-172.42
-172.215
-171.956
-171.631
-171.228
-170.735
-170.141
-169.433
-168.594
-167.608
-166.457
-165.119
-163.571
-161.823
-172.835
-172.832
-172.818
-172.783
-172.718
-172.616
-172.478
-172.297
-172.068
-171.779
-171.421
-170.981
-170.449
-169.811
-169.054
-168.161
-167.114
-165.893
-164.478
-162.865
-172.891
-172.887
-172.875
-172.843
-172.783
-172.691
-172.565
-172.401
-172.192
-171.929
-171.602
-171.202
-170.717
-170.136
-169.445
-168.63
-167.674
-166.56
-165.271
-163.835
-172.892
-172.889
-172.878
-172.851
-172.797
-172.714
-172.601
-172.453
-172.265
-172.027
-171.731
-171.367
-170.924
-170.391
-169.756
-169.004
-168.119
-167.08
-165.865
-164.473
-172.909
-172.906
-172.896
-172.871
-172.822
-172.746
-172.643
-172.508
-172.335
-172.118
-171.848
-171.515
-171.107
-170.617
-170.03
-169.335
-168.515
-167.55
-166.417
-165.105
-172.917
-172.914
-172.906
-172.883
-172.839
-172.771
-172.678
-172.556
-172.4
-172.203
-171.957
-171.652
-171.279
-170.828
-170.288
-169.646
-168.887
-167.994
-166.947
-165.732
-172.976
-172.973
-172.965
-172.943
-172.903
-172.84
-172.754
-172.641
-172.497
-172.315
-172.087
-171.805
-171.459
-171.041
-170.54
-169.946
-169.244
-168.419
-167.455
-166.358
-173.03
-173.028
-173.02
-173
-172.963
-172.905
-172.826
-172.722
-172.589
-172.42
-172.209
-171.947
-171.626
-171.237
-170.77
-170.214
-169.555
-168.779
-167.868
-166.816
-173.095
-173.093
-173.086
-173.068
-173.034
-172.98
-172.907
-172.81
-172.687
-172.53
-172.334
-172.09
-171.791
-171.428
-170.991
-170.472
-169.857
-169.131
-168.281
-167.33
-173.187
-173.185
-173.178
-173.161
-173.129
-173.078
-173.009
-172.918
-172.802
-172.655
-172.471
-172.243
-171.962
-171.621
-171.211
-170.722
-170.143
-169.46
-168.656
-167.744
-173.274
-173.272
-173.266
-173.25
-173.22
-173.173
-173.108
-173.024
-172.916
-172.779
-172.606
-172.393
-172.13
-171.809
-171.423
-170.962
-170.414
-169.767
-169.003
-168.129
-173.367
-173.366
-173.36
-173.345
-173.318
-173.274
-173.214
-173.135
-173.034
-172.906
-172.746
-172.546
-172.299
-171.998
-171.635
-171.2
-170.684
-170.075
-169.356
-168.528
-173.496
-173.494
-173.489
-173.475
-173.449
-173.407
-173.35
-173.275
-173.18
-173.058
-172.906
-172.717
-172.483
-172.197
-171.851
-171.438
-170.946
-170.365
-169.678
-168.878
-173.621
-173.619
-173.614
-173.601
-173.577
-173.538
-173.485
-173.415
-173.326
-173.213
-173.07
-172.892
-172.671
-172.401
-172.074
-171.682
-171.215
-170.663
-170.014
-169.277
-173.783
-173.781
-173.776
-173.764
-173.74
-173.704
-173.653
-173.586
-173.501
-173.393
-173.256
-173.086
-172.876
-172.618
-172.306
-171.932
-171.487
-170.959
-170.336
-169.627
-173.951
-173.949
-173.944
-173.933
-173.911
-173.876
-173.828
-173.765
-173.683
-173.58
-173.45
-173.288
-173.087
-172.841
-172.542
-172.183
-171.753
-171.242
-170.635
-169.932
-174.14
-174.138
-174.133
-174.122
-174.101
-174.068
-174.022
-173.961
-173.884
-173.785
-173.662
-173.507
-173.315
-173.081
-172.797
-172.457
-172.052
-171.574
-171.013
-170.401
-174.333
-174.331
-174.327
-174.316
-174.296
-174.265
-174.22
-174.163
-174.089
-173.996
-173.877
-173.73
-173.548
-173.325
-173.054
-172.728
-172.34
-171.881
-171.339
-170.726
-174.529
-174.527
-174.523
-174.513
-174.494
-174.464
-174.422
-174.367
-174.297
-174.207
-174.094
-173.953
-173.778
-173.562
-173.3
-172.983
-172.604
-172.152
-171.61
-170.977
-174.755
-174.754
-174.75
-174.74
-174.721
-174.692
-174.652
-174.599
-174.53
-174.444
-174.335
-174.199
-174.031
-173.824
-173.573
-173.27
-172.909
-172.48
-171.974
-171.409
-174.984
-174.983
-174.979
-174.97
-174.952
-174.924
-174.885
-174.835
-174.77
-174.687
-174.582
-174.452
-174.291
-174.092
-173.849
-173.556
-173.204
-172.786
-172.282
-171.639
-175.219
-175.218
-175.214
-175.205
-175.188
-175.162
-175.126
-175.078
-175.016
-174.938
-174.839
-174.715
-174.561
-174.372
-174.14
-173.862
-173.53
-173.139
-172.687
-172.2
-175.483
-175.482
-175.478
-175.47
-175.454
-175.428
-175.392
-175.345
-175.285
-175.208
-175.111
-174.99
-174.84
-174.655
-174.428
-174.154
-173.825
-173.432
-172.958
-172.336
-175.769
-175.768
-175.764
-175.756
-175.739
-175.714
-175.679
-175.633
-175.573
-175.498
-175.402
-175.283
-175.135
-174.952
-174.728
-174.457
-174.131
-173.741
-173.277
-172.698
-176.044
-176.043
-176.039
-176.031
-176.016
-175.992
-175.959
-175.916
-175.86
-175.788
-175.698
-175.584
-175.442
-175.267
-175.053
-174.795
-174.485
-174.118
-173.687
-173.167
-176.364
-176.363
-176.36
-176.352
-176.337
-176.313
-176.28
-176.237
-176.18
-176.109
-176.02
-175.907
-175.768
-175.596
-175.387
-175.133
-174.828
-174.465
-174.032
-173.475
-176.674
-176.673
-176.669
-176.662
-176.648
-176.625
-176.593
-176.551
-176.498
-176.429
-176.343
-176.234
-176.098
-175.931
-175.726
-175.477
-175.178
-174.821
-174.4
-173.87
-177.002
-177
-176.997
-176.99
-176.976
-176.954
-176.924
-176.883
-176.831
-176.765
-176.68
-176.574
-176.442
-176.279
-176.078
-175.835
-175.541
-175.19
-174.774
-174.241
-177.372
-177.371
-177.368
-177.361
-177.347
-177.325
-177.294
-177.254
-177.201
-177.135
-177.05
-176.945
-176.813
-176.652
-176.453
-176.212
-175.921
-175.572
-175.158
-174.632
-177.751
-177.749
-177.746
-177.739
-177.726
-177.705
-177.674
-177.635
-177.584
-177.519
-177.437
-177.333
-177.204
-177.045
-176.849
-176.612
-176.325
-175.982
-175.578
-175.085
-178.15
-178.149
-178.147
-178.14
-178.126
-178.105
-178.076
-178.037
-177.987
-177.922
-177.841
-177.739
-177.611
-177.453
-177.258
-177.021
-176.734
-176.388
-175.972
-175.423
-178.573
-178.572
-178.569
-178.563
-178.55
-178.529
-178.5
-178.462
-178.413
-178.349
-178.269
-178.167
-178.041
-177.885
-177.692
-177.457
-177.174
-176.836
-176.436
-175.926
-179.041
-179.04
-179.037
-179.031
-179.017
-178.996
-178.967
-178.928
-178.878
-178.814
-178.733
-178.63
-178.503
-178.345
-178.15
-177.912
-177.624
-177.278
-176.869
-176.316
-179.528
-179.527
-179.525
-179.518
-179.505
-179.485
-179.456
-179.417
-179.367
-179.303
-179.221
-179.118
-178.989
-178.828
-178.631
-178.389
-178.097
-177.745
-177.333
-176.835
-180.045
-180.044
-180.042
-180.035
-180.022
-180.002
-179.973
-179.934
-179.884
-179.819
-179.737
-179.632
-179.501
-179.337
-179.135
-178.886
-178.584
-178.218
-177.78
-177.206
-180.631
-180.631
-180.628
-180.621
-180.608
-180.586
-180.556
-180.516
-180.463
-180.396
-180.31
-180.201
-180.063
-179.892
-179.68
-179.421
-179.106
-178.725
-178.274
-177.713
-181.252
-181.251
-181.248
-181.242
-181.229
-181.207
-181.177
-181.136
-181.082
-181.012
-180.923
-180.81
-180.667
-180.488
-180.266
-179.994
-179.663
-179.264
-178.791
-178.21
-181.98
-181.979
-181.976
-181.968
-181.953
-181.929
-181.895
-181.849
-181.79
-181.713
-181.615
-181.49
-181.333
-181.137
-180.896
-180.601
-180.244
-179.816
-179.307
-178.681
-182.739
-182.739
-182.736
-182.728
-182.712
-182.686
-182.649
-182.6
-182.535
-182.451
-182.343
-182.207
-182.035
-181.82
-181.555
-181.232
-180.841
-180.373
-179.823
-179.149
-183.553
-183.552
-183.549
-183.54
-183.522
-183.493
-183.452
-183.396
-183.324
-183.23
-183.11
-182.958
-182.766
-182.526
-182.231
-181.87
-181.435
-180.914
-180.302
-179.56
-184.411
-184.411
-184.407
-184.397
-184.377
-184.344
-184.297
-184.235
-184.153
-184.047
-183.912
-183.739
-183.522
-183.251
-182.918
-182.512
-182.023
-181.443
-180.765
-179.966
-185.312
-185.312
-185.308
-185.296
-185.273
-185.235
-185.182
-185.11
-185.016
-184.894
-184.738
-184.54
-184.291
-183.981
-183.6
-183.137
-182.582
-181.927
-181.171
-180.287
-186.24
-186.239
-186.235
-186.221
-186.194
-186.15
-186.087
-186.004
-185.894
-185.753
-185.571
-185.339
-185.049
-184.687
-184.242
-183.703
-183.059
-182.304
-181.439
-180.435
-187.197
-187.196
-187.19
-187.174
-187.141
-187.088
-187.014
-186.913
-186.781
-186.611
-186.393
-186.116
-185.768
-185.336
-184.807
-184.168
-183.409
-182.529
-181.534
-180.406
-188.185
-188.184
-188.177
-188.156
-188.116
-188.051
-187.959
-187.835
-187.672
-187.462
-187.193
-186.852
-186.424
-185.893
-185.245
-184.467
-183.554
-182.508
-181.348
-180.069
-189.157
-189.156
-189.146
-189.119
-189.066
-188.98
-188.86
-188.699
-188.49
-188.219
-187.874
-187.438
-186.894
-186.225
-185.414
-184.452
-183.342
-182.1
-180.771
-179.397
-190.213
-190.21
-190.197
-190.161
-190.09
-189.977
-189.817
-189.602
-189.319
-188.954
-188.486
-187.897
-187.165
-186.27
-185.201
-183.957
-182.558
-181.05
-179.508
-178.008
-191.014
-191.011
-190.993
-190.935
-190.818
-190.631
-190.373
-190.037
-189.605
-189.059
-188.374
-187.529
-186.501
-185.276
-183.853
-182.257
-180.542
-178.799
-177.153
-175.751
-192.321
-192.314
-192.281
-192.192
-192.027
-191.768
-191.397
-190.893
-190.229
-189.376
-188.289
-186.928
-185.283
-183.382
-181.281
-179.076
-176.903
-174.926
-173.312
-172.26
-192.496
-192.344
-192.095
-191.725
-191.193
-190.481
-189.563
-188.413
-186.997
-185.289
-183.257
-180.912
-178.328
-175.639
-173.009
-170.636
-168.718
-167.406
-166.768
-166.928
-188.21
-189.558
-190.736
-190.617
-189.706
-188.452
-186.871
-184.867
-182.383
-179.435
-176.106
-172.557
-168.938
-165.457
-162.372
-159.965
-158.47
-158.027
-158.645
-160.337
-567.94
-556.326
-539.762
-524.27
-516.446
-511.579
-501.416
-486.455
-468.798
-448.859
-426.63
-402.272
-376.159
-348.917
-321.339
-294.349
-268.828
-245.546
-224.978
-208.263
-236.116
-236.831
-237.308
-237.688
-238.018
-238.041
-236.991
-235.682
-234.658
-233.614
-232.529
-231.434
-230.282
-228.913
-227.048
-224.317
-220.305
-214.663
-207.354
-199.649
-259.728
-259.742
-259.81
-259.936
-259.84
-259.256
-258.457
-257.445
-255.996
-254.003
-251.367
-247.997
-243.794
-238.703
-232.715
-225.907
-218.406
-210.377
-201.957
-193.771
-204.611
-204.614
-204.607
-204.575
-204.501
-204.373
-204.226
-204.058
-203.87
-203.65
-203.38
-203.032
-202.557
-201.877
-200.862
-199.338
-197.084
-193.896
-189.654
-184.957
-197.819
-197.818
-197.812
-197.804
-197.788
-197.747
-197.647
-197.47
-197.188
-196.759
-196.138
-195.279
-194.143
-192.697
-190.92
-188.796
-186.298
-183.374
-179.918
-175.896
-181.027
-181.016
-181.002
-180.98
-180.946
-180.893
-180.817
-180.719
-180.591
-180.418
-180.18
-179.849
-179.394
-178.772
-177.929
-176.802
-175.318
-173.402
-170.983
-168.13
-171.906
-171.894
-171.879
-171.862
-171.842
-171.813
-171.768
-171.695
-171.584
-171.422
-171.187
-170.855
-170.395
-169.773
-168.96
-167.924
-166.636
-165.063
-163.164
-160.681
-162.2
-162.185
-162.167
-162.145
-162.119
-162.089
-162.051
-161.996
-161.923
-161.823
-161.685
-161.494
-161.228
-160.857
-160.346
-159.654
-158.743
-157.586
-156.181
-154.569
-154.589
-154.574
-154.555
-154.534
-154.512
-154.488
-154.46
-154.421
-154.364
-154.285
-154.174
-154.021
-153.809
-153.516
-153.116
-152.573
-151.856
-150.938
-149.822
-148.343
-147.568
-147.552
-147.533
-147.511
-147.488
-147.466
-147.444
-147.415
-147.374
-147.318
-147.241