/*--------------------------------*- C++ -*----------------------------------*\
| =========                 |                                                 |
| \\      /  F ield         | OpenFOAM: The Open Source CFD Toolbox           |
|  \\    /   O peration     | Version:  2.3.0                                 |
|   \\  /    A nd           | Web:      www.OpenFOAM.org                      |
|    \\/     M anipulation  |                                                 |
\*---------------------------------------------------------------------------*/
FoamFile
{
    version     2.0;
    format      ascii;
    class       surfaceScalarField;
    location    "150";
    object      phi;
}
// * * * * * * * * * * * * * * * * * * * * * * * * * * * * * * * * * * * * * //

dimensions      [0 3 -1 0 0 0 0];

internalField   nonuniform List<scalar> 
56247
(
3.0759e-05
-0.000115048
0.000119424
-3.51058e-05
2.75711e-05
-9.49001e-05
9.8088e-05
2.54691e-05
-7.865e-05
8.07521e-05
2.43196e-05
-6.54907e-05
6.66403e-05
2.39878e-05
-5.47954e-05
5.51271e-05
2.43069e-05
-4.60788e-05
4.57598e-05
2.51219e-05
-3.89427e-05
3.81275e-05
2.63205e-05
-3.30714e-05
3.18729e-05
2.77742e-05
-2.82033e-05
2.67496e-05
2.94011e-05
-2.41519e-05
2.2525e-05
3.11544e-05
-2.07576e-05
1.90043e-05
3.29942e-05
-1.79033e-05
1.60635e-05
3.49089e-05
-1.54915e-05
1.35769e-05
3.68855e-05
-1.34527e-05
1.14761e-05
3.89146e-05
-1.1717e-05
9.68791e-06
4.09806e-05
-1.02432e-05
8.17723e-06
4.31007e-05
-8.99828e-06
6.8784e-06
4.52578e-05
-7.9402e-06
5.78312e-06
4.74765e-05
-7.03385e-06
4.81532e-06
-6.27563e-06
4.98249e-05
3.92722e-06
3.38627e-05
-0.000111137
-3.77736e-05
3.12935e-05
-9.2331e-05
2.98072e-05
-7.71638e-05
2.91857e-05
-6.48693e-05
2.92511e-05
-5.48609e-05
2.98322e-05
-4.66598e-05
3.08131e-05
-3.99236e-05
3.20728e-05
-3.43311e-05
3.35395e-05
-2.96699e-05
3.5145e-05
-2.57574e-05
3.68382e-05
-2.24507e-05
3.85983e-05
-1.96634e-05
4.03913e-05
-1.72844e-05
4.22193e-05
-1.52807e-05
4.40615e-05
-1.35591e-05
4.59393e-05
-1.2121e-05
4.78204e-05
-1.08793e-05
4.97371e-05
-9.85694e-06
5.16729e-05
-8.96966e-06
-8.22618e-06
5.36235e-05
3.64736e-05
-0.000107594
-4.00169e-05
3.42341e-05
-9.00916e-05
3.29988e-05
-7.59285e-05
3.25334e-05
-6.44039e-05
3.26582e-05
-5.49856e-05
3.32173e-05
-4.72189e-05
3.40799e-05
-4.07861e-05
3.51554e-05
-3.54066e-05
3.63672e-05
-3.08816e-05
3.76998e-05
-2.709e-05
3.91286e-05
-2.38794e-05
4.06133e-05
-2.11481e-05
4.21716e-05
-1.88427e-05
4.38e-05
-1.69091e-05
4.54797e-05
-1.52388e-05
4.72215e-05
-1.38629e-05
4.90314e-05
-1.26892e-05
5.08717e-05
-1.16973e-05
5.27602e-05
-1.08581e-05
-1.01686e-05
5.47026e-05
3.8623e-05
-0.00010432
-4.1897e-05
3.65003e-05
-8.79689e-05
3.52802e-05
-7.47084e-05
3.47576e-05
-6.38813e-05
3.47426e-05
-5.49706e-05
3.51022e-05
-4.75784e-05
3.57491e-05
-4.1433e-05
3.65978e-05
-3.62552e-05
3.76277e-05
-3.19115e-05
3.87946e-05
-2.82568e-05
4.00755e-05
-2.51603e-05
4.14688e-05
-2.25414e-05
4.29487e-05
-2.03226e-05
4.45062e-05
-1.84666e-05
4.6172e-05
-1.69045e-05
4.78854e-05
-1.55763e-05
4.9653e-05
-1.44567e-05
5.14918e-05
-1.35361e-05
5.33828e-05
-1.27491e-05
-1.20952e-05
5.53094e-05
4.03697e-05
-0.000101107
-4.35828e-05
3.82339e-05
-8.58332e-05
3.69364e-05
-7.3411e-05
3.62632e-05
-6.32082e-05
3.60702e-05
-5.47775e-05
3.62515e-05
-4.77597e-05
3.66981e-05
-4.18795e-05
3.74044e-05
-3.69616e-05
3.82883e-05
-3.27954e-05
3.93191e-05
-2.92876e-05
4.05025e-05
-2.63436e-05
4.18206e-05
-2.38595e-05
4.32581e-05
-2.17601e-05
4.47745e-05
-1.9983e-05
4.63847e-05
-1.85147e-05
4.80781e-05
-1.72698e-05
4.98446e-05
-1.62232e-05
5.16754e-05
-1.5367e-05
5.35495e-05
-1.46232e-05
-1.40294e-05
5.54837e-05
4.18077e-05
-9.78731e-05
-4.50418e-05
3.95886e-05
-8.36141e-05
3.815e-05
-7.19724e-05
3.73101e-05
-6.23683e-05
3.69385e-05
-5.44059e-05
3.69368e-05
-4.7758e-05
3.72447e-05
-4.21874e-05
3.77944e-05
-3.75113e-05
3.85737e-05
-3.35747e-05
3.95378e-05
-3.02516e-05
4.0674e-05
-2.74799e-05
4.19339e-05
-2.51194e-05
4.33256e-05
-2.31518e-05
4.48333e-05
-2.14906e-05
4.64289e-05
-2.01103e-05
4.81121e-05
-1.89529e-05
4.98819e-05
-1.7993e-05
5.16965e-05
-1.71816e-05
5.35788e-05
-1.65055e-05
-1.59518e-05
5.55012e-05
4.29635e-05
-9.45736e-05
-4.62631e-05
4.0619e-05
-8.12696e-05
3.90173e-05
-7.03707e-05
3.8013e-05
-6.1364e-05
3.74856e-05
-5.38785e-05
3.73573e-05
-4.76296e-05
3.75459e-05
-4.2376e-05
3.80129e-05
-3.79783e-05
3.87024e-05
-3.42642e-05
3.96214e-05
-3.11706e-05
4.06867e-05
-2.85452e-05
4.19279e-05
-2.63605e-05
4.32961e-05
-2.452e-05
4.47879e-05
-2.29825e-05
4.63831e-05
-2.17055e-05
4.8058e-05
-2.06278e-05
4.98015e-05
-1.97365e-05
5.1622e-05
-1.90021e-05
5.35034e-05
-1.83869e-05
-1.78705e-05
5.54221e-05
4.39234e-05
-9.11031e-05
-4.73939e-05
4.14145e-05
-7.87607e-05
3.96663e-05
-6.86224e-05
3.85281e-05
-6.02259e-05
3.7869e-05
-5.32193e-05
3.76145e-05
-4.73751e-05
3.7711e-05
-4.24726e-05
3.80909e-05
-3.83582e-05
3.87376e-05
-3.49109e-05
3.96002e-05
-3.20332e-05
4.06479e-05
-2.95929e-05
4.18663e-05
-2.75789e-05
4.32196e-05
-2.58733e-05
4.46959e-05
-2.44588e-05
4.62712e-05
-2.32808e-05
4.79421e-05
-2.22987e-05
4.96912e-05
-2.14857e-05
5.15084e-05
-2.08193e-05
5.33746e-05
-2.02531e-05
-1.98003e-05
5.53044e-05
4.46979e-05
-8.75018e-05
-4.82992e-05
4.20464e-05
-7.6109e-05
4.01624e-05
-6.67385e-05
3.88727e-05
-5.89361e-05
3.81045e-05
-5.24512e-05
3.77734e-05
-4.7044e-05
3.77982e-05
-4.24974e-05
3.81361e-05
-3.8696e-05
3.87402e-05
-3.55151e-05
3.95578e-05
-3.28508e-05
4.05945e-05
-3.06296e-05
4.17814e-05
-2.87658e-05
4.31207e-05
-2.72126e-05
4.45911e-05
-2.59292e-05
4.61595e-05
-2.48492e-05
4.78326e-05
-2.39717e-05
4.95775e-05
-2.32306e-05
5.13828e-05
-2.26245e-05
5.32594e-05
-2.21297e-05
-2.17159e-05
5.5175e-05
4.53015e-05
-8.37733e-05
-4.90301e-05
4.25317e-05
-7.33392e-05
4.05131e-05
-6.47199e-05
3.91429e-05
-5.75658e-05
3.82876e-05
-5.1596e-05
3.78605e-05
-4.6617e-05
3.78302e-05
-4.24671e-05
3.81257e-05
-3.89914e-05
3.86975e-05
-3.60869e-05
3.95042e-05
-3.36576e-05
4.05092e-05
-3.16346e-05
4.16961e-05
-2.99527e-05
4.30254e-05
-2.85418e-05
4.44862e-05
-2.73899e-05
4.60491e-05
-2.64121e-05
4.77081e-05
-2.56307e-05
4.94518e-05
-2.49743e-05
5.12634e-05
-2.44361e-05
5.31256e-05
-2.3992e-05
-2.36421e-05
5.50518e-05
4.58025e-05
-7.9925e-05
-4.96507e-05
4.29107e-05
-7.04474e-05
4.07878e-05
-6.25969e-05
3.93178e-05
-5.60959e-05
3.83929e-05
-5.0671e-05
3.7937e-05
-4.61611e-05
3.7865e-05
-4.2395e-05
3.81287e-05
-3.92551e-05
3.8665e-05
-3.66232e-05
3.94526e-05
-3.44452e-05
4.04447e-05
-3.26267e-05
4.16212e-05
-3.11293e-05
4.29428e-05
-2.98634e-05
4.43881e-05
-2.88352e-05
4.59688e-05
-2.79928e-05
4.76134e-05
-2.72753e-05
4.93501e-05
-2.6711e-05
5.11612e-05
-2.62472e-05
5.30319e-05
-2.58626e-05
-2.5557e-05
5.49468e-05
4.62034e-05
-7.59616e-05
-5.01668e-05
4.31949e-05
-6.74389e-05
4.10073e-05
-6.04093e-05
3.94677e-05
-5.45563e-05
3.84884e-05
-4.96917e-05
3.79786e-05
-4.56514e-05
3.78753e-05
-4.22918e-05
3.81026e-05
-3.94823e-05
3.86331e-05
-3.71538e-05
3.94103e-05
-3.52224e-05
4.0407e-05
-3.36234e-05
4.15626e-05
-3.22848e-05
4.28788e-05
-3.11796e-05
4.43293e-05
-3.02857e-05
4.5884e-05
-2.95476e-05
4.75477e-05
-2.8939e-05
4.92861e-05
-2.84494e-05
5.10833e-05
-2.80444e-05
5.29544e-05
-2.77337e-05
-2.74691e-05
5.48664e-05
4.65263e-05
-7.18757e-05
-5.06122e-05
4.34342e-05
-6.43468e-05
4.11488e-05
-5.8124e-05
3.95521e-05
-5.29596e-05
3.85432e-05
-4.86828e-05
3.80029e-05
-4.51111e-05
3.78775e-05
-4.21664e-05
3.81034e-05
-3.97082e-05
3.86237e-05
-3.76741e-05
3.93791e-05
-3.59778e-05
4.03563e-05
-3.46005e-05
4.15122e-05
-3.34407e-05
4.2835e-05
-3.25024e-05
4.42832e-05
-3.17339e-05
4.58363e-05
-3.11007e-05
4.74898e-05
-3.05925e-05
4.92232e-05
-3.01828e-05
5.10318e-05
-2.98529e-05
5.28906e-05
-2.95925e-05
-2.93923e-05
5.48138e-05
4.67632e-05
-6.76876e-05
-5.09513e-05
4.3594e-05
-6.11775e-05
4.12503e-05
-5.57803e-05
3.96111e-05
-5.13205e-05
3.85592e-05
-4.76308e-05
3.80105e-05
-4.45624e-05
3.7873e-05
-4.20289e-05
3.80762e-05
-3.99114e-05
3.8591e-05
-3.81889e-05
3.93575e-05
-3.67442e-05
4.0331e-05
-3.55741e-05
4.14957e-05
-3.46054e-05
4.28218e-05
-3.38285e-05
4.42588e-05
-3.31708e-05
4.58228e-05
-3.26648e-05
4.74723e-05
-3.2242e-05
4.91995e-05
-3.191e-05
5.10061e-05
-3.16595e-05
5.28768e-05
-3.14631e-05
-3.13042e-05
5.47887e-05
4.69321e-05
-6.3416e-05
-5.12038e-05
4.36961e-05
-5.79415e-05
4.13161e-05
-5.34003e-05
3.96443e-05
-4.96486e-05
3.85711e-05
-4.65576e-05
3.79975e-05
-4.39888e-05
3.7839e-05
-4.18704e-05
3.80653e-05
-4.01377e-05
3.8566e-05
-3.86897e-05
3.93455e-05
-3.75236e-05
4.03252e-05
-3.65538e-05
4.14789e-05
-3.57592e-05
4.27943e-05
-3.51439e-05
4.42449e-05
-3.46215e-05
4.58005e-05
-3.42203e-05
4.74541e-05
-3.38957e-05
4.92016e-05
-3.36575e-05
5.10017e-05
-3.34597e-05
5.2862e-05
-3.33234e-05
-3.32288e-05
5.47866e-05
4.70444e-05
-5.90749e-05
-5.13855e-05
4.37292e-05
-5.46264e-05
4.1309e-05
-5.09801e-05
3.96121e-05
-4.79516e-05
3.85245e-05
-4.54701e-05
3.79568e-05
-4.34211e-05
3.78088e-05
-4.17224e-05
3.80135e-05
-4.03424e-05
3.85324e-05
-3.92086e-05
3.93035e-05
-3.82947e-05
4.02873e-05
-3.75376e-05
4.14605e-05
-3.69323e-05
4.27816e-05
-3.6465e-05
4.42394e-05
-3.60793e-05
4.57977e-05
-3.57786e-05
4.74678e-05
-3.55658e-05
4.91984e-05
-3.5388e-05
5.10095e-05
-3.52708e-05
5.28841e-05
-3.5198e-05
-3.51441e-05
5.47994e-05
4.7073e-05
-5.46416e-05
-5.15063e-05
4.37253e-05
-5.12786e-05
4.12603e-05
-4.85151e-05
3.95551e-05
-4.62464e-05
3.84582e-05
-4.43732e-05
3.78755e-05
-4.28384e-05
3.77348e-05
-4.15816e-05
3.79559e-05
-4.05635e-05
3.84831e-05
-3.97359e-05
3.92522e-05
-3.90637e-05
4.02456e-05
-3.85311e-05
4.1428e-05
-3.81147e-05
4.27579e-05
-3.77949e-05
4.42216e-05
-3.7543e-05
4.5791e-05
-3.7348e-05
4.7453e-05
-3.72278e-05
4.91993e-05
-3.71343e-05
5.10193e-05
-3.70908e-05
5.28844e-05
-3.7063e-05
-3.70743e-05
5.48147e-05
4.70358e-05
-5.01422e-05
-5.15353e-05
4.36412e-05
-4.78839e-05
4.11575e-05
-4.60315e-05
3.94146e-05
-4.45035e-05
3.83137e-05
-4.32724e-05
3.77354e-05
-4.226e-05
3.76086e-05
-4.14548e-05
3.78307e-05
-4.07856e-05
3.83696e-05
-4.02748e-05
3.91629e-05
-3.98569e-05
4.01823e-05
-3.95505e-05
4.13663e-05
-3.92987e-05
4.27061e-05
-3.91347e-05
4.41807e-05
-3.90176e-05
4.57684e-05
-3.89357e-05
4.74326e-05
-3.8892e-05
4.91963e-05
-3.88981e-05
5.1009e-05
-3.89035e-05
5.28914e-05
-3.89454e-05
-3.90002e-05
5.48173e-05
4.69091e-05
-4.55865e-05
-5.14649e-05
4.34736e-05
-4.44484e-05
4.09549e-05
-4.35128e-05
3.92217e-05
-4.27702e-05
3.81198e-05
-4.21705e-05
3.75456e-05
-4.16858e-05
3.74091e-05
-4.13184e-05
3.76655e-05
-4.1042e-05
3.82062e-05
-4.08155e-05
3.90164e-05
-4.06671e-05
4.00382e-05
-4.05723e-05
4.12486e-05
-4.05092e-05
4.26054e-05
-4.04915e-05
4.40856e-05
-4.04977e-05
4.56833e-05
-4.05334e-05
4.73766e-05
-4.05853e-05
4.91322e-05
-4.06536e-05
5.09638e-05
-4.07351e-05
5.28564e-05
-4.0838e-05
-4.09314e-05
5.47876e-05
4.66869e-05
-5.12996e-05
-4.09737e-05
4.32004e-05
-4.09619e-05
4.06677e-05
-4.09801e-05
3.89178e-05
-4.10203e-05
3.78148e-05
-4.10675e-05
3.72611e-05
-4.11321e-05
3.71489e-05
-4.12062e-05
3.73974e-05
-4.12904e-05
3.79725e-05
-4.13906e-05
3.88012e-05
-4.14957e-05
3.9837e-05
-4.16082e-05
4.10639e-05
-4.1736e-05
4.24403e-05
-4.18678e-05
4.39469e-05
-4.20043e-05
4.55561e-05
-4.21427e-05
4.72504e-05
-4.22796e-05
4.90238e-05
-4.24271e-05
5.08653e-05
-4.25765e-05
5.27543e-05
-4.2727e-05
5.47061e-05
-4.28832e-05
5.18124e-05
-6.34266e-06
4.35537e-06
5.368e-05
-7.27372e-06
5.4061e-06
5.54585e-05
-8.39418e-06
6.61582e-06
5.71413e-05
-9.76038e-06
8.07751e-06
5.87092e-05
-1.14111e-05
9.84328e-06
6.01433e-05
-1.34142e-05
1.19801e-05
6.14156e-05
-1.584e-05
1.45676e-05
6.25008e-05
-1.87792e-05
1.7694e-05
6.33582e-05
-2.23342e-05
2.14768e-05
6.39534e-05
-2.66311e-05
2.60359e-05
6.42398e-05
-3.18085e-05
3.1522e-05
6.41837e-05
-3.80532e-05
3.81093e-05
6.37366e-05
-4.55512e-05
4.59982e-05
6.28524e-05
-5.45453e-05
5.54295e-05
6.14821e-05
-6.53125e-05
6.66826e-05
5.95516e-05
-7.81837e-05
8.01141e-05
5.69542e-05
-9.3554e-05
9.61512e-05
5.35341e-05
-0.000111911
0.000115331
4.90828e-05
-0.000133864
0.000138315
-0.000160144
0.000165848
4.3379e-05
5.55649e-05
-8.28407e-06
5.74657e-05
-9.17454e-06
5.92954e-05
-1.02238e-05
6.10336e-05
-1.14986e-05
6.26752e-05
-1.30526e-05
6.4177e-05
-1.4916e-05
6.55215e-05
-1.71845e-05
6.66633e-05
-1.9921e-05
6.75708e-05
-2.32418e-05
6.81963e-05
-2.72566e-05
6.85014e-05
-3.21136e-05
6.84218e-05
-3.79736e-05
6.79115e-05
-4.5041e-05
6.69003e-05
-5.35341e-05
6.53226e-05
-6.37349e-05
6.30903e-05
-7.59514e-05
6.01031e-05
-9.05668e-05
5.62381e-05
-0.000108046
5.13226e-05
-0.000128948
-0.000154017
4.51952e-05
5.66483e-05
-1.02298e-05
5.85352e-05
-1.10615e-05
6.03872e-05
-1.20758e-05
6.21782e-05
-1.32896e-05
6.38732e-05
-1.47476e-05
6.54637e-05
-1.65065e-05
6.69046e-05
-1.86254e-05
6.81745e-05
-2.1191e-05
6.92294e-05
-2.42966e-05
7.00098e-05
-2.80371e-05
7.04641e-05
-3.25679e-05
7.05259e-05
-3.80355e-05
7.01228e-05
-4.4638e-05
6.91811e-05
-5.25924e-05
6.76149e-05
-6.21687e-05
6.53376e-05
-7.36741e-05
6.22524e-05
-8.74816e-05
5.82272e-05
-0.000104021
5.31175e-05
-0.000123839
-0.000147622
4.67229e-05
5.72405e-05
-1.21609e-05
5.91377e-05
-1.29586e-05
6.0985e-05
-1.39232e-05
6.27619e-05
-1.50664e-05
6.44464e-05
-1.64321e-05
6.60381e-05
-1.80982e-05
6.74991e-05
-2.00863e-05
6.8792e-05
-2.24839e-05
6.98815e-05
-2.53861e-05
7.07266e-05
-2.88821e-05
7.12627e-05
-3.3104e-05
7.1427e-05
-3.81998e-05
7.11451e-05
-4.43561e-05
7.03304e-05
-5.17777e-05
6.88893e-05
-6.07277e-05
6.67145e-05
-7.14994e-05
6.36829e-05
-8.44501e-05
5.96683e-05
-0.000100007
5.45066e-05
-0.000118677
-0.000141113
4.79971e-05
5.74216e-05
-1.40988e-05
5.93096e-05
-1.48465e-05
6.11526e-05
-1.57662e-05
6.29226e-05
-1.68365e-05
6.46264e-05
-1.81359e-05
6.62187e-05
-1.96906e-05
6.76908e-05
-2.15584e-05
6.90049e-05
-2.3798e-05
7.0129e-05
-2.65103e-05
7.10168e-05
-2.97699e-05
7.1611e-05
-3.36982e-05
7.18574e-05
-3.84463e-05
7.16645e-05
-4.41632e-05
7.09596e-05
-5.10728e-05
6.963e-05
-5.93981e-05
6.75691e-05
-6.94385e-05
6.46442e-05
-8.15252e-05
6.07118e-05
-9.60744e-05
5.56009e-05
-0.000113566
-0.000134586
4.90741e-05
5.74285e-05
-1.60261e-05
5.93226e-05
-1.67406e-05
6.11554e-05
-1.7599e-05
6.29384e-05
-1.86195e-05
6.46323e-05
-1.98298e-05
6.62255e-05
-2.12838e-05
6.7704e-05
-2.30369e-05
6.90276e-05
-2.51216e-05
7.01702e-05
-2.76529e-05
7.10815e-05
-3.06812e-05
7.17153e-05
-3.43321e-05
7.2008e-05
-3.8739e-05
7.18911e-05
-4.40462e-05
7.12692e-05
-5.0451e-05
7.00459e-05
-5.81748e-05
6.8097e-05
-6.74896e-05
6.5288e-05
-7.87162e-05
6.14634e-05
-9.22499e-05
5.64358e-05
-0.000108539
-0.000128152
5.00017e-05
5.73562e-05
-1.79602e-05
5.92406e-05
-1.86249e-05
6.10797e-05
-1.94381e-05
6.28469e-05
-2.03867e-05
6.45496e-05
-2.15325e-05
6.61445e-05
-2.28787e-05
6.7617e-05
-2.45094e-05
6.89533e-05
-2.64579e-05
7.01037e-05
-2.88032e-05
7.104e-05
-3.16176e-05
7.17017e-05
-3.49938e-05
7.20366e-05
-3.90738e-05
7.19679e-05
-4.39776e-05
7.1413e-05
-4.9896e-05
7.02721e-05
-5.7034e-05
6.842e-05
-6.56375e-05
6.57183e-05
-7.60145e-05
6.19987e-05
-8.85304e-05
5.7068e-05
-0.000103608
-0.000121783
5.06988e-05
5.72288e-05
-1.98846e-05
5.91197e-05
-2.05159e-05
6.09574e-05
-2.12758e-05
6.2731e-05
-2.21603e-05
6.44182e-05
-2.32197e-05
6.60224e-05
-2.44829e-05
6.75033e-05
-2.59903e-05
6.88486e-05
-2.78032e-05
7.00032e-05
-2.99578e-05
7.09471e-05
-3.25614e-05
7.16313e-05
-3.5678e-05
7.19905e-05
-3.94331e-05
7.19628e-05
-4.39498e-05
7.14639e-05
-4.93972e-05
7.03857e-05
-5.59557e-05
6.86123e-05
-6.38642e-05
6.60017e-05
-7.34039e-05
6.23793e-05
-8.4908e-05
5.7553e-05
-9.87815e-05
-0.000115512
5.1282e-05
5.70962e-05
-2.18058e-05
5.89877e-05
-2.24074e-05
6.08264e-05
-2.31145e-05
6.25995e-05
-2.39335e-05
6.42916e-05
-2.49118e-05
6.58887e-05
-2.60801e-05
6.73762e-05
-2.74777e-05
6.87167e-05
-2.91437e-05
6.98875e-05
-3.11286e-05
7.08364e-05
-3.35104e-05
7.1542e-05
-3.63836e-05
7.19258e-05
-3.98169e-05
7.19299e-05
-4.39539e-05
7.14663e-05
-4.89336e-05
7.04407e-05
-5.49301e-05
6.87318e-05
-6.21553e-05
6.61966e-05
-7.08687e-05
6.26664e-05
-8.13777e-05
5.79324e-05
-9.40476e-05
-0.000109334
5.17548e-05
5.69835e-05
-2.37376e-05
5.88626e-05
-2.42865e-05
6.06898e-05
-2.49417e-05
6.24651e-05
-2.57087e-05
6.41679e-05
-2.66147e-05
6.57742e-05
-2.76864e-05
6.72546e-05
-2.89581e-05
6.85994e-05
-3.04884e-05
6.97699e-05
-3.22992e-05
7.07397e-05
-3.44802e-05
7.14451e-05
-3.70889e-05
7.18487e-05
-4.02205e-05
7.18771e-05
-4.39823e-05
7.14456e-05
-4.85021e-05
7.04612e-05
-5.39457e-05
6.88067e-05
-6.05009e-05
6.63341e-05
-6.83961e-05
6.28784e-05
-7.79221e-05
5.82307e-05
-8.93999e-05
-0.000103248
5.21441e-05
5.6868e-05
-2.56588e-05
5.87556e-05
-2.61741e-05
6.05934e-05
-2.67795e-05
6.23645e-05
-2.74798e-05
6.40599e-05
-2.831e-05
6.566e-05
-2.92865e-05
6.71523e-05
-3.04504e-05
6.85006e-05
-3.18368e-05
6.96827e-05
-3.34812e-05
7.06535e-05
-3.54511e-05
7.1374e-05
-3.78094e-05
7.17909e-05
-4.06374e-05
7.1831e-05
-4.40224e-05
7.14278e-05
-4.8099e-05
7.04733e-05
-5.29912e-05
6.88555e-05
-5.88831e-05
6.64394e-05
-6.598e-05
6.3041e-05
-7.45237e-05
5.84681e-05
-8.4827e-05
-9.72462e-05
5.24666e-05
5.67942e-05
-2.75865e-05
5.86745e-05
-2.80544e-05
6.05102e-05
-2.86152e-05
6.22777e-05
-2.92473e-05
6.39741e-05
-3.00064e-05
6.55834e-05
-3.08958e-05
6.70759e-05
-3.19429e-05
6.84275e-05
-3.31884e-05
6.96117e-05
-3.46654e-05
7.05907e-05
-3.64301e-05
7.13212e-05
-3.85399e-05
7.1744e-05
-4.10602e-05
7.18025e-05
-4.40809e-05
7.14137e-05
-4.77102e-05
7.0485e-05
-5.20625e-05
6.89028e-05
-5.73008e-05
6.6521e-05
-6.35982e-05
6.31766e-05
-7.11793e-05
5.8663e-05
-8.03134e-05
-9.13177e-05
5.27344e-05
5.67343e-05
-2.9507e-05
5.86215e-05
-2.99416e-05
6.04511e-05
-3.04448e-05
6.22314e-05
-3.10276e-05
6.39307e-05
-3.17057e-05
6.55339e-05
-3.24989e-05
6.70283e-05
-3.34373e-05
6.83804e-05
-3.45406e-05
6.95662e-05
-3.58512e-05
7.05536e-05
-3.74174e-05
7.1288e-05
-3.92743e-05
7.17233e-05
-4.14956e-05
7.1794e-05
-4.41516e-05
7.14148e-05
-4.7331e-05
7.0507e-05
-5.11546e-05
6.89434e-05
-5.57373e-05
6.65928e-05
-6.12476e-05
6.3287e-05
-6.78735e-05
5.88241e-05
-7.58505e-05
-8.54543e-05
5.29607e-05
5.67164e-05
-3.14348e-05
5.85972e-05
-3.18223e-05
6.04337e-05
-3.22813e-05
6.22105e-05
-3.28044e-05
6.39065e-05
-3.34018e-05
6.55108e-05
-3.41033e-05
6.70067e-05
-3.49332e-05
6.8365e-05
-3.58988e-05
6.95573e-05
-3.70435e-05
7.05399e-05
-3.84e-05
7.12806e-05
-4.0015e-05
7.17167e-05
-4.19317e-05
7.17929e-05
-4.42277e-05
7.14314e-05
-4.69695e-05
7.05313e-05
-5.02545e-05
6.89881e-05
-5.41941e-05
6.66619e-05
-5.89215e-05
6.33867e-05
-6.45984e-05
5.89636e-05
-7.14274e-05
-7.96385e-05
5.31478e-05
5.67084e-05
-3.33566e-05
5.85969e-05
-3.37107e-05
6.04363e-05
-3.41208e-05
6.22041e-05
-3.45722e-05
6.39109e-05
-3.51086e-05
6.55162e-05
-3.57086e-05
6.70132e-05
-3.64302e-05
6.83707e-05
-3.72563e-05
6.95624e-05
-3.82353e-05
7.05512e-05
-3.93887e-05
7.12891e-05
-4.07529e-05
7.17362e-05
-4.23788e-05
7.18144e-05
-4.43058e-05
7.14587e-05
-4.66139e-05
7.05687e-05
-4.93645e-05
6.90337e-05
-5.26591e-05
6.67247e-05
-5.66124e-05
6.34718e-05
-6.13455e-05
5.90792e-05
-6.70348e-05
-7.38674e-05
5.33081e-05
5.673e-05
-3.52873e-05
5.86133e-05
-3.5594e-05
6.04437e-05
-3.59511e-05
6.22286e-05
-3.63571e-05
6.3923e-05
-3.68031e-05
6.55417e-05
-3.73273e-05
6.70343e-05
-3.79228e-05
6.83924e-05
-3.86144e-05
6.95808e-05
-3.94236e-05
7.05741e-05
-4.0382e-05
7.13162e-05
-4.14951e-05
7.1757e-05
-4.28196e-05
7.18418e-05
-4.43907e-05
7.14858e-05
-4.62579e-05
7.06014e-05
-4.848e-05
6.90806e-05
-5.11384e-05
6.67787e-05
-5.43105e-05
6.3547e-05
-5.81137e-05
5.9183e-05
-6.26708e-05
-6.81362e-05
5.34518e-05
5.67414e-05
-3.7214e-05
5.86318e-05
-3.74844e-05
6.04765e-05
-3.77959e-05
6.22468e-05
-3.81274e-05
6.39536e-05
-3.85098e-05
6.55623e-05
-3.8936e-05
6.70603e-05
-3.94208e-05
6.84184e-05
-3.99726e-05
6.96128e-05
-4.0618e-05
7.05999e-05
-4.13691e-05
7.13416e-05
-4.22368e-05
7.1787e-05
-4.3265e-05
7.18698e-05
-4.44735e-05
7.15146e-05
-4.59027e-05
7.0634e-05
-4.75994e-05
6.91124e-05
-4.96168e-05
6.6823e-05
-5.20212e-05
6.36019e-05
-5.48926e-05
5.92565e-05
-5.83253e-05
-6.24353e-05
5.35555e-05
5.67481e-05
-3.91448e-05
5.8644e-05
-3.93803e-05
6.04875e-05
-3.96394e-05
6.22678e-05
-3.99077e-05
6.39721e-05
-4.02141e-05
6.55792e-05
-4.05431e-05
6.70705e-05
-4.09121e-05
6.84332e-05
-4.13353e-05
6.96269e-05
-4.18117e-05
7.06092e-05
-4.23514e-05
7.13554e-05
-4.2983e-05
7.17943e-05
-4.37039e-05
7.18781e-05
-4.45573e-05
7.15225e-05
-4.55472e-05
7.06408e-05
-4.67177e-05
6.91239e-05
-4.80999e-05
6.68408e-05
-4.9738e-05
6.36294e-05
-5.16812e-05
5.93022e-05
-5.39981e-05
-5.67581e-05
5.3625e-05
5.67309e-05
-4.10882e-05
5.86247e-05
-4.1274e-05
6.04721e-05
-4.14867e-05
6.22574e-05
-4.1693e-05
6.39611e-05
-4.19177e-05
6.55667e-05
-4.21488e-05
6.70676e-05
-4.2413e-05
6.84257e-05
-4.26933e-05
6.96182e-05
-4.30043e-05
7.06026e-05
-4.33357e-05
7.13377e-05
-4.37181e-05
7.1782e-05
-4.41483e-05
7.18586e-05
-4.46339e-05
7.15035e-05
-4.51921e-05
7.06222e-05
-4.58365e-05
6.91054e-05
-4.65831e-05
6.68221e-05
-4.74548e-05
6.36171e-05
-4.84763e-05
5.9301e-05
-4.9682e-05
-5.11061e-05
5.3649e-05
5.66486e-05
-4.30308e-05
5.85541e-05
-4.31795e-05
6.04038e-05
-4.33364e-05
6.21957e-05
-4.34849e-05
6.38999e-05
-4.3622e-05
6.55135e-05
-4.37624e-05
6.70084e-05
-4.39079e-05
6.83675e-05
-4.40524e-05
6.95513e-05
-4.4188e-05
7.05389e-05
-4.43234e-05
7.12788e-05
-4.44581e-05
7.17109e-05
-4.45803e-05
7.17823e-05
-4.47053e-05
7.14289e-05
-4.48386e-05
7.05424e-05
-4.495e-05
6.90228e-05
-4.50635e-05
6.67449e-05
-4.51769e-05
6.35478e-05
-4.52792e-05
5.92489e-05
-4.53831e-05
5.36253e-05
-4.54825e-05
-4.16169e-07
0.000185513
-0.000193278
8.18145e-06
5.952e-06
0.000153747
-0.000160115
1.09733e-05
0.000127126
-0.000132147
1.47708e-05
0.000104884
-0.000108682
1.74662e-05
8.64746e-05
-8.91696e-05
1.92078e-05
7.12684e-05
-7.301e-05
2.00595e-05
5.88811e-05
-5.97325e-05
2.02479e-05
4.87262e-05
-4.89146e-05
1.98366e-05
4.04987e-05
-4.00872e-05
1.89643e-05
3.37587e-05
-3.28865e-05
1.77037e-05
2.82848e-05
-2.70241e-05
1.61416e-05
2.37941e-05
-2.22321e-05
1.43209e-05
2.01204e-05
-1.82997e-05
1.22981e-05
1.7073e-05
-1.50502e-05
1.01227e-05
1.4589e-05
-1.24136e-05
7.78448e-06
1.25361e-05
-1.01979e-05
5.34412e-06
1.08267e-05
-8.38637e-06
2.82142e-06
9.39597e-06
-6.87323e-06
1.8456e-07
8.2204e-06
-5.58358e-06
7.25949e-06
-2.65827e-06
-4.41659e-06
-8.19705e-07
0.000177739
8.59385e-06
5.40172e-06
0.000147525
1.02351e-05
0.000122292
1.37988e-05
0.000101321
1.62181e-05
8.40554e-05
1.76037e-05
6.98829e-05
1.81853e-05
5.82995e-05
1.80627e-05
4.88488e-05
1.74195e-05
4.11419e-05
1.63307e-05
3.48477e-05
1.49592e-05
2.96563e-05
1.3317e-05
2.54364e-05
1.15038e-05
2.19335e-05
9.55266e-06
1.90242e-05
7.48924e-06
1.66524e-05
5.35558e-06
1.46699e-05
3.17125e-06
1.3011e-05
8.95853e-07
1.16714e-05
-1.3953e-06
1.05116e-05
9.56881e-06
-3.70461e-06
-1.04959e-06
0.000169988
8.80091e-06
5.05612e-06
0.00014142
9.71584e-06
0.000117633
1.30251e-05
9.80115e-05
1.51988e-05
8.18818e-05
1.64254e-05
6.86563e-05
1.68904e-05
5.78346e-05
1.67177e-05
4.90215e-05
1.60628e-05
4.17968e-05
1.5067e-05
3.58435e-05
1.37385e-05
3.09848e-05
1.22149e-05
2.69601e-05
1.05262e-05
2.36223e-05
8.65752e-06
2.08929e-05
6.68919e-06
1.86207e-05
4.6406e-06
1.67185e-05
2.51024e-06
1.51414e-05
3.35285e-07
1.38464e-05
-1.90557e-06
1.27524e-05
1.18579e-05
-4.19464e-06
-1.1302e-06
0.000162299
8.81935e-06
4.86446e-06
0.000135425
9.30612e-06
0.000113191
1.24654e-05
9.48523e-05
1.45246e-05
7.98228e-05
1.56663e-05
6.75147e-05
1.60556e-05
5.74453e-05
1.59102e-05
4.91669e-05
1.53117e-05
4.23953e-05
1.43297e-05
3.68256e-05
1.3103e-05
3.22114e-05
1.16225e-05
2.84406e-05
9.97351e-06
2.52713e-05
8.17792e-06
2.26885e-05
6.27569e-06
2.05229e-05
4.24636e-06
1.87478e-05
2.14816e-06
1.72396e-05
-4.94332e-10
1.59951e-05
-2.24041e-06
1.49923e-05
1.41111e-05
-4.49364e-06
-1.10873e-06
0.00015469
8.71731e-06
4.72939e-06
0.000129587
9.05118e-06
0.00010887
1.2093e-05
9.18105e-05
1.40538e-05
7.7862e-05
1.51596e-05
6.6409e-05
1.55879e-05
5.7017e-05
1.54432e-05
4.93116e-05
1.48584e-05
4.29801e-05
1.39352e-05
3.77488e-05
1.27268e-05
3.34197e-05
1.13009e-05
2.98665e-05
9.68141e-06
2.68907e-05
7.90995e-06
2.446e-05
6.00687e-06
2.2426e-05
4.01172e-06
2.0743e-05
1.9239e-06
1.93274e-05
-2.37448e-07
1.81564e-05
-2.43353e-06
1.71884e-05
1.63822e-05
-4.70453e-06
-1.02526e-06
0.000147204
8.5111e-06
4.68738e-06
0.000123874
8.91449e-06
0.000104642
1.18485e-05
8.88765e-05
1.37571e-05
7.59535e-05
1.48406e-05
6.53254e-05
1.52481e-05
5.66094e-05
1.51371e-05
4.94227e-05
1.45927e-05
4.35246e-05
1.36917e-05
3.86498e-05
1.25047e-05
3.46067e-05
1.10779e-05
3.12934e-05
9.47454e-06
2.84941e-05
7.7161e-06
2.62185e-05
5.82314e-06
2.4319e-05
3.85542e-06
2.27107e-05
1.77277e-06
2.141e-05
-3.85429e-07
2.03146e-05
-2.59976e-06
1.94027e-05
1.86531e-05
-4.87072e-06
-9.23301e-07
0.000139816
8.31175e-06
4.71647e-06
0.000118235
8.80535e-06
0.000100554
1.16945e-05
8.59874e-05
1.35864e-05
7.40616e-05
1.46341e-05
6.42776e-05
1.50622e-05
5.61814e-05
1.49395e-05
4.95454e-05
1.43875e-05
4.40766e-05
1.34999e-05
3.95373e-05
1.23254e-05
3.57812e-05
1.09291e-05
3.26897e-05
9.33392e-06
3.00892e-05
7.58137e-06
2.7971e-05
5.71216e-06
2.61882e-05
3.70642e-06
2.47164e-05
1.62397e-06
2.34925e-05
-5.35474e-07
2.2474e-05
-2.75227e-06
2.16195e-05
2.09077e-05
-5.00687e-06
-7.62571e-07
0.00013251
8.0686e-06
4.73519e-06
0.000112737
8.78761e-06
9.65012e-05
1.16028e-05
8.31722e-05
1.3444e-05
7.22204e-05
1.45202e-05
6.32015e-05
1.49052e-05
5.57964e-05
1.48069e-05
4.96436e-05
1.4282e-05
4.46016e-05
1.34018e-05
4.04175e-05
1.22137e-05
3.69693e-05
1.0843e-05
3.40604e-05
9.23159e-06
3.17007e-05
7.48135e-06
2.97212e-05
5.59294e-06
2.80766e-05
3.6066e-06
2.67028e-05
1.52231e-06
2.55768e-05
-6.20105e-07
2.46164e-05
-2.84085e-06
2.38403e-05
2.3187e-05
-5.12021e-06
-5.93337e-07
0.000125346
7.75775e-06
4.80488e-06
0.000107339
8.7662e-06
9.25399e-05
1.15577e-05
8.03807e-05
1.33737e-05
7.04044e-05
1.44175e-05
6.21576e-05
1.48403e-05
5.53736e-05
1.4723e-05
4.97609e-05
1.41813e-05
4.51434e-05
1.3305e-05
4.12937e-05
1.21608e-05
3.81135e-05
1.07521e-05
3.54691e-05
9.16198e-06
3.32908e-05
7.41158e-06
3.14716e-05
5.52175e-06
2.99665e-05
3.53284e-06
2.86916e-05
1.44489e-06
2.76647e-05
-7.22169e-07
2.67835e-05
-2.94848e-06
2.60666e-05
2.54528e-05
-5.21426e-06
-4.19706e-07
0.000118278
7.48738e-06
4.91318e-06
0.000102006
8.81414e-06
8.86389e-05
1.15465e-05
7.76484e-05
1.33612e-05
6.85897e-05
1.43734e-05
6.11453e-05
1.4792e-05
5.4955e-05
1.46744e-05
4.98785e-05
1.41541e-05
4.56636e-05
1.32592e-05
4.21886e-05
1.2096e-05
3.92767e-05
1.0708e-05
3.68571e-05
9.11722e-06
3.48816e-05
7.36519e-06
3.32236e-05
5.4927e-06
3.18389e-05
3.47996e-06
3.07044e-05
1.40731e-06
2.97374e-05
-7.65418e-07
2.89562e-05
-2.99828e-06
2.82994e-05
2.77459e-05
-5.29139e-06
-2.57964e-07
0.000111313
7.22235e-06
4.98565e-06
9.67622e-05
8.83793e-06
8.47866e-05
1.15596e-05
7.49268e-05
1.33351e-05
6.68142e-05
1.43788e-05
6.01017e-05
1.4752e-05
5.45817e-05
1.4633e-05
4.99976e-05
1.41127e-05
4.61839e-05
1.32586e-05
4.30427e-05
1.20953e-05
4.04401e-05
1.06862e-05
3.82662e-05
9.09367e-06
3.64741e-05
7.33893e-06
3.49784e-05
5.44263e-06
3.37352e-05
3.44531e-06
3.27017e-05
1.34699e-06
3.18357e-05
-8.32262e-07
3.11355e-05
-3.05241e-06
3.05196e-05
3.00473e-05
-5.35374e-06
-8.34438e-08
0.00010443
6.96718e-06
5.09252e-06
9.15863e-05
8.92067e-06
8.09585e-05
1.15932e-05
7.22542e-05
1.3352e-05
6.50555e-05
1.43659e-05
5.90878e-05
1.47755e-05
5.41721e-05
1.46543e-05
5.01188e-05
1.41126e-05
4.67255e-05
1.32374e-05
4.39179e-05
1.2073e-05
4.16046e-05
1.06823e-05
3.96568e-05
9.0873e-06
3.80692e-05
7.32909e-06
3.67366e-05
5.42842e-06
3.56359e-05
3.42578e-06
3.47044e-05
1.32124e-06
3.39402e-05
-8.4502e-07
3.33017e-05
-3.11332e-06
3.27879e-05
3.23373e-05
-5.40338e-06
7.50579e-08
9.7663e-05
6.69166e-06
5.23114e-06
8.64302e-05
8.97656e-06
7.72131e-05
1.1644e-05
6.95868e-05
1.34078e-05
6.32918e-05
1.43921e-05
5.81034e-05
1.47763e-05
5.3788e-05
1.46727e-05
5.02223e-05
1.41496e-05
4.72486e-05
1.32728e-05
4.47947e-05
1.21065e-05
4.27709e-05
1.06932e-05
4.10701e-05
9.09494e-06
3.96674e-05
7.33271e-06
3.84988e-05
5.4473e-06
3.75213e-05
3.41867e-06
3.6733e-05
1.30742e-06
3.60515e-05
-8.86555e-07
3.54957e-05
-3.12307e-06
3.50244e-05
3.46568e-05
-5.44255e-06
2.76636e-07
9.09579e-05
6.42854e-06
5.33407e-06
8.13728e-05
9.06348e-06
7.34837e-05
1.17075e-05
6.69427e-05
1.34363e-05
6.1563e-05
1.44326e-05
5.71071e-05
1.4832e-05
5.33885e-05
1.47048e-05
5.03496e-05
1.4159e-05
4.77944e-05
1.328e-05
4.56736e-05
1.21113e-05
4.39397e-05
1.07152e-05
4.24661e-05
9.11332e-06
4.12693e-05
7.34661e-06
4.02655e-05
5.43568e-06
3.94322e-05
3.42104e-06
3.87476e-05
1.32291e-06
3.81496e-05
-8.79038e-07
3.76977e-05
-3.1445e-06
3.72899e-05
3.6986e-05
-5.47369e-06
4.4576e-07
8.43226e-05
6.18954e-06
5.45673e-06
7.63618e-05
9.17584e-06
6.97646e-05
1.1779e-05
6.43395e-05
1.34951e-05
5.9847e-05
1.45038e-05
5.60984e-05
1.48572e-05
5.30351e-05
1.47469e-05
5.04599e-05
1.42186e-05
4.83227e-05
1.33166e-05
4.65756e-05
1.21651e-05
4.50912e-05
1.07454e-05
4.38858e-05
9.13933e-06
4.28753e-05
7.36776e-06
4.20371e-05
5.45115e-06
4.13489e-05
3.45025e-06
4.07485e-05
1.30433e-06
4.02955e-05
-9.05868e-07
3.99079e-05
-3.18043e-06
3.95644e-05
3.93049e-05
-5.49935e-06
6.15342e-07
7.77498e-05
5.95748e-06
5.60408e-06
7.13731e-05
9.25297e-06
6.61157e-05
1.1858e-05
6.17345e-05
1.35824e-05
5.81226e-05
1.45421e-05
5.51386e-05
1.4931e-05
5.26463e-05
1.47961e-05
5.05948e-05
1.4244e-05
4.88749e-05
1.33793e-05
4.74402e-05
1.21838e-05
4.62868e-05
1.07804e-05
4.52892e-05
9.16985e-06
4.44859e-05
7.39309e-06
4.38138e-05
5.49078e-06
4.32512e-05
3.44264e-06
4.27966e-05
1.30933e-06
4.24288e-05
-8.89044e-07
4.21062e-05
-3.17288e-06
4.18483e-05
4.16542e-05
-5.52216e-06
7.86668e-07
7.12293e-05
5.73381e-06
5.71414e-06
6.64456e-05
9.37715e-06
6.24527e-05
1.19434e-05
5.91682e-05
1.3635e-05
5.6431e-05
1.46069e-05
5.41667e-05
1.49692e-05
5.2284e-05
1.48499e-05
5.07141e-05
1.4314e-05
4.94108e-05
1.34047e-05
4.83495e-05
1.22457e-05
4.74458e-05
1.08176e-05
4.67174e-05
9.20214e-06
4.61013e-05
7.41986e-06
4.55961e-05
5.49107e-06
4.518e-05
3.4562e-06
4.48315e-05
1.31507e-06
4.457e-05
-8.91877e-07
4.43132e-05
-3.20548e-06
4.41619e-05
4.39934e-05