/*--------------------------------*- C++ -*----------------------------------*\
| =========                 |                                                 |
| \\      /  F ield         | OpenFOAM: The Open Source CFD Toolbox           |
|  \\    /   O peration     | Version:  2.3.0                                 |
|   \\  /    A nd           | Web:      www.OpenFOAM.org                      |
|    \\/     M anipulation  |                                                 |
\*---------------------------------------------------------------------------*/
FoamFile
{
    version     2.0;
    format      ascii;
    class       volVectorField;
    location    "150";
    object      U;
}
// * * * * * * * * * * * * * * * * * * * * * * * * * * * * * * * * * * * * * //

dimensions      [0 1 -1 0 0 0 0];

internalField   nonuniform List<vector> 
28256
(
(15.5899 0.856179 -3.16141e-20)
(15.3695 0.832472 -1.24022e-19)
(15.235 0.745905 2.25458e-19)
(15.1592 0.638272 -1.09884e-19)
(15.1488 0.503378 2.25418e-19)
(15.2082 0.344707 0)
(15.3342 0.177553 1.86719e-19)
(15.5219 0.0131635 -2.09641e-19)
(15.7638 -0.138787 0)
(16.046 -0.266418 0)
(16.3587 -0.367404 2.85609e-20)
(16.6901 -0.439784 0)
(17.0312 -0.486338 0)
(17.3725 -0.510274 8.27162e-22)
(17.7082 -0.516866 3.89686e-21)
(18.0301 -0.505653 3.54247e-21)
(18.3373 -0.483312 -4.53106e-21)
(18.6248 -0.449454 1.03666e-20)
(18.9001 -0.417308 5.0612e-21)
(19.1589 -0.3915 -1.34832e-20)
(15.8677 0.400927 1.67047e-20)
(15.7594 0.269528 -4.04627e-20)
(15.7491 0.0972944 -1.49564e-19)
(15.815 -0.0828238 1.12531e-19)
(15.9553 -0.267395 -1.53643e-20)
(16.1631 -0.448015 0)
(16.4267 -0.615152 0)
(16.7326 -0.763802 1.00331e-19)
(17.0648 -0.889059 -1.53144e-19)
(17.4083 -0.988424 6.56152e-20)
(17.75 -1.06138 0)
(18.0793 -1.10874 6.0755e-22)
(18.3887 -1.13277 -1.51942e-20)
(18.6731 -1.13678 1.61867e-20)
(18.9302 -1.12465 -9.05029e-21)
(19.1585 -1.09911 2.05342e-20)
(19.3602 -1.06485 8.91127e-21)
(19.5353 -1.02446 -1.84267e-20)
(19.6866 -0.979977 -2.98681e-20)
(19.8172 -0.933261 2.78659e-20)
(16.1683 0.0203633 9.37738e-21)
(16.1548 -0.156563 1.24911e-20)
(16.2349 -0.359782 -1.08494e-20)
(16.3855 -0.558294 4.00316e-20)
(16.5971 -0.747124 -4.92687e-20)
(16.8561 -0.917516 -7.31215e-21)
(17.1478 -1.06253 0)
(17.4577 -1.17789 1.2262e-20)
(17.7721 -1.26156 0)
(18.0803 -1.31536 4.3768e-21)
(18.3743 -1.34255 -5.60347e-21)
(18.6486 -1.34758 1.85424e-20)
(18.8997 -1.33501 6.79764e-21)
(19.1268 -1.30962 -1.73358e-20)
(19.3301 -1.27503 -2.08611e-21)
(19.5108 -1.23441 0)
(19.6703 -1.19044 -6.59739e-22)
(19.8112 -1.14504 3.10186e-20)
(19.935 -1.09943 -2.83295e-20)
(20.0439 -1.05442 -4.72428e-22)
(16.479 -0.289137 0)
(16.5322 -0.469139 0)
(16.6741 -0.669358 -1.8335e-21)
(16.8742 -0.851175 5.25712e-21)
(17.1194 -1.0111 -6.14377e-22)
(17.3943 -1.14453 6.75168e-21)
(17.6846 -1.24921 0)
(17.9775 -1.32529 -5.53869e-21)
(18.2627 -1.37456 -1.48951e-20)
(18.5334 -1.40077 1.48281e-20)
(18.785 -1.40797 0)
(19.0152 -1.39993 1.423e-21)
(19.2236 -1.38026 0)
(19.4107 -1.35229 4.55112e-22)
(19.5777 -1.31859 1.55527e-21)
(19.7266 -1.28116 1.9325e-21)
(19.8591 -1.24165 0)
(19.9769 -1.20112 0)
(20.0819 -1.1604 -9.99108e-22)
(20.1756 -1.1201 0)
(16.784 -0.512795 0)
(16.8817 -0.693347 2.70785e-20)
(17.0591 -0.877185 -5.97206e-20)
(17.2808 -1.03353 3.04397e-20)
(17.5321 -1.16265 2.95516e-20)
(17.7988 -1.26368 -1.48681e-20)
(18.0686 -1.33739 -2.57106e-20)
(18.3325 -1.38614 8.2517e-20)
(18.5835 -1.41306 -4.92803e-20)
(18.8179 -1.42196 -8.27394e-21)
(19.0335 -1.41662 0)
(19.2298 -1.40038 -3.1607e-21)
(19.4073 -1.37615 0)
(19.5672 -1.34621 3.43445e-22)
(19.7109 -1.31248 -3.36077e-20)
(19.8398 -1.27637 2.89338e-20)
(19.9559 -1.23879 2.08342e-21)
(20.0602 -1.20062 1.04214e-21)
(20.1543 -1.16244 1.01183e-21)
(20.2393 -1.12452 0)
(17.0723 -0.70062 -1.06928e-19)
(17.1991 -0.85503 -3.85898e-20)
(17.3931 -1.01395 6.76727e-20)
(17.6186 -1.14215 -2.73289e-20)
(17.8619 -1.24198 9.08176e-21)
(18.1111 -1.31542 -1.92918e-20)
(18.3566 -1.36504 0)
(18.5919 -1.39417 9.73721e-21)
(18.8129 -1.40635 2.69591e-20)
(19.0175 -1.40495 1.14048e-20)
(19.2049 -1.3931 -1.03205e-21)
(19.3755 -1.37341 -3.27118e-20)
(19.5301 -1.34798 -4.03979e-20)
(19.67 -1.31845 -4.88525e-21)
(19.7967 -1.28608 6.60515e-20)
(19.9114 -1.25192 -6.82423e-20)
(20.0153 -1.21669 -4.32319e-21)
(20.1097 -1.18092 3.22287e-20)
(20.1957 -1.14499 0)
(20.2742 -1.10913 0)
(17.3443 -0.819464 1.52034e-19)
(17.4842 -0.966321 -1.59236e-19)
(17.6801 -1.10109 5.10153e-20)
(17.8982 -1.20423 0)
(18.1259 -1.28022 0)
(18.3535 -1.33267 4.62156e-20)
(18.574 -1.36506 2.02077e-20)
(18.783 -1.38086 -3.64742e-20)
(18.978 -1.3834 4.98568e-20)
(19.158 -1.37558 -2.67618e-20)
(19.323 -1.3598 -5.99799e-22)
(19.4736 -1.33813 0)
(19.6109 -1.3121 4.35261e-21)
(19.7359 -1.283 3.75322e-20)
(19.8499 -1.25172 -3.50609e-20)
(19.954 -1.219 3.68805e-20)
(20.0491 -1.18533 -3.42339e-22)
(20.1363 -1.15113 -3.51073e-20)
(20.2163 -1.11669 -3.93728e-20)
(20.29 -1.08222 3.60688e-20)
(17.5861 -0.91655 0)
(17.7368 -1.04524 2.72004e-19)
(17.9264 -1.15548 -9.95985e-20)
(18.1309 -1.23689 0)
(18.3397 -1.29391 4.95874e-20)
(18.5453 -1.33061 -1.47538e-20)
(18.7425 -1.35064 -1.16301e-19)
(18.9283 -1.35728 6.30126e-20)
(19.1015 -1.35345 0)
(19.2614 -1.34149 -9.67014e-21)
(19.4085 -1.32341 4.75214e-21)
(19.5434 -1.30074 -4.03417e-20)
(19.6671 -1.27467 3.74053e-20)
(19.7807 -1.24614 0)
(19.8849 -1.21579 2.29435e-21)
(19.9807 -1.18418 -3.36405e-20)
(20.0692 -1.15169 3.65551e-20)
(20.1508 -1.11868 0)
(20.2262 -1.08537 4.09079e-20)
(20.2962 -1.05193 -3.76737e-20)
(17.8045 -0.977252 0)
(17.9589 -1.09659 -1.10584e-19)
(18.1374 -1.18666 0)
(18.3256 -1.25085 0)
(18.5147 -1.29357 5.53919e-20)
(18.6991 -1.31885 -7.44939e-20)
(18.8752 -1.33024 4.67997e-20)
(19.041 -1.33072 2.28591e-20)
(19.1956 -1.32274 -3.39049e-20)
(19.339 -1.30823 4.17803e-20)
(19.4715 -1.28881 -1.07164e-20)
(19.5938 -1.26563 -5.21084e-21)
(19.7068 -1.23965 0)
(19.8111 -1.21156 4.02774e-20)
(19.9077 -1.18192 -3.82301e-20)
(19.9972 -1.15114 3.48605e-20)
(20.0802 -1.11956 -7.03126e-20)
(20.1575 -1.0874 3.82418e-20)
(20.2295 -1.05489 -4.23741e-20)
(20.2966 -1.02215 4.16374e-20)
(18.006 -1.02727 0)
(18.1546 -1.12689 0)
(18.3195 -1.20154 6.09263e-20)
(18.4902 -1.25284 -5.70156e-20)
(18.6601 -1.28518 -1.07443e-19)
(18.825 -1.30253 7.86185e-20)
(18.9823 -1.30815 0)
(19.1306 -1.30463 -6.01099e-20)
(19.2695 -1.29406 8.07152e-20)
(19.3991 -1.27808 1.81007e-21)
(19.5195 -1.25795 -3.17107e-20)
(19.6315 -1.23464 5.11466e-21)
(19.7357 -1.2089 -4.72842e-20)
(19.8327 -1.18129 3.99649e-20)
(19.9231 -1.15225 4.11398e-20)
(20.0075 -1.1221 1.40521e-21)
(20.0863 -1.09114 -3.64797e-21)
(20.1602 -1.05958 -3.97957e-20)
(20.2294 -1.02757 2.53425e-21)
(20.2944 -0.995291 2.59068e-21)
(18.1937 -1.05997 -6.86056e-20)
(18.3286 -1.14187 6.88114e-20)
(18.4781 -1.20513 0)
(18.6311 -1.24706 6.21536e-20)
(18.7828 -1.27224 0)
(18.9299 -1.28437 2.06135e-21)
(19.0706 -1.28638 0)
(19.2039 -1.28056 0)
(19.3293 -1.26867 1.20417e-20)
(19.4471 -1.25207 4.61869e-20)
(19.5575 -1.2318 -4.34105e-20)
(19.6609 -1.20867 0)
(19.7579 -1.18331 5.21351e-21)
(19.8488 -1.15617 4.80107e-20)
(19.9342 -1.12765 -3.57948e-20)
(20.0145 -1.09804 -3.6971e-20)
(20.0901 -1.06756 3.58174e-20)
(20.1612 -1.03643 5.24488e-21)
(20.2283 -1.00483 -4.2632e-20)
(20.2916 -0.972869 4.20553e-20)
(18.3603 -1.07581 -1.7715e-21)
(18.4833 -1.14597 -6.7145e-20)
(18.6174 -1.20058 0)
(18.7535 -1.23595 -5.88737e-20)
(18.8883 -1.25654 5.85256e-20)
(19.0194 -1.26564 -8.08014e-20)
(19.1453 -1.26582 -2.67989e-20)
(19.2654 -1.25903 0)
(19.3793 -1.24681 -1.1701e-20)
(19.4871 -1.2303 -1.18353e-20)
(19.5889 -1.21042 0)
(19.685 -1.18784 -4.49019e-20)
(19.7759 -1.16309 7.62813e-20)
(19.8619 -1.13656 -4.79673e-20)
(19.943 -1.10862 -4.88734e-20)
(20.0199 -1.07954 8.04539e-20)
(20.0928 -1.04954 -8.05068e-20)
(20.1618 -1.01881 3.72283e-20)
(20.2273 -0.987504 4.93986e-20)
(20.2894 -0.955756 -4.89446e-20)
(18.5146 -1.0764 -7.36076e-20)
(18.623 -1.14123 1.35669e-19)
(18.741 -1.1893 3.47166e-20)
(18.8612 -1.22046 -1.56883e-19)
(18.9806 -1.23851 2.82022e-20)
(19.0973 -1.24631 2.85797e-20)
(19.2103 -1.24608 -5.49496e-20)
(19.3188 -1.23951 5.0281e-20)
(19.4226 -1.2279 0)
(19.5217 -1.21223 1.16373e-20)
(19.6162 -1.19326 0)
(19.7062 -1.1716 -5.75915e-20)
(19.7919 -1.14772 1.00966e-19)
(19.8736 -1.12203 -4.39858e-20)
(19.9513 -1.09484 -5.59611e-20)
(20.0255 -1.06638 4.37915e-20)
(20.0961 -1.03689 5.56582e-21)
(20.1634 -1.00656 -4.50471e-20)
(20.2277 -0.975545 3.88241e-20)
(20.289 -0.94399 0)
(18.652 -1.06644 0)
(18.748 -1.12639 -2.33219e-21)
(18.8516 -1.1706 -6.75106e-20)
(18.9574 -1.19985 6.12851e-20)
(19.063 -1.21727 -3.10658e-20)
(19.1669 -1.22537 2.86046e-20)
(19.2684 -1.22604 4.0109e-20)
(19.3667 -1.22073 0)
(19.4617 -1.21055 6.31595e-20)
(19.5533 -1.19639 -6.04248e-20)
(19.6413 -1.1789 0)
(19.7259 -1.15866 -3.56092e-20)
(19.8072 -1.1361 4.56485e-20)
(19.8851 -1.11159 0)
(19.96 -1.08539 1.13282e-20)
(20.0317 -1.0578 4.60178e-20)
(20.1006 -1.029 6.64281e-21)
(20.1666 -0.999194 -4.55359e-20)
(20.2299 -0.968589 4.08604e-20)
(20.2905 -0.93732 -4.62528e-20)
(18.7778 -1.04673 1.57843e-19)
(18.8622 -1.1025 -1.09264e-19)
(18.9525 -1.14464 3.13887e-20)
(19.0451 -1.17355 3.11588e-20)
(19.1382 -1.19178 0)
(19.2307 -1.20141 0)
(19.3219 -1.20403 4.81672e-22)
(19.4112 -1.20092 0)
(19.4984 -1.193 -1.2547e-20)
(19.5832 -1.18107 1.22412e-20)
(19.6655 -1.16572 -6.12825e-20)
(19.7454 -1.14746 -7.78071e-22)
(19.8227 -1.12666 4.71116e-20)
(19.8974 -1.10371 -1.18562e-20)
(19.9696 -1.07886 -4.74918e-20)
(20.0394 -1.05241 8.24487e-20)
(20.1067 -1.02455 8.20813e-22)
(20.1715 -0.995534 -4.70162e-20)
(20.234 -0.965512 5.96563e-21)
(20.2942 -0.93465 0)
(18.896 -1.01357 4.24246e-20)
(18.968 -1.06865 3.43392e-20)
(19.0457 -1.11033 -6.96183e-20)
(19.1262 -1.14016 0)
(19.208 -1.16028 6.12437e-20)
(19.2902 -1.17242 -5.78439e-20)
(19.3722 -1.17793 4.21781e-20)
(19.4534 -1.17781 5.39601e-22)
(19.5335 -1.17291 -5.18285e-20)
(19.6123 -1.16387 0)
(19.6895 -1.15125 6.26782e-20)
(19.765 -1.13552 -1.11074e-19)
(19.8387 -1.11702 -6.5883e-22)
(19.9105 -1.09613 6.03907e-20)
(19.9804 -1.07309 -4.88941e-20)
(20.0483 -1.04819 6.03205e-20)
(20.1141 -1.02167 3.68811e-20)
(20.178 -0.993717 -4.85907e-20)
(20.2398 -0.96455 4.9513e-20)
(20.2995 -0.934372 -4.91952e-20)
(19.0048 -0.971464 1.34467e-21)
(19.066 -1.025 1.07384e-19)
(19.1324 -1.06655 3.49427e-20)
(19.202 -1.09796 -6.46277e-20)
(19.2737 -1.12068 0)
(19.3467 -1.13605 8.86073e-20)
(19.4204 -1.14512 -5.63349e-20)
(19.4942 -1.14868 0)
(19.568 -1.14742 -1.3399e-20)
(19.6412 -1.1419 -3.93221e-20)
(19.7137 -1.13264 1.02886e-19)
(19.7853 -1.12001 -1.01853e-19)
(19.8557 -1.10437 3.75708e-20)
(19.9247 -1.08604 0)
(19.9924 -1.06528 -3.79967e-20)
(20.0585 -1.04235 3.74641e-20)
(20.1229 -1.01752 0)
(20.1858 -0.991006 0)
(20.2468 -0.96305 1.26782e-20)
(20.306 -0.933827 0)
(19.1032 -0.917357 -8.08468e-20)
(19.1558 -0.969212 -1.03536e-21)
(19.2125 -1.01117 -6.83408e-20)
(19.2726 -1.0446 0)
(19.3353 -1.07047 6.20477e-20)
(19.3999 -1.08964 -1.03865e-19)
(19.4659 -1.10284 7.20366e-20)
(19.5329 -1.11064 -1.38442e-20)
(19.6006 -1.11362 -5.45943e-20)
(19.6686 -1.11223 -1.32929e-20)
(19.7366 -1.10691 -1.33223e-20)
(19.8044 -1.09803 -5.25716e-20)
(19.8715 -1.08589 2.55998e-20)
(19.9378 -1.07074 -4.93347e-22)
(20.0032 -1.05286 -4.00558e-22)
(20.0675 -1.03244 1.24232e-20)
(20.1305 -1.00977 -5.4619e-22)
(20.1923 -0.985128 5.18067e-20)
(20.2526 -0.95876 3.05737e-23)
(20.3113 -0.930904 -5.29409e-20)
(19.1965 -0.844582 1.60341e-19)
(19.2398 -0.897129 3.5428e-20)
(19.2877 -0.940447 3.37106e-20)
(19.3397 -0.976527 0)
(19.3946 -1.00584 0)
(19.4519 -1.02925 7.55837e-20)
(19.5112 -1.04688 -1.32432e-19)
(19.5722 -1.05928 1.39695e-20)
(19.6344 -1.06675 7.03237e-20)
(19.6977 -1.06979 -1.36283e-20)
(19.7616 -1.06865 1.72179e-22)
(19.8259 -1.06384 1.35531e-20)
(19.8901 -1.05557 -1.35086e-20)
(19.9538 -1.04407 1.32102e-20)
(20.0168 -1.02954 -5.51944e-20)
(20.079 -1.01206 1.09308e-19)
(20.1403 -0.992017 -6.78842e-20)
(20.2009 -0.969691 0)
(20.2604 -0.945351 -1.37058e-20)
(20.3185 -0.919267 1.34463e-20)
(19.2868 -0.751215 1.11389e-19)
(19.3176 -0.807005 -5.49276e-22)
(19.3542 -0.852026 -6.61825e-20)
(19.398 -0.89218 0)
(19.4449 -0.924903 6.00626e-20)
(19.494 -0.953865 -5.84548e-20)
(19.5456 -0.976831 -7.10695e-20)
(19.5995 -0.995024 5.51397e-20)
(19.6555 -1.00824 3.96785e-20)
(19.7136 -1.01716 -5.32204e-20)
(19.7735 -1.02037 6.62397e-20)
(19.8339 -1.02006 -1.18511e-19)
(19.8944 -1.01633 -1.37041e-20)
(19.955 -1.00989 3.82224e-20)
(20.0148 -1.00073 -2.71237e-20)
(20.0756 -0.98676 5.22372e-20)
(20.1366 -0.969335 -7.74698e-20)
(20.1963 -0.949174 5.23772e-20)
(20.2547 -0.926884 0)
(20.3118 -0.90332 -1.36102e-20)
(19.3926 -0.333434 0)
(19.5941 -0.229249 -5.53421e-22)
(19.7957 -0.10081 -2.08147e-19)
(19.9927 0.0489977 2.34429e-19)
(20.1865 0.210422 -3.2789e-19)
(20.3708 0.387866 3.69117e-19)
(20.5446 0.577491 0)
(20.7052 0.777292 5.56222e-19)
(20.8483 0.98541 2.11692e-20)
(20.9703 1.19597 -4.23995e-20)
(21.0674 1.40371 -4.20208e-20)
(21.1378 1.6021 -1.13302e-18)
(21.1808 1.78506 -1.34132e-19)
(21.1991 1.94455 1.16593e-18)
(21.1974 2.07341 -1.21069e-18)
(21.1827 2.16638 -1.15523e-18)
(21.1629 2.22162 2.20795e-18)
(21.1451 2.24271 -2.04356e-18)
(21.1387 2.23164 -8.85522e-19)
(21.121 2.23544 1.40221e-18)
(19.9345 -0.883618 3.8833e-20)
(20.05 -0.827449 -4.20119e-20)
(20.1698 -0.76021 -6.05781e-20)
(20.2938 -0.678994 6.98013e-20)
(20.4208 -0.582052 3.44593e-22)
(20.5503 -0.468701 0)
(20.6805 -0.336561 0)
(20.8094 -0.185442 2.10992e-20)
(20.934 -0.0142982 0)
(21.0513 0.174534 5.04269e-19)
(21.1575 0.378372 -5.76469e-19)
(21.2492 0.592232 8.67189e-20)
(21.3227 0.810222 1.84604e-19)
(21.3754 1.02451 0)
(21.4056 1.22701 -2.01414e-19)
(21.4137 1.41 4.2673e-19)
(21.4028 1.56706 -8.26512e-19)
(21.3786 1.69462 3.38726e-20)
(21.352 1.78639 9.99331e-19)
(21.3116 1.88344 1.35688e-18)
(20.1431 -1.00945 0)
(20.241 -0.961328 0)
(20.3412 -0.906902 -7.90783e-22)
(20.4445 -0.844848 0)
(20.5508 -0.774155 1.43161e-19)
(20.6601 -0.692677 4.41135e-21)
(20.7718 -0.598927 -3.86102e-19)
(20.8847 -0.490753 2.1812e-19)
(20.9968 -0.367098 -2.66402e-19)
(21.1058 -0.22672 -1.18721e-20)
(21.2083 -0.0688274 3.88997e-19)
(21.3006 0.105031 0)
(21.3789 0.293401 -5.97556e-19)
(21.4397 0.492182 -3.45892e-21)
(21.4809 0.695254 9.53408e-19)
(21.5017 0.896172 -3.13012e-19)
(21.5035 1.08724 1.32223e-18)
(21.4898 1.26171 -1.75477e-20)
(21.4682 1.41037 -1.4698e-18)
(21.4375 1.55651 -7.46327e-19)
(20.2616 -1.07972 3.63415e-20)
(20.3457 -1.03666 -3.81392e-20)
(20.4308 -0.989199 -4.66996e-20)
(20.5169 -0.936564 5.0591e-20)
(20.6049 -0.877391 -1.93398e-21)
(20.6947 -0.810296 1.44683e-19)
(20.7864 -0.73414 -1.6084e-19)
(20.8797 -0.646915 5.82747e-21)
(20.9739 -0.547547 -1.46649e-20)
(21.0676 -0.43434 -2.6917e-19)
(21.1592 -0.306166 3.24944e-19)
(21.2465 -0.162393 0)
(21.3267 -0.00271465 4.61712e-19)
(21.3965 0.170576 -1.06766e-19)
(21.4528 0.355339 -1.29295e-19)
(21.4931 0.546875 -5.3688e-19)
(21.5165 0.739526 -8.145e-19)
(21.5236 0.927 1.08357e-18)
(21.519 1.10108 -2.6967e-19)
(21.5041 1.27249 2.26373e-19)
(20.318 -1.08651 0)
(20.3947 -1.04647 1.23183e-21)
(20.4713 -1.0031 0)
(20.5483 -0.955799 -5.36654e-20)
(20.6262 -0.903489 5.8026e-20)
(20.7051 -0.845547 4.07842e-21)
(20.7852 -0.780867 4.43091e-21)
(20.8667 -0.707887 -1.73924e-19)
(20.9492 -0.625447 1.75489e-19)
(21.032 -0.532378 -2.2257e-19)
(21.1142 -0.426949 2.49516e-19)
(21.1945 -0.307899 0)
(21.2709 -0.174883 -4.17595e-19)
(21.3413 -0.0272003 9.15695e-20)
(21.4031 0.134026 4.10041e-19)
(21.4539 0.306274 -4.44339e-19)
(21.4921 0.486224 1.16674e-18)
(21.517 0.669054 -7.00292e-19)
(21.5306 0.848416 -4.63194e-19)
(21.5362 1.0245 4.08485e-19)
(20.3471 -1.07306 3.80487e-20)
(20.418 -1.03526 -4.05106e-20)
(20.4883 -0.994753 -4.7648e-20)
(20.5583 -0.951145 5.04484e-20)
(20.6284 -0.903759 -1.12424e-19)
(20.6991 -0.851898 1.16969e-19)
(20.7704 -0.794765 -8.36031e-21)
(20.8426 -0.731232 1.52528e-19)
(20.9157 -0.660305 1.58455e-20)
(20.9894 -0.580913 -2.01543e-19)
(21.0635 -0.491358 -2.21448e-19)
(21.1371 -0.390742 2.75973e-19)
(21.2091 -0.277868 7.04898e-20)
(21.2781 -0.151796 2.40281e-19)
(21.3423 -0.0125526 3.79477e-21)
(21.3998 0.13919 -7.55651e-19)
(21.4488 0.301554 3.99444e-19)
(21.488 0.47154 2.09612e-19)
(21.5183 0.644292 1.96776e-19)
(21.5373 0.821544 -1.92857e-19)
(20.359 -1.04744 -3.91748e-20)
(20.4257 -1.01124 3.76079e-20)
(20.4916 -0.972798 5.0524e-20)
(20.5568 -0.931819 -9.57018e-20)
(20.6216 -0.887864 5.12906e-20)
(20.6865 -0.840323 0)
(20.7518 -0.788551 4.00548e-21)
(20.8176 -0.731776 -1.49965e-19)
(20.8838 -0.669216 1.53014e-19)
(20.9507 -0.599874 1.10825e-20)
(21.0183 -0.522479 2.38835e-20)
(21.0861 -0.435924 -2.75086e-19)
(21.1536 -0.339087 2.1092e-19)
(21.22 -0.230755 6.99949e-20)
(21.2841 -0.110442 -3.76808e-19)
(21.3445 0.0220733 5.74676e-19)
(21.3997 0.16621 -5.2027e-19)
(21.4487 0.320731 -3.62774e-19)
(21.491 0.482019 1.76995e-19)
(21.5226 0.654298 -1.72815e-19)
(20.3619 -1.01812 4.04509e-20)
(20.4255 -0.983085 -3.60204e-20)
(20.4879 -0.946168 -2.80708e-21)
(20.5495 -0.907166 0)
(20.6104 -0.865687 0)
(20.6711 -0.821328 1.12858e-19)
(20.7318 -0.773577 -1.1927e-19)
(20.7927 -0.721923 1.41735e-19)
(20.8539 -0.665624 -1.42926e-19)
(20.9157 -0.603825 0)
(20.9782 -0.535561 -2.01234e-19)
(21.0413 -0.459768 2.13806e-20)
(21.1049 -0.375338 1.89699e-19)
(21.1684 -0.281289 0)
(21.2311 -0.176834 6.79533e-20)
(21.2923 -0.0612005 3.64749e-19)
(21.351 0.0658732 -3.03242e-19)
(21.406 0.204004 -3.25063e-19)
(21.4565 0.350949 4.92483e-19)
(21.4986 0.511717 2.18922e-21)
(20.36 -0.988997 -2.56677e-21)
(20.4212 -0.954761 -5.37291e-21)
(20.4811 -0.918979 5.15739e-20)
(20.5399 -0.881455 -9.00383e-20)
(20.5981 -0.84185 5.04737e-20)
(20.6558 -0.799875 0)
(20.7132 -0.755199 7.26528e-21)
(20.7704 -0.707392 -1.27793e-19)
(20.8278 -0.655806 2.74418e-19)
(20.8859 -0.599717 -1.29731e-19)
(20.9445 -0.538421 0)
(21.0038 -0.471092 0)
(21.064 -0.396675 -1.49901e-19)
(21.1247 -0.314244 2.69815e-19)
(21.1856 -0.222828 0)
(21.2464 -0.121573 -3.24517e-19)
(21.3062 -0.00977401 4.19454e-19)
(21.3644 0.112654 1.44744e-19)
(21.4201 0.24487 -3.08059e-19)
(21.4695 0.391852 0)
(20.356 -0.962605 7.93213e-21)
(20.4155 -0.928952 8.24538e-21)
(20.4736 -0.893939 -5.78364e-21)
(20.5305 -0.857432 -5.51288e-20)
(20.5866 -0.81923 5.04964e-20)
(20.642 -0.77912 1.09125e-19)
(20.697 -0.736791 -1.27874e-19)
(20.7518 -0.691892 -1.31352e-19)
(20.8065 -0.643927 1.30458e-19)
(20.8618 -0.592304 -1.6125e-19)
(20.9174 -0.536543 1.33494e-19)
(20.9737 -0.475865 -1.89283e-19)
(21.0308 -0.409413 1.58049e-19)
(21.0889 -0.336322 -1.43933e-21)
(21.1478 -0.255611 5.3564e-20)
(21.2074 -0.166401 2.96341e-19)
(21.2671 -0.0680314 -2.51998e-19)
(21.3264 0.0402869 -5.37106e-19)
(21.3847 0.158061 2.76174e-19)
(21.4388 0.289647 4.13711e-19)
(20.3519 -0.940454 3.32485e-20)
(20.4102 -0.90714 -5.58607e-20)
(20.467 -0.872659 5.32151e-20)
(20.5227 -0.836945 -9.76422e-20)
(20.5773 -0.799839 5.68981e-20)
(20.6311 -0.761131 1.08356e-19)
(20.6844 -0.720551 -1.04916e-19)
(20.7373 -0.677876 1.20823e-19)
(20.7902 -0.632733 -1.26127e-19)
(20.8432 -0.58467 -1.36928e-19)
(20.8965 -0.533228 2.91812e-19)
(20.9505 -0.47782 -1.55413e-19)
(21.0052 -0.417727 1.70918e-19)
(21.0609 -0.352131 -4.45455e-20)
(21.1177 -0.280239 -2.49113e-19)
(21.1754 -0.201228 2.16708e-19)
(21.234 -0.114148 -2.30936e-19)
(21.293 -0.0184225 1.24973e-19)
(21.3519 0.0861528 -1.30812e-19)
(21.408 0.203632 -2.6506e-19)
(20.3488 -0.923507 -3.97136e-20)
(20.4063 -0.890446 4.56643e-20)
(20.4623 -0.856352 -5.98309e-21)
(20.5171 -0.82116 -4.99211e-20)
(20.5708 -0.784737 5.08749e-20)
(20.6236 -0.747013 1.08015e-19)
(20.6757 -0.7078 1.85928e-21)
(20.7273 -0.666889 -1.09075e-19)
(20.7786 -0.623983 -1.40046e-19)
(20.83 -0.578707 1.46344e-19)
(20.8816 -0.53068 3.48679e-20)
(20.9335 -0.479445 -1.31076e-19)
(20.9862 -0.424346 1.58927e-19)
(21.0398 -0.364819 -1.72864e-19)
(21.0943 -0.300157 2.30165e-19)
(21.1499 -0.229503 1.51e-19)
(21.2066 -0.152148 -2.13103e-19)
(21.264 -0.0672635 1.12484e-19)
(21.3221 0.025744 0)
(21.3781 0.130248 -1.23869e-19)
(20.3477 -0.911881 4.08396e-20)
(20.4047 -0.878968 -4.09161e-20)
(20.4602 -0.845106 6.05647e-21)
(20.5144 -0.810279 0)
(20.5675 -0.77443 -6.49764e-21)
(20.6196 -0.737486 1.07858e-19)
(20.6709 -0.699305 -9.64911e-20)
(20.7215 -0.659718 1.16642e-19)
(20.7718 -0.61848 -9.00737e-20)
(20.8219 -0.57533 -1.44187e-19)
(20.8719 -0.530013 1.16425e-19)
(20.9222 -0.482089 1.25404e-19)
(20.973 -0.431082 -1.50515e-19)
(21.0245 -0.376474 0)
(21.0768 -0.317627 1.72936e-19)
(21.1301 -0.253933 -3.24383e-19)
(21.1844 -0.18456 1.98279e-19)
(21.2395 -0.108822 -5.50233e-20)
(21.2954 -0.0261215 1.12318e-19)
(21.35 0.0666773 -2.27539e-19)
(20.3489 -0.905403 -4.1842e-20)
(20.4055 -0.872676 4.19208e-20)
(20.4607 -0.839024 5.6014e-20)
(20.5146 -0.804524 -1.0145e-19)
(20.5672 -0.769103 -5.32907e-20)
(20.6189 -0.73267 2.14784e-19)
(20.6696 -0.695206 -1.24014e-19)
(20.7195 -0.656601 -1.42365e-20)
(20.769 -0.616622 -2.50734e-22)
(20.818 -0.575147 1.40315e-19)
(20.8667 -0.531943 -1.29313e-19)
(20.9155 -0.486612 3.45475e-22)
(20.9645 -0.438788 1.45363e-19)
(21.014 -0.388057 -1.7609e-20)
(21.064 -0.333937 -2.03955e-19)
(21.1147 -0.275871 1.74702e-19)
(21.1662 -0.213201 -1.85151e-19)
(21.2184 -0.145223 -1.99548e-19)
(21.2712 -0.071305 3.14235e-19)
(21.323 0.0114319 -2.11734e-19)
(20.3522 -0.903034 1.21577e-20)
(20.4087 -0.870538 -6.13856e-21)
(20.4637 -0.837151 -6.35635e-20)
(20.5173 -0.802925 5.12352e-20)
(20.5697 -0.767819 1.31214e-20)
(20.621 -0.731823 1.34242e-20)
(20.6712 -0.694915 1.37708e-20)
(20.7205 -0.657064 1.43759e-20)
(20.7692 -0.618073 -1.333e-19)
(20.8172 -0.577862 -1.66777e-20)
(20.8648 -0.536208 1.41999e-19)
(20.9122 -0.492855 1.67307e-20)
(20.9595 -0.447596 0)
(21.0069 -0.400021 3.92403e-22)
(21.0545 -0.349787 1.55143e-19)
(21.1024 -0.296369 -1.63594e-19)
(21.1508 -0.239249 -4.31474e-20)
(21.1995 -0.177868 -2.327e-19)
(21.2485 -0.111612 4.89219e-20)
(21.2961 -0.0377325 3.04286e-19)
(20.3573 -0.903267 -6.29644e-20)
(20.4135 -0.871196 -5.89085e-22)
(20.4684 -0.838145 3.84516e-20)
(20.5218 -0.804227 0)
(20.5739 -0.769482 -1.20994e-19)
(20.6249 -0.73387 9.46548e-20)
(20.6747 -0.697464 -1.40102e-20)
(20.7235 -0.660157 1.14628e-19)
(20.7714 -0.621879 -1.16489e-19)
(20.8185 -0.582606 -1.21065e-19)
(20.8649 -0.542179 2.33091e-19)
(20.9109 -0.500424 -2.58132e-19)
(20.9564 -0.457135 1.50484e-19)
(21.0017 -0.412098 1.77537e-20)
(21.0468 -0.364973 -3.65403e-20)
(21.0919 -0.315327 1.94692e-19)
(21.137 -0.262919 -1.63369e-19)
(21.1821 -0.207197 0)
(21.2271 -0.147784 -4.60765e-20)
(21.2709 -0.0824804 9.47947e-20)
(20.3635 -0.903499 5.20146e-20)
(20.4195 -0.872048 -3.88974e-20)
(20.4742 -0.839539 1.27223e-22)
(20.5273 -0.806123 1.33273e-20)
(20.5791 -0.771807 -1.09414e-19)
(20.6296 -0.736673 1.09933e-19)
(20.6789 -0.700715 0)
(20.727 -0.6639 1.42112e-20)
(20.7742 -0.626228 -1.44964e-20)
(20.8203 -0.587768 -1.34923e-19)
(20.8654 -0.548357 1.22317e-19)
(20.9099 -0.507848 1.26975e-19)
(20.9536 -0.466168 -2.94163e-19)
(20.9967 -0.423151 1.52206e-19)
(21.0393 -0.378532 1.77912e-19)
(21.0814 -0.332111 -3.67528e-20)
(21.1232 -0.283535 -1.16306e-19)
(21.1644 -0.232457 2.05958e-19)
(21.2052 -0.178518 -8.65418e-20)
(21.245 -0.120076 -1.91372e-19)
(20.3685 -0.90169 1.06191e-19)
(20.4242 -0.871172 -1.07159e-19)
(20.4785 -0.839503 2.66334e-20)
(20.5314 -0.806789 4.06293e-20)
(20.5828 -0.773093 -9.73195e-20)
(20.6328 -0.738455 1.2949e-20)
(20.6816 -0.702894 1.27356e-19)
(20.7291 -0.666557 1.15695e-19)
(20.7753 -0.629496 -2.19525e-19)
(20.8204 -0.591684 1.19084e-19)
(20.8643 -0.553067 1.51762e-20)
(20.9071 -0.513626 -1.25221e-19)
(20.9489 -0.473207 1.44079e-19)
(20.9898 -0.431799 -2.68615e-22)
(21.0298 -0.389297 0)
(21.0689 -0.345498 -1.42877e-19)
(21.1071 -0.300206 1.48558e-19)
(21.1443 -0.253189 -7.60221e-22)
(21.1805 -0.204166 -8.22957e-20)
(21.2152 -0.152146 9.06308e-20)
(20.3751 -0.891584 -5.60725e-20)
(20.4304 -0.862259 1.31162e-20)
(20.4843 -0.831661 -1.45603e-20)
(20.5365 -0.800053 5.67353e-20)
(20.5868 -0.76746 -3.79235e-22)
(20.6356 -0.733741 1.01791e-19)
(20.6836 -0.698831 -1.31114e-19)
(20.7303 -0.663225 -3.38603e-22)
(20.7754 -0.626898 0)
(20.8191 -0.589799 -1.0613e-19)
(20.8614 -0.552103 -1.61347e-20)
(20.9022 -0.513797 1.24588e-19)
(20.9419 -0.474532 0)
(20.9807 -0.4345 1.14365e-19)
(21.0177 -0.394043 -2.51516e-19)
(21.0536 -0.352604 1.37904e-19)
(21.0881 -0.31026 1.60886e-19)
(21.121 -0.26684 -3.71253e-20)
(21.1525 -0.22208 -7.74276e-20)
(21.1822 -0.17553 -8.56886e-20)
(20.3671 -0.878192 0)
(20.4219 -0.850219 -2.76744e-20)
(20.4755 -0.821642 0)
(20.5273 -0.79261 0)
(20.5782 -0.760748 -1.38536e-20)
(20.6266 -0.727104 0)
(20.676 -0.690902 -1.40781e-20)
(20.7206 -0.656392 -1.44148e-20)
(20.7642 -0.620823 0)
(20.8065 -0.584548 1.1566e-19)
(20.8484 -0.547311 1.34059e-21)
(20.887 -0.509928 -2.37842e-19)
(20.9251 -0.470822 2.45063e-19)
(20.962 -0.431494 -1.22638e-19)
(20.9953 -0.393875 -1.57769e-20)
(21.0284 -0.354113 1.6079e-20)
(21.0584 -0.314767 -1.67354e-20)
(21.0868 -0.274852 1.72889e-20)
(21.1135 -0.234528 7.02623e-20)
(21.1377 -0.194092 -7.73647e-20)
(22.5358 1.56147 2.3505e-19)
(22.3719 1.33619 -2.46621e-19)
(22.1288 1.06526 -4.68775e-19)
(21.8157 0.778833 4.48264e-19)
(21.4541 0.503962 0)
(21.0728 0.262559 0)
(20.6987 0.0666019 0)
(20.3516 -0.0804796 0)
(20.043 -0.18022 0)
(19.7778 -0.236798 -2.38844e-19)
(19.5563 -0.255582 2.03094e-19)
(19.3757 -0.24273 0)
(19.232 -0.204317 0)
(19.1203 -0.145854 0)
(19.0356 -0.0719604 0)
(18.9736 0.0138021 0)
(18.9292 0.107916 0)
(18.8984 0.209022 0)
(18.8779 0.322381 0)
(18.8677 0.458633 0)
(22.413 1.63629 0)
(22.2004 1.41131 0)
(21.9244 1.15838 -3.13502e-19)
(21.6048 0.909985 2.94668e-19)
(21.266 0.691503 0)
(20.9321 0.519086 2.47306e-19)
(20.6223 0.398408 -4.38501e-19)
(20.349 0.327075 1.90732e-19)
(20.1179 0.297673 -1.67121e-19)
(19.9294 0.300813 2.83545e-19)
(19.7807 0.326854 -2.40531e-19)
(19.6666 0.367544 1.01294e-19)
(19.5811 0.416126 0)
(19.5184 0.467729 0)
(19.473 0.519005 0)
(19.4403 0.567878 -2.65561e-20)
(19.4166 0.613148 2.30191e-20)
(19.399 0.654463 0)
(19.3849 0.691654 4.39149e-21)
(19.3728 0.725194 -4.03616e-21)
(22.2911 1.67363 1.27466e-19)
(22.0479 1.45015 -1.2887e-19)
(21.7587 1.22182 0)
(21.4477 1.01453 2.26904e-19)
(21.1378 0.845716 -2.069e-19)
(20.8482 0.722096 0)
(20.5918 0.641995 0)
(20.3745 0.598725 0)
(20.1968 0.583722 0)
(20.0554 0.588567 0)
(19.9452 0.606174 0)
(19.8607 0.630984 0)
(19.7964 0.65913 0)
(19.7476 0.688049 0)
(19.7104 0.716165 -2.5502e-20)
(19.6817 0.742689 4.48046e-20)
(19.659 0.767269 -1.98983e-20)
(19.6405 0.789852 0)
(19.6247 0.810589 -3.99587e-21)
(19.6105 0.8297 3.74447e-21)
(22.1624 1.67874 1.0348e-19)
(21.8991 1.46212 -2.09594e-19)
(21.6094 1.2608 -9.93529e-20)
(21.3165 1.08854 1.84166e-19)
(21.0387 0.954914 -1.6919e-19)
(20.7889 0.860331 1.50612e-19)
(20.5735 0.799944 0)
(20.3937 0.766558 0)
(20.2472 0.752837 -1.01659e-19)
(20.13 0.752438 8.74698e-20)
(20.0374 0.760405 0)
(19.9646 0.773226 0)
(19.9075 0.788479 0)
(19.8626 0.80466 0)
(19.827 0.820862 0)
(19.7984 0.836604 -1.99001e-20)
(19.775 0.851636 1.8062e-20)
(19.7554 0.865898 8.15002e-21)
(19.7384 0.879444 -7.55938e-21)
(19.7232 0.89233 0)
(22.0321 1.65908 0)
(21.7597 1.45663 0)
(21.4794 1.28046 0)
(21.2094 1.13528 0)
(20.9624 1.02513 1.4343e-19)
(20.7456 0.947309 -2.56827e-19)
(20.5612 0.89631 -8.68108e-22)
(20.408 0.865903 2.00758e-19)
(20.2829 0.850406 -8.77899e-20)
(20.1818 0.845199 7.72877e-20)
(20.1007 0.846798 -6.76758e-20)
(20.0358 0.852697 -5.97794e-20)
(19.9839 0.861186 6.45837e-23)
(19.942 0.871121 4.74935e-20)
(19.9081 0.881784 0)
(19.8803 0.89272 -1.93587e-20)
(19.8572 0.903671 1.78581e-20)
(19.8376 0.914496 -8.17757e-21)
(19.8206 0.925136 3.88832e-21)
(19.8055 0.935603 3.65167e-21)
(21.9038 1.62321 0)
(21.6319 1.43985 7.79786e-20)
(21.3664 1.28623 -7.34421e-20)
(21.1196 1.16243 0)
(20.8992 1.06927 0)
(20.7085 1.00295 0)
(20.5473 0.958262 0)
(20.4133 0.930054 0)
(20.3032 0.913877 0)
(20.2134 0.906216 0)
(20.1404 0.904436 0)
(20.0812 0.906633 0)
(20.033 0.911459 0)
(19.9937 0.917989 4.50794e-20)
(19.9614 0.925599 -4.13806e-20)
(19.9347 0.933862 0)
(19.9123 0.942517 0)
(19.8933 0.951388 8.18455e-21)
(19.8768 0.960381 -7.78448e-21)
(19.8622 0.969452 0)
(21.7828 1.57991 0)
(21.5159 1.41699 0)
(21.2672 1.28218 -1.31503e-19)
(21.0424 1.17547 1.21307e-19)
(20.8452 1.09523 0)
(20.676 1.03739 0)
(20.5335 0.997423 0)
(20.4149 0.97112 -8.0946e-20)
(20.3169 0.954966 7.21699e-20)
(20.2363 0.94621 0)
(20.1701 0.942767 0)
(20.1159 0.943094 -5.2736e-20)
(20.0714 0.946079 4.81732e-20)
(20.0347 0.950921 0)
(20.0044 0.957055 2.03432e-20)
(19.9791 0.964085 -1.90675e-20)
(19.9579 0.971734 -1.77363e-20)
(19.9399 0.979823 2.52622e-20)
(19.9244 0.988223 -8.02511e-21)
(19.9107 0.99686 0)
(21.6594 1.53615 6.20194e-20)
(21.4088 1.38955 2.76807e-22)
(21.1789 1.27142 -1.78219e-19)
(20.9748 1.17874 2.20151e-19)
(20.7978 1.10891 -1.00566e-19)
(20.6469 1.05804 -9.1762e-20)
(20.5198 1.02223 -3.04871e-22)
(20.4137 0.99803 -1.92061e-22)
(20.3256 0.982607 1.34643e-19)
(20.2527 0.973727 -6.09715e-20)
(20.1924 0.969696 5.54605e-20)
(20.1427 0.96923 -5.08633e-20)
(20.1015 0.971386 4.67209e-20)
(20.0675 0.975457 -4.35429e-20)
(20.0392 0.980936 0)
(20.0157 0.987446 1.89968e-20)
(19.9959 0.994722 -3.60812e-20)
(19.9791 1.00257 1.72497e-20)
(19.9648 1.01086 0)
(19.9523 1.01949 0)
(21.548 1.48807 5.93395e-20)
(21.3117 1.35773 -5.75957e-20)
(21.1004 1.25519 0)
(20.9153 1.17469 1.01023e-19)
(20.7561 1.11369 -9.23074e-20)
(20.6209 1.0688 8.45366e-20)
(20.507 1.03675 2.17648e-22)
(20.4116 1.01471 -1.39456e-19)
(20.3322 1.00039 6.35054e-20)
(20.2661 0.991941 -5.81056e-20)
(20.2112 0.987956 8.86862e-23)
(20.1657 0.987353 4.9502e-20)
(20.1279 0.989309 4.59258e-20)
(20.0966 0.993208 -4.32327e-20)
(20.0705 0.998582 0)
(20.0489 1.00508 0)
(20.0308 1.01245 -1.82927e-20)
(20.0156 1.02049 1.76888e-20)
(20.0027 1.02906 0)
(19.9915 1.03808 0)
(21.4455 1.43864 5.46458e-20)
(21.2248 1.32475 -5.32816e-20)
(21.0308 1.23559 -1.00615e-19)
(20.863 1.16553 1.86246e-19)
(20.7194 1.11213 -8.55415e-20)
(20.5978 1.07249 7.86278e-20)