/*--------------------------------*- C++ -*----------------------------------*\
| =========                 |                                                 |
| \\      /  F ield         | OpenFOAM: The Open Source CFD Toolbox           |
|  \\    /   O peration     | Version:  2.3.0                                 |
|   \\  /    A nd           | Web:      www.OpenFOAM.org                      |
|    \\/     M anipulation  |                                                 |
\*---------------------------------------------------------------------------*/
FoamFile
{
    version     2.0;
    format      ascii;
    class       volScalarField;
    location    "4000";
    object      nuTilda;
}
// * * * * * * * * * * * * * * * * * * * * * * * * * * * * * * * * * * * * * //

dimensions      [0 2 -1 0 0 0 0];

internalField   nonuniform List<scalar> 
38325
(
0.0726147
0.0709953
0.0693623
0.067723
0.0660785
0.06443
0.0627781
0.061124
0.0594684
0.0578123
0.0561564
0.0545013
0.0528477
0.0511965
0.0495481
0.0479031
0.0462621
0.0446255
0.0429935
0.0413668
0.0397458
0.0381308
0.0365223
0.0349207
0.0333264
0.0317395
0.030161
0.0285914
0.0270313
0.0254815
0.0239434
0.0224186
0.0209089
0.0194177
0.0179491
0.016509
0.0151069
0.0137537
0.0124644
0.0112539
0.0101176
0.00894366
0.00704307
0.0735904
0.0721405
0.0706874
0.0692284
0.0677642
0.0662959
0.0648241
0.063349
0.0618713
0.0603914
0.05891
0.0574272
0.0559432
0.0544584
0.0529735
0.0514886
0.0500039
0.0485198
0.0470368
0.0455545
0.044074
0.0425955
0.0411194
0.0396469
0.0381782
0.0367138
0.0352557
0.033805
0.0323629
0.0309323
0.0295164
0.0281185
0.0267439
0.025398
0.0240888
0.0228277
0.021626
0.0204987
0.0194647
0.0185434
0.017755
0.0171183
0.0166463
0.0744948
0.0732003
0.0719024
0.0705985
0.0692894
0.0679758
0.0666577
0.0653357
0.0640099
0.0626804
0.0613477
0.0600116
0.0586724
0.0573301
0.0559853
0.0546379
0.0532877
0.0519356
0.0505817
0.0492259
0.0478689
0.0465113
0.0451535
0.0437966
0.0424412
0.0410888
0.0397415
0.0384003
0.0370678
0.0357475
0.0344428
0.0331585
0.0319
0.0306738
0.0294881
0.0283532
0.0272803
0.0262824
0.0253731
0.0245656
0.0238736
0.0233097
0.0228801
0.0753375
0.0741779
0.0730142
0.0718446
0.070669
0.0694879
0.0683016
0.0671102
0.0659138
0.0647124
0.0635058
0.062294
0.0610773
0.0598556
0.058629
0.0573974
0.0561611
0.0549203
0.0536752
0.0524259
0.0511731
0.0499174
0.0486593
0.0473996
0.0461395
0.0448807
0.0436252
0.0423747
0.0411322
0.039901
0.0386849
0.037489
0.0363182
0.03518
0.0340814
0.0330325
0.0320436
0.0311256
0.0302887
0.0295447
0.028904
0.0283761
0.0279646
0.0761174
0.075076
0.0740293
0.0729758
0.0719151
0.0708479
0.0697745
0.0686947
0.0676085
0.0665159
0.0654166
0.0643102
0.0631969
0.0620767
0.0609494
0.0598155
0.0586749
0.0575275
0.0563738
0.0552138
0.054048
0.0528774
0.0517024
0.0505238
0.0493431
0.0481617
0.0469815
0.0458051
0.0446355
0.0434757
0.0423298
0.0412025
0.0400996
0.0390274
0.0379928
0.0370052
0.0360744
0.0352093
0.0344202
0.0337167
0.0331078
0.0326012
0.0322006
0.0768375
0.0758993
0.0749542
0.0740011
0.0730398
0.0720705
0.0710936
0.0701091
0.069117
0.0681171
0.067109
0.0660919
0.0650659
0.0640312
0.0629878
0.0619361
0.0608757
0.059807
0.05873
0.0576448
0.0565519
0.0554523
0.0543463
0.053235
0.05212
0.0510028
0.0498848
0.048769
0.0476581
0.0465555
0.0454657
0.0443938
0.0433444
0.0423231
0.041337
0.0403948
0.039506
0.0386794
0.0379244
0.0372496
0.0366629
0.0361708
0.0357778
0.0774967
0.0766511
0.0757952
0.0749296
0.0740542
0.0731692
0.0722746
0.0713715
0.0704598
0.0695393
0.068609
0.0676682
0.0667163
0.0657539
0.0647814
0.0637989
0.0628062
0.0618035
0.0607913
0.059769
0.0587374
0.0576972
0.056649
0.0555939
0.0545338
0.05347
0.052404
0.0513379
0.0502747
0.0492191
0.0481751
0.0471479
0.0461419
0.0451622
0.0442138
0.0433054
0.0424483
0.0416513
0.0409221
0.0402695
0.0396992
0.0392179
0.0388304
0.0781026
0.0773378
0.0765591
0.0757697
0.0749685
0.0741566
0.0733322
0.0724985
0.0716554
0.0708028
0.0699395
0.0690648
0.0681766
0.0672741
0.0663622
0.0654386
0.0645028
0.0635558
0.0625984
0.0616301
0.06065
0.0596601
0.0586602
0.0576527
0.056638
0.0556196
0.0545983
0.0535738
0.0525491
0.0515323
0.0505255
0.0495336
0.0485651
0.0476212
0.0467042
0.0458203
0.0449863
0.0442135
0.0435033
0.0428733
0.0423143
0.0418413
0.0414577
0.0786642
0.0779677
0.0772544
0.0765316
0.0757922
0.0750455
0.0742793
0.0735032
0.0727173
0.0719216
0.0711155
0.0702981
0.0694701
0.0686139
0.0677528
0.0668795
0.0659926
0.0650916
0.0641789
0.0632587
0.0623223
0.0613775
0.0604161
0.0594502
0.0584717
0.0574905
0.0565077
0.055524
0.0545269
0.0535421
0.0525682
0.051604
0.050669
0.0497545
0.0488676
0.0480049
0.0471872
0.0464387
0.045734
0.0451418
0.0445851
0.0441214
0.0437377
0.00627125
0.00723596
0.00823125
0.00909106
0.00987024
0.0106181
0.0113554
0.0120921
0.0128354
0.0136024
0.0144153
0.0152852
0.0162083
0.0171762
0.0181833
0.0192226
0.020292
0.0213905
0.0225189
0.023675
0.0248572
0.0260624
0.0272905
0.0285395
0.0298092
0.0310994
0.032409
0.0337377
0.0350846
0.0364499
0.0378325
0.0392324
0.0406484
0.0420801
0.0435268
0.0449879
0.0464625
0.0479504
0.0494509
0.0509637
0.0524885
0.0540247
0.055571
0.0163441
0.0162058
0.0162255
0.0163883
0.0166821
0.0170895
0.0175961
0.0181876
0.0188517
0.0195785
0.0203588
0.0211876
0.0220566
0.0229619
0.0238982
0.0248626
0.0258521
0.0268656
0.0279009
0.0289561
0.030031
0.0311242
0.0322338
0.0333608
0.0345033
0.0356613
0.0368342
0.0380216
0.0392231
0.0404382
0.041667
0.0429081
0.0441615
0.0454267
0.0467034
0.0479911
0.0492893
0.0505982
0.0519175
0.0532472
0.0545873
0.0559382
0.0573018
0.0225812
0.022409
0.0223649
0.0224455
0.0226439
0.0229501
0.0233538
0.0238438
0.0244082
0.0250381
0.0257247
0.0264604
0.0272392
0.0280536
0.0289015
0.0297769
0.0306779
0.0316012
0.0325448
0.0335072
0.034486
0.0354804
0.0364896
0.037512
0.0385476
0.0395954
0.0406544
0.0417249
0.0428058
0.043897
0.0449977
0.0461079
0.0472267
0.048354
0.0494895
0.0506332
0.0517847
0.0529442
0.0541121
0.0552883
0.0564727
0.0576653
0.0588655
0.0276683
0.0274852
0.0274169
0.02746
0.0276106
0.0278609
0.0282031
0.0286265
0.0291233
0.0296843
0.0303008
0.0309661
0.0316732
0.0324179
0.0331937
0.033998
0.0348257
0.0356752
0.0365433
0.037428
0.0383276
0.039241
0.0401666
0.0411032
0.0420502
0.0430064
0.0439714
0.0449449
0.0459258
0.046914
0.0479085
0.0489091
0.0499156
0.0509275
0.0519448
0.0529673
0.0539954
0.0550294
0.0560696
0.0571161
0.0581685
0.0592266
0.0602905
0.0319061
0.0317176
0.0316351
0.0316564
0.0317779
0.0319933
0.0322948
0.0326745
0.0331242
0.0336351
0.0342004
0.0348133
0.0354674
0.036157
0.0368776
0.0376244
0.0383941
0.0391836
0.0399903
0.0408124
0.0416476
0.0424947
0.0433516
0.0442178
0.0450915
0.0459723
0.0468597
0.0477525
0.0486507
0.0495529
0.0504586
0.0513675
0.0522796
0.0531945
0.0541122
0.0550327
0.055957
0.0568852
0.0578176
0.0587539
0.0596937
0.0606368
0.0615829
0.035485
0.0352928
0.0352016
0.0352092
0.0353119
0.0355038
0.0357776
0.036126
0.0365405
0.0370146
0.0375415
0.0381144
0.0387272
0.0393743
0.0400503
0.0407512
0.0414737
0.0422147
0.042972
0.043743
0.0445256
0.0453182
0.0461188
0.0469263
0.0477396
0.048558
0.0493807
0.0502073
0.0510358
0.051866
0.052697
0.0535289
0.0543616
0.0551946
0.0560281
0.0568627
0.0576994
0.0585384
0.0593795
0.0602222
0.0610657
0.0619098
0.0627551
0.038539
0.0383443
0.0382472
0.0382453
0.0383353
0.0385112
0.0387651
0.0390887
0.0394763
0.0399221
0.0404194
0.040962
0.0415428
0.042155
0.0427941
0.0434575
0.0441417
0.044844
0.0455609
0.04629
0.0470293
0.0477768
0.0485306
0.0492892
0.0500518
0.0508186
0.0515884
0.0523591
0.0531291
0.053898
0.0546658
0.0554328
0.0561981
0.0569615
0.0577238
0.0584858
0.0592487
0.0600126
0.0607767
0.0615394
0.0622998
0.0630584
0.0638171
0.041167
0.0409705
0.040869
0.0408604
0.040942
0.0411075
0.041345
0.0416477
0.0420127
0.0424366
0.0429122
0.0434322
0.0439855
0.0445668
0.0451754
0.0458085
0.0464626
0.0471331
0.0478162
0.0485104
0.0492142
0.0499241
0.0506382
0.0513552
0.052076
0.0528007
0.0535267
0.05425
0.054969
0.0556853
0.0564
0.0571125
0.0578204
0.0585241
0.0592257
0.059927
0.0606286
0.0613295
0.0620283
0.0627219
0.0634097
0.0640938
0.0647768
0.0434456
0.0432469
0.0431411
0.0431255
0.0432013
0.0433605
0.0435817
0.0438611
0.0442052
0.0446158
0.0450757
0.0455776
0.0460994
0.0466528
0.0472369
0.0478462
0.0484761
0.0491193
0.049772
0.0504378
0.0511122
0.0517884
0.0524675
0.0531495
0.0538374
0.0545299
0.0552189
0.0558999
0.0565735
0.0572469
0.0579187
0.0585854
0.0592431
0.0598968
0.0605504
0.061205
0.0618585
0.0625079
0.0631514
0.0637827
0.064408
0.0650301
0.06565
0.0173751
0.0163808
0.0154311
0.0145226
0.0136534
0.0128227
0.0120294
0.0112727
0.0105517
0.00986608
0.00921522
0.00859835
0.00801536
0.00746655
0.00695294
0.00647685
0.00604217
0.00565634
0.00532283
0.00503016
0.00476778
0.00452843
0.00430734
0.00410106
0.00390671
0.00372182
0.00354413
0.00337145
0.00320176
0.00303314
0.00286372
0.00269173
0.00251549
0.00233343
0.00214402
0.00194586
0.00173768
0.00151839
0.00128716
0.00104383
0.000790866
0.00054358
0.000341882
0.0173011
0.0163813
0.0154993
0.0146526
0.0138398
0.0130596
0.0123112
0.0115938
0.0109069
0.0102502
0.00962276
0.00902426
0.00845455
0.00791363
0.00740202
0.006921
0.00647304
0.00606294
0.00569706
0.0053753
0.00508856
0.0048291
0.0045912
0.00437065
0.00416403
0.0039687
0.00378218
0.00360227
0.00342682
0.00325376
0.00308108
0.00290674
0.00272875
0.00254521
0.00235421
0.00215391
0.00194269
0.00171908
0.00148211
0.00123205
0.000973834
0.000730101
0.0005903
0.0172397
0.0163892
0.0155717
0.0147843
0.0140253
0.0132936
0.0125882
0.0119086
0.0112544
0.0106253
0.0100207
0.00944028
0.00888396
0.00835161
0.00784348
0.00736037
0.00690382
0.00647687
0.00608453
0.00573294
0.00541944
0.0051364
0.00487798
0.00463961
0.00441768
0.00420909
0.00401119
0.00382156
0.00363796
0.00345821
0.00328013
0.00310151
0.00292013
0.00273371
0.00253998
0.00233669
0.00212168
0.00189308
0.00164975
0.00139291
0.00113238
0.00091243
0.00089634
0.0171829
0.0163981
0.0156401
0.0149069
0.0141972
0.0135098
0.0128441
0.0121996
0.0115757
0.0109723
0.0103892
0.00982606
0.00928278
0.00875923
0.00825583
0.0077729
0.00731153
0.00687372
0.00646291
0.00608517
0.00574532
0.0054381
0.00515766
0.00489948
0.00466007
0.00443615
0.00422494
0.00402381
0.00383036
0.00364226
0.00345721
0.00327286
0.00308675
0.00289637
0.00269909
0.00249221
0.00227317
0.00203966
0.00179052
0.00152858
0.00127199
0.00110136
0.00124141
0.0171295
0.0164062
0.0157028
0.015019
0.0143541
0.0137073
0.0130777
0.0124651
0.0118689
0.0112894
0.0107263
0.0101793
0.0096485
0.00913396
0.00863584
0.00815447
0.0076908
0.007246
0.00682263
0.00642538
0.00606105
0.00573046
0.00542792
0.00514926
0.00489114
0.00465054
0.00442457
0.00421058
0.00400599
0.00380836
0.00361525
0.00342413
0.00323237
0.00303725
0.00283585
0.0026251
0.00240199
0.00216392
0.00190989
0.00164506
0.00139996
0.00130224
0.00160299
0.0170803
0.0164131
0.0157598
0.0151213
0.0144972
0.013887
0.0132902
0.0127066
0.0121361
0.0115784
0.0110336
0.0105016
0.00998279
0.0094769
0.00898428
0.00850532
0.00804067
0.00759141
0.00715934
0.00674794
0.00636308
0.00601068
0.00568723
0.00538846
0.00511137
0.00485333
0.00461172
0.00438397
0.00416738
0.00395939
0.00375741
0.00355881
0.0033608
0.00316042
0.00295449
0.00273968
0.00251264
0.00227043
0.00201237
0.00174693
0.00152095
0.0015134
0.00196398
0.0170386
0.0164198
0.0158117
0.0152143
0.0146272
0.0140504
0.0134836
0.0129266
0.0123793
0.0118416
0.0113137
0.0107959
0.0102881
0.00979048
0.00930337
0.00882711
0.0083624
0.00791004
0.0074718
0.00704997
0.00664928
0.00627706
0.00593416
0.00561619
0.00532061
0.0050452
0.00478771
0.00454568
0.00431652
0.00409761
0.00388625
0.0036797
0.00347508
0.00326914
0.00305857
0.00283959
0.00260859
0.00236252
0.00210125
0.00183737
0.00163761
0.0017302
0.00231491
0.0169992
0.0164257
0.0158588
0.0152987
0.0147459
0.0141999
0.0136608
0.0131282
0.0126017
0.0120816
0.0115691
0.0110646
0.0105678
0.0100784
0.00959675
0.00912328
0.00865867
0.008204
0.00776075
0.00733098
0.00691795
0.00652827
0.00616736
0.00583175
0.00551863
0.00522614
0.00495258
0.00469596
0.00445406
0.00422421
0.00400332
0.00378834
0.00357631
0.00336449
0.00314926
0.00292695
0.00269289
0.00244374
0.00218001
0.00191923
0.00175062
0.00194685
0.00265234
0.0169615
0.0164303
0.0159006
0.015375
0.0148544
0.0143379
0.0138255
0.0133179
0.0128104
0.0123036
0.0118028
0.0113112
0.0108276
0.0103496
0.00987632
0.00940787
0.00894474
0.00848675
0.00803798
0.00760288
0.00718242
0.00677773
0.0063991
0.00604737
0.00571831
0.00540967
0.00512001
0.00484738
0.00458846
0.00434565
0.00411766
0.00389797
0.00368117
0.00346026
0.00323562
0.00300066
0.00276102
0.00250711
0.00224256
0.00198964
0.00186341
0.0021756
0.00298726
0.000341378
0.00053904
0.000830932
0.00117473
0.00156879
0.00201354
0.00250833
0.00305243
0.0036451
0.00428609
0.0049756
0.00571371
0.00650119
0.007339
0.00822792
0.00916954
0.0101648
0.0112154
0.0123231
0.0134897
0.0147169
0.0160067
0.0173611
0.0187822
0.0202724
0.0218338
0.0234687
0.0251796
0.0269689
0.0288388
0.0307917
0.0328299
0.0349553
0.0371693
0.0394725
0.0418637
0.044339
0.0468898
0.0495004
0.0521476
0.0548037
0.0574411
0.060037
0.000758818
0.00106006
0.00141472
0.00184507
0.00232443
0.0028525
0.00343018
0.00405755
0.00473445
0.00546033
0.00623487
0.00705791
0.00792934
0.0088493
0.00981824
0.0108366
0.0119052
0.0130248
0.014196
0.0154205
0.0166992
0.0180332
0.0194241
0.0208735
0.0223829
0.0239537
0.0255874
0.027286
0.029051
0.030884
0.0327867
0.0347605
0.0368064
0.0389252
0.0411163
0.0433777
0.0457039
0.0480852
0.050506
0.0529467
0.0553854
0.0578012
0.0601735
0.0012207
0.00163031
0.0020729
0.00257768
0.00314306
0.00375712
0.00441919
0.00512971
0.00588878
0.00669605
0.00755096
0.00845307
0.00940193
0.0103973
0.0114388
0.0125265
0.0136604
0.0148409
0.0160684
0.017343
0.0186658
0.0200372
0.0214582
0.0229295
0.024452
0.0260269
0.0276548
0.0293371
0.0310748
0.0328687
0.0347202
0.0366297
0.0385978
0.0406241
0.0427069
0.0448424
0.0470236
0.0492402
0.0514783
0.0537221
0.0559557
0.0581645
0.060335
0.00170078
0.0022138
0.00274746
0.00331703
0.00396279
0.00465961
0.00540307
0.00619319
0.00703018
0.00791371
0.00884326
0.00981825
0.0108378
0.0119012
0.0130079
0.0141573
0.0153492
0.0165833
0.0178594
0.0191776
0.0205379
0.0219406
0.0233859
0.0248742
0.0264058
0.0279811
0.0296007
0.0312651
0.0329748
0.0347303
0.0365322
0.0383805
0.0402747
0.0422133
0.0441931
0.0462086
0.0482522
0.0503141
0.0523831
0.0544473
0.0564952
0.0585162
0.0605009
0.00217688
0.0027817
0.00339636
0.00403621
0.00475949
0.00553595
0.00635778
0.00722307
0.00813281
0.00908729
0.0100859
0.0111279
0.0122121
0.0133376
0.0145034
0.0157086
0.0169523
0.018234
0.0195533
0.0209096
0.0223027
0.0237324
0.0251984
0.0267005
0.0282386
0.0298126
0.0314222
0.033068
0.0347499
0.0364681
0.0382224
0.0400121
0.0418357
0.0436902
0.0455711
0.0474721
0.0493859
0.0513043
0.0532187
0.0551203
0.057001
0.0588535
0.0606714
0.00263733
0.00332577
0.00401682
0.00472842
0.0055265
0.00637998
0.00727823
0.00821507
0.00919222
0.0102116
0.0112733
0.0123765
0.0135197
0.0147015
0.0159207
0.017176
0.0184661
0.0197904
0.0211482
0.0225385
0.0239608
0.0254144
0.0268985
0.0284125
0.0299551
0.0315258
0.0331242
0.0347504
0.0364044
0.0380856
0.0397933
0.0415259
0.043281
0.0450542
0.0468401
0.0486322
0.0504245
0.052211
0.0539853
0.0557408
0.0574721
0.0591735
0.0608405
0.00307843
0.00384559
0.00461023
0.00539231
0.00626312
0.00719139
0.00816441
0.00917052
0.0102108
0.0112897
0.0124085
0.0135669
0.0147634
0.0159959
0.0172627
0.0185623
0.0198935
0.0212556
0.0226476
0.0240684
0.0255171
0.0269926
0.0284933
0.0300174
0.0315624
0.033127
0.0347117
0.0363165
0.0379412
0.0395847
0.0412457
0.0429217
0.0446098
0.0463049
0.048
0.0496898
0.0513696
0.0530354
0.0546836
0.0563092
0.0579077
0.0594743
0.0610058
0.00350069
0.00434304
0.00517864
0.00602919
0.00697011
0.00797003
0.00901471
0.0100883
0.0111899
0.0123253
0.0134963
0.0147044
0.0159493
0.0172269
0.0185353
0.0198722
0.0212387
0.0226341
0.0240562
0.0255047
0.026978
0.0284746
0.0299913
0.0315247
0.0330671
0.0346208
0.0361876
0.0377685
0.0393617
0.040966
0.0425795
0.0441988
0.0458224
0.0474431
0.0490538
0.0506487
0.0522239
0.0537788
0.0553151
0.0568263
0.0583085
0.0597554
0.061166
0.00391051
0.00482191
0.00572519
0.00664266
0.00765003
0.0087156
0.00982331
0.0109656
0.0121285
0.0133225
0.0145375
0.0157922
0.0170847
0.018401
0.0197445
0.0211076
0.0225053
0.0239302
0.0253777
0.0268516
0.0283486
0.0298674
0.0314024
0.0329473
0.0344721
0.03601
0.0375529
0.0391088
0.0406658
0.0422309
0.0437954
0.045357
0.046919
0.0484702
0.0500091
0.0515189
0.05299
0.0544384
0.0558803
0.057295
0.058677
0.0600147
0.0613149
0.000490564
0.00190532
0.00345228
0.00504648
0.00666299
0.00829072
0.00992634
0.0115674
0.013211
0.0148558
0.0165029
0.0181527
0.0198058
0.0214638
0.0231261
0.0247943
0.0264689
0.0281499
0.0298379
0.0315334
0.0332355
0.0349452
0.0366621
0.0383856
0.0401158
0.0418524
0.0435946
0.0453421
0.0470946
0.0488511
0.0506116
0.0523747
0.0541396
0.0559059
0.0576722
0.0594379
0.0612018
0.0629628
0.0647199
0.0664721
0.068218
0.0699573
0.0716836
0.000145895
0.00099805
0.00213928
0.00343975
0.00484122
0.00631108
0.00783035
0.00938794
0.0109752
0.0125858
0.0142163
0.0158634
0.0175261
0.0192023
0.0208908
0.0225909
0.0243022
0.026024
0.0277559
0.0294975
0.031248
0.0330076
0.0347755
0.0365511
0.0383338
0.0401232
0.0419185
0.0437196
0.0455254
0.0473352
0.0491482
0.0509636
0.0527806
0.0545982
0.0564152
0.0582309
0.0600437
0.061853
0.0636578
0.0654561
0.067247
0.0690287
0.0707936
0.00023559
0.000866194
0.00180793
0.00289834
0.00410046
0.00539034
0.00675218
0.00817436
0.00964783
0.0111653
0.0127208
0.0143096
0.015928
0.0175725
0.0192404
0.0209292
0.0226374
0.0243632
0.0261046
0.0278606
0.0296302
0.0314124
0.033206
0.0350098
0.0368228
0.0386444
0.0404738
0.0423101
0.044152
0.0459987
0.0478491
0.0497024
0.0515577
0.0534136
0.0552692
0.057123
0.0589742
0.0608215
0.0626634
0.0644987
0.0663262
0.0681447
0.0699529
0.000250686
0.000761984
0.00158479
0.00254401
0.00361428
0.00477752
0.00602052
0.00733302
0.00870733
0.0101366
0.0116146
0.0131368
0.0146983
0.0162956
0.0179252
0.0195841
0.0212702
0.0229802
0.0247122
0.0264646
0.0282358
0.030024
0.0318272
0.0336442
0.0354739
0.0373151
0.0391664
0.0410263
0.0428937
0.0447675
0.0466465
0.0485294
0.050415
0.0523021
0.0541893
0.0560754
0.0579592
0.059839
0.0617133
0.0635811
0.0654406
0.0672901
0.0691276
0.000255162
0.000669232
0.00140642
0.00227412
0.00325078
0.00432078
0.00547291
0.00669799
0.00798977
0.0093415
0.0107483
0.0122057
0.0137091
0.015255
0.0168402
0.0184612
0.0201155
0.0217999
0.0235122
0.0252504
0.027012
0.0287951
0.0305976
0.032418
0.0342547
0.036106
0.0379699
0.039845
0.0417301
0.0436237
0.0455243
0.0474302
0.04934
0.0512526
0.0531663
0.0550798
0.0569914
0.0588996
0.0608028
0.0626994
0.0645878
0.0664664
0.0683365
0.000257347
0.000602934
0.00127589
0.00207384
0.00297727
0.0039726
0.00504968
0.00620153
0.00742172
0.00870495
0.010047
0.0114437
0.0128911
0.014386
0.0159249
0.0175051
0.0191235
0.0207771
0.022464
0.0241813
0.0259264
0.0276975
0.0294922
0.0313088
0.0331452
0.0349991
0.0368688
0.038753
0.0406497
0.0425569
0.0444732
0.0463965
0.0483257
0.050259
0.0521948
0.0541313
0.0560669
0.058
0.0599288
0.0618514
0.0637665
0.0656721
0.0675691
0.000257563
0.000554097
0.001176
0.00191823
0.0027623
0.00369592
0.00471043
0.00579962
0.00695769
0.00818064
0.00946442
0.0108056
0.0122007
0.0136464
0.0151401
0.016679
0.0182601
0.0198806
0.0215385
0.0232309
0.0249556
0.0267097
0.0284917
0.0302992
0.0321298
0.0339811
0.0358519
0.0377396
0.0396423
0.0415584
0.0434857
0.0454222
0.0473663
0.0493163
0.0512702
0.0532262
0.0551825
0.0571374
0.0590889
0.0610355
0.0629752
0.0649068
0.0668319
0.000257027
0.000515257
0.00109518
0.00179167
0.00258637
0.00346817
0.00442956
0.00546479
0.00656921
0.0077391
0.00897091
0.0102615
0.011608
0.0130079
0.0144582
0.0159566
0.0175004
0.019087
0.0207143
0.02238
0.0240812
0.0258158
0.0275812
0.0293759
0.0311967
0.0330418
0.0349089
0.0367961
0.0387009
0.0406217
0.042556
0.0445018
0.0464574
0.0484204
0.050389
0.0523614
0.0543355
0.0563093
0.0582813
0.0602494
0.0622121
0.0641673
0.0661157
0.000256379
0.000483496
0.00102793
0.00168608
0.00243899
0.00327668
0.00419222
0.00518056
0.00623784
0.00736055
0.00854567
0.00979033
0.0110925
0.0124494
0.0138587
0.0153184
0.0168258
0.0183788
0.0199753
0.0216129
0.0232894
0.025002
0.0267488
0.0285276
0.030336
0.0321715
0.0340321
0.0359153
0.0378191
0.0397409
0.041679
0.0436309
0.0455944
0.0475674
0.049548
0.051534
0.0535231
0.0555136
0.0575036
0.0594915
0.0614754
0.0634544
0.0654308
0.000255856
0.000457394
0.000971957
0.00159648
0.0023135
0.00311294
0.00398847
0.00493584
0.00595114
0.00703171
0.00817464
0.0093777
0.0106388
0.0119557
0.0133268
0.0147495
0.0162218
0.0177421
0.019308
0.0209174
0.022568
0.0242578
0.0259844
0.0277457
0.0295393
0.031363
0.0332143
0.0350912
0.0369907
0.0389112
0.0408501
0.0428051
0.0447739
0.0467545
0.0487443
0.0507412
0.0527431
0.0547479
0.0567539
0.058759
0.0607621
0.0627628
0.0647576
0.000255248
0.000435211
0.000924087
0.00151923
0.00220477
0.00297067
0.00381103
0.00472184
0.00569985
0.00674248
0.00784717
0.00901216
0.0102357
0.0115158
0.0128506
0.0142383
0.0156774
0.0171659
0.0187019
0.0202833
0.021908
0.0235742
0.0252798
0.0270223
0.0287997
0.0306097
0.03245
0.034318
0.0362116
0.0381281
0.0400654
0.0420213
0.0439931
0.0459786
0.0479751
0.0499809
0.0519933
0.0540102
0.0560295
0.0580492
0.0600676
0.0620826
0.0640869
0.000254651
0.000416312
0.000882582
0.00145162
0.00210943
0.00284569
0.00365471
0.00453284
0.00547714
0.00648538
0.00755541
0.00868568
0.00987453
0.0111202
0.0124212
0.0137761
0.0151835
0.0166415
0.0181483
0.0197021
0.0213013
0.022944
0.0246279
0.026351
0.028111
0.029906
0.0317336
0.0335915
0.0354769
0.0373877
0.0393219
0.0412764
0.043249
0.0452372
0.0472387
0.0492511
0.0512717
0.0532985
0.0553289
0.0573608
0.0593915
0.0614178
0.0634328
0.00025414
0.000399734
0.000845894
0.00139184
0.00202504
0.00273467
0.00351556
0.00436414
0.00527799
0.00625505
0.00729331
0.00839154
0.00954832
0.010762
0.0120316
0.0133557
0.0147328
0.0161616
0.0176403
0.0191674
0.0207416
0.0223606
0.0240227
0.0257259
0.027468
0.029247
0.0310609
0.032907
0.034783
0.036687
0.0386159
0.0405673
0.042539
0.0445282
0.0465327
0.0485496
0.0505767
0.0526113
0.054651
0.0566931
0.0587348
0.0607737
0.0628068
0.000253671
0.000385291
0.000813398
0.00133851
0.00194944
0.00263507
0.00339039
0.00421232
0.0050985
0.00604695
0.00705615
0.00812494
0.0092519
0.0104358
0.011676
0.0129708
0.0143194
0.0157203
0.017172
0.0186734
0.0202227
0.0218185
0.0234588
0.025142
0.0268659
0.0286286
0.0304278
0.0322612
0.034127
0.0360222
0.0379443
0.0398915
0.0418606
0.0438494
0.0458549
0.0478749
0.0499066
0.0519475
0.0539947
0.0560455
0.0580968
0.0601454
0.0621863
0.000253246
0.000372319
0.000784194
0.0012906
0.00188127
0.00254515
0.00327734
0.00407494
0.00493564
0.0058579
0.00684028
0.00788179
0.00898105
0.0101373
0.0113495
0.012617
0.0139385
0.0153125
0.0167386
0.0182149
0.0197404
0.0213133
0.0229323
0.0245955
0.0263009
0.0280468
0.0298308
0.031651
0.0335051
0.0353906
0.0373052
0.0392466
0.041212
0.0431986
0.0452041
0.0472256
0.0492605
0.0513061
0.0533595
0.0554179
0.0574782
0.0595375
0.0615945
0.000252778
0.000360802
0.000758039
0.00124754
0.00181934
0.00246337
0.00317438
0.00394951
0.00478686
0.00568487
0.00664246
0.00765856
0.00873221
0.00986243
0.0110487
0.0122902
0.0135857
0.0149347
0.016336
0.0177883
0.0192906
0.0208414
0.0224392
0.0240824
0.0257694
0.0274982
0.0292667
0.031073
0.032915
0.03479
0.0366961
0.0386307
0.040591
0.0425744
0.0445784
0.0466002
0.0486372
0.0506863
0.0527449
0.05481
0.0568791
0.0589501
0.0610244
0.00025241
0.000350525
0.000734375
0.00120841
0.00176289
0.00238853
0.00308001
0.00383464
0.00465032
0.00552595
0.0064604
0.00745292
0.00850241
0.00960828
0.0107701
0.0119871
0.0132583
0.0145832
0.0159608
0.01739
0.0188699
0.020399
0.0219761
0.0235997
0.0252683
0.0269798
0.0287326
0.030525
0.0323542
0.0342183
0.0361149
0.0380418
0.039996
0.0419753
0.0439767
0.0459977
0.0480355
0.050087
0.0521495
0.0542205
0.056297
0.0583772
0.0604618
0.000252155
0.000341597
0.000712864
0.00117273
0.00171109
0.00231979
0.00299326
0.00372875
0.0045245
0.00537936
0.00629225
0.00726252
0.00828954
0.00937256
0.0105113
0.0117049
0.0129531
0.0142552
0.0156101
0.0170171
0.0184752
0.0199833
0.0215401
0.0231446
0.0247949
0.0264893
0.0282265
0.0300041
0.0318203
0.0336728
0.0355595
0.037478
0.0394255
0.0413996
0.0433974
0.0454166
0.0474541
0.0495069
0.0515725
0.0536479
0.0557302
0.0578168
0.0599062
0.000252156
0.00033512
0.000693195
0.00113979
0.00166328
0.0022564
0.00291318
0.003631
0.00440814
0.00524351
0.00613613
0.00708569
0.00809155
0.00915304
0.0102699
0.0114416
0.0126678
0.0139479
0.0152812
0.0166669
0.0181038
0.0195916
0.0211289
0.0227143
0.0243466
0.0260242
0.0277454
0.0295085
0.0313115
0.033152
0.0350283
0.0369378
0.0388778
0.0408458
0.0428395
0.0448559
0.0468923
0.0489455
0.0510128
0.0530913
0.0551779
0.0572692
0.059363
0.000252648
0.000332734
0.000675198
0.00110943
0.00161902
0.00219755
0.00283876
0.00354002
0.00429974
0.00511681
0.00599068
0.00692082
0.00790659
0.00894773
0.010044
0.011195
0.0124002
0.0136595
0.0149719
0.0163369
0.0177539
0.019222
0.0207401
0.022307
0.0239216
0.0255825
0.027288
0.0290364
0.0308258
0.0326541
0.0345196
0.0364195
0.0383515
0.0403132
0.0423019
0.0443147
0.0463487
0.0484014
0.0504695
0.0525502
0.05464
0.0567355
0.0588334
0.000253792
0.000333438
0.000658738
0.00108131
0.00157794
0.00214279
0.00276947
0.00345526
0.00419859
0.00499868
0.0058549
0.00676662
0.0077335
0.00875543
0.00983215
0.0109633
0.0121486
0.0133879
0.0146804
0.0160257
0.0174233
0.0188722
0.0203717
0.0219205
0.0235178
0.0251623
0.0268521
0.0285859
0.0303618
0.0321778
0.034032
0.0359219
0.0378455
0.0398
0.0417829
0.0437915
0.0458229
0.047874
0.0499423
0.0520243
0.054117
0.0562174
0.058324
0.00025527
0.000335329
0.000643619
0.00105525
0.00154002
0.00209181
0.00270477
0.00337607
0.00410407
0.00488804
0.00572751
0.00662191
0.00757103
0.00857482
0.00963288
0.0107452
0.0119116
0.0131317
0.014405
0.0157313
0.0171101
0.0185406
0.0200219
0.0215533
0.0231337
0.0247618
0.0264363
0.0281554
0.0299176
0.0317212
0.033564
0.0354439
0.0373585
0.0393054
0.041282
0.0432858
0.0453136
0.0473629
0.0494304
0.0515131
0.0536082
0.0557126
0.0578259
0.000256787
0.000337334
0.000629756
0.00103113
0.00150468
0.00204408
0.00264423
0.00330177
0.00401528
0.00478414
0.00560786
0.00648585
0.00741813
0.00840449
0.00944492
0.0105394
0.0116876
0.0128894
0.0141444
0.0154525
0.0168131
0.0182256
0.0196895
0.0212038
0.0227675
0.0243796
0.0260388
0.0277435
0.0294922
0.0312833
0.0331145
0.0349841
0.0368894
0.0388282
0.0407983
0.0427965
0.0448205
0.046867
0.0489331
0.0510159
0.0531122
0.0552188
0.0573331
0.000258206
0.000339006
0.000616873
0.00100858
0.00147154
0.00199928
0.00258724
0.00323188
0.00393182
0.00468635
0.00549496
0.00635752
0.00727369
0.00824366
0.00926731
0.0103447
0.0114754
0.0126597
0.0138973
0.0151877
0.0165308
0.0179261
0.0193729
0.0208705
0.0224181
0.0240145
0.0256586
0.0273491
0.0290843
0.0308625
0.0326822
0.0345412
0.0364369
0.0383677
0.0403306
0.0423231
0.0443424
0.0463856
0.0484499
0.0505319
0.0526288
0.0547373
0.0568546
0.000259486
0.000340331
0.000604968
0.000987558
0.00144043
0.00195706
0.00253346
0.003166
0.0038531
0.00459395
0.00538838
0.00623617
0.00713719
0.00809146
0.00909911
0.0101601
0.0112742
0.0124417
0.0136623
0.0149358
0.0162621
0.0176407
0.0190709
0.0205523
0.0220841
0.0236652
0.0252945
0.0269708
0.0286925
0.0304582
0.0322663
0.0341144
0.0360006
0.0379227
0.0398781
0.0418645
0.0438786
0.0459183
0.0479801
0.0500612
0.0521584
0.0542683
0.0563896
0.000260626
0.000341369
0.00059386
0.000967721
0.00141109
0.00191724
0.00248274
0.00310372
0.00377858
0.00450654
0.00528757
0.00612142
0.00700787
0.00794718
0.00893956
0.00998479
0.0110829
0.0122343
0.0134387
0.0146959
0.016006
0.0173683
0.0187823
0.020248
0.0217643
0.0233303
0.0249452
0.0266074
0.028316
0.0300692
0.0318655
0.0337029
0.0355792
0.0374924
0.0394402
0.04142
0.0434289
0.0454644
0.0475234
0.0496029
0.0516998
0.0538112
0.0559352
0.000261582
0.00034196
0.00058334
0.000948963
0.00138336
0.00187964
0.00243478
0.00304481
0.00370799
0.00442372
0.00519189
0.00601236
0.00688497
0.00780998
0.00878768
0.00981787
0.0109008
0.0120367
0.0132254
0.014467
0.0157613
0.0171079
0.0185065
0.0199568
0.0214579
0.0230093
0.0246097
0.0262584
0.0279538
0.0296945
0.0314791
0.0333056
0.0351721
0.0370763
0.0390163
0.0409891
0.0429923
0.0450233
0.047079
0.0491565
0.0512528
0.0533647
0.0554906
0.000262444
0.000342557
0.00057363
0.000931377
0.00135722
0.00184422
0.00238933
0.00298883
0.00364101
0.00434517
0.00510112
0.00590881
0.0067682
0.00767957
0.00864313
0.00965896
0.0107273
0.0118482
0.0130219
0.0142482
0.0155272
0.0168587
0.0182423
0.0196776
0.021164
0.0227009
0.0242874
0.0259225
0.0276049
0.0293333
0.0311062
0.0329218
0.0347784
0.0366736
0.0386053
0.040571
0.0425683
0.0445945
0.0466465
0.0487214
0.0508162
0.052928
0.0550536
0.000263268
0.000342849
0.000564705
0.000914812
0.00133255
0.00181066
0.00234615
0.00293565
0.00357728
0.00427036
0.00501461
0.00581012
0.00665684
0.00755507
0.00850515
0.00950728
0.0105615
0.0116681
0.0128272
0.0140389
0.0153031
0.0166198
0.0179888
0.0194095
0.0208815
0.0224044
0.0239771
0.0255989
0.0272685
0.0289848
0.030746
0.0325509
0.0343972
0.0362833
0.0382067
0.0401652
0.0421563
0.0441772
0.046225
0.0482969
0.0503898
0.0525
0.0546234
0.000263951
0.000343141
0.000557205
0.000899224
0.00130923
0.00177885
0.00230506
0.00288497
0.00351653
0.00419899
0.00493208
0.00571597
0.00655052
0.00743622
0.0083734
0.00936225
0.0104028
0.0114956
0.0126408
0.0138384
0.0150883
0.0163908
0.0177454
0.0191519
0.0206099
0.022119
0.0236784
0.0252871
0.0269441
0.028648
0.0303979
0.0321919
0.0340282
0.035905
0.0378201
0.0397711
0.0417557
0.0437709
0.0458145
0.0478829
0.0499734
0.0520826
0.0542086
0.000264723
0.000343862
0.000552303
0.000884669
0.0012871
0.00174852
0.00226593
0.00283673
0.00345865
0.00413088
0.00485334
0.00562602
0.00644901
0.00732264
0.00824731
0.00922337
0.010251
0.0113305
0.0124621
0.0136459