/*--------------------------------*- C++ -*----------------------------------*\
| =========                 |                                                 |
| \\      /  F ield         | OpenFOAM: The Open Source CFD Toolbox           |
|  \\    /   O peration     | Version:  2.3.0                                 |
|   \\  /    A nd           | Web:      www.OpenFOAM.org                      |
|    \\/     M anipulation  |                                                 |
\*---------------------------------------------------------------------------*/
FoamFile
{
    version     2.0;
    format      ascii;
    class       volScalarField;
    location    "4000";
    object      p;
}
// * * * * * * * * * * * * * * * * * * * * * * * * * * * * * * * * * * * * * //

dimensions      [0 2 -2 0 0 0 0];

internalField   nonuniform List<scalar> 
38325
(
-0.000691565
2.55437
4.57229
6.45502
8.34235
10.2385
12.1421
14.0529
15.9716
17.8976
19.8309
21.774
23.7254
25.6863
27.6544
29.6297
31.6082
33.5883
35.5667
37.539
39.4963
41.4274
43.3268
45.1772
46.9743
48.6968
50.3234
51.8335
53.2041
54.3848
55.3481
56.0336
56.3679
56.2718
55.6042
54.2163
51.9355
48.4447
43.3995
36.4469
27.1447
12.7786
-15.337
-0.162111
1.3367
3.02345
4.75322
6.49965
8.25711
10.0272
11.811
13.607
15.4182
17.2417
19.0784
20.9276
22.7893
24.6632
26.5488
28.4466
30.356
32.2773
34.21
36.1546
38.1085
40.071
42.0348
43.991
45.9319
47.8401
49.6926
51.4661
53.1219
54.611
55.8737
56.8339
57.3933
57.4349
56.8052
55.3219
52.7677
48.8711
43.3191
35.7462
25.5778
11.7487
-1.39961
-0.260326
1.17862
2.66162
4.13801
5.61032
7.08078
8.5512
10.0171
11.4802
12.9361
14.385
15.8254
17.2555
18.6722
20.0721
21.4527
22.8092
24.1359
25.4279
26.6779
27.8758
29.0132
30.0777
31.0562
31.9317
32.6828
33.287
33.7119
33.9221
33.8694
33.5016
32.7529
31.5442
29.7882
27.3728
24.1841
20.0928
14.9687
8.68377
1.13916
-7.71019
-17.7134
-2.72192
-1.72413
-0.466225
0.825413
2.10702
3.38527
4.66131
5.93751
7.21177
8.48306
9.74906
11.0102
12.2634
13.5075
14.7407
15.9604
17.1638
18.3459
19.5027
20.6287
21.7168
22.7591
23.747
24.6678
25.5092
26.2525
26.8767
27.3608
27.6732
27.7813
27.6422
27.2089
26.4269
25.2307
23.5531
21.3107
18.4238
14.8092
10.3937
5.11676
-1.0489
-8.07987
-15.8603
-4.02018
-3.09737
-1.99518
-0.873653
0.237372
1.34161
2.44291
3.53996
4.63505
5.72365
6.80454
7.87544
8.93366
9.97755
11.0052
12.0133
12.9982
13.9554
14.8798
15.7653
16.6046
17.3872
18.1049
18.7446
19.2952
19.7393
20.057
20.2282
20.2254
20.0189
19.5719
18.8436
17.7869
16.3501
14.4794
12.1136
9.19668
5.67423
1.50455
-3.33114
-8.83232
-14.9373
-21.534
-5.10504
-4.33039
-3.37101
-2.40291
-1.43683
-0.478858
0.481168
1.43552
2.39159
3.34143
4.28401
5.21591
6.13503
7.04129
7.93054
8.80043
9.6462
10.4658
11.2526
12.0002
12.7026
13.3507
13.9337
14.4367
14.8502
15.1582
15.3395
15.377
15.2502
14.928
14.3779
13.5626
12.4442
10.9732
9.10867
6.80871
4.02869
0.722913
-3.13188
-7.53478
-12.5004
-17.9408
-23.7829
-6.5904
-5.54363
-4.66821
-3.81381
-2.95368
-2.11483
-1.27012
-0.432825
0.413856
1.25457
2.088
2.90853
3.70712
4.49361
5.26664
6.02604
6.75338
7.45579
8.13166
8.76291
9.34856
9.87957
10.3522
10.737
11.0395
11.2394
11.3097
11.2312
11.0002
10.5877
9.95928
9.08248
7.92992
6.4413
4.57176
2.32647
-0.334926
-3.46779
-7.07384
-11.1354
-15.7348
-20.7102
-26.0523
-7.59487
-6.58555
-5.80315
-5.05623
-4.29661
-3.56983
-2.83893
-2.12806
-1.37856
-0.623479
0.135994
0.901106
1.63032
2.3019
2.95811
3.64494
4.29091
4.89561
5.4862
6.04386
6.56597
7.02261
7.41851
7.70672
7.9247
8.0569
8.07405
7.91737
7.59425
7.11505
6.44881
5.5369
4.38188
2.9633
1.10673
-1.11042
-3.68542
-6.6698
-10.0463
-13.8284
-18.228
-22.8978
-27.9316
-8.12743
-7.30781
-6.65185
-6.04877
-5.42751
-4.86746
-4.25088
-3.75284
-3.19898
-2.61798
-1.98974
-1.27398
-0.534987
0.110846
0.589245
1.1986
1.78817
2.31493
2.75824
3.19466
3.68809
4.15695
4.5629
4.79149
4.96632
5.02818
5.01376
4.86192
4.52294
3.9737
3.33268
2.46938
1.19715
-0.0421001
-1.92699
-4.10039
-6.64455
-9.60142
-13.1392
-16.5512
-21.3349
-25.7122
-30.5154
-76.0773
-90.8325
-95.4982
-104.181
-112.72
-118.776
-123.197
-126.673
-129.459
-131.658
-133.411
-134.817
-135.947
-136.868
-137.602
-138.182
-138.625
-138.955
-139.185
-139.33
-139.402
-139.412
-139.36
-139.269
-139.134
-138.969
-138.781
-138.575
-138.355
-138.124
-137.887
-137.644
-137.402
-137.158
-136.915
-136.67
-136.427
-136.186
-135.944
-135.705
-135.467
-135.239
-135.111
-7.82933
-28.8329
-46.5868
-61.3028
-73.6026
-83.7534
-92.097
-98.9376
-104.531
-109.093
-112.799
-115.808
-118.241
-120.211
-121.829
-123.14
-124.229
-125.14
-125.915
-126.585
-127.171
-127.698
-128.173
-128.608
-129.012
-129.384
-129.727
-130.049
-130.343
-130.614
-130.858
-131.079
-131.274
-131.444
-131.591
-131.712
-131.811
-131.89
-131.946
-131.983
-131.999
-131.991
-131.98
-28.4683
-39.164
-49.0945
-58.1109
-66.272
-73.5713
-80.0477
-85.7403
-90.7409
-95.1188
-98.9565
-102.329
-105.295
-107.911
-110.228
-112.29
-114.126
-115.77
-117.238
-118.559
-119.748
-120.817
-121.779
-122.643
-123.423
-124.124
-124.756
-125.324
-125.833
-126.297
-126.71
-127.083
-127.42
-127.722
-127.996
-128.239
-128.457
-128.653
-128.826
-128.979
-129.113
-129.235
-129.344
-24.2234
-32.8447
-41.3997
-49.6296
-57.3767
-64.5275
-71.0545
-76.9395
-82.2177
-86.9239
-91.1084
-94.825
-98.1175
-101.043
-103.643
-105.958
-108.026
-109.877
-111.541
-113.038
-114.389
-115.617
-116.731
-117.753
-118.683
-119.537
-120.325
-121.048
-121.714
-122.328
-122.896
-123.418
-123.899
-124.339
-124.747
-125.118
-125.458
-125.768
-126.05
-126.307
-126.54
-126.762
-126.926
-28.4775
-35.5992
-42.709
-49.6316
-56.2468
-62.455
-68.2178
-73.5124
-78.3371
-82.7153
-86.6709
-90.24
-93.4647
-96.3757
-99.0067
-101.383
-103.537
-105.493
-107.273
-108.897
-110.378
-111.738
-112.98
-114.127
-115.178
-116.147
-117.039
-117.865
-118.625
-119.329
-119.978
-120.578
-121.134
-121.648
-122.123
-122.56
-122.965
-123.335
-123.681
-124.001
-124.297
-124.587
-124.771
-29.9096
-36.2007
-42.5271
-48.745
-54.7661
-60.4759
-65.8582
-70.8576
-75.4627
-79.6858
-83.5387
-87.0537
-90.2504
-93.1565
-95.7991
-98.2119
-100.403
-102.41
-104.24
-105.917
-107.449
-108.862
-110.161
-111.358
-112.461
-113.483
-114.424
-115.297
-116.109
-116.864
-117.558
-118.204
-118.807
-119.369
-119.89
-120.371
-120.821
-121.235
-121.624
-121.983
-122.311
-122.623
-122.733
-31.6327
-37.3552
-43.1174
-48.7651
-54.2706
-59.5107
-64.552
-69.2515
-73.6286
-77.6814
-81.3762
-84.7587
-87.8556
-90.7128
-93.3293
-95.7283
-97.9119
-99.9365
-101.789
-103.483
-105.036
-106.479
-107.815
-109.047
-110.193
-111.24
-112.216
-113.118
-113.978
-114.771
-115.492
-116.166
-116.814
-117.419
-117.978
-118.496
-118.981
-119.424
-119.842
-120.23
-120.586
-120.925
-121.039
-33.1159
-38.3974
-43.7364
-48.9375
-54.0766
-59.0354
-63.8428
-68.3121
-72.5469
-76.426
-79.9341
-83.1813
-86.2205
-89.0378
-91.622
-93.995
-96.1533
-98.1855
-100.014
-101.69
-103.236
-104.7
-106.051
-107.297
-108.46
-109.505
-110.514
-111.45
-112.349
-113.132
-113.857
-114.561
-115.261
-115.88
-116.446
-116.956
-117.432
-117.859
-118.291
-118.699
-119.058
-119.377
-119.524
-35.2665
-40.03
-45.0495
-50.1977
-56.1495
-60.8193
-66.1861
-70.4751
-74.3945
-77.9304
-80.9252
-84.5756
-87.6831
-90.3424
-92.7494
-95.0316
-97.102
-99.094
-100.76
-102.373
-103.883
-105.332
-106.561
-107.683
-108.718
-109.678
-110.664
-111.527
-112.335
-112.928
-113.568
-114.24
-114.88
-115.29
-115.631
-115.91
-116.217
-116.543
-116.986
-117.415
-117.694
-117.839
-117.846
-91.461
-91.1972
-90.9808
-90.7543
-90.522
-90.2833
-90.0375
-89.7838
-89.521
-89.2482
-88.9637
-88.666
-88.3528
-88.0225
-87.6737
-87.3051
-86.9159
-86.5064
-86.0782
-85.633
-85.1742
-84.7052
-84.2309
-83.7568
-83.2877
-82.83
-82.3889
-81.9695
-81.5772
-81.2164
-80.8901
-80.6012
-80.3522
-80.1434
-79.9745
-79.8449
-79.7523
-79.693
-79.6626
-79.6558
-79.6725
-79.7562
-79.9213
-90.8248
-90.5724
-90.3636
-90.1448
-89.9221
-89.6963
-89.4675
-89.2361
-89.0023
-88.7668
-88.53
-88.2923
-88.0541
-87.8156
-87.5774
-87.3394
-87.1013
-86.8626
-86.6226
-86.3804
-86.135
-85.8854
-85.6303
-85.3687
-85.0992
-84.821
-84.5332
-84.2352
-83.9267
-83.6075
-83.2777
-82.9377
-82.5878
-82.2284
-81.8605
-81.4854
-81.1048
-80.7217
-80.3414
-79.9743
-79.6398
-79.4081
-79.4042
-90.261
-90.0246
-89.8233
-89.6127
-89.3984
-89.1813
-88.9614
-88.7391
-88.5145
-88.2882
-88.0605
-87.8315
-87.6018
-87.3715
-87.1413
-86.9105
-86.6795
-86.4482
-86.2157
-85.9812
-85.7442
-85.5042
-85.2599
-85.0103
-84.7542
-84.491
-84.2195
-83.939
-83.6483
-83.3471
-83.0348
-82.7111
-82.3755
-82.0283
-81.6705
-81.3026
-80.9271
-80.5474
-80.1698
-79.8072
-79.4834
-79.2678
-79.3458
-89.7554
-89.535
-89.3388
-89.1335
-88.9235
-88.7098
-88.492
-88.2703
-88.0444
-87.8145
-87.5803
-87.3419
-87.0996
-86.8526
-86.6014
-86.3455
-86.0855
-85.8212
-85.5526
-85.2797
-85.0025
-84.721
-84.4357
-84.1466
-83.8534
-83.5564
-83.2555
-82.9506
-82.6423
-82.3308
-82.0165
-81.6996
-81.3802
-81.0585
-80.7351
-80.4114
-80.0896
-79.7736
-79.4703
-79.1933
-78.9716
-78.8796
-79.163
-89.3142
-89.1056
-88.9151
-88.7164
-88.5128
-88.3052
-88.0935
-87.8776
-87.6574
-87.4327
-87.2037
-86.9703
-86.7326
-86.4898
-86.2425
-85.9895
-85.7313
-85.4677
-85.1984
-84.9233
-84.6425
-84.3559
-84.0636
-83.7655
-83.462
-83.1532
-82.8388
-82.5196
-82.1963
-81.8704
-81.5431
-81.2161
-80.8908
-80.5681
-80.2487
-79.9349
-79.6286
-79.3342
-79.06
-78.8227
-78.6563
-78.6415
-79.0611
-88.9299
-88.7299
-88.5461
-88.3549
-88.1589
-87.959
-87.755
-87.5464
-87.3338
-87.1165
-86.8947
-86.6687
-86.4383
-86.2033
-85.9637
-85.7183
-85.4673
-85.21
-84.9462
-84.6758
-84.3993
-84.1153
-83.8239
-83.5258
-83.2219
-82.9119
-82.5944
-82.2694
-81.9374
-81.6004
-81.2626
-80.9289
-80.6018
-80.2803
-79.9652
-79.6562
-79.3568
-79.0707
-78.8098
-78.5948
-78.4646
-78.5106
-79.0234
-88.5939
-88.3991
-88.2224
-88.0388
-87.8491
-87.6564
-87.4593
-87.2573
-87.0517
-86.8405
-86.6233
-86.4022
-86.1764
-85.9459
-85.7108
-85.4692
-85.2213
-84.967
-84.7046
-84.4344
-84.1579
-83.8733
-83.5793
-83.277
-82.9694
-82.6561
-82.3358
-82.0064
-81.6669
-81.3173
-80.9606
-80.6082
-80.269
-79.9499
-79.6467
-79.3707
-79.1038
-78.8371
-78.5931
-78.4086
-78.3407
-78.4946
-79.0974
-88.2863
-88.1023
-87.9356
-87.761
-87.5766
-87.3917
-87.2019
-87.0056
-86.8072
-86.6036
-86.3897
-86.1736
-85.9526
-85.7271
-85.4983
-85.2617
-85.0175
-84.7685
-84.5077
-84.2367
-83.9639
-83.6831
-83.3871
-83.0782
-82.767
-82.4553
-82.1407
-81.8144
-81.4688
-81.1022
-80.7222
-80.3583
-80.0235
-79.6951
-79.3827
-79.0534
-78.8106
-78.524
-78.2564
-78.0586
-77.9957
-78.2432
-78.9924
-88.0256
-87.8447
-87.6848
-87.5197
-87.3328
-87.1553
-86.9738
-86.7803
-86.5937
-86.4022
-86.1851
-85.971
-85.7508
-85.5242
-85.3
-85.0696
-84.8239
-84.5866
-84.3333
-84.0458
-83.7663
-83.4955
-83.2066
-82.8726
-82.5374
-82.2099
-81.8889
-81.5771
-81.2703
-80.9114
-80.4259
-79.9189
-79.4912
-79.2217
-78.9742
-78.8845
-78.7952
-78.5306
-78.216
-78.0045
-78.0853
-78.8846
-79.9937
-80.4885
-80.5411
-80.4204
-80.2793
-80.1443
-80.0171
-79.897
-79.7837
-79.6769
-79.5757
-79.4799
-79.3894
-79.3034
-79.2225
-79.1463
-79.0749
-79.0093
-78.9489
-78.8945
-78.8466
-78.8056
-78.7719
-78.7466
-78.7295
-78.7225
-78.7253
-78.7396
-78.7649
-78.8024
-78.8538
-78.9177
-78.9965
-79.0898
-79.1994
-79.3257
-79.4697
-79.6322
-79.8134
-80.0139
-80.2325
-80.4699
-80.7269
-80.9549
-79.9773
-80.2427
-80.318
-80.3059
-80.2677
-80.2243
-80.1825
-80.1447
-80.1121
-80.0848
-80.0628
-80.0465
-80.0353
-80.0292
-80.0281
-80.0311
-80.0389
-80.0501
-80.0654
-80.0837
-80.1047
-80.1292
-80.1558
-80.1845
-80.2153
-80.2468
-80.2811
-80.3151
-80.3498
-80.387
-80.423
-80.4617
-80.5012
-80.5442
-80.5889
-80.638
-80.6917
-80.7507
-80.8155
-80.8881
-80.9706
-81.0619
-81.1731
-79.8661
-80.2002
-80.3328
-80.35
-80.3256
-80.2878
-80.2465
-80.2061
-80.1682
-80.1335
-80.1026
-80.0754
-80.0522
-80.0328
-80.0172
-80.0054
-79.9978
-79.994
-79.9945
-79.9989
-80.0069
-80.0205
-80.0374
-80.0585
-80.0848
-80.1146
-80.1505
-80.1883
-80.2298
-80.2762
-80.3234
-80.3763
-80.4299
-80.4884
-80.549
-80.6144
-80.6821
-80.7525
-80.8247
-80.8995
-80.9753
-81.0536
-81.1085
-79.7423
-80.1206
-80.2957
-80.3468
-80.3441
-80.3191
-80.2856
-80.2498
-80.215
-80.1828
-80.154
-80.1286
-80.1071
-80.0893
-80.076
-80.0661
-80.0601
-80.0581
-80.0592
-80.0641
-80.0726
-80.0851
-80.1012
-80.1215
-80.1463
-80.1738
-80.2044
-80.2354
-80.2699
-80.3064
-80.3448
-80.3869
-80.4305
-80.4789
-80.5321
-80.5919
-80.6541
-80.7199
-80.7894
-80.8644
-80.9419
-81.024
-81.0929
-79.6602
-80.0517
-80.2568
-80.339
-80.3593
-80.3499
-80.3263
-80.2971
-80.2669
-80.2379
-80.2111
-80.187
-80.167
-80.1509
-80.1393
-80.1299
-80.1241
-80.1229
-80.1239
-80.1292
-80.138
-80.1502
-80.1689
-80.192
-80.2182
-80.2464
-80.2748
-80.3034
-80.3341
-80.3654
-80.3988
-80.4335
-80.4707
-80.5131
-80.5639
-80.6196
-80.675
-80.7327
-80.7963
-80.8685
-80.9382
-81.0107
-81.0676
-79.621
-80.0174
-80.2429
-80.3466
-80.3831
-80.3845
-80.3674
-80.3424
-80.3148
-80.2864
-80.2598
-80.2345
-80.2153
-80.2008
-80.1901
-80.1798
-80.1736
-80.1736
-80.1746
-80.1792
-80.1865
-80.1996
-80.2234
-80.2514
-80.2792
-80.3054
-80.33
-80.3531
-80.3773
-80.4018
-80.4304
-80.4591
-80.4895
-80.5263
-80.5823
-80.6395
-80.6884
-80.7369
-80.7977
-80.8727
-80.9314
-80.9935
-81.0583
-79.6694
-80.0463
-80.2671
-80.3708
-80.4063
-80.4065
-80.3856
-80.359
-80.3297
-80.2959
-80.2636
-80.2304
-80.2133
-80.2033
-80.1916
-80.1773
-80.1691
-80.1713
-80.1689
-80.1653
-80.1651
-80.1793
-80.2191
-80.2605
-80.2927
-80.315
-80.3359
-80.352
-80.3753
-80.3962
-80.4288
-80.4525
-80.4696
-80.5099
-80.5954
-80.6637
-80.6995
-80.7347
-80.7982
-80.8893
-80.9311
-80.991
-81.0579
-79.5833
-79.9807
-80.2482
-80.3853
-80.4397
-80.4543
-80.4398
-80.4321
-80.4203
-80.3883
-80.3603
-80.3277
-80.3449
-80.348
-80.3369
-80.3121
-80.3109
-80.3257
-80.3117
-80.3021
-80.3126
-80.3726
-80.4802
-80.5324
-80.543
-80.5391
-80.547
-80.5353
-80.5549
-80.5472
-80.5806
-80.5535
-80.5357
-80.6056
-80.7541
-80.7747
-80.7055
-80.6862
-80.7757
-80.9222
-80.9007
-80.9519
-81.0676
-80.2813
-80.3681
-80.4707
-80.4768
-80.4161
-80.3554
-80.2873
-80.2564
-80.1664
-80.0243
-79.9238
-79.8365
-79.8039
-79.7631
-79.6464
-79.6032
-79.6147
-79.6333
-79.5737
-79.542
-79.5377
-79.6232
-79.6896
-79.4903
-79.3706
-79.3429
-79.3018
-79.2966
-79.3294
-79.3575
-79.4315
-79.4142
-79.4096
-79.7594
-80.005
-79.8066
-79.6949
-80.0292
-80.5633
-81.043
-80.9075
-80.9526
-81.3326
224.046
215.608
204.737
193.024
181.069
169.264
157.91
147.166
137.158
127.904
119.379
111.57
104.414
97.8631
91.8602
86.3278
81.2222
76.4823
72.0571
67.902
63.9835
60.2565
56.7055
53.2974
50.0094
46.8304
43.7451
40.7417
37.8138
34.9514
32.1495
29.4088
26.7178
24.0802
21.4909
18.9472
16.4491
13.992
11.5757
9.20857
6.90335
4.53264
1.68013
136.401
135.972
132.817
128.833
124.644
120.378
116.052
111.712
107.389
103.102
98.8713
94.7067
90.6148
86.609
82.6892
78.8602
75.1284
71.4911
67.9486
64.5039
61.1517
57.886
54.709
51.6159
48.5985
45.6553
42.7807
39.9671
37.2172
34.5215
31.8745
29.2801
26.7269
24.2195
21.7503
19.3206
16.9272
14.567
12.2402
9.95052
7.71446
5.47301
2.72543
123.115
123.606
123.025
121.977
120.424
118.39
115.925
113.093
109.961
106.583
103.017
99.3095
95.5062
91.6478
87.7687
83.8931
80.0478
76.2513
72.5145
68.8492
65.2638
61.7599
58.34
55.0051
51.754
48.5833
45.4926
42.4759
39.5292
36.6552
33.8432
31.0935
28.4018
25.7659
23.1812
20.6472
18.1606
15.7178
13.3194
10.9654
8.66446
6.39742
4.07675
120.082
119.167
117.539
115.706
113.69
111.489
109.112
106.572
103.886
101.071
98.1385
95.109
91.9957
88.8124
85.5806
82.3068
79.01
75.7016
72.3946
69.0947
65.8156
62.563
59.3446
56.1644
53.0289
49.9374
46.8948
43.9048
40.9624
38.0728
35.2356
32.4468
29.7088
27.0181
24.3775
21.7804
19.2302
16.7234
14.2574
11.8294
9.43663
7.09826
4.71975
105.84
105.266
104.462
103.476
102.308
100.96
99.4407
97.7536
95.9074
93.9077
91.7614
89.4806
87.0756
84.5557
81.9399
79.2318
76.4553
73.6154
70.7289
67.8064
64.8584
61.8973
58.9325
55.9694
53.0169
50.0827
47.1698
44.2834
41.4285
38.6037
35.8159
33.0648
30.3506
27.6752
25.039
22.4411
19.8818
17.3632
14.8818
12.4376
10.023
7.69949
5.73981
94.2865
94.0741
93.7632
93.2703
92.6109
91.7899
90.8054
89.6619
88.3615
86.908
85.3078
83.5666
81.6929
79.6921
77.5775
75.3539
73.0363
70.6303
68.1482
65.6033
63.0013
60.3545
57.6721
54.9641
52.2368
49.4998
46.7605
44.022
41.2943
38.578
35.8799
33.2032
30.5489
27.9222
25.3221
22.754
20.2149
17.7089
15.2367
12.795
10.3771
8.04074
6.04296
86.0217
85.877
85.6153
85.2041
84.6767
84.0321
83.2674
82.3819
81.3726
80.2405
78.9862
77.6105
76.116
74.5047
72.782
70.9511
69.0203
66.9929
64.8777
62.6825
60.415
58.082
55.6925
53.2545
50.7787
48.2672
45.732
43.1777
40.6118
38.0395
35.468
32.9
30.3397
27.7938
25.2611
22.749
20.2567
17.7873
15.3437
12.9215
10.512
8.16801
6.17405
78.4474
78.3424
78.1319
77.8063
77.3927
76.8883
76.2905
75.5964
74.8033
73.9095
72.9128
71.8117
70.6059
69.2956
67.8821
66.366
64.7521
63.0413
61.2401
59.3511
57.3825
55.3381
53.2241
51.0476
48.8177
46.5367
44.2143
41.8587
39.4724
37.064
34.6391
32.2043
29.7613
27.3193
24.8778
22.4449
20.0216
17.6115
15.2186
12.842
10.4772
8.17784
6.26161
71.3555
71.305
71.1651
70.934
70.6293
70.2492
69.7908
69.2513
68.6291
67.9205
67.1237
66.2352
65.2551
64.1814
63.0137
61.7518
60.3969
58.9493
57.4126
55.7885
54.0806
52.2934
50.43
48.4965
46.4984
44.4413
42.329
40.1704
37.9698
35.7332
33.4662
31.1765
28.8658
26.5429
24.2098
21.8726
19.5352
17.1998
14.872
12.5527
10.2382
7.95492
5.92677
64.991
64.9697
64.8705
64.6966
64.4629
64.1669
63.8049
63.3763
62.8769
62.3051
61.6572
60.9307
60.124
59.2345
58.2615
57.203
56.0583
54.8282
53.5128
52.1131
50.6307
49.0684
47.4285
45.7148
43.9302
42.0807
40.1695
38.202
36.1836
34.1193
32.0134
29.8744
27.7039
25.5092
23.2944
21.0637
18.8233
16.5749
14.3225
12.0709
9.81395
7.48305
4.9594
59.1767
59.1754
59.1038
58.9705
58.7864
58.55
58.2593
57.9116
57.5048
57.0362
56.5021
55.9005
55.2292
54.4854
53.6668
52.7719
51.799
50.7478
49.6169
48.4066
47.1168
45.7491
44.3053
42.7867
41.1961
39.5365
37.8114
36.0247
34.1802
32.2833
30.3369
28.3483
26.3194
24.2579
22.1675
20.0521
17.9175
15.7672
13.6057
11.4409
9.28797
7.09487
4.51456
53.7543
53.7751
53.73
53.6308
53.489
53.3027
53.0693
52.7873
52.4544
52.068
51.6252
51.1238
50.5614
49.9347
49.2417
48.4805
47.6492
46.7463
45.77
44.7195
43.5947
42.3956
41.1224
39.7761
38.3582
36.8702
35.3159
33.6962
32.0155
30.2769
28.4845
26.6427
24.7547
22.8263
20.8608
18.8639
16.8392
14.7924
12.7262
10.6479
8.57744
6.49754
4.03396
48.7248
48.7546
48.7242
48.6501
48.5403
48.3918
48.2032
47.9722
47.6976
47.377
47.0073
46.5863
46.1118
45.5805
44.9906
44.3397
43.6254
42.8461
41.9998
41.0847
40.1008
39.047
37.9224
36.7275
35.4632
34.1292
32.7287
31.263
29.7334
28.1436
26.4967
24.795
23.0438
21.2457
19.4052
17.5271
15.6141
13.6723
11.7051
9.71794
7.72553
5.73354
3.59067
43.9842
44.0287
44.0157
43.9651
43.882
43.7656
43.6136
43.4254
43.1992
42.9323
42.6224
42.2677
41.8654
41.4128
40.9084
40.349
39.733
39.0578
38.3212
37.5222
36.6587
35.7302
34.7351
33.6731
32.5444
31.3489
30.0871
28.7603
27.3699
25.9183
24.407
22.8391
21.2177
19.5454
17.8262
16.0643
14.2626
12.4252
10.5556
8.65547
6.72948
4.79643
2.77833
39.5394
39.5879
39.584
39.5492
39.4869
39.3953
39.2733
39.1197
38.9324
38.7099
38.4497
38.15
37.8077
37.4211
36.9876
36.5055
35.9722
35.3849
34.7424
34.0423
33.2831
32.4629
31.5807
30.6359
29.6268
28.5544
27.4174
26.2167
24.9534
23.6287
22.2433
20.8008
19.3022
17.7507
16.1487
14.5003
12.808
11.0767
9.30869
7.50836
5.67755
3.85502
2.18764
35.3096
35.3672
35.3754
35.3568
35.3134
35.2446
35.1487
35.0245
34.8709
34.6858
34.4677
34.2143
33.9232
33.592
33.2193
32.8027
32.3394
31.8279
31.2659
30.6511
29.982
29.2567
28.4732
27.631
26.7284
25.765
24.7398
23.6535
22.5057
21.297
20.0287
18.7023
17.3192
15.8812
14.3912
12.8519
11.2659
9.63768
7.96936
6.26447
4.523
2.77803
1.22221
31.2846
31.3502
31.3691
31.3644
31.3385
31.2895
31.216
31.1181
30.9931
30.8406
30.6583
30.4448
30.1973
29.9139
29.5933
29.2328
28.8301
28.384
27.8916
27.3509
26.7601
26.1175
25.4207
24.669
23.8609
22.9948
22.0701
21.0868
20.0439
18.9417
17.7806
16.5624
15.2868
13.9561
12.5718
11.1367
9.65254
8.12319
6.55136
4.93997
3.28809
1.61599
0.143897
27.4453
27.5206
27.5483
27.5569
27.5453
27.513
27.4596
27.3837
27.284
27.1594
27.0082
26.8285
26.6186
26.3764
26.1005
25.7886
25.4387
25.049
24.6173
24.1412
23.619
23.0487
22.4287
21.7572
21.0329
20.2538
19.4193
18.5288
17.5809
16.5763
15.5136
14.395
13.2195
11.9891
10.7045
9.36794
7.9813
6.54699
5.06725
3.54488
1.97692
0.372203
-1.08906
23.8112
23.8869
23.9172
23.9315
23.9292
23.9091
23.8702
23.8119
23.7327
23.6311
23.5053
23.3548
23.1772
22.9704
22.733
22.4631
22.1589
21.8186
21.4398
21.0204
20.5583
20.0521
19.5
18.8997
18.2499
17.549
16.7958
15.9889
15.1277
14.2114
13.2395
12.2126
11.1302
9.99311
8.80244
7.55909
6.26484
4.92109
3.5305
2.09408
0.608929
-0.922223
-2.36206
20.2977
20.3832
20.4215
20.4453
20.4538
20.446
20.4216
20.3796
20.3187
20.2375
20.135
20.01
19.8604
19.6847
19.4813
19.2485
18.9844
18.6873
18.3551
17.9854
17.577
17.1277
16.6356
16.0988
15.5157
14.885
14.205
13.4739
12.6912
11.8558
10.9671
10.0249
9.02869
7.97877
6.87594
5.7205
4.51397
3.25725
1.95273
0.60117
-0.799692
-2.24701
-3.63968
16.9133
17.0078
17.0535
17.0865
17.105
17.1096
17.0988
17.0721
17.0279
16.9658
16.8847
16.7825
16.6579
16.5099
16.3368
16.1369
15.9084
15.6497
15.3586
15.0335
14.6728
14.274
13.8357
13.3558
12.8328
12.2653
11.6512
10.9891
10.2777
9.51623
8.70373
7.83931
6.9229
5.95421
4.93347
3.86093
2.73757
1.56397
0.342036
-0.927544
-2.24733
-3.61102
-4.92034
13.669
13.7684
13.818
13.8573
13.8845
13.8989
13.8995
13.8857
13.8563
13.8106
13.7476
13.6656
13.5634
13.44
13.2935
13.1227
12.9258
12.7012
12.4468
12.1613
11.8429
11.4896
11.0994
10.6707
10.2018
9.69126
9.13682
8.53721
7.89108
7.19738
6.45496
5.66253
4.81993
3.92653
2.98248
1.98768
0.94306
-0.151066
-1.29284
-2.4808
-3.71486
-4.98795
-6.183
10.5465
10.6481
10.7001
10.7455
10.7799
10.8022
10.8128
10.8102
10.7933
10.762
10.7152
10.651
10.5687
10.4669
10.3443
10.1996
10.0311
9.83677
9.61538
9.36531
9.08485
8.77226
8.42561
8.04311
7.62292
7.16389
6.66388
6.12122
5.53457
4.9028
4.22453
3.49868
2.72439
1.90101
1.02868
0.106665
-0.864582
-1.88432
-2.95163
-4.06592
-5.22702
-6.43486
-7.60624
7.53599
7.63659
7.69014
7.74038
7.78045
7.81028
7.82916
7.83621
7.83082
7.81244
7.77968
7.73168
7.6668
7.58454
7.48333
7.36188
7.21842
7.05165
6.86032
6.64211
6.39572
6.11985
5.81239
5.47177
5.09611
4.68372
4.23313
3.74262
3.21039
2.6353
2.01615
1.3517
0.640522
-0.117716
-0.92333
-1.77737
-2.67957
-3.62996
-4.62712
-5.67219
-6.76546
-7.90526
-9.00771
4.58957
4.69595
4.75744
4.81668
4.86516
4.90385
4.93245
4.95042
4.95684
4.95053
4.93152
4.89848
4.85026
4.78582
4.70428
4.60392
4.48343
4.34169
4.17703
3.98777
3.77269
3.53014
3.2581
2.95543
2.62034
2.25077
1.84524
1.40221
0.919885
0.396936
-0.167632
-0.77552
-1.42805
-2.12578
-2.86951
-3.65971
-4.49711
-5.38133
-6.31146
-7.28775
-8.30996
-9.3747
-10.3747
1.77722
1.87902
1.93903
1.99924
2.05113
2.09481
2.12993
2.15585
2.17142
2.17566
2.16857
2.14891
2.11518
2.06666
2.0027
1.92158
1.82185
1.70258
1.56227
1.3993
1.21279
1.00047
0.760814
0.492683
0.194327
-0.136035
-0.500217
-0.899735
-1.33596
-1.81077
-2.3252
-2.8807
-3.47882
-4.12029
-4.80633
-5.53698
-6.31394
-7.13647
-8.00474
-8.91916
-9.88131
-10.8952
-11.8738
-0.979568
-0.875727
-0.810297
-0.743702
-0.685363
-0.634731
-0.592427
-0.558384
-0.534147
-0.519872
-0.51586
-0.523435
-0.543912
-0.577673
-0.62571
-0.689679
-0.770512
-0.86915
-0.987333
-1.126
-1.28682
-1.4716
-1.68149
-1.91796
-2.18285
-2.47739
-2.80354
-3.16291
-3.55683
-3.98717
-4.45517
-4.96217
-5.50969
-6.09872
-6.73066
-7.40595
-8.12594
-8.89079
-9.70085
-10.5571
-11.4623
-12.4235
-13.3691
-3.66143
-3.55343
-3.48377
-3.41252
-3.34873
-3.29139
-3.24172
-3.20001
-3.16679
-3.14298
-3.12868
-3.12492
-3.13292
-3.15315
-3.18649
-3.23421
-3.29747
-3.37742
-3.47504
-3.59181
-3.72918
-3.88828
-4.07077
-4.27822
-4.51213
-4.77391
-5.06504
-5.3874
-5.74243
-6.13161
-6.5565
-7.01852
-7.51888
-8.05911
-8.64034
-9.26357
-9.92973
-10.6395
-11.3938
-12.1929
-13.038
-13.9344
-14.8516
-6.22724
-6.1272
-6.06102
-5.99046
-5.92548
-5.86539
-5.81169
-5.76465
-5.72486
-5.69303
-5.67015
-5.65658
-5.65357
-5.66164
-5.68171
-5.71474
-5.76217
-5.82491
-5.90377
-6.00052
-6.11622
-6.25196
-6.40948
-6.59026
-6.79561
-7.02694
-7.2859
-7.57407
-7.89289
-8.24398
-8.62883
-9.04879
-9.50544
-9.99991
-10.5337
-11.1078
-11.7232
-12.3809
-13.0824
-13.8282
-14.6184
-15.4576
-16.3901
-8.78466
-8.67685
-8.60119
-8.52244
-8.45059
-8.38353
-8.32276
-8.26856
-8.22109
-8.18104
-8.14911
-8.12581
-8.11234
-8.10897
-8.11638
-8.13577
-8.16845
-8.21517
-8.2767
-8.35473
-8.45045
-8.56472
-8.69926
-8.85546
-9.03444
-9.23752
-9.46654
-9.72307
-10.0084
-10.3243
-10.6718
-11.0526
-11.4683
-11.9198
-12.4089
-12.9366
-13.5038
-14.1116
-14.7608
-15.452
-16.1825
-16.9488
-17.7764
-11.2507
-11.142
-11.0651
-10.9836
-10.908
-10.8367
-10.7703
-10.7099
-10.6554
-10.608
-10.5676
-10.5352
-10.5116
-10.4975
-10.4934
-10.5002
-10.5192
-10.5509
-10.5965
-10.6573
-10.7344
-10.8288
-10.942
-11.0753
-11.2298
-11.4067
-11.6081
-11.8352
-12.0894
-12.3722
-12.685
-13.0294
-13.4067
-13.8182
-14.2654
-14.7494
-15.2712
-15.8321
-16.4328
-17.0746
-17.7569
-18.4788
-19.2601
-13.6365
-13.5312
-13.4547
-13.3723
-13.2953
-13.2215
-13.1514
-13.0866
-13.027
-12.9734
-12.926
-12.8858
-12.8534
-12.8296
-12.8148
-12.8102
-12.8164
-12.8344
-12.8654
-12.9103
-12.9702
-13.0463
-13.1396
-13.2515
-13.3831
-13.5361
-13.7118
-13.9115
-14.1366
-14.3885
-14.6689
-14.9791
-15.3206
-15.6946
-16.1025
-16.5454
-17.0243
-17.5404
-18.0942
-18.686
-19.3138
-19.9721
-20.6506
-15.9912
-15.8828
-15.8027
-15.7157
-15.6342
-15.5555
-15.4807
-15.4106
-15.3451
-15.285
-15.2307
-15.183
-15.1422
-15.1089
-15.0842
-15.0686
-15.0632
-15.0687
-15.0859
-15.1159
-15.1598
-15.2186
-15.2935
-15.3855
-15.4962
-15.6266
-15.7782
-15.9524
-16.1504
-16.3739
-16.6239
-16.9022
-17.2101
-17.5488
-17.9197
-18.3241
-18.7629
-19.2369
-19.7463
-20.291
-20.87
-21.485
-22.0742
-18.2976
-18.1856
-18.1014
-18.0102
-17.9237
-17.8401
-17.7603
-17.6845
-17.6128
-17.5462
-17.4849
-17.4296
-17.3808
-17.3388
-17.3046
-17.2788
-17.2622
-17.2555
-17.2598
-17.2761
-17.305
-17.3477
-17.4054
-17.4791
-17.57
-17.6794
-17.8087
-17.959
-18.1317
-18.3283
-18.5501
-18.7985
-19.0749
-19.3806
-19.717
-20.0855
-20.487
-20.9226
-21.3933
-21.8995
-22.4438
-23.0396
-23.646
-20.5357
-20.4234
-20.3386
-20.2453
-20.1562
-20.0691
-19.9852
-19.9048
-19.8281
-19.756
-19.6887
-19.6266
-19.5703
-19.5202
-19.4771
-19.442
-19.4151
-19.3973
-19.3897
-19.3929
-19.4078
-19.4354
-19.4769
-19.5334
-19.606
-19.6958
-19.8041
-19.9321
-20.0812
-20.2525
-20.4478
-20.6682
-20.915
-21.1898
-21.4938
-21.8284
-22.1949
-22.5945
-23.0284
-23.4976
-24.0048
-24.5635
-25.1464
-22.7167
-22.6049
-22.5201
-22.4259
-22.3347
-22.2451
-22.1582
-22.0741
-21.9933
-21.9162
-21.8435
-21.7754
-21.7124
-21.6549
-21.604
-21.56
-21.5236
-21.4955
-21.4767
-21.468
-21.4698
-21.4833
-21.5098
-21.5501
-21.6055
-21.677
-21.7654
-21.8725
-21.9994
-22.1472
-22.3174
-22.5114
-22.7305
-22.9761
-23.2494
-23.552
-23.8853
-24.2502
-24.6482
-25.0802
-25.5482
-26.0631
-26.6039
-24.8479
-24.7377
-24.6534
-24.5585
-24.4661
-24.3745
-24.2849
-24.1977
-24.1129
-24.0312
-23.9534
-23.8797
-23.8104
-23.7462
-23.6877
-23.6355
-23.5902
-23.5524
-23.5231
-23.5028
-23.4926
-23.493
-23.5053
-23.5305
-23.5697
-23.6237
-23.6939
-23.7811
-23.8871
-24.0128
-24.1594
-24.3285
-24.5214
-24.7393
-24.9836
-25.2559
-25.5574
-25.8893
-26.2529
-26.6495
-27.0812
-27.5585
-28.0618
-26.9532
-26.8416
-26.7547
-26.657
-26.5609
-26.4656
-26.3721
-26.2806
-26.1915
-26.1051
-26.022
-25.9427
-25.8672
-25.7963
-25.7305
-25.6706
-25.6166
-25.5697
-25.5304
-25.4994
-25.4776
-25.4658
-25.4647
-25.4758
-25.4996
-25.5374
-25.5901
-25.6587
-25.7449
-25.8497
-25.9742
-26.1198
-26.2878
-26.4797
-26.6966
-26.9399
-27.211
-27.5112
-27.8421
-28.2046
-28.5998
-29.0351
-29.5174
-29.0181
-28.9045
-28.8158
-28.7151
-28.6159
-28.5172
-28.4197
-28.3238
-28.2303
-28.1392
-28.0511
-27.966
-27.8845
-27.807
-27.7345
-27.6669
-27.6047
-27.549
-27.5004
-27.4592
-27.4266
-27.4029
-27.3894
-27.3872
-27.3965
-27.4188
-27.4551
-27.5064
-27.5739
-27.6589
-27.7624
-27.8858
-28.0302
-28.1972
-28.3881
-28.604
-28.8462
-29.1161
-29.4156
-29.7461
-30.1078
-30.5072
-30.9904
-31.0207
-30.9103
-30.8236
-30.723
-30.6229
-30.5226
-30.4227
-30.3239
-30.227
-30.1321
-30.0394
-29.9495
-29.8624
-29.7793
-29.7002
-29.6254
-29.5557
-29.4919
-29.4344
-29.3838
-29.3407
-29.306
-29.2807
-29.2656
-29.2614
-29.2691
-29.2899
-29.3247
-29.3747
-29.441
-29.5246
-29.6269
-29.7491
-29.8925
-30.0584
-30.2479
-30.4623
-30.7029
-30.9711
-31.2681
-31.5918
-31.943
-32.3742
-33.0142
-32.8988
-32.8067
-32.7019
-32.598
-32.4942
-32.3906
-32.2879
-32.187
-32.0878
-31.9907
-31.8957
-31.8034
-31.7147
-31.6292
-31.5479
-31.4711
-31.3996
-31.3336
-31.2739
-31.2211
-31.176
-31.1394
-31.1124
-31.0954
-31.0894
-31.0954
-31.1146
-31.1479
-31.1964
-31.2613
-31.3436
-31.4446
-31.5656
-31.7077
-31.8721
-32.0601
-32.2729
-32.5116
-32.7772
-33.0688
-33.3888
-33.7761
-34.9353
-34.8243
-34.7364
-34.6332
-34.5292
-34.4241
-34.3186
-34.2135
-34.1094
-34.0067
-33.9055
-33.8061
-33.7091
-33.615
-33.5238
-33.4361
-33.3525
-33.2734
-33.1993
-33.1312
-33.0691
-33.0143
-32.967
-32.9286
-32.8994
-32.8803
-32.8723
-32.8767
-32.8942
-32.926
-32.973
-33.0364
-33.1173
-33.2169
-33.3365
-33.4773
-33.6403
-33.8267
-34.0376
-34.2732
-34.5323
-34.816
-35.1684
-36.828
-36.7197
-36.6314
-36.5277
-36.4228
-36.3165
-36.2095
-36.1024
-35.9957
-35.8899
-35.785
-35.6817
-35.5804
-35.4813
-35.3845
-35.2909
-35.201
-35.1147
-35.0333
-34.9569
-34.8861
-34.8217
-34.7644
-34.7151
-34.6744
-34.643
-34.6218
-34.6121
-34.6147
-34.6303
-34.6603
-34.7057
-34.7676
-34.8471
-34.9454
-35.0638
-35.2032
-35.3647
-35.5492
-35.757
-35.9877
-36.2478
-36.5441
-38.7367
-38.6188
-38.5228
-38.4122
-38.3013
-38.1896
-38.0776
-37.9659
-37.8546
-37.7441
-37.6347
-37.5267
-37.4203
-37.316
-37.2139
-37.1143
-37.0177
-36.9249
-36.8363
-36.7522
-36.673
-36.5995
-36.5327