/*--------------------------------*- C++ -*----------------------------------*\
| =========                 |                                                 |
| \\      /  F ield         | OpenFOAM: The Open Source CFD Toolbox           |
|  \\    /   O peration     | Version:  2.3.0                                 |
|   \\  /    A nd           | Web:      www.OpenFOAM.org                      |
|    \\/     M anipulation  |                                                 |
\*---------------------------------------------------------------------------*/
FoamFile
{
    version     2.0;
    format      ascii;
    class       surfaceScalarField;
    location    "4000";
    object      phi;
}
// * * * * * * * * * * * * * * * * * * * * * * * * * * * * * * * * * * * * * //

dimensions      [0 3 -1 0 0 0 0];

internalField   nonuniform List<scalar> 
76310
(
0.00175472
-0.00432237
0.00468901
-0.00212135
0.00142205
-0.00413248
0.00446515
0.00112307
-0.00395147
0.00425045
0.000856114
-0.00377803
0.00404498
0.00061991
-0.00361184
0.00384805
0.000413231
-0.00345264
0.00365932
0.000234261
-0.00329986
0.00347883
8.19412e-05
-0.0031535
0.00330582
-4.52688e-05
-0.00301297
0.00314018
-0.000148356
-0.0028786
0.00298168
-0.000228936
-0.00274917
0.00282975
-0.000287867
-0.00262534
0.00268427
-0.000326334
-0.00250642
0.00254489
-0.000345512
-0.0023923
0.00241148
-0.000346315
-0.00228271
0.00228352
-0.000329883
-0.00217746
0.00216102
-0.000296802
-0.00207648
0.0020434
-0.000248154
-0.00197921
0.00193056
-0.000184537
-0.00188583
0.00182221
-0.000107169
-0.00179568
0.00171831
-1.63138e-05
-0.00170929
0.00161844
8.7325e-05
-0.00162574
0.0015221
0.000202938
-0.00154532
0.00142971
0.000330763
-0.00146793
0.0013401
0.00046947
-0.00139274
0.00125403
0.000618747
-0.00131995
0.00117068
0.000779105
-0.00125024
0.00108989
0.000949577
-0.00118183
0.00101135
0.00112976
-0.00111572
0.000935544
0.00132067
-0.00105167
0.000860756
0.00152208
-0.000989543
0.000788127
0.00173374
-0.000928519
0.000716858
0.0019572
-0.000869841
0.000646389
0.0021919
-0.000812072
0.000577372
0.00244032
-0.000756545
0.000508123
0.00270516
-0.000703356
0.00043851
0.00298696
-0.000651278
0.000369483
0.00329055
-0.000601949
0.000298353
0.00362248
-0.000555972
0.000224042
0.00399219
-0.000514826
0.000145116
0.0044144
-0.000479515
5.7305e-05
0.00492646
-0.000455229
-5.68274e-05
-0.000451831
0.00565505
-0.000276756
0.00164303
-0.00398612
-0.00197928
0.00133991
-0.00382936
0.00106742
-0.00367898
0.000824133
-0.00353474
0.000608534
-0.00339624
0.000419156
-0.00326326
0.000254781
-0.00313548
0.000114137
-0.00301285
-3.73578e-06
-0.0028951
-0.000100125
-0.00278221
-0.000175723
-0.00267357
-0.000231989
-0.00256908
-0.000269893
-0.00246851
-0.000290136
-0.00237206
-0.000293478
-0.00227937
-0.000280979
-0.00218995
-0.000253689
-0.00210377
-0.000211759
-0.00202114
-0.00015637
-0.00194122
-8.80144e-05
-0.00186404
-7.32213e-06
-0.00178998
8.50661e-05
-0.00171813
0.000188644
-0.0016489
0.00030287
-0.00158215
0.000427309
-0.00151718
0.000562141
-0.00145479
0.000706236
-0.00139434
0.000860191
-0.00133578
0.00102349
-0.00127902
0.00119657
-0.00122475
0.0013789
-0.00117187
0.0015718
-0.00112142
0.00177521
-0.00107325
0.00198977
-0.00102663
0.00221659
-0.000983362
0.00245655
-0.000943316
0.00271115
-0.000905878
0.00298369
-0.000874485
0.00327477
-0.000847052
0.00358644
-0.000826496
0.00392064
-0.00081372
0.00427893
-0.00081352
-0.000824781
0.00465188
0.00152988
-0.00368227
-0.00183373
0.00125487
-0.00355435
0.00100713
-0.00343125
0.000785384
-0.00331299
0.00058828
-0.00319914
0.000414969
-0.00308995
0.0002641
-0.00298461
0.000134777
-0.00288353
2.58968e-05
-0.00278622
-6.34221e-05
-0.00269289
-0.000134404
-0.00260258
-0.000187471
-0.00251601
-0.000223583
-0.0024324
-0.000243676
-0.00235197
-0.000248555
-0.00227449
-0.000238989
-0.00219952
-0.000215267
-0.0021275
-0.00017847
-0.00205793
-0.000129035
-0.00199065
-6.72835e-05
-0.00192579
5.6915e-06
-0.00186296
8.99311e-05
-0.00180237
0.000184602
-0.00174357
0.000289262
-0.00168682
0.00040382
-0.00163174
0.0005279
-0.00157887
0.000661352
-0.00152779
0.000803162
-0.00147759
0.000954312
-0.00143017
0.0011136
-0.00138404
0.00128192
-0.00134019
0.0014588
-0.0012983
0.0016437
-0.00125815
0.00183812
-0.00122105
0.00204077
-0.00118601
0.00225284
-0.00115539
0.0024746
-0.00112764
0.00270503
-0.00110491
0.00294413
-0.00108616
0.0031918
-0.00107417
0.00344739
-0.0010693
0.00370572
-0.00107185
-0.00108117
0.00396211
0.00141992
-0.00340628
-0.0016959
0.00116947
-0.0033039
0.000943485
-0.00320527
0.000740805
-0.00311031
0.000560222
-0.00301856
0.000401031
-0.00293076
0.000262077
-0.00284566
0.000142468
-0.00276392
4.14688e-05
-0.00268522
-4.23642e-05
-0.00260906
-0.000109126
-0.00253582
-0.000159949
-0.00246519
-0.000195364
-0.00239699
-0.000216408
-0.00233092
-0.000223744
-0.00226716
-0.000217406
-0.00220586
-0.000198888
-0.00214601
-0.000168132
-0.00208869
-0.000125934
-0.00203285
-7.28261e-05
-0.0019789
-9.041e-06
-0.00192674
6.49296e-05
-0.00187634
0.000148397
-0.00182704
0.000241217
-0.00177964
0.000343002
-0.00173352
0.000453116
-0.00168898
0.000571394
-0.00164607
0.000698191
-0.00160439
0.000832823
-0.0015648
0.000974946
-0.00152616
0.00112448
-0.00148972
0.00128139
-0.00145521
0.00144588
-0.00142264
0.00161768
-0.00139285
0.00179682
-0.00136514
0.00198276
-0.00134133
0.00217668
-0.00132156
0.00237632
-0.00130454
0.00258327
-0.00129311
0.00279564
-0.00128654
0.00301248
-0.00128614
0.00323292
-0.0012923
-0.00130277
0.00345452
0.00131381
-0.00315522
-0.00156487
0.00108559
-0.00307568
0.000879109
-0.00299878
0.000693633
-0.00292484
0.000528542
-0.00285347
0.000381971
-0.00278419
0.000254212
-0.0027179
0.000143548
-0.00265326
4.94607e-05
-0.00259113
-2.85511e-05
-0.00253104
-9.12727e-05
-0.0024731
-0.000139669
-0.00241679
-0.000174409
-0.00236225
-0.000195622
-0.00230971
-0.000204278
-0.0022585
-0.000200942
-0.00220919
-0.000186153
-0.0021608
-0.000160263
-0.00211458
-0.000123969
-0.00206914
-7.75323e-05
-0.00202533
-2.16486e-05
-0.00198263
4.35494e-05
-0.00194153
0.000117619
-0.00190111
0.000200196
-0.00186221
0.000290929
-0.00182425
0.000389442
-0.00178749
0.000495442
-0.00175207
0.000608974
-0.00171792
0.000728987
-0.00168482
0.000856152
-0.00165333
0.000989937
-0.00162351
0.00113029
-0.00159557
0.00127742
-0.00156976
0.00143042
-0.00154586
0.00158967
-0.00152439
0.00175501
-0.00150667
0.00192491
-0.00149147
0.00210103
-0.00148066
0.00228211
-0.00147419
0.0024678
-0.00147222
0.00265726
-0.00147561
0.00284871
-0.00148375
-0.00149689
0.00304283
0.00121293
-0.00292583
-0.00144232
0.00100442
-0.00286718
0.000815904
-0.00281027
0.000646211
-0.00275515
0.000494369
-0.00270162
0.000360278
-0.0026501
0.000242074
-0.0025997
0.000139829
-0.00255101
5.27904e-05
-0.00250409
-1.99762e-05
-0.00245828
-7.90734e-05
-0.002414
-0.00012511
-0.00237075
-0.000158195
-0.00232916
-0.000179759
-0.00228815
-0.000189595
-0.00224866
-0.000188558
-0.00221023
-0.00017672
-0.00217264
-0.000155456
-0.00213584
-0.000124117
-0.00210048
-8.40713e-05
-0.00206538
-3.46877e-05
-0.00203201
2.2593e-05
-0.00199881
8.82641e-05
-0.00196678
0.00016134
-0.00193529
0.000242414
-0.00190533
0.000330239
-0.00187532
0.000425134
-0.00184696
0.000526485
-0.00181927
0.000634109
-0.00179244
0.000747975
-0.00176719
0.000867981
-0.00174351
0.000994184
-0.00172177
0.00112524
-0.00170082
0.00126226
-0.00168288
0.00140432
-0.00166645
0.00155144
-0.00165379
0.00170417
-0.0016442
0.00186094
-0.00163744
0.00202218
-0.00163543
0.00218726
-0.00163731
0.00235593
-0.00164427
0.00252719
-0.00165501
-0.00167024
0.00270054
0.00111685
-0.00271752
-0.00132516
0.000926836
-0.00267716
0.000754588
-0.00263802
0.000599178
-0.00259973
0.000460339
-0.00256278
0.000336601
-0.00252636
0.000228123
-0.00249122
0.000133787
-0.00245668
5.28727e-05
-0.00242318
-1.48986e-05
-0.00239051
-7.01158e-05
-0.00235879
-0.000113331
-0.00232754
-0.000145304
-0.00229719
-0.000166138
-0.00226731
-0.000176719
-0.00223808
-0.000177426
-0.00220952
-0.000168524
-0.00218154
-0.000150223
-0.00215415
-0.000123636
-0.00212707
-8.82484e-05
-0.00210077
-4.54357e-05
-0.00207482
5.57007e-06
-0.00204982
6.36839e-05
-0.00202489
0.000129411
-0.00200102
0.000201217
-0.00197713
0.000280059
-0.00195416
0.000365051
-0.00193196
0.000455782
-0.00191
0.000552722
-0.00188938
0.000655095
-0.00186957
0.000763008
-0.00185143
0.000875284
-0.00183405
0.000993679
-0.00181921
0.00111698
-0.00180618
0.00124474
-0.00179421
0.00137676
-0.00178581
0.00151337
-0.0017808
0.00165404
-0.00177811
0.00179796
-0.00177935
0.00194629
-0.00178563
0.00209744
-0.00179543
0.0022514
-0.00180897
-0.001827
0.00240817
0.00102682
-0.00252756
-0.00121678
0.000853315
-0.00250366
0.000695788
-0.00248049
0.000553651
-0.0024576
0.000426241
-0.00243537
0.000312901
-0.00241302
0.000213075
-0.00239139
0.000126071
-0.00236967
5.13609e-05
-0.00234847
-1.14485e-05
-0.0023277
-6.30667e-05
-0.00230717
-0.000103632
-0.00228697
-0.000134165
-0.00226666
-0.000154646
-0.00224683
-0.000165449
-0.00222728
-0.000167261
-0.00220771
-0.000160326
-0.00218848
-0.000145056
-0.00216942
-0.000121798
-0.00215033
-9.1025e-05
-0.00213154
-5.28344e-05
-0.00211301
-8.06224e-06
-0.00209459
4.40382e-05
-0.00207699
0.000102219
-0.0020592
0.000167067
-0.00204198
0.000237773
-0.00202487
0.000313909
-0.00200809
0.000395743
-0.00199184
0.000482891
-0.00197653
0.000574771
-0.00196145
0.000671647
-0.0019483
0.000773551
-0.00193595
0.000879289
-0.00192495
0.000990077
-0.00191697
0.00110601
-0.00191015
0.00122506
-0.00190486
0.00134737
-0.0019031
0.0014744
-0.00190515
0.00160466
-0.00190961
0.00173811
-0.00191908
0.00187486
-0.00193218
0.0020139
-0.001948
-0.00196835
0.00215524
0.000942843
-0.001116
-0.0023544
0.000784522
-0.00234533
0.00064067
-0.00233664
0.000510486
-0.00232741
0.000393573
-0.00231846
0.000289677
-0.00230912
0.000197817
-0.00229953
0.000117784
-0.00228964
4.89229e-05
-0.00227961
-9.57583e-06
-0.0022692
-5.74042e-05
-0.00225934
-9.57402e-05
-0.00224864
-0.000124308
-0.00223809
-0.000143725
-0.00222741
-0.000155188
-0.00221582
-0.000157794
-0.00220511
-0.000152671
-0.0021936
-0.000139697
-0.00218239
-0.00011922
-0.0021708
-9.20873e-05
-0.00215867
-5.82308e-05
-0.00214687
-1.80992e-05
-0.00213472
2.79451e-05
-0.00212304
8.04344e-05
-0.00211169
0.000138104
-0.00209965
0.000201693
-0.00208846
0.00027053
-0.00207693
0.000343927
-0.00206523
0.000422479
-0.00205508
0.000505506
-0.00204447
0.00059315
-0.00203595
0.00068484
-0.00202764
0.000780522
-0.00202063
0.000881093
-0.00201754
0.000984412
-0.00201346
0.00109255
-0.002013
0.00120393
-0.00201448
0.0013177
-0.00201892
0.00143422
-0.00202612
0.00155537
-0.00204023
0.00167841
-0.00205523
0.00180479
-0.00207438
0.00193228
-0.00209584
0.00587249
-0.000519761
0.000302321
0.00615483
-0.000633803
0.00035146
0.00642997
-0.000744157
0.000469019
0.00668733
-0.000847882
0.000590515
0.00693106
-0.000951336
0.000707612
0.00715707
-0.00104621
0.0008202
0.00736804
-0.00113875
0.000927773
0.00756178
-0.0012272
0.00103346
0.0077398
-0.0013138
0.00113578
0.00790254
-0.00139878
0.00123604
0.0080508
-0.00148121
0.00133295
0.00818642
-0.00156559
0.00142997
0.00830838
-0.00164766
0.00152571
0.00841901
-0.00173131
0.00162068
0.00851835
-0.00181678
0.00171743
0.0086073
-0.00190215
0.00181321
0.00868493
-0.00198956
0.00191192
0.00875171
-0.00207938
0.0020126
0.00880802
-0.00217134
0.00211503
0.00885263
-0.00226565
0.00222104
0.00888437
-0.00236326
0.00233152
0.00890435
-0.00246404
0.00244406
0.00890868
-0.00256684
0.00256252
0.00889918
-0.00267495
0.00268445
0.00887378
-0.00278583
0.00281123
0.00883088
-0.00290076
0.00294366
0.00876879
-0.00301919
0.00308128
0.00868735
-0.00314313
0.00322457
0.00858532
-0.00327111
0.00337314
0.0084614
-0.00340403
0.00352795
0.00831519
-0.00354279
0.003689
0.00814315
-0.00368515
0.0038572
0.00794597
-0.00383412
0.00403129
0.00772118
-0.00398846
0.00421326
0.00746857
-0.00414963
0.00440224
0.00718597
-0.00431618
0.00459878
0.00687182
-0.00448935
0.0048035
0.00652539
-0.0046702
0.00501663
0.00614472
-0.00485722
0.00523789
0.00572893
-0.00505266
0.00546845
0.00527545
-0.00525497
0.00570844
0.0047833
-0.00546616
0.00595832
-0.00568588
0.00621765
0.00425153
0.00499762
-0.000865502
0.00529575
-0.00093193
0.00555616
-0.00100456
0.00578834
-0.00108007
0.00599456
-0.00115755
0.0061835
-0.00123515
0.00635887
-0.00131411
0.00652373
-0.00139207
0.00667825
-0.00146832
0.0068242
-0.00154473
0.0069638
-0.00162081
0.00709523
-0.00169703
0.00722112
-0.00177355
0.00733753
-0.00184772
0.00744641
-0.00192567
0.00754619
-0.00200193
0.0076372
-0.00208056
0.00771786
-0.00216004
0.00778729
-0.00224077
0.00784571
-0.00232407
0.0078912
-0.00240875
0.00792285
-0.00249569
0.00794178
-0.00258578
0.00794391
-0.00267708
0.00793093
-0.00277285
0.00790152
-0.00287135
0.00785433
-0.002972
0.00778871
-0.00307751
0.00770315
-0.00318555
0.00759763
-0.00329851
0.00746941
-0.00341457
0.00731987
-0.00353561
0.00714625
-0.0036605
0.00694826
-0.00379046
0.00672401
-0.00392537
0.0064731
-0.00406528
0.00619367
-0.00420992
0.00588413
-0.00436065
0.00554431
-0.0045174
0.00517165
-0.00468
0.00476557
-0.00484888
0.00432426
-0.00502485
-0.00520756
0.00384593
0.00421114
-0.00111453
0.00444742
-0.00116821
0.00467158
-0.00122872
0.00488413
-0.00129262
0.00508642
-0.00135984
0.00527815
-0.00142688
0.00546054
-0.00149651
0.00563216
-0.00156369
0.00579657
-0.00163272
0.00595252
-0.00170068
0.00609928
-0.00176756
0.0062374
-0.00183515
0.00636536
-0.00190151
0.00648705
-0.00196941
0.00659717
-0.00203579
0.00669937
-0.00210413
0.00679073
-0.00217193
0.00687239
-0.00224169
0.00694384
-0.00231221
0.00700281
-0.00238303
0.00705009
-0.00245603
0.00708529
-0.00253089
0.00710672
-0.00260721
0.00711521
-0.00268557
0.00710856
-0.0027662
0.00708557
-0.00284837
0.00704782
-0.00293425
0.00699293
-0.00302262
0.00692009
-0.00311271
0.00682823
-0.00320665
0.00671752
-0.00330386
0.00658589
-0.00340398
0.00643323
-0.00350785
0.00625735
-0.00361458
0.00605829
-0.00372632
0.00583448
-0.00384146
0.00558499
-0.00396043
0.00530875
-0.00408441
0.0050045
-0.00421316
0.00467077
-0.00434627
0.00430675
-0.00448487
0.00391044
-0.00462854
-0.00477847
0.00348136
0.00367198
-0.00133198
0.00388369
-0.00137993
0.00408638
-0.00143141
0.00428012
-0.00148637
0.00446532
-0.00154504
0.00464268
-0.00160424
0.00481091
-0.00166474
0.00497247
-0.00172526
0.00512587
-0.00178612
0.0052711
-0.00184591
0.00540926
-0.00190573
0.00553911
-0.001965
0.00566209
-0.00202449
0.0057758
-0.00208312
0.00588272
-0.0021427
0.00597964
-0.00220105
0.00606825
-0.00226054
0.00614675
-0.00232019
0.00621479
-0.00238025
0.00627337
-0.00244161
0.00632064
-0.0025033
0.00635672
-0.00256698
0.00637954
-0.00263003
0.00639072
-0.00269675
0.00638796
-0.00276344
0.00637155
-0.00283196
0.00634026
-0.00290296
0.0062929
-0.00297526
0.0062305
-0.00305031
0.00615042
-0.00312657
0.00605205
-0.00320549
0.00593516
-0.00328709
0.00579914
-0.00337183
0.005643
-0.00345843
0.00546494
-0.00354827
0.00526412
-0.00364064
0.00504088
-0.00373719
0.00479285
-0.00383638
0.00451972
-0.00394003
0.00422045
-0.004047
0.00389336
-0.00415778
0.00353741
-0.00427259
-0.00439152
0.00315046
0.0032354
-0.00152455
0.00342224
-0.00156677
0.00360413
-0.0016133
0.00377984
-0.00166208
0.00394904
-0.00171424
0.00411182
-0.00176702
0.00426752
-0.00182044
0.00441756
-0.00187529
0.00455955
-0.00192812
0.00469525
-0.00198161
0.00482441
-0.00203489
0.00494637
-0.00208696
0.00506065
-0.00213877
0.00516805
-0.00219051
0.00526698
-0.00224163
0.0053589
-0.00229297
0.00544188
-0.00234352
0.00551599
-0.00239429
0.00558131
-0.00244557
0.00563677
-0.00249707
0.00568209
-0.00254863
0.00571675
-0.00260163
0.0057409
-0.00265419
0.00575266
-0.00270851
0.00575239
-0.00276317
0.00573993
-0.00281949
0.0057129
-0.00287593
0.00567274
-0.00293509
0.00561688
-0.00299446
0.00554611
-0.0030558
0.00545926
-0.00311865
0.00535518
-0.00318301
0.00523329
-0.00324994
0.00509317
-0.00331831
0.0049333
-0.0033884
0.00475368
-0.00346101
0.00455317
-0.00353669
0.00433064
-0.00361385
0.00408472
-0.00369411
0.00381484
-0.00377712
0.00352028
-0.00386321
0.00319983
-0.00395215
-0.00404402
0.00285232
0.00287318
-0.00169719
0.00304178
-0.00173537
0.00320577
-0.00177729
0.00336513
-0.00182144
0.0035193
-0.0018684
0.00366792
-0.00191564
0.00381156
-0.00196408
0.00394755
-0.00201128
0.00407903
-0.0020596
0.00420419
-0.00210677
0.0043223
-0.002153
0.00443458
-0.00219924
0.00454102
-0.00224521
0.00464076
-0.00229026
0.00473273
-0.0023336
0.0048175
-0.00237774
0.00489419
-0.00242021
0.00496385
-0.00246395
0.00502426
-0.00250598
0.00507625
-0.00254906
0.00511918
-0.00259156
0.00515185
-0.00263431
0.00517501
-0.00267735
0.00518727
-0.00272076
0.00518834
-0.00276424
0.0051777
-0.00280886
0.00515562
-0.00285385
0.00511958
-0.00289905
0.0050705
-0.00294538
0.00500765
-0.00299295
0.00492937
-0.00304037
0.00483689
-0.00309053
0.0047275
-0.00314055
0.00460121
-0.00319202
0.00445782
-0.00324501
0.00429608
-0.00329928
0.00411525
-0.00335586
0.00391445
-0.00341305
0.00369329
-0.00347294
0.00345061
-0.00353444
0.00318491
-0.00359751
0.00289546
-0.0036627
-0.00373041
0.00258186
0.00256357
-0.0018526
0.00271589
-0.00188769
0.00286469
-0.00192609
0.00300925
-0.00196601
0.00314954
-0.00200869
0.00328528
-0.00205138
0.00341521
-0.002094
0.00354041
-0.00213648
0.00366032
-0.00217951
0.00377471
-0.00222117
0.00388354
-0.00226182
0.00398763
-0.00230333
0.0040847
-0.00234228
0.00417568
-0.00238125
0.00426101
-0.00241893
0.00433879
-0.00245552
0.00441067
-0.00249209
0.00447406
-0.00252734
0.00453098
-0.0025629
0.00457871
-0.00259679
0.00461888
-0.00263173
0.00464978
-0.0026652
0.0046721
-0.00269967
0.0046834
-0.00273206
0.004686
-0.00276684
0.00467724
-0.00280009
0.00465712
-0.00283373
0.00462588
-0.00286781
0.00458211
-0.0029016
0.00452538
-0.00293622
0.00445567
-0.00297065
0.00437147
-0.00300633
0.00427293
-0.00304201
0.00415985
-0.00307894
0.00403053
-0.00311568
0.00388477
-0.00315352
0.00372141
-0.0031925
0.00354131
-0.00323295
0.00334136
-0.00327299
0.00312175
-0.00331483
0.00288229
-0.00335806
0.00262131
-0.00340172
-0.00344719
0.00233809
0.00229616
-0.00199351
0.00243425
-0.00202578
0.00256926
-0.00206109
0.00270127
-0.00209802
0.00282752
-0.00213494
0.00295147
-0.00217533
0.00306989
-0.00221243
0.00318386
-0.00225045
0.00329309
-0.00228873
0.00339758
-0.00232566
0.00349758
-0.00236181
0.00359229
-0.00239804
0.00368217
-0.00243216
0.0037653
-0.00246438
0.00384331
-0.00249694
0.00391518
-0.00252738
0.00398043
-0.00255733
0.00403922
-0.00258614
0.00409067
-0.00261434
0.00413575
-0.00264188
0.00417274
-0.00266871
0.0042015
-0.00269396
0.00422157
-0.00271975
0.0042338
-0.00274429
0.00423604
-0.00276908
0.00422824
-0.00279229
0.00421107
-0.00281656
0.00418283
-0.00283957
0.00414385
-0.00286262
0.00409266
-0.00288504
0.00403015
-0.00290814
0.00395471
-0.00293089
0.0038662
-0.0029535
0.0037633
-0.00297604
0.00364664
-0.00299903
0.0035152
-0.00302208
0.0033684
-0.0030457
0.00320444
-0.00306899
0.00302433
-0.00309287
0.00282627
-0.00311677
0.00260963
-0.00314141
0.00237397
-0.00316606
-0.00319153
0.00211831
0.00206131
-0.00212254
0.00218765
-0.00215212
0.0023099
-0.00218335
0.00243023
-0.00221834
0.00254538
-0.00225009
0.00265804
-0.00228799
0.002766
-0.00232038
0.00286985
-0.0023543
0.00296959
-0.00238848
0.00306486
-0.00242093
0.00315804
-0.00245499
0.00324463
-0.00248464
0.00332545
-0.00251298
0.00340257
-0.0025415
0.00347326
-0.00256764
0.00353953
-0.00259365
0.00359956
-0.00261736
0.00365257
-0.00263915
0.00370063
-0.00266241
0.00374225
-0.0026835
0.00377576
-0.00270222
0.0038022
-0.0027204
0.00382044
-0.00273799
0.00383175
-0.0027556
0.00383436
-0.00277169
0.00382843
-0.00278636
0.00381291
-0.00280104
0.00378702
-0.00281368
0.00375106
-0.00282667
0.00370547
-0.00283945
0.00364848
-0.00285115
0.00358044
-0.00286285
0.00349956
-0.00287261
0.00340696
-0.00288344
0.0033016
-0.00289367
0.00318238
-0.00290286
0.00304926
-0.00291259
0.0029018
-0.00292153
0.00273804
-0.00292911
0.00255911
-0.00293784
0.00236305
-0.00294536
0.00215052
-0.00295353
0.00191912
-0.00296014
-5.01499e-05
0.00617113
-0.00672086
0.000599878
0.000455886
0.00595428
-0.00646031
0.000922707
0.00574337
-0.00621019
0.00135187
0.00554097
-0.00597014
0.00174601
0.00534629
-0.00574043
0.00210476
0.0051579
-0.00551665
0.00242823
0.0049795
-0.00530296
0.00271803
0.00480715
-0.00509695
0.00297866
0.00463863
-0.00489924
0.00320965
0.00447608
-0.00470707
0.00340685
0.0043235
-0.0045207
0.00357856
0.00417238
-0.0043441
0.00372447
0.00402704
-0.00417294
0.00384035
0.00388922
-0.00400511
0.00393208
0.00375114
-0.00384287
0.00399745
0.00362218
-0.00368755
0.00404045
0.00349436
-0.00353736
0.00405656
0.00337193
-0.00338804
0.00405004
0.00325221
-0.00324569
0.00402282
0.00313351
-0.00310629
0.00397315
0.00301951
-0.00296984
0.0039025
0.00290815
-0.00283751
0.00381324
0.00279801
-0.00270876
0.0037039
0.00269139
-0.00258205
0.00357725
0.0025861
-0.00245945
0.00343399
0.00248253
-0.00233927
0.00327476
0.00238106
-0.00222183
0.00310164
0.00228112
-0.00210801
0.00291569
0.00218273
-0.00199678
0.00271841
0.0020855
-0.00188822
0.0025112
0.00198979
-0.00178257
0.00229573
0.00189505
-0.00167958
0.00207356
0.00180191
-0.00157974
0.0018465
0.00170878
-0.00148172
0.00161627
0.0016166
-0.00138638
0.00138456
0.00152462
-0.00129291
0.0011537
0.00143183
-0.00120096
0.000925674
0.00133779
-0.00110977
0.00070325
0.00124094
-0.00101851
0.0004893
0.00113899
-0.00092504
0.000289925
0.00102509
-0.000825716
0.000118741
0.000881813
-0.000710629
0.000653585
-6.51834e-06
-0.00052833
-5.18565e-05
0.00567364
0.00054935
0.000408456
0.00549397
0.000833395
0.00531844
0.00122139
0.00515298
0.0015782
0.00498949
0.0018999
0.0048362
0.00219425
0.00468515
0.00245764
0.00454376
0.00269391
0.00440236
0.00290082
0.00426918
0.00308268
0.00414164
0.00323721
0.00401784
0.00336836
0.00389588
0.00347585
0.00378173
0.00355807
0.00366891
0.00361855
0.00356169
0.00365696
0.00345594
0.0036757
0.00335319
0.00367427
0.00325364
0.00365078
0.003157
0.00360896
0.00306133
0.003549
0.00296811
0.00347137
0.00287565
0.00337542
0.00278734
0.00326352
0.002698
0.00313581
0.00261023
0.00299388
0.002523
0.00283863
0.00243637
0.00267092
0.00235045
0.00249183
0.00226459
0.00230298
0.00217864
0.00210534
0.00209268
0.00190128
0.00200597
0.00169137
0.0019187
0.00147752
0.00183044
0.00126204
0.00174011
0.00104618
0.00164769
0.000832447
0.00155152
0.000623705
0.00144968
0.000423718
0.00133898
0.0002395
0.00120931
8.70424e-05
0.00103427
0.000765244
-2.46178e-05
-5.03575e-05
0.00522343
0.000500571
0.000364792
0.00507882
0.00074899
0.00493424
0.0011021
0.00479988
0.00142411
0.00466749
0.00171703
0.00454328
0.00198336
0.00441883
0.00222258
0.00430453
0.00243467
0.00419027
0.00262211
0.00408173
0.00278655
0.0039772
0.00292776
0.00387663
0.00304602
0.00377761
0.00314312
0.00368463
0.00321912
0.0035929
0.00327577
0.00350503
0.00331313
0.00341858
0.0033309
0.00333541
0.00332916
0.00325539
0.00331177
0.00317438
0.0032747
0.00309839
0.00322168
0.00302113
0.00315093
0.0029464
0.0030676
0.00287067
0.00296829
0.00279732
0.00285454
0.00272399
0.0027276
0.00264993
0.00258767
0.00257631
0.00243634
0.00250179
0.00227421
0.00242672
0.00210233
0.00235052
0.00192227
0.00227274
0.00173477
0.00219348
0.00154182
0.00211164
0.00134476
0.0020275
0.00114482
0.00194005
0.000944647
0.00184786
0.00074577
0.0017504
0.000551232
0.00164422
0.000365182
0.00152503
0.000195693
0.0013788
5.91731e-05
0.00117079
0.000869145
-4.4729e-05
-4.97829e-05
0.0048161
0.000457114
0.00032857
0.00470047
0.000676045
0.00458677
0.000994829
0.0044811
0.00128664
0.00437568
0.00155381
0.00427611
0.00179398
0.00417865
0.00201135
0.00408716
0.00220403
0.00399758
0.00237387
0.00391189
0.00252285
0.00382821
0.00265094
0.00374853
0.00275625
0.0036723
0.00284477
0.00359611
0.00291425
0.00352341
0.00296481
0.00345447
0.00299837
0.00338501
0.00301466
0.00331912
0.00301377
0.00325628
0.0029976
0.00319056
0.00296606
0.00312993
0.0029209
0.0030663
0.0028585
0.0030088
0.00278322
0.00294596
0.00269471
0.00288583
0.00259326
0.00282544
0.00247906
0.00276413
0.00235353
0.00270185
0.00221681
0.0026385
0.00207031
0.00257322
0.00191478
0.00250605
0.00175106
0.00243647
0.00158014
0.0023644
0.00140351
0.00228827
0.00122264
0.00220837
0.00103916
0.00212353
0.000854421
0.0020326
0.00067098
0.00193384
0.000491479
0.00182372
0.00032014
0.00169637
0.00016577
0.00153317
4.42271e-05
0.00129233
0.000966523
-5.31501e-05
-4.71647e-05
0.00444515
0.000418118
0.000295205
0.0043581
0.000608653
0.00427332
0.000899238
0.00419051
0.00116539
0.00410953
0.00140665
0.00403485
0.00162333
0.00396197
0.00181931
0.00389118
0.00199254
0.00382434
0.00214908
0.00375535
0.002283
0.00369428
0.00239849
0.00363303
0.00249704
0.00357374
0.00257693
0.00351622
0.00263811
0.00346222
0.0026864
0.00340618
0.00271589
0.00335553
0.00273068
0.00330432
0.00273236
0.0032546
0.00271685
0.00320607
0.0026904
0.00315639
0.002647
0.0031097
0.00259415
0.00306166
0.00252608
0.00301403
0.00244714
0.00296478
0.0023552
0.00291738
0.00225292
0.00286642
0.0021397
0.00281507
0.00201657
0.00276163
0.00188407
0.00270572
0.00174302
0.0026471
0.00159418
0.0025853
0.00143897
0.00251962
0.00127801
0.00244923
0.00111267
0.00237371
0.000944316
0.00229188
0.000774926
0.00220199
0.000606612
0.00210215
0.00044139
0.00198894
0.00028428
0.00185348
0.000144285
0.00167317
3.54049e-05
0.00140121
0.00105758
-5.56545e-05
-4.65551e-05
0.00411005
0.000381653
0.000263755
0.00404779
0.000551554
0.00398552
0.000814821
0.00392724
0.00105327
0.00387108
0.00127108
0.00381703
0.00146839
0.00376465
0.00164724
0.00371233
0.00180745
0.00366412
0.00194514
0.00361765
0.00206619
0.00357322
0.00217276
0.00352646
0.0022608
0.0034857
0.00233213
0.00344488
0.00239089
0.00340346
0.00243121
0.00336587
0.00246072
0.00332603
0.00247336
0.00329169
0.00247557
0.00325239
0.0024628
0.00321885
0.00243712
0.00318207
0.00240046
0.00314636
0.00235295
0.00310918
0.00229221
0.00307477
0.00222056
0.00303643
0.00213801
0.00299992
0.00204638
0.00295805
0.0019446
0.00291685
0.00183349
0.00287275
0.00171351
0.00282569
0.00158582
0.00277479
0.00145104
0.00272008
0.00130991
0.00266075
0.00116298
0.00259616
0.00101221
0.00252447
0.000858561
0.00244553
0.000703509
0.00235704
0.000549013
0.00225665
0.000397818
0.00214013
0.000254276
0.00199702
0.000127719
0.00179972
2.94464e-05
0.00149949
0.00114282
-5.57915e-05
-4.46326e-05
0.00380645
0.00034823
0.000238358
0.0037648
0.000496709
0.00372717
0.000734313
0.00368963
0.00095163
0.00365375
0.00115052
0.00361813
0.00133069
0.00358447
0.00149243
0.00355059
0.00163589
0.00352066
0.00176262
0.00349092
0.0018751
0.00346073
0.00196898
0.00343257
0.00204843
0.00340625
0.00211544
0.00337788
0.00216595
0.00335295
0.00220579
0.00332603
0.00222925
0.00330257
0.00224429
0.00327665
0.00224437
0.00325232
0.00223411
0.00322911
0.00221094
0.00320524
0.0021791
0.0031782
0.00213227
0.00315602
0.00207868
0.00312836
0.00201435
0.00310077
0.00194279
0.00307148
0.00185852
0.00304233
0.00176648
0.00300889
0.00166602
0.00297321
0.00155762
0.00293409
0.00144206
0.00289035
0.00131977
0.00284237
0.00119139
0.00278913
0.00105834
0.00272921
0.000921035
0.00266177
0.000780642
0.00258592
0.000638853
0.00249883
0.000497569
0.00239793
0.000359306
0.0022784
0.000229026
0.0021273
0.000114922
0.00191383
2.52492e-05
0.00158916
0.00122338
-5.53094e-05
-4.16016e-05
0.00353026
0.000317792
0.000213969
0.00350923
0.000449109
0.00349203
0.000665984
0.00347276
0.000864061
0.00345567
0.00104389
0.0034383
0.00120735
0.00342102
0.00135229
0.00340565
0.00148271
0.00339023
0.00159703
0.0033766
0.0016967
0.00336107
0.00178416
0.00334511
0.00185709
0.00333332
0.0019158
0.00331918
0.00196393
0.00330482
0.00199778
0.00329218
0.00202318
0.00327717
0.0020339
0.00326594
0.00203441
0.00325182
0.00202421
0.00323931
0.00200554
0.00322391
0.001974
0.00320974
0.00193584
0.00319418
0.00188712
0.00317708
0.00182944
0.00315844
0.00176131
0.00313961
0.00168701
0.00311662
0.00160438
0.00309152
0.00151318
0.00306441
0.00141512
0.00303215
0.00131024
0.00299523
0.00119913
0.00295348
0.00108306
0.0029052
0.00096207
0.0028502
0.000837082
0.00278676
0.000710127
0.00271288
0.000580521
0.00262843
0.000451141
0.00252731
0.000325141
0.0024044
0.000206229
0.00224621
0.000103733
0.00201632
2.27916e-05
0.0016701
0.00129901
-5.28341e-05
-3.79482e-05
0.003277
0.000291208
0.000192725
0.00327856
0.000406991
0.00327776
0.000602542
0.0032772
0.000781956
0.00327626
0.000945026
0.00327522
0.00109157
0.00327447
0.00122397
0.00327324
0.00134396
0.00327024
0.0014494
0.00327115
0.00154083
0.00326964
0.00161761
0.00326834
0.00168421
0.00326672
0.00173867
0.00326472
0.00178062
0.00326288
0.00181414
0.00325866
0.00183352
0.0032578
0.00184442
0.00325503
0.0018446
0.00325164
0.00183673
0.00324718
0.00181823
0.00324242
0.00179122
0.00323675
0.00175558
0.00322982
0.00171318
0.00321949
0.00166037
0.00321125
0.00160108
0.0031989
0.001533
0.0031847
0.00145735
0.00316717
0.00137517
0.00314659
0.0012855
0.00312182
0.00119019
0.00309054
0.00109031
0.00305336
0.000985241
0.00301026
0.000875543
0.00295989
0.000762162
0.00290014
0.000645362
0.00282968
0.000526569
0.00274722
0.000408356
0.00264552
0.000293896
0.00251885
0.000187852
0.00235225
9.90789e-05
0.00210509
2.33823e-05
0.0017458
-5.36176e-05
0.00137601
-0.000167489
0.000385708
-0.000224736
-0.000260634
0.000345719
-0.000252573
-0.000341337
0.000355535
-0.000274831
-0.00041976
0.000374178
-0.000295755
-0.000498207
0.000394605
-0.000316158
-0.000576997
0.00041557
-0.000336779
-0.000656086
0.000437137
-0.000358049
-0.000735319
0.000459399
-0.000380165
-0.000814445
0.000482456
-0.00040333
-0.000893309
0.00050654
-0.000427676
-0.000971702
0.000531714
-0.00045332
-0.0010495
0.000558133
-0.000480336
-0.00112636
0.00058586
-0.000509
-0.00120204
0.000614962
-0.000539281
-0.00127647
0.000645682
-0.000571251
-0.00134923
0.000678047
-0.000605289
-0.00142018
0.000712149
-0.000641196
-0.00148887
0.000748137
-0.000679444
-0.0015551
0.000786211
-0.000719987
-0.00161857
0.000826417
-0.000762947
-0.00167869
0.000868866
-0.000808744
-0.00173534
0.000913924
-0.000857278
-0.00178787
0.000961503
-0.000908964
-0.00183598
0.00101194