/*--------------------------------*- C++ -*----------------------------------*\
| =========                 |                                                 |
| \\      /  F ield         | OpenFOAM: The Open Source CFD Toolbox           |
|  \\    /   O peration     | Version:  2.3.0                                 |
|   \\  /    A nd           | Web:      www.OpenFOAM.org                      |
|    \\/     M anipulation  |                                                 |
\*---------------------------------------------------------------------------*/
FoamFile
{
    version     2.0;
    format      ascii;
    class       volScalarField;
    location    "5000";
    object      nut;
}
// * * * * * * * * * * * * * * * * * * * * * * * * * * * * * * * * * * * * * //

dimensions      [0 2 -1 0 0 0 0];

internalField   nonuniform List<scalar> 
6748
(
0.0586037
0.0527566
0.0475575
0.0431815
0.0397192
0.0370773
0.03455
0.0319795
0.0293903
0.0267497
0.0240824
0.0218657
0.0659979
0.0617658
0.0580515
0.0548422
0.0521578
0.0500096
0.0483785
0.0472208
0.0464848
0.0461077
0.0460337
0.0462104
0.0722373
0.0691976
0.0665897
0.0643946
0.0625989
0.0611845
0.0601245
0.0593854
0.0589302
0.058721
0.0587199
0.0588917
0.0774952
0.0752657
0.0733825
0.0718115
0.0705325
0.0695251
0.0687676
0.068237
0.0679105
0.067765
0.0677791
0.0679316
0.0818609
0.0802055
0.0788028
0.077629
0.0766675
0.0759037
0.0753231
0.0749122
0.0746579
0.074547
0.0745672
0.0747057
0.0855048
0.0842464
0.0831696
0.0822591
0.0815044
0.0808971
0.080429
0.080093
0.0798829
0.079792
0.0798135
0.0799401
0.0885573
0.0875759
0.0867264
0.0859974
0.0853836
0.0848826
0.084491
0.0842056
0.0840245
0.0839461
0.0839678
0.0840852
0.091122
0.0903412
0.0896566
0.0890583
0.0885428
0.088117
0.0877809
0.0875321
0.0873709
0.0872998
0.0873208
0.0874314
0.0932902
0.0926562
0.0920944
0.0915997
0.0911498
0.0907784
0.0904849
0.0902659
0.090119
0.0900495
0.0900686
0.0901747
0.0951428
0.0946124
0.0941379
0.0937408
0.0933245
0.092993
0.0927332
0.0925417
0.0924094
0.0923325
0.0923477
0.0924502
0.0233759
0.0271987
0.0296177
0.0321096
0.0351082
0.038726
0.0429523
0.0477313
0.0529935
0.058663
0.064658
0.0709183
0.046555
0.0471094
0.0479944
0.0492674
0.0509764
0.0531566
0.0558262
0.058982
0.0626003
0.066641
0.0710545
0.0758192
0.0591952
0.0596543
0.0603317
0.061259
0.0624666
0.0639828
0.0658317
0.0680291
0.0705813
0.0734845
0.0767279
0.0803383
0.0682008
0.0686
0.0691629
0.069908
0.0708526
0.072014
0.0734088
0.0750506
0.0769501
0.0791141
0.0815497
0.084305
0.0749493
0.0753062
0.0757955
0.0764271
0.0772102
0.0781539
0.0792675
0.0805592
0.0820364
0.0837059
0.085578
0.0877023
0.0801634
0.0804882
0.0809252
0.081479
0.0821538
0.0829532
0.0838807
0.0849395
0.0861325
0.0874627
0.0889347
0.0905704
0.0842928
0.0845928
0.0849909
0.0854884
0.086086
0.0867837
0.0875812
0.0884777
0.0894718
0.090563
0.0917545
0.0930667
0.087627
0.0879076
0.0882757
0.0887305
0.0892705
0.0898937
0.0905971
0.0913765
0.0922269
0.0931435
0.0941251
0.0951831
0.0903621
0.0906262
0.0909709
0.0913924
0.0918874
0.0924541
0.0930876
0.09378
0.0945235
0.0953113
0.0961353
0.0970054
0.0926342
0.0928789
0.0932047
0.093599
0.0940563
0.0945782
0.0951588
0.0957811
0.0964385
0.0971294
0.0978607
0.098574
0.0648737
0.0535129
0.044425
0.0371936
0.0313355
0.0264416
0.0224394
0.0196495
0.0172513
0.0147409
0.0119583
0.00870918
0.0673442
0.057937
0.0507888
0.0454731
0.041765
0.038652
0.0354307
0.0320284
0.0284411
0.0246124
0.0204582
0.0158766
0.0701891
0.0627592
0.0574289
0.0539283
0.0507839
0.0475404
0.0440692
0.0402979
0.0361772
0.0316627
0.026708
0.0212676
0.0732615
0.0675295
0.0637612
0.0606435
0.0574849
0.0541056
0.0504181
0.046359
0.0418725
0.0369055
0.0314038
0.0253182
0.076365
0.0719588
0.0688781
0.0658648
0.0626773
0.0592026
0.0553629
0.0510923
0.0463283
0.0410066
0.0350617
0.0284285
0.0793361
0.0759773
0.0730383
0.0700502
0.0668384
0.0632987
0.0593503
0.0549197
0.0499334
0.0443162
0.0379897
0.030875
0.0820573
0.0792021
0.0764043
0.0734578
0.0702421
0.0666625
0.062635
0.0580786
0.0529095
0.0470401
0.0403789
0.0328359
0.0845919
0.0819026
0.0791848
0.0762776
0.0730697
0.0694662
0.0653794
0.0607219
0.0554001
0.0493142
0.0423592
0.0344349
0.0866809
0.0841356
0.0814958
0.078634
0.0754443
0.0718294
0.0676956
0.0629532
0.0575032
0.0512384
0.0440371
0.0357786
0.0884117
0.0859811
0.0834207
0.0806133
0.0774523
0.0738386
0.0696647
0.0648413
0.059276
0.0528814
0.0455191
0.0370177
0.00490647
0.00200251
0.00185096
0.00243907
0.00315595
0.00418804
0.00574294
0.00773912
0.0102401
0.0133245
0.0170708
0.0215572
0.0106308
0.00509331
0.00258537
0.00302179
0.00393344
0.00517093
0.00682564
0.00885914
0.011323
0.0142784
0.0177899
0.0219212
0.0151353
0.00828439
0.00372538
0.00370776
0.00481381
0.00621797
0.00796321
0.0100248
0.0124437
0.0152648
0.0185383
0.022312
0.0184639
0.0108082
0.00499405
0.00446306
0.00572584
0.00726386
0.00908386
0.011164
0.0135329
0.0162257
0.0192991
0.0228909
0.0209472
0.0126771
0.00616921
0.00525076
0.00662872
0.00827602
0.010156
0.0122467
0.0145676
0.0171524
0.0200604
0.0233704
0.0228389
0.0140649
0.00717671
0.00603547
0.00749734
0.00923692
0.0111661
0.0132625
0.0155411
0.0180326
0.0207784
0.0238013
0.0243067
0.0151126
0.00802051
0.0067886
0.00831482
0.0101379
0.0121085
0.0142088
0.0164506
0.0188549
0.0214409
0.0242043
0.0254661
0.0159192
0.00873182
0.00749917
0.00908383
0.010976
0.012982
0.0150855
0.0172927
0.0196126
0.0220468
0.0245831
0.0264148
0.0165499
0.00932654
0.0081588
0.00980074
0.011755
0.0137929
0.0158959
0.0180672
0.0203055
0.0226003
0.0249395
0.0273932
0.0173928
0.00998123
0.00878399
0.0104836
0.0124593
0.0144847
0.0165912
0.0187579
0.0209251
0.0230825
0.0252492
0.00109634
0.00381006
0.00811861
0.0129326
0.0178071
0.0225838
0.0271474
0.031467
0.0358037
0.0403724
0.045325
0.0516821
0.000741124
0.00246354
0.00614392
0.00987987
0.0137687
0.0179207
0.022289
0.0267727
0.0313192
0.0359804
0.0409095
0.0466101
0.000432362
0.00162873
0.00412928
0.00790664
0.0124494
0.0167566
0.0209436
0.0250925
0.029265
0.0335542
0.0381357
0.0433562
0.000526411
0.00134826
0.00340817
0.00655761
0.0110631
0.0158433
0.0204878
0.0248718
0.0289529
0.0328398
0.0368236
0.041365
0.000492658
0.00120155
0.00303061
0.00580712
0.00984885
0.0148653
0.0199173
0.0247789
0.0292464
0.0331862
0.0367618
0.0405518
0.000485733
0.00109394
0.0027625
0.0052896
0.00896726
0.0139302
0.01926
0.0245285
0.029497
0.0338665
0.0374868
0.0407566
0.000473798
0.00101804
0.00257362
0.00492479
0.00833977
0.013095
0.0185863
0.0241652
0.0295646
0.0344613
0.0384886
0.0416506
0.000468674
0.000963652
0.00243252
0.00465289
0.00787444
0.0123964
0.0179418
0.023758
0.0295097
0.0348908
0.0394743
0.042972
0.000465628
0.000925262
0.00232699
0.00444802
0.00752054
0.0118408
0.0173692
0.0233654
0.0294075
0.0352023
0.0403332
0.0443335
0.000465461
0.000898059
0.00225093
0.00429841
0.00725893
0.0114205
0.0168947
0.0230309
0.0293217
0.0354682
0.0410832
0.0456501
0.000466979
0.000879249
0.00219724
0.00419128
0.00706877
0.011109
0.0165175
0.022768
0.0292794
0.0357268
0.0417459
0.046796
0.000469696
0.000866384
0.00215985
0.00411533
0.0069315
0.0108793
0.0162218
0.0225724
0.0292903
0.0360054
0.0423648
0.0478251
0.000472853
0.000857376
0.0021335
0.00406114
0.00683205
0.0107094
0.0159891
0.0224319
0.0293568
0.0363341
0.0430122
0.0488707
0.00047583
0.000850307
0.0021131
0.00401901
0.00675462
0.0105766
0.0157967
0.0223172
0.0294465
0.0366874
0.0436776
0.0499073
0.000478356
0.00084408
0.00209528
0.00398222
0.006687
0.0104603
0.0156195
0.0221902
0.0295029
0.0369884
0.0442575
0.050793
0.000480411
0.000838475
0.00207956
0.00394994
0.00662797
0.0103592
0.0154617
0.0220628
0.0295462
0.0372746
0.0448362
0.051754
0.000481892
0.000832996
0.00206455
0.00391951
0.00657294
0.0102657
0.0153136
0.021924
0.0295601
0.0375177
0.0453398
0.0525309
0.000482773
0.000827471
0.00204972
0.00388977
0.00651988
0.010177
0.0151737
0.0217771
0.0295553
0.0377484
0.045856
0.0534044
0.000482989
0.000821637
0.00203417
0.0038588
0.00646493
0.0100855
0.0150285
0.0216009
0.0294928
0.0379061
0.0462786
0.054109
0.000482606
0.000815607
0.00201815
0.00382722
0.00640942
0.00999402
0.0148844
0.021411
0.0293866
0.0380062
0.0466513
0.0548283
0.000481681
0.000809346
0.00200134
0.00379438
0.00635219
0.00990043
0.0147376
0.0212068
0.0292291
0.038019
0.0468988
0.0553491
0.000480404
0.000803172
0.00198471
0.00376226
0.00629679
0.00981086
0.0145987
0.0210108
0.0290604
0.038002
0.0471125
0.0558712
0.000478905
0.000796891
0.00196801
0.00373023
0.006242
0.00972309
0.0144638
0.0208183
0.0288766
0.0379448
0.0472529
0.0562433
0.00047727
0.000790764
0.00195174
0.00369898
0.00618869
0.00963817
0.0143344
0.0206334
0.0286911
0.0378765
0.0473834
0.0566408
0.000475524
0.000784825
0.00193592
0.00366846
0.00613641
0.00955471
0.0142071
0.02045
0.0284945
0.0377834
0.0474771
0.0569702
0.000473724
0.000779221
0.00192096
0.00363935
0.00608613
0.00947374
0.0140826
0.0202678
0.0282841
0.0376574
0.0475244
0.0572412
0.000471925
0.000774057
0.00190715
0.00361239
0.00603933
0.00939788
0.0139651
0.0200938
0.0280718
0.0375112
0.0475393
0.0574747
0.000470142
0.000769333
0.0018946
0.00358796
0.00599686
0.00932901
0.0138579
0.019934
0.0278703
0.0373616
0.0475409
0.0576957
0.000468371
0.000764963
0.00188313
0.00356582
0.0059587
0.00926732
0.0137624
0.0197911
0.0276855
0.0372165
0.0475323
0.0578908
0.000466617
0.000760883
0.0018725
0.00354539
0.00592389
0.00921181
0.0136774
0.0196654
0.0275228
0.0370867
0.0475262
0.0580755
0.000464886
0.000757009
0.00186243
0.00352606
0.00589104
0.00915981
0.0135986
0.0195504
0.0273742
0.0369647
0.0475058
0.0581972
0.000463149
0.000753422
0.00185301
0.00350777
0.00585976
0.00911029
0.0135241
0.0194436
0.0272416
0.0368732
0.0475411
0.0584334
0.00046135
0.000750033
0.00184409
0.00349023
0.00582925
0.00906087
0.0134478
0.0193305
0.0270922
0.0367522
0.0475389
0.0586017
0.000459471
0.00074679
0.00183562
0.0034736
0.00580037
0.00901377
0.013374
0.0192178
0.0269326
0.0365934
0.0474659
0.0586451
0.00045752
0.000743596
0.00182741
0.00345761
0.00577281
0.00896941
0.0133054
0.0191146
0.0267881
0.0364487
0.0474084
0.0587388
0.000455506
0.00074051
0.00181949
0.00344218
0.00574636
0.00892723
0.0132412
0.0190201
0.026659
0.0363261
0.047381
0.0588859
0.000453412
0.000737525
0.00181177
0.00342694
0.00572002
0.00888498
0.0131767
0.0189256
0.0265309
0.0362056
0.0473636
0.0590602
0.000451249
0.000734642
0.00180434
0.00341218
0.00569417
0.00884287
0.0131111
0.0188262
0.0263872
0.0360416
0.047255
0.0590414
0.000449029
0.000731967
0.00179742
0.00339831
0.00566991
0.00880349
0.01305
0.0187345
0.0262562
0.0358943
0.0471746
0.0591102
0.000446756
0.000729444
0.00179088
0.00338509
0.00564659
0.00876536
0.0129906
0.018645
0.0261279
0.0357452
0.0470792
0.0591255
0.000444439
0.00072718
0.00178499
0.00337307
0.00562512
0.00872988
0.0129348
0.0185603
0.0260054
0.0356002
0.0469899
0.0591793
0.00044206
0.000725099
0.0017797
0.00336223
0.00560564
0.00869731
0.0128828
0.01848
0.0258862
0.0354501
0.0468743
0.059168
0.000439667
0.000723185
0.00177503
0.00335276
0.00558877
0.00866921
0.0128379
0.0184101
0.0257816
0.0353158
0.0467654
0.0591508
0.000437252
0.000721377
0.00177066
0.00334408
0.00557371
0.00864476
0.0127995
0.0183513
0.0256944
0.0352062
0.0466818
0.0591446
0.00043474
0.000719487
0.00176622
0.00333541
0.00555904
0.00862165
0.0127647
0.0182998
0.025621
0.0351212
0.0466397
0.0591969
0.000432088
0.000717464
0.00176137
0.00332586
0.00554289
0.00859653
0.0127274
0.0182464
0.0255481
0.0350425
0.0466254
0.0593281
0.000429285
0.000715294
0.00175607
0.00331518
0.0055245
0.00856735
0.0126834
0.0181822
0.0254571
0.0349306
0.0465542
0.0593691
0.000426366
0.000713164
0.00175068
0.00330402
0.00550475
0.00853544
0.0126345
0.01811
0.0253539
0.0347993
0.0464526
0.0593573
0.000423388
0.000711278
0.00174577
0.00329334
0.00548514
0.00850257
0.0125826
0.0180312
0.0252386
0.0346462
0.0463175
0.0593224
0.000420411
0.000709913
0.001742
0.0032845
0.00546799
0.00847255
0.0125333
0.0179539
0.0251217
0.0344836
0.0461606
0.0592661
0.000417466
0.00070921
0.00173982
0.00327839
0.0054549
0.00844804
0.0124909
0.0178845
0.0250131
0.034327
0.0459997
0.0591972
0.00041458
0.000709286
0.00173955
0.00327579
0.00544741
0.00843151
0.0124591
0.0178283
0.0249197
0.0341851
0.0458418
0.0591072
0.000411696
0.000710186
0.00174135
0.00327704
0.00544634
0.00842495
0.0124417
0.0177919
0.0248524
0.0340764
0.0457254
0.0591005
0.000408764
0.000711622
0.00174468
0.00328138
0.00545081
0.00842744
0.0124382
0.0177752
0.024811
0.0339967
0.045618
0.0589921
0.000405798
0.000713654
0.00174941
0.00328839
0.00546005
0.00843816
0.0124483
0.0177802
0.0248025
0.0339628
0.0455645
0.0589306
0.000402668
0.000716309
0.0017555
0.00329761
0.00547274
0.00845439
0.0124679
0.0178029
0.0248287
0.0340006
0.0456726
0.0592519
0.000399373
0.000719547
0.00176282
0.00330854
0.00548714
0.00847146
0.012486
0.0178193
0.02484
0.0340068
0.0457146
0.0594201
0.000395968
0.000723814
0.00177245
0.00332334
0.00550697
0.00849501
0.0125101
0.0178381
0.0248436
0.0339818
0.0456741
0.0594494
0.000392406
0.00072916
0.00178469
0.00334312
0.0055349
0.00853053
0.0125506
0.0178777
0.0248711
0.0339807
0.0456478
0.0594881
0.000388564
0.000735476
0.00179945
0.00336761
0.00557092
0.00857888
0.0126106
0.0179459
0.0249397
0.0340362
0.0456899
0.0595723
0.000384431
0.000743032
0.00181668
0.00339599
0.00561306
0.00863655
0.0126845
0.0180355
0.0250421
0.0341472
0.0458274
0.0598023
0.000379888
0.000751802
0.00183642
0.00342828
0.00566026
0.00870054
0.0127657
0.0181328
0.0251523
0.0342665
0.0459772
0.0601073
0.000374831
0.000762181
0.00185957
0.00346615
0.00571491
0.00877309
0.0128552
0.0182346
0.0252572
0.0343576
0.0460446
0.0602745
0.000369218
0.000774822
0.00188761
0.00351226
0.00578176
0.00886175
0.012964
0.0183575
0.0253815
0.0344595
0.0460941
0.060355
0.000362867
0.000790296
0.00192186
0.00356903
0.00586461
0.00897233
0.0131012
0.0185152
0.0255467
0.0346101
0.0462066
0.0605312
0.00035539
0.000809268
0.00196377
0.00363913
0.0059678
0.00911095
0.0132745
0.0187171
0.0257627
0.0348148
0.0463646
0.0607023
0.000345958
0.000832206
0.00201484
0.0037253
0.00609535
0.00928331
0.0134915
0.0189722
0.0260392
0.0350839
0.0465879
0.0609452
0.000333062
0.000860034
0.00207733
0.00383078
0.00625204
0.00949691
0.013763
0.0192954
0.0263966
0.0354407
0.0468799
0.0611195
0.000313739
0.000892772
0.00215178
0.00395711
0.00643975
0.00975308
0.0140894
0.0196869
0.0268393
0.0359117
0.0473597
0.0616673
0.000284054
0.000931981
0.00224175
0.00410955
0.00666448
0.0100564
0.014471
0.0201366
0.0273343
0.0364131
0.0478134
0.0620406
0.000243409
0.000980741
0.0023525
0.0042964
0.00693778
0.0104205
0.0149205
0.0206526
0.0278799
0.0369287
0.0482098
0.0622099
0.000222044
0.00104806
0.00249154
0.00453059
0.00727955
0.0108721
0.0154711
0.0212739
0.0285233
0.0375226
0.0486561
0.0623918
0.000211108
0.00114555
0.00267719
0.00484073
0.00772934
0.0114589
0.0161735
0.0220492
0.0293079
0.0382348
0.0492029
0.0626979
0.0002217
0.00133446
0.00304918
0.0054137
0.00850354
0.0124047
0.0172377
0.0231563
0.0303649
0.0391423
0.0498483
0.0629489
0.000375569
0.00200814
0.00430964
0.00718426
0.0106226
0.0147006
0.0195543
0.0253278
0.0322387
0.0406358
0.050875
0.0634019
0.00116022
0.00459469
0.00886087
0.0137131
0.0190931
0.0249429
0.0312032
0.0378122
0.0447054
0.0518147
0.0590813
0.0664696
0.000123227
0.00191844
0.00491462
0.00877601
0.0134865
0.0189788
0.025176
0.0319669
0.039236
0.0468601
0.0547207
0.0627309
0.00063742
0.00175585
0.00410161
0.007261
0.0112745
0.0161343
0.0218205
0.0282752
0.0354047
0.0430814
0.0511529
0.0594602
0.000655598
0.00157908
0.00360557
0.00635597
0.00990036
0.0142776
0.0195132
0.0255972
0.0324744
0.0400393
0.0481394
0.0565895
0.000670725
0.0013862
0.00318414
0.00564763
0.00885739
0.0128728
0.0177455
0.023498
0.0301091
0.0375029
0.0455451
0.0540597
0.000673051
0.0012354
0.00286193
0.00510746
0.00805858
0.0117844
0.0163526
0.0218081
0.0281576
0.0353547
0.0432911
0.0518138
0.000674585
0.00112473
0.00261599
0.00468803
0.0074303
0.0109165
0.0152245
0.0204154
0.0265178
0.0335115
0.0413146
0.0497854
0.000674784
0.00103883
0.00241908
0.00434809
0.00691709
0.0102013
0.0142851
0.0192418
0.0251177
0.031917
0.039592
0.0480452
0.000675264
0.000969731
0.00225689
0.00406552
0.00648813
0.00959948
0.0134889
0.0182382
0.0239087
0.0305263
0.038071
0.0464722
0.000675812
0.000913084
0.00212115
0.00382718
0.0061239
0.00908562
0.0128043
0.0173685
0.0228504
0.0292895
0.0366725
0.0448821
0.000676216
0.000865855
0.00200595
0.00362379
0.00581015
0.00864063
0.012208
0.0166053
0.0219122
0.028178
0.0354005
0.043508
0.000676503
0.000825894
0.0019068
0.00344753
0.00553629
0.00825045
0.0116823
0.0159281
0.0210725
0.0271736
0.0342413
0.0422196
0.000676716
0.000791789
0.00182036
0.00329281
0.00529454
0.00790468
0.0112143
0.0153214
0.0203154
0.0262618
0.0331838
0.0410489
0.000677373
0.000766798
0.00174417
0.00315558
0.00507906
0.00759542
0.010794
0.014774
0.0196285
0.0254303
0.0322143
0.0399615
0.000679677
0.000758176
0.00167643
0.0030328
0.00488537
0.0073166
0.0104137
0.0142768
0.0190019
0.0246677
0.0313178
0.0389375
0.000683393
0.000760358
0.00161582
0.00292215
0.00471003
0.00706358
0.0100677
0.0138229
0.0184279
0.0239669
0.0304934
0.0380162
0.000687497
0.000765623
0.00156134
0.00282176
0.00455023
0.00683261
0.00975101
0.0134063
0.017899
0.0233167
0.029715
0.0370767
0.000691311
0.000770556
0.0015122
0.00273039
0.00440454
0.00662078
0.00945996
0.0130224
0.0174102
0.0227144
0.0290003
0.036302
0.000694632
0.000774363
0.00146773
0.00264702
0.00427133
0.00642575
0.00919138
0.0126673
0.0169565
0.0221526
0.0283224
0.0354684
0.000697488
0.000777094
0.00142737
0.00257067
0.00414886
0.00624549
0.00894259
0.0123376
0.0165341
0.0216274
0.0276889
0.0347502
0.00069994
0.000778941
0.00139069
0.00250044
0.00403569
0.00607828
0.00871134
0.0120305
0.0161394
0.0211357
0.0270961
0.034062
0.000702067
0.000780258
0.00135866
0.00243559
0.00393067
0.00592259
0.00849568
0.0117435
0.0157703
0.0206758
0.0265449
0.0334403
0.000704061
0.000782197
0.00133721
0.00237571
0.00383291
0.00577722
0.00829402
0.0114749
0.0154245
0.0202453
0.0260279
0.0328361
0.000706177
0.00078617
0.00132998
0.00232062
0.00374164
0.00564109
0.00810501
0.011223
0.0150998
0.01984
0.025536
0.0322469
0.000708518
0.000792196
0.00133206
0.00227
0.00365629
0.00551332
0.00792745
0.0109861
0.0147945
0.0194596
0.0250822
0.0317601
0.000711011
0.000799352
0.00133754
0.00222337
0.00357625
0.00539312
0.00776035
0.0107631
0.0145068
0.0190999
0.0246412
0.0311819
0.00071348
0.000806548
0.00134304
0.00218022
0.00350115
0.00528017
0.0076028
0.0105527
0.0142348
0.0187576
0.0242183
0.0306792
0.000715858
0.00081325
0.00134731
0.00214012
0.00343069
0.00517418
0.00745406
0.0103538
0.0139771
0.0184325
0.0238198
0.0302206
0.000718119
0.000819128
0.00135004
0.00210273
0.00336454
0.00507444
0.00731338
0.0101652
0.0137323
0.0181234
0.0234404
0.0297641
0.000720168
0.000824153
0.00135133
0.00206775
0.00330232
0.00498029
0.00718006
0.00998627
0.0134997
0.0178293
0.0230793
0.0293364
0.000722042
0.000828451
0.00135136
0.00203491
0.00324364
0.0048912
0.00705352
0.00981618
0.0132783
0.0175494
0.0227355
0.0289264
0.000723767
0.000832102
0.00135034
0.00200406
0.00318823
0.00480674
0.00693325
0.00965433
0.0130676
0.0172826
0.0224066
0.0285289
0.000725371
0.000835242
0.00134851
0.00197514
0.00313576
0.00472655
0.00681879
0.00950016
0.0128666
0.0170279
0.0220922
0.0281523
0.000726872
0.000837953
0.00134611
0.00194868
0.00308606
0.0046503
0.00670969
0.00935311
0.0126748
0.0167843
0.0217906
0.0277849
0.000728293
0.000840379
0.00134374
0.00192662
0.00303902
0.00457768
0.00660558
0.00921266
0.0124914
0.016551
0.0215004
0.0274291
0.000729676
0.000842776
0.00134244
0.00191203
0.00299469
0.00450848
0.00650613
0.00907838
0.0123158
0.0163273
0.0212221
0.0270958
0.000731078
0.000845448
0.00134324
0.00190587
0.00295322
0.00444251
0.00641104
0.0089499
0.0121476
0.016113
0.0209566
0.0267811
0.000732551
0.000848635
0.00134648
0.0019061
0.00291454
0.00437963
0.00632023
0.00882691
0.0119866
0.0159079
0.0207026
0.0264735
0.000734124
0.000852359
0.00135177
0.00190988
0.00287853
0.00431977
0.00623374
0.0087091
0.0118322
0.0157107
0.0204557
0.0261622
0.000735794
0.000856538
0.00135842
0.00191501
0.00284488
0.0042628
0.00615125
0.00859619
0.0116841
0.0155219
0.0202239
0.0259143
0.000737535
0.000860954
0.00136567
0.00192026
0.00281337
0.00420858
0.00607246
0.00848797
0.0115422
0.0153413
0.0200021
0.0256424
0.000739321
0.00086541
0.00137299
0.00192498
0.00278371
0.00415693
0.00599712
0.00838421
0.0114061
0.0151686
0.0197892
0.0253873
0.000741129
0.000869761
0.00138
0.00192891
0.00275571
0.00410773
0.00592502
0.00828474
0.0112757
0.015003
0.0195852
0.0251441
0.000742941
0.000873901
0.0013865
0.00193197
0.00272919
0.00406078
0.00585607
0.0081894
0.0111507
0.0148443
0.0193895
0.0249063
0.000744749
0.000877792
0.00139238
0.00193415
0.00270396
0.00401595
0.00579001
0.00809802
0.0110309
0.0146919
0.0191988
0.024658
0.000746552
0.000881398
0.00139763
0.00193552
0.00267998
0.0039731
0.00572675
0.00801039
0.0109158
0.0145447
0.0190121
0.0244176
0.000748349
0.000884761
0.00140228
0.00193616
0.00265719
0.00393218
0.00566625
0.00792631
0.0108052
0.0144027
0.0188334
0.0242072
0.000750143
0.000887883
0.00140637
0.00193619
0.0026357
0.00389306
0.00560819
0.00784552
0.0106989
0.0142659
0.0186586
0.0239775
0.000751943
0.000890792
0.00140998
0.00193578
0.00261587
0.00385582
0.00555264
0.00776808
0.0105967
0.0141346
0.0184981
0.0238321
0.000753757
0.000893529
0.0014132
0.00193522
0.00259845
0.00382022
0.00549932
0.00769355
0.0104983
0.0140085
0.0183409
0.0236073
0.000755597
0.000896148
0.0014162
0.00193495
0.00258466
0.00378639
0.00544821
0.00762196
0.0104038
0.0138874
0.0181888
0.0234265
0.000757444
0.000898658
0.00141919
0.0019355
0.00257551
0.00375442
0.00539929
0.00755338
0.0103131
0.0137709
0.0180412
0.0232337
0.000759347
0.000901209
0.0014224
0.00193735
0.00257136
0.00372466
0.00535283
0.00748821
0.0102263
0.0136591
0.0178998
0.0230638
0.000761368
0.000903852
0.00142607
0.00194083
0.00257132
0.00369692
0.00530856
0.00742609
0.0101434
0.0135521
0.0177648
0.0228995
0.000763518
0.000906658
0.0014304
0.00194582
0.00257409
0.00367113
0.00526648
0.00736683
0.0100639
0.0134497
0.0176364
0.0227463
0.000765825
0.000909773
0.00143539
0.00195198
0.00257866
0.00364744
0.00522676
0.0073106
0.00998815
0.0133519
0.017514
0.0225963
0.000768219
0.000912995
0.00144089
0.00195906
0.00258421
0.00362547
0.00518914
0.00725707
0.00991588
0.0132586
0.0173968
0.0224485
0.000770742
0.000916369
0.00144681
0.00196673
0.00259016
0.00360514
0.0051536
0.00720627
0.00984717
0.0131698
0.0172841
0.0223025
0.000773416
0.000919943
0.00145307
0.00197473
0.00259633
0.00358653
0.00512036
0.00715841
0.00978199
0.0130853
0.0171759
0.0221623
0.000776167
0.000923311
0.0014594
0.00198285
0.00260231
0.00356931
0.00508911
0.00711328
0.00972058
0.0130053
0.0170726
0.0220276
0.000779052
0.000927019
0.0014658
0.00199085
0.00260804
0.00355349
0.00505995
0.00707092
0.00966266
0.0129296
0.0169744
0.0219018
0.000782444
0.000930943
0.00147244
0.00199881
0.00261355
0.00353927
0.00503318
0.00703169
0.00960864
0.0128584
0.0168815
0.021781
0.000785889
0.000934732
0.00147893
0.00200656
0.00261885
0.00352643
0.00500862
0.00699541
0.00955842
0.0127919
0.016795
0.0216739
0.000789566
0.000938568
0.00148529
0.00201409
0.002624
0.00351508
0.00498644
0.00696237
0.00951236
0.0127306
0.0167149
0.0215704
0.000793534
0.000942375
0.00149153
0.00202139
0.00262902
0.00350531
0.00496677
0.00693276
0.00947071
0.0126751
0.0166426
0.0214829
0.00079778
0.000946291
0.00149771
0.00202863
0.00263422
0.0034974
0.00495005
0.00690707
0.00943396
0.0126257
0.0165775
0.0213933
0.000802283
0.0009499
0.00150367
0.00203562
0.00263938
0.00349133
0.00493629
0.00688551
0.00940288
0.0125834
0.016522
0.0213348
0.000807233
0.000953976
0.00150972
0.00204265
0.00264475
0.00348743
0.00492602
0.00686871
0.00937797
0.0125493
0.0164778
0.0212804
0.000813161
0.000958357
0.00151593
0.00204973
0.0026506
0.00348631
0.00492007
0.00685777
0.00936063
0.0125245
0.0164442
0.0212286
0.000819643
0.000962825
0.00152228
0.00205706
0.00265721
0.00348839
0.00491917
0.00685363
0.00935208
0.0125106
0.0164227
0.0211946
0.000827053
0.000967413
0.00152868
0.00206466
0.00266472
0.00349423
0.00492428
0.00685774
0.00935414
0.0125094
0.0164141
0.0211644
0.000835919
0.000973509
0.00153679
0.0020739
0.00267466
0.00350702
0.00493921
0.00687408
0.00937056
0.0125244
0.0164255
0.0211869
0.000844866
0.000973965
0.00154036
0.00208045
0.00268334
0.00352109
0.00495901
0.0068993
0.00940024
0.0125566
0.0164556
0.0211849
0.000887269
0.00101459
0.00157071
0.00210887
0.00271588
0.00357878
0.00502909
0.00697653
0.00948006
0.0126331
0.0165225
0.0212634
0.000439638
0.00082221
0.00150258
0.00205205
0.00265231
0.00350598
0.00495894
0.00691625
0.00943712
0.0126157
0.0165402
0.021308
0.137515
0.131235
0.112613
0.140076
0.133617
0.0381846
0.117671
0.138732
0.135041
0.0744164
0.069869
0.0549323
0.127952
0.137268
0.12848
0.101691
0.131877
0.039154
0.132179
0.179341
0.076508
0.138025
0.121536
0.0826063
0.137744
0.121278
0.13894
0.102095
0.0811822
0.135066
0.137762
0.0611444
0.116076
0.103743
0.13773
0.0305101
0.110461
0.0928746
0.135412
0.120449
0.106172
0.135235
0.126935
0.0973005
0.132913
0.0781197
0.110254
0.138398
0.139062
0.127426
0.140026
0.118223
0.139534
0.0939601
0.0811884
0.347162
0.127371
0.107864
0.078322
0.124708
0.140072
0.101816
0.0893925
0.118213
0.134798
0.111727
0.123928
0.098186
0.136298
0.106497
0.276883
0.104473
0.0743253
0.331602
0.0804747
0.0578296
0.100179
0.130755
0.0553027
0.0874136
0.125621
0.125259
0.117158
0.139959
0.128346
0.10042
0.127088
0.120345
0.282428
0.0977295
0.137932
0.139801
0.139949
0.121004
0.139869
0.0920009
0.13888
0.116172
0.136365
0.0698087
0.0805609
0.0556768
0.073752
0.109213
0.109786
0.116908
0.135381
0.138934
0.0949411
0.128344
0.0475526
0.137764
0.1382
0.0175659
0.121704
0.142096
0.123355
0.0840869
0.0939841
0.248132
0.138924
0.0972484
0.0702117
0.119376
0.0716505
0.12135
0.105784
0.0278832
0.13869
0.108212
0.113287
0.0599655
0.140003
0.128763
0.0990957
0.13642
0.096276
0.136009
0.122884
0.12613
0.138556
0.139364
0.138435
0.126156
0.10727
0.0868525
0.113208
0.131582
0.0685648
0.103698
0.145589
0.135761
0.116261
0.138216
0.0331598
0.135305
0.118385
0.126859
0.106178
0.128921
0.098036
0.0841112
0.104299
0.0591139
0.129171
0.309526
0.0970722
0.123543
0.108675
0.0673208
0.0493048
0.1347
0.135502
0.0704069
0.048622
0.138425
0.116046
0.088729
0.132977
0.137465
0.12281
0.0918299
0.137502
0.130104
0.139888
0.177655
0.136625
0.0862641
0.138345
0.293961
0.136445
0.113626
0.0847438
0.110022
0.114849
0.0794372
0.103386
0.0727748
0.121515
0.102128
0.137187
0.120827
0.138273
0.0825849
0.106517
0.117312
0.136069
0.0862935
0.107506
0.177155
0.112633
0.11055
0.118272
0.136973
0.0917119
0.0158808
0.0707555
0.121598
0.0433832
0.0733741
0.117333
0.132537
0.129377
0.125921
0.116358
0.138633
0.0876195
0.124785
0.138188
0.0382783
0.11025
0.113932
0.128958
0.0497747
0.0897542
0.12987
0.0952688
0.101316
0.137169
0.139594
0.131198
0.0750785
0.135759
0.140035
0.110635
0.0528416
0.139929
0.117103
0.107282
0.139106
0.124681
0.120301
0.0767236
0.12686
0.125746
0.0945358
0.0435093
0.130653
0.0915948
0.101248
0.108695
0.137195
0.125165
0.105003
0.0744741
0.127989
0.135839
0.137325
0.14008
0.0946411
0.126626
0.136812
0.121246
0.0668858
0.0667369
0.097769
0.133384
0.10456
0.136884
0.0629443
0.0825015
0.0496284
0.139904
0.0713507
0.0933604
0.136308
0.128535
0.138585
0.13676
0.0265333
0.0521705
0.122487
0.11975
0.111186
0.113045
0.131851
0.120934
0.140036
0.0894919
0.0584157
0.0685632
0.106836
0.0516094
0.115817
0.138007
0.138326
0.121265
0.136688
0.0726906
0.0496484
0.11784
0.0925474
0.136624
0.0426466
0.22878
0.136165
0.0339154
0.135696
0.139361
0.0778818
0.121302
0.120265
0.126058
0.138003
0.131705
0.0780473
0.135819
0.139347
0.0564086
0.134908
0.131266
0.0959713
0.0539493
0.125883
0.111353
0.0849694
0.083943
0.142371
0.140456
0.135406
0.175864
0.12057
0.118823
0.263805
0.111102
0.093977
0.135956
0.119139
0.145405
0.127771
0.136606
0.140041
0.122048
0.0361559
0.126435
0.138982
0.136868
0.138001
0.219393
0.0883586
0.102859
0.137841
0.120238
0.134152
0.0567505
0.190477
0.129609
0.110337
0.137183
0.0856461
0.12851
0.0904793
0.137303
0.13952
0.0320216
0.0773234
0.0493249
0.0744171
0.156593
0.0559536
0.137259
0.114763
0.131008
0.136852
0.103431
0.136738
0.0750452
0.042839
0.0928744
0.11172
0.070878
0.0555502
0.140018
0.12563
0.132506
0.137178
0.0875184
0.0672166
0.129873
0.0893201
0.13145
0.0625343
0.0570356
0.111745
0.13645
0.112589
0.0877174
0.0389384
0.112211
0.0299102
0.0631118
0.107941
0.139927
0.136521
0.112216
0.0756969
0.0654854
0.137917
0.137928
0.139007
0.134802
0.120958
0.138387
0.111016
0.137213
0.138193
0.0931869
0.134169
0.121101
0.111668
0.135305
0.0508913
0.126796
0.091639
0.13095
0.0866327
0.0491146
0.137297
0.0755794
0.108804
0.0842426
0.0898716
0.138207
0.116219
0.132222
0.0946662
0.139488
0.129932
0.0986104
0.122008
0.123656
0.135021
0.0560906
0.158789
0.0919505
0.0760426
0.14004
0.133891
0.0859847
0.138605
0.135691
0.109368
0.138494
0.0816672
0.0801262
0.140061
0.137192
0.0869787
0.0277714
0.105245
0.0835021
0.079979
0.131646
0.0376634
0.0689917
0.0833146
0.0755676
0.0738065
0.140082
0.119062
0.108215
0.126629
0.107093
0.0861542
0.110084
0.132086
0.134164
0.106755
0.138483
0.139002
0.0735703
0.137014
0.0534365
0.138637
0.135156
0.136114
0.120897
0.0978623
0.133493
0.117863
0.139115
0.0875484
0.13872
0.126217
0.110117
0.1396
0.110319
0.134151
0.0602747
0.134617
0.114739
0.118189
0.0975488
0.113652
0.0404192
0.0938642
0.0766698
0.138075
0.140073
0.0903751
0.262037
0.133377
0.0767506
0.128806
0.14003
0.114055
0.103875
0.0452575
0.042283
0.0713443
0.0828744
0.118872
0.0821822
0.0628316
0.137981
0.0708906
0.135236
0.0678092
0.0869156
0.0897428
0.0302899
0.137994
0.109428
0.104471
0.0405469
0.140049
0.120583
0.0265888
0.0928514
0.122248
0.127664
0.102259
0.0339136
0.1354
0.0923897
0.139266
0.138686
0.0340044
0.0686631
0.0423165
0.133533
0.132456
0.125558
0.101613
0.124444
0.139867
0.087719
0.134331
0.115025
0.0407846