/*--------------------------------*- C++ -*----------------------------------*\
| =========                 |                                                 |
| \\      /  F ield         | OpenFOAM: The Open Source CFD Toolbox           |
|  \\    /   O peration     | Version:  2.3.0                                 |
|   \\  /    A nd           | Web:      www.OpenFOAM.org                      |
|    \\/     M anipulation  |                                                 |
\*---------------------------------------------------------------------------*/
FoamFile
{
    version     2.0;
    format      ascii;
    class       volScalarField;
    location    "250";
    object      p;
}
// * * * * * * * * * * * * * * * * * * * * * * * * * * * * * * * * * * * * * //

dimensions      [0 2 -2 0 0 0 0];

internalField   nonuniform List<scalar> 
7826
(
-0.00223684
-0.778785
-1.2985
-1.50301
-1.41178
-1.08299
-0.578471
0.0579759
0.819204
1.72991
2.82528
4.10356
5.48962
7.20729
10.5644
2.19519
1.74721
1.34878
1.06121
0.952723
1.09307
1.53862
2.31862
3.43427
4.8578
6.5438
8.435
10.4708
12.6111
14.8282
4.49236
4.67148
5.00866
5.50399
6.13637
6.87391
7.68464
8.54209
9.42604
10.3213
11.2156
12.1006
12.9656
13.806
14.6231
6.06949
6.34657
6.71021
7.15668
7.68357
8.28307
8.94424
9.65436
10.3998
11.1678
11.9452
12.7222
13.4877
14.2353
14.9613
7.34634
7.71089
8.14083
8.62263
9.14653
9.70094
10.2756
10.8621
11.4532
12.0441
12.63
13.2078
13.7742
14.3272
14.8664
8.2896
8.65169
9.05699
9.49115
9.95018
10.4282
10.9199
11.4208
11.9264
12.4338
12.9398
13.4418
13.9375
14.4247
14.9027
9.02672
9.37036
9.74931
10.1446
10.5548
10.9763
11.4059
11.8409
12.279
12.7185
13.1572
13.5941
14.027
14.4548
14.8765
9.6047
9.91402
10.2589
10.6136
10.9791
11.3536
11.7351
12.1222
12.5133
12.907
13.302
13.697
14.0904
14.4812
14.8678
10.0679
10.3402
10.6515
10.9709
11.2999
11.6371
11.9812
12.3313
12.6862
13.0449
13.4063
13.7691
14.1321
14.4941
14.8536
10.4333
10.6763
10.9564
11.246
11.5455
11.8526
12.1677
12.489
12.8161
13.1482
13.4838
13.8218
14.1616
14.5015
14.8405
10.7025
10.9365
11.1944
11.4603
11.7374
12.02
12.3127
12.611
12.9162
13.2271
13.5434
13.8616
14.1832
14.5061
14.8289
10.8996
11.1382
11.3815
11.6276
11.8881
12.1501
12.4254
12.7049
12.9931
13.2865
13.589
13.894
14.205
14.5166
14.8264
11.1231
11.3278
11.5437
11.7724
12.0182
12.2619
12.5232
12.7879
13.0658
13.3466
13.6302
13.9132
14.2032
14.501
14.8019
11.3521
11.5115
11.7294
11.9098
12.172
12.36
12.6408
12.8765
13.1385
13.4066
13.7052
13.8986
14.1409
14.4123
14.7031
17.3447
20.2688
21.8141
23.3673
24.9307
26.394
27.7289
28.9301
29.9661
30.7756
31.2851
31.4314
31.1861
30.5871
29.7826
17.0369
19.213
21.2521
23.1361
24.8299
26.291
27.4795
28.365
28.9362
29.2045
29.2021
28.9811
28.6011
28.1232
27.6133
15.4309
16.2539
17.1022
17.9792
18.8779
19.7895
20.7042
21.607
22.4781
23.2913
24.0139
24.6094
25.0457
25.3133
25.4437
15.6747
16.3926
17.124
17.8654
18.6093
19.3451
20.0634
20.7517
21.3985
21.9919
22.5207
22.9748
23.3472
23.6399
23.8575
15.3989
15.9373
16.4875
17.0489
17.619
18.1942
18.7711
19.3446
19.9085
20.4551
20.9744
21.4549
21.8846
22.2573
22.5561
15.3749
15.8498
16.3309
16.8171
17.3063
17.7959
18.2831
18.7648
19.2376
19.6973
20.1389
20.5571
20.9452
21.302
21.6302
15.2944
15.7142
16.1379
16.5645
16.9924
17.4198
17.8449
18.2658
18.6807
19.0864
19.4804
19.8589
20.2178
20.5537
20.8565
15.2518
15.6364
16.023
16.4102
16.7964
17.1805
17.5607
17.9357
18.3042
18.6645
19.0148
19.353
19.6764
19.9816
20.2733
15.2112
15.5688
15.927
16.2844
16.6395
16.9909
17.3377
17.6786
18.0124
18.3382
18.6546
18.9603
19.2524
19.5269
19.8038
15.1783
15.5154
15.8524
16.1874
16.5189
16.8455
17.1665
17.4809
17.7877
18.086
18.3753
18.6546
18.9224
19.1766
19.4456
15.1518
15.4727
15.7938
16.1111
16.4234
16.7297
17.0303
17.3235
17.6088
17.885
18.1525
18.4097
18.6566
18.8906
19.1374
15.1379
15.4445
15.7524
16.0535
16.3485
16.637
16.9216
17.1971
17.4651
17.7233
17.9739
18.2121
18.4413
18.658
18.8789
15.1016
15.3965
15.689
15.9878
16.2779
16.5517
16.8231
17.0861
17.3418
17.5838
17.8192
18.0386
18.2517
18.4513
18.6568
15.0373
15.2843
15.6096
15.9234
16.2148
16.4692
16.7258
16.9812
17.2289
17.4557
17.6732
17.8749
18.0695
18.2423
18.4053
11.6682
11.7746
11.9231
12.1213
12.3537
12.596
12.8211
13.0075
13.143
13.2249
13.2577
13.2461
13.1936
13.0945
13.1198
11.7846
11.8183
11.8331
11.8257
11.7933
11.7403
11.676
11.6113
11.5551
11.5122
11.4834
11.465
11.4565
11.4411
11.4574
11.8148
11.8002
11.7549
11.6971
11.6393
11.5917
11.5598
11.5441
11.5419
11.5485
11.5586
11.5662
11.5726
11.5815
11.6034
11.9145
11.9281
11.9358
11.9494
11.9703
11.997
12.0266
12.0566
12.0848
12.1097
12.1297
12.1426
12.1498
12.161
12.1826
12.0378
12.072
12.1011
12.1317
12.1623
12.1915
12.219
12.245
12.2696
12.292
12.3113
12.3258
12.3356
12.3499
12.3738
12.117
12.1544
12.1763
12.1969
12.2171
12.2371
12.2575
12.2785
12.2995
12.3196
12.3374
12.3511
12.361
12.3757
12.4008
12.1863
12.2135
12.2314
12.2497
12.2682
12.2866
12.3052
12.3237
12.3417
12.3585
12.373
12.384
12.3923
12.406
12.4316
12.2524
12.2747
12.2926
12.3107
12.3282
12.3446
12.3599
12.374
12.3869
12.3983
12.4076
12.4142
12.4194
12.4314
12.4572
12.2925
12.3258
12.3459
12.3636
12.379
12.392
12.4027
12.411
12.417
12.4205
12.4212
12.4196
12.418
12.426
12.4516
12.3594
12.3767
12.3946
12.4108
12.4245
12.4353
12.4428
12.4465
12.4463
12.4415
12.4314
12.4158
12.4003
12.3961
12.4164
12.4078
12.4256
12.4409
12.4548
12.467
12.4761
12.4806
12.479
12.4712
12.4566
12.4304
12.3911
12.3455
12.3245
12.3409
12.4519
12.4719
12.4874
12.5024
12.5174
12.531
12.5408
12.5436
12.5383
12.529
12.5079
12.4412
12.3482
12.2546
12.235
12.494
12.5048
12.5148
12.5259
12.5379
12.548
12.5519
12.5403
12.5138
12.4964
12.4709
12.3668
12.1163
12.0272
11.9894
12.5705
12.5893
12.598
12.6122
12.6449
12.6889
12.7436
12.7891
12.779
12.8245
13.0328
12.9467
12.5898
12.0269
11.7124
13.1773
13.2208
13.3861
13.5027
13.5846
13.626
13.6202
13.5626
13.4597
13.3317
13.2102
13.1273
13.1102
13.1661
13.2794
11.4866
11.5114
11.57
11.621
11.6937
11.7911
11.9183
12.0741
12.2519
12.4396
12.6222
12.787
12.9329
13.0688
13.2022
11.6343
11.6686
11.7132
11.7564
11.8049
11.8603
11.9305
12.0213
12.1374
12.2802
12.4454
12.6227
12.801
12.9715
13.1298
12.2111
12.2458
12.2878
12.3305
12.3721
12.4133
12.4575
12.5062
12.5612
12.6245
12.6987
12.7859
12.8874
13.0024
13.128
12.4011
12.4328
12.4712
12.511
12.5495
12.589
12.6318
12.6787
12.7302
12.786
12.8463
12.9121
12.9851
13.0674
13.1611
12.4281
12.4595
12.4988
12.5399
12.58
12.6212
12.6655
12.7139
12.767
12.825
12.888
12.9558
13.0281
13.1046
13.1867
12.4592
12.4919
12.5345
12.5797
12.6245
12.6702
12.7179
12.7681
12.821
12.8769
12.9361
12.9991
13.0657
13.1358
13.2106
12.4851
12.5198
12.5667
12.6178
12.6697
12.7225
12.7765
12.8312
12.8864
12.942
12.9982
13.0554
13.114
13.1742
13.2374
12.4807
12.5197
12.5744
12.6355
12.6986
12.7625
12.8257
12.8873
12.9465
13.0033
13.0582
13.1117
13.1642
13.2163
13.2708
12.4453
12.4901
12.5574
12.6353
12.7171
12.7982
12.8751
12.9451
13.0081
13.065
13.1173
13.1665
13.2134
13.2586
13.3052
12.3785
12.4425
12.5351
12.641
12.7495
12.8526
12.9424
13.0179
13.0802
13.1331
13.1798
13.2225
13.2623
13.2998
13.3365
12.2737
12.3508
12.4702
12.6157
12.7714
12.913
13.0271
13.1052
13.1614
13.2047
13.2427
13.2777
13.3097
13.3391
13.3655
12.1292
12.2983
12.4929
12.708
12.9043
13.0829
13.1673
13.2234
13.2518
13.2781
13.3055
13.333
13.3558
13.3783
13.3994
11.9667
12.0407
12.2146
12.4862
12.8283
13.11
13.2888
13.3258
13.3308
13.3332
13.3513
13.3769
13.3966
13.4137
13.4274
-90.8896
-85.2833
-79.2107
-73.0555
-66.3463
-58.9336
-51.0065
-42.8394
-34.7546
-27.1056
-20.2302
-14.3799
-9.65569
-5.97676
-3.06499
-14.6283
-15.8089
-16.5975
-17.1979
-17.7031
-18.0797
-18.2297
-18.0341
-17.3757
-16.1678
-14.3913
-12.1244
-9.54555
-6.88719
-4.24545
-8.74684
-9.29189
-9.34837
-9.43312
-9.59021
-9.73098
-9.80594
-9.78762
-9.64641
-9.34286
-8.82655
-8.0425
-6.95284
-5.57524
-3.93896
-12.7426
-12.75
-12.3813
-12.134
-11.8798
-11.545
-11.113
-10.5722
-9.90863
-9.11487
-8.19517
-7.16031
-6.01814
-4.77269
-3.40662
-9.72131
-9.43812
-9.21069
-9.12292
-9.00316
-8.83694
-8.62185
-8.34251
-7.97441
-7.49116
-6.86964
-6.09615
-5.17186
-4.11578
-3.0132
-5.61595
-5.33489
-5.33909
-5.36501
-5.36505
-5.35455
-5.32976
-5.27534
-5.17304
-5.00122
-4.73373
-4.34187
-3.7998
-3.08635
-2.24974
-3.52695
-3.46119
-3.51289
-3.51714
-3.51608
-3.51512
-3.50642
-3.47813
-3.41855
-3.31363
-3.14612
-2.89552
-2.53903
-2.04715
-1.43107
-2.43154
-2.43741
-2.45168
-2.43583
-2.42456
-2.41139
-2.3906
-2.35497
-2.29597
-2.20259
-2.06147
-1.85729
-1.57351
-1.18732
-0.700305
-1.4397
-1.44944
-1.44369
-1.42901
-1.41719
-1.40272
-1.38243
-1.35217
-1.3055
-1.23365
-1.12552
-0.967784
-0.745614
-0.439432
-0.0461176
-0.551575
-0.553143
-0.542866
-0.530943
-0.519335
-0.50555
-0.486916
-0.461052
-0.423191
-0.366711
-0.282934
-0.16094
0.0123913
0.255333
0.582285
0.203053
0.205834
0.21561
0.226401
0.23779
0.251045
0.268666
0.292338
0.325815
0.374286
0.444636
0.545637
0.688211
0.887883
1.16501
0.865291
0.869088
0.877849
0.888143
0.899243
0.911702
0.927389
0.948253
0.97735
1.01889
1.07859
1.16374
1.28342
1.44985
1.68314
1.45987
1.4636
1.47177
1.48177
1.49261
1.5041
1.5176
1.5356
1.56043
1.59553
1.64568
1.71703
1.81734
1.95669
2.15335
1.99525
1.99877
2.00651
2.01608
2.02633
2.03669
2.04843
2.06421
2.08566
2.11564
2.15812
2.21818
2.30221
2.41826
2.58369
2.47958
2.48287
2.49014
2.49909
2.50852
2.51798
2.52861
2.54273
2.56167
2.58793
2.62497
2.67725
2.75053
2.85213
3.00563
2.92036
2.9234
2.93016
2.93849
2.94725
2.95636
2.96645
2.97921
2.99619
3.01961
3.05254
3.09903
3.16446
3.2549
3.39314
3.3235
3.32633
3.33266
3.34051
3.34885
3.35791
3.36757
3.37904
3.39427
3.41514
3.4443
3.48532
3.54295
3.62189
3.74144
3.69402
3.69669
3.70269
3.71018
3.71822
3.72709
3.73618
3.74651
3.76025
3.77887
3.80464
3.84066
3.89112
3.95986
4.06295
4.03706
4.0396
4.04529
4.05244
4.06012
4.06855
4.07698
4.08641
4.09892
4.11565
4.13863
4.17058
4.21517
4.27561
4.36733
4.35642
4.35882
4.3642
4.37097
4.37822
4.38611
4.39405
4.40286
4.41434
4.42952
4.45026
4.47904
4.51934
4.57433
4.65615
4.65433
4.65658
4.66166
4.66805
4.67488
4.68232
4.69003
4.69846
4.70894
4.72267
4.7413
4.767
4.8027
4.85092
4.92102
4.93333
4.93544
4.94023
4.94626
4.95275
4.95985
4.96747
4.97556
4.98506
4.9975
5.01426
5.03725
5.06919
5.11313
5.17185
5.19565
5.19764
5.2022
5.20794
5.21418
5.22106
5.22858
5.2363
5.24502
5.25649
5.27184
5.29278
5.32168
5.36213
5.42464
5.44345
5.44535
5.44971
5.45523
5.46125
5.46791
5.47519
5.48249
5.49059
5.50127
5.51546
5.53474
5.56118
5.59746
5.65369
5.67814
5.67994
5.68411
5.6894
5.69519
5.70158
5.70852
5.71542
5.72304
5.73304
5.74619
5.76401
5.78839
5.82112
5.87128
5.90083
5.90255
5.90652
5.91157
5.91711
5.9232
5.92977
5.93639
5.9437
5.95313
5.96547
5.9822
6.00529
6.03647
6.08448
6.11192
6.11356
6.11736
6.12219
6.1275
6.13333
6.13964
6.14619
6.15335
6.16226
6.17391
6.1897
6.21159
6.24118
6.28555
6.31249
6.31404
6.31766
6.32228
6.32734
6.33293
6.33901
6.3455
6.35245
6.36068
6.37143
6.38586
6.40572
6.43222
6.46526
6.50338
6.50484
6.50831
6.51272
6.51758
6.52297
6.52886
6.53527
6.54191
6.54948
6.55937
6.57251
6.59043
6.61471
6.64437
6.68563
6.68705
6.6904
6.69465
6.69936
6.70461
6.71037
6.71666
6.72302
6.73011
6.73944
6.75176
6.76851
6.79185
6.81895
6.85995
6.86134
6.86459
6.86874
6.87336
6.87851
6.88417
6.89031
6.89643
6.90318
6.91205
6.92368
6.93932
6.96106
6.98619
7.02801
7.0293
7.03239
7.03636
7.04078
7.04574
7.05117
7.05701
7.06282
7.06921
7.07758
7.08849
7.10311
7.12324
7.14129
7.18867
7.18994
7.19297
7.19684
7.20115
7.20598
7.21125
7.21686
7.22246
7.22861
7.23647
7.24661
7.26009
7.2794
7.29253
7.34324
7.34449
7.34741
7.35117
7.35536
7.36005
7.36516
7.37061
7.37618
7.38228
7.38987
7.3997
7.41273
7.43265
7.45264
7.49295
7.49409
7.49686
7.50042
7.5044
7.50885
7.51372
7.51895
7.52448
7.53044
7.53763
7.547
7.55921
7.57737
7.59228
7.63577
7.63692
7.63966
7.64316
7.64707
7.65146
7.65628
7.66147
7.66704
7.67292
7.67974
7.68863
7.70011
7.7173
7.73503
7.77398
7.7751
7.77774
7.78113
7.78492
7.7892
7.79391
7.79901
7.80458
7.81034
7.81685
7.82541
7.83645
7.85265
7.87036
7.90794
7.90898
7.91151
7.91476
7.91841
7.92255
7.92713
7.93212
7.93757
7.9431
7.94927
7.95745
7.96798
7.98297
7.99944
8.03703
8.03805
8.04053
8.04372
8.0473
8.05136
8.05586
8.06075
8.06602
8.07126
8.07699
8.0845
8.09403
8.10706
8.11411
8.16211
8.16312
8.16554
8.16866
8.17216
8.17615
8.18057
8.18534
8.19043
8.19542
8.20079
8.20771
8.21627
8.2287
8.23314
8.28405
8.28503
8.28738
8.29044
8.29387
8.29779
8.30213
8.30683
8.31181
8.31674
8.32211
8.32905
8.33772
8.35151
8.35955
8.40288
8.40383
8.40614
8.40912
8.41248
8.41633
8.4206
8.42523
8.43013
8.43507
8.44048
8.44739
8.45586
8.46941
8.4788
8.51854
8.51947
8.52171
8.52462
8.5279
8.53167
8.53585
8.54038
8.54518
8.55014
8.55556
8.56233
8.57059
8.58351
8.59713
8.63088
8.6318
8.63399
8.63683
8.64006
8.64374
8.64784
8.65227
8.65699
8.66197
8.66734
8.67388
8.68191
8.69406
8.70853
8.74065
8.74152
8.74362
8.74636
8.74947
8.75303
8.75699
8.76131
8.76593
8.77091
8.77622
8.78254
8.79046
8.80198
8.82271
8.84733
8.84818
8.85026
8.85293
8.85596
8.85943
8.86328
8.86747
8.87194
8.87677
8.8817
8.88726
8.89401
8.90202
8.91165
8.9514
8.95224
8.95427
8.95688
8.95985
8.96325
8.96703
8.97113
8.97553
8.98027
8.98501
8.9902
8.99669
9.00475
9.02047
9.05407
9.05485
9.05678
9.05929
9.06215
9.06542
9.06909
9.07312
9.07748
9.08221
9.08698
9.0923
9.09933
9.10801
9.12538
9.15367
9.15445
9.15639
9.15888
9.16172
9.165
9.16868
9.17273
9.17709
9.18183
9.18657
9.19185
9.1989
9.20718
9.22376
9.25114
9.25192
9.25382
9.25626
9.25906
9.26228
9.2659
9.26988
9.27415
9.27872
9.2832
9.28806
9.29445
9.30158
9.31576
9.34697
9.3477
9.34951
9.35187
9.35458
9.35769
9.3612
9.36506
9.3692
9.37359
9.37789
9.38258
9.38878
9.39562
9.41218
9.44057
9.44129
9.44308
9.4454
9.44805
9.45111
9.45457
9.45835
9.46239
9.46663
9.47079
9.47525
9.48103
9.48662
9.49602
9.53195
9.53269
9.53447
9.53678
9.53943
9.5425
9.54595
9.54974
9.55377
9.55801
9.56226
9.56684
9.57283
9.57947
9.5941
9.62222
9.62292
9.62465
9.6269
9.62949
9.63249
9.63588
9.63962
9.64363
9.64789
9.6523
9.65717
9.66358
9.67104
9.68417
9.71058
9.71126
9.71296
9.71516
9.71769
9.72062
9.72395
9.72761
9.73152
9.73567
9.74003
9.74469
9.7505
9.75707
9.76711
9.79709
9.79776
9.79942
9.80157
9.80404
9.8069
9.81014
9.81369
9.81749
9.82151
9.82578
9.83024
9.83557
9.84184
9.85272
9.8817
9.88237
9.88401
9.88613
9.88858
9.89141
9.89461
9.89812
9.9019
9.9059
9.91022
9.91468
9.91989
9.92609
9.93793
9.96561
9.96622
9.96779
9.96982
9.97216
9.97487
9.97795
9.98136
9.98505
9.98898
9.99329
9.99772
10.0028
10.0086
10.02
10.0471
10.0477
10.0493
10.0513
10.0536
10.0564
10.0594
10.0628
10.0665
10.0704
10.0747
10.0791
10.084
10.0894
10.099
10.1275
10.128
10.1296
10.1315
10.1338
10.1365
10.1395
10.1428
10.1465
10.1505
10.1548
10.1592
10.1643
10.1702
10.1823
10.2061
10.2067
10.2082
10.2101
10.2123
10.2149
10.2179
10.2213
10.225
10.229
10.2335
10.2381
10.2437
10.2505
10.2638
10.2829
10.2835
10.2849
10.2868
10.289
10.2915
10.2945
10.2978
10.3015
10.3055
10.3099
10.3144
10.3198
10.326
10.3355
10.3567
10.3574
10.3589
10.3608
10.363
10.3656
10.3686
10.372
10.3757
10.3797
10.384
10.3883
10.3931
10.3984
10.4068
10.4302
10.4307
10.4321
10.434
10.4361
10.4387
10.4416
10.4449
10.4487
10.4527
10.4572
10.4619
10.4674
10.4743
10.4888
10.5012
10.5017
10.5031
10.505
10.5071
10.5097
10.5126
10.516
10.5199
10.5241
10.5289
10.5341
10.5403
10.5475
10.56
10.5694
10.57
10.5714
10.5732
10.5754
10.5779
10.581
10.5845
10.5885
10.5931
10.5982
10.6038
10.6105
10.6181
10.6313
10.6343
10.6348
10.6362
10.638
10.6402
10.6429
10.6461
10.6498
10.6541
10.6591
10.6649
10.6715
10.6795
10.6885
10.7052
10.6962
10.6967
10.6981
10.6999
10.702
10.7047
10.7081
10.7121
10.7169
10.7227
10.7297
10.7382
10.7489
10.7613
10.7877
10.7504
10.7509
10.7522
10.7541
10.7564
10.7594
10.7631
10.7678
10.7736
10.7807
10.7897
10.8007
10.8146
10.8297
10.852
10.8004
10.8009
10.8023
10.8042
10.8067
10.8099
10.814
10.8194
10.8263
10.8351
10.8463
10.8605
10.8783
10.8982
10.9252
10.8246
10.8251
10.8264
10.8285
10.8314
10.8356
10.8414
10.8493
10.8599
10.8736
10.8912
10.9129
10.939
10.9677
10.9994
10.8689
10.8695
10.8711
10.8735
10.8767
10.8812
10.8877
10.8967
10.9092
10.9261
10.9484
10.9764
11.0098
11.0462
11.0822
10.744
10.744
10.7457
10.7498
10.7577
10.7706
10.7899
10.817
10.8528
10.8978
10.9508
11.0093
11.0693
11.1261
11.173
10.9522
10.9541
10.954
10.9594
10.968
10.9798
10.9956
11.0168
11.0446
11.0798
11.1221
11.1697
11.2187
11.2648
11.3002
9.68042
9.60274
9.66128
9.74096
9.83802
9.96091
10.1155
10.3007
10.5095
10.729
10.9416
11.1286
11.2747
11.3746
11.4258
113.312
108.137
102.428
96.7138
90.5864
83.8735
76.718
69.3424
62.0112
55.0268
48.6936
43.2477
38.7934
35.2915
32.6802
44.1215
43.6409
44.3506
45.0284
45.5106
45.8252
45.9438
45.7753
45.2143
44.1739
42.6197
40.6008
38.2571
35.7954
33.5329
37.2026
37.1244
37.549
37.7337
37.8716
37.9927
38.0688
38.0638
37.9494
37.6937
37.2519
36.569
35.5974
34.3287
32.9241
39.2358
39.2385
39.3322
39.195
39.0293
38.8182
38.5354
38.1582
37.6712
37.0643
36.335
35.4862
34.5178
33.4193
32.2566
36.0609
36.3188
36.3776
36.3271
36.2812
36.2122
36.1046
35.9428
35.7068
35.3707
34.9088
34.3015
33.5409
32.6266
31.6144
33.3928
33.6953
33.6745
33.6593
33.6557
33.6375
33.5988
33.5337
33.4309
33.2728
33.0365
32.6948
32.2205
31.5891
30.818
32.2292
32.3316
32.2737
32.266
32.2518
32.2186
32.1666
32.0929
31.9904
31.8491
31.6559
31.394
31.0425
30.575
29.9759
31.0682
31.0797
31.0577
31.064
31.0538
31.0293
30.9903
30.9329
30.8507
30.7355
30.5767
30.3611
30.0736
29.696
29.2011
29.8758
29.8749
29.8788
29.8873
29.8837
29.8732
29.8528
29.8187
29.7662
29.6885
29.5765
29.4183
29.2006
28.9114
28.5387
28.8715
28.874
28.8833
28.8888
28.8881
28.8838
28.8716
28.8489
28.8123
28.7566
28.6749
28.5577
28.3929
28.1699
27.8796
28.0339
28.0382
28.0465
28.0506
28.0514
28.0494
28.0409
28.0239
27.9955
27.9518
27.8869
27.7931
27.6602
27.4773
27.24
27.2954
27.2998
27.3071
27.312
27.3142
27.3136
27.3079
27.2953
27.2734
27.2388
27.1866
27.1103
27.0008
26.8475
26.6506
26.6306
26.6351
26.6427
26.6494
26.653
26.6535
26.6499
26.6409
26.6242
26.5971
26.5556
26.4943
26.4059
26.2812
26.1241
26.0335
26.0382
26.0462
26.0541
26.0583
26.0594
26.0574
26.0509
26.0381
26.0165
25.983
25.9328
25.8599
25.7552
25.6194
25.496
25.5007
25.5084
25.5162
25.5203
25.5216
25.5207
25.5158
25.5056
25.4878
25.4597
25.4173
25.355
25.2644
25.1439
25.0071
25.0113
25.0185
25.0255
25.0291
25.0307
25.0306
25.027
25.0187
25.0041
24.9806
24.9449
24.8925
24.8171
24.721
24.557
24.5607
24.5672
24.5736
24.5773
24.5794
24.5798
24.5772
24.5706
24.5585
24.5389
24.5089
24.4645
24.4
24.3198
24.138
24.1414
24.1475
24.1539
24.1584
24.1612
24.1621
24.1603
24.1549
24.1448
24.128
24.102
24.063
24.0052
23.9318
23.7471
23.7503
23.7565
23.7631
23.7685
23.7718
23.7729
23.7718
23.7677
23.7592
23.7448
23.7222
23.6882
23.6374
23.5737
23.3831
23.3864
23.3925
23.3992
23.4049
23.4084
23.4097
23.4093
23.4061
23.3992
23.387
23.3675
23.3382
23.294
23.2395
23.0438
23.047
23.0529
23.0595
23.065
23.0683
23.0698
23.0699
23.0676
23.0618
23.0515
23.0348
23.0094
22.9711
22.9249
22.7256
22.7285
22.7341
22.7403
22.7454
22.7485
22.7501
22.7506
22.7488
22.744
22.7351
22.7206
22.6983
22.6642
22.623
22.4249
22.4276
22.4328
22.4385
22.4432
22.4463
22.4482
22.449
22.4476
22.4435
22.4357
22.4227
22.4027
22.3718
22.3336
22.1388
22.1412
22.1461
22.1515
22.1562
22.1597
22.162
22.1629
22.1619
22.1585
22.1516
22.14
22.1221
22.0944
22.0605
21.8659
21.8682
21.8729
21.8782
21.883
21.8872
21.8899
21.8909
21.8904
21.8876
21.8817
21.8716
21.8558
21.8313
21.8067
21.6058
21.6081
21.6127
21.618
21.623
21.6275
21.6304
21.6316
21.6315
21.6293
21.6244
21.6158
21.6021
21.5803
21.5599
21.3577
21.3599
21.3645
21.3698
21.3748
21.3794
21.3823
21.3837
21.3839
21.3823
21.3781
21.3704
21.3582
21.338
21.3198
21.1209
21.1231
21.1275
21.1327
21.1376
21.142
21.1448
21.1462
21.1468
21.1455
21.1419
21.1352
21.1243
21.1061
21.0912
20.8948
20.8968
20.9009
20.9058
20.9105
20.9145
20.9171
20.9185
20.9192
20.9183
20.9152
20.9093
20.8998
20.8835
20.8705
20.6758
20.6777
20.6817
20.6864
20.6908
20.6947
20.6974
20.6991
20.6999
20.6992
20.6965
20.6913
20.6826
20.6675
20.6539
20.464
20.4658
20.4696
20.4741
20.4783
20.4822
20.4851
20.4871
20.488
20.4875
20.4851
20.4802
20.472
20.457
20.4404
20.2594
20.2611
20.2647
20.269
20.2731
20.277
20.2803
20.2825
20.2834
20.2831
20.2811
20.2767
20.2694
20.2563
20.2369
20.0616
20.0632
20.0667
20.0708
20.0749
20.0788
20.0824
20.0847
20.0857
20.0856
20.084
20.0804
20.0743
20.0637
20.0458
19.8686
19.8703
19.8737
19.8779
19.882
19.8861
19.8899
19.8924
19.8935
19.8937
19.8925
19.8892
19.8837
19.8744
19.8502
19.6816
19.6832
19.6866
19.6907
19.6949
19.699
19.7028
19.7052
19.7064
19.7068
19.7056
19.7025
19.6968
19.6884
19.6624
19.5016
19.5031
19.5063
19.5102
19.5142
19.5182
19.5217
19.5239
19.5251
19.5256
19.5247
19.522
19.5168
19.5102
19.4925
19.3251
19.3266
19.3298
19.3337
19.3376
19.3416
19.345
19.3473
19.3486
19.3493
19.3487
19.3465
19.3418
19.3353
19.3163
19.1531
19.1546
19.1576
19.1614
19.1653
19.1691
19.1725
19.1749
19.1764
19.1773
19.177
19.1753
19.1713
19.1657
19.1493
18.9862
18.9875
18.9904
18.9939
18.9975
19.0011
19.0043
19.0068
19.0084
19.0094
19.0093
19.008
19.0049
19.0007
18.9807
18.8212
18.8225
18.8253
18.8287
18.8323
18.8358
18.8391
18.8418
18.8437
18.8448
18.8449
18.844
18.8414
18.839
18.8248
18.6589
18.6601
18.6628
18.6662
18.6696
18.6732
18.6765
18.6795
18.6816
18.6827
18.683
18.6821
18.6795
18.6768
18.6602
18.5002
18.5013
18.5039
18.5071
18.5104
18.5138
18.5171
18.5202
18.5223
18.5233
18.5235
18.5226
18.5196
18.5162
18.5014
18.343
18.3442
18.3467
18.3499
18.3532
18.3567
18.3601
18.3634
18.3655
18.3666
18.367
18.3664
18.3641
18.3614
18.348
18.1882
18.1894
18.1919
18.1951
18.1984
18.202
18.2056
18.2089
18.2112
18.2126
18.2134
18.2135
18.2123
18.2114
18.203
18.0365
18.0376
18.0401
18.0431
18.0464
18.0499
18.0535
18.0568
18.059
18.0605
18.0615
18.0618
18.0609
18.0601
18.0482
17.8868
17.8878
17.8902
17.8932
17.8964
17.8998
17.9032
17.9063
17.9084
17.9098
17.9107
17.9108
17.9095
17.9084
17.8962
17.7377
17.7388
17.7411
17.7441
17.7473
17.7507
17.754
17.7571
17.7592
17.7606
17.7616
17.7617
17.7604
17.7596
17.7495
17.5907
17.5918
17.594
17.5969
17.6
17.6033
17.6066
17.6096
17.6118
17.6134
17.6145
17.6149
17.614
17.6134
17.6086
17.4462
17.4471
17.4492
17.4519
17.4549
17.458
17.4611
17.464
17.4663
17.468
17.4693
17.4699
17.4694
17.4691
17.4669
17.3012
17.3021
17.3043
17.3069
17.3099
17.313
17.3161
17.3191
17.3217
17.3236
17.3252
17.3263
17.3267
17.3267
17.3325
17.1567
17.1577
17.1597
17.1623
17.1652
17.1683
17.1715
17.1745
17.1774
17.1797
17.1814
17.1828
17.1838
17.1836
17.1823
17.0135
17.0143
17.0163
17.0188
17.0215
17.0244
17.0275
17.0305
17.0335
17.0358
17.0374
17.0389
17.04
17.0404
17.0371
16.8694
16.8702
16.8721
16.8746
16.8773
16.8802
16.8833
16.8865
16.8896
16.892
16.8937
16.8953
16.8966
16.8982
16.8989
16.7249
16.7257
16.7276
16.7301
16.7328
16.7357
16.7389
16.7422
16.7454
16.7479
16.7499
16.7517
16.7533
16.7547
16.753
16.5811
16.5818
16.5836
16.5859
16.5885
16.5914
16.5945
16.5978
16.601
16.6036
16.6055
16.6075
16.6091
16.6104
16.6045
16.4357
16.4365
16.4383
16.4406
16.4432
16.4462
16.4494
16.4527
16.4561
16.4589
16.4613
16.464
16.467
16.4713
16.4736
16.2892
16.29
16.2917
16.294
16.2967
16.2997
16.303
16.3065
16.31
16.313
16.3158
16.3191
16.3227
16.3279
16.3209
16.1414
16.1422
16.1439
16.1462
16.1488
16.1517
16.155
16.1585
16.1621
16.1653
16.1683
16.1718
16.1756
16.1821
16.1813
15.9923
15.993
15.9946
15.9968
15.9993
16.0022
16.0054
16.0088
16.0124
16.0157
16.019
16.0231
16.0275
16.0352
16.0351
15.8396
15.8403
15.8419
15.844
15.8465
15.8494
15.8527
15.8562
15.8599
15.8635
15.8672
15.8719
15.877
15.8856
15.8859
15.684
15.6846
15.6862
15.6883
15.6907
15.6935
15.6968
15.7003
15.7042
15.7081
15.7124
15.7178
15.724
15.7344
15.7372
15.5239
15.5245
15.526
15.5281
15.5305
15.5334
15.5366
15.5403
15.5444
15.5488
15.5537
15.5598
15.5672
15.5793
15.5849
15.3595
15.3601
15.3616
15.3635
15.3658
15.3686
15.3719
15.3757
15.38
15.3849
15.3905
15.3976
15.4064
15.421
15.4301
15.1885
15.1891
15.1905
15.1925
15.1948
15.1976
15.201
15.2049
15.2095
15.215
15.2212
15.2288
15.2382
15.2537
15.2581
15.0115
15.012
15.0133
15.0151
15.0174
15.0202
15.0236
15.0276
15.0326
15.0387
15.0456
15.0542
15.0646
15.0813
15.1016
14.8255
14.826
14.8273
14.8292
14.8315
14.8344
14.838
14.8426
14.8483
14.8555
14.8641
14.8751
14.8892
14.9097
14.9416
14.629
14.6295
14.6308
14.6327
14.6351
14.6382
14.6423
14.6475
14.6543
14.663
14.6738
14.6878
14.7063
14.7312
14.7705
14.42
14.4205
14.4217
14.4236
14.4261
14.4295
14.434
14.44
14.448
14.4586
14.472
14.4896
14.5132
14.5436
14.592
14.1926
14.193
14.1942
14.196
14.1987
14.2025
14.2077
14.215
14.2249
14.2382
14.2556
14.2785
14.3093
14.3482
14.4081
13.9444
13.9449
13.9461
13.9482
13.9512
13.9556
13.962
13.971
13.9835
14.0008
14.0237
14.0542
14.0951
14.1465
14.2248
13.6517
13.6522
13.6534
13.6557
13.6595
13.6656
13.6746
13.6878
13.7063
13.7318
13.7655
13.8094
13.8662
13.9345
14.0381
13.3493
13.3496
13.351
13.3537
13.3581
13.3654
13.3765
13.3932
13.4174
13.4513
13.4967
13.5557
13.6304
13.7161
13.8334
12.8445
12.845
12.847
12.8524
12.8631
12.8811
12.9087
12.9486
13.003
13.0737
13.1607
13.2628
13.3787
13.5003
13.6458
12.5927
12.5934
12.5925
12.5993
12.6122
12.6325
12.6627
12.7061
12.7657
12.8438
12.941
13.056
13.1872
13.3263
13.4722
10.7943
10.7201
10.7833
10.8706
10.9842
11.1357
11.333
11.5756
11.8553
12.1551
12.4522
12.7236
12.9592
13.1611
13.3365
11.8753
18.0382
13.6449
10.7523
4.01132
15.9948
13.8848
18.4582
3.6316
10.7083
9.38178
20.4283
7.14613
18.1307
15.2119
13.6548
12.7669
12.5232
15.8532
10.7609
14.1357
15.0241
14.8165
25.5874
15.4574
11.1554
12.679
12.6249
19.914
12.5087
10.056
14.3186
13.5396
22.6374
13.2917
12.4501
7.53408
19.1645
4.64504
13.5442
18.1511
11.5027
17.6632
13.5666
15.2433
12.2831
25.9659
11.9022
13.29
15.92
19.359
14.6872
14.7132
16.1412
11.786
13.7333
9.75779
11.8958
21.3915
17.2468
12.2357
21.3019
16.2093
13.9631
15.7897
6.9857
15.048
19.6399
9.91519
22.9573
12.3014
11.471
30.1184
15.8915
10.6297
14.5522
10.3865
12.9288
14.8491
24.8579
12.5557
9.19785
12.0007
13.5092
19.0954
8.97724
12.4826
9.03445
19.3212
13.466
16.767
13.3445
14.1575
18.487
6.5273
13.6422
15.9781
15.621
15.022
15.1465
7.71963
24.4835
12.4878
9.62308
18.3641
9.40582
13.0216
12.7632
12.9865
21.3212
17.3845
13.2047
17.9862
11.8548
15.2812
10.6068
12.6225
18.7168
5.8684
13.5784
6.98433
13.7299
8.66915
17.9023
12.0421
12.3421
19.2353
16.7798
4.91316
10.9479
21.7871
12.7301
3.11919
13.446
15.2424
18.3114
4.0294
16.3076
16.3709
15.4765
12.334
13.2637
12.2635
11.3346
19.5699
15.4417
11.8698
13.1983
15.8402
17.9915
13.4341
10.895
12.9232
19.7262
11.4014
16.1259
12.915
12.3704
16.0658
21.6742
12.5336
14.5872
12.6198
4.32155
14.1167
14.2726
13.8578
1.41179
16.4691
12.8291
15.0653
11.754
14.866
9.89376
13.4219
12.2464
13.2041
12.4565
21.4845
10.1643
8.47969
19.3408
20.0546
10.9495
11.7571
12.1539
12.8271
22.7073
12.8646
12.406
20.6161
13.7734
5.70616
19.1637
13.5076
20.7392
10.4314
12.1236
10.0287
21.7772
11.3279
14.769
12.3474
14.2059
19.0398
17.0766
10.5841
23.3188
11.4413
14.6302
12.2543
14.5953
21.2695
8.39595
18.3684
24.8081
20.8835
13.6644
17.7881
20.165
19.6158
15.6917
13.4694
13.6236
18.9307
6.4654
18.9716
12.3299
10.3144
13.2656
15.1034
6.82219
15.0522
14.6936
8.61249
15.7062
14.0105
17.7494
14.1775
12.6448
11.9699
12.228
13.6119
9.76087
11.3781
12.1521
6.8354
16.5881
7.46724
11.371
21.898
15.2853
11.2838
15.8593
12.1007
17.8938
17.3045
16.5476
16.8014
13.4521
9.28054
17.9646
6.24315
13.885
11.2548
13.7618
11.5523
8.03057
16.5332
12.6721
24.2797
11.5064
19.6432
8.16437
13.38
8.92943
16.0483
18.6657
9.24432
14.8161
9.48195
13.3362
16.6019
13.3342
18.1827
13.254
10.0213
6.54647
17.9994
3.47258
8.68914
15.602
19.8852
13.996
21.7227
1.96243
9.82413
12.7142
14.9521
15.2643
15.2318
13.0281
17.4676
15.3193
13.0861
7.52764
13.1643
9.78455
13.4529
16.3867
13.4719
13.46
18.3945
12.1251
7.76316
14.6522
10.5002
26.3102
12.509
9.77187
13.1483
17.9658
7.46633
12.9175
8.62097
13.942
13.5351
13.2666
13.3809
5.82058
14.3334
10.2843
19.1804
16.5569
9.53237
13.1836
16.7118
15.2012
24.338
11.4032
19.3216
12.8634
17.8745
13.9525
15.0421
10.0155
15.1062
10.2231
23.9943
14.099
4.85914
9.94029
23.4332
16.2197
22.1048
16.1531
16.1536
13.8114
16.4044
12.1375
13.9889
12.9571
13.0649
18.4116
14.5137
16.9961
13.3828
15.1652
13.2143
13.8782
8.47217
12.0861
14.2146
14.0087
12.1384
12.9497
14.8186
20.1269
2.1716
10.6538
20.0149
9.72033
11.9712
14.6621
18.9853
17.2047
14.1653
16.8412
13.2638
10.6082
15.2641
14.8832
14.974
7.95986
13.2496
5.91432
19.1265
16.2078
15.1998
11.6348
14.5313
6.63929
15.3483
23.3145
14.1048
7.20058
14.9105
13.6434
13.3238
16.9586
9.36977
9.96688
17.7442
22.7628
10.4095
14.8632
11.6611
13.3674
14.7454
16.7469
11.9717
18.4553
11.9484
12.625
9.04623
19.1773
20.5541
13.8169
17.6979
16.8609
11.1319
15.5788
6.06953
18.0019
13.9508
17.0773
11.0584
11.9043
5.45429
12.7996
16.1844
12.5457
13.9747
11.9044
11.9882
9.23118
21.2441
12.286
9.00557
22.2115
16.3946
22.7125
15.8482
14.6535
13.5557
16.4289
1.19565
17.4988
17.0406
7.92107
8.50018
9.1959
12.9525
12.4099
12.1612
9.0909
20.8496
12.608
12.1228
11.167
18.6873
12.5684
8.67321
19.3304
12.4278
9.85718
13.6221
5.87905
26.1425
10.8934
14.9094
15.3346
16.0278
11.4479
10.5358
16.7283
19.5046
10.3229
15.329
23.4347
17.0915
15.1226
13.0136
14.5217
18.9168
11.7228
14.4199
21.5632
7.54959
9.48371
16.0184
19.2225
14.453
20.3778
18.3935
9.94676
7.89269
11.7915
9.3537
8.45946
8.85304
14.9685
13.3641
12.7101
12.4046
15.262
8.2946
21.9805
12.2255
21.0372
12.2655
20.5904
12.3278
20.5137
8.88127
17.6855
9.62156
13.5831
13.808
1.65998
12.2568
13.3574
12.8753
17.9308
15.6614
13.3963
12.9556
15.9714
19.8528
15.5827
11.632
21.106
11.9596
17.9923
17.6458
14.9089
14.1657
12.8522
16.7358
38.8105
20.6419
14.8336
11.7651
10.1688
24.3122
13.1179
13.027
13.7405
15.96
15.3468
11.7561
11.8775
10.8721
12.1864
16.7618
22.2176
15.1942
15.0869
8.91516
8.96333
10.9187
13.817
13.3979
19.6732
12.4341
13.206
13.7445
11.9329