/*--------------------------------*- C++ -*----------------------------------*\
| =========                 |                                                 |
| \\      /  F ield         | OpenFOAM: The Open Source CFD Toolbox           |
|  \\    /   O peration     | Version:  2.3.0                                 |
|   \\  /    A nd           | Web:      www.OpenFOAM.org                      |
|    \\/     M anipulation  |                                                 |
\*---------------------------------------------------------------------------*/
FoamFile
{
    version     2.0;
    format      ascii;
    class       surfaceScalarField;
    location    "250";
    object      phi;
}
// * * * * * * * * * * * * * * * * * * * * * * * * * * * * * * * * * * * * * //

dimensions      [0 3 -1 0 0 0 0];

internalField   nonuniform List<scalar> 
15537
(
-0.00313294
-0.0203878
0.0222449
0.00127577
-0.00457612
-0.0171804
0.0186236
-0.00568085
-0.0145011
0.0156059
-0.00650429
-0.0122644
0.0130878
-0.00708522
-0.0103979
0.0109788
-0.00745003
-0.00883964
0.00920445
-0.00761864
-0.00753711
0.00770574
-0.00760843
-0.00644727
0.00643706
-0.0074389
-0.00553359
0.00536407
-0.00712913
-0.00476764
0.00445789
-0.00670024
-0.00412502
0.00369614
-0.00617168
-0.00358641
0.00305786
-0.00556233
-0.00313514
0.00252581
-0.00488994
-0.0027571
0.00208472
-0.00244076
-0.00414909
0.00169992
-0.00284271
-0.018743
0.00119792
-0.00408003
-0.0159431
-0.00497692
-0.0136043
-0.00559092
-0.0116504
-0.00597035
-0.0100185
-0.00615423
-0.00865576
-0.00617233
-0.00751901
-0.00604869
-0.00657091
-0.00580187
-0.00578041
-0.0054477
-0.00512181
-0.00499987
-0.00457285
-0.00447057
-0.00411571
-0.00387088
-0.00373483
-0.00321057
-0.00341742
-0.00315308
-0.00249825
-0.00258611
-0.0172635
0.00110663
-0.00369173
-0.0148375
-0.00448253
-0.0128135
-0.00500796
-0.0111249
-0.00530966
-0.00971675
-0.00542307
-0.00854235
-0.00537894
-0.00756314
-0.00520319
-0.00674666
-0.00491736
-0.00606624
-0.00454045
-0.00549872
-0.00408742
-0.00502588
-0.00357155
-0.00463158
-0.00300336
-0.00430302
-0.00239198
-0.0040288
-0.00380019
-0.00174487
-0.0023197
-0.0159409
0.000997104
-0.00330022
-0.013857
-0.00399456
-0.0121191
-0.00444925
-0.0106703
-0.00470371
-0.00946229
-0.00479081
-0.00845525
-0.00473809
-0.00761586
-0.00456876
-0.006916
-0.00430186
-0.00633313
-0.00395396
-0.00584662
-0.00353869
-0.00544115
-0.00306722
-0.00510305
-0.00254933
-0.00482091
-0.00199264
-0.0045855
-0.00438893
-0.0014039
-0.00208115
-0.0147523
0.000892597
-0.00295859
-0.0129795
-0.00357628
-0.0115014
-0.00397732
-0.0102692
-0.00419725
-0.00924235
-0.00426627
-0.00838623
-0.0042097
-0.00767242
-0.0040482
-0.0070775
-0.00380014
-0.00658119
-0.00347945
-0.00616731
-0.0030986
-0.00582201
-0.00266781
-0.00553384
-0.0021957
-0.00529301
-0.00168904
-0.00509216
-0.00492398
-0.00115399
-0.00186599
-0.0136822
0.000795909
-0.0026544
-0.0121911
-0.0032079
-0.0109479
-0.00356511
-0.00991201
-0.00375925
-0.00904821
-0.00381736
-0.00832813
-0.0037622
-0.00772758
-0.00361282
-0.00722689
-0.00338509
-0.00680891
-0.00309213
-0.00646027
-0.00274499
-0.00616915
-0.00235284
-0.00592599
-0.0019232
-0.00572265
-0.00146265
-0.00555271
-0.00541048
-0.000976152
-0.00167513
-0.0127161
0.000708985
-0.0023859
-0.0114803
-0.00288379
-0.01045
-0.00320444
-0.00959136
-0.00337751
-0.00887515
-0.0034277
-0.00827793
-0.00337535
-0.00777993
-0.00323822
-0.00736402
-0.00302996
-0.00701717
-0.00276276
-0.00672747
-0.00244664
-0.00648526
-0.00208986
-0.00628277
-0.00169902
-0.0061135
-0.00128017
-0.00597155
-0.0058527
-0.000837949
-0.00150558
-0.0118426
0.00063207
-0.00214778
-0.0108382
-0.0025972
-0.0100006
-0.00288635
-0.0093022
-0.00304163
-0.00871987
-0.00308559
-0.00823397
-0.00303692
-0.00782861
-0.00291115
-0.00748979
-0.00272124
-0.00720708
-0.00247796
-0.00697076
-0.00219012
-0.00677309
-0.00186559
-0.0066073
-0.00151033
-0.00646877
-0.0011295
-0.00635238
-0.00625478
-0.000727423
-0.00135497
-0.0110517
0.000564088
-0.00193638
-0.0102567
-0.00234299
-0.009594
-0.00260384
-0.00904135
-0.00274369
-0.00858002
-0.00278257
-0.00819508
-0.00273783
-0.00787335
-0.00262267
-0.00760495
-0.00244978
-0.00737998
-0.00222829
-0.00719224
-0.00196681
-0.00703457
-0.00167135
-0.00690276
-0.0013483
-0.00679182
-0.00100208
-0.0066986
-0.00662023
-0.000636633
-0.0012212
-0.0103349
0.000504365
-0.00174766
-0.00973028
-0.00211571
-0.00922595
-0.00235186
-0.0088052
-0.00247824
-0.00845364
-0.00251306
-0.00816027
-0.00247155
-0.00791486
-0.00236707
-0.00770943
-0.00220943
-0.00753761
-0.00200808
-0.0073936
-0.00176989
-0.00727275
-0.00150141
-0.00717123
-0.0012078
-0.00708544
-0.00089293
-0.00701346
-0.0069525
-0.000560657
-0.00110178
-0.00968479
0.000451693
-0.00157903
-0.00925303
-0.00191266
-0.00889231
-0.00212667
-0.00859119
-0.00224083
-0.00833948
-0.00227215
-0.00812895
-0.00223424
-0.00795276
-0.00213861
-0.00780506
-0.00199515
-0.00768107
-0.00181181
-0.00757694
-0.00159536
-0.0074892
-0.00135154
-0.00741506
-0.0010843
-0.00735268
-0.000798155
-0.00729961
-0.00725461
-0.000496052
-0.000994993
-0.00909504
0.000405252
-0.00142795
-0.00882008
-0.00173049
-0.00858977
-0.00192436
-0.00839733
-0.00202762
-0.00823622
-0.00205578
-0.00810079
-0.00202115
-0.0079874
-0.00193442
-0.00789179
-0.00180387
-0.00781161
-0.00163726
-0.00774355
-0.00144037
-0.00768609
-0.00121824
-0.00763718
-0.000975488
-0.00759543
-0.000715222
-0.00755987
-0.0075292
-0.00044063
-0.000898708
-0.00855993
0.000363593
-0.00129196
-0.00842682
-0.00156631
-0.00831542
-0.00174235
-0.00822128
-0.00183634
-0.00814224
-0.00186149
-0.00807564
-0.00182986
-0.00801903
-0.00175066
-0.00797099
-0.00163213
-0.00793014
-0.00148052
-0.00789516
-0.00130132
-0.00786529
-0.00109971
-0.00783879
-0.000878907
-0.00781624
-0.000642307
-0.00779647
-0.00777889
-0.000392617
-0.000812723
0.000326198
-0.00807341
-0.00116969
-0.00806986
-0.00141881
-0.0080663
-0.00157864
-0.00806146
-0.00166339
-0.00805749
-0.00168657
-0.00805246
-0.00165764
-0.00804796
-0.00158561
-0.00804303
-0.00147779
-0.00803796
-0.00134006
-0.00803289
-0.00117713
-0.00802823
-0.000993473
-0.00802244
-0.000792737
-0.00801697
-0.0005777
-0.00801151
-0.000350837
-0.00800575
-0.00325582
-0.00241846
0.00152521
-0.00241968
-0.00268317
0.00184704
-0.00162293
-0.00300457
0.00220783
-0.000864829
-0.00339398
0.00263588
-0.000149721
-0.00386562
0.00315052
0.000512922
-0.00443624
0.0037736
0.00110742
-0.00512586
0.00453136
0.0016109
-0.00595898
0.0054555
0.00199131
-0.00696363
0.00658322
0.00220731
-0.00817395
0.00795794
0.0022095
-0.00963085
0.00962865
0.00194116
-0.0113828
0.0116511
0.00134232
-0.0134904
0.0140893
0.000348558
-0.0160262
0.01702
-0.0190791
0.0205368
-0.00110912
-0.00177246
-0.00314425
-0.00106779
-0.00338785
-0.000391907
-0.00368045
0.000245616
-0.0040315
0.00083302
-0.00445302
0.00135589
-0.00495911
0.0017967
-0.00556666
0.00213368
-0.00629597
0.00234252
-0.00717247
0.0023942
-0.00822563
0.00225592
-0.00949257
0.00189003
-0.0110169
0.00125154
-0.0128519
0.000286357
-0.015061
-0.0177204
-0.00107235
-0.00109654
-0.00379257
-0.000479691
-0.0040047
9.94233e-05
-0.00425956
0.000633661
-0.00456574
0.00111408
-0.00493345
0.0015303
-0.00537533
0.00186946
-0.00590582
0.00211646
-0.00654296
0.00225227
-0.00730828
0.0022538
-0.00822716
0.00209258
-0.00933134
0.00173326
-0.0106576
0.0011326
-0.0122513
0.000238612
-0.014167
-0.0164696
-0.00101223
-0.000813962
-0.00438251
-0.00025358
-0.00456508
0.000271613
-0.00478475
0.000754812
-0.00504894
0.00118762
-0.00536626
0.00156009
-0.00574779
0.00186012
-0.00620585
0.00207299
-0.00675584
0.00218142
-0.00741671
0.0021641
-0.00820983
0.001995
-0.00916225
0.00164352
-0.0103061
0.00107212
-0.0116799
0.000235062
-0.01333
-0.0153126
-0.000921909
-0.000618583
-0.00491792
-0.000110612
-0.00507305
0.000364633
-0.00526
0.000800617
-0.00548492
0.00118991
-0.00575555
0.00152286
-0.00608074
0.00178877
-0.00647176
0.00197461
-0.00694167
0.00206359
-0.00750569
0.00203708
-0.00818332
0.00187193
-0.0089971
0.00153959
-0.00997373
0.00100669
-0.011147
0.000232193
-0.0125555
-0.014247
-0.00083336
-0.00048942
-0.00540465
-2.78413e-05
-0.00553463
0.000403645
-0.00569149
0.000799269
-0.00588054
0.0011517
-0.00610798
0.00145271
-0.00638176
0.00169219
-0.00671123
0.00185738
-0.00710686
0.00193416
-0.00758248
0.00190474
-0.0081539
0.00174772
-0.00884007
0.00143806
-0.00966407
0.000944583
-0.0106535
0.000230328
-0.0118412
-0.0132677
-0.000749056
-0.000395592
-0.005847
2.38688e-05
-0.00595409
0.000415826
-0.00608344
0.000774803
-0.00623952
0.00109452
-0.0064277
0.00136705
-0.00665428
0.00158294
-0.00692712
0.00173147
-0.00725539
0.00179861
-0.00764962
0.00176878
-0.00812408
0.00162226
-0.00869355
0.00133585
-0.00937766
0.000881663
-0.0101993
0.000226429
-0.011186
-0.0123706
-0.000670639
-0.000325326
-0.0062491
5.58783e-05
-0.0063353
0.000412026
-0.00643959
0.000738129
-0.00656563
0.00102835
-0.00671792
0.00127561
-0.00690155
0.00147097
-0.00712248
0.00160469
-0.0073891
0.00166466
-0.00770959
0.00163537
-0.00809479
0.00149978
-0.00855797
0.00123653
-0.00911441
0.000820194
-0.00978298
0.000220032
-0.0105858
-0.0115497
-0.000600855
-0.000271069
-0.00661466
7.541e-05
-0.00668178
0.000399032
-0.00676321
0.000695382
-0.00686197
0.000958875
-0.00698141
0.00118308
-0.00712575
0.00136061
-0.00730001
0.00148141
-0.0075099
0.00153472
-0.0077629
0.00150696
-0.00806703
0.00138219
-0.00843319
0.00114103
-0.00887326
0.000760053
-0.009402
0.000211613
-0.0100374
-0.0108001
-0.000537963
-0.000228292
-0.00694703
8.66265e-05
-0.0069967
0.000380763
-0.00705735
0.000649976
-0.00713119
0.000889463
-0.0072209
0.0010932
-0.00732949
0.0012539
-0.00746071
0.00136346
-0.00761946
0.0014111
-0.00781053
0.00138528
-0.00804122
0.0012709
-0.00831881
0.00105017
-0.00865252
0.000702127
-0.00905396
0.000201507
-0.00953677
-0.0101162
-0.000482389
-0.000194007
-0.00724907
9.22361e-05
-0.00728294
0.000359637
-0.00732475
0.000604412
-0.00737596
0.000821879
-0.00743837
0.00100686
-0.00751447
0.00115284
-0.00760669
0.001252
-0.00771862
0.0012953
-0.00785383
0.00127113
-0.00801704
0.00116625
-0.00821393
0.000964735
-0.00845101
0.000647289
-0.00873652
0.000190575
-0.00908006
-0.00949277
-0.000432894
-0.00016603
-0.00752367
9.41775e-05
-0.00754314
0.000337194
-0.00756777
0.000559623
-0.00759839
0.000757313
-0.00763606
0.000925467
-0.00768263
0.00105795
-0.00773917
0.00114786
-0.00780854
0.00118679
-0.00789276
0.0011644
-0.00799465
0.00106855
-0.00811809
0.00088484
-0.0082673
0.000595523
-0.0084472
0.000179192
-0.00866373
-0.00892483
-0.000388743
-0.000142947
-0.00777334
9.35311e-05
-0.00777962
0.000314379
-0.00778861
0.00051659
-0.0078006
0.000696425
-0.00781589
0.000848946
-0.00783515
0.000969353
-0.00785958
0.00105093
-0.00789012
0.00108603
-0.00792785
0.00106546
-0.00797408
0.000978218
-0.00803085
0.000810544
-0.00809962
0.000546828
-0.00818349
0.000167789
-0.00828469
-0.00840731
-0.000349737
-0.000123702
-0.00800048
9.10907e-05
-0.00799441
0.000291867
-0.00798939
0.000475704
-0.00798444
0.000638919
-0.00797911
0.000777569
-0.0079738
0.000887008
-0.00796902
0.000961197
-0.00796431
0.000993108
-0.00795976
0.000974285
-0.00795525
0.000894503
-0.00795106
0.000741826
-0.00794695
0.000501654
-0.00794331
0.000156529
-0.00793956
-0.000314164
-0.00793661
0.00158124
0.0196994
-0.0213544
7.38008e-05
0.00278076
0.0165047
-0.0177042
0.00359559
0.0138274
-0.0146423
0.00408636
0.0115793
-0.0120701
0.00430637
0.00969195
-0.00991196
0.00430466
0.00810968
-0.00810797
0.00412537
0.00678617
-0.00660689
0.00380745
0.00568127
-0.00536335
0.00338446
0.00475984
-0.00433685
0.00288504
0.00399069
-0.00349126
0.00233369
0.00334589
-0.00279455
0.00175245
0.00279935
-0.00221812
0.00116145
0.00232646
-0.00173546
0.000571397
0.00190998
-0.00131993
0.0015806
-4.68575e-05
-0.000962347
0.00143245
0.0181972
6.97727e-05
0.00252316
0.015414
0.00326865
0.0130819
0.00372374
0.0111242
0.00393644
0.00947924
0.0039494
0.00809672
0.00379997
0.00693559
0.00352143
0.00595981
0.0031426
0.00513867
0.00268855
0.00444474
0.00218163
0.00385281
0.00164186
0.00333912
0.00108683
0.0028815
0.000524972
0.00247183
0.00216045
-5.48785e-05
0.00130285
0.0168298
6.4512e-05
0.00229731
0.0144195
0.00297943
0.0123998
0.00339925
0.0107044
0.00359957
0.00927892
0.00361803
0.00807827
0.00348787
0.00706575
0.00323825
0.00620943
0.00289483
0.00548209
0.00248024
0.00485934
0.00201433
0.00431871
0.0015155
0.00383795
0.000999485
0.00339751
0.000475681
0.00299564
0.00269599
-5.9856e-05
0.00118358
0.0155874
5.88906e-05
0.00208826
0.0135148
0.00270954
0.0117785
0.00309351
0.0103204
0.00327915
0.00909328
0.0033
0.00805742
0.0031859
0.00717985
0.00296238
0.00643296
0.00265206
0.00579241
0.00227484
0.00523656
0.0018488
0.00474475
0.00139035
0.0042964
0.000914255
0.00387361
0.000430562
0.00347933
0.00318811
-6.15606e-05
0.00107396
0.0144591
5.42618e-05
0.00189587
0.0126929
0.00246152
0.0112129
0.00281261
0.00996936
0.00298422
0.00892167
0.00300688
0.00803476
0.0029066
0.00728013
0.00270617
0.00663339
0.00242557
0.00607301
0.00208258
0.00557956
0.00169336
0.00513397
0.00127292
0.00471684
0.000835159
0.00431137
0.000390377
0.00392411
0.00363995
-6.14588e-05
0.000974434
0.0134336
5.10739e-05
0.00172204
0.0119453
0.00223702
0.0106979
0.00255749
0.00964889
0.00271591
0.00876325
0.00273904
0.00801162
0.00265035
0.00736882
0.00247016
0.00681358
0.00221617
0.006327
0.00190429
0.00589143
0.00154901
0.00548925
0.00116418
0.00510167
0.000762547
0.004713
0.000354325
0.00433233
0.00405436
-6.00885e-05
0.000884321
0.0125017
4.7637e-05
0.00156376
0.0112659
0.0020327
0.0102289
0.00232553
0.00935605
0.0024711
0.00861768
0.00249403
0.00798869
0.00241543
0.00744743
0.00225307
0.00697594
0.00202311
0.00655697
0.00173958
0.00617496
0.00141565
0.00581317
0.00106372
0.00545361
0.000695844
0.00508088
0.000321881
0.0047063
0.00443398
-5.77408e-05
0.000802972
0.0116553
4.33869e-05
0.00142073
0.0106481
0.00184726
0.00980241
0.0021143
0.00908901
0.00224799
0.00848399
0.00227044
0.00796624
0.00220027
0.0075176
0.0020541
0.00712212
0.00184574
0.00676532
0.00158814
0.00643256
0.00129291
0.0061084
0.000971466
0.00577505
0.00063485
0.00541749
0.000292263
0.00504889
0.00478143
-5.51815e-05
0.000728636
0.0108851
4.1533e-05
0.00129041
0.0100864
0.00167891
0.00941391
0.00192222
0.00884571
0.00204469
0.00836152
0.0020664
0.00794453
0.00200394
0.00758006
0.00187201
0.00725405
0.00168339
0.00695394
0.00144929
0.00666666
0.00118042
0.00637728
0.000886976
0.00606849
0.000579125
0.00572534
0.000265755
0.00536226
0.00509948
-5.22949e-05
0.000661382
0.0101857
3.80481e-05
0.00117225
0.00957549
0.0015257
0.00906046
0.0017478
0.00862361
0.00185984
0.00824948
0.00188027
0.0079241
0.00182471
0.00763562
0.00170564
0.00737312
0.00153482
0.00712476
0.00132237
0.00687911
0.00107769
0.00662196
0.000810078
0.00633611
0.0005288
0.00600662
0.000241925
0.00564913
0.00539058
-4.91831e-05
0.000600522
0.00954992
3.5266e-05
0.0010651
0.00911091
0.00138661
0.00873894
0.00158882
0.00842141
0.00169156
0.00814673
0.00171088
0.00790478
0.00166109
0.00768542
0.00155376
0.00748044
0.0013991
0.00727943
0.00120637
0.00707183
0.000984093
0.00684424
0.000740247
0.00657995
0.000482904
0.00626396
0.000220232
0.0059118
0.00565762
-4.68035e-05
0.000545225
0.00897177
3.29253e-05
0.000967771
0.00868837
0.00126016
0.00844655
0.00144421
0.00823736
0.00153807
0.00805287
0.00155643
0.00788642
0.0015118
0.00773004
0.00141493
0.00757731
0.00127486
0.0074195
0.00110015
0.00724655
0.000898824
0.00704557
0.000677573
0.0068012
0.000443571
0.00649797
0.000202445
0.00615293
0.00590311
-4.30436e-05
0.000495176
0.00844643
3.01697e-05
0.000879271
0.00830427
0.00114532
0.0081805
0.00131307
0.00806961
0.00139846
0.00796749
0.00141572
0.00786916
0.00137566
0.0077701
0.00128816
0.00766481
0.00116118
0.00754648
0.00100285
0.00740488
0.000821104
0.00722731
0.000621697
0.00700061
0.000404972
0.00671469
0.000184053
0.00637385
0.00613072
-4.35601e-05
0.000449653
2.80506e-05
0.00796872
0.000799026
0.0079549
0.0010411
0.00793842
0.00119356
0.00791715
0.00127159
0.00788946
0.00128736
0.00785339
0.00125163
0.00780583
0.00117318
0.00774326
0.00105758
0.00766208
0.000911984
0.00755047
0.000749848
0.00738944
0.000573015
0.00717744
0.00038241
0.0069053
0.000176768
0.00657949
-3.98198e-05
0.00634731
-0.000663598
0.00163454
-0.0010178
-0.00128376
0.00202543
-0.00140527
-0.00191357
0.00247762
-0.00184781
-0.00253328
0.00297921
-0.0023595
-0.00311927
0.00355549
-0.0029695
-0.00364707
0.00423244
-0.00370464
-0.00408891
0.00503475
-0.00459292
-0.00441404
0.00598787
-0.00566274
-0.00458659
0.00711877
-0.00694622
-0.00456829
0.00845793
-0.00847623
-0.00431878
0.010041
-0.0102905
-0.00379598
0.0119128
-0.0124356
-0.00295275
0.014132
-0.0149753
-0.00173336
0.0167739
-0.0179933
0.0199267
-0.0215912
-6.89045e-05
-0.00064153
0.00222119
-0.00123136
0.00261525
-0.00182234
0.0030686
-0.00239757
0.00355444
-0.00293491
0.00409282
-0.00341196
0.0047095
-0.00380424
0.00542704
-0.00408493
0.00626856
-0.00422472
0.00725856
-0.00419162
0.00842483
-0.00395186
0.00980128
-0.00346821
0.0114291
-0.00269782
0.0133617
-0.0015875
0.0156636
0.0184126
-7.33461e-05
-0.000605374
0.0027667
-0.00115579
0.00316567
-0.00170482
0.00361764
-0.00223538
0.00408499
-0.00272766
0.00458511
-0.00316094
0.00514277
-0.00351374
0.00577984
-0.00376236
0.00651718
-0.00388156
0.00737775
-0.00384381
0.00838708
-0.00361905
0.00957652
-0.00317397
0.0109841
-0.00246916
0.0126568
-0.00145646
0.0146509
0.0170332
-7.70845e-05
-0.00056487
0.00327001
-0.00107427
0.00367507
-0.00158064
0.00412401
-0.00206731
0.00457166
-0.00251592
0.00503373
-0.00290808
0.00553493
-0.00322477
0.00609652
-0.00344541
0.00673783
-0.00354838
0.00748072
-0.00350968
0.00834839
-0.00330261
0.00936945
-0.00289665
0.0105781
-0.002255
0.0120152
-0.00133373
0.0137296
0.0157786
-7.91463e-05
-0.000524298
0.00373285
-0.000993523
0.00414429
-0.001459
0.00458949
-0.00190441
0.00501707
-0.00231289
0.0054422
-0.00266766
0.0058897
-0.00295195
0.00638082
-0.00314872
0.0069346
-0.00323812
0.00757012
-0.00319973
0.00831
-0.00300967
0.0091794
-0.00263964
0.0102081
-0.00205643
0.011432
-0.00121902
0.0128922
0.0146378
-7.82339e-05
-0.00048498
0.00415775
-0.000915948
0.00457526
-0.00134291
0.00501644
-0.00174989
0.00542406
-0.00212133
0.00581364
-0.00244258
0.00621095
-0.0026989
0.00663714
-0.0028744
0.0071101
-0.00295312
0.00764884
-0.00291613
0.008273
-0.00274182
0.00900509
-0.00240497
0.00987122
-0.0018742
0.0109012
-0.00111279
0.0121308
0.0136009
-7.58551e-05
-0.000447445
0.00454745
-0.00084286
0.00497068
-0.0012338
0.00540738
-0.00160504
0.0057953
-0.00194272
0.00615132
-0.00223359
0.00650182
-0.00246433
0.00686788
-0.00262181
0.00726757
-0.00269139
0.00771842
-0.00265612
0.00823774
-0.00249679
0.00884576
-0.00219004
0.00956447
-0.00170758
0.0104187
-0.00101538
0.0114386
0.012658
-7.25215e-05
-0.000412152
0.00490442
-0.000774418
0.00533294
-0.00113177
0.00576474
-0.00147048
0.006134
-0.00177725
0.00645809
-0.00204041
0.00676499
-0.00224869
0.00707616
-0.00239014
0.00740902
-0.00245178
0.00778005
-0.00241881
0.00820476
-0.00227322
0.00870017
-0.00199385
0.0092851
-0.00155499
0.00997987
-0.000925702
0.0108093
0.011801
-6.873e-05
-0.000379365
0.00523149
-0.000710787
0.00566437
-0.00103734
0.00609129
-0.0013458
0.00644246
-0.00162437
0.00673667
-0.00186279
0.0070034
-0.00205056
0.00726393
-0.00217803
0.00753649
-0.00223268
0.00783471
-0.00220176
0.00817383
-0.00206889
0.0085673
-0.00181464
0.00903085
-0.00141568
0.00958091
-0.000843499
0.0102372
0.011022
-6.44171e-05
-0.000348548
0.00553086
-0.000652278
0.0059681
-0.000950511
0.00638952
-0.00123143
0.00672338
-0.00148448
0.00698971
-0.00170003
0.00721895
-0.00186967
0.00743357
-0.00198376
0.00765058
-0.00203279
0.00788374
-0.00200382
0.00814487
-0.00188248
0.00844596
-0.00165118
0.00879955
-0.00128836
0.00921809
-0.000768385
0.00971719
0.0103138
-6.02217e-05
-0.000321088
0.00580514
-0.000598742
0.00624575
-0.000871089
0.00666187
-0.00112642
0.00697871
-0.00135568
0.00721897
-0.00155063
0.00741391
-0.00170365
0.00758659
-0.00180671
0.00775364
-0.00185021
0.00792724
-0.00182328
0.00811793
-0.00171277
0.00833545
-0.00150211
0.00858889
-0.00117227
0.00888825
-0.000699707
0.00924462
0.00966994
-5.58492e-05
-0.000294869
0.00605697
-0.000549459
0.00650034
-0.000798183
0.00691059
-0.00103088
0.0072114
-0.00123864
0.00742674
-0.00141451
0.00758978
-0.00155227
0.00772435
-0.00164445
0.00784582
-0.00168328
0.00796607
-0.00165839
0.00809304
-0.00155767
0.00823474
-0.00136633
0.00839754
-0.00106639
0.00858832
-0.000636757
0.00881499
0.00908474
-5.15573e-05
-0.000274199
0.00628761
-0.000506512
0.00673265
-0.000732899
0.00713698
-0.000943373
0.00742188
-0.00113109
0.00761446
-0.00128883
0.00774751
-0.00141272
0.00784824
-0.00149611
0.00792922
-0.00153096
0.00800091
-0.00150841
0.00807049
-0.00141648
0.00814281
-0.00124222
0.00822328
-0.000969851
0.00831595
-0.000579099
0.00842424
0.00855309
-4.74435e-05
-0.0002501
0.00649789
-0.000464297
0.00694685
-0.000671943
0.00734463
-0.000864243
0.00761418
-0.00103323
0.00778345
-0.00117536
0.00788964
-0.00128585
0.00795874
-0.00136061
0.00800397
-0.00139206
0.00803237
-0.00137122
0.00804965
-0.00128796
0.00805954
-0.0011297
0.00806502
-0.000881834
0.00806808
-0.000526961
0.00806937
-4.33386e-05
0.00806947
0.000271348
0.00142858
0.000393543
0.00196256
0.000502631
0.0024167
0.000613924
0.00294659
0.000730966
0.00357907
0.000852102
0.00433676
0.000972099
0.00524405
0.00108332
0.00632585
0.00117606
0.00761298
0.00124063
0.00913988
0.00127015
0.0109493
0.001263
0.013095
0.00122394
0.0156449
0.00116261
0.018685
0.0223182
0.00108939
0.000123696
0.00130491
0.00014786
0.00193841
0.000191341
0.00237323
0.000254024
0.00288392
0.000329987
0.00350312
0.000415367
0.00425139
0.000506698
0.00515272
0.000599964
0.0062326
0.00069048
0.00752246
0.000773173
0.0090572
0.000842825
0.0108796
0.000894725
0.0130431
0.000925526
0.0156141
0.000934034
0.0186764
0.0223325
0.000919695
0.000184697
0.00112025
0.000234782
0.00188834
0.000264474
0.00234354
0.000296627
0.00285177
0.000335008
0.00346474
0.000380664
0.00420574
0.000433655
0.00509973
0.000492472
0.00617379
0.000554203
0.00746073
0.000614917
0.00899649
0.000670428
0.0108241
0.000717298
0.0129962
0.000753365
0.0155781
0.000777799
0.018652
0.0223192
0.000791121
7.28819e-05
0.00104757
0.000131552
0.00182968
0.000162266
0.00231277
0.000186053
0.00282797
0.000212428
0.00343832
0.000245003
0.00417317
0.000285333
0.00505938
0.000333543
0.00612558
0.000389172
0.00740509
0.000448986
0.00893667
0.000509107
0.010764
0.000564933
0.0129404
0.0006125
0.0155305
0.000649358
0.0186152
0.0222953
0.000673275
-4.45193e-05
0.00109231
2.69038e-05
0.00175826
6.96917e-05
0.00226991
9.64333e-05
0.0028012
0.000120653
0.00341405
0.000148343
0.00414547
0.000181887
0.00502581
0.000222463
0.006085
0.000270083
0.00735746
0.000323728
0.00888303
0.000381082
0.0107066
0.000438798
0.0128827
0.000493066
0.0154762
0.000540726
0.0185675
0.0222542
0.000581799
-5.94405e-05
0.00115169
1.36226e-06
0.00169746
4.8378e-05
0.00222292
7.84092e-05
0.00277117
0.000101251
0.00339123
0.00012371
0.00412302
0.000150013
0.00499952
0.000181385
0.00605364
0.000218711
0.00732014
0.000261731
0.00884001
0.000309346
0.010659
0.000359604
0.0128324
0.000409945
0.0154259
0.00045754
0.0185199
0.0222117
0.000500011
-2.52695e-05
0.00117681
9.15733e-06
0.00166302
4.88849e-05
0.00218323
7.8813e-05
0.00274126
0.00010064
0.00336943
0.000119862
0.0041038
0.00014042
0.00497897
0.000164628
0.00602943
0.000193704
0.00729107
0.000227962
0.00880576
0.000266899
0.0106201
0.000309329
0.01279
0.000353488
0.0153817
0.000397331
0.0184761
0.0221701
0.000438931
-1.09543e-06
0.00117785
1.89576e-05
0.00164295
4.90324e-05
0.00215316
7.62719e-05
0.00271402
9.72193e-05
0.00334849
0.000114693
0.00408632
0.000132053
0.00496162
0.000151682
0.0060098
0.00017512
0.00726763
0.000203123
0.00877775
0.000235671
0.0105875
0.000272021
0.0127536
0.000310944
0.0153428
0.000350819
0.0184362
0.0221312
0.000389768
9.53619e-06
0.00116828
2.45511e-05
0.00162792
4.77859e-05
0.00212993
7.18605e-05
0.00268994
9.20843e-05
0.00332827
0.000108764
0.00406963
0.000124428
0.00494596
0.000141276
0.00599294
0.000161014
0.00724789
0.00018451
0.00875425
0.000212107
0.0105599
0.000243528
0.0127222
0.000277985
0.0153084
0.000314395
0.0183998
0.0220941
0.000351413
1.19033e-05
0.00115635
2.62718e-05
0.00161354
4.58142e-05
0.00211039
6.73213e-05
0.00266843
8.66046e-05
0.00330899
0.000102818
0.00405341
0.00011758
0.0049312
0.000132839
0.00597768
0.000150087
0.00723065
0.000170391
0.00873395
0.000194269
0.0105361
0.000221716
0.0126948
0.000252301
0.0152778
0.000285254
0.0183668
0.0220598
0.000319571
1.14909e-05
0.00114484
2.57097e-05
0.0015993
4.33063e-05
0.0020928
6.28349e-05
0.00264889
8.1124e-05
0.00329071
9.6893e-05
0.00403764
0.000111127
0.00491697
0.000125284
0.00596352
0.000140803
0.00721513
0.000158795
0.00871595
0.000179858
0.010515
0.000204151
0.0126705
0.000231457
0.0152505
0.000261186
0.0183371
0.0220285
0.000292489
1.05268e-05
0.00113431
2.42452e-05
0.00158557
4.06016e-05
0.00207644
5.86047e-05
0.00263088
7.60459e-05
0.00327327
9.14988e-05
0.00402218
0.00010515
0.00490332
0.000118513
0.00595015
0.000132601
0.00720104
0.000149026
0.00869953
0.000167879
0.0104962
0.000189637
0.0126487
0.000214193
0.0152259
0.000241192
0.0183101
0.0219998
0.000269956
9.64694e-06
0.00112466
2.2596e-05
0.00157261
3.79166e-05
0.00206112
5.47345e-05
0.00261406
7.14645e-05
0.00325655
8.64999e-05
0.00400714
9.9872e-05
0.00488995
0.000112631
0.00593739
0.000125933
0.00718774
0.000140767
0.00868469
0.000157845
0.0104791
0.000177523
0.012629
0.000199807
0.0152036
0.000224407
0.0182855
0.0219734
0.000250794
8.89762e-06
0.00111576
2.09714e-05
0.00156054
3.53452e-05
0.00204675
5.12246e-05
0.00259818
6.73589e-05
0.00324041
8.21185e-05
0.00399238
9.5203e-05
0.00487687
0.000107502
0.00592509
0.000120055
0.00717519
0.000133809
0.00867094
0.000149487
0.0104634
0.000167523
0.012611
0.000188058
0.0151831
0.000211037
0.0182625
0.0219479
0.000236467
8.24697e-06
0.00110752
1.9494e-05
0.00154929
3.30118e-05
0.00203324
4.8105e-05
0.00258309
6.36861e-05
0.00322483
7.81729e-05
0.0039779
9.10345e-05
0.00486401
0.000102969
0.00591316
0.000114925
0.00716323
0.000127803
0.00865806
0.000142322
0.0104489
0.000158961
0.0125943
0.000177945
0.0151641
0.000199286
0.0182412
0.0219245
0.000222774
7.69042e-06
0.00109983
1.81907e-05
0.0015388
3.0907e-05
0.00202052
4.53014e-05
0.0025687
6.03081e-05
0.00320983
7.45401e-05
0.00396367
8.72395e-05
0.00485131
9.888e-05
0.00590153
0.000110337
0.00715178
0.00012247
0.00864593
0.000135982
0.0104354
0.000151369
0.012579
0.000168883
0.0151466
0.00018856
0.0182215
0.0219028
0.000210188
7.20302e-06
0.00109264
1.70421e-05
0.00152897
2.90579e-05
0.00200851
4.27203e-05
0.00255505
5.71748e-05
0.00319537
7.11679e-05
0.00394969
8.37628e-05
0.00483871
9.51765e-05
0.00589012
0.000106222
0.00714073
0.000117726
0.00863443
0.000130377
0.0104227
0.000144681
0.0125647
0.000160919
0.0151304
0.000179167
0.0182032
0.0218827
0.000199252
6.74587e-06
0.0010859
1.59903e-05
0.00151974
2.73493e-05
0.00199715
4.03732e-05
0.00254203
5.42794e-05
0.00318146
6.80248e-05
0.00393595
8.05661e-05
0.00482617
9.18167e-05
0.00587887
0.000102537
0.00713001
0.000113523
0.00862344
0.000125454
0.0104108
0.000138847
0.0125513
0.000154013
0.0151152
0.000171073
0.0181862
0.0218638
0.000190042
6.35856e-06
0.00107955
1.50503e-05
0.00151106
2.57794e-05
0.00198642
3.82048e-05
0.00252961
5.16374e-05
0.00316802
6.51639e-05
0.00392243
7.76136e-05
0.00481371
8.87503e-05
0.00586773
9.92183e-05
0.00711954
0.000109783
0.00861288
0.000121115
0.0103995
0.00013374
0.0125386
0.000148006
0.0151009
0.000164107
0.0181701
0.0218458
0.000182071
5.98331e-06
0.00107357
1.41855e-05
0.00150287
2.4363e-05
0.00197624
3.62458e-05
0.00251774
4.92215e-05
0.00315505
6.25024e-05
0.00390915
7.48682e-05
0.00480135
8.59241e-05
0.00585668
9.61903e-05
0.00710927
0.000106399
0.00860267
0.000117206
0.0103886
0.000129135
0.0125267
0.000142534
0.0150875
0.000157569
0.0181551
0.0218291
0.0001743
5.65817e-06
0.00106791
1.34142e-05
0.00149512
2.30942e-05
0.00196656
3.44755e-05
0.00250636
4.70519e-05
0.00314247
6.00212e-05
0.00389618
7.22989e-05
0.00478907
8.33139e-05
0.00584566
9.34284e-05
0.00709915
0.000103344
0.00859276
0.000113709
0.0103783
0.000125053
0.0125154
0.000137751
0.0150748
0.000152054
0.0181407
0.0218131
0.000168052
5.37665e-06
0.00106253
1.27333e-05
0.00148776
2.19642e-05
0.00195733
3.28848e-05
0.00249544
4.50402e-05
0.00313031
5.77043e-05
0.00388352
6.98937e-05
0.00477688
8.09035e-05
0.00583466
9.09127e-05
0.00708915
0.000100594
0.00858308
0.00011059
0.0103683
0.000121442
0.0125045
0.000133536
0.0150627
0.000147143
0.0181271
0.0217974
0.000162859
5.12107e-06
0.00105741
1.21228e-05
0.00148076
2.09415e-05
0.00194851
3.14166e-05
0.00248496
4.31694e-05
0.00311856
5.55296e-05
0.00387115
6.76327e-05
0.00476477
7.86468e-05
0.00582364
8.85861e-05
0.00707921
9.80771e-05
0.00857359
0.00010776
0.0103586
0.000118174
0.0124941
0.000129729
0.0150512
0.000142701
0.0181142
0.0217828
0.000157283
4.8767e-06
0.00105253
1.15551e-05
0.00147407
1.99696e-05
0.00194009
3.00437e-05
0.00247488
4.14156e-05
0.00310719
5.34912e-05
0.00385908
6.54973e-05
0.00475277
7.65117e-05
0.00581263
8.64048e-05
0.00706931
9.57407e-05
0.00856425
0.000105154
0.0103492
0.00011518
0.0124841
0.000126248
0.0150401
0.00013868
0.0181017
0.0217686
0.000152825
4.65639e-06
0.00104787
1.10251e-05
0.0014677
1.9095e-05
0.00193202
2.87534e-05
0.00246522
3.97797e-05
0.00309617
5.15942e-05
0.00384726
6.34795e-05
0.00474089
7.44887e-05
0.00580162
8.43541e-05
0.00705945
9.3568e-05
0.00855504
0.00010275
0.01034
0.000112448
0.0124744
0.000123111
0.0150294
0.000135111
0.0180897
0.0217551
0.000148683
4.4489e-06
0.00104342
1.05415e-05
0.0014616
1.82774e-05
0.00192429
2.75905e-05
0.0024559
3.82702e-05
0.00308549
4.98273e-05
0.0038357
6.15693e-05
0.00472915
7.25552e-05
0.00579063
8.24038e-05
0.0070496
9.15149e-05
0.00854592
0.000100492
0.010331
0.000109882
0.012465
0.000120136
0.0150192
0.000131605
0.0180783
0.0217423
0.000144364
4.25309e-06
0.00103917
1.00968e-05
0.00145575
1.75229e-05
0.00191686
2.65124e-05