/*--------------------------------*- C++ -*----------------------------------*\
| =========                 |                                                 |
| \\      /  F ield         | OpenFOAM: The Open Source CFD Toolbox           |
|  \\    /   O peration     | Version:  2.3.0                                 |
|   \\  /    A nd           | Web:      www.OpenFOAM.org                      |
|    \\/     M anipulation  |                                                 |
\*---------------------------------------------------------------------------*/
FoamFile
{
    version     2.0;
    format      ascii;
    class       volVectorField;
    location    "250";
    object      U;
}
// * * * * * * * * * * * * * * * * * * * * * * * * * * * * * * * * * * * * * //

dimensions      [0 1 -1 0 0 0 0];

internalField   nonuniform List<vector> 
7826
(
(20.7454 0.605167 3.41431e-21)
(20.8058 0.71612 -2.53862e-21)
(20.8744 0.853672 4.23038e-21)
(20.9524 1.01669 3.59338e-20)
(21.0353 1.20007 -3.77931e-20)
(21.1129 1.39535 -2.69134e-21)
(21.1712 1.59319 0)
(21.1958 1.78535 0)
(21.1757 1.96571 0)
(21.104 2.13001 0)
(20.9786 2.27539 0)
(20.8012 2.40082 -4.11946e-20)
(20.5755 2.50791 1.33029e-20)
(20.3061 2.59717 5.56032e-20)
(20.0014 2.65806 -3.08202e-20)
(20.6188 0.627562 -1.62202e-21)
(20.6258 0.708526 0)
(20.6206 0.791491 -1.52515e-20)
(20.603 0.879231 1.50518e-20)
(20.5744 0.97258 -6.20287e-22)
(20.5371 1.07091 -1.44646e-20)
(20.4932 1.17167 1.33517e-20)
(20.4438 1.27098 0)
(20.3895 1.36446 3.84682e-20)
(20.3307 1.44813 -3.53439e-20)
(20.268 1.51891 -5.92511e-20)
(20.2023 1.57475 -1.45119e-20)
(20.1348 1.61464 1.026e-19)
(20.0668 1.63827 -3.61061e-20)
(19.9998 1.64516 -2.43212e-22)
(20.5262 0.642281 2.42515e-21)
(20.5216 0.713694 0)
(20.5111 0.782818 3.28056e-21)
(20.4939 0.84892 -3.41642e-21)
(20.4694 0.910233 -7.11404e-20)
(20.4376 0.965603 1.43248e-19)
(20.3991 1.01447 -1.53038e-19)
(20.355 1.0567 7.65812e-20)
(20.3066 1.09232 -8.76573e-20)
(20.2553 1.12153 -7.42669e-21)
(20.2024 1.14456 -6.69831e-21)
(20.149 1.1617 8.71087e-20)
(20.096 1.17332 -3.64483e-22)
(20.0444 1.17988 2.42262e-20)
(19.9948 1.1817 -2.28908e-20)
(20.4457 0.628584 0)
(20.4294 0.682096 3.47044e-20)
(20.408 0.732095 -3.88624e-20)
(20.3821 0.778746 -5.3326e-22)
(20.3528 0.821559 -2.49415e-22)
(20.3209 0.860077 0)
(20.287 0.893984 9.24075e-20)
(20.2518 0.923127 6.13369e-21)
(20.2159 0.947512 -8.98299e-20)
(20.1797 0.967248 4.95449e-20)
(20.1437 0.982555 -4.75399e-20)
(20.1081 0.993704 0)
(20.0732 1.00101 -1.19717e-23)
(20.0393 1.00483 -8.16127e-22)
(20.0067 1.00544 -4.21159e-22)
(20.3877 0.610591 5.17753e-21)
(20.3693 0.65173 -4.03706e-22)
(20.3481 0.689351 -3.01276e-21)
(20.3242 0.723356 -4.58937e-20)
(20.2983 0.753626 4.6997e-20)
(20.2708 0.780129 -1.61575e-21)
(20.2421 0.802948 1.64267e-21)
(20.2127 0.822226 0)
(20.1829 0.838166 5.52671e-20)
(20.153 0.850976 -5.27579e-20)
(20.1232 0.860867 0)
(20.0939 0.868055 -5.73687e-20)
(20.0651 0.872753 5.65059e-20)
(20.037 0.875171 4.53995e-22)
(20.0098 0.875481 4.68518e-22)
(20.3422 0.589104 3.05255e-20)
(20.3233 0.620854 -2.11247e-20)
(20.3026 0.649662 3.01344e-21)
(20.2804 0.675421 0)
(20.2572 0.698229 1.59766e-21)
(20.2332 0.718157 1.6393e-21)
(20.2087 0.735324 -6.00911e-20)
(20.1839 0.74986 -2.48191e-21)
(20.159 0.761918 5.55024e-20)
(20.1342 0.771652 6.09339e-20)
(20.1095 0.779202 -5.89243e-20)
(20.085 0.784702 -9.65427e-22)
(20.061 0.788285 -3.2959e-20)
(20.0373 0.790084 1.62688e-20)
(20.0142 0.790204 1.72825e-20)
(20.3076 0.568145 2.70463e-20)
(20.2896 0.593122 -2.61753e-20)
(20.2706 0.615834 0)
(20.2507 0.63601 0)
(20.2302 0.653847 0)
(20.2091 0.669442 1.85248e-21)
(20.1878 0.682911 1.81772e-21)
(20.1663 0.694368 6.17413e-20)
(20.1446 0.703923 -6.0828e-20)
(20.1229 0.711681 -9.78742e-22)
(20.1013 0.717738 -3.39846e-20)
(20.0798 0.722175 3.37308e-20)
(20.0585 0.72507 -5.77249e-24)
(20.0375 0.726507 -1.0901e-21)
(20.0168 0.726551 -9.1053e-21)
(20.2805 0.548633 -3.64719e-21)
(20.2638 0.568573 -2.88419e-20)
(20.2464 0.586952 2.66868e-20)
(20.2285 0.603262 -6.21299e-20)
(20.2102 0.617741 5.93756e-20)
(20.1915 0.630468 -1.89245e-21)
(20.1726 0.641534 0)
(20.1535 0.651013 0)
(20.1343 0.658974 6.57565e-20)
(20.115 0.665483 -6.63929e-20)
(20.0956 0.670595 1.07536e-21)
(20.0763 0.674359 1.11337e-21)
(20.057 0.676821 1.96462e-20)
(20.038 0.678028 5.02857e-22)
(20.0192 0.678018 -2.0257e-20)
(20.259 0.5311 7.50738e-21)
(20.2437 0.547266 0)
(20.2279 0.562457 1.86415e-21)
(20.2118 0.57598 3.13657e-20)
(20.1953 0.588064 -1.06563e-21)
(20.1785 0.598765 9.41208e-22)
(20.1615 0.608144 -1.12162e-21)
(20.1443 0.61624 -3.32346e-20)
(20.1269 0.623089 1.07332e-21)
(20.1093 0.628722 0)
(20.0916 0.63317 0)
(20.0738 0.636461 -4.04017e-20)
(20.0561 0.63862 3.81479e-20)
(20.0384 0.63967 0)
(20.0209 0.639631 0)
(20.2419 0.515657 -3.82564e-21)
(20.2278 0.528946 0)
(20.2135 0.541659 0)
(20.1988 0.553085 4.00617e-21)
(20.1838 0.563389 3.3116e-20)
(20.1686 0.572608 -3.08869e-20)
(20.153 0.580762 2.12191e-21)
(20.1373 0.587855 -2.2028e-21)
(20.1212 0.593901 0)
(20.105 0.598895 0)
(20.0886 0.602847 1.19376e-21)
(20.072 0.605785 1.22403e-21)
(20.0555 0.607719 0)
(20.0389 0.608652 0)
(20.0224 0.608594 0)
(20.2281 0.502024 0)
(20.2152 0.513196 0)
(20.2021 0.523891 0)
(20.1886 0.533693 3.13658e-20)
(20.1749 0.542639 -6.73955e-20)
(20.1608 0.550734 3.1875e-20)
(20.1464 0.557975 -3.56764e-20)
(20.1318 0.564319 1.38503e-21)
(20.1169 0.569775 3.67237e-20)
(20.1017 0.574298 0)
(20.0864 0.577864 -2.11395e-20)
(20.0707 0.580518 1.7496e-20)
(20.055 0.582274 2.11023e-20)
(20.0393 0.583103 -1.0378e-20)
(20.0237 0.583024 -1.09283e-20)
(20.2166 0.489871 -1.94202e-21)
(20.205 0.499368 0)
(20.193 0.508477 0)
(20.1805 0.517051 3.62381e-20)
(20.1678 0.524985 -3.19046e-20)
(20.1545 0.532217 3.77777e-20)
(20.1412 0.538777 -3.56263e-20)
(20.1274 0.544545 -2.31755e-21)
(20.1134 0.549572 1.92002e-20)
(20.0992 0.553747 -4.15036e-20)
(20.0847 0.556994 1.98747e-20)
(20.0697 0.559404 -1.83387e-20)
(20.0547 0.561026 1.29622e-20)
(20.0396 0.561746 1.08389e-20)
(20.0246 0.561634 -2.81402e-21)
(20.2071 0.478404 4.76133e-23)
(20.1966 0.486901 -1.47089e-20)
(20.1857 0.494921 1.67217e-20)
(20.1737 0.5026 2.56537e-23)
(20.162 0.509847 -2.20022e-21)
(20.1493 0.516374 -2.02587e-20)
(20.1369 0.522455 1.80807e-20)
(20.1238 0.527722 -1.6599e-20)
(20.1105 0.532467 1.66174e-20)
(20.097 0.536412 2.46509e-21)
(20.0835 0.539323 2.05265e-20)
(20.069 0.541453 -2.06658e-20)
(20.0546 0.543019 -5.35841e-21)
(20.0401 0.543633 -2.82249e-21)
(20.0255 0.543515 8.43941e-21)
(20.1979 0.467827 -2.17108e-21)
(20.189 0.476242 1.38699e-23)
(20.1793 0.483207 0)
(20.1674 0.489979 -4.30704e-21)
(20.157 0.496895 2.21407e-21)
(20.1447 0.502728 -1.60366e-20)
(20.1331 0.508552 1.8353e-20)
(20.1205 0.513146 2.43139e-21)
(20.1078 0.517766 -2.48074e-24)
(20.0948 0.521839 -2.01313e-20)
(20.0824 0.524493 2.03612e-20)
(20.0686 0.52622 0)
(20.0553 0.527835 5.49524e-21)
(20.0417 0.528104 -8.58046e-21)
(20.0272 0.528109 5.67186e-21)
(19.6378 2.61855 0)
(19.3449 2.53297 -2.87029e-22)
(19.1083 2.42308 -9.24462e-20)
(18.9286 2.30229 1.04903e-19)
(18.8042 2.16486 -1.17486e-21)
(18.733 2.0094 2.46126e-21)
(18.7111 1.83735 3.42856e-19)
(18.7318 1.65174 -3.67524e-19)
(18.7864 1.45726 0)
(18.8641 1.26054 -2.8136e-21)
(18.9536 1.06982 0)
(19.0447 0.893838 0)
(19.1305 0.739741 4.05132e-19)
(19.2081 0.611206 -4.27441e-19)
(19.2773 0.500119 1.84291e-20)
(19.9335 1.63763 0)
(19.8678 1.6151 2.45783e-22)
(19.8024 1.5756 -3.27088e-23)
(19.7381 1.52075 9.2076e-20)
(19.6761 1.45185 -1.00023e-19)
(19.6172 1.37087 -8.10322e-22)
(19.5623 1.28034 1.82709e-21)
(19.512 1.18344 0)
(19.4673 1.08373 2.22607e-21)
(19.4294 0.984633 -5.50022e-21)
(19.4001 0.888801 -5.06409e-21)
(19.3817 0.797703 -3.62197e-19)
(19.3757 0.711406 3.7784e-19)
(19.3827 0.629234 2.30708e-20)
(19.4011 0.545722 -4.18434e-20)
(19.9465 1.1795 0)
(19.8976 1.17316 8.74493e-22)
(19.8476 1.16187 -6.43568e-20)
(19.7972 1.14536 6.64164e-20)
(19.7475 1.12321 -7.9559e-20)
(19.6992 1.09511 -9.16516e-20)
(19.6536 1.06073 1.86197e-19)
(19.6118 1.0198 0)
(19.5749 0.972132 1.49095e-21)
(19.5442 0.917772 0)
(19.5204 0.85708 -2.74924e-19)
(19.504 0.790999 1.41663e-19)
(19.4947 0.721119 7.01017e-21)
(19.4921 0.649513 1.63356e-19)
(19.4955 0.575346 -3.64175e-20)
(19.9748 1.00322 7.29429e-21)
(19.9424 0.998091 -8.51957e-21)
(19.9092 0.989641 -3.39596e-20)
(19.8753 0.977627 3.76129e-20)
(19.8411 0.96175 -8.10776e-20)
(19.8068 0.94177 8.46405e-20)
(19.7728 0.91748 -9.52343e-20)
(19.7394 0.888721 9.97836e-20)
(19.7073 0.855454 -2.2583e-19)
(19.6768 0.817728 2.3256e-19)
(19.6488 0.775728 0)
(19.6241 0.729789 0)
(19.6035 0.680371 -8.94791e-21)
(19.5878 0.627893 -9.15586e-21)
(19.5778 0.571339 1.79262e-20)
(19.983 0.873876 4.86946e-22)
(19.9559 0.8703 0)
(19.9284 0.864516 -3.64828e-20)
(19.9004 0.856374 -6.77539e-22)
(19.8722 0.845675 3.78914e-20)
(19.8439 0.832226 8.72353e-20)
(19.8158 0.815834 -1.80244e-19)
(19.7882 0.796295 -2.82319e-21)
(19.7613 0.773427 9.79735e-20)
(19.7356 0.747061 0)
(19.7114 0.717081 0)
(19.6892 0.683467 0)
(19.6695 0.646317 1.21128e-19)
(19.6528 0.605704 -1.22684e-19)
(19.6395 0.561192 0)
(19.9914 0.788757 -5.36713e-22)
(19.9685 0.785712 3.6634e-20)
(19.9452 0.78093 -3.61857e-20)
(19.9217 0.77432 4.01792e-20)
(19.898 0.765761 -1.24895e-19)
(19.8743 0.755129 1.72333e-19)
(19.8507 0.742305 -1.82346e-19)
(19.8273 0.727165 1.9171e-19)
(19.8042 0.709573 2.54283e-21)
(19.7817 0.6894 -1.04947e-19)
(19.7601 0.666535 -1.12755e-19)
(19.7395 0.640894 1.15683e-19)
(19.7203 0.61245 7.76753e-21)
(19.7028 0.581158 -4.73132e-20)
(19.6872 0.547053 3.77147e-20)
(19.9964 0.725269 9.17053e-21)
(19.9759 0.72264 2.41732e-21)
(19.9552 0.718575 -2.52188e-21)
(19.9344 0.713018 -4.34944e-20)
(19.9135 0.705897 4.39028e-20)
(19.8927 0.69714 4.5185e-20)
(19.8721 0.686673 -4.57749e-20)
(19.8516 0.674419 0)
(19.8315 0.66028 3.17908e-21)
(19.8117 0.644156 1.0556e-19)
(19.7926 0.625952 -1.07766e-19)
(19.7742 0.605562 3.49303e-21)
(19.7566 0.582906 0)
(19.7403 0.557881 -3.01944e-20)
(19.7256 0.530526 2.14166e-20)
(20.0005 0.676836 0)
(19.9818 0.674466 -1.30016e-21)
(19.963 0.670854 2.55507e-20)
(19.9442 0.665961 -2.15909e-20)
(19.9254 0.65975 -4.39611e-20)
(19.9068 0.652189 4.55543e-20)
(19.8883 0.643235 0)
(19.87 0.632847 5.23413e-20)
(19.852 0.620974 -4.98516e-20)
(19.8344 0.607546 0)
(19.8172 0.592497 3.32789e-21)
(19.8006 0.575746 -6.95265e-21)
(19.7846 0.557218 0)
(19.7693 0.53688 7.45335e-21)
(19.7552 0.514796 -7.36454e-21)
(20.0036 0.638529 0)
(19.9862 0.636355 -5.26509e-24)
(19.9688 0.633073 -2.67435e-20)
(19.9515 0.628657 2.10867e-20)
(19.9343 0.623091 -1.45768e-21)
(19.9172 0.616375 -4.78785e-20)
(19.9003 0.608496 -9.59577e-22)
(19.8837 0.59943 4.28633e-20)
(19.8673 0.589158 0)
(19.8514 0.577644 5.24896e-20)
(19.8359 0.564845 -5.96668e-20)
(19.8208 0.550709 6.86626e-21)
(19.8062 0.535175 0)
(19.7921 0.518248 -1.45117e-20)
(19.7784 0.499643 2.89654e-20)
(20.0061 0.607556 -4.16094e-21)
(19.9898 0.605538 -3.12043e-23)
(19.9735 0.602507 6.041e-24)
(19.9573 0.598441 2.37438e-20)
(19.9412 0.593347 -2.5122e-20)
(19.9253 0.58725 -4.89873e-20)
(19.9097 0.58016 9.5597e-20)
(19.8943 0.572069 -4.6602e-20)
(19.8793 0.562971 0)
(19.8647 0.552861 -3.24203e-21)
(19.8505 0.541728 3.35427e-21)
(19.8367 0.529554 4.80341e-20)
(19.8234 0.516314 -5.87201e-20)
(19.8105 0.502084 -1.43017e-20)
(19.7983 0.486335 -3.66488e-21)
(20.0081 0.582033 -1.44868e-21)
(19.9926 0.580146 4.3368e-21)
(19.9772 0.577331 4.66074e-24)
(19.9619 0.573532 1.50594e-21)
(19.9468 0.568788 1.52681e-21)
(19.9318 0.563167 0)
(19.9171 0.556688 6.25383e-21)
(19.9028 0.549337 0)
(19.8888 0.541123 5.18614e-20)
(19.8753 0.532069 -4.85886e-20)
(19.8621 0.522187 -5.35508e-20)
(19.8494 0.511486 5.71679e-20)
(19.8371 0.499965 6.89854e-21)
(19.8252 0.487714 0)
(19.8137 0.474086 -3.55792e-21)
(20.0097 0.560659 -5.80969e-21)
(19.9947 0.558899 -3.04639e-21)
(19.9801 0.556317 7.46237e-21)
(19.9657 0.552732 0)
(19.9513 0.548238 0)
(19.937 0.543 -3.10567e-21)
(19.9232 0.537018 -2.54183e-20)
(19.9097 0.530238 2.8456e-20)
(19.8966 0.522691 0)
(19.8838 0.514445 0)
(19.8716 0.505524 0)
(19.8597 0.49596 3.34907e-21)
(19.8483 0.48577 -6.844e-21)
(19.8374 0.475002 0)
(19.8269 0.463119 0)
(20.0112 0.542519 2.90777e-21)
(19.9965 0.540898 0)
(19.9828 0.538653 0)
(19.969 0.53524 -1.2311e-20)
(19.9552 0.530867 1.22281e-20)
(19.9414 0.525939 3.12386e-21)
(19.9282 0.520385 2.53663e-20)
(19.9154 0.514043 -3.16184e-20)
(19.903 0.506979 0)
(19.891 0.499357 -2.29664e-20)
(19.8795 0.491191 -3.36379e-22)
(19.8683 0.482546 -3.67753e-21)
(19.8577 0.473424 3.03965e-20)
(19.8476 0.463848 1.03613e-20)
(19.8382 0.453798 -7.07358e-21)
(20.0135 0.526981 2.95008e-21)
(19.9986 0.525515 -5.96655e-21)
(19.9857 0.52369 1.79128e-20)
(19.9723 0.520204 2.31298e-22)
(19.9586 0.515908 -9.20123e-21)
(19.945 0.511357 0)
(19.9327 0.506186 -6.25683e-21)
(19.9204 0.500163 3.21941e-21)
(19.9087 0.493421 0)
(19.8971 0.486338 -3.31824e-20)
(19.8864 0.478767 2.63515e-20)
(19.8757 0.470897 -1.33598e-20)
(19.866 0.462625 -3.50183e-21)
(19.8566 0.453816 1.38069e-20)
(19.8483 0.444191 0)
(19.9629 -0.29898 0)
(19.8648 -0.303403 -2.90843e-19)
(19.7232 -0.308491 3.23728e-19)
(19.5241 -0.312727 0)
(19.2604 -0.316065 0)
(18.9323 -0.318476 6.68685e-21)
(18.5433 -0.320135 1.04969e-18)
(18.0974 -0.321185 -1.76073e-18)
(17.5964 -0.321692 -1.25361e-20)
(17.0361 -0.321621 -3.17166e-21)
(16.4026 -0.321095 1.75371e-18)
(15.6626 -0.319724 -1.03771e-18)
(14.7487 -0.317378 -3.17839e-19)
(13.569 -0.285214 2.06383e-19)
(12.3771 -0.267669 7.83701e-23)
(19.958 -0.296038 -1.73222e-20)
(19.8705 -0.299169 1.3438e-19)
(19.7483 -0.30344 -1.79826e-19)
(19.5811 -0.307905 1.15369e-20)
(19.3619 -0.312485 -4.10168e-19)
(19.0884 -0.316949 4.48207e-19)
(18.7608 -0.320999 4.85717e-19)
(18.379 -0.324291 1.37261e-21)
(17.9413 -0.326529 -5.75533e-19)
(17.4406 -0.3275 -5.06074e-21)
(16.86 -0.327322 3.67013e-19)
(16.1649 -0.325504 -2.28431e-21)
(15.2998 -0.321915 -5.13292e-19)
(14.2498 -0.296916 5.23012e-21)
(13.386 -0.244206 -2.05759e-19)
(19.9548 -0.295666 1.84013e-20)
(19.8766 -0.300044 1.81165e-19)
(19.77 -0.305573 -1.6486e-19)
(19.6266 -0.311087 -1.19405e-20)
(19.4398 -0.316158 6.45535e-21)
(19.2056 -0.320419 4.36126e-19)
(18.9216 -0.323621 -4.89439e-19)
(18.5855 -0.32564 -5.29139e-19)
(18.1925 -0.326462 -1.21964e-22)
(17.7333 -0.32615 6.47778e-19)
(17.1887 -0.324934 0)
(16.5237 -0.322148 0)
(15.6929 -0.315609 0)
(14.7177 -0.291572 -2.36492e-21)
(13.9798 -0.232624 -1.81955e-19)
(19.9499 -0.294989 -7.82818e-20)
(19.878 -0.299281 9.63801e-20)
(19.7819 -0.304388 1.74094e-19)
(19.6551 -0.309142 -2.00639e-19)
(19.4914 -0.313277 4.34306e-19)
(19.2862 -0.316625 1.10119e-21)
(19.0353 -0.319078 -1.00924e-18)
(18.7342 -0.320588 2.75966e-19)
(18.376 -0.321154 6.07427e-19)
(17.9489 -0.320821 -3.35935e-19)
(17.432 -0.319718 -1.18767e-20)
(16.7899 -0.317095 -3.38903e-21)
(15.9833 -0.309377 0)
(15.0502 -0.285056 4.78916e-21)
(14.3676 -0.227316 -5.57866e-21)
(19.945 -0.293741 -2.08875e-20)
(19.8784 -0.296943 1.04694e-22)
(19.7916 -0.301189 2.44291e-20)
(19.6788 -0.305185 0)
(19.5345 -0.308734 7.08729e-21)
(19.3533 -0.311705 2.51353e-19)
(19.1297 -0.313962 -7.57064e-21)
(18.8573 -0.315414 -5.73474e-19)
(18.5277 -0.316029 3.09966e-19)
(18.1271 -0.315828 0)
(17.633 -0.314858 5.8491e-21)
(17.0099 -0.312348 3.33699e-21)
(16.2216 -0.304202 1.24552e-19)
(15.3138 -0.279698 -1.52543e-19)
(14.6596 -0.224244 -8.18911e-20)
(19.9412 -0.291599 -5.48143e-20)
(19.8799 -0.294498 2.38477e-20)
(19.8014 -0.298365 6.77421e-23)
(19.7006 -0.301934 6.83624e-21)
(19.5723 -0.30512 -2.40599e-19)
(19.4105 -0.307819 2.33649e-19)
(19.209 -0.309893 0)
(18.9602 -0.311252 4.50374e-21)
(18.6539 -0.311863 0)
(18.2753 -0.311742 0)
(17.8005 -0.310866 5.91333e-21)
(17.1934 -0.308415 -6.65309e-21)
(16.4195 -0.300138 -1.2946e-19)
(15.5279 -0.275623 1.42791e-19)
(14.8899 -0.221999 -5.17349e-21)
(19.9378 -0.289617 -2.30291e-20)
(19.8815 -0.292449 6.2593e-20)
(19.81 -0.295975 -1.32716e-20)
(19.7191 -0.299198 -7.04141e-21)
(19.6035 -0.302094 0)
(19.4574 -0.304583 7.96745e-21)
(19.2738 -0.306541 0)
(19.0442 -0.307882 4.58656e-21)
(18.7574 -0.308555 1.58209e-19)
(18.3974 -0.308553 -5.16603e-21)
(17.939 -0.307795 -1.88815e-19)
(17.3457 -0.305392 6.56598e-21)
(16.5834 -0.297062 -1.75422e-23)
(15.7026 -0.272554 -3.46271e-20)
(15.0743 -0.22013 -3.97102e-20)
(19.9353 -0.288553 -1.23959e-20)
(19.8829 -0.290825 1.04997e-19)
(19.8173 -0.293882 -1.10522e-19)
(19.7344 -0.296803 -7.30936e-21)
(19.6292 -0.299506 -1.15703e-19)
(19.4958 -0.301904 2.61485e-19)
(19.3269 -0.303869 -2.78131e-19)
(19.1133 -0.305297 2.92464e-19)
(18.8431 -0.306111 1.56365e-22)
(18.499 -0.306267 -1.61693e-19)
(18.0551 -0.305629 -5.88858e-21)
(17.4739 -0.303246 0)
(16.7213 -0.294853 -7.24415e-24)
(15.8482 -0.270297 4.19864e-20)
(15.2258 -0.218576 -3.79291e-20)
(19.9328 -0.285886 -3.91346e-20)
(19.884 -0.288801 8.20995e-20)
(19.8234 -0.291863 -5.72874e-20)
(19.7472 -0.294697 1.2036e-19)
(19.6507 -0.297363 -1.34374e-19)
(19.5278 -0.299803 0)
(19.3711 -0.3019 8.85103e-21)
(19.171 -0.303531 -1.50352e-19)
(18.9148 -0.304591 -5.08649e-21)
(18.5846 -0.304994 1.72695e-19)
(18.1534 -0.304523 1.05338e-19)
(17.5831 -0.302137 -1.02736e-19)
(16.8388 -0.293522 7.16089e-21)
(15.9717 -0.268629 -8.13714e-21)
(15.3533 -0.217109 -3.65002e-20)
(19.9302 -0.284437 2.02064e-20)
(19.8848 -0.287202 0)
(19.8287 -0.290071 -7.42623e-21)
(19.7582 -0.292854 1.31545e-19)
(19.6688 -0.295547 -1.29481e-19)
(19.5547 -0.298095 0)
(19.4082 -0.300395 -8.95198e-21)
(19.2196 -0.302322 0)
(18.9756 -0.303747 5.03901e-21)
(18.6577 -0.304539 8.08851e-20)
(18.2382 -0.304435 -8.7222e-20)
(17.6781 -0.302212 -1.01222e-19)
(16.942 -0.293566 4.91124e-20)
(16.0795 -0.268321 4.73019e-20)
(15.4635 -0.216416 1.75007e-20)
(19.9279 -0.28324 -7.13758e-21)
(19.8853 -0.285851 -7.40618e-21)
(19.8329 -0.288576 7.63311e-21)
(19.7672 -0.291304 0)
(19.6837 -0.294041 0)
(19.5767 -0.296765 0)
(19.4386 -0.29939 1.4524e-19)
(19.2595 -0.301763 -1.53037e-19)
(19.0257 -0.303726 0)
(18.718 -0.305241 -8.60155e-20)
(18.3081 -0.305916 6.91994e-20)
(17.757 -0.304294 -3.72472e-20)
(17.0279 -0.295028 6.15723e-20)
(16.1718 -0.268183 1.52579e-20)
(15.559 -0.215016 1.68767e-20)
(19.9259 -0.281465 2.25113e-20)
(19.8861 -0.284423 -2.29508e-20)
(19.8371 -0.287135 0)
(19.7755 -0.289765 0)
(19.6972 -0.292433 0)
(19.5965 -0.295201 -8.79043e-21)
(19.4659 -0.298039 9.19185e-21)
(19.2956 -0.300816 -9.64378e-21)
(19.0715 -0.303262 0)
(18.7737 -0.305303 0)
(18.3743 -0.307499 2.29126e-20)
(17.8333 -0.307602 -2.45767e-20)
(17.1167 -0.300581 -1.32484e-20)
(16.2613 -0.273662 0)
(15.6484 -0.216905 -1.61588e-20)
(19.9227 -0.280555 0)
(19.8851 -0.283402 7.92345e-21)
(19.8389 -0.286036 0)
(19.7807 -0.288607 6.63065e-20)
(19.7059 -0.291318 -5.98039e-20)
(19.6092 -0.294322 8.86631e-21)
(19.483 -0.297731 -9.23527e-21)
(19.3173 -0.301225 9.65278e-21)
(19.0992 -0.304099 0)
(18.8063 -0.307105 0)
(18.4063 -0.311558 -1.134e-20)
(17.8705 -0.317171 1.20916e-20)
(17.1532 -0.307523 2.60947e-20)
(16.3257 -0.273977 0)
(15.7246 -0.212374 0)
(19.9243 -0.279372 1.63777e-20)
(19.8893 -0.28217 -2.45028e-20)
(19.8465 -0.284747 0)
(19.7921 -0.286743 0)
(19.7229 -0.288739 -8.75525e-21)
(19.6335 -0.291113 0)
(19.5169 -0.294276 0)
(19.3639 -0.298854 8.82679e-20)
(19.1597 -0.301884 -1.745e-19)
(18.8815 -0.300613 8.69881e-20)
(18.5022 -0.306512 -4.6818e-20)
(17.9768 -0.320432 1.10497e-19)
(17.3293 -0.330358 -5.42294e-20)
(16.4318 -0.302382 0)
(15.8292 -0.22497 0)
(12.874 -0.111869 2.73815e-19)
(14.4243 -0.162306 -8.13581e-19)
(15.7168 -0.176345 6.29021e-19)
(16.6752 -0.206267 0)
(17.4396 -0.229055 -8.84246e-19)
(18.0825 -0.248511 -1.03774e-21)
(18.633 -0.265237 6.79673e-19)
(19.0998 -0.279451 0)
(19.482 -0.290946 1.06884e-18)
(19.776 -0.299526 -9.73818e-19)
(19.9812 -0.305123 -3.87272e-23)
(20.1055 -0.307733 -4.00799e-19)
(20.1682 -0.308085 -1.12876e-20)
(20.1907 -0.306689 4.54059e-19)
(20.1895 -0.303904 -1.07189e-19)
(13.7843 -0.144557 6.02614e-19)
(15.0933 -0.148462 -3.0826e-19)
(16.2987 -0.167222 -2.12867e-21)
(17.2112 -0.194448 -3.33629e-21)
(17.9193 -0.214685 2.8899e-21)
(18.4937 -0.232311 -2.74517e-21)
(18.968 -0.248029 5.9389e-19)
(19.3557 -0.262205 -5.36207e-19)
(19.6616 -0.274553 -4.97321e-19)
(19.8887 -0.284595 4.49876e-19)
(20.0424 -0.291845 -4.2205e-19)
(20.1338 -0.295951 4.02971e-19)
(20.1794 -0.297317 1.33934e-22)
(20.195 -0.29669 1.66596e-19)
(20.1923 -0.294748 -1.51326e-19)
(14.354 -0.157748 1.77895e-19)
(15.5609 -0.148136 -5.96238e-19)
(16.7127 -0.167116 4.87443e-19)
(17.5908 -0.190587 3.23536e-21)
(18.2575 -0.20855 -7.34029e-19)
(18.7812 -0.223464 -3.42078e-21)
(19.1992 -0.236178 5.88432e-19)
(19.5292 -0.247443 -5.43115e-19)
(19.781 -0.257443 5.04533e-19)
(19.9622 -0.266166 -4.51454e-19)
(20.0818 -0.273418 4.28021e-19)
(20.152 -0.278871 0)
(20.1865 -0.282439 1.51091e-23)
(20.1976 -0.284303 -1.84998e-19)
(20.194 -0.284744 1.80008e-19)
(14.7393 -0.162007 3.64033e-19)
(15.9017 -0.149547 2.9653e-19)
(17.0206 -0.167494 -9.89459e-19)
(17.8711 -0.189072 4.26601e-19)
(18.5039 -0.206294 3.84404e-19)
(18.9866 -0.220127 -3.3907e-19)
(19.3595 -0.231581 0)
(19.6446 -0.241451 0)
(19.8555 -0.250014 5.25048e-19)
(20.0037 -0.257387 -4.83926e-19)
(20.1005 -0.263549 4.52682e-19)
(20.1576 -0.268417 -4.18755e-19)
(20.1864 -0.272004 1.21979e-20)
(20.1961 -0.274446 -1.71711e-19)
(20.1932 -0.275903 1.90829e-19)
(15.0347 -0.163735 4.21996e-19)
(16.1759 -0.15135 8.04516e-22)
(17.2723 -0.168311 -2.43365e-19)
(18.0991 -0.188788 -6.66225e-21)
(18.7023 -0.205371 -5.895e-21)
(19.1502 -0.218373 0)
(19.4857 -0.228958 0)
(19.7343 -0.237931 4.54092e-21)
(19.9129 -0.245619 5.31e-19)
(20.0353 -0.252161 -1.01015e-18)
(20.1143 -0.257573 4.67014e-19)
(20.1609 -0.261856 0)
(20.1849 -0.26508 0)
(20.1933 -0.267407 0)
(20.1912 -0.269042 0)
(15.2702 -0.16441 5.06084e-21)
(16.4009 -0.152593 0)
(17.4806 -0.16882 2.30814e-19)
(18.2864 -0.188547 -2.03084e-19)
(18.8635 -0.204505 0)
(19.2813 -0.216792 -3.39614e-19)
(19.5857 -0.226632 3.21363e-19)
(19.8047 -0.234824 -2.98953e-19)
(19.9579 -0.241743 2.64606e-19)
(20.0607 -0.247573 -8.02483e-21)
(20.126 -0.252399 0)
(20.1644 -0.25629 -2.34374e-19)
(20.1841 -0.259339 2.13005e-19)
(20.191 -0.26167 -1.25951e-20)
(20.1892 -0.26348 1.19195e-20)
(15.4603 -0.164396 2.32351e-19)
(16.5861 -0.152998 -1.33352e-19)
(17.6527 -0.168641 7.26188e-21)
(18.4398 -0.187781 -6.49271e-21)
(18.9934 -0.20319 0)
(19.3853 -0.214925 -5.38643e-21)
(19.6634 -0.224217 3.15311e-19)
(19.8584 -0.231846 -2.97193e-19)
(19.9916 -0.238205 8.69516e-21)
(20.0793 -0.243507 8.17719e-21)
(20.1344 -0.247889 0)
(20.1666 -0.251476 7.30806e-21)
(20.1831 -0.254384 0)
(20.1889 -0.256708 1.31424e-20)
(20.1874 -0.258604 -1.25217e-20)
(15.6173 -0.163998 0)
(16.7412 -0.152753 8.0898e-21)
(17.7968 -0.167813 -2.35456e-19)
(18.5668 -0.186367 2.1095e-19)
(19.0994 -0.201269 -5.86227e-21)
(19.4685 -0.212582 -5.41926e-21)
(19.7244 -0.221511 3.18018e-19)
(19.8997 -0.228806 -2.9176e-19)
(20.0169 -0.234853 2.75678e-19)
(20.0928 -0.239872 9.56053e-21)
(20.14 -0.244023 -2.53806e-19)
(20.1675 -0.247456 0)
(20.1816 -0.250295 -7.21745e-21)
(20.1866 -0.25264 0)
(20.1854 -0.254725 0)
(15.7504 -0.163099 3.5594e-20)
(16.8738 -0.151735 -7.84121e-21)
(17.9197 -0.166188 6.96482e-21)
(18.6739 -0.184174 0)
(19.1873 -0.198637 1.92564e-19)
(19.5362 -0.209673 6.26913e-21)
(19.773 -0.21843 -1.56827e-19)
(19.9318 -0.225616 1.43583e-19)
(20.0362 -0.231586 -1.4412e-19)
(20.1029 -0.236542 1.37374e-19)
(20.1439 -0.240653 -1.30256e-19)
(20.1677 -0.244072 -7.81226e-21)
(20.1798 -0.246927 1.34593e-19)
(20.1842 -0.249303 -1.14328e-19)
(20.1832 -0.25142 -2.79508e-20)
(15.8651 -0.162214 -7.71302e-20)
(16.9881 -0.150115 5.3078e-20)
(18.025 -0.163581 0)
(18.7643 -0.180824 -1.99905e-19)
(19.2602 -0.194902 1.84348e-19)
(19.5912 -0.205894 0)
(19.8116 -0.21483 0)
(19.9568 -0.222265 0)
(20.0508 -0.228443 1.5615e-19)
(20.1101 -0.233549 -2.88313e-19)
(20.1463 -0.237757 2.59076e-19)
(20.1672 -0.241246 -1.12061e-19)
(20.1779 -0.244153 2.86376e-23)
(20.1818 -0.246554 5.96706e-20)
(20.181 -0.248615 -2.90414e-20)
(15.9661 -0.159726 -2.45958e-20)
(17.09 -0.14662 1.25545e-19)
(18.1183 -0.159307 8.42193e-22)
(18.8432 -0.176158 -2.08665e-19)
(19.3222 -0.19024 9.1458e-20)
(19.6365 -0.201646 -1.08536e-20)
(19.8422 -0.211138 0)
(19.976 -0.219091 0)
(20.0615 -0.225701 0)
(20.1151 -0.231075 -1.3376e-19)
(20.1476 -0.23544 8.06606e-21)
(20.1663 -0.239015 1.15119e-19)
(20.1759 -0.241967 -1.5931e-20)
(20.1795 -0.244383 6.96244e-20)
(20.1791 -0.246338 -7.49725e-20)
(16.0558 -0.158673 1.576e-20)
(17.176 -0.143073 0)
(18.1944 -0.153585 -1.17304e-19)
(18.9054 -0.16912 1.09252e-20)
(19.37 -0.183216 7.90763e-20)
(19.6701 -0.195598 -7.61357e-20)
(19.8652 -0.206723 2.4769e-19)
(19.9899 -0.216178 -3.15081e-19)
(20.0691 -0.223559 2.92179e-19)
(20.1183 -0.229289 -1.44552e-19)
(20.148 -0.233756 -8.74555e-21)
(20.165 -0.237371 1.68829e-20)
(20.1738 -0.24036 -2.8782e-23)
(20.1772 -0.24283 -7.98231e-21)
(20.1771 -0.244871 -7.84071e-21)
(16.1384 -0.149032 0)
(17.2658 -0.133095 0)
(18.2782 -0.144292 5.14668e-20)
(18.975 -0.160951 -1.55776e-19)
(19.4199 -0.176399 1.01655e-19)
(19.704 -0.191666 1.09013e-20)
(19.8833 -0.204905 0)
(20.0006 -0.214901 0)
(20.0746 -0.222734 9.50919e-21)
(20.1207 -0.228356 6.43852e-20)
(20.1482 -0.232735 -1.42121e-19)
(20.1638 -0.236349 5.16881e-20)
(20.1719 -0.23931 -2.72751e-23)
(20.1751 -0.241697 0)
(20.1752 -0.243576 0)
(16.2108 -0.148978 1.44737e-20)
(17.3093 -0.129189 -5.34129e-20)
(18.3014 -0.133278 6.09997e-20)
(18.9808 -0.145699 1.16797e-20)
(19.4255 -0.162485 8.99195e-20)
(19.697 -0.180091 -1.83765e-19)
(19.892 -0.199564 9.37793e-20)
(20.0056 -0.214378 -8.01615e-20)
(20.0788 -0.222784 7.76392e-20)
(20.1219 -0.228173 0)
(20.1472 -0.232073 8.97008e-21)
(20.1615 -0.235448 8.75444e-21)
(20.17 -0.238516 1.72247e-20)
(20.1731 -0.24085 8.45669e-21)
(20.1735 -0.242747 0)
(19.8871 0.248199 -1.20914e-18)
(20.9257 -0.0970264 1.90227e-21)
(21.1687 -0.0414945 -3.21172e-19)
(21.356 0.0440189 2.6222e-19)
(21.5053 0.132943 0)
(21.6122 0.221325 -1.55018e-19)
(21.6705 0.311271 1.42529e-19)
(21.6751 0.398754 1.00654e-19)
(21.6256 0.476552 -8.79466e-20)
(21.5284 0.536712 1.00538e-20)
(21.3967 0.572671 2.91128e-21)
(21.2488 0.58101 0)
(21.1027 0.563234 9.68776e-21)
(20.972 0.525132 -1.90329e-20)
(20.8609 0.483153 -2.40486e-21)
(16.4205 -0.564263 -1.18439e-18)
(19.3867 -0.195525 3.06976e-19)
(19.8201 -0.20897 5.29398e-21)
(20.13 -0.182437 -1.29337e-19)
(20.4058 -0.136081 1.91582e-19)
(20.6549 -0.0791105 -7.32318e-20)
(20.8695 -0.0154718 6.64412e-20)
(21.0392 0.0520391 -6.62514e-20)
(21.1551 0.120236 4.50786e-20)
(21.2124 0.185321 -5.68162e-20)
(21.2132 0.243145 -3.55229e-21)
(21.167 0.289414 2.43708e-20)
(21.0891 0.320662 -2.20302e-20)
(20.9961 0.333959 5.7966e-21)
(20.9016 0.337649 1.34431e-21)
(13.9828 -0.411367 0)
(18.9182 -0.0834319 -2.2912e-19)
(19.4874 -0.147573 1.33354e-19)
(19.7758 -0.138535 -3.55706e-21)
(20.0416 -0.113822 -1.49169e-21)
(20.2905 -0.0853466 5.25334e-20)
(20.5155 -0.0517856 -8.85201e-20)
(20.7082 -0.0126593 7.73111e-20)
(20.8603 0.0306312 -3.36004e-20)
(20.9656 0.0754785 1.34561e-21)
(21.0219 0.118771 2.40403e-20)
(21.0326 0.157443 -2.2309e-21)
(21.0064 0.189223 4.34183e-21)
(20.9549 0.211662 -2.83457e-21)
(20.8904 0.229084 -9.34789e-21)
(12.5784 -0.302708 0)
(18.6716 -0.160216 -2.22259e-21)
(19.4528 -0.237612 -1.87008e-19)
(19.7432 -0.217018 2.5855e-19)
(19.9868 -0.199377 -2.32138e-21)
(20.2126 -0.18107 -1.43069e-19)
(20.4187 -0.157446 5.82537e-20)
(20.5992 -0.126957 0)
(20.7472 -0.0899322 -2.15247e-21)
(20.8569 -0.0478421 7.35272e-21)
(20.925 -0.00330468 3.12901e-21)
(20.9527 0.0402266 -1.2879e-20)
(20.9459 0.0794126 2.00659e-20)
(20.9136 0.111247 -1.9021e-20)
(20.8663 0.133098 7.06044e-21)
(12.6979 -0.205088 5.90069e-21)
(18.011 -0.299454 2.23215e-19)
(19.156 -0.308844 -1.29404e-21)
(19.5857 -0.277926 -5.96632e-22)
(19.8544 -0.26411 0)
(20.0798 -0.249493 -2.22263e-21)
(20.2826 -0.230344 4.95434e-20)
(20.4631 -0.205473 -4.13817e-20)
(20.6163 -0.174639 2.33139e-21)
(20.7371 -0.138144 -3.74315e-21)
(20.8213 -0.0972203 -2.27334e-21)
(20.8684 -0.0541462 -4.52333e-21)
(20.8815 -0.0118193 5.32531e-21)
(20.8674 0.0273386 0)
(20.8351 0.0564868 0)
(13.5774 -0.182311 2.06648e-19)
(17.1963 -0.353554 -1.19783e-21)
(18.7135 -0.307106 -8.26296e-20)
(19.3558 -0.285766 6.12029e-20)
(19.695 -0.274972 0)
(19.9387 -0.263434 -4.08208e-20)
(20.1452 -0.248973 3.42566e-20)
(20.3273 -0.230525 2.71439e-20)
(20.485 -0.207313 5.96415e-22)
(20.6143 -0.179077 -1.94324e-20)
(20.7118 -0.146256 1.579e-20)
(20.7758 -0.11005 -1.31369e-21)
(20.8076 -0.0723594 -2.03125e-20)
(20.8117 -0.0344482 1.31439e-20)
(20.7944 -0.00298468 -1.70792e-21)
(14.0592 -0.228398 1.26937e-19)
(16.7491 -0.324748 -7.49214e-20)
(18.3375 -0.290861 -5.6309e-20)
(19.1385 -0.282552 8.81486e-20)
(19.5635 -0.272698 -9.88708e-24)
(19.8372 -0.263118 -2.57715e-20)
(20.0508 -0.252256 2.32741e-20)
(20.233 -0.238777 -2.32259e-22)
(20.3903 -0.22148 -1.73052e-20)
(20.5216 -0.199795 1.42992e-20)
(20.6245 -0.173775 -1.05565e-20)
(20.6972 -0.144075 -6.34137e-21)
(20.7405 -0.111997 8.83912e-21)
(20.7573 -0.0782304 -8.93335e-21)
(20.7524 -0.0477633 3.33221e-21)
(14.1811 -0.247827 8.98435e-20)
(16.5139 -0.291186 5.08113e-22)
(18.0565 -0.284854 -6.34897e-22)
(18.9432 -0.281841 -9.82445e-22)
(19.4446 -0.272795 0)
(19.7546 -0.264559 -1.9983e-20)
(19.9805 -0.25592 3.21851e-20)
(20.1647 -0.245537 -1.35428e-20)
(20.3211 -0.23215 1.09242e-20)
(20.4523 -0.215015 -1.07787e-20)
(20.5572 -0.193888 4.49915e-22)
(20.6344 -0.16905 -1.81882e-21)
(20.6844 -0.141398 0)
(20.7095 -0.111437 0)
(20.7138 -0.0827394 -7.99948e-22)
(14.0966 -0.246979 0)
(16.3571 -0.274047 0)
(17.8428 -0.282914 1.25801e-22)
(18.7663 -0.281615 1.91549e-20)
(19.3262 -0.274381 -1.3708e-22)
(19.6735 -0.267144 -6.54596e-22)
(19.9159 -0.259755 -1.02422e-20)
(20.1054 -0.251168 7.87861e-21)
(20.2626 -0.240306 -2.05645e-23)
(20.394 -0.226354 -5.88814e-21)
(20.5002 -0.208878 4.28046e-21)
(20.5806 -0.187876 -5.88949e-22)
(20.6355 -0.163877 -3.4747e-21)
(20.6668 -0.137189 1.39198e-21)
(20.6781 -0.109854 -5.2236e-22)
(13.9522 -0.241614 0)
(16.2129 -0.267899 -3.09521e-23)