/*--------------------------------*- C++ -*----------------------------------*\
| =========                 |                                                 |
| \\      /  F ield         | OpenFOAM: The Open Source CFD Toolbox           |
|  \\    /   O peration     | Version:  2.3.0                                 |
|   \\  /    A nd           | Web:      www.OpenFOAM.org                      |
|    \\/     M anipulation  |                                                 |
\*---------------------------------------------------------------------------*/
FoamFile
{
    version     2.0;
    format      ascii;
    class       volVectorField;
    location    "1000";
    object      U;
}
// * * * * * * * * * * * * * * * * * * * * * * * * * * * * * * * * * * * * * //

dimensions      [0 1 -1 0 0 0 0];

internalField   nonuniform List<vector> 
7826
(
(20.7496 0.611288 3.41003e-21)
(20.8104 0.723103 -2.53806e-21)
(20.8794 0.861673 4.25778e-21)
(20.9579 1.02591 3.61295e-20)
(21.0414 1.21064 -3.80016e-20)
(21.1196 1.40735 -2.71031e-21)
(21.1782 1.60663 0)
(21.2029 1.80016 0)
(21.1825 1.98179 0)
(21.1101 2.14722 0)
(20.9836 2.29359 0)
(20.8046 2.41985 -4.12009e-20)
(20.5771 2.52763 1.32961e-20)
(20.3057 2.61748 5.56678e-20)
(19.9988 2.67875 -3.0868e-20)
(20.6221 0.633731 -1.63338e-21)
(20.6291 0.715276 0)
(20.6237 0.798834 -1.53887e-20)
(20.6059 0.887207 1.51881e-20)
(20.5771 0.981239 -6.25144e-22)
(20.5396 1.08029 -1.45908e-20)
(20.4953 1.18179 1.3469e-20)
(20.4455 1.28182 0)
(20.3909 1.37596 3.87567e-20)
(20.3318 1.4602 -3.561e-20)
(20.2687 1.53145 -5.96713e-20)
(20.2026 1.58762 -1.46018e-20)
(20.1347 1.62773 1.03305e-19)
(20.0663 1.65144 -3.63508e-20)
(19.999 1.65831 -2.44605e-22)
(20.5289 0.648487 2.44399e-21)
(20.5242 0.720394 0)
(20.5135 0.789986 3.30484e-21)
(20.4961 0.856525 -3.44127e-21)
(20.4714 0.918236 -7.1634e-20)
(20.4394 0.973959 1.44231e-19)
(20.4006 1.02314 -1.54065e-19)
(20.3562 1.06562 7.70904e-20)
(20.3075 1.10146 -8.82161e-20)
(20.2558 1.13084 -7.46259e-21)
(20.2025 1.15401 -6.7293e-21)
(20.1488 1.17124 8.7646e-20)
(20.0955 1.18292 -3.66766e-22)
(20.0436 1.18951 2.43683e-20)
(19.9937 1.19132 -2.3025e-20)
(20.4479 0.63464 0)
(20.4314 0.688514 3.49557e-20)
(20.4097 0.738845 -3.9144e-20)
(20.3837 0.785802 -5.36808e-22)
(20.3541 0.828889 -2.51084e-22)
(20.3219 0.867648 0)
(20.2878 0.901761 9.30432e-20)
(20.2524 0.931074 6.16862e-21)
(20.2163 0.955595 -9.04427e-20)
(20.1799 0.975435 4.98754e-20)
(20.1436 0.990815 -4.78574e-20)
(20.1078 1.00201 0)
(20.0728 1.00934 -1.21171e-23)
(20.0387 1.01316 -8.21241e-22)
(20.0059 1.01375 -4.23807e-22)
(20.3895 0.616475 5.21525e-21)
(20.3709 0.657886 -4.06425e-22)
(20.3495 0.695749 -3.03416e-21)
(20.3254 0.729966 -4.62149e-20)
(20.2993 0.760419 4.73267e-20)
(20.2716 0.787075 -1.6269e-21)
(20.2427 0.81002 1.65389e-21)
(20.2131 0.8294 0)
(20.1831 0.845418 5.56334e-20)
(20.153 0.858286 -5.31078e-20)
(20.1231 0.868215 0)
(20.0936 0.875425 -5.77365e-20)
(20.0646 0.880131 5.68684e-20)
(20.0364 0.882545 4.56881e-22)
(20.009 0.88284 4.71461e-22)
(20.3436 0.594801 3.07455e-20)
(20.3246 0.626759 -2.12768e-20)
(20.3037 0.655749 3.0349e-21)
(20.2814 0.681664 0)
(20.258 0.704605 1.60881e-21)
(20.2338 0.724644 1.65063e-21)
(20.2091 0.7419 -6.05004e-20)
(20.1842 0.756506 -2.49494e-21)
(20.1591 0.768617 5.58772e-20)
(20.1341 0.778389 6.13375e-20)
(20.1093 0.785963 -5.93148e-20)
(20.0847 0.791475 -9.71742e-22)
(20.0605 0.79506 -3.31714e-20)
(20.0368 0.796851 1.63747e-20)
(20.0136 0.796955 1.73929e-20)
(20.3088 0.573666 2.72406e-20)
(20.2907 0.598803 -2.63634e-20)
(20.2715 0.621656 0)
(20.2515 0.641952 0)
(20.2308 0.659889 0)
(20.2096 0.675566 1.86526e-21)
(20.1881 0.689102 1.83016e-21)
(20.1665 0.700609 6.21576e-20)
(20.1447 0.710203 -6.12384e-20)
(20.1228 0.717987 -9.8526e-22)
(20.1011 0.72406 -3.4208e-20)
(20.0795 0.728504 3.39524e-20)
(20.0581 0.731398 -5.83733e-24)
(20.037 0.732826 -1.0971e-21)
(20.0162 0.732855 -9.16315e-21)
(20.2815 0.553991 -3.67349e-21)
(20.2647 0.574058 -2.90471e-20)
(20.2472 0.59255 2.68769e-20)
(20.2292 0.608954 -6.25644e-20)
(20.2107 0.623512 5.97909e-20)
(20.1919 0.636303 -1.90552e-21)
(20.1729 0.647421 0)
(20.1537 0.65694 0)
(20.1343 0.66493 6.61974e-20)
(20.1149 0.671458 -6.68383e-20)
(20.0954 0.676583 1.08247e-21)
(20.076 0.68035 1.1207e-21)
(20.0567 0.68281 1.9774e-20)
(20.0375 0.684007 5.05203e-22)
(20.0186 0.683983 -2.03876e-20)
(20.2599 0.536312 7.56155e-21)
(20.2445 0.552579 0)
(20.2286 0.567862 1.87737e-21)
(20.2124 0.581461 3.15852e-20)
(20.1958 0.593609 -1.07494e-21)
(20.1789 0.604363 9.45842e-22)
(20.1618 0.613783 -1.13117e-21)
(20.1444 0.621912 -3.34616e-20)
(20.1269 0.628784 1.08055e-21)
(20.1092 0.634433 0)
(20.0914 0.63889 0)
(20.0736 0.642183 -4.06674e-20)
(20.0557 0.644339 3.83988e-20)
(20.038 0.64538 0)
(20.0204 0.645328 0)
(20.2427 0.520737 -3.85326e-21)
(20.2285 0.534107 0)
(20.2141 0.546895 0)
(20.1993 0.558385 4.03434e-21)
(20.1843 0.568743 3.3346e-20)
(20.1689 0.578005 -3.11015e-20)
(20.1533 0.586194 2.13647e-21)
(20.1374 0.593314 -2.21783e-21)
(20.1213 0.59938 0)
(20.1049 0.604387 0)
(20.0884 0.608346 1.20174e-21)
(20.0718 0.611286 1.23213e-21)
(20.0551 0.613217 0)
(20.0385 0.614142 0)
(20.0219 0.614071 0)
(20.2288 0.506981 0)
(20.2158 0.518221 0)
(20.2026 0.528979 0)
(20.1891 0.538834 3.15856e-20)
(20.1752 0.547826 -6.7866e-20)
(20.161 0.555958 3.20967e-20)
(20.1466 0.563229 -3.59209e-20)
(20.1319 0.569596 1.39623e-21)
(20.1169 0.57507 3.69736e-20)
(20.1017 0.579604 0)
(20.0862 0.583176 -2.12805e-20)
(20.0705 0.585832 1.76127e-20)
(20.0547 0.587585 2.12413e-20)
(20.0389 0.588407 -1.04468e-20)
(20.0232 0.588316 -1.09998e-20)
(20.2173 0.494713 -1.95606e-21)
(20.2056 0.504268 0)
(20.1935 0.513429 0)
(20.1809 0.52205 3.64923e-20)
(20.1681 0.530024 -3.21285e-20)
(20.1548 0.537288 3.8039e-20)
(20.1414 0.543874 -3.58727e-20)
(20.1275 0.549663 -2.33342e-21)
(20.1135 0.554706 1.93303e-20)
(20.0991 0.558891 -4.1784e-20)
(20.0846 0.562144 2.00086e-20)
(20.0695 0.564556 -1.84607e-20)
(20.0544 0.566175 1.30488e-20)
(20.0393 0.566889 1.09106e-20)
(20.0241 0.566766 -2.83252e-21)
(20.2077 0.483132 4.79226e-23)
(20.1972 0.49168 -1.48136e-20)
(20.1861 0.499748 1.68409e-20)
(20.1741 0.50747 2.57961e-23)
(20.1623 0.514753 -2.21559e-21)
(20.1496 0.521307 -2.03989e-20)
(20.1371 0.527412 1.82059e-20)
(20.1239 0.532697 -1.67124e-20)
(20.1105 0.537457 1.67311e-20)
(20.097 0.541413 2.48177e-21)
(20.0834 0.544329 2.06644e-20)
(20.0688 0.546461 -2.08046e-20)
(20.0543 0.548026 -5.3941e-21)
(20.0398 0.548633 -2.84104e-21)
(20.0251 0.548506 8.49509e-21)
(20.1984 0.472449 -2.18694e-21)
(20.1895 0.480914 1.39684e-23)
(20.1797 0.487917 0)
(20.1678 0.494731 -4.33916e-21)
(20.1573 0.50168 2.23045e-21)
(20.1449 0.507533 -1.61523e-20)
(20.1333 0.513381 1.84815e-20)
(20.1205 0.51799 2.44829e-21)
(20.1078 0.522626 -2.54875e-24)
(20.0947 0.526712 -2.02679e-20)
(20.0823 0.529371 2.04993e-20)
(20.0684 0.531098 0)
(20.0551 0.532715 5.53198e-21)
(20.0413 0.532975 -8.63747e-21)
(20.0268 0.532974 5.70955e-21)
(19.6328 2.6391 0)
(19.3381 2.55286 -2.88437e-22)
(19.1001 2.44218 -9.28244e-20)
(18.9195 2.32049 1.05332e-19)
(18.7947 2.18203 -1.18137e-21)
(18.7233 2.02543 2.47598e-21)
(18.7015 1.85212 3.44827e-19)
(18.7227 1.66515 -3.69635e-19)
(18.7778 1.46927 0)
(18.8562 1.27114 -2.83282e-21)
(18.9463 1.07907 0)
(19.0381 0.901852 0)
(19.1245 0.746677 4.07689e-19)
(19.2026 0.617247 -4.3012e-19)
(19.2722 0.505398 1.85422e-20)
(19.9323 1.65066 0)
(19.8662 1.6279 2.4704e-22)
(19.8004 1.58806 -3.26955e-23)
(19.7358 1.53276 9.26476e-20)
(19.6734 1.46335 -1.00665e-19)
(19.6142 1.38178 -8.15317e-22)
(19.559 1.29062 1.83833e-21)
(19.5085 1.19307 0)
(19.4635 1.0927 2.23979e-21)
(19.4254 0.992958 -5.53372e-21)
(19.3959 0.896506 -5.09546e-21)
(19.3774 0.804819 -3.64464e-19)
(19.3714 0.71796 3.802e-19)
(19.3784 0.635248 2.32151e-20)
(19.3968 0.55119 -4.20999e-20)
(19.9451 1.1891 0)
(19.896 1.18271 8.79667e-22)
(19.8457 1.17133 -6.47247e-20)
(19.7952 1.15471 6.68049e-20)
(19.7452 1.13241 -8.00243e-20)
(19.6967 1.10412 -9.2191e-20)
(19.6508 1.06952 1.8729e-19)
(19.6088 1.02831 0)
(19.5718 0.980337 1.50002e-21)
(19.5409 0.925618 0)
(19.517 0.864524 -2.76601e-19)
(19.5004 0.798005 1.42519e-19)
(19.4911 0.727661 7.04662e-21)
(19.4886 0.655578 1.64364e-19)
(19.4919 0.580921 -3.66399e-20)
(19.9738 1.0115 7.33957e-21)
(19.9413 1.00632 -8.57214e-21)
(19.9079 0.997799 -3.41697e-20)
(19.8739 0.985696 3.78496e-20)
(19.8395 0.969709 -8.15817e-20)
(19.8051 0.949596 8.51667e-20)
(19.7709 0.925148 -9.58216e-20)
(19.7374 0.896206 1.00399e-19)
(19.705 0.862729 -2.27218e-19)
(19.6744 0.824768 2.33989e-19)
(19.6463 0.782505 0)
(19.6214 0.736277 0)
(19.6006 0.686546 -9.0029e-21)
(19.5849 0.633731 -9.21236e-21)
(19.5747 0.576808 1.8034e-20)
(19.9821 0.881212 4.89986e-22)
(19.9549 0.877601 0)
(19.9272 0.871773 -3.6707e-20)
(19.8991 0.863574 -6.80283e-22)
(19.8708 0.852804 3.81265e-20)
(19.8424 0.839271 8.77723e-20)
(19.8141 0.822778 -1.81352e-19)
(19.7864 0.803121 -2.83967e-21)
(19.7594 0.780114 9.85743e-20)
(19.7335 0.753588 0)
(19.7092 0.723425 0)
(19.6869 0.689605 0)
(19.6671 0.652223 1.21873e-19)
(19.6502 0.611352 -1.23439e-19)
(19.6369 0.566545 0)
(19.9907 0.795486 -5.40062e-22)
(19.9676 0.792411 3.6862e-20)
(19.9443 0.78759 -3.64141e-20)
(19.9206 0.780934 4.04332e-20)
(19.8969 0.77232 -1.25681e-19)
(19.873 0.761623 1.73413e-19)
(19.8493 0.748721 -1.83484e-19)
(19.8257 0.733491 1.92902e-19)
(19.8026 0.715797 2.55692e-21)
(19.78 0.695506 -1.05598e-19)
(19.7582 0.672507 -1.13452e-19)
(19.7374 0.646715 1.16398e-19)
(19.7182 0.618105 7.81537e-21)
(19.7006 0.58663 -4.76064e-20)
(19.6849 0.552329 3.79447e-20)
(19.9957 0.731553 9.22883e-21)
(19.9751 0.728898 2.43278e-21)
(19.9543 0.7248 -2.53805e-21)
(19.9334 0.719205 -4.37706e-20)
(19.9124 0.712038 4.41816e-20)
(19.8915 0.703228 4.54692e-20)
(19.8708 0.692699 -4.60628e-20)
(19.8502 0.680374 0)
(19.83 0.666153 3.19883e-21)
(19.8101 0.649937 1.06216e-19)
(19.7909 0.631627 -1.08437e-19)
(19.7723 0.61112 3.51481e-21)
(19.7547 0.588334 0)
(19.7382 0.563165 -3.03829e-20)
(19.7235 0.535658 2.15484e-20)
(19.9999 0.682783 0)
(19.9811 0.680388 -1.30841e-21)
(19.9622 0.676748 2.57152e-20)
(19.9433 0.67182 -2.17298e-20)
(19.9244 0.665569 -4.42408e-20)
(19.9057 0.657963 4.58443e-20)
(19.8871 0.648956 0)
(19.8687 0.638508 5.26706e-20)
(19.8506 0.626567 -5.01652e-20)
(19.8329 0.613062 0)
(19.8157 0.597926 3.34876e-21)
(19.7989 0.581078 -6.99605e-21)
(19.7828 0.562441 0)
(19.7674 0.541983 7.49973e-21)
(19.7533 0.519765 -7.41007e-21)
(20.003 0.644208 0)
(19.9855 0.642012 -5.24789e-24)
(19.9681 0.638704 -2.69165e-20)
(19.9506 0.634257 2.1223e-20)
(19.9333 0.628655 -1.467e-21)
(19.9161 0.621899 -4.81835e-20)
(19.8992 0.613973 -9.64448e-22)
(19.8824 0.604854 4.31354e-20)
(19.866 0.594524 0)
(19.85 0.582943 5.28196e-20)
(19.8344 0.570069 -6.0042e-20)
(19.8192 0.555851 6.90931e-21)
(19.8046 0.540226 0)
(19.7904 0.523198 -1.46025e-20)
(19.7766 0.50448 2.91449e-20)
(20.0055 0.613017 -4.18777e-21)
(19.9891 0.610978 -3.13538e-23)
(19.9727 0.607923 6.02812e-24)
(19.9565 0.603829 2.38972e-20)
(19.9403 0.598702 -2.52844e-20)
(19.9243 0.592567 -4.9301e-20)
(19.9086 0.585435 9.62079e-20)
(19.8932 0.577297 -4.68993e-20)
(19.8781 0.568146 0)
(19.8634 0.557977 -3.2626e-21)
(19.8491 0.546779 3.37538e-21)
(19.8352 0.534533 4.83363e-20)
(19.8218 0.521215 -5.90895e-20)
(19.8089 0.506899 -1.43916e-20)
(19.7966 0.491053 -3.68764e-21)
(20.0076 0.587309 -1.45806e-21)
(19.9919 0.585404 4.36507e-21)
(19.9765 0.582566 4.64235e-24)
(19.9611 0.57874 1.51571e-21)
(19.9459 0.573965 1.53667e-21)
(19.9309 0.56831 0)
(19.9161 0.561793 6.29397e-21)
(19.9017 0.5544 0)
(19.8877 0.546137 5.21914e-20)
(19.874 0.537029 -4.88979e-20)
(19.8608 0.527088 -5.38898e-20)
(19.848 0.516322 5.75296e-20)
(19.8356 0.504732 6.94206e-21)
(19.8237 0.492407 0)
(19.8121 0.47869 -3.58013e-21)
(20.0091 0.565777 -5.84758e-21)
(19.9941 0.563999 -3.06617e-21)
(19.9794 0.561396 7.5114e-21)
(19.9649 0.557786 0)
(19.9505 0.553263 0)
(19.9361 0.547993 -3.12583e-21)
(19.9222 0.541977 -2.55818e-20)
(19.9086 0.535157 2.86392e-20)
(19.8955 0.527564 0)
(19.8827 0.519268 0)
(19.8703 0.510293 0)
(19.8584 0.500671 3.37038e-21)
(19.8469 0.490419 -6.88733e-21)
(19.8359 0.479584 0)
(19.8254 0.467624 0)
(20.0107 0.547496 2.92679e-21)
(19.9959 0.54586 0)
(19.9821 0.543596 0)
(19.9683 0.54016 -1.23915e-20)
(19.9544 0.535758 1.23081e-20)
(19.9405 0.5308 3.14412e-21)
(19.9272 0.525215 2.55303e-20)
(19.9144 0.518835 -3.18226e-20)
(19.9019 0.511727 0)
(19.8898 0.504059 -2.31133e-20)
(19.8783 0.495842 -3.38052e-22)
(19.867 0.487144 -3.70044e-21)
(19.8564 0.477966 3.05898e-20)
(19.8462 0.46833 1.0427e-20)
(19.8367 0.458216 -7.11811e-21)
(20.013 0.531831 2.96956e-21)
(19.998 0.530353 -6.00586e-21)
(19.9851 0.528512 1.80311e-20)
(19.9716 0.525003 2.32414e-22)
(19.9578 0.520676 -9.26251e-21)
(19.9442 0.516102 0)
(19.9317 0.510901 -6.29923e-21)
(19.9194 0.50484 3.24101e-21)
(19.9076 0.498056 0)
(19.896 0.490928 -3.33961e-20)
(19.8852 0.483311 2.65206e-20)
(19.8745 0.475392 -1.34451e-20)
(19.8647 0.467069 -3.52396e-21)
(19.8553 0.458204 1.38949e-20)
(19.8469 0.448517 0)
(19.9632 -0.298543 0)
(19.864 -0.302966 -2.93078e-19)
(19.7211 -0.308071 3.26206e-19)
(19.5206 -0.312325 0)
(19.2555 -0.315681 0)
(18.9263 -0.31811 6.73827e-21)
(18.5365 -0.319787 1.05712e-18)
(18.0902 -0.320854 -1.77316e-18)
(17.5889 -0.321377 -1.25908e-20)
(17.0287 -0.321324 -3.17457e-21)
(16.3953 -0.320815 1.76597e-18)
(15.6556 -0.319463 -1.045e-18)
(14.7421 -0.31713 -3.20109e-19)
(13.5632 -0.284983 2.07859e-19)
(12.3726 -0.267377 8.16007e-23)
(19.9583 -0.295534 -1.74527e-20)
(19.8698 -0.29866 1.3541e-19)
(19.7465 -0.302943 -1.81197e-19)
(19.5779 -0.307424 1.16254e-20)
(19.3574 -0.312018 -4.13321e-19)
(19.0829 -0.316497 4.51634e-19)
(18.7543 -0.320561 4.89505e-19)
(18.372 -0.323867 1.42465e-21)
(17.9338 -0.326119 -5.80073e-19)
(17.433 -0.327106 -5.10108e-21)
(16.8525 -0.326947 3.69973e-19)
(16.1576 -0.325152 -2.29299e-21)
(15.2929 -0.321573 -5.1747e-19)
(14.2438 -0.296578 5.27133e-21)
(13.3816 -0.24383 -2.07444e-19)
(19.9552 -0.295101 1.85399e-20)
(19.8761 -0.299475 1.82555e-19)
(19.7684 -0.305012 -1.6612e-19)
(19.6237 -0.310532 -1.20321e-20)
(19.4357 -0.315607 6.50506e-21)
(19.2004 -0.319874 4.39536e-19)
(18.9155 -0.323086 -4.93249e-19)
(18.5786 -0.325117 -5.33303e-19)
(18.1852 -0.325955 -1.37722e-22)
(17.7257 -0.325662 6.52901e-19)
(17.181 -0.32447 0)
(16.5162 -0.321709 0)
(15.6858 -0.31518 0)
(14.7116 -0.291137 -2.38414e-21)
(13.9755 -0.23217 -1.83423e-19)
(19.9503 -0.294368 -7.88712e-20)
(19.8776 -0.298652 9.71079e-20)
(19.7805 -0.303761 1.75422e-19)
(19.6525 -0.308517 -2.02161e-19)
(19.4877 -0.312653 4.37607e-19)
(19.2814 -0.316005 1.11815e-21)
(19.0295 -0.318467 -1.01684e-18)
(18.7276 -0.31999 2.78038e-19)
(18.3688 -0.320572 6.11994e-19)
(17.9414 -0.320261 -3.38465e-19)
(17.4242 -0.319183 -1.19658e-20)
(16.7822 -0.316585 -3.41458e-21)
(15.976 -0.308879 0)
(15.044 -0.284549 4.82572e-21)
(14.3632 -0.226801 -5.62253e-21)
(19.9454 -0.293076 -2.10427e-20)
(19.8781 -0.296261 1.04994e-22)
(19.7903 -0.300504 2.46132e-20)
(19.6765 -0.304499 0)
(19.5311 -0.308049 7.14041e-21)
(19.3488 -0.311024 2.53232e-19)
(19.1242 -0.31329 -7.62462e-21)
(18.851 -0.314755 -5.7773e-19)
(18.5207 -0.315387 3.12265e-19)
(18.1195 -0.315209 0)
(17.6251 -0.314265 5.8933e-21)
(17.002 -0.311781 3.36219e-21)
(16.2141 -0.303646 1.25492e-19)
(15.3075 -0.279134 -1.53703e-19)
(14.6552 -0.223678 -8.25126e-20)
(19.9417 -0.29088 -5.52201e-20)
(19.8796 -0.293763 2.40249e-20)
(19.8003 -0.297626 6.79392e-23)
(19.6986 -0.301193 6.88749e-21)
(19.5692 -0.30438 -2.42406e-19)
(19.4064 -0.307082 2.35393e-19)
(19.2039 -0.309165 0)
(18.9541 -0.310538 4.53723e-21)
(18.6471 -0.311169 0)
(18.2679 -0.311071 0)
(17.7927 -0.310225 5.95757e-21)
(17.1854 -0.3078 -6.70319e-21)
(16.412 -0.299536 -1.30441e-19)
(15.5216 -0.275014 1.43881e-19)
(14.8854 -0.221391 -5.2129e-21)
(19.9383 -0.288849 -2.32014e-20)
(19.8813 -0.291664 6.3058e-20)
(19.8091 -0.295183 -1.33709e-20)
(19.7173 -0.298403 -7.09419e-21)
(19.6007 -0.3013 0)
(19.4536 -0.303794 8.02709e-21)
(19.2689 -0.305763 0)
(19.0384 -0.30712 4.62072e-21)
(18.7508 -0.307814 1.59389e-19)
(18.39 -0.307839 -5.204e-21)
(17.9312 -0.307112 -1.90232e-19)
(17.3377 -0.304736 6.61558e-21)
(16.5757 -0.29642 -1.76762e-23)
(15.6962 -0.271907 -3.48925e-20)
(15.0698 -0.219487 -4.00137e-20)
(19.9358 -0.287753 -1.24874e-20)
(19.8828 -0.289997 1.05778e-19)
(19.8164 -0.29304 -1.11343e-19)
(19.7327 -0.295955 -7.36391e-21)
(19.6266 -0.29866 -1.16571e-19)
(19.4923 -0.301065 2.63441e-19)
(19.3223 -0.303045 -2.80209e-19)
(19.1077 -0.304492 2.94646e-19)
(18.8366 -0.305331 1.58724e-22)
(18.4917 -0.305516 -1.62903e-19)
(18.0473 -0.304911 -5.93289e-21)
(17.4658 -0.302557 0)
(16.7135 -0.294179 -7.33025e-24)
(15.8416 -0.269619 4.23092e-20)
(15.2212 -0.217903 -3.82199e-20)
(19.9334 -0.285027 -3.94212e-20)
(19.884 -0.287923 8.27063e-20)
(19.8227 -0.29097 -5.77112e-20)
(19.7457 -0.293796 1.21261e-19)
(19.6483 -0.296464 -1.35376e-19)
(19.5245 -0.298914 0)
(19.3667 -0.30103 8.91749e-21)
(19.1656 -0.302688 -1.51479e-19)
(18.9085 -0.30378 -5.12564e-21)
(18.5774 -0.304218 1.73992e-19)
(18.1456 -0.303781 1.06133e-19)
(17.5749 -0.301424 -1.03517e-19)
(16.831 -0.292822 7.21574e-21)
(15.9651 -0.267924 -8.1999e-21)
(15.3487 -0.21641 -3.67811e-20)
(19.9308 -0.283538 2.03533e-20)
(19.8849 -0.286277 0)
(19.8281 -0.289126 -7.48105e-21)
(19.7568 -0.291896 1.32527e-19)
(19.6666 -0.294588 -1.30445e-19)
(19.5515 -0.297149 0)
(19.404 -0.299476 -9.01929e-21)
(19.2144 -0.301444 0)
(18.9694 -0.302917 5.07692e-21)
(18.6506 -0.303753 8.14944e-20)
(18.2304 -0.303685 -8.7882e-20)
(17.6699 -0.301486 -1.01993e-19)
(16.9341 -0.292845 4.94887e-20)
(16.0729 -0.267591 4.76679e-20)
(15.4588 -0.21569 1.7636e-20)
(19.9286 -0.282329 -7.19016e-21)
(19.8855 -0.284891 -7.46029e-21)
(19.8324 -0.287584 7.68942e-21)
(19.766 -0.290289 0)
(19.6817 -0.293017 0)
(19.5738 -0.295747 0)
(19.4346 -0.298405 1.46347e-19)
(19.2544 -0.30084 -1.54201e-19)
(19.0196 -0.30289 0)
(18.711 -0.30448 -8.66655e-20)
(18.3003 -0.305188 6.97257e-20)
(17.7489 -0.30357 -3.75321e-20)
(17.0199 -0.294289 6.20455e-20)
(16.165 -0.267423 1.53769e-20)
(15.5543 -0.214257 1.70086e-20)
(19.9266 -0.280528 2.26693e-20)
(19.8863 -0.28343 -2.31173e-20)
(19.8367 -0.286098 0)
(19.7745 -0.288692 0)
(19.6953 -0.291333 0)
(19.5937 -0.294091 -8.85644e-21)
(19.462 -0.296963 9.26254e-21)
(19.2906 -0.299848 -9.72012e-21)
(19.0653 -0.302445 0)
(18.7667 -0.304604 0)
(18.3666 -0.306838 2.30838e-20)
(17.8252 -0.306903 -2.47605e-20)
(17.1088 -0.299821 -1.33494e-20)
(16.2546 -0.272853 0)
(15.6437 -0.216096 -1.62861e-20)
(19.9235 -0.279602 0)
(19.8854 -0.282385 7.98057e-21)
(19.8387 -0.284968 0)
(19.7797 -0.287488 6.67931e-20)
(19.7042 -0.290144 -6.02423e-20)
(19.6065 -0.293089 8.93289e-21)
(19.4792 -0.296462 -9.30633e-21)
(19.3124 -0.300052 9.7293e-21)
(19.0931 -0.303316 0)
(18.7993 -0.306671 0)
(18.3988 -0.311073 -1.14241e-20)
(17.8625 -0.316514 1.21811e-20)
(17.1453 -0.306701 2.62894e-20)
(16.3189 -0.273067 0)
(15.7199 -0.211481 0)
(19.9252 -0.278413 1.64938e-20)
(19.8897 -0.281146 -2.46774e-20)
(19.8464 -0.283658 0)
(19.7914 -0.285583 0)
(19.7215 -0.287502 -8.81956e-21)
(19.6312 -0.289764 0)
(19.5134 -0.292834 0)
(19.3587 -0.297488 8.90821e-20)
(19.1522 -0.301113 -1.76238e-19)
(18.8747 -0.300353 8.77958e-20)
(18.4949 -0.306341 -4.7142e-20)
(17.9691 -0.319885 1.11241e-19)
(17.3215 -0.329511 -5.45985e-20)
(16.4251 -0.301339 0)
(15.8242 -0.223946 0)
(12.8713 -0.111663 2.75787e-19)
(14.4218 -0.162109 -8.19492e-19)
(15.7142 -0.17616 6.33614e-19)
(16.6724 -0.206077 0)
(17.4367 -0.22886 -8.90628e-19)
(18.0795 -0.248315 -1.06082e-21)
(18.6299 -0.265042 6.84595e-19)
(19.0966 -0.279259 0)
(19.4787 -0.290758 1.07682e-18)
(19.7726 -0.299344 -9.81096e-19)
(19.9777 -0.304949 -3.82112e-23)
(20.1019 -0.30757 -4.0391e-19)
(20.1646 -0.307935 -1.1387e-20)
(20.1871 -0.306559 4.57595e-19)
(20.1859 -0.303776 -1.08e-19)
(13.7813 -0.144231 6.07585e-19)
(15.0907 -0.14816 -3.10845e-19)
(16.296 -0.166932 -2.14525e-21)
(17.2083 -0.194154 -3.36417e-21)
(17.9163 -0.214389 2.91401e-21)
(18.4906 -0.232019 -2.76646e-21)
(18.9648 -0.247743 5.98787e-19)
(19.3524 -0.261928 -5.40631e-19)
(19.6582 -0.274289 -5.01343e-19)
(19.8852 -0.284346 4.53514e-19)
(20.0389 -0.291614 -4.25399e-19)
(20.1302 -0.29574 4.06167e-19)
(20.1757 -0.297129 1.34351e-22)
(20.1914 -0.296532 1.67891e-19)
(20.1887 -0.294613 -1.52463e-19)
(14.3509 -0.157332 1.79341e-19)
(15.5582 -0.147747 -6.01157e-19)
(16.7099 -0.16674 4.91491e-19)
(17.5879 -0.190212 3.26238e-21)
(18.2544 -0.208176 -7.40119e-19)
(18.778 -0.223096 -3.4374e-21)
(19.1958 -0.235823 5.9331e-19)
(19.5258 -0.247103 -5.47582e-19)
(19.7775 -0.257122 5.08682e-19)
(19.9586 -0.265867 -4.55113e-19)
(20.0781 -0.273145 4.31491e-19)
(20.1483 -0.278627 0)
(20.1828 -0.282225 1.53408e-23)
(20.1939 -0.284124 -1.8644e-19)
(20.1903 -0.2846 1.81379e-19)
(14.7361 -0.161524 3.66849e-19)
(15.8989 -0.149092 2.98857e-19)
(17.0177 -0.167053 -9.9728e-19)
(17.8681 -0.188632 4.29981e-19)
(18.5007 -0.205859 3.87448e-19)
(18.9832 -0.219701 -3.41758e-19)
(19.356 -0.231171 0)
(19.641 -0.241061 0)
(19.8519 -0.249649 5.29201e-19)
(20.0001 -0.25705 -4.87758e-19)
(20.0968 -0.263243 4.56251e-19)
(20.1539 -0.268145 -4.22057e-19)
(20.1826 -0.271768 1.22939e-20)
(20.1923 -0.274248 -1.73045e-19)
(20.1894 -0.275743 1.92299e-19)
(15.0315 -0.163201 4.25218e-19)
(16.173 -0.150843 8.0939e-22)
(17.2693 -0.167818 -2.45265e-19)
(18.096 -0.188299 -6.71432e-21)
(18.699 -0.204888 -5.94139e-21)
(19.1467 -0.217903 0)
(19.4822 -0.228507 0)
(19.7306 -0.237504 4.57641e-21)
(19.9091 -0.245221 5.35149e-19)
(20.0316 -0.251795 -1.01804e-18)
(20.1105 -0.257242 4.7066e-19)
(20.1571 -0.261563 0)
(20.1811 -0.264828 0)
(20.1895 -0.267195 0)
(20.1874 -0.26887 0)
(15.2669 -0.163834 5.09958e-21)
(16.3979 -0.152043 0)
(17.4776 -0.168286 2.32614e-19)
(18.2832 -0.188019 -2.04673e-19)
(18.8601 -0.203986 0)
(19.2778 -0.216289 -3.4227e-19)
(19.5821 -0.226151 3.23877e-19)
(19.801 -0.234372 -3.01287e-19)
(19.9541 -0.241322 2.66673e-19)
(20.0568 -0.247189 -8.08718e-21)
(20.1221 -0.252054 0)
(20.1605 -0.255986 -2.36188e-19)
(20.1802 -0.259077 2.14654e-19)
(20.1871 -0.261451 -1.26917e-20)
(20.1854 -0.263304 1.20104e-20)
(15.4569 -0.163786 2.34134e-19)
(16.5831 -0.152415 -1.34389e-19)
(17.6496 -0.168075 7.31859e-21)
(18.4365 -0.187223 -6.54341e-21)
(18.9899 -0.202644 0)
(19.3816 -0.214399 -5.42853e-21)
(19.6597 -0.223716 3.17768e-19)
(19.8546 -0.231377 -2.9951e-19)
(19.9877 -0.237772 8.76289e-21)
(20.0754 -0.243113 8.24076e-21)
(20.1304 -0.247537 0)
(20.1626 -0.251168 7.36457e-21)
(20.1792 -0.254121 0)
(20.185 -0.256489 1.32433e-20)
(20.1835 -0.25843 -1.26173e-20)
(15.6139 -0.163359 0)
(16.7381 -0.152143 8.15278e-21)
(17.7937 -0.167222 -2.37292e-19)
(18.5634 -0.185788 2.12599e-19)
(19.0958 -0.200705 -5.90796e-21)
(19.4647 -0.212042 -5.4614e-21)
(19.7205 -0.221 3.20486e-19)
(19.8957 -0.228331 -2.94025e-19)
(20.0129 -0.234417 2.77806e-19)
(20.0888 -0.239478 9.62705e-21)
(20.136 -0.243673 -2.5576e-19)
(20.1635 -0.247151 0)
(20.1776 -0.250036 -7.27225e-21)
(20.1826 -0.252426 0)
(20.1815 -0.254556 0)
(15.747 -0.162435 3.58687e-20)
(16.8706 -0.151101 -7.90231e-21)
(17.9165 -0.165578 7.01926e-21)
(18.6704 -0.183579 0)
(19.1837 -0.198062 1.94062e-19)
(19.5323 -0.209126 6.31229e-21)
(19.769 -0.217917 -1.58044e-19)
(19.9278 -0.225142 1.44688e-19)
(20.0321 -0.231154 -1.4523e-19)
(20.0987 -0.236155 1.38422e-19)
(20.1398 -0.240311 -1.31251e-19)
(20.1636 -0.243776 -7.87127e-21)
(20.1758 -0.246676 1.35609e-19)
(20.1802 -0.249097 -1.15192e-19)
(20.1792 -0.25126 -2.81597e-20)
(15.8617 -0.161524 -7.77289e-20)
(16.985 -0.14946 5.34939e-20)
(18.0217 -0.162954 0)
(18.7608 -0.18022 -2.01466e-19)
(19.2565 -0.194324 1.85789e-19)
(19.5872 -0.20535 0)
(19.8076 -0.214324 0)
(19.9527 -0.221802 0)
(20.0466 -0.228023 1.57339e-19)
(20.1059 -0.233175 -2.90503e-19)
(20.1422 -0.237429 2.61035e-19)
(20.1631 -0.240963 -1.12906e-19)
(20.1738 -0.243915 2.8216e-23)
(20.1777 -0.24636 6.01151e-20)
(20.177 -0.248466 -2.92583e-20)
(15.9626 -0.159007 -2.47882e-20)
(17.0867 -0.145945 1.26532e-19)
(18.1149 -0.158668 8.43388e-22)
(18.8396 -0.17555 -2.10301e-19)
(19.3184 -0.189667 9.21732e-20)
(19.6325 -0.201112 -1.09372e-20)
(19.8381 -0.210648 0)
(19.9718 -0.218646 0)
(20.0573 -0.225302 0)
(20.1109 -0.230721 -1.34763e-19)
(20.1434 -0.23513 8.13201e-21)
(20.1621 -0.23875 1.15978e-19)
(20.1717 -0.241745 -1.60491e-20)
(20.1754 -0.244203 7.01373e-20)
(20.175 -0.246202 -7.55251e-20)
(16.0523 -0.157915 1.58845e-20)
(17.1728 -0.142373 0)
(18.1909 -0.152935 -1.18232e-19)
(18.9017 -0.168514 1.10206e-20)
(19.366 -0.182655 7.96975e-20)
(19.666 -0.195085 -7.67171e-20)
(19.861 -0.206259 2.49571e-19)
(19.9857 -0.21576 -3.17456e-19)
(20.0648 -0.223187 2.94364e-19)
(20.114 -0.22896 -1.4563e-19)
(20.1437 -0.233469 -8.80967e-21)
(20.1608 -0.237126 1.70069e-20)
(20.1696 -0.240157 -2.81779e-23)
(20.1731 -0.242667 -8.04092e-21)
(20.173 -0.244749 -7.89764e-21)
(16.1348 -0.148232 0)
(17.2625 -0.132378 0)
(18.2746 -0.143643 5.18721e-20)
(18.9712 -0.16036 -1.56998e-19)
(19.4158 -0.175864 1.02447e-19)
(19.6998 -0.191185 1.0984e-20)
(19.879 -0.204476 0)
(19.9962 -0.21452 0)
(20.0702 -0.222396 9.5798e-21)
(20.1163 -0.228056 6.48549e-20)
(20.1439 -0.232473 -1.43156e-19)
(20.1595 -0.236126 5.20643e-20)
(20.1676 -0.239126 -2.65765e-23)
(20.1709 -0.241552 0)
(20.1711 -0.243474 0)
(16.2071 -0.148118 1.45956e-20)
(17.3058 -0.128448 -5.38536e-20)
(18.2978 -0.132626 6.15031e-20)
(18.9769 -0.145127 1.17728e-20)
(19.4214 -0.161983 9.0611e-20)
(19.6927 -0.179654 -1.8516e-19)
(19.8876 -0.199181 9.44799e-20)
(20.0012 -0.214042 -8.07458e-20)
(20.0745 -0.222486 7.82049e-20)
(20.1175 -0.227903 0)
(20.1429 -0.231834 9.03492e-21)
(20.1572 -0.235247 8.81751e-21)
(20.1657 -0.238352 1.73473e-20)
(20.1689 -0.240727 8.51633e-21)
(20.1693 -0.242666 0)
(19.8874 0.251723 -1.21808e-18)
(20.9302 -0.0956279 1.91719e-21)
(21.1746 -0.0397344 -3.23517e-19)
(21.3633 0.046441 2.64125e-19)
(21.5137 0.136022 0)
(21.6217 0.225056 -1.5614e-19)
(21.6807 0.315655 1.43556e-19)
(21.6856 0.403767 1.01375e-19)
(21.6359 0.482109 -8.8575e-20)
(21.5381 0.542672 1.01248e-20)
(21.4056 0.578844 2.93155e-21)
(21.2566 0.587189 0)
(21.1095 0.569231 9.75328e-21)
(20.9778 0.530812 -1.91595e-20)
(20.866 0.488469 -2.41684e-21)
(16.406 -0.56414 -1.19441e-18)
(19.3785 -0.195772 3.09381e-19)
(19.8155 -0.208601 5.33304e-21)
(20.128 -0.181765 -1.30282e-19)
(20.4061 -0.135054 1.92971e-19)
(20.6573 -0.0776564 -7.37593e-20)
(20.8738 -0.0135402 6.69156e-20)
(21.045 0.0544738 -6.6723e-20)
(21.162 0.123171 4.53957e-20)
(21.2199 0.188723 -5.72157e-20)
(21.2208 0.246945 -3.57686e-21)
(21.1744 0.293514 2.45382e-20)
(21.0959 0.324942 -2.21816e-20)
(21.0022 0.33829 5.8347e-21)
(20.9071 0.341957 1.35456e-21)
(13.964 -0.411272 0)
(18.9056 -0.0830114 -2.30829e-19)
(19.4796 -0.146775 1.34322e-19)
(19.7708 -0.137654 -3.58278e-21)
(20.0389 -0.112752 -1.50253e-21)
(20.2901 -0.0840461 5.2909e-20)
(20.5171 -0.0502143 -8.91486e-20)
(20.7115 -0.0107786 7.78558e-20)
(20.865 0.0328483 -3.38358e-20)
(20.9713 0.0780374 1.35535e-21)
(21.0281 0.121648 2.42055e-20)
(21.039 0.16059 -2.24705e-21)
(21.0126 0.192573 4.37041e-21)
(20.9608 0.215139 -2.85456e-21)
(20.8959 0.232644 -9.40975e-21)
(12.5636 -0.302393 0)
(18.6575 -0.160122 -2.2377e-21)
(19.4441 -0.237317 -1.88336e-19)
(19.7376 -0.216661 2.60389e-19)
(19.9835 -0.198891 -2.33619e-21)
(20.2114 -0.180433 -1.44077e-19)
(20.4194 -0.156619 5.86623e-20)
(20.6016 -0.125892 0)
(20.751 -0.088583 -2.16727e-21)
(20.8617 -0.0461739 7.40359e-21)
(20.9305 -0.00130708 3.15065e-21)
(20.9586 0.0425363 -1.29674e-20)
(20.9518 0.0819893 2.02031e-20)
(20.9192 0.114026 -1.915e-20)
(20.8716 0.135999 7.10817e-21)
(12.6878 -0.204979 5.9018e-21)
(17.9957 -0.29952 2.24623e-19)
(19.1456 -0.308769 -1.30311e-21)
(19.5787 -0.277819 -6.01018e-22)
(19.85 -0.263916 0)
(20.0775 -0.249196 -2.23805e-21)
(20.2822 -0.229913 4.98796e-20)
(20.4644 -0.204869 -4.16606e-20)
(20.6191 -0.173819 2.34752e-21)
(20.741 -0.137066 -3.769e-21)
(20.8261 -0.0958556 -2.28883e-21)
(20.8736 -0.0524835 -4.55439e-21)
(20.8869 -0.0098726 5.36159e-21)
(20.8727 0.0295384 0)
(20.8403 0.0588612 0)
(13.5674 -0.182394 2.0801e-19)
(17.1821 -0.35335 -1.2058e-21)
(18.7019 -0.306976 -8.31913e-20)
(19.3476 -0.285637 6.16235e-20)
(19.6895 -0.27478 0)
(19.9354 -0.263175 -4.11025e-20)
(20.1438 -0.248623 3.44914e-20)
(20.3277 -0.230055 2.733e-20)
(20.4868 -0.206687 6.01267e-22)
(20.6174 -0.178259 -1.95648e-20)
(20.7158 -0.145215 1.58977e-20)
(20.7804 -0.108765 -1.3224e-21)
(20.8125 -0.0708269 -2.04508e-20)
(20.8167 -0.0326729 1.32334e-20)
(20.7993 -0.00101944 -1.71975e-21)
(14.0488 -0.228369 1.27964e-19)
(16.7364 -0.324452 -7.55089e-20)
(18.3257 -0.290731 -5.67393e-20)
(19.1296 -0.28242 8.88237e-20)
(19.5572 -0.272527 -1.12813e-23)
(19.8333 -0.262897 -2.59671e-20)
(20.0489 -0.251966 2.3447e-20)
(20.2328 -0.238395 -2.34982e-22)
(20.3915 -0.220978 -1.74312e-20)
(20.5241 -0.199142 1.4402e-20)
(20.6279 -0.172942 -1.06325e-20)
(20.7013 -0.143038 -6.38576e-21)
(20.7449 -0.110746 8.90158e-21)
(20.762 -0.0767618 -8.9957e-21)
(20.7571 -0.0461077 3.3554e-21)
(14.1705 -0.247692 9.06094e-20)
(16.502 -0.290946 5.12244e-22)
(18.045 -0.284738 -6.39887e-22)
(18.9339 -0.281729 -9.90152e-22)
(19.4379 -0.272669 0)
(19.7501 -0.264394 -2.01413e-20)
(19.978 -0.2557 3.24387e-20)
(20.1639 -0.245243 -1.36486e-20)
(20.3218 -0.231758 1.10082e-20)
(20.4543 -0.214498 -1.08608e-20)
(20.5601 -0.193219 4.52866e-22)
(20.6381 -0.168207 -1.83198e-21)
(20.6885 -0.140365 0)
(20.7139 -0.110207 0)
(20.7182 -0.0813287 -8.06176e-22)
(14.0862 -0.2468 0)
(16.3457 -0.27386 0)
(17.8316 -0.28279 1.2672e-22)
(18.7567 -0.281505 1.93082e-20)
(19.3189 -0.27427 -1.37667e-22)
(19.6686 -0.267002 -6.59498e-22)
(19.913 -0.259571 -1.03261e-20)
(20.1042 -0.250924 7.94324e-21)
(20.2629 -0.239984 -2.04088e-23)
(20.3955 -0.225929 -5.93651e-21)
(20.5027 -0.208326 4.31504e-21)
(20.5839 -0.187176 -5.93453e-22)
(20.6393 -0.163011 -3.50306e-21)
(20.6709 -0.136146 1.40393e-21)
(20.6823 -0.108636 -5.24396e-22)
(13.9422 -0.241433 0)
(16.2018 -0.267729 -3.14695e-23)