/*--------------------------------*- C++ -*----------------------------------*\
| =========                 |                                                 |
| \\      /  F ield         | OpenFOAM: The Open Source CFD Toolbox           |
|  \\    /   O peration     | Version:  2.3.0                                 |
|   \\  /    A nd           | Web:      www.OpenFOAM.org                      |
|    \\/     M anipulation  |                                                 |
\*---------------------------------------------------------------------------*/
FoamFile
{
    version     2.0;
    format      ascii;
    class       volScalarField;
    location    "450";
    object      p;
}
// * * * * * * * * * * * * * * * * * * * * * * * * * * * * * * * * * * * * * //

dimensions      [0 2 -2 0 0 0 0];

internalField   nonuniform List<scalar> 
7994
(
-0.000693987
0.012251
0.0597898
0.153879
0.295879
0.479446
0.694596
0.931663
1.18407
1.44921
1.72673
2.02013
2.35888
2.86414
3.50853
0.235336
0.252991
0.272145
0.295214
0.328368
0.378521
0.451978
0.55301
0.683177
0.841515
1.02509
1.22979
1.45132
1.68666
1.93408
0.469267
0.54631
0.641536
0.752709
0.877799
1.01264
1.15276
1.29421
1.43397
1.56987
1.70043
1.8246
1.94153
2.05057
2.15194
0.616162
0.686096
0.764579
0.847048
0.933586
1.0237
1.11673
1.21187
1.30823
1.40488
1.50092
1.59548
1.68779
1.77722
1.86365
0.733321
0.803221
0.882733
0.965056
1.04937
1.13453
1.21949
1.30336
1.38549
1.46541
1.54277
1.61732
1.68888
1.75731
1.82265
0.812822
0.87389
0.942409
1.0119
1.08174
1.15143
1.22062
1.289
1.35633
1.4224
1.48703
1.55005
1.61131
1.67065
1.72803
0.866947
0.923487
0.985218
1.04733
1.10924
1.17065
1.2314
1.29131
1.35026
1.40812
1.46478
1.52013
1.57405
1.62644
1.6772
0.903051
0.957194
1.01205
1.06675
1.12111
1.17502
1.22844
1.28131
1.33355
1.3851
1.43586
1.48572
1.53458
1.5823
1.62877
0.933551
0.983022
1.03123
1.07973
1.12819
1.17647
1.22451
1.27226
1.31966
1.36664
1.4131
1.45895
1.50405
1.54825
1.59144
0.951645
1.00013
1.04357
1.08724
1.13104
1.17487
1.21867
1.26241
1.30605
1.34949
1.39266
1.43544
1.47769
1.51925
1.55996
0.968292
1.0126
1.05203
1.09172
1.13172
1.17196
1.21236
1.25289
1.29358
1.33421
1.37476
1.41509
1.45508
1.49456
1.53338
0.981191
1.02068
1.05699
1.0935
1.13084
1.16824
1.20556
1.24326
1.28165
1.32001
1.35833
1.39655
1.43474
1.47251
1.50984
0.992127
1.02855
1.06212
1.09571
1.13065
1.16571
1.20084
1.23671
1.27302
1.30916
1.34601
1.38347
1.42087
1.45806
1.49381
1.00957
1.03827
1.0739
1.10404
1.12938
1.16262
1.20111
1.23625
1.26963
1.30269
1.33916
1.37743
1.41233
1.45029
1.48818
4.30204
4.42374
4.31175
4.31867
4.35918
4.38396
4.38553
4.36748
4.33104
4.27386
4.19104
4.07678
3.92729
3.74459
3.54695
2.19924
2.47936
2.74601
2.99466
3.21907
3.41117
3.56321
3.66936
3.72645
3.73453
3.6972
3.62111
3.51497
3.38829
3.25457
2.24787
2.34119
2.4327
2.52274
2.61044
2.69466
2.77397
2.84676
2.911
2.96411
3.00283
3.02336
3.0222
2.99849
2.95973
1.94862
2.03428
2.12109
2.20834
2.29478
2.37888
2.45887
2.53279
2.59854
2.65398
2.69707
2.72596
2.73941
2.73791
2.72562
1.88583
1.94836
2.01087
2.07317
2.13482
2.19528
2.25388
2.30989
2.36237
2.41021
2.45206
2.48629
2.51127
2.52633
2.53247
1.78406
1.83971
1.89526
1.95049
2.00502
2.05842
2.11021
2.15983
2.20665
2.24993
2.28882
2.32231
2.34939
2.37017
2.38898
1.7267
1.77558
1.82406
1.87193
1.91896
1.96485
2.00931
2.052
2.09254
2.13048
2.16529
2.19628
2.22275
2.24434
2.26106
1.6742
1.71899
1.76323
1.80673
1.84929
1.89067
1.93064
1.96896
2.00536
2.03955
2.07119
2.09986
2.12503
2.14628
2.16487
1.63369
1.67525
1.71613
1.75617
1.79517
1.83296
1.86933
1.90411
1.93712
1.96818
1.99707
2.02353
2.04712
2.0674
2.08806
1.59978
1.63886
1.67719
1.71459
1.75093
1.78599
1.81962
1.8517
1.88209
1.91066
1.9373
1.96183
1.98401
2.0035
2.02236
1.57132
1.60842
1.64473
1.67997
1.71425
1.7472
1.77869
1.80867
1.83695
1.86354
1.8883
1.91115
1.93198
1.95038
1.96761
1.54643
1.58202
1.61686
1.65018
1.68301
1.71458
1.74448
1.77289
1.79944
1.82442
1.84759
1.86888
1.88841
1.90557
1.92041
1.52874
1.56168
1.5949
1.62694
1.6588
1.68848
1.7157
1.74239
1.76717
1.79061
1.81262
1.83286
1.8512
1.86794
1.88338
1.51936
1.54805
1.57817
1.60885
1.64252
1.66658
1.69033
1.71553
1.73853
1.76035
1.78197
1.80174
1.81757
1.83275
1.84643
-0.83564
-0.829237
-0.767024
-0.642851
-0.469256
-0.271632
-0.080676
0.076618
0.184231
0.237835
0.242011
0.202722
0.124593
-0.00207215
-0.00464248
-0.795498
-0.832922
-0.877105
-0.939203
-1.02588
-1.13263
-1.24819
-1.35999
-1.4576
-1.53527
-1.59204
-1.63225
-1.65767
-1.69143
-1.69207
-0.797227
-0.874829
-0.969406
-1.07592
-1.1843
-1.28213
-1.36118
-1.41921
-1.45844
-1.48358
-1.5002
-1.51538
-1.52919
-1.54324
-1.54543
-0.74124
-0.787047
-0.827898
-0.860455
-0.883782
-0.898506
-0.906801
-0.911281
-0.914109
-0.917021
-0.921476
-0.930383
-0.943514
-0.954895
-0.957408
-0.657959
-0.676729
-0.689797
-0.69886
-0.705857
-0.711898
-0.717276
-0.721844
-0.725516
-0.728722
-0.732475
-0.738926
-0.749125
-0.757126
-0.75692
-0.59409
-0.609578
-0.624014
-0.638203
-0.651544
-0.663422
-0.673309
-0.681026
-0.686846
-0.691587
-0.6966
-0.703755
-0.714187
-0.722278
-0.72123
-0.550551
-0.560465
-0.572986
-0.585605
-0.597134
-0.60747
-0.616684
-0.624945
-0.632524
-0.639925
-0.64808
-0.658233
-0.670962
-0.680805
-0.679953
-0.503011
-0.507767
-0.515283
-0.523517
-0.531965
-0.541054
-0.550914
-0.561546
-0.572841
-0.584814
-0.59783
-0.612526
-0.62883
-0.641274
-0.641098
-0.460737
-0.456955
-0.460551
-0.465884
-0.473024
-0.482633
-0.494871
-0.509657
-0.526653
-0.545499
-0.566146
-0.588441
-0.611078
-0.628035
-0.629441
-0.411515
-0.409187
-0.410251
-0.412816
-0.417987
-0.427008
-0.440591
-0.459144
-0.482201
-0.509199
-0.53995
-0.574466
-0.610021
-0.638059
-0.6455
-0.377935
-0.367495
-0.364016
-0.362144
-0.363484
-0.370183
-0.384283
-0.407327
-0.438543
-0.47562
-0.520386
-0.573406
-0.628537
-0.671134
-0.686493
-0.337932
-0.326916
-0.319093
-0.311238
-0.304565
-0.302895
-0.308939
-0.331341
-0.367426
-0.408275
-0.454938
-0.528824
-0.633005
-0.719482
-0.761076
-0.310668
-0.291862
-0.283302
-0.269964
-0.257308
-0.251336
-0.253766
-0.283587
-0.347097
-0.397892
-0.462667
-0.552965
-0.714769
-0.813119
-0.850221
-0.272085
-0.244853
-0.239511
-0.220914
-0.178318
-0.139778
-0.0680999
-0.074216
-0.162723
-0.182822
-0.121553
-0.155749
-0.621318
-0.910428
-0.939356
0.00190115
0.0122625
0.146412
0.231781
0.278983
0.283172
0.238117
0.139271
-0.00855511
-0.188278
-0.371601
-0.527722
-0.630655
-0.668665
-0.650178
-1.68878
-1.68354
-1.64494
-1.61475
-1.56842
-1.50383
-1.41647
-1.30733
-1.18237
-1.05241
-0.93051
-0.828626
-0.750433
-0.688566
-0.63141
-1.54191
-1.53333
-1.5132
-1.49374
-1.47214
-1.448
-1.41398
-1.36445
-1.29467
-1.20264
-1.09104
-0.968722
-0.847924
-0.738424
-0.644139
-0.954123
-0.945153
-0.927644
-0.908784
-0.893605
-0.882082
-0.871167
-0.859401
-0.845009
-0.825836
-0.799269
-0.763132
-0.716686
-0.660987
-0.599028
-0.753778
-0.74762
-0.733579
-0.717713
-0.705169
-0.694645
-0.683878
-0.671908
-0.658294
-0.643128
-0.626471
-0.607895
-0.586157
-0.559422
-0.526228
-0.718162
-0.712863
-0.698719
-0.682584
-0.66934
-0.657617
-0.645462
-0.631592
-0.615182
-0.595973
-0.574085
-0.549997
-0.524272
-0.497521
-0.4696
-0.676959
-0.6715
-0.655617
-0.637188
-0.62096
-0.606145
-0.591432
-0.575948
-0.559182
-0.540847
-0.520724
-0.498739
-0.474993
-0.450486
-0.427922
-0.638409
-0.63269
-0.614546
-0.592741
-0.572064
-0.552412
-0.533116
-0.51387
-0.494647
-0.475528
-0.456517
-0.437561
-0.418427
-0.399435
-0.382972
-0.626852
-0.619804
-0.597358
-0.569502
-0.541577
-0.514514
-0.488403
-0.463385
-0.439798
-0.417878
-0.397768
-0.379514
-0.362803
-0.347432
-0.335533
-0.645149
-0.634699
-0.60246
-0.562219
-0.521984
-0.483975
-0.448828
-0.417142
-0.388742
-0.363927
-0.342903
-0.325455
-0.311
-0.298903
-0.290689
-0.685767
-0.665361
-0.613443
-0.555499
-0.500482
-0.448829
-0.403985
-0.365139
-0.332283
-0.305899
-0.285664
-0.271138
-0.26063
-0.253221
-0.250387
-0.791817
-0.752695
-0.646422
-0.5524
-0.473145
-0.403308
-0.348898
-0.30946
-0.272613
-0.244632
-0.22728
-0.216951
-0.211907
-0.210184
-0.211223
-0.90322
-0.800538
-0.574902
-0.499698
-0.434855
-0.334255
-0.287878
-0.240204
-0.191109
-0.171156
-0.159231
-0.16063
-0.161719
-0.168379
-0.175737
-1.39857
-1.20254
-0.587148
-0.534991
-0.388068
-0.229055
-0.189387
-0.210301
-0.143329
-0.113275
-0.115665
-0.116935
-0.124516
-0.138979
-0.157551
-8.82763
-8.17736
-7.58697
-6.9604
-6.27989
-5.53712
-4.7516
-3.95008
-3.16581
-2.43589
-1.79527
-1.26866
-0.863797
-0.570517
-0.372894
-0.260516
-1.17901
-1.32528
-1.36698
-1.44224
-1.52669
-1.58808
-1.61333
-1.5926
-1.51696
-1.38353
-1.20006
-0.98518
-0.763745
-0.567835
-0.815264
-1.18685
-1.02953
-0.99814
-1.02788
-1.05436
-1.06654
-1.06903
-1.06176
-1.04123
-1.00247
-0.939898
-0.849513
-0.732022
-0.604465
-2.17195
-2.17601
-1.92292
-1.85501
-1.79692
-1.71633
-1.61951
-1.51262
-1.39632
-1.27198
-1.14262
-1.01168
-0.881366
-0.75149
-0.628603
-2.07649
-1.78933
-1.63018
-1.60999
-1.56739
-1.50978
-1.44514
-1.37365
-1.29294
-1.20208
-1.10118
-0.991372
-0.875016
-0.754681
-0.638391
-1.16285
-0.867183
-0.877153
-0.899659
-0.899284
-0.900708
-0.904081
-0.904112
-0.897229
-0.881159
-0.853602
-0.812402
-0.75627
-0.684935
-0.603661
-0.60998
-0.519297
-0.571702
-0.576775
-0.582069
-0.597333
-0.616988
-0.636047
-0.652045
-0.662776
-0.665679
-0.658078
-0.637479
-0.601555
-0.550724
-0.559113
-0.554404
-0.571337
-0.559366
-0.558632
-0.563274
-0.570566
-0.578579
-0.585944
-0.590956
-0.591732
-0.586257
-0.572436
-0.547959
-0.51025
-0.582495
-0.58924
-0.584867
-0.574365
-0.570786
-0.567453
-0.565931
-0.565641
-0.565415
-0.563918
-0.559839
-0.551753
-0.538094
-0.517251
-0.486495
-0.583484
-0.584485
-0.575149
-0.567145
-0.561243
-0.554856
-0.550142
-0.546591
-0.543253
-0.539146
-0.53329
-0.524573
-0.51172
-0.493472
-0.466947
-0.579129
-0.575799
-0.566075
-0.557195
-0.549398
-0.542265
-0.536136
-0.530703
-0.525401
-0.519534
-0.512336
-0.502932
-0.490284
-0.473347
-0.449534
-0.570768
-0.565871
-0.556392
-0.546528
-0.538461
-0.531643
-0.524937
-0.518566
-0.512212
-0.505302
-0.497186
-0.487169
-0.474439
-0.45821
-0.436547
-0.556115
-0.551165
-0.542271
-0.532681
-0.525429
-0.519208
-0.5125
-0.506013
-0.49949
-0.492409
-0.484193
-0.474241
-0.461883
-0.446509
-0.426555
-0.539513
-0.535083
-0.526949
-0.518192
-0.511619
-0.505699
-0.499223
-0.492965
-0.486628
-0.47975
-0.471814
-0.462266
-0.450482
-0.435882
-0.41697
-0.525741
-0.521808
-0.51425
-0.505999
-0.499208
-0.493054
-0.486892
-0.480894
-0.47476
-0.468108
-0.460478
-0.451348
-0.440119
-0.426225
-0.408308
-0.514972
-0.511282
-0.503996
-0.495795
-0.488357
-0.48192
-0.476136
-0.470321
-0.464338
-0.45789
-0.45056
-0.441867
-0.431273
-0.418279
-0.401711
-0.504878
-0.501281
-0.494175
-0.486008
-0.47835
-0.472044
-0.466625
-0.460915
-0.455065
-0.448818
-0.441782
-0.433516
-0.423529
-0.411379
-0.395882
-0.494118
-0.490656
-0.483847
-0.475973
-0.468653
-0.462802
-0.457701
-0.452119
-0.446454
-0.440445
-0.433716
-0.425852
-0.416389
-0.404894
-0.390078
-0.48335
-0.480131
-0.473749
-0.466378
-0.459626
-0.45417
-0.44924
-0.443834
-0.438406
-0.432666
-0.426264
-0.418811
-0.409864
-0.399035
-0.384968
-0.473906
-0.470971
-0.46503
-0.458163
-0.451834
-0.446352
-0.441341
-0.436189
-0.431036
-0.42559
-0.41954
-0.412535
-0.404166
-0.394145
-0.381623
-0.466481
-0.46377
-0.458161
-0.451621
-0.445409
-0.439544
-0.434329
-0.429461
-0.42452
-0.419302
-0.413541
-0.406901
-0.398982
-0.38944
-0.377408
-0.460314
-0.457734
-0.452338
-0.445958
-0.439717
-0.433552
-0.428292
-0.423682
-0.418857
-0.41379
-0.408236
-0.401868
-0.394295
-0.38515
-0.373579
-0.454555
-0.452056
-0.446829
-0.440572
-0.43436
-0.428198
-0.423106
-0.4187
-0.413942
-0.408998
-0.40362
-0.397491
-0.39024
-0.381511
-0.370196
-0.448768
-0.446358
-0.441325
-0.435256
-0.42922
-0.423318
-0.41851
-0.41427
-0.409598
-0.404801
-0.399618
-0.39375
-0.386855
-0.378661
-0.36815
-0.443179
-0.440894
-0.436098
-0.430299
-0.424553
-0.419004
-0.414424
-0.41027
-0.405715
-0.401084
-0.396101
-0.390487
-0.383913
-0.376127
-0.366115
-0.438268
-0.436131
-0.43159
-0.426102
-0.420667
-0.415407
-0.410831
-0.40663
-0.40224
-0.397789
-0.393005
-0.38763
-0.381341
-0.373893
-0.364345
-0.434451
-0.432455
-0.428147
-0.422937
-0.417739
-0.412608
-0.407809
-0.403476
-0.399291
-0.395009
-0.390412
-0.38527
-0.379271
-0.372179
-0.363146
-0.431668
-0.42978
-0.425655
-0.420646
-0.415576
-0.410446
-0.405395
-0.400982
-0.396999
-0.392832
-0.388384
-0.383437
-0.377683
-0.370883
-0.362166
-0.429584
-0.427768
-0.42378
-0.418904
-0.413893
-0.408735
-0.403567
-0.399191
-0.395364
-0.391261
-0.386925
-0.382133
-0.376586
-0.370057
-0.36177
-0.427842
-0.426078
-0.422206
-0.417437
-0.412479
-0.407345
-0.402227
-0.397981
-0.394267
-0.390204
-0.385956
-0.381284
-0.375896
-0.369565
-0.361489
-0.426281
-0.424568
-0.420814
-0.416161
-0.411296
-0.406262
-0.40131
-0.397231
-0.393599
-0.389582
-0.385428
-0.380889
-0.375694
-0.369659
-0.36248
-0.424883
-0.423233
-0.41961
-0.415102
-0.410381
-0.405514
-0.40078
-0.396839
-0.393251
-0.389298
-0.38524
-0.380823
-0.375791
-0.369914
-0.363081
-0.423854
-0.422277
-0.418796
-0.414458
-0.409915
-0.405238
-0.400698
-0.396778
-0.393157
-0.389287
-0.385322
-0.381005
-0.376092
-0.370278
-0.36382
-0.423344
-0.421846
-0.418509
-0.41435
-0.409992
-0.405494
-0.40108
-0.397044
-0.393333
-0.389586
-0.385717
-0.3815
-0.376707
-0.370941
-0.36428
-0.423571
-0.422147
-0.418939
-0.414941
-0.410737
-0.406355
-0.401974
-0.397741
-0.393932
-0.390322
-0.386534
-0.38241
-0.377737
-0.372116
-0.365313
-0.424366
-0.423001
-0.419905
-0.416042
-0.411953
-0.407642
-0.403251
-0.398872
-0.395043
-0.391583
-0.387883
-0.383892
-0.379421
-0.374179
-0.368229
-0.42572
-0.424402
-0.421398
-0.41764
-0.413627
-0.409345
-0.404932
-0.400487
-0.396695
-0.39334
-0.38968
-0.385766
-0.381368
-0.376161
-0.369949
-0.427346
-0.426065
-0.423142
-0.419472
-0.415525
-0.411281
-0.406885
-0.402482
-0.398786
-0.395515
-0.39189
-0.388042
-0.383713
-0.378594
-0.373039
-0.429363
-0.428117
-0.42527
-0.421682
-0.417797
-0.413602
-0.409257
-0.404955
-0.401372
-0.398168
-0.394593
-0.390844
-0.386665
-0.38172
-0.37663
-0.431573
-0.430362
-0.427595
-0.424096
-0.420294
-0.416188
-0.411947
-0.407801
-0.404341
-0.401197
-0.397678
-0.394007
-0.389918
-0.384993
-0.379586
-0.434145
-0.432977
-0.430295
-0.426899
-0.423198
-0.419205
-0.415093
-0.411102
-0.407715
-0.40459
-0.401131
-0.39753
-0.39353
-0.388756
-0.383357
-0.437148
-0.436024
-0.43343
-0.430143
-0.42656
-0.422701
-0.418733
-0.414888
-0.411508
-0.408375
-0.405024
-0.40154
-0.397704
-0.393257
-0.388718
-0.440767
-0.43969
-0.437183
-0.43401
-0.430548
-0.426822
-0.422979
-0.419227
-0.41576
-0.412571
-0.40932
-0.405896
-0.402086
-0.397533
-0.392665
-0.445085
-0.444051
-0.441628
-0.438561
-0.435212
-0.4316
-0.427848
-0.424132
-0.420531
-0.417273
-0.414115
-0.410717
-0.406911
-0.402268
-0.3975
-0.450103
-0.44911
-0.446765
-0.443802
-0.440561
-0.437053
-0.433371
-0.429671
-0.425965
-0.422692
-0.419641
-0.416297
-0.412586
-0.408052
-0.403233
-0.456205
-0.455244
-0.452961
-0.450072
-0.446901
-0.443439
-0.43977
-0.436034
-0.432243
-0.428964
-0.425982
-0.422649
-0.418986
-0.414524
-0.409465
-0.462928
-0.461992
-0.459766
-0.456948
-0.453845
-0.45044
-0.446797
-0.443064
-0.439269
-0.43604
-0.433116
-0.429801
-0.426186
-0.421849
-0.417164
-0.470752
-0.469836
-0.467659
-0.46489
-0.461824
-0.458428
-0.454775
-0.451006
-0.447202
-0.443981
-0.441042
-0.437667
-0.433976
-0.429485
-0.424142
-0.479139
-0.478238
-0.476107
-0.473389
-0.470371
-0.467015
-0.46339
-0.459648
-0.455899
-0.452724
-0.44978
-0.446384
-0.442711
-0.438377
-0.433964
-0.488735
-0.487847
-0.485753
-0.483064
-0.480065
-0.476698
-0.473059
-0.469288
-0.46554
-0.462325
-0.459284
-0.455758
-0.451894
-0.447147
-0.441241
-0.49877
-0.497894
-0.495842
-0.493195
-0.490238
-0.486906
-0.483303
-0.479563
-0.475858
-0.472606
-0.469454
-0.465789
-0.461716
-0.456659
-0.44995
-0.509804
-0.508946
-0.506935
-0.50433
-0.50141
-0.498102
-0.494524
-0.490796
-0.487107
-0.483776
-0.480525
-0.47683
-0.472771
-0.467965
-0.461388
-0.521484
-0.520641
-0.518674
-0.516116
-0.513248
-0.509989
-0.506467
-0.502788
-0.499138
-0.495725
-0.492407
-0.488775
-0.484818
-0.480393
-0.474499
-0.533797
-0.532976
-0.531055
-0.528556
-0.525745
-0.522545
-0.519075
-0.515431
-0.511773
-0.508198
-0.504719
-0.500994
-0.496765
-0.491821
-0.484142
-0.54676
-0.545964
-0.544092
-0.541655
-0.538908
-0.535773
-0.532358
-0.528742
-0.525062
-0.521329
-0.517734
-0.514015
-0.509758
-0.505016
-0.499184
-0.56028
-0.559514
-0.557696
-0.555336
-0.552668
-0.549628
-0.546291
-0.542736
-0.539058
-0.535226
-0.531567
-0.527844
-0.52346
-0.518343
-0.510565
-0.574885
-0.574151
-0.572389
-0.570106
-0.567512
-0.564555
-0.561278
-0.557759
-0.554065
-0.550157
-0.546453
-0.542711
-0.538226
-0.533112
-0.52643
-0.590557
-0.589854
-0.588146
-0.585942
-0.583428
-0.580564
-0.577361
-0.573901
-0.57022
-0.566293
-0.562572
-0.558775
-0.554097
-0.548555
-0.540376
-0.607949
-0.607278
-0.605622
-0.603491
-0.601045
-0.598256
-0.595103
-0.591675
-0.587986
-0.584036
-0.580262
-0.576323
-0.571339
-0.56532
-0.556431
-0.627465
-0.626818
-0.62521
-0.623136
-0.620745
-0.618007
-0.614889
-0.611476
-0.607774
-0.603805
-0.599973
-0.595882
-0.590627
-0.584244
-0.574787
-0.649455
-0.648828
-0.647262
-0.64524
-0.642897
-0.640205
-0.637113
-0.633707
-0.629983
-0.625977
-0.62204
-0.617731
-0.61212
-0.605239
-0.594852
-0.674774
-0.674158
-0.672621
-0.670615
-0.66828
-0.665559
-0.662423
-0.658927
-0.655088
-0.650931
-0.646757
-0.642064
-0.635909
-0.628299
-0.616495
-0.703054
-0.702444
-0.700935
-0.698951
-0.696633
-0.693907
-0.690742
-0.687172
-0.683209
-0.678858
-0.674341
-0.669119
-0.662227
-0.653708
-0.640415
-0.735514
-0.734909
-0.733422
-0.731437
-0.7291
-0.726297
-0.723022
-0.71926
-0.715045
-0.710336
-0.705283
-0.699328
-0.691511
-0.681925
-0.667626
-0.771937
-0.771329
-0.76986
-0.767873
-0.765519
-0.762652
-0.759271
-0.755313
-0.750801
-0.745626
-0.739829
-0.732844
-0.723675
-0.712249
-0.695217
-0.813533
-0.81293
-0.811478
-0.809483
-0.807085
-0.804104
-0.800539
-0.796267
-0.791294
-0.785424
-0.77856
-0.770146
-0.759135
-0.745245
-0.725051
-0.861001
-0.860404
-0.858974
-0.856975
-0.854535
-0.851435
-0.847658
-0.843014
-0.837457
-0.830681
-0.822435
-0.812185
-0.798861
-0.781988
-0.758037
-0.915589
-0.915006
-0.913601
-0.911602
-0.909101
-0.905859
-0.901802
-0.896675
-0.890333
-0.882355
-0.872294
-0.85963
-0.84323
-0.822461
-0.793437
-0.981674
-0.981102
-0.979721
-0.977685
-0.975041
-0.971489
-0.966891
-0.960881
-0.95319
-0.943228
-0.930354
-0.914023
-0.893051
-0.866799
-0.831557
-1.05692
-1.05637
-1.05499
-1.05292
-1.05012
-1.04627
-1.04109
-1.03408
-1.02475
-1.01228
-0.995742
-0.974492
-0.94724
-0.913383
-0.869083
-1.16574
-1.16521
-1.16387
-1.16159
-1.15815
-1.15306
-1.14579
-1.13559
-1.12164
-1.10288
-1.07822
-1.04715
-1.00871
-0.962979
-0.906287
-1.26576
-1.2652
-1.26363
-1.26106
-1.25726
-1.25155
-1.24312
-1.23089
-1.21353
-1.18949
-1.15723
-1.1162
-1.06586
-1.00747
-0.938308
-1.54722
-1.54702
-1.54513
-1.5405
-1.53138
-1.51635
-1.49361
-1.46129
-1.41774
-1.36211
-1.29478
-1.21833
-1.13585
-1.05188
-0.967426
-1.52919
-1.52777
-1.52832
-1.52248
-1.5123
-1.49732
-1.47586
-1.4459
-1.40528
-1.35258
-1.28755
-1.21247
-1.13047
-1.04599
-0.961709
-3.01567
-3.09258
-3.0326
-2.95042
-2.84696
-2.71229
-2.53954
-2.32958
-2.08991
-1.83553
-1.58667
-1.36529
-1.1856
-1.04844
-0.945048
15.7041
15.0432
14.2047
13.39
12.5154
11.5508
10.5168
9.44702
8.37916
7.35476
6.41501
5.59226
4.90192
4.33965
3.89935
6.75339
5.91965
5.95836
6.07394
6.12035
6.12106
6.09288
6.02342
5.89581
5.69834
5.42786
5.09275
4.71338
4.31699
3.94361
4.61434
4.30212
4.52056
4.58528
4.59228
4.59896
4.60713
4.60471
4.58499
4.54276
4.47111
4.3617
4.2076
4.00664
3.7764
4.00227
3.99715
4.21664
4.23754
4.24503
4.25989
4.27075
4.26755
4.2463
4.20381
4.13745
4.04551
3.92654
3.77809
3.60635
3.37246
3.65358
3.79095
3.79389
3.81579
3.84408
3.86883
3.88624
3.89338
3.88503
3.85533
3.79936
3.71421
3.59848
3.45737
3.45567
3.75622
3.74413
3.72302
3.72306
3.71847
3.70775
3.69362
3.67611
3.65285
3.62025
3.57376
3.50845
3.41942
3.3062
3.61433
3.70982
3.65568
3.65015
3.64346
3.62466
3.5983
3.56763
3.53286
3.49333
3.44797
3.39495
3.33146
3.25346
3.15653
3.3944
3.40148
3.38349
3.39473
3.39327
3.38432
3.37008
3.35121
3.32726
3.29763
3.26133
3.21695
3.16275
3.09661
3.01446
3.10955
3.10429
3.10878
3.11912
3.12116
3.12156
3.11834
3.11112
3.09967
3.08349
3.06147
3.03204
2.99338
2.94415
2.88408
2.88403
2.88367
2.89291
2.90005
2.9043
2.90848
2.9096
2.90746
2.90202
2.89288
2.87917
2.85956
2.83232
2.79586
2.75047
2.69932
2.70266
2.71187
2.71938
2.72559
2.73092
2.73392
2.73447
2.73239
2.72727
2.7184
2.70466
2.68454
2.65625
2.62062
2.53866
2.54348
2.55264
2.56173
2.56887
2.57428
2.57836
2.58067
2.5809
2.57869
2.57345
2.5642
2.54959
2.52784
2.50035
2.4008
2.40589
2.41483
2.4243
2.43112
2.43624
2.44085
2.44409
2.44567
2.44533
2.44263
2.4368
2.42675
2.41088
2.39132
2.28175
2.28646
2.29478
2.30357
2.30962
2.31443
2.3192
2.32279
2.32503
2.32573
2.32456
2.3209
2.31386
2.30184
2.28616
2.1744
2.17853
2.18613
2.19414
2.19992
2.20481
2.20956
2.21327
2.21585
2.21717
2.21694
2.21463
2.20947
2.2
2.18695
2.07418
2.07791
2.08507
2.09282
2.09918
2.10452
2.10915
2.11294
2.11582
2.11765
2.11818
2.11703
2.11357
2.10676
2.09814
1.98086
1.98444
1.99144
1.99926
2.00629
2.01192
2.01638
2.02032
2.02349
2.02576
2.02694
2.02673
2.02461
2.01962
2.0137
1.89548
1.899
1.90583
1.91362
1.92075
1.92623
1.93049
1.93455
1.93792
1.94048
1.9421
1.9425
1.94123
1.93727
1.93231
1.81766
1.82103
1.82755
1.83502
1.84176
1.84683
1.85093
1.85504
1.85849
1.86121
1.86313
1.864
1.86347
1.86063
1.85735
1.74574
1.74885
1.75495
1.76192
1.76813
1.77291
1.77697
1.78106
1.7845
1.78732
1.78945
1.79071
1.79081
1.78895
1.78711
1.67761
1.68044
1.68613
1.69264
1.69851
1.70345
1.70771
1.71169
1.7151
1.71797
1.72025
1.7218
1.7224
1.7213
1.72046
1.61222
1.61484
1.62024
1.62648
1.63231
1.63771
1.64224
1.64606
1.64945
1.65238
1.65477
1.65654
1.65751
1.65699
1.65671
1.54979
1.5523
1.55752
1.56364
1.56956
1.57529
1.57991
1.58358
1.58702
1.59002
1.59253
1.59447
1.59571
1.59563
1.59562
1.49083
1.49328
1.49835
1.50439
1.5103
1.51605
1.52054
1.52411
1.52761
1.53067
1.53328
1.53536
1.53683
1.53717
1.53787
1.43536
1.43773
1.44263
1.4485
1.45427
1.45979
1.46405
1.46754
1.47108
1.47418
1.47687
1.47911
1.4808
1.4815
1.48374
1.38291
1.38516
1.38983
1.39545
1.40095
1.40614
1.41021
1.41367
1.4172
1.42031
1.42305
1.42541
1.42733
1.42835
1.43118
1.33257
1.33467
1.3391
1.34443
1.34963
1.35454
1.35862
1.36216
1.36562
1.36868
1.37142
1.37381
1.37582
1.3769
1.37983
1.28365
1.28562
1.28982
1.29487
1.29983
1.30463
1.30894
1.31265
1.31599
1.319
1.32173
1.32415
1.32627
1.32756
1.33097
1.23591
1.23776
1.24179
1.24664
1.25149
1.2563
1.26091
1.26476
1.26798
1.27098
1.27372
1.2762
1.27846
1.27996
1.28352
1.18949
1.19127
1.19516
1.19989
1.20469
1.20956
1.21435
1.21822
1.22134
1.22436
1.22712
1.22963
1.23196
1.23358
1.23685
1.14454
1.14627
1.15006
1.1547
1.15947
1.16435
1.16914
1.17292
1.17597
1.17901
1.18177
1.18427
1.18655
1.188
1.19002
1.10118
1.10287
1.10655
1.11109
1.11579
1.12061
1.12527
1.12892
1.13192
1.13499
1.13777
1.1403
1.14268
1.14443
1.14554
1.05931
1.06095
1.06451
1.06892
1.07351
1.07819
1.08266
1.08618
1.08917
1.09228
1.09511
1.09775
1.10032
1.10258
1.10386
1.01864
1.02021
1.02363
1.02788
1.03231
1.0368
1.04107
1.04455
1.04757
1.05066
1.05348
1.05615
1.05876
1.06128
1.06139
0.978717
0.980204
0.983488
0.987567
0.991807
0.996121
1.00024
1.00379
1.0069
1.00991
1.01267
1.01527
1.01775
1.02037
1.0203
0.939339
0.94075
0.943901
0.947811
0.951884
0.956057
0.960118
0.963851
0.967076
0.969976
0.972696
0.975284
0.977743
0.980518
0.981708
0.900402
0.901749
0.904787
0.908557
0.912507
0.916604
0.920682
0.924618
0.927929
0.930731
0.933437
0.93602
0.938461
0.941171
0.94204
0.861969
0.863267
0.866211
0.869873
0.87374
0.877807
0.881923
0.885982
0.889305
0.892023
0.894722
0.897277
0.899657
0.902192
0.903013
0.824048
0.82531
0.828178
0.83176
0.835576
0.839636
0.843784
0.84788
0.851171
0.853854
0.856594
0.859192
0.861674
0.86438
0.865121
0.786747
0.78798
0.790779
0.794291
0.798062
0.802102
0.806242
0.810296
0.813524
0.816202
0.818995
0.821648
0.824232
0.827207
0.827836
0.749983
0.751188
0.753918
0.757361
0.761077
0.765073
0.769161
0.77312
0.776272
0.778949
0.781776
0.784459
0.787069
0.790146
0.791039
0.713707
0.714877
0.717534
0.720895
0.724536
0.728453
0.732448
0.73628
0.739363
0.742047
0.744886
0.747585
0.750199
0.753257
0.754247
0.677743
0.678875
0.681454
0.684723
0.688271
0.692087
0.695971
0.699682
0.702753
0.705481
0.708326
0.711053
0.713733
0.716899
0.717654
0.641963
0.643053
0.645549
0.648717
0.652157
0.655857
0.659625
0.663243
0.666382
0.6692
0.672033
0.674794
0.677565
0.680977
0.682086
0.606161
0.607209
0.609623
0.612688
0.616018
0.619604
0.623274
0.626843
0.63012
0.633039
0.635818
0.638574
0.641332
0.644791
0.646309
0.570249
0.571255
0.573593
0.576558
0.579785
0.583271
0.586871
0.590431
0.593859
0.596852
0.59955
0.602279
0.604962
0.608222
0.609828
0.534146
0.535117
0.537387
0.540266
0.543408
0.546824
0.550393
0.553983
0.557545
0.560592
0.563246
0.566013
0.568751
0.572049
0.573798
0.497857
0.4988
0.501011
0.503818
0.506896
0.510268
0.513834
0.51747
0.521129
0.524212
0.526878
0.529745
0.532639
0.536205
0.538435
0.461309
0.462228
0.464388
0.467136
0.470166
0.473511
0.477085
0.48076
0.484464
0.48756
0.490262
0.493234
0.496273
0.50009
0.502597
0.42443
0.425329
0.427441
0.430139
0.433128
0.436451
0.440025
0.443716
0.447415
0.450501
0.45324
0.456297
0.459454
0.463751
0.468221
0.387147
0.388027
0.390094
0.392742
0.395691
0.398985
0.402543
0.406217
0.40987
0.412916
0.415666
0.418747
0.421828
0.425622
0.432873
0.349415
0.350275
0.352296
0.354895
0.3578
0.361058
0.364582
0.368218
0.371805
0.37482
0.377596
0.380737
0.383937
0.387291
0.395294
0.311179
0.312019
0.313992
0.316537
0.319393
0.322602
0.326079
0.329663
0.333187
0.336202
0.339036
0.34224
0.345638
0.348834
0.356478
0.272321
0.273138
0.275062
0.277549
0.280348
0.2835
0.286919
0.290447
0.293922
0.296992
0.299938
0.303234
0.306903
0.310456
0.318516
0.232661
0.233452
0.235325
0.23775
0.240486
0.243572
0.246926
0.250396
0.25384
0.257012
0.260089
0.263438
0.267241
0.270884
0.278721
0.192013
0.192779
0.1946
0.196961
0.199629
0.202646
0.205932
0.209353
0.212791
0.21611
0.219335
0.222735
0.226687
0.23055
0.237836
0.150186
0.150926
0.152697
0.154996
0.1576
0.160553
0.163787
0.167187
0.170664
0.174176
0.177584
0.1811
0.185298
0.189664
0.197482
0.106994
0.107711
0.109435
0.111676
0.114222
0.117122
0.120324
0.123736
0.127294
0.131023
0.134644
0.138362
0.142927
0.147938
0.156725
0.0621468
0.0628428
0.0645235
0.0667118
0.0692088
0.0720715
0.0752613
0.0787122
0.0823778
0.086314
0.0901438
0.0941014
0.0990576
0.104637
0.114024
0.0153607
0.0160376
0.0176779
0.0198193
0.022275
0.0251109
0.0283038
0.0318087
0.0355907
0.0397121
0.0437469
0.0479802
0.0533707
0.0596172
0.0700871
-0.0337067
-0.033047
-0.0314441
-0.0293436
-0.0269196
-0.024097
-0.0208844
-0.0173088
-0.0133983
-0.009095
-0.0048292
-0.000250383
0.00565131
0.0126053
0.0246521
-0.0853926
-0.0847489
-0.0831818
-0.0811184
-0.0787197
-0.0759015
-0.0726582
-0.0690014
-0.0649519
-0.0604576
-0.0559185
-0.0509159
-0.0444069
-0.0367456
-0.0231083
-0.140177
-0.139549
-0.138017
-0.135987
-0.133606
-0.13078
-0.12749
-0.123732
-0.119516
-0.114789
-0.109891
-0.104332
-0.0970164
-0.0884158
-0.0728703
-0.198619
-0.198007
-0.19651
-0.194511
-0.192142
-0.189299
-0.185947
-0.182063
-0.177639
-0.172607
-0.167228
-0.160935
-0.152565
-0.142733
-0.125742
-0.261561
-0.260965
-0.259503
-0.257531
-0.255163
-0.252283
-0.248835
-0.244776
-0.240064
-0.234598
-0.228529
-0.221209
-0.211354
-0.199458
-0.179608
-0.329949
-0.329371
-0.327945
-0.325998
-0.323623
-0.320688
-0.317112
-0.312817
-0.307718
-0.301655
-0.29464
-0.285953
-0.274216
-0.259804
-0.236759
-0.405482
-0.404923
-0.403534
-0.401605
-0.399202
-0.396172
-0.392396
-0.387752
-0.382088
-0.375161
-0.366815
-0.356267
-0.342067
-0.324449
-0.297445
-0.489561
-0.489022
-0.487667
-0.485744
-0.483288
-0.480112
-0.476051
-0.470913
-0.464451
-0.456298
-0.446077
-0.432941
-0.415345
-0.393325
-0.360845
-0.586838
-0.586315
-0.584994
-0.583045
-0.580449
-0.576965
-0.572347
-0.566297
-0.558426
-0.548194
-0.534963
-0.517837
-0.495215
-0.466952
-0.427201
-0.696148
-0.695639
-0.694315
-0.692295
-0.689506
-0.685633
-0.680318
-0.673105
-0.663391
-0.650369
-0.633052
-0.610442
-0.580846
-0.543911
-0.491858
-0.841224
-0.840726
-0.839435
-0.837191
-0.833727
-0.82855
-0.821056
-0.810497
-0.795941
-0.776286
-0.750318
-0.717228
-0.675793
-0.626808
-0.561479
-0.982032
-0.981522
-0.979989
-0.977405
-0.973481
-0.967508
-0.958602
-0.945622
-0.927128
-0.901472
-0.866968
-0.822833
-0.768288
-0.705801
-0.628245
-1.30754
-1.30729
-1.30536
-1.30058
-1.29114
-1.27553
-1.25187
-1.21816
-1.1726
-1.11417
-1.04312
-0.961869
-0.873181
-0.782663
-0.687773
-1.34294
-1.34165
-1.34228
-1.33623
-1.32553
-1.30951
-1.28636
-1.25377
-1.20946
-1.15177
-1.08033
-0.997368
-0.905706
-0.810572
-0.715383
-2.89015
-2.96663
-2.90606
-2.82291
-2.71744
-2.57927
-2.40143
-2.18459
-1.93656
-1.67268
-1.41375
-1.18241
-0.992153
-0.842303
-0.723838
0.339531
1.28604
-0.376848
0.0161496
0.106436
-0.536885
0.124976
1.92813
0.560523
0.337133
0.0828112
1.26715
0.472406
-0.100344
0.0217884
1.49072
-0.15266
-2.21211
-0.300633
0.268235
1.21454
0.498744
1.55186
2.43301
1.8739
0.041627
1.18017
-0.157334
-6.76926
0.369026
-0.557272
-0.259644
1.7432
0.797482
1.45368
0.462374
-0.890416
0.916641
1.93458
0.887981
-0.341063
0.716874
1.02856
0.759636
0.178774
0.740395
0.61036
1.78459
1.00602
0.165984
0.0182059
2.70756
0.90613
3.4362
0.680388
1.21765
0.696711
0.751123
1.69196
-1.24243
0.271114
1.48
1.39952
0.185033
4.72192
0.422644
2.00138
1.20285
0.531974
0.335006
-0.354186
1.02439
0.38874
0.475558
1.05539
-0.313775
1.76695
1.41961
0.687403
0.705863
-0.193026
3.48499
0.329522
0.862377
0.465191
-0.335521
2.17782
0.464131
0.49369
-0.120562
1.07917
1.00549
0.521594
1.55581
0.0829384
0.692222
1.95731
1.21115
1.15052
-0.305849
-0.143915
0.92011
0.220226
0.571592
0.71268
1.15085