/*--------------------------------*- C++ -*----------------------------------*\
| =========                 |                                                 |
| \\      /  F ield         | OpenFOAM: The Open Source CFD Toolbox           |
|  \\    /   O peration     | Version:  2.3.0                                 |
|   \\  /    A nd           | Web:      www.OpenFOAM.org                      |
|    \\/     M anipulation  |                                                 |
\*---------------------------------------------------------------------------*/
FoamFile
{
    version     2.0;
    format      ascii;
    class       volScalarField;
    location    "50";
    object      nut;
}
// * * * * * * * * * * * * * * * * * * * * * * * * * * * * * * * * * * * * * //

dimensions      [0 2 -1 0 0 0 0];

internalField   nonuniform List<scalar> 
28256
(
0.0411687
0.0391626
0.0373491
0.0359768
0.0351397
0.0348576
0.035085
0.0357618
0.0368145
0.0381173
0.0395599
0.0410031
0.0423231
0.0433944
0.0441321
0.0444298
0.0442604
0.043572
0.0424397
0.0407397
0.0455989
0.0442712
0.0432895
0.0428998
0.0432179
0.0442752
0.0460398
0.0484499
0.0513842
0.0546998
0.0582373
0.0618333
0.0653425
0.0686305
0.0716007
0.0741529
0.0762799
0.0778913
0.0789931
0.0795784
0.0503184
0.04971
0.0495731
0.0501102
0.0513974
0.0534236
0.0561138
0.0593451
0.0629549
0.0667823
0.0706691
0.0744708
0.0780594
0.0813466
0.0842575
0.0867406
0.088757
0.0903045
0.0913403
0.0918615
0.0552229
0.0553336
0.055969
0.0572666
0.0592536
0.0618718
0.06501
0.0685221
0.0722464
0.0760431
0.0797797
0.0833405
0.0866426
0.0896257
0.0922354
0.094455
0.0962539
0.0976167
0.0985404
0.0990223
0.0601959
0.0609955
0.062286
0.0641581
0.066596
0.069515
0.0727949
0.0762971
0.0798867
0.0834451
0.0868736
0.0900934
0.0930449
0.0956905
0.0979989
0.0999504
0.101533
0.10274
0.103564
0.103994
0.0651449
0.0665849
0.0684012
0.0706712
0.0733587
0.0763785
0.0796172
0.0829617
0.0863039
0.0895523
0.0926386
0.0955083
0.0981198
0.100448
0.102477
0.104192
0.105584
0.106651
0.107379
0.107771
0.0700894
0.0720272
0.0742294
0.0767441
0.0795343
0.0825246
0.0856214
0.0887352
0.0917866
0.0947108
0.097461
0.0999968
0.102296
0.104339
0.106117
0.107621
0.108845
0.109782
0.110428
0.110779
0.0749084
0.0772486
0.0797113
0.0823534
0.0851443
0.0880242
0.0909237
0.0937772
0.0965293
0.0991391
0.101571
0.103802
0.105817
0.107605
0.109159
0.110473
0.111544
0.112367
0.112938
0.11325
0.0796629
0.0822192
0.0848239
0.0875
0.0902196
0.0929426
0.0956202
0.0982076
0.100671
0.102984
0.105123
0.107078
0.108837
0.110395
0.111748
0.112893
0.113827
0.114546
0.115047
0.115326
0.0842181
0.0868822
0.0895427
0.0921876
0.0947932
0.0973347
0.0997838
0.102115
0.104307
0.106347
0.108222
0.109927
0.111457
0.112809
0.113982
0.114975
0.115785
0.11641
0.116848
0.117093
0.0883859
0.0911606
0.0938407
0.0964214
0.0988943
0.101249
0.103477
0.105567
0.107511
0.109303
0.110941
0.112423
0.113747
0.114916
0.115928
0.116785
0.117483
0.118024
0.118403
0.118619
0.0921038
0.095023
0.0977123
0.100216
0.102551
0.104726
0.106748
0.108618
0.110336
0.111908
0.113334
0.114618
0.11576
0.116765
0.117635
0.118368
0.118967
0.119431
0.119758
0.119946
0.0955267
0.0985064
0.101173
0.103589
0.105789
0.107798
0.109632
0.111304
0.112824
0.1142
0.11544
0.116549
0.11753
0.118391
0.119133
0.119758
0.120268
0.120663
0.120943
0.121106
0.0986418
0.10162
0.104236
0.106555
0.108627
0.110484
0.112153
0.113652
0.114999
0.116205
0.117282
0.118238
0.11908
0.119814
0.120443
0.120973
0.121404
0.121738
0.121976
0.122117
0.101393
0.104349
0.106899
0.109121
0.111074
0.112796
0.11432
0.115672
0.11687
0.117931
0.118868
0.119693
0.120414
0.121037
0.12157
0.122016
0.122378
0.12266
0.122862
0.122983
0.103806
0.106684
0.109148
0.111274
0.113118
0.114724
0.116127
0.117353
0.118427
0.119366
0.120186
0.120899
0.121517
0.122047
0.122497
0.122872
0.123176
0.123412
0.123583
0.123689
0.105795
0.108572
0.110943
0.112977
0.114727
0.116236
0.117538
0.118664
0.119636
0.120475
0.121198
0.12182
0.122352
0.122805
0.123186
0.123502
0.123758
0.123959
0.124105
0.124199
0.107266
0.109935
0.112212
0.114162
0.115833
0.117266
0.118493
0.119541
0.120435
0.121196
0.121842
0.12239
0.122855
0.123246
0.123573
0.123843
0.124063
0.124235
0.124365
0.124453
0.108129
0.110661
0.11284
0.114718
0.116331
0.117713
0.118893
0.119893
0.120735
0.121438
0.122025
0.122515
0.122928
0.123274
0.123564
0.123803
0.123998
0.124154
0.124276
0.124366
0.108207
0.110565
0.112648
0.114482
0.116055
0.117423
0.118599
0.119593
0.120424
0.121095
0.121628
0.122065
0.122437
0.122759
0.123036
0.123266
0.123449
0.123599
0.123726
0.123831
0.0406969
0.0423479
0.0435411
0.0441893
0.0443996
0.0441497
0.0435136
0.0425667
0.0413852
0.0401002
0.038839
0.0377294
0.0368812
0.0364009
0.0363821
0.0369152
0.0380936
0.0400133
0.0427629
0.0464025
0.0795712
0.0790022
0.0779297
0.0763622
0.0742881
0.071826
0.0689752
0.065835
0.0624872
0.0590756
0.0557382
0.0526309
0.0499047
0.0477035
0.0461475
0.0453361
0.0453516
0.0462692
0.0481533
0.0510379
0.0918794
0.0914096
0.0904178
0.0889488
0.0870351
0.084662
0.0818903
0.0787473
0.0753301
0.0717229
0.0680352
0.0644226
0.0610257
0.0580121
0.0555501
0.0537797
0.0528332
0.0528218
0.0538342
0.055924
0.0990558
0.0986426
0.0978029
0.0965428
0.0948626
0.0927683
0.0902997
0.0874681
0.0843402
0.0809665
0.0774391
0.0738585
0.0703414
0.0670624
0.0641638
0.0618227
0.0601998
0.0594426
0.0596734
0.0609762
0.104038
0.103697
0.102975
0.101887
0.100418
0.0986046
0.0964465
0.0939549
0.0911697
0.0881428
0.0849149
0.0815624
0.0782021
0.0749318
0.0719069
0.0692936
0.067254
0.0659535
0.0655398
0.0661208
0.107821
0.107531
0.106913
0.105968
0.104705
0.103128
0.101248
0.0990718
0.0966265
0.0939455
0.0910465
0.0880072
0.0848912
0.0817895
0.0788266
0.0761398
0.0738863
0.0722281
0.071321
0.0713098
0.11083
0.110589
0.110056
0.109244
0.10815
0.106784
0.105149
0.103253
0.101122
0.0987649
0.0962045
0.0934839
0.0906596
0.0877951
0.0849936
0.0823658
0.0800453
0.0781767
0.0769231
0.0764316
0.113306
0.113101
0.112646
0.111945
0.111003
0.109819
0.108404
0.106766
0.104913
0.102854
0.100609
0.0982032
0.0956741
0.0930803
0.0904971
0.0880079
0.0857195
0.0837614
0.0822805
0.0814119
0.115379
0.115209
0.114824
0.114224
0.113411
0.112392
0.111174
0.109764
0.108159
0.106371
0.104412
0.102306
0.100073
0.0977573
0.0954115
0.0931044
0.0909168
0.0889582
0.0873451
0.086201
0.117146
0.117006
0.116679
0.116168
0.115474
0.114604
0.113561
0.112348
0.110967
0.109421
0.10773
0.105899
0.103948
0.101904
0.0998026
0.0976959
0.0956542
0.0937502
0.092089
0.090772
0.118669
0.118554
0.118279
0.117847
0.117262
0.116524
0.115634
0.114599
0.113419
0.112097
0.110643
0.109064
0.107372
0.105581
0.103722
0.101831
0.0999502
0.0981467
0.0964932
0.0950683
0.119993
0.119901
0.119673
0.119312
0.118819
0.118198
0.117449
0.116575
0.115577
0.114455
0.113215
0.111864
0.110403
0.10885
0.107222
0.105538
0.103835
0.102155
0.100546
0.0990779
0.12115
0.121077
0.120891
0.120592
0.120184
0.119668
0.119044
0.118314
0.117476
0.116531
0.115486
0.114337
0.11309
0.111753
0.110333
0.10885
0.107318
0.105767
0.104233
0.102764
0.122159
0.122104
0.121954
0.121713
0.12138
0.120955
0.120442
0.119838
0.119142
0.118357
0.117482
0.116515
0.115457
0.114311
0.113084
0.11178
0.110411
0.108992
0.107545
0.106108
0.123024
0.122984
0.122868
0.122677
0.122409
0.122067
0.121651
0.121159
0.120589
0.119942
0.119215
0.118405
0.117515
0.116539
0.115482
0.11434
0.113118
0.111822
0.110462
0.109062
0.123729
0.123705
0.123618
0.123471
0.123263
0.122992
0.122661
0.122266
0.121805
0.121277
0.120678
0.120007
0.119259
0.118431
0.117519
0.116516
0.115424
0.114233
0.112941
0.11155
0.124241
0.124231
0.124172
0.124064
0.123906
0.123699
0.12344
0.123127
0.122758
0.122332
0.121844
0.121288
0.120662
0.119959
0.11917
0.11829
0.117306
0.116207
0.114981
0.113604
0.124499
0.124506
0.124473
0.1244
0.124287
0.124131
0.123931
0.123685
0.123392
0.123048
0.12265
0.122192
0.121667
0.121069
0.120386
0.119609
0.118724
0.117715
0.116561
0.115238
0.124424
0.12445
0.124445
0.124406
0.12433
0.124213
0.124053
0.123853
0.123614
0.123334
0.123008
0.122628
0.122186
0.121675
0.121083
0.120395
0.119598
0.118672
0.1176
0.11636
0.123909
0.123963
0.123993
0.123996
0.12396
0.123855
0.123691
0.1235
0.123289
0.123056
0.122796
0.122471
0.12208
0.121648
0.121136
0.120518
0.119789
0.118938
0.117954
0.116813
0.028374
0.0273279
0.0267877
0.026782
0.0272562
0.0281313
0.0293318
0.0307876
0.0324355
0.0341998
0.0359927
0.0377101
0.0392444
0.0404901
0.0413592
0.0417981
0.0417503
0.0411971
0.0401369
0.0385422
0.0338339
0.0333686
0.0335717
0.0344778
0.0360538
0.0382419
0.0409731
0.0441696
0.0477305
0.0515391
0.0554552
0.059345
0.0630727
0.0665244
0.0696069
0.0722519
0.07441
0.0760575
0.0771556
0.0777048
0.0394509
0.0396508
0.0406158
0.0423613
0.0448308
0.0479321
0.0515495
0.0555513
0.0597938
0.0641286
0.0684164
0.0725275
0.0763585
0.0798261
0.082866
0.0854376
0.0875116
0.0890686
0.0901023
0.0906021
0.0451947
0.0460618
0.0477115
0.0501174
0.0531875
0.0567931
0.0607877
0.0650185
0.0693398
0.0736168
0.0777312
0.0815926
0.0851251
0.0882772
0.0910146
0.0933145
0.0951593
0.0965408
0.0974565
0.0978978
0.0510105
0.0524887
0.054698
0.0575681
0.0609801
0.06479
0.0688476
0.0730095
0.0771469
0.0811525
0.0849393
0.0884422
0.0916149
0.0944244
0.0968524
0.0988854
0.100516
0.101738
0.102547
0.102943
0.0567905
0.0588185
0.061454
0.0646118
0.0681674
0.071983
0.0759226
0.0798643
0.0837071
0.0873703
0.0907919
0.0939292
0.0967522
0.0992418
0.101388
0.103183
0.104623
0.105704
0.106423
0.106775
0.0624738
0.0649647
0.0678986
0.0711992
0.0747562
0.0784516
0.0821726
0.0858247
0.0893319
0.092637
0.0956981
0.0984876
0.100988
0.103186
0.105079
0.106663
0.107932
0.108888
0.109525
0.109839
0.0680315
0.0708711
0.0739846
0.0773155
0.080776
0.084274
0.0877259
0.09106
0.0942242
0.0971799
0.0999002
0.102367
0.104572
0.106507
0.108172
0.109564
0.110682
0.111524
0.112087
0.112367
0.0733994
0.0764986
0.0796917
0.0829659
0.0862648
0.0895229
0.0926816
0.095694
0.0985243
0.101149
0.103552
0.105723
0.107658
0.109356
0.110815
0.112035
0.113015
0.113754
0.114249
0.114496
0.0786508
0.0818441
0.0850185
0.0881698
0.0912636
0.09426
0.0971211
0.0998186
0.102332
0.104649
0.10676
0.108661
0.110352
0.111833
0.113105
0.114168
0.115022
0.115667
0.1161
0.116317
0.0836996
0.0868865
0.0899689
0.0929498
0.0958138
0.0985397
0.101109
0.103507
0.105724
0.107756
0.1096
0.111255
0.112724
0.114009
0.115111
0.116032
0.116772
0.11733
0.117705
0.117894
0.0884805
0.0916064
0.094549
0.0973306
0.099953
0.102411
0.1047
0.106817
0.108761
0.110531
0.112131
0.113563
0.11483
0.115937
0.116885
0.117676
0.118311
0.11879
0.119112
0.119274
0.0930125
0.0960052
0.0987707
0.101336
0.103716
0.105916
0.107941
0.109798
0.11149
0.113022
0.1144
0.11563
0.116714
0.117659
0.118466
0.119139
0.119679
0.120086
0.120358
0.120495
0.0972719
0.100078
0.102644
0.10499
0.107133
0.10909
0.110872
0.11249
0.113953
0.11527
0.116448
0.117494
0.118413
0.119211
0.119891
0.120456
0.120908
0.121248
0.121474
0.121586
0.101154
0.103791
0.106168
0.108307
0.110232
0.111966
0.113527
0.114929
0.116187
0.11731
0.118308
0.119188
0.119958
0.120623
0.121187
0.121654
0.122026
0.122303
0.122487
0.122575
0.104587
0.107131
0.109351
0.111306
0.113036
0.114572
0.115936
0.117148
0.118223
0.119173
0.12001
0.120743
0.121378
0.121923
0.122382
0.122758
0.123055
0.123275
0.123416
0.123479
0.10777
0.110168
0.112231
0.114018
0.115574
0.116936
0.118128
0.119173
0.120088
0.120887
0.121582
0.122183
0.122697
0.123133
0.123495
0.123788
0.124016
0.124179
0.124279
0.124314
0.110675
0.112925
0.114834
0.116466
0.117869
0.11908
0.120125
0.121028
0.121806
0.122475
0.123045
0.123529
0.123936
0.124272
0.124544
0.124759
0.124918
0.125026
0.125081
0.125085
0.113337
0.115425
0.117176
0.11866
0.119928
0.121012
0.121936
0.122723
0.123389
0.123949
0.124416
0.124799
0.125108
0.125352
0.125537
0.125674
0.125765
0.125815
0.125822
0.125785
0.115832
0.117688
0.119248
0.120569
0.121725
0.122716
0.123544
0.124248
0.124834
0.125313
0.125701
0.126002
0.126228
0.126381
0.126472
0.126523
0.126541
0.126532
0.12649
0.126398
0.0384957
0.0400197
0.0409966
0.0414792
0.0414636
0.0409846
0.04008
0.0388194
0.0372904
0.0355938
0.0338417
0.0321448
0.0306007
0.0292986
0.0283377
0.0278318
0.0279208
0.0287608
0.0304927
0.0331991
0.0776614
0.0770056
0.0758179
0.0740951
0.0718691
0.0691672
0.0660468
0.0625738
0.0588448
0.0549751
0.0510966
0.0473519
0.0438791
0.0408101
0.0382617
0.0363449
0.0351721
0.0348613
0.0355151
0.0371738
0.0905603
0.0899832
0.0888733
0.0872466
0.0851118
0.0824926
0.0794139
0.0759216
0.0720809
0.0679746
0.0637126
0.0594201
0.0552431
0.0513357
0.0478524
0.0449416
0.0427465
0.0413974
0.0409979
0.0415841
0.0978679
0.0973637
0.0963931
0.0949562
0.0930648
0.0907268
0.087956
0.0847777
0.0812299
0.0773675
0.0732612
0.0690102
0.0647298
0.0605593
0.0566519
0.0531671
0.0502637
0.0480888
0.0467597
0.0463358
0.10292
0.102482
0.101629
0.100369
0.0987044
0.0966401
0.0941854
0.0913521
0.0881632
0.0846504
0.0808632
0.0768659
0.0727462
0.0686143
0.0645989
0.0608461
0.0575073
0.0547294
0.0526341
0.05129
0.106759
0.106377
0.105629
0.104521
0.103056
0.101238
0.0990701
0.0965594
0.0937186
0.0905676
0.0871348
0.0834658
0.0796193
0.0756758
0.0717369
0.0679205
0.0643553
0.0611711
0.0584782
0.0563343
0.10983
0.109496
0.10884
0.107867
0.106578
0.104978
0.103067
0.100848
0.0983297
0.0955204
0.0924397
0.0891133
0.0855812
0.0818987
0.0781377
0.0743867
0.0707445
0.0673147
0.0641841
0.061385
0.112361
0.11207
0.111496
0.110642
0.109512
0.108106
0.106425
0.10447
0.102244
0.0997513
0.0970012
0.094009
0.0907983
0.0874037
0.0838728
0.0802649
0.0766499
0.0731001
0.0696761
0.0664008
0.114493
0.11424
0.113738
0.112992
0.112003
0.110771
0.109297
0.107579
0.105617
0.103412
0.100968
0.0982896
0.0953896
0.0922864
0.0890067
0.085586
0.0820649
0.078486
0.0748821
0.071263
0.116316
0.116096
0.11566
0.11501
0.114147
0.113072
0.111783
0.110278
0.108554
0.106609
0.104443
0.102054
0.099445
0.0966226
0.093597
0.0903826
0.0869955
0.0834512
0.079755
0.0758943
0.117893
0.117703
0.117325
0.116762
0.116013
0.115078
0.113955
0.11264
0.111129
0.109417
0.107501
0.105374
0.103033
0.100473
0.0976914
0.0946864
0.0914545
0.0879871
0.0842636
0.0802429
0.119273
0.119109
0.118783
0.118297
0.117649
0.116839
0.115864
0.114718
0.113397
0.111893
0.1102
0.108308
0.106206
0.103885
0.101331
0.0985284
0.0954585
0.0920934
0.0883908
0.0842819
0.120492
0.120351
0.120071
0.119652
0.119095
0.118395
0.11755
0.116554
0.1154
0.114079
0.112582
0.110896
0.109008
0.106899
0.10455
0.101936
0.0990251
0.095775
0.0921254
0.0879912
0.121581
0.121458
0.121217
0.120858
0.120379
0.119777
0.119046
0.11818
0.117171
0.116008
0.114681
0.113173
0.111468
0.109544
0.107376
0.10493
0.102168
0.0990358
0.0954625
0.0913513
0.122565
0.122456
0.122248
0.121939
0.121526
0.121006
0.120372
0.119617
0.118731
0.117702
0.116517
0.115159
0.113609
0.11184
0.109825
0.107525
0.104897
0.10188
0.0983974
0.0943517
0.123461
0.123361
0.123178
0.122908
0.12255
0.122097
0.121542
0.120877
0.12009
0.11917
0.1181
0.116863
0.115436
0.113793
0.111902
0.109723
0.107208
0.104295
0.100901
0.0969194
0.124284
0.124185
0.124017
0.123775
0.123455
0.123051
0.122555
0.121956
0.121244
0.120405
0.119421
0.118273
0.116939
0.11539
0.113594
0.111509
0.109089
0.106269
0.102971
0.0990942
0.125035
0.124928
0.124762
0.124533
0.124234
0.123858
0.123394
0.122835
0.122167
0.121376
0.120446
0.119356
0.118082
0.116596
0.114865
0.11285
0.110502
0.107763
0.104557
0.100808
0.125704
0.125578
0.125401
0.125169
0.124869
0.12449
0.124025
0.123465
0.122803
0.122024
0.121113
0.120046
0.118797
0.117341
0.115648
0.113679
0.111388
0.108728
0.105652
0.102107
0.126261
0.126099
0.125903
0.125665
0.125343
0.124913
0.124385
0.123761
0.123056
0.122247
0.12132
0.120241
0.118979
0.117513
0.115829
0.113897
0.111678
0.109112
0.106169
0.102872
0.000313957
0.00107235
0.00196494
0.00295695
0.00408097
0.00529324
0.00661257
0.00801643
0.00950571
0.0110609
0.0126971
0.0144111
0.0162287
0.0181797
0.0202842
0.0225805
0.0250994
0.0278394
0.0307513
0.0336607
4.90686e-12
1.1642e-09
2.66001e-08
2.72909e-07
1.49637e-05
9.17915e-05
0.000977725
0.00161976
0.00242905
0.00341337
0.00459236
0.00598769
0.00761904
0.00950523
0.0116622
0.014099
0.0168134
0.0197862
0.0229589
0.0262062
0
0
0
2.81741e-17
1.15024e-05
0.000274368
0.00061394
0.000977395
0.00144754
0.00205235
0.00281988
0.00378023
0.00496491
0.00640607
0.00813331
0.0101702
0.0125284
0.0152009
0.0181517
0.0212968
2.35504e-18
1.5254e-16
2.72669e-11
5.88804e-09
0.0002077
0.000378082
0.000579957
0.000843832
0.00118891
0.0016368
0.00221226
0.00294349
0.00386218
0.00500255
0.00639945
0.00808529
0.010085
0.0124095
0.0150448
0.0179367
4.11704e-09
1.30358e-07
5.59235e-06
7.80179e-05
0.000201803
0.000336828
0.000505417
0.000724611
0.00100972
0.0013786
0.00185229
0.00245541
0.00321658
0.00416776
0.00534335
0.00677791
0.00850254
0.0105392
0.0128918
0.0155321
1.75107e-08
1.50211e-06
1.51712e-05
6.84864e-05
0.000163248
0.000281355
0.00042831
0.000617563
0.000862593
0.00117912
0.00158555
0.00210367
0.00275901
0.00358088
0.00460153
0.00585519
0.00737521
0.0091897
0.0113146
0.0137417
1.45543e-08
1.21743e-06
1.08413e-05
4.6704e-05
0.000128025
0.000234657
0.000364701
0.000530338
0.000744736
0.00102185
0.00137826
0.00183363
0.00241121
0.00313797
0.00404426
0.00516339
0.00652958
0.00817489
0.0101249
0.0123912
1.15536e-08
9.7998e-07
8.63886e-06
3.66899e-05
0.000101639
0.000197575
0.000314412
0.000461116
0.000650707
0.00089676
0.00121416
0.00162089
0.00213845
0.00279197
0.00361038
0.00462598
0.00587335
0.00738734
0.009201
0.0113423
9.59777e-09
8.41396e-07
7.50306e-06
3.15699e-05
8.32573e-05
0.000169499
0.000276083
0.000408127
0.000577482
0.000797477
0.00108306
0.00145071
0.00192015
0.00251494
0.00326252
0.0041938
0.00534245
0.00674306
0.00842674
0.0104117
8.07017e-09
7.2343e-07
6.53739e-06
2.77219e-05
7.22852e-05
0.000149011
0.000247297
0.000368084
0.000521651
0.000720409
0.000978601
0.00131317
0.00174265
0.0022889
0.00297781
0.00383904
0.00490551
0.006212
0.00779199
0.00967472
6.9879e-09
6.42338e-07
5.89132e-06
2.54688e-05
6.67798e-05
0.000134268
0.000225671
0.000337775
0.00047907
0.000661059
0.000897006
0.00120276
0.00159751
0.00210259
0.0027422
0.00354488
0.00454314
0.00577228
0.00726939
0.00907213
6.11796e-09
5.72679e-07
5.34459e-06
2.35258e-05
6.2284e-05
0.000122948
0.000208614
0.000313902
0.000445606
0.000614288
0.000832366
0.00111468
0.00147932
0.0019483
0.00254578
0.00329886
0.00423918
0.00540203
0.00682443
0.00854171
5.47313e-09
5.20375e-07
4.90697e-06
2.19295e-05
5.869e-05
0.000115194
0.000195402
0.000295082
0.000419101
0.000577108
0.00078075
0.00104392
0.00138367
0.00182091
0.00238106
0.00309107
0.00398134
0.00508698
0.00644595
0.00809796
4.93275e-09
4.73074e-07
4.5155e-06
2.04911e-05
5.57832e-05
0.000109943
0.000185187
0.000280152
0.000397938
0.000547313
0.000739184
0.000986633
0.00130573
0.00171633
0.00224282
0.00291423
0.0037599
0.00481373
0.0061126
0.00769275
4.55125e-09
4.391e-07
4.19503e-06
1.9233e-05
5.31824e-05
0.000105701
0.000177356
0.000268513
0.000381262
0.000523609
0.000705805
0.000940211
0.00124201
0.0016301
0.00212775
0.00276345
0.003569
0.00457712
0.005825
0.0073536
4.1875e-09
4.0743e-07
3.92907e-06
1.82049e-05
5.10487e-05
0.000102194
0.00017112
0.000259146
0.000367797
0.000504393
0.000678587
0.000902089
0.00118931
0.00155816
0.00203084
0.00263461
0.00340225
0.00436719
0.00556462
0.00703203
3.94277e-09
3.83824e-07
3.70068e-06
1.72425e-05
4.89774e-05
9.89684e-05
0.000166083
0.000251651
0.000356953
0.00048879
0.000656318
0.000870621
0.00114538
0.00149757
0.0019483
0.0025236
0.00325488
0.00417774
0.00532514
0.00673103
3.71131e-09
3.63767e-07
3.52564e-06
1.65405e-05
4.73972e-05
9.6307e-05
0.000161852
0.000245378
0.000347908
0.000475768
0.000637666
0.000844137
0.00110813
0.00144573
0.001877
0.00242671
0.00312481
0.00400661
0.00510698
0.00645836
3.53285e-09
3.46166e-07
3.3523e-06
1.57655e-05
4.56126e-05
9.35305e-05
0.000157948
0.000239868
0.00034008
0.000464557
0.000621642
0.000821359
0.00107602
0.00140092
0.00181505
0.00234212
0.00301085
0.0038556
0.00491505
0.00622438
3.38278e-09
3.32635e-07
3.22603e-06
1.51946e-05
4.42048e-05
9.11233e-05
0.000154368
0.000234881
0.0003331
0.000454676
0.000607628
0.000801571
0.00104823
0.00136218
0.00176162
0.00226922
0.00291282
0.00372616
0.00474875
0.00601966
3.24317e-09
3.18829e-07
3.09472e-06
1.46114e-05
4.2815e-05
8.88319e-05
0.000151093
0.000230379
0.000326868
0.000445947
0.000595382
0.000784459
0.00102442
0.00132928
0.00171657
0.00220816
0.00283126
0.00361943
0.00461332
0.00586081
3.14539e-09
3.09978e-07
3.0088e-06
1.42259e-05
4.18221e-05
8.7074e-05
0.000148537
0.000226818
0.000321868
0.000438903
0.000585443
0.000770505
0.00100501
0.00130246
0.00167983
0.0021584
0.00276462
0.00353138
0.00449844
0.00571189
3.06408e-09
3.01468e-07
2.91904e-06
1.38515e-05
4.09214e-05
8.56768e-05
0.000146787
0.000224462
0.000318447
0.000433883
0.000578163
0.000760072
0.000990234
0.00128177
0.00165108
0.00211874
0.00271034
0.00345761
0.00439802
0.00557403
2.97552e-09
2.92387e-07
2.86108e-06
1.35527e-05
4.02016e-05
8.46396e-05
0.000145712
0.000223114
0.000316432
0.000430765
0.000573365
0.000752884
0.000979655
0.00126639
0.00162895
0.00208715
0.00266553
0.00339412
0.00430826
0.00544692
2.92021e-09
2.8903e-07
2.80159e-06
1.32976e-05
3.96609e-05
8.38487e-05
0.00014508
0.000222427
0.000315347
0.000428935
0.000570353
0.000748084
0.000972222
0.0012551
0.00161203
0.00206217
0.00262913
0.00334187
0.00423449
0.0053462
2.89318e-09
2.84558e-07
2.76615e-06
1.31263e-05
3.92097e-05
8.32516e-05
0.000144689
0.00022207
0.000314744
0.000427866
0.000568511
0.000745014
0.000967233
0.00124723
0.00159997
0.00204407
0.00260266
0.00330445
0.00418435
0.00528478
2.87122e-09
2.81288e-07
2.72041e-06
1.29319e-05
3.87921e-05
8.27338e-05
0.000144529
0.000222044
0.000314653
0.000427594
0.00056789
0.000743743
0.000964914
0.00124328
0.00159361
0.00203435
0.0025885
0.00328519
0.00416029
0.00525945
2.8415e-09
2.78542e-07
2.7036e-06
1.28152e-05
3.85599e-05
8.24716e-05
0.000144681
0.000222415
0.000315168
0.000428214
0.000568595
0.000744493
0.000965554
0.00124359
0.00159326
0.00203284
0.0025851
0.00327869
0.00414842
0.00523478
2.83353e-09
2.7706e-07
2.68327e-06
1.27687e-05
3.84729e-05
8.25617e-05
0.000145315
0.000223429
0.000316506
0.000429924
0.0005708
0.000747282
0.000968989
0.00124763
0.00159781
0.00203759
0.00258925
0.00328077
0.00414526
0.00522068
2.80932e-09
2.75177e-07
2.66532e-06
1.27076e-05
3.84303e-05
8.27142e-05
0.000146072
0.000224652
0.000318192
0.000432203
0.000573842
0.000751231
0.000974033
0.00125387
0.0016052
0.00204581
0.0025976
0.00328759
0.00414781
0.00521451
2.79605e-09
2.73635e-07
2.6517e-06
1.26634e-05
3.83779e-05
8.28205e-05
0.00014678
0.000225794
0.00031985
0.000434543
0.000577029
0.000755475
0.000979599
0.001261
0.001614
0.00205626
0.00260961
0.00330112
0.00416314
0.00523571
2.80405e-09
2.73006e-07
2.64754e-06
1.2638e-05
3.82961e-05
8.28763e-05
0.000147241
0.000226654
0.000321201
0.000436555
0.000579905
0.000759494
0.000985102
0.0012684
0.00162369
0.00206873
0.00262536
0.0033207
0.00418778
0.00526643
2.81352e-09
2.72983e-07
2.64293e-06
1.26167e-05
3.82818e-05
8.28965e-05
0.000147597
0.000227363
0.000322372
0.000438352
0.000582594
0.000763457
0.000990775
0.00127631
0.00163454
0.00208344
0.00264513
0.00334714
0.00422296
0.00531389
2.77762e-09
2.6985e-07
2.63567e-06
1.25858e-05
3.82366e-05
8.30108e-05
0.000148025
0.000228106
0.000323551
0.000440157
0.000585353
0.000767562
0.000996731
0.00128479
0.00164634
0.00209941
0.00266617
0.00337379
0.00425447
0.0053449
2.78078e-09
2.71399e-07
2.63447e-06
1.258e-05
3.82917e-05
8.32564e-05
0.000148698
0.000229112
0.00032497
0.000442236
0.000588383
0.00077193
0.00100288
0.00129333
0.00165804
0.00211494
0.00268607
0.00339828
0.00428253
0.00537342
2.78195e-09
2.7043e-07
2.63524e-06
1.25836e-05
3.83513e-05
8.34787e-05
0.000149294
0.000230032
0.000326323
0.000444224
0.00059125
0.000776049
0.00100869
0.00130134
0.00166885
0.00212933
0.00270478
0.00342204
0.00431242
0.0054101
2.78446e-09
2.71116e-07
2.63103e-06
1.25838e-05
3.83851e-05
8.36322e-05
0.000149786
0.000230872
0.000327601
0.000446074
0.000593915
0.000779854
0.00101405
0.00130881
0.00167907
0.00214314
0.00272327
0.0034466
0.00434478
0.00545362
2.79025e-09
2.70524e-07
2.63404e-06
1.26008e-05
3.8451e-05
8.38101e-05
0.000150234
0.000231627
0.000328707
0.000447719
0.000596388
0.000783455
0.00101922
0.00131613
0.00168937
0.00215762
0.00274346
0.0034745
0.00438428
0.00551179
2.77904e-09
2.69948e-07
2.62332e-06
1.25793e-05
3.84671e-05
8.40027e-05
0.000150762
0.00023247
0.000329939
0.000449529
0.000599039
0.000787324
0.00102483
0.00132416
0.00170077
0.0021737
0.00276599
0.00350618
0.00442812
0.00557178
2.76978e-09
2.69327e-07
2.62811e-06
1.26087e-05
3.85997e-05
8.43066e-05
0.000151351
0.000233379
0.000331318
0.000451551
0.000601971
0.000791566
0.00103089
0.00133274
0.00171287
0.00219055
0.00278915
0.00353734
0.00446884
0.00562187
2.78195e-09
2.69803e-07
2.62757e-06
1.26433e-05
3.87162e-05
8.46404e-05
0.000151996
0.000234367
0.000332799
0.000453703
0.000605089
0.000796046
0.00103721
0.00134162
0.00172518
0.00220741
0.00281209
0.00356833
0.00451024
0.00567855
2.77978e-09
2.69505e-07
2.63217e-06
1.26699e-05
3.88406e-05
8.49426e-05
0.000152584
0.000235252
0.00033413
0.000455697
0.00060799
0.000800163
0.00104301
0.00134969
0.00173623
0.0022223
0.00283164
0.003593
0.0045397
0.00570827
2.80172e-09
2.70003e-07
2.63112e-06
1.26535e-05
3.88474e-05
8.50611e-05
0.00015291
0.000235834
0.000335053
0.000457151
0.000610183
0.000803352
0.00104756
0.00135603
0.00174486
0.0022337
0.00284623
0.00361103
0.00456029
0.00572916
2.80834e-09
2.69994e-07
2.62395e-06
1.26342e-05
3.87928e-05
8.49418e-05
0.000152865
0.000235957
0.000335395
0.000457811
0.000611357
0.000805267
0.00105047
0.00136028
0.00175087
0.00224201
0.00285745
0.00362595
0.00458101
0.00576165
2.7981e-09
2.68472e-07
2.61165e-06
1.25895e-05
3.86523e-05
8.47186e-05
0.00015257
0.000235693
0.000335233
0.000457858
0.000611753
0.000806165
0.00105214
0.00136308
0.0017552
0.00224845
0.00286683
0.00363936
0.00459898
0.00578077
2.79454e-09
2.67192e-07
2.60729e-06
1.25695e-05
3.85847e-05
8.45138e-05
0.000152237
0.000235356
0.000334974
0.000457746
0.000611913
0.00080684
0.00105364
0.00136584
0.00175996
0.00225633
0.00287969
0.00366071
0.0046361
0.00585356
2.77959e-09
2.66234e-07
2.60052e-06
1.25444e-05
3.8504e-05
8.43906e-05
0.000152108
0.000235288
0.000335028
0.000458008
0.000612536
0.000808102
0.0010559
0.00136968
0.00176618
0.00226609
0.00289446
0.00368229
0.00466501
0.00587967
2.76161e-09
2.64979e-07
2.59648e-06
1.25234e-05
3.84892e-05
8.44312e-05
0.000152251
0.000235567
0.000335498
0.000458796
0.000613851
0.000810201
0.00105915
0.00137461
0.0017736
0.002277
0.00291015
0.00370418
0.00469497
0.00592268
2.76962e-09
2.66273e-07
2.60566e-06
1.25637e-05
3.86351e-05
8.4729e-05
0.000152728
0.000236216
0.000336406
0.000460128
0.000615811
0.000813081
0.00106343
0.0013809
0.00178284
0.00229049
0.00293003
0.00373382
0.00474179
0.00600378
2.78854e-09
2.6787e-07
2.62023e-06
1.26343e-05
3.88416e-05
8.51994e-05
0.000153506
0.000237262
0.000337848
0.000462142
0.000618638
0.000817084
0.00106908
0.00138894
0.00179432
0.00230694
0.00295368
0.00376788
0.00478906
0.00606293
2.80929e-09
2.70025e-07
2.63771e-06
1.27196e-05
3.91268e-05
8.58108e-05
0.000154576
0.000238717
0.000339798
0.000464799
0.000622282
0.000822118
0.00107608
0.00139864
0.00180778
0.00232565
0.0029796
0.00380324
0.00483719
0.00612973
2.83092e-09
2.71446e-07
2.65324e-06
1.28142e-05
3.94313e-05
8.65527e-05
0.000155859
0.000240432
0.000342078
0.000467903
0.000626473
0.000827802
0.00108384
0.00140921
0.00182201
0.00234463
0.00300459
0.00383551
0.0048769
0.0061734
2.839e-09
2.72811e-07
2.67141e-06
1.29246e-05
3.97936e-05
8.73655e-05
0.00015719
0.000242228
0.000344494
0.000471149
0.000630819
0.000833594
0.00109149
0.00141924
0.00183502
0.00236121
0.00302516
0.00385998
0.00490391
0.00619986
2.85651e-09
2.74319e-07
2.6916e-06
1.30288e-05
4.01368e-05
8.81569e-05
0.000158467
0.000243914
0.000346698
0.000474084
0.000634726
0.000838711
0.00109812
0.00142769
0.0018456
0.00237418
0.00304061
0.00387781
0.00492388
0.00622086
2.88809e-09
2.76721e-07
2.70685e-06
1.30881e-05
4.03446e-05
8.87578e-05
0.000159529
0.000245336
0.000348524
0.000476452
0.000637814
0.000842696
0.00110317
0.00143397
0.00185333
0.00238348
0.00305144
0.00389006
0.00493688
0.00623112
2.8851e-09
2.77001e-07
2.71564e-06
1.314e-05
4.05167e-05
8.91545e-05
0.000160209
0.000246272
0.000349813
0.000478189
0.0006401
0.000845723
0.00110715
0.00143917
0.00186011
0.00239256
0.00306417
0.00390929
0.00496925
0.00629638
2.91069e-09
2.7848e-07
2.72225e-06
1.31898e-05
4.0675e-05
8.95616e-05
0.00016087
0.000247154
0.00035103
0.000479824
0.000642305
0.000848728
0.00111129
0.0014449
0.00186814
0.00240395
0.00308056
0.0039328
0.0050024
0.00633801
2.95576e-09
2.80942e-07
2.74306e-06
1.32871e-05
4.09882e-05
9.02154e-05
0.000161815
0.000248405
0.000352645
0.000481957
0.000645228
0.000852754
0.00111682
0.00145252
0.00187874
0.00241867
0.0031011
0.00396126
0.00504283
0.00639913
2.99133e-09
2.84003e-07
2.76986e-06
1.34185e-05
4.13926e-05
9.10905e-05
0.000163114
0.000250084
0.000354804
0.00048481
0.000649059
0.00085786
0.00112356
0.00146139
0.00189028
0.00243349
0.00311945
0.00398263
0.00506251
0.0064005
3.00545e-09
2.85691e-07
2.79288e-06
1.3543e-05
4.17806e-05
9.20009e-05
0.000164492
0.000251877
0.000357123
0.000487817
0.000652967
0.000862866
0.00112986
0.00146914
0.00189949
0.00244381
0.00312975
0.00399009
0.00506196
0.00638381
3.01307e-09
2.87694e-07
2.81767e-06
1.36562e-05
4.20811e-05
9.26144e-05
0.000165446
0.000253162
0.000358853
0.000490063
0.000655766
0.000866308
0.00113393
0.00147367
0.0019041
0.00244778
0.00313177
0.0039884
0.00505428
0.00636968
3.03364e-09
2.89309e-07
2.83016e-06
1.3701e-05
4.21871e-05
9.28044e-05
0.000165766
0.000253613
0.000359476
0.000490889
0.000656744
0.000867383
0.00113499
0.00147448
0.00190418
0.00244642
0.00312802
0.0039811
0.00504266
0.00635414
3.0567e-09
2.90251e-07
2.83081e-06
1.36775e-05
4.20511e-05
9.24518e-05
0.00016533
0.000253168
0.000358982
0.000490283