/*--------------------------------*- C++ -*----------------------------------*\
| =========                 |                                                 |
| \\      /  F ield         | OpenFOAM: The Open Source CFD Toolbox           |
|  \\    /   O peration     | Version:  2.3.0                                 |
|   \\  /    A nd           | Web:      www.OpenFOAM.org                      |
|    \\/     M anipulation  |                                                 |
\*---------------------------------------------------------------------------*/
FoamFile
{
    version     2.0;
    format      ascii;
    class       volScalarField;
    location    "50";
    object      nuTilda;
}
// * * * * * * * * * * * * * * * * * * * * * * * * * * * * * * * * * * * * * //

dimensions      [0 2 -1 0 0 0 0];

internalField   nonuniform List<scalar> 
28256
(
0.0411687
0.0391626
0.0373491
0.0359768
0.0351397
0.0348576
0.035085
0.0357618
0.0368145
0.0381173
0.0395599
0.0410031
0.0423231
0.0433944
0.0441321
0.0444298
0.0442604
0.043572
0.0424397
0.0407397
0.0455989
0.0442712
0.0432895
0.0428998
0.0432179
0.0442752
0.0460398
0.0484499
0.0513842
0.0546998
0.0582373
0.0618333
0.0653425
0.0686305
0.0716007
0.0741529
0.0762799
0.0778913
0.0789931
0.0795784
0.0503184
0.04971
0.0495731
0.0501102
0.0513974
0.0534236
0.0561138
0.0593451
0.0629549
0.0667823
0.0706691
0.0744708
0.0780594
0.0813466
0.0842575
0.0867406
0.088757
0.0903045
0.0913403
0.0918615
0.0552229
0.0553336
0.055969
0.0572666
0.0592536
0.0618718
0.06501
0.0685221
0.0722464
0.0760431
0.0797797
0.0833405
0.0866426
0.0896257
0.0922354
0.094455
0.0962539
0.0976167
0.0985404
0.0990223
0.0601959
0.0609955
0.062286
0.0641581
0.066596
0.069515
0.0727949
0.0762971
0.0798867
0.0834451
0.0868736
0.0900934
0.0930449
0.0956905
0.0979989
0.0999504
0.101533
0.10274
0.103564
0.103994
0.0651449
0.0665849
0.0684012
0.0706712
0.0733587
0.0763785
0.0796172
0.0829617
0.0863039
0.0895523
0.0926386
0.0955083
0.0981198
0.100448
0.102477
0.104192
0.105584
0.106651
0.107379
0.107771
0.0700894
0.0720272
0.0742294
0.0767441
0.0795343
0.0825246
0.0856214
0.0887352
0.0917866
0.0947108
0.097461
0.0999968
0.102296
0.104339
0.106117
0.107621
0.108845
0.109782
0.110428
0.110779
0.0749084
0.0772486
0.0797113
0.0823534
0.0851443
0.0880242
0.0909237
0.0937772
0.0965293
0.0991391
0.101571
0.103802
0.105817
0.107605
0.109159
0.110473
0.111544
0.112367
0.112938
0.11325
0.0796629
0.0822192
0.0848239
0.0875
0.0902196
0.0929426
0.0956202
0.0982076
0.100671
0.102984
0.105123
0.107078
0.108837
0.110395
0.111748
0.112893
0.113827
0.114546
0.115047
0.115326
0.0842181
0.0868822
0.0895427
0.0921876
0.0947932
0.0973347
0.0997838
0.102115
0.104307
0.106347
0.108222
0.109927
0.111457
0.112809
0.113982
0.114975
0.115785
0.11641
0.116848
0.117093
0.0883859
0.0911606
0.0938407
0.0964214
0.0988943
0.101249
0.103477
0.105567
0.107511
0.109303
0.110941
0.112423
0.113747
0.114916
0.115928
0.116785
0.117483
0.118024
0.118403
0.118619
0.0921038
0.095023
0.0977123
0.100216
0.102551
0.104726
0.106748
0.108618
0.110336
0.111908
0.113334
0.114618
0.11576
0.116765
0.117635
0.118368
0.118967
0.119431
0.119758
0.119946
0.0955267
0.0985064
0.101173
0.103589
0.105789
0.107798
0.109632
0.111304
0.112824
0.1142
0.11544
0.116549
0.11753
0.118391
0.119133
0.119758
0.120268
0.120663
0.120943
0.121106
0.0986418
0.10162
0.104236
0.106555
0.108627
0.110484
0.112153
0.113652
0.114999
0.116205
0.117282
0.118238
0.11908
0.119814
0.120443
0.120973
0.121404
0.121738
0.121976
0.122117
0.101393
0.104349
0.106899
0.109121
0.111074
0.112796
0.11432
0.115672
0.11687
0.117931
0.118868
0.119693
0.120414
0.121037
0.12157
0.122016
0.122378
0.12266
0.122862
0.122983
0.103806
0.106684
0.109148
0.111274
0.113118
0.114724
0.116127
0.117353
0.118427
0.119366
0.120186
0.120899
0.121517
0.122047
0.122497
0.122872
0.123176
0.123412
0.123583
0.123689
0.105795
0.108572
0.110943
0.112977
0.114727
0.116236
0.117538
0.118664
0.119636
0.120475
0.121198
0.12182
0.122352
0.122805
0.123186
0.123502
0.123758
0.123959
0.124105
0.124199
0.107266
0.109935
0.112212
0.114162
0.115833
0.117266
0.118493
0.119541
0.120435
0.121196
0.121842
0.12239
0.122855
0.123246
0.123573
0.123843
0.124063
0.124235
0.124365
0.124453
0.108129
0.110661
0.11284
0.114718
0.116331
0.117713
0.118893
0.119893
0.120735
0.121438
0.122025
0.122515
0.122928
0.123274
0.123564
0.123803
0.123998
0.124154
0.124276
0.124366
0.108207
0.110565
0.112648
0.114482
0.116055
0.117423
0.118599
0.119593
0.120424
0.121095
0.121628
0.122065
0.122437
0.122759
0.123036
0.123266
0.123449
0.123599
0.123726
0.123831
0.0406969
0.0423479
0.0435411
0.0441893
0.0443996
0.0441497
0.0435136
0.0425667
0.0413852
0.0401002
0.038839
0.0377294
0.0368812
0.0364009
0.0363821
0.0369152
0.0380936
0.0400133
0.0427629
0.0464025
0.0795712
0.0790022
0.0779297
0.0763622
0.0742881
0.071826
0.0689752
0.065835
0.0624872
0.0590756
0.0557382
0.0526309
0.0499047
0.0477035
0.0461475
0.0453361
0.0453516
0.0462692
0.0481533
0.0510379
0.0918794
0.0914096
0.0904178
0.0889488
0.0870351
0.084662
0.0818903
0.0787473
0.0753301
0.0717229
0.0680352
0.0644226
0.0610257
0.0580121
0.0555501
0.0537797
0.0528332
0.0528218
0.0538342
0.055924
0.0990558
0.0986426
0.0978029
0.0965428
0.0948626
0.0927683
0.0902997
0.0874681
0.0843402
0.0809665
0.0774391
0.0738585
0.0703414
0.0670624
0.0641638
0.0618227
0.0601998
0.0594426
0.0596734
0.0609762
0.104038
0.103697
0.102975
0.101887
0.100418
0.0986046
0.0964465
0.0939549
0.0911697
0.0881428
0.0849149
0.0815624
0.0782021
0.0749318
0.0719069
0.0692936
0.067254
0.0659535
0.0655398
0.0661208
0.107821
0.107531
0.106913
0.105968
0.104705
0.103128
0.101248
0.0990718
0.0966265
0.0939455
0.0910465
0.0880072
0.0848912
0.0817895
0.0788266
0.0761398
0.0738863
0.0722281
0.071321
0.0713098
0.11083
0.110589
0.110056
0.109244
0.10815
0.106784
0.105149
0.103253
0.101122
0.0987649
0.0962045
0.0934839
0.0906596
0.0877951
0.0849936
0.0823658
0.0800453
0.0781767
0.0769231
0.0764316
0.113306
0.113101
0.112646
0.111945
0.111003
0.109819
0.108404
0.106766
0.104913
0.102854
0.100609
0.0982032
0.0956741
0.0930803
0.0904971
0.0880079
0.0857195
0.0837614
0.0822805
0.0814119
0.115379
0.115209
0.114824
0.114224
0.113411
0.112392
0.111174
0.109764
0.108159
0.106371
0.104412
0.102306
0.100073
0.0977573
0.0954115
0.0931044
0.0909168
0.0889582
0.0873451
0.086201
0.117146
0.117006
0.116679
0.116168
0.115474
0.114604
0.113561
0.112348
0.110967
0.109421
0.10773
0.105899
0.103948
0.101904
0.0998026
0.0976959
0.0956542
0.0937502
0.092089
0.090772
0.118669
0.118554
0.118279
0.117847
0.117262
0.116524
0.115634
0.114599
0.113419
0.112097
0.110643
0.109064
0.107372
0.105581
0.103722
0.101831
0.0999502
0.0981467
0.0964932
0.0950683
0.119993
0.119901
0.119673
0.119312
0.118819
0.118198
0.117449
0.116575
0.115577
0.114455
0.113215
0.111864
0.110403
0.10885
0.107222
0.105538
0.103835
0.102155
0.100546
0.0990779
0.12115
0.121077
0.120891
0.120592
0.120184
0.119668
0.119044
0.118314
0.117476
0.116531
0.115486
0.114337
0.11309
0.111753
0.110333
0.10885
0.107318
0.105767
0.104233
0.102764
0.122159
0.122104
0.121954
0.121713
0.12138
0.120955
0.120442
0.119838
0.119142
0.118357
0.117482
0.116515
0.115457
0.114311
0.113084
0.11178
0.110411
0.108992
0.107545
0.106108
0.123024
0.122984
0.122868
0.122677
0.122409
0.122067
0.121651
0.121159
0.120589
0.119942
0.119215
0.118405
0.117515
0.116539
0.115482
0.11434
0.113118
0.111822
0.110462
0.109062
0.123729
0.123705
0.123618
0.123471
0.123263
0.122992
0.122661
0.122266
0.121805
0.121277
0.120678
0.120007
0.119259
0.118431
0.117519
0.116516
0.115424
0.114233
0.112941
0.11155
0.124241
0.124231
0.124172
0.124064
0.123906
0.123699
0.12344
0.123127
0.122758
0.122332
0.121844
0.121288
0.120662
0.119959
0.11917
0.11829
0.117306
0.116207
0.114981
0.113604
0.124499
0.124506
0.124473
0.1244
0.124287
0.124131
0.123931
0.123685
0.123392
0.123048
0.12265
0.122192
0.121667
0.121069
0.120386
0.119609
0.118724
0.117715
0.116561
0.115238
0.124424
0.12445
0.124445
0.124406
0.12433
0.124213
0.124053
0.123853
0.123614
0.123334
0.123008
0.122628
0.122186
0.121675
0.121083
0.120395
0.119598
0.118672
0.1176
0.11636
0.123909
0.123963
0.123993
0.123996
0.12396
0.123855
0.123691
0.1235
0.123289
0.123056
0.122796
0.122471
0.12208
0.121648
0.121136
0.120518
0.119789
0.118938
0.117954
0.116813
0.028374
0.0273279
0.0267877
0.026782
0.0272562
0.0281313
0.0293318
0.0307876
0.0324355
0.0341998
0.0359927
0.0377101
0.0392444
0.0404901
0.0413592
0.0417981
0.0417503
0.0411971
0.0401369
0.0385422
0.0338339
0.0333686
0.0335717
0.0344778
0.0360538
0.0382419
0.0409731
0.0441696
0.0477305
0.0515391
0.0554552
0.059345
0.0630727
0.0665244
0.0696069
0.0722519
0.07441
0.0760575
0.0771556
0.0777048
0.0394509
0.0396508
0.0406158
0.0423613
0.0448308
0.0479321
0.0515495
0.0555513
0.0597938
0.0641286
0.0684164
0.0725275
0.0763585
0.0798261
0.082866
0.0854376
0.0875116
0.0890686
0.0901023
0.0906021
0.0451947
0.0460618
0.0477115
0.0501174
0.0531875
0.0567931
0.0607877
0.0650185
0.0693398
0.0736168
0.0777312
0.0815926
0.0851251
0.0882772
0.0910146
0.0933145
0.0951593
0.0965408
0.0974565
0.0978978
0.0510105
0.0524887
0.054698
0.0575681
0.0609801
0.06479
0.0688476
0.0730095
0.0771469
0.0811525
0.0849393
0.0884422
0.0916149
0.0944244
0.0968524
0.0988854
0.100516
0.101738
0.102547
0.102943
0.0567905
0.0588185
0.061454
0.0646118
0.0681674
0.071983
0.0759226
0.0798643
0.0837071
0.0873703
0.0907919
0.0939292
0.0967522
0.0992418
0.101388
0.103183
0.104623
0.105704
0.106423
0.106775
0.0624738
0.0649647
0.0678986
0.0711992
0.0747562
0.0784516
0.0821726
0.0858247
0.0893319
0.092637
0.0956981
0.0984876
0.100988
0.103186
0.105079
0.106663
0.107932
0.108888
0.109525
0.109839
0.0680315
0.0708711
0.0739846
0.0773155
0.080776
0.084274
0.0877259
0.09106
0.0942242
0.0971799
0.0999002
0.102367
0.104572
0.106507
0.108172
0.109564
0.110682
0.111524
0.112087
0.112367
0.0733994
0.0764986
0.0796917
0.0829659
0.0862648
0.0895229
0.0926816
0.095694
0.0985243
0.101149
0.103552
0.105723
0.107658
0.109356
0.110815
0.112035
0.113015
0.113754
0.114249
0.114496
0.0786508
0.0818441
0.0850185
0.0881698
0.0912636
0.09426
0.0971211
0.0998186
0.102332
0.104649
0.10676
0.108661
0.110352
0.111833
0.113105
0.114168
0.115022
0.115667
0.1161
0.116317
0.0836996
0.0868865
0.0899689
0.0929498
0.0958138
0.0985397
0.101109
0.103507
0.105724
0.107756
0.1096
0.111255
0.112724
0.114009
0.115111
0.116032
0.116772
0.11733
0.117705
0.117894
0.0884805
0.0916064
0.094549
0.0973306
0.099953
0.102411
0.1047
0.106817
0.108761
0.110531
0.112131
0.113563
0.11483
0.115937
0.116885
0.117676
0.118311
0.11879
0.119112
0.119274
0.0930125
0.0960052
0.0987707
0.101336
0.103716
0.105916
0.107941
0.109798
0.11149
0.113022
0.1144
0.11563
0.116714
0.117659
0.118466
0.119139
0.119679
0.120086
0.120358
0.120495
0.0972719
0.100078
0.102644
0.10499
0.107133
0.10909
0.110872
0.11249
0.113953
0.11527
0.116448
0.117494
0.118413
0.119211
0.119891
0.120456
0.120908
0.121248
0.121474
0.121586
0.101154
0.103791
0.106168
0.108307
0.110232
0.111966
0.113527
0.114929
0.116187
0.11731
0.118308
0.119188
0.119958
0.120623
0.121187
0.121654
0.122026
0.122303
0.122487
0.122575
0.104587
0.107131
0.109351
0.111306
0.113036
0.114572
0.115936
0.117148
0.118223
0.119173
0.12001
0.120743
0.121378
0.121923
0.122382
0.122758
0.123055
0.123275
0.123416
0.123479
0.10777
0.110168
0.112231
0.114018
0.115574
0.116936
0.118128
0.119173
0.120088
0.120887
0.121582
0.122183
0.122697
0.123133
0.123495
0.123788
0.124016
0.124179
0.124279
0.124314
0.110675
0.112925
0.114834
0.116466
0.117869
0.11908
0.120125
0.121028
0.121806
0.122475
0.123045
0.123529
0.123936
0.124272
0.124544
0.124759
0.124918
0.125026
0.125081
0.125085
0.113337
0.115425
0.117176
0.11866
0.119928
0.121012
0.121936
0.122723
0.123389
0.123949
0.124416
0.124799
0.125108
0.125352
0.125537
0.125674
0.125765
0.125815
0.125822
0.125785
0.115832
0.117688
0.119248
0.120569
0.121725
0.122716
0.123544
0.124248
0.124834
0.125313
0.125701
0.126002
0.126228
0.126381
0.126472
0.126523
0.126541
0.126532
0.12649
0.126398
0.0384957
0.0400197
0.0409966
0.0414792
0.0414636
0.0409846
0.04008
0.0388194
0.0372904
0.0355938
0.0338417
0.0321448
0.0306007
0.0292986
0.0283377
0.0278318
0.0279208
0.0287608
0.0304927
0.0331991
0.0776614
0.0770056
0.0758179
0.0740951
0.0718691
0.0691672
0.0660468
0.0625738
0.0588448
0.0549751
0.0510966
0.0473519
0.0438791
0.0408101
0.0382617
0.0363449
0.0351721
0.0348613
0.0355151
0.0371738
0.0905603
0.0899832
0.0888733
0.0872466
0.0851118
0.0824926
0.0794139
0.0759216
0.0720809
0.0679746
0.0637126
0.0594201
0.0552431
0.0513357
0.0478524
0.0449416
0.0427465
0.0413974
0.0409979
0.0415841
0.0978679
0.0973637
0.0963931
0.0949562
0.0930648
0.0907268
0.087956
0.0847777
0.0812299
0.0773675
0.0732612
0.0690102
0.0647298
0.0605593
0.0566519
0.0531671
0.0502637
0.0480888
0.0467597
0.0463358
0.10292
0.102482
0.101629
0.100369
0.0987044
0.0966401
0.0941854
0.0913521
0.0881632
0.0846504
0.0808632
0.0768659
0.0727462
0.0686143
0.0645989
0.0608461
0.0575073
0.0547294
0.0526341
0.05129
0.106759
0.106377
0.105629
0.104521
0.103056
0.101238
0.0990701
0.0965594
0.0937186
0.0905676
0.0871348
0.0834658
0.0796193
0.0756758
0.0717369
0.0679205
0.0643553
0.0611711
0.0584782
0.0563343
0.10983
0.109496
0.10884
0.107867
0.106578
0.104978
0.103067
0.100848
0.0983297
0.0955204
0.0924397
0.0891133
0.0855812
0.0818987
0.0781377
0.0743867
0.0707445
0.0673147
0.0641841
0.061385
0.112361
0.11207
0.111496
0.110642
0.109512
0.108106
0.106425
0.10447
0.102244
0.0997513
0.0970012
0.094009
0.0907983
0.0874037
0.0838728
0.0802649
0.0766499
0.0731001
0.0696761
0.0664008
0.114493
0.11424
0.113738
0.112992
0.112003
0.110771
0.109297
0.107579
0.105617
0.103412
0.100968
0.0982896
0.0953896
0.0922864
0.0890067
0.085586
0.0820649
0.078486
0.0748821
0.071263
0.116316
0.116096
0.11566
0.11501
0.114147
0.113072
0.111783
0.110278
0.108554
0.106609
0.104443
0.102054
0.099445
0.0966226
0.093597
0.0903826
0.0869955
0.0834512
0.079755
0.0758943
0.117893
0.117703
0.117325
0.116762
0.116013
0.115078
0.113955
0.11264
0.111129
0.109417
0.107501
0.105374
0.103033
0.100473
0.0976914
0.0946864
0.0914545
0.0879871
0.0842636
0.0802429
0.119273
0.119109
0.118783
0.118297
0.117649
0.116839
0.115864
0.114718
0.113397
0.111893
0.1102
0.108308
0.106206
0.103885
0.101331
0.0985284
0.0954585
0.0920934
0.0883908
0.0842819
0.120492
0.120351
0.120071
0.119652
0.119095
0.118395
0.11755
0.116554
0.1154
0.114079
0.112582
0.110896
0.109008
0.106899
0.10455
0.101936
0.0990251
0.095775
0.0921254
0.0879912
0.121581
0.121458
0.121217
0.120858
0.120379
0.119777
0.119046
0.11818
0.117171
0.116008
0.114681
0.113173
0.111468
0.109544
0.107376
0.10493
0.102168
0.0990358
0.0954625
0.0913513
0.122565
0.122456
0.122248
0.121939
0.121526
0.121006
0.120372
0.119617
0.118731
0.117702
0.116517
0.115159
0.113609
0.11184
0.109825
0.107525
0.104897
0.10188
0.0983974
0.0943517
0.123461
0.123361
0.123178
0.122908
0.12255
0.122097
0.121542
0.120877
0.12009
0.11917
0.1181
0.116863
0.115436
0.113793
0.111902
0.109723
0.107208
0.104295
0.100901
0.0969194
0.124284
0.124185
0.124017
0.123775
0.123455
0.123051
0.122555
0.121956
0.121244
0.120405
0.119421
0.118273
0.116939
0.11539
0.113594
0.111509
0.109089
0.106269
0.102971
0.0990942
0.125035
0.124928
0.124762
0.124533
0.124234
0.123858
0.123394
0.122835
0.122167
0.121376
0.120446
0.119356
0.118082
0.116596
0.114865
0.11285
0.110502
0.107763
0.104557
0.100808
0.125704
0.125578
0.125401
0.125169
0.124869
0.12449
0.124025
0.123465
0.122803
0.122024
0.121113
0.120046
0.118797
0.117341
0.115648
0.113679
0.111388
0.108728
0.105652
0.102107
0.126261
0.126099
0.125903
0.125665
0.125343
0.124913
0.124385
0.123761
0.123056
0.122247
0.12132
0.120241
0.118979
0.117513
0.115829
0.113897
0.111678
0.109112
0.106169
0.102872
0.000325904
0.0010735
0.00196528
0.0029571
0.00408105
0.00529328
0.0066126
0.00801645
0.00950572
0.011061
0.0126972
0.0144111
0.0162287
0.0181797
0.0202842
0.0225805
0.0250994
0.0278394
0.0307513
0.0336607
1.59444e-06
6.25965e-06
1.36955e-05
2.45757e-05
7.01155e-05
0.000135835
0.000979116
0.00162027
0.00242928
0.00341348
0.00459242
0.00598773
0.00761906
0.00950524
0.0116622
0.014099
0.0168134
0.0197862
0.0229589
0.0262062
0
0
0
6.52321e-08
6.54316e-05
0.000289247
0.000617437
0.000978794
0.00144818
0.00205267
0.00282005
0.00378033
0.00496496
0.0064061
0.00813333
0.0101702
0.0125285
0.0152009
0.0181517
0.0212969
4.16705e-08
1.16852e-07
2.10458e-06
7.84464e-06
0.000230494
0.000386867
0.000583881
0.000845711
0.00118986
0.0016373
0.00221254
0.00294365
0.00386227
0.0050026
0.00639949
0.00808531
0.010085
0.0124095
0.0150448
0.0179367
8.52173e-06
2.00117e-05
5.33701e-05
0.000128079
0.000225612
0.000347685
0.000510558
0.000727161
0.00101104
0.00137931
0.00185269
0.00245564
0.00321671
0.00416784
0.0053434
0.00677794
0.00850256
0.0105392
0.0128918
0.0155321
1.24732e-05
3.83148e-05
7.17391e-05
0.000121156
0.000193843
0.000296127
0.000435378
0.000621069
0.000864408
0.00118009
0.00158609
0.00210397
0.00275919
0.00358099
0.0046016
0.00585523
0.00737524
0.00918972
0.0113146
0.0137417
1.19333e-05
3.63741e-05
6.51737e-05
0.000103969
0.000166268
0.000254236
0.000374231
0.000535074
0.000747174
0.00102315
0.00137897
0.00183403
0.00241145
0.00313811
0.00404434
0.00516344
0.00652961
0.00817491
0.0101249
0.0123912
1.12766e-05
3.44576e-05
6.12293e-05
9.54123e-05
0.000146222
0.000222225
0.00032675
0.000467302
0.000653893
0.00089845
0.00121508
0.00162141
0.00213875
0.00279215
0.00361048
0.00462604
0.00587339
0.00738737
0.00920102
0.0113423
1.07756e-05
3.31536e-05
5.88437e-05
9.04813e-05
0.000132254
0.000198807
0.000291273
0.000415852
0.000581486
0.000799605
0.00108422
0.00145135
0.00192052
0.00251515
0.00326264
0.00419388
0.0053425
0.00674309
0.00842676
0.0104118
1.0318e-05
3.19212e-05
5.6714e-05
8.67454e-05
0.000124096
0.000182207
0.000265157
0.000377326
0.000526484
0.000722993
0.000980013
0.00131396
0.0017431
0.00228916
0.00297796
0.00383913
0.00490556
0.00621203
0.00779201
0.00967474
9.96207e-06
3.09935e-05
5.51635e-05
8.44394e-05
0.000119948
0.000170542
0.000245941
0.000348458
0.000484714
0.000664096
0.000898673
0.00120369
0.00159804
0.0021029
0.00274238
0.00354499
0.00454321
0.00577232
0.00726942
0.00907214
9.63268e-06
3.01014e-05
5.37363e-05
8.2338e-05
0.000116457
0.000161763
0.000231058
0.000325943
0.000452032
0.000617769
0.000834287
0.00111576
0.00147994
0.00194866
0.00254599
0.00329899
0.00423926
0.00540208
0.00682446
0.00854173
9.36565e-06
2.93575e-05
5.2457e-05
8.04601e-05
0.000113627
0.000156
0.000219739
0.000308364
0.00042626
0.000581013
0.000782917
0.00104514
0.00138437
0.00182131
0.0023813
0.00309121
0.00398143
0.00508703
0.00644598
0.00809798
9.1164e-06
2.866e-05
5.13477e-05
7.88988e-05
0.000111519
0.000152265
0.000211116
0.000294533
0.000405764
0.000551612
0.000741581
0.000987992
0.00130651
0.00171678
0.00224309
0.00291439
0.00376
0.00481379
0.00611264
0.00769278
8.92574e-06
2.80927e-05
5.02989e-05
7.73317e-05
0.000109431
0.000149099
0.00020455
0.000283815
0.000389668
0.000528258
0.000708414
0.000941696
0.00124287
0.0016306
0.00212804
0.00276362
0.00356911
0.00457719
0.00582504
0.00735362
8.73898e-06
2.75682e-05
4.94456e-05
7.60861e-05
0.000107749
0.000146498
0.000199391
0.000275243
0.000376711
0.000509354
0.000681387
0.000903691
0.00119024
0.00155871
0.00203116
0.00263481
0.00340236
0.00436726
0.00556467
0.00703206
8.59279e-06
2.71083e-05
4.8594e-05
7.47562e-05
0.000105966
0.000144005
0.000195214
0.0002684
0.000366297
0.000494022
0.000659286
0.000872328
0.00114638
0.00149816
0.00194865
0.00252381
0.003255
0.00417781
0.00532519
0.00673106
8.46376e-06
2.67398e-05
4.79558e-05
7.37909e-05
0.000104609
0.000141976
0.000191764
0.000262722
0.000357642
0.000481246
0.000640789
0.000845942
0.00110918
0.00144635
0.00187737
0.00242694
0.00312494
0.00400669
0.00510703
0.00645839
8.3456e-06
2.63688e-05
4.72707e-05
7.2682e-05
0.000103057
0.000139839
0.00018856
0.000257743
0.000350167
0.00047026
0.000624907
0.000823253
0.00107713
0.00140158
0.00181545
0.00234236
0.00301099
0.00385569
0.0049151
0.00622441
8.2556e-06
2.60966e-05
4.67637e-05
7.18307e-05
0.000101792
0.000137978
0.00018566
0.000253276
0.000343529
0.000460594
0.000611026
0.00080355
0.0010494
0.00136288
0.00176204
0.00226947
0.00291298
0.00372626
0.00474881
0.0060197
8.15801e-06
2.5795e-05
4.623e-05
7.09792e-05
0.00010057
0.000136211
0.000182978
0.000249233
0.000337601
0.000452056
0.0005989
0.000786514
0.00102564
0.00133001
0.001717
0.00220843
0.00283142
0.00361953
0.00461338
0.00586085
8.0899e-06
2.55843e-05
4.58224e-05
7.03071e-05
9.95731e-05
0.000134762
0.000180837
0.00024602
0.000332841
0.000445167
0.000589059
0.000772623
0.00100627
0.00130321
0.00168029
0.00215867
0.00276479
0.00353148
0.0044985
0.00571193
8.03059e-06
2.53895e-05
4.54344e-05
6.97143e-05
9.87153e-05
0.000133604
0.000179304
0.000243855
0.000329562
0.000440246
0.000581846
0.000762233
0.000991518
0.00128254
0.00165155
0.00211903
0.00271052
0.00345772
0.00439809
0.00557407
7.96554e-06
2.51702e-05
4.51465e-05
6.91865e-05
9.79699e-05
0.000132687
0.000178297
0.000242582
0.000327612
0.000437179
0.000577087
0.000755073
0.000980959
0.00126717
0.00162943
0.00208744
0.00266571
0.00339423
0.00430833
0.00544696
7.92418e-06
2.50848e-05
4.48751e-05
6.87579e-05
9.74167e-05
0.000131985
0.000177674
0.000241911
0.000326549
0.000435372
0.000574095
0.00075029
0.000973539
0.00125589
0.00161252
0.00206247
0.00262931
0.00334198
0.00423457
0.00534625
7.90076e-06
2.49664e-05
4.46843e-05
6.84275e-05
9.69249e-05
0.000131432
0.000177272
0.000241549
0.000325951
0.000434312
0.000572263
0.000747228
0.000968557
0.00124803
0.00160045
0.00204437
0.00260284
0.00330457
0.00418443
0.00528483
7.88397e-06
2.48883e-05
4.44773e-05
6.81029e-05
9.65016e-05
0.000130965
0.000177077
0.000241491
0.000325842
0.00043403
0.000571638
0.000745956
0.000966239
0.00124409
0.0015941
0.00203465
0.00258869
0.00328531
0.00416036
0.00525949
7.85874e-06
2.4807e-05
4.43629e-05
6.78503e-05
9.61951e-05
0.000130658
0.000177122
0.000241777
0.000326299
0.000434616
0.000572322
0.000746694
0.000966871
0.00124439
0.00159375
0.00203314
0.00258529
0.00327881
0.00414849
0.00523482
7.8539e-06
2.47743e-05
4.42702e-05
6.7758e-05
9.60722e-05
0.000130653
0.000177574
0.00024264
0.000327539
0.000436264
0.00057449
0.000749461
0.000970293
0.00124842
0.00159829
0.00203789
0.00258944
0.00328089
0.00414534
0.00522072
7.83278e-06
2.47163e-05
4.41645e-05
6.76179e-05
9.59723e-05
0.000130693
0.00017814
0.0002437
0.000329116
0.000438475
0.000577488
0.000753383
0.000975321
0.00125465
0.00160568
0.00204611
0.00259778
0.0032877
0.00414788
0.00521456
7.82464e-06
2.46834e-05
4.41045e-05
6.75406e-05
9.59028e-05
0.000130737
0.000178707
0.000244717
0.000330683
0.000440755
0.000580637
0.000757603
0.000980871
0.00126177
0.00161447
0.00205655
0.00260979
0.00330124
0.00416321
0.00523575
7.82811e-06
2.46627e-05
4.40768e-05
6.74882e-05
9.58141e-05
0.000130758
0.000179086
0.000245492
0.000331967
0.000442719
0.000583482
0.000761601
0.00098636
0.00126916
0.00162416
0.00206902
0.00262554
0.00332081
0.00418785
0.00526647
7.8361e-06
2.4664e-05
4.40541e-05
6.74439e-05
9.57817e-05
0.000130755
0.000179384
0.000246136
0.000333082
0.000444476
0.000586142
0.000765544
0.00099202
0.00127706
0.001635
0.00208373
0.00264531
0.00334725
0.00422303
0.00531393
7.80936e-06
2.45888e-05
4.40182e-05
6.73907e-05
9.57315e-05
0.000130821
0.000179722
0.000246795
0.000334198
0.000446237
0.000588871
0.000769628
0.000997963
0.00128553
0.00164679
0.00209969
0.00266634
0.0033739
0.00425453
0.00534495
7.81166e-06
2.4623e-05
4.40078e-05
6.73686e-05
9.5756e-05
0.000130966
0.000180253
0.000247687
0.000335542
0.000448265
0.000591868
0.000773974
0.0010041
0.00129407
0.00165848
0.00211522
0.00268624
0.00339838
0.0042826
0.00537346
7.81228e-06
2.45985e-05
4.40042e-05
6.73601e-05
9.57853e-05
0.0001311
0.000180725
0.000248504
0.000336823
0.000450206
0.000594704
0.000778074
0.0010099
0.00130207
0.0016693
0.0021296
0.00270494
0.00342214
0.00431248
0.00541015
7.81442e-06
2.46144e-05
4.39839e-05
6.7353e-05
9.58003e-05
0.000131193
0.000181122
0.000249255
0.000338037
0.000452013
0.000597341
0.000781861
0.00101524
0.00130953
0.00167951
0.00214341
0.00272344
0.0034467
0.00434485
0.00545366
7.81872e-06
2.46009e-05
4.39949e-05
6.73739e-05
9.58507e-05
0.000131318
0.000181485
0.000249932
0.000339086
0.00045362
0.000599789
0.000785444
0.0010204
0.00131684
0.00168981
0.00215789
0.00274362
0.00347461
0.00438434
0.00551183
7.81043e-06
2.45868e-05
4.39475e-05
6.73385e-05
9.58567e-05
0.00013144
0.000181906
0.000250681
0.000340254
0.000455388
0.000602412
0.000789295
0.001026
0.00132486
0.0017012
0.00217396
0.00276615
0.00350628
0.00442818
0.00557182
7.80472e-06
2.4574e-05
4.39684e-05
6.73813e-05
9.5967e-05
0.000131656
0.000182381
0.000251493
0.000341562
0.000457363
0.000605313
0.000793517
0.00103204
0.00133344
0.00171329
0.0021908
0.00278931
0.00353744
0.00446891
0.00562191
7.81256e-06
2.45834e-05
4.39651e-05
6.74329e-05
9.60654e-05
0.000131893
0.0001829
0.000252375
0.000342968
0.000459466
0.000608399
0.000797976
0.00103835
0.0013423
0.00172559
0.00220767
0.00281225
0.00356843
0.0045103
0.00567858
7.81242e-06
2.45798e-05
4.39885e-05
6.74776e-05
9.61812e-05
0.000132132
0.000183393
0.000253179
0.00034424
0.000461419
0.000611273
0.000802076
0.00104414
0.00135037
0.00173664
0.00222255
0.0028318
0.0035931
0.00453976
0.00570831
7.82766e-06
2.45922e-05
4.39885e-05
6.74629e-05
9.62049e-05
0.000132244
0.000183685
0.00025372
0.000345129
0.000462848
0.000613449
0.000805254
0.00104868
0.0013567
0.00174527
0.00223394
0.00284638
0.00361113
0.00456035
0.0057292
7.83389e-06
2.45949e-05
4.39593e-05
6.74357e-05
9.61691e-05
0.00013219
0.000183689
0.000253859
0.000345472
0.000463504
0.000614617
0.000807164
0.00105159
0.00136095
0.00175127
0.00224226
0.0028576
0.00362605
0.00458107
0.00576168
7.82709e-06
2.45624e-05
4.39119e-05
6.738e-05
9.60708e-05
0.000132068
0.000183487
0.000253649
0.000345334
0.000463558
0.000615014
0.00080806
0.00105326
0.00136375
0.0017556
0.0022487
0.00286698
0.00363945
0.00459904
0.0057808
7.82524e-06
2.45351e-05
4.3897e-05
6.73577e-05
9.60284e-05
0.000131948
0.000183242
0.000253364
0.000345098
0.000463454
0.000615176
0.000808734
0.00105475
0.0013665
0.00176036
0.00225657
0.00287984
0.0036608
0.00463616
0.0058536
7.81431e-06
2.45127e-05
4.38692e-05
6.73242e-05
9.59659e-05
0.000131866
0.000183142
0.000253306
0.000345151
0.000463712
0.000615793
0.000809991
0.00105701
0.00137034
0.00176658
0.00226633
0.00289461
0.00368238
0.00466506
0.0058797
7.80152e-06
2.44833e-05
4.38515e-05
6.72919e-05
9.59507e-05
0.000131889
0.00018325
0.00025355
0.000345594
0.000464481
0.000617095
0.000812081
0.00106025
0.00137526
0.00177399
0.00227724
0.00291029
0.00370427
0.00469503
0.00592272
7.80643e-06
2.45111e-05
4.38875e-05
6.73463e-05
9.60664e-05
0.00013209
0.000183617
0.000254118
0.00034645
0.00046578
0.000619034
0.000814947
0.00106452
0.00138155
0.00178323
0.00229073
0.00293017
0.00373391
0.00474185
0.00600382
7.81952e-06
2.45481e-05
4.39525e-05
6.74561e-05
9.62414e-05
0.000132414
0.000184223
0.000255038
0.000347812
0.000467745
0.000621831
0.000818931
0.00107017
0.00138958
0.00179471
0.00230717
0.00295382
0.00376797
0.00478911
0.00606297
7.83365e-06
2.45957e-05
4.40229e-05
6.75744e-05
9.64667e-05
0.000132824
0.000185061
0.000256324
0.000349657
0.000470339
0.000625437
0.000823943
0.00107715
0.00139928
0.00180816
0.00232588
0.00297974
0.00380332
0.00483725
0.00612976
7.8487e-06
2.46278e-05
4.40885e-05
6.77123e-05
9.67111e-05
0.000133324
0.000186068
0.000257842
0.000351816
0.000473372
0.000629587
0.000829601
0.00108489
0.00140983
0.00182239
0.00234486
0.00300472
0.0038356
0.00487696
0.00617344
7.85371e-06
2.46564e-05
4.41607e-05
6.7866e-05
9.69987e-05
0.000133874
0.000187119
0.000259439
0.000354109
0.000476545
0.000633891
0.000835369
0.00109253
0.00141986
0.00183539
0.00236144
0.00302529
0.00386007
0.00490396
0.00619989
7.86646e-06
2.4696e-05
4.4261e-05
6.80461e-05
9.73108e-05
0.000134441
0.000188143
0.000260947
0.000356207
0.000479418
0.000637762
0.000840466
0.00109915
0.0014283
0.00184597
0.0023744
0.00304075
0.0038779
0.00492393
0.00622089
7.887e-06
2.4746e-05
4.43193e-05
6.81249e-05
9.74734e-05
0.000134851
0.000188997
0.000262224
0.000357948
0.000481739
0.000640823
0.000844435
0.00110419
0.00143458
0.00185369
0.0023837
0.00305157
0.00389015
0.00493694
0.00623115
7.88707e-06
2.47575e-05
4.43624e-05
6.82076e-05
9.76201e-05
0.000135134
0.000189551
0.000263069
0.000359179
0.000483442
0.000643089
0.000847451
0.00110816
0.00143977
0.00186047
0.00239277
0.0030643
0.00390938
0.0049693
0.00629641
7.90246e-06
2.47856e-05
4.43839e-05
6.82723e-05
9.77411e-05
0.000135406
0.000190071
0.000263854
0.000360335
0.000485041
0.000645274
0.000850443
0.0011123
0.00144549
0.00186849
0.00240416
0.00308069
0.00393289
0.00500245
0.00633804
7.93382e-06
2.48422e-05
4.44716e-05
6.84121e-05
9.79937e-05
0.000135855
0.000190814
0.000264963
0.000361867
0.000487126
0.000648169
0.000854452
0.00111782
0.00145311
0.00187909
0.00241888
0.00310123
0.00396134
0.00504288
0.00639916
7.95686e-06
2.49083e-05
4.45812e-05
6.85992e-05
9.83206e-05
0.000136458
0.000191841
0.000266457
0.000363918
0.000489917
0.000651962
0.000859537
0.00112454
0.00146197
0.00189063
0.0024337
0.00311958
0.00398271
0.00506256
0.00640053
7.96653e-06
2.49449e-05
4.46739e-05
6.87737e-05
9.86341e-05
0.000137101
0.00019295
0.000268069
0.000366129
0.000492864
0.000655837
0.000864523
0.00113083
0.00146972
0.00189983
0.00244402
0.00312988
0.00399017
0.00506201
0.00638384
7.97319e-06
2.49933e-05
4.47828e-05
6.89474e-05
9.89004e-05
0.00013757
0.000193748
0.000269242
0.000367791
0.000495071
0.000658615
0.000867954
0.0011349
0.00147425
0.00190444
0.00244799
0.0031319
0.00398848
0.00505433
0.00636971
7.98713e-06
2.50345e-05
4.48539e-05
6.90521e-05
9.90433e-05
0.000137766
0.000194052
0.000269679
0.000368404
0.00049589
0.00065959
0.000869028
0.00113596
0.00147505
0.00190452
0.00244663
0.00312815
0.00398118
0.00504271
0.00635418
8.00374e-06
2.50573e-05
4.4859e-05
6.90238e-05
9.89526e-05
0.000137568
0.000193753
0.000269315
0.000367953