/*--------------------------------*- C++ -*----------------------------------*\
| =========                 |                                                 |
| \\      /  F ield         | OpenFOAM: The Open Source CFD Toolbox           |
|  \\    /   O peration     | Version:  2.3.0                                 |
|   \\  /    A nd           | Web:      www.OpenFOAM.org                      |
|    \\/     M anipulation  |                                                 |
\*---------------------------------------------------------------------------*/
FoamFile
{
    version     2.0;
    format      ascii;
    class       surfaceScalarField;
    location    "50";
    object      phi;
}
// * * * * * * * * * * * * * * * * * * * * * * * * * * * * * * * * * * * * * //

dimensions      [0 3 -1 0 0 0 0];

internalField   nonuniform List<scalar> 
56247
(
3.12163e-05
-0.000120678
0.000125263
-3.55662e-05
2.7827e-05
-0.000100671
0.00010406
2.54897e-05
-8.39568e-05
8.62939e-05
2.40772e-05
-7.01366e-05
7.15491e-05
2.34488e-05
-5.87536e-05
5.93815e-05
2.34332e-05
-4.94061e-05
4.94217e-05
2.38873e-05
-4.17274e-05
4.12728e-05
2.47114e-05
-3.53844e-05
3.45602e-05
2.58011e-05
-3.01305e-05
2.90405e-05
2.70789e-05
-2.5751e-05
2.44732e-05
2.85143e-05
-2.20841e-05
2.06486e-05
3.00653e-05
-1.90005e-05
1.74494e-05
3.17291e-05
-1.63984e-05
1.47346e-05
3.34838e-05
-1.41974e-05
1.24426e-05
3.53254e-05
-1.23324e-05
1.04909e-05
3.72252e-05
-1.07524e-05
8.85247e-06
3.91978e-05
-9.41367e-06
7.44127e-06
4.12091e-05
-8.28025e-06
6.2689e-06
4.33021e-05
-7.32397e-06
5.23118e-06
-6.51411e-06
4.54883e-05
4.32787e-06
3.42281e-05
-0.000116668
-3.82379e-05
3.14472e-05
-9.78907e-05
2.97344e-05
-8.22441e-05
2.8889e-05
-6.92913e-05
2.87496e-05
-5.86144e-05
2.91476e-05
-4.98043e-05
2.99477e-05
-4.25276e-05
3.10444e-05
-3.64811e-05
3.23498e-05
-3.1436e-05
3.38025e-05
-2.72037e-05
3.5354e-05
-2.36357e-05
3.69828e-05
-2.06293e-05
3.86625e-05
-1.80781e-05
4.03934e-05
-1.59284e-05
4.21591e-05
-1.4098e-05
4.39701e-05
-1.25635e-05
4.58118e-05
-1.12553e-05
4.76987e-05
-1.01671e-05
4.96137e-05
-9.23899e-06
-8.4618e-06
5.15614e-05
3.67499e-05
-0.000112968
-4.0451e-05
3.42852e-05
-9.54261e-05
3.2817e-05
-8.0776e-05
3.21433e-05
-6.86176e-05
3.20792e-05
-5.85504e-05
3.24704e-05
-5.01955e-05
3.31905e-05
-4.32478e-05
3.41458e-05
-3.74364e-05
3.52644e-05
-3.25545e-05
3.65214e-05
-2.84608e-05
3.78905e-05
-2.50048e-05
3.9339e-05
-2.20778e-05
4.08723e-05
-1.96114e-05
4.24851e-05
-1.75412e-05
4.41598e-05
-1.57727e-05
4.59022e-05
-1.43059e-05
4.77104e-05
-1.30635e-05
4.95612e-05
-1.2018e-05
5.14603e-05
-1.1138e-05
-1.04107e-05
5.34091e-05
3.88076e-05
-0.000109488
-4.22873e-05
3.64354e-05
-9.30539e-05
3.49812e-05
-7.93218e-05
3.42473e-05
-6.78837e-05
3.40563e-05
-5.83594e-05
3.42708e-05
-5.041e-05
3.47973e-05
-4.37743e-05
3.55524e-05
-3.81915e-05
3.65047e-05
-3.35068e-05
3.76125e-05
-2.95687e-05
3.88513e-05
-2.62435e-05
4.02131e-05
-2.34396e-05
4.16746e-05
-2.10729e-05
4.32255e-05
-1.90921e-05
4.48811e-05
-1.74282e-05
4.65973e-05
-1.60221e-05
4.83746e-05
-1.48408e-05
5.02207e-05
-1.38642e-05
5.21201e-05
-1.30373e-05
-1.23501e-05
5.40595e-05
4.04448e-05
-0.000106007
-4.39256e-05
3.80432e-05
-9.06522e-05
3.64979e-05
-7.77765e-05
3.56143e-05
-6.7e-05
3.52475e-05
-5.79926e-05
3.52856e-05
-5.04481e-05
3.56256e-05
-4.41143e-05
3.62412e-05
-3.8807e-05
3.70606e-05
-3.43262e-05
3.80505e-05
-3.05586e-05
3.9205e-05
-2.73981e-05
4.05039e-05
-2.47385e-05
4.19296e-05
-2.24986e-05
4.34484e-05
-2.06109e-05
4.5065e-05
-1.90449e-05
4.67675e-05
-1.77246e-05
4.85447e-05
-1.66179e-05
5.03871e-05
-1.57066e-05
5.22768e-05
-1.4927e-05
-1.42958e-05
5.42225e-05
4.17717e-05
-0.000102499
-4.52798e-05
3.92622e-05
-8.81426e-05
3.75675e-05
-7.60816e-05
3.65171e-05
-6.59496e-05
3.59774e-05
-5.74529e-05
3.5847e-05
-5.03177e-05
3.60565e-05
-4.43238e-05
3.6538e-05
-3.92885e-05
3.72663e-05
-3.50545e-05
3.81974e-05
-3.14897e-05
3.93114e-05
-2.8512e-05
4.05659e-05
-2.5993e-05
4.19581e-05
-2.38908e-05
4.34705e-05
-2.21233e-05
4.50778e-05
-2.06523e-05
4.67744e-05
-1.94211e-05
4.85542e-05
-1.83978e-05
5.03871e-05
-1.75394e-05
5.22832e-05
-1.68232e-05
-1.62352e-05
5.42226e-05
4.28176e-05
-9.88675e-05
-4.64493e-05
4.01677e-05
-8.54926e-05
3.83079e-05
-7.42218e-05
3.70944e-05
-6.47361e-05
3.64059e-05
-5.67643e-05
3.61546e-05
-5.00664e-05
3.62573e-05
-4.44264e-05
3.66649e-05
-3.96961e-05
3.73212e-05
-3.57108e-05
3.82153e-05
-3.23838e-05
3.92787e-05
-2.95755e-05
4.05201e-05
-2.72344e-05
4.18976e-05
-2.52684e-05
4.34016e-05
-2.36273e-05
4.50105e-05
-2.22612e-05
4.67039e-05
-2.11144e-05
4.84696e-05
-2.01636e-05
5.03078e-05
-1.93776e-05
5.22058e-05
-1.87212e-05
-1.8173e-05
5.41436e-05
4.36783e-05
-9.50638e-05
-4.7482e-05
4.08544e-05
-8.26687e-05
3.88391e-05
-7.22065e-05
3.74895e-05
-6.33865e-05
3.6676e-05
-5.59508e-05
3.63131e-05
-4.97035e-05
3.63352e-05
-4.44485e-05
3.66724e-05
-4.00333e-05
3.7293e-05
-3.63315e-05
3.81462e-05
-3.3237e-05
3.91974e-05
-3.06267e-05
4.04249e-05
-2.84619e-05
4.17951e-05
-2.66386e-05
4.32902e-05
-2.51223e-05
4.48889e-05
-2.386e-05
4.65829e-05
-2.28084e-05
4.83542e-05
-2.19348e-05
5.01922e-05
-2.12155e-05
5.20811e-05
-2.06102e-05
-2.012e-05
5.40281e-05
4.43676e-05
-9.10842e-05
-4.83472e-05
4.13844e-05
-7.96854e-05
3.92278e-05
-7.00499e-05
3.77369e-05
-6.18955e-05
3.68196e-05
-5.50336e-05
3.63827e-05
-4.92666e-05
3.63416e-05
-4.44074e-05
3.66411e-05
-4.03329e-05
3.72283e-05
-3.69187e-05
3.80498e-05
-3.40585e-05
3.90935e-05
-3.16705e-05
4.03014e-05
-2.96698e-05
4.16642e-05
-2.80014e-05
4.31592e-05
-2.66173e-05
4.47561e-05
-2.54569e-05
4.64526e-05
-2.45049e-05
4.82234e-05
-2.37057e-05
5.00563e-05
-2.30484e-05
5.19544e-05
-2.25083e-05
-2.20582e-05
5.38926e-05
4.4881e-05
-8.69849e-05
-4.89802e-05
4.17746e-05
-7.6579e-05
3.94887e-05
-6.7764e-05
3.79102e-05
-6.0317e-05
3.69092e-05
-5.40326e-05
3.63907e-05
-4.87482e-05
3.62998e-05
-4.43165e-05
3.65625e-05
-4.05956e-05
3.71231e-05
-3.74793e-05
3.7935e-05
-3.48703e-05
3.89572e-05
-3.26927e-05
4.01659e-05
-3.08785e-05
4.15237e-05
-2.93592e-05
4.30134e-05
-2.8107e-05
4.46089e-05
-2.70524e-05
4.62989e-05
-2.61949e-05
4.80713e-05
-2.54782e-05
4.99091e-05
-2.48861e-05
5.17984e-05
-2.43977e-05
-2.40047e-05
5.3745e-05
4.52984e-05
-8.2753e-05
-4.95303e-05
4.2072e-05
-7.33526e-05
3.9683e-05
-6.53749e-05
3.80099e-05
-5.86439e-05
3.69397e-05
-5.29623e-05
3.63832e-05
-4.81917e-05
3.62517e-05
-4.4185e-05
3.64843e-05
-4.08282e-05
3.70164e-05
-3.80114e-05
3.78116e-05
-3.56655e-05
3.88237e-05
-3.37048e-05
4.00248e-05
-3.20796e-05
4.13778e-05
-3.07122e-05
4.28592e-05
-2.95884e-05
4.44667e-05
-2.86599e-05
4.61487e-05
-2.7877e-05
4.79163e-05
-2.72457e-05
4.97553e-05
-2.67251e-05
5.16505e-05
-2.62929e-05
-2.59444e-05
5.35902e-05
4.56529e-05
-7.84013e-05
-5.00045e-05
4.23088e-05
-7.00086e-05
3.98419e-05
-6.2908e-05
3.80941e-05
-5.68962e-05
3.69644e-05
-5.18326e-05
3.63543e-05
-4.75816e-05
3.61874e-05
-4.40182e-05
3.63855e-05
-4.10262e-05
3.69045e-05
-3.85305e-05
3.76877e-05
-3.64487e-05
3.86988e-05
-3.47159e-05
3.98834e-05
-3.32642e-05
4.12313e-05
-3.20602e-05
4.27142e-05
-3.10713e-05
4.43049e-05
-3.02506e-05
4.59985e-05
-2.95706e-05
4.77685e-05
-2.90156e-05
4.9598e-05
-2.85546e-05
5.1494e-05
-2.81889e-05
-2.78814e-05
5.34309e-05
4.59756e-05
-7.39138e-05
-5.0463e-05
4.25335e-05
-6.65664e-05
3.99666e-05
-6.03411e-05
3.81508e-05
-5.50804e-05
3.69755e-05
-5.06572e-05
3.6324e-05
-4.69302e-05
3.61252e-05
-4.38193e-05
3.6308e-05
-4.1209e-05
3.68093e-05
-3.90318e-05
3.75696e-05
-3.72089e-05
3.85608e-05
-3.57072e-05
3.97419e-05
-3.44452e-05
4.10884e-05
-3.34067e-05
4.25665e-05
-3.25493e-05
4.41538e-05
-3.18379e-05
4.58401e-05
-3.12568e-05
4.76037e-05
-3.07793e-05
4.94397e-05
-3.03906e-05
5.13263e-05
-3.00755e-05
-2.98247e-05
5.32696e-05
4.62562e-05
-6.93218e-05
-5.08481e-05
4.27271e-05
-6.30373e-05
4.0088e-05
-5.7702e-05
3.8214e-05
-5.32063e-05
3.6984e-05
-4.94272e-05
3.63028e-05
-4.62489e-05
3.6076e-05
-4.35926e-05
3.62267e-05
-4.13597e-05
3.67095e-05
-3.95146e-05
3.74643e-05
-3.79637e-05
3.84422e-05
-3.6685e-05
3.96188e-05
-3.56218e-05
4.09614e-05
-3.47493e-05
4.24272e-05
-3.4015e-05
4.40159e-05
-3.34266e-05
4.56942e-05
-3.29351e-05
4.74529e-05
-3.2538e-05
4.92839e-05
-3.22216e-05
5.11759e-05
-3.19675e-05
-3.17586e-05
5.31098e-05
4.65128e-05
-6.46529e-05
-5.11817e-05
4.29115e-05
-5.9436e-05
4.02191e-05
-5.50095e-05
3.82941e-05
-5.12813e-05
3.70222e-05
-4.81554e-05
3.62994e-05
-4.5526e-05
3.60356e-05
-4.33288e-05
3.61792e-05
-4.15033e-05
3.66343e-05
-3.99697e-05
3.738e-05
-3.87093e-05
3.83491e-05
-3.76541e-05
3.95065e-05
-3.67792e-05
4.08318e-05
-3.60746e-05
4.22966e-05
-3.54798e-05
4.38731e-05
-3.50032e-05
4.55485e-05
-3.46104e-05
4.73122e-05
-3.43017e-05
4.91364e-05
-3.40458e-05
5.10183e-05
-3.38493e-05
-3.36974e-05
5.29571e-05
4.67802e-05
-5.99119e-05
-5.15211e-05
4.30986e-05
-5.57544e-05
4.03526e-05
-5.22636e-05
3.83825e-05
-4.93112e-05
3.70727e-05
-4.68455e-05
3.63257e-05
-4.47791e-05
3.60412e-05
-4.30442e-05
3.61479e-05
-4.16099e-05
3.65921e-05
-4.04139e-05
3.73122e-05
-3.94295e-05
3.8265e-05
-3.86068e-05
3.94184e-05
-3.79326e-05
4.07333e-05
-3.73895e-05
4.2191e-05
-3.69374e-05
4.37582e-05
-3.65703e-05
4.54346e-05
-3.62868e-05
4.71822e-05
-3.60493e-05
4.90055e-05
-3.5869e-05
5.08911e-05
-3.57349e-05
-3.56266e-05
5.28203e-05
4.70546e-05
-5.50908e-05
-5.18757e-05
4.33318e-05
-5.20316e-05
4.05294e-05
-4.94612e-05
3.85262e-05
-4.7308e-05
3.71799e-05
-4.54993e-05
3.63928e-05
-4.39919e-05
3.60852e-05
-4.27366e-05
3.6173e-05
-4.16977e-05
3.65962e-05
-4.08371e-05
3.72914e-05
-4.01247e-05
3.82279e-05
-3.95433e-05
3.9367e-05
-3.90718e-05
4.06698e-05
-3.86922e-05
4.21148e-05
-3.83825e-05
4.36771e-05
-3.81326e-05
4.53364e-05
-3.79461e-05
4.70832e-05
-3.77961e-05
4.89054e-05
-3.76913e-05
5.07783e-05
-3.76078e-05
-3.75598e-05
5.27115e-05
4.73648e-05
-5.022e-05
-5.22356e-05
4.3597e-05
-4.82638e-05
4.07631e-05
-4.66272e-05
3.87062e-05
-4.52511e-05
3.73288e-05
-4.4122e-05
3.65146e-05
-4.31776e-05
3.61846e-05
-4.24066e-05
3.62438e-05
-4.17569e-05
3.66457e-05
-4.1239e-05
3.73277e-05
-4.08066e-05
3.82545e-05
-4.04701e-05
3.93713e-05
-4.01886e-05
4.06581e-05
-3.9979e-05
4.2091e-05
-3.98155e-05
4.36462e-05
-3.96878e-05
4.52951e-05
-3.9595e-05
4.70394e-05
-3.95403e-05
4.88466e-05
-3.94985e-05
5.07218e-05
-3.94831e-05
-3.94853e-05
5.26474e-05
4.7723e-05
-4.53075e-05
-5.26355e-05
4.39225e-05
-4.44633e-05
4.10481e-05
-4.37528e-05
3.89767e-05
-4.31797e-05
3.75683e-05
-4.27136e-05
3.67231e-05
-4.23324e-05
3.63541e-05
-4.20375e-05
3.64038e-05
-4.18066e-05
3.67745e-05
-4.16097e-05
3.74371e-05
-4.14693e-05
3.83356e-05
-4.13686e-05
3.94407e-05
-4.12937e-05
4.07141e-05
-4.12523e-05
4.21302e-05
-4.12316e-05
4.3672e-05
-4.12295e-05
4.53193e-05
-4.12423e-05
4.70465e-05
-4.12675e-05
4.88522e-05
-4.13041e-05
5.07254e-05
-4.13563e-05
-4.14063e-05
5.26463e-05
4.81555e-05
-5.31355e-05
-4.03275e-05
4.43166e-05
-4.06243e-05
4.14304e-05
-4.08667e-05
3.93351e-05
-4.10843e-05
3.79011e-05
-4.12797e-05
3.70415e-05
-4.14728e-05
3.66571e-05
-4.16531e-05
3.66636e-05
-4.18132e-05
3.70268e-05
-4.19728e-05
3.76707e-05
-4.21132e-05
3.85434e-05
-4.22413e-05
3.96256e-05
-4.23758e-05
4.08802e-05
-4.25069e-05
4.22834e-05
-4.26348e-05
4.38114e-05
-4.27575e-05
4.54388e-05
-4.28697e-05
4.71545e-05
-4.29832e-05
4.89503e-05
-4.30999e-05
5.08088e-05
-4.32147e-05
5.27325e-05
-4.333e-05
4.74344e-05
-6.56778e-06
4.62185e-06
4.93021e-05
-7.50957e-06
5.64188e-06
5.11045e-05
-8.65695e-06
6.85466e-06
5.28146e-05
-1.00406e-05
8.33053e-06
5.44267e-05
-1.17255e-05
1.01135e-05
5.5916e-05
-1.37642e-05
1.2275e-05
5.72525e-05
-1.62368e-05
1.49003e-05
5.84167e-05
-1.92442e-05
1.80802e-05
5.93585e-05
-2.28829e-05
2.1941e-05
6.00411e-05
-2.72901e-05
2.66078e-05
6.04045e-05
-3.26049e-05
3.22414e-05
6.04087e-05
-3.90306e-05
3.90266e-05
5.99856e-05
-4.67492e-05
4.71723e-05
5.90711e-05
-5.60101e-05
5.69247e-05
5.76018e-05
-6.70899e-05
6.85592e-05
5.54939e-05
-8.03124e-05
8.24202e-05
5.26482e-05
-9.60573e-05
9.89031e-05
4.89212e-05
-0.000114779
0.000118506
4.41271e-05
-0.000137046
0.000141839
-0.000163534
0.000169584
3.80771e-05
5.35032e-05
-8.5096e-06
5.53983e-05
-9.40466e-06
5.72165e-05
-1.04751e-05
5.89484e-05
-1.17725e-05
6.05687e-05
-1.33457e-05
6.20516e-05
-1.52471e-05
6.3367e-05
-1.75523e-05
6.44704e-05
-2.03475e-05
6.53224e-05
-2.3735e-05
6.58765e-05
-2.78441e-05
6.60865e-05
-3.28149e-05
6.58793e-05
-3.88234e-05
6.52071e-05
-4.6077e-05
6.39941e-05
-5.47971e-05
6.21736e-05
-6.52694e-05
5.96541e-05
-7.77928e-05
5.63371e-05
-9.27404e-05
5.21052e-05
-0.000110547
4.67997e-05
-0.00013174
-0.000157037
4.03023e-05
5.53581e-05
-1.04586e-05
5.72511e-05
-1.12976e-05
5.90922e-05
-1.23163e-05
6.08595e-05
-1.35398e-05
6.25273e-05
-1.50135e-05
6.40755e-05
-1.67952e-05
6.54684e-05
-1.89452e-05
6.66729e-05
-2.1552e-05
6.76445e-05
-2.47066e-05
6.83247e-05
-2.85243e-05
6.86557e-05
-3.31459e-05
6.8567e-05
-3.87347e-05
6.79878e-05
-4.54978e-05
6.68266e-05
-5.36358e-05
6.50021e-05
-6.34449e-05
6.24205e-05
-7.52113e-05
5.89874e-05
-8.93074e-05
5.45736e-05
-0.000106134
4.90514e-05
-0.000126218
-0.000150235
4.225e-05
5.60015e-05
-1.24005e-05
5.79012e-05
-1.31974e-05
5.97471e-05
-1.41621e-05
6.15177e-05
-1.53104e-05
6.31946e-05
-1.66904e-05
6.4765e-05
-1.83657e-05
6.61974e-05
-2.03775e-05
6.74525e-05
-2.28071e-05
6.84935e-05
-2.57476e-05
6.92668e-05
-2.92977e-05
6.9713e-05
-3.3592e-05
6.97645e-05
-3.87862e-05
6.93264e-05
-4.50598e-05
6.83282e-05
-5.26376e-05
6.66552e-05
-6.17719e-05
6.41981e-05
-7.27542e-05
6.08308e-05
-8.59402e-05
5.64365e-05
-0.000101739
5.08627e-05
-0.000120644
-0.000143297
4.39253e-05
5.61701e-05
-1.43481e-05
5.8068e-05
-1.50953e-05
5.99142e-05
-1.60082e-05
6.16875e-05
-1.70838e-05
6.33835e-05
-1.83863e-05
6.49673e-05
-1.99497e-05
6.6422e-05
-2.18322e-05
6.77118e-05
-2.4097e-05
6.87996e-05
-2.68353e-05
6.96397e-05
-3.01378e-05
7.01715e-05
-3.41238e-05
7.03239e-05
-3.89386e-05
7.00167e-05
-4.47526e-05
6.91579e-05
-5.17788e-05
6.76288e-05
-6.02428e-05
6.53237e-05
-7.04491e-05
6.21036e-05
-8.27203e-05
5.78269e-05
-9.74629e-05
5.23336e-05
-0.000115151
-0.000136354
4.53901e-05
5.61649e-05
-1.62904e-05
5.80677e-05
-1.69981e-05
5.991e-05
-1.78506e-05
6.16926e-05
-1.88664e-05
6.33867e-05
-2.00804e-05
6.49767e-05
-2.15397e-05
6.64445e-05
-2.32999e-05
6.7752e-05
-2.54044e-05
6.88684e-05
-2.79518e-05
6.97444e-05
-3.10138e-05
7.03271e-05
-3.47066e-05
7.05532e-05
-3.91646e-05
7.03408e-05
-4.45403e-05
6.95931e-05
-5.10312e-05
6.82081e-05
-5.88579e-05
6.60522e-05
-6.82933e-05
6.29829e-05
-7.96511e-05
5.88572e-05
-9.33373e-05
5.3479e-05
-0.000109773
-0.000129541
4.66659e-05
5.60909e-05
-1.82378e-05
5.79893e-05
-1.88964e-05
5.98362e-05
-1.96975e-05
6.1612e-05
-2.06422e-05
6.33136e-05
-2.1782e-05
6.49074e-05
-2.31335e-05
6.63751e-05
-2.47676e-05
6.76952e-05
-2.67246e-05
6.88269e-05
-2.90835e-05
6.97302e-05
-3.1917e-05
7.03484e-05
-3.53249e-05
7.06232e-05
-3.94394e-05
7.0477e-05
-4.43942e-05
6.98153e-05
-5.03695e-05
6.8533e-05
-5.75756e-05
6.65038e-05
-6.62642e-05
6.35873e-05
-7.67348e-05
5.95998e-05
-8.93501e-05
5.43564e-05
-0.00010453
-0.00012282
4.76356e-05
5.59708e-05
-2.01805e-05
5.78736e-05
-2.07991e-05
5.97202e-05
-2.15442e-05
6.14999e-05
-2.24218e-05
6.31933e-05
-2.34754e-05
6.47938e-05
-2.4734e-05
6.62671e-05
-2.6241e-05
6.75972e-05
-2.80546e-05
6.87343e-05
-3.02206e-05
6.96505e-05
-3.28333e-05
7.02948e-05
-3.59692e-05
7.0603e-05
-3.97476e-05
7.05028e-05
-4.4294e-05
6.99101e-05
-4.97768e-05
6.87125e-05
-5.63781e-05
6.67824e-05
-6.43343e-05
6.39823e-05
-7.39348e-05
6.01284e-05
-8.54963e-05
5.50349e-05
-9.94365e-05
-0.000116243
4.8457e-05
5.58333e-05
-2.21213e-05
5.77376e-05
-2.27035e-05
5.95859e-05
-2.33924e-05
6.13653e-05
-2.42012e-05
6.30601e-05
-2.51703e-05
6.46564e-05
-2.63303e-05
6.61357e-05
-2.77204e-05
6.74637e-05
-2.93826e-05
6.86132e-05
-3.13702e-05
6.95376e-05
-3.37577e-05
7.02013e-05
-3.6633e-05
7.05333e-05
-4.00796e-05
7.04703e-05
-4.42311e-05
6.99216e-05
-4.92281e-05
6.87899e-05
-5.52465e-05
6.69516e-05
-6.2496e-05
6.42495e-05
-7.12328e-05
6.05253e-05
-8.17725e-05
5.55592e-05
-9.44704e-05
-0.000109801
4.91178e-05
5.56937e-05
-2.407e-05
5.75894e-05
-2.45992e-05
5.94295e-05
-2.52325e-05
6.12105e-05
-2.59823e-05
6.29122e-05
-2.6872e-05
6.45133e-05
-2.79314e-05
6.59874e-05
-2.91945e-05
6.7318e-05
-3.07132e-05
6.84692e-05
-3.25213e-05
6.94073e-05
-3.46959e-05
7.00771e-05
-3.73027e-05
7.04306e-05
-4.04331e-05
7.03958e-05
-4.41963e-05
6.98863e-05
-4.87186e-05
6.88073e-05
-5.41675e-05
6.70329e-05
-6.07217e-05
6.44244e-05
-6.86243e-05
6.08019e-05
-7.815e-05
5.59605e-05
-8.96293e-05
-0.000103496
4.9655e-05
5.55323e-05
-2.6012e-05
5.74331e-05
-2.65001e-05
5.928e-05
-2.70794e-05
6.1056e-05
-2.77583e-05
6.27521e-05
-2.8568e-05
6.43487e-05
-2.9528e-05
6.58299e-05
-3.06757e-05
6.71624e-05
-3.20457e-05
6.83205e-05
-3.36794e-05
6.92618e-05
-3.56372e-05
6.99434e-05
-3.79844e-05
7.03115e-05
-4.08012e-05
7.0295e-05
-4.41798e-05
6.98205e-05
-4.82441e-05
6.87786e-05
-5.31257e-05
6.70635e-05
-5.90067e-05
6.45263e-05
-6.60871e-05
6.099e-05
-7.46139e-05
5.62681e-05
-8.49073e-05
-9.73161e-05
5.00882e-05
5.53756e-05
-2.79567e-05
5.7272e-05
-2.83965e-05
5.91158e-05
-2.89232e-05
6.08905e-05
-2.9533e-05
6.25863e-05
-3.02638e-05
6.41872e-05
-3.1129e-05
6.5667e-05
-3.21554e-05
6.70012e-05
-3.33799e-05
6.81603e-05
-3.48385e-05
6.91092e-05
-3.65861e-05
6.98015e-05
-3.86766e-05
7.01806e-05
-4.11804e-05
7.01838e-05
-4.4183e-05
6.97307e-05
-4.77911e-05
6.87288e-05
-5.21238e-05
6.70583e-05
-5.73362e-05
6.45803e-05
-6.36091e-05
6.11297e-05
-7.11633e-05
5.64943e-05
-8.02721e-05
-9.12559e-05
5.04341e-05
5.52096e-05
-2.98967e-05
5.71081e-05
-3.0295e-05
5.89482e-05
-3.07632e-05
6.07274e-05
-3.13122e-05
6.24247e-05
-3.19611e-05
6.40216e-05
-3.27258e-05
6.5502e-05
-3.36359e-05
6.68361e-05
-3.4714e-05
6.79997e-05
-3.60021e-05
6.89544e-05
-3.75408e-05
6.96524e-05
-3.93745e-05
7.00445e-05
-4.15725e-05
7.00653e-05
-4.42039e-05
6.96336e-05
-4.73593e-05
6.86614e-05
-5.11516e-05
6.70325e-05
-5.57073e-05
6.46072e-05
-6.11839e-05
6.12191e-05
-6.77752e-05
5.66682e-05
-7.57211e-05
-8.53012e-05
5.07135e-05
5.50513e-05
-3.18382e-05
5.69456e-05
-3.21893e-05
5.87874e-05
-3.2605e-05
6.05653e-05
-3.30901e-05
6.22584e-05
-3.36543e-05
6.38559e-05
-3.43233e-05
6.53376e-05
-3.51175e-05
6.66781e-05
-3.60546e-05
6.78462e-05
-3.71701e-05
6.88016e-05
-3.84962e-05
6.95094e-05
-4.00824e-05
6.99109e-05
-4.1974e-05
6.99449e-05
-4.42379e-05
6.95381e-05
-4.69524e-05
6.85905e-05
-5.02041e-05
6.69929e-05
-5.41097e-05
6.46139e-05
-5.88048e-05
6.12865e-05
-6.44478e-05
5.68072e-05
-7.12419e-05
-7.94308e-05
5.09368e-05
5.4894e-05
-3.37751e-05
5.67898e-05
-3.4085e-05
5.86327e-05
-3.4448e-05
6.04045e-05
-3.48618e-05
6.2104e-05
-3.53538e-05
6.37028e-05
-3.59221e-05
6.51863e-05
-3.6601e-05
6.65279e-05
-3.73962e-05
6.76982e-05
-3.83404e-05
6.86639e-05
-3.94619e-05
6.93781e-05
-4.07966e-05
6.97915e-05
-4.23874e-05
6.98406e-05
-4.4287e-05
6.94486e-05
-4.65605e-05
6.85266e-05
-4.92821e-05
6.69627e-05
-5.25458e-05
6.462e-05
-5.64622e-05
6.13381e-05
-6.11659e-05
5.69238e-05
-6.68275e-05
-7.36408e-05
5.11337e-05
5.47579e-05
-3.57127e-05
5.66501e-05
-3.59772e-05
5.84864e-05
-3.62843e-05
6.02663e-05
-3.66417e-05
6.19614e-05
-3.70489e-05
6.35666e-05
-3.75272e-05
6.50517e-05
-3.80861e-05
6.63972e-05
-3.87417e-05
6.75723e-05
-3.95154e-05
6.8545e-05
-4.04347e-05
6.92678e-05
-4.15195e-05
6.96915e-05
-4.28111e-05
6.9756e-05
-4.43515e-05
6.93814e-05
-4.61858e-05
6.84821e-05
-4.83828e-05
6.69456e-05
-5.10093e-05
6.46399e-05
-5.41565e-05
6.14054e-05
-5.79313e-05
5.70457e-05
-6.2468e-05
-6.79236e-05
5.13286e-05
5.46449e-05
-3.76461e-05
5.65363e-05
-3.78686e-05
5.83807e-05
-3.81287e-05
6.01537e-05
-3.84147e-05
6.18533e-05
-3.87485e-05
6.34581e-05
-3.9132e-05
6.49476e-05
-3.95756e-05
6.62975e-05
-4.00917e-05
6.74808e-05
-4.06987e-05
6.84588e-05
-4.14127e-05
6.9191e-05
-4.22517e-05
6.96276e-05
-4.32476e-05
6.97037e-05
-4.44276e-05
6.93494e-05
-4.58315e-05
6.84687e-05
-4.75021e-05
6.69553e-05
-4.94959e-05
6.46813e-05
-5.18825e-05
6.14857e-05
-5.47357e-05
5.71717e-05
-5.8154e-05
-6.22652e-05
5.15132e-05
5.45789e-05
-3.95776e-05
5.64713e-05
-3.9761e-05
5.83117e-05
-3.99691e-05
6.00894e-05
-4.01923e-05
6.17913e-05
-4.04504e-05
6.33965e-05
-4.07373e-05
6.48867e-05
-4.10658e-05
6.62421e-05
-4.14472e-05
6.74318e-05
-4.18884e-05
6.84182e-05
-4.23991e-05
6.91621e-05
-4.29957e-05
6.96089e-05
-4.36944e-05
6.97009e-05
-4.45196e-05
6.93592e-05
-4.54899e-05
6.8499e-05
-4.66419e-05
6.70097e-05
-4.80067e-05
6.47595e-05
-4.96323e-05
6.1592e-05
-5.15682e-05
5.73218e-05
-5.38839e-05
-5.66531e-05
5.17097e-05
5.4578e-05
-4.15093e-05
5.64672e-05
-4.16501e-05
5.83078e-05
-4.18098e-05
6.0089e-05
-4.19735e-05
6.17908e-05
-4.21523e-05
6.33962e-05
-4.23426e-05
6.4895e-05
-4.25646e-05
6.62551e-05
-4.28073e-05
6.74517e-05
-4.3085e-05
6.84467e-05
-4.3394e-05
6.91994e-05
-4.37484e-05
6.96577e-05
-4.41527e-05
6.9761e-05
-4.4623e-05
6.9436e-05
-4.51648e-05
6.85897e-05
-4.57956e-05
6.71179e-05
-4.65349e-05
6.48882e-05
-4.74025e-05
6.1747e-05
-4.8427e-05
5.75034e-05
-4.96403e-05
-5.10778e-05
5.19281e-05
5.46579e-05
-4.34347e-05
5.65451e-05
-4.35373e-05
5.83844e-05
-4.36491e-05
6.01688e-05
-4.37579e-05
6.18697e-05
-4.38532e-05
6.34847e-05
-4.39576e-05
6.49794e-05
-4.40593e-05
6.63482e-05
-4.41761e-05
6.75497e-05
-4.42866e-05
6.85557e-05
-4.44e-05
6.93206e-05
-4.45134e-05
6.97893e-05
-4.46214e-05
6.98986e-05
-4.47322e-05
6.95852e-05
-4.48515e-05
6.87538e-05
-4.49642e-05
6.72926e-05
-4.50738e-05
6.50821e-05
-4.51919e-05
6.19572e-05
-4.53022e-05
5.77358e-05
-4.5419e-05
5.2196e-05
-4.5538e-05
4.15516e-06
0.000165877
-0.000172464
2.43132e-06
9.24923e-06
0.000138027
-0.000143121
1.302e-05
0.000115
-0.000118771
1.56947e-05
9.59112e-05
-9.8586e-05
1.74658e-05
8.01284e-05
-8.18995e-05
1.85094e-05
6.70076e-05
-6.80512e-05
1.88831e-05
5.61899e-05
-5.65636e-05
1.87796e-05
4.71681e-05
-4.70646e-05
1.82301e-05
3.97202e-05
-3.91707e-05
1.73409e-05
3.34944e-05
-3.26052e-05
1.61567e-05
2.83417e-05
-2.71576e-05
1.474e-05
2.40389e-05
-2.26222e-05
1.31125e-05
2.04642e-05
-1.88368e-05
1.13153e-05
1.74582e-05
-1.56609e-05
9.38759e-06
1.49812e-05
-1.30536e-05
7.30979e-06
1.29154e-05
-1.08375e-05
5.13884e-06
1.11822e-05
-9.01138e-06
2.89164e-06
9.72299e-06
-7.47571e-06
5.41836e-07
8.51866e-06
-6.16897e-06
7.53049e-06
-1.91599e-06
-5.0726e-06
4.08543e-06
0.000159403
2.38875e-06
8.99356e-06
0.000133119
1.26147e-05
0.000111379
1.51648e-05
9.33612e-05
1.68225e-05
7.84706e-05
1.77079e-05
6.61222e-05
1.80186e-05
5.58791e-05
1.78115e-05
4.73752e-05
1.72185e-05
4.03132e-05
1.62694e-05
3.44435e-05
1.50888e-05
2.95223e-05
1.36604e-05
2.54674e-05
1.20642e-05
2.20603e-05
1.032e-05
1.92024e-05
8.44632e-06
1.68549e-05
6.4816e-06
1.48801e-05
4.44426e-06
1.32195e-05
2.29347e-06
1.18738e-05
1.07288e-07
1.07048e-05
9.75267e-06
-2.11485e-06
3.97883e-06
0.000153052
2.37266e-06
8.7722e-06
0.000128326
1.23121e-05
0.000107839
1.47638e-05
9.09095e-05
1.63512e-05
7.68832e-05
1.72352e-05
6.52382e-05
1.75512e-05
5.55631e-05
1.73698e-05
4.75566e-05
1.67959e-05
4.0887e-05
1.59314e-05
3.53081e-05
1.4757e-05
3.06967e-05
1.33909e-05
2.68336e-05
1.18516e-05
2.35995e-05
1.01183e-05
2.09357e-05
8.26901e-06
1.87042e-05
6.32273e-06
1.68264e-05
4.27865e-06
1.52635e-05
2.17607e-06
1.39764e-05
-5.28711e-09
1.28861e-05
1.1993e-05
-2.24562e-06
3.87175e-06
0.000146798
2.38137e-06
8.60172e-06
0.000123596
1.20381e-05
0.000104403
1.44672e-05
8.84803e-05
1.60517e-05
7.52987e-05
1.69286e-05
6.43614e-05
1.72087e-05
5.52829e-05
1.70574e-05
4.7708e-05
1.65172e-05
4.14271e-05
1.56285e-05
3.61968e-05
1.45093e-05
3.1816e-05
1.31383e-05
2.82045e-05
1.15934e-05
2.51444e-05
9.89299e-06
2.26361e-05
8.07556e-06
2.05216e-05
6.12046e-06
1.87816e-05
4.08653e-06
1.72974e-05
1.99333e-06
1.60696e-05
-1.99296e-07
1.50787e-05
1.42056e-05
-2.41183e-06
3.7718e-06
0.000140619
2.40725e-06
8.42485e-06
0.000118943
1.18441e-05
0.000100984
1.42543e-05
8.607e-05
1.58145e-05
7.37385e-05
1.66964e-05
6.34795e-05
1.70263e-05
5.4953e-05
1.68672e-05
4.78671e-05
1.63186e-05
4.19757e-05
1.54593e-05
3.70561e-05
1.43276e-05
3.29477e-05
1.29816e-05
2.95505e-05
1.14399e-05
2.66861e-05
9.74121e-06
2.43349e-05
7.90447e-06
2.23583e-05
5.96889e-06
2.07172e-05
3.93401e-06
1.93323e-05
1.81947e-06
1.81842e-05
-3.35178e-07
1.72334e-05
1.64402e-05
-2.56972e-06
3.68053e-06
0.0001345
2.43873e-06
8.29658e-06
0.000114327
1.1714e-05
9.75663e-05
1.40948e-05
8.36892e-05
1.56531e-05
7.21802e-05
1.65372e-05
6.25954e-05
1.68511e-05
5.46391e-05
1.67155e-05
4.80027e-05
1.61898e-05
4.25014e-05
1.53326e-05
3.79133e-05
1.42021e-05
3.40781e-05
1.28369e-05
3.09158e-05
1.12952e-05
2.82277e-05
9.59615e-06
2.60339e-05
7.75878e-06
2.41957e-05
5.84219e-06
2.26337e-05
3.80626e-06
2.13682e-05
1.69045e-06
2.03e-05
-4.85451e-07
1.94093e-05
1.86763e-05
-2.7216e-06
3.57992e-06
0.000128432
2.48844e-06
8.21274e-06
0.000109694
1.1579e-05
9.42e-05
1.39761e-05
8.12922e-05
1.5555e-05
7.06013e-05
1.64219e-05
6.17285e-05
1.67584e-05
5.43026e-05
1.6605e-05
4.81562e-05
1.60604e-05
4.3046e-05
1.5203e-05
3.87707e-05
1.40714e-05
3.52097e-05
1.2724e-05
3.22631e-05
1.11799e-05
2.97719e-05
9.47784e-06
2.7736e-05
7.65706e-06
2.60165e-05
5.69716e-06
2.45936e-05
3.65747e-06
2.34079e-05
1.53771e-06
2.24198e-05
-6.42333e-07
2.15893e-05
2.08968e-05
-2.86288e-06
3.53171e-06
0.000122373
2.52683e-06
8.11078e-06
0.000105115
1.15109e-05
9.07999e-05
1.38868e-05
7.89163e-05
1.54467e-05
6.90414e-05
1.63543e-05
6.08208e-05
1.66517e-05
5.40053e-05
1.65177e-05
4.82901e-05
1.59917e-05
4.3572e-05
1.51322e-05
3.96302e-05
1.3978e-05
3.63639e-05
1.26474e-05
3.35938e-05
1.10798e-05
3.13394e-05
9.37398e-06
2.94418e-05
7.52934e-06
2.78611e-05
5.58517e-06
2.65378e-05
3.54115e-06
2.5452e-05
1.43682e-06
2.45241e-05
-7.4792e-07
2.37741e-05
2.31422e-05
-2.99329e-06
3.47817e-06
0.000116333
2.56213e-06
8.04837e-06
0.000100544
1.14257e-05
8.74226e-05
1.38216e-05
7.65204e-05
1.53825e-05
6.74805e-05
1.62711e-05
5.99322e-05
1.6608e-05
5.36683e-05
1.64531e-05
4.8445e-05
1.59052e-05
4.412e-05
1.50429e-05
4.04924e-05
1.39251e-05
3.74817e-05
1.25508e-05
3.49681e-05
1.09988e-05
3.28914e-05
9.28837e-06
3.11522e-05
7.43887e-06
2.97106e-05
5.48962e-06
2.8487e-05
3.44027e-06
2.75013e-05
1.31045e-06
2.66539e-05
-8.80114e-07
2.59647e-05
2.53737e-05
-3.11165e-06
3.43911e-06
0.000110304
2.58997e-06
8.02361e-06
9.59599e-05
1.13999e-05
8.40463e-05
1.37767e-05
7.41436e-05
1.53584e-05
6.58988e-05
1.62273e-05
5.90632e-05
1.65636e-05
5.3332e-05
1.64071e-05
4.86016e-05
1.58765e-05
4.46505e-05
1.49911e-05
4.13778e-05
1.38495e-05
3.86233e-05
1.24909e-05
3.63268e-05
1.09342e-05
3.44481e-05
9.21882e-06
3.28676e-05
7.38395e-06
3.15455e-05
5.40924e-06
3.04617e-05
3.374e-06
2.95366e-05
1.23809e-06
2.87898e-05
-9.58905e-07
2.81617e-05
2.7632e-05
-3.21712e-06
3.41208e-06
0.000104286
2.60551e-06
7.97458e-06
9.13974e-05
1.13515e-05
8.06694e-05
1.37496e-05
7.17456e-05
1.53125e-05
6.43359e-05
1.62215e-05
5.81542e-05
1.65173e-05
5.30362e-05
1.6359e-05
4.87599e-05
1.58259e-05
4.51837e-05
1.49769e-05
4.22268e-05
1.38314e-05
3.97688e-05
1.24484e-05
3.77098e-05
1.08868e-05
3.60096e-05
9.16619e-06
3.45883e-05
7.30578e-06
3.34059e-05
5.34504e-06
3.24225e-05
3.28358e-06
3.1598e-05
1.14102e-06
3.09324e-05
-1.04301e-06
3.03457e-05
2.98976e-05
-3.30863e-06
3.39593e-06
9.82684e-05
2.62198e-06
7.95912e-06
8.68342e-05
1.1358e-05
7.72705e-05
1.37383e-05
6.93653e-05
1.53027e-05
6.27715e-05
1.61923e-05
5.72645e-05
1.65274e-05
5.27012e-05
1.63675e-05
4.89198e-05
1.5812e-05
4.57392e-05
1.49399e-05
4.30988e-05
1.37905e-05
4.09182e-05
1.24229e-05
3.90774e-05
1.08564e-05
3.75761e-05
9.13038e-06
3.63143e-05
7.2642e-06
3.52721e-05
5.2973e-06
3.43894e-05
3.22929e-06
3.3666e-05
1.09973e-06
3.3062e-05
-1.13162e-06
3.2577e-05
3.21511e-05
-3.38509e-06
3.37297e-06
9.22739e-05
2.62151e-06
7.97729e-06
8.22299e-05
1.13389e-05
7.39089e-05
1.37417e-05
6.69624e-05
1.53279e-05
6.11853e-05
1.61985e-05
5.6394e-05
1.65133e-05
5.23864e-05
1.63721e-05
4.9061e-05
1.58343e-05
4.6277e-05
1.49593e-05
4.39739e-05
1.38062e-05
4.20713e-05
1.24143e-05
4.04692e-05
1.0843e-05
3.91474e-05
9.11168e-06
3.80457e-05
7.25966e-06
3.71241e-05
5.26653e-06
3.63825e-05
3.1918e-06
3.57408e-05
1.03509e-06
3.52187e-05
-1.16392e-06
3.47761e-05
3.44327e-05
-3.44556e-06
3.39859e-06
8.62586e-05
2.6167e-06
7.96597e-06
7.76625e-05
1.13513e-05
7.05236e-05
1.37575e-05
6.45562e-05
1.53263e-05
5.96165e-05
1.62182e-05
5.5502e-05
1.65534e-05
5.20512e-05
1.63915e-05
4.92229e-05
1.5832e-05
4.68365e-05
1.49544e-05
4.48515e-05
1.3798e-05
4.32278e-05
1.24221e-05
4.18451e-05
1.08462e-05
4.07233e-05
9.10965e-06
3.97822e-05
7.23196e-06
3.90018e-05
5.25259e-06
3.83619e-05
3.19114e-06
3.78022e-05
1.02715e-06
3.73827e-05
-1.19969e-06
3.70029e-05
3.67228e-05
-3.48975e-06
3.40853e-06
8.02398e-05
2.61031e-06
7.98142e-06
7.30896e-05
1.13921e-05
6.71129e-05
1.37829e-05
6.21653e-05
1.53552e-05
5.80443e-05
1.62693e-05
5.45879e-05
1.65655e-05
5.1755e-05
1.64235e-05
4.93649e-05
1.58829e-05
4.73771e-05
1.49832e-05
4.57512e-05
1.38439e-05
4.43671e-05
1.24445e-05
4.32445e-05
1.08643e-05
4.23034e-05
9.12291e-06
4.15236e-05
7.2397e-06
4.0885e-05
5.27427e-06
4.03273e-05
3.16606e-06
3.99104e-05
9.94734e-07
3.9554e-05
-1.24007e-06
3.92377e-05
3.90014e-05
-3.51868e-06
3.42125e-06
7.42137e-05
2.60479e-06
8.02137e-06
6.84895e-05
1.13987e-05
6.37356e-05
1.3815e-05
5.9749e-05
1.54114e-05
5.64478e-05
1.62886e-05
5.37108e-05
1.66264e-05
5.14172e-05
1.6465e-05
4.95264e-05
1.59038e-05
4.79382e-05
1.50427e-05
4.66123e-05
1.38611e-05
4.55487e-05
1.24785e-05
4.46271e-05
1.08945e-05
4.38875e-05
9.14846e-06
4.32696e-05
7.28001e-06
4.27535e-05
5.26856e-06
4.23388e-05
3.17369e-06
4.20053e-05
1.01505e-06
4.17126e-05
-1.22786e-06
4.14806e-05
4.13089e-05
-3.53542e-06
3.43584e-06
6.81797e-05
2.59821e-06
8.02354e-06
6.39018e-05
1.14478e-05
6.03113e-05
1.38501e-05
5.73467e-05
1.54313e-05
5.48666e-05
1.63319e-05
5.28102e-05
1.6652e-05
5.10971e-05
1.65115e-05
4.96668e-05
1.59704e-05
4.84793e-05
1.50682e-05
4.75145e-05
1.39247e-05
4.66922e-05
1.25193e-05
4.60325e-05
1.09317e-05
4.54751e-05
9.18132e-06
4.502e-05
7.28772e-06
4.46471e-05
5.2904e-06
4.43361e-05
3.18879e-06
4.41069e-05
1.0226e-06
4.38788e-05
-1.24888e-06
4.37521e-05
4.36057e-05
-3.54562e-06