/*--------------------------------*- C++ -*----------------------------------*\
| =========                 |                                                 |
| \\      /  F ield         | OpenFOAM: The Open Source CFD Toolbox           |
|  \\    /   O peration     | Version:  2.3.0                                 |
|   \\  /    A nd           | Web:      www.OpenFOAM.org                      |
|    \\/     M anipulation  |                                                 |
\*---------------------------------------------------------------------------*/
FoamFile
{
    version     2.0;
    format      ascii;
    class       volVectorField;
    location    "50";
    object      U;
}
// * * * * * * * * * * * * * * * * * * * * * * * * * * * * * * * * * * * * * //

dimensions      [0 1 -1 0 0 0 0];

internalField   nonuniform List<vector> 
28256
(
(16.24 1.09477 -3.44471e-20)
(16.1668 1.12795 -8.58141e-20)
(16.1109 1.08246 1.25897e-19)
(16.0707 1.01201 -5.95506e-20)
(16.07 0.917774 1.42162e-19)
(16.1228 0.808438 0)
(16.2315 0.700426 1.0045e-19)
(16.3942 0.602696 -1.05914e-19)
(16.6043 0.521127 0)
(16.849 0.463554 0)
(17.1188 0.428656 1.50074e-20)
(17.4022 0.416427 0)
(17.6905 0.422694 0)
(17.975 0.444005 7.83392e-23)
(18.2502 0.475018 1.88074e-21)
(18.5093 0.516938 -6.58206e-22)
(18.7521 0.563129 -9.87853e-23)
(18.9743 0.615639 5.84564e-21)
(19.1816 0.663359 1.25378e-21)
(19.3702 0.704616 -6.0261e-21)
(16.5217 0.652508 2.5942e-20)
(16.5458 0.579496 -1.72183e-20)
(16.6023 0.44624 -7.61056e-20)
(16.6926 0.295227 6.43509e-20)
(16.8307 0.134363 -1.26035e-20)
(17.0192 -0.0248667 0)
(17.2517 -0.17133 0)
(17.5179 -0.29931 4.49718e-20)
(17.8041 -0.403494 -5.87757e-20)
(18.097 -0.481682 2.33593e-20)
(18.3854 -0.53406 0)
(18.6601 -0.562354 -4.78864e-22)
(18.9153 -0.569547 5.45493e-21)
(19.1472 -0.559575 -1.43378e-20)
(19.3548 -0.536433 -4.9552e-21)
(19.5373 -0.502321 2.92215e-20)
(19.6976 -0.46233 4.20584e-21)
(19.8364 -0.418256 -1.58581e-20)
(19.9564 -0.371375 -1.88138e-20)
(20.0609 -0.32357 1.75014e-20)
(16.8236 0.28706 1.14731e-20)
(16.9281 0.168129 -1.82988e-20)
(17.0658 0.00274326 2.46897e-20)
(17.2342 -0.169437 1.42263e-20)
(17.4385 -0.338499 -1.83803e-20)
(17.6744 -0.492363 3.74456e-21)
(17.933 -0.622903 0)
(18.2032 -0.725691 1.40082e-22)
(18.4734 -0.79915 0)
(18.7347 -0.845511 2.68792e-20)
(18.9803 -0.86818 -2.65463e-20)
(19.2058 -0.87161 2.39264e-20)
(19.4089 -0.859939 4.24027e-21)
(19.5895 -0.837678 -1.82984e-20)
(19.7485 -0.80779 -1.86574e-21)
(19.8876 -0.773101 0)
(20.0089 -0.735561 -5.71651e-22)
(20.1149 -0.696975 2.03734e-20)
(20.2078 -0.657821 -1.85575e-20)
(20.2898 -0.618483 -2.9765e-22)
(17.1306 -0.00779869 0)
(17.2883 -0.128754 0)
(17.4793 -0.291676 -3.39696e-20)
(17.6906 -0.449217 1.55061e-20)
(17.9225 -0.592955 -1.62597e-20)
(18.1686 -0.714818 1.1557e-20)
(18.4202 -0.810955 0)
(18.6685 -0.880775 -3.5887e-21)
(18.9056 -0.925861 -2.33928e-20)
(19.1267 -0.949904 2.42456e-20)
(19.3286 -0.95689 0)
(19.5099 -0.950513 7.30438e-22)
(19.6711 -0.9342 0)
(19.8133 -0.911093 1.85756e-22)
(19.9381 -0.883346 1.37368e-21)
(20.0479 -0.852731 1.44376e-21)
(20.1446 -0.820494 0)
(20.23 -0.787343 0)
(20.3063 -0.753728 -6.62532e-22)
(20.375 -0.719968 0)
(17.4231 -0.218307 0)
(17.6158 -0.337012 2.7186e-20)
(17.8348 -0.482551 -5.93196e-20)
(18.062 -0.614897 3.26043e-20)
(18.2955 -0.728877 3.29565e-20)
(18.5297 -0.820155 -1.65684e-20)
(18.758 -0.88774 -3.08115e-20)
(18.9752 -0.933115 9.50935e-20)
(19.1772 -0.958982 -5.43712e-20)
(19.3618 -0.968918 -7.79128e-21)
(19.5283 -0.966457 0)
(19.677 -0.954709 -3.13474e-21)
(19.809 -0.936313 0)
(19.926 -0.913319 1.3188e-22)
(20.0297 -0.887326 -2.62062e-20)
(20.1217 -0.859428 2.24309e-20)
(20.204 -0.830299 1.52086e-21)
(20.2779 -0.800507 7.41251e-22)
(20.3449 -0.770321 7.23574e-22)
(20.4063 -0.739763 0)
(17.6931 -0.391815 -8.25994e-20)
(17.9065 -0.483236 -3.42516e-20)
(18.1361 -0.603371 6.32075e-20)
(18.3628 -0.7078 -2.95695e-20)
(18.5853 -0.793756 6.73115e-21)
(18.7996 -0.859554 -1.8273e-20)
(19.0022 -0.905743 0)
(19.1903 -0.934469 9.11183e-21)
(19.3624 -0.948544 2.58234e-20)
(19.518 -0.950915 1.01527e-20)
(19.6576 -0.944336 -1.59064e-21)
(19.7824 -0.931138 -2.88302e-20)
(19.8936 -0.913177 -3.36385e-20)
(19.9929 -0.891858 -3.38456e-21)
(20.0818 -0.868211 5.28325e-20)
(20.1616 -0.843019 -5.32346e-20)
(20.2339 -0.816782 -2.78503e-21)
(20.2997 -0.789811 2.43133e-20)
(20.3602 -0.762252 0)
(20.4163 -0.734143 0)
(17.9443 -0.502067 1.17977e-19)
(18.1619 -0.582726 -1.24665e-19)
(18.3886 -0.677003 4.22478e-20)
(18.6054 -0.756157 0)
(18.811 -0.819015 0)
(19.0037 -0.865365 4.13114e-20)
(19.1819 -0.896363 1.93729e-20)
(19.3448 -0.914074 -3.43138e-20)
(19.4924 -0.920876 4.51019e-20)
(19.6254 -0.919075 -2.41984e-20)
(19.7448 -0.910617 -2.96385e-22)
(19.8518 -0.89726 0)
(19.9478 -0.880265 3.73627e-21)
(20.0343 -0.860666 3.05592e-20)
(20.1125 -0.839157 -2.84572e-20)
(20.1836 -0.816267 2.90407e-20)
(20.2487 -0.792317 -6.621e-22)
(20.3087 -0.767529 -2.7233e-20)
(20.3644 -0.74201 -2.97764e-20)
(20.4165 -0.715803 2.72866e-20)
(18.1587 -0.59375 0)
(18.3816 -0.65297 2.09853e-19)
(18.599 -0.721134 -8.09862e-20)
(18.8014 -0.777916 0)
(18.9889 -0.822054 4.32699e-20)
(19.161 -0.853616 -1.45092e-20)
(19.3178 -0.873704 -1.01961e-19)
(19.4598 -0.883946 5.55563e-20)
(19.5879 -0.886162 0)
(19.7032 -0.881949 -8.60628e-21)
(19.8069 -0.872801 4.17282e-21)
(19.9004 -0.859883 -3.40991e-20)
(19.9848 -0.844092 3.16042e-20)
(20.0616 -0.826149 0)
(20.1316 -0.806504 1.90399e-21)
(20.196 -0.785544 -2.71823e-20)
(20.2555 -0.763494 2.95658e-20)
(20.3108 -0.74052 0)
(20.3626 -0.716712 3.21859e-20)
(20.4116 -0.692095 -2.96554e-20)
(18.3475 -0.656003 0)
(18.5678 -0.701043 -8.34759e-20)
(18.7727 -0.746008 0)
(18.9597 -0.783947 0)
(19.1297 -0.813092 4.49396e-20)
(19.2836 -0.833279 -6.36064e-20)
(19.4223 -0.845259 3.97974e-20)
(19.5472 -0.850177 1.9639e-20)
(19.6596 -0.849252 -2.92385e-20)
(19.7609 -0.843554 3.58976e-20)
(19.8523 -0.834136 -9.05399e-21)
(19.9352 -0.821737 -4.39049e-21)
(20.0107 -0.80702 0)
(20.0798 -0.790438 3.37399e-20)
(20.1434 -0.772332 -3.20601e-20)
(20.2023 -0.752978 2.88062e-20)
(20.2572 -0.732527 -5.80308e-20)
(20.3088 -0.711081 3.14894e-20)
(20.3574 -0.688714 -3.4497e-20)
(20.4036 -0.665429 3.39246e-20)
(18.5112 -0.703686 0)
(18.723 -0.72919 0)
(18.9153 -0.756877 4.6639e-20)
(19.0877 -0.780173 -4.40088e-20)
(19.242 -0.797685 -8.75145e-20)
(19.38 -0.809169 6.3812e-20)
(19.5037 -0.81503 0)
(19.6146 -0.815927 -5.08584e-20)
(19.7144 -0.812627 6.82696e-20)
(19.8044 -0.805862 1.55296e-21)
(19.8861 -0.796251 -2.69804e-20)
(19.9605 -0.7843 4.41178e-21)
(20.0287 -0.770447 -4.02778e-20)
(20.0916 -0.754968 3.41325e-20)
(20.1499 -0.738121 3.4921e-20)
(20.2044 -0.720045 1.04437e-21)
(20.2555 -0.70086 -3.24201e-21)
(20.3038 -0.680658 -3.36656e-20)
(20.3496 -0.659462 2.13202e-21)
(20.3934 -0.637301 2.19369e-21)
(18.6585 -0.739364 -4.70001e-20)
(18.8555 -0.74571 4.84603e-20)
(19.0341 -0.759749 0)
(19.1922 -0.771449 4.66452e-20)
(19.3323 -0.779755 0)
(19.4567 -0.78433 1.0137e-21)
(19.5677 -0.785286 0)
(19.6671 -0.78293 0)
(19.7565 -0.777677 1.00157e-20)
(19.8375 -0.769935 3.92227e-20)
(19.9112 -0.760047 -3.70205e-20)
(19.9787 -0.74831 0)
(20.0409 -0.735017 4.51718e-21)
(20.0987 -0.720318 4.14513e-20)
(20.1527 -0.704371 -3.10034e-20)
(20.2034 -0.687265 -3.1987e-20)
(20.2513 -0.669087 3.10652e-20)
(20.2967 -0.649857 4.55796e-21)
(20.3401 -0.629641 -3.69022e-20)
(20.3817 -0.608419 3.64949e-20)
(18.783 -0.767023 -1.17337e-21)
(18.9682 -0.758396 -4.69811e-20)
(19.1333 -0.760401 0)
(19.2779 -0.762132 -4.44114e-20)
(19.4052 -0.762633 4.5251e-20)
(19.5178 -0.76132 -6.34587e-20)
(19.618 -0.75801 -2.13324e-20)
(19.7077 -0.752699 0)
(19.7887 -0.745549 -9.84625e-21)
(19.8621 -0.736685 -9.94682e-21)
(19.9293 -0.726281 0)
(19.9911 -0.714461 -3.88304e-20)
(20.0484 -0.701404 6.63651e-20)
(20.1019 -0.687159 -4.1963e-20)
(20.1521 -0.671754 -4.30208e-20)
(20.1995 -0.655315 7.10699e-20)
(20.2446 -0.637846 -7.13498e-20)
(20.2876 -0.619356 3.30889e-20)
(20.3288 -0.599864 4.39884e-20)
(20.3685 -0.579365 -4.36155e-20)
(18.8944 -0.79249 -4.94285e-20)
(19.0646 -0.772757 9.41153e-20)
(19.2156 -0.763088 2.51813e-20)
(19.3476 -0.755627 -1.14117e-19)
(19.4636 -0.748952 2.09932e-20)
(19.566 -0.742164 2.1894e-20)
(19.6571 -0.734772 -4.35564e-20)
(19.7388 -0.726514 4.05259e-20)
(19.8127 -0.717294 0)
(19.8799 -0.707053 9.8718e-21)
(19.9416 -0.695772 0)
(19.9986 -0.683476 -5.01114e-20)
(20.0518 -0.670232 8.86435e-20)
(20.1017 -0.656 -3.88993e-20)
(20.1487 -0.640805 -5.00929e-20)
(20.1934 -0.624664 3.93399e-20)
(20.236 -0.607561 5.05905e-21)
(20.2769 -0.589514 -4.09779e-20)
(20.3162 -0.570492 3.54253e-20)
(20.3543 -0.550506 0)
(18.9845 -0.81889 0)
(19.1429 -0.788374 -1.58459e-21)
(19.282 -0.768866 -4.77094e-20)
(19.4032 -0.753373 4.37476e-20)
(19.5094 -0.740232 -2.32233e-20)
(19.6032 -0.72831 2.11884e-20)
(19.6867 -0.716894 3.15454e-20)
(19.7616 -0.705539 0)
(19.8295 -0.693935 5.23593e-20)
(19.8916 -0.681918 -5.06327e-20)
(19.9488 -0.669339 0)
(20.0019 -0.656139 -3.12687e-20)
(20.0516 -0.642253 4.02766e-20)
(20.0984 -0.627626 0)
(20.1428 -0.61223 1.02452e-20)
(20.1851 -0.596021 4.22079e-20)
(20.2257 -0.578976 6.37182e-21)
(20.2648 -0.561056 -4.22207e-20)
(20.3025 -0.542247 3.81834e-20)
(20.3391 -0.522541 -4.33553e-20)
(19.0613 -0.844692 1.01347e-19)
(19.2073 -0.806596 -7.2486e-20)
(19.3354 -0.77941 2.13204e-20)
(19.4468 -0.757072 2.20918e-20)
(19.5445 -0.738083 0)
(19.6309 -0.721266 0)
(19.7079 -0.705788 3.09357e-22)
(19.7773 -0.691101 0)
(19.8403 -0.676798 -1.03401e-20)
(19.8981 -0.662595 1.03263e-20)
(19.9516 -0.648268 -5.30949e-20)
(20.0014 -0.633682 -1.16774e-21)
(20.0482 -0.618673 4.18924e-20)
(20.0926 -0.603187 -1.08138e-20)
(20.1348 -0.587135 -4.38061e-20)
(20.1752 -0.570445 7.65744e-20)
(20.2141 -0.553078 1.14623e-21)
(20.2517 -0.534976 -4.44145e-20)
(20.2882 -0.516097 5.6488e-21)
(20.3237 -0.496414 0)
(19.1284 -0.875165 2.69458e-20)
(19.2613 -0.831455 2.39398e-20)
(19.3782 -0.797491 -4.58067e-20)
(19.4805 -0.769019 0)
(19.5707 -0.744525 4.47289e-20)
(19.6506 -0.722894 -4.27027e-20)
(19.7222 -0.703258 3.30649e-20)
(19.7869 -0.684992 1.33434e-21)
(19.8459 -0.667612 -4.21698e-20)
(19.9001 -0.650766 0)
(19.9505 -0.634187 5.4525e-20)
(19.9978 -0.617687 -9.82883e-20)
(20.0423 -0.60108 -1.10266e-21)
(20.0847 -0.584263 5.51161e-20)
(20.1252 -0.567117 -4.57204e-20)
(20.1642 -0.549545 5.66671e-20)
(20.2019 -0.531473 3.54197e-20)
(20.2384 -0.51284 -4.6693e-20)
(20.274 -0.493589 4.82304e-20)
(20.3087 -0.473683 -4.80483e-20)
(19.1829 -0.916535 8.54321e-22)
(19.3048 -0.866775 7.00009e-20)
(19.4118 -0.826431 2.44868e-20)
(19.506 -0.792066 -4.4182e-20)
(19.5895 -0.762166 0)
(19.664 -0.735636 6.66793e-20)
(19.7311 -0.711596 -4.29611e-20)
(19.792 -0.689399 0)
(19.8477 -0.668534 -1.11143e-20)
(19.8991 -0.648582 -3.37072e-20)
(19.9472 -0.629223 8.96338e-20)
(19.9924 -0.610259 -9.10028e-20)
(20.0353 -0.591527 3.3829e-20)
(20.0762 -0.572881 0)
(20.1156 -0.55417 -3.5929e-20)
(20.1536 -0.535257 3.55141e-20)
(20.1905 -0.516076 0)
(20.2264 -0.496548 0)
(20.2616 -0.476613 1.26409e-20)
(20.2959 -0.456215 0)
(19.2291 -0.968202 -5.1343e-20)
(19.339 -0.913777 -1.04995e-21)
(19.4369 -0.868574 -4.58652e-20)
(19.5237 -0.829085 0)
(19.6014 -0.793973 4.51838e-20)
(19.6713 -0.762515 -7.69677e-20)
(19.7347 -0.733969 5.64676e-20)
(19.7925 -0.707697 -1.01997e-20)
(19.8456 -0.683053 -4.49387e-20)
(19.8949 -0.659622 -1.12724e-20)
(19.9412 -0.637019 -1.18728e-20)
(19.9851 -0.61509 -4.79029e-20)
(20.027 -0.593685 2.29657e-20)
(20.0672 -0.572721 -1.01963e-21)
(20.106 -0.551988 -6.34609e-22)
(20.1435 -0.531295 1.14896e-20)
(20.1802 -0.510534 -9.05532e-22)
(20.2161 -0.489683 5.12328e-20)
(20.2513 -0.468679 2.62638e-22)
(20.2858 -0.447504 -5.36069e-20)
(19.2689 -1.03271 1.00571e-19)
(19.369 -0.975004 2.301e-20)
(19.4595 -0.925708 2.26322e-20)
(19.5402 -0.881632 0)
(19.6133 -0.841299 0)
(19.68 -0.804602 5.81854e-20)
(19.7409 -0.771165 -1.04688e-19)
(19.7965 -0.740431 1.01557e-20)
(19.8478 -0.711699 5.87991e-20)
(19.8953 -0.68446 -1.18622e-20)
(19.9401 -0.658215 -8.09224e-23)
(19.9831 -0.632731 1.22403e-20)
(20.0245 -0.6081 -1.24535e-20)
(20.0645 -0.584335 1.26822e-20)
(20.103 -0.561201 -5.31357e-20)
(20.1404 -0.538384 1.06854e-19)
(20.1769 -0.515715 -6.72103e-20)
(20.213 -0.493111 0)
(20.2488 -0.470711 -1.37194e-20)
(20.2839 -0.448534 1.38851e-20)
(19.3017 -1.11772 7.17489e-20)
(19.3876 -1.05837 -7.12752e-22)
(19.4677 -1.00597 -4.28372e-20)
(19.5387 -0.961549 0)
(19.608 -0.917611 4.29807e-20)
(19.6724 -0.875809 -4.22253e-20)
(19.7313 -0.837704 -5.55326e-20)
(19.7858 -0.802388 4.29425e-20)
(19.8361 -0.769629 3.25895e-20)
(19.8836 -0.738893 -4.54219e-20)
(19.9288 -0.708511 5.95234e-20)
(19.9721 -0.678319 -1.09186e-19)
(20.0141 -0.649165 -1.3923e-20)
(20.0547 -0.621793 3.65098e-20)
(20.094 -0.596133 -2.63598e-20)
(20.1325 -0.570673 5.2166e-20)
(20.1707 -0.544609 -7.81894e-20)
(20.2083 -0.51869 5.3267e-20)
(20.2456 -0.493624 0)
(20.2816 -0.469922 -1.38992e-20)
(19.5376 0.766718 0)
(19.6866 0.862852 -2.67191e-22)
(19.8442 0.974321 -9.82542e-20)
(20.0032 1.10543 1.12482e-19)
(20.1659 1.24865 -1.60924e-19)
(20.3281 1.40966 1.85992e-19)
(20.4895 1.58478 0)
(20.6466 1.77265 3.007e-19)
(20.7942 1.97196 1.18361e-20)
(20.9281 2.17717 -2.58971e-20)
(21.0429 2.38354 -2.60047e-20)
(21.1341 2.58505 -7.36957e-19)
(21.1976 2.7763 -9.1233e-20)
(21.2321 2.94943 8.45494e-19)
(21.2377 3.097 -9.22635e-19)
(21.2172 3.21233 -9.20745e-19)
(21.1758 3.29102 1.81914e-18)
(21.1194 3.33345 -1.72346e-18)
(21.0585 3.33799 -7.51643e-19)
(20.9676 3.3575 1.19668e-18)
(20.156 -0.27275 1.94713e-20)
(20.2518 -0.214893 -2.11479e-20)
(20.3538 -0.145503 -2.84869e-20)
(20.4618 -0.0610676 3.31638e-20)
(20.5751 0.0407897 2.6269e-22)
(20.6935 0.160462 0)
(20.8147 0.301557 0)
(20.9371 0.464459 1.13396e-20)
(21.0569 0.651351 0)
(21.1706 0.860072 2.94283e-19)
(21.2736 1.08867 -3.49602e-19)
(21.3615 1.33226 5.65196e-20)
(21.4292 1.58496 1.25116e-19)
(21.4728 1.8381 0)
(21.4888 2.08218 -1.49374e-19)
(21.4753 2.30752 3.34645e-19)
(21.4332 2.50536 -6.63766e-19)
(21.366 2.66983 3.05763e-20)
(21.2847 2.79147 8.26206e-19)
(21.1745 2.91858 1.13057e-18)
(20.3655 -0.577965 0)
(20.4418 -0.533187 0)
(20.5223 -0.480411 -4.16489e-22)
(20.6076 -0.41788 0)
(20.698 -0.344234 7.4619e-20)
(20.7937 -0.256423 2.88489e-21)
(20.8942 -0.15257 -2.09251e-19)
(20.9984 -0.0297201 1.20892e-19)
(21.1042 0.113574 -1.55336e-19)
(21.2088 0.278957 -9.81956e-21)
(21.3083 0.467628 2.42866e-19)
(21.3982 0.677699 0)
(21.4732 0.907559 -4.10707e-19)
(21.5281 1.15227 -5.13609e-21)
(21.5584 1.40425 7.09031e-19)
(21.5608 1.65553 -2.41567e-19)
(21.5343 1.89629 1.05447e-18)
(21.4809 2.1177 -1.16767e-20)
(21.4084 2.30762 -1.21528e-18)
(21.3161 2.49442 -6.24544e-19)
(20.4392 -0.685206 2.2438e-20)
(20.5037 -0.646809 -2.3601e-20)
(20.5708 -0.602978 -2.76959e-20)
(20.6411 -0.552519 3.0159e-20)
(20.7154 -0.493618 -1.11947e-21)
(20.7939 -0.424335 8.56988e-20)
(20.8767 -0.343064 -9.63277e-20)
(20.9636 -0.247117 3.55911e-21)
(21.0534 -0.134899 -9.11263e-21)
(21.1448 -0.00408718 -1.72371e-19)
(21.2352 0.146924 2.12513e-19)
(21.3217 0.319117 0)
(21.4001 0.513061 3.24511e-19)
(21.4654 0.725952 -7.4816e-20)
(21.5128 0.955128 -9.49892e-20)
(21.5375 1.19457 -4.14508e-19)
(21.5363 1.43692 -6.49698e-19)
(21.5085 1.67399 8.8124e-19)
(21.4586 1.89517 -2.21979e-19)
(21.389 2.11418 1.86264e-19)
(20.4642 -0.708271 0)
(20.5222 -0.673971 8.10886e-22)
(20.5819 -0.635448 0)
(20.6439 -0.591834 -3.43886e-20)
(20.709 -0.541684 3.73547e-20)
(20.7771 -0.484039 2.60423e-21)
(20.8486 -0.417334 2.88385e-21)
(20.9236 -0.339524 -1.13688e-19)
(21.0016 -0.248938 1.15929e-19)
(21.0814 -0.143943 -1.50374e-19)
(21.1621 -0.0222104 1.71075e-19)
(21.2413 0.11801 0)
(21.316 0.277266 -3.02474e-19)
(21.3828 0.456557 6.61298e-20)
(21.4373 0.654507 3.1128e-19)
(21.4752 0.867905 -3.48667e-19)
(21.4927 1.09252 9.34202e-19)
(21.4879 1.32221 -5.6971e-19)
(21.4626 1.54901 -3.82621e-19)
(21.4222 1.77344 3.40454e-19)
(20.4696 -0.705029 2.68623e-20)
(20.5228 -0.673487 -2.8638e-20)
(20.5771 -0.638459 -3.30502e-20)
(20.6331 -0.599314 3.50601e-20)
(20.6911 -0.555154 -7.74296e-20)
(20.7514 -0.504986 8.09534e-20)
(20.8142 -0.447708 -5.78165e-21)
(20.8798 -0.381837 1.06297e-19)
(20.9479 -0.305982 1.1275e-20)
(21.0179 -0.2187 -1.43131e-19)
(21.0893 -0.117749 -1.59981e-19)
(21.1605 -0.00185478 2.01877e-19)
(21.2297 0.13059 5.26633e-20)
(21.2943 0.280904 1.83588e-19)
(21.351 0.449167 4.77593e-21)
(21.3964 0.634616 -5.99672e-19)
(21.427 0.835005 3.21789e-19)
(21.4406 1.04669 1.72187e-19)
(21.4377 1.26388 1.62949e-19)
(21.4162 1.48961 -1.6229e-19)
(20.4664 -0.688524 -2.90524e-20)
(20.5161 -0.659122 2.79357e-20)
(20.5665 -0.626738 3.70323e-20)
(20.6179 -0.590895 -7.00846e-20)
(20.6708 -0.55095 3.75668e-20)
(20.7253 -0.506106 0)
(20.7817 -0.455467 2.9166e-21)
(20.8402 -0.397999 -1.10254e-19)
(20.9004 -0.332662 1.13094e-19)
(20.9622 -0.258124 8.22065e-21)
(21.0254 -0.172754 1.80644e-20)
(21.0891 -0.0750672 -2.09831e-19)
(21.1519 0.0364065 1.62417e-19)
(21.2122 0.163313 5.46922e-20)
(21.2677 0.30637 -3.0078e-19)
(21.3158 0.466021 4.64266e-19)
(21.3539 0.641783 -4.26207e-19)
(21.3798 0.832447 -3.02844e-19)
(21.3929 1.03397 1.48631e-19)
(21.389 1.25312 -1.44867e-19)
(20.4585 -0.666344 3.14052e-20)
(20.5052 -0.638671 -2.8018e-20)
(20.5523 -0.608384 -2.15805e-21)
(20.6 -0.575122 0)
(20.6487 -0.538351 0)
(20.6986 -0.497493 8.66229e-20)
(20.7498 -0.45187 -9.18116e-20)
(20.8024 -0.400776 1.09239e-19)
(20.8564 -0.343272 -1.10624e-19)
(20.9116 -0.278251 0)
(20.968 -0.204495 -1.57793e-19)
(21.025 -0.120632 1.62973e-20)
(21.0819 -0.0252214 1.50905e-19)
(21.1375 0.0830503 0)
(21.1902 0.205279 5.52178e-20)
(21.2383 0.342612 3.01674e-19)
(21.2801 0.495653 -2.53271e-19)
(21.3136 0.664365 -2.75308e-19)
(21.3382 0.846482 4.17084e-19)
(21.3492 1.04969 4.6187e-22)
(20.4481 -0.640988 -2.08298e-21)
(20.4922 -0.614761 -4.33577e-21)
(20.5364 -0.586238 4.14539e-20)
(20.581 -0.555102 -7.23029e-20)
(20.6264 -0.520908 4.05521e-20)
(20.6725 -0.483221 0)
(20.7194 -0.441573 5.87057e-21)
(20.7671 -0.395394 -1.02824e-19)
(20.8159 -0.343882 2.21418e-19)
(20.8658 -0.28614 -1.04887e-19)
(20.9165 -0.221258 0)
(20.9678 -0.14821 0)
(21.0192 -0.0656519 -1.23823e-19)
(21.0701 0.0276213 2.23937e-19)
(21.1196 0.132911 0)
(21.1664 0.251457 -2.75096e-19)
(21.2094 0.384406 3.55661e-19)
(21.2473 0.532302 1.24894e-19)
(21.2797 0.694681 -2.64363e-19)
(21.3023 0.87903 0)
(20.4357 -0.613985 6.6599e-21)
(20.4776 -0.589009 6.91245e-21)
(20.5194 -0.56193 -4.81253e-21)
(20.5613 -0.532505 -4.59825e-20)
(20.6037 -0.50043 4.21865e-20)
(20.6465 -0.465375 9.109e-20)
(20.6899 -0.42693 -1.06864e-19)
(20.7338 -0.384626 -1.09971e-19)
(20.7784 -0.337865 1.09317e-19)
(20.8239 -0.285922 -1.35517e-19)
(20.8698 -0.228179 1.12308e-19)
(20.9163 -0.163686 -1.60593e-19)
(20.963 -0.0913883 1.34298e-19)
(21.0097 -0.0101743 -6.08835e-22)
(21.0558 0.0812371 4.6415e-20)
(21.1008 0.184093 2.56625e-19)
(21.1437 0.299445 -2.18436e-19)
(21.1841 0.428661 -4.70638e-19)
(21.2213 0.57167 2.41167e-19)
(21.2527 0.734823 3.65002e-19)
(20.422 -0.586031 2.8753e-20)
(20.4618 -0.562078 -4.83874e-20)
(20.5015 -0.536219 4.60741e-20)
(20.5412 -0.508283 -8.45221e-20)
(20.581 -0.478024 4.93113e-20)
(20.621 -0.445145 9.38598e-20)
(20.6614 -0.409307 -9.09658e-20)
(20.7021 -0.37017 1.04781e-19)
(20.7433 -0.327296 -1.09518e-19)
(20.785 -0.280139 -1.19288e-19)
(20.8271 -0.228132 2.54277e-19)
(20.8696 -0.170571 -1.36007e-19)
(20.9125 -0.106592 1.50196e-19)
(20.9556 -0.0351714 -3.81877e-20)
(20.9987 0.0447197 -2.19277e-19)
(21.0416 0.134212 1.9274e-19)
(21.0838 0.234665 -2.0481e-19)
(21.1251 0.347117 1.10705e-19)
(21.1654 0.472273 -1.16125e-19)
(21.2024 0.615717 -2.35539e-19)
(20.4071 -0.557736 -3.547e-20)
(20.4451 -0.534645 4.07396e-20)
(20.4829 -0.509822 -5.31634e-21)
(20.5205 -0.4831 -4.46887e-20)
(20.5583 -0.454287 4.56511e-20)
(20.596 -0.423186 9.68667e-20)
(20.6339 -0.389564 1.77417e-21)
(20.6719 -0.35313 -9.79304e-20)
(20.7102 -0.313536 -1.26104e-19)
(20.7489 -0.270352 1.31707e-19)
(20.7879 -0.22311 3.14276e-20)
(20.8272 -0.171268 -1.18654e-19)
(20.867 -0.114073 1.43421e-19)
(20.9072 -0.0508037 -1.5692e-19)
(20.9477 0.0194328 2.08928e-19)
(20.9886 0.0977472 1.37417e-19)
(21.0298 0.185173 -1.93541e-19)
(21.0712 0.282962 1.03603e-19)
(21.1133 0.392201 0)
(21.154 0.517307 -1.12168e-19)
(20.3912 -0.529422 3.74733e-20)
(20.4277 -0.506997 -3.76629e-20)
(20.4639 -0.48298 5.6308e-21)
(20.4999 -0.457278 0)
(20.5358 -0.429736 -5.95732e-21)
(20.5716 -0.400196 9.99175e-20)
(20.6074 -0.368462 -8.92013e-20)
(20.6433 -0.334309 1.08272e-19)
(20.6794 -0.29746 -8.34717e-20)
(20.7157 -0.257601 -1.33921e-19)
(20.7522 -0.214404 1.082e-19)
(20.7891 -0.1674 1.16695e-19)
(20.8265 -0.116034 -1.3987e-19)
(20.8643 -0.0596818 0)
(20.9028 0.0024398 1.62517e-19)
(20.942 0.0711258 -3.03142e-19)
(20.9822 0.147478 1.84513e-19)
(21.0234 0.232522 -4.98643e-20)
(21.0662 0.327275 1.05147e-19)
(21.1093 0.435574 -2.12125e-19)
(20.3748 -0.501824 -3.95198e-20)
(20.41 -0.479879 3.95432e-20)
(20.4448 -0.456527 5.33183e-20)
(20.4794 -0.431665 -9.64245e-20)
(20.5138 -0.40519 -5.08879e-20)
(20.5482 -0.376949 2.04828e-19)
(20.5825 -0.346808 -1.18159e-19)
(20.6168 -0.314611 -1.37495e-20)
(20.6512 -0.280142 6.45236e-23)
(20.6857 -0.243184 1.34594e-19)
(20.7204 -0.203477 -1.23588e-19)
(20.7555 -0.160632 -3.64963e-23)
(20.791 -0.114213 1.39471e-19)
(20.8272 -0.0637464 -1.64431e-20)
(20.8642 -0.00863922 -1.94477e-19)
(20.9021 0.0518015 1.67649e-19)
(20.9413 0.118424 -1.76551e-19)
(20.982 0.192221 -1.90108e-19)
(21.0248 0.274175 2.9902e-19)
(21.0689 0.367678 -2.0291e-19)
(20.3583 -0.475824 1.18337e-20)
(20.3925 -0.454171 -6.11129e-21)
(20.4264 -0.431286 -6.17626e-20)
(20.46 -0.407086 4.99029e-20)
(20.4934 -0.381477 1.29596e-20)
(20.5266 -0.354359 1.3286e-20)
(20.5598 -0.325611 1.36544e-20)
(20.5929 -0.295133 1.39662e-20)
(20.6262 -0.26276 -1.31029e-19)
(20.6595 -0.228326 -1.662e-20)
(20.6931 -0.191615 1.39621e-19)
(20.727 -0.152368 1.62642e-20)
(20.7614 -0.110323 0)
(20.7964 -0.0650576 -4.27088e-23)
(20.8323 -0.0161579 1.52724e-19)
(20.8693 0.0369878 -1.60066e-19)
(20.9077 0.0950403 -4.27747e-20)
(20.9477 0.158752 -2.27369e-19)
(20.9899 0.229 4.61901e-20)
(21.0334 0.309002 2.94707e-19)
(20.3427 -0.453026 -6.19947e-20)
(20.3763 -0.431472 -9.97811e-22)
(20.4095 -0.408862 3.80199e-20)
(20.4425 -0.385146 0)
(20.4752 -0.360237 -1.211e-19)
(20.5079 -0.334056 9.49037e-20)
(20.5404 -0.306506 -1.39249e-20)
(20.5729 -0.277494 1.15506e-19)
(20.6055 -0.246904 -1.17087e-19)
(20.6382 -0.214648 -1.22186e-19)
(20.6712 -0.180602 2.35051e-19)
(20.7046 -0.144567 -2.6007e-19)
(20.7384 -0.106341 1.51452e-19)
(20.7729 -0.0656769 1.76525e-20)
(20.8082 -0.0222367 -3.7179e-20)
(20.8447 0.0244622 1.9632e-19)
(20.8825 0.0747766 -1.6424e-19)
(20.9221 0.129375 0)
(20.9639 0.188779 -4.67002e-20)
(21.0075 0.2558 9.60004e-20)
(20.3296 -0.435254 5.22214e-20)
(20.3629 -0.41359 -3.92115e-20)
(20.3959 -0.391092 -1.38343e-22)
(20.4286 -0.367699 1.3689e-20)
(20.4611 -0.343333 -1.118e-19)
(20.4934 -0.317903 1.12224e-19)
(20.5256 -0.291325 0)
(20.558 -0.263521 1.47453e-20)
(20.5905 -0.234444 -1.50575e-20)
(20.6231 -0.204088 -1.39156e-19)
(20.656 -0.172367 1.25548e-19)
(20.6894 -0.139129 1.30887e-19)
(20.7232 -0.104276 -3.02421e-19)
(20.7577 -0.0676442 1.56229e-19)
(20.793 -0.0289857 1.82533e-19)
(20.8293 0.0119392 -3.63786e-20)
(20.8669 0.0555132 -1.19025e-19)
(20.906 0.102181 2.11153e-19)
(20.9473 0.152357 -8.72496e-20)
(20.9907 0.208239 -1.9258e-19)
(20.3197 -0.425998 1.08032e-19)
(20.3531 -0.403993 -1.09683e-19)
(20.3862 -0.381396 2.71381e-20)
(20.4191 -0.358148 4.20185e-20)
(20.4517 -0.334136 -1.01019e-19)
(20.4841 -0.30922 1.3136e-20)
(20.5165 -0.283276 1.32645e-19)
(20.5492 -0.256336 1.2131e-19)
(20.582 -0.228443 -2.29553e-19)
(20.6152 -0.199591 1.23931e-19)
(20.6487 -0.169771 1.60121e-20)
(20.6825 -0.138942 -1.31221e-19)
(20.7168 -0.106921 1.50061e-19)
(20.7518 -0.0737181 7.8673e-23)
(20.7873 -0.0392071 0)
(20.8237 -0.00318856 -1.49354e-19)
(20.8611 0.0345659 1.54161e-19)
(20.8999 0.0743287 1.33498e-22)
(20.9402 0.116398 -8.55778e-20)
(20.9822 0.162201 9.34586e-20)
(20.3183 -0.426299 -5.75463e-20)
(20.3522 -0.403683 1.35035e-20)
(20.3858 -0.380655 -1.52293e-20)
(20.419 -0.357382 5.89286e-20)
(20.4517 -0.333761 -4.95646e-23)
(20.484 -0.309338 1.07299e-19)
(20.5168 -0.283849 -1.37659e-19)
(20.5502 -0.25745 -1.27468e-24)
(20.584 -0.230377 0)
(20.6182 -0.202684 -1.125e-19)
(20.6526 -0.174545 -1.74893e-20)
(20.6871 -0.145849 1.31294e-19)
(20.7222 -0.116226 0)
(20.7579 -0.0858192 1.21308e-19)
(20.7939 -0.0548799 -2.65316e-19)
(20.8304 -0.0230039 1.45028e-19)
(20.8677 0.00992424 1.70307e-19)
(20.9058 0.0440079 -3.76562e-20)
(20.9449 0.0795304 -8.06497e-20)
(20.9853 0.116891 -8.9718e-20)
(20.3164 -0.446891 0)
(20.3508 -0.423278 -2.90024e-20)
(20.3852 -0.399501 0)
(20.4198 -0.376523 0)
(20.4536 -0.352672 -1.45518e-20)
(20.487 -0.328043 0)
(20.522 -0.301451 -1.54646e-20)
(20.5563 -0.275168 -1.52566e-20)
(20.5914 -0.248873 0)
(20.6273 -0.222266 1.23728e-19)
(20.6637 -0.194926 1.77585e-21)
(20.6992 -0.168 -2.53319e-19)
(20.7361 -0.139773 2.6102e-19)
(20.7726 -0.110404 -1.30278e-19)
(20.8088 -0.0830364 -1.66106e-20)
(20.8452 -0.0544698 1.72373e-20)
(20.8816 -0.0257617 -1.76176e-20)
(20.9185 0.00328269 1.83803e-20)
(20.9558 0.0330661 7.45707e-20)
(20.9941 0.0620346 -8.15528e-20)
(20.1226 0.434091 9.49844e-20)
(20.0329 0.335746 -1.06897e-19)
(19.9492 0.248936 -2.25908e-19)
(19.8729 0.178414 2.25937e-19)
(19.807 0.125505 0)
(19.7538 0.0896857 0)
(19.7141 0.0689964 0)
(19.6876 0.0607997 0)
(19.6729 0.0625788 0)
(19.6684 0.0720703 -1.0635e-19)
(19.672 0.0874681 8.78046e-20)
(19.6818 0.107286 0)
(19.6957 0.130428 0)
(19.7122 0.156051 0)
(19.7297 0.183586 0)
(19.7474 0.212812 0)
(19.7641 0.243558 0)
(19.779 0.276589 0)
(19.7914 0.314537 0)
(19.8018 0.359141 0)
(20.0689 0.435595 0)
(19.9838 0.362384 0)
(19.9084 0.304647 -1.65906e-19)
(19.845 0.264886 1.63845e-19)
(19.7957 0.242551 0)
(19.761 0.235631 1.39246e-19)
(19.74 0.240998 -2.42186e-19)
(19.7307 0.255114 1.02551e-19)
(19.7307 0.274507 -8.40159e-20)
(19.7373 0.296258 1.37508e-19)
(19.7484 0.31808 -1.11007e-19)
(19.762 0.338524 4.51814e-20)
(19.7764 0.356712 0)
(19.7905 0.37231 0)
(19.8034 0.385328 0)
(19.8146 0.395966 -9.31513e-21)
(19.8238 0.40452 8.01565e-21)
(19.8307 0.411374 0)
(19.8352 0.416813 1.28847e-21)
(19.8373 0.421189 -1.18283e-21)
(20.0273 0.443092 6.20133e-20)
(19.9495 0.391576 -6.87206e-20)
(19.8839 0.355938 0)
(19.8325 0.335872 1.3497e-19)
(19.796 0.32887 -1.24908e-19)
(19.7738 0.331681 0)
(19.764 0.340908 0)
(19.7639 0.353607 0)
(19.7709 0.36756 0)
(19.7825 0.381269 0)
(19.7967 0.393884 0)
(19.8118 0.404967 0)
(19.8268 0.41442 0)
(19.8408 0.42232 0)
(19.8534 0.42883 -1.14856e-20)
(19.8644 0.434169 1.98166e-20)
(19.8734 0.43856 -8.6522e-21)
(19.8805 0.442203 0)
(19.8856 0.445279 -1.56985e-21)
(19.8885 0.447951 1.47015e-21)
(19.9967 0.453476 5.54156e-20)
(19.9278 0.419507 -1.20943e-19)
(19.8724 0.399445 -6.01263e-20)
(19.8313 0.391502 1.14687e-19)
(19.804 0.392635 -1.04771e-19)
(19.7889 0.399757 9.34215e-20)
(19.7835 0.41014 0)
(19.7854 0.421682 0)
(19.7923 0.432982 -5.77934e-20)
(19.8022 0.443221 4.93078e-20)
(19.8138 0.452017 0)
(19.826 0.459309 0)
(19.838 0.465173 0)
(19.8494 0.469795 0)
(19.8597 0.473374 0)
(19.8688 0.476116 -9.23539e-21)
(19.8766 0.478194 8.3603e-21)
(19.8828 0.479773 3.53491e-21)
(19.8874 0.480998 -3.27535e-21)
(19.8903 0.481974 0)
(19.9755 0.465577 0)
(19.9158 0.444609 0)
(19.8695 0.434798 0)
(19.8366 0.433659 0)
(19.8158 0.438291 9.10453e-20)
(19.8052 0.446208 -1.62472e-19)
(19.8024 0.455508 5.28089e-22)
(19.8053 0.464913 1.2277e-19)
(19.812 0.473678 -5.30427e-20)
(19.821 0.481441 4.49894e-20)
(19.8312 0.488089 -3.92294e-20)
(19.8419 0.493652 -3.33349e-20)
(19.8524 0.498234 5.83613e-22)
(19.8624 0.501964 2.58337e-20)
(19.8717 0.504979 0)
(19.88 0.507405 -9.8324e-21)
(19.8873 0.509362 9.05616e-21)
(19.8933 0.510958 -3.93366e-21)
(19.8979 0.512286 1.92152e-21)
(19.9011 0.513447 1.70507e-21)
(19.962 0.477737 0)
(19.9106 0.466467 4.88256e-20)
(19.8719 0.463415 -4.74554e-20)
(19.845 0.466329 0)
(19.8284 0.472866 0)
(19.8199 0.481192 0)
(19.8178 0.490014 0)
(19.8202 0.498526 0)
(19.8256 0.506295 0)
(19.833 0.513138 0)
(19.8415 0.519025 0)
(19.8505 0.524017 0)
(19.8596 0.528205 0)
(19.8685 0.531702 2.51287e-20)
(19.877 0.534617 -2.30422e-20)
(19.8847 0.537044 0)
(19.8916 0.539086 0)
(19.8976 0.540823 4.15944e-21)
(19.9024 0.542333 -3.9551e-21)
(19.906 0.5437 0)
(19.9543 0.490987 0)
(19.9102 0.485407 0)
(19.8777 0.486408 -8.59429e-20)
(19.8554 0.49159 8.06924e-20)
(19.8417 0.499016 0)
(19.8347 0.507355 0)
(19.8329 0.515739 0)
(19.8349 0.523675 -5.17214e-20)
(19.8395 0.530919 4.61641e-20)
(19.8458 0.537389 0)
(19.8533 0.543092 0)
(19.8613 0.548088 -3.17993e-20)
(19.8696 0.552446 2.90476e-20)
(19.8779 0.556252 0)
(19.8858 0.559581 1.16492e-20)
(19.8934 0.562511 -1.0917e-20)
(19.9003 0.56511 -9.76542e-21)
(19.9064 0.567451 1.38103e-20)
(19.9116 0.569597 -4.32567e-21)
(19.9156 0.571618 0)
(19.9499 0.501697 3.9588e-20)
(19.9129 0.500914 -1.47679e-22)
(19.8856 0.504657 -1.18631e-19)
(19.8669 0.511248 1.47684e-19)
(19.8552 0.519233 -6.78461e-20)
(19.8492 0.52766 -6.08832e-20)
(19.8474 0.535942 5.00705e-22)
(19.8489 0.543755 5.16775e-22)
(19.8527 0.550957 8.74808e-20)
(19.8581 0.557504 -3.94308e-20)
(19.8646 0.563416 3.49331e-20)
(19.8719 0.568734 -3.20795e-20)
(19.8795 0.573525 2.86291e-20)
(19.8873 0.577846 -2.67043e-20)
(19.895 0.581761 0)
(19.9025 0.585327 1.10997e-20)
(19.9095 0.588607 -2.09004e-20)
(19.9159 0.591656 9.90331e-21)
(19.9216 0.594536 0)
(19.9262 0.59731 0)
(19.9497 0.510863 3.89351e-20)
(19.918 0.513257 -3.87323e-20)
(19.895 0.51879 0)
(19.8792 0.526276 6.82726e-20)
(19.8692 0.534622 -6.30832e-20)
(19.8639 0.543149 5.69318e-20)
(19.8622 0.551455 -4.71332e-22)
(19.8634 0.559333 -9.32821e-20)
(19.8666 0.566692 4.23878e-20)
(19.8714 0.573514 -3.79415e-20)
(19.8774 0.579816 5.12462e-22)
(19.8842 0.585636 3.2064e-20)
(19.8915 0.591019 2.89997e-20)
(19.8991 0.596013 -2.73423e-20)
(19.9067 0.600666 0)
(19.9143 0.605021 0)
(19.9216 0.609131 -1.09196e-20)
(19.9285 0.613045 1.05634e-20)