/*--------------------------------*- C++ -*----------------------------------*\
| =========                 |                                                 |
| \\      /  F ield         | OpenFOAM: The Open Source CFD Toolbox           |
|  \\    /   O peration     | Version:  2.3.0                                 |
|   \\  /    A nd           | Web:      www.OpenFOAM.org                      |
|    \\/     M anipulation  |                                                 |
\*---------------------------------------------------------------------------*/
FoamFile
{
    version     2.0;
    format      ascii;
    class       volScalarField;
    location    "450";
    object      p;
}
// * * * * * * * * * * * * * * * * * * * * * * * * * * * * * * * * * * * * * //

dimensions      [0 2 -2 0 0 0 0];

internalField   nonuniform List<scalar> 
7991
(
-0.000345196
0.0130549
0.0607906
0.154951
0.296939
0.480422
0.695432
0.932319
1.18451
1.4494
1.72664
2.01971
2.35812
2.86299
3.5066
0.235274
0.25313
0.272447
0.295636
0.328863
0.379026
0.452417
0.553301
0.683233
0.841258
1.02445
1.22871
1.44975
1.68458
1.93146
0.468631
0.545681
0.640878
0.751975
0.876947
1.01164
1.15158
1.29284
1.4324
1.5681
1.69846
1.82243
1.93916
2.04801
2.14919
0.615075
0.685017
0.763473
0.845882
0.932334
1.02234
1.11524
1.21023
1.30643
1.40292
1.49879
1.59318
1.68532
1.77458
1.86084
0.731824
0.801734
0.881239
0.963498
1.04773
1.13278
1.21762
1.30138
1.38339
1.46318
1.54041
1.61484
1.68628
1.75459
1.81982
0.81129
0.872183
0.940704
1.01014
1.07989
1.14949
1.21858
1.28686
1.35409
1.42005
1.48458
1.54749
1.60864
1.66788
1.72516
0.866395
0.922006
0.9835
1.04548
1.10728
1.16859
1.22923
1.28905
1.34791
1.40567
1.46224
1.5175
1.57133
1.62363
1.67431
0.901818
0.955734
1.01024
1.06477
1.11902
1.17284
1.22617
1.27895
1.33111
1.38257
1.43325
1.48303
1.53181
1.57945
1.62584
0.932083
0.981171
1.02918
1.07757
1.12596
1.17416
1.22213
1.2698
1.31713
1.36404
1.41043
1.4562
1.50122
1.54536
1.58848
0.949312
0.997704
1.04121
1.08488
1.12865
1.17244
1.21619
1.25987
1.30345
1.34682
1.38992
1.43264
1.47482
1.51632
1.55695
0.966114
1.01016
1.04958
1.08926
1.12923
1.16944
1.2098
1.25028
1.29092
1.33149
1.37197
1.41224
1.45217
1.49159
1.53034
0.978783
1.01817
1.05446
1.09097
1.12828
1.16565
1.20293
1.24059
1.27893
1.31724
1.3555
1.39366
1.43179
1.4695
1.50677
0.989568
1.02599
1.05955
1.09312
1.12804
1.16307
1.19817
1.234
1.27026
1.30635
1.34315
1.38056
1.4179
1.45504
1.49072
1.00701
1.03571
1.07132
1.10143
1.12673
1.15995
1.19841
1.23352
1.26685
1.29986
1.33628
1.37451
1.40935
1.44726
1.48509
4.29848
4.41941
4.30703
4.3136
4.35378
4.37825
4.37955
4.36126
4.32462
4.26728
4.18437
4.07009
3.92067
3.73814
3.54073
2.19608
2.47567
2.74181
2.98998
3.21396
3.4057
3.55744
3.66336
3.7203
3.72833
3.691
3.61498
3.50893
3.38239
3.24881
2.24494
2.33807
2.42938
2.51921
2.60672
2.69072
2.76982
2.84241
2.90644
2.95936
2.99792
3.0183
3.01704
2.99325
2.95446
1.94565
2.03115
2.11779
2.20487
2.29113
2.37506
2.45489
2.52865
2.59425
2.64955
2.69251
2.7213
2.73466
2.73308
2.72075
1.88288
1.94529
2.00768
2.06985
2.13138
2.19171
2.25019
2.30607
2.35842
2.40614
2.44788
2.48201
2.50688
2.52181
2.52789
1.78109
1.83664
1.89209
1.94722
2.00164
2.05494
2.10663
2.15615
2.20288
2.24607
2.28487
2.31829
2.34529
2.366
2.38502
1.72372
1.77252
1.8209
1.86869
1.91563
1.96144
2.00582
2.04843
2.08891
2.12679
2.16156
2.19253
2.21902
2.24081
2.25829
1.67119
1.7159
1.76007
1.8035
1.84598
1.88729
1.9272
1.96545
2.0018
2.03595
2.06756
2.09623
2.1215
2.14306
2.16186
1.63066
1.67214
1.71295
1.75292
1.79186
1.82958
1.86589
1.90062
1.93358
1.96458
1.99343
2.01985
2.04344
2.06389
2.08437
1.59671
1.63572
1.67399
1.71133
1.7476
1.78261
1.81617
1.8482
1.87853
1.90704
1.9336
1.95805
1.98013
1.99949
2.01813
1.56822
1.60526
1.64151
1.67668
1.7109
1.74379
1.77522
1.80514
1.83336
1.85987
1.88455
1.9073
1.92799
1.94624
1.96316
1.54331
1.57883
1.61361
1.64687
1.67964
1.71115
1.74099
1.76935
1.79587
1.82087
1.84413
1.8656
1.88481
1.90173
1.91641
1.5256
1.55847
1.59162
1.6236
1.65541
1.68503
1.71223
1.73892
1.76372
1.78723
1.80929
1.82971
1.84769
1.86397
1.87842
1.51621
1.54483
1.57487
1.60549
1.6391
1.66312
1.68685
1.71207
1.73499
1.75641
1.77615
1.79155
1.80982
1.82839
1.84205
-0.829054
-0.822043
-0.760097
-0.635904
-0.462425
-0.264866
-0.0739745
0.0832527
0.190812
0.244375
0.248528
0.209238
0.131131
0.00451475
0.00195361
-0.788489
-0.825326
-0.869768
-0.931917
-1.01868
-1.12548
-1.24106
-1.35289
-1.45049
-1.52815
-1.5849
-1.62509
-1.65048
-1.68421
-1.68483
-0.789697
-0.86694
-0.961711
-1.06827
-1.17669
-1.27456
-1.35361
-1.41165
-1.45087
-1.47601
-1.49262
-1.50779
-1.52159
-1.53561
-1.5378
-0.733361
-0.778904
-0.819824
-0.85237
-0.875675
-0.890391
-0.898661
-0.903129
-0.905943
-0.908852
-0.913301
-0.922202
-0.935317
-0.946684
-0.949192
-0.649781
-0.668285
-0.681303
-0.69028
-0.697189
-0.70317
-0.708494
-0.713033
-0.716684
-0.71989
-0.723641
-0.730093
-0.740284
-0.748279
-0.748077
-0.585618
-0.60084
-0.615133
-0.629157
-0.642343
-0.654102
-0.663889
-0.671545
-0.677318
-0.682038
-0.687029
-0.694174
-0.704591
-0.712675
-0.711633
-0.5419
-0.551527
-0.563834
-0.57622
-0.587529
-0.597676
-0.606729
-0.614865
-0.622336
-0.629657
-0.637739
-0.647837
-0.660515
-0.670334
-0.669481
-0.494221
-0.498752
-0.506032
-0.513998
-0.522186
-0.531032
-0.540673
-0.551106
-0.562217
-0.574025
-0.586886
-0.601454
-0.61765
-0.630033
-0.62984
-0.452021
-0.448039
-0.451419
-0.456501
-0.463387
-0.472737
-0.484718
-0.499245
-0.515982
-0.53457
-0.554964
-0.577033
-0.599476
-0.616308
-0.617659
-0.40293
-0.400494
-0.401416
-0.403804
-0.408776
-0.417564
-0.430895
-0.449159
-0.471899
-0.498554
-0.528939
-0.563098
-0.598352
-0.626188
-0.63353
-0.369528
-0.359065
-0.355546
-0.353599
-0.354831
-0.361366
-0.375256
-0.398037
-0.428953
-0.46568
-0.510043
-0.562604
-0.617265
-0.659512
-0.674677
-0.329627
-0.318691
-0.310929
-0.303109
-0.296428
-0.294678
-0.300577
-0.322761
-0.358582
-0.399083
-0.445162
-0.518244
-0.621867
-0.708023
-0.749456
-0.302425
-0.28376
-0.275313
-0.26209
-0.249498
-0.243507
-0.245867
-0.275551
-0.339017
-0.389865
-0.454944
-0.544398
-0.704686
-0.802164
-0.838907
-0.263829
-0.236799
-0.231582
-0.213169
-0.170767
-0.132235
-0.0605518
-0.0663697
-0.154794
-0.174633
-0.112551
-0.143363
-0.608597
-0.898387
-0.927838
0.0085286
0.0189301
0.15312
0.238547
0.285826
0.290101
0.245144
0.146402
-0.00131609
-0.18093
-0.364147
-0.520161
-0.62299
-0.660882
-0.642336
-1.68153
-1.67625
-1.6376
-1.60735
-1.56095
-1.49629
-1.40886
-1.29965
-1.17463
-1.04458
-0.922606
-0.820633
-0.742343
-0.680375
-0.623184
-1.53426
-1.52564
-1.50546
-1.48593
-1.46426
-1.44004
-1.40594
-1.35633
-1.28648
-1.19437
-1.0827
-0.9603
-0.839414
-0.729828
-0.635553
-0.945911
-0.936926
-0.91938
-0.900473
-0.885243
-0.87366
-0.862683
-0.85085
-0.83639
-0.817144
-0.790506
-0.754298
-0.707779
-0.651993
-0.590033
-0.744951
-0.738786
-0.724721
-0.708819
-0.696235
-0.685661
-0.674847
-0.662825
-0.649162
-0.633946
-0.617243
-0.598625
-0.576849
-0.550061
-0.516784
-0.708589
-0.703291
-0.689133
-0.672973
-0.659705
-0.647953
-0.635776
-0.621882
-0.605461
-0.586243
-0.564358
-0.54028
-0.514577
-0.487861
-0.459958
-0.666521
-0.661075
-0.645202
-0.626775
-0.610559
-0.595751
-0.581061
-0.5656
-0.548875
-0.530585
-0.510521
-0.488595
-0.464902
-0.440439
-0.417867
-0.627189
-0.621493
-0.603381
-0.581607
-0.560981
-0.54138
-0.522157
-0.502986
-0.48386
-0.46484
-0.445937
-0.427081
-0.408019
-0.389038
-0.372547
-0.615099
-0.60808
-0.585687
-0.557897
-0.530064
-0.503095
-0.477099
-0.452193
-0.428734
-0.406948
-0.386978
-0.368851
-0.352239
-0.336901
-0.324946
-0.633189
-0.622765
-0.590587
-0.550428
-0.510296
-0.472386
-0.437345
-0.405774
-0.377533
-0.352889
-0.33203
-0.314722
-0.300369
-0.288311
-0.280014
-0.673908
-0.653509
-0.601658
-0.543822
-0.488949
-0.437448
-0.392743
-0.353984
-0.321175
-0.294911
-0.274806
-0.260391
-0.249954
-0.242547
-0.239617
-0.780149
-0.74101
-0.63479
-0.540855
-0.461678
-0.391832
-0.337216
-0.297501
-0.26099
-0.233498
-0.216348
-0.206151
-0.201161
-0.199412
-0.200337
-0.891712
-0.788963
-0.56342
-0.48838
-0.42382
-0.323696
-0.277819
-0.230488
-0.180613
-0.160626
-0.148417
-0.149866
-0.150937
-0.157524
-0.164731
-1.38696
-1.1908
-0.575539
-0.523518
-0.376695
-0.217427
-0.17518
-0.190052
-0.126178
-0.101983
-0.104213
-0.106064
-0.113709
-0.128021
-0.146405
-8.80414
-8.15529
-7.56646
-6.94145
-6.26264
-5.52173
-4.7382
-3.93872
-3.15646
-2.42844
-1.78953
-1.26438
-0.860677
-0.568274
-0.371332
-0.256114
-1.17446
-1.32053
-1.36208
-1.43721
-1.52159
-1.58294
-1.60825
-1.5877
-1.51236
-1.37938
-1.19646
-0.982208
-0.761406
-0.566091
-0.812608
-1.18411
-1.02675
-0.995325
-1.02503
-1.05148
-1.06364
-1.06614
-1.05891
-1.03846
-0.999832
-0.937459
-0.847343
-0.730196
-0.603025
-2.16855
-2.17262
-1.91957
-1.85171
-1.79368
-1.71316
-1.61644
-1.50967
-1.39353
-1.26937
-1.14025
-1.00957
-0.879536
-0.749976
-0.627417
-2.07391
-1.78677
-1.62764
-1.60747
-1.56489
-1.50731
-1.44272
-1.37129
-1.29066
-1.19991
-1.09917
-0.989562
-0.873446
-0.753388
-0.63739
-1.16119
-0.865532
-0.875499
-0.898001
-0.897624
-0.899049
-0.902429
-0.902474
-0.895618
-0.879596
-0.852113
-0.811023
-0.755043
-0.683904
-0.602854
-0.608747
-0.518064
-0.570466
-0.575538
-0.580832
-0.596098
-0.615759
-0.634829
-0.650848
-0.661611
-0.664566
-0.65704
-0.636547
-0.600766
-0.55011
-0.558174
-0.553462
-0.570394
-0.558423
-0.55769
-0.562334
-0.569632
-0.577654
-0.585035
-0.590073
-0.590888
-0.585474
-0.571737
-0.547376
-0.509814
-0.581802
-0.588546
-0.584173
-0.573672
-0.570096
-0.566768
-0.565252
-0.564973
-0.564763
-0.563287
-0.55924
-0.551201
-0.537608
-0.516856
-0.486219
-0.583011
-0.584013
-0.574679
-0.566679
-0.560781
-0.554401
-0.549696
-0.546156
-0.542834
-0.538747
-0.532921
-0.524243
-0.511444
-0.493272
-0.466847
-0.578825
-0.575498
-0.565777
-0.556904
-0.549114
-0.541994
-0.535877
-0.530462
-0.525181
-0.519339
-0.512171
-0.502806
-0.490209
-0.47334
-0.449617
-0.570664
-0.56577
-0.556294
-0.546438
-0.538377
-0.53157
-0.524875
-0.518521
-0.512186
-0.505299
-0.497215
-0.487235
-0.474553
-0.458386
-0.436805
-0.556165
-0.551218
-0.542327
-0.532745
-0.525501
-0.519294
-0.512601
-0.506135
-0.499635
-0.492581
-0.484399
-0.474487
-0.462177
-0.446862
-0.426984
-0.539755
-0.535328
-0.527197
-0.518447
-0.511882
-0.505973
-0.49951
-0.493268
-0.486952
-0.480099
-0.472194
-0.462685
-0.450948
-0.436407
-0.417564
-0.526147
-0.522216
-0.514661
-0.506416
-0.499634
-0.493492
-0.487343
-0.481362
-0.475249
-0.468622
-0.461023
-0.451932
-0.440752
-0.42692
-0.409088
-0.515597
-0.511908
-0.504624
-0.496426
-0.488992
-0.48256
-0.476783
-0.470975
-0.465004
-0.458572
-0.451266
-0.442606
-0.432059
-0.419133
-0.402669
-0.505657
-0.50206
-0.494955
-0.486788
-0.479133
-0.472831
-0.467419
-0.461716
-0.455876
-0.449641
-0.442625
-0.434385
-0.424439
-0.412359
-0.397027
-0.495073
-0.49161
-0.4848
-0.476924
-0.469605
-0.463751
-0.45865
-0.453064
-0.4474
-0.441391
-0.434668
-0.426817
-0.417376
-0.405931
-0.391408
-0.484426
-0.481205
-0.474821
-0.467446
-0.460692
-0.45523
-0.450297
-0.444884
-0.43945
-0.433701
-0.427292
-0.419835
-0.410886
-0.400042
-0.386302
-0.475108
-0.47217
-0.466225
-0.459351
-0.453016
-0.447524
-0.442501
-0.43733
-0.432157
-0.426682
-0.420599
-0.413545
-0.405101
-0.394887
-0.382015
-0.467761
-0.465046
-0.459434
-0.452887
-0.446669
-0.440794
-0.435567
-0.43068
-0.425719
-0.420471
-0.414674
-0.407986
-0.40001
-0.390385
-0.378346
-0.461692
-0.459108
-0.45371
-0.447325
-0.441078
-0.434903
-0.429632
-0.425006
-0.420165
-0.415076
-0.4095
-0.403106
-0.395512
-0.386359
-0.374982
-0.456021
-0.453518
-0.448289
-0.442027
-0.435809
-0.429638
-0.424536
-0.420115
-0.415343
-0.410381
-0.404988
-0.398841
-0.391574
-0.382814
-0.371906
-0.45029
-0.447877
-0.442842
-0.436768
-0.430726
-0.424815
-0.419997
-0.41574
-0.411053
-0.406233
-0.401023
-0.395116
-0.388165
-0.379803
-0.369133
-0.444746
-0.442458
-0.437659
-0.431856
-0.426105
-0.420547
-0.415959
-0.41179
-0.407221
-0.402569
-0.397564
-0.391919
-0.385314
-0.377455
-0.367493
-0.439873
-0.437734
-0.433191
-0.4277
-0.422261
-0.416996
-0.412415
-0.408204
-0.403807
-0.399344
-0.394549
-0.389159
-0.382863
-0.375393
-0.365831
-0.436109
-0.43411
-0.429801
-0.424586
-0.419385
-0.414246
-0.409442
-0.4051
-0.400908
-0.396614
-0.392005
-0.386845
-0.380825
-0.373702
-0.364662
-0.433345
-0.431454
-0.427327
-0.422313
-0.417241
-0.412103
-0.407047
-0.402625
-0.398634
-0.394453
-0.389987
-0.385013
-0.379224
-0.37237
-0.363611
-0.431292
-0.429472
-0.425482
-0.420599
-0.415583
-0.410413
-0.405238
-0.400847
-0.397009
-0.392886
-0.388526
-0.3837
-0.378109
-0.37152
-0.363177
-0.429541
-0.427773
-0.423899
-0.419122
-0.414159
-0.409014
-0.403888
-0.399629
-0.395903
-0.391818
-0.387543
-0.382833
-0.377396
-0.370999
-0.362855
-0.428007
-0.426289
-0.422531
-0.417867
-0.412993
-0.407942
-0.402977
-0.398876
-0.395225
-0.391178
-0.38699
-0.382404
-0.377153
-0.371047
-0.363787
-0.426556
-0.4249
-0.421272
-0.416755
-0.412026
-0.407144
-0.402398
-0.398439
-0.394832
-0.390848
-0.386754
-0.382287
-0.377197
-0.371251
-0.364348
-0.425542
-0.42396
-0.420473
-0.41612
-0.411565
-0.406864
-0.402303
-0.39835
-0.3947
-0.390789
-0.386777
-0.382406
-0.377433
-0.371554
-0.365034
-0.424916
-0.423412
-0.420068
-0.415897
-0.411527
-0.407009
-0.402577
-0.398513
-0.394773
-0.390989
-0.387076
-0.382805
-0.377954
-0.372123
-0.365397
-0.425063
-0.423634
-0.420419
-0.416407
-0.412186
-0.407778
-0.40337
-0.399097
-0.395251
-0.391597
-0.387762
-0.383585
-0.37886
-0.373183
-0.366314
-0.425531
-0.424163
-0.421061
-0.417191
-0.413093
-0.40877
-0.404366
-0.39997
-0.396121
-0.392639
-0.38891
-0.384889
-0.380391
-0.375132
-0.369189
-0.426606
-0.425289
-0.42228
-0.418517
-0.414494
-0.410201
-0.405771
-0.40131
-0.3975
-0.394131
-0.390458
-0.386536
-0.382143
-0.376957
-0.37083
-0.427665
-0.426387
-0.423463
-0.419799
-0.415852
-0.411621
-0.407232
-0.402851
-0.399172
-0.395929
-0.392329
-0.388515
-0.38423
-0.379158
-0.373703
-0.429128
-0.427892
-0.42505
-0.421481
-0.417607
-0.413446
-0.409126
-0.404873
-0.401334
-0.398193
-0.394682
-0.391015
-0.386934
-0.382091
-0.377192
-0.430705
-0.42951
-0.426753
-0.423288
-0.419514
-0.41547
-0.411286
-0.407235
-0.403864
-0.40084
-0.397443
-0.393916
-0.389988
-0.385227
-0.380052
-0.432727
-0.431582
-0.42892
-0.425576
-0.421923
-0.418028
-0.414007
-0.41016
-0.406907
-0.403954
-0.40067
-0.397265
-0.393472
-0.388893
-0.383677
-0.435557
-0.43446
-0.43189
-0.428661
-0.425134
-0.421381
-0.417517
-0.413829
-0.410604
-0.407669
-0.404527
-0.401275
-0.397684
-0.393478
-0.389159
-0.43903
-0.437983
-0.435508
-0.43241
-0.429029
-0.425447
-0.42175
-0.418206
-0.414939
-0.411991
-0.408984
-0.405817
-0.402259
-0.397971
-0.393343
-0.444113
-0.443105
-0.44071
-0.437699
-0.434415
-0.430904
-0.427263
-0.423696
-0.420252
-0.417186
-0.414231
-0.411047
-0.40745
-0.403042
-0.398758
-0.449822
-0.448844
-0.446521
-0.443604
-0.440425
-0.437015
-0.433446
-0.429892
-0.426335
-0.423221
-0.420318
-0.417091
-0.413435
-0.408844
-0.403912
-0.457533
-0.456572
-0.454299
-0.451416
-0.448266
-0.444818
-0.44118
-0.437461
-0.433705
-0.430445
-0.427474
-0.424108
-0.420344
-0.415633
-0.410257
-0.465649
-0.464693
-0.462459
-0.459613
-0.456505
-0.453065
-0.449412
-0.445634
-0.441808
-0.438501
-0.435476
-0.431986
-0.428104
-0.423301
-0.417299
-0.475319
-0.474365
-0.472159
-0.469315
-0.466191
-0.462667
-0.458907
-0.454959
-0.450999
-0.447569
-0.444427
-0.440826
-0.436927
-0.432356
-0.426964
-0.484984
-0.484027
-0.481846
-0.479013
-0.475896
-0.472345
-0.46855
-0.464541
-0.46055
-0.457062
-0.453811
-0.450069
-0.445999
-0.441236
-0.434872
-0.495048
-0.4941
-0.491951
-0.489143
-0.486033
-0.482461
-0.478628
-0.47456
-0.470531
-0.466965
-0.463593
-0.459748
-0.455635
-0.451071
-0.446575
-0.505094
-0.504159
-0.502047
-0.49927
-0.496185
-0.492616
-0.488785
-0.484703
-0.480674
-0.477027
-0.473516
-0.469519
-0.465184
-0.460088
-0.453791
-0.51468
-0.513777
-0.511721
-0.509029
-0.506018
-0.502553
-0.498808
-0.49483
-0.490875
-0.487193
-0.483568
-0.479453
-0.474907
-0.469469
-0.462935
-0.52497
-0.524104
-0.522107
-0.519489
-0.516545
-0.513149
-0.509472
-0.505559
-0.501653
-0.497902
-0.494215
-0.490151
-0.485689
-0.48049
-0.474626
-0.534986
-0.534162
-0.532233
-0.529731
-0.526905
-0.523692
-0.520188
-0.516488
-0.512744
-0.509036
-0.505399
-0.501509
-0.497187
-0.492141
-0.48658
-0.546325
-0.545546
-0.543682
-0.541264
-0.538517
-0.535391
-0.531966
-0.52834
-0.524629
-0.520841
-0.517169
-0.513321
-0.508895
-0.503503
-0.497258
-0.557645
-0.556908
-0.555116
-0.55282
-0.550204
-0.547273
-0.54403
-0.540615
-0.537053
-0.533343
-0.529779
-0.526128
-0.521853
-0.516693
-0.512621
-0.571163
-0.570462
-0.568724
-0.566496
-0.563942
-0.561073
-0.557874
-0.55449
-0.550923
-0.547179
-0.543635
-0.540039
-0.535725
-0.53011
-0.524286
-0.585764
-0.585086
-0.583397
-0.581239
-0.578762
-0.575992
-0.572878
-0.569578
-0.566053
-0.562339
-0.558826
-0.555236
-0.550842
-0.545116
-0.539634
-0.602659
-0.602007
-0.600362
-0.598257
-0.595826
-0.593093
-0.58999
-0.586677
-0.583107
-0.579349
-0.575785
-0.572084
-0.56747
-0.561325
-0.554463
-0.621724
-0.621086
-0.619478
-0.61741
-0.615019
-0.612308
-0.609213
-0.605876
-0.602257
-0.598435
-0.594768
-0.590857
-0.585885
-0.579249
-0.571729
-0.643338
-0.642715
-0.641143
-0.639117
-0.63676
-0.63407
-0.630973
-0.627602
-0.623915
-0.620008
-0.616192
-0.612031
-0.606702
-0.599646
-0.591981
-0.668129
-0.667516
-0.665977
-0.66397
-0.661628
-0.658911
-0.655772
-0.6523
-0.648489
-0.644409
-0.640336
-0.635775
-0.629898
-0.622031
-0.613115
-0.695689
-0.695091
-0.69359
-0.69163
-0.689329
-0.686644
-0.68351
-0.679998
-0.676086
-0.671825
-0.667415
-0.662328
-0.655748
-0.646946
-0.636941
-0.727742
-0.72715
-0.725674
-0.723712
-0.721395
-0.718627
-0.715386
-0.711677
-0.707516
-0.70289
-0.697935
-0.692086
-0.684545
-0.674483
-0.662573
-0.763369
-0.762785
-0.761342
-0.759409
-0.757113
-0.754343
-0.751058
-0.747233
-0.742848
-0.737828
-0.732185
-0.725351
-0.716526
-0.704782
-0.690713
-0.804756
-0.804182
-0.802764
-0.800829
-0.798502
-0.795624
-0.792172
-0.788045
-0.783226
-0.77754
-0.770877
-0.762663
-0.752077
-0.738005
-0.721118
-0.852078
-0.851504
-0.850108
-0.84817
-0.845809
-0.842829
-0.839188
-0.834721
-0.829352
-0.82279
-0.814764
-0.80471
-0.79176
-0.774536
-0.754247
-0.907225
-0.906657
-0.905275
-0.90331
-0.900861
-0.897684
-0.893713
-0.888692
-0.882478
-0.874644
-0.864745
-0.85221
-0.836112
-0.814754
-0.790126
-0.973679
-0.973112
-0.971746
-0.96973
-0.967125
-0.963621
-0.959091
-0.953162
-0.945569
-0.935713
-0.922957
-0.906706
-0.886005
-0.858913
-0.828136
-1.04969
-1.04914
-1.04776
-1.04567
-1.04288
-1.03902
-1.03384
-1.02683
-1.01751
-1.00506
-0.988563
-0.967314
-0.940299
-0.905432
-0.865758
-1.15899
-1.15844
-1.15709
-1.15479
-1.15133
-1.14621
-1.13891
-1.12867
-1.11469
-1.09591
-1.07124
-1.04012
-1.00191
-0.95505
-0.903294
-1.25927
-1.25871
-1.25712
-1.25454
-1.25071
-1.24497
-1.2365
-1.22422
-1.2068
-1.1827
-1.15039
-1.10926
-1.0591
-0.999302
-0.933215
-1.54086
-1.54065
-1.53875
-1.53411
-1.52497
-1.50991
-1.48713
-1.45477
-1.41116
-1.35545
-1.28806
-1.21148
-1.12924
-1.04415
-0.961099
-1.52292
-1.52149
-1.52204
-1.51618
-1.506
-1.49099
-1.46952
-1.4395
-1.39884
-1.34607
-1.28099
-1.20579
-1.12405
-1.03907
-0.955501
-3.00928
-3.08615
-3.02618
-2.94401
-2.84055
-2.70586
-2.53311
-2.32311
-2.08341
-1.82896
-1.58006
-1.35854
-1.179
-1.04155
-0.938447
15.6755
15.016
14.1791
13.3659
12.4929
11.5302
10.4981
9.43032
8.36443
7.3419
6.40383
5.58252
4.89337
4.33202
3.89244
6.74355
5.90978
5.94829
6.0637
6.10998
6.1106
6.08239
6.01298
5.88553
5.68835
5.4183
5.08376
4.70502
4.30931
3.93653
4.60638
4.29412
4.51247
4.57715
4.58411
4.59075
4.59889
4.59647
4.57677
4.53461
4.46308
4.35385
4.20001
3.9994
3.76953
3.99363
3.9885
4.20802
4.22897
4.23651
4.25143
4.26238
4.25929
4.23819
4.19588
4.12973
4.03803
3.91933
3.7712
3.59993
3.36465
3.64576
3.78315
3.78612
3.80803
3.83636
3.86115
3.87862
3.88584
3.8776
3.84804
3.79225
3.70732
3.59184
3.45108
3.44883
3.74935
3.73727
3.71616
3.7162
3.71162
3.7009
3.68679
3.66932
3.6461
3.61356
3.56718
3.502
3.41313
3.30014
3.60799
3.70346
3.64934
3.6438
3.63712
3.61832
3.59197
3.56132
3.52657
3.48707
3.44176
3.38881
3.32542
3.24754
3.15079
3.38844
3.39552
3.37754
3.38878
3.38732
3.37837
3.36415
3.34529
3.32136
3.29175
3.25549
3.21117
3.15705
3.09102
3.00902
3.10396
3.0987
3.10319
3.11353
3.11558
3.11598
3.11277
3.10555
3.09412
3.07795
3.05596
3.02658
2.98798
2.93883
2.87887
2.87877
2.8784
2.88765
2.89479
2.89904
2.90322
2.90434
2.90221
2.89677
2.88765
2.87395
2.85437
2.82719
2.79079
2.7455
2.69434
2.69767
2.70688
2.7144
2.72061
2.72594
2.72894
2.72949
2.72741
2.7223
2.71344
2.69973
2.67964
2.6514
2.61585
2.53392
2.53874
2.5479
2.55698
2.56412
2.56954
2.57362
2.57593
2.57616
2.57396
2.56872
2.55948
2.54489
2.52316
2.49571
2.3963
2.40139
2.41032
2.41979
2.42661
2.43173
2.43634
2.43957
2.44115
2.44081
2.43811
2.43229
2.42224
2.40638
2.38681
2.27746
2.28217
2.29048
2.29927
2.30532
2.31012
2.31489
2.31849
2.32072
2.32142
2.32025
2.31659
2.30954
2.29751
2.2818
2.17032
2.17446
2.18205
2.19006
2.19584
2.20072
2.20547
2.20917
2.21175
2.21307
2.21283
2.21051
2.20535
2.19588
2.18281
2.07027
2.07401
2.08117
2.08891
2.09527
2.10061
2.10524
2.10903
2.11191
2.11374
2.11427
2.11311
2.10966
2.10286
2.09425
1.97715
1.98073
1.98772
1.99555
2.00257
2.0082
2.01266
2.01659
2.01977
2.02203
2.02322
2.023
2.02089
2.01591
2.00999
1.89192
1.89544
1.90227
1.91006
1.91719
1.92267
1.92693
1.93099
1.93436
1.93692
1.93854
1.93895
1.93769
1.93375
1.92882
1.81427
1.81764
1.82416
1.83163
1.83836
1.84344
1.84753
1.85164
1.85509
1.85781
1.85973
1.8606
1.86008
1.85725
1.85397
1.74247
1.74558
1.75168
1.75865
1.76486
1.76964
1.7737
1.77779
1.78124
1.78406
1.7862
1.78746
1.78757
1.78572
1.78387
1.67449
1.67732
1.68301
1.68952
1.69538
1.70033
1.70459
1.70857
1.71198
1.71485
1.71714
1.7187
1.71932
1.71826
1.71746
1.6092
1.61183
1.61722
1.62346
1.62929
1.6347
1.63923
1.64305
1.64645
1.64939
1.6518
1.65358
1.65458
1.65411
1.65389
1.54689
1.54941
1.55463
1.56075
1.56666
1.5724
1.57702
1.5807
1.58414
1.58715
1.58967
1.59163
1.5929
1.59285
1.59288
1.48804
1.49049
1.49556
1.5016
1.50751
1.51326
1.51776
1.52133
1.52483
1.5279
1.53052
1.53262
1.53411
1.53448
1.53519
1.43268
1.43505
1.43995
1.44582
1.45159
1.45711
1.46137
1.46487
1.46841
1.47152
1.47422
1.47647
1.47818
1.47891
1.48116
1.38033
1.38258
1.38725
1.39287
1.39837
1.40357
1.40764
1.4111
1.41464
1.41776
1.42051
1.42288
1.42483
1.42587
1.42871
1.33009
1.33219
1.33662
1.34195
1.34715
1.35207
1.35615
1.3597
1.36317
1.36625
1.369
1.3714
1.37344
1.37455
1.37749
1.2813
1.28326
1.28746
1.29252
1.29749
1.30229
1.3066
1.31033
1.31368
1.31671
1.31945
1.32189
1.32403
1.32535
1.32878
1.23367
1.23553
1.23956
1.24442
1.24927
1.2541
1.25872
1.26259
1.26582
1.26884
1.27161
1.27411
1.27639
1.27792
1.28151
1.18752
1.1893
1.1932
1.19793
1.20273
1.20761
1.2124
1.21628
1.2194
1.22244
1.22522
1.22774
1.23009
1.23174
1.23504
1.14275
1.14449
1.14828
1.15292
1.1577
1.1626
1.16739
1.17119
1.17425
1.17731
1.18008
1.18259
1.1849
1.18636
1.1884
1.09971
1.1014
1.10508
1.10962
1.11433
1.11915
1.12381
1.12747
1.13047
1.13354
1.13632
1.13886
1.14125
1.143
1.14414
1.05809
1.05973
1.06329
1.0677
1.0723
1.07698
1.08145
1.08498
1.08798
1.09108
1.0939
1.09653
1.09908
1.10132
1.10257
1.01777
1.01934
1.02276
1.02701
1.03144
1.03593
1.04019
1.04365
1.04666
1.04972
1.05252
1.05515
1.05771
1.06017
1.06024
0.978091
0.979577
0.982862
0.986937
0.991176
0.995481
0.999596
1.00313
1.00622
1.00919
1.01192
1.01447
1.01689
1.01943
1.01932
0.938939
0.940348
0.943498
0.947404
0.951472
0.955632
0.959681
0.963391
0.966591
0.969451
0.972123
0.974649
0.97703
0.979701
0.980881
0.900212
0.901555
0.904589
0.908347
0.912285
0.916357
0.920411
0.924309
0.927583
0.930332
0.932984
0.935502
0.93787
0.940474
0.941342
0.861731
0.863026
0.865967
0.869622
0.873483
0.877536
0.881638
0.885672
0.888968
0.891645
0.894298
0.896797
0.899123
0.901589
0.902286
0.823896
0.825153
0.828015
0.83158
0.835379
0.839406
0.843523
0.847574
0.85082
0.853448
0.856132
0.858663
0.861078
0.863713
0.864251
0.786368
0.787596
0.790389
0.79389
0.797649
0.801672
0.805792
0.80982
0.813019
0.815658
0.818408
0.82101
0.82354
0.826473
0.82701
0.749538
0.750735
0.753456
0.756878
0.760572
0.764533
0.768587
0.772504
0.775617
0.778254
0.781046
0.783697
0.786275
0.789342
0.790243
0.712754
0.713923
0.716577
0.719937
0.723576
0.727495
0.731492
0.73533
0.738417
0.741108
0.743954
0.746661
0.74928
0.752351
0.753383
0.676669
0.677799
0.680372
0.683635
0.687174
0.690983
0.694859
0.698571
0.701642
0.704385
0.707249
0.710006
0.712721
0.715922
0.716743
0.640617
0.641707
0.644201
0.647372
0.650813
0.654524
0.658302
0.661948
0.665115
0.667978
0.67086
0.673684
0.676527
0.680014
0.681227
0.604727
0.605777
0.608193
0.611266
0.614602
0.618211
0.621899
0.625509
0.628825
0.631807
0.634653
0.637496
0.640349
0.643911
0.645566
0.5689
0.56991
0.57225
0.575224
0.578458
0.581966
0.585586
0.589188
0.59266
0.595722
0.598496
0.601322
0.604117
0.607497
0.609256
0.532897
0.533875
0.53615
0.539045
0.542202
0.545653
0.549254
0.552902
0.556522
0.55965
0.56239
0.565263
0.568121
0.571554
0.573469
0.496998
0.497946
0.500162
0.50298
0.506068
0.509462
0.51305
0.516726
0.520428
0.523577
0.526317
0.529278
0.53228
0.535968
0.538357
0.460677
0.461604
0.463773
0.466544
0.469595
0.472981
0.476592
0.480326
0.484085
0.487254
0.490028
0.493084
0.496209
0.500096
0.50272
0.42439
0.425295
0.427414
0.430122
0.43312
0.43646
0.44005
0.443767
0.447494
0.45062
0.453403
0.456515
0.45973
0.464031
0.468207
0.387422
0.38831
0.390387
0.393055
0.396023
0.399349
0.402937
0.406651
0.41034
0.41343
0.416219
0.419341
0.422468
0.426319
0.432669
0.350247
0.351115
0.353145
0.355758
0.358677
0.361952
0.365493
0.369148
0.372756
0.375796
0.378599
0.381768
0.385004
0.388564
0.396011
0.312405
0.313253
0.315238
0.317802
0.320678
0.323915
0.327418
0.33103
0.334578
0.337616
0.340469
0.343686
0.347062
0.350377
0.357441
0.274168
0.27499
0.276921
0.279418
0.282226
0.285386
0.288811
0.29234
0.295817
0.298883
0.301827
0.305122
0.308765
0.31247
0.320374
0.234895
0.235693
0.237575
0.240014
0.242765
0.245866
0.249233
0.25271
0.256159
0.259325
0.262394
0.265734
0.269493
0.273208
0.280975
0.194738
0.19551
0.197338
0.199706
0.202383
0.205402
0.208691
0.212101
0.215527
0.218818
0.222009
0.225368
0.229237
0.233052
0.240207
0.153318
0.154061
0.155837
0.158137
0.160745
0.163691
0.16692
0.170298
0.173751
0.17722
0.180575
0.184026
0.188125
0.192391
0.199889
0.110476
0.111193
0.112919
0.115157
0.117702
0.12059
0.123779
0.12716
0.130685
0.134359
0.137916
0.141557
0.146025
0.150971
0.15926
0.0659659
0.0666584
0.0683371
0.070513
0.073
0.0758342
0.0789984
0.0824005
0.0860185
0.0898839
0.093638
0.0975058
0.102355
0.107915
0.116884
0.0193079
0.019979
0.0216144
0.0237414
0.0261845
0.0289934
0.0321603
0.0356193
0.0393532
0.0434046
0.0473612
0.0515022
0.0567714
0.062982
0.0731065
-0.0295591
-0.0289105
-0.0273197
-0.0252494
-0.022855
-0.0200852
-0.0169223
-0.0134187
-0.00957664
-0.0053598
-0.00118115
0.00329978
0.00907222
0.0159561
0.0275455
-0.0815732
-0.0809368
-0.0793768
-0.077326
-0.0749395
-0.072139
-0.0689142
-0.0652844
-0.0612659
-0.0568149
-0.052328
-0.0473857
-0.040967
-0.0333088
-0.0199517
-0.136321
-0.135702
-0.134182
-0.132174
-0.129816
-0.127025
-0.12377
-0.120053
-0.115878
-0.111194
-0.10634
-0.100825
-0.0935813
-0.0849989
-0.0697032
-0.195026
-0.194422
-0.192934
-0.190947
-0.18859
-0.185758
-0.182416
-0.17854
-0.174125
-0.169098
-0.163725
-0.157431
-0.149074
-0.139186
-0.122089
-0.25797
-0.257381
-0.255929
-0.253972
-0.251622
-0.248759
-0.24533
-0.24128
-0.236576
-0.231103
-0.225018
-0.217662
-0.207766
-0.195788
-0.175663
-0.326588
-0.326014
-0.324592
-0.322647
-0.320273
-0.317329
-0.313744
-0.309423
-0.304296
-0.298186
-0.291121
-0.282363
-0.270552
-0.256085
-0.232855
-0.402091
-0.401533
-0.400148
-0.398217
-0.395814
-0.392768
-0.388979
-0.384299
-0.378598
-0.371608
-0.363194
-0.352554
-0.338248
-0.320545
-0.293349
-0.48605
-0.485509
-0.484154
-0.482223
-0.47976
-0.476562
-0.472479
-0.467293
-0.460781
-0.452549
-0.442241
-0.428992
-0.411261
-0.389117
-0.356435
-0.583109
-0.582581
-0.581255
-0.579288
-0.576675
-0.573151
-0.568497
-0.562382
-0.554448
-0.544123
-0.530794
-0.513548
-0.49078
-0.462383
-0.422457
-0.691794
-0.691282
-0.689957
-0.687931
-0.685137
-0.681249
-0.675918
-0.668671
-0.658917
-0.645829
-0.628433
-0.605718
-0.575992
-0.538927
-0.486726
-0.836514
-0.836009
-0.834711
-0.832447
-0.828965
-0.823751
-0.816223
-0.805608
-0.790997
-0.771267
-0.745218
-0.712028
-0.670472
-0.621357
-0.5559
-0.976679
-0.976162
-0.97462
-0.972021
-0.968082
-0.962086
-0.953157
-0.940142
-0.921612
-0.895901
-0.861332
-0.817116
-0.762469
-0.699869
-0.622227
-1.30176
-1.3015
-1.29955
-1.29475
-1.28529
-1.26964
-1.24594
-1.21218
-1.16657
-1.10809
-1.03697
-0.955641
-0.866862
-0.77624
-0.681271
-1.33659
-1.33529
-1.3359
-1.32983
-1.31912
-1.30306
-1.27988
-1.24725
-1.20291
-1.14518
-1.07368
-0.990645
-0.898902
-0.803667
-0.708412
-2.88328
-2.95972
-2.89916
-2.81599
-2.71051
-2.57232
-2.39446
-2.1776
-1.92954
-1.66562
-1.40665
-1.17524
-0.9849
-0.834945
-0.716414
0.331701
1.22805
-0.369771
-0.0642351
0.103067
-0.536756
0.128677
1.93362
0.552104
0.331169
0.122152
1.24682
0.48186
-0.0976244
0.0192531
1.47576
-0.153989
-2.17373
-0.29903
0.270413
1.18437
0.504802
1.54851
0.826808
0.760559
2.35959
1.85941
0.0055526
1.17667
-0.159384
-6.70518
0.363246
-0.548752
-0.25875
1.72481
1.43
0.463156
-0.875693
0.914097
1.93136
0.884274
-0.341347
0.716354
1.02551
0.751742
0.220016
0.737074
0.608053
-0.385619
1.78034
1.0014
0.156311
0.0177362
2.70106
0.878953
3.49641
0.677729
-0.766782
0.693239
0.744415
1.68792
-1.15789
0.282172
-0.234504
1.47978
1.38039
0.142622
4.75509
0.416485
1.99662
1.19899
0.532702
0.330473
-0.354948
1.02285
0.363875
0.471768
1.05208
-0.322414
1.76299
1.41572
0.683288
0.700076
-0.192209
3.47876
0.10017
0.858749
0.461201
-0.336371
2.17289
0.46457
0.488195
-0.121813
1.07717
0.072115
1.00156
0.519628
1.52742
0.0785787
0.688702
1.90741
1.2081
1.14608
0.418538
-0.303916
-0.145366
0.918335