/*--------------------------------*- C++ -*----------------------------------*\
| =========                 |                                                 |
| \\      /  F ield         | OpenFOAM: The Open Source CFD Toolbox           |
|  \\    /   O peration     | Version:  2.3.0                                 |
|   \\  /    A nd           | Web:      www.OpenFOAM.org                      |
|    \\/     M anipulation  |                                                 |
\*---------------------------------------------------------------------------*/
FoamFile
{
    version     2.0;
    format      ascii;
    class       volVectorField;
    location    "450";
    object      U;
}
// * * * * * * * * * * * * * * * * * * * * * * * * * * * * * * * * * * * * * //

dimensions      [0 1 -1 0 0 0 0];

internalField   nonuniform List<vector> 
7991
(
(20.079 0.143881 -4.11796e-23)
(20.0815 0.157511 -4.41835e-22)
(20.0847 0.17346 1.93134e-21)
(20.0888 0.192314 -1.45081e-21)
(20.0936 0.213648 -1.02588e-20)
(20.0983 0.236573 2.5314e-20)
(20.1019 0.260008 -1.47795e-20)
(20.1032 0.282924 0)
(20.1011 0.304473 0)
(20.095 0.324009 -1.67873e-20)
(20.0844 0.341097 1.55518e-20)
(20.0691 0.355461 -1.97214e-20)
(20.0492 0.366845 1.81383e-20)
(20.0243 0.372388 0)
(19.9953 0.374952 0)
(20.065 0.141964 0)
(20.0625 0.150585 0)
(20.0588 0.158886 0)
(20.0537 0.167206 -3.77343e-21)
(20.0473 0.175724 7.84044e-21)
(20.0399 0.184507 7.03746e-22)
(20.0318 0.193464 -9.87176e-21)
(20.0233 0.202356 5.08255e-21)
(20.0145 0.210858 -7.18849e-21)
(20.0055 0.218633 -1.48842e-21)
(19.9964 0.225388 1.66777e-20)
(19.9872 0.230897 -1.34397e-20)
(19.9781 0.235009 4.63147e-21)
(19.9691 0.237614 0)
(19.9608 0.238603 1.10813e-35)
(20.0554 0.140256 0)
(20.0524 0.1475 0)
(20.0489 0.154484 8.23193e-21)
(20.045 0.16102 -8.05713e-21)
(20.0406 0.16693 -1.05475e-20)
(20.0355 0.172068 -1.46027e-21)
(20.03 0.176363 -1.41923e-21)
(20.024 0.179807 1.17279e-20)
(20.0178 0.182427 0)
(20.0113 0.18427 0)
(20.0047 0.185388 0)
(19.9982 0.185834 0)
(19.9918 0.185666 0)
(19.9857 0.184942 0)
(19.9797 0.183715 0)
(20.0475 0.135729 0)
(20.0436 0.140619 -4.23466e-21)
(20.0394 0.14517 4.18575e-21)
(20.0348 0.149231 0)
(20.03 0.152815 -1.06493e-20)
(20.025 0.155903 1.02302e-20)
(20.02 0.158485 -1.16399e-20)
(20.015 0.16056 2.31524e-20)
(20.0101 0.162137 -5.3094e-21)
(20.0053 0.163235 -5.91848e-21)
(20.0006 0.163879 0)
(19.9961 0.164098 0)
(19.9917 0.163924 0)
(19.9876 0.163392 -1.70518e-21)
(19.9837 0.162532 1.66979e-21)
(20.0422 0.131515 0)
(20.0386 0.135013 0)
(20.0349 0.138291 5.27365e-21)
(20.031 0.141089 4.63071e-22)
(20.027 0.143448 -5.44773e-21)
(20.023 0.145373 -6.15055e-21)
(20.019 0.146883 5.93654e-21)
(20.015 0.148002 0)
(20.011 0.148754 0)
(20.0071 0.149168 0)
(20.0034 0.14927 0)
(19.9997 0.149086 0)
(19.9962 0.148638 -3.62814e-21)
(19.9927 0.147951 3.5528e-21)
(19.9895 0.147043 -6.70813e-36)
(20.0383 0.127366 0)
(20.0349 0.129805 -2.6194e-21)
(20.0315 0.132125 2.58376e-21)
(20.028 0.134055 0)
(20.0245 0.135648 0)
(20.021 0.136921 6.26859e-21)
(20.0176 0.137893 -1.25564e-20)
(20.0142 0.138583 -3.39157e-22)
(20.0109 0.139008 -3.256e-22)
(20.0076 0.139184 -3.12363e-22)
(20.0044 0.139129 6.84318e-21)
(20.0014 0.138856 0)
(19.9984 0.13838 0)
(19.9955 0.137714 -1.91618e-21)
(19.9927 0.136872 1.90586e-21)
(20.0354 0.123721 0)
(20.0325 0.125425 0)
(20.0294 0.127099 0)
(20.0264 0.128479 0)
(20.0234 0.129598 0)
(20.0204 0.130472 0)
(20.0174 0.131115 0)
(20.0145 0.13154 0)
(20.0116 0.131759 0)
(20.0088 0.131783 0)
(20.0061 0.131622 0)
(20.0034 0.131284 0)
(20.0007 0.130779 0)
(19.9982 0.130114 0)
(19.9957 0.129299 0)
(20.0335 0.120297 -1.3606e-21)
(20.0308 0.121626 1.34706e-21)
(20.0281 0.122857 0)
(20.0254 0.123874 0)
(20.0227 0.124688 0)
(20.0201 0.12531 0)
(20.0175 0.12575 -6.79335e-21)
(20.0149 0.126017 6.72175e-21)
(20.0123 0.126118 0)
(20.0098 0.126059 0)
(20.0073 0.125845 -3.83909e-21)
(20.0049 0.12548 3.82925e-21)
(20.0025 0.124969 0)
(20.0002 0.124318 0)
(19.9979 0.123531 3.84676e-36)
(20.032 0.117169 1.3998e-21)
(20.0296 0.118344 -1.39334e-21)
(20.0272 0.119294 0)
(20.0248 0.120072 0)
(20.0224 0.120682 0)
(20.02 0.121136 -3.35525e-21)
(20.0177 0.121442 6.79456e-21)
(20.0153 0.121605 -7.02275e-21)
(20.013 0.12163 -1.29695e-22)
(20.0107 0.121518 3.69119e-21)
(20.0085 0.121272 3.94766e-21)
(20.0062 0.120892 -3.95386e-21)
(20.0041 0.12038 2.10592e-21)
(20.0019 0.11974 -1.02569e-21)
(19.9998 0.118974 -1.09125e-21)
(20.0308 0.114649 0)
(20.0287 0.115594 0)
(20.0265 0.11631 0)
(20.0244 0.116905 3.19209e-21)
(20.0223 0.117368 -3.17086e-21)
(20.0201 0.117702 0)
(20.018 0.117914 0)
(20.0158 0.118006 3.63748e-21)
(20.0137 0.117979 -3.64023e-21)
(20.0116 0.117833 -3.89522e-21)
(20.0095 0.117568 5.92473e-21)
(20.0074 0.117183 -2.02455e-21)
(20.0053 0.116675 0)
(20.0033 0.116044 1.11299e-21)
(20.0014 0.115296 -1.11971e-21)
(20.03 0.112373 -7.30194e-22)
(20.028 0.113197 2.24147e-21)
(20.0261 0.113762 -1.50599e-21)
(20.0242 0.114231 3.2265e-21)
(20.0222 0.11459 -3.21389e-21)
(20.0203 0.11484 3.4393e-21)
(20.0183 0.114984 -3.43886e-21)
(20.0163 0.115026 0)
(20.0143 0.114961 0)
(20.0123 0.114791 -1.97231e-21)
(20.0103 0.114515 1.98315e-21)
(20.0084 0.114129 0)
(20.0064 0.113627 0)
(20.0046 0.113007 0)
(20.0027 0.11227 0)
(20.0293 0.110453 0)
(20.0276 0.111128 0)
(20.0258 0.111581 -1.57636e-21)
(20.0241 0.111954 3.19431e-21)
(20.0223 0.112241 -1.6206e-21)
(20.0205 0.112429 0)
(20.0186 0.112522 0)
(20.0167 0.112527 0)
(20.0149 0.112434 1.91359e-21)
(20.013 0.112243 -1.92458e-21)
(20.0111 0.111961 -2.05108e-21)
(20.0092 0.111579 2.06504e-21)
(20.0074 0.111087 0)
(20.0056 0.110474 0)
(20.0039 0.109743 0)
(20.0288 0.108853 0)
(20.0272 0.109333 0)
(20.0257 0.109699 1.58641e-21)
(20.024 0.10999 -1.58088e-21)
(20.0224 0.110229 -1.67995e-21)
(20.0207 0.110385 3.41301e-21)
(20.0189 0.110439 -1.73628e-21)
(20.0171 0.110416 1.84854e-21)
(20.0154 0.110295 -1.85799e-21)
(20.0135 0.110085 0)
(20.0117 0.109802 2.04615e-21)
(20.0099 0.109428 -2.06003e-21)
(20.0082 0.108946 1.09384e-21)
(20.0065 0.108343 -1.10097e-21)
(20.0048 0.107601 0)
(20.0283 0.107307 0)
(20.0269 0.10773 0)
(20.0255 0.108069 0)
(20.0239 0.108273 -1.68004e-21)
(20.0224 0.108486 3.37978e-21)
(20.0208 0.108647 -1.62677e-21)
(20.0192 0.108662 0)
(20.0174 0.108618 0)
(20.0157 0.108479 0)
(20.014 0.10824 0)
(20.0122 0.107947 0)
(20.0104 0.10758 1.04293e-21)
(20.0088 0.107111 -1.04539e-21)
(20.0072 0.106545 -2.72767e-22)
(20.0056 0.105787 2.79936e-22)
(19.951 0.340841 0)
(19.9077 0.325906 0)
(19.8715 0.307351 3.59589e-20)
(19.8427 0.291191 -3.9141e-20)
(19.822 0.27386 4.30874e-20)
(19.8096 0.25474 -4.6554e-20)
(19.8052 0.233838 0)
(19.8082 0.211418 0)
(19.8171 0.187917 -1.08124e-19)
(19.8303 0.164037 2.20607e-19)
(19.8459 0.140742 -1.10979e-19)
(19.8621 0.119125 -5.25231e-20)
(19.8777 0.100152 1.0144e-19)
(19.892 0.0844225 -2.52855e-20)
(19.9051 0.0708882 -2.18338e-20)
(19.9529 0.238037 -1.11155e-35)
(19.9455 0.235456 0)
(19.9386 0.230416 9.91328e-21)
(19.932 0.223059 -3.39449e-20)
(19.926 0.213483 5.1947e-20)
(19.9207 0.201907 1.51511e-21)
(19.9162 0.188681 -3.28545e-20)
(19.9126 0.174293 3.73673e-20)
(19.9099 0.159327 -7.98709e-20)
(19.9082 0.144394 1.46664e-22)
(19.9077 0.130029 8.71054e-20)
(19.9086 0.116594 -4.44103e-20)
(19.9111 0.104214 0)
(19.9153 0.0928559 0)
(19.921 0.0815892 0)
(19.974 0.182044 0)
(19.9681 0.179843 0)
(19.9622 0.176988 0)
(19.9563 0.173461 0)
(19.9505 0.169223 0)
(19.945 0.164244 0)
(19.9399 0.158506 0)
(19.9355 0.152 2.76514e-20)
(19.9319 0.144729 5.97844e-22)
(19.9293 0.136712 4.94433e-22)
(19.9279 0.128003 -3.33456e-20)
(19.9276 0.118713 -3.49745e-20)
(19.9286 0.109031 3.5732e-20)
(19.9306 0.0992386 0)
(19.9337 0.0890412 0)
(19.9799 0.161358 1.8284e-21)
(19.9761 0.15981 -1.87124e-21)
(19.9723 0.157809 0)
(19.9684 0.15532 0)
(19.9647 0.152304 0)
(19.961 0.148725 -1.05795e-20)
(19.9575 0.144557 -1.17643e-20)
(19.9542 0.139783 4.84582e-20)
(19.9513 0.134401 -2.57162e-20)
(19.9487 0.12843 2.80331e-20)
(19.9466 0.12191 -2.91872e-20)
(19.9451 0.11491 0)
(19.9443 0.107519 1.58401e-20)
(19.9443 0.0998412 -1.60245e-20)
(19.9452 0.0915638 0)
(19.9863 0.145922 6.72094e-36)
(19.9831 0.144551 4.09428e-21)
(19.9799 0.142887 -4.18149e-21)
(19.9768 0.140908 0)
(19.9736 0.138591 0)
(19.9705 0.135911 0)
(19.9675 0.132845 0)
(19.9647 0.129369 0)
(19.962 0.125465 1.20654e-20)
(19.9597 0.121115 -1.25024e-20)
(19.9576 0.116311 -1.33854e-20)
(19.956 0.111058 -1.6634e-22)
(19.9548 0.105376 1.42958e-20)
(19.9542 0.099303 0)
(19.9542 0.092583 0)
(19.99 0.135854 2.03475e-21)
(19.9874 0.134635 -2.04947e-21)
(19.9847 0.133186 0)
(19.982 0.131496 0)
(19.9794 0.129548 9.58477e-21)
(19.9769 0.127328 2.52472e-22)
(19.9744 0.12482 2.48646e-22)
(19.972 0.122006 2.42184e-22)
(19.9698 0.118872 -2.27549e-20)
(19.9677 0.115402 1.18091e-20)
(19.9658 0.111584 0)
(19.9642 0.107413 0)
(19.9629 0.102894 6.72942e-21)
(19.962 0.098042 -6.82244e-21)
(19.9614 0.0927036 0)
(19.9933 0.128334 0)
(19.9909 0.127201 0)
(19.9885 0.125883 0)
(19.9862 0.124373 0)
(19.9839 0.122661 0)
(19.9816 0.120739 0)
(19.9794 0.118597 0)
(19.9774 0.116224 0)
(19.9754 0.113609 0)
(19.9735 0.110739 0)
(19.9718 0.107601 0)
(19.9703 0.104184 0)
(19.9691 0.100478 0)
(19.968 0.0964728 0)
(19.9673 0.0920162 0)
(19.9957 0.12261 -3.85275e-36)
(19.9936 0.121543 0)
(19.9914 0.120319 0)
(19.9893 0.118935 4.80528e-21)
(19.9872 0.117385 -4.81776e-21)
(19.9852 0.115665 0)
(19.9833 0.11377 0)
(19.9814 0.111693 1.06723e-20)
(19.9797 0.109428 -1.07865e-20)
(19.978 0.106967 0)
(19.9765 0.104301 0)
(19.9751 0.101421 0)
(19.9739 0.0983161 0)
(19.9729 0.0949837 3.128e-21)
(19.972 0.0913543 -3.11749e-21)
(19.9978 0.118086 -1.15156e-21)
(19.9957 0.117067 -1.20498e-21)
(19.9938 0.115912 2.34625e-21)
(19.9918 0.11462 -4.90213e-21)
(19.9899 0.113188 4.89452e-21)
(19.9881 0.111614 5.10064e-21)
(19.9863 0.109897 9.80999e-23)
(19.9846 0.108033 -1.05361e-20)
(19.983 0.106021 1.07743e-20)
(19.9815 0.103857 -5.47149e-21)
(19.9801 0.101535 0)
(19.9789 0.0990484 0)
(19.9777 0.0963892 0)
(19.9767 0.0935585 -3.02679e-21)
(19.9759 0.0905157 2.97827e-21)
(19.9994 0.114431 -1.17913e-21)
(19.9975 0.11345 1.17362e-21)
(19.9957 0.112349 0)
(19.9938 0.111128 -2.48718e-21)
(19.9921 0.109787 7.53113e-21)
(19.9904 0.108322 -5.03699e-21)
(19.9888 0.106737 -5.21631e-21)
(19.9872 0.105032 5.21245e-21)
(19.9857 0.103209 0)
(19.9844 0.101267 0)
(19.9831 0.0992028 -5.58701e-21)
(19.9819 0.0970125 5.62452e-21)
(19.9809 0.0946906 0)
(19.9799 0.0922384 0)
(19.9791 0.0896232 0)
(20.0009 0.111424 0)
(19.999 0.110473 0)
(19.9973 0.109415 0)
(19.9955 0.108253 0)
(19.9939 0.106984 2.54007e-21)
(19.9923 0.105603 -2.5262e-21)
(19.9908 0.104119 0)
(19.9893 0.102535 0)
(19.988 0.100856 -5.34977e-21)
(19.9867 0.0990853 5.35054e-21)
(19.9855 0.0972203 -5.50483e-21)
(19.9844 0.0952597 5.52649e-21)
(19.9835 0.0932006 -2.83835e-21)
(19.9826 0.0910459 4.29506e-21)
(19.9818 0.0887801 -1.44433e-21)
(20.0021 0.108911 0)
(20.0003 0.107987 0)
(19.9986 0.106967 0)
(19.997 0.105855 2.50411e-21)
(19.9954 0.104643 -2.48719e-21)
(19.9939 0.103326 -2.56457e-21)
(19.9925 0.10192 2.54994e-21)
(19.9911 0.100429 0)
(19.9898 0.0988649 0)
(19.9886 0.0972307 0)
(19.9875 0.0955219 -2.71452e-21)
(19.9865 0.0937433 5.47078e-21)
(19.9856 0.0918927 -2.76115e-21)
(19.9848 0.0899663 0)
(19.9841 0.0879564 0)
(20.0031 0.106783 0)
(20.0014 0.105886 -1.20955e-21)
(19.9998 0.104901 1.20174e-21)
(19.9982 0.103835 -2.485e-21)
(19.9967 0.102661 2.46824e-21)
(19.9953 0.101394 0)
(19.9939 0.100048 -2.56551e-21)
(19.9926 0.0986308 2.55249e-21)
(19.9914 0.0971615 -2.6162e-21)
(19.9903 0.0956381 5.25372e-21)
(19.9892 0.0940492 -2.64231e-21)
(19.9883 0.0924251 -2.70582e-21)
(19.9874 0.0907532 2.7153e-21)
(19.9867 0.0890174 0)
(19.986 0.0872472 0)
(20.0039 0.104998 3.01553e-22)
(20.0022 0.104123 -2.98731e-22)
(20.0007 0.103149 -1.21774e-21)
(19.9991 0.102133 1.16917e-21)
(19.9977 0.100986 0)
(19.9964 0.0997731 0)
(19.9951 0.0984609 0)
(19.9939 0.0970801 0)
(19.9927 0.0956955 0)
(19.9917 0.0942576 -2.61521e-21)
(19.9907 0.0927383 5.37813e-21)
(19.9899 0.0912463 -2.69123e-21)
(19.9891 0.0897355 0)
(19.9884 0.0881448 0)
(19.9877 0.0865519 0)
(20.0666 0.0100105 -8.96393e-21)
(20.0259 0.00734771 1.00399e-20)
(19.953 0.004095 0)
(19.8306 0.000209603 0)
(19.6408 -0.00460246 0)
(19.3741 -0.010282 0)
(19.0298 -0.0167771 -9.12229e-22)
(18.6117 -0.0241204 1.01307e-21)
(18.1233 -0.0322554 0)
(17.5637 -0.041066 0)
(16.9217 -0.0508139 -1.49574e-20)
(16.1663 -0.0616309 1.7694e-20)
(15.2272 -0.0753284 -3.02914e-21)
(13.9895 -0.0653502 4.03878e-21)
(12.6266 -0.0790299 -1.33439e-22)
(20.0645 0.00795738 0)
(20.029 0.00578706 -2.18728e-20)
(19.9684 0.0028096 2.41203e-20)
(19.8699 -0.00142727 0)
(19.7195 -0.00733324 0)
(19.5072 -0.0146901 0)
(19.2282 -0.0230513 0)
(18.8811 -0.0319608 6.34297e-20)
(18.4642 -0.0410226 -7.02823e-20)
(17.9723 -0.0499879 8.72985e-20)
(17.3907 -0.0591433 3.05058e-21)
(16.685 -0.068637 -1.18952e-19)
(15.7921 -0.0805122 7.41013e-20)
(14.6622 -0.0763402 -4.59535e-20)
(13.5862 -0.0484367 -6.03384e-20)
(20.063 0.00389186 0)
(20.0319 0.000233201 0)
(19.9805 -0.00441901 3.02011e-20)
(19.899 -0.0101231 -3.29117e-20)
(19.7759 -0.0167639 -4.31754e-20)
(19.6013 -0.0238829 -3.34933e-21)
(19.3683 -0.0310889 -2.81771e-21)
(19.0718 -0.0381817 6.29136e-20)
(18.7065 -0.0451301 0)
(18.2636 -0.0520482 0)
(17.7248 -0.0594594 0)
(17.054 -0.0674794 0)
(16.1942 -0.0761157 0)
(15.1273 -0.0725331 0)
(14.165 -0.0345849 0)
(20.0598 0.000635541 0)
(20.0308 -0.00333978 -1.14064e-20)
(19.9846 -0.00792874 1.23661e-20)
(19.9136 -0.0131195 0)
(19.8088 -0.0188308 -3.18669e-20)
(19.6609 -0.024826 3.44405e-20)
(19.4619 -0.0309226 -3.80348e-20)
(19.2041 -0.0370443 8.28526e-20)
(18.8791 -0.0432215 -2.26287e-20)
(18.4748 -0.049598 -2.51354e-20)
(17.9701 -0.0566579 0)
(17.327 -0.0645384 0)
(16.4917 -0.0717545 0)
(15.4611 -0.0675736 -1.16959e-20)
(14.5479 -0.0288245 1.42067e-20)
(20.0559 -0.00103095 0)
(20.0287 -0.0046338 0)
(19.9871 -0.00866507 1.10198e-20)
(19.925 -0.0131853 1.35665e-22)
(19.835 -0.0181851 1.18581e-22)
(19.7087 -0.0235308 -2.79752e-20)
(19.537 -0.0290801 1.51326e-20)
(19.3105 -0.0347503 -1.65782e-20)
(19.0186 -0.0405622 -8.61234e-23)
(18.6464 -0.04667 1.98865e-20)
(18.1702 -0.0535111 0)
(17.5507 -0.0612799 0)
(16.7354 -0.0678625 -1.48563e-20)
(15.7274 -0.0631867 1.75913e-20)
(14.8379 -0.0256958 0)
(20.0527 -0.00226848 0)
(20.0275 -0.00543998 0)
(19.9902 -0.00909907 1.03816e-20)
(19.9358 -0.0132007 -2.23827e-20)
(19.8578 -0.0177109 2.43789e-20)
(19.7484 -0.0225477 2.17335e-22)
(19.5982 -0.0276171 -2.88848e-20)
(19.397 -0.0328668 1.56539e-20)
(19.1321 -0.0383361 -1.72518e-20)
(18.7867 -0.0441982 3.77766e-20)
(18.335 -0.05085 -2.0893e-20)
(17.736 -0.0584876 0)
(16.9374 -0.064783 0)
(15.9446 -0.0598519 0)
(15.0674 -0.023657 0)
(20.05 -0.00301809 0)
(20.0267 -0.00595133 0)
(19.9929 -0.00939586 0)
(19.9446 -0.0131771 0)
(19.8759 -0.0172902 0)
(19.7795 -0.0217213 0)
(19.6464 -0.0264294 0)
(19.4655 -0.0313897 0)
(19.2228 -0.0366465 0)
(18.9001 -0.0423709 0)
(18.4695 -0.0489179 0)
(17.8886 -0.0564476 0)
(17.1043 -0.0625785 0)
(16.1223 -0.0574984 0)
(15.2514 -0.0222305 0)
(20.0476 -0.00365442 0)
(20.0257 -0.00620448 4.26599e-21)
(19.9949 -0.00941972 -4.49249e-21)
(19.9513 -0.0129578 9.76375e-21)
(19.8899 -0.0168146 1.69339e-22)
(19.804 -0.0210114 -2.23936e-20)
(19.6845 -0.0255331 -2.24648e-22)
(19.5201 -0.0303653 -2.57281e-22)
(19.2962 -0.035544 2.15587e-20)
(18.9928 -0.0412239 1.70551e-22)
(18.5808 -0.0477234 -8.74108e-21)
(18.016 -0.0551624 1.01085e-20)
(17.2443 -0.061161 -1.71171e-20)
(16.2704 -0.0559474 6.62512e-21)
(15.4025 -0.0212645 0)
(20.045 -0.0035103 1.88831e-21)
(20.0246 -0.00605205 -1.98478e-21)
(19.9962 -0.00920243 0)
(19.9566 -0.0126216 0)
(19.9012 -0.0163748 0)
(19.8236 -0.0205062 -5.13147e-21)
(19.7152 -0.0250098 1.10112e-20)
(19.5644 -0.0298694 -1.20487e-20)
(19.3562 -0.0351047 -2.27132e-22)
(19.0695 -0.040847 7.25697e-21)
(18.674 -0.0473634 0)
(18.1238 -0.0546938 0)
(17.3633 -0.060471 5.52325e-21)
(16.3963 -0.0549994 -3.0831e-21)
(15.5297 -0.0205418 -3.59731e-21)
(20.0428 -0.00358142 0)
(20.0236 -0.0058692 0)
(19.9973 -0.00885701 0)
(19.9609 -0.0121868 4.02801e-21)
(19.9102 -0.0159175 -4.21255e-21)
(19.8394 -0.0200954 0)
(19.74 -0.0247194 0)
(19.6007 -0.0297584 5.58899e-21)
(19.4059 -0.0352038 -5.93958e-21)
(19.1339 -0.0411502 -7.07901e-21)
(18.7531 -0.0478432 1.16652e-20)
(18.2164 -0.0552748 -4.40043e-21)
(17.4664 -0.0609758 0)
(16.5051 -0.0551561 3.14908e-21)
(15.6388 -0.0205413 -3.53731e-21)
(20.0406 -0.00292855 0)
(20.0226 -0.00535062 0)
(19.998 -0.00829811 0)
(19.9642 -0.0115889 3.59102e-21)
(19.9173 -0.0153758 4.13838e-23)
(19.8518 -0.0197405 -8.01312e-21)
(19.7596 -0.0246804 4.26352e-21)
(19.6296 -0.0301189 0)
(19.4461 -0.0359739 0)
(19.1867 -0.0423848 -3.34803e-21)
(18.8186 -0.0495247 3.58436e-21)
(18.294 -0.057034 0)
(17.5545 -0.0623491 0)
(16.5996 -0.0558335 0)
(15.734 -0.020326 0)
(20.0388 -0.00254501 0)
(20.0216 -0.00470772 1.53682e-21)
(19.9986 -0.00749921 -3.11736e-21)
(19.9669 -0.0106614 1.58757e-21)
(19.9231 -0.014408 0)
(19.8621 -0.0188854 0)
(19.7762 -0.0242379 3.63402e-21)
(19.6545 -0.0303004 -3.8132e-21)
(19.4813 -0.0366708 0)
(19.2334 -0.0433875 -2.88139e-21)
(18.8783 -0.0513729 -4.3353e-22)
(18.3658 -0.0606913 1.53862e-21)
(17.6356 -0.0669919 2.43185e-21)
(16.6845 -0.0596573 -1.72486e-21)
(15.818 -0.0233277 1.91253e-21)
(20.037 -0.00163647 0)
(20.0204 -0.00389646 0)
(19.9986 -0.00659057 0)
(19.9687 -0.00960395 0)
(19.9268 -0.0134301 0)
(19.8684 -0.0182484 1.37658e-21)
(19.7855 -0.0243235 -1.43298e-21)
(19.6694 -0.031619 0)
(19.5042 -0.0387559 0)
(19.2645 -0.0462512 0)
(18.9134 -0.0553175 0)
(18.4085 -0.0654225 -2.40549e-21)
(17.6957 -0.0716862 2.61018e-21)
(16.7579 -0.062237 0)
(15.8928 -0.0228102 0)
(20.0358 -0.000545722 0)
(20.0204 -0.0027452 0)
(20.0003 -0.00533076 0)
(19.9717 -0.00770894 -1.03611e-21)
(19.9331 -0.0109075 1.90756e-21)
(19.8801 -0.0148345 -8.65753e-22)
(19.8048 -0.0210768 0)
(19.6958 -0.0303233 0)
(19.5442 -0.0380151 0)
(19.315 -0.0432516 0)
(18.9919 -0.0527637 0)
(18.4955 -0.0740712 0)
(17.7823 -0.0850241 0)
(16.8321 -0.0720046 -1.03045e-21)
(15.9601 -0.0408704 1.135e-21)
(12.6846 0.0859758 -5.65297e-22)
(14.0893 0.0699768 5.45146e-21)
(15.3401 0.0796055 -3.87489e-21)
(16.2845 0.0659541 2.02059e-20)
(17.0429 0.0553648 -1.70876e-20)
(17.6859 0.0458623 0)
(18.2443 0.0373319 0)
(18.7285 0.0295474 7.08019e-21)
(19.1389 0.0226577 -6.37613e-21)
(19.4717 0.0167392 0)
(19.7237 0.0117573 0)
(19.8968 0.00782433 0)
(20.0035 0.00486988 0)
(20.0632 0.00269873 7.91487e-21)
(20.0929 0.000894162 -7.12071e-21)
(13.633 0.0581384 -5.99729e-20)
(14.7607 0.0838857 -4.53514e-20)
(15.9086 0.0875669 7.34158e-20)
(16.8071 0.0757224 -1.17127e-19)
(17.5143 0.066503 3.48905e-21)
(18.0952 0.0576089 8.55961e-20)
(18.5838 0.0488974 -6.78247e-20)
(18.9946 0.0401135 6.12181e-20)
(19.3326 0.0315432 0)
(19.5995 0.0236076 0)
(19.7975 0.0167814 0)
(19.9327 0.0115555 0)
(20.0173 0.00807728 2.02102e-20)
(20.0661 0.00593396 -1.83297e-20)
(20.0916 0.00439028 0)
(14.2091 0.046433 0)
(15.2259 0.0826064 0)
(16.3132 0.0855343 0)
(17.1785 0.0768893 0)
(17.8494 0.06916 0)
(18.3856 0.0620376 0)
(18.8236 0.0553819 0)
(19.1812 0.0486842 6.0052e-20)
(19.4676 0.0418542 -3.3263e-21)
(19.6883 0.0349419 -3.8521e-21)
(19.8491 0.0281791 -4.00285e-20)
(19.9586 0.0220052 -2.91243e-20)
(20.0277 0.0168645 2.67188e-20)
(20.0685 0.0128521 0)
(20.0906 0.00973899 0)
(14.5917 0.0423692 1.40705e-20)
(15.5608 0.0796085 -1.15642e-20)
(16.6128 0.0830701 0)
(17.453 0.0758262 0)
(18.095 0.0682307 0)
(18.5956 0.0614636 -2.40067e-20)
(18.9933 0.0553419 -2.11837e-20)
(19.3095 0.0493901 7.79088e-20)
(19.5564 0.0434859 -3.55527e-20)
(19.7431 0.03762 3.12895e-20)
(19.8781 0.0319015 -2.89417e-20)
(19.9705 0.0265463 0)
(20.0304 0.0217878 1.04947e-20)
(20.067 0.0176875 -9.68125e-21)
(20.0877 0.0141828 0)
(14.8822 0.0405932 0)
(15.8283 0.0767284 1.72147e-20)
(16.858 0.0806781 -1.45499e-20)
(17.6777 0.074063 0)
(18.2948 0.0665737 0)
(18.7653 0.0600261 1.87958e-20)
(19.1297 0.0541654 -2.86353e-22)
(19.4119 0.0485615 -1.54813e-20)
(19.627 0.043085 1.37268e-20)
(19.7866 0.0377408 -2.5155e-20)
(19.9009 0.0326408 3.2428e-22)
(19.9796 0.0279445 3.44899e-22)
(20.0316 0.0237757 9.42017e-21)
(20.0645 0.0201257 0)
(20.0841 0.0169305 0)
(15.1123 0.0396588 0)
(16.0468 0.0745928 0)
(17.0613 0.0788167 0)
(17.8634 0.0724955 0)
(18.4587 0.0651396 -1.99019e-20)
(18.9036 0.0587849 3.57956e-20)
(19.24 0.0531671 -1.62563e-20)
(19.4944 0.0478984 1.43556e-20)
(19.6841 0.042833 -2.62719e-20)
(19.8225 0.0379575 4.13873e-22)
(19.9206 0.0333458 2.1355e-20)
(19.9883 0.0290969 -1.9164e-20)
(20.0336 0.0252772 8.77925e-21)
(20.0629 0.0218993 0)
(20.081 0.0190195 0)
(15.297 0.0391714 0)
(16.2259 0.0732331 0)
(17.2292 0.0776239 0)
(18.0162 0.071476 0)
(18.5923 0.0642354 0)
(19.0148 0.0579936 0)
(19.3277 0.052519 0)
(19.5593 0.0474671 0)
(19.7286 0.0426954 0)
(19.8504 0.0381827 0)
(19.9361 0.0339658 0)
(19.9952 0.0300832 0)
(20.0352 0.0265373 0)
(20.0616 0.0233184 0)
(20.0784 0.0205802 0)
(15.4488 0.0389053 0)
(16.3751 0.0724554 6.4704e-21)
(17.3699 0.0770302 -1.66172e-20)
(18.1435 0.0710524 9.78792e-21)
(18.7024 0.0639269 -8.27365e-21)
(19.1054 0.0577492 2.67468e-22)
(19.3981 0.0523331 1.99085e-20)
(19.6107 0.0473746 -4.55708e-22)
(19.7635 0.042746 -4.2521e-22)
(19.872 0.0384269 -1.9542e-20)
(19.9479 0.0344345 3.73724e-22)
(20.0003 0.0307749 8.20491e-21)
(20.0361 0.027416 -3.55538e-21)
(20.06 0.0243241 3.37525e-21)
(20.0758 0.0216826 0)
(15.5768 0.0388988 -3.55522e-21)
(16.5023 0.0722042 -2.98178e-21)
(17.4899 0.0770293 5.39728e-21)
(18.2513 0.0712739 0)
(18.7946 0.0642823 0)
(19.1802 0.0581289 6.75052e-21)
(19.4556 0.0526907 -3.26146e-22)
(19.6521 0.0477097 -1.08789e-20)
(19.7914 0.0430844 9.70847e-21)
(19.8891 0.0388064 -4.46603e-21)
(19.9571 0.0348808 0)
(20.0042 0.0313007 0)
(20.0365 0.0280266 0)
(20.0584 0.0250101 -1.45569e-21)
(20.0731 0.0224299 1.39936e-21)
(15.6861 0.0388773 -3.51617e-21)
(16.6115 0.0726396 3.12301e-21)
(17.5929 0.0780285 0)
(18.3431 0.0725142 -4.25659e-21)
(18.8723 0.0655103 1.11772e-20)
(19.2424 0.0592131 -6.74863e-21)
(19.5027 0.0535842 -5.42076e-21)
(19.6856 0.0484309 5.10082e-21)
(19.8136 0.0436804 0)
(19.9027 0.0393035 0)
(19.9644 0.0353121 -3.34397e-21)
(20.0071 0.0317021 3.19768e-21)
(20.0366 0.0284362 0)
(20.0568 0.0254706 0)
(20.0707 0.0230006 0)
(15.7835 0.039801 0)
(16.709 0.0741151 0)
(17.6835 0.0799461 0)
(18.4223 0.0745183 0)
(18.9379 0.0674839 3.39079e-21)
(19.2942 0.0609443 -3.16826e-21)
(19.5413 0.054975 0)
(19.7129 0.0494921 0)
(19.8315 0.0444105 3.55549e-21)
(19.9134 0.039783 -6.52181e-21)
(19.97 0.0356086 1.81832e-22)
(20.0092 0.0318887 2.70568e-21)
(20.0364 0.0285895 0)
(20.0553 0.0256374 0)
(20.0684 0.0231855 0)
(15.8654 0.0390442 1.98997e-21)
(16.79 0.0773903 -1.79064e-21)
(17.7581 0.0848447 2.49521e-21)
(18.4888 0.0788392 1.61533e-21)
(18.9937 0.070734 -5.39763e-22)
(19.3372 0.0632979 -2.90335e-21)
(19.5732 0.0565026 0)
(19.7346 0.0504827 -3.40612e-21)
(19.8452 0.0451861 3.2461e-21)
(19.9214 0.0401841 0)
(19.9739 0.0357049 0)
(20.0104 0.0318219 1.05015e-21)
(20.0359 0.0284543 -2.01898e-21)
(20.0537 0.0255524 9.74396e-22)
(20.0662 0.0232161 0)
(15.9595 0.0444117 0)
(16.8823 0.085682 0)
(17.8331 0.0903864 2.18711e-21)
(18.5495 0.0809414 -2.01664e-21)
(19.0397 0.0736482 0)
(19.3722 0.0659646 0)
(19.5977 0.0581957 0)
(19.7531 0.0521797 0)
(19.8573 0.0458492 -9.96381e-22)
(19.928 0.0401373 9.57201e-22)
(19.9774 0.0353261 0)
(20.0114 0.031287 0)
(20.0355 0.0279665 0)
(20.0525 0.0251195 0)
(20.0646 0.022953 0)
(15.9984 0.0292004 1.59339e-21)
(16.91 0.0971367 -1.44013e-21)
(17.85 0.104735 0)
(18.5891 0.0884797 0)
(19.0851 0.0793621 0)
(19.3993 0.0683076 0)
(19.6247 0.0583805 0)
(19.7664 0.0516491 0)
(19.8598 0.0469686 0)
(19.9314 0.0400451 -5.85981e-22)
(19.9768 0.0348402 1.14503e-21)
(20.0116 0.0305568 -5.62969e-22)
(20.0338 0.0271708 0)
(20.0507 0.0244882 0)
(20.062 0.022891 0)
(19.3988 0.139991 0)
(19.9621 0.0879466 0)
(20.0656 0.102001 0)
(20.1187 0.111557 0)
(20.1487 0.121153 0)
(20.1647 0.129868 0)
(20.1711 0.138054 0)
(20.17 0.145371 0)
(20.1632 0.151266 0)
(20.1522 0.155072 0)
(20.1389 0.156202 0)
(20.1251 0.154389 0)
(20.1124 0.149868 0)
(20.1018 0.143403 0)
(20.0935 0.135149 0)
(17.5772 -0.261761 0)
(19.9013 0.196329 0)
(19.9562 0.109275 0)
(20.001 0.100091 0)
(20.041 0.103472 0)
(20.073 0.108481 0)
(20.0971 0.113164 0)
(20.1141 0.117625 0)
(20.1245 0.121727 0)
(20.129 0.125203 0)
(20.1283 0.127769 0)
(20.1238 0.129146 0)
(20.1168 0.129084 0)
(20.1088 0.127555 0)
(20.1009 0.123711 0)
(15.6914 -0.145231 -1.24939e-37)
(19.8861 0.217282 0)
(19.9819 0.107372 0)
(19.9963 0.108704 0)
(20.025 0.111472 0)
(20.0529 0.1125 0)
(20.0764 0.11327 0)
(20.0944 0.11443 0)
(20.1072 0.115739 0)
(20.115 0.116914 0)
(20.1183 0.117743 0)
(20.1178 0.118081 0)
(20.1145 0.117821 0)
(20.1094 0.11701 0)
(20.1034 0.114734 0)
(14.1677 -0.0585558 0)
(19.7472 0.146165 0)
(20.0169 0.0697282 0)
(20.0267 0.0868244 0)
(20.0426 0.0897692 0)
(20.0624 0.0907599 0)
(20.0811 0.0921562 0)
(20.0963 0.0943264 0)
(20.1073 0.0969097 0)
(20.1141 0.0996504 0)
(20.1171 0.102289 0)
(20.1168 0.104544 0)
(20.114 0.10616 0)
(20.1097 0.1071 0)
(20.1045 0.106624 0)
(14.0822 0.0388772 0)
(19.1293 0.0244574 0)
(19.87 0.0355363 0)
(19.9956 0.0620081 0)
(20.0296 0.066046 0)
(20.0505 0.0686736 0)
(20.0687 0.0717167 0)
(20.0842 0.0753356 0)
(20.0964 0.0793071 0)
(20.105 0.0834922 0)
(20.11 0.0876832 0)
(20.1118 0.0916137 0)
(20.1109 0.0949892 0)
(20.1081 0.0976646 0)
(20.1041 0.0989691 0)
(14.7182 0.0719722 0)
(18.339 -0.0395316 0)
(19.5643 0.0331106 0)
(19.8965 0.0553468 0)
(19.9888 0.0606525 0)
(20.0251 0.06422 0)
(20.0475 0.0672838 0)
(20.0651 0.0703513 0)
(20.0795 0.0736476 0)
(20.0906 0.0772116 0)
(20.0984 0.0809235 0)
(20.103 0.0845958 0)
(20.1047 0.0879993 0)
(20.1043 0.0909862 0)
(20.1021 0.0930304 0)
(15.0759 0.0320852 4.73947e-36)
(17.8263 -0.0253764 0)
(19.2429 0.0398734 0)
(19.7637 0.0552658 0)
(19.9372 0.063586 0)
(20.0014 0.0681512 0)
(20.0324 0.0708197 0)
(20.0526 0.0728107 0)
(20.0681 0.0748044 0)
(20.0802 0.0770234 0)
(20.0893 0.0794669 0)
(20.0955 0.0820417 0)
(20.099 0.0845964 0)
(20.1002 0.0870054 0)
(20.0995 0.0889676 0)
(15.1216 0.00748862 0)
(17.5312 0.00123781 0)
(18.9705 0.0394476 0)
(19.6206 0.0537733 0)
(19.8773 0.0650171 0)
(19.9775 0.0705965 0)
(20.0218 0.0734012 0)
(20.0461 0.0749986 0)
(20.0626 0.0762809 0)
(20.075 0.0776205 0)
(20.0844 0.0791397 0)
(20.091 0.0808327 0)
(20.0952 0.0826147 0)
(20.0972 0.0843711 0)
(20.0975 0.0859785 0)
(14.9893 0.00275911 -9.28012e-36)
(17.3314 0.015359 0)
(18.7489 0.0363785 0)
(19.4795 0.0516938 0)
(19.8089 0.0639594 0)
(19.9482 0.0703265 0)
(20.0097 0.0736991 0)
(20.0405 0.0754761 0)
(20.059 0.0765962 0)
(20.0719 0.0775569 0)
(20.0814 0.0785894 0)
(20.0882 0.0797618 0)
(20.0926 0.0810486 0)
(20.0951 0.0823592 0)
(20.096 0.083731 0)
(14.8043 0.00379654 -9.41715e-36)
(17.1499 0.0191616 0)
(18.5604 0.034021 0)
(19.3459 0.0494844 0)
(19.7357 0.0615862 0)
(19.9129 0.0686433 0)
(19.994 0.0727099 0)
(20.0335 0.0749025 0)
(20.0553 0.0761443 0)
(20.0693 0.0770145 0)
(20.079 0.0778253 0)
(20.086 0.0787058 0)
(20.0907 0.0796814 0)
(20.0934 0.0806886 0)
(20.0947 0.0818097 0)
(14.6206 0.00467065 0)
(16.9703 0.0186385 0)
(18.3916 0.032109 0)
(19.2193 0.0468968 0)
(19.6601 0.0586699 0)
(19.8736 0.0663735 0)
(19.9752 0.0710483 0)
(20.0249 0.0736996 0)
(20.0511 0.0751915 0)
(20.0667 0.0761293 0)
(20.077 0.0768763 0)
(20.0842 0.0776102 0)
(20.0891 0.0783957 0)
(20.0921 0.0791956 0)
(20.0936 0.0800904 0)
(14.4529 0.00473161 9.42101e-36)
(16.7963 0.0170072 0)
(18.2346 0.0301093 0)
(19.0971 0.0440646 0)
(19.583 0.0557123 0)
(19.8313 0.0639312 0)
(19.9538 0.0690722 0)
(20.0146 0.0721483 0)
(20.0461 0.073928 0)
(20.064 0.0750057 0)
(20.0752 0.0757744 0)
(20.0827 0.0764511 0)
(20.0878 0.0771327 0)
(20.0909 0.0778085 0)
(20.0926 0.0785632 0)
(14.3019 0.00441783 0)
(16.6322 0.0154339 0)
(18.0857 0.0280835 0)
(18.9778 0.0413463 0)
(19.5046 0.0529786 0)
(19.7867 0.06154 0)
(19.9301 0.0670386 0)
(20.0027 0.0704871 0)
(20.0403 0.0725469 0)
(20.0609 0.0737865 0)
(20.0733 0.0746151 0)
(20.0813 0.075281 0)
(20.0866 0.07591 0)
(20.09 0.0765181 0)
(20.0919 0.0772102 0)
(14.164 0.00403793 1.81242e-35)
(16.479 0.0141983 0)
(17.9435 0.0262276 0)
(18.8612 0.0389144 0)
(19.4256 0.0505065 0)
(19.7402 0.0592709 0)
(19.9045 0.0650719 0)
(19.9894 0.0688422 0)
(20.0336 0.071158 0)
(20.0575 0.0725607 0)
(20.0713 0.0734645 0)
(20.08 0.07414 0)
(20.0856 0.0747375 0)
(20.0891 0.0752952 0)
(20.0911 0.075908 0)
(14.036 0.00371324 -1.78055e-35)
(16.3358 0.0132285 0)
(17.808 0.0245661 0)
(18.7481 0.036696 0)
(19.3464 0.0481899 0)
(19.6921 0.0570903 0)
(19.8775 0.0632013 0)
(19.9749 0.0672503 0)
(20.0262 0.0697961 0)
(20.0537 0.0713563 0)
(20.0692 0.0723415 0)
(20.0786 0.0730367 0)
(20.0845 0.0736121 0)
(20.0883 0.0741241 0)
(20.0905 0.0746629 0)
(13.9161 0.00346008 0)
(16.2017 0.0123622 0)
(17.6795 0.0230107 0)
(18.639 0.0345763 0)
(19.2669 0.0459171 0)
(19.6424 0.0549644 0)
(19.849 0.0614108 0)
(19.9594 0.0657068 0)
(20.018 0.0684647 0)
(20.0494 0.0701788 0)
(20.0669 0.0712521 0)
(20.0772 0.0719787 0)
(20.0836 0.0725461 0)
(20.0876 0.0730297 0)
(20.0899 0.0735385 0)
(13.8043 0.00324658 0)
(16.0763 0.0115168 0)
(17.5581 0.021522 0)
(18.534 0.0325504 0)
(19.1872 0.0436968 0)
(19.591 0.0529142 0)
(19.8191 0.0596804 0)
(19.9428 0.0642038 0)
(20.0092 0.0671649 0)
(20.0448 0.0690315 0)
(20.0645 0.0701992 0)
(20.0758 0.0709683 0)
(20.0826 0.0715409 0)
(20.0869 0.0720088 0)
(20.0894 0.0724934 0)
(13.7003 0.0030429 1.70951e-35)
(15.959 0.0107163 0)
(17.4432 0.0201381 0)
(18.4325 0.0306825 0)
(19.1076 0.0416084 0)
(19.5382 0.0509707 0)
(19.7879 0.0580053 0)
(19.9253 0.0627443 0)
(19.9997 0.065902 0)
(20.0399 0.067918 0)
(20.0618 0.0691828 0)
(20.0743 0.0700005 0)
(20.0817 0.0705852 0)
(20.0862 0.0710424 0)
(20.0889 0.0714994 0)
(13.6035 0.00284315 -1.68237e-35)
(15.8492 0.0100167 0)
(17.334 0.0189119 0)
(18.3341 0.0290204 0)
(19.0286 0.0396983 0)
(19.4843 0.0491455 0)
(19.7555 0.0563878 0)
(19.9068 0.0613377 0)
(19.9895 0.0646838 0)
(20.0345 0.0668436 0)
(20.059 0.0682048 0)