/*--------------------------------*- C++ -*----------------------------------*\
| =========                 |                                                 |
| \\      /  F ield         | OpenFOAM: The Open Source CFD Toolbox           |
|  \\    /   O peration     | Version:  2.3.0                                 |
|   \\  /    A nd           | Web:      www.OpenFOAM.org                      |
|    \\/     M anipulation  |                                                 |
\*---------------------------------------------------------------------------*/
FoamFile
{
    version     2.0;
    format      ascii;
    class       volScalarField;
    location    "10000";
    object      nuTilda;
}
// * * * * * * * * * * * * * * * * * * * * * * * * * * * * * * * * * * * * * //

dimensions      [0 2 -1 0 0 0 0];

internalField   nonuniform List<scalar> 
6748
(
0.0586048
0.0527576
0.0475583
0.043182
0.0397193
0.0370772
0.0345503
0.0319801
0.029391
0.0267505
0.0240832
0.0218662
0.0659986
0.0617666
0.0580523
0.054843
0.0521586
0.0500104
0.0483792
0.0472215
0.0464854
0.0461082
0.0460342
0.0462109
0.0722378
0.0691982
0.0665903
0.0643952
0.0625995
0.061185
0.060125
0.0593858
0.0589306
0.0587214
0.0587202
0.058892
0.0774957
0.0752661
0.0733829
0.0718119
0.0705329
0.0695255
0.068768
0.0682374
0.0679109
0.0677653
0.0677794
0.0679318
0.0818612
0.0802058
0.0788031
0.0776293
0.0766678
0.0759039
0.0753233
0.0749125
0.0746582
0.0745472
0.0745674
0.0747059
0.085505
0.0842466
0.0831698
0.0822594
0.0815047
0.0808973
0.0804293
0.0800932
0.0798831
0.0797922
0.0798137
0.0799403
0.0885575
0.0875761
0.0867266
0.0859976
0.0853838
0.0848827
0.0844911
0.0842057
0.0840246
0.0839462
0.0839679
0.0840853
0.0911222
0.0903413
0.0896567
0.0890585
0.0885429
0.0881172
0.087781
0.0875322
0.087371
0.0872999
0.0873209
0.0874314
0.0932903
0.0926563
0.0920945
0.0915998
0.0911499
0.0907785
0.090485
0.090266
0.0901191
0.0900496
0.0900687
0.0901748
0.0951429
0.0946125
0.094138
0.0937409
0.0933246
0.0929931
0.0927332
0.0925418
0.0924095
0.0923326
0.0923478
0.0924502
0.0233763
0.0271991
0.0296181
0.0321099
0.0351085
0.0387263
0.0429525
0.0477314
0.0529936
0.058663
0.064658
0.0709183
0.0465555
0.0471098
0.0479948
0.0492678
0.0509767
0.0531568
0.0558264
0.0589821
0.0626004
0.066641
0.0710545
0.0758192
0.0591955
0.0596546
0.060332
0.0612592
0.0624668
0.063983
0.0658319
0.0680292
0.0705813
0.0734845
0.0767279
0.0803383
0.068201
0.0686002
0.0691631
0.0699082
0.0708527
0.0720141
0.0734089
0.0750507
0.0769501
0.0791141
0.0815497
0.084305
0.0749495
0.0753063
0.0757957
0.0764272
0.0772103
0.078154
0.0792676
0.0805592
0.0820364
0.0837059
0.0855779
0.0877022
0.0801636
0.0804883
0.0809253
0.0814791
0.0821539
0.0829533
0.0838807
0.0849395
0.0861325
0.0874627
0.0889346
0.0905703
0.0842929
0.0845929
0.084991
0.0854884
0.086086
0.0867837
0.0875812
0.0884777
0.0894718
0.090563
0.0917545
0.0930667
0.0876271
0.0879077
0.0882758
0.0887306
0.0892705
0.0898937
0.0905971
0.0913765
0.0922268
0.0931435
0.094125
0.0951831
0.0903622
0.0906262
0.0909709
0.0913924
0.0918873
0.0924541
0.0930876
0.0937799
0.0945235
0.0953113
0.0961352
0.0970053
0.0926342
0.0928789
0.0932047
0.093599
0.0940563
0.0945782
0.0951587
0.095781
0.0964385
0.0971293
0.0978606
0.0985739
0.0648743
0.0535138
0.0444261
0.0371947
0.0313363
0.0264421
0.0224395
0.0196492
0.017251
0.0147406
0.011958
0.00870896
0.067346
0.0579393
0.0507914
0.0454757
0.0417674
0.0386541
0.0354324
0.0320298
0.0284423
0.0246133
0.0204589
0.0158772
0.0701925
0.0627632
0.0574334
0.0539329
0.0507882
0.0475444
0.0440728
0.0403011
0.03618
0.0316652
0.0267101
0.0212694
0.0732667
0.0675355
0.0637677
0.0606498
0.0574909
0.0541113
0.0504233
0.0463637
0.0418768
0.0369092
0.0314072
0.0253211
0.0763718
0.0719668
0.0688862
0.0658726
0.0626847
0.0592096
0.0553694
0.0510982
0.0463338
0.0410115
0.0350662
0.0284324
0.0793444
0.0759863
0.0730473
0.070059
0.0668469
0.0633067
0.0593579
0.0549267
0.0499398
0.0443221
0.037995
0.0308798
0.0820671
0.079212
0.0764142
0.0734675
0.0702514
0.0666713
0.0626434
0.0580864
0.0529167
0.0470468
0.040385
0.0328414
0.0846024
0.0819133
0.0791954
0.076288
0.0730797
0.0694757
0.0653885
0.0607304
0.0554081
0.0493215
0.0423659
0.034441
0.0866921
0.0841468
0.0815068
0.0786448
0.0754548
0.0718394
0.0677052
0.0629622
0.0575116
0.0512462
0.0440443
0.0357853
0.0884232
0.0859926
0.0834321
0.0806245
0.0774632
0.073849
0.0696746
0.0648507
0.0592848
0.0528896
0.0455267
0.0370247
0.00490636
0.00200276
0.00185136
0.00243931
0.00315608
0.00418808
0.00574292
0.00773907
0.01024
0.0133245
0.0170707
0.021557
0.0106313
0.00509361
0.0025856
0.00302192
0.00393349
0.00517092
0.00682558
0.00885906
0.0113229
0.0142783
0.0177897
0.0219211
0.0151367
0.00828542
0.00372574
0.00370781
0.00481379
0.00621791
0.00796311
0.0100247
0.0124435
0.0152647
0.0185381
0.0223118
0.0184664
0.01081
0.00499475
0.00446306
0.00572576
0.00726375
0.00908372
0.0111638
0.0135327
0.0162255
0.0192989
0.0228908
0.0209506
0.0126798
0.00617032
0.00525074
0.00662859
0.00827586
0.0101558
0.0122465
0.0145674
0.0171522
0.0200602
0.0233702
0.0228431
0.0140683
0.00717818
0.00603546
0.00749718
0.00923673
0.0111659
0.0132623
0.0155409
0.0180324
0.0207783
0.0238011
0.0243116
0.0151165
0.00802226
0.0067886
0.00831462
0.0101377
0.0121083
0.0142086
0.0164504
0.0188547
0.0214407
0.0242041
0.0254716
0.0159235
0.00873379
0.00749919
0.0090836
0.0109758
0.0129818
0.0150853
0.0172924
0.0196124
0.0220466
0.0245829
0.0264208
0.0165546
0.00932866
0.00815882
0.00980049
0.0117547
0.0137927
0.0158956
0.0180669
0.0203053
0.0226001
0.0249393
0.0273995
0.0173979
0.00998352
0.00878405
0.0104833
0.012459
0.0144845
0.0165909
0.0187576
0.0209249
0.0230823
0.025249
0.00109946
0.00381128
0.00811941
0.0129332
0.0178077
0.0225843
0.0271476
0.0314671
0.0358039
0.0403726
0.0453257
0.0516833
0.000761397
0.00247081
0.00614777
0.00988161
0.0137695
0.0179212
0.0222893
0.0267729
0.0313194
0.0359805
0.0409098
0.0466102
0.00044312
0.00163151
0.00413052
0.0079078
0.0124501
0.016757
0.0209438
0.0250926
0.029265
0.0335541
0.0381358
0.0433562
0.000531889
0.00134947
0.0034088
0.00655842
0.011064
0.015844
0.0204883
0.024872
0.0289527
0.0328395
0.0368234
0.0413648
0.000498245
0.00120269
0.00303113
0.00580781
0.00984989
0.0148663
0.0199181
0.0247793
0.0292464
0.0331858
0.0367612
0.0405513
0.000491411
0.00109523
0.002763
0.00529023
0.00896822
0.0139313
0.019261
0.0245291
0.0294972
0.0338661
0.037486
0.0407557
0.000479738
0.00101949
0.00257412
0.00492537
0.00834062
0.0130962
0.0185875
0.0241661
0.029565
0.0344611
0.0384877
0.0416493
0.000474729
0.000965227
0.00243302
0.00465342
0.00787522
0.0123975
0.017943
0.023759
0.0295103
0.0348909
0.0394736
0.0429706
0.000471753
0.000926948
0.00232748
0.0044485
0.00752123
0.0118418
0.0173703
0.0233665
0.0294082
0.0352025
0.0403327
0.044332
0.000471584
0.000899829
0.0022514
0.00429884
0.00725952
0.0114214
0.0168958
0.0230319
0.0293225
0.0354685
0.0410827
0.0456488
0.000473058
0.00088108
0.00219769
0.00419165
0.00706927
0.0111097
0.0165184
0.0227689
0.0292801
0.0357271
0.0417455
0.0467947
0.000475703
0.000868257
0.00216028
0.00411565
0.00693192
0.0108799
0.0162226
0.0225732
0.0292909
0.0360056
0.0423644
0.0478238
0.000478778
0.000859276
0.00213391
0.00406141
0.00683239
0.0107099
0.0159898
0.0224326
0.0293573
0.0363342
0.0430118
0.0488694
0.00048168
0.00085223
0.0021135
0.00401925
0.00675489
0.010577
0.0157973
0.0223177
0.0294468
0.0366874
0.043677
0.0499059
0.000484142
0.000846022
0.00209566
0.00398243
0.00668721
0.0104606
0.0156199
0.0221906
0.0295031
0.0369882
0.0442568
0.0507915
0.000486145
0.000840437
0.00207993
0.00395011
0.00662813
0.0103594
0.015462
0.0220631
0.0295462
0.0372743
0.0448353
0.0517524
0.000487588
0.000834976
0.00206491
0.00391965
0.00657305
0.0102658
0.0153137
0.0219241
0.0295601
0.0375172
0.0453387
0.0525291
0.000488444
0.000829471
0.00205007
0.00388988
0.00651994
0.010177
0.0151737
0.0217772
0.0295551
0.0377478
0.0458548
0.0534024
0.000488652
0.000823659
0.0020345
0.00385889
0.00646494
0.0100854
0.0150285
0.0216008
0.0294925
0.0379054
0.0462773
0.0541069
0.000488272
0.000817654
0.00201847
0.00382727
0.00640939
0.00999393
0.0148842
0.0214108
0.0293861
0.0380053
0.0466497
0.0548259
0.000487363
0.000811419
0.00200165
0.00379441
0.00635211
0.00990027
0.0147374
0.0212064
0.0292285
0.0380179
0.0468971
0.0553466
0.000486111
0.00080527
0.00198501
0.00376226
0.00629666
0.00981062
0.0145984
0.0210103
0.0290597
0.0380007
0.0471105
0.0558685
0.000484642
0.000799016
0.00196831
0.0037302
0.00624183
0.00972278
0.0144634
0.0208176
0.0288756
0.0379433
0.0472507
0.0562403
0.000483042
0.000792917
0.00195203
0.00369893
0.00618848
0.00963781
0.0143338
0.0206326
0.0286899
0.0378748
0.047381
0.0566376
0.000481333
0.000787005
0.0019362
0.00366839
0.00613616
0.00955429
0.0142065
0.0204491
0.0284932
0.0377816
0.0474746
0.0569667
0.000479572
0.000781428
0.00192123
0.00363926
0.00608584
0.00947326
0.0140819
0.0202668
0.0282827
0.0376554
0.0475216
0.0572375
0.000477813
0.000776288
0.00190741
0.00361227
0.00603901
0.00939734
0.0139643
0.0200926
0.0280702
0.037509
0.0475363
0.0574708
0.000476071
0.000771588
0.00189486
0.00358783
0.0059965
0.00932841
0.013857
0.0199328
0.0278685
0.0373593
0.0475378
0.0576916
0.00047434
0.00076724
0.00188339
0.00356567
0.00595831
0.00926669
0.0137614
0.0197898
0.0276836
0.037214
0.0475289
0.0578865
0.000472627
0.000763181
0.00187274
0.00354523
0.00592347
0.00921113
0.0136764
0.019664
0.0275208
0.037084
0.0475227
0.058071
0.000470937
0.000759328
0.00186267
0.00352588
0.0058906
0.0091591
0.0135976
0.0195489
0.0273722
0.0369619
0.0475021
0.0581925
0.000469242
0.00075576
0.00185325
0.00350758
0.0058593
0.00910954
0.013523
0.019442
0.0272394
0.0368703
0.0475372
0.0584286
0.000467486
0.000752389
0.00184433
0.00349002
0.00582877
0.00906008
0.0134467
0.0193288
0.0270899
0.0367491
0.047535
0.0585968
0.000465653
0.000749164
0.00183586
0.00347338
0.00579986
0.00901295
0.0133728
0.019216
0.0269303
0.0365902
0.0474618
0.05864
0.000463752
0.000745988
0.00182764
0.00345738
0.00577228
0.00896856
0.0133042
0.0191128
0.0267856
0.0364454
0.0474042
0.0587335
0.000461789
0.00074292
0.00181972
0.00344194
0.00574581
0.00892634
0.0132399
0.0190183
0.0266565
0.0363227
0.0473766
0.0588804
0.000459749
0.000739952
0.00181199
0.00342669
0.00571945
0.00888407
0.0131754
0.0189237
0.0265282
0.0362021
0.047359
0.0590546
0.000457643
0.000737086
0.00180456
0.00341191
0.00569358
0.00884193
0.0131097
0.0188242
0.0263845
0.036038
0.0472503
0.0590357
0.000455483
0.000734427
0.00179763
0.00339803
0.0056693
0.00880253
0.0130486
0.0187325
0.0262535
0.0358906
0.0471699
0.0591043
0.000453272
0.000731918
0.00179109
0.00338481
0.00564596
0.00876436
0.0129892
0.018643
0.026125
0.0357414
0.0470743
0.0591195
0.000451019
0.000729668
0.0017852
0.00337277
0.00562448
0.00872886
0.0129333
0.0185582
0.0260024
0.0355963
0.0469849
0.0591732
0.000448707
0.0007276
0.00177991
0.00336192
0.00560498
0.00869626
0.0128813
0.0184778
0.0258832
0.0354462
0.0468693
0.0591617
0.000446382
0.000725697
0.00177523
0.00335244
0.0055881
0.00866814
0.0128363
0.0184079
0.0257786
0.0353118
0.0467602
0.0591445
0.000444037
0.0007239
0.00177086
0.00334375
0.00557303
0.00864366
0.0127979
0.018349
0.0256913
0.0352021
0.0466765
0.0591382
0.000441601
0.000722023
0.00176641
0.00333509
0.00555834
0.00862054
0.012763
0.0182975
0.0256178
0.035117
0.0466343
0.0591903
0.000439028
0.000720013
0.00176157
0.00332553
0.00554219
0.0085954
0.0127257
0.0182441
0.0255449
0.0350382
0.0466199
0.0593215
0.000436311
0.000717859
0.00175627
0.00331484
0.00552379
0.00856622
0.0126817
0.0181799
0.0254538
0.0349263
0.0465486
0.0593624
0.000433484
0.000715743
0.00175088
0.00330368
0.00550403
0.00853431
0.0126328
0.0181076
0.0253507
0.034795
0.046447
0.0593506
0.000430602
0.00071387
0.00174597
0.003293
0.00548442
0.00850143
0.0125809
0.0180288
0.0252354
0.0346419
0.0463119
0.0593157
0.000427722
0.000712516
0.0017422
0.00328416
0.00546727
0.00847141
0.0125316
0.0179515
0.0251184
0.0344792
0.046155
0.0592593
0.000424876
0.000711818
0.00174002
0.00327805
0.00545419
0.00844689
0.0124892
0.0178822
0.0250098
0.0343226
0.0459941
0.0591904
0.000422088
0.000711894
0.00173975
0.00327546
0.00544669
0.00843037
0.0124574
0.017826
0.0249165
0.0341808
0.0458363
0.0591005
0.000419304
0.000712788
0.00174156
0.0032767
0.00544563
0.00842381
0.0124401
0.0177895
0.0248492
0.0340721
0.0457198
0.0590938
0.000416475
0.000714214
0.00174488
0.00328105
0.00545011
0.00842631
0.0124365
0.0177729
0.0248078
0.0339924
0.0456125
0.0589855
0.000413617
0.000716233
0.00174962
0.00328807
0.00545936
0.00843705
0.0124466
0.0177779
0.0247993
0.0339586
0.0455591
0.0589241
0.000410603
0.00071887
0.00175571
0.0032973
0.00547206
0.0084533
0.0124663
0.0178006
0.0248256
0.0339965
0.0456673
0.0592455
0.000407431
0.000722088
0.00176303
0.00330823
0.00548648
0.0084704
0.0124844
0.0178171
0.024837
0.0340028
0.0457094
0.0594139
0.000404158
0.000726327
0.00177266
0.00332304
0.00550632
0.00849398
0.0125086
0.0178359
0.0248407
0.0339779
0.045669
0.0594433
0.000400737
0.000731639
0.0017849
0.00334283
0.00553427
0.00852953
0.0125491
0.0178756
0.0248683
0.0339768
0.0456429
0.0594823
0.00039705
0.000737916
0.00179967
0.00336734
0.00557032
0.00857791
0.0126092
0.0179439
0.024937
0.0340325
0.0456851
0.0595666
0.000393091
0.000745426
0.0018169
0.00339574
0.00561249
0.00863563
0.0126831
0.0180336
0.0250394
0.0341436
0.0458228
0.0597969
0.000388751
0.000754148
0.00183664
0.00342804
0.00565972
0.00869966
0.0127644
0.018131
0.0251498
0.0342631
0.0459728
0.0601021
0.00038394
0.000764476
0.00185979
0.00346593
0.0057144
0.00877226
0.012854
0.0182329
0.0252548
0.0343543
0.0460403
0.0602696
0.000378647
0.000777071
0.00188784
0.00351206
0.00578128
0.00886096
0.0129629
0.0183559
0.0253793
0.0344564
0.0460901
0.0603503
0.000372763
0.000792526
0.00192211
0.00356885
0.00586416
0.0089716
0.0131001
0.0185137
0.0255446
0.0346072
0.0462028
0.0605268
0.000366071
0.000811558
0.00196407
0.00363899
0.00596738
0.00911026
0.0132735
0.0187156
0.0257607
0.0348121
0.0463611
0.0606981
0.000358064
0.000834736
0.00201525
0.0037252
0.00609498
0.00928267
0.0134906
0.0189708
0.0260373
0.0350814
0.0465846
0.0609411
0.000347694
0.000863134
0.00207796
0.00383077
0.00625171
0.00949631
0.0137621
0.0192941
0.0263949
0.0354384
0.0468769
0.0611157
0.000332078
0.000896846
0.00215276
0.00395723
0.00643948
0.00975254
0.0140886
0.0196858
0.0268377
0.0359095
0.0473568
0.0616637
0.00030358
0.000936441
0.00224291
0.00410975
0.00666428
0.010056
0.0144703
0.0201355
0.0273328
0.0364111
0.0478108
0.0620372
0.000255014
0.00098356
0.00235322
0.00429649
0.00693757
0.0104201
0.0149198
0.0206516
0.0278787
0.036927
0.0482075
0.0622069
0.000231148
0.00104952
0.00249182
0.00453055
0.00727933
0.0108718
0.0154706
0.0212731
0.0285222
0.0375212
0.0486542
0.0623894
0.00023333
0.00114658
0.00267731
0.00484064
0.00772914
0.0114586
0.0161731
0.0220486
0.0293071
0.0382337
0.0492015
0.062696
0.00024301
0.0013352
0.00304924
0.0054136
0.00850336
0.0124045
0.0172374
0.023156
0.0303645
0.0391417
0.0498474
0.0629476
0.000384635
0.00200836
0.00430952
0.00718405
0.0106224
0.0147005
0.0195543
0.0253278
0.0322388
0.0406358
0.0508749
0.0634014
0.00116137
0.00459507
0.00886122
0.0137135
0.0190934
0.0249432
0.0312035
0.0378124
0.0447055
0.0518148
0.0590814
0.0664696
0.000125211
0.00191878
0.00491466
0.00877601
0.0134866
0.0189789
0.025176
0.031967
0.039236
0.0468601
0.0547207
0.0627308
0.000643039
0.00175616
0.0041016
0.00726097
0.0112744
0.0161343
0.0218204
0.0282752
0.0354047
0.0430813
0.0511528
0.0594601
0.00065864
0.00157956
0.00360563
0.00635596
0.00990033
0.0142776
0.0195131
0.0255972
0.0324743
0.0400393
0.0481394
0.0565894
0.000673797
0.00138689
0.00318425
0.00564765
0.00885738
0.0128728
0.0177455
0.023498
0.030109
0.0375028
0.0455451
0.0540596
0.000676054
0.00123628
0.00286208
0.00510749
0.00805858
0.0117844
0.0163526
0.0218081
0.0281576
0.0353546
0.0432911
0.0518137
0.000677583
0.00112581
0.00261618
0.00468807
0.00743031
0.0109165
0.0152245
0.0204154
0.0265178
0.0335115
0.0413145
0.0497853
0.000677782
0.0010401
0.00241931
0.00434815
0.00691711
0.0102013
0.0142851
0.0192418
0.0251176
0.031917
0.0395919
0.0480451
0.00067826
0.000971191
0.00225716
0.0040656
0.00648814
0.00959948
0.0134888
0.0182382
0.0239087
0.0305262
0.0380709
0.0464721
0.000678805
0.00091473
0.00212146
0.00382726
0.00612392
0.00908561
0.0128043
0.0173685
0.0228504
0.0292895
0.0366725
0.044882
0.000679205
0.000867685
0.0020063
0.00362389
0.00581018
0.00864063
0.0122079
0.0166053
0.0219122
0.028178
0.0354004
0.043508
0.00067949
0.000827904
0.00190718
0.00344764
0.00553632
0.00825045
0.0116823
0.015928
0.0210725
0.0271736
0.0342412
0.0422195
0.0006797
0.000793974
0.00182078
0.00329293
0.00529457
0.00790468
0.0112143
0.0153214
0.0203153
0.0262617
0.0331838
0.0410489
0.000680353
0.000769131
0.00174463
0.00315571
0.0050791
0.00759543
0.010794
0.014774
0.0196285
0.0254303
0.0322143
0.0399614
0.000682638
0.000760569
0.00167692
0.00303294
0.00488541
0.00731661
0.0104137
0.0142768
0.0190019
0.0246677
0.0313177
0.0389375
0.000686323
0.00076274
0.00161635
0.00292231
0.00471008
0.00706359
0.0100677
0.0138229
0.0184279
0.0239668
0.0304933
0.0380161
0.000690392
0.000767973
0.0015619
0.00282193
0.00455028
0.00683262
0.009751
0.0134063
0.017899
0.0233167
0.029715
0.0370766
0.000694174
0.000772875
0.0015128
0.00273057
0.0044046
0.00662079
0.00945995
0.0130224
0.0174101
0.0227143
0.0290003
0.0363019
0.000697469
0.000776659
0.00146837
0.00264721
0.00427139
0.00642577
0.00919137
0.0126673
0.0169565
0.0221526
0.0283223
0.0354683
0.000700301
0.000779373
0.00142804
0.00257088
0.00414893
0.00624551
0.00894259
0.0123376
0.016534
0.0216273
0.0276889
0.0347501
0.000702734
0.000781208
0.0013914
0.00250066
0.00403577
0.0060783
0.00871134
0.0120305
0.0161394
0.0211357
0.0270961
0.034062
0.000704844
0.000782518
0.00135941
0.00243582
0.00393075
0.00592261
0.00849567
0.0117435
0.0157702
0.0206758
0.0265449
0.0334402
0.000706822
0.000784447
0.00133799
0.00237595
0.003833
0.00577724
0.00829402
0.0114749
0.0154244
0.0202453
0.0260279
0.0328361
0.000708922
0.000788398
0.00133078
0.00232087
0.00374173
0.00564112
0.008105
0.0112229
0.0150997
0.0198399
0.025536
0.0322469
0.000711246
0.000794393
0.00133286
0.00227027
0.00365638
0.00551335
0.00792745
0.0109861
0.0147945
0.0194596
0.0250822
0.03176
0.00071372
0.000801511
0.00133834
0.00222365
0.00357635
0.00539315
0.00776035
0.0107631
0.0145068
0.0190998
0.0246411
0.0311818
0.00071617
0.000808669
0.00134383
0.00218051
0.00350125
0.00528021
0.00760281
0.0105527
0.0142348
0.0187575
0.0242183
0.0306792
0.000718531
0.000815336
0.00134809
0.00214042
0.0034308
0.00517422
0.00745407
0.0103537
0.013977
0.0184325
0.0238198
0.0302205
0.000720775
0.000821184
0.00135082
0.00210304
0.00336465
0.00507448
0.00731339
0.0101652
0.0137323
0.0181234
0.0234404
0.029764
0.000722809
0.000826183
0.0013521
0.00206808
0.00330244
0.00498033
0.00718007
0.00998625
0.0134997
0.0178293
0.0230793
0.0293363
0.000724669
0.00083046
0.00135213
0.00203525
0.00324376
0.00489124
0.00705353
0.00981616
0.0132783
0.0175493
0.0227354
0.0289264
0.000726382
0.000834093
0.00135112
0.00200441
0.00318836
0.00480679
0.00693325
0.00965432
0.0130675
0.0172825
0.0224065
0.0285288
0.000727975
0.000837218
0.00134928
0.0019755
0.0031359
0.0047266
0.00681879
0.00950015
0.0128666
0.0170278
0.0220921
0.0281522
0.000729465
0.000839916
0.00134689
0.00194904
0.0030862
0.00465035
0.0067097
0.00935309
0.0126747
0.0167843
0.0217906
0.0277848
0.000730876
0.00084233
0.00134452
0.001927
0.00303916
0.00457774
0.00660559
0.00921265
0.0124913
0.016551
0.0215004
0.027429
0.000732249
0.000844716
0.00134322
0.00191242
0.00299484
0.00450854
0.00650614
0.00907837
0.0123157
0.0163272
0.0212221
0.0270958
0.000733641
0.000847377
0.00134402
0.00190627
0.00295337
0.00444257
0.00641105
0.00894989
0.0121476
0.016113
0.0209566
0.0267811
0.000735104
0.000850551
0.00134726
0.00190651
0.0029147
0.00437969
0.00632025
0.0088269
0.0119866
0.0159078
0.0207025
0.0264734
0.000736667
0.000854258
0.00135255
0.00191029
0.00287869
0.00431983
0.00623376
0.00870908
0.0118322
0.0157107
0.0204557
0.0261621
0.000738325
0.000858419
0.00135919
0.00191542
0.00284505
0.00426287
0.00615127
0.00859618
0.0116841
0.0155219
0.0202239
0.0259142
0.000740054
0.000862816
0.00136643
0.00192066
0.00281355
0.00420865
0.00607248
0.00848796
0.0115421
0.0153412
0.0200021
0.0256423
0.000741828
0.000867254
0.00137375
0.00192538
0.00278389
0.00415701
0.00599714
0.0083842
0.0114061
0.0151685
0.0197891
0.0253872
0.000743624
0.000871586
0.00138074
0.00192931
0.00275589
0.00410781
0.00592505
0.00828474
0.0112757
0.0150029
0.0195851
0.0251441
0.000745424
0.000875709
0.00138724
0.00193237
0.00272937
0.00406085
0.0058561
0.0081894
0.0111507
0.0148443
0.0193894
0.0249062
0.000747221
0.000879584
0.00139311
0.00193454
0.00270415
0.00401603
0.00579004
0.00809802
0.0110309
0.0146918
0.0191987
0.0246579
0.000749012
0.000883175
0.00139835
0.00193591
0.00268018
0.00397318
0.00572678
0.00801039
0.0109158
0.0145446
0.019012
0.0244175
0.000750796
0.000886525
0.001403
0.00193655
0.00265739
0.00393227
0.00566628
0.00792631
0.0108051
0.0144027
0.0188333
0.0242071
0.000752579
0.000889634
0.00140709
0.00193658
0.0026359
0.00389315
0.00560821
0.00784552
0.0106988
0.0142659
0.0186585
0.0239774
0.000754367
0.000892531
0.00141069
0.00193617
0.00261607
0.00385591
0.00555267
0.00776808
0.0105966
0.0141345
0.018498
0.023832
0.00075617
0.000895257
0.0014139
0.0019356
0.00259866
0.00382031
0.00549935
0.00769355
0.0104983
0.0140085
0.0183409
0.0236072
0.000757998
0.000897867
0.00141691
0.00193534
0.00258488
0.00378648
0.00544824
0.00762195
0.0104038
0.0138873
0.0181888
0.0234265
0.000759834
0.000900367
0.00141989
0.00193589
0.00257574
0.00375452
0.00539932
0.00755338
0.0103131
0.0137709
0.0180411
0.0232337
0.000761725
0.000902908
0.0014231
0.00193775
0.00257159
0.00372475
0.00535287
0.00748821
0.0102263
0.0136591
0.0178997
0.0230637
0.000763734
0.000905542
0.00142677
0.00194122
0.00257155
0.00369701
0.0053086
0.00742609
0.0101434
0.013552
0.0177648
0.0228994
0.000765871
0.000908338
0.00143109
0.00194621
0.00257433
0.00367123
0.00526651
0.00736683
0.0100639
0.0134497
0.0176364
0.0227463
0.000768164
0.000911442
0.00143608
0.00195237
0.0025789
0.00364754
0.0052268
0.0073106
0.00998813
0.0133518
0.0175139
0.0225963
0.000770543
0.000914652
0.00144157
0.00195945
0.00258445
0.00362558
0.00518918
0.00725707
0.00991586
0.0132586
0.0173967
0.0224485
0.000773051
0.000918014
0.00144749
0.00196711
0.0025904
0.00360525
0.00515364
0.00720628
0.00984715
0.0131698
0.0172841
0.0223024
0.00077571
0.000921575
0.00145374
0.00197511
0.00259657
0.00358664
0.0051204
0.00715842
0.00978197
0.0130853
0.0171759
0.0221623
0.000778445
0.000924932
0.00146007
0.00198323
0.00260254
0.00356942
0.00508915
0.00711328
0.00972057
0.0130052
0.0170725
0.0220275
0.000781313
0.000928627
0.00146647
0.00199123
0.00260827
0.0035536
0.00506
0.00707092
0.00966264
0.0129296
0.0169744
0.0219017
0.000784686
0.000932538
0.0014731
0.00199919
0.00261378
0.00353938
0.00503323
0.0070317
0.00960862
0.0128584
0.0168815
0.021781
0.000788111
0.000936314
0.00147958
0.00200693
0.00261908
0.00352654
0.00500867
0.00699542
0.0095584
0.0127919
0.0167949
0.0216738
0.000791768
0.000940137
0.00148594
0.00201445
0.00262423
0.0035152
0.00498649
0.00696237
0.00951234
0.0127306
0.0167149
0.0215703
0.000795714
0.000943931
0.00149217
0.00202175
0.00262925
0.00350543
0.00496682
0.00693276
0.0094707
0.012675
0.0166426
0.0214828
0.000799937
0.000947834
0.00149834
0.00202899
0.00263444
0.00349752
0.0049501
0.00690708
0.00943394
0.0126256
0.0165774
0.0213932
0.000804416
0.000951432
0.0015043
0.00203598
0.00263961
0.00349145
0.00493634
0.00688552
0.00940286
0.0125833
0.016522
0.0213347
0.00080934
0.000955495
0.00151034
0.00204301
0.00264497
0.00348754
0.00492606
0.00686872
0.00937795
0.0125493
0.0164778
0.0212803
0.000815238
0.000959862
0.00151655
0.00205008
0.00265082
0.00348642
0.00492012
0.00685778
0.00936061
0.0125245
0.0164442
0.0212285
0.000821687
0.000964316
0.00152289
0.00205741
0.00265742
0.0034885
0.00491922
0.00685364
0.00935206
0.0125106
0.0164227
0.0211945
0.000829061
0.00096889
0.00152929
0.00206501
0.00266493
0.00349434
0.00492432
0.00685774
0.00935412
0.0125093
0.016414
0.0211643
0.000837885
0.000974968
0.00153739
0.00207424
0.00267487
0.00350712
0.00493924
0.00687408
0.00937052
0.0125243
0.0164254
0.0211868
0.00084679
0.000975422
0.00154096
0.00208079
0.00268355
0.0035212
0.00495904
0.00689929
0.0094002
0.0125565
0.0164555
0.0211848
0.000889013
0.00101593
0.00157128
0.0021092
0.00271609
0.00357888
0.00502912
0.00697652
0.00948002
0.012633
0.0165224
0.0212633
0.000446505
0.000824258
0.0015032
0.0020524
0.00265253
0.00350608
0.00495896
0.00691623
0.00943707
0.0126156
0.0165401
0.0213079
0.137515
0.131246
0.112613
0.140076
0.133624
0.0381845
0.117671
0.138732
0.135041
0.0744164
0.0698689
0.0549321
0.127952
0.137268
0.128479
0.101681
0.131877
0.0391539
0.132179
0.179341
0.0765088
0.138025
0.121536
0.0826061
0.137744
0.121274
0.13894
0.102094
0.0811821
0.135065
0.137762
0.0611456
0.11608
0.10374
0.13773
0.03051
0.110461
0.0928745
0.135412
0.120456
0.106171
0.135235
0.126934
0.0973004
0.132913
0.0781134
0.110254
0.138398
0.139062
0.127426
0.140026
0.118221
0.139534
0.0939599
0.0811813
0.347162
0.127381
0.107864
0.0783231
0.124716
0.140072
0.101816
0.0894034
0.118209
0.134798
0.111727
0.123927
0.098177
0.136298
0.106496
0.276883
0.104472
0.0743254
0.331602
0.0804691
0.0578295
0.10017
0.130755
0.0553003
0.0874138
0.12562
0.125259
0.117152
0.139959
0.128357
0.100422
0.127099
0.120345
0.282428
0.0977296
0.137932
0.139801
0.139949
0.121004
0.139869
0.0920007
0.13888
0.116172
0.136365
0.0698086
0.0805535
0.0556766
0.0737472
0.109205
0.109786
0.116916
0.135381
0.138934
0.0949411
0.128344
0.0475525
0.137764
0.1382
0.0175655
0.121707
0.142108
0.123354
0.0840837
0.0939962
0.248132
0.138924
0.0972483
0.0702053
0.119376
0.0716542
0.121349
0.105776
0.0278832
0.138689
0.108221
0.113286
0.0599614
0.140003
0.128762
0.099096
0.13642
0.096267
0.136009
0.122883
0.12613
0.138556
0.139364
0.138435
0.126156
0.10727
0.0868517
0.113218
0.131582
0.0685647
0.103697
0.145589
0.13576
0.116259
0.138216
0.0331597
0.135304
0.118384
0.126859
0.106173
0.12892
0.098029
0.0841118
0.104298
0.0591145
0.129173
0.309526
0.097075
0.123542
0.108675
0.0673169
0.0493026
0.1347
0.135501
0.0704068
0.0486219
0.138425
0.116046
0.0887288
0.132977
0.137465
0.122806
0.0918212
0.137502
0.130104
0.139888
0.177655
0.13664
0.0862623
0.138345
0.293961
0.136445
0.113626
0.0847436
0.110022
0.114848
0.0794381
0.103385
0.0727737
0.121514
0.102124
0.137187
0.120824
0.138272
0.0825828
0.106517
0.117323
0.136081
0.0862934
0.107506
0.177155
0.112633
0.11055
0.118271
0.136972
0.0917109
0.0158812
0.0707555
0.121605
0.0433831
0.0733741
0.117333
0.132537
0.129376
0.125921
0.116358
0.138632
0.0876194
0.124785
0.138188
0.0382781
0.110246
0.113932
0.128958
0.049775
0.0897523
0.12987
0.095269
0.101316
0.137169
0.139594
0.131198
0.0750719
0.135759
0.140035
0.11064
0.0528416
0.139929
0.117103
0.107282
0.139106
0.124683
0.120309
0.0767225
0.12686
0.125746
0.0945348
0.0435092
0.130653
0.0915946
0.101248
0.108695
0.137195
0.125164
0.105003
0.074474
0.127989
0.135839
0.137325
0.14008
0.0946323
0.126626
0.136812
0.12125
0.0668801
0.0667317
0.0977711
0.133384
0.104563
0.136884
0.0629451
0.0824936
0.0496283
0.139904
0.0713431
0.0933648
0.136308
0.128535
0.138585
0.13676
0.0265332
0.0521701
0.122494
0.11975
0.111186
0.113045
0.131851
0.120933
0.140036
0.0895009
0.0584156
0.0685645
0.10684
0.0516093
0.115816
0.138007
0.138326
0.121265
0.136688
0.0726919
0.0496482
0.117843
0.0925479
0.136624
0.0426465
0.22878
0.136165
0.0339177
0.135696
0.139361
0.0778816
0.121302
0.120265
0.126058
0.138003
0.131705
0.0780455
0.135818
0.139347
0.0564085
0.134908
0.131266
0.0959702
0.0539492
0.125883
0.111353
0.0849675
0.0839427
0.142371
0.140456
0.135406
0.175864
0.12057
0.118822
0.263805
0.111101
0.0939769
0.135956
0.119139
0.145405
0.12777
0.136606
0.140041
0.122048
0.0361558
0.126435
0.138982
0.136868
0.138001
0.219393
0.0883594
0.10285
0.13784
0.120238
0.134152
0.0567504
0.190477
0.129609
0.110336
0.137183
0.085646
0.12851
0.0904773
0.137303
0.13952
0.0320214
0.0773196
0.0493248
0.074417
0.156593
0.0559504
0.137259
0.114763
0.131017
0.136851
0.103426
0.136738
0.0750458
0.0428389
0.0928723
0.111713
0.0708706
0.0555501
0.140018
0.125642
0.132505
0.137178
0.0875183
0.0672165
0.129873
0.0893118
0.131449
0.0625342
0.0570343
0.111743
0.136449
0.112588
0.0877156
0.0389386
0.112211
0.0299101
0.0631118
0.107948
0.139927
0.136521
0.112223
0.0756934
0.0654849
0.137929
0.137928
0.139007
0.134802
0.120958
0.138387
0.111016
0.137213
0.138193
0.0931869
0.134169
0.121101
0.111668
0.135304
0.0508912
0.126796
0.0916389
0.13095
0.0866247
0.0491145
0.137297
0.0755793
0.108804
0.084238
0.0898724
0.138207
0.116219
0.132222
0.0946641
0.139488
0.129943
0.0986103
0.122008
0.123655
0.135021
0.0560905
0.158789
0.0919509
0.0760424
0.14004
0.13389
0.0859846
0.138605
0.135691
0.109376
0.138494
0.0816602
0.0801191
0.140061
0.137192
0.0869769
0.0277714
0.105244
0.0835019
0.079979
0.131646
0.0376655
0.068993
0.083315
0.0755675
0.0738064
0.140082
0.119073
0.108215
0.126629
0.107092
0.086155
0.110084
0.132086
0.134164
0.106754
0.138483
0.139001
0.0735645
0.137014
0.0534375
0.138637
0.135165
0.136114
0.1209
0.0978621
0.133493
0.117863
0.139114
0.0875494
0.13872
0.126217
0.110117
0.1396
0.110319
0.134158
0.0602746
0.134617
0.114739
0.118188
0.0975483
0.113648
0.0404191
0.0938611
0.0766674
0.138075
0.140073
0.0903753
0.262037
0.133377
0.0767504
0.128806
0.140029
0.114052
0.103875
0.0452574
0.0422829
0.0713442
0.0828668
0.118872
0.0821936
0.0628315
0.137981
0.0708836
0.135248
0.0678092
0.0869155
0.0897342
0.0302898
0.137994
0.109428
0.104471
0.0405468
0.140049
0.120583
0.0265887
0.0928508
0.122248
0.127664
0.102259
0.0339135
0.135411
0.0923998
0.139266
0.138686
0.0340043
0.0686644
0.0423164
0.133533
0.132455
0.125563
0.101609
0.124444
0.139867
0.0877104
0.134331
0.115025
0.0407845
0.137081
0.120226
0.125746