/*--------------------------------*- C++ -*----------------------------------*\
| =========                 |                                                 |
| \\      /  F ield         | OpenFOAM: The Open Source CFD Toolbox           |
|  \\    /   O peration     | Version:  2.3.0                                 |
|   \\  /    A nd           | Web:      www.OpenFOAM.org                      |
|    \\/     M anipulation  |                                                 |
\*---------------------------------------------------------------------------*/
FoamFile
{
    version     2.0;
    format      ascii;
    class       volVectorField;
    location    "10000";
    object      U;
}
// * * * * * * * * * * * * * * * * * * * * * * * * * * * * * * * * * * * * * //

dimensions      [0 1 -1 0 0 0 0];

internalField   nonuniform List<vector> 
6748
(
(22.4434 9.20496 6.17561e-21)
(22.2068 10.1366 0)
(21.9256 11.1147 0)
(21.5218 12.074 -1.72128e-19)
(20.919 12.9536 1.45301e-19)
(20.0681 13.7132 -4.00374e-20)
(18.9552 14.3372 0)
(17.5898 14.8166 0)
(16.002 15.144 7.71664e-19)
(14.2542 15.3541 -8.28418e-19)
(12.4295 15.5133 -2.37973e-20)
(10.5672 15.4569 2.41427e-20)
(21.6257 8.75544 -3.13131e-19)
(21.2052 9.3582 0)
(20.7276 9.957 0)
(20.1981 10.5343 1.20831e-19)
(19.6166 11.0635 0)
(18.9822 11.5139 -7.2046e-20)
(18.2981 11.8562 0)
(17.5748 12.0666 -1.50645e-18)
(16.8318 12.129 1.58039e-18)
(16.0954 12.0379 -2.03853e-18)
(15.3847 11.7954 -4.56138e-19)
(14.7061 11.4106 2.3136e-18)
(21.1211 8.36998 1.02253e-18)
(20.7216 8.79038 -7.05705e-19)
(20.2668 9.16451 2.49968e-19)
(19.7675 9.49211 8.8381e-19)
(19.2289 9.76292 -1.0975e-18)
(18.6605 9.97114 0)
(18.0738 10.1113 0)
(17.4822 10.1798 -9.70811e-20)
(16.9003 10.1757 0)
(16.3437 10.1014 1.81765e-18)
(15.8271 9.96191 -1.89947e-18)
(15.3642 9.76332 -9.59732e-19)
(20.7449 7.97124 2.79838e-20)
(20.3727 8.28792 0)
(19.9706 8.54837 -2.52898e-19)
(19.5507 8.76808 3.34516e-19)
(19.1168 8.93816 1.48997e-18)
(18.6747 9.05656 -1.49032e-18)
(18.2305 9.12151 2.19826e-19)
(17.791 9.13265 0)
(17.3635 9.09112 2.12331e-18)
(16.9554 8.99995 -2.1197e-18)
(16.5734 8.86378 0)
(16.2236 8.68885 -3.06148e-19)
(20.481 7.61031 0)
(20.1465 7.84207 6.15848e-19)
(19.7927 8.02224 -1.9788e-18)
(19.4283 8.16957 1.0261e-18)
(19.0561 8.27825 0)
(18.6805 8.34814 0)
(18.3062 8.37888 -2.23726e-19)
(17.9379 8.37073 0)
(17.5805 8.3247 0)
(17.2389 8.24282 -1.41369e-19)
(16.9176 8.12803 0)
(16.6206 7.98434 -1.30184e-18)
(20.2877 7.28921 0)
(19.9939 7.46511 -3.43763e-19)
(19.6884 7.59624 3.21556e-19)
(19.3765 7.70067 0)
(19.0595 7.77438 0)
(18.7402 7.81763 -2.26356e-19)
(18.4216 7.8302 9.92188e-19)
(18.1069 7.8123 -1.25868e-18)
(17.7997 7.76448 -1.13361e-18)
(17.5036 7.68797 1.43722e-18)
(17.2221 7.58466 0)
(16.9582 7.45718 -5.09413e-19)
(20.1425 7.01387 0)
(19.8871 7.14843 -7.12014e-19)
(19.6216 7.24563 3.71859e-19)
(19.3501 7.32205 -4.13683e-19)
(19.0733 7.37417 0)
(18.7933 7.40219 2.29825e-19)
(18.5126 7.40534 0)
(18.2333 7.3835 5.2988e-19)
(17.9588 7.33682 0)
(17.6921 7.26581 -9.31673e-19)
(17.4363 7.17167 2.21699e-18)
(17.1944 7.05616 2.76871e-20)
(20.0369 6.77823 3.70714e-19)
(19.8146 6.88217 1.16855e-18)
(19.5824 6.95535 -1.19763e-18)
(19.3433 7.01268 1.24457e-18)
(19.098 7.05039 0)
(18.848 7.06915 0)
(18.5964 7.06706 0)
(18.3438 7.04344 -1.64922e-18)
(18.0933 6.99814 2.30039e-18)
(17.8478 6.93128 -1.80404e-18)
(17.6106 6.84386 -6.46178e-19)
(17.3845 6.73695 -1.03457e-18)
(19.9586 6.57829 3.8101e-19)
(19.7631 6.6559 -7.78941e-19)
(19.5565 6.71229 -4.11034e-19)
(19.3421 6.75696 0)
(19.1231 6.78408 0)
(18.8949 6.79687 0)
(18.6651 6.79273 5.2902e-19)
(18.4322 6.76921 1.24341e-20)
(18.2004 6.7256 -5.92692e-19)
(17.971 6.66126 1.21525e-18)
(17.7476 6.57921 -3.35792e-19)
(17.5336 6.47941 2.04696e-18)
(19.8951 6.40244 -1.71251e-20)
(19.7194 6.46167 4.044e-19)
(19.5305 6.50584 0)
(19.3398 6.54549 0)
(19.1434 6.56582 0)
(18.929 6.57044 0)
(18.7162 6.56574 -2.68064e-19)
(18.4989 6.54508 -2.81363e-19)
(18.2832 6.50595 0)
(18.0677 6.44171 -9.29543e-19)
(17.8527 6.36286 1.29489e-18)
(17.6463 6.26981 -6.61446e-19)
(8.70092 14.6156 -8.71162e-20)
(8.26196 13.1889 1.90332e-18)
(8.23855 11.8293 -1.70917e-18)
(8.45905 10.5418 -2.13147e-19)
(8.84642 9.31822 4.45094e-19)
(9.35456 8.16238 1.64583e-18)
(9.94479 7.09384 -2.79904e-18)
(10.5796 6.13231 1.91074e-18)
(11.2247 5.29274 1.5457e-18)
(11.8551 4.58013 -1.48058e-18)
(12.4573 3.97624 2.7876e-18)
(13.0298 3.43634 2.46584e-18)
(14.0621 10.9108 -1.49735e-18)
(13.5267 10.301 -1.14641e-19)
(13.1078 9.62215 1.60453e-18)
(12.8013 8.91162 0)
(12.5997 8.19388 -2.6416e-19)
(12.4985 7.48709 0)
(12.4933 6.80482 5.86271e-20)
(12.578 6.15548 -1.15438e-19)
(12.7438 5.54327 1.26632e-18)
(12.9793 4.97024 -2.52621e-18)
(13.2705 4.42879 1.22342e-18)
(13.6058 3.89455 -4.38904e-18)
(14.9557 9.50917 1.19803e-18)
(14.5939 9.19021 1.72491e-19)
(14.2808 8.80505 2.10614e-19)
(14.0244 8.36569 0)
(13.83 7.88333 2.51172e-19)
(13.7001 7.36925 0)
(13.635 6.83475 4.82237e-20)
(13.632 6.29144 -9.13822e-20)
(13.6866 5.75104 -1.76702e-18)
(13.793 5.22511 2.85907e-18)
(13.9455 4.71589 0)
(14.1454 4.20699 2.12089e-18)
(15.9034 8.4791 -1.63633e-19)
(15.6056 8.23053 -1.79622e-19)
(15.3319 7.94135 -9.84348e-19)
(15.0889 7.61637 8.19378e-19)
(14.8816 7.26095 0)
(14.7138 6.88082 4.60261e-19)
(14.5883 6.48162 5.07701e-19)
(14.5067 6.06906 -1.05435e-18)
(14.4693 5.64882 0)
(14.4755 5.22765 -2.10793e-18)
(14.523 4.80752 0)
(14.6113 4.37207 1.89789e-18)
(16.3462 7.81393 1.66282e-18)
(16.0899 7.61393 -3.78685e-19)
(15.8529 7.38303 1.66256e-19)
(15.6396 7.12403 1.20151e-18)
(15.4534 6.84021 -2.05261e-19)
(15.2969 6.53521 -8.97491e-19)
(15.1716 6.21258 -6.90811e-19)
(15.0783 5.87597 2.3063e-19)
(15.0171 5.52902 1.21105e-18)
(14.9873 5.17585 1.01241e-18)
(14.9878 4.81536 9.62103e-19)
(15.024 4.43237 -1.87423e-18)
(16.7118 7.30723 -2.04292e-19)
(16.4805 7.13356 3.5112e-19)
(16.2654 6.93594 -3.84239e-19)
(16.0698 6.71664 -8.13808e-19)
(15.8962 6.47818 8.48435e-19)
(15.7462 6.22335 5.57424e-19)
(15.621 5.95475 3.48628e-19)
(15.5211 5.67482 -3.55034e-19)
(15.4461 5.38597 -1.07654e-18)
(15.3956 5.09131 -9.34508e-19)
(15.3683 4.79196 -9.88268e-21)
(15.3632 4.47935 -8.83843e-19)
(16.9669 6.92064 -6.97032e-19)
(16.7532 6.76495 -3.7924e-19)
(16.5547 6.58956 3.90074e-19)
(16.3739 6.39667 4.09629e-19)
(16.2125 6.18856 -2.1195e-19)
(16.0718 5.96766 1.04862e-19)
(15.9523 5.73615 2.20963e-19)
(15.854 5.49585 -1.11581e-19)
(15.7758 5.24838 9.02277e-19)
(15.7168 4.9964 9.30797e-19)
(15.6775 4.73899 -9.02028e-19)
(15.656 4.46836 8.49205e-19)
(17.1707 6.61158 7.03085e-19)
(16.9694 6.46836 -3.80178e-19)
(16.7825 6.30862 7.74905e-19)
(16.6122 6.13439 -6.039e-19)
(16.4598 5.948 4.06154e-19)
(16.3265 5.75174 -6.40588e-19)
(16.2126 5.54765 0)
(16.1177 5.33701 0)
(16.0398 5.12074 -1.12444e-18)
(15.9763 4.90223 -2.27875e-19)
(15.9316 4.6815 1.34576e-18)
(15.9028 4.45286 -1.92506e-20)
(17.3301 6.36161 -3.45247e-19)
(17.1381 6.2268 -3.78137e-19)
(16.9599 6.07831 7.65122e-19)
(16.7977 5.91763 4.00846e-19)
(16.6524 5.74731 -4.1182e-19)
(16.5256 5.56977 4.21182e-19)
(16.4171 5.38671 0)
(16.327 5.19891 0)
(16.252 5.00645 -1.09648e-19)
(16.1865 4.81295 1.08788e-19)
(16.1422 4.62039 4.39813e-19)
(16.1105 4.42127 -4.30957e-19)
(17.4497 6.1599 -1.04759e-18)
(17.2654 6.03117 0)
(17.0944 5.89152 -3.86455e-19)
(16.9402 5.74082 0)
(16.8016 5.58191 0)
(16.6807 5.4188 0)
(16.5765 5.25239 -4.24269e-19)
(16.4919 5.08327 0)
(16.4243 4.913 0)
(16.359 4.73946 2.20145e-19)
(16.3209 4.56069 -2.14812e-19)
(16.2909 4.37982 3.96613e-19)
(-1.81593 -2.42389 -1.06545e-19)
(-2.15869 -2.42918 0)
(-2.24431 -2.43476 8.41225e-20)
(-2.10449 -2.42332 -2.15899e-20)
(-1.77083 -2.38213 -1.09925e-19)
(-1.26369 -2.30096 0)
(-0.576391 -2.16991 3.13161e-20)
(0.330964 -1.98202 0)
(1.53634 -1.74054 3.43576e-20)
(3.20572 -1.45028 -1.87562e-20)
(5.66546 -1.13713 6.9968e-19)
(9.57214 -1.05095 -8.43767e-19)
(-1.87737 -2.38412 1.96075e-19)
(-2.12964 -2.3178 -1.09252e-19)
(-2.13032 -2.2299 1.64043e-20)
(-1.88676 -2.10827 0)
(-1.4053 -1.94724 4.99512e-20)
(-0.684614 -1.7469 3.75558e-20)
(0.295378 -1.51077 -6.22322e-20)
(1.58095 -1.24962 0)
(3.25579 -0.986494 -1.66955e-19)
(5.4425 -0.769966 1.68623e-19)
(8.2894 -0.685142 -5.47533e-19)
(11.8715 -0.861013 2.10198e-18)
(-1.81349 -2.23897 4.61881e-19)
(-1.94792 -2.10706 0)
(-1.82425 -1.94577 -1.00757e-19)
(-1.44904 -1.74979 -1.39708e-19)
(-0.828123 -1.52236 -1.4166e-19)
(0.0462038 -1.27046 0)
(1.1985 -1.00598 7.93505e-20)
(2.67218 -0.747831 0)
(4.52571 -0.52791 0)
(6.82343 -0.396908 -5.08502e-19)
(9.60662 -0.428548 -1.80105e-19)
(12.8181 -0.703986 2.75215e-20)
(-1.666 -2.04769 0)
(-1.68067 -1.87098 -1.49605e-19)
(-1.44909 -1.66848 2.30756e-19)
(-0.977675 -1.4401 5.53254e-20)
(-0.265993 -1.19226 1.34721e-19)
(0.69781 -0.934607 9.31016e-20)
(1.93769 -0.681077 -1.68913e-19)
(3.48935 -0.452827 2.06686e-19)
(5.39525 -0.28134 0)
(7.69451 -0.211006 0)
(10.3986 -0.297839 7.53417e-20)
(13.4492 -0.595355 -1.96323e-19)
(-1.4546 -1.84924 0)
(-1.37055 -1.65059 0)
(-1.05889 -1.43157 -1.98287e-19)
(-0.522871 -1.19482 0)
(0.24253 -0.947275 -1.04985e-19)
(1.25188 -0.699025 -3.86491e-20)
(2.52909 -0.464555 -1.08818e-19)
(4.10648 -0.264571 -4.77303e-20)
(6.02016 -0.128063 4.14812e-19)
(8.30034 -0.0937822 -6.21769e-19)
(10.9527 -0.207693 5.32582e-19)
(13.9236 -0.51138 -3.03544e-19)
(-1.2158 -1.64976 -3.91508e-19)
(-1.05409 -1.45306 -3.17563e-19)
(-0.685967 -1.23407 7.55434e-20)
(-0.10937 -1.00169 -2.69057e-20)
(0.685148 -0.763174 1.29287e-19)
(1.71474 -0.528517 0)
(3.00454 -0.312034 -6.43115e-20)
(4.58631 -0.133687 -6.16446e-20)
(6.49435 -0.0205111 1.58492e-19)
(8.75574 -0.00751865 -1.64866e-19)
(11.374 -0.135588 1.8797e-19)
(14.2957 -0.441224 0)
(-0.968973 -1.50117 2.03503e-19)
(-0.748027 -1.28858 1.00529e-19)
(-0.341342 -1.07392 6.33214e-19)
(0.259611 -0.85019 -5.89637e-20)
(1.06868 -0.622813 -1.28874e-19)
(2.10558 -0.400856 1.35595e-19)
(3.39684 -0.198535 7.4203e-20)
(4.97516 -0.0357271 1.51528e-19)
(6.87513 0.0617124 -2.53358e-19)
(9.12251 0.0611449 0)
(11.7185 -0.076063 2.20257e-19)
(14.6069 -0.383722 3.40262e-20)
(-0.717743 -1.35446 -2.3464e-19)
(-0.457206 -1.14844 1.20775e-19)
(-0.0274992 -0.94225 -3.61701e-19)
(0.584977 -0.72944 0)
(1.39854 -0.514225 2.47695e-19)
(2.43447 -0.303714 -1.16178e-19)
(3.71955 -0.111425 -2.1946e-19)
(5.28674 0.0413498 7.90223e-20)
(7.17334 0.128416 3.52642e-19)
(9.40393 0.120181 1.34829e-20)
(11.9784 -0.0216079 2.13779e-19)
(14.84 -0.329162 0)
(-0.47441 -1.22542 2.49782e-19)
(-0.182579 -1.02708 0)
(0.264115 -0.83023 1.33465e-19)
(0.88384 -0.630137 0)
(1.70395 -0.429236 -1.295e-20)
(2.74543 -0.231039 -1.65744e-19)
(4.0338 -0.0456976 2.3476e-19)
(5.59878 0.103687 4.60002e-20)
(7.48565 0.183654 -2.72855e-19)
(9.72054 0.166919 -3.98143e-19)
(12.2832 0.0136387 0)
(15.1208 -0.30231 0)
(-0.240909 -1.12492 -1.30896e-19)
(0.0464766 -0.923606 0)
(0.472369 -0.726961 -1.68051e-19)
(1.06646 -0.538015 1.77091e-20)
(1.8567 -0.349517 -1.24536e-19)
(2.87142 -0.164623 1.65452e-19)
(4.12963 0.0178412 -3.43353e-19)
(5.65402 0.185725 0)
(7.49207 0.268382 2.69427e-19)
(9.65704 0.272493 1.04855e-19)
(12.1899 0.135307 -2.2472e-19)
(15.0614 -0.183742 2.36138e-19)
(15.9405 -2.0122 2.43741e-18)
(19.8347 -3.11425 -2.80644e-18)
(21.2365 -3.52613 2.21735e-20)
(21.7862 -3.62416 -2.92427e-19)
(22.0661 -3.64486 -1.94398e-19)
(22.1616 -3.61921 -5.36699e-18)
(22.1368 -3.55916 -3.59766e-19)
(22.0418 -3.47733 4.46422e-18)
(21.9063 -3.3819 -4.64606e-18)
(21.746 -3.27831 4.15901e-18)
(21.5713 -3.16852 3.1788e-18)
(21.3898 -3.04903 -3.89219e-18)
(15.8742 -1.51786 3.09421e-19)
(19.7799 -2.54753 -2.32924e-18)
(21.6692 -3.09796 -9.92078e-20)
(22.1508 -3.19738 -2.4741e-18)
(22.3169 -3.22408 2.63406e-18)
(22.3346 -3.2195 0)
(22.2641 -3.1923 0)
(22.1443 -3.14929 1.78224e-18)
(21.9965 -3.09442 -2.71079e-18)
(21.832 -3.03103 0)
(21.6589 -2.95932 1.04967e-18)
(21.4841 -2.87148 1.07433e-18)
(16.3012 -1.2845 2.91331e-18)
(19.7875 -2.14445 7.66174e-20)
(21.8307 -2.74553 -5.42409e-18)
(22.2854 -2.87356 2.55481e-18)
(22.3713 -2.90167 -1.60903e-19)
(22.3481 -2.90724 0)
(22.2639 -2.89833 0)
(22.1458 -2.87879 -5.95174e-19)
(22.0077 -2.85046 -5.76676e-19)
(21.857 -2.81501 5.60539e-19)
(21.6985 -2.77128 -1.09463e-18)
(21.5369 -2.71127 1.06344e-18)
(16.7331 -1.13162 1.01912e-18)
(19.9215 -1.87767 -2.23612e-18)
(21.9154 -2.46579 1.32912e-18)
(22.3501 -2.61857 0)
(22.3792 -2.64966 0)
(22.3285 -2.66415 -2.65818e-18)
(22.2363 -2.6679 2.43885e-18)
(22.1217 -2.66349 6.0162e-19)
(21.9938 -2.6519 1.1848e-18)
(21.8574 -2.63388 -1.15958e-18)
(21.7129 -2.61079 5.6838e-19)
(21.5586 -2.58275 0)
(17.0877 -1.0236 0)
(20.0765 -1.70161 3.1188e-19)
(21.9529 -2.25318 0)
(22.3626 -2.41643 3.63353e-19)
(22.3569 -2.4497 0)
(22.2913 -2.47029 2.71263e-18)
(22.1967 -2.4824 -2.51219e-18)
(22.0868 -2.48797 -3.16387e-19)
(21.9682 -2.48758 -2.49061e-18)
(21.8438 -2.48126 2.34989e-18)
(21.7124 -2.47041 -5.91578e-19)
(21.57 -2.45854 0)
(17.3749 -0.937961 0)
(20.2131 -1.57151 -6.23013e-19)
(21.9607 -2.08591 0)
(22.3383 -2.25195 -3.55681e-19)
(22.3116 -2.28856 -1.44204e-18)
(22.2389 -2.31387 1.33777e-18)
(22.1458 -2.33181 -3.36101e-19)
(22.0424 -2.344 1.31241e-18)
(21.933 -2.35102 -1.23686e-18)
(21.8195 -2.35272 6.2293e-19)
(21.701 -2.35008 0)
(21.5747 -2.3481 0)
(17.621 -0.870495 -5.35662e-19)
(20.3342 -1.47285 1.30117e-18)
(21.9567 -1.95457 -2.86596e-18)
(22.2966 -2.11843 1.45317e-18)
(22.2568 -2.15845 0)
(22.1811 -2.18744 1.78761e-18)
(22.0912 -2.20953 -6.60543e-19)
(21.9944 -2.22614 -6.59508e-21)
(21.8936 -2.23794 -6.54141e-19)
(21.7899 -2.24498 -6.67357e-19)
(21.6828 -2.24804 1.9219e-18)
(21.5719 -2.25159 0)
(17.802 -0.805038 0)
(20.4138 -1.38061 6.55261e-19)
(21.9334 -1.83861 -7.13073e-19)
(22.2442 -2.0055 0)
(22.1997 -2.05215 0)
(22.1246 -2.08476 -3.56254e-19)
(22.0386 -2.10992 -3.48495e-19)
(21.9479 -2.12937 3.42598e-19)
(21.8546 -2.14398 -1.03977e-18)
(21.7593 -2.1541 2.03301e-18)
(21.6622 -2.16054 -2.00391e-18)
(21.5638 -2.167 6.77707e-19)
(18.0353 -0.775627 -2.89083e-19)
(20.5376 -1.33437 3.28014e-19)
(21.9222 -1.76482 7.63114e-19)
(22.1903 -1.92445 -7.61491e-19)
(22.1438 -1.97081 0)
(22.0709 -2.00295 3.72425e-19)
(21.9887 -2.0287 0)
(21.9039 -2.04935 0)
(21.8173 -2.06529 -3.49394e-19)
(21.7294 -2.0768 -7.09382e-19)
(21.6406 -2.08482 6.94532e-19)
(21.5527 -2.09322 3.75274e-21)
(17.9653 -0.628806 2.83013e-19)
(20.4249 -1.15559 0)
(21.8136 -1.62858 0)
(22.1195 -1.84347 0)
(22.0933 -1.9044 7.76257e-19)
(22.0244 -1.9345 -1.11395e-18)
(21.9462 -1.96033 0)
(21.8664 -1.9825 0)
(21.7841 -1.99869 0)
(21.7032 -2.01009 0)
(21.6228 -2.0191 0)
(21.543 -2.03165 -1.1133e-18)
(1.97676 2.27551 3.55353e-19)
(4.99614 2.40006 -1.40043e-19)
(8.28369 3.39768 -1.65867e-19)
(11.3928 4.97601 2.08733e-19)
(14.2297 6.58658 -5.35642e-18)
(16.8066 8.05848 3.75955e-18)
(19.0606 9.28942 1.9655e-19)
(20.8846 10.1567 8.15907e-19)
(22.1894 10.5615 1.81579e-19)
(22.9624 10.479 0)
(23.3016 9.98236 0)
(23.3994 9.21622 0)
(-12.3698 2.31112 -2.77342e-19)
(-10.0057 2.27289 1.1909e-19)
(-6.83857 2.34297 1.04007e-19)
(-2.85052 2.65102 -4.70474e-20)
(1.81529 3.31254 1.05648e-18)
(6.87873 4.30542 4.65558e-21)
(11.8266 5.57418 3.34895e-20)
(16.2298 6.94687 -1.55093e-18)
(19.7494 8.16088 0)
(22.1792 8.95593 0)
(23.5241 9.18925 0)
(24.0407 8.85973 0)
(-6.64686 1.44351 -1.62579e-20)
(-6.45443 1.22175 -3.42076e-17)
(-5.41345 1.04807 2.37539e-17)
(-3.83742 0.978098 -2.63406e-21)
(-1.6618 1.13475 -1.52142e-18)
(1.29167 1.63149 -8.09359e-18)
(5.32854 2.55151 6.86691e-18)
(10.1607 3.86337 -5.29262e-20)
(15.1083 5.40121 0)
(19.3826 6.8491 0)
(22.3916 7.86067 2.43735e-18)
(23.9966 8.15167 -2.36482e-18)
(-8.08586 1.70832 -1.25925e-16)
(-7.88465 1.6868 3.5688e-17)
(-6.99698 1.55831 0)
(-5.73472 1.42777 -1.68879e-17)
(-4.09228 1.34417 1.33149e-17)
(-1.9371 1.37508 0)
(1.0085 1.60713 -2.14629e-18)
(5.04222 2.22404 3.09e-18)
(10.0453 3.32551 0)
(15.3461 4.78248 1.53612e-18)
(19.9468 6.23701 -9.89707e-19)
(23.0422 7.12437 0)
(-7.51067 1.59986 -1.01334e-18)
(-7.54141 1.59678 5.94562e-19)
(-6.90287 1.49332 -2.57982e-17)
(-5.94421 1.36187 1.81854e-17)
(-4.69307 1.2389 0)
(-3.08637 1.1629 0)
(-0.944781 1.19069 2.38584e-18)
(2.00143 1.42864 -3.82135e-18)
(6.08725 2.04273 0)
(11.2423 3.1411 -1.84308e-18)
(16.6877 4.61789 1.30189e-18)
(21.1716 5.8938 1.81527e-18)
(-7.65097 1.62214 -6.39359e-17)
(-7.8014 1.65886 -5.89847e-19)
(-7.27795 1.57833 1.80572e-20)
(-6.4533 1.46274 -1.26655e-20)
(-5.37697 1.34003 -1.44692e-17)
(-4.02469 1.23232 9.63267e-18)
(-2.28025 1.16936 -1.06308e-17)
(0.0779189 1.20572 1.06708e-17)
(3.35323 1.45327 0)
(7.82362 2.09573 0)
(13.2949 3.2617 4.29454e-20)
(18.6992 4.62223 -2.00439e-18)
(-7.58396 1.61238 0)
(-7.84648 1.67379 9.77382e-21)
(-7.41488 1.60944 8.15192e-19)
(-6.69193 1.50288 -5.81005e-19)
(-5.74509 1.38209 1.74696e-18)
(-4.56915 1.26395 2.10103e-20)
(-3.08967 1.16777 0)
(-1.13797 1.12518 -8.53835e-18)
(1.5405 1.20385 7.29906e-18)
(5.27733 1.53513 0)
(10.2685 2.33478 2.68237e-20)
(15.9826 3.538 -2.26702e-18)
(-7.61925 1.62023 6.23722e-17)
(-7.97664 1.70617 -3.82704e-17)
(-7.60745 1.65525 -8.08314e-19)
(-6.95086 1.55918 5.78795e-19)
(-6.08736 1.44512 -1.771e-18)
(-5.02221 1.32662 1.87517e-20)
(-3.70807 1.21716 1.17492e-18)
(-2.0184 1.13533 0)
(0.25885 1.12316 -1.92269e-18)
(3.41821 1.26423 0)
(7.78757 1.74644 1.17514e-20)
(13.3098 2.56831 0)
(-7.65302 1.63006 9.85609e-19)
(-8.09156 1.73614 5.98365e-19)
(-7.76956 1.69534 8.195e-19)
(-7.16366 1.60744 -1.93249e-17)
(-6.36298 1.49956 1.51852e-17)
(-5.37912 1.38381 1.49187e-20)
(-4.18221 1.27061 -2.36056e-18)
(-2.67677 1.17202 -2.06542e-18)
(-0.687462 1.11488 1.93496e-18)
(2.04051 1.15429 0)
(5.85182 1.44611 -2.22116e-18)
(10.9532 1.92674 2.85804e-18)
(-7.7235 1.64678 0)
(-8.2226 1.76807 0)
(-7.9373 1.73488 0)
(-7.37081 1.65368 0)
(-6.61792 1.55134 1.43198e-17)
(-5.6944 1.43892 1.40767e-18)
(-4.58177 1.32495 -8.24445e-18)
(-3.20761 1.2178 8.17856e-18)
(-1.42751 1.13414 -1.92275e-18)
(0.977991 1.10966 -3.38017e-18)
(4.32712 1.2595 0)
(8.899 1.47523 -3.26014e-18)
(-7.81051 1.66677 -9.48867e-19)
(-8.35308 1.79839 0)
(-8.09736 1.77053 0)
(-7.56338 1.6941 -5.83101e-19)
(-6.84937 1.5957 -1.52151e-17)
(-5.97364 1.48569 9.97858e-18)
(-4.92486 1.37141 0)
(-3.64735 1.25895 4.04237e-18)
(-2.02107 1.15827 -3.63388e-18)
(0.144011 1.09226 3.45025e-18)
(3.13384 1.14528 -5.11804e-18)
(7.25074 1.21059 7.06637e-18)
(-7.91165 1.68912 9.4102e-19)
(-8.4817 1.82665 5.74926e-19)
(-8.25084 1.80239 7.99656e-19)
(-7.74477 1.72927 5.8491e-19)
(-7.06375 1.63349 -1.33897e-17)
(-6.22781 1.5249 1.27989e-17)
(-5.23007 1.41011 -1.1632e-18)
(-4.02713 1.29417 -2.00315e-18)
(-2.51788 1.18348 -1.79468e-18)
(-0.535397 1.09404 0)
(2.17456 1.08661 0)
(5.91092 1.08925 7.57796e-18)
(-8.0156 1.71123 0)
(-8.59966 1.85059 3.6505e-17)
(-8.39117 1.82848 -5.0962e-17)
(-7.90976 1.75701 1.91121e-17)
(-7.25763 1.66205 -1.42234e-17)
(-6.45633 1.55303 1.13294e-17)
(-5.50193 1.43601 1.16479e-18)
(-4.36063 1.31545 0)
(-2.94746 1.1956 1.74806e-18)
(-1.11638 1.08708 6.50886e-18)
(1.35702 1.03075 -8.46038e-18)
(4.75556 1.009 0)
(-8.11229 1.73104 -5.8024e-17)
(-8.70237 1.86957 -5.66323e-19)
(-8.51406 1.84846 -7.92555e-19)
(-8.0543 1.77726 1.78164e-17)
(-7.42712 1.68151 -7.36406e-21)
(-6.65518 1.57013 -1.41075e-18)
(-5.73633 1.44833 -1.15985e-18)
(-4.64366 1.31948 -1.57529e-20)
(-3.3047 1.18489 -1.75087e-18)
(-1.58943 1.047 -6.36352e-18)
(0.702768 0.920335 1.99858e-20)
(3.8578 0.809131 0)
(-8.19684 1.74826 0)
(-8.78939 1.88521 0)
(-8.61914 1.86499 7.77323e-19)
(-8.17869 1.79405 0)
(-7.57357 1.69779 0)
(-6.82727 1.58485 2.79723e-18)
(-5.93857 1.46007 1.12923e-20)
(-4.88548 1.32652 1.91995e-18)
(-3.60532 1.18494 0)
(-1.98045 1.03664 3.07471e-18)
(0.173012 0.896643 2.9334e-18)
(3.11754 0.778046 8.39801e-18)
(-8.26952 1.76285 5.61376e-17)
(-8.86118 1.89742 -3.5222e-17)
(-8.70758 1.87776 -8.79868e-21)
(-8.28475 1.80679 -5.61689e-19)
(-7.69975 1.70973 1.39226e-17)
(-6.97687 1.59506 -2.78216e-18)
(-6.11552 1.46727 -9.07518e-18)
(-5.09722 1.32923 -1.9172e-18)
(-3.86742 1.18122 8.28108e-18)
(-2.31952 1.02155 -9.05432e-18)
(-0.285583 0.850244 0)
(2.48865 0.690491 -3.2692e-20)
(-8.32929 1.77468 0)
(-8.91813 1.9066 -3.42463e-17)
(-8.78006 1.88753 2.37202e-17)
(-8.37338 1.81656 5.62876e-19)
(-7.80686 1.71887 0)
(-7.10573 1.60288 1.38466e-18)
(-6.26995 1.47297 1.13203e-18)
(-5.28369 1.33205 -1.87317e-18)
(-4.09941 1.18101 -3.26113e-18)
(-2.62054 1.0198 2.91751e-18)
(-0.692604 0.856932 0)
(1.91115 0.706516 -4.15368e-20)
(-8.37572 1.78344 5.35058e-17)
(-8.96028 1.91227 -5.40786e-19)
(-8.8371 1.89363 -2.42194e-17)
(-8.44516 1.82226 -1.77218e-17)
(-7.8955 1.72342 1.36688e-17)
(-7.21444 1.60541 0)
(-6.40258 1.47227 1.00252e-17)
(-5.44598 1.32662 -5.5804e-18)
(-4.30275 1.16909 -4.79412e-18)
(-2.88465 0.997163 8.5755e-18)
(-1.04785 0.806292 -8.00024e-18)
(1.42674 0.597296 -4.5272e-20)
(-8.40697 1.78893 1.27269e-20)
(-8.98834 1.91514 -3.39182e-17)
(-8.87912 1.89716 4.86241e-17)
(-8.50041 1.82547 -1.69895e-17)
(-7.96592 1.72571 0)
(-7.30314 1.60613 0)
(-6.51346 1.47058 -1.11233e-18)
(-5.58466 1.32153 0)
(-4.48015 1.16021 1.56596e-18)
(-3.11954 0.987036 -2.77911e-18)
(-1.36605 0.810797 5.16487e-18)
(0.989926 0.633888 -4.47436e-18)
(-8.42298 1.7911 5.43035e-17)
(-9.00402 1.91531 -3.45114e-17)
(-8.90741 1.89786 4.58271e-17)
(-8.54032 1.82562 -3.4677e-17)
(-8.01917 1.72467 2.59378e-17)
(-7.37243 1.60306 1.32441e-18)
(-6.6022 1.46414 -1.0868e-18)
(-5.69768 1.30973 -5.07647e-21)
(-4.62707 1.14007 -1.57553e-18)
(-3.31874 0.952407 2.74714e-18)
(-1.6507 0.742701 -2.56351e-18)
(0.555953 0.504255 -4.49024e-18)
(-8.42496 1.79079 1.54693e-16)
(-9.01112 1.91478 -3.19712e-17)
(-8.92472 1.89809 -2.26162e-17)
(-8.56781 1.82597 -1.76649e-17)
(-8.05855 1.72485 8.3407e-19)
(-7.42598 1.60273 9.24259e-18)
(-6.67266 1.46283 8.66478e-18)
(-5.78866 1.3068 -8.97961e-18)
(-4.74572 1.13507 0)
(-3.47872 0.945786 0)
(-1.87366 0.738156 0)
(0.237346 0.510688 0)
(-8.41806 1.78884 -7.8963e-19)
(-9.01163 1.91333 5.03271e-19)
(-8.93374 1.89709 2.30242e-17)
(-8.58613 1.82518 -1.58571e-17)
(-8.08791 1.72407 1.30646e-17)
(-7.46859 1.60169 -2.21879e-17)
(-6.73116 1.46108 8.5631e-18)
(-5.86648 1.30371 1.79143e-18)
(-4.84938 1.12984 1.49189e-18)
(-3.62105 0.937074 0)
(-2.07649 0.720894 0)
(-0.0580804 0.474253 -4.29103e-18)
(-8.40621 1.78609 -4.93904e-17)
(-9.00592 1.9112 3.14997e-17)
(-8.93594 1.89564 0)
(-8.59698 1.82428 -1.5672e-18)
(-8.10898 1.72363 0)
(-7.50194 1.6016 -1.02896e-17)
(-6.77921 1.46116 1.0544e-17)
(-5.93222 1.30374 0)
(-4.93816 1.12965 4.42666e-18)
(-3.7434 0.936864 -7.70288e-18)
(-2.25013 0.72191 -2.2905e-18)
(-0.310415 0.489207 0)
(-8.39067 1.78253 0)
(-8.99576 1.90818 -3.15055e-17)
(-8.93299 1.8933 2.16489e-17)
(-8.60206 1.82253 5.17956e-19)
(-8.12367 1.7224 0)
(-7.52828 1.60079 1.28395e-18)
(-6.81972 1.46062 6.24181e-18)
(-5.98995 1.30329 -6.91172e-18)
(-5.01818 1.1293 0)
(-3.85531 0.936942 4.70652e-20)
(-2.41037 0.721321 6.76561e-18)
(-0.544361 0.480957 -4.76938e-20)
(-8.37177 1.77835 -9.71169e-17)
(-8.98145 1.90448 6.20111e-17)
(-8.92525 1.89024 -2.06219e-17)
(-8.60169 1.82002 0)
(-8.13216 1.72038 7.74617e-19)
(-7.54756 1.59915 0)
(-6.8522 1.45913 -6.15647e-18)
(-6.03866 1.30156 5.12808e-18)
(-5.08789 1.1269 7.15601e-18)
(-3.9548 0.933621 -2.45192e-18)
(-2.55346 0.717403 0)
(-0.748259 0.473092 -3.98918e-18)
(-8.35022 1.7736 0)
(-8.96376 1.90015 4.71849e-19)
(-8.91348 1.88657 -2.23352e-17)
(-8.5967 1.81697 1.59193e-17)
(-8.13528 1.71791 1.07841e-17)
(-7.56052 1.59717 -1.10958e-17)
(-6.87721 1.45743 -1.02132e-18)
(-6.07857 1.29978 8.41148e-18)
(-5.14717 1.12452 -1.43025e-18)
(-4.04178 0.930144 -2.45177e-18)
(-2.68181 0.712909 2.12082e-18)
(-0.937579 0.471053 3.80532e-18)
(-8.32683 1.76857 7.25979e-19)
(-8.94349 1.89553 -4.73579e-19)
(-8.89857 1.88263 -6.58899e-19)
(-8.58803 1.8137 -4.84595e-19)
(-8.13407 1.71533 7.65877e-19)
(-7.56832 1.59523 2.42969e-18)
(-6.89595 1.45602 8.94734e-18)
(-6.1108 1.29858 -6.61486e-18)
(-5.19698 1.12309 -5.55426e-18)
(-4.11699 0.928152 -4.07819e-20)
(-2.79622 0.710556 2.0749e-18)
(-1.11418 0.469133 -7.46316e-18)
(-8.30226 1.76326 -1.50019e-20)
(-8.92149 1.89058 -4.56102e-19)
(-8.88138 1.87839 6.6149e-19)
(-8.57662 1.81022 4.866e-19)
(-8.12965 1.71267 1.1933e-17)
(-7.57224 1.59341 -1.07683e-17)
(-6.90993 1.45496 -9.8933e-19)
(-6.13701 1.29811 -1.61043e-18)
(-5.23891 1.12284 5.46274e-18)
(-4.18151 0.927663 -7.02342e-18)
(-2.89579 0.70929 2.02144e-18)
(-1.26988 0.464538 7.11073e-18)
(-8.27697 1.75789 -1.49898e-20)
(-8.89813 1.88551 9.58601e-21)
(-8.8623 1.87394 6.36766e-19)
(-8.56294 1.8065 0)
(-8.12258 1.70977 7.2549e-19)
(-7.57309 1.59142 1.16257e-18)
(-6.92018 1.4539 9.52454e-19)
(-6.15861 1.29796 -3.19832e-18)
(-5.2749 1.12349 1.07393e-17)
(-4.23828 0.929026 -4.57642e-18)
(-2.98582 0.711493 -4.18565e-20)
(-1.41662 0.473202 -3.48576e-18)
(-8.25114 1.75236 -1.49238e-20)
(-8.87365 1.88014 9.54588e-21)
(-8.84161 1.86911 -6.39159e-19)
(-8.54729 1.80234 0)
(-8.11319 1.70639 -1.54389e-20)
(-7.5712 1.58886 -1.15442e-17)
(-6.92708 1.45216 -9.55297e-19)
(-6.1757 1.29685 9.42358e-18)
(-5.30423 1.12253 -5.27243e-18)
(-4.28413 0.926723 2.21786e-18)
(-3.05624 0.702184 -5.85442e-18)
(-1.51924 0.442634 6.77019e-18)
(-8.22534 1.74688 -1.48919e-20)
(-8.84852 1.87472 9.52657e-21)
(-8.81978 1.86421 6.14416e-19)
(-8.5302 1.79815 -4.52055e-19)
(-8.1022 1.70308 -1.41554e-18)
(-7.56766 1.58663 1.1463e-18)
(-6.93237 1.45125 0)
(-6.19117 1.29765 -6.13647e-18)
(-5.33152 1.12577 5.17474e-18)
(-4.3264 0.934413 -6.60765e-18)
(-3.11995 0.720771 3.80861e-18)
(-1.62195 0.476823 -3.2698e-18)
(-8.19891 1.74122 -1.49639e-20)
(-8.82212 1.86885 4.33813e-19)
(-8.79625 1.85854 -1.95296e-17)
(-8.51117 1.7929 1.43678e-17)
(-8.08914 1.69834 7.02555e-19)
(-7.56209 1.58248 -1.10081e-18)
(-6.93594 1.44774 9.01548e-19)
(-6.20569 1.29485 1.53014e-18)
(-5.35908 1.12384 -5.0719e-18)
(-4.37052 0.93328 4.301e-18)
(-3.18714 0.717485 0)
(-1.72029 0.469168 0)
(-8.17066 1.73508 -6.65271e-19)
(-8.79334 1.86224 0)
(-8.76991 1.85193 -1.19665e-18)
(-8.48899 1.78655 8.80467e-19)
(-8.07259 1.69229 6.73914e-19)
(-7.55265 1.57676 2.18424e-18)
(-6.93531 1.44229 -1.78862e-18)
(-6.21587 1.28952 1.46751e-18)
(-5.38269 1.11847 -4.97232e-18)
(-4.41159 0.928481 2.13028e-18)
(-3.25068 0.718331 0)
(-1.80621 0.483403 -3.11483e-18)
(-8.14014 1.72845 -8.25516e-17)
(-8.7618 1.855 2.60047e-17)
(-8.74042 1.84454 1.38379e-20)
(-8.4633 1.77924 -1.01777e-20)
(-8.05206 1.68508 -1.57537e-20)
(-7.5386 1.5696 -1.08334e-18)
(-6.92912 1.43492 8.8706e-19)
(-6.21921 1.28142 -7.29206e-18)
(-5.39785 1.10856 4.86915e-18)
(-4.44297 0.914566 2.08273e-18)
(-3.30787 0.694953 -3.53627e-18)
(-1.91183 0.444549 6.35155e-18)
(-8.10782 1.72149 0)
(-8.72797 1.84743 8.09051e-19)
(-8.70829 1.83694 5.81974e-19)
(-8.43472 1.77188 -4.28173e-19)
(-8.02838 1.6781 -1.11457e-17)
(-7.52102 1.56308 8.39372e-18)
(-6.91882 1.42891 0)
(-6.21733 1.27592 -7.11165e-18)
(-5.4056 1.1036 4.76892e-18)
(-4.46227 0.910449 0)
(-3.34201 0.692225 0)
(-1.96449 0.43395 0)
(-8.0739 1.71419 0)
(-8.69204 1.83939 -7.92571e-19)
(-8.67377 1.82874 -5.56254e-19)
(-8.40359 1.76381 4.09217e-19)
(-8.00208 1.67029 -1.09008e-17)
(-7.50089 1.55564 7.20534e-18)
(-6.90622 1.42193 8.30885e-19)
(-6.21375 1.26955 1.41313e-18)
(-5.41282 1.09823 -4.66828e-18)
(-4.48337 0.90707 7.87042e-18)
(-3.38382 0.693869 -4.28436e-20)
(-2.04566 0.448046 0)
(-8.03791 1.70638 5.98671e-19)
(-8.65358 1.83068 -2.4439e-17)
(-8.63641 1.81974 1.82023e-17)
(-8.3694 1.75484 -1.0393e-20)
(-7.97247 1.66144 1.60776e-20)
(-7.47713 1.5469 2.5718e-20)
(-6.88961 1.41318 -8.33793e-19)
(-6.20572 1.2605 -1.34827e-18)
(-5.41501 1.08828 0)
(-4.49824 0.894684 1.89625e-18)
(-3.41496 0.673469 -4.97774e-18)
(-2.08768 0.416418 2.7454e-18)
(-7.99998 1.69824 3.73848e-17)
(-8.61271 1.82163 -2.39222e-17)
(-8.59635 1.81041 -1.77972e-17)
(-8.33232 1.74558 2.49949e-17)
(-7.93977 1.6524 -9.81214e-18)
(-7.45002 1.53816 2.59225e-20)
(-6.86934 1.40479 -7.94752e-19)
(-6.1937 1.25247 1.35339e-18)
(-5.41296 1.08071 -3.36295e-18)
(-4.50877 0.888825 3.70341e-18)
(-3.44264 0.676376 -3.19943e-18)
(-2.14522 0.43508 0)
(-7.96009 1.68959 -7.43033e-17)
(-8.56944 1.81193 2.30137e-17)
(-8.55365 1.80033 5.34545e-19)
(-8.29244 1.73549 -1.27966e-17)
(-7.90411 1.64241 1.02147e-17)
(-7.41973 1.52827 -6.71948e-18)
(-6.84558 1.3949 7.86908e-18)
(-6.17774 1.24232 0)
(-5.40639 1.06975 -1.10461e-18)
(-4.51425 0.87544 -1.85514e-18)
(-3.46613 0.654396 -1.53051e-18)
(-2.19821 0.397799 5.2033e-18)
(-7.9184 1.68059 0)
(-8.52392 1.80185 1.01759e-20)
(-8.50846 1.78992 -1.69966e-17)
(-8.24992 1.72515 1.25078e-17)
(-7.86566 1.63231 0)
(-7.38644 1.51852 0)
(-6.8185 1.38552 -1.53747e-18)
(-6.15799 1.23334 0)
(-5.39527 1.06124 0)
(-4.51353 0.868138 -3.57291e-18)
(-3.47836 0.651634 3.03302e-18)
(-2.22611 0.398724 -2.65635e-18)
(-7.87491 1.6712 0)
(-8.47621 1.79132 1.02422e-20)
(-8.46084 1.77893 1.45404e-20)
(-8.20485 1.71416 0)
(-7.82456 1.62145 0)
(-7.35039 1.50784 0)
(-6.78847 1.37496 1.5002e-18)
(-6.13505 1.22269 1.22599e-18)
(-5.38081 1.05004 -4.15323e-18)
(-4.5099 0.855417 3.47965e-18)
(-3.49056 0.634853 1.45315e-18)
(-2.26438 0.375789 2.44246e-20)
(-7.82964 1.66143 0)
(-8.42653 1.78047 -2.21044e-17)
(-8.41099 1.76768 1.61905e-17)
(-8.1574 1.703 1.1185e-17)
(-7.78096 1.61059 -1.78583e-17)
(-7.31165 1.49737 6.26667e-18)
(-6.75539 1.36495 -5.87392e-18)
(-6.10839 1.2131 3.61892e-18)
(-5.36139 1.04075 0)
(-4.49908 0.846054 0)
(-3.4911 0.625047 -1.45501e-18)
(-2.28017 0.365706 7.33231e-20)
(-7.78362 1.6516 0)
(-8.37537 1.76937 1.03055e-20)
(-8.3594 1.75615 -4.70632e-19)
(-8.10813 1.69155 1.07368e-20)
(-7.73555 1.59946 0)
(-7.27117 1.48673 2.65533e-20)
(-6.72065 1.3549 -1.42467e-18)
(-6.08002 1.20374 0)
(-5.34 1.03212 0)
(-4.48569 0.838058 0)
(-3.48808 0.617324 -2.78528e-18)
(-2.2914 0.357892 9.44218e-18)
(-7.73658 1.64154 0)
(-8.32284 1.75789 6.56299e-19)
(-8.3062 1.74423 -1.44206e-17)
(-8.05719 1.67972 1.12878e-17)
(-7.68853 1.58798 0)
(-7.22927 1.47579 -5.91696e-18)
(-6.68479 1.3447 6.92911e-18)
(-6.0509 1.19451 -1.13155e-18)
(-5.31813 1.02417 -3.83644e-18)
(-4.47172 0.831953 3.20849e-18)
(-3.48332 0.614854 -1.37237e-18)
(-2.29753 0.363094 -2.28158e-18)
(-7.6882 1.63121 0)
(-8.26849 1.74597 -6.38785e-19)