/*--------------------------------*- C++ -*----------------------------------*\
| =========                 |                                                 |
| \\      /  F ield         | OpenFOAM: The Open Source CFD Toolbox           |
|  \\    /   O peration     | Version:  2.3.0                                 |
|   \\  /    A nd           | Web:      www.OpenFOAM.org                      |
|    \\/     M anipulation  |                                                 |
\*---------------------------------------------------------------------------*/
FoamFile
{
    version     2.0;
    format      ascii;
    class       volScalarField;
    location    "6000";
    object      nuTilda;
}
// * * * * * * * * * * * * * * * * * * * * * * * * * * * * * * * * * * * * * //

dimensions      [0 2 -1 0 0 0 0];

internalField   nonuniform List<scalar> 
6617
(
0.0491017
0.0448508
0.0410106
0.0373538
0.0340118
0.0309578
0.0281646
0.0256199
0.0233194
0.0212601
0.0194763
0.0183013
0.056798
0.0530302
0.0497096
0.0469351
0.0447065
0.0429988
0.0417743
0.0409847
0.04058
0.0405092
0.0407196
0.0411624
0.0641699
0.0614671
0.0591529
0.0572647
0.0557873
0.0546918
0.0539426
0.0535011
0.0533277
0.0533817
0.053627
0.0540272
0.0703273
0.0683673
0.0667158
0.0653814
0.0643463
0.0635862
0.0630738
0.0627837
0.0626898
0.0627682
0.0629969
0.0633543
0.0754422
0.0739908
0.072772
0.0717881
0.0710244
0.070463
0.0700874
0.0698807
0.0698276
0.0699143
0.0701272
0.0704525
0.0796993
0.0785958
0.077667
0.0769133
0.0763244
0.0758892
0.0755979
0.0754414
0.0754106
0.0754977
0.0756952
0.0759946
0.0832688
0.0823934
0.0816631
0.0810665
0.0805957
0.080245
0.0800101
0.0798868
0.0798703
0.0799566
0.0801413
0.0804195
0.0862404
0.0855442
0.0849582
0.0844736
0.0840865
0.083795
0.0835995
0.0835002
0.0834949
0.0835808
0.0837554
0.084016
0.0887503
0.0881808
0.0877025
0.0872993
0.0869744
0.0867266
0.0865579
0.0864773
0.0864815
0.0865699
0.0867382
0.0869838
0.0908883
0.0904015
0.0900119
0.0896649
0.0893874
0.089178
0.0890208
0.0889562
0.0889694
0.0890631
0.0892346
0.0894694
0.0200261
0.0236479
0.026178
0.0288794
0.0320769
0.035869
0.0402658
0.0452275
0.0506947
0.0565954
0.0628398
0.0692918
0.0417632
0.0425812
0.0437372
0.0452831
0.0472663
0.0497228
0.0526709
0.0561098
0.0600176
0.0643541
0.0690615
0.0740349
0.0545493
0.055231
0.0561413
0.0573106
0.0587688
0.0605444
0.06266
0.0651314
0.0679648
0.0711531
0.0746713
0.0784328
0.0638229
0.0644252
0.0651997
0.0661635
0.0673345
0.0687302
0.0703662
0.0722564
0.0744113
0.0768351
0.079524
0.08244
0.0708806
0.0714247
0.0721072
0.0729373
0.0739243
0.0750773
0.0764055
0.0779177
0.079622
0.0815248
0.0836296
0.0859273
0.0763894
0.0768881
0.0775033
0.0782387
0.0790983
0.0800856
0.0812042
0.0824582
0.0838522
0.0853905
0.0870758
0.0888938
0.080787
0.0812491
0.0818123
0.0824773
0.083244
0.0841116
0.0850796
0.0861484
0.0873196
0.088595
0.0899767
0.0914518
0.0843602
0.0847918
0.0853136
0.0859241
0.0866208
0.0873991
0.0882539
0.0891848
0.0901906
0.0912696
0.0924162
0.0936092
0.0873063
0.0877124
0.0882007
0.0887675
0.0894096
0.0901217
0.0908866
0.0917127
0.0925925
0.0935262
0.0944965
0.0954841
0.0897653
0.0901511
0.0906124
0.0911437
0.0917392
0.0924037
0.0930891
0.0938458
0.0946244
0.0954546
0.0962895
0.0971679
0.0842035
0.0716112
0.0601933
0.0500059
0.0410995
0.0334329
0.026973
0.0218151
0.0182275
0.0149977
0.0117148
0.00812258
0.094824
0.0843139
0.0746888
0.06612
0.0586308
0.0519895
0.0458669
0.040045
0.0344284
0.0288602
0.0231671
0.0171709
0.106859
0.0982143
0.0899989
0.0822283
0.0748729
0.0678435
0.061006
0.0542224
0.0473637
0.0403233
0.0329999
0.0253023
0.116999
0.109313
0.101759
0.0943385
0.087027
0.0797617
0.0724577
0.0650194
0.057344
0.0493349
0.0409049
0.0319734
0.124983
0.11791
0.110787
0.103612
0.0963554
0.0889624
0.081364
0.0734788
0.0652178
0.0564908
0.0472117
0.0372973
0.131273
0.124663
0.117882
0.110917
0.103733
0.0962766
0.0884809
0.0802692
0.0715571
0.0622556
0.0522762
0.041535
0.136279
0.130056
0.12357
0.116799
0.1097
0.102217
0.0942823
0.0858175
0.0767393
0.0669572
0.0563812
0.0449258
0.140302
0.134421
0.128204
0.121615
0.114606
0.107121
0.0990833
0.0904138
0.0810273
0.070832
0.059736
0.0476544
0.143549
0.137989
0.132025
0.125612
0.118691
0.11122
0.103107
0.0942685
0.0846154
0.0740557
0.0624937
0.0498501
0.146218
0.140938
0.135206
0.128972
0.122119
0.114682
0.106518
0.0975443
0.0876561
0.0767661
0.0647697
0.0515878
0.00406877
0.001583
0.00188307
0.00254985
0.00349503
0.00490313
0.00675281
0.00907724
0.0119535
0.015463
0.0196979
0.0247484
0.0105501
0.00430305
0.00255791
0.00339295
0.00460259
0.00616674
0.00812234
0.010484
0.0133135
0.0166791
0.0206504
0.0252553
0.0169384
0.00820085
0.00372541
0.00436735
0.00579437
0.00751617
0.00956531
0.0119535
0.0147272
0.0179384
0.0216355
0.0258503
0.0222808
0.0119791
0.00530693
0.00540043
0.00700031
0.00886516
0.0109928
0.013396
0.016108
0.0191685
0.0226299
0.026608
0.0265318
0.0151243
0.00700604
0.00646336
0.00819078
0.0101736
0.0123643
0.0147731
0.017425
0.0203551
0.0236141
0.0272641
0.0298662
0.0176077
0.0085992
0.00752852
0.00934083
0.0114202
0.013661
0.0160702
0.0186674
0.021481
0.0245462
0.0278908
0.0324785
0.0195369
0.00999224
0.00856626
0.0104347
0.0125931
0.0148744
0.0172818
0.0198289
0.0225344
0.025417
0.0284895
0.0345307
0.0210351
0.0111771
0.00955539
0.0114647
0.0136876
0.0160027
0.0184067
0.0209063
0.0235104
0.0262258
0.0290623
0.0361304
0.0222007
0.0121997
0.0104757
0.0124208
0.0147052
0.0170502
0.0194474
0.0219001
0.0244088
0.0269716
0.0295924
0.0372264
0.0227446
0.0127569
0.0113573
0.0133831
0.015656
0.0179685
0.0203539
0.0227792
0.0252036
0.0276351
0.0301187
0.000730598
0.00246994
0.00551762
0.00903329
0.0127176
0.0166309
0.0207654
0.0250877
0.0295608
0.0341592
0.0388196
0.0436026
0.000557763
0.00138837
0.00348779
0.00662441
0.00998793
0.0135084
0.0172012
0.0211655
0.0254209
0.0299433
0.0346774
0.0395818
0.000306512
0.000835507
0.00212922
0.00420758
0.00728125
0.0116085
0.0159084
0.0201113
0.0242753
0.0284683
0.032762
0.0372583
0.000326161
0.000663276
0.00168173
0.00331995
0.00579054
0.00938021
0.0140895
0.0189143
0.0236885
0.028258
0.0325444
0.0366886
0.000289376
0.000582439
0.0014529
0.00284119
0.00493526
0.00797296
0.0122839
0.0174809
0.0227593
0.027954
0.0328158
0.0372014
0.000282909
0.000525372
0.00129879
0.00252493
0.00437657
0.00705652
0.0108564
0.0160595
0.0216806
0.0273648
0.0328873
0.0379306
0.000274888
0.000493655
0.00120593
0.00233157
0.00403346
0.00648983
0.00996893
0.0148296
0.0206676
0.026719
0.0327565
0.0384726
0.000273041
0.000475993
0.00113836
0.00219257
0.00378764
0.00608405
0.0093279
0.0138543
0.0197647
0.0260977
0.0325343
0.0387933
0.000272683
0.000469637
0.00108882
0.00209091
0.00360713
0.00578854
0.00886375
0.0131456
0.0189656
0.0255155
0.032282
0.0389928
0.000273465
0.000466705
0.00104874
0.00200886
0.00345925
0.00554925
0.00849431
0.0125931
0.0182286
0.0249391
0.0319919
0.0390897
0.000274505
0.000465241
0.00101487
0.00193856
0.00333162
0.00534101
0.00817097
0.0121079
0.0175336
0.0243309
0.031624
0.0390529
0.000275798
0.000464716
0.000986707
0.00187923
0.00322261
0.00516081
0.00788733
0.0116769
0.0168994
0.023695
0.0311803
0.0389029
0.000277296
0.000464883
0.000963707
0.00183029
0.00313187
0.00500929
0.00764596
0.011305
0.0163429
0.0230551
0.0306849
0.038667
0.000279013
0.000465501
0.000945217
0.0017906
0.0030579
0.00488515
0.0074468
0.0109956
0.0158742
0.0224502
0.0301722
0.0383754
0.000280931
0.00046643
0.000930426
0.00175857
0.00299795
0.00478414
0.00728396
0.0107412
0.0154874
0.0219191
0.0296963
0.0380873
0.00028303
0.000467537
0.000918722
0.00173297
0.00294984
0.00470278
0.00715214
0.0105338
0.0151688
0.0214614
0.0292584
0.0377978
0.000285289
0.000468731
0.000909434
0.0017124
0.00291099
0.00463696
0.00704517
0.0103648
0.0149077
0.0210768
0.0288716
0.0375383
0.000287684
0.000469973
0.000902171
0.00169592
0.0028797
0.00458382
0.00695856
0.0102275
0.014695
0.0207604
0.0285452
0.0373407
0.000290161
0.000471254
0.000896496
0.0016826
0.00285423
0.00454043
0.00688763
0.0101147
0.014519
0.0204951
0.0282602
0.0371883
0.000292705
0.000472569
0.000892161
0.00167182
0.00283329
0.00450456
0.0068289
0.0100211
0.0143726
0.020271
0.0279988
0.0370122
0.000295297
0.000473945
0.000889022
0.00166321
0.0028161
0.00447463
0.0067795
0.0099423
0.0142498
0.0200845
0.0277794
0.0368816
0.000297923
0.000475411
0.000886994
0.00165665
0.00280229
0.00444978
0.00673761
0.00987476
0.0141443
0.0199239
0.027582
0.0367601
0.00030057
0.000477
0.000886001
0.00165208
0.00279175
0.00442966
0.00670217
0.00981593
0.0140512
0.0197825
0.0274083
0.0366704
0.000303234
0.000478725
0.000885974
0.00164954
0.00278467
0.00441468
0.00667373
0.00976597
0.0139685
0.019653
0.0272418
0.0365932
0.000305915
0.000480604
0.000886779
0.00164893
0.00278104
0.00440505
0.006653
0.00972612
0.0138975
0.0195339
0.0270671
0.0364466
0.000308612
0.00048261
0.000888339
0.00165022
0.00278082
0.00440096
0.00664075
0.00969855
0.0138434
0.0194369
0.0269212
0.0363398
0.000311349
0.000484751
0.000890644
0.00165334
0.00278384
0.00440218
0.00663698
0.00968401
0.0138079
0.0193632
0.0267915
0.0362056
0.000314145
0.000487034
0.000893784
0.00165839
0.00279012
0.00440842
0.00664105
0.00968192
0.0137924
0.0193209
0.026705
0.0361043
0.000316999
0.000489466
0.000897887
0.00166562
0.00279996
0.00441989
0.0066525
0.00969095
0.0137949
0.0193103
0.0266753
0.0360904
0.000319944
0.000492055
0.000903198
0.00167531
0.00281375
0.00443693
0.00667152
0.00970975
0.0138106
0.0193196
0.0266828
0.0361639
0.000322981
0.000494905
0.000909945
0.00168768
0.00283189
0.00446043
0.00669924
0.0097392
0.0138379
0.0193399
0.0266957
0.0362226
0.00032609
0.000497959
0.000918051
0.00170274
0.00285468
0.004491
0.00673706
0.00978202
0.0138809
0.0193758
0.026723
0.0363318
0.000329259
0.000501193
0.000927643
0.0017206
0.00288223
0.00452888
0.00678556
0.00984018
0.0139447
0.0194345
0.0267502
0.0363037
0.00033253
0.000504505
0.000938817
0.00174139
0.0029147
0.00457434
0.00684534
0.0099147
0.0140331
0.0195343
0.0268594
0.0364526
0.000335894
0.000507871
0.000951618
0.00176517
0.00295228
0.00462784
0.0069169
0.0100054
0.0141427
0.0196622
0.0270117
0.0367068
0.000339247
0.000511202
0.000965739
0.00179167
0.0029947
0.0046891
0.00700013
0.0101127
0.0142736
0.019812
0.027168
0.0368725
0.000342567
0.000514415
0.000981152
0.00182072
0.00304157
0.00475759
0.00709459
0.010237
0.0144296
0.0199973
0.0273733
0.0370953
0.000345867
0.000517421
0.000997837
0.00185222
0.00309257
0.0048326
0.00719932
0.0103771
0.0146095
0.0202182
0.0276304
0.0373885
0.000349111
0.000520168
0.00101576
0.00188601
0.00314736
0.00491364
0.00731327
0.010531
0.0148103
0.0204708
0.0279353
0.0377493
0.000352207
0.000522619
0.00103476
0.00192191
0.00320571
0.00500017
0.00743541
0.0106971
0.0150289
0.0207495
0.0282792
0.0381714
0.000355127
0.0005247
0.00105494
0.00195998
0.00326753
0.00509195
0.00756503
0.0108737
0.0152626
0.0210504
0.028653
0.0386024
0.000357868
0.00052631
0.00107626
0.00200016
0.00333273
0.00518875
0.00770186
0.0110603
0.0155098
0.0213709
0.0290654
0.0391589
0.000360392
0.00052742
0.00109885
0.00204259
0.00340146
0.0052907
0.00784606
0.0112567
0.0157691
0.0217031
0.0294765
0.039635
0.000362599
0.000528193
0.0011226
0.00208696
0.00347332
0.00539756
0.00799738
0.0114632
0.016042
0.0220541
0.0299179
0.0401888
0.000364497
0.000528245
0.00114713
0.00213296
0.00354809
0.00550906
0.00815548
0.0116791
0.0163279
0.0224215
0.0303744
0.0407321
0.000366109
0.000528057
0.00117309
0.00218118
0.00362611
0.00562518
0.00832001
0.0119042
0.0166266
0.0228071
0.0308575
0.0413004
0.000367536
0.000528103
0.00120028
0.00223138
0.00370714
0.00574588
0.00849115
0.0121383
0.0169375
0.0232095
0.0313724
0.0419947
0.00036903
0.000529996
0.00122871
0.00228343
0.00379101
0.00587085
0.00866853
0.0123808
0.0172589
0.0236216
0.0318738
0.0425235
0.000370808
0.000535288
0.00125795
0.00233738
0.00387791
0.00599999
0.00885175
0.0126316
0.0175926
0.0240568
0.0324343
0.0432475
0.000372745
0.000544764
0.00128864
0.00239369
0.00396825
0.00613382
0.0090407
0.0128893
0.0179339
0.0244986
0.0329971
0.0439724
0.000374621
0.000556768
0.00132052
0.00245228
0.004062
0.00627255
0.00923617
0.0131547
0.0182839
0.0249465
0.0335513
0.0446127
0.000376056
0.000569936
0.00135374
0.00251309
0.00415913
0.00641643
0.00943893
0.0134296
0.0186454
0.0254097
0.0341328
0.0453418
0.000376936
0.000583661
0.00138813
0.0025762
0.00426016
0.00656556
0.00964874
0.0137138
0.0190176
0.025883
0.0347168
0.0460444
0.000377194
0.000597987
0.0014241
0.00264196
0.00436491
0.00672019
0.00986567
0.0140068
0.0194012
0.0263703
0.0353133
0.0467212
0.000377106
0.000613101
0.00146171
0.0027105
0.00447369
0.0068804
0.0100902
0.0143099
0.0197979
0.0268756
0.0359454
0.0475203
0.000376404
0.00062911
0.00150099
0.00278171
0.00458647
0.00704646
0.0103226
0.0146226
0.0202045
0.0273882
0.0365705
0.0482489
0.000374922
0.000645742
0.0015418
0.00285576
0.00470391
0.00721879
0.0105632
0.0149456
0.0206232
0.0279145
0.0372106
0.048997
0.000372653
0.000663294
0.00158476
0.00293332
0.00482625
0.00739833
0.0108131
0.0152798
0.021056
0.0284576
0.0378709
0.0497733
0.000369623
0.000681903
0.0016298
0.00301433
0.00495377
0.00758494
0.0110724
0.0156261
0.0215032
0.029016
0.0385461
0.0505622
0.000365666
0.000701572
0.00167706
0.00309939
0.00508723
0.00777967
0.0113426
0.0159857
0.0219651
0.0295906
0.0392365
0.0513597
0.000360538
0.000722537
0.00172733
0.00318939
0.00522802
0.00798385
0.0116247
0.0163598
0.0224436
0.0301825
0.0399439
0.0521758
0.000354252
0.000745051
0.00178082
0.00328502
0.00537722
0.00819871
0.0119206
0.016751
0.0229421
0.0307949
0.0406682
0.0529955
0.000346405
0.000769376
0.00183793
0.00338676
0.00553572
0.00842622
0.012233
0.0171627
0.0234644
0.031433
0.0414164
0.0538295
0.000336142
0.000795661
0.00189952
0.00349639
0.00570638
0.00867031
0.0125654
0.017599
0.0240159
0.0321043
0.0422001
0.0546994
0.000321941
0.000823903
0.0019665
0.0036158
0.00589226
0.00893656
0.0129239
0.0180655
0.0246026
0.0328159
0.0430281
0.0556172
0.000301377
0.000854339
0.00203969
0.00374671
0.00609616
0.00922923
0.0133187
0.0185725
0.0252351
0.0335782
0.0439107
0.0565869
0.000271088
0.000887235
0.00212004
0.00389091
0.00632139
0.00955318
0.0137574
0.0191369
0.0259283
0.0344045
0.0448608
0.0576345
0.000233255
0.000924046
0.00220956
0.00405157
0.00657281
0.00991508
0.014249
0.0197718
0.0267092
0.0353186
0.0458949
0.0587476
0.000214859
0.000971743
0.00231242
0.00423348
0.00685658
0.0103244
0.0148051
0.0204913
0.0275983
0.0363646
0.0470573
0.0599936
0.000218247
0.00103425
0.00243242
0.00444354
0.00718416
0.0107966
0.0154467
0.0213209
0.0286223
0.0375679
0.0483969
0.0614082
0.000219117
0.00109652
0.00257294
0.004694
0.00757607
0.0113617
0.0162146
0.0223135
0.0298446
0.0389962
0.0499566
0.0629529
0.000231352
0.00117623
0.00275332
0.00501214
0.00807096
0.0120722
0.0171767
0.0235544
0.0313742
0.0407943
0.0519563
0.0650139
0.000248592
0.00128416
0.00300113
0.0054485
0.00874456
0.0130298
0.0184587
0.0251912
0.0333769
0.0431435
0.0545875
0.0677982
0.000274714
0.00139883
0.00330958
0.006035
0.00968563
0.014391
0.0202875
0.0275061
0.0361595
0.0463471
0.0581131
0.0714747
0.000310817
0.00194245
0.00440888
0.00771603
0.0119301
0.017203
0.0236635
0.031424
0.0405759
0.0511571
0.0631642
0.0765627
0.000748717
0.00357529
0.00740378
0.0119439
0.0171446
0.0229082
0.0291459
0.0357918
0.0427851
0.0500514
0.0575176
0.0650832
0.000442976
0.00222542
0.00497868
0.00858115
0.0130043
0.0182136
0.0241563
0.0307593
0.0379275
0.0455437
0.0534765
0.0615758
0.00066727
0.00186388
0.00414178
0.00718026
0.0110181
0.0156803
0.0211699
0.0274564
0.0344696
0.0421008
0.050211
0.058651
0.000621782
0.00154966
0.00352195
0.00618709
0.00961869
0.0138711
0.0189809
0.0249531
0.0317497
0.0392837
0.0474187
0.0559618
0.000608567
0.00133077
0.00308455
0.00548041
0.00860594
0.0125309
0.0173138
0.022987
0.0295421
0.0369192
0.0449981
0.0535867
0.000602385
0.00118497
0.00278007
0.00497283
0.00785697
0.0115121
0.0160119
0.0214093
0.0277223
0.034919
0.0429092
0.0515443
0.000601428
0.00108289
0.00255012
0.00458261
0.00727152
0.0107022
0.0149584
0.0201088
0.0261917
0.0331998
0.0410656
0.0496389
0.000603179
0.00100432
0.00236591
0.00426779
0.00679514
0.0100369
0.0140831
0.0190135
0.0248827
0.031704
0.0394324
0.0479476
0.000606202
0.000941059
0.00221422
0.00400733
0.00639858
0.00947873
0.0133422
0.0180762
0.0237481
0.0303876
0.0379672
0.0463748
0.000609341
0.00088866
0.00208633
0.00378745
0.00606215
0.00900226
0.0127048
0.017263
0.0227537
0.0292203
0.0366541
0.044975
0.000612483
0.000845075
0.0019793
0.0035984
0.00577184
0.00858912
0.012149
0.0165489
0.0218729
0.0281761
0.0354648
0.0436684
0.000615579
0.000808332
0.00188744
0.00343345
0.00551771
0.00822624
0.0116585
0.0159151
0.0210858
0.0272358
0.0343861
0.0424906
0.000618577
0.00077684
0.00180706
0.00328782
0.00529276
0.00790395
0.0112211
0.0153467
0.0203751
0.0263778
0.0333809
0.041324
0.000621454
0.000749433
0.00173577
0.00315792
0.00509168
0.00761509
0.0108277
0.0148332
0.0197293
0.0255938
0.0324657
0.0403355
0.000624155
0.000725315
0.00167195
0.00304108
0.00491059
0.0073543
0.0104713
0.0143661
0.019139
0.024872
0.031608
0.0393122
0.000626776
0.000704926
0.00161451
0.00293551
0.00474636
0.00711725
0.0101464
0.0139387
0.018596
0.0242038
0.0308113
0.0384053
0.000630202
0.000694539
0.00156281
0.00284072
0.00459664
0.00690061
0.00984875
0.013546
0.0180959
0.0235891
0.030089
0.037631
0.000635069
0.000696211
0.00151617
0.00275477
0.00445948
0.00670171
0.00957495
0.0131841
0.0176347
0.0230218
0.0294166
0.0368428
0.000640772
0.000703457
0.00147394
0.00267621
0.00433329
0.00651843
0.00932233
0.0128499
0.0172081
0.0224962
0.028792
0.0361358
0.00064652
0.000711473
0.00143554
0.00260394
0.00421668
0.00634891
0.00908852
0.0125403
0.0168125
0.0220076
0.0282081
0.0354564
0.000651929
0.000718602
0.00140045
0.00253721
0.00410862
0.00619172
0.00887154
0.0122526
0.0164442
0.0215505
0.0276563
0.0347985
0.000656919
0.000724555
0.00136824
0.00247535
0.00400813
0.00604548
0.00866949
0.0119842
0.0160994
0.0211198
0.0271294
0.0341585
0.000661502
0.000729472
0.00133858
0.00241782
0.00391435
0.00590902
0.00848074
0.011733
0.0157754
0.0207136
0.0266344
0.03359
0.000665739
0.000733546
0.00131122
0.00236434
0.00382736
0.0057813
0.00830382
0.0114971
0.0154709
0.0203326
0.0261773
0.0330823
0.000669686
0.000736949
0.00128619
0.0023147
0.00374656
0.00566154
0.00813761
0.0112751
0.0151838
0.0199721
0.0257348
0.0325194
0.000673406
0.000740065
0.0012652
0.00226856
0.00367111
0.00554902
0.00798121
0.0110661
0.0149135
0.0196343
0.025333
0.03212
0.000677077
0.000744007
0.00125342
0.00222579
0.00360037
0.00544308
0.00783381
0.010869
0.0146587
0.0193153
0.024943
0.031604
0.000680857
0.000749557
0.00125252
0.00218623
0.00353393
0.00534318
0.00769475
0.0106832
0.0144186
0.0190147
0.0245804
0.0312169
0.00068483
0.000756942
0.00125861
0.00214976
0.00347138
0.0052489
0.0075634
0.0105074
0.0141909
0.0187276
0.0242212
0.0307194
0.000689027
0.000765173
0.00126722
0.00211605
0.00341238
0.00515962
0.00743908
0.0103409
0.0139747
0.0184546
0.023888
0.0303775
0.000693192
0.000773434
0.00127577
0.00208472
0.00335668
0.00507501
0.00732104
0.0101827
0.0137691
0.0181938
0.0235629
0.0299405
0.000697266
0.000781205
0.00128318
0.00205543
0.0033041
0.00499482
0.00720913
0.0100325
0.0135732
0.0179444
0.0232518
0.0295757
0.000701214
0.000788381
0.00128938
0.00202805
0.00325439
0.00491897
0.00710294
0.00988971
0.0133866
0.0177067
0.0229569
0.0292251
0.000705026
0.000794864
0.0012943
0.00200233
0.00320742
0.00484736
0.00700195
0.00975369
0.0132088
0.0174803
0.0226767
0.0288887
0.000708727
0.000800708
0.00129806
0.00197815
0.00316308
0.00477965
0.00690564
0.00962384
0.0130389
0.0172639
0.0224082
0.0285631
0.000712316
0.000805976
0.00130078
0.00195531
0.00312118
0.0047154
0.00681372
0.0094997
0.0128764
0.0170566
0.0221502
0.028249
0.000715799
0.000810834
0.00130275
0.00193377
0.00308145
0.00465437
0.00672625
0.00938142
0.0127211
0.0168586
0.0219072
0.0279785
0.000719196
0.000815289
0.00130406
0.00191354
0.00304372
0.00459618
0.00664268
0.00926825
0.0125731
0.0166708
0.0216777
0.0277047
0.000722542
0.000819442
0.00130485
0.00189461
0.00300797
0.00454078
0.00656268
0.00916015
0.0124318
0.0164918
0.0214572
0.0274324
0.000725845
0.00082332
0.00130535
0.00187779
0.0029741
0.00448791
0.00648646
0.00905701
0.012297
0.0163208
0.0212446
0.0271696
0.000729132
0.000827069
0.00130601
0.00186429
0.00294188
0.00443744
0.00641354
0.00895866
0.0121683
0.0161568
0.0210404
0.02692
0.000732424
0.000830908
0.00130768
0.0018563
0.00291155
0.00438951
0.00634407
0.00886457
0.0120453
0.0159997
0.0208419
0.0266653
0.00073566
0.000834779
0.0013109
0.0018544
0.00288334
0.00434369
0.00627748
0.00877455
0.0119275
0.0158489
0.0206546
0.0264591
0.000738945
0.000839314
0.00131593
0.00185734
0.00285697
0.00430001
0.006214
0.00868855
0.0118146
0.0157047
0.0204758
0.0262412
0.000742626
0.000844188
0.00132263
0.00186347
0.00283259
0.00425868
0.00615353
0.00860665
0.0117073
0.0155682
0.0203097
0.0260584
0.000746271
0.000849605
0.00133071
0.00187125
0.00280996
0.00421945
0.00609625
0.00852849
0.0116049
0.0154377
0.0201459
0.0258293
0.000750013
0.000855041
0.00133946
0.00187953
0.00278915
0.00418233
0.00604189
0.00845405
0.0115075
0.0153141
0.0199952
0.025681
0.000753773
0.000860822
0.00134839
0.0018876
0.0027697
0.00414724
0.00599058
0.00838357
0.011415
0.0151959
0.0198442
0.025448
0.000757885
0.000866464
0.00135722
0.0018953
0.00275162
0.00411434
0.0059421
0.0083165
0.0113271
0.0150832
0.0197032
0.0253099
0.000761916
0.000872257
0.00136603
0.00190254
0.0027349
0.00408338
0.00589612
0.0082527
0.0112432
0.0149763
0.0195722
0.0251593
0.000766084
0.000877704
0.0013743
0.00190923
0.00271923
0.00405404
0.00585274
0.0081923
0.0111637
0.0148751
0.0194475
0.0250016
0.000770289
0.000883009
0.00138213
0.00191528
0.00270459
0.00402632
0.00581146
0.0081351
0.0110885
0.0147792
0.0193275
0.0248459
0.000774519
0.000888107
0.00138958
0.00192086
0.00269095
0.00400048
0.00577274
0.00808096
0.0110175
0.014688
0.0192107
0.0246885
0.000778818
0.000893261
0.00139677
0.00192605
0.00267853
0.00397636
0.00573625
0.00802984
0.0109501
0.0146014
0.0191015
0.0245696
0.000783218
0.000898127
0.00140345
0.00193073
0.00266684
0.00395369
0.00570223
0.00798195
0.0108867
0.0145197
0.018998
0.0244334
0.00078777
0.000902916
0.0014098
0.00193506
0.00265613
0.00393258
0.00567026
0.00793724
0.0108277
0.0144437
0.0189032
0.0243291
0.000792424
0.000907656
0.00141597
0.00193925
0.00264648
0.00391335
0.00564089
0.00789565
0.0107727
0.0143726
0.0188129
0.0242021
0.000797127
0.000912191
0.00142194
0.00194328
0.00263813
0.00389583
0.00561381
0.00785717
0.0107217
0.014307
0.0187309
0.0241186
0.000801966
0.00091695
0.0014277
0.0019472
0.00263088
0.00387988
0.00558934
0.00782241
0.0106753
0.0142473
0.0186568
0.0240226
0.000807374
0.000921661
0.00143332
0.00195119
0.00262511
0.00386586
0.00556733
0.00779086
0.0106337
0.0141935
0.0185871
0.0239226
0.000812862
0.000926513
0.00143915
0.00195551
0.0026212
0.00385379
0.00554797
0.00776296
0.0105966
0.0141457
0.0185285
0.0238721
0.000818572
0.000931258
0.00144489
0.00196018
0.00261916
0.00384364
0.00553133
0.00773875
0.0105644
0.0141039
0.0184721
0.023763
0.000824606
0.000936142
0.00145076
0.00196534
0.00261922
0.00383555
0.00551787
0.00771907
0.0105377
0.014069
0.0184313
0.0237686
0.000830981
0.00094117
0.00145686
0.00197118
0.00262151
0.00382998
0.00550767
0.00770383
0.010517
0.0140422
0.0183955
0.0236665
0.00083778
0.000946498
0.00146342
0.00197786
0.00262605
0.00382704
0.00550096
0.0076934
0.0105024
0.0140225
0.0183665
0.0236415
0.000845083
0.000951931
0.00147021
0.00198528
0.00263248
0.00382685
0.00549838
0.00768849
0.0104944
0.0140106
0.0183469
0.0236
0.000852996
0.000957662
0.00147741
0.00199348
0.0026407
0.00382983
0.00550024
0.00768982
0.0104945
0.0140081
0.0183375
0.0235797
0.000861595
0.000963789
0.0014852
0.00200257
0.00265053
0.00383656
0.00550745
0.00769802
0.0105033
0.0140161
0.0183412
0.023577
0.00087098
0.000970086
0.00149346
0.0020124
0.00266218
0.00384763
0.00552072
0.00771426
0.0105222
0.0140363
0.0183607
0.0236051
0.000881343
0.000976973
0.00150218
0.002023
0.00267555
0.00386397
0.00554177
0.00774071
0.0105534
0.0140717
0.0184008
0.0236572
0.000893555
0.000984435
0.00151147
0.00203437
0.00269105
0.00388691
0.00557225
0.00777962
0.0106006
0.0141267
0.0184627
0.0237144
0.000907711
0.000993543
0.00152283
0.00204808
0.00271122
0.00392042
0.005617
0.00783608
0.0106686
0.014206
0.0185546
0.0238367
0.00092337
0.000998001
0.00153048
0.00205888
0.00273097
0.00395894
0.00567168
0.00790808
0.0107581
0.0143122
0.0186727
0.0239197
0.000962372
0.00103448
0.00156336
0.00209739
0.00279705
0.00405716
0.00579219
0.00804776
0.0109126
0.0144763
0.0188453
0.0241608
0.00071799
0.000915162
0.00150388
0.00203035
0.00272426
0.00400299
0.00575707
0.00803915
0.010939
0.0145499
0.0189766
0.0242969
0.119284
0.10239
0.158796
0.256512
0.0786799
0.0566525
0.138664
0.057659
0.13644
0.0928433
0.239167
0.136528
0.182371
0.0806113
0.169999
0.0953216
0.0902706
0.157518
0.136919
0.138763
0.109883
0.136437
0.092365
0.164782
0.133363
0.206372
0.192903
0.097671
0.0594946
0.166414
0.11689
0.134569
0.0886176
0.101038
0.137676
0.126851
0.420093
0.131749
0.0928973
0.114021
0.0904031
0.12786
0.0657743
0.135653
0.14083
0.180152
0.136398
0.127078
0.0991727
0.164734
0.13632
0.13167
0.167209
0.0819778
0.0483639
0.0773965
0.137752
0.139383
0.140064
0.137542
0.0512837
0.041032
0.107807
0.193744
0.120239
0.0696131
0.139196
0.129894
0.109711
0.0379063
0.130978
0.12784
0.128304
0.0994781
0.129951
0.104725
0.0456857
0.137081
0.0764169
0.050532
0.050265
0.140053
0.137682
0.204862
0.135947
0.126463
0.14009
0.129159
0.140113
0.0688732
0.218126
0.148721
0.089081
0.138706
0.138615
0.234452
0.139804
0.134034
0.248984
0.138455
0.135458
0.0686487
0.099258
0.176389
0.138397
0.202306
0.138593
0.0766716
0.117678
0.139216
0.14007
0.139241
0.125095
0.220821
0.20272
0.116107
0.0934807
0.0497416
0.0915386
0.134614
0.103274
0.15267
0.134785
0.0943181
0.154801
0.0665634
0.068031
0.0956232
0.147911
0.139489
0.139582
0.0612546
0.17163
0.139167
0.136247
0.0313946
0.0606694
0.133783
0.0329416
0.137321
0.0397842
0.0889537
0.102385
0.140053
0.139911
0.139872
0.135656
0.12214
0.140053
0.0794657
0.13231
0.0748388
0.111479
0.112044
0.137143
0.156789
0.127106
0.115353
0.187661
0.136343
0.13429
0.121987
0.141769
0.0833262
0.0823972
0.207413
0.139779
0.0346396
0.103023
0.162555
0.18401
0.0204548
0.130042
0.159004
0.138129
0.131686
0.132333
0.0827554
0.137152
0.0839479
0.0994864
0.0669684
0.134517
0.139071
0.0505224
0.0717049
0.137909
0.161265
0.136681
0.13752
0.138133
0.137735
0.253762
0.135177
0.142842
0.216779
0.137534
0.154095
0.0960703
0.0997737
0.152493
0.0303628
0.043572
0.100809
0.132661
0.126211
0.139347
0.222531
0.13749
0.0294191
0.13422
0.0543525
0.123354
0.0978022
0.0619867
0.132802
0.137873
0.136936
0.138808
0.168487
0.224069
0.138473
0.131232
0.0478876
0.139871
0.14726
0.0772361
0.0957296
0.109049
0.0981182
0.0806302
0.0949135
0.135549
0.0473504
0.111912
0.151265
0.0909739
0.0413189
0.0705698
0.129957
0.139998
0.264242
0.138223
0.110357
0.120535
0.0725239
0.0518361
0.138847
0.108146
0.12488
0.139788
0.0450109
0.0718383
0.104291
0.179465
0.242083
0.0478458
0.12553
0.200978
0.133799
0.0629931
0.131248
0.108493
0.18075
0.147712
0.139984
0.187975
0.193191
0.131753
0.110624
0.137902
0.117476
0.140013
0.136863
0.125759
0.134152
0.126417
0.101086
0.0966531
0.0995191
0.130836
0.137743
0.135737
0.0640184
0.115747
0.0838415
0.131366
0.135115
0.208709
0.138416
0.133109
0.118588
0.137872
0.0802821
0.125033
0.103268
0.129274
0.094526
0.139388
0.139173
0.0928298
0.0535873
0.206332
0.0744001
0.261277
0.082184
0.134982
0.138995
0.136135
0.0303938
0.0993783
0.239496
0.0789343
0.152151
0.125642
0.0935259
0.139721
0.0725768
0.0539035
0.0768816
0.131327
0.0987742
0.134112
0.13796
0.161049
0.141303
0.0478343
0.139407
0.128109
0.134165
0.128304
0.137501
0.127067
0.135647
0.139988
0.11949
0.0697428
0.0428772
0.116018
0.0836798
0.0835567
0.131712
0.109456
0.0970642
0.151283
0.12804
0.145242
0.0976469
0.135675
0.12991
0.139496
0.105265
0.0759163
0.130873
0.137052
0.104275
0.121053
0.12834
0.112274
0.12919
0.0945975
0.140029
0.126241
0.232936
0.132295
0.138085
0.138773
0.104216
0.11713
0.138613
0.135119
0.085761
0.133461
0.130242
0.102077
0.137756
0.126231
0.0809904
0.138623
0.133751
0.134859
0.100288
0.139771
0.0930291
0.108496
0.0597941
0.0352397
0.0608805
0.120313
0.132604
0.138279
0.139882
0.0937077
0.134961
0.221785
0.106892
0.167468
0.0377765
0.0494459
0.131665
0.0494089
0.146588
0.118813
0.131114
0.135223
0.0541554
0.0993569
0.0355006
0.19559
0.096766
0.139228
0.106209
0.123658
0.140052
0.106117
0.113796
0.207892
0.119905
0.134848
0.0985433
0.088817
0.137538
0.179835
0.0725503
0.187813
0.0454062
0.0652367
0.137713
0.0927746
0.132489
0.0626748
0.138297
0.0848604
0.138913
0.139037
0.133971
0.137498
0.11472
0.0627657
0.0714386
0.135044
0.118211
0.149916
0.0990509
0.184638
0.136784
0.123763
0.135436
0.136053
0.15439
0.133244
0.138287
0.113036
0.0306539
0.206821
0.123665
0.128332
0.19273
0.148703
0.1495
0.177589
0.137082
0.109705
0.0930374
0.139179
0.20792
0.0620652
0.13971
0.0360665
0.13439
0.0820962
0.131479
0.0725803
0.108171
0.0444719
0.0693208
0.0432232
0.121249
0.13596
0.100822
0.0594281
0.13804
0.138533
0.136409
0.0550148
0.076325
0.126478
0.11783
0.140095
0.140099
0.227536
0.0648607
0.109128
0.136424
0.102177
0.172271
0.0650985
0.0989233
0.12682
0.0460285
0.129996
0.103542
0.200385
0.140218
0.110454
0.138571
0.126404
0.11658
0.104067
0.142756
0.108844
0.0969194
0.210586
0.142666
0.139955
0.103741
0.0451882
0.0564524
0.124689
0.10574
0.139689
0.0925836
0.130435
0.129283
0.125822
0.138352
0.137786
0.138322
0.119079
0.0575398
0.132945
0.133138
0.102428
0.125029
0.135548
0.0631798
0.075262
0.128542
0.121746
0.118922
0.138124
0.136786
0.221706
0.139858
0.137717
0.116384
0.139872
0.137059
0.121477
0.158916
0.0546374
0.136429
0.130495
0.137774
0.0475912
0.0629169
0.0651338
0.157098
0.146573
0.136436
0.0820449
0.139103
0.0714266
0.120569
0.132672
0.0458753
0.133337
0.199557
0.101513
0.149029