/*--------------------------------*- C++ -*----------------------------------*\
| =========                 |                                                 |
| \\      /  F ield         | OpenFOAM: The Open Source CFD Toolbox           |
|  \\    /   O peration     | Version:  2.3.0                                 |
|   \\  /    A nd           | Web:      www.OpenFOAM.org                      |
|    \\/     M anipulation  |                                                 |
\*---------------------------------------------------------------------------*/
FoamFile
{
    version     2.0;
    format      ascii;
    class       volScalarField;
    location    "6000";
    object      p;
}
// * * * * * * * * * * * * * * * * * * * * * * * * * * * * * * * * * * * * * //

dimensions      [0 2 -2 0 0 0 0];

internalField   nonuniform List<scalar> 
6617
(
-0.00179042
0.0258923
0.871204
2.55286
5.33995
9.27627
14.5599
22.3114
33.0992
42.7828
46.7741
59.524
21.1778
25.2406
31.2299
38.888
48.4979
60.0195
73.3369
88.3021
104.552
121.398
138.395
155.381
37.8087
43.0391
49.7054
57.0129
65.025
73.6607
82.8495
92.4644
102.326
112.253
122.119
131.809
49.6235
55.8631
63.134
70.8796
79.1206
87.742
96.6198
105.607
114.545
123.276
131.651
139.541
58.8002
64.6135
71.136
77.9018
84.9117
92.107
99.4263
106.794
114.127
121.333
128.318
135.007
65.5721
71.1208
77.0982
83.2571
89.5876
96.048
102.589
109.154
115.683
122.109
128.356
134.36
70.8856
75.8467
81.1458
86.6294
92.265
98.0248
103.87
109.759
115.647
121.48
127.198
132.736
74.2217
79.1174
83.999
89.0022
94.1295
99.3815
104.739
110.156
115.61
121.053
126.41
131.62
77.588
81.8746
86.2905
90.8239
95.496
100.344
105.273
110.252
115.297
120.366
125.397
130.395
80.9268
84.7064
88.5939
92.522
96.7267
101.26
105.716
110.198
114.745
119.335
124.075
128.949
115.263
149.92
173.425
191.444
205.637
216.675
224.731
229.74
231.868
231.463
228.529
223.152
170.632
182.684
192.675
200.895
207.424
212.302
215.605
217.495
218.216
217.928
216.177
212.746
141.374
150.968
160.403
169.379
177.664
185.057
191.379
196.496
200.355
202.91
203.756
202.866
146.975
154.117
160.976
167.435
173.387
178.744
183.439
187.428
190.696
193.197
194.651
195.034
141.446
147.744
153.874
159.737
165.241
170.304
174.862
178.862
182.278
185.053
186.997
188.429
140.126
145.714
151.107
156.241
161.053
165.493
169.52
173.108
176.249
178.923
180.942
182.43
138.073
143.237
148.203
152.919
157.335
161.412
165.115
168.438
171.371
173.927
175.914
177.43
136.612
141.436
146.054
150.434
154.525
158.294
161.702
164.782
167.488
169.869
171.721
173.202
135.203
139.804
144.166
148.321
152.238
155.797
158.961
161.863
164.367
166.61
168.394
169.876
133.767
138.206
142.395
146.421
150.192
153.639
156.608
159.331
161.367
163.659
165.305
167.034
-71.5818
-71.8163
-71.8737
-71.6668
-71.205
-70.4624
-69.3839
-67.9514
-66.1708
-63.9676
-60.8257
-54.4028
-72.3723
-72.6229
-72.6554
-72.3311
-71.5909
-70.373
-68.5603
-65.9593
-62.3023
-57.257
-50.6415
-42.8222
-72.0387
-72.1236
-71.977
-71.3722
-70.2044
-68.4057
-65.8727
-62.4531
-57.9852
-52.3854
-45.7622
-38.6423
-70.756
-70.5798
-70.1877
-69.3172
-67.8671
-65.7784
-62.9745
-59.3696
-54.9151
-49.6539
-43.7728
-37.6727
-69.0268
-68.6354
-68.0593
-67.0133
-65.4084
-63.2048
-60.3445
-56.7862
-52.5188
-47.5955
-42.194
-36.6352
-66.8269
-66.5409
-65.8584
-64.7047
-63.0333
-60.8215
-58.0069
-54.5586
-50.4742
-45.8124
-40.7154
-35.4559
-64.448
-64.4233
-63.7189
-62.5266
-60.8287
-58.6671
-55.947
-52.6383
-48.715
-44.2702
-39.4154
-34.3793
-62.2546
-62.4273
-61.7043
-60.5343
-58.7943
-56.6884
-54.0322
-50.8257
-46.9578
-42.6549
-37.9363
-33.0261
-60.1952
-60.6092
-59.9617
-58.9312
-56.9944
-55.0319
-52.5922
-49.6604
-45.8161
-41.7145
-37.1967
-32.4705
-55.7308
-57.7079
-57.9145
-56.8135
-53.5123
-51.1144
-48.7038
-45.8005
-41.9371
-38.1191
-33.3807
-28.6461
-41.1981
-34.1459
-28.6028
-23.0614
-17.5244
-12.0952
-6.73979
-1.40493
3.97107
9.43316
14.9422
20.5448
-34.6393
-29.8764
-26.5484
-22.8113
-18.6293
-14.0861
-9.27686
-4.28678
0.850564
6.14043
11.4435
16.6647
-31.8468
-26.2126
-22.5856
-19.2735
-15.8108
-12.1308
-8.23342
-4.12701
0.194103
4.77015
9.46557
13.801
-31.7496
-26.2584
-22.3585
-18.9957
-15.5366
-11.9659
-8.27525
-4.4569
-0.503874
3.62891
8.01227
12.3649
-31.2144
-26.146
-22.2189
-18.9024
-15.4923
-12.0092
-8.44046
-4.78381
-1.043
2.78261
6.79775
11.0941
-30.3139
-25.496
-21.5351
-18.2239
-14.8737
-11.5054
-8.09574
-4.63909
-1.13104
2.41223
6.07279
10.0679
-29.4219
-24.7458
-20.7639
-17.4341
-14.1249
-10.841
-7.55952
-4.27461
-0.97713
2.3181
5.67779
9.31114
-28.1893
-23.6542
-19.8118
-16.6102
-13.3988
-10.1972
-7.01467
-3.86735
-0.744235
2.34079
5.4653
8.80759
-27.6693
-23.0114
-19.1057
-15.9371
-12.7657
-9.60204
-6.48744
-3.46151
-0.485516
2.40604
5.34576
8.49341
-23.7561
-19.468
-17.0312
-15.1064
-12.1782
-9.01082
-5.86035
-2.97573
-0.130393
2.55878
5.35832
8.40856
-134.894
-127.537
-119.626
-112.52
-103.68
-93.0829
-81.5675
-69.8594
-58.2158
-47.0806
-36.9825
-29.0603
-83.8997
-84.1124
-83.7632
-83.0182
-82.1946
-81.5318
-80.5809
-78.1939
-73.7013
-67.1297
-58.6855
-50.7044
-90.003
-89.8842
-89.8549
-89.7726
-89.4407
-88.4841
-86.7468
-84.3456
-81.1638
-76.6829
-70.2763
-64.2203
-85.3379
-85.3273
-85.2765
-85.1977
-85.0784
-84.8699
-84.4494
-83.5989
-82.0978
-79.7741
-75.9071
-72.394
-85.2981
-85.2863
-85.2711
-85.2278
-85.1341
-84.9588
-84.6531
-84.1139
-83.1576
-81.5964
-79.0287
-77.1047
-84.4548
-84.4468
-84.4259
-84.3864
-84.3197
-84.2115
-84.0358
-83.7452
-83.2376
-82.3462
-80.8276
-80.0807
-84.2756
-84.2696
-84.2554
-84.2263
-84.1753
-84.0914
-83.9566
-83.7458
-83.4043
-82.8318
-81.8887
-81.2232
-84.1229
-84.1187
-84.1071
-84.0846
-84.0478
-83.9898
-83.8997
-83.76
-83.5384
-83.1774
-82.5839
-82.0659
-84.0945
-84.0918
-84.0837
-84.0677
-84.0418
-84.0017
-83.94
-83.844
-83.6952
-83.4626
-83.088
-82.6886
-84.0836
-84.0819
-84.0756
-84.0632
-84.0437
-84.0143
-83.9699
-83.9011
-83.795
-83.6291
-83.3601
-83.0292
-84.0896
-84.0883
-84.0827
-84.0716
-84.0544
-84.0287
-83.9908
-83.9335
-83.8458
-83.7078
-83.4837
-83.2313
-84.1051
-84.1037
-84.0981
-84.0871
-84.0697
-84.0438
-84.0058
-83.9488
-83.8607
-83.7229
-83.5086
-83.1728
-84.1384
-84.1369
-84.1312
-84.1202
-84.1029
-84.0775
-84.0406
-83.987
-83.9067
-83.7835
-83.5958
-83.4371
-84.1901
-84.1884
-84.1826
-84.1714
-84.1538
-84.1278
-84.0903
-84.0357
-83.9541
-83.8321
-83.6527
-83.3832
-84.2634
-84.2617
-84.2561
-84.2453
-84.2286
-84.2041
-84.1691
-84.1193
-84.0473
-83.9447
-83.8003
-83.6151
-84.355
-84.3531
-84.3476
-84.337
-84.3208
-84.2971
-84.2634
-84.2158
-84.1473
-84.0491
-83.9073
-83.7259
-84.4632
-84.4615
-84.4561
-84.4462
-84.4308
-84.4087
-84.3774
-84.3334
-84.271
-84.1824
-84.0568
-83.8943
-84.5843
-84.5826
-84.5775
-84.5682
-84.554
-84.5335
-84.5049
-84.4651
-84.409
-84.3298
-84.2177
-84.0713
-84.7139
-84.7123
-84.7074
-84.6987
-84.6855
-84.6668
-84.6408
-84.605
-84.5554
-84.4863
-84.3924
-84.3013
-84.8482
-84.8467
-84.8421
-84.8339
-84.8215
-84.8039
-84.7797
-84.7463
-84.6994
-84.6336
-84.5455
-84.4287
-84.9848
-84.9834
-84.9791
-84.9714
-84.9599
-84.9438
-84.9218
-84.892
-84.8511
-84.795
-84.7206
-84.6391
-85.1208
-85.1195
-85.1153
-85.108
-85.0971
-85.0819
-85.0611
-85.0328
-84.9936
-84.9386
-84.8609
-84.7652
-85.2552
-85.2539
-85.2499
-85.243
-85.2327
-85.2185
-85.1993
-85.1735
-85.1384
-85.0901
-85.0243
-84.952
-85.3853
-85.384
-85.3801
-85.3734
-85.3635
-85.3498
-85.3312
-85.3065
-85.2732
-85.228
-85.168
-85.1201
-85.5118
-85.5106
-85.5067
-85.5001
-85.4902
-85.4766
-85.4579
-85.4327
-85.3983
-85.3509
-85.2876
-85.2125
-85.6355
-85.6342
-85.6303
-85.6236
-85.6137
-85.6
-85.5815
-85.5565
-85.523
-85.4784
-85.4214
-85.3665
-85.7562
-85.7548
-85.7509
-85.744
-85.7337
-85.7195
-85.6999
-85.673
-85.636
-85.585
-85.5161
-85.4384
-85.8774
-85.8761
-85.8722
-85.8653
-85.855
-85.8404
-85.8201
-85.792
-85.7528
-85.698
-85.6236
-85.5242
-86.0032
-86.0016
-85.9973
-85.9901
-85.9795
-85.9647
-85.9442
-85.9159
-85.8765
-85.8219
-85.7473
-85.6421
-86.1289
-86.1274
-86.1233
-86.1162
-86.1058
-86.0914
-86.0714
-86.0438
-86.0056
-85.9526
-85.8795
-85.795
-86.2553
-86.2539
-86.2499
-86.2431
-86.2331
-86.2192
-86.1999
-86.1734
-86.1367
-86.0863
-86.018
-85.9268
-86.3814
-86.38
-86.3761
-86.3694
-86.3595
-86.3456
-86.3264
-86.3
-86.2641
-86.2159
-86.1538
-86.1103
-86.5112
-86.5093
-86.5049
-86.4977
-86.4871
-86.4722
-86.4513
-86.4218
-86.3797
-86.3189
-86.2325
-86.1103
-86.6416
-86.64
-86.6358
-86.6289
-86.6188
-86.6048
-86.5851
-86.5573
-86.5176
-86.461
-86.3815
-86.2604
-86.7711
-86.7696
-86.7657
-86.7594
-86.7503
-86.7378
-86.7203
-86.6959
-86.6619
-86.6143
-86.5486
-86.4813
-86.8973
-86.8957
-86.8921
-86.8863
-86.878
-86.8666
-86.8509
-86.8288
-86.7976
-86.7533
-86.6932
-86.6291
-87.0171
-87.0153
-87.0117
-87.0063
-86.9988
-86.9889
-86.9753
-86.9561
-86.9288
-86.8899
-86.8365
-86.7698
-87.1232
-87.1217
-87.1185
-87.1139
-87.1077
-87.0997
-87.0889
-87.0736
-87.0517
-87.02
-86.9747
-86.9162
-87.2122
-87.2108
-87.208
-87.2043
-87.1996
-87.1939
-87.1864
-87.1759
-87.1607
-87.1381
-87.1043
-87.0626
-87.2778
-87.2766
-87.2745
-87.2719
-87.269
-87.2658
-87.2617
-87.256
-87.2472
-87.233
-87.2099
-87.1996
-87.3181
-87.3168
-87.315
-87.3133
-87.312
-87.3111
-87.3106
-87.3097
-87.3073
-87.3013
-87.2897
-87.2712
-87.3243
-87.3229
-87.3212
-87.3203
-87.3208
-87.3228
-87.3267
-87.3325
-87.3399
-87.3488
-87.3591
-87.3832
-87.2822
-87.2819
-87.2819
-87.2833
-87.2866
-87.2925
-87.3014
-87.3139
-87.3299
-87.3491
-87.366
-87.3539
-87.1987
-87.1982
-87.1988
-87.2017
-87.2074
-87.217
-87.2312
-87.2512
-87.2781
-87.3131
-87.3599
-87.4547
-87.062
-87.0617
-87.0632
-87.0675
-87.0755
-87.0882
-87.1069
-87.1327
-87.167
-87.2114
-87.2676
-87.3067
-86.8687
-86.8683
-86.8698
-86.8754
-86.8858
-86.9025
-86.9271
-86.9615
-87.0079
-87.0683
-87.14
-87.189
-86.5984
-86.5999
-86.6037
-86.6123
-86.6267
-86.6486
-86.6803
-86.7243
-86.7838
-86.8617
-86.9652
-87.166
-86.2633
-86.2657
-86.2705
-86.2813
-86.2989
-86.3253
-86.3631
-86.4149
-86.4838
-86.5727
-86.6825
-86.755
-85.8519
-85.8556
-85.8622
-85.8755
-85.897
-85.9293
-85.9755
-86.0394
-86.1255
-86.2379
-86.3801
-86.5602
-85.3579
-85.3618
-85.3696
-85.3853
-85.4107
-85.4489
-85.5037
-85.5796
-85.6817
-85.8158
-85.9895
-86.2419
-84.7662
-84.7718
-84.7826
-84.8025
-84.8336
-84.8794
-84.9442
-85.0332
-85.1523
-85.3083
-85.5032
-85.6792
-84.0859
-84.0915
-84.1044
-84.1279
-84.1645
-84.2184
-84.2947
-84.4
-84.542
-84.7292
-84.9721
-85.3034
-83.302
-83.3084
-83.3234
-83.3508
-83.3929
-83.4548
-83.5423
-83.6628
-83.8248
-84.0378
-84.3112
-84.6476
-82.4111
-82.418
-82.4351
-82.4666
-82.5152
-82.5864
-82.6869
-82.825
-83.0104
-83.2539
-83.5637
-83.891
-81.3983
-81.4079
-81.4291
-81.4669
-81.524
-81.6068
-81.7232
-81.8829
-82.0977
-82.3803
-82.7479
-83.2439
-80.2758
-80.2863
-80.3107
-80.3538
-80.4188
-80.5129
-80.6449
-80.8259
-81.0687
-81.3881
-81.8008
-82.3012
-79.0313
-79.0433
-79.0711
-79.1203
-79.1942
-79.3012
-79.4511
-79.6563
-79.9314
-80.2932
-80.7604
-81.3219
-77.6591
-77.6736
-77.7064
-77.7633
-77.8479
-77.9698
-78.1399
-78.3718
-78.6822
-79.0896
-79.6133
-80.24
-76.1683
-76.1852
-76.2228
-76.2876
-76.3838
-76.5217
-76.714
-76.9759
-77.3257
-77.7846
-78.3732
-79.0715
-74.557
-74.5763
-74.6194
-74.693
-74.8019
-74.9579
-75.1749
-75.4703
-75.8644
-76.3807
-77.0422
-77.8253
-72.8267
-72.849
-72.8983
-72.982
-73.1054
-73.2816
-73.5265
-73.8593
-74.3028
-74.8834
-75.6257
-76.4963
-70.982
-71.0088
-71.0658
-71.1613
-71.3014
-71.5005
-71.7765
-72.1506
-72.648
-73.2975
-74.1247
-75.091
-69.0422
-69.073
-69.1384
-69.2464
-69.4047
-69.6292
-69.9394
-70.3591
-70.9157
-71.6403
-72.5583
-73.6221
-67.0191
-67.0548
-67.1296
-67.2522
-67.4311
-67.6841
-68.0329
-68.5038
-69.1266
-69.9344
-70.9506
-72.1199
-64.9345
-64.9757
-65.0617
-65.201
-65.4035
-65.6891
-66.082
-66.6108
-67.3083
-68.2092
-69.3336
-70.6226
-62.8167
-62.8652
-62.9644
-63.1232
-63.3531
-63.6763
-64.1196
-64.7143
-65.4959
-66.4999
-67.7391
-69.1451
-60.7099
-60.766
-60.8806
-61.0615
-61.3231
-61.6897
-62.1909
-62.8614
-63.739
-64.8599
-66.2261
-67.7706
-58.6565
-58.7221
-58.8552
-59.063
-59.3622
-59.78
-60.3492
-61.1068
-62.0932
-63.3443
-64.8458
-66.5114
-56.7269
-56.8047
-56.9606
-57.2008
-57.545
-58.0241
-58.6733
-59.5317
-60.6403
-62.0294
-63.649
-65.3163
-55.0311
-55.1254
-55.3087
-55.5872
-55.9858
-56.5389
-57.2851
-58.265
-59.5193
-61.0713
-62.8347
-64.6224
-53.6241
-53.7419
-53.9657
-54.3
-54.7727
-55.4229
-56.2916
-57.4179
-58.8342
-60.5477
-62.4261
-64.1401
-52.6275
-52.7656
-53.0406
-53.4542
-54.0395
-54.8394
-55.89
-57.2161
-58.8301
-60.7142
-62.7096
-64.4764
-52.8247
-53.0053
-53.3766
-53.914
-54.6347
-55.5707
-56.748
-58.1854
-59.887
-61.8041
-63.7699
-65.5524
-53.4487
-53.6222
-54.0558
-54.7621
-55.7418
-57.0007
-58.5185
-60.2388
-62.0797
-63.9415
-65.6751
-67.1646
-56.2124
-58.8035
-60.5341
-61.5903
-62.3472
-63.1011
-63.9626
-64.9589
-66.06
-67.1993
-68.2683
-69.0555
346.161
345.365
340.607
333.251
323.399
310.943
296.666
281.987
268.165
255.931
244.97
234.25
293.196
292.173
289.564
286.81
284.034
280.951
277.128
272.155
265.814
258.229
249.612
239.812
291.582
290.969
289.617
287.578
284.739
281.069
276.583
271.31
265.267
258.463
250.844
242.394
283.298
282.713
281.761
280.372
278.459
275.899
272.567
268.365
263.252
257.252
250.37
242.4
270.169
269.931
269.56
268.907
267.912
266.465
264.44
261.692
258.08
253.508
247.893
241.079
261.006
260.888
260.672
260.246
259.575
258.571
257.129
255.125
252.425
248.902
244.414
238.794
253.879
253.783
253.588
253.231
252.689
251.892
250.753
249.166
247.006
244.146
240.432
235.614
247.134
247.061
246.908
246.632
246.212
245.592
244.702
243.448
241.719
239.39
236.323
232.301
240.914
240.86
240.743
240.528
240.2
239.711
239.004
237.999
236.597
234.681
232.121
228.713
235.3
235.258
235.163
234.986
234.715
234.312
233.729
232.898
231.734
230.132
227.975
225.102
230.141
230.107
230.026
229.876
229.647
229.306
228.812
228.109
227.12
225.751
223.894
221.375
225.329
225.301
225.232
225.103
224.907
224.615
224.192
223.588
222.736
221.551
219.936
217.726
220.819
220.796
220.737
220.626
220.456
220.204
219.837
219.313
218.572
217.537
216.123
214.174
216.582
216.563
216.511
216.414
216.266
216.045
215.725
215.268
214.623
213.723
212.499
210.843
212.576
212.56
212.515
212.429
212.299
212.104
211.822
211.419
210.851
210.056
208.965
207.512
208.768
208.755
208.715
208.639
208.523
208.35
208.099
207.741
207.235
206.527
205.552
204.255
205.135
205.126
205.09
205.022
204.918
204.763
204.539
204.219
203.769
203.14
202.282
201.185
201.652
201.647
201.616
201.554
201.461
201.321
201.119
200.831
200.425
199.855
199.071
198.05
198.306
198.303
198.275
198.22
198.134
198.007
197.824
197.562
197.194
196.679
195.972
195.084
195.081
195.079
195.053
195.003
194.925
194.809
194.641
194.402
194.066
193.595
192.945
192.121
191.962
191.961
191.937
191.891
191.819
191.712
191.558
191.338
191.029
190.595
189.996
189.248
188.939
188.938
188.916
188.874
188.807
188.709
188.566
188.363
188.078
187.677
187.122
186.441
186.002
186.001
185.981
185.943
185.881
185.79
185.658
185.47
185.207
184.837
184.327
183.727
183.145
183.144
183.125
183.089
183.032
182.947
182.824
182.65
182.405
182.061
181.586
181.029
180.355
180.354
180.337
180.304
180.251
180.171
180.057
179.895
179.667
179.346
178.903
178.426
177.627
177.627
177.612
177.581
177.532
177.458
177.352
177.203
176.994
176.703
176.298
175.899
174.957
174.956
174.943
174.914
174.868
174.799
174.7
174.56
174.364
174.091
173.698
173.253
172.332
172.332
172.32
172.294
172.251
172.186
172.093
171.96
171.775
171.52
171.158
170.705
169.75
169.751
169.742
169.718
169.677
169.616
169.528
169.402
169.225
168.978
168.626
168.17
167.221
167.221
167.211
167.187
167.148
167.09
167.006
166.888
166.722
166.493
166.178
165.765
164.719
164.72
164.711
164.69
164.654
164.599
164.521
164.411
164.258
164.044
163.751
163.423
162.248
162.249
162.24
162.221
162.188
162.138
162.066
161.965
161.826
161.636
161.382
161.164
159.801
159.802
159.795
159.777
159.746
159.699
159.63
159.535
159.402
159.219
158.965
158.724
157.385
157.384
157.375
157.357
157.326
157.278
157.211
157.117
156.986
156.804
156.543
156.305
154.974
154.974
154.966
154.949
154.92
154.875
154.81
154.719
154.594
154.42
154.169
153.965
152.58
152.58
152.573
152.558
152.53
152.488
152.427
152.341
152.223
152.058
151.818
151.624
150.204
150.204
150.198
150.183
150.157
150.117
150.059
149.979
149.868
149.716
149.495
149.342
147.846
147.844
147.837
147.822
147.796
147.757
147.702
147.626
147.522
147.382
147.177
147.033
145.481
145.481
145.474
145.461
145.437
145.401
145.348
145.276
145.177
145.044
144.849
144.708
143.122
143.121
143.115
143.102
143.08
143.045
142.995
142.925
142.83
142.701
142.513
142.377
140.761
140.761
140.755
140.744
140.723
140.689
140.641
140.575
140.484
140.361
140.18
140.058
138.407
138.406
138.399
138.388
138.367
138.334
138.288
138.224
138.137
138.019
137.845
137.733
136.051
136.047
136.04
136.028
136.007
135.975
135.931
135.87
135.789
135.681
135.524
135.471
133.651
133.653
133.65
133.643
133.627
133.6
133.561
133.506
133.433
133.336
133.19
133.163
131.266
131.266
131.262
131.255
131.24
131.214
131.178
131.128
131.062
130.977
130.851
130.874
128.868
128.868
128.863
128.855
128.84
128.814
128.779
128.731
128.668
128.588
128.463
128.508
126.455
126.451
126.444
126.434
126.417
126.391
126.356
126.31
126.251
126.178
126.061
126.146
123.97
123.973
123.97
123.965
123.953
123.931
123.9
123.858
123.802
123.733
123.613
123.692
121.486
121.486
121.482
121.477
121.465
121.444
121.415
121.375
121.324
121.26
121.148
121.274
118.978
118.978
118.973
118.966
118.953
118.932
118.902
118.864
118.814
118.755
118.641
118.738
116.438
116.435
116.427
116.418
116.405
116.383
116.354
116.317
116.27
116.216
116.11
116.178
113.815
113.817
113.815
113.811
113.802
113.785
113.761
113.728
113.686
113.641
113.551
113.624
111.182
111.182
111.178
111.173
111.164
111.148
111.126
111.097
111.062
111.024
110.949
111.041
108.5
108.5
108.495
108.489
108.481
108.466
108.445
108.422
108.394
108.368
108.318
108.478
105.768
105.764
105.756
105.749
105.74
105.726
105.708
105.688
105.668
105.655
105.617
105.779
102.922
102.924
102.922
102.921
102.917
102.909
102.897
102.884
102.874
102.874
102.859
103.061
100.037
100.037
100.032
100.029
100.026
100.018
100.01
100.003
100.001
100.014
100.014
100.22
97.0727
97.0697
97.0636
97.0588
97.0552
97.0489
97.0424
97.041
97.0481
97.0752
97.1037
97.3867
93.9792
93.9804
93.9777
93.9768
93.9776
93.976
93.9754
93.9815
93.9991
94.0401
94.0791
94.3671
90.793
90.7933
90.7901
90.7898
90.7926
90.7946
90.7998
90.8142
90.8443
90.905
90.9737
91.2958
87.4957
87.4946
87.4902
87.4892
87.4924
87.4968
87.5067
87.5303
87.5754
87.6596
87.7731
88.1689
84.0503
84.0483
84.0433
84.0433
84.0494
84.0578
84.0745
84.1089
84.1698
84.2745
84.415
84.9089
80.4191
80.4204
80.4198
80.4244
80.4366
80.4531
80.4807
80.5305
80.6147
80.7538
80.9447
81.5946
76.6277
76.6279
76.626
76.6309
76.646
76.6688
76.7071
76.7733
76.8828
77.0572
77.2699
77.9638
72.6213
72.621
72.6194
72.6262
72.6452
72.6756
72.7261
72.8123
72.9525
73.1758
73.445
74.1289
68.3572
68.3562
68.355
68.3647
68.3913
68.4332
68.5021
68.6169
68.7998
69.0913
69.4626
70.1783
63.7672
63.7701
63.7746
63.7925
63.8315
63.8919
63.9878
64.1422
64.3824
64.7585
65.2656
66.0393
58.8367
58.8389
58.8435
58.8664
58.9168
58.9979
59.1276
59.3332
59.6469
60.1242
60.7817
61.6508
53.4577
53.4573
53.4643
53.4944
53.5622
53.6727
53.849
54.1263
54.5441
55.165
56.032
57.1196
47.4461
47.4548
47.4746
47.5267
47.6291
47.7912
48.0435
48.431
49.0028
49.8317
50.981
52.3526
40.7107
40.7231
40.7534
40.8308
40.9803
41.2184
41.5856
42.137
42.9327
44.053
45.5834
47.3203
32.9383
32.9486
32.9973
33.117
33.3477
33.7164
34.2752
35.0906
36.2264
37.757
39.805
42.1487
23.5995
23.658
23.7499
23.9755
24.3841
25.0106
25.9173
27.1754
28.8397
30.9495
33.6068
36.8388
11.6078
11.5053
11.7921
12.3518
13.2312
14.4668
16.1018
18.1782
20.7136
23.6937
27.1564
31.2814
-5.66202
-4.8184
-3.58072
-2.02971
-0.00109478
2.46642
5.36608
8.69288
12.4265
16.5209
20.9196
25.9688
126.33
14.053
84.5822
57.8848
-67.1898
37.6467
91.3894
-86.8175
70.5094
-87.8085
60.2475
108.859
90.8365
52.8442
-73.232
-22.5372
-69.3751
-86.6749
90.2661
71.6864
-48.7154
87.359
64.3161
-60.0417
59.3121
92.1969
-55.7079
128.439
-81.461
90.1901
105.283
58.3372
49.404
-12.3711
68.5757
69.3681
54.6452
49.8126
102.235
97.6882
-46.0991
-83.3888
-83.0502
86.7297
-84.1961
59.2484
69.658
30.8263
138.599
-69.8321
57.3187
38.6758
-61.2208
-84.1043
211.638
-78.3263
90.3084
83.159
89.3949
72.3792
32.0956
179.407
165.878
-48.5033
55.5665
-87.2429
75.0042
82.0881
20.7988
164.571
85.6804
23.5751
-81.6033
-26.1317
130.065
62.4586
-81.4622
69.0521
-87.1939
46.7096
33.4536
86.7779
69.4658
74.4578
87.1903
91.1686
84.6686
29.2791
83.6416
-26.6206
-64.7
-85.2805
-85.344
81.8691
97.1496
-25.4493
91.5564
88.9454
72.8994
66.9592
72.0724
-72.624
-87.188
-57.753
83.838
70.5498
93.8053
-42.5881
14.784
92.9269
84.8895
85.2271
78.4894
52.1858
-64.3719
-76.2125
-57.261
191.682
75.9963
63.0613
154.826
-86.7601
71.9873
167.266
86.1051
-2.07039
232.279
-28.9145
90.5328
91.4987
81.4705
-81.9461
-72.6768
95.1506
111.6
127.707
174.029
85.7886
137.029
60.0382
19.0568
-82.4438
3.83423
85.0427
89.3969
80.4749
92.338
97.4481
83.6408
-84.0291
-85.144
137.294
75.1948
71.9929
-78.4445
-61.966
44.7131
83.5707
76.9839
87.4805
65.4418
-82.0683
90.9696
184.32
197.046
96.3374
78.9576
150.812
138.781
-17.3674
87.1669
-5.89821
-86.2216
-48.9467
70.9502
105.388
89.9144
-81.1307
70.4609
143.831
53.9495
-87.0532
85.7652
82.4792
132.476
-53.1814
70.272
-81.4447
78.7093
90.3489
77.3367
88.9539
40.5542
53.9748
84.3804
-31.6087
62.5575
-63.0654
-84.6233
-18.7961
71.0188
110.488
154.055
67.022
92.6526
52.6481
79.6174
-13.9269
68.8993
67.2962
47.7853
-81.3411
-86.1562
145.332
-32.2752
84.6304
91.2046
87.9211
73.95
-79.772
-25.8688
98.6423
73.1333
123.637
90.219
85.5101
-87.4351
-85.6642
-17.2904
141.046
221.191
5.91431
65.6458
-85.9117
20.9677
66.7709
143.865
182.411
204.846
96.638
88.8449
90.1974
86.0699
81.731
25.0931
101.611
60.9449
94.6748
-83.8594
128.835
81.8452
19.6094
-70.4851
118.234
-55.6963
63.0073
-86.5052
141.948
87.2858
115.353
-79.917
74.3622
130.841
-11.6774
-66.5742
89.015
70.4352
-61.9684
70.09
-83.7456
97.0078
99.7602
87.9526
58.5755
19.2119
86.6062
61.342
60.9765
-27.1082
-81.8358
88.6786
83.8077
111.812
31.3418
121.761
-86.3338
131.449
109.93
65.1562
89.877
-80.6046
84.9765
63.5865
31.7549
122.127
-6.05404
76.6259
-82.0239
84.7315
91.0506
-29.1222
107.601
-69.1235
198.276
96.1598
-86.3659
101.014
87.1184
87.2423
19.5121
95.1311
-40.903
48.8979
83.4564
98.453
191.94
90.982
208.897
172.913
7.70277
-87.1115
-68.1219
68.9368
100.955
78.0036
-87.8901
19.2706
81.0335
86.8023
96.5902
92.1721
89.2078
85.815
63.4288
83.6799
66.2356
46.4772
89.2066
115.418
166.825
-43.4857
124.247
147.33
53.7873
-78.4184
134.577
73.523
75.4505
52.3648
57.2498
93.2147
-19.7366
191.75
85.3081
74.501
-69.0285
61.5926
84.314
173.349
128.291
149.045
84.2569
59.0653
-50.1241
119.495
71.7799
96.6745
-39.4723
-33.9706
90.8744
113.865
54.7511
85.0799
34.3649
-84.0062
-86.2504
94.7141
-42.1113
72.4706
77.9527
85.8418
184.407
83.2451
-58.0106
142.947
-67.4221
14.6739
63.8636
145.452
63.8136
92.7273
81.6295
174.639
75.8658
-65.254
-87.1234
89.9508
16.0258
24.5376
53.5988
113.466
76.6756
-79.8305
-68.9934
62.7576
224.779
-88.1389
7.86228
67.0402
-28.6177
77.3082
133.266
122.795
82.5941
-64.4184
171.774
86.1216
138.602
50.054
-86.4999
77.6219
76.3743
71.1333
-85.0673
-51.6807
134.645
-34.3482
67.4334
-38.3107
-51.975
-81.9195
75.2518
-12.2895
96.4819
90.8285
-8.92402
97.326
-5.95772
150.339
-70.9074
72.4502
-74.2493
-86.7752
-15.2784
-67.2522
101.966
13.3767
87.0085
70.8596
-54.3001
119.865
68.3186
-74.8835
4.50585
-73.7808
154.527
112.206
62.9259
67.9305
91.1557
40.9347
88.2268
-86.2388
110.231
91.16
-36.4541
59.2212
92.2225
95.6861
83.4897
-66.8648
118.55
228.553
181.954
66.8687
44.4568
21.2453
156.731
72.3332
135.601
205.269
89.2832
78.6591
108.926
-85.9729
221.408
24.7684
95.4052
87.2357
86.1376
72.734
233.652
125.207
88.7152
162.603
-56.941
159.787
174.614
41.7511
-85.4177
112.226
32.5889
-74.1184
81.7819
176.235
67.5766
-49.187
61.5611
-11.9213
80.7893
-12.7734
62.4049
81.2276
-86.6693
81.0737
126.916
148.037
38.5253
78.0459
107.8
82.8699
-15.6858
130.019
65.7652
138.888
98.4792
67.8469
79.0374
-74.8393
-80.6152
99.0692
48.556
120.01
142.725
102.079
136.068
-63.4753
49.0043
156.833
71.83
91.0386
57.6589
76.8198
90.8835
73.4618
152.875
89.5156
87.9714
-41.5811
-83.4044
-87.6492
95.5475
41.811
71.1621
137.257
18.2146
-86.759
91.4421
-85.6465
61.856
128.068
80.3355
114.79
96.8639
86.6406
-85.6815
48.924
96.2934
38.7076
-29.639
50.3057
27.2831
82.9444
-81.5812
191.12
-45.1136
169.053
77.6459
87.2518
-63.4805
-85.9063
44.6908
86.0688
88.6933
62.5381
78.0531
75.7114
134.862
65.1211
162.918
69.1952
83.2353
95.4693
129.821
-2.10176
110.012
-7.36592
80.8981
88.9274
143.435
36.6297
87.8014
73.692
51.5745
68.197
86.4707
74.7098
84.3728
41.4629
147.737
94.1601
89.6485
-18.1289
204.777
92.0651
-4.99618
-84.2379
82.0848
109.601
-84.5843
80.0863
-0.642444
14.3516
48.9413
83.3476
-84.888
187.392
205.385
-71.1455
71.6638
149.741
-88.337
-6.40328
84.7984
115.597
-85.62
-36.2087
99.6413
79.0411
-84.1683
-3.44985
-43.0209
-74.6118
19.6301
94.0908
-7.56196
-82.9016
156.577
50
99.1633
-85.0356
66.8376
-52.1864
28.5087
-66.9723
125.302
20.2692
102.038
78.1536
168.366
95.8144
10.5359
84.7822
22.8788
-84.0948
-71.304
96.8227
120.749
116.187
95.8853
87.9455
73.9003
65.2415
131.079
97.7888
81.1918
48.8529
-87.2326
93.3355
-85.6387
105.214
65.9774
-35.222
-2.74192
13.2902
93.0112
90.193
72.316
-60.8098
67.1666
187.588
98.6469
-85.5205
31.8799
82.9648
-74.8249
-86.9594
69.9673
88.9492
-7.54026
-86.0506
85.5841
-42.8618
91.7779
149.975
159.956
99.8797
62.3286
67.5157
73.8651
76.998
115.257
-85.4731
30.8843
104.787
-70.9977
83.1791
76.4122
63.8764
84.4028
-87.681
88.0286
99.2752
158.423
6.09412
77.4329
71.1982
91.2732
83.5702
78.0771
-75.4699
88.7542
94.5293
69.2642
11.1779
82.5139
69.7827
-79.355
95.8288
115.718
26.2456
171.969
-76.6491
-88.5089
84.0137
-86.7176
78.1986
42.4904
63.6713
158.905
70.9974
-66.6797
70.6668
86.1601
65.1286
124.694
-86.5301
-76.7922
54.4799
-8.30719
22.7255
108.808
96.9979
98.3228
-57.5359
29.9546
75.579
68.2432
160.114
-77.5519
59.0343
-72.1489
173.412
90.1448
-44.6504
-76.3519
79.32
-54.8472
-64.3359
-67.4042
119.158
39.4087
73.1259
75.0996
211.411
45.9047
69.2189
35.6577
-77.469
86.9459
89.3001
-68.5823
89.6906
157.217
-24.4928
221.512
90.325
-24.4359
67.9959
91.4298
108.499
-87.3083
103.12
66.9834
71.3767
-16.3353
71.5219
-87.1936
16.2967
65.7307
-78.904
107.721
-84.7826
-66.1977
75.7558
-73.8778
102.128
-69.5379
-85.3155
10.2495
72.6023
-85.9351
-79.6866
91.0227
-85.0861
90.4305
86.1357
97.3529
30.1424
121.982
-74.7806
101.744
18.5913
196.405
76.6554
-19.8612
-84.7277
110.179
72.2791
105.856
49.7987
-75.8578
89.3518
74.6613
-80.0434
-69.4794
42.3971
51.0706
43.8783
-14.1682
-84.7888
79.7821
-48.3145
-21.4958
76.0975
119.573
-68.2224
72.4826
72.2392
118.521
-65.7069
81.5919
-87.5242
155.837
-87.2886
-33.0032
83.6474
54.8339
-44.6639
72.2628
69.1838
100.419
106.941
-55.8245
-20.4587
-87.2996
88.7405
38.9685
196.733
73.0953
-16.3126
68.4562
138.177
-84.9024
-34.5296
66.5811
5.17245
-4.08278
-83.5206
145.682
90.9506
75.9844
90.0354
100.649
107.175
121.917
101.656
-66.7513
-70.0408
91.0775
8.15327
121.178
70.0987
112.855
91.4497
12.2704
205.385
73.5376
209.13
89.7983
-82.3402
-9.48255
-75.0598
25.6492
81.4474
89.7102
89.8846
109.346
-73.1551
91.2574
80.3285
19.5179
105.578
63.7401
100.274
-83.3271
98.3761
84.8172
105.887
-83.3283
68.7077
-78.2125
-55.2554
175.633
106.944
145.136
-88.077
126.166
111.032
-70.3126
-84.6545
-55.0495
81.0391
86.4395
96.4446
9.58523
140.679
82.4451
-84.5947
134.205
169.832
50.859
116.776
55.8412
68.4021
91.6259
167.429
-84.1161
136.079
62.6461
-85.0198
22.7605
108.165
87.5557
14.183
89.503
96.0441
-72.9448
-71.3783
-73.4824
68.9503
9.89299
-22.6202
-87.5658
-86.5436
41.034
-71.7828
108.8
89.6749
112.68
72.9396
90.5254
85.1067
-11.2893
-49.7227
84.3036
206.197
-85.2557
98.2983
1.82241
113.52
102.565
91.0577
83.4255
-79.1941
63.9585
74.406
-24.7348
164.188
60.7993
43.0228
62.7692
101.933
70.0728
30.2108
82.0042
51.4229
95.2464
-86.9738
90.4462
-85.731
-12.9892
88.6623
-74.3153
69.693
82.308
82.3688
76.2571
-50.3906
20.3921
153.351
-83.6739
76.9004
74.3147
170.194
75.2041
73.0148
-82.0407
-61.9799
2.06219
177.684
29.7482
75.8701
93.238
80.8035
85.1435
-86.067
-81.8469
-83.9528
77.8604
89.6087
79.3982
145.584
187.032
-82.2269
-11.8587
122.91
-0.118172
91.8247
77.0299
-34.3376
-58.8169
43.3288
-86.6131
-52.869
-58.6811
16.934
72.1935
151.67
78.6297
-54.8518
83.321
67.5356
-87.2772
-65.3466
71.1828
25.1542
45.1002
-77.5719
61.7541
65.6027
100.499
-8.96059
169.851
-14.1372
112.058
90.5467
58.4718
78.2366
-72.3711
86.583
123.745
18.6388
105.029
78.7522
77.6056
45.2396
163.401
-81.1801
-82.9141
106.816
153.133
48.2118
91.6069
-87.1129
-56.4884
-35.7965
-14.8033
-4.48979
-41.0572
65.9851
93.0068
113.846
69.9884
-4.27084
101.568
24.5895
62.0765
53.1501
90.0948
-46.2954
-83.8206
59.6564
146.314
122.456
-77.0694
91.4889
-29.4742
92.242
86.073
-87.3524
-8.88084
-82.3144
82.5869
91.1218
-69.0504
-70.0558
52.1758
96.1539
-84.4031
75.974
-41.2053
-80.9764
83.583
34.6576
39.2055
-83.3927
-61.5487
-13.0844
-86.2154
-81.9722
170.212
-71.9251
90.6523
38.3043
-83.6233
-64.893
93.9911
224.506
-54.6352
108.325
-53.8984
-20.0055
-70.3616
26.9994
108.479
-80.8458
-80.1818
197.595
-69.6201
107.318
20.1258
91.3986
19.05
78.0615
-18.8212
-3.16901
-78.7978
63.2404
79.0607
85.2852
144.728
-69.1086
-83.6684
58.4943
49.4804
-71.432
53.6526
126.265
111.898
43.6335
86.9184
-86.6502
-56.3743
101.034
115.678
61.2901
141.754
69.9258
86.4296
51.0152
19.3349
-15.3224
88.4325
62.4401
76.0678
145.691
33.4989
-68.3251
11.9995
51.7137
-16.2097
-83.0237
-85.3952
75.1025
37.7976
71.1995
60.0697
-57.3819
82.9222
-82.8168
43.3336
86.7387
69.9844
89.5588
30.1906
79.4191
110.956
12.5185
97.2759
113.495
33.3094
74.8917