/*--------------------------------*- C++ -*----------------------------------*\
| =========                 |                                                 |
| \\      /  F ield         | OpenFOAM: The Open Source CFD Toolbox           |
|  \\    /   O peration     | Version:  2.3.0                                 |
|   \\  /    A nd           | Web:      www.OpenFOAM.org                      |
|    \\/     M anipulation  |                                                 |
\*---------------------------------------------------------------------------*/
FoamFile
{
    version     2.0;
    format      ascii;
    class       surfaceScalarField;
    location    "6000";
    object      phi;
}
// * * * * * * * * * * * * * * * * * * * * * * * * * * * * * * * * * * * * * //

dimensions      [0 3 -1 0 0 0 0];

internalField   nonuniform List<scalar> 
13119
(
-0.0267984
-0.0188028
0.0214059
0.0241961
-0.0285867
-0.0151272
0.0169156
-0.0296298
-0.0121256
0.0131687
-0.0300093
-0.00964849
0.010028
-0.0298482
-0.00761193
0.00745082
-0.0293009
-0.00594067
0.00539335
-0.0285041
-0.00458712
0.00379035
-0.0275841
-0.00349356
0.00257357
-0.0266224
-0.00262269
0.00166097
-0.0256966
-0.00194271
0.00101707
-0.0248818
-0.00142105
0.00060616
-0.00102086
-0.0243841
0.000523204
-0.0231326
-0.0168123
0.0211422
-0.0245013
-0.0137586
-0.0253545
-0.0112724
-0.0257596
-0.00924339
-0.0257808
-0.00759068
-0.0254682
-0.00625321
-0.0248827
-0.00517258
-0.0240713
-0.00430499
-0.0230797
-0.00361427
-0.0219537
-0.00306867
-0.020737
-0.00263771
-0.00229871
-0.0194591
-0.0200973
-0.0152346
0.0185196
-0.0210974
-0.0127585
-0.0216359
-0.0107339
-0.0218029
-0.00907637
-0.0216761
-0.00771746
-0.0213201
-0.00660921
-0.0207874
-0.00570523
-0.0201257
-0.00496673
-0.0193687
-0.0043713
-0.0185481
-0.00388925
-0.017687
-0.0034988
-0.00319207
-0.0167936
-0.0176341
-0.0139238
0.0163233
-0.0184666
-0.011926
-0.0189135
-0.010287
-0.0190463
-0.00894358
-0.0189304
-0.00783344
-0.0186183
-0.00692124
-0.0181527
-0.00617082
-0.0175674
-0.00555209
-0.0168967
-0.00504199
-0.01616
-0.00462597
-0.0153752
-0.00428355
-0.00400473
-0.0145626
-0.0155213
-0.0127893
0.0143868
-0.0162354
-0.011212
-0.0166111
-0.00991137
-0.0167234
-0.00883123
-0.0166189
-0.00793791
-0.016347
-0.00719318
-0.0159441
-0.00657371
-0.0154381
-0.00605804
-0.0148528
-0.00562734
-0.0142117
-0.00526704
-0.0135244
-0.00497084
-0.00472419
-0.012805
-0.0137376
-0.0117944
0.0127427
-0.0143695
-0.0105801
-0.0147107
-0.00957015
-0.0148148
-0.00872715
-0.0147302
-0.00802255
-0.014497
-0.00742637
-0.0141461
-0.00692457
-0.0137005
-0.00650364
-0.0131811
-0.00614677
-0.0126049
-0.00584328
-0.0119868
-0.0055889
-0.00537572
-0.0113353
-0.0122081
-0.0108964
0.0113102
-0.0127781
-0.01001
-0.0130871
-0.00926123
-0.0131874
-0.00862684
-0.0131215
-0.00808843
-0.0129191
-0.00762879
-0.0126083
-0.00723533
-0.0122146
-0.00689733
-0.0117531
-0.00660831
-0.0112364
-0.00636002
-0.0106764
-0.00614888
-0.00596681
-0.0100853
-0.0108939
-0.0100968
0.0100943
-0.0114058
-0.00949815
-0.0116902
-0.00897684
-0.0117867
-0.00853032
-0.0117331
-0.00814205
-0.0115579
-0.00780399
-0.0112846
-0.00750866
-0.0109333
-0.00724858
-0.0105175
-0.00702413
-0.010052
-0.00682546
-0.00954669
-0.00665423
-0.00650584
-0.00900766
-0.00974043
-0.00937495
0.00901856
-0.0102122
-0.00902643
-0.0104723
-0.00871665
-0.0105674
-0.00843526
-0.010525
-0.00818446
-0.0103699
-0.00795907
-0.0101259
-0.00775264
-0.00980955
-0.00756497
-0.00943562
-0.00739806
-0.00901541
-0.00724567
-0.00855582
-0.00711383
-0.00699394
-0.00806772
-0.00873277
0.00807469
-0.00871686
-0.00915967
-0.00859954
-0.00940416
-0.00847216
-0.009494
-0.00834542
-0.00946117
-0.00821729
-0.00932322
-0.00809701
-0.00910568
-0.00797018
-0.00882126
-0.0078494
-0.00848456
-0.00773476
-0.00810122
-0.007629
-0.00768525
-0.0075298
-0.00723994
-0.00743925
-0.0220894
-0.000873154
-0.0014216
-0.0201558
-0.00100102
-0.000932716
-0.0183488
-0.0012191
-0.000587967
-0.0166178
-0.00152229
-0.000208788
-0.0149669
-0.0019299
0.00027892
-0.0134263
-0.00246828
0.000927614
-0.0120477
-0.00317037
0.00179175
-0.0108949
-0.00407836
0.00292559
-0.0100403
-0.00524207
0.0043874
-0.00955563
-0.00672431
0.00623962
-0.0095096
-0.00860394
0.00855791
-0.0109699
0.0114569
-0.00999659
-0.0181351
-0.00219711
-0.0168282
-0.0023079
-0.0155686
-0.00247879
-0.0143652
-0.00272562
-0.0132349
-0.00306024
-0.0121963
-0.00350693
-0.011274
-0.00409271
-0.0105026
-0.00484982
-0.00992281
-0.00582183
-0.00958757
-0.00705957
-0.00956791
-0.00862361
-0.0105788
-0.00995906
-0.0158848
-0.00310587
-0.0149646
-0.00322809
-0.0140433
-0.00340007
-0.0131361
-0.00363286
-0.0122579
-0.00393843
-0.0114304
-0.00433439
-0.0106799
-0.00484323
-0.0100423
-0.00548744
-0.00956201
-0.00630215
-0.00929371
-0.00732789
-0.00930231
-0.00861501
-0.0102166
-0.00966445
-0.013744
-0.00392444
-0.0129465
-0.00402559
-0.0121752
-0.00417133
-0.0114392
-0.0043689
-0.0107492
-0.00462841
-0.0101188
-0.00496476
-0.0095686
-0.00539346
-0.00912319
-0.00593286
-0.00881438
-0.00661096
-0.00868609
-0.00745619
-0.00879394
-0.00850716
-0.00980926
-0.00920132
-0.0120852
-0.00464419
-0.0113915
-0.00471937
-0.0107291
-0.00483372
-0.0101071
-0.00499081
-0.00953281
-0.00520275
-0.00902096
-0.00547661
-0.00858896
-0.00582546
-0.00825655
-0.00626527
-0.0080533
-0.00681421
-0.00801442
-0.00749507
-0.00818481
-0.00833678
-0.0093665
-0.00862757
-0.0106832
-0.00529625
-0.010063
-0.00533962
-0.00947853
-0.00541817
-0.00893569
-0.00553364
-0.00844615
-0.00569229
-0.00802121
-0.00590155
-0.00767488
-0.00617178
-0.0074267
-0.00651346
-0.00730143
-0.00693948
-0.00732806
-0.00746845
-0.00754494
-0.00811989
-0.00891533
-0.00799611
-0.00949671
-0.00588482
-0.00893794
-0.00589839
-0.00841511
-0.005941
-0.00793725
-0.0060115
-0.00751205
-0.0061175
-0.00714911
-0.00626449
-0.00686469
-0.0064562
-0.00667537
-0.00670278
-0.00660196
-0.00701288
-0.00667166
-0.00739876
-0.00691848
-0.00787307
-0.00844939
-0.00738442
-0.00847107
-0.00642142
-0.00796558
-0.00640388
-0.00749811
-0.00640848
-0.00707217
-0.00643744
-0.00669676
-0.00649291
-0.00638355
-0.00657769
-0.00614629
-0.00669346
-0.00599854
-0.00685053
-0.00596186
-0.00704957
-0.00605895
-0.00730167
-0.00631957
-0.00761245
-0.00798718
-0.00678178
-0.00758012
-0.00690901
-0.00712216
-0.00686184
-0.00670022
-0.00683042
-0.00631956
-0.00681809
-0.00598569
-0.00682678
-0.00571237
-0.00685101
-0.00551037
-0.00689546
-0.0053955
-0.0069654
-0.00538474
-0.00706033
-0.00549859
-0.00718782
-0.005764
-0.00734704
-0.00753767
-0.00621351
-0.00679788
-0.00735108
-0.00638135
-0.00727837
-0.005998
-0.00721378
-0.00565683
-0.00715926
-0.00536102
-0.00712259
-0.00511952
-0.00709252
-0.00494696
-0.00706802
-0.00485309
-0.00705927
-0.00486237
-0.00705105
-0.00498415
-0.00706604
-0.00524942
-0.00708178
-0.00568139
-0.0071057
0.00466289
-0.00282003
0.00330396
-0.00514682
0.00435858
-0.001585
0.0018893
0.00416109
-0.000653389
0.000850877
0.00400157
3.26267e-05
0.000126897
0.00382086
0.00052999
-0.000349282
0.00357009
0.000892992
-0.000642221
0.00320859
0.00116877
-0.000807274
0.00269466
0.00140617
-0.000892241
0.00197855
0.00165136
-0.000935248
0.000990241
0.00195694
-0.000968632
-0.000384806
0.00239245
-0.0010174
0.00305869
-0.00236502
-0.00107848
0.0039639
-0.00234248
-0.00444144
0.00363631
-0.0012574
0.00338852
-0.000405595
0.00315915
0.000261996
0.00289427
0.000794861
0.00254895
0.00123831
0.00208172
0.001636
0.00145935
0.00202854
0.000651148
0.00245957
-0.000363392
0.00297148
-0.00157662
0.00360568
0.00436748
-0.00288541
0.00320135
-0.00186608
-0.00367775
0.0028501
-0.000906153
0.00256363
-0.000119121
0.00228966
0.000535968
0.00198494
0.00109957
0.00161201
0.00161124
0.00114164
0.00210638
0.000548596
0.00262158
-0.000182553
0.00319071
-0.001056
0.00384493
-0.00205283
0.0046025
0.00544936
-0.0031347
0.00249948
-0.00141044
-0.00295513
0.00215291
-0.000559586
0.001865
0.000168789
0.00159278
0.000808193
0.00129929
0.00139306
0.00095384
0.00195669
0.000531917
0.0025283
1.32475e-05
0.00314025
-0.000617505
0.00382147
-0.00136545
0.00459287
-0.00223142
0.00546847
0.00642977
-0.00321183
0.00190602
-0.00099746
-0.002319
0.00158723
-0.000240795
0.0013224
0.000433623
0.00107427
0.00105632
0.000811277
0.00165605
0.000507689
0.00226028
0.000139663
0.00289632
-0.000309739
0.00358965
-0.000856507
0.00436823
-0.00151446
0.00525082
-0.00228818
0.00624219
0.00732588
-0.0031843
0.00142519
-0.000633013
-0.00178964
0.00114517
3.92256e-05
0.000912535
0.000666255
0.000695687
0.00127317
0.000467546
0.00188419
0.000203871
0.00252396
-0.000116219
0.00321641
-0.00051117
0.00398461
-0.000994086
0.00485115
-0.00158121
0.00583795
-0.00228249
0.00694347
0.00814416
-0.00310077
0.00104452
-0.000321007
-0.00135652
0.000805542
0.0002782
0.000607148
0.000864649
0.000421282
0.00145903
0.000224999
0.00208047
-4.1938e-06
0.00275315
-0.000285062
0.00349728
-0.000634501
0.00433404
-0.00106777
0.00528441
-0.00159564
0.00636582
-0.00223181
0.00757963
0.008893
-0.00298065
0.000745213
-6.11607e-05
-0.00100506
0.000546303
0.00047711
0.000380302
0.00103065
0.000222425
0.00161691
5.50116e-05
0.00224788
-0.000145126
0.00295329
-0.000394942
0.0037471
-0.000708494
0.0046476
-0.00109747
0.00567339
-0.00157658
0.00684494
-0.00215725
0.0081603
0.00957647
-0.00284071
0.000510169
0.000147452
-0.000718783
0.000347151
0.000640128
0.000210671
0.00116713
7.75823e-05
0.00175
-6.28007e-05
0.00238827
-0.000237389
0.00312788
-0.000459076
0.00396878
-0.00074523
0.00493375
-0.00109607
0.00602422
-0.00153104
0.00727991
-0.00206092
0.00869017
0.0102033
-0.00268773
0.00033524
0.000318339
-0.000506127
0.000198542
0.000776826
8.43079e-05
0.00128136
-2.5852e-05
0.00186016
-0.000138301
0.00250071
-0.000288964
0.00327854
-0.00048584
0.00416566
-0.00074572
0.00519363
-0.00106498
0.00634348
-0.00146396
0.00767889
-0.00194514
0.00917136
-0.00251294
0.0107711
-0.00332198
0.00446713
-0.00351018
-0.00464297
0.00611226
-0.00479127
-0.00595086
0.0073454
-0.0060375
-0.00707091
0.00851764
-0.0073976
-0.00795463
0.00982781
-0.00894409
-0.00855787
0.0113338
-0.0107306
-0.00884567
0.0130973
-0.0128095
-0.00875484
0.0151654
-0.0152563
-0.00823005
0.0176151
-0.0181398
-0.00719489
0.0205074
-0.0215425
-0.00556714
0.0239331
-0.0255609
0.0279811
-0.0303009
-0.00324739
-0.00399137
0.00557309
-0.0051503
0.00727119
-0.00632067
0.00851577
-0.00729557
0.00949255
-0.00803952
0.0105718
-0.00852345
0.0118177
-0.00871145
0.0132853
-0.00856265
0.0150166
-0.00801823
0.0170706
-0.00701304
0.0195022
-0.00546805
0.0223881
0.0258137
-0.00330059
-0.00423078
0.00666917
-0.00527046
0.00831086
-0.00628858
0.00953389
-0.00714691
0.0103509
-0.00779677
0.0112216
-0.00821489
0.0122359
-0.008362
0.0134324
-0.008201
0.0148556
-0.00767961
0.0165492
-0.00673549
0.0185581
-0.00529257
0.0209452
0.0237726
-0.00325154
-0.00424525
0.00770259
-0.0052081
0.00927371
-0.00610764
0.0104334
-0.00686453
0.0111078
-0.00743655
0.0117936
-0.00780028
0.0125996
-0.00792249
0.0135546
-0.00776383
0.014697
-0.00727114
0.0160565
-0.006394
0.0176809
-0.00506178
0.019613
0.0219066
-0.0031957
-0.0041403
0.00865859
-0.0050351
0.0101685
-0.00583433
0.0112327
-0.00651002
0.0117835
-0.00702021
0.0123038
-0.00734069
0.0129201
-0.00744214
0.0136561
-0.0072876
0.0145424
-0.00683356
0.0156025
-0.00602636
0.0168737
-0.00479929
0.0183859
0.0201921
-0.00308483
-0.00397692
0.00953475
-0.00479576
0.0109874
-0.00551657
0.0119535
-0.00612061
0.0123875
-0.00657552
0.0127587
-0.00686007
0.0132046
-0.0069508
0.0137468
-0.00680497
0.0143966
-0.0063867
0.0151842
-0.00564242
0.0161294
-0.00452253
0.0172661
0.0186241
-0.00295449
-0.00378353
0.0103376
-0.00452977
0.0117336
-0.00517775
0.0126015
-0.00571432
0.0129241
-0.00612223
0.0131666
-0.00637883
0.0134612
-0.00645445
0.0138224
-0.00632166
0.0142638
-0.00593797
0.0148005
-0.00526233
0.0154538
-0.00423791
0.0162416
0.0171939
-0.00280779
-0.00356889
0.0110658
-0.00424401
0.0124087
-0.00482595
0.0131834
-0.0053132
0.0134113
-0.00567931
0.0135327
-0.00590788
0.0136898
-0.00597609
0.0138906
-0.00584971
0.0141374
-0.00550148
0.0144523
-0.00488463
0.0148369
-0.00395524
0.0153122
0.015888
-0.00264934
-0.00335159
0.0117297
-0.00396214
0.0130193
-0.00448414
0.0137054
-0.00491943
0.0138466
-0.00525165
0.013865
-0.00545712
0.0138953
-0.00551389
0.0139474
-0.00540188
0.0140254
-0.0050833
0.0141337
-0.0045251
0.0142787
-0.00367603
0.0144632
0.0147034
-0.00249143
-0.00310911
0.0123258
-0.00364551
0.0135556
-0.0041267
0.0141866
-0.00453552
0.0142554
-0.00484151
0.014171
-0.00502787
0.0140816
-0.00507977
0.0139993
-0.00497536
0.013921
-0.00468709
0.0138455
-0.00417955
0.0137712
-0.00341017
0.0136938
0.0136234
-0.00233015
0.00192866
-0.00140536
0.00371573
-0.00118077
0.00570292
-0.000970141
0.00799778
-0.000633834
0.0106198
-4.85053e-05
0.0134449
0.000965326
0.0163041
0.00253409
0.0189633
0.00479164
0.0211775
0.0078139
0.0227228
0.0116234
0.0234701
0.0161683
0.0214286
0.0234474
-0.000392089
-0.00101313
-0.000266404
-0.00130628
0.000254576
-0.00149111
0.00120012
-0.00157931
0.00264654
-0.00149493
0.00468584
-0.00107395
0.00736964
-0.000149719
0.010636
0.00152531
0.0141979
0.004252
0.0175929
0.00822839
0.0203073
0.0134539
0.0197461
0.0219898
-0.000102383
-0.000910696
-0.000216431
-0.00119216
-0.000263903
-0.00144363
-0.000184215
-0.00165895
0.000125843
-0.00180498
0.000854203
-0.00180228
0.0022184
-0.00151391
0.00443675
-0.000693023
0.00760174
0.00108701
0.0114951
0.00433502
0.0155316
0.00941735
0.0163036
0.0189741
-3.68164e-05
-0.000873819
-4.96901e-05
-0.00117923
-4.2023e-05
-0.00145128
2.81434e-06
-0.00170374
0.000120933
-0.00192309
0.000384704
-0.00206603
0.000920745
-0.00204994
0.00194225
-0.00171452
0.00377543
-0.000746158
0.00670789
0.00140256
0.0106562
0.00546905
0.0119512
0.0150086
-2.43753e-05
-0.000849433
-4.56974e-05
-0.00115789
-5.36059e-05
-0.00144337
-3.86363e-05
-0.00171869
1.93143e-05
-0.00198104
0.000156284
-0.00220298
0.000434268
-0.00232792
0.000969869
-0.00225011
0.00198093
-0.00175721
0.0038209
-0.000437409
0.0068447
0.00244526
0.00779915
0.0109967
-1.27371e-05
-0.000836665
-1.68821e-05
-0.00115371
-9.70901e-06
-0.00145053
1.3433e-05
-0.00174182
6.23132e-05
-0.00202991
0.000156716
-0.00229737
0.000331875
-0.00250307
0.000654599
-0.00257282
0.00125736
-0.00235996
0.00238295
-0.00156299
0.00443344
0.000394764
0.00444121
0.00779138
-4.33826e-06
-0.000832323
-3.37772e-06
-0.00115467
6.79755e-06
-0.0014607
2.96331e-05
-0.00176464
7.23665e-05
-0.00207264
0.000147124
-0.00237212
0.000277215
-0.00263315
0.000502511
-0.00279811
0.000902114
-0.00275955
0.00163435
-0.00229523
0.00298677
-0.000957647
0.00205888
0.0053691
1.03035e-07
-0.000832411
6.01879e-06
-0.00116057
1.99981e-05
-0.00147467
4.5154e-05
-0.00178979
8.55941e-05
-0.00211308
0.00015076
-0.00243727
0.000255937
-0.00273832
0.000428351
-0.00297052
0.00071802
-0.00304921
0.00122884
-0.00280604
0.00215836
-0.00188716
0.000374663
0.00384258
2.92042e-06
-0.000835332
1.08195e-05
-0.00116847
2.55506e-05
-0.00148941
4.96513e-05
-0.00181389
8.70295e-05
-0.00215045
0.000144024
-0.00249426
0.000232233
-0.00282653
0.000370976
-0.00310926
0.000595316
-0.00327355
0.00097441
-0.00318513
0.00164904
-0.00256179
-0.00084509
0.0028688
4.17024e-06
-0.000839494
1.2211e-05
-0.0011765
2.68211e-05
-0.00150401
4.98319e-05
-0.00183689
8.39347e-05
-0.00218455
0.000134229
-0.00254455
0.00020884
-0.00290113
0.000322354
-0.00322277
0.000499951
-0.00345114
0.000789816
-0.00347499
0.00128991
-0.00306188
-0.00173349
0.00217832
4.52378e-06
-0.00084402
1.27229e-05
-0.0011847
2.68693e-05
-0.00151816
4.85071e-05
-0.00185853
7.97804e-05
-0.00221582
0.000124187
-0.00258895
0.000188751
-0.00296569
0.00028453
-0.00331854
0.000430064
-0.00359667
0.000660881
-0.00370581
0.00104865
-0.00344965
-0.00242544
0.0017406
4.78152e-06
-0.000848797
1.32889e-05
-0.00119321
2.72984e-05
-0.00153216
4.8171e-05
-0.0018794
7.74674e-05
-0.00224512
0.000118365
-0.00262985
0.000176018
-0.00302335
0.000259192
-0.00340171
0.000382723
-0.0037202
0.00057364
-0.00389672
0.00088767
-0.00376369
-0.00295491
0.00141715
5.29654e-06
-0.000854097
1.43757e-05
-0.00120229
2.87499e-05
-0.00154654
4.93111e-05
-0.00189996
7.77942e-05
-0.0022736
0.000116684
-0.00266874
0.000170508
-0.00307717
0.000246761
-0.00347796
0.000358114
-0.00383155
0.000528446
-0.00406705
0.000807381
-0.00404262
-0.00346457
0.00131704
5.90455e-06
-0.000859997
1.57285e-05
-0.00121211
3.04547e-05
-0.00156126
5.11483e-05
-0.00192065
7.91148e-05
-0.00230157
0.000116629
-0.00270625
0.000167438
-0.00312798
0.0002377
-0.00354822
0.000337699
-0.00393155
0.000485946
-0.0042153
0.000721456
-0.00427813
-0.00386781
0.0011247
6.65153e-06
-0.00086665
1.73092e-05
-0.00122276
3.25471e-05
-0.0015765
5.3645e-05
-0.00194175
8.15731e-05
-0.00232949
0.000118495
-0.00274317
0.000167763
-0.00317724
0.000234834
-0.00361529
0.00032886
-0.00402557
0.000465473
-0.00435191
0.000676005
-0.00448866
-0.00421815
0.00102635
7.282e-06
-0.000873929
1.85604e-05
-0.00123404
3.43553e-05
-0.0015923
5.55653e-05
-0.00196296
8.33513e-05
-0.00235728
0.000119601
-0.00277942
0.000167258
-0.0032249
0.000231058
-0.00367909
0.000318603
-0.00411312
0.000442375
-0.00447568
0.000626714
-0.004673
-0.00451549
0.000924057
8.05947e-06
-0.000881991
1.98094e-05
-0.00124579
3.61075e-05
-0.0016086
5.74865e-05
-0.00198433
8.52007e-05
-0.00238499
0.000120925
-0.00281514
0.000167466
-0.00327144
0.000229021
-0.00374064
0.000312131
-0.00419623
0.0004277
-0.00459125
0.000595775
-0.00484107
-0.00477713
0.000857414
8.5375e-06
-0.000890526
2.08038e-05
-0.00125806
3.7244e-05
-0.00162503
5.88168e-05
-0.00200591
8.63246e-05
-0.0024125
0.000121504
-0.00285032
0.000166805
-0.00331674
0.000226244
-0.00380008
0.000305639
-0.00427562
0.000414465
-0.00470007
0.000569671
-0.00499628
-0.00501152
0.000804064
8.93508e-06
-0.000899462
2.14334e-05
-0.00127055
3.80598e-05
-0.00164166
5.94598e-05
-0.00202731
8.66299e-05
-0.00243967
0.0001211
-0.00288479
0.00016529
-0.00336093
0.0002226
-0.00385739
0.000298434
-0.00435145
0.000401202
-0.00480284
0.000545687
-0.00514076
-0.00523156
0.000765722
9.21076e-06
-0.000908671
2.18703e-05
-0.00128321
3.85034e-05
-0.00165829
5.97121e-05
-0.00204851
8.64192e-05
-0.00246638
0.000120036
-0.0029184
0.000162811
-0.0034037
0.000217892
-0.00391247
0.00028996
-0.00442352
0.000385905
-0.00489878
0.000517322
-0.00527218
-0.00541751
0.000703275
9.41168e-06
-0.000918084
2.2112e-05
-0.00129591
3.86802e-05
-0.00167486
5.96579e-05
-0.00206949
8.58278e-05
-0.00249255
0.000118729
-0.0029513
0.000160303
-0.00344528
0.000213607
-0.00396577
0.000283208
-0.00449312
0.000375776
-0.00499135
0.000502288
-0.00539869
-0.00559923
0.000684006
9.46893e-06
-0.00092755
2.21981e-05
-0.00130864
3.86167e-05
-0.00169128
5.9198e-05
-0.00209007
8.47659e-05
-0.00251811
0.000116656
-0.00298319
0.000156819
-0.00348544
0.000208081
-0.00401704
0.000274365
-0.00455941
0.000361444
-0.00507843
0.000478192
-0.00551544
-0.00576192
0.000640885
9.5251e-06
-0.000937076
2.21587e-05
-0.00132127
3.84898e-05
-0.00170761
5.86473e-05
-0.00211023
8.36388e-05
-0.0025431
0.000114644
-0.0030142
0.000153622
-0.00352442
0.000203184
-0.0040666
0.000267111
-0.00462333
0.000350985
-0.0051623
0.000463515
-0.00562797
-0.00591804
0.000619638
9.47134e-06
-0.000946545
2.21837e-05
-0.00133398
3.81463e-05
-0.00172357
5.79615e-05
-0.00213004
8.22389e-05
-0.00256738
0.000112342
-0.0030443
0.000149937
-0.00356201
0.000197586
-0.00411425
0.000258729
-0.00468447
0.000338385
-0.00524196
0.00044462
-0.0057342
-0.00606796
0.000594535
9.47112e-06
-0.000956017
2.20662e-05
-0.00134658
3.79498e-05
-0.00173946
5.74378e-05
-0.00214953
8.11713e-05
-0.00259111
0.000110332
-0.00307346
0.000146732
-0.00359841
0.000192624
-0.00416014
0.00025106
-0.00474291
0.000326161
-0.00531706
0.000424128
-0.00583217
-0.0061983
0.000554473
9.43318e-06
-0.000965448
2.21338e-05
-0.00135928
3.79225e-05
-0.00175524
5.70317e-05
-0.00216864
8.02576e-05
-0.00261434
0.000108783
-0.00310199
0.000144334
-0.00363396
0.000189063
-0.00420487
0.000245992
-0.00479984
0.000319249
-0.00539032
0.000414937
-0.00592786
-0.00632821
0.00054485
9.61247e-06
-0.000975061
2.23474e-05
-0.00137201
3.81447e-05
-0.00177104
5.6915e-05
-0.00218741
7.96311e-05
-0.00263706
0.000107746
-0.0031301
0.000142313
-0.00366853
0.000185683
-0.00424824
0.000240627
-0.00485478
0.000310394
-0.00546008
0.000399433
-0.0060169
-0.00644522
0.000516439
9.67282e-06
-0.000984733
2.26969e-05
-0.00138504
3.84113e-05
-0.00178676
5.72517e-05
-0.00220625
7.99736e-05
-0.00265978
0.000107308
-0.00315744
0.000141384
-0.0037026
0.000184279
-0.00429113
0.000238622
-0.00490912
0.00030761
-0.00552907
0.000395346
-0.00610463
-0.00655635
0.000506481
9.92903e-06
-0.000994663
2.29703e-05
-0.00139808
3.88869e-05
-0.00180267
5.7878e-05
-0.00222524
8.00545e-05
-0.00268196
0.000107218
-0.0031846
0.000141066
-0.00373645
0.000183774
-0.00433384
0.00023767
-0.00496302
0.000307098
-0.0055985
0.000395677
-0.00619321
-0.00666943
0.000508751
1.02563e-05
-0.00100492
2.38871e-05
-0.00141171
3.99381e-05
-0.00181872
5.82534e-05
-0.00224356
8.03767e-05
-0.00270408
0.000107258
-0.00321148
0.000140592
-0.00376979
0.000182657
-0.00437591
0.00023637
-0.00501673
0.000304921
-0.00566705
0.00039359
-0.00628188
-0.00678667
0.000510825
1.04363e-05
-0.00101536
2.41996e-05
-0.00142547
4.01873e-05
-0.00183471
5.87156e-05
-0.00226208
8.05869e-05
-0.00272595
0.000107413
-0.00323831
0.000140164
-0.00380254
0.000181233
-0.00441698
0.000233832
-0.00506933
0.000301296
-0.00573452
0.000388264
-0.00636885
-0.00689699
0.000498588
1.0608e-05
-0.00102596
2.45432e-05
-0.00143941
4.06381e-05
-0.00185081
5.9104e-05
-0.00228055
8.09632e-05
-0.00274781
0.000106732
-0.00326408
0.000139079
-0.00383488
0.000179628
-0.00445753
0.000231326
-0.00512103
0.000297656
-0.00580085
0.000383564
-0.00645476
-0.00701405
0.000500627
1.07624e-05
-0.00103673
2.49624e-05
-0.00145361
4.12264e-05
-0.00186707
5.97371e-05
-0.00229906
8.08585e-05
-0.00276893
0.000106611
-0.00328983
0.000138397
-0.00386667
0.000178583
-0.00449771
0.0002287
-0.00517115
0.000292145
-0.00586429
0.000371157
-0.00653377
-0.00710865
0.000465754
1.15503e-05
-0.00104828
2.60875e-05
-0.00146815
4.22784e-05
-0.00188326
6.02617e-05
-0.00231704
8.14943e-05
-0.00279016
0.000107093
-0.00331543
0.000138819
-0.0038984
0.000178917
-0.00453781
0.000230455
-0.00522268
0.00029648
-0.00593031
0.000381299
-0.00661859
-0.00721532
0.000487968
1.16382e-05
-0.00105992
2.62185e-05
-0.00148273
4.24209e-05
-0.00189946
6.05123e-05
-0.00233514
8.14046e-05
-0.00281106
0.000106583
-0.00334061
0.000138114
-0.00392993
0.000177466
-0.00457716
0.00022856
-0.00527378
0.000295068
-0.00599682
0.000382748
-0.00670627
-0.0073365
0.000503932
1.18047e-05
-0.00107172
2.63736e-05
-0.0014973
4.23884e-05
-0.00191548
6.003e-05
-0.00235278
8.06634e-05
-0.00283169
0.000105176
-0.00336512
0.000135358
-0.00396011
0.000173979
-0.00461578
0.00022363
-0.00532343
0.000287556
-0.00606075
0.000370064
-0.00678878
-0.00744449
0.000478053
1.1783e-05
-0.0010835
2.64373e-05
-0.00151195
4.21319e-05
-0.00193117
5.94487e-05
-0.0023701
7.88707e-05
-0.00285111
0.000102579
-0.00338883
0.000132104
-0.00398963
0.000170031
-0.00465371
0.000218179
-0.00537158
0.000280843
-0.00612341
0.000361493
-0.00686943
-0.00754492
0.000461918
1.22629e-05
-0.00109577
2.65467e-05
-0.00152624
4.17058e-05
-0.00194633
5.78862e-05
-0.00238628
7.66673e-05
-0.00286989
9.93205e-05
-0.00341148
0.000127582
-0.0040179
0.000163876
-0.00469
0.000211247
-0.00541895
0.000272683
-0.00618485
0.000352136
-0.00694888
-0.00764678
0.000454001
1.19404e-05
-0.00110771
2.5802e-05
-0.0015401
4.02638e-05
-0.0019608
5.57055e-05
-0.00240172
7.33566e-05
-0.00288755
9.46913e-05
-0.00343282
0.000121856
-0.00404506
0.000156118
-0.00472427
0.000201448
-0.00546428
0.000260983
-0.00624438
0.000338999
-0.0070269
-0.00774739
0.000439607
1.17971e-05
-0.00111951
2.50206e-05
-0.00155332
3.8642e-05
-0.00197442
5.28412e-05
-0.00241592
6.93788e-05
-0.00290408
8.90999e-05
-0.00345254
0.000113795
-0.00406976
0.000146325
-0.0047568
0.000189085
-0.00550704
0.000245837
-0.00630114
0.00032076
-0.00710182
-0.00784735
0.000420717
1.12552e-05
-0.00113076
2.39107e-05
-0.00156598
3.63025e-05
-0.00198681
4.92207e-05
-0.00242884
6.38826e-05
-0.00291875
8.18146e-05
-0.00347047
0.000104552
-0.00409249
0.000134533
-0.00478678
0.000174498
-0.005547
0.00022794
-0.00635458
0.000299095
-0.00717297
-0.00793724
0.000388986
1.14608e-05
-0.00114222
2.26363e-05
-0.00157716
3.39852e-05
-0.00199816
4.53643e-05
-0.00244022
5.78515e-05
-0.00293123
7.34435e-05
-0.00348606
9.38195e-05
-0.00411287
0.00012118
-0.00481414
0.000158193
-0.00558402
0.000208726
-0.00640511
0.000277992
-0.00724224
-0.00803468
0.000375435
1.04053e-05
-0.00115263
2.17084e-05
-0.00158846
3.0925e-05
-0.00200738
4.04159e-05
-0.00244971
5.05423e-05
-0.00294136
6.36039e-05
-0.00349913
8.11605e-05
-0.00413043
0.000104593
-0.00483757
0.000137243
-0.00561667
0.000182629
-0.0064505
0.000244573
-0.00730418
-0.00811366
0.000323546
9.82103e-06
-0.00116245
1.82511e-05
-0.00159689
2.60352e-05
-0.00201516
3.33336e-05
-0.00245701
4.17491e-05
-0.00294978
5.2524e-05
-0.0035099
6.63033e-05
-0.00414421
8.62218e-05
-0.00485749
0.000114762
-0.00564521
0.000155546
-0.00649128
0.00021374
-0.00736238
-0.00820195
0.000302032
9.0317e-06
-0.00117149
1.65549e-05
-0.00160442
2.23064e-05
-0.00202091
2.72497e-05
-0.00246195
3.29102e-05
-0.00295544
3.92697e-05
-0.00351626
4.98714e-05
-0.00415481
6.52824e-05
-0.0048729
8.8471e-05
-0.0056684
0.000122557
-0.00652537
0.000171599
-0.00741142
-0.00826739
0.000237042
8.33724e-06
-0.00117983
1.38797e-05
-0.00160996
1.74678e-05
-0.0020245
2.01601e-05
-0.00246464
2.23225e-05
-0.0029576
2.59877e-05
-0.00351993
3.17661e-05
-0.00416059
4.34142e-05
-0.00488455
6.17596e-05
-0.00568674
9.06983e-05
-0.00655431
0.000133701
-0.00745442
-0.00832305
0.000189359
7.10488e-06
-0.00118693
1.16302e-05
-0.00161449
1.26144e-05
-0.00202549
1.10539e-05
-0.00246308
1.08696e-05
-0.00295742
1.0624e-05
-0.00351968
1.2475e-05
-0.00416244
1.81013e-05
-0.00489018
3.05327e-05
-0.00569917
5.30748e-05
-0.00657685
9.11529e-05
-0.0074925
-0.0083948
0.000162905
6.05792e-06
-0.00119299
6.7205e-06
-0.00161515
5.16194e-06
-0.00202393
2.4319e-06
-0.00246036
-2.7689e-06
-0.00295222
-6.12996e-06
-0.00351632
-9.1684e-06
-0.0041594
-9.38245e-06
-0.00488996
-4.12719e-06
-0.00570443
9.74781e-06
-0.00659072
3.51612e-05
-0.00751792
-0.00842624
6.66026e-05
4.46879e-06
-0.00119746
3.46912e-06
-0.00161415
-8.45928e-07
-0.00201962
-7.56239e-06
-0.00245364
-1.55276e-05
-0.00294425
-2.53482e-05
-0.0035065
-3.27083e-05
-0.00415204
-3.83373e-05
-0.00488433
-3.93606e-05
-0.00570341
-3.10832e-05
-0.006599
-9.60404e-06
-0.00753939
-0.00846728
3.14379e-05
1.80774e-06
-0.00119927
-9.95192e-07
-0.00161135
-8.27728e-06
-0.00201233
-1.83229e-05
-0.00244359
-3.11045e-05
-0.00293147
-4.49199e-05
-0.00349269
-5.963e-05
-0.00413733
-7.18382e-05
-0.00487213
-7.99066e-05
-0.00569534
-8.09046e-05
-0.006598
-6.90958e-05
-0.0075512
-0.00850627
-3.01134e-05
3.58308e-07
-0.00119963
-5.9285e-06
-0.00160506
-1.58612e-05
-0.0020024
-3.1212e-05
-0.00242824
-4.84021e-05
-0.00291428
-6.69314e-05
-0.00347416
-8.72653e-05
-0.004117
-0.000107155
-0.00485224
-0.000124101
-0.00567839
-0.000135653
-0.00658645
-0.000137296
-0.00754956
-0.00851073
-0.000132838
-2.67152e-06
-0.00119696
-1.12505e-05
-0.00159649
-2.61793e-05
-0.00198747
-4.39496e-05
-0.00241047
-6.60708e-05
-0.00289216
-9.16053e-05
-0.00344862
-0.000117937
-0.00409067
-0.000145802
-0.00482437
-0.000171612
-0.00565258
-0.000191921
-0.00656614
-0.000201015
-0.00754047
-0.00852631
-0.000185427
-5.24243e-06
-0.00119172
-1.71345e-05
-0.0015846
-3.53113e-05
-0.0019693
-5.85201e-05
-0.00238727
-8.58893e-05
-0.00286479
-0.000117677
-0.00341684
-0.000152356
-0.00405599
-0.000189647
-0.00478708
-0.000226067
-0.00561616
-0.000259063
-0.00653315
-0.000283152
-0.00751638
-0.00852004
-0.000289428
-8.58436e-06
-0.00118314
-2.33413e-05
-0.00156984
-4.57912e-05
-0.00194685
-7.3781e-05
-0.00235928
-0.000107586
-0.00283099
-0.000146032
-0.00337839
-0.0001895
-0.00401252
-0.000234485
-0.0047421
-0.000281922
-0.00556873
-0.000327228
-0.00648784
-0.000366037
-0.00747757
-0.00848696
-0.00039912
-1.00758e-05
-0.00117306
-3.02959e-05
-0.00154962
-5.68162e-05
-0.00192033
-9.16048e-05
-0.00232449
-0.000131629
-0.00279096
-0.000176907
-0.00333311
-0.000228408
-0.00396102
-0.000284418
-0.00468609
-0.000342739
-0.00551041
-0.00040035
-0.00643023
-0.000451095
-0.00742682
-0.00845848
-0.000479571
-1.42278e-05
-0.00115883
-3.78956e-05
-0.00152595
-7.07994e-05
-0.00188743
-0.000109761
-0.00228553
-0.00015671
-0.00274401
-0.000211588
-0.00327823
-0.000271772
-0.00390084
-0.000339316
-0.00461854
-0.000411834
-0.00543789
-0.000485107
-0.00635696
-0.000554594
-0.00735734
-0.00839954
-0.000613537
-1.77614e-05
-0.00114108
-4.60276e-05
-0.00149769
-8.36745e-05
-0.00184978
-0.000129768
-0.00223944
-0.000184011
-0.00268977
-0.000247001
-0.00321525
-0.000318659
-0.00382918
-0.000398574
-0.00453863
-0.000483411
-0.00535305
-0.000572233
-0.00626814
-0.000659265
-0.00727031
-0.00832226
-0.000736549
-2.2013e-05
-0.00111906
-5.47338e-05
-0.00146497
-9.83572e-05
-0.00180616
-0.000151884
-0.00218591
-0.000214114
-0.00262754
-0.000286673
-0.00314269
-0.000369926
-0.00374593
-0.000461171
-0.00444739
-0.000561649
-0.00525257
-0.000667072
-0.00616272
-0.000772216
-0.00716516
-0.00822547
-0.000869006
-2.5799e-05
-0.00109327
-6.5175e-05
-0.00142559
-0.000115126
-0.00175621
-0.000175216
-0.00212582
-0.000247319
-0.00255544
-0.000329499
-0.00306051
-0.00042407
-0.00365136
-0.000530108
-0.00434135
-0.000646044
-0.00513664
-0.000769173
-0.00603959
-0.000893791
-0.00704055
-0.00810858
-0.00101068
-3.08035e-05
-0.00106246
-7.53991e-05
-0.001381
-0.000132257
-0.00169935
-0.00020091
-0.00205717
-0.000281678
-0.00247467
-0.000376397
-0.00296579
-0.000483412
-0.00354434
-0.000605407
-0.00421935
-0.000738777
-0.00500327
-0.000881136
-0.00589723
-0.00102632
-0.00689536
-0.00797094
-0.00116396
-3.64224e-05
-0.00102605
-8.68431e-05
-0.00133058
-0.000151237
-0.00163496
-0.000228753
-0.00197965
-0.000320165
-0.00238326
-0.00042644
-0.00285951
-0.000548993
-0.00342179
-0.000685994
-0.00408235
-0.000838179