/*--------------------------------*- C++ -*----------------------------------*\
| =========                 |                                                 |
| \\      /  F ield         | OpenFOAM: The Open Source CFD Toolbox           |
|  \\    /   O peration     | Version:  2.3.0                                 |
|   \\  /    A nd           | Web:      www.OpenFOAM.org                      |
|    \\/     M anipulation  |                                                 |
\*---------------------------------------------------------------------------*/
FoamFile
{
    version     2.0;
    format      ascii;
    class       volScalarField;
    location    "9000";
    object      nut;
}
// * * * * * * * * * * * * * * * * * * * * * * * * * * * * * * * * * * * * * //

dimensions      [0 2 -1 0 0 0 0];

internalField   nonuniform List<scalar> 
6617
(
0.0491018
0.0448511
0.0410103
0.0373533
0.0340112
0.0309571
0.0281638
0.0256191
0.0233187
0.0212592
0.0194755
0.0183018
0.0567978
0.0530299
0.0497093
0.0469347
0.0447061
0.0429984
0.0417739
0.0409844
0.0405796
0.0405088
0.0407193
0.0411621
0.0641699
0.061467
0.0591528
0.0572646
0.0557872
0.0546917
0.0539425
0.0535009
0.0533276
0.0533816
0.0536269
0.0540271
0.0703275
0.0683674
0.0667159
0.0653815
0.0643464
0.0635862
0.0630739
0.0627837
0.0626898
0.0627682
0.0629969
0.0633543
0.0754424
0.073991
0.0727722
0.0717882
0.0710245
0.0704632
0.0700876
0.0698809
0.0698277
0.0699144
0.0701273
0.0704526
0.0796996
0.0785961
0.0776672
0.0769135
0.0763246
0.0758894
0.0755981
0.0754416
0.0754107
0.0754979
0.0756954
0.0759948
0.0832692
0.0823937
0.0816634
0.0810668
0.0805959
0.0802452
0.0800104
0.079887
0.0798705
0.0799568
0.0801415
0.0804197
0.0862407
0.0855445
0.0849585
0.0844739
0.0840868
0.0837953
0.0835998
0.0835004
0.0834951
0.083581
0.0837556
0.0840162
0.0887506
0.0881811
0.0877028
0.0872996
0.0869747
0.0867269
0.0865582
0.0864775
0.0864817
0.0865701
0.0867385
0.086984
0.0908886
0.0904019
0.0900122
0.0896652
0.0893877
0.0891783
0.0890211
0.0889564
0.0889696
0.0890634
0.0892348
0.0894697
0.0200264
0.023648
0.0261779
0.0288793
0.0320768
0.0358689
0.0402658
0.0452275
0.0506948
0.0565955
0.06284
0.069292
0.041763
0.042581
0.043737
0.0452829
0.0472662
0.0497227
0.0526708
0.0561098
0.0600177
0.0643542
0.0690617
0.074035
0.0545492
0.0552309
0.0561413
0.0573106
0.0587687
0.0605444
0.06266
0.0651314
0.0679649
0.0711532
0.0746715
0.078433
0.0638229
0.0644252
0.0651998
0.0661636
0.0673346
0.0687302
0.0703663
0.0722565
0.0744114
0.0768353
0.0795242
0.0824402
0.0708807
0.0714248
0.0721073
0.0729374
0.0739244
0.0750774
0.0764056
0.0779178
0.0796222
0.081525
0.0836298
0.0859276
0.0763895
0.0768883
0.0775034
0.0782389
0.0790985
0.0800858
0.0812044
0.0824584
0.0838524
0.0853907
0.0870761
0.0888941
0.0807872
0.0812493
0.0818125
0.0824775
0.0832442
0.0841118
0.0850798
0.0861486
0.0873198
0.0885952
0.089977
0.091452
0.0843604
0.084792
0.0853138
0.0859243
0.086621
0.0873994
0.0882542
0.089185
0.0901909
0.0912699
0.0924165
0.0936095
0.0873065
0.0877127
0.0882009
0.0887677
0.0894098
0.0901219
0.0908868
0.091713
0.0925928
0.0935265
0.0944968
0.0954844
0.0897656
0.0901513
0.0906127
0.0911439
0.0917395
0.0924039
0.0930893
0.0938461
0.0946247
0.0954549
0.0962898
0.0971682
0.0841999
0.0716085
0.0601916
0.0500049
0.0410991
0.0334328
0.0269732
0.0218156
0.0182282
0.0149984
0.0117153
0.00812295
0.0948196
0.0843107
0.0746867
0.066119
0.0586305
0.0519895
0.0458671
0.0400452
0.0344285
0.0288603
0.0231671
0.0171708
0.106854
0.0982105
0.089996
0.0822261
0.0748713
0.0678422
0.0610049
0.0542215
0.0473628
0.0403224
0.032999
0.0253013
0.116994
0.109309
0.101755
0.0943356
0.0870245
0.0797595
0.0724557
0.0650174
0.0573421
0.049333
0.040903
0.0319714
0.124979
0.117906
0.110784
0.103609
0.0963525
0.0889597
0.0813615
0.0734763
0.0652153
0.0564883
0.0472091
0.0372945
0.131269
0.124659
0.117879
0.110914
0.10373
0.0962738
0.0884782
0.0802664
0.0715543
0.0622527
0.0522731
0.0415318
0.136275
0.130052
0.123567
0.116796
0.109697
0.102215
0.0942797
0.0858148
0.0767364
0.0669541
0.0563779
0.0449222
0.140298
0.134417
0.128201
0.121613
0.114604
0.107118
0.099081
0.0904113
0.0810246
0.070829
0.0597327
0.0476508
0.143545
0.137987
0.132023
0.125609
0.118689
0.111218
0.103105
0.0942662
0.0846129
0.0740529
0.0624905
0.0498465
0.146215
0.140935
0.135204
0.12897
0.122117
0.11468
0.106517
0.0975423
0.0876539
0.0767635
0.0647668
0.0515843
0.00406891
0.00158254
0.0018827
0.00254967
0.00349498
0.00490316
0.0067529
0.00907737
0.0119536
0.0154633
0.0196981
0.0247487
0.01055
0.00430287
0.00255775
0.00339292
0.00460265
0.00616686
0.0081225
0.0104841
0.0133138
0.0166794
0.0206507
0.0252555
0.0169374
0.00820001
0.00372525
0.00436744
0.00579451
0.00751636
0.00956554
0.0119537
0.0147275
0.0179386
0.0216357
0.0258506
0.0222788
0.0119774
0.00530648
0.0054006
0.00700054
0.00886542
0.0109931
0.0133963
0.0161083
0.0191688
0.0226302
0.0266083
0.026529
0.0151219
0.00700518
0.00646359
0.00819108
0.010174
0.0123646
0.0147734
0.0174253
0.0203554
0.0236144
0.0272645
0.0298628
0.0176046
0.00859797
0.00752876
0.00934119
0.0114205
0.0136614
0.0160706
0.0186677
0.0214814
0.0245466
0.0278911
0.0324747
0.0195335
0.00999076
0.00856649
0.0104351
0.0125935
0.0148748
0.0172822
0.0198293
0.0225348
0.0254173
0.0284898
0.0345268
0.0210315
0.0111755
0.00955561
0.0114651
0.013688
0.0160031
0.018407
0.0209067
0.0235107
0.0262261
0.0290626
0.0361265
0.0221971
0.012198
0.0104759
0.0124213
0.0147056
0.0170506
0.0194477
0.0219004
0.0244092
0.0269719
0.0295927
0.0372225
0.022741
0.0127553
0.0113575
0.0133835
0.0156564
0.0179689
0.0203543
0.0227795
0.0252039
0.0276353
0.0301189
0.000727996
0.00246953
0.00551723
0.00903279
0.012717
0.0166302
0.0207646
0.025087
0.0295601
0.0341587
0.0388195
0.0436027
0.000553335
0.00138751
0.00348733
0.00662396
0.00998748
0.013508
0.0172008
0.0211651
0.0254205
0.029943
0.0346772
0.0395818
0.00029248
0.000833447
0.00212869
0.00420711
0.00728063
0.0116077
0.0159079
0.0201109
0.0242751
0.0284682
0.032762
0.0372584
0.000313675
0.000660083
0.00168105
0.00331947
0.00578992
0.00937932
0.0140886
0.0189136
0.0236881
0.0282579
0.0325446
0.036689
0.000273781
0.00057835
0.00145211
0.00284075
0.00493476
0.00797227
0.012283
0.01748
0.0227586
0.0279536
0.0328159
0.037202
0.000266664
0.000520387
0.00129788
0.00252452
0.00437617
0.007056
0.0108556
0.0160587
0.0216798
0.0273642
0.0328872
0.037931
0.00025778
0.000488048
0.00120492
0.00233118
0.00403315
0.00648945
0.0099684
0.0148289
0.0206669
0.0267184
0.0327562
0.0384729
0.000255734
0.000470008
0.00113725
0.0021922
0.0037874
0.00608381
0.00932757
0.0138538
0.0197641
0.0260972
0.032534
0.0387935
0.000255344
0.000463514
0.00108764
0.00209055
0.00360696
0.0057884
0.0088636
0.0131454
0.0189653
0.0255152
0.0322819
0.0389931
0.000256224
0.000460516
0.00104749
0.00200852
0.00345914
0.00554921
0.0084943
0.0125931
0.0182286
0.0249391
0.0319921
0.0390902
0.000257388
0.000459018
0.00101355
0.00193823
0.00333156
0.00534106
0.0081711
0.0121081
0.0175338
0.0243312
0.0316244
0.0390535
0.000258832
0.000458482
0.000985329
0.00187891
0.00322259
0.00516094
0.00788757
0.0116772
0.0168999
0.0236955
0.0311809
0.0389038
0.000260501
0.000458655
0.000962275
0.00182997
0.00313189
0.0050095
0.00764631
0.0113055
0.0163437
0.0230559
0.0306858
0.0386682
0.000262411
0.000459291
0.000943738
0.00179029
0.00305796
0.00488541
0.00744725
0.0109962
0.0158752
0.0224513
0.0301735
0.0383768
0.000264541
0.000460245
0.000928907
0.00175826
0.00299805
0.00478446
0.0072845
0.010742
0.0154885
0.0219205
0.0296978
0.038089
0.000266866
0.000461382
0.000917171
0.00173267
0.00294996
0.00470315
0.00715275
0.0105347
0.0151701
0.0214631
0.0292603
0.0377999
0.000269363
0.000462607
0.000907857
0.00171209
0.00291113
0.00463738
0.00704585
0.0103658
0.0149091
0.0210787
0.0288738
0.0375407
0.000272004
0.000463881
0.000900571
0.00169562
0.00287986
0.00458427
0.00695929
0.0102286
0.0146965
0.0207626
0.0285478
0.0373434
0.000274731
0.000465194
0.000894877
0.0016823
0.0028544
0.0045409
0.00688841
0.0101158
0.0145207
0.0204974
0.0282629
0.0371914
0.000277525
0.000466541
0.000890528
0.00167152
0.00283347
0.00450505
0.00682971
0.0100223
0.0143743
0.0202734
0.0280018
0.0370155
0.000280365
0.000467951
0.000887376
0.00166291
0.00281628
0.00447513
0.00678032
0.00994353
0.0142516
0.020087
0.0277826
0.0368852
0.000283236
0.000469451
0.000885339
0.00165635
0.00280248
0.00445029
0.00673845
0.00987601
0.0141461
0.0199264
0.0275853
0.0367639
0.000286125
0.000471077
0.00088434
0.00165177
0.00279194
0.00443016
0.006703
0.00981719
0.014053
0.0197851
0.0274116
0.0366744
0.000289027
0.000472842
0.00088431
0.00164923
0.00278486
0.00441518
0.00667457
0.00976722
0.0139703
0.0196555
0.0272452
0.0365972
0.000291941
0.000474764
0.000885115
0.00164862
0.00278122
0.00440555
0.00665382
0.00972736
0.0138993
0.0195364
0.0270705
0.0364507
0.000294867
0.000476816
0.000886678
0.0016499
0.002781
0.00440145
0.00664156
0.00969978
0.0138451
0.0194394
0.0269246
0.0363439
0.000297831
0.000479005
0.00088899
0.00165302
0.00278401
0.00440266
0.00663778
0.00968521
0.0138096
0.0193657
0.0267949
0.0362097
0.000300852
0.000481339
0.00089214
0.00165808
0.00279028
0.00440889
0.00664183
0.00968309
0.0137941
0.0193234
0.0267083
0.0361084
0.000303931
0.000483826
0.000896258
0.00166531
0.00280012
0.00442034
0.00665325
0.00969208
0.0137965
0.0193127
0.0266786
0.0360944
0.000307103
0.000486472
0.000901588
0.001675
0.00281391
0.00443737
0.00667225
0.00971085
0.0138122
0.0193219
0.026686
0.0361679
0.000310367
0.000489384
0.00090836
0.00168737
0.00283203
0.00446085
0.00669995
0.00974026
0.0138394
0.0193421
0.0266987
0.0362265
0.000313703
0.000492503
0.000916494
0.00170243
0.00285482
0.00449141
0.00673774
0.00978303
0.0138824
0.0193779
0.0267259
0.0363355
0.000317097
0.000495804
0.000926117
0.0017203
0.00288236
0.00452928
0.00678621
0.00984116
0.0139461
0.0194365
0.026753
0.0363072
0.000320593
0.000499185
0.000937327
0.00174109
0.00291482
0.00457472
0.00684597
0.00991563
0.0140344
0.0195363
0.0268621
0.0364561
0.000324184
0.000502618
0.000950167
0.00176488
0.00295239
0.0046282
0.0069175
0.0100063
0.014144
0.0196641
0.0270143
0.0367102
0.000327755
0.000506014
0.000964328
0.00179138
0.0029948
0.00468943
0.0070007
0.0101136
0.0142749
0.0198137
0.0271705
0.0368757
0.000331287
0.000509289
0.000979784
0.00182044
0.00304166
0.0047579
0.00709512
0.0102378
0.0144308
0.019999
0.0273756
0.0370984
0.000334791
0.000512351
0.000996513
0.00185194
0.00309265
0.00483289
0.00719981
0.0103778
0.0146106
0.0202197
0.0276326
0.0373915
0.00033823
0.000515149
0.00101448
0.00188574
0.00314744
0.00491391
0.00731373
0.0105317
0.0148113
0.0204722
0.0279374
0.0377522
0.000341508
0.000517644
0.00103353
0.00192165
0.00320577
0.00500042
0.00743582
0.0106977
0.0150298
0.0207508
0.0282811
0.038174
0.000344595
0.000519761
0.00105375
0.00195972
0.00326759
0.00509219
0.00756542
0.0108743
0.0152634
0.0210515
0.0286547
0.0386048
0.000347489
0.000521399
0.00107512
0.00199992
0.00333279
0.00518896
0.00770221
0.0110608
0.0155105
0.0213719
0.0290669
0.039161
0.000350151
0.000522528
0.00109775
0.00204235
0.00340151
0.0052909
0.00784638
0.0112572
0.0157698
0.021704
0.0294777
0.0396368
0.000352476
0.000523312
0.00112155
0.00208674
0.00347337
0.00539775
0.00799768
0.0114636
0.0160426
0.0220549
0.029919
0.0401903
0.000354474
0.000523362
0.00114613
0.00213274
0.00354814
0.00550924
0.00815576
0.0116795
0.0163284
0.0224222
0.0303753
0.0407334
0.00035617
0.00052317
0.00117213
0.00218097
0.00362616
0.00562535
0.00832028
0.0119045
0.016627
0.0228077
0.0308583
0.0413014
0.00035767
0.000523215
0.00119936
0.00223118
0.00370719
0.00574604
0.0084914
0.0121386
0.0169379
0.02321
0.031373
0.0419955
0.00035924
0.000525142
0.00122784
0.00228324
0.00379106
0.00587101
0.00866877
0.0123811
0.0172593
0.023622
0.0318744
0.0425241
0.000361107
0.00053053
0.00125712
0.0023372
0.00387795
0.00600014
0.00885197
0.0126319
0.017593
0.0240573
0.0324348
0.043248
0.00036314
0.000540169
0.00128784
0.00239352
0.0039683
0.00613396
0.00904091
0.0128896
0.0179343
0.024499
0.0329975
0.0439728
0.000365107
0.000552368
0.00131976
0.00245212
0.00406204
0.00627269
0.00923637
0.0131549
0.0182842
0.0249469
0.0335516
0.044613
0.000366611
0.000565735
0.00135302
0.00251294
0.00415917
0.00641655
0.00943911
0.0134299
0.0186457
0.02541
0.0341331
0.045342
0.000367532
0.000579652
0.00138744
0.00257605
0.00426019
0.00656568
0.00964891
0.013714
0.0190178
0.0258833
0.034717
0.0460445
0.0003678
0.000594166
0.00142345
0.00264182
0.00436494
0.0067203
0.00986582
0.014007
0.0194014
0.0263704
0.0353134
0.0467213
0.000367707
0.000609465
0.00146109
0.00271037
0.00447372
0.0068805
0.0100903
0.01431
0.0197981
0.0268757
0.0359454
0.0475202
0.00036697
0.000625655
0.0015004
0.00278158
0.0045865
0.00704655
0.0103228
0.0146227
0.0202047
0.0273883
0.0365705
0.0482487
0.000365415
0.000642461
0.00154124
0.00285564
0.00470393
0.00721887
0.0105633
0.0149457
0.0206233
0.0279145
0.0372105
0.0489967
0.000363035
0.000660184
0.00158424
0.00293321
0.00482628
0.00739841
0.0108132
0.0152799
0.0210561
0.0284576
0.0378707
0.0497729
0.00035986
0.000678962
0.0016293
0.00301422
0.00495379
0.00758502
0.0110725
0.0156262
0.0215032
0.029016
0.0385459
0.0505618
0.00035572
0.000698799
0.00167659
0.00309929
0.00508725
0.00777973
0.0113427
0.0159858
0.0219652
0.0295906
0.0392363
0.0513592
0.000350384
0.000719943
0.00172689
0.00318929
0.00522802
0.00798391
0.0116248
0.0163598
0.0224437
0.0301825
0.0399437
0.0521753
0.000343927
0.000742669
0.00178043
0.00328493
0.00537723
0.00819877
0.0119207
0.016751
0.0229422
0.0307949
0.040668
0.052995
0.000336092
0.000767285
0.00183761
0.00338669
0.00553572
0.00842627
0.0122331
0.0171628
0.0234644
0.0314329
0.0414161
0.053829
0.000326343
0.000794033
0.00189933
0.00349636
0.00570638
0.00867033
0.0125655
0.017599
0.0240159
0.0321042
0.0421998
0.0546987
0.00031373
0.000823049
0.00196654
0.00361583
0.00589227
0.00893657
0.0129239
0.0180655
0.0246026
0.0328157
0.0430278
0.0556166
0.000296299
0.000854604
0.00204007
0.00374683
0.00609619
0.00922921
0.0133186
0.0185725
0.0252351
0.033578
0.0439103
0.0565862
0.000268824
0.000888178
0.0021206
0.0038911
0.00632142
0.00955314
0.0137574
0.0191368
0.0259281
0.0344043
0.0448604
0.0576337
0.000227701
0.000923903
0.00220978
0.00405165
0.0065728
0.00991501
0.0142489
0.0197716
0.026709
0.0353182
0.0458944
0.0587468
0.000204322
0.000970655
0.00231229
0.00423344
0.00685651
0.0103243
0.0148049
0.0204911
0.0275979
0.0363641
0.0470565
0.0599926
0.000194211
0.001033
0.0024322
0.00444345
0.00718408
0.0107965
0.0154465
0.0213206
0.0286219
0.0375672
0.048396
0.0614069
0.000193735
0.00109538
0.00257272
0.00469391
0.00757598
0.0113616
0.0162144
0.0223131
0.0298441
0.0389953
0.0499554
0.0629513
0.000208164
0.00117523
0.00275314
0.00501208
0.00807089
0.0120721
0.0171764
0.023554
0.0313735
0.0407933
0.0519549
0.065012
0.000228112
0.00128334
0.00300099
0.00544846
0.00874451
0.0130296
0.0184584
0.0251908
0.0333761
0.0431423
0.0545858
0.067796
0.000257575
0.00139815
0.00330949
0.006035
0.00968562
0.014391
0.0202873
0.0275056
0.0361587
0.0463458
0.0581112
0.0714721
0.000297189
0.00194217
0.00440895
0.00771619
0.0119302
0.017203
0.0236633
0.0314236
0.040575
0.0511556
0.0631619
0.0765596
0.000748017
0.00357597
0.00740416
0.011944
0.0171446
0.0229082
0.0291459
0.0357919
0.0427852
0.0500516
0.0575177
0.0650834
0.000435685
0.0022252
0.00497877
0.00858131
0.0130045
0.0182137
0.0241565
0.0307595
0.0379277
0.0455439
0.0534767
0.0615761
0.000654936
0.00186301
0.00414153
0.00718022
0.0110181
0.0156804
0.02117
0.0274565
0.0344698
0.042101
0.0502113
0.0586513
0.000614426
0.00154861
0.00352166
0.00618701
0.00961869
0.0138711
0.018981
0.0249532
0.0317498
0.0392839
0.0474189
0.055962
0.000603243
0.00132971
0.00308429
0.00548033
0.00860594
0.012531
0.0173139
0.0229871
0.0295422
0.0369194
0.0449984
0.053587
0.000597904
0.00118382
0.00277983
0.00497276
0.00785697
0.0115122
0.016012
0.0214094
0.0277224
0.0349192
0.0429094
0.0515445
0.000597329
0.00108163
0.00254988
0.00458255
0.00727152
0.0107022
0.0149585
0.0201089
0.0261919
0.0332
0.0410658
0.0496391
0.000599271
0.00100291
0.00236566
0.00426773
0.00679514
0.0100369
0.0140832
0.0190136
0.0248829
0.0317042
0.0394326
0.0479479
0.000602404
0.000939486
0.00221394
0.00400726
0.00639859
0.00947878
0.0133423
0.0180763
0.0237483
0.0303878
0.0379674
0.0463751
0.000605613
0.000886909
0.00208603
0.00378737
0.00606215
0.0090023
0.0127049
0.0172631
0.0227538
0.0292205
0.0366544
0.0449752
0.000608806
0.000843146
0.00197896
0.00359832
0.00577184
0.00858917
0.0121491
0.016549
0.0218731
0.0281763
0.0354651
0.0436686
0.000611944
0.000806227
0.00188707
0.00343336
0.0055177
0.00822628
0.0116586
0.0159152
0.021086
0.027236
0.0343863
0.0424909
0.00061498
0.000774562
0.00180664
0.00328772
0.00529275
0.00790398
0.0112212
0.0153468
0.0203753
0.026378
0.0333811
0.0413242
0.000617891
0.000746987
0.00173532
0.0031578
0.00509167
0.00761513
0.0108278
0.0148333
0.0197295
0.025594
0.032466
0.0403358
0.000620623
0.000722704
0.00167147
0.00304096
0.00491057
0.00735433
0.0104714
0.0143663
0.0191391
0.0248721
0.0316082
0.0393124
0.000623274
0.000702161
0.00161399
0.00293538
0.00474634
0.00711728
0.0101465
0.0139388
0.0185961
0.024204
0.0308115
0.0384056
0.000626736
0.000691684
0.00156225
0.00284057
0.00459661
0.00690064
0.00984882
0.0135461
0.0180961
0.0235893
0.0300893
0.0376313
0.000631656
0.000693365
0.00151558
0.00275461
0.00445945
0.00670174
0.00957502
0.0131842
0.0176348
0.0230219
0.0294168
0.036843
0.000637419
0.000700667
0.00147332
0.00267604
0.00433326
0.00651845
0.0093224
0.01285
0.0172082
0.0224964
0.0287923
0.036136
0.000643225
0.000708746
0.00143488
0.00260376
0.00421664
0.00634893
0.00908859
0.0125404
0.0168126
0.0220077
0.0282084
0.0354567
0.000648688
0.00071593
0.00139976
0.00253702
0.00410857
0.00619175
0.00887161
0.0122527
0.0164443
0.0215507
0.0276565
0.0347988
0.000653728
0.000721927
0.00136752
0.00247514
0.00400809
0.0060455
0.00866956
0.0119843
0.0160995
0.02112
0.0271297
0.0341588
0.000658355
0.00072688
0.00133782
0.0024176
0.0039143
0.00590904
0.0084808
0.0117331
0.0157755
0.0207137
0.0266346
0.0335902
0.000662632
0.000730983
0.00131043
0.00236412
0.0038273
0.00578132
0.00830388
0.0114972
0.015471
0.0203327
0.0261775
0.0330826
0.000666616
0.00073441
0.00128537
0.00231447
0.00374649
0.00566156
0.00813767
0.0112752
0.0151839
0.0199723
0.025735
0.0325197
0.000670369
0.000737548
0.00126435
0.00226831
0.00367104
0.00554903
0.00798127
0.0110662
0.0149136
0.0196345
0.0253332
0.0321202
0.000674073
0.000741515
0.00125254
0.00222553
0.0036003
0.00544309
0.00783387
0.0108691
0.0146589
0.0193155
0.0249432
0.0316043
0.000677886
0.0007471
0.00125163
0.00218596
0.00353386
0.00534319
0.00769481
0.0106833
0.0144187
0.0190148
0.0245807
0.0312172
0.000681893
0.000754532
0.00125773
0.00214948
0.0034713
0.00524891
0.00756345
0.0105075
0.014191
0.0187278
0.0242214
0.0307197
0.000686126
0.000762815
0.00126635
0.00211576
0.0034123
0.00515963
0.00743914
0.010341
0.0139749
0.0184548
0.0238883
0.0303778
0.000690325
0.000771125
0.00127491
0.00208442
0.00335659
0.00507501
0.00732109
0.0101828
0.0137692
0.018194
0.0235631
0.0299408
0.000694432
0.000778942
0.00128233
0.00205512
0.003304
0.00499482
0.00720918
0.0100326
0.0135734
0.0179446
0.023252
0.029576
0.000698412
0.000786159
0.00128854
0.00202773
0.00325429
0.00491896
0.00710298
0.0098898
0.0133867
0.0177069
0.0229572
0.0292253
0.000702255
0.000792679
0.00129347
0.00200201
0.00320732
0.00484736
0.007002
0.00975378
0.013209
0.0174805
0.0226769
0.028889
0.000705985
0.000798555
0.00129724
0.00197781
0.00316297
0.00477963
0.00690569
0.00962393
0.0130391
0.017264
0.0224085
0.0285634
0.000709601
0.000803851
0.00129996
0.00195496
0.00312107
0.00471539
0.00681377
0.00949979
0.0128766
0.0170568
0.0221504
0.0282493
0.00071311
0.000808735
0.00130193
0.00193342
0.00308134
0.00465435
0.0067263
0.00938151
0.0127212
0.0168587
0.0219074
0.0279788
0.000716533
0.000813214
0.00130325
0.00191318
0.0030436
0.00459616
0.00664272
0.00926834
0.0125732
0.016671
0.0216779
0.027705
0.000719903
0.000817387
0.00130404
0.00189424
0.00300785
0.00454076
0.00656272
0.00916023
0.0124319
0.016492
0.0214574
0.0274326
0.000723231
0.000821285
0.00130454
0.00187741
0.00297397
0.00448788
0.0064865
0.00905709
0.0122972
0.0163209
0.0212448
0.0271699
0.000726541
0.000825053
0.0013052
0.0018639
0.00294175
0.00443741
0.00641358
0.00895874
0.0121684
0.016157
0.0210406
0.0269202
0.000729856
0.00082891
0.00130687
0.00185591
0.00291141
0.00438948
0.00634411
0.00886464
0.0120455
0.0159999
0.0208422
0.0266656
0.000733115
0.000832799
0.00131009
0.001854
0.0028832
0.00434366
0.00627751
0.00877463
0.0119276
0.0158491
0.0206548
0.0264594
0.000736422
0.000837356
0.00131513
0.00185693
0.00285683
0.00429998
0.00621403
0.00868862
0.0118147
0.0157048
0.020476
0.0262414
0.000740128
0.000842251
0.00132184
0.00186307
0.00283244
0.00425865
0.00615356
0.00860672
0.0117074
0.0155683
0.0203099
0.0260586
0.000743798
0.000847693
0.00132993
0.00187085
0.0028098
0.00421942
0.00609628
0.00852856
0.011605
0.0154379
0.0201461
0.0258295
0.000747564
0.000853153
0.00133869
0.00187914
0.002789
0.00418229
0.00604191
0.00845412
0.0115076
0.0153143
0.0199954
0.0256813
0.000751348
0.000858959
0.00134763
0.00188721
0.00276954
0.0041472
0.00599061
0.00838364
0.0114151
0.0151961
0.0198444
0.0254483
0.000755487
0.000864625
0.00135647
0.00189492
0.00275146
0.00411429
0.00594212
0.00831657
0.0113272
0.0150834
0.0197034
0.0253102
0.000759542
0.000870443
0.00136529
0.00190216
0.00273473
0.00408334
0.00589614
0.00825277
0.0112433
0.0149764
0.0195724
0.0251595
0.000763736
0.000875913
0.00137357
0.00190885
0.00271906
0.00405399
0.00585276
0.00819236
0.0111638
0.0148752
0.0194477
0.0250019
0.000767967
0.000881239
0.00138141
0.0019149
0.00270442
0.00402628
0.00581147
0.00813516
0.0110886
0.0147793
0.0193277
0.0248462
0.000772222
0.000886358
0.00138886
0.00192049
0.00269078
0.00400043
0.00577275
0.00808103
0.0110176
0.0146881
0.0192108
0.0246888
0.000776547
0.000891531
0.00139606
0.00192568
0.00267836
0.00397631
0.00573627
0.0080299
0.0109502
0.0146016
0.0191017
0.0245698
0.000780972
0.000896417
0.00140275
0.00193036
0.00266667
0.00395364
0.00570224
0.00798201
0.0108868
0.0145198
0.0189982
0.0244336
0.000785549
0.000901224
0.00140911
0.0019347
0.00265595
0.00393253
0.00567027
0.0079373
0.0108278
0.0144439
0.0189034
0.0243294
0.000790229
0.000905981
0.00141528
0.00193888
0.00264631
0.00391329
0.0056409
0.00789571
0.0107728
0.0143728
0.0188131
0.0242023
0.000794959
0.000910533
0.00142125
0.00194291
0.00263795
0.00389577
0.00561381
0.00785723
0.0107218
0.0143072
0.0187311
0.0241188
0.000799824
0.00091531
0.00142702
0.00194684
0.0026307
0.00387982
0.00558935
0.00782247
0.0106754
0.0142474
0.0186569
0.0240228
0.00080526
0.000920037
0.00143265
0.00195084
0.00262493
0.0038658
0.00556734
0.00779091
0.0106338
0.0141936
0.0185873
0.0239228
0.000810777
0.000924906
0.00143849
0.00195515
0.00262101
0.00385373
0.00554798
0.00776301
0.0105967
0.0141459
0.0185286
0.0238723
0.000816515
0.000929667
0.00144423
0.00195982
0.00261898
0.00384357
0.00553133
0.0077388
0.0105644
0.014104
0.0184722
0.0237632
0.000822579
0.000934569
0.00145011
0.00196498
0.00261903
0.00383549
0.00551787
0.00771911
0.0105377
0.0140691
0.0184315
0.0237688
0.000828986
0.000939613
0.00145621
0.00197083
0.00262132
0.00382992
0.00550767
0.00770388
0.0105171
0.0140424
0.0183956
0.0236667
0.000835817
0.000944958
0.00146278
0.00197751
0.00262586
0.00382697
0.00550096
0.00769344
0.0105025
0.0140226
0.0183667
0.0236417
0.000843153
0.000950409
0.00146957
0.00198493
0.00263229
0.00382679
0.00549838
0.00768853
0.0104945
0.0140108
0.018347
0.0236002
0.000851102
0.000956159
0.00147677
0.00199314
0.00264052
0.00382977
0.00550024
0.00768986
0.0104946
0.0140082
0.0183376
0.0235798
0.000859739
0.000962305
0.00148458
0.00200222
0.00265034
0.00383649
0.00550745
0.00769806
0.0105033
0.0140162
0.0183413
0.0235772
0.000869164
0.000968621
0.00149284
0.00201206
0.00266199
0.00384757
0.00552072
0.0077143
0.0105222
0.0140364
0.0183609
0.0236052
0.00087957
0.000975529
0.00150157
0.00202266
0.00267537
0.00386391
0.00554177
0.00774076
0.0105535
0.0140719
0.0184009
0.0236574
0.000891831
0.000983012
0.00151087
0.00203404
0.00269086
0.00388685
0.00557226
0.00777967
0.0106007
0.0141268
0.0184628
0.0237146
0.00090604
0.000992146
0.00152223
0.00204775
0.00271104
0.00392037
0.00561701
0.00783613
0.0106687
0.0142061
0.0185548
0.0238369
0.000921757
0.000996617
0.00152989
0.00205856
0.0027308
0.00395889
0.0056717
0.00790814
0.0107582
0.0143123
0.0186729
0.02392
0.000960891
0.0010332
0.0015628
0.00209708
0.0027969
0.00405712
0.00579221
0.00804783
0.0109127
0.0144764
0.0188455
0.024161
0.000715301
0.000913506
0.00150327
0.00203002
0.0027241
0.00400296
0.00575711
0.00803924
0.0109392
0.01455
0.0189768
0.0242971
0.119284
0.10239
0.158794
0.256512
0.0786778
0.0566527
0.138664
0.0576595
0.13644
0.0928423
0.239122
0.136528
0.182371
0.0806113
0.16999
0.0953225
0.0902668
0.157509
0.13692
0.138763
0.10987
0.136437
0.0923652
0.164775
0.133364
0.206373
0.192893
0.0976713
0.0594971
0.166414
0.11689
0.134569
0.0886173
0.101038
0.137677
0.126851
0.420093
0.131749
0.0928976
0.114021
0.0904063
0.127854
0.0657772
0.135653
0.140826
0.180107
0.136398
0.127078
0.099173
0.164727
0.136321
0.13167
0.167201
0.0819831
0.0483642
0.0773998
0.137753
0.139383
0.140065
0.137542
0.0512839
0.0410323
0.107808
0.19373
0.12024
0.0696152
0.139196
0.129894
0.109711
0.0379066
0.130978
0.127841
0.128302
0.0994792
0.129951
0.104725
0.0456869
0.137081
0.0764182
0.0505322
0.0502653
0.140053
0.137682
0.20482
0.135947
0.126463
0.14009
0.129159
0.140113
0.0688734
0.218097
0.148712
0.0890841
0.138706
0.138616
0.234431
0.139804
0.134034
0.248954
0.138455
0.135458
0.0686512
0.0992578
0.176356
0.138397
0.202306
0.138593
0.0766729
0.117679
0.139216
0.14007
0.139241
0.125094
0.220773
0.202706
0.116104
0.0934779
0.0497419
0.0915389
0.134614
0.103275
0.152661
0.134785
0.0943185
0.154801
0.0665634
0.0680312
0.0956269
0.147911
0.139489
0.139582
0.0612574
0.171621
0.139168
0.136247
0.0313948
0.0606698
0.133783
0.0329419
0.137321
0.0397845
0.0889587
0.102388
0.140053
0.139911
0.139872
0.135656
0.12214
0.140053
0.0794709
0.132303
0.0748392
0.111479
0.112044
0.137137
0.156783
0.127107
0.115353
0.187651
0.136344
0.134291
0.121987
0.141769
0.0833266
0.0823976
0.207413
0.139779
0.0346399
0.103024
0.162513
0.18401
0.020455
0.130036
0.158999
0.13813
0.131686
0.132333
0.082759
0.137152
0.0839483
0.0994866
0.0669696
0.134518
0.139071
0.0505228
0.0717063
0.13791
0.161255
0.136679
0.137521
0.138133
0.137736
0.253727
0.135178
0.142842
0.216761
0.137535
0.154086
0.0960752
0.0997775
0.152493
0.030363
0.0435724
0.100809
0.132661
0.126211
0.139347
0.222513
0.137491
0.0294193
0.13422
0.0543542
0.123349
0.0978026
0.0619874
0.132802
0.137873
0.136936
0.138808
0.168471
0.224047
0.138473
0.131232
0.0478879
0.139871
0.14726
0.0772361
0.0957328
0.10905
0.0981184
0.0806305
0.0949137
0.135549
0.0473542
0.111912
0.151265
0.0909743
0.0413192
0.0705702
0.129957
0.139998
0.264242
0.138223
0.110356
0.120515
0.0725242
0.0518363
0.138847
0.108144
0.12488
0.139788
0.045011
0.0718409
0.104291
0.179454
0.242083
0.0478495
0.12553
0.200978
0.133799
0.0629957
0.131232
0.108493
0.180704
0.147707
0.139984
0.187975
0.193181
0.131753
0.110621
0.137903
0.117476
0.140013
0.136863
0.12576
0.134152
0.126418
0.101087
0.0966552
0.0995239
0.130836
0.137743
0.135737
0.0640183
0.115747
0.0838444
0.131367
0.135115
0.20871
0.138416
0.133103
0.118588
0.137872
0.0802823
0.125033
0.103262
0.129274
0.0945287
0.139388
0.139173
0.0928309
0.0535876
0.206316
0.0744005
0.261278
0.0821865
0.134982
0.138996
0.136135
0.030394
0.0993785
0.23947
0.0789334
0.152151
0.125642
0.0935261
0.139721
0.0725771
0.0539038
0.0768817
0.131326
0.0987697
0.134112
0.137961
0.161048
0.141298
0.0478343
0.139407
0.128109
0.134165
0.128304
0.137501
0.127066
0.135647
0.139988
0.11949
0.0697429
0.0428775
0.116018
0.0836802
0.0835588
0.131712
0.109456
0.097064
0.151276
0.12804
0.145242
0.0976454
0.135675
0.129911
0.139497
0.105267
0.0759167
0.130873
0.137052
0.104271
0.121053
0.12834
0.112274
0.12919
0.0945978
0.140029
0.126242
0.232912
0.132295
0.138085
0.138773
0.104207
0.117128
0.138613
0.135119
0.0857613
0.133461
0.130242
0.102082
0.137752
0.126231
0.0809919
0.138623
0.133751
0.134859
0.100288
0.139771
0.0930263
0.108496
0.059796
0.0352399
0.0608808
0.120314
0.132604
0.138279
0.139882
0.0937081
0.134961
0.221759
0.106891
0.167468
0.0377767
0.049446
0.131665
0.0494092
0.146574
0.11881
0.131107
0.135223
0.0541557
0.0993558
0.0355007
0.19559
0.0967675
0.139228
0.10621
0.123659
0.140052
0.10611
0.113797
0.207873
0.119905
0.134849
0.0985408
0.0888171
0.137538
0.179835
0.0725554
0.187801
0.0454066
0.0652344
0.137713
0.0927771
0.132487
0.0626743
0.138297
0.0848607
0.138913
0.139037
0.133965
0.137498
0.114721
0.0627661
0.0714374
0.135044
0.118206
0.149908
0.0990517
0.184609
0.136784
0.123763
0.135436
0.136053
0.154362
0.133244
0.138287
0.113033
0.0306541
0.206801
0.123666
0.128332
0.19273
0.148674
0.1495
0.177544
0.137083
0.109707
0.0930377
0.139179
0.207905
0.0620655
0.13971
0.0360667
0.13439
0.0820972
0.131479
0.0725806
0.108172
0.0444722
0.0693209
0.0432234
0.121249
0.13596
0.100822
0.0594284
0.138041
0.138533
0.136409
0.0550195
0.0763252
0.126479
0.11783
0.140095
0.140099
0.227536
0.0648609
0.109129
0.136424
0.102178
0.172264
0.0650989
0.0989238
0.126821
0.0460329
0.129996
0.103542
0.200368
0.140218
0.110454
0.138571
0.126381
0.116567
0.10407
0.142756
0.108845
0.0969194
0.210586
0.142662
0.139955
0.103741
0.0451886
0.0564526
0.124689
0.10574
0.139689
0.0925841
0.130435
0.129283
0.125822
0.138352
0.137786
0.138322
0.119077
0.0575418
0.132945
0.133138
0.102429
0.125029
0.135548
0.0631802
0.0752634
0.128542
0.121746
0.118922
0.138124
0.136786
0.221678
0.139858
0.137717
0.116384
0.139872
0.13706
0.121455
0.158906
0.0546383
0.136429
0.130495
0.137774
0.0475916
0.0629169
0.0651339
0.157098
0.146564
0.136436
0.0820452
0.139104
0.0714269
0.12057
0.132672
0.0458795
0.133338
0.199557
0.101513
0.148993
0.0296216
0.128048