/*--------------------------------*- C++ -*----------------------------------*\
| =========                 |                                                 |
| \\      /  F ield         | OpenFOAM: The Open Source CFD Toolbox           |
|  \\    /   O peration     | Version:  2.3.0                                 |
|   \\  /    A nd           | Web:      www.OpenFOAM.org                      |
|    \\/     M anipulation  |                                                 |
\*---------------------------------------------------------------------------*/
FoamFile
{
    version     2.0;
    format      ascii;
    class       volScalarField;
    location    "9000";
    object      p;
}
// * * * * * * * * * * * * * * * * * * * * * * * * * * * * * * * * * * * * * //

dimensions      [0 2 -2 0 0 0 0];

internalField   nonuniform List<scalar> 
6617
(
-0.00165243
0.0262258
0.87163
2.55338
5.34062
9.27714
14.5612
22.3132
33.1016
42.7852
46.7754
59.5255
21.1811
25.2446
31.2348
38.8941
48.5054
60.0286
73.3477
88.3147
104.567
121.414
138.413
155.4
37.8142
43.0452
49.7123
57.0207
65.0336
73.6703
82.86
92.4759
102.339
112.267
122.134
131.825
49.6307
55.8711
63.1429
70.8895
79.1315
87.7539
96.6327
105.621
114.56
123.292
131.668
139.559
58.8086
64.6226
71.1459
77.9125
84.9233
92.1194
99.4396
106.808
114.142
121.348
128.335
135.025
65.5813
71.1308
77.1089
83.2686
89.5998
96.061
102.603
109.168
115.699
122.125
128.373
134.377
70.8955
75.8572
81.1571
86.6413
92.2776
98.0382
103.884
109.774
115.662
121.497
127.215
132.754
74.2319
79.1283
84.0105
89.0144
94.1423
99.395
104.753
110.171
115.626
121.069
126.427
131.637
77.5985
81.8857
86.3022
90.8363
95.509
100.357
105.287
110.267
115.312
120.382
125.414
130.412
80.9376
84.7178
88.6058
92.5344
96.7397
101.274
105.73
110.212
114.761
119.351
124.091
128.966
115.271
149.933
173.441
191.462
205.658
216.697
224.754
229.765
231.894
231.49
228.556
223.18
170.652
182.705
192.697
200.918
207.447
212.325
215.629
217.52
218.241
217.954
216.204
212.772
141.39
150.986
160.422
169.399
177.685
185.079
191.402
196.52
200.379
202.935
203.782
202.892
146.994
154.137
160.996
167.456
173.409
178.767
183.462
187.452
190.72
193.222
194.676
195.059
141.464
147.762
153.893
159.758
165.262
170.326
174.884
178.885
182.301
185.078
187.021
188.454
140.144
145.733
151.127
156.262
161.074
165.515
169.542
173.131
176.273
178.947
180.966
182.455
138.091
143.256
148.223
152.94
157.356
161.433
165.137
168.46
171.394
173.95
175.938
177.454
136.63
141.455
146.074
150.454
154.546
158.315
161.724
164.804
167.51
169.892
171.744
173.226
135.221
139.822
144.185
148.341
152.258
155.818
158.982
161.885
164.389
166.633
168.417
169.899
133.785
138.225
142.414
146.441
150.212
153.659
156.629
159.353
161.389
163.681
165.328
167.057
-71.5603
-71.7953
-71.8533
-71.647
-71.1856
-70.4434
-69.3652
-67.9327
-66.1522
-63.9489
-60.8068
-54.3835
-72.3491
-72.6002
-72.6333
-72.3096
-71.5699
-70.3525
-68.54
-65.9392
-62.2821
-57.2366
-50.6209
-42.8012
-72.0138
-72.0991
-71.9529
-71.3486
-70.1811
-68.3828
-65.8501
-62.4306
-57.9627
-52.3629
-45.7395
-38.6193
-70.7294
-70.5535
-70.1617
-69.2915
-67.8416
-65.7531
-62.9494
-59.3446
-54.89
-49.6287
-43.7475
-37.6471
-68.9986
-68.6073
-68.0314
-66.9855
-65.3807
-63.1772
-60.317
-56.7586
-52.4911
-47.5677
-42.166
-36.6071
-66.7972
-66.5112
-65.8287
-64.6751
-63.0036
-60.7918
-57.9771
-54.5287
-50.4442
-45.7822
-40.685
-35.4255
-64.417
-64.3922
-63.6878
-62.4953
-60.7973
-58.6356
-55.9153
-52.6065
-48.683
-44.2381
-39.3831
-34.3469
-62.2223
-62.3949
-61.6718
-60.5017
-58.7616
-56.6555
-53.9991
-50.7924
-46.9243
-42.6212
-37.9024
-32.9922
-60.1618
-60.5757
-59.9281
-58.8975
-56.9606
-54.9979
-52.558
-49.626
-45.7815
-41.6797
-37.1618
-32.4355
-55.6965
-57.6735
-57.88
-56.7789
-53.4777
-51.0797
-48.6688
-45.7653
-41.9017
-38.0836
-33.3451
-28.6106
-41.1776
-34.1246
-28.5807
-23.0384
-17.5005
-12.0704
-6.7141
-1.37835
3.99852
9.46144
14.9713
20.5746
-34.6181
-29.8547
-26.526
-22.788
-18.605
-14.0609
-9.25077
-4.2598
0.878388
6.16906
11.4729
16.6948
-31.8236
-26.1891
-22.5615
-19.2486
-15.785
-12.1042
-8.20612
-4.099
0.222789
4.79946
9.49545
13.8314
-31.7239
-26.2326
-22.3323
-18.9689
-15.5092
-11.9379
-8.2467
-4.42782
-0.474286
3.65897
8.04275
12.3957
-31.1862
-26.1178
-22.1906
-18.8738
-15.4634
-11.9799
-8.41074
-4.75372
-1.01256
2.81339
6.82885
11.1255
-30.2834
-25.4657
-21.505
-18.1938
-14.8434
-11.4748
-8.06497
-4.6081
-1.09982
2.44368
6.10447
10.0998
-29.3896
-24.7138
-20.7322
-17.4026
-14.0934
-10.8094
-7.52788
-4.24285
-0.945244
2.35013
5.70998
9.34345
-28.1556
-23.6209
-19.779
-16.5777
-13.3665
-10.1649
-6.98235
-3.83499
-0.711806
2.37332
5.49792
8.84028
-27.6346
-22.9772
-19.0721
-15.9038
-12.7327
-9.56912
-6.45459
-3.42867
-0.452643
2.43897
5.37876
8.52643
-23.7209
-19.4335
-16.9973
-15.0727
-12.1447
-8.97745
-5.8271
-2.9425
-0.0971669
2.59205
5.39163
8.44184
-134.893
-127.538
-119.629
-112.524
-103.685
-93.0883
-81.5731
-69.8649
-58.2209
-47.0852
-36.9864
-29.0637
-83.9022
-84.1149
-83.7658
-83.0209
-82.1974
-81.5348
-80.5843
-78.198
-73.7061
-67.135
-58.6909
-50.7098
-90.0064
-89.8876
-89.8583
-89.7759
-89.4441
-88.4876
-86.7506
-84.3497
-81.1684
-76.6881
-70.2821
-64.2266
-85.3422
-85.3315
-85.2808
-85.2019
-85.0826
-84.8741
-84.4537
-83.6034
-82.1025
-79.7792
-75.9128
-72.4007
-85.3031
-85.2913
-85.276
-85.2327
-85.139
-84.9637
-84.658
-84.1189
-83.1627
-81.6018
-79.0346
-77.1116
-84.4606
-84.4525
-84.4316
-84.3921
-84.3254
-84.2171
-84.0415
-83.7508
-83.2433
-82.3522
-80.834
-80.0878
-84.2821
-84.2761
-84.2619
-84.2328
-84.1818
-84.0978
-83.963
-83.7522
-83.4108
-82.8385
-81.8956
-81.2306
-84.1301
-84.1259
-84.1143
-84.0918
-84.055
-83.997
-83.9069
-83.7672
-83.5456
-83.1847
-82.5914
-82.0739
-84.1025
-84.0997
-84.0916
-84.0756
-84.0497
-84.0096
-83.9479
-83.8519
-83.7031
-83.4706
-83.0962
-82.6971
-84.0922
-84.0905
-84.0842
-84.0718
-84.0523
-84.0229
-83.9785
-83.9097
-83.8036
-83.6378
-83.3689
-83.0383
-84.0989
-84.0975
-84.0919
-84.0809
-84.0636
-84.0379
-84
-83.9427
-83.855
-83.7171
-83.4931
-83.2409
-84.115
-84.1136
-84.108
-84.0969
-84.0795
-84.0537
-84.0156
-83.9586
-83.8706
-83.7328
-83.5187
-83.1829
-84.1489
-84.1473
-84.1417
-84.1306
-84.1134
-84.0879
-84.0511
-83.9975
-83.9172
-83.794
-83.6063
-83.4478
-84.2011
-84.1994
-84.1936
-84.1823
-84.1648
-84.1388
-84.1013
-84.0467
-83.9651
-83.8431
-83.6638
-83.3944
-84.2749
-84.2732
-84.2676
-84.2568
-84.2401
-84.2156
-84.1806
-84.1308
-84.0588
-83.9563
-83.8119
-83.6269
-84.367
-84.3652
-84.3596
-84.349
-84.3327
-84.3091
-84.2754
-84.2278
-84.1593
-84.0612
-83.9195
-83.7382
-84.4757
-84.4739
-84.4686
-84.4586
-84.4433
-84.4211
-84.3898
-84.3459
-84.2835
-84.1949
-84.0693
-83.907
-84.5972
-84.5955
-84.5904
-84.5811
-84.5668
-84.5464
-84.5178
-84.478
-84.4219
-84.3428
-84.2307
-84.0845
-84.7271
-84.7255
-84.7207
-84.7119
-84.6987
-84.68
-84.654
-84.6183
-84.5687
-84.4997
-84.4058
-84.3149
-84.8618
-84.8602
-84.8556
-84.8474
-84.835
-84.8175
-84.7933
-84.7598
-84.713
-84.6473
-84.5593
-84.4426
-84.9986
-84.9972
-84.9928
-84.9852
-84.9737
-84.9576
-84.9356
-84.9058
-84.8649
-84.8089
-84.7347
-84.6533
-85.1348
-85.1334
-85.1293
-85.122
-85.1111
-85.0959
-85.0751
-85.0468
-85.0077
-84.9528
-84.8752
-84.7796
-85.2693
-85.268
-85.264
-85.2571
-85.2468
-85.2327
-85.2135
-85.1877
-85.1526
-85.1044
-85.0387
-84.9665
-85.3995
-85.3982
-85.3944
-85.3876
-85.3777
-85.364
-85.3455
-85.3207
-85.2875
-85.2424
-85.1824
-85.1348
-85.526
-85.5248
-85.521
-85.5143
-85.5045
-85.4908
-85.4722
-85.4471
-85.4127
-85.3653
-85.3021
-85.2271
-85.6497
-85.6484
-85.6445
-85.6378
-85.6279
-85.6143
-85.5958
-85.5708
-85.5374
-85.4928
-85.4359
-85.3812
-85.7703
-85.769
-85.765
-85.7581
-85.7479
-85.7337
-85.7141
-85.6872
-85.6503
-85.5993
-85.5305
-85.453
-85.8915
-85.8902
-85.8863
-85.8794
-85.8691
-85.8545
-85.8342
-85.8061
-85.7669
-85.7123
-85.6379
-85.5387
-86.0171
-86.0155
-86.0112
-86.004
-85.9934
-85.9786
-85.9581
-85.9298
-85.8905
-85.836
-85.7615
-85.6563
-86.1426
-86.1411
-86.137
-86.1299
-86.1195
-86.1051
-86.0851
-86.0575
-86.0194
-85.9665
-85.8935
-85.8091
-86.2688
-86.2673
-86.2633
-86.2565
-86.2465
-86.2326
-86.2134
-86.1869
-86.1503
-86.0999
-86.0317
-85.9406
-86.3945
-86.3931
-86.3893
-86.3826
-86.3726
-86.3588
-86.3396
-86.3132
-86.2774
-86.2293
-86.1672
-86.1238
-86.524
-86.5221
-86.5177
-86.5105
-86.4999
-86.4851
-86.4642
-86.4347
-86.3926
-86.3319
-86.2456
-86.1235
-86.6541
-86.6524
-86.6482
-86.6413
-86.6313
-86.6173
-86.5976
-86.5698
-86.5302
-86.4736
-86.3942
-86.2732
-86.7832
-86.7817
-86.7778
-86.7715
-86.7624
-86.7499
-86.7324
-86.7081
-86.674
-86.6265
-86.5609
-86.4937
-86.9089
-86.9074
-86.9037
-86.8979
-86.8896
-86.8783
-86.8626
-86.8405
-86.8093
-86.7651
-86.7051
-86.6411
-87.0283
-87.0265
-87.0229
-87.0175
-87.01
-87.0001
-86.9865
-86.9673
-86.9401
-86.9013
-86.848
-86.7813
-87.1339
-87.1324
-87.1292
-87.1246
-87.1184
-87.1105
-87.0996
-87.0844
-87.0625
-87.0308
-86.9856
-86.9273
-87.2223
-87.2209
-87.2182
-87.2144
-87.2098
-87.2041
-87.1966
-87.1862
-87.1709
-87.1484
-87.1147
-87.073
-87.2874
-87.2862
-87.2841
-87.2815
-87.2786
-87.2754
-87.2714
-87.2657
-87.2569
-87.2427
-87.2197
-87.2095
-87.3271
-87.3258
-87.324
-87.3224
-87.321
-87.3202
-87.3196
-87.3188
-87.3165
-87.3105
-87.2989
-87.2806
-87.3327
-87.3313
-87.3296
-87.3288
-87.3292
-87.3313
-87.3352
-87.341
-87.3484
-87.3573
-87.3677
-87.3919
-87.29
-87.2896
-87.2897
-87.291
-87.2943
-87.3003
-87.3092
-87.3217
-87.3378
-87.357
-87.3739
-87.3619
-87.2058
-87.2053
-87.2059
-87.2088
-87.2145
-87.2241
-87.2383
-87.2583
-87.2853
-87.3203
-87.3672
-87.4621
-87.0683
-87.0681
-87.0695
-87.0739
-87.0819
-87.0946
-87.1133
-87.1392
-87.1735
-87.2179
-87.2742
-87.3134
-86.8743
-86.8739
-86.8754
-86.881
-86.8914
-86.9081
-86.9327
-86.9672
-87.0136
-87.074
-87.1458
-87.1949
-86.6033
-86.6048
-86.6085
-86.6172
-86.6316
-86.6535
-86.6852
-86.7293
-86.7888
-86.8667
-86.9703
-87.1712
-86.2674
-86.2697
-86.2746
-86.2854
-86.303
-86.3294
-86.3672
-86.4191
-86.488
-86.577
-86.6868
-86.7594
-85.8552
-85.8589
-85.8655
-85.8788
-85.9003
-85.9326
-85.9788
-86.0428
-86.1288
-86.2413
-86.3835
-86.5638
-85.3604
-85.3643
-85.3721
-85.3877
-85.4132
-85.4514
-85.5062
-85.5821
-85.6843
-85.8184
-85.9921
-86.2447
-84.7678
-84.7734
-84.7842
-84.8041
-84.8352
-84.881
-84.9459
-85.0349
-85.154
-85.3101
-85.505
-85.681
-84.0866
-84.0923
-84.1051
-84.1286
-84.1653
-84.2192
-84.2955
-84.4008
-84.5428
-84.7301
-84.973
-85.3043
-83.3019
-83.3083
-83.3233
-83.3506
-83.3928
-83.4547
-83.5422
-83.6627
-83.8247
-84.0377
-84.3112
-84.6476
-82.4101
-82.417
-82.4341
-82.4656
-82.5142
-82.5854
-82.6859
-82.824
-83.0094
-83.253
-83.5628
-83.8901
-81.3964
-81.406
-81.4272
-81.465
-81.5221
-81.6049
-81.7213
-81.8811
-82.0958
-82.3785
-82.7461
-83.2421
-80.273
-80.2835
-80.3079
-80.351
-80.416
-80.5101
-80.6422
-80.8231
-81.066
-81.3854
-81.7981
-82.2985
-79.0276
-79.0396
-79.0674
-79.1166
-79.1905
-79.2975
-79.4475
-79.6527
-79.9277
-80.2896
-80.7568
-81.3183
-77.6545
-77.669
-77.7018
-77.7587
-77.8434
-77.9652
-78.1353
-78.3673
-78.6777
-79.0851
-79.6088
-80.2355
-76.1628
-76.1797
-76.2173
-76.2821
-76.3783
-76.5162
-76.7085
-76.9704
-77.3203
-77.7791
-78.3678
-79.0661
-74.5506
-74.5699
-74.613
-74.6866
-74.7955
-74.9515
-75.1685
-75.4639
-75.858
-76.3744
-77.0359
-77.819
-72.8195
-72.8417
-72.891
-72.9747
-73.0982
-73.2744
-73.5193
-73.852
-74.2956
-74.8762
-75.6184
-76.4891
-70.9739
-71.0006
-71.0576
-71.1532
-71.2932
-71.4924
-71.7684
-72.1425
-72.6399
-73.2894
-74.1166
-75.0829
-69.0332
-69.0639
-69.1293
-69.2373
-69.3956
-69.6201
-69.9303
-70.3501
-70.9067
-71.6313
-72.5493
-73.6131
-67.0092
-67.0448
-67.1196
-67.2422
-67.4211
-67.6741
-68.023
-68.4939
-69.1167
-69.9245
-70.9407
-72.11
-64.9237
-64.9648
-65.0508
-65.1901
-65.3926
-65.6782
-66.0711
-66.6
-67.2975
-68.1984
-69.3228
-70.6118
-62.8049
-62.8533
-62.9525
-63.1114
-63.3413
-63.6645
-64.1078
-64.7026
-65.4842
-66.4882
-67.7274
-69.1333
-60.6971
-60.7532
-60.8679
-61.0488
-61.3104
-61.677
-62.1783
-62.8488
-63.7264
-64.8473
-66.2136
-67.758
-58.6427
-58.7084
-58.8416
-59.0494
-59.3486
-59.7665
-60.3356
-61.0933
-62.0798
-63.3309
-64.8323
-66.4979
-56.7122
-56.79
-56.9461
-57.1862
-57.5305
-58.0096
-58.6588
-59.5173
-60.6259
-62.015
-63.6346
-65.3019
-55.0156
-55.11
-55.2932
-55.5718
-55.9704
-56.5236
-57.2698
-58.2498
-59.504
-61.0561
-62.8195
-64.6071
-53.6077
-53.7255
-53.9493
-54.2836
-54.7563
-55.4066
-56.2754
-57.4017
-58.8181
-60.5316
-62.41
-64.1239
-52.6101
-52.7484
-53.0233
-53.437
-54.0224
-54.8224
-55.873
-57.1992
-58.8132
-60.6973
-62.6926
-64.4594
-52.8067
-52.9872
-53.3586
-53.8961
-54.6168
-55.5529
-56.7303
-58.1677
-59.8693
-61.7863
-63.752
-65.5343
-53.4297
-53.6032
-54.0369
-54.7433
-55.7231
-56.9821
-58.5001
-60.2204
-62.0613
-63.9229
-65.6563
-67.1454
-56.1928
-58.7842
-60.5151
-61.5715
-62.3286
-63.0825
-63.9441
-64.9402
-66.0411
-67.1801
-68.2486
-69.0353
346.18
345.385
340.628
333.273
323.422
310.968
296.693
282.014
268.193
255.959
244.998
234.278
293.226
292.202
289.592
286.838
284.062
280.979
277.156
272.183
265.843
258.258
249.641
239.841
291.616
291.003
289.65
287.611
284.771
281.101
276.614
271.341
265.298
258.493
250.874
242.424
283.329
282.744
281.793
280.403
278.491
275.931
272.598
268.396
263.283
257.283
250.401
242.43
270.2
269.962
269.591
268.938
267.943
266.496
264.471
261.723
258.111
253.539
247.924
241.11
261.038
260.92
260.704
260.277
259.606
258.602
257.16
255.157
252.456
248.933
244.445
238.825
253.911
253.815
253.62
253.263
252.721
251.924
250.785
249.197
247.038
244.177
240.463
235.645
247.166
247.093
246.94
246.664
246.244
245.624
244.733
243.48
241.75
239.421
236.354
232.333
240.946
240.891
240.775
240.56
240.231
239.743
239.035
238.03
236.629
234.713
232.153
228.744
235.332
235.29
235.194
235.017
234.747
234.344
233.76
232.93
231.766
230.163
228.006
225.133
230.173
230.139
230.058
229.908
229.678
229.338
228.844
228.141
227.152
225.783
223.925
221.406
225.361
225.333
225.263
225.135
224.939
224.647
224.224
223.62
222.768
221.583
219.968
217.758
220.851
220.828
220.769
220.658
220.488
220.235
219.869
219.344
218.604
217.569
216.154
214.206
216.614
216.595
216.543
216.446
216.297
216.077
215.757
215.3
214.654
213.754
212.531
210.875
212.608
212.592
212.547
212.461
212.33
212.136
211.854
211.451
210.883
210.088
208.997
207.544
208.799
208.787
208.747
208.671
208.555
208.381
208.13
207.772
207.267
206.558
205.584
204.287
205.167
205.157
205.122
205.054
204.949
204.794
204.57
204.251
203.8
203.172
202.314
201.216
201.684
201.678
201.647
201.586
201.492
201.353
201.15
200.862
200.456
199.887
199.102
198.082
198.337
198.335
198.306
198.251
198.166
198.039
197.855
197.594
197.226
196.711
196.003
195.116
195.112
195.111
195.085
195.034
194.956
194.84
194.672
194.434
194.097
193.626
192.976
192.153
191.993
191.992
191.968
191.923
191.851
191.744
191.589
191.37
191.061
190.627
190.027
189.28
188.97
188.969
188.947
188.905
188.839
188.74
188.598
188.395
188.109
187.708
187.153
186.473
186.034
186.033
186.013
185.974
185.913
185.821
185.689
185.502
185.238
184.869
184.359
183.759
183.176
183.175
183.157
183.121
183.063
182.978
182.855
182.681
182.436
182.092
181.617
181.061
180.387
180.386
180.369
180.336
180.282
180.203
180.089
179.926
179.698
179.378
178.934
178.457
177.659
177.658
177.643
177.613
177.563
177.49
177.384
177.234
177.026
176.734
176.33
175.931
174.989
174.988
174.974
174.946
174.899
174.83
174.731
174.591
174.395
174.122
173.729
173.284
172.364
172.363
172.352
172.326
172.282
172.218
172.124
171.992
171.807
171.551
171.189
170.737
169.782
169.783
169.773
169.749
169.709
169.647
169.559
169.433
169.257
169.01
168.657
168.201
167.253
167.253
167.242
167.219
167.18
167.121
167.038
166.919
166.754
166.525
166.209
165.797
164.751
164.751
164.742
164.721
164.685
164.631
164.553
164.443
164.289
164.075
163.782
163.454
162.279
162.28
162.272
162.253
162.22
162.169
162.097
161.996
161.857
161.667
161.413
161.195
159.832
159.833
159.826
159.809
159.777
159.73
159.662
159.566
159.433
159.251
158.997
158.755
157.416
157.416
157.407
157.388
157.357
157.31
157.243
157.148
157.017
156.835
156.574
156.336
155.005
155.005
154.997
154.981
154.951
154.906
154.841
154.751
154.625
154.451
154.201
153.996
152.611
152.611
152.604
152.589
152.561
152.519
152.458
152.373
152.254
152.09
151.85
151.655
150.236
150.236
150.229
150.214
150.188
150.148
150.09
150.01
149.899
149.747
149.526
149.373
147.877
147.876
147.868
147.853
147.828
147.789
147.734
147.657
147.553
147.413
147.208
147.065
145.513
145.512
145.506
145.492
145.469
145.432
145.38
145.307
145.208
145.075
144.881
144.739
143.153
143.153
143.146
143.134
143.111
143.076
143.026
142.957
142.861
142.733
142.544
142.408
140.792
140.792
140.786
140.775
140.754
140.721
140.673
140.606
140.515
140.392
140.211
140.089
138.438
138.437
138.431
138.419
138.398
138.365
138.319
138.255
138.168
138.05
137.876
137.764
136.082
136.079
136.071
136.059
136.038
136.006
135.962
135.902
135.821
135.713
135.555
135.502
133.682
133.684
133.681
133.674
133.658
133.631
133.592
133.538
133.464
133.367
133.221
133.194
131.297
131.297
131.293
131.286
131.271
131.245
131.209
131.16
131.094
131.008
130.882
130.905
128.899
128.899
128.894
128.886
128.871
128.845
128.81
128.762
128.7
128.619
128.494
128.54
126.486
126.482
126.475
126.465
126.449
126.423
126.388
126.342
126.283
126.209
126.093
126.177
124.002
124.004
124.002
123.996
123.984
123.963
123.931
123.889
123.834
123.764
123.645
123.723
121.517
121.517
121.514
121.508
121.496
121.476
121.446
121.407
121.355
121.291
121.179
121.305
119.009
119.009
119.004
118.997
118.984
118.963
118.933
118.895
118.846
118.787
118.672
118.769
116.469
116.466
116.458
116.449
116.436
116.414
116.385
116.348
116.301
116.247
116.141
116.209
113.846
113.848
113.846
113.842
113.833
113.817
113.792
113.759
113.718
113.672
113.582
113.655
111.214
111.214
111.209
111.204
111.195
111.179
111.157
111.129
111.093
111.055
110.98
111.072
108.531
108.531
108.526
108.52
108.512
108.497
108.477
108.453
108.425
108.4
108.349
108.509
105.799
105.795
105.788
105.78
105.771
105.757
105.739
105.72
105.7
105.686
105.648
105.81
102.954
102.955
102.954
102.952
102.949
102.94
102.928
102.915
102.905
102.905
102.891
103.092
100.068
100.068
100.063
100.06
100.057
100.05
100.041
100.035
100.033
100.045
100.045
100.251
97.1039
97.1009
97.0948
97.09
97.0864
97.0801
97.0736
97.0722
97.0793
97.1064
97.1348
97.4179
94.0104
94.0115
94.0089
94.008
94.0087
94.0072
94.0066
94.0127
94.0303
94.0712
94.1102
94.3983
90.8241
90.8244
90.8212
90.8209
90.8237
90.8258
90.8309
90.8453
90.8755
90.9361
91.0049
91.3269
87.5267
87.5256
87.5212
87.5203
87.5235
87.5278
87.5377
87.5614
87.6065
87.6907
87.8042
88.2001
84.0813
84.0793
84.0744
84.0743
84.0804
84.0888
84.1055
84.1399
84.2008
84.3056
84.4461
84.94
80.45
80.4513
80.4507
80.4553
80.4675
80.4841
80.5116
80.5614
80.6457
80.7848
80.9757
81.6256
76.6586
76.6588
76.6569
76.6618
76.6769
76.6997
76.7379
76.8042
76.9138
77.0882
77.3009
77.9948
72.6521
72.6518
72.6501
72.6569
72.676
72.7064
72.7569
72.8431
72.9833
73.2067
73.4759
74.1598
68.3879
68.3868
68.3856
68.3954
68.422
68.4638
68.5328
68.6476
68.8305
69.122
69.4934
70.2091
63.7977
63.8006
63.8051
63.8231
63.862
63.9224
64.0184
64.1728
64.413
64.7891
65.2963
66.07
58.8671
58.8692
58.8738
58.8967
58.9472
59.0283
59.1579
59.3636
59.6773
60.1546
60.8123
61.6815
53.4878
53.4874
53.4944
53.5245
53.5923
53.7029
53.8791
54.1565
54.5743
55.1954
56.0624
57.1502
47.4759
47.4846
47.5045
47.5565
47.6589
47.8211
48.0734
48.461
49.0329
49.8618
51.0112
52.3831
40.7402
40.7526
40.7829
40.8603
41.0098
41.2479
41.6152
42.1666
42.9624
44.0829
45.6135
47.3506
32.9672
32.9775
33.0262
33.146
33.3767
33.7455
34.3043
35.1198
36.2557
37.7866
39.8348
42.1789
23.6277
23.6862
23.7781
24.0037
24.4124
25.039
25.9458
27.2042
28.8687
30.9787
33.6364
36.8688
11.6349
11.5324
11.8192
12.379
13.2586
14.4943
16.1296
18.2063
20.7421
23.7226
27.1857
31.3112
-5.63693
-4.79314
-3.55525
-2.00399
0.0249507
2.49285
5.39295
8.72026
12.4544
16.5495
20.9487
25.9986
126.351
14.0565
84.6058
57.907
-67.1728
37.6795
91.4148
-86.8212
70.5319
-87.8148
60.279
108.885
90.8615
52.8772
-73.2155
-22.5394
-69.3542
-86.6749
90.2926
71.7079
-48.6957
87.3842
64.3249
-60.0078
59.329
92.2215
-55.6774
128.456
-81.4735
90.2126
105.313
58.3549
49.4378
-12.3713
68.5978
69.3831
54.6677
49.8345
102.266
97.719
-46.0935
-83.384
-83.0636
86.7554
-84.2014
59.2771
69.6802
30.8386
138.63
-69.8115
57.3377
38.6929
-61.1874
-84.1201
211.669
-78.3409
90.3342
83.1815
89.4185
72.4014
32.1285
179.438
165.903
-48.4667
55.5909
-87.2532
75.026
82.1158
20.804
164.602
85.7046
23.5915
-81.6114
-26.1328
130.093
62.491
-81.4725
69.0717
-87.2033
46.7411
33.4861
86.8012
69.4878
74.4831
87.215
91.1986
84.6915
29.2953
83.6643
-26.6248
-64.6759
-85.2771
-85.3567
81.8916
97.1751
-25.4098
91.5806
88.9733
72.9282
66.98
72.0944
-72.6378
-87.1966
-57.7292
83.8595
70.572
93.8309
-42.5953
14.7912
92.9518
84.9125
85.2493
78.5121
52.2178
-64.3471
-76.2016
-57.2592
191.713
76.0064
63.0835
154.848
-86.7598
72.0098
167.296
86.1275
-2.07058
232.309
-28.8967
90.5579
91.5223
81.4925
-81.9592
-72.659
95.1755
111.624
127.738
174.06
85.8137
137.06
60.0587
19.0898
-82.4598
3.86094
85.0657
89.4208
80.4971
92.3653
97.4652
83.6636
-84.0443
-85.1405
137.325
75.2264
72.0245
-78.4337
-61.934
44.7255
83.595
77.0071
87.505
65.4642
-82.0786
90.9942
184.351
197.077
96.3623
78.9796
150.843
138.8
-17.3336
87.1893
-5.86254
-86.2222
-48.9099
70.972
105.417
89.943
-81.1467
70.4832
143.862
53.9573
-87.0611
85.7911
82.5018
132.507
-53.1911
70.2943
-81.4357
78.7325
90.375
77.3589
88.979
40.588
53.9957
84.4028
-31.5677
62.5787
-63.0359
-84.6385
-18.7748
71.0413
110.519
154.086
67.053
92.6811
52.6715
79.6391
-13.8852
68.9215
67.327
47.8041
-81.3517
-86.1544
145.362
-32.2801
84.6564
91.2306
87.9422
73.9717
-79.7663
-25.8277
98.6677
73.156
123.668
90.2427
85.5326
-87.4398
-85.6772
-17.2821
141.065
221.22
5.91603
65.668
-85.9247
20.9734
66.7935
143.896
182.443
204.877
96.6673
88.8687
90.2223
86.0914
81.7559
25.1262
101.642
60.9763
94.7002
-83.8705
128.864
81.8674
19.6436
-70.4994
118.251
-55.6611
63.0296
-86.5179
141.974
87.3107
115.381
-79.9296
74.3856
130.872
-11.6419
-66.5433
89.0385
70.4575
-61.9416
70.1127
-83.7414
97.034
99.7907
87.9762
58.5961
19.2281
86.6304
61.3655
60.9853
-27.0851
-81.8509
88.7076
83.8288
111.839
31.3768
121.792
-86.3461
131.475
109.957
65.1788
89.9015
-80.608
85.0005
63.6068
31.7596
122.156
-6.02412
76.6485
-82.0395
84.7539
91.075
-29.1254
107.632
-69.1035
198.307
96.1845
-86.3774
101.042
87.1407
87.2673
19.543
95.1623
-40.8686
48.9322
83.4799
98.483
191.967
91.0063
208.928
172.945
7.70406
-87.1201
-68.1231
68.9594
100.979
78.0286
-87.8945
19.3061
81.056
86.8261
96.6183
92.2017
89.2322
85.8393
63.4508
83.7026
66.2478
46.5102
89.2379
115.449
166.855
-43.491
124.275
147.36
53.8206
-78.4059
134.606
73.5452
75.4789
52.3846
57.2645
93.2393
-19.7253
191.781
85.3322
74.5237
-69.008
61.6164
84.3389
173.377
128.32
149.075
84.2798
59.0788
-50.0932
119.519
71.8018
96.6999
-39.4513
-33.9335
90.8991
113.89
54.7584
85.1065
34.3832
-84.0214
-86.2561
94.7441
-42.1178
72.4923
77.9711
85.8683
184.437
83.2678
-58.0042
142.977
-67.4339
14.707
63.8952
145.476
63.8363
92.7531
81.652
174.669
75.8845
-65.2298
-87.1311
89.9756
16.0593
24.5716
53.6144
113.497
76.6978
-79.8222
-68.9667
62.7758
224.811
-88.1458
7.89921
67.0625
-28.6186
77.3303
133.285
122.816
82.6168
-64.4188
171.803
86.145
138.632
50.0735
-86.5002
77.6497
76.3965
71.1554
-85.0825
-51.6455
134.676
-34.3113
67.4553
-38.3111
-51.9393
-81.9158
75.2738
-12.2911
96.5062
90.8538
-8.88426
97.3525
-5.94713
150.37
-70.8953
72.4723
-74.2538
-86.777
-15.2787
-67.2334
101.992
13.3883
87.0329
70.8816
-54.2801
119.893
68.3409
-74.8909
4.54119
-73.7631
154.554
112.235
62.9483
67.9566
91.1802
40.966
88.2514
-86.25
110.262
91.1852
-36.4135
59.2529
92.2468
95.7173
83.5091
-66.8782
118.579
228.583
181.983
66.8998
44.49
21.2789
156.759
72.3552
135.62
205.3
89.3081
78.6815
108.951
-85.9876
221.437
24.7873
95.4358
87.2591
86.1608
72.7562
233.683
125.226
88.7416
162.626
-56.9052
159.818
174.645
41.7738
-85.4321
112.255
32.5947
-74.1014
81.8044
176.264
67.5976
-49.1643
61.5873
-11.9024
80.8136
-12.7688
62.4374
81.2499
-86.6747
81.0962
126.947
148.068
38.5577
78.0748
107.831
82.8925
-15.6873
130.046
65.7882
138.917
98.5048
67.8687
79.0597
-74.8475
-80.6266
99.0977
48.5768
120.041
142.754
102.106
136.099
-63.486
49.0183
156.86
71.861
91.0631
57.679
76.8443
90.9076
73.4838
152.899
89.5395
87.9967
-41.5559
-83.4043
-87.6546
95.5746
41.8255
71.1845
137.289
18.2176
-86.7612
91.4671
-85.6422
61.8777
128.099
80.3579
114.821
96.8944
86.6687
-85.6955
48.9408
96.3179
38.7139
-29.6101
50.3362
27.2976
82.967
-81.5969
191.15
-45.0743
169.084
77.668
87.2751
-63.4551
-85.9041
44.7216
86.092
88.717
62.5569
78.076
75.7335
134.889
65.1534
162.949
69.2165
83.2574
95.4941
129.852
-2.06496
110.043
-7.35873
80.9268
88.9522
143.463
36.6386
87.8277
73.7131
51.6056
68.2183
86.4952
74.7319
84.404
41.4702
147.765
94.1882
89.6737
-18.1149
204.807
92.0901
-4.96096
-84.2521
82.1084
109.628
-84.5988
80.1148
-0.640669
14.3869
48.9739
83.3709
-84.9041
187.419
205.414
-71.1535
71.6859
149.764
-88.3436
-6.37648
84.8232
115.629
-85.6356
-36.1684
99.6722
79.0718
-84.1825
-3.44078
-42.9884
-74.5971
19.6696
94.122
-7.55827
-82.9154
156.607
50.0335
99.1946
-85.043
66.8494
-52.1551
28.5213
-66.949
125.327
20.2895
102.063
78.1753
168.397
95.8406
10.5709
84.8047
22.9125
-84.092
-71.2801
96.8498
120.778
116.215
95.9111
87.9691
73.9231
65.2641
131.099
97.8086
81.2114
48.8755
-87.2428
93.3608
-85.652
105.246
65.9989
-35.2011
-2.70772
13.3163
93.0405
90.2242
72.3364
-60.8187
67.1879
187.619
98.6748
-85.5341
31.8973
82.9872
-74.8155
-86.9717
69.9791
88.975
-7.50175
-86.0639
85.6088
-42.8686
91.8033
150.005
159.987
99.911
62.3534
67.5467
73.8854
77.0207
115.288
-85.4843
30.8947
104.812
-70.9785
83.2019
76.4222
63.8987
84.4263
-87.6903
88.0522
99.3027
158.451
6.09563
77.4557
71.2201
91.293
83.5927
78.0997
-75.4602
88.7839
94.5553
69.2857
11.1986
82.5365
69.8047
-79.3454
95.8553
115.746
26.2787
172
-76.6342
-88.5138
84.0365
-86.7292
78.21
42.5079
63.7007
158.935
71.0198
-66.6585
70.6987
86.184
65.1504
124.723
-86.5428
-76.8072
54.4962
-8.27304
22.7336
108.839
97.0291
98.3447
-57.5458
29.9631
75.6096
68.2753
160.136
-77.5402
59.0671
-72.1319
173.443
90.1696
-44.6127
-76.3617
79.3453
-54.8581
-64.3054
-67.4142
119.189
39.425
73.1479
75.1219
211.442
45.9123
69.241
35.6716
-77.4616
86.9773
89.3255
-68.5651
89.7176
157.248
-24.4924
221.543
90.349
-24.4325
68.018
91.4543
108.53
-87.3165
103.151
67.0062
71.3994
-16.3117
71.5516
-87.1984
16.3313
65.7397
-78.9125
107.738
-84.7976
-66.1718
75.7784
-73.8719
102.143
-69.5109
-85.3301
10.284
72.6246
-85.9341
-79.7022
91.047
-85.1008
90.4543
86.16
97.3797
30.1471
122.011
-74.7949
101.771
18.6312
196.436
76.6824
-19.8249
-84.743
110.21
72.3017
105.886
49.8174
-75.8442
89.3774
74.6841
-80.0547
-69.4639
42.4102
51.0906
43.8845
-14.1583
-84.8034
79.8134
-48.276
-21.4987
76.1203
119.598
-68.22
72.5144
72.2616
118.552
-65.6759
81.613
-87.5315
155.867
-87.2929
-33.004
83.6775
54.8417
-44.6648
72.2942
69.2056
100.447
106.968
-55.8314
-20.4594
-87.307
88.7658
38.9831
196.764
73.1172
-16.311
68.4785
138.208
-84.9155
-34.4906
66.6133
5.17438
-4.06158
-83.5365
145.713
90.9751
76.0132
90.0602
100.673
107.199
121.948
101.686
-66.7243
-70.0234
91.1019
8.1547
121.207
70.1202
112.872
91.4744
12.303
205.416
73.5597
209.161
89.8223
-82.3346
-9.44201
-75.0455
25.653
81.4699
89.7344
89.9086
109.371
-73.1656
91.2825
80.3598
19.5326
105.606
63.7557
100.3
-83.3426
98.4027
84.8408
105.918
-83.342
68.7296
-78.2038
-55.2185
175.658
106.971
145.166
-88.0824
126.19
111.063
-70.324
-84.6646
-55.0404
81.0499
86.4612
96.4697
9.62113
140.71
82.4767
-84.6093
134.235
169.864
50.8798
116.798
55.8617
68.4242
91.6509
167.46
-84.1313
136.108
62.672
-85.0178
22.7641
108.186
87.5843
14.1997
89.5278
96.069
-72.9284
-71.3638
-73.4722
68.9726
9.89449
-22.6113
-87.5749
-86.5452
41.067
-71.765
108.828
89.7009
112.71
72.9621
90.5381
85.1307
-11.2551
-49.7302
84.3289
206.227
-85.2617
98.3295
1.85954
113.535
102.59
91.082
83.4558
-79.2034
63.9797
74.4279
-24.6965
164.218
60.8074
43.0322
62.7916
101.962
70.0949
30.2484
82.0323
51.4549
95.2725
-86.9845
90.4713
-85.7321
-12.9629
88.6857
-74.3034
69.7152
82.3304
82.3914
76.2798
-50.3544
20.4149
153.38
-83.6708
76.9317
74.3367
170.225
75.2139
73.0252
-82.0415
-61.9474
2.09713
177.711
29.7814
75.8923
93.2693
80.8263
85.1547
-86.0682
-81.8613
-83.951
77.8914
89.6318
79.429
145.616
187.057
-82.2382
-11.8174
122.941
-0.0786271
91.8522
77.0499
-34.3137
-58.7876
43.3629
-86.6248
-52.8404
-58.6921
16.955
72.2156
151.701
78.6607
-54.82
83.3442
67.5578
-87.2765
-65.3225
71.2049
25.1849
45.1105
-77.5841
61.7746
65.6261
100.526
-8.92347
169.875
-14.1392
112.085
90.5718
58.5044
78.2594
-72.3855
86.6069
123.776
18.642
105.054
78.7838
77.6289
45.2734
163.431
-81.1896
-82.9295
106.84
153.164
48.2208
91.6309
-87.1231
-56.4589
-35.8021
-14.8049
-4.45736
-41.0184
66.007
93.0312
113.872
70.0119
-4.25406
101.583
24.6219
62.0975
53.1577
90.1184
-46.2586
-83.8363
59.6898
146.345
122.482
-77.0798
91.5133
-29.4372
92.2667
86.0975
-87.3615
-8.8667
-82.3105
82.6183
91.153
-69.0365
-70.0393
52.1945
96.1806
-84.417
76.005
-41.1658
-80.9867
83.6064
34.6887
39.2359
-83.4074
-61.5583
-13.0862
-86.2145
-81.9705
170.243
-71.9126
90.6765
38.3199
-83.6379
-64.8684
94.0156
224.535
-54.6021
108.351
-53.8617
-19.964
-70.3568
27.0069
108.494
-80.8579
-80.1704
197.626
-69.5982
107.347
20.1607
91.423
19.053
78.092
-18.8194
-3.16906
-78.8116
63.2618
79.0881
85.315
144.754
-69.0904
-83.6839
58.5153
49.4985
-71.4429
53.6703
126.294
111.923
43.6589
86.932
-86.659
-56.3395
101.064
115.709
61.3114
141.785
69.9476
86.4611
51.0222
19.359
-15.2923
88.4562
62.4536
76.0904
145.72
33.5328
-68.2968
12.0236
51.735
-16.212
-83.0197
-85.4092
75.1252
37.8031
71.2221
60.0779
-57.3443
82.9449
-82.8308
43.3398
86.7624
70.0065
89.5823
30.2215
79.4415
110.988
12.5245
97.3072
113.526
33.3446