/*--------------------------------*- C++ -*----------------------------------*\
| =========                 |                                                 |
| \\      /  F ield         | OpenFOAM: The Open Source CFD Toolbox           |
|  \\    /   O peration     | Version:  2.3.0                                 |
|   \\  /    A nd           | Web:      www.OpenFOAM.org                      |
|    \\/     M anipulation  |                                                 |
\*---------------------------------------------------------------------------*/
FoamFile
{
    version     2.0;
    format      ascii;
    class       surfaceScalarField;
    location    "7000";
    object      phi;
}
// * * * * * * * * * * * * * * * * * * * * * * * * * * * * * * * * * * * * * //

dimensions      [0 3 -1 0 0 0 0];

internalField   nonuniform List<scalar> 
12435
(
-0.019253
-0.0262073
0.0299018
0.0155582
-0.0222999
-0.0217734
0.0248203
-0.0247711
-0.0180799
0.020551
-0.0266545
-0.0149891
0.0168726
-0.0279142
-0.0123918
0.0136513
-0.0285525
-0.0101957
0.010834
-0.0286184
-0.00834116
0.00840705
-0.0282019
-0.00677654
0.00635994
-0.0274082
-0.00546697
0.00467316
-0.0263353
-0.00438128
0.00330828
-0.0250797
-0.00349156
0.00223587
-0.00276746
-0.0238826
0.00157028
-0.0165918
-0.0233485
0.013733
-0.018733
-0.0196322
-0.0202814
-0.0165315
-0.021329
-0.0139415
-0.0219358
-0.011785
-0.0221408
-0.00999068
-0.0219797
-0.00850228
-0.0214846
-0.00727166
-0.0206951
-0.00625649
-0.0196491
-0.00542736
-0.0183914
-0.00474919
-0.00420436
-0.0169546
-0.0144824
-0.0209882
0.0121221
-0.0161713
-0.0179432
-0.0172948
-0.0154081
-0.0179406
-0.0132957
-0.0181915
-0.0115341
-0.0181135
-0.0100687
-0.0177668
-0.00884901
-0.0172041
-0.00783439
-0.0164659
-0.00699467
-0.0155957
-0.00629761
-0.0146197
-0.00572515
-0.00525493
-0.0135692
-0.0126531
-0.0190033
0.0106682
-0.014047
-0.0165494
-0.0149483
-0.0145067
-0.0154433
-0.0128007
-0.0156008
-0.0113766
-0.0154822
-0.0101874
-0.0151376
-0.00919359
-0.0146098
-0.00836221
-0.0139369
-0.00766758
-0.0131468
-0.0070877
-0.0122686
-0.00660331
-0.0062012
-0.0113224
-0.0110967
-0.0173036
0.00939693
-0.0122738
-0.0153722
-0.0130218
-0.0137587
-0.0134158
-0.0124068
-0.0135181
-0.0112743
-0.0133849
-0.0103205
-0.0130596
-0.00951895
-0.0125802
-0.00884154
-0.0119761
-0.0082717
-0.0112754
-0.00778845
-0.0104968
-0.00738184
-0.00703897
-0.00965909
-0.00977321
-0.0158254
0.00829499
-0.0107955
-0.01435
-0.0114386
-0.0131156
-0.0117712
-0.0120742
-0.0118497
-0.0111958
-0.0117199
-0.0104503
-0.0114229
-0.00981589
-0.0109886
-0.00927586
-0.0104459
-0.00881443
-0.0098149
-0.00841943
-0.00911399
-0.00808275
-0.00779363
-0.00835933
-0.00864497
-0.0145233
0.00734287
-0.00954204
-0.0134529
-0.0101065
-0.0125511
-0.0103952
-0.0117855
-0.0104593
-0.0111317
-0.0103392
-0.0105704
-0.0100692
-0.0100859
-0.00967742
-0.00966763
-0.00918772
-0.00930413
-0.00861893
-0.00898823
-0.00798736
-0.00871433
-0.00847695
-0.00730404
-0.00767395
-0.0133636
0.00651432
-0.00847226
-0.0126546
-0.00897159
-0.0120518
-0.00922838
-0.0115287
-0.00928356
-0.0110765
-0.00917388
-0.0106801
-0.00892812
-0.0103317
-0.00857412
-0.0100216
-0.00813197
-0.00974628
-0.0076182
-0.009502
-0.00704593
-0.0092866
-0.00909502
-0.00642786
-0.00683075
-0.0123293
0.00579642
-0.00754641
-0.0119389
-0.00799539
-0.0116028
-0.00822352
-0.0113006
-0.00827243
-0.0110276
-0.00817324
-0.0107793
-0.00795309
-0.0105518
-0.00763189
-0.0103428
-0.00723091
-0.0101473
-0.0067648
-0.0099681
-0.00624802
-0.00980339
-0.00965677
-0.00568627
-0.00610056
-0.0114002
0.00517142
-0.00674812
-0.0112914
-0.00714785
-0.0112031
-0.00735254
-0.0110959
-0.00739626
-0.0109839
-0.0073078
-0.0108677
-0.00710943
-0.0107502
-0.00681801
-0.0106342
-0.00645328
-0.010512
-0.00603048
-0.0103909
-0.00555967
-0.0102742
-0.00504981
-0.0101666
-0.0210807
-0.00253485
-0.00026702
-0.0187124
-0.00275833
0.000389959
-0.016491
-0.00310706
0.000885675
-0.0143684
-0.00358708
0.00146456
-0.0123654
-0.00421023
0.00220719
-0.0105336
-0.00500688
0.00317512
-0.00894474
-0.00601215
0.00442324
-0.00768472
-0.00726961
0.00600959
-0.00683844
-0.00883627
0.00798999
-0.00648375
-0.0107805
0.0104258
-0.00669412
-0.0131874
0.0133978
-0.0161697
0.0170197
-0.00754407
-0.0154299
-0.0040595
-0.0139075
-0.00428079
-0.0124335
-0.00458106
-0.0110468
-0.00497378
-0.00977356
-0.00548346
-0.00864709
-0.00613335
-0.00770146
-0.00695778
-0.00697511
-0.00799596
-0.00651729
-0.00929409
-0.00638868
-0.0109091
-0.00666882
-0.0129072
-0.0153802
-0.00745831
-0.0124936
-0.00513505
-0.011435
-0.00533939
-0.0104061
-0.00561005
-0.00942243
-0.0059574
-0.00850507
-0.00640083
-0.00767743
-0.00696099
-0.00697375
-0.00766146
-0.00643649
-0.00853322
-0.00611853
-0.00961206
-0.00608233
-0.0109453
-0.00640243
-0.0125871
-0.014616
-0.00716661
-0.0103668
-0.00609057
-0.00945167
-0.00625456
-0.0085879
-0.00647382
-0.00778744
-0.00675786
-0.00706576
-0.00712251
-0.0064431
-0.00758366
-0.0059449
-0.00815966
-0.00560131
-0.00887681
-0.00545242
-0.00976095
-0.00554671
-0.010851
-0.00594619
-0.0121877
-0.0138341
-0.00672816
-0.00881711
-0.00693255
-0.00802108
-0.00705059
-0.00728049
-0.00721441
-0.00660458
-0.00743377
-0.00600761
-0.00771948
-0.00550785
-0.00808342
-0.00512686
-0.00854065
-0.0048927
-0.00911097
-0.00483757
-0.00981608
-0.00500598
-0.0106826
-0.00545012
-0.0117435
-0.013048
-0.00623622
-0.00760234
-0.00768954
-0.00689215
-0.00776079
-0.00623767
-0.00786888
-0.00564852
-0.00802292
-0.00513861
-0.00822938
-0.00472389
-0.00849815
-0.0044229
-0.00884164
-0.00426221
-0.00927166
-0.00427062
-0.00980767
-0.00448594
-0.0104673
-0.00495365
-0.0112758
-0.0122682
-0.00573346
-0.00662076
-0.00837282
-0.00598448
-0.00839707
-0.005401
-0.00845236
-0.00488095
-0.00854297
-0.00443706
-0.00867328
-0.00408277
-0.00885244
-0.00383848
-0.00908593
-0.00372531
-0.00938483
-0.00377235
-0.00976063
-0.00401219
-0.0102274
-0.00448497
-0.010803
-0.01151
-0.00524316
-0.00580968
-0.008991
-0.00523568
-0.00897106
-0.00471253
-0.00897551
-0.00424925
-0.00900625
-0.00385667
-0.00906587
-0.00355026
-0.00915884
-0.00334654
-0.00928965
-0.00326685
-0.00946452
-0.0033356
-0.00969188
-0.0035842
-0.00997882
-0.00404934
-0.0103379
-0.0107855
-0.00477379
-0.00512567
-0.0095516
-0.00460748
-0.00948924
-0.00413756
-0.00944543
-0.00372278
-0.00942103
-0.00337339
-0.00941526
-0.00310463
-0.0094276
-0.0029307
-0.00946359
-0.00287294
-0.00952227
-0.00295394
-0.00961088
-0.00320239
-0.00973038
-0.00365017
-0.00989013
-0.0100995
-0.00433617
-0.00454103
-0.0100604
-0.00407219
-0.00995808
-0.00364787
-0.00986975
-0.00327418
-0.00979472
-0.00296617
-0.00972327
-0.00272747
-0.00966629
-0.00257678
-0.00961428
-0.0025338
-0.00956525
-0.00262074
-0.00952394
-0.00286355
-0.00948757
-0.00329005
-0.00946363
-0.00393218
-0.00945739
0.00188088
0.00752183
-0.00824972
-0.00115299
0.00225196
0.00545738
-0.00582846
0.00241102
0.00397776
-0.00413682
0.00244458
0.00291349
-0.00294705
0.00240506
0.00214885
-0.00210932
0.00231794
0.0016073
-0.00152018
0.00218397
0.00124187
-0.0011079
0.0019795
0.00102969
-0.000825223
0.00165327
0.000971145
-0.00064491
0.00111849
0.00109354
-0.000558762
0.000226751
0.00145715
-0.000565404
0.00218262
-0.00131537
-0.000640499
0.00176171
0.00687739
-0.00111728
0.00210341
0.00511569
0.0022474
0.00383376
0.00226215
0.00289874
0.00218799
0.00222301
0.00204102
0.00175427
0.00181627
0.00146661
0.00149
0.00135596
0.00102509
0.00143605
0.000379399
0.00173923
-0.000478761
0.00231531
0.00320241
-0.00149855
0.00160487
0.00629681
-0.00102429
0.00190592
0.00481464
0.00202079
0.00371889
0.00200702
0.00291251
0.0018975
0.00233253
0.00170571
0.00194606
0.00143034
0.00174198
0.00106123
0.00172508
0.000583708
0.00191357
-1.73055e-05
0.00234025
-0.000746586
0.00304459
0.00403076
-0.00157494
0.00142984
0.00577962
-0.000912646
0.00169514
0.00454934
0.00178659
0.00362744
0.00175406
0.00294504
0.00162775
0.00245884
0.00142251
0.0021513
0.00114326
0.00202123
0.000788028
0.00208031
0.000349015
0.00235259
-0.00018413
0.00287339
-0.000821644
0.0036821
0.00477924
-0.00157013
0.0012597
0.00531918
-0.000799257
0.00149456
0.00431448
0.00156931
0.00355268
0.0015292
0.00298515
0.00140148
0.00258656
0.00120262
0.00235016
0.000940253
0.0022836
0.000614846
0.00240572
0.000220041
0.00274739
-0.000255979
0.00334941
-0.000826712
0.00425283
0.00546815
-0.00151562
0.00110477
0.00490353
-0.000689124
0.00131285
0.0041064
0.00137749
0.00348805
0.00133723
0.00302541
0.0012173
0.00270649
0.00103354
0.00253392
0.000793811
0.00252333
0.000499035
0.0027005
0.000143197
0.00310323
-0.000286069
0.00377868
-0.000807588
0.00477435
0.00610363
-0.00144307
0.00096978
0.00454624
-0.000612493
0.00115619
0.00391999
0.00121378
0.00343046
0.00117639
0.0030628
0.00106743
0.00281546
0.000900863
0.00270049
0.00068392
0.00274027
0.000417055
0.00296736
9.3867e-05
0.00342642
-0.000297116
0.00416966
-0.000775426
0.00525266
0.0066863
-0.0013581
0.000851218
0.00422107
-0.000526053
0.00101962
0.0037516
0.00107311
0.00337696
0.00104068
0.00309523
0.000943292
0.00291284
0.000794382
0.0028494
0.000599688
0.00293497
0.000358645
0.00320841
6.40486e-05
0.00372101
-0.000296124
0.00452983
-0.00073546
0.005692
0.00722783
-0.00127699
0.000743522
0.00392618
-0.000448631
0.000899683
0.00359543
0.000951828
0.00332482
0.000924302
0.00312276
0.000837461
0.00299968
0.000704308
0.00298255
0.000528655
0.00311062
0.000311034
0.00342603
4.07824e-05
0.00399127
-0.000292271
0.00486288
-0.000695659
0.00609539
0.00771822
-0.00118605
0.00065361
0.00367218
-0.000399607
0.000796117
0.00345293
0.000846935
0.003274
0.00082343
0.00314626
0.000746248
0.00307686
0.000628868
0.00309993
0.000472998
0.00326649
0.00027909
0.00361993
3.05284e-05
0.00423983
-0.000285386
0.0051788
-0.000674658
0.00648466
-0.00113587
0.00817943
-0.00212608
0.00365975
-0.00284903
-0.00324462
0.00504039
-0.00392185
-0.00433651
0.00610469
-0.00501281
-0.00528842
0.00718284
-0.00623094
-0.00604271
0.00839418
-0.00763988
-0.0065525
0.00977873
-0.00926895
-0.00676373
0.0113812
-0.0111699
-0.00663574
0.0132622
-0.0133902
-0.00610614
0.0154817
-0.0160113
-0.00511173
0.0181145
-0.0191089
-0.00356933
0.0212458
-0.0227882
0.0249696
-0.0271585
-0.00138039
-0.00239369
0.00455489
-0.00342766
0.00607436
-0.00441664
0.00709367
-0.00525691
0.00802312
-0.00589893
0.00903619
-0.00631206
0.0101919
-0.00645992
0.011529
-0.00629844
0.0131007
-0.00578109
0.0149643
-0.00484502
0.0171784
-0.00341172
0.0198125
0.0229546
-0.00139671
-0.00245502
0.00543497
-0.00338917
0.0070085
-0.0042754
0.0079799
-0.00501471
0.00876243
-0.00558045
0.00960193
-0.0059361
0.0105475
-0.00605408
0.011647
-0.0058948
0.0129415
-0.00541187
0.0144814
-0.00454563
0.0163122
-0.00322936
0.0184962
0.0211002
-0.00137498
-0.00240743
0.00627227
-0.00325686
0.00785794
-0.00404948
0.00877252
-0.00470901
0.00942195
-0.00520624
0.0100992
-0.00552018
0.0108614
-0.00562016
0.011747
-0.00547081
0.0127921
-0.00502453
0.0140351
-0.00423368
0.0155213
-0.00303101
0.0172936
0.019407
-0.00133781
-0.00229573
0.00705238
-0.0030738
0.00863601
-0.003784
0.00948273
-0.00437347
0.0100114
-0.00481903
0.0105447
-0.00509752
0.0111399
-0.00518395
0.0118334
-0.0050461
0.0126543
-0.00464173
0.0136308
-0.00392199
0.0148016
-0.00282467
0.0161963
0.0178685
-0.00128618
-0.0021607
0.00777001
-0.0028693
0.00934462
-0.00350934
0.0101228
-0.00403906
0.0105411
-0.00443831
0.010944
-0.00468858
0.0113902
-0.00476771
0.0119125
-0.00464119
0.0125277
-0.00427361
0.0132632
-0.00361777
0.0141458
-0.00262303
0.0152015
0.0164671
-0.00122162
-0.00201887
0.00843079
-0.00266046
0.0099862
-0.00323855
0.0107009
-0.00371241
0.011015
-0.00407152
0.0113031
-0.00429874
0.0116174
-0.00436744
0.0119812
-0.00425238
0.0124127
-0.00391998
0.0129308
-0.00332647
0.0135523
-0.00242222
0.0142973
0.0151914
-0.00114655
-0.00188044
0.00903423
-0.00246274
0.0105685
-0.00297816
0.0112163
-0.00340498
0.0114418
-0.00372874
0.0116269
-0.0039332
0.0118219
-0.00399552
0.0120435
-0.00389201
0.0123092
-0.00359063
0.0126294
-0.003051
0.0130126
-0.00222936
0.0134756
0.0140348
-0.00107274
-0.00173796
0.00958614
-0.0022653
0.0110958
-0.00272832
0.0116793
-0.00311344
0.0118269
-0.00340594
0.0119194
-0.00359125
0.0120072
-0.00364975
0.0121021
-0.0035576
0.012217
-0.00328244
0.0123542
-0.00279442
0.0125246
-0.00205135
0.0127326
0.0129829
-0.000999417
-0.00163141
0.0100817
-0.00209549
0.0115599
-0.00250078
0.0120846
-0.00284494
0.0121711
-0.00310794
0.0121824
-0.00327526
0.0121745
-0.00332747
0.0121543
-0.00324415
0.0121337
-0.00299948
0.0121096
-0.00255652
0.0120817
-0.00188118
0.0120572
-0.000926571
0.0120283
0.00323342
-0.00166323
0.0062086
-0.000739692
0.00915003
0.000366937
0.0119803
0.00184285
0.0145073
0.00383301
0.016532
0.00638229
0.0178862
0.0094798
0.0184734
0.0130641
0.0183068
0.0170392
0.0175314
0.0213264
0.0163927
0.025959
0.0311423
0.0151523
5.75863e-05
-0.00172078
0.00101164
-0.00169344
0.0026199
-0.00124132
0.0047723
-0.000309548
0.00737357
0.00123176
0.0101735
0.00358229
0.0127977
0.0068556
0.0148518
0.01101
0.0160457
0.0158453
0.0163026
0.0210695
0.0157899
0.0264717
0.032079
0.0148531
-6.87573e-05
-0.00165191
-5.02605e-05
-0.00171167
0.00025584
-0.00154746
0.00107431
-0.0011279
0.00258968
-0.000283661
0.00484392
0.00132806
0.00763365
0.00406584
0.0105068
0.00813689
0.0128906
0.0134614
0.0143285
0.0196316
0.0146946
0.0261056
0.0325389
0.0142348
1.34195e-05
-0.00166527
0.00010958
-0.00180766
0.000311831
-0.00174971
0.000686279
-0.00150224
0.00134869
-0.00094609
0.00252149
0.000155304
0.00440214
0.00218517
0.00692878
0.00561026
0.00966332
0.0107268
0.0119323
0.0173627
0.0132035
0.0248343
0.0323455
0.0133968
5.18166e-06
-0.00167032
3.66203e-05
-0.00183899
0.000128019
-0.00184105
0.000317843
-0.00169198
0.000678515
-0.00130673
0.00134685
-0.000512981
0.00252868
0.00100334
0.00440136
0.00373759
0.0068843
0.00824391
0.00947245
0.0147745
0.0114342
0.0228726
0.0315118
0.012268
-5.54843e-06
-0.00166476
1.84777e-05
-0.00186298
8.60049e-05
-0.00190857
0.000219394
-0.00182533
0.000457706
-0.00154503
0.000877545
-0.000932789
0.00161585
0.000265056
0.00288254
0.00247091
0.00483351
0.00629295
0.00729259
0.0123155
0.00962755
0.0205376
0.0300335
0.0111058
-6.48135e-06
-0.00165824
4.5302e-06
-0.00187397
4.43494e-05
-0.00194836
0.000129228
-0.00191019
0.000286786
-0.00170258
0.000569193
-0.00121518
0.00107291
-0.000238653
0.00195512
0.00158871
0.00341521
0.00483287
0.00552046
0.0102102
0.00790418
0.0181539
0.0281665
0.00977118
-1.00547e-05
-0.00164819
-6.36809e-06
-0.00187765
1.90302e-05
-0.00197377
7.86463e-05
-0.0019698
0.000191023
-0.00181495
0.000392158
-0.0014163
0.000750162
-0.000596651
0.00138231
0.000956568
0.00246638
0.00374882
0.00417118
0.00850542
0.00639201
0.015933
0.0260111
0.00854743
-1.20309e-05
-0.00163614
-1.47663e-05
-0.00187491
-1.65615e-06
-0.00198687
3.68726e-05
-0.00200833
0.000115642
-0.00189372
0.000260579
-0.00156124
0.000522647
-0.000858716
0.000991031
0.000488189
0.00180818
0.00293167
0.003156
0.0071576
0.00508988
0.0139992
0.0238749
0.00722613
-1.45678e-05
-0.00162158
-2.30256e-05
-0.00186645
-1.90784e-05
-0.00199082
4.36938e-06
-0.00203178
5.87877e-05
-0.00194813
0.000164109
-0.00166656
0.000358255
-0.00105286
0.000710583
0.000135863
0.00133549
0.00230677
0.00239678
0.00609631
0.00402652
0.0123694
0.0218281
0.00607326
-1.68216e-05
-0.00160475
-2.97581e-05
-0.00185352
-3.4039e-05
-0.00198654
-2.30773e-05
-0.00204274
1.21654e-05
-0.00198338
8.70841e-05
-0.00174148
0.000231327
-0.0011971
0.000499749
-0.000132557
0.000984886
0.00182163
0.00182785
0.00525335
0.00318666
0.0110106
0.0199766
0.00503816
-1.92912e-05
-0.00158546
-3.66252e-05
-0.00183618
-4.74398e-05
-0.00197572
-4.69903e-05
-0.00204319
-2.73586e-05
-0.00200301
2.36929e-05
-0.00179253
0.0001295
-0.00130291
0.000334196
-0.000337253
0.000713497
0.00144233
0.00138681
0.00458004
0.00250883
0.0098886
0.0183375
0.004148
-2.12556e-05
-0.00156421
-4.21674e-05
-0.00181527
-5.88623e-05
-0.00195903
-6.69432e-05
-0.00203511
-5.9977e-05
-0.00200998
-2.80591e-05
-0.00182445
4.76634e-05
-0.00137863
0.000203352
-0.000492942
0.000502024
0.00114366
0.00104562
0.00403644
0.00197837
0.00895585
0.016899
0.0034168
-2.30918e-05
-0.00154112
-4.70269e-05
-0.00179134
-6.82839e-05
-0.00193777
-8.33608e-05
-0.00202003
-8.68092e-05
-0.00200653
-7.01521e-05
-0.0018411
-1.80568e-05
-0.00143073
9.92437e-05
-0.000610243
0.000334943
0.000907959
0.000776627
0.00359476
0.00155417
0.0081783
0.01566
0.00279319
-2.43462e-05
-0.00151677
-5.06336e-05
-0.00176505
-7.57045e-05
-0.0019127
-9.62749e-05
-0.00199946
-0.000107699
-0.0019951
-0.00010288
-0.00184592
-6.88377e-05
-0.00146477
1.96053e-05
-0.000698686
0.000208216
0.000719349
0.000573682
0.00322929
0.0012343
0.00751768
0.0145525
0.00234181
-2.55522e-05
-0.00149122
-5.39159e-05
-0.00173669
-8.20766e-05
-0.00188454
-0.000107434
-0.0019741
-0.000125876
-0.00197666
-0.000131262
-0.00184054
-0.000112558
-0.00148348
-4.84562e-05
-0.000762789
0.000100251
0.000570641
0.000400306
0.00292924
0.000956805
0.00696118
0.0136108
0.00189846
-2.66626e-05
-0.00146456
-5.67826e-05
-0.00170657
-8.77558e-05
-0.00185357
-0.000117158
-0.0019447
-0.000141654
-0.00195217
-0.0001557
-0.00182649
-0.000150188
-0.00148899
-0.000106959
-0.000806019
7.74546e-06
0.000455936
0.000251436
0.00268554
0.000715014
0.0064976
0.0127995
0.00152636
-2.73415e-05
-0.00143722
-5.88061e-05
-0.0016751
-9.18576e-05
-0.00182052
-0.000124523
-0.00191204
-0.000153621
-0.00192307
-0.000174557
-0.00180556
-0.000179245
-0.0014843
-0.000151869
-0.000833396
-6.27081e-05
0.000366776
0.00013983
0.00248301
0.000539513
0.00609792
0.0120769
0.00126214
-2.80491e-05
-0.00140917
-6.06763e-05
-0.00164247
-9.55842e-05
-0.00178561
-0.000131034
-0.00187659
-0.000164431
-0.00188967
-0.000191545
-0.00177844
-0.000205427
-0.00147042
-0.000192586
-0.000846237
-0.000127074
0.000301263
3.63694e-05
0.00231956
0.00037154
0.00576275
0.011475
0.000973387
-2.83964e-05
-0.00138077
-6.17667e-05
-0.0016091
-9.79833e-05
-0.00174939
-0.000135511
-0.00183906
-0.000172015
-0.00185317
-0.000203861
-0.0017466
-0.000224879
-0.0014494
-0.000223125
-0.000847991
-0.000175521
0.000253659
-4.14471e-05
0.00218549
0.000246328
0.00547498
0.0109213
0.000800077
-2.86637e-05
-0.00135211
-6.26277e-05
-0.00157514
-9.98768e-05
-0.00171214
-0.000139107
-0.00179983
-0.000178292
-0.00181399
-0.000214209
-0.00171068
-0.000241355
-0.00142225
-0.00024928
-0.000840066
-0.000217578
0.000221957
-0.000109633
0.00207754
0.000135603
0.00522974
0.010451
0.00060588
-2.86431e-05
-0.00132347
-6.28191e-05
-0.00154096
-0.000100686
-0.00167428
-0.000141083
-0.00175943
-0.000182235
-0.00177283
-0.000221193
-0.00167172
-0.000253077
-0.00139037
-0.00026844
-0.000824703
-0.000248752
0.000202268
-0.00016076
0.00198955
5.13803e-05
0.0050176
0.0100165
0.000485847
-2.87088e-05
-0.00129476
-6.31664e-05
-0.0015065
-0.000101585
-0.00163586
-0.000143035
-0.00171798
-0.000186049
-0.00172982
-0.000228142
-0.00162963
-0.000265076
-0.00135344
-0.000288717
-0.000801063
-0.000283131
0.000196683
-0.000219204
0.00192562
-4.83831e-05
0.00484678
0.00967614
0.000291986
-2.84233e-05
-0.00126634
-6.27331e-05
-0.00147219
-0.000101174
-0.00159742
-0.000142912
-0.00167624
-0.000186673
-0.00168606
-0.000230298
-0.001586
-0.000270011
-0.00131372
-0.000298631
-0.000772443
-0.00030166
0.000199712
-0.000252483
0.00187645
-0.000106361
0.00470065
0.00935919
0.000210588
-2.80968e-05
-0.00123824
-6.22296e-05
-0.00143806
-0.000100634
-0.00155901
-0.000142432
-0.00163445
-0.000186482
-0.00164201
-0.000230782
-0.0015417
-0.000271932
-0.00127257
-0.000303317
-0.000741058
-0.000311669
0.000208064
-0.000271994
0.00183677
-0.00014097
0.00456963
0.00906367
0.000154552
-2.81532e-05
-0.00121009
-6.24951e-05
-0.00140372
-0.000101291
-0.00152022
-0.000143735
-0.001592
-0.000188673
-0.00159707
-0.00023429
-0.00149609
-0.000277462
-0.0012294
-0.000312336
-0.000706184
-0.000326992
0.00022272
-0.00029871
0.00180849
-0.000187869
0.00445879
0.00881413
6.16715e-05
-2.82682e-05
-0.00118182
-6.3264e-05
-0.00136872
-0.000102996
-0.00148049
-0.000146645
-0.00154835
-0.000193309
-0.00155041
-0.00024113
-0.00144827
-0.00028724
-0.00118329
-0.000326228
-0.000667196
-0.00034739
0.000243882
-0.000330654
0.00179175
-0.000241071
0.00436921
0.00857503
-1.97019e-06
-2.94627e-05
-0.00115236
-6.56047e-05
-0.00133258
-0.000107012
-0.00143908
-0.000153078
-0.00150229
-0.000202845
-0.00150064
-0.000255126
-0.00139598
-0.000307484
-0.00113093
-0.00035573
-0.00061895
-0.000391247
0.000279399
-0.00039773
0.00179824
-0.000349751
0.00432123
0.00847287
-0.000247594
-2.97442e-05
-0.00112261
-6.65337e-05
-0.00129579
-0.000108612
-0.001397
-0.000155711
-0.00145519
-0.000207182
-0.00144917
-0.000261643
-0.00134152
-0.000316979
-0.0010756
-0.000369042
-0.000566887
-0.000409443
0.0003198
-0.000422174
0.00181097
-0.00037653
0.00427558
0.00827206
-0.000175719
-3.02037e-05
-0.00109241
-6.7463e-05
-0.00125853
-0.000110488
-0.00135398
-0.000158751
-0.00140692
-0.00021175
-0.00139617
-0.000268621
-0.00128465
-0.000327388
-0.00101683
-0.000384533
-0.000509742
-0.000432665
0.000367931
-0.000456734
0.00183504
-0.000430857
0.00424971
0.00818177
-0.000340561
-2.99823e-05
-0.00106243
-6.71453e-05
-0.00122137
-0.000109815
-0.00131131
-0.000157988
-0.00135875
-0.000211123
-0.00134304
-0.000268108
-0.00122767
-0.000327151
-0.000957788
-0.000384598
-0.000452294
-0.000432879
0.000416212
-0.000457157
0.00185931
-0.000430098
0.00422265
0.00803307
-0.000281404
-2.99783e-05
-0.00103245
-6.70687e-05
-0.00118428
-0.000110131
-0.00126824
-0.000158553
-0.00131033
-0.000212154
-0.00128943
-0.000270076
-0.00116974
-0.000330564
-0.0008973
-0.000390424
-0.000392434
-0.000443086
0.000468874
-0.000475109
0.00189134
-0.00046328
0.00421082
0.00797045
-0.000400664
-2.97678e-05
-0.00100268
-6.67344e-05
-0.00114731
-0.000109437
-0.00122554
-0.000157841
-0.00126192
-0.000211413
-0.00123586
-0.000269485
-0.00111167
-0.000330374
-0.00083641
-0.000390945
-0.000331864
-0.000444602
0.000522532
-0.000478438
0.00192517
-0.000468536
0.00420092
0.00785745
-0.000355534
-2.93219e-05
-0.000973357
-6.59243e-05
-0.00111071
-0.000108417
-0.00118305
-0.000156468
-0.00121387
-0.000209901
-0.00118243
-0.000267733
-0.00105384
-0.000328386
-0.000775757
-0.000388617
-0.000271633
-0.000441829
0.000575744
-0.00047426
0.00195761
-0.000458689
0.00418535
0.00773585
-0.000337085
-2.9102e-05
-0.000944256
-6.5407e-05
-0.00107441
-0.000107791
-0.00114067
-0.000156107
-0.00116556
-0.000209992
-0.00112854
-0.000268858
-0.000994972
-0.000331165
-0.00071345
-0.000394101
-0.000208696
-0.000451978
0.000633621
-0.000493153
0.00199878
-0.000496969
0.00418916
0.00768195
-0.000443074
-2.88586e-05
-0.000915396
-6.48441e-05
-0.00103842
-0.000106758
-0.00109875
-0.000154751
-0.00111756
-0.000208806
-0.00107449
-0.000268262
-0.000935515
-0.000331995
-0.000649717
-0.000397593
-0.000143098
-0.00046015
0.000696178
-0.000509861
0.00204849
-0.000528092
0.00420739
0.00763621
-0.00048235
-2.78187e-05
-0.000887578
-6.25932e-05
-0.00100364
-0.000103426
-0.00105792
-0.00015023
-0.00107076
-0.000202896
-0.00102182
-0.000261133
-0.000877278
-0.000323684
-0.000587166
-0.000388104
-7.86767e-05
-0.000449442
0.000757516
-0.000497351
0.0020964
-0.000512118
0.00422216
0.00756457
-0.000440475
-2.71077e-05
-0.00086047
-6.09879e-05
-0.000969764
-0.000100502
-0.0010184
-0.000146002
-0.00102526
-0.000197493
-0.000970331
-0.000254547
-0.000820222
-0.000316229
-0.000525483
-0.000380379
-1.45266e-05
-0.000442377
0.000819515
-0.000492773
0.0021468
-0.000514827
0.00424421
0.00755838
-0.000508636
-2.59106e-05
-0.000834561
-5.8466e-05
-0.000937209
-9.6674e-05
-0.000980194
-0.00014042
-0.000981508
-0.000189906
-0.000920843
-0.000244868
-0.000765259
-0.000304333
-0.000466017
-0.000366182
4.73228e-05
-0.000426061
0.000879395
-0.000474874
0.00219561
-0.000494329
0.00426367
0.00749613
-0.000432083
-2.52478e-05
-0.000809314
-5.68958e-05
-0.00090556
-9.38933e-05
-0.000943194
-0.000136451
-0.000938947
-0.000184507
-0.000872786
-0.000237947
-0.000711817
-0.000295905
-0.000408057
-0.000356596
0.000108014
-0.000416134
0.000938934
-0.000466737
0.00224622
-0.000494194
0.00429113
0.00748891
-0.000486971
-2.48425e-05
-0.000784474
-5.59677e-05
-0.000874435
-9.24213e-05
-0.000906738
-0.000134154
-0.000897211
-0.000181393
-0.000825545
-0.000233904
-0.000659304
-0.000291129
-0.000350831
-0.000351509
0.000168395
-0.000411813
0.000999239
-0.000465495
0.0022999
-0.000500728
0.00432636
0.00748587
-0.000497685
-2.44539e-05
-0.000760022
-5.52056e-05
-0.000843683
-9.12598e-05
-0.000870682
-0.000132628
-0.000855838
-0.000179286
-0.000778885
-0.000231147
-0.000607441
-0.000287589
-0.000294387
-0.000347199
0.000228006
-0.000406893
0.00105893
-0.000460071
0.00235308
-0.00049352
0.00435981
0.00746861
-0.000476267
-2.45189e-05
-0.000735505
-5.53647e-05
-0.000812835
-9.13986e-05
-0.000834645
-0.000132893
-0.000814339
-0.000179886
-0.000731891
-0.000232185
-0.000555139
-0.000289332
-0.000237239
-0.000350149
0.000288823
-0.000412087
0.00112087
-0.000469476
0.00241047
-0.000511879
0.00440221
0.00748923
-0.000532491
-2.44226e-05
-0.000711083
-5.50837e-05
-0.000782171
-9.11949e-05
-0.000798532
-0.000132668
-0.000772862
-0.000179756
-0.000684801
-0.000232405
-0.000502488
-0.000290168
-0.000179475
-0.000351971
0.000350626
-0.000415544
0.00118445
-0.00047577
0.00247069
-0.000521123
0.00444756
0.0074907
-0.000522596
-2.3837e-05
-0.000687243
-5.39118e-05
-0.000752092
-8.91794e-05
-0.000763263
-0.00012999
-0.000732048
-0.000176348
-0.000638443
-0.000228235
-0.000450599
-0.000285122
-0.000122588
-0.000345856
0.000411361
-0.000407797
0.00124639
-0.000465577
0.00252847
-0.000508069
0.00449006
0.00748438
-0.000501752
-2.33961e-05
-0.000663847
-5.28773e-05
-0.000722606
-8.76116e-05
-0.000728528
-0.000127672
-0.000691986
-0.000173414
-0.000592701
-0.000224789
-0.000399223
-0.00028142
-6.59574e-05
-0.000342263
0.000472204
-0.000405283
0.00130941
-0.000465865
0.00258906
-0.000516814
0.004541
0.00754428
-0.000576712
-2.24094e-05
-0.000641431
-5.06248e-05
-0.000694384
-8.38412e-05
-0.000695312
-0.000122223
-0.000653602
-0.000165914
-0.000549011
-0.000214925
-0.000350211
-0.000268783
-1.21008e-05
-0.000326119
0.00052954
-0.000383978
0.00136727
-0.000436519
0.0026416
-0.000470371
0.00457486
0.00750731
-0.000433397
-2.16465e-05
-0.000619784
-4.90772e-05
-0.00066695
-8.12301e-05
-0.000663161
-0.000118349
-0.000616483
-0.00016063
-0.000506732
-0.000207969
-0.000302873
-0.000259928
3.98575e-05
-0.000315289
0.000584901
-0.000371433
0.00142341
-0.000422628
0.00269279
-0.000458203
0.00461043
0.00752108
-0.000471974
-2.11831e-05
-0.000598594
-4.80559e-05
-0.000640071
-7.96942e-05
-0.000631523
-0.000116188
-0.00057999
-0.000157709
-0.000465212
-0.000204343
-0.000256241
-0.00025573
9.12437e-05
-0.000310905
0.000640076
-0.000367858
0.00148036
-0.000422471
0.0027474
-0.000467057
0.00465502
0.00754113
-0.00048711
-2.07675e-05
-0.000577826
-4.72099e-05
-0.000613626
-7.81809e-05
-0.000600555
-0.000113984
-0.000544188
-0.00015477
-0.000424429
-0.000200545
-0.000210467
-0.000251035
0.000141732
-0.000305338
0.000694378
-0.000361416
0.00153644
-0.000415092
0.00280108
-0.000457692
0.00469762
0.00755119
-0.000467753
-2.04451e-05
-0.000557375
-4.65101e-05
-0.000587557
-7.72373e-05
-0.00056983
-0.000112655
-0.000508773
-0.000153053
-0.000384033
-0.00019848
-0.000165043
-0.000248678
0.000191929
-0.000302891
0.000748589
-0.000359388
0.00159293
-0.000414245
0.00285594
-0.000460361
0.00474373
0.00758619
-0.000495363
-2.02227e-05
-0.000537153
-4.60821e-05
-0.000561699
-7.63401e-05
-0.000539575
-0.000111304
-0.000473813
-0.000151157
-0.000344183
-0.00019603
-0.000120172
-0.000245688
0.000241586
-0.00029935
0.00080225
-0.000355209
0.00164879
-0.000409521
0.00291025
-0.000452979
0.00478719
0.0075926
-0.000459384
-1.96073e-05
-0.000517543
-4.49296e-05
-0.000536376
-7.47149e-05
-0.000509792
-0.000109044
-0.000439487
-0.000148161
-0.000305068
-0.000192139
-7.61974e-05
-0.000240787
0.000290233
-0.000293283
0.000854744
-0.000347916
0.00170343
-0.000400706
0.00296304
-0.000443795
0.00483028
0.00760084
-0.000452035
-1.9828e-05
-0.000497716
-4.52818e-05
-0.000510925
-7.5248e-05
-0.000479829
-0.000109924
-0.000404816
-0.000149542
-0.000265452
-0.000194264
-3.14778e-05
-0.000244055
0.000340023
-0.00029872
0.000909408
-0.000357467
0.00176217
-0.000418895
0.00302447
-0.000482017
0.0048934
0.00769949
-0.000580669
-1.93278e-05
-0.00047839
-4.42246e-05
-0.000486032
-7.34287e-05
-0.000450627
-0.000107284
-0.000370964
-0.000146011
-0.000226726
-0.000189747
1.22555e-05
-0.000238316
0.00038859
-0.000291029
0.000962121
-0.000346397
0.00181754
-0.000401106
0.00307917
-0.000446244
0.00493854
0.00768206
-0.000428815
-1.88028e-05
-0.000459588
-4.30194e-05
-0.000461818
-7.15396e-05
-0.000422107
-0.000104476
-0.00033803
-0.000142098
-0.000189106
-0.0001845
5.46565e-05
-0.000231495
0.000435585
-0.000282342
0.00101297
-0.000335204
0.0018704
-0.000385807
0.00312978
-0.0004258
0.00497853
0.00771044
-0.000454178
-1.85151e-05
-0.000441076
-4.23505e-05
-0.000437987
-7.02877e-05
-0.000394171
-0.000102653
-0.000305667
-0.000139651
-0.000152109
-0.000181416
9.64207e-05
-0.000227792
0.00048196
-0.000278164
0.00106334
-0.000331176
0.00192341
-0.000384152
0.00318275
-0.000432165
0.00502654
0.00774493
-0.000466657
-1.8289e-05
-0.000422788
-4.1824e-05
-0.000414453
-6.94554e-05
-0.00036654
-0.000101359
-0.000273765
-0.000137847
-0.000115621
-0.000179055
0.000137628
-0.000224923
0.000527828
-0.00027494
0.00111335
-0.000327946
0.00197642
-0.000381367
0.00323617
-0.000430208
0.00507538
0.00778086
-0.000466134
-1.82532e-05
-0.000404538
-4.16294e-05
-0.000391078
-6.89877e-05
-0.000339183
-0.000100587
-0.000242166
-0.000136669
-7.95406e-05
-0.000177403
0.000178361
-0.00022271
0.000573135
-0.000272127
0.00116277
-0.000324269
0.00202856
-0.000376531
0.00328843
-0.000422943
0.0051218
0.0078053
-0.000447381
-1.84084e-05
-0.000386129
-4.18615e-05
-0.000367626
-6.93199e-05
-0.000311725
-0.000101008
-0.000210478
-0.00013717
-4.33789e-05
-0.000178004
0.000219194
-0.000223439
0.00061857
-0.000273098
0.00121243
-0.000325902
0.00208136
-0.000379379
0.00334191
-0.00042901
0.00517143
0.00784925
-0.000472969
-1.88019e-05