/*--------------------------------*- C++ -*----------------------------------*\
| =========                 |                                                 |
| \\      /  F ield         | OpenFOAM: The Open Source CFD Toolbox           |
|  \\    /   O peration     | Version:  2.3.0                                 |
|   \\  /    A nd           | Web:      www.OpenFOAM.org                      |
|    \\/     M anipulation  |                                                 |
\*---------------------------------------------------------------------------*/
FoamFile
{
    version     2.0;
    format      ascii;
    class       volScalarField;
    location    "3000";
    object      nut;
}
// * * * * * * * * * * * * * * * * * * * * * * * * * * * * * * * * * * * * * //

dimensions      [0 2 -1 0 0 0 0];

internalField   nonuniform List<scalar> 
39608
(
0.0500132
0.0483833
0.0467698
0.0451757
0.0436032
0.0420529
0.0405265
0.039025
0.03755
0.0361022
0.034683
0.0332938
0.0319364
0.0306141
0.0293288
0.028083
0.0268765
0.0257133
0.0245966
0.0235241
0.0224786
0.0214502
0.0204381
0.019447
0.0184793
0.0175387
0.0166249
0.0157396
0.0148817
0.01405
0.0132434
0.012459
0.0116941
0.010946
0.0102106
0.0094849
0.00876605
0.0080517
0.0073411
0.00663681
0.00594446
0.00529515
0.00486628
0.0519942
0.0505607
0.0491419
0.0477386
0.0463519
0.0449821
0.043631
0.0422988
0.0409858
0.0396932
0.0384207
0.0371696
0.0359399
0.0347317
0.0335466
0.0323834
0.0312439
0.0301278
0.0290356
0.0279673
0.0269221
0.0258979
0.0248944
0.0239132
0.0229552
0.0220217
0.0211151
0.0202364
0.0193889
0.0185734
0.0177941
0.0170545
0.0163581
0.0157104
0.0151181
0.0145895
0.0141335
0.0137614
0.013486
0.0133195
0.0132776
0.0133736
0.0136186
0.0537908
0.0525252
0.0512715
0.0500297
0.0488005
0.0475848
0.0463827
0.0451947
0.0440215
0.0428635
0.0417213
0.040595
0.0394848
0.0383907
0.0373139
0.0362532
0.0352102
0.0341847
0.0331776
0.0321884
0.0312184
0.0302679
0.0293368
0.028427
0.0275388
0.0266752
0.0258373
0.0250273
0.0242483
0.0235037
0.0227958
0.0221295
0.0215101
0.0209437
0.0204362
0.0199946
0.0196295
0.0193483
0.0191611
0.0190778
0.0191055
0.0192497
0.0195117
0.0554187
0.0542963
0.0531834
0.0520797
0.0509855
0.0499005
0.0488254
0.0477602
0.0467056
0.0456621
0.0446298
0.0436097
0.042602
0.041607
0.040624
0.0396541
0.0386973
0.0377539
0.0368249
0.0359116
0.0350134
0.0341316
0.0332674
0.0324216
0.0315962
0.030792
0.0300124
0.0292594
0.0285365
0.0278458
0.0271921
0.0265793
0.0260132
0.0254991
0.0250439
0.0246543
0.0243379
0.0241025
0.0239558
0.0239052
0.0239568
0.0241144
0.0243786
0.0568914
0.0558917
0.0548996
0.0539147
0.0529354
0.0519624
0.0509952
0.0500346
0.0490812
0.0481344
0.0471955
0.0462642
0.0453426
0.0444307
0.0435279
0.0426343
0.0417507
0.0408775
0.0400154
0.0391648
0.0383271
0.0375039
0.0366956
0.0359035
0.0351292
0.0343746
0.0336418
0.0329339
0.0322536
0.031605
0.0309917
0.0304184
0.0298904
0.0294136
0.0289939
0.0286383
0.0283535
0.0281466
0.0280244
0.0279932
0.0280579
0.0282211
0.028485
0.0582203
0.0573274
0.0564399
0.0555563
0.0546761
0.0537988
0.0529245
0.0520533
0.0511859
0.0503222
0.0494618
0.0486058
0.0477555
0.0469126
0.0460772
0.0452487
0.0444266
0.0436122
0.0428062
0.042008
0.0412204
0.040445
0.0396831
0.0389359
0.0382041
0.0374901
0.0367956
0.0361237
0.0354778
0.0348616
0.0342793
0.0337358
0.0332357
0.0327856
0.0323908
0.0320591
0.031796
0.0316081
0.0315022
0.0314835
0.0315558
0.0317222
0.0319845
0.0594212
0.0586194
0.0578219
0.0570258
0.0562309
0.0554365
0.0546419
0.0538461
0.053052
0.0522605
0.0514691
0.0506757
0.0498843
0.049099
0.0483196
0.0475453
0.046776
0.0460115
0.0452526
0.0444995
0.0437529
0.0430159
0.0422919
0.0415816
0.0408859
0.0402059
0.0395436
0.0389013
0.0382828
0.0376929
0.0371353
0.0366144
0.0361355
0.0357045
0.0353278
0.0350121
0.0347644
0.0345908
0.0344968
0.0344867
0.0345644
0.0347331
0.0349934
0.0604959
0.0597803
0.0590628
0.0583403
0.0576199
0.0568958
0.0561726
0.0554399
0.0547066
0.0539761
0.053248
0.0525121
0.0517678
0.0510283
0.0502952
0.0495674
0.048843
0.0481211
0.0474021
0.0466894
0.0459796
0.0452713
0.0445765
0.0438956
0.0432301
0.0425797
0.041945
0.0413289
0.0407335
0.0401629
0.0396266
0.0391233
0.0386617
0.0382449
0.0378817
0.0375755
0.0373382
0.0371751
0.0370907
0.0370876
0.037171
0.0373403
0.0375995
0.0614691
0.060828
0.0601829
0.059513
0.0588603
0.0581897
0.0575395
0.0568609
0.0561775
0.0554889
0.0548153
0.0541435
0.0534387
0.0527346
0.0520369
0.0513436
0.0506566
0.0499716
0.0492842
0.048604
0.0479384
0.0472528
0.0465815
0.0459204
0.0452777
0.0446526
0.0440418
0.04345
0.0428816
0.0423193
0.0418073
0.0413147
0.040871
0.0404618
0.0401162
0.0398117
0.03958
0.0394251
0.0393498
0.03935
0.0394436
0.0396075
0.0398712
0.0056937
0.00734855
0.00846132
0.00958189
0.010774
0.0120336
0.0133466
0.0146995
0.0160838
0.0174938
0.018925
0.0203737
0.0218374
0.0233148
0.0248043
0.0263054
0.027817
0.0293385
0.0308698
0.0324102
0.0339592
0.0355171
0.0370831
0.038657
0.0402389
0.0418277
0.0434236
0.0450261
0.0466348
0.0482492
0.0498685
0.0514925
0.0531208
0.0547528
0.0563877
0.058025
0.0596642
0.0613044
0.0629449
0.0645847
0.0662226
0.0678577
0.0694918
0.0140205
0.0145784
0.0152814
0.0161166
0.0170692
0.0181197
0.0192507
0.0204472
0.021695
0.0229846
0.0243065
0.025654
0.0270218
0.0284062
0.0298041
0.0312122
0.0326291
0.0340532
0.0354835
0.0369187
0.0383585
0.0398029
0.0412504
0.042701
0.044155
0.0456116
0.0470703
0.048531
0.0499933
0.0514574
0.0529225
0.0543884
0.0558552
0.0573229
0.0587909
0.0602591
0.0617272
0.0631949
0.0646616
0.0661269
0.0675897
0.0690499
0.0705095
0.0198923
0.0203944
0.0210199
0.0217606
0.0226063
0.0235441
0.0245612
0.0256451
0.0267837
0.0279675
0.0291874
0.030436
0.0317074
0.032997
0.0343004
0.035614
0.036936
0.038264
0.0395958
0.0409306
0.0422677
0.0436063
0.0449456
0.0462847
0.047624
0.0489627
0.0503001
0.0516361
0.0529707
0.0543036
0.0556347
0.0569639
0.0582912
0.0596171
0.0609413
0.0622637
0.0635842
0.064903
0.0662198
0.067534
0.0688453
0.0701531
0.0714601
0.0247484
0.0252265
0.025814
0.0265048
0.0272904
0.0281611
0.029106
0.0301148
0.0311775
0.0322845
0.0334275
0.0345991
0.0357931
0.0370049
0.0382297
0.0394637
0.0407046
0.0419498
0.0431972
0.0444458
0.0456946
0.0469425
0.0481889
0.0494327
0.0506738
0.0519115
0.0531452
0.0543748
0.0556
0.0568208
0.0580372
0.0592495
0.0604576
0.0616619
0.0628626
0.0640601
0.0652541
0.0664449
0.0676324
0.0688161
0.0699954
0.0711705
0.0723438
0.0288482
0.0293114
0.0298753
0.0305342
0.0312804
0.0321061
0.0330017
0.0339575
0.0349643
0.0360136
0.0370974
0.0382086
0.0393407
0.0404889
0.0416487
0.0428164
0.0439891
0.0451641
0.04634
0.0475156
0.0486897
0.0498609
0.0510288
0.0521924
0.0533505
0.0545025
0.0556483
0.0567873
0.0579194
0.0590447
0.0601634
0.0612758
0.0623821
0.0634827
0.064578
0.0656684
0.066754
0.0678348
0.0689111
0.0699819
0.0710467
0.0721053
0.073161
0.0323425
0.032795
0.0333423
0.0339787
0.0346976
0.0354908
0.0363502
0.0372668
0.0382314
0.0392365
0.0402741
0.0413372
0.0424194
0.0435154
0.0446214
0.0457337
0.0468487
0.0479646
0.0490804
0.0501943
0.0513054
0.0524128
0.0535156
0.0546118
0.0556999
0.0567794
0.0578504
0.0589124
0.0599656
0.0610094
0.0620443
0.0630715
0.0640911
0.0651035
0.0661087
0.0671073
0.0680998
0.0690865
0.0700669
0.0710401
0.0720051
0.0729615
0.0739114
0.0353457
0.0357902
0.0363255
0.0369456
0.0376437
0.0384127
0.0392437
0.0401299
0.0410622
0.0420327
0.0430333
0.0440569
0.045098
0.0461512
0.0472121
0.0482771
0.0493425
0.050408
0.0514729
0.0525348
0.0535935
0.0546486
0.0556981
0.0567377
0.0577654
0.0587824
0.0597896
0.0607866
0.0617722
0.0627458
0.0637088
0.0646634
0.0656094
0.0665464
0.0674742
0.0683936
0.0693065
0.0702125
0.0711107
0.0719995
0.0728778
0.0737446
0.0746017
0.0379447
0.0383821
0.0389093
0.0395178
0.0401987
0.040948
0.0417562
0.0426179
0.0435251
0.0444687
0.0454395
0.0464299
0.0474367
0.0484531
0.049476
0.0505005
0.0515203
0.0525434
0.0535656
0.0545828
0.0555987
0.0566125
0.0576196
0.0586093
0.0595825
0.0605458
0.0614998
0.0624425
0.0633693
0.0642803
0.0651819
0.066076
0.0669597
0.0678311
0.0686909
0.0695424
0.0703869
0.0712243
0.0720524
0.0728687
0.073672
0.0744604
0.0752361
0.0402021
0.0406316
0.0411535
0.0417549
0.0424174
0.04315
0.0439374
0.044779
0.0456662
0.0465889
0.0475331
0.0484922
0.0494712
0.0504495
0.0514451
0.0524328
0.0534053
0.0543997
0.0553836
0.0563626
0.0573494
0.0583336
0.059307
0.0602428
0.0611665
0.0620874
0.0629995
0.063897
0.0647686
0.0656221
0.0664764
0.067322
0.0681527
0.0689662
0.0697653
0.0705608
0.0713505
0.0721324
0.0729027
0.0736574
0.0743975
0.0751174
0.0758214
0.0743032
0.0714521
0.068689
0.0660058
0.0633961
0.060855
0.0583773
0.0559588
0.0535956
0.0512852
0.0490243
0.0468113
0.044644
0.0425217
0.0404431
0.038408
0.0364148
0.0344644
0.032557
0.0306915
0.0288686
0.0270881
0.0253518
0.0236582
0.0220095
0.0204056
0.0188487
0.0173376
0.0158738
0.0144585
0.0130924
0.0117773
0.0105136
0.00930524
0.00815297
0.00706171
0.00603591
0.00507912
0.00419674
0.0034114
0.00279929
0.00216325
0.00139448
0.0754386
0.0728744
0.0703818
0.0679547
0.0655872
0.0632751
0.0610136
0.058799
0.0566281
0.0544972
0.0524037
0.0503461
0.0483221
0.0463297
0.0443688
0.042437
0.0405353
0.0386632
0.0368191
0.0350036
0.0332178
0.0314613
0.0297345
0.028038
0.0263716
0.024738
0.0231372
0.0215712
0.0200424
0.0185521
0.0171029
0.0156984
0.0143423
0.0130384
0.0117928
0.0106121
0.00951086
0.00852996
0.00760202
0.0066393
0.00560999
0.00446679
0.00312469
0.0765796
0.0742695
0.0720192
0.0698225
0.0676746
0.0655708
0.0635077
0.0614816
0.0594894
0.0575271
0.0555932
0.0536853
0.051801
0.0499395
0.0480982
0.0462765
0.0444744
0.0426907
0.0409252
0.0391784
0.0374496
0.0357403
0.0340499
0.0323798
0.0307311
0.0291048
0.0275031
0.0259274
0.0243809
0.0228675
0.0213897
0.0199541
0.0185656
0.0172355
0.0159822
0.0147929
0.0136206
0.0124276
0.0111868
0.00986245
0.00841915
0.00681028
0.00497677
0.0777129
0.0756301
0.0735966
0.0716068
0.0696567
0.0677421
0.0658588
0.0640042
0.0621752
0.0603687
0.0585826
0.056815
0.0550636
0.0533263
0.0516018
0.0498891
0.0481874
0.0464954
0.0448136
0.0431422
0.0414813
0.0398306
0.0381914
0.0365644
0.0349511
0.0333542
0.0317737
0.0302141
0.0286791
0.0271728
0.0257021
0.0242749
0.0228873
0.0215299
0.0201832
0.0188268
0.0174375
0.0159905
0.0144582
0.0128119
0.0110146
0.00902633
0.00679917
0.0788279
0.0769488
0.0751096
0.073306
0.0715337
0.0697885
0.0680673
0.0663675
0.0646867
0.0630215
0.0613709
0.0597321
0.0581036
0.056483
0.0548692
0.0532607
0.051656
0.0500547
0.048457
0.0468623
0.0452716
0.043685
0.0421042
0.0405296
0.0389627
0.0374063
0.0358619
0.0343327
0.0328211
0.0313273
0.0298507
0.0283856
0.026924
0.025454
0.0239617
0.022429
0.0208356
0.0191603
0.0173776
0.0154569
0.0133642
0.0110605
0.00850503
0.0799174
0.0782206
0.0765557
0.0749183
0.0733048
0.0717117
0.0701363
0.0685759
0.0670275
0.06549
0.0639614
0.0624398
0.0609235
0.0594106
0.0578996
0.0563882
0.0548753
0.0533601
0.0518419
0.0503223
0.0488002
0.0472771
0.0457545
0.0442324
0.0427116
0.0411924
0.0396758
0.03816
0.0366453
0.0351301
0.0336088
0.0320749
0.03052
0.0289342
0.0273035
0.025612
0.0238411
0.02197
0.0199721
0.0178169
0.015472
0.0128987
0.0100599
0.0809762
0.0794423
0.0779328
0.0764438
0.0749728
0.0735157
0.0720705
0.0706343
0.069205
0.0677813
0.0663615
0.0649454
0.0635302
0.0621144
0.0606961
0.0592739
0.0578458
0.0564086
0.0549635
0.0535105
0.0520491
0.0505806
0.0491053
0.0476229
0.0461331
0.0446348
0.0431265
0.0416056
0.0400704
0.0385174
0.0369427
0.0353381
0.0336962
0.0320055
0.0302534
0.0284239
0.0265003
0.0244602
0.0222764
0.0199195
0.0173559
0.0145486
0.0114614
0.0820032
0.080613
0.0792417
0.0778846
0.0765407
0.0752046
0.073876
0.0725516
0.0712283
0.0699049
0.0685801
0.0672572
0.0659327
0.0646025
0.0632645
0.0619214
0.0605682
0.0591997
0.0578154
0.0564174
0.0550047
0.0535777
0.0521359
0.0506786
0.0492065
0.0477157
0.0462064
0.0446729
0.0431106
0.0415168
0.0398887
0.0382199
0.0365008
0.0347193
0.0328621
0.0309139
0.0288576
0.0266708
0.0243268
0.0217948
0.0190413
0.0160279
0.0127197
0.0830054
0.0817321
0.0804839
0.0792432
0.0780159
0.0767845
0.0755598
0.0743372
0.073105
0.0718734
0.0706262
0.0693835
0.0681379
0.0668847
0.0656092
0.0643311
0.0630444
0.0617375
0.0603975
0.0590435
0.0576684
0.0562738
0.0548574
0.0534132
0.0519547
0.0504586
0.048942
0.0473966
0.0458123
0.0441731
0.0424954
0.0407674
0.0389801
0.037122
0.0351762
0.0331238
0.0309524
0.0286376
0.0261577
0.0234695
0.0205484
0.0173617
0.0138542
0.000627375
0.000567822
0.00079953
0.00101787
0.00122328
0.00141841
0.00160563
0.00178797
0.00196902
0.0021537
0.00234922
0.00256572
0.00281497
0.00310392
0.0034312
0.00379302
0.00418578
0.00460742
0.00505743
0.00553538
0.00604136
0.00657567
0.007139
0.00773164
0.00835428
0.00900716
0.00969103
0.0104064
0.0111538
0.0119341
0.0127483
0.013597
0.0144809
0.0154013
0.0163587
0.017354
0.018388
0.0194612
0.0205743
0.021728
0.0229229
0.0241602
0.0254431
0.0015951
0.000860882
0.000985886
0.00120814
0.00142146
0.00162487
0.00182233
0.00201917
0.00222208
0.00243894
0.00267876
0.00295068
0.00326285
0.00361328
0.00399495
0.00440444
0.00483974
0.00529986
0.00578421
0.00629276
0.00682593
0.00738341
0.00796602
0.00857371
0.00920667
0.00986548
0.0105502
0.0112616
0.012
0.0127662
0.0135607
0.0143844
0.0152379
0.0161217
0.0170366
0.017983
0.0189619
0.0199735
0.0210185
0.0220981
0.0232127
0.0243639
0.0255523
0.00291516
0.00136647
0.00117118
0.00138098
0.00160304
0.00181841
0.00203262
0.00225373
0.00249059
0.00275148
0.00304327
0.00337165
0.00374099
0.0041425
0.00456977
0.00502041
0.00549327
0.00598755
0.00650282
0.00703906
0.00759661
0.00817505
0.00877453
0.00939499
0.0100365
0.0106995
0.0113841
0.0120907
0.0128197
0.0135716
0.0143469
0.015146
0.0159695
0.0168178
0.0176914
0.0185908
0.0195164
0.0204689
0.0214486
0.0224567
0.0234942
0.0245627
0.0256655
0.0043199
0.00207878
0.0013773
0.00153501
0.00176639
0.00199795
0.00223566
0.00248909
0.00276704
0.00307566
0.00341839
0.0037985
0.00421618
0.00466012
0.00512602
0.00561217
0.00611756
0.0066417
0.00718412
0.00774455
0.00832306
0.00891899
0.00953245
0.0101634
0.0108115
0.0114771
0.0121606
0.0128618
0.0135813
0.0143192
0.0150759
0.0158518
0.016647
0.0174619
0.0182971
0.0191529
0.0200294
0.0209273
0.0218472
0.02279
0.0237566
0.0247486
0.0257682
0.00567426
0.00290519
0.00162446
0.00167504
0.00191553
0.00216757
0.00243397
0.00272423
0.00304507
0.00339955
0.00378855
0.00421507
0.00467337
0.0051536
0.00565295
0.0061702
0.00670415
0.00725445
0.00782063
0.00840201
0.00899848
0.00960945
0.0102345
0.0108738
0.0115271
0.0121945
0.0128758
0.0135716
0.0142817
0.0150062
0.0157454
0.0164994
0.0172684
0.0180528
0.0188526
0.0196683
0.0205002
0.0213483
0.0222136
0.0230964
0.0239969
0.0249141
0.0258409
0.00692764
0.00375267
0.00191554
0.0018057
0.00205392
0.00232971
0.00262796
0.0029564
0.00331873
0.00371507
0.00414552
0.00461278
0.00510575
0.00561782
0.00614685
0.00669138
0.00725078
0.00782427
0.00841122
0.009011
0.00962289
0.0102465
0.0108816
0.0115279
0.012185
0.0128533
0.0135326
0.0142225
0.0149236
0.0156354
0.0163583
0.0170921
0.0178372
0.0185933
0.0193609
0.02014
0.0209309
0.0217339
0.0225492
0.0233768
0.0242166
0.025068
0.0259321
0.00806757
0.00456446
0.00223649
0.00193117
0.00218552
0.00248694
0.00281768
0.00318299
0.00358371
0.00401785
0.00448575
0.00498747
0.0055108
0.00605095
0.00660629
0.00717541
0.00775737
0.00835159
0.00895699
0.00957282
0.0101984
0.0108331
0.0114767
0.0121289
0.0127892
0.0134577
0.0141347
0.0148195
0.015512
0.016212
0.0169197
0.017635
0.0183578
0.0190882
0.0198259
0.0205715
0.021325
0.0220866
0.022856
0.0236331
0.0244178
0.0252097
0.0260089
0.00909208
0.00531486
0.0025788
0.00205395
0.00230246
0.00263049
0.00299542
0.00339689
0.00383184
0.00429912
0.00480206
0.0053348
0.00588575
0.00645236
0.00703245
0.00762464
0.008228
0.00884162
0.00946426
0.0100946
0.010732
0.0113767
0.0120277
0.0126841
0.0133464
0.0140149
0.0146907
0.0153711
0.0160548
0.0167437
0.0174373
0.0181353
0.0188372
0.019543
0.0202526
0.0209669
0.0216863
0.0224096
0.0231364
0.0238669
0.0246015
0.0253396
0.0260803
0.0100087
0.00596885
0.00284231
0.00215077
0.00245521
0.00282045
0.00321054
0.00362933
0.00409382
0.00460897
0.0051519
0.00570922
0.00628794
0.00687966
0.00748071
0.00809254
0.00871326
0.00934152
0.00997804
0.0106159
0.0112566
0.0119091
0.0125614
0.0132133
0.0138739
0.0145427
0.0152258
0.0158983
0.0165679
0.017247
0.0179265
0.0186063
0.0192863
0.0199654
0.0206466
0.0213301
0.0220203
0.0227069
0.0233923
0.024079
0.0247676
0.0254589
0.0261504
0.000196252
0.000771883
0.00166455
0.00258647
0.00347964
0.00434744
0.00519983
0.00604471
0.00688256
0.00771471
0.00854319
0.0093712
0.0102024
0.0110412
0.0118916
0.0127579
0.0136438
0.0145528
0.0154875
0.0164496
0.0174391
0.0184556
0.0194969
0.0205621
0.021653
0.0227746
0.0239281
0.0251087
0.026314
0.0275745
0.0289086
0.0303031
0.0317465
0.0332308
0.0347542
0.0363144
0.0379085
0.0395341
0.041189
0.042871
0.0445782
0.0463085
0.0480598
0.000122423
0.000491424
0.00110593
0.00191155
0.00276761
0.00359316
0.00439353
0.0051658
0.00591993
0.00666514
0.0074095
0.00815687
0.00891043
0.00967351
0.0104495
0.0112421
0.0120552
0.0128925
0.0137575
0.0146535
0.0155826
0.0165464
0.017545
0.0185784
0.0196463
0.0207492
0.0218869
0.0230587
0.024265
0.0255162
0.0268215
0.0281775
0.0295729
0.0310103
0.0325205
0.0340924
0.0357119
0.037374
0.0390744
0.0408079
0.0425716
0.0443624
0.0461779
1.07242e-05
0.000298714
0.000703381
0.00124387
0.00191614
0.00271633
0.00364514
0.00455442
0.00541741
0.00623864
0.00702429
0.00778281
0.00852169
0.00924799
0.00996824
0.0106889
0.0114164
0.0121575
0.0129184
0.0137054
0.0145239
0.015379
0.0162745
0.017213
0.0181964
0.0192255
0.0203008
0.0214223
0.0225905
0.0238081
0.0250783
0.0264013
0.0277731
0.0291931
0.0306666
0.032187
0.0337522
0.0353928
0.0370953
0.0388467
0.0406404
0.0424696
0.0443305
1.26363e-05
0.00025199
0.000589996
0.00102793
0.00157352
0.00222865
0.0029969
0.00388185
0.00481435
0.00572437
0.00660071
0.00744424
0.00825713
0.00904151
0.00980049
0.0105381
0.0112592
0.0119699
0.0126774
0.0133897
0.0141153
0.0148626
0.0156403
0.0164556
0.0173154
0.018225
0.0191883
0.0202083
0.021287
0.0224263
0.0236274
0.024891
0.0262157
0.0275993
0.0290401
0.0305341
0.0320781
0.0336759
0.03532
0.0370319
0.0388152
0.0406536
0.0425381
7.86335e-06
0.000213286
0.000510638
0.000887461
0.00135823
0.0019224
0.0025827
0.0033427
0.00420632
0.00515858
0.00610912
0.00703068
0.00792036
0.00877946
0.00960935
0.0104111
0.011186
0.011936
0.0126644
0.0133757
0.0140765
0.0147745
0.015479
0.0162002
0.0169487
0.0177348
0.0185681
0.0194569
0.0204081
0.0214271
0.0225178
0.0236824
0.0249216
0.0262341
0.027617
0.0290662
0.0305773
0.0321461
0.0337676
0.0354435
0.0371696
0.0389654
0.0408376
7.48023e-06
0.000193419
0.000463246
0.000801513
0.00122086
0.00172453
0.00231393
0.00299277
0.00376537
0.00463635
0.00559647
0.00656949
0.00752209
0.00844721
0.00934429
0.0102135
0.0110549
0.0118684
0.012654
0.0134125
0.0141461
0.0148583
0.0155549
0.0162437
0.0169343
0.0176382
0.0183679
0.0191361
0.0199554
0.0208369
0.0217903
0.0228228
0.0239395
0.0251424
0.0264307
0.0278019
0.0292512
0.0307726
0.0323601
0.0340078
0.0357109
0.0374714
0.0392942
6.83396e-06
0.000181538
0.000425495
0.000735122
0.00111656
0.00157588
0.00211347
0.00273239
0.00343652
0.00423038
0.00511859
0.00609364
0.00708867
0.00806838
0.00902386
0.00995341
0.0108565
0.0117328
0.0125811
0.0134007
0.014191
0.0149522
0.0156856
0.0163949
0.0170853
0.017765
0.0184444
0.0191365
0.0198556
0.0206171
0.021436
0.0223263
0.0232992
0.0243633
0.0255236
0.026781
0.0281333
0.0295761
0.0311025
0.0327047
0.0343756
0.03611
0.0379059
6.56584e-06
0.000174661
0.000397298
0.000685088
0.00103777
0.0014615
0.00195866
0.00253113
0.00318238
0.00391676
0.00473878
0.0056533
0.00664848
0.00766315
0.00866579
0.0096471
0.0106046
0.0115374
0.0124443
0.0133239
0.0141746
0.0149949
0.0157838
0.0165413
0.0172687
0.0179697
0.0186502
0.0193191
0.0199886
0.0206733
0.0213901
0.0221569
0.0229911
0.0239082
0.0249208
0.026037
0.0272607
0.028591
0.0300236
0.0315516
0.0331663
0.0348593
0.036622
6.26941e-06
0.000169773
0.000374025
0.00064421
0.000973805
0.00136872
0.00183325
0.00236836
0.00297712
0.00366355
0.00443201
0.00528724
0.00623371
0.00725198
0.0082863
0.00931
0.0103144
0.0112968
0.012256
0.0131902
0.0140977
0.0149763
0.015824
0.0166389
0.0174199
0.018167
0.0188819
0.0195691
0.0202358
0.0208927
0.0215542
0.0222375
0.0229625
0.0237491
0.0246169
0.0255822
0.0266568
0.0278472
0.0291551
0.0305773
0.0321065
0.0337344
0.0354564
6.0158e-06
0.000165345
0.000354975
0.000610749
0.000921532
0.0012929
0.00172986
0.00223394
0.00280755
0.00345433
0.00417849
0.00498453
0.00587735
0.00685995
0.00790208
0.00895544
0.00999857
0.0110239
0.0120289
0.0130117
0.0139705
0.014903
0.0158068
0.0166791
0.0175176
0.0183203
0.0190861
0.0198156
0.0205118
0.0211802
0.0218306
0.0224762
0.0231345
0.0238263
0.0245737
0.0253994
0.0263231
0.0273605
0.0285215
0.0298097
0.0312231
0.0327558
0.0343982
5.77712e-06
0.00016141
0.000339095
0.000582762
0.000877848
0.00122965
0.00164289
0.00212082
0.00266491
0.00327831
0.00396508
0.00472956
0.00557643
0.00651069
0.00753079
0.00859625
0.00966808
0.0107294
0.0117742
0.0127997
0.0138041
0.0147851
0.0157401
0.0166664
0.0175608
0.0184203
0.0192424
0.0200251
0.0207682
0.0214732
0.0221448
0.0227915
0.0234256
0.0240647
0.0247297
0.025445
0.0262353
0.0271241
0.0281303
0.0292668
0.0305399
0.0319494
0.0334896
5.57806e-06
0.000158178
0.000326378
0.000559289
0.000841
0.00117614
0.0015692
0.00202464
0.00254346
0.00312849
0.0037834
0.00451241
0.00532004
0.00621121
0.00719037
0.00824606
0.00933343
0.0104228
0.0115013
0.0125642
0.0136087
0.0146329
0.015634
0.0166094
0.0175557
0.0184696
0.0193475
0.0201864
0.0209837
0.0217382
0.0224509
0.0231254
0.023769
0.0243938
0.025017
0.02566
0.0263486
0.0271101
0.0279705
0.0289519
0.0300705
0.0313349
0.0327465
5.4214e-06
0.000155929
0.000316971
0.000539543
0.000809743
0.00113083
0.00150688
0.00194237
0.0024393
0.00299985
0.00362736
0.00432577
0.00509948
0.00595324
0.00689204
0.00791788
0.00900493
0.0101124
0.0112183
0.0123133
0.0133931
0.0144553
0.0154975
0.0165171
0.0175107
0.0184748
0.0194057
0.0202994
0.0211523
0.0219615
0.0227251
0.0234432
0.0241189
0.024759
0.025375
0.025984
0.0266083
0.0272747
0.0280127
0.0288509
0.0298147
0.0309228
0.0321869
5.30609e-06
0.000154779
0.000310901
0.000522942
0.000783028
0.00109198
0.00145344
0.00187152
0.00234944
0.00288874
0.00349247
0.00416437
0.00490859
0.00572969
0.00663264
0.00762214
0.00869236
0.00980643
0.0109323
0.0120539
0.0131644
0.0142603
0.0153391
0.016398
0.0174341
0.0184439
0.0194236
0.0203689
0.0212757
0.0221399
0.0229581
0.0237278
0.0244488
0.0251235
0.0257585
0.0263651
0.0269606
0.0275679
0.0282156
0.0289351
0.0297576
0.0307115
0.0318208
5.21529e-06
0.000154345
0.000307261
0.000508938
0.000760205
0.00105864
0.00140744
0.00181051
0.00227181
0.00279254
0.0033755
0.00402422
0.00474268
0.00553531
0.00640678
0.00736221
0.00840406
0.00951238
0.0106497
0.0117923
0.012929
0.0140544
0.0151654
0.0162594
0.0173336
0.0183847
0.0194088
0.0204017
0.0213591
0.0222762
0.0231487
0.0239727
0.0247454
0.0254663
0.0261373
0.0267649
0.0273607
0.0279425
0.0285343
0.0291663
0.0298722
0.0306865
0.031644
5.14661e-06
0.000154367
0.000305091
0.000497224
0.000740756
0.00103014
0.00136802
0.00175816
0.00220475
0.00270924
0.00327398
0.00390237
0.00459823
0.00536577
0.0062096
0.00713466
0.00814551
0.00923683
0.0103765
0.0115337
0.012692
0.013843
0.0149826
0.0161078
0.017216
0.0183041
0.0193683
0.0204047
0.0214087
0.0223755
0.0233001
0.0241778
0.0250044
0.0257768
0.026494
0.0271582
0.027776
0.0283593
0.0289267
0.029504
0.0301235
0.0308223
0.0316409
5.10044e-06
0.000154777
0.000303887
0.000487638
0.000724206
0.00100566
0.00133413
0.00171314
0.00214668
0.00263697
0.00318587
0.00379645
0.00447247
0.00521796
0.00603741
0.00693565
0.00791753
0.00898471
0.0101178
0.0112831
0.012458
0.0136309
0.0147955
0.0159487
0.0170872
0.0182085
0.0193089
0.0203846
0.0214312
0.0224439
0.0234173
0.0243465
0.0252261
0.0260518
0.0268202
0.0275303
0.0281844
0.0287894
0.0293582
0.0299108
0.0304752
0.0310872
0.03179
5.07497e-06
0.000155483
0.000303409
0.000480196
0.000710168
0.000984663
0.00130494
0.00167425
0.00209639
0.00257427
0.00310938
0.00370446
0.00436304
0.00508913
0.00588707
0.00676153
0.00771739
0.00875875
0.00987775
0.0110444
0.0122311
0.0134219
0.0146085
0.0157863
0.0169522
0.0181032
0.0192362
0.0203474
0.0214328
0.0224874
0.0235062
0.0244836
0.025414
0.0262922
0.0271133
0.027874
0.0285733
0.0292137
0.029803
0.0303555
0.0308934
0.031448
0.0320597
5.06777e-06
0.000156552
0.000303603
0.000474941
0.000698452
0.00096676
0.00127995
0.00164079
0.00205302
0.00252011
0.00304316
0.00362471
0.00426807
0.00497709
0.00575602
0.00660948
0.00754229
0.0085591
0.00965921
0.0108209
0.0120144
0.0132194
0.0144249
0.0156246
0.016815
0.0179928
0.0191551
0.0202985
0.0214189
0.0225119
0.0235722
0.0245944
0.0255728
0.0265013
0.0273743
0.028187
0.0289359
0.0296203
0.0302437
0.0308148
0.03135
0.0318745
0.0324236
5.06888e-06
0.000157836
0.000304382
0.000471687
0.000688749
0.000951527
0.00125855
0.00161219
0.00201582
0.00247341
0.0029859
0.00355561
0.0041857
0.00487987
0.00564214
0.00647704
0.00738942
0.00838402
0.00946341
0.0106152
0.0118107
0.0130262
0.0142476
0.0154667
0.0166791
0.0178812
0.0190701
0.0202425
0.0213948
0.0225225
0.0236208
0.0246844
0.0257072
0.0266833
0.0276062
0.0284703
0.0292704
0.0300036
0.0306694
0.0312724
0.0318232
0.0323409
0.032855
5.08328e-06
0.000159319
0.000305568
0.000469957
0.000680742
0.000938633
0.00124033
0.00158783
0.00198426
0.0024334
0.00293659
0.00349597
0.00411446
0.00479562
0.00554337
0.00636202
0.00725631
0.00823113
0.00929032
0.0104286
0.011622
0.0128445
0.0140789
0.015315
0.0165471
0.0177713
0.0189844
0.0201834
0.0213645
0.022524
0.0236571
0.0247585
0.0258225
0.0268428
0.027813
0.0287267
0.0295777
0.0303613
0.0310745
0.0317179
0.0322976
0.0328269
0.0333286
5.11115e-06
0.000160971
0.000307008
0.000469224
0.000674118
0.000927645
0.00122476
0.00156693
0.00195712
0.00239901
0.00289426
0.00344467
0.0040531
0.00472293
0.005458
0.00626249
0.0071409
0.00809814
0.00913876
0.0102618
0.0114497
0.0126759
0.0139206
0.0151716
0.0164214
0.0176657
0.018901
0.0201243
0.021332
0.0225205
0.0236853
0.0248214
0.0259233
0.0269847
0.0279993
0.02896
0.0298603
0.0306941
0.0314567
0.0321457
0.0327633
0.0333174
0.0338244
5.1497e-06
0.000162655
0.000308576
0.00046912
0.000668656
0.000918344
0.0012115
0.00154909
0.00193393
0.00236954
0.00285796
0.0034007
0.00400042
0.00466043
0.00538443
0.00617652
0.00704107
0.0079829
0.0090068
0.0101144
0.0112942
0.0125214
0.0137741
0.0150377
0.0163037
0.0175664
0.0188222
0.0200678
0.0213
0.0225152
0.0237092
0.0248772
0.0260139
0.0271134
0.0281691
0.0291742
0.0301215
0.0310042
0.0318163
0.0325535
0.0332145
0.0338027
0.034328
5.19471e-06
0.000164387
0.0003102
0.000469405
0.000664279
0.000910544
0.00120029
0.00153397
0.00191422
0.00234443
0.00282698
0.00336317
0.00395543
0.00460694
0.00532133
0.00610263
0.00695515
0.00788345
0.00889257
0.00998544
0.0111556
0.0123814
0.0136398
0.0149145
0.0161949
0.0174746
0.0187494
0.0200159
0.0212708
0.0225108
0.0237318
0.0249293
0.0260982
0.0272329
0.0283268
0.0293733
0.030365
0.0312946
0.0321553
0.0329412
0.0336485
0.0342767
0.0348305
5.22935e-06
0.000166105
0.000311822
0.000469961
0.000660866
0.000904008
0.00119076
0.00152111
0.0018975
0.00232311
0.00280059
0.00333114
0.00391705
0.00456135
0.00526747
0.00603938
0.00688143
0.00779803
0.00879409
0.00987349
0.0110333
0.0122559
0.0135183
0.0148022
0.0160958
0.0173914
0.0186841
0.0199701
0.0212463
0.0225093
0.0237555
0.0249805
0.0261793
0.0273466
0.0284761
0.0295611
0.0305945
0.0315687
0.0324761
0.0333099
0.0340644
0.0347363
0.0353252
5.23796e-06
0.000167843
0.00031349
0.000470794
0.000658362
0.000898644
0.00118276
0.00151024
0.00188329
0.00230503
0.00277823
0.00330395
0.00388439
0.00452245
0.00522154
0.00598546
0.00681838
0.00772484
0.00870951
0.00977687
0.0109263
0.0121446
0.0134094
0.0147012
0.0160067
0.0173171
0.0186267
0.0199313
0.0212276
0.0225125
0.0237823
0.0250329
0.0262596
0.0274572
0.0286199
0.029741
0.0308134
0.0318295
0.0327815
0.0336616
0.0344628
0.0351794
0.0358075
5.18791e-06
0.000169658
0.000315258
0.000471865
0.00065665
0.000894247
0.00117609
0.00150112
0.00187135
0.0022898
0.00275942
0.00328099
0.00385677
0.00448951
0.00518257
0.00593967
0.00676477
0.00766239
0.00863724
0.00969386
0.0108335
0.0120466
0.0133125
0.0146111
0.0159274
0.0172518
0.0185775
0.0198999
0.0212156
0.0225213
0.0238134
0.0250881
0.0263411
0.0275672
0.0287609
0.0299157
0.0310246
0.0320801
0.0330743
0.0339987
0.0348453
0.0356067
0.0362748
5.02531e-06
0.000171485
0.000317045
0.000473079
0.000655558
0.000890705
0.00117057
0.0014935
0.00186133
0.00227698
0.00274356
0.00326168
0.00383347
0.00446167
0.00514955
0.00590075
0.00671916
0.0076092
0.00857552
0.00962279
0.0107534
0.011961
0.0132272
0.0145314
0.0158577
0.0171952
0.0185363
0.0198759
0.0212103
0.022536
0.0238497
0.0251474
0.0264253
0.0276783
0.0289011
0.0300876
0.0312308
0.0323234
0.0333574
0.0343241
0.0352148
0.0360213
0.0367377
4.76657e-06
0.000173344
0.000318804
0.000474355
0.000654985
0.000887878
0.00116607
0.00148724
0.00185301
0.00226627
0.00273027
0.00324551
0.00381395
0.00443826
0.00512169
0.00586782
0.00668054
0.00756404
0.00852305
0.0095621
0.0106845
0.0118864
0.0131522
0.0144614
0.0157969
0.0171468
0.0185028
0.0198592
0.0212117
0.0225568
0.0238913
0.0252113
0.0265129
0.0277917
0.029042
0.0302584
0.031434
0.0325617
0.0336334
0.0346406
0.0355742
0.0364256
0.0371861
4.61043e-06
0.000175121
0.000320467
0.000475642
0.000654794
0.000885617
0.00116233
0.00148205
0.00184619
0.00225745
0.00271915
0.00323189
0.00379751
0.00441861
0.0050983
0.00584003
0.00664784
0.00752587
0.00847846
0.00951043
0.0106255
0.0118219
0.0130867
0.0144
0.0157441
0.017106
0.0184765
0.0198491
0.0212193
0.0225835
0.0239382
0.0252798
0.0266044
0.0279078
0.0291847
0.0304294
0.0316359
0.0327968
0.0339044
0.0349502
0.0359254
0.0368207
0.0376277
4.60363e-06
0.000176764
0.000322044
0.000476961
0.00065492
0.000883873
0.00115927
0.00147775
0.00184049
0.00225015
0.00270992
0.00322051
0.00378369