/*--------------------------------*- C++ -*----------------------------------*\
| =========                 |                                                 |
| \\      /  F ield         | OpenFOAM: The Open Source CFD Toolbox           |
|  \\    /   O peration     | Version:  2.3.0                                 |
|   \\  /    A nd           | Web:      www.OpenFOAM.org                      |
|    \\/     M anipulation  |                                                 |
\*---------------------------------------------------------------------------*/
FoamFile
{
    version     2.0;
    format      ascii;
    class       surfaceScalarField;
    location    "3000";
    object      phi;
}
// * * * * * * * * * * * * * * * * * * * * * * * * * * * * * * * * * * * * * //

dimensions      [0 3 -1 0 0 0 0];

internalField   nonuniform List<scalar> 
78876
(
-0.00593842
-0.00543812
0.00596429
0.00541264
-0.00642339
-0.00520984
0.00569481
-0.00686865
-0.00498984
0.00543511
-0.00727469
-0.00477906
0.0051851
-0.00764198
-0.00457636
0.00494366
-0.00797529
-0.00438262
0.00471593
-0.00827396
-0.00419568
0.00449435
-0.00854266
-0.00401542
0.00428411
-0.00877998
-0.00384356
0.00408088
-0.00898598
-0.00367738
0.00388337
-0.00916669
-0.00351726
0.00369797
-0.00931814
-0.00336449
0.00351594
-0.00944813
-0.00321374
0.00334373
-0.00955104
-0.003073
0.00317591
-0.00963347
-0.00293458
0.00301701
-0.00969233
-0.00280338
0.00286223
-0.00973307
-0.00267379
0.00271453
-0.00975475
-0.00254997
0.00257165
-0.00975578
-0.00243141
0.00243243
-0.00974033
-0.00231517
0.00229971
-0.0097069
-0.00220302
0.00216959
-0.00965739
-0.00209523
0.00204572
-0.00959082
-0.00198847
0.0019219
-0.00950906
-0.00188642
0.00180466
-0.00940949
-0.00178645
0.00168688
-0.00929637
-0.00168796
0.00157484
-0.00916424
-0.00159356
0.00146143
-0.0090179
-0.00149832
0.00135197
-0.00885545
-0.00140688
0.00124443
-0.00867824
-0.00131381
0.0011366
-0.00848678
-0.00122188
0.00103041
-0.00828097
-0.00113235
0.000926537
-0.00806286
-0.00104149
0.000823381
-0.00783793
-0.00094869
0.000723752
-0.0076063
-0.000855437
0.000623812
-0.00737228
-0.000760729
0.000526707
-0.00714131
-0.000662976
0.000432002
-0.00691793
-0.000563221
0.000339845
-0.00670483
-0.000462954
0.000249852
-0.0065159
-0.000357303
0.000168362
-0.00635485
-0.000252903
9.18559e-05
-0.00623119
-0.000155013
3.1352e-05
-5.53286e-05
-0.00622577
4.99121e-05
-0.00535277
-0.00496942
0.00488406
-0.00578564
-0.00477697
-0.00618207
-0.00459341
-0.0065436
-0.00441753
-0.00686961
-0.00425035
-0.00716678
-0.00408546
-0.00743345
-0.00392901
-0.00767011
-0.00377876
-0.00788003
-0.00363364
-0.00806289
-0.00349451
-0.00822297
-0.00335719
-0.00835979
-0.00322767
-0.00846937
-0.00310416
-0.00856254
-0.00297983
-0.00863254
-0.00286458
-0.00868568
-0.00275024
-0.00871984
-0.00263963
-0.00873571
-0.00253411
-0.00873677
-0.00243034
-0.00872171
-0.00233023
-0.00869308
-0.00223165
-0.00865077
-0.00213754
-0.00859608
-0.00204316
-0.00852936
-0.00195314
-0.00845336
-0.00186245
-0.00836639
-0.00177493
-0.00827035
-0.0016896
-0.00816621
-0.00160246
-0.00805616
-0.00151692
-0.00793629
-0.00143368
-0.00780838
-0.00134979
-0.00767564
-0.00126508
-0.00753615
-0.00118098
-0.00738797
-0.00109687
-0.00722822
-0.00101518
-0.00705989
-0.000929058
-0.00687589
-0.000846979
-0.00667463
-0.000764484
-0.00645521
-0.000682369
-0.00620752
-0.000604991
-0.00592958
-0.000530846
-0.00562092
-0.000463671
-0.000400438
-0.00527581
-0.00482681
-0.00454996
0.00440734
-0.00521349
-0.00439029
-0.00556459
-0.00424231
-0.00588479
-0.00409733
-0.00617859
-0.00395655
-0.00644221
-0.00382184
-0.006677
-0.00369421
-0.00688747
-0.00356829
-0.00707398
-0.00344713
-0.0072358
-0.0033327
-0.00737441
-0.00321857
-0.00749199
-0.0031101
-0.00759119
-0.00300496
-0.00766878
-0.00290224
-0.00772989
-0.00280347
-0.00777202
-0.0027081
-0.00779794
-0.00261371
-0.00780868
-0.00252337
-0.00780458
-0.00243444
-0.00778659
-0.00234822
-0.00775485
-0.00226339
-0.00771174
-0.00218066
-0.00765518
-0.00209971
-0.00758902
-0.0020193
-0.00750954
-0.00194194
-0.00742156
-0.00186291
-0.00732432
-0.00178684
-0.00721821
-0.00170856
-0.00710125
-0.00163388
-0.00697788
-0.00155706
-0.00684577
-0.0014819
-0.00670521
-0.00140564
-0.00655653
-0.00132966
-0.00640134
-0.00125206
-0.00623997
-0.00117655
-0.0060694
-0.00109963
-0.0058926
-0.00102378
-0.00570804
-0.000949038
-0.00551376
-0.00087665
-0.00531273
-0.000806023
-0.00510359
-0.000739991
-0.00488559
-0.000681664
-0.000630105
-0.00465593
-0.00435303
-0.0041748
0.00397786
-0.00469726
-0.00404607
-0.0050131
-0.00392647
-0.00530292
-0.00380752
-0.00556293
-0.00369654
-0.00579655
-0.00358822
-0.0060083
-0.00348246
-0.00619426
-0.00338233
-0.00635982
-0.00328157
-0.00650432
-0.0031882
-0.00662677
-0.00309613
-0.00673082
-0.00300604
-0.0068177
-0.00291808
-0.00688571
-0.00283422
-0.00693675
-0.00275243
-0.00697456
-0.00267029
-0.00699396
-0.00259432
-0.00700147
-0.00251585
-0.00699492
-0.002441
-0.00697662
-0.00236652
-0.00694522
-0.00229479
-0.00690114
-0.00222473
-0.00684789
-0.00215296
-0.00678367
-0.00208352
-0.00671149
-0.00201411
-0.00662775
-0.00194665
-0.00653766
-0.00187692
-0.00643696
-0.00180927
-0.00633059
-0.00174025
-0.00621482
-0.00167282
-0.00609266
-0.00160406
-0.00596316
-0.00153514
-0.0058278
-0.00146502
-0.00568376
-0.00139611
-0.00553434
-0.00132596
-0.00537757
-0.00125641
-0.00521375
-0.00118759
-0.00504281
-0.00111998
-0.00486473
-0.00105473
-0.00467959
-0.000991166
-0.00448663
-0.000932946
-0.00428937
-0.000878929
-0.000831506
-0.00408797
-0.00392792
-0.00383446
0.00358758
-0.00423505
-0.00373893
-0.00452059
-0.00364094
-0.00477456
-0.00355355
-0.00500969
-0.00346141
-0.00521903
-0.00337888
-0.00540802
-0.00329348
-0.00557789
-0.00321246
-0.00572286
-0.0031366
-0.00585313
-0.00305793
-0.005963
-0.00298626
-0.00605551
-0.00291353
-0.00613118
-0.00284241
-0.00619227
-0.00277313
-0.00623788
-0.00270682
-0.00626702
-0.00264115
-0.00628612
-0.00257522
-0.0062915
-0.00251048
-0.00628299
-0.0024495
-0.0062608
-0.00238871
-0.00623015
-0.00232544
-0.00619084
-0.00226404
-0.00613929
-0.00220451
-0.00607809
-0.00214473
-0.00600843
-0.00208377
-0.00593125
-0.00202383
-0.00584536
-0.00196282
-0.00575145
-0.00190318
-0.00564961
-0.00184209
-0.00554202
-0.00178042
-0.00542892
-0.00171716
-0.00530792
-0.00165614
-0.005182
-0.00159094
-0.00504887
-0.00152923
-0.00491101
-0.00146382
-0.00476643
-0.00140099
-0.00461643
-0.00133759
-0.00446087
-0.00127554
-0.00430181
-0.0012138
-0.00413654
-0.00115643
-0.00396685
-0.00110264
-0.00379249
-0.00105329
-0.00100724
-0.00361675
-0.00354233
-0.00353455
0.00324242
-0.00382114
-0.00346013
-0.00407386
-0.00338821
-0.00430589
-0.00332152
-0.00451441
-0.00325289
-0.00470683
-0.00318646
-0.00487427
-0.00312603
-0.00502514
-0.00306159
-0.00515768
-0.00300407
-0.00527193
-0.00294368
-0.00537194
-0.00288624
-0.00545409
-0.00283138
-0.00552146
-0.00277505
-0.00557431
-0.00272028
-0.00561611
-0.00266502
-0.0056429
-0.00261436
-0.00565567
-0.00256245
-0.00565948
-0.00250666
-0.00565072
-0.00245826
-0.00563219
-0.00240725
-0.00560263
-0.00235499
-0.00556375
-0.00230293
-0.00551648
-0.00225178
-0.00546142
-0.00219978
-0.00539641
-0.00214878
-0.00532499
-0.00209524
-0.00524462
-0.00204319
-0.00515828
-0.00198952
-0.00506639
-0.00193398
-0.00496653
-0.00188027
-0.00486058
-0.00182311
-0.00475014
-0.00176658
-0.00463294
-0.00170814
-0.0045118
-0.00165038
-0.00438448
-0.00159114
-0.0042537
-0.00153177
-0.00411717
-0.00147413
-0.00397632
-0.00141638
-0.00383106
-0.00135905
-0.00368103
-0.00130646
-0.00352894
-0.00125472
-0.00337294
-0.00120929
-0.00116522
-0.00321497
-0.00320028
-0.00325934
0.00292506
-0.00344811
-0.0032123
-0.0036784
-0.00315792
-0.00388637
-0.00311356
-0.00407445
-0.00306482
-0.00424373
-0.00301718
-0.00439763
-0.00297213
-0.00453114
-0.00292808
-0.00465083
-0.00288438
-0.00475481
-0.00283971
-0.00484188
-0.00279917
-0.00491702
-0.00275624
-0.00497856
-0.0027135
-0.00502613
-0.00267271
-0.00505959
-0.00263156
-0.00508491
-0.00258904
-0.00509975
-0.00254761
-0.00509867
-0.00250774
-0.00509013
-0.0024668
-0.00507314
-0.00242425
-0.00504649
-0.00238164
-0.00501049
-0.00233893
-0.0049667
-0.00229557
-0.00491396
-0.00225252
-0.00485509
-0.00220765
-0.00478853
-0.0021618
-0.00471577
-0.00211595
-0.0046366
-0.0020687
-0.00455019
-0.00202038
-0.00446029
-0.00197016
-0.00436386
-0.00191955
-0.00426202
-0.00186842
-0.0041541
-0.00181605
-0.0040431
-0.00176138
-0.00392788
-0.00170636
-0.00380717
-0.00165248
-0.00368293
-0.00159837
-0.00355646
-0.00154285
-0.00342423
-0.00149128
-0.00328872
-0.00144197
-0.00315066
-0.00139278
-0.0030114
-0.00134856
-0.00130964
-0.00286697
-0.00288878
-0.00301521
0.00264465
-0.00311588
-0.0029852
-0.00331833
-0.00295546
-0.00350909
-0.0029228
-0.00367857
-0.00289533
-0.00382953
-0.00286622
-0.00396751
-0.00283415
-0.00409027
-0.00280531
-0.0041965
-0.00277815
-0.0042895
-0.00274671
-0.00437217
-0.0027165
-0.00443799
-0.00269042
-0.00449118
-0.00266031
-0.0045344
-0.00262949
-0.00456764
-0.00259832
-0.00458733
-0.00256935
-0.00459919
-0.00253575
-0.00460059
-0.00250634
-0.00459434
-0.00247304
-0.00457696
-0.00244163
-0.00455188
-0.00240672
-0.00451831
-0.00237249
-0.00447598
-0.0023379
-0.00442958
-0.00229892
-0.00437513
-0.00226211
-0.00431469
-0.00222224
-0.00424739
-0.00218325
-0.00417484
-0.00214125
-0.00409701
-0.00209821
-0.00401291
-0.00205426
-0.00392382
-0.00200864
-0.00383148
-0.00196076
-0.00373498
-0.00191255
-0.00363282
-0.00186354
-0.00352612
-0.00181306
-0.00341706
-0.00176155
-0.00330501
-0.00171042
-0.00318766
-0.00166019
-0.00306885
-0.00161009
-0.00294742
-0.00156341
-0.00282226
-0.00151794
-0.0026941
-0.00147672
-0.00143924
-0.0025645
-0.00261027
0.00239085
-0.00279578
-0.00281331
-0.00278216
-0.0030002
-0.00276858
-0.00316838
-0.00275462
-0.00332324
-0.00274047
-0.00346207
-0.00272739
-0.0035851
-0.00271112
-0.00369233
-0.00269809
-0.00379009
-0.00268039
-0.00387455
-0.00266224
-0.0039474
-0.00264365
-0.0040096
-0.00262822
-0.00405821
-0.0026117
-0.00409643
-0.00259127
-0.00412318
-0.00257158
-0.00414328
-0.00254924
-0.00415378
-0.00252526
-0.00415462
-0.00250551
-0.00414692
-0.00248073
-0.00413305
-0.00245551
-0.00411087
-0.00242889
-0.00407831
-0.00240506
-0.00404418
-0.00237203
-0.00399954
-0.00234356
-0.00394888
-0.00231277
-0.00389255
-0.00227857
-0.00383155
-0.00224425
-0.00376537
-0.00220743
-0.00369297
-0.00217061
-0.00361723
-0.00213
-0.00353731
-0.00208857
-0.00345118
-0.00204689
-0.00336225
-0.00200147
-0.00326986
-0.00195593
-0.00317311
-0.00190981
-0.00307263
-0.00186202
-0.00297009
-0.00181296
-0.00286542
-0.00176487
-0.00275631
-0.0017192
-0.00264607
-0.00167364
-0.00253253
-0.00163148
-0.00241641
-0.00159285
-0.00229976
-0.00155589
-0.00554968
2.79226e-06
-0.000678879
-0.00509063
-1.07749e-05
-0.000448265
-0.00471878
-4.12831e-05
-0.000330569
-0.00440044
-7.57146e-05
-0.000242616
-0.00411796
-0.00011427
-0.000168207
-0.00385996
-0.0001567
-0.000101298
-0.00362299
-0.000199094
-3.78771e-05
-0.00340166
-0.000244229
2.29012e-05
-0.00319236
-0.00029002
8.07264e-05
-0.00299305
-0.000337265
0.000137958
-0.00280301
-0.000385304
0.000195265
-0.00262037
-0.000435645
0.000253008
-0.00244467
-0.000486662
0.000310957
-0.00227618
-0.000538533
0.000370047
-0.00211475
-0.000592084
0.000430661
-0.00195904
-0.000647405
0.000491687
-0.00180936
-0.000704462
0.000554783
-0.0016676
-0.000762381
0.000620626
-0.00153185
-0.00082298
0.000687224
-0.00140414
-0.000885235
0.000757527
-0.00128378
-0.000950039
0.000829681
-0.00117196
-0.0010162
0.000904382
-0.00106809
-0.00108626
0.000982385
-0.000974429
-0.00115774
0.00106409
-0.000890488
-0.00123236
0.00114842
-0.000817147
-0.00131068
0.00123734
-0.000755628
-0.0013912
0.00132968
-0.000705351
-0.00147629
0.00142601
-0.000668495
-0.00156398
0.00152712
-0.000645795
-0.00165561
0.00163291
-0.000637352
-0.00175198
0.00174354
-0.000645424
-0.00185172
0.00185979
-0.00066993
-0.00195614
0.00198064
-0.000712797
-0.00206518
0.00210805
-0.00077491
-0.00217937
0.00224148
-0.000857498
-0.00229853
0.00238112
-0.000961784
-0.00242325
0.00252753
-0.00108917
-0.00255385
0.00268124
-0.00124111
-0.00269005
0.002842
-0.00141864
-0.00283336
0.00301089
-0.0016241
-0.00298252
0.00318797
-0.00185915
-0.0031388
0.00337384
-0.00330322
0.00356835
-0.00212428
-0.00491427
-0.000358749
-0.00458391
-0.000341134
-0.00428552
-0.000339676
-0.00401414
-0.00034709
-0.00376486
-0.000363553
-0.00353367
-0.000387886
-0.00331754
-0.00041523
-0.00311272
-0.000449041
-0.00291881
-0.000483938
-0.00273411
-0.000521956
-0.00255615
-0.000563267
-0.00238694
-0.000604857
-0.00222426
-0.000649336
-0.00206867
-0.000694129
-0.0019185
-0.000742255
-0.00177538
-0.000790519
-0.00163907
-0.00084077
-0.00150882
-0.000892634
-0.00138526
-0.000946543
-0.00126894
-0.00100155
-0.00116078
-0.0010582
-0.00105996
-0.00111702
-0.000967623
-0.00117859
-0.000883897
-0.00124147
-0.000809898
-0.00130636
-0.000746087
-0.00137449
-0.000692327
-0.00144496
-0.000650259
-0.00151836
-0.000620327
-0.00159391
-0.000602695
-0.00167324
-0.000599754
-0.00175492
-0.000610629
-0.00184084
-0.000637207
-0.00192956
-0.000680391
-0.002022
-0.000740699
-0.00211906
-0.000819572
-0.00221966
-0.000917776
-0.00232504
-0.00103679
-0.00243483
-0.00117735
-0.0025495
-0.00134166
-0.00266905
-0.00152987
-0.00279431
-0.00174398
-0.00292469
-0.00306111
-0.00198609
-0.00442001
-0.000594665
-0.00418133
-0.000579818
-0.00394943
-0.000571571
-0.00372337
-0.000573154
-0.00350474
-0.000582184
-0.00329625
-0.000596375
-0.00309567
-0.000615816
-0.00290475
-0.000639955
-0.002721
-0.000667692
-0.00254509
-0.000697866
-0.00237677
-0.000731584
-0.00221464
-0.000766994
-0.00205962
-0.000804356
-0.00191074
-0.000843
-0.00176886
-0.000884141
-0.0016331
-0.000926275
-0.00150457
-0.000969306
-0.00138244
-0.00101476
-0.00126731
-0.00106168
-0.00115969
-0.00110916
-0.00105908
-0.00115881
-0.000966439
-0.00120967
-0.00088254
-0.00126249
-0.000806704
-0.00131731
-0.000740006
-0.00137306
-0.000682636
-0.00143186
-0.000635479
-0.00149212
-0.000599414
-0.00155442
-0.000574356
-0.00161897
-0.000561265
-0.00168633
-0.000560616
-0.00175557
-0.000573829
-0.00182763
-0.000600836
-0.00190255
-0.000642782
-0.00198005
-0.000700827
-0.00206102
-0.000775226
-0.00214526
-0.00086711
-0.00223316
-0.000977896
-0.00232405
-0.00110874
-0.00241865
-0.00125956
-0.00251823
-0.00143305
-0.00262082
-0.00162913
-0.0027286
-0.00284073
-0.00184951
-0.00388225
-0.000800381
-0.00368061
-0.000781463
-0.00348224
-0.000769937
-0.00328773
-0.000767659
-0.00310129
-0.000768623
-0.00291994
-0.000777728
-0.00274396
-0.0007918
-0.00257542
-0.000808489
-0.0024131
-0.000830019
-0.00225619
-0.000854771
-0.00210629
-0.000881485
-0.00196159
-0.000911699
-0.00182288
-0.000943066
-0.00169037
-0.00097551
-0.00156312
-0.00101139
-0.00144212
-0.00104727
-0.00132683
-0.00108459
-0.0012177
-0.0011239
-0.00111596
-0.00116341
-0.0010202
-0.00120493
-0.000931873
-0.00124714
-0.000850514
-0.00129102
-0.000776748
-0.00133626
-0.000711025
-0.00138303
-0.000653086
-0.001431
-0.000604415
-0.00148053
-0.000565301
-0.00153123
-0.000535474
-0.00158425
-0.00051586
-0.00163858
-0.000507791
-0.0016944
-0.000511138
-0.00175223
-0.000526521
-0.00181224
-0.000554986
-0.00187409
-0.000596342
-0.00193869
-0.000652199
-0.00200516
-0.000723555
-0.00207391
-0.000810645
-0.00214607
-0.000914477
-0.00222021
-0.0010354
-0.00229773
-0.00117554
-0.0023781
-0.00133445
-0.00246191
-0.00151471
-0.00254834
-0.00263895
-0.00171649
-0.00344061
-0.000976525
-0.00326564
-0.000956426
-0.00309215
-0.000943426
-0.00292419
-0.000935619
-0.00275809
-0.000934724
-0.00259772
-0.0009381
-0.00244401
-0.000945514
-0.00229317
-0.000959324
-0.00214753
-0.000975664
-0.00200786
-0.000994437
-0.0018723
-0.00101705
-0.00174294
-0.00104106
-0.00161785
-0.00106815
-0.00149735
-0.00109601
-0.00138325
-0.00112549
-0.00127486
-0.00115566
-0.00117101
-0.00118844
-0.00107373
-0.00122118
-0.000982301
-0.00125484
-0.000897512
-0.00128971
-0.000818766
-0.00132589
-0.00074605
-0.00136374
-0.000681358
-0.00140095
-0.000623717
-0.00144067
-0.00057394
-0.00148078
-0.000532203
-0.00152227
-0.000499009
-0.00156443
-0.000474872
-0.00160839
-0.000460326
-0.00165313
-0.00045559
-0.00169913
-0.000461595
-0.00174622
-0.000478854
-0.00179499
-0.000507252
-0.00184569
-0.00054845
-0.0018975
-0.000602558
-0.00195105
-0.000669929
-0.00200653
-0.000751756
-0.00206424
-0.000848493
-0.00212348
-0.000961454
-0.00218477
-0.00109083
-0.00224872
-0.00123796
-0.00231477
-0.00140346
-0.00238285
-0.00245409
-0.00158832
-0.00305692
-0.00113458
-0.00289957
-0.00111377
-0.00274675
-0.00109624
-0.00259587
-0.00108651
-0.00245045
-0.00108014
-0.00230755
-0.00108101
-0.00216856
-0.0010845
-0.0020339
-0.00109399
-0.00190433
-0.00110523
-0.0017781
-0.00112066
-0.00165728
-0.00113788
-0.00153997
-0.00115836
-0.00142835
-0.00117978
-0.00132064
-0.00120372
-0.00121861
-0.00122752
-0.00112034
-0.00125393
-0.00102805
-0.00128074
-0.000941568
-0.00130766
-0.000860145
-0.00133626
-0.000783937
-0.00136592
-0.000714232
-0.00139559
-0.000651345
-0.00142663
-0.000594105
-0.00145819
-0.000543462
-0.00149131
-0.000500246
-0.00152399
-0.00046511
-0.00155741
-0.000437122
-0.00159241
-0.000417451
-0.00162806
-0.000406982
-0.0016636
-0.000405324
-0.00170079
-0.000413347
-0.0017382
-0.000431721
-0.00177661
-0.000460684
-0.00181673
-0.000500926
-0.00185725
-0.000552348
-0.00189963
-0.000616359
-0.00194252
-0.00069362
-0.00198698
-0.000784304
-0.00203279
-0.000888774
-0.0020803
-0.00100833
-0.00212916
-0.0011441
-0.00217901
-0.00129606
-0.00223089
-0.00228454
-0.00146561
-0.00272412
-0.00127743
-0.00258537
-0.00125251
-0.00244756
-0.00123406
-0.00231242
-0.00122164
-0.00218114
-0.00121141
-0.00205292
-0.00120922
-0.00192731
-0.00121011
-0.00180798
-0.00121332
-0.00169037
-0.00122284
-0.00157742
-0.00123362
-0.0014676
-0.0012477
-0.00136272
-0.00126324
-0.00126184
-0.00128066
-0.00116578
-0.00129978
-0.0010731
-0.0013202
-0.000985735
-0.00134129
-0.000903316
-0.00136316
-0.000825249
-0.00138572
-0.000753029
-0.00140848
-0.000685819
-0.00143313
-0.000623985
-0.00145742
-0.000567391
-0.00148322
-0.000517044
-0.00150854
-0.000473273
-0.00153508
-0.000435922
-0.00156134
-0.000404641
-0.00158869
-0.00038156
-0.00161549
-0.000365926
-0.00164369
-0.000358228
-0.0016713
-0.000359475
-0.00169954
-0.000369172
-0.0017285
-0.00038793
-0.00175785
-0.000416242
-0.00178842
-0.000454971
-0.00181853
-0.000504366
-0.00185024
-0.000564681
-0.00188221
-0.000636985
-0.00191468
-0.000721166
-0.00194861
-0.000818581
-0.00198288
-0.000929362
-0.00201838
-0.00105454
-0.00205383
-0.00119413
-0.0020913
-0.00212849
-0.00135018
-0.00243637
-0.00140555
-0.00230904
-0.00137985
-0.00218495
-0.00135815
-0.00206403
-0.00134257
-0.00194475
-0.0013307
-0.00182917
-0.0013248
-0.00171743
-0.00132186
-0.00160783
-0.00132292
-0.00150243
-0.00132824
-0.00140019
-0.00133585
-0.0013027
-0.00134519
-0.00120745
-0.0013585
-0.00111694
-0.00137117
-0.00102937
-0.00138735
-0.000946965
-0.00140261
-0.000868547
-0.00141971
-0.000794704
-0.001437
-0.000725267
-0.00145516
-0.000659444
-0.00147431
-0.000599707
-0.00149287
-0.000544289
-0.00151284
-0.000493881
-0.00153363
-0.000449736
-0.00155268
-0.000410857
-0.00157396
-0.000378478
-0.00159372
-0.000352475
-0.00161469
-0.00033285
-0.00163512
-0.000320096
-0.00165645
-0.000315139
-0.00167625
-0.00031783
-0.00169685
-0.000328349
-0.00171798
-0.000347444
-0.00173876
-0.000375358
-0.0017605
-0.000411688
-0.0017822
-0.000458837
-0.00180309
-0.000515889
-0.00182516
-0.000582889
-0.00184768
-0.00066146
-0.00187004
-0.000751512
-0.00189283
-0.000853942
-0.00191595
-0.000969235
-0.00193853
-0.00109823
-0.00196231
-0.00198604
-0.00124069
-0.00218228
-0.00152303
-0.00206833
-0.0014938
-0.00195526
-0.00147122
-0.00184588
-0.00145194
-0.00173891
-0.00143767
-0.00163378
-0.00142993
-0.00153237
-0.00142326
-0.00143362
-0.00142167
-0.00133838
-0.00142348
-0.00124529
-0.00142894
-0.00115674
-0.00143374
-0.00107135
-0.00144388
-0.00098868
-0.00145384
-0.000909811
-0.00146622
-0.000836539
-0.00147588
-0.000765897
-0.00149035
-0.000698448
-0.00150445
-0.000636201
-0.00151741
-0.0005785
-0.00153201
-0.000523727
-0.00154764
-0.000473931
-0.00156264
-0.000428352
-0.00157921
-0.000390065
-0.00159097
-0.000355955
-0.00160807
-0.000327668
-0.00162201
-0.000305097
-0.00163726
-0.00028791
-0.00165231
-0.000278914
-0.00166544
-0.00027535
-0.00167982
-0.000279733
-0.00169247
-0.000290699
-0.00170701
-0.000309286
-0.00172017
-0.000336143
-0.00173364
-0.000371726
-0.00174661
-0.000416215
-0.0017586
-0.000469414
-0.00177196
-0.000532623
-0.00178447
-0.000605083
-0.00179758
-0.000688622
-0.00180929
-0.000783387
-0.00182119
-0.000889218
-0.0018327
-0.00100757
-0.00184395
-0.001856
-0.00113761
0.00119758
-0.00117698
0.00128479
-0.00130539
0.00110177
-0.00110838
0.00120419
0.00101752
-0.00103995
0.0011242
0.00094426
-0.000973056
0.00104632
0.000882344
-0.000907213
0.00096913
0.000830693
-0.000842839
0.000894489
0.000788853
-0.000780636
0.000822476
0.000756932
-0.000720163
0.000752084
0.000733407
-0.000661449
0.000684974
0.000717971
-0.000604851
0.000620287
0.000709579
-0.000550565
0.000558957
0.000707923
-0.000498381
0.000500037
0.000711659
-0.000447716
0.000443981
0.000720752
-0.000400089
0.000390996
0.000733674
-0.0003535
0.000340578
0.000750525
-0.00030985
0.000292998
0.000769655
-0.000267793
0.000248664
0.00079093
-0.000227819
0.000206544
0.000813114
-0.000189386
0.000167202
0.000835995
-0.000153388
0.000130507
0.000859093
-0.000118881
9.57837e-05
0.000881421
-8.6131e-05
6.38031e-05
0.000902551
-5.52018e-05
3.40717e-05
0.000921851
-2.55103e-05
6.21009e-06
0.000938447
2.68858e-06
-1.92838e-05
0.000952627
2.89434e-05
-4.31231e-05
0.000962995
5.44035e-05
-6.47716e-05
0.00097
7.80042e-05
-8.50093e-05
0.000972413
0.000101058
-0.000103471
0.000970041
0.000122625
-0.000120252
0.00096243
0.000143181
-0.00013557
0.000949165
0.000162965
-0.0001497
0.000929705
0.000182142
-0.000162682
0.000903086
0.000200721
-0.000174102
0.00086864
0.000218986
-0.00018454
0.000825123
0.000237395
-0.000193878
0.000770355
0.000257463
-0.000202694
0.000701458
0.000279695
-0.000210796
0.000612752
0.000307494
-0.000218788
0.000493614
0.000347134
-0.000227995
0.000325185
0.000410435
-0.000242005
6.52145e-05
0.000528959
-0.000268988
0.00078245
-0.000394519
-0.000322716
0.00109036
-0.00107976
-0.00118759
0.00100284
-0.00102085
0.000925859
-0.000962973
0.000858466
-0.000905663
0.000800887
-0.000849634
0.000753006
-0.000794958
0.000713639
-0.000741269
0.000682886
-0.00068941
0.000659837
-0.000638399
0.000643928
-0.000588943
0.000634254
-0.00054089
0.000630703
-0.000494831
0.000632799
-0.000449812
0.00063904
-0.00040633
0.000649778
-0.000364237
0.000663645
-0.000323717
0.000680618
-0.000284766
0.000699625
-0.000246827
0.000720382
-0.000210143
0.000741974
-0.00017498
0.000764149
-0.000141055
0.000786218
-0.000108201
0.000807274
-7.62571e-05
0.000827384
-4.56206e-05
0.000845555
-1.54828e-05
0.000861378
1.31211e-05
0.000874146
4.16357e-05
0.000883027
6.9123e-05
0.000888146
9.59391e-05
0.000888059
0.000122713
0.000882573
0.000148666
0.000870619
0.00017492
0.000851305
0.000201455
0.000823545
0.000228482
0.000785296
0.000257235
0.000734011
0.00028868
0.000667437
0.000324037
0.000579907
0.000367224
0.000464979
0.000422422
0.00031213
0.000499984
0.000107874
0.000614691
-0.000162851
0.000799684
0.00110274
-0.00048314
0.00098896
-0.000990903
-0.00107781
0.000909667
-0.000941559
0.000839541
-0.000892846
0.000778548
-0.00084467
0.000726559
-0.000797646
0.000682373
-0.000750772
0.000646101
-0.000704996
0.000617152
-0.000660461
0.000594958
-0.000616205
0.000579412
-0.000573397
0.000570094
-0.000531573
0.000565642
-0.000490379
0.000565839
-0.000450008
0.00057093
-0.000411422
0.000579521
-0.000372828
0.000591423
-0.000335618
0.000605648
-0.000298991
0.000622001
-0.00026318
0.000640485
-0.000228627
0.000659855
-0.000194351
0.000679533
-0.000160733
0.000699256
-0.000127923
0.000718532
-9.55339e-05
0.000736468
-6.35561e-05
0.000753249
-3.22634e-05
0.000767128
-7.57839e-07
0.000778409
3.0354e-05
0.000786354
6.11783e-05
0.000790003
9.22899e-05
0.000788803
0.000123913
0.000781681
0.000155788
0.000767831
0.00018877
0.000745631
0.000223655
0.000714142
0.000259971
0.000671188
0.000300189
0.000614431
0.000345437
0.000540127
0.000398341
0.000445087
0.000462264
0.000322415
0.000545094
0.000167242
0.000655156
-2.90834e-05
0.000811017
-0.000263445
0.00103405
0.00135363
-0.000514338
0.00089585
-0.000910561
-0.000976192
0.000823738
-0.000869446
0.000760068
-0.000829176
0.000703942
-0.000788545
0.000655706
-0.00074941
0.00061469
-0.000709755
0.00058077
-0.000671077
0.000553452
-0.000633142
0.000532184
-0.000594937
0.000516812
-0.000558025
0.000506634
-0.000521395
0.00050131
-0.000485054
0.000500467
-0.000449166
0.000503095
-0.000414049
0.000509633
-0.000379366
0.000518893
-0.000344878
0.00053074
-0.000310838
0.000544747
-0.000277187
0.000560028
-0.000243908
0.000576369
-0.000210692
0.000593864
-0.000178227
0.00061113
-0.000145189
0.000628085
-0.000112489
0.000644312
-7.97833e-05
0.000658671
-4.66218e-05
0.000671512
-1.35989e-05
0.000681519
2.03469e-05
0.000688141
5.45559e-05
0.000690827
8.96043e-05
0.000688524
0.000126217
0.000680565
0.000163746
0.000665741
0.000203594
0.000643209
0.000246188
0.000610767
0.000292412
0.000567075
0.000343881
0.000510101
0.000402411
0.000437082
0.00047136
0.000343843
0.000555503
0.000227461
0.000661476
8.24972e-05
0.00080012
-9.14025e-05
0.000984916
-0.000295094
0.00123774
0.00157208
-0.000513538
0.000809564
-0.000837974
-0.000882151
0.000744366
-0.000804248
0.000685879
-0.00077069
0.000635158
-0.000737823
0.000590494
-0.000704746
0.000553184
-0.000672445
0.000521725
-0.000639618
0.000495302
-0.000606719
0.000475509
-0.000575144
0.000460023
-0.000542539
0.000449579
-0.000510951
0.000443545
-0.000479019
0.000441481
-0.000447102
0.000442989
-0.000415558
0.000447488
-0.000383864
0.000454584
-0.000351975
0.000464227
-0.00032048
0.00047576
-0.00028872
0.000488822
-0.00025697
0.000503075
-0.000224945
0.000517617
-0.000192769
0.000532639
-0.00016021
0.000547652
-0.000127503
0.000561684
-9.38144e-05
0.000574552
-5.94901e-05
0.000585565
-2.46116e-05
0.000594441
1.14702e-05
0.000599941
4.90562e-05
0.000601778
8.77668e-05
0.000599402
0.000128593
0.000591393
0.000171756
0.000576762
0.000218225
0.000554604
0.000268346
0.000523583
0.000323433
0.00048217
0.000385294
0.000427813
0.000456769
0.000358823
0.000540349
0.000272501
0.000641826
0.000165097
0.00076888
3.47881e-05
0.000930428
-0.000121118
0.00114082
-0.000300245
0.00141686
0.00176945
-0.000497621
0.00073093
-0.000771214
-0.00079769
0.000671496
-0.000744814
0.00061861
-0.000717804
0.000572278
-0.000691491
0.000531699
-0.000664168
0.000496514
-0.000637259
0.00046684
-0.000609944
0.000443162
-0.000583041
0.000423464
-0.000555446
0.000408945
-0.000528019
0.000398629
-0.000500636
0.000391766
-0.000472157
0.000388858
-0.000444193
0.00038908
-0.00041578
0.00039221
-0.000386994
0.000397847
-0.000357612
0.000405913
-0.000328547
0.000415382
-0.000298188
0.000426129
-0.000267718
0.000438313
-0.000237128
0.000450969
-0.000205425
0.00046393
-0.000173172
0.000476636
-0.000140209
0.000489169
-0.000106347
0.000500537
-7.0859e-05
0.000510132
-3.4206e-05
0.000517752
3.84949e-06
0.000522685
4.41234e-05
0.000524357
8.60954e-05
0.000521947
0.000131003
0.000514299
0.000179404
0.000500923
0.000231601
0.000480314
0.000288955
0.000451244
0.000352503
0.000412497
0.000424041
0.00036238
0.000506885
0.000298782
0.000603948
0.000219696
0.000720912
0.000122205
0.000866372
4.48207e-06
0.00104815
-0.000135728
0.00128103
-0.000296823
0.00157796
0.00194761
-0.000474981
0.000659795
-0.000711454
-0.000719555
0.000605926
-0.000690945
0.000557815
-0.000669693
0.000514835
-0.000648511
0.00047773
-0.000627062
0.000445756
-0.000605285
0.000418565
-0.000582752
0.000395885
-0.000560362
0.000377597
-0.000537158
0.000363369
-0.000513792
0.000353038
-0.000490304
0.000346456
-0.000465575
0.000343055
-0.000440793
0.0003421
-0.000414825
0.000344183
-0.000389076
0.000348661
-0.00036209
0.000354855
-0.00033474
0.000362897
-0.00030623
0.000372453
-0.000277273
0.000382213
-0.000246889
0.000393211
-0.000216423
0.000404425
-0.000184387
0.000415496
-0.00015128
0.000426169
-0.000117019
0.000436228
-8.09183e-05
0.000444993
-4.29709e-05
0.000451623
-2.77984e-06
0.000456107
3.96388e-05
0.000457305
8.48971e-05
0.00045518
0.000133128
0.000448447
0.000186136
0.000436415
0.000243633
0.000417857
0.000307513
0.000391482
0.000378878
0.000355623
0.000459899
0.000310099
0.00055241
0.000251885
0.000662161
0.000179805
0.000792992
9.1251e-05
0.000954925
-1.50117e-05
0.00115441
-0.000140996
0.00140702
-0.000287929
0.00172489
0.00210985
-0.000450173
0.000594991
-0.000657271
-0.000649174
0.000545752
-0.000641705
0.000501987
-0.000625928
0.000463556
-0.00061008
0.000429225
-0.000592731
0.000399522
-0.000575582
0.0003746
-0.000557831
0.00035354
-0.000539302
0.000336451
-0.000520069
0.000323123
-0.000500464
0.000313091
-0.000480272
0.000306193
-0.000458676
0.000302317
-0.000436917
0.000301329
-0.000413838
0.000302475
-0.000390222
0.000305712
-0.000365327
0.000311008
-0.000340037
0.000318017
-0.000313239
0.000325901
-0.000285157
0.000334751
-0.000255739
0.000343934
-0.000225605
0.000353671
-0.000194124
0.000363241
-0.000160851
0.00037277
-0.000126548
0.000381543
-8.96914e-05
0.000389455
-5.08833e-05
0.000395367
-8.69135e-06
0.000399042
3.59633e-05
0.00040033
8.36095e-05
0.000398399
0.000135059
0.000392509
0.000192026
0.000382003
0.00025414
0.000365311
0.000324205
0.000341504
0.000402685
0.000309343
0.00049206
0.000267515
0.000594238
0.000215054
0.000714622
0.000149118
0.000858928
6.94277e-05
0.00103462
-2.57039e-05
0.00124955
-0.000140275
0.00152159
-0.000275782
0.0018604
0.00225757
-0.000423493
0.000536552
-0.000585391
-0.000608432
0.000492375
-0.000597528
0.000452818
-0.000586371
0.000416827
-0.000574089
0.000386045
-0.000561948
0.000358894
-0.000548432
0.000335738
-0.000534675
0.00031613
-0.000519693
0.000300447
-0.000504386
0.000287507
-0.000487524
0.000277671
-0.000470436
0.000271021
-0.000452026
0.000266469
-0.000432365