/*--------------------------------*- C++ -*----------------------------------*\
| =========                 |                                                 |
| \\      /  F ield         | OpenFOAM: The Open Source CFD Toolbox           |
|  \\    /   O peration     | Version:  2.3.0                                 |
|   \\  /    A nd           | Web:      www.OpenFOAM.org                      |
|    \\/     M anipulation  |                                                 |
\*---------------------------------------------------------------------------*/
FoamFile
{
    version     2.0;
    format      ascii;
    class       surfaceScalarField;
    location    "5000";
    object      phi;
}
// * * * * * * * * * * * * * * * * * * * * * * * * * * * * * * * * * * * * * //

dimensions      [0 3 -1 0 0 0 0];

internalField   nonuniform List<scalar> 
13305
(
-0.0228563
-0.0224591
0.0255781
0.0197416
-0.0252963
-0.0184257
0.0208657
-0.0270962
-0.0150923
0.0168922
-0.0282581
-0.0123266
0.0134885
-0.0288069
-0.0100249
0.0105737
-0.0288117
-0.00810685
0.00811172
-0.0283753
-0.00651196
0.00607549
-0.0276142
-0.0051933
0.00443223
-0.026632
-0.00411126
0.00312911
-0.0255105
-0.00323633
0.00211489
-0.0243588
-0.0025344
0.00138265
-0.00197813
-0.023415
0.00103437
-0.0196159
-0.0200815
0.0172382
-0.0213248
-0.0167167
-0.0224819
-0.0139353
-0.0231781
-0.0116303
-0.0234679
-0.00973503
-0.0234016
-0.0081732
-0.0230187
-0.0068948
-0.0223641
-0.00584792
-0.0214761
-0.00499925
-0.0203988
-0.00431366
-0.0191722
-0.00376102
-0.00331973
-0.0178305
-0.0171055
-0.018155
0.015179
-0.0184199
-0.0154024
-0.0192279
-0.0131273
-0.0196147
-0.0112435
-0.0196623
-0.00968752
-0.0194319
-0.00840352
-0.0189825
-0.00734427
-0.018358
-0.00647236
-0.0176022
-0.00575511
-0.0167486
-0.00516723
-0.0158217
-0.00468789
-0.00429938
-0.0148421
-0.01498
-0.0165279
0.013353
-0.0160764
-0.0143061
-0.0167337
-0.0124699
-0.017033
-0.0109442
-0.017043
-0.00967751
-0.0168175
-0.00862909
-0.0164044
-0.00775738
-0.0158439
-0.0070328
-0.0151668
-0.00643228
-0.0143993
-0.00593474
-0.0135648
-0.00552232
-0.00518358
-0.0126806
-0.0131821
-0.0151284
0.0117826
-0.0141139
-0.0133743
-0.014666
-0.0119178
-0.014909
-0.0107012
-0.014898
-0.00968847
-0.0146895
-0.00883764
-0.0143184
-0.00812848
-0.0138184
-0.00753282
-0.0132186
-0.00703206
-0.0125412
-0.00661218
-0.0118021
-0.0062614
-0.00596799
-0.0110177
-0.0116452
-0.0138945
0.0104114
-0.0124663
-0.0125532
-0.0129532
-0.011431
-0.0131662
-0.0104882
-0.0131569
-0.00969774
-0.0129687
-0.00902592
-0.0126379
-0.00845926
-0.0121916
-0.00797907
-0.0116545
-0.00756918
-0.0110448
-0.00722186
-0.010379
-0.00692726
-0.00667691
-0.00967006
-0.0103377
-0.0127975
0.00924067
-0.0110666
-0.0118242
-0.0115007
-0.0109969
-0.0116905
-0.0102984
-0.0116849
-0.00970339
-0.0115201
-0.00919068
-0.0112231
-0.00875626
-0.0108242
-0.00837802
-0.0103408
-0.00805259
-0.00979115
-0.00777147
-0.00919004
-0.00752836
-0.00731969
-0.00854726
-0.00920545
-0.0118217
0.00822967
-0.00986316
-0.0111665
-0.0102533
-0.0106068
-0.0104282
-0.0101235
-0.0104261
-0.00970548
-0.0102779
-0.00933888
-0.0100156
-0.00901858
-0.00965646
-0.00873717
-0.0092201
-0.00848894
-0.00872245
-0.00826912
-0.00817639
-0.00807443
-0.00790326
-0.00759282
-0.00822319
-0.0109384
0.00733992
-0.0088172
-0.0105725
-0.0091711
-0.0102529
-0.0093305
-0.00996405
-0.00933053
-0.00970546
-0.00920096
-0.00946844
-0.0089652
-0.00925434
-0.00864261
-0.00905976
-0.00824916
-0.00888239
-0.00779769
-0.0087206
-0.00730142
-0.0085707
-0.00843416
-0.00677052
-0.00735905
-0.0101409
0.00656155
-0.00790082
-0.0100308
-0.00822396
-0.00992972
-0.00837184
-0.00981617
-0.00837424
-0.00970306
-0.00825686
-0.00958582
-0.0080459
-0.0094653
-0.00775604
-0.00934963
-0.00740123
-0.0092372
-0.00699172
-0.0091301
-0.00653963
-0.00902279
-0.00605644
-0.00891735
-0.0209129
-0.00179699
-0.000705177
-0.0187944
-0.00197878
-0.000139645
-0.0168153
-0.00227208
0.000292912
-0.0149315
-0.00267352
0.000789694
-0.0131509
-0.00320528
0.00142474
-0.0115118
-0.00389382
0.00225471
-0.0100739
-0.00477356
0.00333562
-0.00891388
-0.00588617
0.00472613
-0.0081106
-0.00728543
0.00648215
-0.0077415
-0.00903677
0.00866765
-0.00787992
-0.0112234
0.0113618
-0.0139547
0.0146759
-0.00860108
-0.0164232
-0.00320431
-0.0150192
-0.00338275
-0.01366
-0.00363136
-0.0123675
-0.00396602
-0.0111681
-0.00440462
-0.0100911
-0.00497087
-0.0091675
-0.00569713
-0.0084353
-0.00661837
-0.00793959
-0.00778114
-0.00773785
-0.00923851
-0.00790664
-0.0110546
-0.0133221
-0.00853929
-0.0138451
-0.00420127
-0.0128531
-0.00437473
-0.0118802
-0.00460431
-0.0109411
-0.00490512
-0.010052
-0.0052937
-0.00923662
-0.00578624
-0.00852584
-0.0064079
-0.00795872
-0.00718549
-0.00758407
-0.00815578
-0.00746222
-0.00936036
-0.00766216
-0.0108547
-0.0127127
-0.00827156
-0.0117904
-0.00509147
-0.0109332
-0.00523193
-0.0101146
-0.00542299
-0.00934638
-0.0056733
-0.00864342
-0.00599666
-0.00802299
-0.00640667
-0.00750689
-0.00692399
-0.00712418
-0.00756819
-0.0069119
-0.00836806
-0.00691549
-0.00935677
-0.00719364
-0.0105765
-0.0120839
-0.00782238
-0.0102318
-0.0058773
-0.00948239
-0.00598138
-0.00877879
-0.00612659
-0.00812878
-0.00632331
-0.00754479
-0.00658065
-0.00704273
-0.00690872
-0.0066425
-0.00732422
-0.00636844
-0.00784225
-0.00625215
-0.00848435
-0.00633401
-0.00927491
-0.00666434
-0.0102462
-0.011443
-0.00730524
-0.00896043
-0.00658694
-0.00829113
-0.00665068
-0.00766826
-0.00674946
-0.0071008
-0.00689078
-0.00660175
-0.0070797
-0.00618276
-0.00732771
-0.00586356
-0.00764343
-0.00566591
-0.0080399
-0.00561725
-0.00853301
-0.00575183
-0.00914033
-0.00611284
-0.00988519
-0.0108001
-0.00675572
-0.00790515
-0.00722905
-0.00730289
-0.00725293
-0.00674677
-0.00730559
-0.0062457
-0.00739184
-0.00581011
-0.00751528
-0.00545369
-0.00768413
-0.005192
-0.00790512
-0.00504633
-0.00818556
-0.00504032
-0.00853902
-0.00520587
-0.00897477
-0.00558036
-0.0095107
-0.0101676
-0.00621289
-0.00700967
-0.0078122
-0.00646543
-0.00779717
-0.00596657
-0.00780445
-0.00551976
-0.00783865
-0.00513504
-0.0079
-0.00482687
-0.0079923
-0.00460926
-0.00812273
-0.00449978
-0.00829505
-0.00452156
-0.00851724
-0.0047041
-0.00879223
-0.00508001
-0.00913479
-0.00955415
-0.00569348
-0.00624135
-0.00834137
-0.00574894
-0.00828958
-0.00529876
-0.00825464
-0.00489886
-0.00823855
-0.00455666
-0.0082422
-0.00428686
-0.0082621
-0.00410138
-0.0083082
-0.00401985
-0.00837658
-0.00405898
-0.00847811
-0.00424716
-0.00860406
-0.00461485
-0.00876709
-0.00896905
-0.00519996
-0.00557548
-0.00882233
-0.00512884
-0.00873622
-0.00472371
-0.00865977
-0.00436579
-0.00859647
-0.00405839
-0.0085496
-0.00382171
-0.00849877
-0.00366263
-0.00846729
-0.00360044
-0.00843877
-0.0036494
-0.00842915
-0.00383745
-0.008416
-0.00419107
-0.00841348
-0.00474385
-0.00841627
0.00433098
-0.00381606
0.00416568
-0.00468061
0.00405724
-0.00295646
0.0032302
0.00386018
-0.00210573
0.00230278
0.00370857
-0.00133625
0.00148785
0.00355539
-0.000674096
0.000827278
0.00335039
-0.00011541
0.000320399
0.00304326
0.000361154
-5.40275e-05
0.00258563
0.000783598
-0.000325966
0.00192434
0.00118468
-0.000523388
0.000995266
0.0016049
-0.000675828
-0.000296593
0.00209739
-0.000805526
0.00273311
-0.00211825
-0.000911445
0.00367973
-0.00339326
-0.00410254
0.00331698
-0.00259371
0.00301363
-0.00180239
0.002745
-0.00106762
0.00247267
-0.00040177
0.00215469
0.000202565
0.001751
0.000764847
0.00122507
0.00130951
0.000543899
0.00186585
-0.000316261
0.00246505
-0.00134939
0.00313052
0.00386042
-0.00247671
0.00298845
-0.00292257
-0.00345915
0.00257937
-0.00218464
0.00222774
-0.00145076
0.00191208
-0.000751963
0.00160172
-9.14079e-05
0.00126411
0.000540172
0.000868237
0.00116071
0.000386165
0.00179158
-0.000203975
0.00245599
-0.000912819
0.00317389
-0.00173984
0.00395753
0.00478674
-0.00266616
0.00236428
-0.00244855
-0.00283831
0.0019571
-0.00177746
0.00161061
-0.00110426
0.00130403
-0.000445389
0.00101117
0.000201453
0.000704044
0.000847291
0.000355899
0.00150886
-5.80176e-05
0.0022055
-0.000558042
0.00295601
-0.00116276
0.0037786
-0.00187924
0.00467402
0.00563119
-0.0027237
0.00184364
-0.00200585
-0.00228634
0.00146866
-0.00140248
0.00115349
-0.000789098
0.000878065
-0.000169962
0.000618977
0.000460539
0.000351227
0.00111504
5.03075e-05
0.00180977
-0.000306275
0.00256207
-0.000740942
0.00339068
-0.00127089
0.00430855
-0.0019179
0.00532102
0.00640587
-0.00269258
0.00142601
-0.00160643
-0.00182543
0.00109523
-0.00107171
0.000819595
-0.000513463
0.000580484
6.91473e-05
0.000356535
0.000684486
0.00012482
0.00134675
-0.000136219
0.00207081
-0.000448721
0.00287457
-0.000833577
0.00377553
-0.00131032
0.00478528
-0.00189781
0.00590851
0.0071171
-0.00260905
0.0010968
-0.0012583
-0.00144494
0.00081295
-0.000787856
0.000577098
-0.000277613
0.000372052
0.000274193
0.000179773
0.000876764
-2.15014e-05
0.00154802
-0.000251808
0.00230112
-0.000529695
0.00315246
-0.000873825
0.00411966
-0.00130628
0.00521773
-0.00184141
0.00644363
0.00777077
-0.00249508
0.00083763
-0.000965604
-0.00113032
0.000599661
-0.000549887
0.000400314
-7.82659e-05
0.000225184
0.000449322
6.02393e-05
0.00104171
-0.000115522
0.00172378
-0.000319817
0.00250541
-0.000571263
0.0034039
-0.00088376
0.00443215
-0.00127761
0.00561158
-0.00176985
0.00693587
0.00836798
-0.00236706
0.00063706
-0.00072232
-0.000880346
0.000438983
-0.00035181
0.000271026
8.96906e-05
0.000120875
0.000599472
-1.85463e-05
0.00118113
-0.00017322
0.00187845
-0.00035607
0.00268826
-0.000586522
0.00363435
-0.000868621
0.00471425
-0.00122653
0.00596948
-0.00167568
0.00738502
0.00891726
-0.00222496
0.000483179
-0.000518867
-0.000686635
0.000318067
-0.000186699
0.000174402
0.000233354
4.83202e-05
0.000725552
-6.52674e-05
0.00129471
-0.00020025
0.00201344
-0.000363992
0.002852
-0.00057368
0.00384404
-0.000830167
0.00497074
-0.00115975
0.00629906
-0.00157418
0.00779945
-0.00207241
0.00941549
-0.00290112
0.00397836
-0.0031955
-0.00404363
0.00557476
-0.00443225
-0.00526462
0.00685578
-0.0056348
-0.00633169
0.00800834
-0.00694126
-0.00717795
0.00928605
-0.0084398
-0.00775114
0.0107437
-0.0101705
-0.00801398
0.0124451
-0.0121822
-0.00790895
0.0144375
-0.0145426
-0.00737875
0.0167932
-0.0173234
-0.00635608
0.0195826
-0.0206053
-0.00475521
0.0228882
-0.0244891
0.0268089
-0.0290875
-0.0024766
-0.00345456
0.0049562
-0.00446822
0.00658842
-0.005553
0.00794056
-0.00648873
0.00894406
-0.00719913
0.00999646
-0.00765878
0.0112033
-0.00783219
0.0126185
-0.00767505
0.0142804
-0.00713666
0.0162548
-0.00614996
0.0185959
-0.00463875
0.021377
0.0246823
-0.00251213
-0.00364691
0.00593695
-0.00458787
0.00752938
-0.00552787
0.00888056
-0.00634348
0.00975967
-0.00696004
0.010613
-0.0073505
0.0115938
-0.00748061
0.0127486
-0.00731506
0.0141148
-0.00679938
0.0157391
-0.00587772
0.0176743
-0.00447314
0.0199724
0.0227093
-0.0025001
-0.00365189
0.00686515
-0.00454141
0.00841889
-0.00536942
0.00970857
-0.00608192
0.0104722
-0.0066192
0.0111503
-0.00695499
0.0119296
-0.00705914
0.0128527
-0.00689087
0.0139466
-0.00640829
0.0152565
-0.00555475
0.0168207
-0.0042636
0.0186813
0.0208994
-0.00245375
-0.00354985
0.00772241
-0.0043792
0.00924823
-0.005123
0.0104524
-0.00575473
0.0111039
-0.00622613
0.0116217
-0.00652017
0.0122236
-0.00660147
0.012934
-0.00644513
0.0137902
-0.00599803
0.0148094
-0.00521227
0.016035
-0.00402875
0.0174978
0.0192431
-0.0023725
-0.00339901
0.00851238
-0.00415833
0.0100076
-0.00483113
0.0111252
-0.00538925
0.011662
-0.00580893
0.0120414
-0.00606618
0.0124809
-0.00613911
0.013007
-0.00598755
0.0136386
-0.00558032
0.0144022
-0.00486177
0.0153164
-0.00378026
0.0164162
0.0177339
-0.00227098
-0.00321659
0.00923389
-0.00391304
0.010704
-0.00451357
0.0117257
-0.00501347
0.0121619
-0.00538678
0.0124147
-0.00561915
0.0127132
-0.00567935
0.0130672
-0.00554352
0.0135028
-0.00516926
0.0140279
-0.0045155
0.0146627
-0.00353257
0.0154333
0.0163558
-0.00215451
-0.00302355
0.00989038
-0.00364807
0.0113285
-0.00419217
0.0122698
-0.00463769
0.0126074
-0.00497609
0.0127531
-0.00518229
0.0129194
-0.00523741
0.0131223
-0.00511197
0.0133774
-0.00477091
0.0136869
-0.00417912
0.0140709
-0.00328195
0.0145361
0.0151063
-0.00203239
-0.00282988
0.0104953
-0.00339501
0.0118936
-0.00387901
0.0127538
-0.00427857
0.013007
-0.00458152
0.013056
-0.00476761
0.0131055
-0.0048158
0.0131705
-0.00470089
0.0132625
-0.00439434
0.0133803
-0.00385469
0.0135312
-0.00304417
0.0137256
0.0139667
-0.00190464
-0.00261232
0.0110352
-0.00310599
0.0123873
-0.00354155
0.0131893
-0.00392371
0.0133892
-0.00420855
0.0133408
-0.00437889
0.0132758
-0.00442225
0.0132138
-0.00431752
0.0131577
-0.00403827
0.0131011
-0.00355239
0.0130453
-0.00281468
0.0129879
0.0129334
-0.00178137
0.00259311
-0.00155878
0.00503588
-0.00106011
0.00762349
-0.000472741
0.0103784
0.000374245
0.0131701
0.00164049
0.0157982
0.00344743
0.0180433
0.00586656
0.0197049
0.00891207
0.0206387
0.0125548
0.0208129
0.016718
0.0203444
0.0213342
0.0264635
0.0194589
-0.000188265
-0.00137047
0.000328633
-0.00157696
0.00141077
-0.00155487
0.00304771
-0.00126266
0.00524904
-0.000560849
0.00798631
0.00071019
0.0110741
0.0027788
0.0141553
0.00583081
0.0167931
0.00991707
0.0185983
0.0149127
0.0193816
0.0205509
0.0266008
0.0192443
-0.000109828
-0.00126067
-0.000177281
-0.0015095
-8.38089e-05
-0.00164837
0.000311536
-0.00165799
0.00120454
-0.00145386
0.002795
-0.00088025
0.00520694
0.000366864
0.00834762
0.00269014
0.0118238
0.00644092
0.0150112
0.0117253
0.0172896
0.0182726
0.0255544
0.0183359
-1.88444e-05
-0.0012418
9.16162e-06
-0.00153747
9.58796e-05
-0.00173508
0.000285417
-0.0018475
0.000655103
-0.00182354
0.0013382
-0.00156333
0.00256874
-0.000863672
0.00461756
0.000641332
0.00756866
0.00348982
0.0110789
0.00821508
0.0143906
0.0149609
0.0232196
0.0167253
-1.59425e-05
-0.00122588
-1.37228e-05
-0.00153968
2.38247e-05
-0.00177264
0.000120191
-0.00194386
0.000317549
-0.0020209
0.000688025
-0.00193379
0.00136951
-0.00154515
0.00259689
-0.000586044
0.00466213
0.0014246
0.00767882
0.00519839
0.011253
0.0113867
0.0199547
0.0145179
-1.0905e-05
-0.00121494
2.1354e-07
-0.00155077
3.83582e-05
-0.00181078
0.000115349
-0.00202084
0.000254704
-0.00216026
0.000496993
-0.00217607
0.000921276
-0.00196943
0.00167471
-0.00133947
0.00300936
8.99497e-05
0.00523791
0.00296984
0.00841703
0.00820757
0.0164532
0.0119186
-3.38644e-06
-0.00121156
1.04239e-05
-0.00156457
4.43624e-05
-0.00184472
0.00010627
-0.00208273
0.000211962
-0.00226594
0.000388996
-0.0023531
0.000687039
-0.00226747
0.00120342
-0.00185585
0.00211306
-0.000819685
0.00370326
0.00137965
0.00627518
0.00563564
0.0129946
0.00973371
1.28952e-06
-0.00121281
2.0571e-05
-0.00158381
5.64393e-05
-0.00188057
0.000114241
-0.00214052
0.000205924
-0.00235762
0.000350423
-0.00249759
0.000580468
-0.00249751
0.000961591
-0.00223697
0.00161749
-0.00147558
0.00276513
0.000232008
0.00472523
0.00367554
0.010102
0.00761789
7.27464e-06
-0.00122009
3.04301e-05
-0.00160696
6.69343e-05
-0.00191708
0.000122406
-0.00219598
0.000205873
-0.00244109
0.000331555
-0.00262327
0.000523668
-0.00268962
0.000827693
-0.00254099
0.00133298
-0.00198085
0.00220082
-0.000635829
0.0037036
0.00217277
0.00758263
0.00622293
1.20165e-05
-0.00123207
3.67212e-05
-0.00163163
7.3695e-05
-0.00195404
0.000127439
-0.00224971
0.000205137
-0.00251878
0.000317943
-0.00273607
0.000484196
-0.00285587
0.000737066
-0.00279385
0.00114203
-0.00238581
0.00182125
-0.00131504
0.00299059
0.00100342
0.00560286
0.00497037
1.51562e-05
-0.00124722
4.03654e-05
-0.00165682
7.66642e-05
-0.00199034
0.000127788
-0.00230082
0.00019967
-0.00259066
0.000302188
-0.00283857
0.000449227
-0.0030029
0.00066631
-0.00301093
0.00100231
-0.0027218
0.00154984
-0.00186256
0.0024749
7.83813e-05
0.0040231
0.00405465
1.67147e-05
-0.0012639
4.10586e-05
-0.00168113
7.53544e-05
-0.00202462
0.000122927
-0.00234837
0.000189054
-0.00265678
0.0002817
-0.00293121
0.000412766
-0.00313396
0.000602259
-0.00320041
0.000888605
-0.00300814
0.00134484
-0.00231879
0.00210786
-0.000684624
0.00269462
0.00343634
1.65286e-05
-0.00128042
3.87605e-05
-0.00170334
7.00207e-05
-0.00205588
0.000113033
-0.00239137
0.00017244
-0.00271618
0.000254813
-0.00301357
0.000370082
-0.00324922
0.000534465
-0.00336478
0.000778162
-0.00325183
0.00115955
-0.00270016
0.00178872
-0.0013138
0.00162151
0.00286185
1.52075e-05
-0.0012956
3.49512e-05
-0.00172305
6.25977e-05
-0.00208352
0.000100789
-0.00242954
0.000153042
-0.00276843
0.000225269
-0.00308579
0.000325682
-0.00334963
0.000466664
-0.00350576
0.00067108
-0.00345623
0.000982476
-0.00301155
0.00148061
-0.00181191
0.000823984
0.00227814
1.36864e-05
-0.00130927
3.08441e-05
-0.00174018
5.5403e-05
-0.00210808
8.91504e-05
-0.00246327
0.000135506
-0.00281478
0.00019958
-0.00314985
0.000288669
-0.00343871
0.000413845
-0.00363092
0.000594584
-0.00363696
0.000867886
-0.00328485
0.00130405
-0.00224808
4.89883e-05
0.00207906
1.18854e-05
-0.00132113
2.65658e-05
-0.00175482
4.77327e-05
-0.00212924
7.70108e-05
-0.00249252
0.000117546
-0.00285531
0.000173606
-0.00320589
0.000251777
-0.00351687
0.000361525
-0.00374066
0.000519391
-0.00379482
0.000756801
-0.00352225
0.00113287
-0.00262414
-0.000515441
0.0016973
1.0061e-05
-0.00133118
2.24027e-05
-0.00176714
4.04742e-05
-0.0021473
6.59378e-05
-0.00251797
0.000101056
-0.00289042
0.00015008
-0.0032549
0.000218936
-0.00358572
0.000316387
-0.0038381
0.000457026
-0.00393544
0.000668021
-0.00373324
0.00100019
-0.00295631
-0.00111938
0.00160413
8.17214e-06
-0.00133933
1.82274e-05
-0.00177716
3.35021e-05
-0.00216257
5.50451e-05
-0.00253949
8.51505e-05
-0.00292052
0.000127341
-0.00329708
0.000186827
-0.00364519
0.000271305
-0.00392257
0.000393361
-0.00405749
0.000576975
-0.00391684
0.00086495
-0.00324427
-0.00153114
0.00127672
6.40835e-06
-0.00134572
1.45051e-05
-0.00178523
2.72052e-05
-0.00217527
4.54637e-05
-0.00255773
7.12267e-05
-0.00294628
0.000107607
-0.00333345
0.00015935
-0.00369693
0.000233619
-0.00399683
0.000342223
-0.00416608
0.000507387
-0.004082
0.000773489
-0.00351037
-0.00203426
0.00127662
4.69601e-06
-0.0013504
1.11035e-05
-0.00179161
2.15226e-05
-0.00218568
3.676e-05
-0.00257295
5.8477e-05
-0.00296799
8.93146e-05
-0.00336427
0.000133218
-0.00374082
0.000195968
-0.00405957
0.000286806
-0.00425691
0.000422866
-0.00421805
0.000636549
-0.00372404
-0.00236112
0.000963411
3.57998e-06
-0.00135396
8.84802e-06
-0.00179684
1.76949e-05
-0.00219452
3.08745e-05
-0.0025861
4.98398e-05
-0.00298695
7.7051e-05
-0.00339147
0.000116141
-0.0037799
0.000172741
-0.00411615
0.000255634
-0.00433979
0.000381089
-0.00434349
0.000581715
-0.00392465
-0.00271217
0.000932772
2.62749e-06
-0.00135657
6.96597e-06
-0.00180115
1.4452e-05
-0.002202
2.57483e-05
-0.00259738
4.22275e-05
-0.00300342
6.60425e-05
-0.00341527
0.000100437
-0.00381429
0.000150098
-0.0041658
0.000222412
-0.00441209
0.00033112
-0.00445218
0.000502454
-0.00409598
-0.00298794
0.000778233
2.03401e-06
-0.00135857
5.92346e-06
-0.00180501
1.25791e-05
-0.00220865
2.27238e-05
-0.0026075
3.75837e-05
-0.00301827
5.91895e-05
-0.00343685
9.05094e-05
-0.00384559
0.000135957
-0.00421123
0.0002024
-0.00447851
0.00030194
-0.00455171
0.00045751
-0.00425154
-0.00324748
0.000717066
1.81206e-06
-0.00136037
5.29265e-06
-0.00180846
1.13499e-05
-0.0022147
2.05359e-05
-0.00261667
3.41189e-05
-0.00303185
5.39594e-05
-0.00345668
8.28062e-05
-0.00387443
0.000124777
-0.00425319
0.000186371
-0.00454009
0.00027867
-0.004644
0.000423835
-0.00439669
-0.00348291
0.000659271
1.77476e-06
-0.00136211
4.99156e-06
-0.00181164
1.04515e-05
-0.00222015
1.89985e-05
-0.00262519
3.157e-05
-0.00304441
4.99596e-05
-0.00347505
7.67055e-05
-0.00390116
0.000115779
-0.00429224
0.000172979
-0.00459728
0.000258708
-0.00472971
0.000392696
-0.00453067
-0.00370337
0.000613168
1.5284e-06
-0.00136363
4.6793e-06
-0.00181477
9.84597e-06
-0.00222531
1.7755e-05
-0.00263308
2.94176e-05
-0.00305607
4.65595e-05
-0.00349218
7.15308e-05
-0.00392612
0.000107843
-0.00432854
0.000161072
-0.00465049
0.000240701
-0.00480933
0.000364747
-0.00465471
-0.00390616
0.000567541
1.47934e-06
-0.00136507
4.42353e-06
-0.00181768
9.28848e-06
-0.00223016
1.65727e-05
-0.00264035
2.74273e-05
-0.00306691
4.34813e-05
-0.00350821
6.69639e-05
-0.00394959
0.000101131
-0.0043627
0.000150864
-0.00470021
0.000225154
-0.00488361
0.000340716
-0.00477026
-0.00409754
0.000532078
1.81269e-06
-0.00136688
4.13358e-06
-0.00181999
8.46079e-06
-0.00223449
1.50754e-05
-0.00264694
2.53633e-05
-0.00307719
3.99811e-05
-0.00352282
6.16951e-05
-0.0039713
9.35276e-05
-0.00439452
0.000140223
-0.0047469
0.000209043
-0.00495242
0.000315729
-0.00487696
-0.00427239
0.00049059
1.49747e-06
-0.00136834
3.57663e-06
-0.00182203
7.24938e-06
-0.00223815
1.34518e-05
-0.00265313
2.21104e-05
-0.00308584
3.57014e-05
-0.0035364
5.54389e-05
-0.00399103
8.47508e-05
-0.00442382
0.000127676
-0.00478981
0.000191174
-0.00501592
0.000288203
-0.00497397
-0.00443591
0.0004517
9.73088e-07
-0.00136931
2.8578e-06
-0.0018239
6.08807e-06
-0.00224138
1.09489e-05
-0.00265797
1.87658e-05
-0.00309366
3.06571e-05
-0.00354828
4.85068e-05
-0.00400887
7.49716e-05
-0.00445028
0.000113714
-0.00482855
0.000170016
-0.00507221
0.000252232
-0.0050562
-0.0045436
0.000359913
6.31629e-07
-0.0013699
1.9399e-06
-0.00182517
4.49732e-06
-0.00224392
8.75255e-06
-0.00266221
1.57122e-05
-0.00310061
2.6051e-05
-0.00355861
4.24488e-05
-0.00402527
6.71414e-05
-0.00447497
0.00010406
-0.00486546
0.000159199
-0.00512736
0.000242144
-0.00513913
-0.00469182
0.000390352
5.8219e-07
-0.00137049
1.10983e-06
-0.00182569
2.91416e-06
-0.00224573
6.31257e-06
-0.0026656
1.16427e-05
-0.00310594
2.03781e-05
-0.00356733
3.42903e-05
-0.00403917
5.59023e-05
-0.00449657
8.92336e-05
-0.00489879
0.00013966
-0.00517777
0.000216592
-0.00521608
-0.00478624
0.000311018
-4.34572e-09
-0.00137044
2.59241e-07
-0.00182592
1.48998e-06
-0.00224694
3.68468e-06
-0.00266777
7.82215e-06
-0.00311007
1.52802e-05
-0.00357478
2.68216e-05
-0.00405071
4.55401e-05
-0.00451529
7.49703e-05
-0.00492821
0.000121376
-0.00522418
0.00019596
-0.00529066
-0.00492756
0.000337282
-5.69084e-07
-0.00136988
-5.2167e-07
-0.00182595
-1.97107e-07
-0.00224727
1.27475e-06
-0.00266923
4.35688e-06
-0.00311315
9.98915e-06
-0.00358041
1.96884e-05
-0.00406041
3.50555e-05
-0.00453065
5.90132e-05
-0.00495217
9.64174e-05
-0.00526159
0.000154716
-0.00534896
-0.0050113
0.000238481
-5.52421e-07
-0.00136928
-1.1822e-06
-0.00182529
-1.14851e-06
-0.00224729
-2.63155e-07
-0.0026701
2.27253e-06
-0.00311568
6.75434e-06
-0.00358488
1.50906e-05
-0.00406874
2.89556e-05
-0.00454451
5.15802e-05
-0.00497479
8.6736e-05
-0.00529674
0.000143419
-0.00540563
-0.00511152
0.00024366
-7.75074e-07
-0.00136851
-1.51139e-06
-0.00182455
-1.9516e-06
-0.00224685
-1.56391e-06
-0.00267049
-1.68141e-07
-0.00311708
3.57684e-06
-0.00358862
1.03289e-05
-0.00407549
2.24403e-05
-0.00455662
4.22455e-05
-0.00499459
7.39927e-05
-0.00532848
0.000126035
-0.00545765
-0.00520629
0.000220814
-8.17176e-07
-0.00136765
-1.43247e-06
-0.0018239
-2.26827e-06
-0.002246
-2.59064e-06
-0.00267015
-1.75613e-06
-0.00311791
1.13932e-06
-0.00359151
6.93445e-06
-0.00408129
1.72525e-05
-0.00456693
3.42299e-05
-0.00501157
6.15863e-05
-0.00535583
0.000103387
-0.00549946
-0.00525045
0.000147575
-8.53092e-07
-0.00136681
-1.84122e-06
-0.00182291
-2.63869e-06
-0.00224521
-3.0637e-06
-0.00266972
-2.46308e-06
-0.00311851
-3.31974e-08
-0.00359394
5.52048e-06
-0.00408684
1.54373e-05
-0.00457685
3.21578e-05
-0.00502828
5.96857e-05
-0.00538336
0.000105676
-0.00554543
-0.00535444
0.000209676
-3.74775e-07
-0.00136639
-1.5178e-06
-0.00182174
-2.57869e-06
-0.00224413
-3.17726e-06
-0.00266911
-2.90166e-06
-0.00311877
-1.20881e-06
-0.00359562
3.40879e-06
-0.00409145
1.20852e-05
-0.00458551
2.71286e-05
-0.00504332
5.07996e-05
-0.00540702
8.81902e-05
-0.00558282
-0.00539568
0.000129429
-4.23617e-07
-0.00136598
-1.28899e-06
-0.00182088
-2.30209e-06
-0.00224312
-3.31312e-06
-0.00266809
-3.41282e-06
-0.00311867
-1.5515e-06
-0.00359748
2.69333e-06
-0.00409569
1.14855e-05
-0.0045943
2.67135e-05
-0.00505855
5.19817e-05
-0.00543229
9.35462e-05
-0.00562438
-0.00547846
0.000176323
-3.06104e-07
-0.00136563
-9.20975e-07
-0.00182023
-2.46819e-06
-0.00224155
-3.681e-06
-0.00266687
-4.1304e-06
-0.00311821
-3.02019e-06
-0.00359858
8.45431e-07
-0.00409955
8.4311e-06
-0.00460188
2.15464e-05
-0.00507166
4.35243e-05
-0.00545427
7.89744e-05
-0.00565982
-0.00553263
0.000133154
-1.11687e-07
-0.00136553
-1.2408e-06
-0.0018191
-2.60062e-06
-0.0022402
-4.02732e-06
-0.00266543
-4.56988e-06
-0.00311767
-4.0167e-06
-0.00359913
-7.49505e-07
-0.00410281
6.31788e-06
-0.00460894
1.90271e-05
-0.00508436
3.93472e-05
-0.00547458
7.19413e-05
-0.00569241
-0.00558696
0.000126288
1.10189e-08
-0.0013655
-8.82199e-07
-0.00181818
-2.5665e-06
-0.00223849
-4.23209e-06
-0.00266376
-5.53333e-06
-0.00311636
-5.05112e-06
-0.0035996
-2.44987e-06
-0.00410541
4.04718e-06
-0.00461544
1.60231e-05
-0.00509634
3.53296e-05
-0.0054939
6.60263e-05
-0.0057231
-0.00563492
0.000113979
8.22371e-08
-0.0013656
-7.06343e-07
-0.0018174
-2.76772e-06
-0.00223644
-5.08044e-06
-0.00266144
-6.80947e-06
-0.00311463
-7.01579e-06
-0.00359939
-4.69088e-06
-0.00410773
1.57544e-06
-0.0046217
1.32238e-05
-0.00510799
3.24564e-05
-0.00551312
6.23788e-05
-0.00575303
-0.00568887
0.000116324
5.96102e-08
-0.00136561
-1.03384e-06
-0.00181627
-3.41263e-06
-0.00223404
-6.16449e-06
-0.00265867
-8.47712e-06
-0.00311231
-9.40685e-06
-0.00359846
-7.61141e-06
-0.00410952
-2.06072e-06
-0.00462725
8.85225e-06
-0.0051189
2.74333e-05
-0.00553171
5.49184e-05
-0.00578052
-0.00572023
8.62667e-05
3.80146e-07
-0.001366
-1.5109e-06
-0.00181438
-4.43509e-06
-0.00223112
-7.76789e-06
-0.00265534
-1.10061e-05
-0.00310906
-1.31337e-05
-0.00359632
-1.2502e-05
-0.00411015
-7.69328e-06
-0.00463206
3.54045e-06
-0.00513013
2.33915e-05
-0.00555156
5.65556e-05
-0.00581368
-0.00577948
0.00011581
-9.51426e-08
-0.00136585
-2.28689e-06
-0.00181216
-6.20123e-06
-0.00222718
-1.10045e-05
-0.00265052
-1.55794e-05
-0.00310448
-1.90016e-05
-0.0035929
-2.06415e-05
-0.00410851
-1.82634e-05
-0.00463443
-1.01623e-05
-0.00513823
6.06478e-06
-0.00556777
3.42081e-05
-0.00584182
-0.00583069
8.54288e-05
-5.12554e-07
-0.00136535
-3.1996e-06
-0.00180947
-8.24543e-06
-0.00222214
-1.4389e-05
-0.00264437
-2.06853e-05
-0.00309818
-2.61444e-05
-0.00358743
-2.96653e-05
-0.00410499
-2.99036e-05
-0.00463419
-2.57738e-05
-0.00514235
-1.51324e-05
-0.00557841
2.65487e-06
-0.0058596
-0.0058436
1.55584e-05
-9.33153e-07
-0.00136437
-4.67387e-06
-0.00180569
-1.06997e-05
-0.00221609
-1.80632e-05
-0.00263699
-2.56556e-05
-0.00309058
-3.30928e-05
-0.00357999
-3.8439e-05
-0.00409963
-4.10329e-05
-0.00463159
-3.87081e-05
-0.00514467
-2.94197e-05
-0.0055877
-1.02095e-05
-0.00587881
-0.00588638
3.25731e-05
-1.42692e-06
-0.00136296
-6.15786e-06
-0.00180096
-1.34494e-05
-0.00220881
-2.2211e-05
-0.00262823
-3.20575e-05
-0.00308073
-4.13853e-05
-0.00357065
-4.92414e-05
-0.00409177
-5.42455e-05
-0.00462658
-5.46005e-05
-0.00514431
-4.86465e-05
-0.00559365
-3.21283e-05
-0.00589533
-0.00592226
3.75334e-06
-2.16915e-06
-0.00136075
-7.72228e-06
-0.00179539
-1.66203e-05
-0.00219989
-2.75712e-05
-0.00261727
-3.91264e-05
-0.00306917
-5.05365e-05
-0.00355924
-6.11751e-05
-0.00408113
-6.89474e-05
-0.0046188
-7.25475e-05
-0.00514071
-7.05011e-05
-0.00559569
-6.16889e-05
-0.00590413
-0.00593658
-4.73565e-05
-3.09468e-06
-0.00135768
-1.01011e-05
-0.00178839
-2.05596e-05
-0.00218944
-3.31115e-05
-0.00260472
-4.72697e-05
-0.00305502
-6.15714e-05
-0.00354494
-7.45672e-05
-0.00406814
-8.52037e-05
-0.00460817
-9.15941e-05
-0.00513431
-9.15887e-05
-0.0055957
-8.29967e-05
-0.00591272
-0.0059608
-5.8767e-05
-3.84937e-06
-0.00135379
-1.19414e-05
-0.00178028
-2.4616e-05
-0.00217675
-4.03607e-05
-0.00258896
-5.72515e-05
-0.00303812
-7.50847e-05
-0.0035271
-9.20624e-05
-0.00405116
-0.000106732
-0.0045935
-0.000117056
-0.00512399
-0.000121388
-0.00559136
-0.000117881
-0.00591622
-0.00598092
-9.77579e-05
-5.16719e-06
-0.00134865
-1.64479e-05
-0.00176901
-3.1428e-05
-0.00216178
-4.93508e-05
-0.00257105
-6.92163e-05
-0.00301826
-9.08281e-05
-0.00350549
-0.000112399
-0.00402959
-0.000132024
-0.00457387
-0.000147787
-0.00510823
-0.00015722
-0.00558192
-0.000160039
-0.00591341
-0.00596478
-0.00017618
-6.90497e-06
-0.00134172
-1.95875e-05
-0.00175632
-3.75273e-05
-0.00214383
-5.85132e-05
-0.00255006
-8.36192e-05
-0.00299315
-0.000109436
-0.00347968
-0.000135972
-0.00400306
-0.000161223
-0.00454862
-0.000182556
-0.0050869
-0.000196526
-0.00556796
-0.000197257
-0.00591269
-0.00600138
-0.000160662
-9.02848e-06
-0.00133272
-2.38115e-05
-0.00174155
-4.50317e-05
-0.00212262
-7.13031e-05
-0.00252379
-9.99585e-05
-0.0029645
-0.000131465
-0.00344817
-0.000164006
-0.00397052
-0.000197124
-0.00451551
-0.000228863
-0.00505516
-0.00025638
-0.00554044
-0.000276692
-0.00589237
-0.00598934
-0.000288728
-1.05002e-05
-0.0013222
-2.9791e-05
-0.00172225
-5.43869e-05
-0.00209802
-8.3667e-05
-0.00249451
-0.000116594
-0.00293157
-0.000153363
-0.0034114
-0.000192614
-0.00393126
-0.000232838
-0.00447528
-0.000272169
-0.00501583
-0.000309551
-0.00550305
-0.000343398
-0.00585852
-0.00595612
-0.0003766
-1.32929e-05
-0.00130893
-3.49497e-05
-0.00170061
-6.33446e-05
-0.00206963
-9.68102e-05
-0.00246105
-0.000136319
-0.00289206
-0.000178749
-0.00336897
-0.00022432
-0.00388569
-0.000270802
-0.00442879
-0.000316629
-0.00496999
-0.000358847
-0.00546083
-0.000393783
-0.00582357
-0.00593985
-0.000410042
-1.58047e-05
-0.0012931
-4.08353e-05
-0.00167557
-7.39575e-05
-0.0020365
-0.00011392
-0.00242108
-0.00015859
-0.00284738
-0.000208005
-0.00331955
-0.000260918
-0.00383277
-0.000315897
-0.0043738
-0.000370752
-0.00491513
-0.000422379
-0.00540919
-0.000467291
-0.00577866
-0.00590268
-0.000504446
-1.91889e-05
-0.00127394
-4.90123e-05
-0.00164576
-8.71878e-05
-0.00199833
-0.000132283
-0.00237598
-0.000183257
-0.00279641
-0.00024074
-0.00326206
-0.000303054
-0.00377045
-0.000368127
-0.00430873
-0.000433673
-0.00484958
-0.000495258
-0.00534761
-0.000547402
-0.0057265
-0.0058711
-0.000579002
-2.31329e-05
-0.00125078
-5.71552e-05
-0.00161172
-0.000101371
-0.0019541
-0.00015369
-0.00232366
-0.000214306
-0.00273579
-0.000281223
-0.00319515
-0.000354251
-0.00369742
-0.00043178