/*--------------------------------*- C++ -*----------------------------------*\
| =========                 |                                                 |
| \\      /  F ield         | OpenFOAM: The Open Source CFD Toolbox           |
|  \\    /   O peration     | Version:  2.3.0                                 |
|   \\  /    A nd           | Web:      www.OpenFOAM.org                      |
|    \\/     M anipulation  |                                                 |
\*---------------------------------------------------------------------------*/
FoamFile
{
    version     2.0;
    format      ascii;
    class       volScalarField;
    location    "9000";
    object      nuTilda;
}
// * * * * * * * * * * * * * * * * * * * * * * * * * * * * * * * * * * * * * //

dimensions      [0 2 -1 0 0 0 0];

internalField   nonuniform List<scalar> 
14767
(
0.0490401
0.0459805
0.043039
0.040251
0.0376414
0.0352395
0.0330752
0.0311248
0.0292321
0.0274063
0.025673
0.0240388
0.0224996
0.0210456
0.0196664
0.0183531
0.0170968
0.0158923
0.0147367
0.0136274
0.012564
0.0115462
0.0105985
0.00993536
0.0530908
0.0505295
0.0480631
0.0457014
0.0434501
0.0413112
0.0392892
0.0373834
0.0355888
0.0339057
0.0323374
0.0308888
0.0295649
0.0283683
0.0273051
0.0263785
0.0255947
0.0249584
0.0244745
0.0241475
0.0239802
0.0239732
0.0241277
0.024439
0.056735
0.0545955
0.0525417
0.0505777
0.0487055
0.0469269
0.0452441
0.0436574
0.042169
0.0407809
0.0394946
0.0383144
0.0372436
0.0362863
0.0354457
0.0347271
0.0341333
0.0336688
0.0333369
0.0331384
0.0330741
0.0331415
0.0333348
0.0336477
0.0599845
0.0581919
0.0564743
0.0548324
0.0532673
0.0517801
0.0503719
0.0490438
0.0477978
0.0466351
0.0455586
0.044572
0.0436772
0.0428787
0.0421806
0.0415868
0.0411
0.0407247
0.0404632
0.0403171
0.0402871
0.0403715
0.040567
0.0408686
0.0628719
0.0613594
0.0599125
0.0585275
0.0572051
0.0559457
0.0547507
0.0536214
0.0525589
0.051565
0.050643
0.0497946
0.0490248
0.0483361
0.0477343
0.0472218
0.0468039
0.0464835
0.0462641
0.0461478
0.0461353
0.0462271
0.0464207
0.0467126
0.065418
0.0641416
0.0629144
0.061735
0.0606045
0.0595234
0.058494
0.057518
0.0565962
0.0557309
0.0549249
0.0541801
0.053501
0.0528923
0.0523575
0.0519019
0.0515299
0.0512453
0.0510525
0.050954
0.0509517
0.0510456
0.0512359
0.0515191
0.0676724
0.0665868
0.0655368
0.0645225
0.0635447
0.0626047
0.0617045
0.0608473
0.0600352
0.0592699
0.0585535
0.0578886
0.057279
0.056729
0.0562439
0.0558289
0.055489
0.0552294
0.0550538
0.0549663
0.0549693
0.0550639
0.0552502
0.0555265
0.0696689
0.0687376
0.0678304
0.0669501
0.0660959
0.0652684
0.0644701
0.0637056
0.0629788
0.0622924
0.0616478
0.0610465
0.0604918
0.0599878
0.0595404
0.059156
0.05884
0.0585971
0.0584321
0.0583512
0.0583569
0.0584507
0.0586335
0.0589035
0.0714344
0.0706336
0.0698394
0.0690686
0.0683169
0.0675808
0.0668659
0.0661712
0.0655105
0.0648857
0.0642992
0.0637515
0.0632423
0.0627787
0.0623579
0.0619973
0.0617004
0.0614717
0.0613105
0.0612323
0.0612383
0.0613308
0.0615104
0.0617757
0.0730029
0.0723202
0.0716008
0.0709187
0.0702569
0.0695929
0.0689548
0.0683073
0.0676954
0.0671165
0.066572
0.0660753
0.0656039
0.0651905
0.064783
0.064441
0.0641562
0.063947
0.0637821
0.063705
0.063708
0.0637969
0.0639736
0.0642362
0.0109937
0.0131636
0.014653
0.0161274
0.0177323
0.019498
0.0214188
0.0234846
0.0256839
0.0280064
0.0304426
0.0329842
0.0356249
0.0383586
0.0411797
0.0440829
0.0470623
0.0501118
0.053225
0.0563947
0.0596132
0.0628719
0.0661621
0.0694773
0.0248913
0.025499
0.0262858
0.0272543
0.0284011
0.0297198
0.0312015
0.0328345
0.0346059
0.0365043
0.0385181
0.0406364
0.0428503
0.0451512
0.0475318
0.0499859
0.0525077
0.0550915
0.0577321
0.0604243
0.0631631
0.0659435
0.0687598
0.0716086
0.0340692
0.034612
0.0352959
0.0361225
0.0370912
0.0381974
0.039436
0.0407993
0.042279
0.0438666
0.0455538
0.0473317
0.0491934
0.0511318
0.0531405
0.0552141
0.0573479
0.059537
0.0617774
0.064065
0.0663962
0.0687684
0.0711785
0.0736262
0.0412702
0.0417792
0.0424078
0.0431557
0.0440217
0.0450023
0.0460922
0.047285
0.0485744
0.0499531
0.0514138
0.0529499
0.0545548
0.0562232
0.0579495
0.059729
0.061558
0.0634328
0.0653503
0.0673078
0.0693025
0.0713328
0.073396
0.0754837
0.0470993
0.0475849
0.0481762
0.0488719
0.0496696
0.0505654
0.0515538
0.0526288
0.0537842
0.0550131
0.0563093
0.0576667
0.0590797
0.0605433
0.0620531
0.0636048
0.0651954
0.0668214
0.0684807
0.0701713
0.0718914
0.0736402
0.0754156
0.077202
0.0518929
0.0523602
0.0529237
0.0535812
0.0543297
0.0551641
0.0560785
0.0570671
0.0581233
0.0592406
0.0604132
0.0616358
0.0629027
0.0642095
0.0655521
0.0669265
0.0683298
0.069759
0.0712119
0.0726873
0.074184
0.0757022
0.0772427
0.0787892
0.0558897
0.0563418
0.0568838
0.0575124
0.0582234
0.0590113
0.0598698
0.0607919
0.0617711
0.0628016
0.0638783
0.0649957
0.0661489
0.0673331
0.0685446
0.0697793
0.071034
0.0723061
0.073593
0.0748937
0.0762076
0.077535
0.0788773
0.0802479
0.0592585
0.059698
0.0602219
0.0608277
0.0615105
0.0622629
0.0630774
0.0639468
0.0648641
0.065825
0.0668245
0.0678582
0.0689208
0.0700073
0.0711145
0.0722378
0.0733737
0.0745191
0.0756712
0.0768289
0.077992
0.0791624
0.0803401
0.0815366
0.0621232
0.0625525
0.06306
0.063647
0.0643096
0.0650358
0.0658155
0.0666407
0.0675058
0.0684093
0.0693433
0.0703106
0.0713001
0.0723073
0.0733313
0.0743645
0.0754041
0.0764466
0.0774884
0.0785269
0.079564
0.0806052
0.0816461
0.0826795
0.0645738
0.0649954
0.0654847
0.0660569
0.0667067
0.0674091
0.0681582
0.0689449
0.0697631
0.0706168
0.0714852
0.0724056
0.0733342
0.074279
0.0752396
0.0761972
0.0771606
0.0781191
0.0790704
0.0800068
0.0809319
0.0818714
0.0828332
0.0837491
0.0805547
0.074674
0.0690328
0.0636036
0.0583857
0.0533848
0.0486085
0.0440652
0.0397614
0.0357026
0.0318923
0.0283312
0.0250164
0.0219465
0.0191197
0.0165342
0.0141844
0.0120614
0.0101657
0.00853383
0.00727411
0.00606581
0.00477805
0.00329751
0.0842024
0.0790558
0.0740969
0.0692882
0.0646255
0.0601129
0.0557582
0.0515706
0.0475596
0.0437334
0.0400973
0.0366567
0.0334149
0.0303747
0.0275445
0.0249583
0.0226611
0.0205875
0.0185802
0.0165549
0.0144749
0.0122931
0.00994508
0.00734588
0.0880279
0.0836195
0.0793295
0.0751356
0.0710361
0.0670357
0.0631418
0.0593653
0.0557177
0.0522117
0.0488632
0.045687
0.0426889
0.0398519
0.0371394
0.0345089
0.0319239
0.0293487
0.0267389
0.0240468
0.0212234
0.0182226
0.0149959
0.0114911
0.0920431
0.088292
0.0846174
0.0809982
0.0774327
0.0739246
0.0704809
0.0671088
0.0638163
0.0606074
0.0574816
0.0544334
0.0514543
0.048528
0.0456314
0.0427342
0.039807
0.0368157
0.0337264
0.0304984
0.0270894
0.0234554
0.0195497
0.0153334
0.0961021
0.0928994
0.0897286
0.08657
0.0834215
0.0802858
0.0771668
0.0740679
0.070992
0.0679403
0.0649072
0.0618847
0.0588636
0.0558291
0.0527604
0.0496373
0.0464315
0.043113
0.0396484
0.0360004
0.0321272
0.0279867
0.023535
0.0187317
0.0999629
0.0971669
0.094365
0.0915412
0.0886948
0.0858259
0.0829351
0.0800243
0.077094
0.0741429
0.0711643
0.0681498
0.0650883
0.0619657
0.058765
0.0554649
0.0520406
0.0484627
0.0446979
0.040709
0.0364562
0.0318967
0.0269866
0.0216845
0.103462
0.100965
0.0984375
0.0958648
0.0932458
0.0905773
0.0878584
0.0850882
0.0822675
0.0793934
0.0764578
0.0734505
0.0703592
0.0671706
0.0638677
0.0604299
0.056832
0.0530448
0.0490341
0.0447626
0.0401909
0.0352748
0.0299705
0.0242361
0.106528
0.104285
0.101976
0.099602
0.0971626
0.0946524
0.0920684
0.0894098
0.086676
0.083866
0.0809716
0.0779753
0.0748638
0.0716243
0.0682408
0.0646934
0.0609568
0.0569984
0.0527826
0.0482722
0.0434276
0.0382043
0.0325579
0.0264447
0.10924
0.10718
0.105048
0.102837
0.100544
0.0981622
0.0956866
0.0931186
0.0904555
0.0876994
0.0848494
0.0818736
0.0787476
0.0754644
0.0720129
0.0683768
0.0645314
0.0604357
0.0560459
0.0513274
0.0462473
0.0407598
0.0348168
0.0283722
0.111583
0.109687
0.107712
0.105648
0.103476
0.101199
0.0988092
0.0963169
0.0937111
0.0909918
0.0881978
0.0852662
0.0821271
0.0787977
0.075282
0.0715672
0.067644
0.0634502
0.0589056
0.0539956
0.0487123
0.0430008
0.0368059
0.0300928
0.00162326
0.000875597
0.00112114
0.00141182
0.001694
0.00198426
0.00230512
0.00268851
0.00317547
0.00379145
0.00451073
0.00533009
0.00625203
0.00728241
0.00842878
0.0096986
0.0110995
0.0126402
0.0143296
0.0161778
0.0181953
0.0203936
0.0227834
0.0253672
0.00442024
0.00196675
0.001446
0.00171432
0.00203207
0.00238544
0.00279982
0.00329837
0.00389772
0.00460712
0.00540255
0.00628413
0.00725511
0.00832044
0.00948575
0.0107566
0.0121391
0.0136405
0.0152685
0.0170316
0.0189391
0.0209999
0.0232223
0.0256149
0.0076421
0.00380154
0.0019406
0.00202285
0.00239968
0.0028423
0.00336254
0.00396829
0.00466403
0.00545268
0.00631452
0.00725084
0.00826428
0.00935849
0.0105373
0.0118048
0.0131658
0.0146263
0.0161929
0.0178723
0.0196716
0.0215981
0.0236589
0.0258614
0.0107335
0.00591382
0.00268663
0.0023494
0.00278891
0.00332724
0.0039458
0.0046425
0.00542376
0.00628016
0.00719968
0.00818328
0.00923271
0.01035
0.0115377
0.0127989
0.0141377
0.0155583
0.0170659
0.0186659
0.0203637
0.0221646
0.0240732
0.0260889
0.0135073
0.00795493
0.00361601
0.00270658
0.00318965
0.00381863
0.00452399
0.00530054
0.00615552
0.00707093
0.00804089
0.00906535
0.0101453
0.0112812
0.0124746
0.0137281
0.0150445
0.0164272
0.0178797
0.0194059
0.0210098
0.0226955
0.0244681
0.026339
0.0159276
0.00978535
0.0046054
0.00309524
0.00359116
0.00430167
0.00508359
0.00593192
0.00684931
0.00781693
0.00883118
0.00989151
0.0109971
0.012148
0.0133453
0.0145905
0.0158853
0.0172321
0.0186333
0.0200916
0.02161
0.0231921
0.0248433
0.0265722
0.0180153
0.011377
0.00555935
0.00350416
0.00398446
0.004766
0.0056144
0.00652898
0.00750065
0.00851485
0.00956836
0.0106595
0.0117871
0.0129506
0.0141504
0.0153869
0.0166613
0.0179747
0.0193288
0.0207252
0.0221662
0.023655
0.0251965
0.0267989
0.0198145
0.0127489
0.00643345
0.00391787
0.00436371
0.00520695
0.00611556
0.00708868
0.00810825
0.00916373
0.0102519
0.0113702
0.0125168
0.0136908
0.014892
0.0161201
0.0173752
0.018658
0.0199688
0.0213089
0.0226801
0.0240843
0.0255243
0.0270019
0.0213807
0.0139361
0.00721054
0.00432023
0.00472482
0.00562147
0.0065859
0.00761001
0.00867199
0.00976389
0.0108831
0.0120257
0.0131889
0.0143718
0.0155739
0.0167941
0.0180314
0.0192853
0.0205557
0.0218436
0.0231512
0.0244788
0.0258269
0.0271974
0.0227983
0.0150198
0.00794611
0.00471507
0.0050631
0.00601729
0.00703037
0.00809158
0.00918799
0.0103229
0.0114787
0.0126386
0.0138108
0.0150017
0.016207
0.0174184
0.018637
0.0198577
0.0210803
0.0223162
0.0235706
0.0248321
0.0260994
0.0273913
0.000358546
0.0011973
0.00253491
0.00413728
0.0057604
0.0073729
0.00899134
0.0106282
0.0122834
0.0139577
0.0156546
0.0173798
0.0191427
0.0209558
0.0228314
0.0247789
0.0267981
0.0288916
0.0311158
0.033512
0.0360495
0.0387987
0.0418649
0.0451447
0.000272568
0.000684722
0.00158427
0.00282805
0.00431317
0.00580067
0.00728726
0.00877076
0.0102662
0.0117905
0.0133558
0.0149666
0.0166279
0.0183473
0.020134
0.021999
0.0239525
0.0260055
0.0281807
0.0305093
0.0330041
0.0357034
0.0386561
0.041753
0.00012342
0.000417168
0.000980734
0.0017906
0.00286615
0.00422651
0.00590404
0.00765594
0.00935959
0.0110142
0.0126299
0.0142218
0.0158058
0.017398
0.019017
0.0206847
0.0224256
0.0242661
0.0262345
0.0283643
0.0306881
0.0332397
0.0360484
0.039072
0.000141201
0.000350905
0.00080515
0.00144933
0.00230628
0.00340156
0.00476873
0.00644463
0.00828339
0.0101254
0.0119393
0.0137167
0.0154491
0.0171325
0.0187703
0.0203761
0.0219757
0.0236058
0.0253129
0.0271509
0.0291776
0.0314479
0.0340056
0.0368566
0.000108354
0.000307485
0.000695519
0.0012451
0.00198077
0.0029186
0.0040863
0.00551667
0.00724618
0.00919293
0.0111594
0.0131014
0.0150079
0.0168676
0.0186661
0.0203917
0.0220418
0.0236311
0.0251957
0.026795
0.0285074
0.0304215
0.0326211
0.0351588
0.000105384
0.000288463
0.000629162
0.0011186
0.00177174
0.00260623
0.00364526
0.00491903
0.00646257
0.00831183
0.0103462
0.0124089
0.0144572
0.0164753
0.0184468
0.020351
0.0221654
0.0238739
0.0254778
0.0270063
0.0285237
0.0301302
0.0319482
0.034105
9.84419e-05
0.000281564
0.000578587
0.00102413
0.0016172
0.00237776
0.00332413
0.00448322
0.00588673
0.00757122
0.00956094
0.0116955
0.0138537
0.0160003
0.0181175
0.0201854
0.0221783
0.0240665
0.0258241
0.027441
0.0289393
0.0303881
0.0319078
0.0336428
9.57109e-05
0.000276358
0.000541533
0.000953616
0.00150096
0.00220465
0.00308032
0.00415236
0.00545038
0.00700867
0.00886547
0.0109968
0.0132275
0.0154757
0.0177132
0.01992
0.0220718
0.0241375
0.0260812
0.0278687
0.0294822
0.0309408
0.0323201
0.0337474
9.27946e-05
0.000272526
0.000512323
0.000898152
0.00140989
0.00206766
0.00288722
0.00389031
0.00510427
0.00656136
0.00829831
0.0103476
0.012605
0.0149289
0.0172644
0.0195873
0.0218746
0.0240975
0.0262186
0.0281957
0.0299882
0.0315733
0.0329692
0.0342485
9.08668e-05
0.000268944
0.000489502
0.000854407
0.00133774
0.001958
0.00273208
0.0036792
0.00482488
0.00619935
0.00783773
0.00977883
0.012011
0.0143804
0.0167936
0.0192129
0.021615
0.023973
0.0262522
0.0284088
0.0303938
0.0321604
0.0336823
0.0349759
8.94694e-05
0.000266055
0.000471678
0.000819321
0.00127966
0.0018694
0.00260648
0.00350777
0.00459729
0.00590372
0.00746032
0.00930531
0.0114677
0.0138493
0.0163195
0.0188185
0.0213173
0.0237909
0.026207
0.0285244
0.0306922
0.0326536
0.034356
0.0357696
8.87936e-05
0.000264164
0.00045871
0.000791409
0.00123294
0.00179782
0.00250457
0.00336825
0.00441138
0.00566124
0.00714972
0.00891349
0.0109909
0.0133526
0.0158581
0.0184213
0.0210021
0.0235743
0.0261086
0.0285668
0.0308997
0.0330479
0.0349468
0.0365382
8.86321e-05
0.000263294
0.000450266
0.000769321
0.00119545
0.00174001
0.00242186
0.00325457
0.00425951
0.00546248
0.00689403
0.00858946
0.0105883
0.0129034
0.015423
0.0180357
0.0206858
0.023343
0.0259795
0.0285601
0.0310393
0.0333589
0.0354511
0.0372482
8.89596e-05
0.00026322
0.000445293
0.000751794
0.00116541
0.00169359
0.00235468
0.00316202
0.0041355
0.00529981
0.00668412
0.0083225
0.0102537
0.0125094
0.0150239
0.0176724
0.0203815
0.0231129
0.0258389
0.0285271
0.0311351
0.0336089
0.0358816
0.0378796
8.96303e-05
0.000263572
0.000442504
0.000737733
0.00114102
0.00165596
0.00229977
0.00308626
0.00403382
0.00516618
0.00651143
0.00810223
0.00997634
0.012172
0.0146662
0.0173383
0.0200974
0.0228951
0.0257011
0.028485
0.031208
0.0338194
0.0362556
0.0384393
9.04877e-05
0.000264023
0.000440803
0.000726136
0.00112084
0.00162478
0.00225427
0.00302342
0.00394962
0.00505558
0.0063683
0.00791943
0.0097457
0.011887
0.0143505
0.0170354
0.019837
0.022695
0.0255743
0.0284453
0.0312723
0.0340083
0.0365937
0.0389552
9.14975e-05
0.000264485
0.000439721
0.000716419
0.00110382
0.00159852
0.00221594
0.00297067
0.00387896
0.00496283
0.00624835
0.00776621
0.00955215
0.0116463
0.0140732
0.016762
0.0195993
0.0225127
0.0254606
0.0284127
0.0313354
0.0341855
0.0369071
0.0394296
9.25894e-05
0.000264911
0.000438982
0.00070818
0.00108921
0.00157596
0.00218302
0.0029254
0.00381849
0.00488344
0.00614582
0.00763547
0.00938703
0.0114402
0.0138292
0.0165135
0.0193803
0.0223447
0.0253577
0.0283861
0.0313982
0.0343536
0.0371997
0.0398687
9.3774e-05
0.000265275
0.000438439
0.00070099
0.00107646
0.00155619
0.0021542
0.00288573
0.00376552
0.00481411
0.00605631
0.00752139
0.0092431
0.0112604
0.0136122
0.016285
0.0191745
0.0221855
0.0252597
0.0283608
0.0314569
0.0345102
0.0374708
0.040274
9.50053e-05
0.000265623
0.000438062
0.000694597
0.00106504
0.00153853
0.00212839
0.00285031
0.00371824
0.0047522
0.00597656
0.00741982
0.00911502
0.0111005
0.0134169
0.0160717
0.018977
0.0220294
0.0251612
0.0283311
0.0315063
0.0346504
0.0377157
0.0406383
9.61609e-05
0.000265885
0.000437669
0.000688835
0.00105467
0.00152241
0.00210485
0.00281793
0.0036751
0.0046958
0.00590393
0.00732741
0.00899864
0.0109551
0.0132384
0.0158701
0.0187839
0.0218721
0.0250574
0.0282924
0.0315425
0.0347722
0.0379363
0.0409766
9.73133e-05
0.000266098
0.000437287
0.000683503
0.00104508
0.00150751
0.00208304
0.002788
0.00363522
0.00464373
0.00583686
0.00724212
0.00889123
0.0108211
0.013073
0.0156782
0.018593
0.0217107
0.024945
0.0282412
0.0315618
0.0348711
0.0381246
0.0412603
9.84721e-05
0.000266321
0.000437015
0.000678621
0.00103614
0.00149354
0.00206265
0.00276002
0.00359786
0.00459494
0.00577416
0.00716238
0.00879088
0.0106958
0.0129183
0.0154949
0.0184037
0.0215444
0.0248226
0.0281763
0.031564
0.0349495
0.0382898
0.0415286
9.95737e-05
0.000266514
0.000436749
0.000674102
0.00102777
0.00148042
0.0020434
0.00273351
0.00356253
0.00454884
0.00571489
0.00708712
0.00869624
0.0105777
0.0127722
0.0153196
0.0182162
0.0213729
0.0246899
0.0280972
0.0315487
0.0350068
0.0384291
0.0417586
0.000100642
0.000266718
0.000436553
0.000669946
0.00101992
0.00146807
0.00202521
0.00270836
0.00352895
0.00450499
0.00565855
0.00701561
0.00860639
0.0104657
0.0126337
0.0151519
0.018031
0.0211972
0.0245474
0.0280042
0.0315162
0.0350442
0.038547
0.041973
0.000101668
0.000266932
0.0004364
0.00066612
0.00101252
0.00145642
0.00200814
0.00268439
0.00349689
0.0044631
0.00560475
0.00694739
0.00852071
0.010359
0.0125018
0.0149915
0.0178493
0.0210185
0.024396
0.0278978
0.0314668
0.035061
0.038639
0.0421484
0.00010264
0.00026716
0.000436299
0.000662633
0.00100548
0.00144528
0.00199182
0.00266148
0.00346622
0.00442305
0.00555331
0.00688217
0.00843884
0.0102571
0.0123759
0.0148379
0.0176718
0.0208382
0.0242374
0.0277796
0.0314021
0.0350596
0.0387104
0.042304
0.000103573
0.00026742
0.000436273
0.000659523
0.000998811
0.00143468
0.00197626
0.00263962
0.00343697
0.00438484
0.00550421
0.00681988
0.00836063
0.0101598
0.0122556
0.0146908
0.0174995
0.0206578
0.024073
0.027651
0.0313234
0.0350416
0.0387629
0.0424372
0.000104485
0.000267712
0.000436341
0.000656816
0.000992541
0.00142463
0.00196147
0.00261884
0.00340914
0.00434847
0.00545746
0.00676053
0.00828606
0.0100669
0.0121408
0.0145503
0.0173329
0.0204789
0.0239046
0.0275135
0.031232
0.0350081
0.0387992
0.0425589
0.000105398
0.00026806
0.000436538
0.000654546
0.000986683
0.00141514
0.00194749
0.00259917
0.0033828
0.00431403
0.00541316
0.00670423
0.00821529
0.00997872
0.0120317
0.0144164
0.0171728
0.0203029
0.0237338
0.0273685
0.0311286
0.0349585
0.038815
0.0426567
0.000106308
0.000268451
0.00043685
0.000652689
0.000981224
0.00140621
0.00193432
0.00258062
0.00335794
0.00428154
0.00537135
0.0066511
0.00814844
0.00989531
0.0119284
0.0142895
0.0170201
0.0201315
0.023563
0.0272183
0.0310149
0.0348929
0.0388059
0.0427079
0.000107224
0.000268892
0.000437285
0.000651244
0.000976181
0.00139787
0.00192197
0.00256321
0.00333462
0.00425105
0.0053321
0.0066012
0.00808564
0.00981689
0.0118313
0.01417
0.0168755
0.0199667
0.0233946
0.0270659
0.0308947
0.0348168
0.0387835
0.0427494
0.00010814
0.000269375
0.000437829
0.000650166
0.000971533
0.00139009
0.00191044
0.00254696
0.00331283
0.00422254
0.0052954
0.00655454
0.0080269
0.00974357
0.0117404
0.0140581
0.0167398
0.01981
0.0232313
0.0269147
0.0307718
0.0347346
0.0387516
0.042777
0.000109049
0.000269879
0.000438442
0.000649401
0.000967271
0.00138288
0.00189972
0.00253183
0.00329255
0.00419598
0.00526119
0.00651104
0.00797215
0.00967523
0.0116557
0.0139539
0.0166131
0.0196626
0.0230753
0.0267678
0.0306501
0.0346503
0.0387138
0.0427926
0.000109973
0.00027041
0.000439136
0.000648914
0.000963393
0.00137625
0.00188983
0.00251784
0.00327375
0.00417134
0.00522942
0.00647063
0.00792125
0.00961168
0.0115769
0.013857
0.0164953
0.0195247
0.0229278
0.0266275
0.0305331
0.0345695
0.0386794
0.0428146
0.000110904
0.00027096
0.000439885
0.000648663
0.000959897
0.00137018
0.00188074
0.00250495
0.00325643
0.0041486
0.00520007
0.0064332
0.00787403
0.00955264
0.0115037
0.0137669
0.0163857
0.0193958
0.0227888
0.0264943
0.0304219
0.0344937
0.0386498
0.0428416
0.000111843
0.000271524
0.00044068
0.0006486
0.00095674
0.00136464
0.00187242
0.00249314
0.00324052
0.0041277
0.00517304
0.00639867
0.00783037
0.00949795
0.0114358
0.0136831
0.0162835
0.019275
0.0226571
0.026367
0.0303152
0.0344216
0.0386233
0.0428698
0.000112791
0.000272096
0.000441509
0.000648691
0.000953899
0.00135959
0.00186484
0.00248235
0.00322597
0.00410857
0.00514826
0.00636695
0.00779017
0.00944745
0.0113728
0.0136052
0.0161881
0.0191614
0.0225317
0.0262441
0.0302113
0.0343511
0.0385981
0.0429
0.000113746
0.000272673
0.00044236
0.000648897
0.000951334
0.001355
0.00185792
0.0024725
0.00321269
0.00409109
0.00512562
0.00633792
0.00775333
0.00940107
0.0113148
0.0135332
0.0160995
0.019055
0.0224124
0.026125
0.0301083
0.0342787
0.038569
0.0429281
0.000114705
0.00027325
0.00044322
0.000649192
0.00094902
0.00135081
0.0018516
0.00246351
0.00320058
0.00407517
0.00510498
0.00631147
0.00771971
0.00935866
0.0112617
0.013467
0.0160178
0.0189561
0.0223001
0.0260107
0.0300069
0.0342036
0.0385307
0.0429335
0.000115667
0.000273821
0.000444077
0.000649546
0.000946922
0.00134699
0.00184583
0.00245529
0.00318952
0.00406063
0.00508616
0.00628735
0.00768908
0.00932002
0.0112132
0.0134067
0.0159431
0.0188654
0.022196
0.0259035
0.0299105
0.0341311
0.0384915
0.0429319
0.000116629
0.000274386
0.000444924
0.000649938
0.000945013
0.00134348
0.00184053
0.00244776
0.00317939
0.00404734
0.00506896
0.00626535
0.00766116
0.00928483
0.0111691
0.0133517
0.015875
0.0187826
0.0221006
0.0258048
0.0298218
0.0340657
0.0384601
0.0429418
0.000117582
0.000274942
0.000445751
0.00065036
0.000943283
0.00134027
0.00183567
0.00244083
0.0031701
0.00403516
0.00505322
0.00624523
0.00763564
0.00925271
0.0111289
0.0133016
0.015813
0.0187072
0.0220134
0.0257143
0.0297412
0.0340085
0.0384386
0.0429681
0.000118536
0.000275484
0.00044656
0.000650804
0.000941706
0.00133731
0.00183118
0.00243445
0.00316154
0.00402395
0.00503875
0.00622675
0.00761225
0.0092233
0.0110921
0.0132558
0.0157564
0.0186382
0.0219335
0.025631
0.029667
0.0339568
0.0384213
0.0429955
0.000119502
0.000276012
0.000447361
0.000651269
0.000940278
0.0013346
0.00182705
0.00242856
0.00315362
0.00401357
0.00502537
0.00620969
0.00759069
0.00919622
0.0110584
0.0132138
0.0157045
0.0185751
0.0218601
0.0255544
0.029599
0.0339101
0.038407
0.0430228
0.000120474
0.000276535
0.00044816
0.000651755
0.000938998
0.00133212
0.00182325
0.0024231
0.00314626
0.00400393
0.00501294
0.00619386
0.00757069
0.00917116
0.0110271
0.0131751
0.0156568
0.0185169
0.0217924
0.0254834
0.0295364
0.0338691
0.0383993
0.043056
0.000121439
0.000277052
0.000448947
0.000652252
0.000937859
0.00132986
0.00181975
0.00241806
0.00313943
0.00399494
0.00500132
0.00617904
0.007552
0.00914776
0.010998
0.0131391
0.0156124
0.018463
0.0217294
0.025417
0.0294777
0.0338309
0.0383941
0.0430967
0.000122386
0.00027755
0.000449713
0.000652757
0.000936848
0.00132782
0.00181655
0.00241339
0.00313308
0.00398654
0.00499042
0.0061651
0.00753439
0.00912572
0.0109706
0.0131053
0.0155709
0.0184126
0.0216705
0.0253546
0.0294221
0.0337944
0.0383885
0.0431324
0.000123326
0.000278036
0.000450467
0.000653269
0.00093596
0.00132598
0.00181365
0.00240912
0.00312721
0.0039787
0.00498017
0.00615194
0.00751769
0.00910478
0.0109446
0.0130732
0.0155316
0.018365
0.021615
0.0252958
0.0293696
0.0337596
0.0383818
0.0431637
0.000124255
0.000278511
0.000451203
0.000653788
0.000935215
0.00132438
0.00181104
0.00240523
0.00312181
0.00397142
0.00497058
0.00613951
0.00750183
0.00908479
0.0109197
0.0130424
0.015494
0.0183196
0.0215621
0.02524
0.0293204
0.0337282
0.0383766
0.043185
0.000125162
0.000278977
0.000451925
0.000654333
0.000934614
0.00132298
0.00180874
0.00240176
0.00311691
0.00396474
0.00496168
0.00612786
0.00748682
0.00906572
0.0108957
0.0130127
0.0154574
0.0182753
0.0215106
0.0251855
0.0292728
0.0337006
0.0383826
0.0432407
0.000126058
0.000279442
0.000452639
0.000654896
0.000934149
0.00132182
0.00180676
0.0023987
0.00311251
0.00395869
0.00495352
0.00611704
0.00747272
0.00904761
0.0108728
0.0129839
0.0154217
0.0182318
0.0214593
0.0251303
0.0292232
0.0336687
0.0383804
0.0432766
0.000126964
0.000279903
0.000453365
0.000655485
0.000933814
0.00132086
0.00180509
0.00239603
0.00310864
0.0039533
0.00494612
0.00610711
0.00745966
0.0090306
0.010851
0.0129562
0.015387
0.018189
0.0214081
0.025074
0.0291708
0.0336332
0.0383742
0.0433109
0.000127873
0.000280363
0.000454095
0.000656092
0.000933597
0.00132011
0.0018037
0.00239379
0.00310528
0.00394853
0.00493953
0.00609814
0.00744768
0.00901493
0.0108305
0.0129301
0.0153538
0.0181473
0.0213574
0.0250168
0.0291154
0.0335924
0.0383614
0.0433371
0.000128742
0.000280816
0.000454803
0.000656701
0.000933482
0.00131954
0.00180256
0.00239189
0.00310245
0.00394435
0.0049337
0.00609022
0.00743695
0.0090006
0.0108118
0.0129056
0.0153225
0.0181075
0.0213083
0.0249597
0.0290578
0.033546
0.038339
0.0433484
0.000129608
0.000281246
0.000455484
0.00065733
0.000933511
0.00131918
0.00180175
0.00239037
0.00310008
0.00394086
0.00492865
0.00608315
0.00742738
0.00898775
0.0107948
0.0128835
0.0152936
0.0180706
0.0212618
0.0249047
0.0290002
0.033497
0.038312
0.0433559
0.000130496
0.000281711
0.00045622
0.000657977
0.000933673
0.00131906
0.00180122
0.0023893
0.00309823
0.00393796
0.00492442
0.00607715
0.00741901
0.00897648
0.0107797
0.0128636
0.0152677
0.018037
0.0212193
0.0248538
0.0289457
0.0334489
0.0382828
0.0433599
0.000131292
0.000282139
0.000456875
0.000658645
0.00093398
0.00131914
0.00180099
0.00238854
0.00309681
0.00393562
0.00492085
0.00607199
0.0074118
0.00896652
0.0107663
0.0128458
0.0152445
0.018007
0.0211813
0.0248081
0.0288968
0.0334055
0.0382552
0.0433583
0.000132119
0.00028256
0.000457533
0.000659336
0.000934416
0.00131945
0.00180107
0.00238826
0.00309594
0.00393399
0.00491809
0.00606775
0.00740564
0.00895797
0.0107546
0.0128301
0.0152238
0.0179801
0.0211473
0.0247676
0.0288539
0.0333692
0.0382353
0.0433596
0.000133
0.000283027
0.000458295
0.000660099
0.00093501
0.00132001
0.00180155
0.00238849
0.00309566
0.00393302
0.00491621
0.00606455
0.00740066
0.00895065
0.0107444
0.0128162
0.0152052
0.0179559
0.0211166
0.024731
0.0288162
0.0333395
0.038227
0.0433894
0.000133832
0.000283463
0.000458983
0.000660862
0.00093579
0.00132084
0.00180238
0.00238911
0.00309593
0.00393273
0.00491506
0.00606221
0.00739678
0.00894464
0.0107358
0.0128041
0.0151888
0.0179342
0.0210887
0.0246972
0.0287805
0.0333111
0.0382173
0.0434107
0.000134659
0.000283904
0.000459693
0.000661639
0.000936705
0.00132195
0.00180358
0.00239031
0.00309687
0.00393327
0.0049149
0.006061
0.00739413
0.00894017
0.0107287
0.0127939
0.0151745
0.0179148
0.0210633
0.0246661
0.0287469
0.0332828
0.0382048
0.0434242
0.000135436
0.000284335
0.000460374
0.000662464
0.000937791
0.00132333
0.00180518
0.00239198
0.0030985
0.00393455
0.00491567
0.00606099
0.00739284
0.0089371
0.0107234
0.0127855
0.0151623
0.0178979
0.0210409
0.0246381
0.0287169
0.0332577
0.0381937
0.0434347
0.000136242
0.000284755
0.000461055
0.000663323
0.000939076
0.00132497
0.00180716
0.00239421
0.00310081
0.00393678
0.00491749
0.00606211
0.00739294
0.00893562
0.0107198
0.0127791
0.0151522
0.0178834
0.0210211
0.0246135
0.0286905
0.0332376
0.0381902
0.0434554
0.000137068
0.000285213
0.000461799
0.000664235
0.000940573
0.00132699
0.00180961
0.00239707
0.00310388
0.0039399
0.00492052
0.0060647
0.00739463
0.00893607
0.0107182
0.012775
0.0151447
0.0178713
0.0210037
0.0245911
0.0286665
0.0332205
0.0381935
0.0434979
0.000137818
0.000285637
0.000462463
0.000665172
0.000942255
0.00132928
0.00181249
0.00240043
0.00310765
0.00394393
0.00492462
0.00606863
0.00739808
0.00893842
0.0107191
0.0127733
0.0151397
0.0178621
0.0209891
0.0245708
0.0286432
0.0332016
0.0381903
0.0435214
0.000138614
0.000286057
0.000463138
0.000666142
0.000944123
0.00133191
0.00181581
0.00240443
0.00311224
0.00394902
0.00492997
0.00607403
0.00740322
0.00894297
0.0107223
0.0127746
0.015138
0.0178562
0.020978
0.0245539
0.0286217
0.033182
0.0381831
0.0435379
0.000139435
0.000286515
0.00046389
0.000667184
0.000946199
0.00133487
0.00181964
0.00240911
0.00311765
0.00395508
0.00493663
0.00608103
0.00741025
0.00894962
0.0107281
0.0127789
0.0151399
0.0178545
0.0209715
0.0245416
0.028605
0.033166
0.0381777
0.0435563
0.000140239
0.000286943
0.000464603
0.000668273
0.000948536
0.0013382
0.00182397
0.00241438
0.00312385
0.00396215
0.00494442
0.00608942
0.00741908
0.00895849
0.0107367
0.0127865
0.0151457
0.0178575
0.0209703
0.0245352
0.0285943
0.0331558
0.0381775
0.0435797
0.000141068
0.000287401
0.000465379
0.000669403
0.000951088
0.00134193
0.00182882
0.00242041
0.003131
0.00397034
0.00495358
0.00609942
0.00742977
0.00896971
0.0107479
0.0127973
0.0151555
0.0178652
0.0209747
0.0245355
0.0285906
0.0331519
0.0381803
0.0436
0.000141825
0.000287826
0.000466076
0.000670555
0.000953856
0.00134602
0.0018342
0.00242704
0.00313897
0.00397956
0.00496403
0.00611107
0.00744237
0.00898303
0.0107617
0.0128112
0.0151689
0.0178776
0.0209851
0.0245429
0.0285958
0.0331571
0.0381891
0.0436142
0.000142616
0.000288242
0.000466779
0.000671777
0.000956941
0.00135051
0.00184013
0.00243449
0.00314793
0.00399003
0.00497591
0.00612431
0.00745687
0.00899858
0.0107782
0.0128281
0.0151859
0.0178941
0.0210007
0.0245574
0.0286103
0.0331755
0.0382149
0.0436358
0.00014343
0.00028869
0.000467541
0.000673053
0.000960294
0.00135551
0.00184673
0.0024428
0.00315793
0.00400173
0.00498938
0.00613944
0.00747356
0.00901668
0.0107973
0.0128482
0.0152065
0.0179146
0.0210208
0.0245775
0.0286326
0.033207
0.0382698
0.0437431
0.000144174
0.000289115
0.000468228
0.000674365
0.00096392
0.00136092
0.00185395
0.00245185
0.00316893
0.00401472
0.00500432
0.00615631
0.00749236
0.00903723
0.0108195
0.0128715
0.0152305
0.0179389
0.021045
0.0246012
0.0286579
0.0332402
0.0383222
0.0438314
0.000144974
0.000289523
0.000468924
0.000675708
0.000967806
0.00136679
0.00186179
0.00246182
0.00318105
0.00402912
0.00502103
0.00617528
0.00751357
0.00906063
0.0108447
0.0128983
0.0152584
0.0179673
0.0210733
0.0246292
0.0286861
0.0332729
0.0383666
0.0438915
0.000145783
0.000289928
0.000469645
0.000677121
0.000971965
0.0013731
0.00187031
0.00247271
0.00319431
0.00404483
0.00503937
0.00619637
0.00753729
0.00908688
0.0108734
0.012929
0.0152907
0.0180006
0.0211067
0.0246623
0.02872
0.0333117
0.0384197
0.0439714
0.000146568
0.000290301
0.000470298
0.000678558
0.000976442
0.00137988
0.00187948
0.00248439
0.00320864
0.00406195
0.00505944
0.00621946
0.00756353
0.00911615
0.0109056
0.0129639