/*--------------------------------*- C++ -*----------------------------------*\
| =========                 |                                                 |
| \\      /  F ield         | OpenFOAM: The Open Source CFD Toolbox           |
|  \\    /   O peration     | Version:  2.3.0                                 |
|   \\  /    A nd           | Web:      www.OpenFOAM.org                      |
|    \\/     M anipulation  |                                                 |
\*---------------------------------------------------------------------------*/
FoamFile
{
    version     2.0;
    format      ascii;
    class       volScalarField;
    location    "4000";
    object      nut;
}
// * * * * * * * * * * * * * * * * * * * * * * * * * * * * * * * * * * * * * //

dimensions      [0 2 -1 0 0 0 0];

internalField   nonuniform List<scalar> 
37724
(
0.0699331
0.0684337
0.0669287
0.0654199
0.0639083
0.0623947
0.0608797
0.0593639
0.057848
0.0563324
0.0548178
0.0533047
0.0517936
0.0502849
0.0487792
0.0472766
0.0457776
0.0442825
0.0427915
0.0413051
0.0398234
0.0383469
0.0368759
0.0354108
0.0339518
0.0324995
0.0310546
0.0296173
0.0281888
0.0267698
0.025362
0.0239672
0.0225878
0.0212273
0.0198907
0.0185845
0.0173171
0.0160985
0.0149369
0.0138273
0.0127167
0.0114049
0.00933909
0.0710774
0.0697487
0.0684164
0.0670815
0.0657446
0.064406
0.0630661
0.0617252
0.0603834
0.0590412
0.0576989
0.0563567
0.055015
0.053674
0.0523342
0.0509956
0.0496585
0.0483231
0.0469898
0.0456587
0.0443303
0.0430051
0.0416838
0.0403669
0.0390556
0.0377508
0.0364539
0.0351665
0.0338911
0.0326302
0.0313874
0.0301671
0.0289751
0.0278187
0.0267076
0.0256533
0.0246708
0.0237779
0.0229949
0.0223437
0.0218446
0.0215122
0.0213507
0.0721379
0.0709552
0.0697704
0.0685835
0.0673947
0.0662041
0.0650119
0.0638178
0.0626221
0.0614247
0.0602259
0.0590258
0.0578247
0.0566227
0.0554201
0.0542171
0.053014
0.0518108
0.0506078
0.0494054
0.0482037
0.0470038
0.0458061
0.0446118
0.043422
0.0422384
0.0410627
0.0398973
0.0387448
0.0376089
0.0364937
0.0354045
0.0343476
0.0333306
0.0323626
0.0314544
0.0306182
0.0298677
0.0292172
0.0286807
0.0282708
0.0279967
0.027863
0.0731142
0.072059
0.0710016
0.0699418
0.0688795
0.0678149
0.0667479
0.0656781
0.0646055
0.0635298
0.0624513
0.06137
0.060286
0.0591996
0.0581108
0.05702
0.0559275
0.0548334
0.0537381
0.0526417
0.0515446
0.0504474
0.0493511
0.0482567
0.0471657
0.0460798
0.0450012
0.0439323
0.0428764
0.0418371
0.0408189
0.0398271
0.0388681
0.0379491
0.0370788
0.0362666
0.0355231
0.0348595
0.0342874
0.0338176
0.0334595
0.0332202
0.0331034
0.0740098
0.0730661
0.0721191
0.0711686
0.0702146
0.0692575
0.0682969
0.0673327
0.0663642
0.0653911
0.0644136
0.0634317
0.0624456
0.0614553
0.0604611
0.059463
0.0584616
0.0574573
0.0564506
0.0554416
0.0544305
0.0534176
0.0524039
0.0513906
0.0503794
0.049372
0.0483709
0.0473784
0.046398
0.0454333
0.0444889
0.0435702
0.0426831
0.041835
0.0410336
0.0402877
0.0396067
0.0390004
0.0384786
0.0380507
0.0377247
0.0375068
0.0374003
0.0748283
0.0739833
0.073132
0.0722756
0.0714144
0.0705489
0.0696791
0.0688048
0.0679248
0.0670386
0.0661461
0.0652478
0.0643435
0.0634337
0.0625183
0.0615975
0.0606712
0.0597405
0.0588066
0.0578698
0.0569299
0.0559869
0.0550412
0.0540941
0.0531477
0.0522039
0.0512649
0.0503335
0.0494128
0.0485069
0.0476198
0.0467571
0.0459244
0.0451291
0.0443785
0.0436809
0.0430447
0.042479
0.0419924
0.0415932
0.0412891
0.0410857
0.0409863
0.0755803
0.074819
0.0740495
0.0732741
0.0724922
0.0717052
0.0709122
0.0701148
0.0693109
0.0684987
0.067678
0.0668502
0.0660147
0.0651724
0.0643228
0.0634677
0.0626044
0.0617335
0.0608589
0.0599813
0.059101
0.058217
0.0573284
0.0564356
0.0555422
0.0546504
0.0537621
0.0528805
0.0520076
0.0511488
0.0503072
0.0494886
0.0486983
0.047943
0.0472312
0.0465702
0.0459679
0.0454326
0.0449725
0.0445938
0.0443056
0.0441131
0.0440192
0.0762705
0.0755799
0.0748793
0.0741744
0.0734594
0.0727409
0.0720117
0.0712801
0.0705423
0.0697953
0.0690336
0.0682671
0.0674878
0.0667047
0.0659074
0.0651088
0.0643025
0.0634791
0.0626521
0.0618217
0.0609904
0.060157
0.0593186
0.0584714
0.0576204
0.0567731
0.0559244
0.055087
0.0542503
0.0534318
0.0526264
0.0518435
0.0510879
0.0503625
0.0496806
0.0490488
0.0484732
0.0479604
0.0475249
0.0471588
0.0468821
0.0466991
0.0466099
0.0769135
0.076278
0.0756289
0.0749871
0.0743225
0.0736705
0.0729901
0.0723149
0.0716313
0.0709519
0.0702288
0.0695233
0.06878
0.0680598
0.0672986
0.0665418
0.0657985
0.0650105
0.0642228
0.0634244
0.0626278
0.0618332
0.0610404
0.0602403
0.0594179
0.0586208
0.0577921
0.0570076
0.0561895
0.0554132
0.0546354
0.05388
0.0531605
0.0524542
0.0517953
0.0511868
0.0506365
0.0501361
0.0497359
0.0493693
0.0490996
0.0489264
0.0488417
0.00940377
0.0115476
0.0128052
0.0138956
0.0150039
0.0161729
0.0174025
0.0186817
0.0199995
0.0213469
0.0227171
0.0241054
0.0255081
0.0269231
0.0283483
0.0297825
0.0312248
0.0326741
0.0341303
0.0355927
0.0370608
0.0385346
0.0400135
0.0414975
0.042986
0.044479
0.045976
0.0474767
0.0489806
0.0504875
0.051997
0.0535085
0.0550218
0.0565363
0.0580514
0.0595668
0.0610818
0.0625956
0.0641077
0.0656171
0.0671231
0.0686252
0.0701234
0.021349
0.0215115
0.0218503
0.02236
0.023024
0.0238204
0.0247266
0.0257218
0.0267879
0.0279101
0.0290766
0.0302778
0.0315064
0.0327567
0.0340243
0.0353057
0.0365983
0.0379
0.0392091
0.0405242
0.0418447
0.0431693
0.0444977
0.0458292
0.0471634
0.0484997
0.0498378
0.0511773
0.0525179
0.0538595
0.0552016
0.0565443
0.0578871
0.0592298
0.0605722
0.061914
0.0632548
0.0645943
0.0659319
0.0672671
0.0685991
0.0699272
0.0712492
0.0278664
0.0280074
0.0282899
0.0287091
0.0292556
0.0299165
0.0306773
0.0315236
0.0324414
0.0334184
0.0344437
0.0355083
0.0366045
0.0377258
0.0388673
0.0400247
0.0411946
0.0423743
0.0435615
0.0447548
0.0459524
0.0471535
0.048357
0.0495622
0.0507682
0.0519746
0.0531808
0.0543866
0.0555916
0.0567959
0.057999
0.0592011
0.0604018
0.0616012
0.0627991
0.0639953
0.0651899
0.0663824
0.0675724
0.0687597
0.0699437
0.0711242
0.0723007
0.0331075
0.0332329
0.0334811
0.0338483
0.0343275
0.0349089
0.0355816
0.036334
0.0371546
0.0380328
0.038959
0.0399246
0.0409223
0.0419457
0.0429896
0.0440496
0.0451221
0.0462041
0.0472931
0.0483874
0.0494853
0.0505856
0.051687
0.0527884
0.0538889
0.0549879
0.056085
0.0571799
0.0582725
0.0593626
0.0604501
0.0615349
0.0626169
0.0636961
0.0647725
0.0658463
0.0669173
0.0679851
0.0690496
0.0701104
0.0711675
0.0722205
0.0732689
0.0374047
0.0375203
0.0377472
0.0380821
0.0385188
0.0390492
0.039664
0.0403531
0.0411068
0.0419152
0.0427698
0.0436624
0.044586
0.0455346
0.046503
0.0474867
0.048482
0.0494859
0.0504961
0.0515107
0.0525282
0.0535468
0.054565
0.0555813
0.0565948
0.0576051
0.0586118
0.0596149
0.0606142
0.0616096
0.0626009
0.0635877
0.0645701
0.0655483
0.0665227
0.0674932
0.0684596
0.0694214
0.0703787
0.0713312
0.072279
0.0732223
0.0741617
0.040991
0.0410997
0.0413121
0.0416246
0.0420319
0.0425266
0.0431005
0.0437445
0.0444494
0.0452064
0.0460073
0.0468444
0.0477111
0.0486015
0.0495104
0.0504335
0.0513667
0.0523076
0.0532541
0.0542049
0.0551577
0.05611
0.0570597
0.0580054
0.0589465
0.059883
0.0608148
0.0617418
0.0626638
0.0635806
0.0644913
0.0653956
0.0662941
0.0671875
0.068076
0.0689595
0.069837
0.0707084
0.0715739
0.0724333
0.0732866
0.0741343
0.0749774
0.0440242
0.0441279
0.0443294
0.0446251
0.0450105
0.0454788
0.0460223
0.0466324
0.0473003
0.0480182
0.0487776
0.0495712
0.050393
0.0512371
0.0520987
0.0529724
0.0538543
0.0547435
0.055639
0.0565389
0.05744
0.0583374
0.0592294
0.0601155
0.0609957
0.0618708
0.0627405
0.0636042
0.0644623
0.0653134
0.0661558
0.0669899
0.0678175
0.0686397
0.0694563
0.0702662
0.0710677
0.0718616
0.0726484
0.0734276
0.0741991
0.0749633
0.0757203
0.0466153
0.0467153
0.0469083
0.0471898
0.0475585
0.0480056
0.0485264
0.0491102
0.0497488
0.0504366
0.0511625
0.051921
0.0527076
0.053513
0.0543378
0.0551685
0.0560065
0.0568542
0.05771
0.0585701
0.0594303
0.0602779
0.0611213
0.0619555
0.0627848
0.0636098
0.0644276
0.0652387
0.0660447
0.0668403
0.0676228
0.0683964
0.0691648
0.0699283
0.0706843
0.0714321
0.0721666
0.0728949
0.0736141
0.0743244
0.0750246
0.075717
0.0764
0.0488475
0.0489451
0.0491327
0.0493989
0.0497551
0.0501819
0.0506868
0.0512491
0.0518634
0.0525291
0.0532226
0.0539533
0.0547152
0.0554812
0.0562796
0.0570633
0.0578671
0.058688
0.0595167
0.0603437
0.0611667
0.0619575
0.0627672
0.06355
0.064344
0.0651286
0.0659026
0.0666712
0.0674379
0.068181
0.0689087
0.069634
0.0703574
0.0710751
0.0717776
0.0724707
0.0731428
0.0738229
0.0744823
0.0751365
0.0757731
0.0764057
0.0770253
0.0179594
0.0169698
0.016022
0.015114
0.0142449
0.013414
0.0126201
0.0118626
0.0111407
0.0104536
0.00980114
0.00918304
0.00859964
0.00805175
0.00754109
0.00707048
0.006644
0.0062642
0.00592618
0.00562057
0.00533903
0.0050755
0.00482571
0.00458653
0.00435556
0.00413092
0.00391102
0.00369442
0.00347989
0.00326632
0.00305266
0.00283797
0.00262138
0.00240211
0.00217952
0.00195305
0.00172233
0.00148716
0.00124755
0.00100383
0.000756671
0.000504956
0.000285948
0.0179664
0.0170498
0.0161685
0.0153213
0.0145072
0.0137252
0.0129748
0.0122551
0.0115655
0.0109055
0.0102746
0.00967264
0.00909965
0.00855606
0.00804282
0.00756162
0.00711524
0.0067074
0.00634029
0.00600964
0.00570809
0.00542895
0.00516697
0.00491808
0.00467919
0.00444784
0.00422205
0.00400015
0.00378067
0.00356228
0.00334375
0.00312393
0.00290175
0.00267618
0.00244631
0.00221132
0.0019705
0.00172333
0.00146955
0.00120928
0.000943287
0.000671512
0.000410737
0.0179728
0.017129
0.0163125
0.0155238
0.0147626
0.014028
0.0133194
0.0126364
0.0119783
0.0113447
0.0107354
0.01015
0.00958844
0.00905105
0.00853831
0.00805131
0.00759187
0.00716303
0.00676903
0.00641139
0.00608568
0.00578594
0.00550681
0.00524381
0.00499323
0.0047521
0.00451791
0.0042886
0.00406239
0.00383771
0.00361312
0.00338724
0.00315878
0.00292649
0.00268914
0.0024456
0.00219483
0.00193594
0.00166835
0.00139205
0.00110777
0.00081518
0.000525683
0.0179877
0.0172041
0.0164462
0.0157113
0.0149988
0.0143079
0.0136382
0.0129892
0.0123606
0.0117521
0.0111633
0.0105941
0.0100444
0.00951443
0.0090045
0.00851533
0.00804817
0.00760524
0.00719031
0.00680781
0.00645757
0.00613517
0.00583587
0.00555538
0.00528991
0.00503614
0.00479117
0.00455252
0.00431805
0.00408586
0.00385424
0.00362161
0.00338642
0.00314718
0.00290243
0.00265071
0.00239065
0.00212104
0.00184099
0.00155033
0.00124966
0.000937985
0.000627052
0.0179965
0.0172732
0.0165689
0.0158831
0.0152149
0.014564
0.0139299
0.0133124
0.0127111
0.0121258
0.0115563
0.0110027
0.0104647
0.00994273
0.00943691
0.00894782
0.00847641
0.00802427
0.00759428
0.00719109
0.00681816
0.00647341
0.00615299
0.00585319
0.00557059
0.00530189
0.00504406
0.00479432
0.00455016
0.00430938
0.00406994
0.00382999
0.00358774
0.00334147
0.00308946
0.00282997
0.00256135
0.00228206
0.00199095
0.00168763
0.00137246
0.00104376
0.000715375
0.0180037
0.0173359
0.0166811
0.0160399
0.0154122
0.0147978
0.0141963
0.0136075
0.0130313
0.0124675
0.0119161
0.0113771
0.0108505
0.0103366
0.0098355
0.00934782
0.00887426
0.00841607
0.00797544
0.0075562
0.00716344
0.00679802
0.00645711
0.00613768
0.00583686
0.00555178
0.00527953
0.00501723
0.00476218
0.00451184
0.00426388
0.00401615
0.00376661
0.00351328
0.00325419
0.00298736
0.00271085
0.00242284
0.0021219
0.0018074
0.00147948
0.00113581
0.000792601
0.0180122
0.0173934
0.0167834
0.016183
0.0155923
0.0150112
0.0144394
0.013877
0.0133238
0.0127799
0.0122453
0.01172
0.0112042
0.0106981
0.010202
0.0097164
0.00924194
0.00877969
0.00833137
0.00789999
0.00749059
0.0071067
0.00674681
0.00640848
0.00608947
0.00578743
0.00549982
0.00522395
0.00495708
0.00469643
0.00443938
0.00418351
0.00392651
0.00366616
0.00340023
0.00312648
0.00284266
0.0025467
0.00223699
0.0019126
0.00157324
0.00121573
0.00085914
0.0180255
0.0174477
0.016877
0.0163135
0.0157565
0.0152059
0.0146617
0.0141237
0.0135916
0.0130659
0.0125471
0.0120352
0.0115298
0.0110312
0.01054
0.0100568
0.00958205
0.00911674
0.00866251
0.00822186
0.00779894
0.00739869
0.00702136
0.0066652
0.00632857
0.00600986
0.00570661
0.00541618
0.00513646
0.00486499
0.00459872
0.00433456
0.0040699
0.00380235
0.00352946
0.00324914
0.00295896
0.00265627
0.00233857
0.00200578
0.00165751
0.00129051
0.000922274
0.0180414
0.0175001
0.0169613
0.0164317
0.0159062
0.0153833
0.0148654
0.014352
0.0138395
0.0133298
0.0128264
0.0123296
0.0118372
0.0113462
0.01086
0.0103812
0.00990695
0.00943901
0.0089791
0.00853163
0.00809906
0.00768604
0.00729267
0.0069191
0.0065641
0.00622845
0.00591424
0.00560973
0.00531218
0.00502431
0.00474728
0.00447635
0.00420605
0.00393307
0.00365487
0.00336423
0.00306281
0.00275127
0.00242953
0.0020846
0.00172049
0.00133042
0.000954718
0.000293268
0.000506452
0.000755301
0.00099733
0.00123357
0.00146356
0.00168727
0.00190495
0.00211707
0.00232428
0.00252738
0.00272726
0.00292494
0.00312152
0.00331819
0.00351625
0.00371712
0.00392239
0.00413399
0.00435424
0.0045862
0.00483413
0.00510416
0.00540484
0.005746
0.00613229
0.00656071
0.00702707
0.00752858
0.00806363
0.00863141
0.00923169
0.00986467
0.0105308
0.0112307
0.0119652
0.0127351
0.0135415
0.0143854
0.015268
0.0161911
0.0171571
0.0181672
0.000417298
0.000670325
0.00093618
0.00119449
0.00144481
0.0016866
0.00192006
0.0021458
0.00236467
0.00257766
0.00278591
0.00299062
0.00319307
0.0033946
0.00359668
0.00380086
0.00400892
0.00422294
0.00444545
0.00467969
0.00492989
0.00520152
0.00550167
0.00583804
0.00621431
0.00662734
0.00707331
0.00754954
0.0080544
0.00858703
0.00914706
0.00973452
0.0103496
0.0109929
0.0116648
0.0123661
0.0130975
0.0138599
0.0146542
0.0154817
0.0163437
0.0172414
0.0181741
0.000531663
0.00081116
0.00109486
0.00136896
0.00163297
0.00188633
0.00212945
0.00236332
0.00258919
0.00280848
0.00302266
0.00323325
0.00344182
0.00365003
0.00385964
0.00407263
0.00429124
0.0045182
0.00475675
0.00501088
0.00528534
0.00558586
0.0059188
0.00628833
0.00669135
0.00712336
0.00758142
0.0080638
0.00856955
0.00909821
0.0096496
0.0102238
0.0108211
0.0114418
0.0120864
0.0127555
0.0134496
0.0141696
0.0149162
0.0156904
0.0164929
0.017324
0.0181829
0.000632551
0.000931118
0.00123118
0.00151939
0.00179564
0.00205947
0.00231152
0.00255314
0.00278599
0.00301184
0.00323252
0.00344985
0.00366575
0.00388222
0.00410142
0.00432581
0.00455821
0.00480187
0.00506046
0.0053381
0.0056394
0.00596948
0.00633293
0.0067283
0.00715028
0.00759521
0.00806107
0.0085467
0.00905145
0.00957503
0.0101173
0.0106785
0.0112586
0.0118579
0.0124769
0.013116
0.0137756
0.0144562
0.0151586
0.0158833
0.0166304
0.0173994
0.0181875
0.000720641
0.00103426
0.0013488
0.0016494
0.00193642
0.00220958
0.00246978
0.00271872
0.00295842
0.003191
0.00341862
0.00364346
0.00386778
0.00409398
0.00432471
0.0045629
0.00481177
0.0050748
0.00535563
0.005658
0.00598591
0.00634357
0.00673232
0.00714681
0.00758233
0.00803626
0.00850714
0.00899411
0.00949671
0.0100147
0.0105479
0.0110964
0.0116602
0.0122396
0.0128349
0.0134462
0.014074
0.0147186
0.0153803
0.0160595
0.0167561
0.0174699
0.0182021
0.000797228
0.00112348
0.00145085
0.00176239
0.00205891
0.00234041
0.00260808
0.00286393
0.00311035
0.00334978
0.00358473
0.00381774
0.00405146
0.00428875
0.00453266
0.00478648
0.00505357
0.0053373
0.00564083
0.00596727
0.00631994
0.00670191
0.00711027
0.00753902
0.00798457
0.00844498
0.00891913
0.00940633
0.00990613
0.0104183
0.0109426
0.0114791
0.0120278
0.0125887
0.013162
0.0137479
0.0143465
0.014958
0.0155825
0.0162202
0.0168709
0.0175346
0.0182107
0.000865063
0.00120265
0.00154101
0.00186196
0.00216677
0.00245571
0.00273017
0.00299248
0.00324536
0.0034916
0.0037341
0.00397583
0.00421984
0.00446932
0.00472762
0.00499815
0.00528422
0.00558871
0.00591412
0.00626292
0.00663798
0.00704022
0.00746377
0.00790354
0.00835681
0.00882208
0.00929846
0.00978526
0.010282
0.0107884
0.0113042
0.0118295
0.012364
0.0129078
0.0134609
0.0140234
0.0145952
0.0151763
0.0157668
0.0163667
0.0169759
0.0175947
0.0182238
0.000922013
0.00126707
0.00161581
0.0019457
0.00225854
0.00255438
0.00283516
0.00310384
0.00336341
0.00361721
0.00386849
0.00412002
0.004375
0.0046371
0.00491018
0.00519802
0.00550327
0.00582788
0.00617383
0.00654332
0.00693868
0.00735753
0.00779316
0.00824166
0.00870107
0.0091704
0.00964873
0.0101349
0.0106281
0.0111285
0.0116361
0.0121506
0.0126719
0.0131998
0.0137342
0.0142752
0.0148224
0.0153754
0.0159345
0.0164999
0.0170718
0.01765
0.0182345
0.000983669
0.00135274
0.0017098
0.00204665
0.00236331
0.00266484
0.00295374
0.00322938
0.00349593
0.00375709
0.00401127
0.00426407
0.00452469
0.00479753
0.00508949
0.00539988
0.0057247
0.00606833
0.00643429
0.00682477
0.00723847
0.00766829
0.00811146
0.00856515
0.00902914
0.00950348
0.0099846
0.0104674
0.010953
0.0114454
0.0119445
0.0124476
0.0129557
0.0134686
0.0139853
0.0145068
0.0150309
0.0155567
0.0160856
0.016619
0.0171582
0.0177006
0.0182434
0.00100163
0.00302216
0.0048968
0.00664713
0.00831838
0.00994197
0.0115368
0.0131141
0.0146804
0.0162401
0.017796
0.01935
0.0209037
0.0224582
0.0240144
0.025573
0.0271348
0.0287
0.0302691
0.0318424
0.03342
0.0350021
0.0365887
0.0381798
0.0397752
0.0413749
0.0429787
0.0445862
0.0461972
0.0478115
0.0494285
0.0510479
0.0526691
0.0542917
0.055915
0.0575383
0.059161
0.0607823
0.0624016
0.0640179
0.0656306
0.0672388
0.068842
2.65423e-05
0.00113889
0.002534
0.00399557
0.00550199
0.00703478
0.00858476
0.0101472
0.0117194
0.0132998
0.0148874
0.0164816
0.0180819
0.0196881
0.0212999
0.0229173
0.02454
0.0261681
0.0278014
0.0294397
0.031083
0.0327311
0.0343838
0.036041
0.0377023
0.0393675
0.0410363
0.0427083
0.0443831
0.0460603
0.0477395
0.0494202
0.0511018
0.0527837
0.0544653
0.0561458
0.0578247
0.0595011
0.0611743
0.0628435
0.0645081
0.0661677
0.0678212
5.60954e-05
0.000791392
0.00181085
0.00297358
0.0042384
0.00557716
0.0069723
0.00841213
0.00988848
0.0113953
0.0129281
0.0144834
0.0160582
0.0176504
0.0192579
0.0208794
0.0225135
0.0241589
0.0258147
0.02748
0.029154
0.0308359
0.0325251
0.0342209
0.0359226
0.0376297
0.0393415
0.0410575
0.042777
0.0444993
0.0462239
0.04795
0.0496771
0.0514043
0.053131
0.0548564
0.0565796
0.0582999
0.0600165
0.0617286
0.0634355
0.0651365
0.0668309
0.000274389
0.000691835
0.00151387
0.00248554
0.00357065
0.00474576
0.00599467
0.00730564
0.00866972
0.0100799
0.0115305
0.0130168
0.0145349
0.0160815
0.0176535
0.0192485
0.0208643
0.0224988
0.0241504
0.0258174
0.0274982
0.0291916
0.0308965
0.0326116
0.0343358
0.0360682
0.0378076
0.0395533
0.0413043
0.0430596
0.0448183
0.0465797
0.0483428
0.0501067
0.0518705
0.0536333
0.0553942
0.0571523
0.0589067
0.0606564
0.0624007
0.0641387
0.0658696
0.000352261
0.000633787
0.00134075
0.00218945
0.00314959
0.00420229
0.00533424
0.00653544
0.00779798
0.00911541
0.0104823
0.0118939
0.0133461
0.0148354
0.0163584
0.0179123
0.0194944
0.0211022
0.0227335
0.0243863
0.0260584
0.0277484
0.0294544
0.0311749
0.0329083
0.0346534
0.0364088
0.0381731
0.0399451
0.0417237
0.0435077
0.045296
0.0470874
0.0488808
0.0506752
0.0524694
0.0542624
0.0560531
0.0578405
0.0596236
0.0614013
0.0631723
0.0649347
0.000348853
0.000580513
0.00121436
0.00197786
0.00284748
0.00380784
0.00484797
0.00595957
0.00713601
0.00837175
0.00966202
0.0110026
0.0123897
0.0138199
0.01529
0.0167972
0.0183385
0.0199114
0.0215136
0.0231426
0.0247963
0.0264727
0.0281699
0.0298858
0.0316188
0.0333672
0.0351292
0.0369034
0.0386883
0.0404822
0.0422839
0.044092
0.0459051
0.0477218
0.049541
0.0513612
0.0531814
0.0550001
0.0568163
0.0586288
0.0604364
0.062238
0.0640329
0.000335283
0.000534269
0.00111388
0.00181351
0.00261372
0.0035017
0.00446821
0.00550626
0.00661027
0.00777556
0.00899807
0.0102742
0.0116005
0.012974
0.0143918
0.0158511
0.0173493
0.0188838
0.0204523
0.0220523
0.0236816
0.0253381
0.0270196
0.0287241
0.0304495
0.0321941
0.0339558
0.035733
0.0375239
0.0393267
0.0411399
0.0429618
0.0447908
0.0466255
0.0484644
0.0503059
0.0521487
0.0539913
0.0558325
0.0576709
0.0595052
0.0613343
0.0631568
0.000324025
0.000499637
0.00103207
0.0016808
0.00242525
0.00325436
0.00416015
0.00513663
0.00617903
0.00728339
0.00844625
0.0096645
0.0109353
0.0122559
0.0136238
0.0150366
0.0164917
0.0179869
0.0195198
0.0210881
0.0226897
0.0243222
0.0259837
0.0276719
0.0293848
0.0311203
0.0328764
0.0346512
0.0364427
0.0382491
0.0400686
0.0418993
0.0437395
0.0455875
0.0474416
0.0493001
0.0511616
0.0530243
0.0548869
0.056748
0.0586062
0.0604606
0.0623112
0.000316162
0.000479334
0.000964729
0.00157115
0.00226932
0.00304917
0.00390369
0.00482764
0.00581692
0.00686809
0.00797824
0.00914469
0.010365
0.0116369
0.0129581
0.0143266
0.01574
0.0171962
0.0186933
0.0202289
0.0218009
0.0234073
0.025046
0.0267148
0.0284115
0.0301342
0.0318806
0.0336489
0.0354369
0.0372426
0.0390641
0.0408994
0.0427466
0.0446039
0.0464693
0.0483412
0.0502178
0.0520973
0.0539781
0.0558588
0.057738
0.0596145
0.0614882
0.000310721
0.000467584
0.000908538
0.00147886
0.00213772
0.0028755
0.00368593
0.00456438
0.00550724
0.00651157
0.00757482
0.00869476
0.00986927
0.0110964
0.0123743
0.013701
0.0150746
0.0164932
0.0179549
0.0194577
0.0209997
0.0225788
0.024193
0.0258403
0.0275185
0.0292256
0.0309595
0.0327181
0.0344992
0.0363008
0.0381208
0.0399572
0.041808
0.0436711
0.0455446
0.0474265
0.049315
0.0512082
0.0531043
0.0550018
0.056899
0.0587942
0.0606842
0.000306446
0.000458997
0.000860904
0.00139994
0.00202479
0.00272606
0.00349802
0.00433653
0.00523841
0.00620107
0.00722232
0.00830025
0.00943307
0.0106191
0.0118567
0.0131443
0.0144802
0.0158628
0.0172903
0.0187609
0.0202728
0.0218242
0.0234132
0.0250377
0.0266959
0.0283856
0.0301046
0.0318511
0.0336228
0.0354176
0.0372334
0.0390681
0.0409195
0.0427855
0.044664
0.0465531
0.0484508
0.0503549
0.0522637
0.0541754
0.0560885
0.0580017
0.0599169
0.000302643
0.000451382
0.000819925
0.00133155
0.00192663
0.0025958
0.00333381
0.0041369
0.00500223
0.00592754
0.00691092
0.00795074
0.00904546
0.0101937
0.011394
0.0126451
0.0139455
0.0152937
0.0166882
0.0181275
0.0196099
0.0211337
0.0226972
0.0242984
0.0259355
0.0276064
0.0293092
0.0310419
0.0328022
0.034588
0.0363973
0.0382278
0.0400773
0.0419438
0.0438249
0.0457187
0.0476229
0.0495356
0.0514546
0.0533781
0.0553042
0.0572305
0.0591526
0.000299057
0.000444168
0.000784241
0.00127165
0.00184037
0.00248104
0.00318878
0.00396018
0.00479267
0.00568426
0.00663329
0.00763835
0.00869815
0.0098115
0.0109772
0.0121942
0.0134611
0.0147767
0.0161398
0.0175489
0.0190025
0.0204991
0.0220372
0.0236148
0.0252303
0.0268817
0.0285672
0.0302847
0.0320321
0.0338073
0.0356082
0.0374326
0.0392783
0.0411431
0.0430247
0.0449209
0.0468296
0.0487485
0.0506756
0.0526088
0.0545459
0.0564851
0.0584257
0.00029562
0.000437289
0.000753107
0.00121867
0.00176382
0.00237896
0.0030595
0.0038023
0.00460507
0.00546601
0.0063837
0.00735691
0.00838455
0.00946563
0.0105991
0.0117842
0.0130196
0.0143044
0.0156375
0.0170175
0.0184432
0.0199133
0.0214262
0.0229803
0.024574
0.0262055
0.0278729
0.0295744
0.0313078
0.0330711
0.0348622
0.0366789
0.0385191
0.0403804
0.0422606
0.0441574
0.0460686
0.0479918
0.049925
0.0518658
0.0538119
0.0557611
0.0577102
0.000292366
0.000431064
0.000727599
0.00117157
0.00169537
0.00228744
0.00294336
0.00366021
0.00443591
0.00526885
0.00615779
0.00710169
0.00809961
0.00915074
0.0102542
0.0114093
0.0126151
0.0138708
0.0151752
0.0165275
0.0179263
0.0193705
0.0208588
0.0223897
0.0239616
0.025573
0.0272219
0.0289066
0.0306252
0.0323757
0.0341558
0.0359636
0.0377968
0.0396531
0.0415303
0.0434261
0.0453381
0.047264
0.0492014
0.0511482
0.0531016
0.055059
0.0570162
0.000289428
0.000426249
0.000710085
0.00112984
0.00163379
0.00220486
0.00283834
0.00353149
0.0042824
0.00508964
0.00595211
0.00686892
0.00783929
0.00886255
0.00993802
0.0110651
0.0122429
0.0134709
0.0147482
0.0160738
0.0174467
0.0188659
0.0203302
0.0218383
0.0233886
0.0249798
0.02661
0.0282777
0.0299809
0.0317177
0.0334861
0.0352838
0.0371089
0.038959
0.0408319
0.0427252
0.0446365
0.0465635
0.0485038
0.050455
0.0524147
0.0543807
0.0563528
0.000286899
0.000423102
0.000699358
0.00109291
0.00157813
0.00212988
0.00274279
0.00341418
0.00414228
0.0049258
0.00576378
0.00665546
0.00760019
0.00859744
0.00964664
0.0107473
0.0118988
0.0131006
0.014352
0.0156521
0.0170002
0.0183952
0.0198362
0.0213218
0.0228509
0.0244221
0.0260336
0.027684
0.0293714
0.031094
0.0328498
0.0346368
0.0364528
0.0382957
0.040163
0.0420526
0.043962
0.0458888
0.0478306
0.0497849
0.0517493
0.0537212
0.0556973
0.000284733
0.000421124
0.00069212
0.00106004
0.00152759
0.00206148
0.00265542
0.00330673
0.00401374
0.00477529
0.00559054
0.00645882
0.00737963
0.00835253
0.00937708
0.0104529
0.0115795
0.0127565
0.0139832
0.015259
0.0165831
0.0179548
0.0193732
0.020837
0.0223452
0.0238965
0.0254894
0.0271224
0.0287939
0.0305019
0.0322447
0.0340202
0.0358264
0.0376611
0.039522
0.0414069
0.0433132
0.0452386
0.0471807
0.0491369
0.0511047
0.0530819
0.0550672
0.000282802
0.000419638
0.000686064
0.00103047
0.00148147
0.00199879
0.00257518
0.00320789
0.00389533
0.00463646
0.00543052
0.00627697
0.00717539
0.00812544
0.00912681
0.0101792
0.0112823
0.0124356
0.0136388
0.0148914
0.0161926
0.0175418
0.0189382
0.0203808
0.0218686
0.0234004
0.0249748
0.0265905
0.0282458
0.029939
0.0316684
0.033432
0.0352278
0.0370536
0.0389072
0.0407864
0.0426888
0.0446118
0.046553
0.04851
0.0504799
0.0524601
0.0544464
0.000280985
0.000418183
0.000680166
0.00100362
0.00143916
0.00194108
0.00250115
0.00311655
0.00378578
0.00450785
0.00528211
0.00610811
0.00698551
0.00791408
0.00889358
0.00992382
0.0110045
0.0121355
0.0133163
0.0145466
0.0158257
0.0171533
0.0185285
0.0199504
0.0214183
0.0229309
0.0244871
0.0260855
0.0277247
0.0294029
0.0311186
0.0328699
0.0346548
0.0364712
0.0383169
0.0401896
0.0420871
0.0440069
0.0459464
0.0479032
0.0498745
0.0518572
0.0538475
0.000279212
0.000416567
0.000674152
0.000979285
0.00140022
0.00188775
0.0024326
0.00303186
0.00368406
0.0043883
0.00514401
0.0059508
0.00680843
0.00771675
0.00867558
0.00968485
0.0107444
0.011854
0.0130134
0.0142224
0.0154804
0.016787
0.0181417
0.0195437
0.0209921
0.022486
0.0240241
0.0256055
0.0272285
0.0288918
0.0305937
0.0323323
0.0341059
0.0359123
0.0377495
0.0396153
0.0415072
0.043423
0.0453601
0.0473161
0.0492884
0.0512749
0.0532736
0.00027746
0.000414798
0.000668207
0.000958045
0.00136434
0.00183832
0.00236893
0.00295308
0.00358933
0.00427684
0.00501511
0.00580383
0.00664282
0.007532
0.00847129
0.00946066
0.0105
0.0115893
0.0127284
0.0139169
0.0151546
0.0164411
0.017776
0.0191585
0.020588
0.0220635
0.023584
0.0251485
0.0267556
0.0284038
0.0300918
0.0318176
0.0335796
0.0353758
0.037204
0.0390622
0.040948
0.0428591
0.0447931
0.0467478
0.048721
0.0507119
0.0527238
0.000275746
0.000413034
0.000662894
0.000941127
0.00133146
0.0017924
0.0023096
0.00287956
0.00350081
0.00417258
0.00489441
0.00566608
0.00648745
0.00735852
0.00827927
0.00924975
0.0102699
0.0113398
0.0124593
0.0136283
0.0148465
0.0161136
0.0174294
0.018793
0.020204
0.0216616
0.0231648
0.0247127
0.0263039
0.0279373
0.0296112
0.0313241
0.0330744
0.0348599
0.0366788
0.038529
0.0404081
0.042314
0.0442443
0.0461968
0.0481691
0.0501591
0.0521623
0.000274108
0.000411486
0.000658735
0.000928825
0.00130155
0.0017497
0.00225419
0.00281076
0.00341788
0.0040748
0.00478113
0.00553667
0.00634136
0.00719525
0.00809839
0.00905088
0.0100528
0.0111041
0.012205
0.0133552
0.0145546
0.0158031
0.0171003
0.0184456
0.0198387
0.0212788
0.0227651
0.0242966
0.0258722
0.0274907
0.0291507
0.0308506
0.0325889
0.0343636
0.0361729
0.0380146
0.0398867
0.0417868
0.0437126
0.0456619
0.0476322
0.0496209
0.051626
0.000272579
0.000410272
0.000655779
0.000919905
0.00127437
0.00170996
0.00220232
0.00274624
0.00334002
0.0039829
0.00467455
0.00541481
0.00620368
0.00704125
0.00792764
0.008863
0.00984746
0.0108811
0.0119641
0.0130963
0.0142776
0.015508
0.0167873
0.018115
0.0194907
0.0209137
0.0223834
0.0238988
0.025459
0.0270628
0.0287089
0.0303958
0.0321221
0.0338858
0.0356851
0.0375181
0.0393827
0.0412765
0.0431972
0.0451425
0.0471094
0.0490943
0.0510906
0.000271163
0.000409366
0.000653682
0.000912821
0.00124953
0.00167288
0.00215368
0.00268558
0.00326671
0.0038963
0.00457402
0.00529979
0.00607362
0.00689566
0.00776608
0.00868509
0.00965287
0.0106696
0.0117353
0.0128502
0.0140142
0.0152273
0.0164892
0.0177997
0.0191585
0.0205649
0.0220183
0.023518
0.025063
0.0266523
0.0282846
0.0299585
0.0316726
0.0334252
0.0352145
0.0370384
0.0388951
0.0407821
0.0426973
0.0446379
0.0466013
0.0485841
0.0505838
0.00026984
0.000408651
0.000652006
0.000906524
0.00122667
0.00163822
0.00210795
0.00262845
0.00319757
0.00381454
0.00447903
0.005191
0.00595052
0.00675777
0.00761295
0.00851634
0.00946815
0.0104686
0.0115179
0.0126162
0.0137634
0.0149596
0.0162049
0.0174987
0.018841
0.0202312
0.0216688
0.023153
0.0246831
0.026258
0.0278766
0.0295376
0.0312396
0.032981
0.03476
0.0365747
0.0384231
0.040303
0.0422121
0.0441479
0.0461075
0.048088
0.050086
0.000268584
0.000407997
0.000650426
0.000900505
0.00120564
0.00160573
0.00206489
0.00257453
0.00313224
0.0037372
0.00438911
0.00508795
0.00583382
0.00662695
0.00746757
0.00835602
0.00929253
0.0102774
0.0113109
0.0123931
0.0135242
0.0147043
0.0159333
0.017211
0.0185373
0.0199117
0.0213338
0.0228029
0.0243183
0.0258791
0.0274841
0.0291323
0.0308222
0.0325523
0.0343208
0.0361261
0.0379661
0.0398386
0.0417414
0.043672
0.0456277
0.0476064
0.0496068
0.000267367
0.000407319
0.000648782
0.000894663
0.00118663
0.00157526
0.00202427
0.00252354
0.00307038
0.0036639
0.00430382
0.00499012
0.00572296
0.00650259
0.00732929
0.00820341
0.00912526
0.0100952
0.0111134
0.0121802
0.0132957
0.0144601
0.0156734
0.0169355
0.0182462
0.0196053
0.0210122
0.0224666
0.0239676
0.0255144
0.0271061
0.0287414
0.0304193
0.032138
0.0338961
0.0356918
0.0375232
0.0393881
0.0412843
0.0432094
0.0451609
0.0471361
0.049131
0.000266175
0.000406587
0.000647084
0.000889203
0.00117024
0.00154682
0.0019859
0.00247525
0.00301171
0.00359432
0.00422278
0.00489712
0.00561749
0.0063842
0.00719755
0.00805794
0.00896571
0.00992122
0.0109248
0.0119768
0.0130773
0.0142265
0.0154246
0.0166715
0.0179671
0.0193112
0.0207034
0.0221432
0.02363
0.0251631
0.0267416
0.0283643
0.0300301
0.0317376
0.0334852
0.0352712
0.0370938
0.0389509
0.0408403
0.0427599
0.0447072
0.0466797
0.0486755
0.000265008