/*--------------------------------*- C++ -*----------------------------------*\
| =========                 |                                                 |
| \\      /  F ield         | OpenFOAM: The Open Source CFD Toolbox           |
|  \\    /   O peration     | Version:  2.3.0                                 |
|   \\  /    A nd           | Web:      www.OpenFOAM.org                      |
|    \\/     M anipulation  |                                                 |
\*---------------------------------------------------------------------------*/
FoamFile
{
    version     2.0;
    format      ascii;
    class       volScalarField;
    location    "600";
    object      p;
}
// * * * * * * * * * * * * * * * * * * * * * * * * * * * * * * * * * * * * * //

dimensions      [0 2 -2 0 0 0 0];

internalField   nonuniform List<scalar> 
7826
(
-1.89527e-05
-0.78066
-1.30424
-1.51097
-1.42056
-1.09172
-0.586882
0.0500132
0.811953
1.72405
2.82191
4.10374
5.49341
7.21495
10.5878
2.21374
1.76261
1.36115
1.07128
0.961887
1.1032
1.55202
2.33762
3.46119
4.89449
6.59176
8.4951
10.5435
12.6963
14.9258
4.52698
4.70713
5.0463
5.54448
6.18046
6.92208
7.7372
8.59914
9.48763
10.3873
11.286
12.1751
13.044
13.888
14.7085
6.11489
6.39362
6.75946
7.20861
7.7387
8.34183
9.00698
9.72131
10.4711
11.2435
12.0252
12.8063
13.5757
14.327
15.0564
7.40055
7.76725
8.19971
8.68427
9.21115
9.76865
10.3464
10.9361
11.5303
12.1241
12.713
13.2936
13.8626
14.4181
14.9598
8.35037
8.71452
9.12213
9.55873
10.0203
10.501
10.9953
11.4989
12.0073
12.5172
13.0258
13.5303
14.0284
14.5179
14.998
9.09267
9.43815
9.81917
10.2166
10.629
11.0527
11.4845
11.9218
12.3622
12.8038
13.2447
13.6837
14.1186
14.5485
14.9721
9.67471
9.98558
10.3323
10.6888
11.0562
11.4327
11.8161
12.2052
12.5982
12.9938
13.3907
13.7877
14.183
14.5757
14.9641
10.1412
10.4148
10.7276
11.0486
11.3793
11.7181
12.0639
12.4157
12.7724
13.1328
13.496
13.8606
14.2253
14.589
14.9502
10.5092
10.7532
11.0346
11.3257
11.6265
11.9351
12.2517
12.5746
12.9033
13.237
13.5743
13.914
14.2553
14.5969
14.9375
10.7801
11.0151
11.2743
11.5414
11.8198
12.1038
12.3979
12.6976
13.0043
13.3167
13.6345
13.9543
14.2774
14.6019
14.9262
10.9786
11.2182
11.4626
11.71
11.9716
12.2348
12.5114
12.7923
13.0819
13.3768
13.6807
13.9872
14.2997
14.6128
14.9242
11.2038
11.4092
11.6261
11.8557
12.1026
12.3474
12.61
12.876
13.1553
13.4374
13.7224
14.0068
14.2982
14.5976
14.8999
11.4345
11.5943
11.8129
11.9937
12.2574
12.4462
12.7283
12.9652
13.2287
13.498
13.7981
13.9924
14.2359
14.5087
14.801
17.411
20.3519
21.9077
23.472
25.0472
26.5228
27.8698
29.0828
30.1296
30.9482
31.4647
31.6151
31.3709
30.7703
29.9624
17.1463
19.3338
21.3837
23.2777
24.9806
26.4494
27.6441
28.5344
29.1087
29.3783
29.376
29.154
28.7721
28.292
27.7799
15.5196
16.3462
17.1986
18.0801
18.9838
19.9008
20.8212
21.7298
22.6069
23.426
24.1541
24.7543
25.1944
25.4646
25.5969
15.7731
16.4943
17.2292
17.9742
18.7218
19.4614
20.1836
20.8756
21.526
22.1229
22.6549
23.1119
23.4868
23.7817
24.0011
15.4946
16.0355
16.5882
17.1523
17.7253
18.3035
18.8836
19.4602
20.0273
20.5772
21.0997
21.5833
22.0157
22.3908
22.6912
15.4724
15.9495
16.4328
16.9214
17.413
17.905
18.3947
18.879
19.3543
19.8165
20.2607
20.6813
21.0719
21.431
21.7615
15.392
15.8137
16.2394
16.668
17.098
17.5275
17.9548
18.3779
18.795
19.2029
19.5992
19.9799
20.341
20.6791
20.9841
15.3499
15.7363
16.1246
16.5137
16.9018
17.2877
17.6699
18.0468
18.4172
18.7794
19.1316
19.4717
19.797
20.104
20.3976
15.3096
15.6688
16.0287
16.3878
16.7446
17.0977
17.4463
17.7889
18.1244
18.4519
18.77
19.0773
19.3711
19.6472
19.9259
15.2769
15.6156
15.9542
16.2908
16.6239
16.9521
17.2748
17.5907
17.899
18.1989
18.4897
18.7705
19.0398
19.2953
19.5661
15.2508
15.5731
15.8959
16.2147
16.5285
16.8363
17.1383
17.4329
17.7196
17.9973
18.2662
18.5247
18.7729
19.0081
19.2564
15.2372
15.5452
15.8546
16.1572
16.4537
16.7435
17.0295
17.3064
17.5757
17.8351
18.087
18.3264
18.5568
18.7746
18.9968
15.201
15.4975
15.7913
16.0916
16.3831
16.6582
16.931
17.1952
17.4521
17.6954
17.932
18.1524
18.3666
18.5671
18.7738
15.1368
15.385
15.712
16.0272
16.32
16.5752
16.8329
17.0897
17.3388
17.567
17.7856
17.9882
18.1837
18.3573
18.5211
11.757
11.8648
12.0146
12.2138
12.4469
12.6895
12.9147
13.1011
13.2366
13.3186
13.3514
13.3399
13.2876
13.1886
13.2141
11.8738
11.9084
11.9239
11.9171
11.8852
11.8327
11.769
11.7047
11.6489
11.6064
11.5778
11.5595
11.5512
11.5359
11.5524
11.904
11.8902
11.8455
11.7883
11.7312
11.6842
11.6528
11.6375
11.6357
11.6426
11.6529
11.6606
11.6671
11.6762
11.6983
12.0043
12.0187
12.0271
12.0412
12.0628
12.0899
12.1199
12.1502
12.1787
12.2038
12.224
12.237
12.2442
12.2557
12.2774
12.1281
12.163
12.1928
12.2239
12.255
12.2846
12.3125
12.3389
12.3637
12.3863
12.4058
12.4203
12.4302
12.4446
12.4687
12.2074
12.2456
12.2682
12.2893
12.3101
12.3305
12.3513
12.3726
12.3939
12.4142
12.4321
12.4459
12.4559
12.4708
12.496
12.277
12.3049
12.3234
12.3424
12.3614
12.3803
12.3992
12.4181
12.4364
12.4534
12.468
12.4791
12.4875
12.5013
12.5271
12.3433
12.3663
12.3849
12.4036
12.4217
12.4386
12.4543
12.4687
12.4819
12.4934
12.5028
12.5095
12.5148
12.5269
12.5528
12.3833
12.4174
12.4383
12.4567
12.4728
12.4864
12.4975
12.5062
12.5123
12.5159
12.5166
12.515
12.5134
12.5216
12.5473
12.4505
12.4685
12.4871
12.5041
12.5186
12.5301
12.5382
12.5424
12.5422
12.5372
12.5269
12.5112
12.4956
12.4916
12.5122
12.4992
12.5175
12.5334
12.5482
12.5613
12.5714
12.577
12.5761
12.5683
12.5529
12.5259
12.4862
12.4406
12.4198
12.4366
12.543
12.5637
12.5799
12.5957
12.6118
12.6269
12.6384
12.6427
12.6374
12.6261
12.6028
12.5351
12.4422
12.3495
12.3306
12.585
12.5962
12.6067
12.6185
12.6316
12.6434
12.6504
12.6431
12.6195
12.5952
12.5645
12.4584
12.2087
12.1213
12.0854
12.6619
12.6809
12.6899
12.7046
12.7383
12.7837
12.8428
12.895
12.892
12.9265
13.1228
13.034
12.6782
12.1201
11.809
13.2719
13.3156
13.4811
13.5979
13.6802
13.722
13.7165
13.6594
13.5571
13.4297
13.3087
13.2264
13.2098
13.2663
13.3799
11.5817
11.6067
11.6655
11.7167
11.7896
11.8873
12.0148
12.171
12.3492
12.5373
12.7204
12.8855
13.032
13.1682
13.3019
11.7294
11.764
11.8088
11.8522
11.901
11.9566
12.0271
12.1183
12.2347
12.3779
12.5434
12.7211
12.8997
13.0705
13.2291
12.3062
12.341
12.3832
12.4262
12.468
12.5094
12.5539
12.603
12.6583
12.722
12.7965
12.8841
12.9859
13.1012
13.2271
12.4963
12.5282
12.5668
12.6068
12.6456
12.6853
12.7283
12.7755
12.8273
12.8834
12.9441
13.0101
13.0834
13.166
13.2598
12.5235
12.5552
12.5946
12.6359
12.6762
12.7177
12.7622
12.8108
12.8641
12.9224
12.9856
13.0537
13.1261
13.2027
13.285
12.5549
12.5878
12.6306
12.676
12.7209
12.7668
12.8147
12.865
12.9181
12.9742
13.0336
13.0967
13.1634
13.2335
13.3083
12.581
12.6159
12.663
12.7142
12.7662
12.8192
12.8733
12.9281
12.9834
13.0391
13.0954
13.1527
13.2112
13.2714
13.3346
12.5767
12.6159
12.6708
12.732
12.7952
12.8591
12.9225
12.9841
13.0433
13.1002
13.155
13.2084
13.2609
13.313
13.3674
12.5413
12.5864
12.6539
12.7319
12.8138
12.8949
12.9717
13.0416
13.1045
13.1614
13.2136
13.2627
13.3095
13.3546
13.401
12.4746
12.539
12.6318
12.7377
12.8462
12.9493
13.0388
13.1142
13.1762
13.2289
13.2754
13.3179
13.3575
13.3949
13.4314
12.37
12.4476
12.5672
12.7127
12.8683
13.0095
13.1233
13.2011
13.2568
13.2998
13.3376
13.3723
13.4041
13.4333
13.4595
12.2261
12.3956
12.5904
12.8053
13.0013
13.1793
13.2631
13.3187
13.3465
13.3723
13.3993
13.4265
13.4491
13.4713
13.4922
12.0646
12.1388
12.3129
12.5842
12.9256
13.2064
13.3842
13.4205
13.4245
13.4264
13.444
13.4693
13.4887
13.5055
13.5189
-91.5588
-85.9131
-79.7964
-73.597
-66.8388
-59.3717
-51.3857
-43.1578
-35.0124
-27.3059
-20.3786
-14.4841
-9.72391
-6.01682
-3.08313
-14.7437
-15.926
-16.7196
-17.3245
-17.8331
-18.2121
-18.3628
-18.1655
-17.5019
-16.2849
-14.4949
-12.2111
-9.61295
-6.93464
-4.27321
-8.81265
-9.35865
-9.41651
-9.50196
-9.65986
-9.80139
-9.87665
-9.85798
-9.71547
-9.40944
-8.88911
-8.09914
-7.00144
-5.61378
-3.96567
-12.8306
-12.8371
-12.4676
-12.2189
-11.9631
-11.6262
-11.1914
-10.647
-9.97883
-9.17949
-8.25317
-7.21082
-6.06038
-4.80595
-3.43015
-9.78168
-9.49841
-9.27104
-9.18295
-9.06278
-8.89595
-8.67993
-8.39922
-8.02907
-7.5429
-6.91737
-6.13867
-5.208
-4.14449
-3.03411
-5.65113
-5.37104
-5.37541
-5.40136
-5.4015
-5.39104
-5.36618
-5.3115
-5.20861
-5.03575
-4.76654
-4.37205
-3.82627
-3.10786
-2.26538
-3.55324
-3.48798
-3.53952
-3.54367
-3.54249
-3.54135
-3.53238
-3.5037
-3.4435
-3.33766
-3.16879
-2.91629
-2.55716
-2.06172
-1.44121
-2.45094
-2.4569
-2.47103
-2.4551
-2.44369
-2.43034
-2.40928
-2.37325
-2.31368
-2.21947
-2.07717
-1.87135
-1.58538
-1.19629
-0.70567
-1.45127
-1.461
-1.45521
-1.4405
-1.42864
-1.4141
-1.39368
-1.3632
-1.31617
-1.24376
-1.1348
-0.975834
-0.75195
-0.443436
-0.0471396
-0.556903
-0.558464
-0.548203
-0.536288
-0.524667
-0.51083
-0.492087
-0.466032
-0.427881
-0.370948
-0.286505
-0.163541
0.0111583
0.25599
0.585476
0.202658
0.205439
0.215201
0.226002
0.237432
0.250776
0.268503
0.292361
0.326105
0.37499
0.445931
0.547781
0.691533
0.892816
1.17214
0.869013
0.872818
0.881588
0.891929
0.903118
0.915706
0.931517
0.952594
0.981974
1.02393
1.08419
1.17012
1.29085
1.45867
1.69386
1.46753
1.47128
1.47947
1.48954
1.50047
1.5121
1.52575
1.54399
1.56912
1.60463
1.65532
1.72738
1.82861
1.96916
2.16742
2.00705
2.01059
2.01835
2.02797
2.03829
2.04876
2.06065
2.07665
2.09838
2.12872
2.17167
2.23233
2.31715
2.43419
2.60096
2.49534
2.49864
2.50592
2.51492
2.52442
2.53401
2.54479
2.5591
2.57828
2.60485
2.64227
2.69505
2.76897
2.87139
3.02606
2.94011
2.94316
2.94993
2.9583
2.96712
2.97635
2.98656
2.99944
3.01657
3.0402
3.07341
3.12027
3.18619
3.2773
3.4165
3.34687
3.3497
3.35604
3.36392
3.37232
3.38145
3.3912
3.40274
3.41807
3.43908
3.46843
3.5097
3.56771
3.64716
3.76746
3.72078
3.72345
3.72945
3.73694
3.74501
3.75389
3.76301
3.77335
3.78713
3.80581
3.8317
3.86789
3.91862
3.98777
4.09145
4.06682
4.06934
4.07502
4.08214
4.08981
4.09821
4.10663
4.11603
4.12854
4.14528
4.16831
4.20037
4.24516
4.30591
4.39809
4.38873
4.39111
4.39647
4.40319
4.41041
4.41825
4.42615
4.43493
4.44637
4.46153
4.48229
4.51114
4.55158
4.60682
4.68897
4.68888
4.69111
4.69615
4.70249
4.70928
4.71665
4.72434
4.73273
4.74314
4.75683
4.77546
4.8012
4.837
4.88544
4.95586
4.96975
4.97183
4.9766
4.98258
4.98903
4.99608
5.00369
5.01173
5.02119
5.0336
5.05036
5.07338
5.10542
5.14955
5.20856
5.23378
5.23575
5.24028
5.246
5.2522
5.25905
5.26654
5.27423
5.28292
5.29437
5.30972
5.33071
5.35971
5.40034
5.46322
5.48305
5.48494
5.48928
5.49478
5.50079
5.50743
5.51469
5.52199
5.53008
5.54077
5.55499
5.57433
5.60087
5.63732
5.69386
5.71914
5.72094
5.7251
5.73038
5.73616
5.74255
5.74948
5.75639
5.76403
5.77405
5.78725
5.80513
5.82962
5.8625
5.91294
5.94308
5.94479
5.94876
5.95382
5.95935
5.96546
5.97204
5.97871
5.98607
5.99554
6.00795
6.02476
6.04797
6.07932
6.12761
6.15545
6.15709
6.16089
6.16572
6.17103
6.17689
6.18323
6.18983
6.19706
6.20601
6.21773
6.23362
6.25564
6.2854
6.33006
6.35723
6.35878
6.3624
6.36702
6.3721
6.37772
6.38383
6.39039
6.3974
6.4057
6.41652
6.43105
6.45104
6.4777
6.51094
6.54933
6.5508
6.55427
6.55869
6.56356
6.56898
6.57491
6.58138
6.58808
6.59571
6.60568
6.61892
6.63697
6.66143
6.69129
6.7328
6.73422
6.73757
6.74183
6.74655
6.75182
6.75763
6.76397
6.77037
6.77753
6.78693
6.79935
6.81625
6.83977
6.86708
6.9083
6.90969
6.91295
6.91711
6.92173
6.92692
6.9326
6.93878
6.94495
6.95176
6.96071
6.97245
6.98823
7.01014
7.03547
7.07754
7.07884
7.08193
7.08591
7.09034
7.09531
7.10076
7.10665
7.1125
7.11896
7.1274
7.13842
7.15317
7.17346
7.19165
7.23931
7.24059
7.24362
7.24749
7.25182
7.25667
7.26197
7.26763
7.27329
7.27952
7.28746
7.2977
7.31131
7.33077
7.344
7.39508
7.39633
7.39926
7.40302
7.40722
7.41193
7.41706
7.42255
7.4282
7.43437
7.44204
7.45197
7.46512
7.48522
7.50539
7.5459
7.54704
7.54981
7.55338
7.55737
7.56186
7.56676
7.57205
7.57766
7.58371
7.59098
7.60045
7.61277
7.63108
7.64613
7.68996
7.69111
7.69385
7.69736
7.70129
7.70571
7.71056
7.7158
7.72145
7.7274
7.73428
7.74326
7.75485
7.77216
7.79002
7.82938
7.8305
7.83314
7.83654
7.84035
7.84466
7.84941
7.85457
7.86021
7.86602
7.87259
7.88123
7.89235
7.90865
7.92647
7.96474
7.96578
7.96831
7.97156
7.97522
7.97938
7.98397
7.98899
7.99448
8.00004
8.00624
8.01447
8.02505
8.04011
8.05665
8.09513
8.09615
8.09863
8.10181
8.1054
8.10946
8.11398
8.11888
8.12418
8.12942
8.13517
8.14271
8.15224
8.16529
8.17229
8.22158
8.22259
8.22501
8.22811
8.23162
8.2356
8.24001
8.24477
8.24985
8.25482
8.26018
8.26709
8.27563
8.28804
8.29241
8.34482
8.34579
8.34813
8.35117
8.35459
8.35849
8.36281
8.36747
8.37244
8.37733
8.38268
8.38957
8.3982
8.41197
8.41994
8.46486
8.46579
8.46808
8.47104
8.47439
8.4782
8.48245
8.48702
8.49188
8.49678
8.50215
8.50899
8.5174
8.5309
8.5402
8.58158
8.5825
8.58473
8.58761
8.59087
8.59459
8.59874
8.60321
8.60796
8.61287
8.61823
8.62493
8.6331
8.64596
8.65948
8.69479
8.6957
8.69788
8.7007
8.7039
8.70755
8.7116
8.71599
8.72066
8.7256
8.73091
8.73736
8.74531
8.75739
8.77176
8.80538
8.80623
8.80833
8.81104
8.81413
8.81765
8.82157
8.82584
8.83042
8.83536
8.8406
8.84684
8.85469
8.86614
8.88687
8.91262
8.91347
8.91553
8.91819
8.9212
8.92465
8.92849
8.93265
8.9371
8.9419
8.9468
8.95229
8.95897
8.96689
8.97644
9.01732
9.01816
9.02018
9.02278
9.02574
9.02912
9.03288
9.03697
9.04135
9.04608
9.05077
9.05591
9.06236
9.07035
9.08604
9.12051
9.12128
9.12321
9.12572
9.12857
9.13184
9.13551
9.13954
9.1439
9.14863
9.15338
9.15868
9.16568
9.17432
9.1917
9.22072
9.22151
9.22344
9.22593
9.22877
9.23204
9.23572
9.23977
9.24414
9.24887
9.2536
9.25887
9.26591
9.27417
9.29078
9.31873
9.31951
9.3214
9.32385
9.32665
9.32988
9.33351
9.3375
9.34179
9.34636
9.35085
9.35571
9.3621
9.3692
9.3834
9.41524
9.41597
9.41778
9.42014
9.42284
9.42596
9.42947
9.43334
9.43748
9.44187
9.44618
9.45087
9.45706
9.46387
9.48047
9.50946
9.51018
9.51197
9.51429
9.51694
9.52
9.52347
9.52726
9.5313
9.53555
9.53972
9.54418
9.54993
9.55548
9.56484
9.60156
9.60229
9.60407
9.60638
9.60902
9.61208
9.61553
9.61931
9.62334
9.62757
9.63182
9.63641
9.64238
9.64899
9.66368
9.69244
9.69314
9.69486
9.69711
9.69969
9.70268
9.70607
9.7098
9.71381
9.71805
9.72248
9.72736
9.73376
9.74121
9.75437
9.78142
9.7821
9.78379
9.78598
9.7885
9.79143
9.79474
9.79839
9.80229
9.80643
9.81081
9.81548
9.82127
9.82782
9.83786
9.86841
9.86908
9.87073
9.87288
9.87535
9.8782
9.88144
9.885
9.8888
9.89282
9.89712
9.90159
9.90691
9.91317
9.92408
9.95355
9.95422
9.95586
9.95798
9.96043
9.96326
9.96646
9.96998
9.97376
9.97778
9.98212
9.9866
9.99182
9.99803
10.0099
10.0379
10.0385
10.0401
10.0421
10.0445
10.0472
10.0503
10.0537
10.0574
10.0614
10.0658
10.0702
10.0753
10.0812
10.0926
10.1199
10.1206
10.1221
10.1242
10.1265
10.1292
10.1323
10.1358
10.1395
10.1434
10.1478
10.1522
10.1571
10.1625
10.1722
10.2008
10.2014
10.2029
10.2049
10.2072
10.2099
10.2129
10.2163
10.2201
10.2241
10.2285
10.2329
10.2381
10.2441
10.2563
10.2801
10.2807
10.2822
10.2841
10.2864
10.289
10.292
10.2954
10.2992
10.3033
10.3078
10.3125
10.3182
10.325
10.3385
10.3576
10.3582
10.3597
10.3616
10.3638
10.3663
10.3693
10.3727
10.3764
10.3805
10.385
10.3895
10.395
10.4012
10.4108
10.4323
10.4329
10.4344
10.4363
10.4386
10.4412
10.4443
10.4477
10.4515
10.4555
10.4599
10.4642
10.4691
10.4744
10.4829
10.5067
10.5072
10.5087
10.5105
10.5127
10.5152
10.5182
10.5216
10.5253
10.5295
10.534
10.5387
10.5443
10.5512
10.5658
10.5787
10.5793
10.5807
10.5825
10.5847
10.5872
10.5902
10.5937
10.5975
10.6018
10.6067
10.6118
10.6181
10.6253
10.6379
10.6482
10.6487
10.6501
10.6519
10.6541
10.6567
10.6597
10.6633
10.6673
10.6718
10.677
10.6826
10.6893
10.6968
10.7101
10.7142
10.7147
10.7161
10.7179
10.7201
10.7228
10.726
10.7297
10.734
10.739
10.7448
10.7514
10.7593
10.7682
10.7848
10.7774
10.7779
10.7793
10.7811
10.7832
10.7859
10.7892
10.7932
10.798
10.8038
10.8107
10.8191
10.8298
10.842
10.8684
10.8328
10.8334
10.8347
10.8366
10.8389
10.8418
10.8455
10.8501
10.8559
10.863
10.8719
10.8829
10.8967
10.9115
10.9338
10.8842
10.8847
10.8861
10.888
10.8904
10.8936
10.8977
10.903
10.9099
10.9186
10.9298
10.9438
10.9615
10.9811
11.0081
10.9097
10.9102
10.9115
10.9136
10.9165
10.9206
10.9264
10.9343
10.9447
10.9584
10.9759
10.9974
11.0234
11.0517
11.0831
10.9553
10.956
10.9576
10.9599
10.9631
10.9676
10.974
10.983
10.9954
11.0122
11.0343
11.0621
11.0952
11.1313
11.1668
10.8319
10.8319
10.8336
10.8376
10.8455
10.8584
10.8776
10.9046
10.9403
10.9851
11.0379
11.0961
11.1558
11.2122
11.2586
11.0418
11.0438
11.0436
11.049
11.0576
11.0693
11.0851
11.1062
11.1338
11.1687
11.2107
11.258
11.3065
11.3521
11.3868
9.77202
9.69438
9.7529
9.83252
9.92947
10.0522
10.2065
10.3913
10.5997
10.8187
11.0308
11.2174
11.3631
11.4626
11.5132
114.014
108.806
103.062
97.3118
91.1463
84.3919
77.1917
69.7702
62.393
55.3646
48.9913
43.5112
39.0292
35.506
32.8791
44.3696
43.8925
44.6077
45.2901
45.7759
46.0934
46.2139
46.0457
45.4829
44.4377
42.8757
40.8459
38.489
36.0133
33.7378
37.4254
37.3493
37.7753
37.9608
38.0996
38.2216
38.2983
38.2932
38.1783
37.9213
37.4772
36.7906
35.8138
34.5381
33.1258
39.4818
39.4846
39.5771
39.4388
39.2717
39.059
38.7739
38.394
37.9036
37.2925
36.5584
35.7042
34.7298
33.6247
32.4552
36.2872
36.545
36.6031
36.5524
36.506
36.4364
36.3278
36.1649
35.9272
35.589
35.1242
34.5131
33.7479
32.8281
31.8099
33.6
33.9024
33.8816
33.8665
33.8629
33.8446
33.8057
33.7403
33.6369
33.4779
33.2403
32.8967
32.4197
31.7846
31.0092
32.4278
32.5303
32.4724
32.4646
32.4504
32.4171
32.3648
32.2909
32.1879
32.0459
31.8518
31.5884
31.235
30.7648
30.1624
31.2606
31.2721
31.25
31.2563
31.246
31.2214
31.1822
31.1245
31.042
30.9262
30.7665
30.5498
30.2607
29.8811
29.3833
30.0619
30.0609
30.0649
30.0733
30.0697
30.0592
30.0386
30.0044
29.9516
29.8735
29.7609
29.6019
29.3829
29.0922
28.7174
29.0523
29.0548
29.0641
29.0696
29.0689
29.0645
29.0523
29.0294
28.9926
28.9366
28.8545
28.7366
28.5709
28.3466
28.0547
28.2102
28.2145
28.2228
28.2269
28.2277
28.2257
28.2171
28.2
28.1715
28.1275
28.0623
27.968
27.8343
27.6503
27.4117
27.4679
27.4723
27.4796
27.4844
27.4866
27.4861
27.4803
27.4676
27.4456
27.4107
27.3582
27.2814
27.1713
27.0172
26.8191
26.7996
26.8041
26.8117
26.8184
26.822
26.8224
26.8188
26.8097
26.7929
26.7656
26.7239
26.6622
26.5733
26.4478
26.2899
26.1993
26.2041
26.2121
26.2199
26.2241
26.2252
26.2232
26.2166
26.2037
26.1819
26.1482
26.0977
26.0244
25.9191
25.7825
25.6589
25.6636
25.6714
25.6791
25.6832
25.6845
25.6835
25.6787
25.6683
25.6504
25.6222
25.5795
25.5168
25.4256
25.3044
25.1674
25.1716
25.1788
25.1858
25.1894
25.191
25.1908
25.1872
25.1789
25.1641
25.1405
25.1046
25.0519
24.9759
24.8793
24.7149
24.7186
24.7251
24.7315
24.7352
24.7372
24.7377
24.735
24.7284
24.7162
24.6965
24.6662
24.6215
24.5567
24.4761
24.2937
24.2971
24.3033
24.3096
24.3141
24.3169
24.3177
24.3159
24.3105
24.3003
24.2834
24.2572
24.218
24.1598
24.086
23.9007
23.904
23.9101
23.9167
23.9221
23.9254
23.9265
23.9254
23.9212
23.9126
23.8981
23.8754
23.8412
23.7901
23.726
23.5348
23.5381
23.5442
23.5509
23.5566
23.5601
23.5614
23.561
23.5578
23.5507
23.5384
23.5189
23.4893
23.4449
23.3901
23.1937
23.1969
23.2028
23.2094
23.2149
23.2182
23.2197
23.2198
23.2174
23.2116
23.2012
23.1844
23.1589
23.1203
23.0738
22.8739
22.8768
22.8824
22.8886
22.8937
22.8968
22.8984
22.8989
22.897
22.8922
22.8832
22.8685
22.8461
22.8118
22.7704
22.5716
22.5743
22.5795
22.5852
22.5899
22.593
22.5949
22.5956
22.5942
22.5901
22.5822
22.5691
22.549
22.5179
22.4795
22.284
22.2865
22.2913
22.2968
22.3014
22.305
22.3072
22.3081
22.3071
22.3035
22.2966
22.285
22.2669
22.2391
22.205
22.0097
22.012
22.0167
22.0221
22.0268
22.031
22.0337
22.0347
22.0341
22.0312
22.0253
22.0152
21.9992
21.9746
21.9498
21.7483
21.7506
21.7552
21.7605
21.7655
21.77
21.7728
21.774
21.7739
21.7717
21.7667
21.758
21.7442
21.7223
21.7017
21.4988
21.5011
21.5056
21.5109
21.516
21.5206
21.5234
21.5248
21.525
21.5233
21.5191
21.5114
21.499
21.4787
21.4604
21.2608
21.263
21.2674
21.2726
21.2775
21.2819
21.2847
21.2861
21.2866
21.2853
21.2817
21.2749
21.264
21.2457
21.2307
21.0334
21.0355
21.0396
21.0445
21.0492
21.0532
21.0558
21.0572
21.0579
21.0569
21.0538
21.0479
21.0383
21.0219
21.0088
20.8134
20.8153
20.8193
20.824
20.8284
20.8323
20.835
20.8366
20.8374
20.8367
20.834
20.8287
20.82
20.8048
20.7911
20.6005
20.6023
20.6061
20.6106
20.6148
20.6186
20.6216
20.6235
20.6245
20.6239
20.6215
20.6166
20.6083
20.5932
20.5765
20.3948
20.3965
20.4001
20.4044
20.4085
20.4124
20.4157
20.4179
20.4188
20.4185
20.4164
20.412
20.4047
20.3915
20.3719
20.196
20.1976
20.2011
20.2052
20.2093
20.2132
20.2168
20.2191
20.2201
20.22
20.2184
20.2147
20.2086
20.1979
20.1799
20.002
20.0036
20.0071
20.0112
20.0154
20.0195
20.0233
20.0257
20.0269
20.0271
20.0258
20.0226
20.017
20.0076
19.9833
19.814
19.8156
19.819
19.8231
19.8273
19.8314
19.8352
19.8376
19.8388
19.8392
19.838
19.8349
19.8291
19.8207
19.7946
19.6331
19.6346
19.6378
19.6417
19.6457
19.6496
19.6532
19.6554
19.6566
19.657
19.6561
19.6534
19.6482
19.6416
19.6238
19.4557
19.4572
19.4603
19.4642
19.4682
19.4721
19.4756
19.4779
19.4792
19.4798
19.4792
19.477
19.4723
19.4657
19.4467
19.2828
19.2842
19.2873
19.2911
19.295
19.2988
19.3022
19.3045
19.306
19.307
19.3066
19.3049
19.3009
19.2952
19.2788
19.115
19.1163
19.1192
19.1227
19.1264
19.1299
19.1332
19.1356
19.1372
19.1382
19.1381
19.1368
19.1336
19.1295
19.1093
18.9492
18.9504
18.9533
18.9567
18.9603
18.9638
18.9671
18.9698
18.9717
18.9728
18.9729
18.9719
18.9693
18.9669
18.9526
18.786
18.7873
18.79
18.7934
18.7968
18.8003
18.8037
18.8067
18.8088
18.8099
18.8101
18.8093
18.8066
18.8039
18.7872
18.6266
18.6277
18.6303
18.6335
18.6368
18.6402
18.6435
18.6466
18.6486
18.6496
18.6498
18.6489
18.646
18.6425
18.6276
18.4687
18.4698
18.4723
18.4755
18.4788
18.4823
18.4858
18.489
18.4911
18.4922
18.4926
18.492
18.4896
18.4869
18.4735
18.3131
18.3142
18.3168
18.3199
18.3233
18.3269
18.3304
18.3338
18.3361
18.3374
18.3383
18.3383
18.3371
18.3362
18.3277
18.1606
18.1617
18.1641
18.1672
18.1705
18.174
18.1776
18.1809
18.1831
18.1846
18.1856
18.1858
18.1849
18.1841
18.1722
18.0102
18.0112
18.0135
18.0165
18.0197
18.0231
18.0265
18.0296
18.0318
18.0331
18.034
18.0341
18.0328
18.0318
18.0195
17.8603
17.8614
17.8637
17.8667
17.8699
17.8733
17.8766
17.8797
17.8818
17.8832
17.8842
17.8843
17.883
17.8822
17.8721
17.7126
17.7136
17.7159
17.7188
17.7219
17.7252
17.7285
17.7315
17.7337
17.7353
17.7364
17.7368
17.7358
17.7353
17.7305
17.5673
17.5682
17.5703
17.573
17.576
17.5791
17.5823
17.5852
17.5874
17.5891
17.5904
17.5911
17.5906
17.5902
17.588
17.4216
17.4225
17.4246
17.4273
17.4303
17.4334
17.4365
17.4395
17.4421
17.4441
17.4456
17.4467
17.4471
17.4472
17.4529
17.2764
17.2773
17.2794
17.282
17.2849
17.288
17.2911
17.2942
17.2971
17.2993
17.301
17.3025
17.3035
17.3033
17.3019
17.1324
17.1333
17.1352
17.1377
17.1404
17.1434
17.1464
17.1495
17.1524
17.1547
17.1564
17.1578
17.1589
17.1593
17.1561
16.9876
16.9884
16.9903
16.9928
16.9955
16.9984
17.0015
17.0047
17.0078
17.0102
17.0119
17.0135
17.0149
17.0164
17.0171
16.8424
16.8432
16.8451
16.8475
16.8502
16.8532
16.8564
16.8596
16.8629
16.8654
16.8673
16.8692
16.8707
16.8722
16.8705
16.6978
16.6986
16.7004
16.7027
16.7053
16.7081
16.7113
16.7145
16.7178
16.7203
16.7223
16.7242
16.7258
16.7272
16.7213
16.5517
16.5525
16.5543
16.5566
16.5592
16.5622
16.5654
16.5687
16.5721
16.5749
16.5773
16.5801
16.583
16.5874
16.5896
16.4044
16.4052
16.407
16.4093
16.4119
16.4149
16.4182
16.4217
16.4253
16.4283
16.4311
16.4344
16.438
16.4432
16.4361
16.256
16.2567
16.2585
16.2607
16.2633
16.2663
16.2696
16.2731
16.2767
16.2798
16.2829
16.2864
16.2902
16.2968
16.2958
16.1062
16.1068
16.1084
16.1106
16.1131
16.116
16.1192
16.1226
16.1262
16.1295
16.1329
16.1369
16.1414
16.1491
16.149
15.9527
15.9533
15.955
15.9571
15.9596
15.9625
15.9658
15.9693
15.973
15.9766
15.9804
15.985
15.9902
15.9988
15.9991
15.7963
15.797
15.7985
15.8006
15.803
15.8059
15.8091
15.8127
15.8165
15.8205
15.8248
15.8302
15.8364
15.8469
15.8496
15.6355
15.6361
15.6376
15.6397
15.6421
15.645
15.6483
15.6519
15.656
15.6604
15.6654
15.6715
15.6788
15.691
15.6966
15.4704
15.471
15.4724
15.4744
15.4767
15.4795
15.4828
15.4865
15.4908
15.4958
15.5014
15.5085
15.5174
15.532
15.5411
15.2986
15.2992
15.3006
15.3026
15.3049
15.3077
15.3111
15.315
15.3196
15.3251
15.3313
15.3389
15.3483
15.3639
15.3684
15.1208
15.1213
15.1226
15.1245
15.1267
15.1295
15.1329
15.137
15.1419
15.148
15.155
15.1636
15.174
15.1907
15.2111
14.934
14.9345
14.9358
14.9377
14.94
14.9429
14.9466
14.9511
14.9568
14.964
14.9726
14.9836
14.9977
15.0183
15.0502
14.7367
14.7372
14.7385
14.7403
14.7428
14.7459
14.75
14.7552
14.762
14.7707
14.7815
14.7956
14.8141
14.8391
14.8785
14.5268
14.5273
14.5285
14.5304
14.5329
14.5363
14.5409
14.5469
14.5549
14.5655
14.5789
14.5965
14.6201
14.6506
14.6992
14.2985
14.299
14.3001
14.302
14.3046
14.3084
14.3137
14.321
14.3309
14.3442
14.3616
14.3846
14.4154
14.4544
14.5144
14.0495
14.0499
14.0512
14.0532
14.0562
14.0607
14.067
14.0761
14.0886
14.1059
14.1289
14.1594
14.2003
14.2518
14.3303
13.7558
13.7562
13.7574
13.7598
13.7636
13.7697
13.7787
13.7919
13.8104
13.8359
13.8697
13.9137
13.9705
14.039
14.1428
13.4523
13.4527
13.454
13.4567
13.4612
13.4684
13.4796
13.4963
13.5205
13.5544
13.5999
13.659
13.7339
13.8197
13.9373
12.9465
12.9469
12.949
12.9544
12.9651
12.9831
13.0107
13.0506
13.1051
13.1758
13.263
13.3652
13.4812
13.6029
13.7487
12.6932
12.6939
12.693
12.6998
12.7128
12.7331
12.7634
12.8068
12.8665
12.9447
13.0421
13.1572
13.2887
13.428
13.5741
10.8936
10.8196
10.8828
10.9701
11.0837
11.2353
11.4326
11.6753
11.9551
12.2551
12.5524
12.824
13.0599
13.2622
13.4378
11.9566
18.1585
13.732
10.825
4.03989
16.1097
13.9843
18.5794
3.65906
10.7832
9.44708
20.5633
7.1953
18.2143
15.3035
13.721
12.8525
12.6039
15.9653
10.9082
14.234
15.1279
14.9302
25.6663
15.5479
11.2289
12.7679
12.7074
20.0465
12.6161
10.1279
14.4276
13.6218
22.7843
13.3909
12.5417
7.58711
19.2842
4.68087
13.6246
18.2755
11.5866
17.7854
13.6401
15.3431
12.3671
26.1275
11.9797
13.3665
16.009
19.5028
14.7823
14.8235
16.2553
11.9166
13.7998
9.82723
11.9812
21.523
17.3623
12.3234
21.4418
16.2949
14.0778
15.8976
7.03466
15.1326
19.7722
9.98668
23.1062
12.4175
11.5578
30.3022
16.0004
10.7007
14.6623
10.4618
13.0195
14.9484
25.0164
12.6375
9.26137
12.1246
13.5899
19.2238
9.04155
12.5719
9.09761
19.4447
13.5349
16.8837
13.4644
14.2577
18.613
6.57332
13.7247
16.0629
15.7316
15.1259
15.256
7.77395
24.601
12.5732
9.80878
18.4897
9.47147
13.1039
12.8867
13.0852
21.4618
17.502
13.2917
18.1098
11.9348
15.3683
10.6792
12.6942
18.9364
5.90946
13.68
7.03368
13.8264
8.73107
18.0258
12.1255
12.432
19.3549
16.8923
4.94809
11.0207
21.9321
12.7631
3.14069
13.52
15.3454
18.4366
4.4021
16.4229
16.4903
15.5876
12.4238
13.347
12.3525
11.47
19.6924
15.5524
11.9536
13.2934
15.9523
18.1078
13.5265
10.972
13.0163
19.8528
11.3765
16.2405
12.9941
12.4499
16.1793
21.8147
12.6235
14.6958
12.7043
4.51555
14.2151
14.3586
13.9452
1.51889
16.5777
12.9492
15.1735
11.8811
14.9747
9.96404
13.5236
12.3354
13.2824
12.545
21.6253
10.2369
8.53968
19.4635
20.18
11.023
11.7941
12.2421
12.9111
22.8543
12.9509
12.4965
20.7454
13.8581
5.74657
19.2933
13.6137
20.8208
10.5046
12.2126
10.1009
21.9085
11.4082
14.8789
12.4262
14.3199
19.1629
17.1943
10.6609
23.4694
11.5211
14.7199
12.3671
14.6778
21.4066
8.45611
18.4854
24.9662
21.0203
13.7342
17.9113
20.2995
19.7443
15.804
13.5509
13.707
19.0494
6.51041
19.1007
12.4588
10.5065
13.3831
15.2114
6.8703
15.1637
14.804
8.67166
15.8183
14.096
17.8723
14.2292
12.7254
12.0913
12.3066
13.6805
9.83072
11.5175
12.2389
6.8829
16.7046
7.51979
11.4463
22.0414
15.3833
11.3589
15.9721
12.1874
18.0173
17.4248
16.6639
16.9181
13.5702
9.34497
18.0859
6.28666
13.9846
11.3333
13.8181
11.6359
8.08779
16.6512
12.7515
24.4315
11.5847
19.7725
8.22261
13.4674
8.99098
16.1366
18.7928
9.30923
14.915
9.70135
13.4138
16.7185
13.4156
18.3073
13.3325
10.0925
6.59478
18.1165
3.49687
8.75165
15.7134
20.0181
14.0941
21.8647
1.97538
9.88863
12.8117
15.0648
15.3663
15.342
13.136
17.5886
15.4104
13.1652
7.58079
13.255
9.93988
13.5379
16.4946
13.5901
13.5733
18.5202
12.2067
7.81657
14.751
10.5772
26.4769
12.5983
9.83664
13.2364
18.088
7.5177
12.9973
8.68332
14.0363
13.5867
13.3237
13.4599
6.04427
14.438
10.3588
19.3101
16.6731
9.59501
13.273
16.826
15.3081
24.4942
11.4791
19.4468
12.9572
17.9991
14.0417
15.1454
10.0872
15.2151
10.2972
24.1486
14.197
4.89668
10.0122
23.5847
16.3344
22.249
16.2596
16.2677
13.895
16.5204
12.2467
14.0366
13.0724
13.154
18.5381
14.5756
17.1136
13.4714
15.2427
13.2985
13.938
8.53199
12.1666
14.3245
14.1057
12.2255
13.0487
14.9301
20.2555
2.187
10.7898
20.1411
9.78416
12.0485
14.7654
19.114
17.3167
14.2467
16.9511
13.3555
10.6811
15.3631
14.9914
15.075
8.01596
13.3293
5.956
19.2509
16.3174
15.3104
11.7187
14.6196
6.68553
15.4526
23.4606
14.1789
7.25068
15.0085
13.7582
13.4067
17.0771
9.43228
10.0383
17.8665
22.9104
10.4794
14.9682
11.7421
13.447
14.8348
16.8642
12.0539
18.5821
12.0769
12.7115
9.11267
19.2603
20.6823
13.9106
17.8129
16.9789
11.2075
15.6839
6.11338
18.1216
14.0541
17.1938
11.1331
11.984
5.49249
12.8787
16.2966
12.5979
14.0266
11.9886
12.0719
9.29814
21.3844
12.3739
9.06846
22.3437
16.5095
22.9008
15.9534
14.7604
13.648
16.5448
1.25506
17.6191
17.1597
7.99086
8.56062
9.26168
13.0336
12.4884
12.2499
9.2795
20.979
12.6935
12.2015
11.2487
18.8145
12.6474
8.73476
19.4608
12.5501
9.9235
13.7224
5.91975
26.3063
10.9714
15.025
15.4464
16.1407
11.523
10.608
16.7528
19.636
10.3959
15.4404
23.5846
17.1766
15.2237
13.0927
14.5958
19.044
11.8055
14.507
21.7039
7.60144
9.55014
16.1318
19.3444
14.563
20.5086
18.5153
10.0176
7.94846
11.8764
9.42072
8.51718
8.91483
15.0661
13.4391
12.7914
12.4949
15.3718
8.35273
22.1153
12.3142
21.1763
12.3561
20.7168
12.4086
20.642
8.94483
17.7912
9.69008
13.678
13.9044
2.10052
12.3459
13.4501
12.9604
18.0541
15.7734
13.5038
13.0135
16.0842
19.9764
15.6737
11.7079
21.2452
12.0452
18.1159
17.7679
15.0133
14.262
12.9354
16.8535
38.8934
20.7689
14.9426
11.8431
10.2425
24.4684
13.2007
13.1076
13.8219
16.0734
15.4435
11.8407
11.9617
11.017
12.2733
16.8779
22.3548
15.312
15.1859
8.97943
9.02423
10.9913
13.8931
13.4974
19.799
12.522
13.3163
13.8428
12.0169