# Forces     
# CofR       : (0.000000e+00 0.000000e+00 0.000000e+00)
# Time       forces(pressure viscous porous) moment(pressure viscous porous)
5.000000e+00	((-3.612830e+02 -1.111914e+03 3.901988e-17) (4.115039e-01 -1.248581e-01 -4.526803e-19) (0.000000e+00 0.000000e+00 0.000000e+00)) ((5.559570e+01 -1.806415e+01 -3.046821e+02) (6.242907e-03 2.057520e-02 2.139867e-03) (0.000000e+00 0.000000e+00 0.000000e+00))
1.000000e+01	((-1.509200e+02 -4.644837e+02 2.146076e-17) (3.615190e-01 -2.062216e-01 -4.907206e-19) (0.000000e+00 0.000000e+00 0.000000e+00)) ((2.322419e+01 -7.546000e+00 -1.404777e+02) (1.031108e-02 1.807595e-02 -2.165455e-02) (0.000000e+00 0.000000e+00 0.000000e+00))
1.500000e+01	((1.629635e+01 5.015498e+01 -4.688699e-19) (3.516417e-01 -1.625499e-01 1.976351e-20) (0.000000e+00 0.000000e+00 0.000000e+00)) ((-2.507749e+00 8.148174e-01 1.125746e+01) (8.127494e-03 1.758208e-02 -1.211152e-02) (0.000000e+00 0.000000e+00 0.000000e+00))
2.000000e+01	((2.155030e+01 6.632496e+01 5.555471e-18) (3.311227e-01 -1.150332e-01 -2.072380e-19) (0.000000e+00 0.000000e+00 0.000000e+00)) ((-3.316248e+00 1.077515e+00 1.566399e+01) (5.751658e-03 1.655613e-02 -2.218248e-03) (0.000000e+00 0.000000e+00 0.000000e+00))
2.500000e+01	((3.011101e+00 9.267198e+00 6.612854e-18) (3.089824e-01 -9.845324e-02 -2.534517e-19) (0.000000e+00 0.000000e+00 0.000000e+00)) ((-4.633599e-01 1.505551e-01 -5.197238e+00) (4.922662e-03 1.544912e-02 1.757043e-04) (0.000000e+00 0.000000e+00 0.000000e+00))
3.000000e+01	((5.585789e+00 1.719127e+01 5.503609e-18) (2.841286e-01 -9.073210e-02 -2.204362e-19) (0.000000e+00 0.000000e+00 0.000000e+00)) ((-8.595636e-01 2.792894e-01 -2.827057e+00) (4.536605e-03 1.420643e-02 1.746989e-04) (0.000000e+00 0.000000e+00 0.000000e+00))
3.500000e+01	((1.084962e+01 3.339167e+01 5.959812e-18) (2.609293e-01 -8.386245e-02 -2.534845e-19) (0.000000e+00 0.000000e+00 0.000000e+00)) ((-1.669583e+00 5.424809e-01 3.418190e+00) (4.193122e-03 1.304647e-02 5.886523e-05) (0.000000e+00 0.000000e+00 0.000000e+00))
4.000000e+01	((1.028373e+01 3.165005e+01 5.889003e-18) (2.396732e-01 -7.735436e-02 -2.588406e-19) (0.000000e+00 0.000000e+00 0.000000e+00)) ((-1.582502e+00 5.141866e-01 2.563653e+00) (3.867718e-03 1.198366e-02 8.883337e-06) (0.000000e+00 0.000000e+00 0.000000e+00))
4.500000e+01	((9.546198e+00 2.938016e+01 6.036063e-18) (2.217905e-01 -7.184051e-02 -2.686654e-19) (0.000000e+00 0.000000e+00 0.000000e+00)) ((-1.469008e+00 4.773099e-01 1.024681e+00) (3.592025e-03 1.108953e-02 -5.047141e-05) (0.000000e+00 0.000000e+00 0.000000e+00))
5.000000e+01	((1.026486e+01 3.159198e+01 6.408473e-18) (2.064562e-01 -6.696363e-02 -2.903268e-19) (0.000000e+00 0.000000e+00 0.000000e+00)) ((-1.579599e+00 5.132431e-01 1.643277e+00) (3.348182e-03 1.032281e-02 -6.093871e-05) (0.000000e+00 0.000000e+00 0.000000e+00))
5.500000e+01	((1.076880e+01 3.314294e+01 6.890832e-18) (1.928889e-01 -6.253165e-02 -3.164600e-19) (0.000000e+00 0.000000e+00 0.000000e+00)) ((-1.657147e+00 5.384401e-01 1.876580e+00) (3.126583e-03 9.644445e-03 -4.550270e-05) (0.000000e+00 0.000000e+00 0.000000e+00))
6.000000e+01	((1.101777e+01 3.390919e+01 6.851008e-18) (1.801548e-01 -5.842046e-02 -3.179496e-19) (0.000000e+00 0.000000e+00 0.000000e+00)) ((-1.695460e+00 5.508885e-01 1.881887e+00) (2.921023e-03 9.007741e-03 -4.401305e-05) (0.000000e+00 0.000000e+00 0.000000e+00))
6.500000e+01	((1.147031e+01 3.530197e+01 7.077080e-18) (1.680456e-01 -5.449658e-02 -3.333086e-19) (0.000000e+00 0.000000e+00 0.000000e+00)) ((-1.765099e+00 5.735155e-01 2.079700e+00) (2.724829e-03 8.402281e-03 -4.437526e-05) (0.000000e+00 0.000000e+00 0.000000e+00))
7.000000e+01	((1.184152e+01 3.644445e+01 7.256539e-18) (1.565160e-01 -5.074857e-02 -3.484067e-19) (0.000000e+00 0.000000e+00 0.000000e+00)) ((-1.822223e+00 5.920762e-01 2.186975e+00) (2.537428e-03 7.825798e-03 -4.089357e-05) (0.000000e+00 0.000000e+00 0.000000e+00))
7.500000e+01	((1.214186e+01 3.736880e+01 7.460248e-18) (1.452728e-01 -4.709520e-02 -3.670879e-19) (0.000000e+00 0.000000e+00 0.000000e+00)) ((-1.868440e+00 6.070931e-01 2.245036e+00) (2.354760e-03 7.263641e-03 -4.217429e-05) (0.000000e+00 0.000000e+00 0.000000e+00))
8.000000e+01	((1.243948e+01 3.828478e+01 7.871803e-18) (1.344985e-01 -4.359369e-02 -4.028922e-19) (0.000000e+00 0.000000e+00 0.000000e+00)) ((-1.914239e+00 6.219741e-01 2.312076e+00) (2.179684e-03 6.724927e-03 -4.236714e-05) (0.000000e+00 0.000000e+00 0.000000e+00))
8.500000e+01	((1.267714e+01 3.901621e+01 8.043229e-18) (1.240862e-01 -4.020959e-02 -4.201033e-19) (0.000000e+00 0.000000e+00 0.000000e+00)) ((-1.950811e+00 6.338569e-01 2.297042e+00) (2.010479e-03 6.204312e-03 -4.257067e-05) (0.000000e+00 0.000000e+00 0.000000e+00))
9.000000e+01	((1.290631e+01 3.972153e+01 8.196071e-18) (1.140868e-01 -3.696098e-02 -4.403500e-19) (0.000000e+00 0.000000e+00 0.000000e+00)) ((-1.986077e+00 6.453155e-01 2.280401e+00) (1.848049e-03 5.704342e-03 -4.325582e-05) (0.000000e+00 0.000000e+00 0.000000e+00))
9.500000e+01	((1.302051e+01 4.007299e+01 8.531661e-18) (1.046183e-01 -3.388310e-02 -4.790922e-19) (0.000000e+00 0.000000e+00 0.000000e+00)) ((-2.003650e+00 6.510253e-01 2.217879e+00) (1.694155e-03 5.230913e-03 -4.383491e-05) (0.000000e+00 0.000000e+00 0.000000e+00))
1.000000e+02	((1.315587e+01 4.048960e+01 8.659398e-18) (9.560801e-02 -3.094975e-02 -5.116914e-19) (0.000000e+00 0.000000e+00 0.000000e+00)) ((-2.024480e+00 6.577935e-01 2.154604e+00) (1.547488e-03 4.780400e-03 -4.584233e-05) (0.000000e+00 0.000000e+00 0.000000e+00))
1.050000e+02	((1.323421e+01 4.073072e+01 8.783409e-18) (8.712695e-02 -2.818078e-02 -5.577329e-19) (0.000000e+00 0.000000e+00 0.000000e+00)) ((-2.036536e+00 6.617107e-01 2.080498e+00) (1.409039e-03 4.356347e-03 -4.857196e-05) (0.000000e+00 0.000000e+00 0.000000e+00))
1.100000e+02	((1.329823e+01 4.092774e+01 8.936878e-18) (7.915698e-02 -2.557044e-02 -6.352404e-19) (0.000000e+00 0.000000e+00 0.000000e+00)) ((-2.046387e+00 6.649116e-01 2.008297e+00) (1.278522e-03 3.957849e-03 -5.352249e-05) (0.000000e+00 0.000000e+00 0.000000e+00))
1.150000e+02	((1.331332e+01 4.097420e+01 8.938674e-18) (7.166689e-02 -2.311526e-02 -6.852014e-19) (0.000000e+00 0.000000e+00 0.000000e+00)) ((-2.048710e+00 6.656662e-01 1.942256e+00) (1.155763e-03 3.583345e-03 -5.800859e-05) (0.000000e+00 0.000000e+00 0.000000e+00))
1.200000e+02	((1.334516e+01 4.107218e+01 8.953338e-18) (6.465306e-02 -2.082238e-02 -7.137995e-19) (0.000000e+00 0.000000e+00 0.000000e+00)) ((-2.053609e+00 6.672581e-01 1.878087e+00) (1.041119e-03 3.232653e-03 -6.060371e-05) (0.000000e+00 0.000000e+00 0.000000e+00))
1.250000e+02	((1.335264e+01 4.109519e+01 8.984296e-18) (5.811524e-02 -1.868470e-02 -7.256290e-19) (0.000000e+00 0.000000e+00 0.000000e+00)) ((-2.054760e+00 6.676319e-01 1.810221e+00) (9.342350e-04 2.905762e-03 -6.308810e-05) (0.000000e+00 0.000000e+00 0.000000e+00))
1.300000e+02	((1.335997e+01 4.111776e+01 9.029401e-18) (5.192281e-02 -1.666436e-02 -7.253005e-19) (0.000000e+00 0.000000e+00 0.000000e+00)) ((-2.055888e+00 6.679986e-01 1.758666e+00) (8.332182e-04 2.596141e-03 -6.419563e-05) (0.000000e+00 0.000000e+00 0.000000e+00))
1.350000e+02	((1.336181e+01 4.112341e+01 8.903291e-18) (4.608092e-02 -1.477219e-02 -7.082790e-19) (0.000000e+00 0.000000e+00 0.000000e+00)) ((-2.056171e+00 6.680904e-01 1.705717e+00) (7.386094e-04 2.304046e-03 -6.206900e-05) (0.000000e+00 0.000000e+00 0.000000e+00))
1.400000e+02	((1.335729e+01 4.110951e+01 8.541708e-18) (4.050969e-02 -1.297751e-02 -6.722816e-19) (0.000000e+00 0.000000e+00 0.000000e+00)) ((-2.055476e+00 6.678646e-01 1.674884e+00) (6.488757e-04 2.025485e-03 -5.823218e-05) (0.000000e+00 0.000000e+00 0.000000e+00))
1.450000e+02	((1.335144e+01 4.109151e+01 8.158813e-18) (3.524059e-02 -1.128049e-02 -6.408134e-19) (0.000000e+00 0.000000e+00 0.000000e+00)) ((-2.054576e+00 6.675721e-01 1.652865e+00) (5.640246e-04 1.762029e-03 -5.428083e-05) (0.000000e+00 0.000000e+00 0.000000e+00))
1.500000e+02	((1.337966e+01 4.117835e+01 8.026843e-18) (3.033840e-02 -9.687270e-03 -6.111584e-19) (0.000000e+00 0.000000e+00 0.000000e+00)) ((-2.058917e+00 6.689828e-01 1.635734e+00) (4.843635e-04 1.516920e-03 -5.439947e-05) (0.000000e+00 0.000000e+00 0.000000e+00))
1.550000e+02	((1.343006e+01 4.133348e+01 7.630880e-18) (2.578658e-02 -8.220735e-03 -5.530960e-19) (0.000000e+00 0.000000e+00 0.000000e+00)) ((-2.066674e+00 6.715032e-01 1.630827e+00) (4.110367e-04 1.289329e-03 -5.183336e-05) (0.000000e+00 0.000000e+00 0.000000e+00))
1.600000e+02	((1.346753e+01 4.144880e+01 7.414364e-18) (2.146282e-02 -6.824567e-03 -5.196166e-19) (0.000000e+00 0.000000e+00 0.000000e+00)) ((-2.072440e+00 6.733767e-01 1.659262e+00) (3.412283e-04 1.073141e-03 -5.047227e-05) (0.000000e+00 0.000000e+00 0.000000e+00))
1.650000e+02	((1.350034e+01 4.154977e+01 6.989115e-18) (1.746629e-02 -5.533877e-03 -4.779116e-19) (0.000000e+00 0.000000e+00 0.000000e+00)) ((-2.077489e+00 6.750171e-01 1.706772e+00) (2.766938e-04 8.733144e-04 -4.983712e-05) (0.000000e+00 0.000000e+00 0.000000e+00))
1.700000e+02	((1.356867e+01 4.176008e+01 6.805559e-18) (1.389109e-02 -4.373715e-03 -4.583964e-19) (0.000000e+00 0.000000e+00 0.000000e+00)) ((-2.088004e+00 6.784337e-01 1.769335e+00) (2.186857e-04 6.945546e-04 -5.115473e-05) (0.000000e+00 0.000000e+00 0.000000e+00))
1.750000e+02	((1.363562e+01 4.196610e+01 6.314025e-18) (1.060260e-02 -3.309410e-03 -4.159936e-19) (0.000000e+00 0.000000e+00 0.000000e+00)) ((-2.098305e+00 6.817808e-01 1.866750e+00) (1.654705e-04 5.301300e-04 -5.212777e-05) (0.000000e+00 0.000000e+00 0.000000e+00))
1.800000e+02	((1.371949e+01 4.222425e+01 5.904225e-18) (7.599410e-03 -2.339531e-03 -3.804392e-19) (0.000000e+00 0.000000e+00 0.000000e+00)) ((-2.111212e+00 6.859745e-01 2.001605e+00) (1.169766e-04 3.799705e-04 -5.287515e-05) (0.000000e+00 0.000000e+00 0.000000e+00))
1.850000e+02	((1.384505e+01 4.261069e+01 5.493598e-18) (4.855147e-03 -1.450636e-03 -3.460852e-19) (0.000000e+00 0.000000e+00 0.000000e+00)) ((-2.130534e+00 6.922527e-01 2.180583e+00) (7.253178e-05 2.427573e-04 -5.428601e-05) (0.000000e+00 0.000000e+00 0.000000e+00))
1.900000e+02	((1.397019e+01 4.299583e+01 5.464685e-18) (2.355213e-03 -6.436661e-04 -3.389401e-19) (0.000000e+00 0.000000e+00 0.000000e+00)) ((-2.149791e+00 6.985097e-01 2.370950e+00) (3.218330e-05 1.177606e-04 -5.547306e-05) (0.000000e+00 0.000000e+00 0.000000e+00))
1.950000e+02	((1.410759e+01 4.341870e+01 5.045619e-18) (7.426594e-05 9.136131e-05 -3.051821e-19) (0.000000e+00 0.000000e+00 0.000000e+00)) ((-2.170935e+00 7.053797e-01 2.618485e+00) (-4.568066e-06 3.713297e-06 -5.680977e-05) (0.000000e+00 0.000000e+00 0.000000e+00))
2.000000e+02	((1.427198e+01 4.392464e+01 4.835392e-18) (-2.112908e-03 7.942744e-04 -2.857470e-19) (0.000000e+00 0.000000e+00 0.000000e+00)) ((-2.196232e+00 7.135992e-01 2.911696e+00) (-3.971372e-05 -1.056454e-04 -5.751473e-05) (0.000000e+00 0.000000e+00 0.000000e+00))
2.050000e+02	((1.447731e+01 4.455658e+01 4.614211e-18) (-4.069456e-03 1.432517e-03 -2.656694e-19) (0.000000e+00 0.000000e+00 0.000000e+00)) ((-2.227829e+00 7.238655e-01 3.250813e+00) (-7.162584e-05 -2.034728e-04 -6.042251e-05) (0.000000e+00 0.000000e+00 0.000000e+00))
2.100000e+02	((1.468568e+01 4.519786e+01 4.257215e-18) (-5.894353e-03 2.023034e-03 -2.373836e-19) (0.000000e+00 0.000000e+00 0.000000e+00)) ((-2.259893e+00 7.342838e-01 3.634864e+00) (-1.011517e-04 -2.947177e-04 -6.238024e-05) (0.000000e+00 0.000000e+00 0.000000e+00))
2.150000e+02	((1.496160e+01 4.604708e+01 4.016550e-18) (-7.614004e-03 2.584464e-03 -2.178561e-19) (0.000000e+00 0.000000e+00 0.000000e+00)) ((-2.302354e+00 7.480802e-01 4.123154e+00) (-1.292232e-04 -3.807002e-04 -6.575327e-05) (0.000000e+00 0.000000e+00 0.000000e+00))
2.200000e+02	((1.515792e+01 4.665126e+01 3.639469e-18) (-9.181242e-03 3.092992e-03 -1.908359e-19) (0.000000e+00 0.000000e+00 0.000000e+00)) ((-2.332563e+00 7.578958e-01 4.558217e+00) (-1.546496e-04 -4.590621e-04 -6.811993e-05) (0.000000e+00 0.000000e+00 0.000000e+00))
2.250000e+02	((1.540166e+01 4.740144e+01 3.519195e-18) (-1.063847e-02 3.559119e-03 -1.802978e-19) (0.000000e+00 0.000000e+00 0.000000e+00)) ((-2.370072e+00 7.700831e-01 4.987444e+00) (-1.779559e-04 -5.319233e-04 -7.293882e-05) (0.000000e+00 0.000000e+00 0.000000e+00))
2.300000e+02	((1.567286e+01 4.823610e+01 3.223412e-18) (-1.189614e-02 3.969605e-03 -1.610976e-19) (0.000000e+00 0.000000e+00 0.000000e+00)) ((-2.411805e+00 7.836430e-01 5.573486e+00) (-1.984803e-04 -5.948070e-04 -7.643912e-05) (0.000000e+00 0.000000e+00 0.000000e+00))
2.350000e+02	((1.587209e+01 4.884925e+01 2.948776e-18) (-1.304321e-02 4.335782e-03 -1.440594e-19) (0.000000e+00 0.000000e+00 0.000000e+00)) ((-2.442462e+00 7.936043e-01 6.095152e+00) (-2.167891e-04 -6.521607e-04 -7.695189e-05) (0.000000e+00 0.000000e+00 0.000000e+00))
2.400000e+02	((1.607702e+01 4.947997e+01 2.667258e-18) (-1.395454e-02 4.632738e-03 -1.274096e-19) (0.000000e+00 0.000000e+00 0.000000e+00)) ((-2.473998e+00 8.038509e-01 6.600655e+00) (-2.316369e-04 -6.977268e-04 -7.999198e-05) (0.000000e+00 0.000000e+00 0.000000e+00))
2.450000e+02	((1.627074e+01 5.007617e+01 2.378442e-18) (-1.459121e-02 4.836331e-03 -1.116042e-19) (0.000000e+00 0.000000e+00 0.000000e+00)) ((-2.503809e+00 8.135369e-01 7.190170e+00) (-2.418165e-04 -7.295607e-04 -8.178742e-05) (0.000000e+00 0.000000e+00 0.000000e+00))
2.500000e+02	((1.634652e+01 5.030940e+01 2.117022e-18) (-1.496497e-02 4.953249e-03 -9.769018e-20) (0.000000e+00 0.000000e+00 0.000000e+00)) ((-2.515470e+00 8.173259e-01 7.635536e+00) (-2.476625e-04 -7.482487e-04 -8.076140e-05) (0.000000e+00 0.000000e+00 0.000000e+00))
2.550000e+02	((1.640126e+01 5.047788e+01 1.969804e-18) (-1.494507e-02 4.949446e-03 -9.061982e-20) (0.000000e+00 0.000000e+00 0.000000e+00)) ((-2.523894e+00 8.200630e-01 8.036329e+00) (-2.474723e-04 -7.472535e-04 -8.250720e-05) (0.000000e+00 0.000000e+00 0.000000e+00))
2.600000e+02	((1.632861e+01 5.025430e+01 1.534027e-18) (-1.443605e-02 4.779749e-03 -6.850738e-20) (0.000000e+00 0.000000e+00 0.000000e+00)) ((-2.512715e+00 8.164307e-01 8.368519e+00) (-2.389875e-04 -7.218024e-04 -8.257271e-05) (0.000000e+00 0.000000e+00 0.000000e+00))
2.650000e+02	((1.621802e+01 4.991391e+01 1.417990e-18) (-1.332038e-02 4.418893e-03 -6.396379e-20) (0.000000e+00 0.000000e+00 0.000000e+00)) ((-2.495696e+00 8.109008e-01 8.619783e+00) (-2.209447e-04 -6.660188e-04 -8.267130e-05) (0.000000e+00 0.000000e+00 0.000000e+00))
2.700000e+02	((1.593348e+01 4.903818e+01 1.308766e-18) (-1.153474e-02 3.838931e-03 -6.117029e-20) (0.000000e+00 0.000000e+00 0.000000e+00)) ((-2.451909e+00 7.966738e-01 8.777402e+00) (-1.919465e-04 -5.767368e-04 -8.006772e-05) (0.000000e+00 0.000000e+00 0.000000e+00))
2.750000e+02	((1.554141e+01 4.783154e+01 8.396817e-19) (-8.923679e-03 2.994582e-03 -3.830666e-20) (0.000000e+00 0.000000e+00 0.000000e+00)) ((-2.391577e+00 7.770707e-01 8.814857e+00) (-1.497291e-04 -4.461840e-04 -7.730025e-05) (0.000000e+00 0.000000e+00 0.000000e+00))
2.800000e+02	((1.499354e+01 4.614534e+01 7.735808e-19) (-5.614273e-03 1.922174e-03 -3.729119e-20) (0.000000e+00 0.000000e+00 0.000000e+00)) ((-2.307267e+00 7.496768e-01 8.699258e+00) (-9.610871e-05 -2.807137e-04 -7.391408e-05) (0.000000e+00 0.000000e+00 0.000000e+00))
2.850000e+02	((1.435206e+01 4.417109e+01 4.318504e-19) (-1.364769e-03 5.481531e-04 -2.102704e-20) (0.000000e+00 0.000000e+00 0.000000e+00)) ((-2.208555e+00 7.176031e-01 8.477410e+00) (-2.740766e-05 -6.823843e-05 -7.215675e-05) (0.000000e+00 0.000000e+00 0.000000e+00))
2.900000e+02	((1.350394e+01 4.156083e+01 -1.314453e-19) (3.599535e-03 -1.065392e-03 7.312157e-21) (0.000000e+00 0.000000e+00 0.000000e+00)) ((-2.078041e+00 6.751968e-01 8.096922e+00) (5.326960e-05 1.799768e-04 -7.009459e-05) (0.000000e+00 0.000000e+00 0.000000e+00))
2.950000e+02	((1.256880e+01 3.868277e+01 -7.049090e-19) (9.075831e-03 -2.844079e-03 3.684509e-20) (0.000000e+00 0.000000e+00 0.000000e+00)) ((-1.934138e+00 6.284398e-01 7.595544e+00) (1.422040e-04 4.537915e-04 -7.004466e-05) (0.000000e+00 0.000000e+00 0.000000e+00))
3.000000e+02	((1.174136e+01 3.613618e+01 -6.984914e-19) (1.529529e-02 -4.848839e-03 3.554692e-20) (0.000000e+00 0.000000e+00 0.000000e+00)) ((-1.806809e+00 5.870681e-01 7.135627e+00) (2.424419e-04 7.647647e-04 -6.938313e-05) (0.000000e+00 0.000000e+00 0.000000e+00))
3.050000e+02	((1.050107e+01 3.231896e+01 -1.059887e-18) (2.185704e-02 -6.977917e-03 5.382197e-20) (0.000000e+00 0.000000e+00 0.000000e+00)) ((-1.615948e+00 5.250535e-01 6.424725e+00) (3.488959e-04 1.092852e-03 -6.660516e-05) (0.000000e+00 0.000000e+00 0.000000e+00))
3.100000e+02	((9.353786e+00 2.878798e+01 -1.385868e-18) (2.844308e-02 -9.122596e-03 7.158092e-20) (0.000000e+00 0.000000e+00 0.000000e+00)) ((-1.439399e+00 4.676893e-01 5.721680e+00) (4.561298e-04 1.422154e-03 -6.709397e-05) (0.000000e+00 0.000000e+00 0.000000e+00))
3.150000e+02	((8.433833e+00 2.595666e+01 -1.690781e-18) (3.502172e-02 -1.125313e-02 8.766642e-20) (0.000000e+00 0.000000e+00 0.000000e+00)) ((-1.297833e+00 4.216917e-01 5.198902e+00) (5.626565e-04 1.751086e-03 -6.688104e-05) (0.000000e+00 0.000000e+00 0.000000e+00))
3.200000e+02	((7.547813e+00 2.322977e+01 -2.324529e-18) (4.129860e-02 -1.328634e-02 1.224757e-19) (0.000000e+00 0.000000e+00 0.000000e+00)) ((-1.161489e+00 3.773906e-01 4.689307e+00) (6.643168e-04 2.064930e-03 -6.593195e-05) (0.000000e+00 0.000000e+00 0.000000e+00))
3.250000e+02	((6.702975e+00 2.062963e+01 -2.553272e-18) (4.696742e-02 -1.512972e-02 1.345896e-19) (0.000000e+00 0.000000e+00 0.000000e+00)) ((-1.031481e+00 3.351487e-01 4.242002e+00) (7.564862e-04 2.348371e-03 -6.615854e-05) (0.000000e+00 0.000000e+00 0.000000e+00))
3.300000e+02	((6.130890e+00 1.886893e+01 -2.763243e-18) (5.202013e-02 -1.676723e-02 1.463766e-19) (0.000000e+00 0.000000e+00 0.000000e+00)) ((-9.434466e-01 3.065445e-01 3.986265e+00) (8.383616e-04 2.601007e-03 -6.481711e-05) (0.000000e+00 0.000000e+00 0.000000e+00))
3.350000e+02	((5.708333e+00 1.756843e+01 -2.715160e-18) (5.625761e-02 -1.814352e-02 1.440912e-19) (0.000000e+00 0.000000e+00 0.000000e+00)) ((-8.784217e-01 2.854166e-01 3.850331e+00) (9.071761e-04 2.812880e-03 -6.337148e-05) (0.000000e+00 0.000000e+00 0.000000e+00))
3.400000e+02	((5.447593e+00 1.676596e+01 -2.923197e-18) (5.984366e-02 -1.931808e-02 1.561310e-19) (0.000000e+00 0.000000e+00 0.000000e+00)) ((-8.382980e-01 2.723796e-01 3.860098e+00) (9.659042e-04 2.992183e-03 -6.032726e-05) (0.000000e+00 0.000000e+00 0.000000e+00))
3.450000e+02	((5.367586e+00 1.651972e+01 -2.885366e-18) (6.299478e-02 -2.033535e-02 1.546093e-19) (0.000000e+00 0.000000e+00 0.000000e+00)) ((-8.259861e-01 2.683793e-01 3.957328e+00) (1.016767e-03 3.149739e-03 -5.888745e-05) (0.000000e+00 0.000000e+00 0.000000e+00))
3.500000e+02	((5.313488e+00 1.635323e+01 -2.845643e-18) (6.589247e-02 -2.128486e-02 1.539986e-19) (0.000000e+00 0.000000e+00 0.000000e+00)) ((-8.176613e-01 2.656744e-01 4.044925e+00) (1.064243e-03 3.294624e-03 -5.752618e-05) (0.000000e+00 0.000000e+00 0.000000e+00))
3.550000e+02	((5.237873e+00 1.612051e+01 -2.957989e-18) (6.888662e-02 -2.226044e-02 1.638701e-19) (0.000000e+00 0.000000e+00 0.000000e+00)) ((-8.060253e-01 2.618937e-01 4.055297e+00) (1.113022e-03 3.444331e-03 -5.619052e-05) (0.000000e+00 0.000000e+00 0.000000e+00))
3.600000e+02	((5.163353e+00 1.589116e+01 -2.925122e-18) (7.186289e-02 -2.323056e-02 1.635772e-19) (0.000000e+00 0.000000e+00 0.000000e+00)) ((-7.945578e-01 2.581676e-01 4.019342e+00) (1.161528e-03 3.593145e-03 -5.479796e-05) (0.000000e+00 0.000000e+00 0.000000e+00))
3.650000e+02	((5.035411e+00 1.549739e+01 -2.896754e-18) (7.492672e-02 -2.422499e-02 1.640888e-19) (0.000000e+00 0.000000e+00 0.000000e+00)) ((-7.748696e-01 2.517706e-01 3.933143e+00) (1.211250e-03 3.746336e-03 -5.331831e-05) (0.000000e+00 0.000000e+00 0.000000e+00))
3.700000e+02	((4.903934e+00 1.509275e+01 -2.859786e-18) (7.791860e-02 -2.519835e-02 1.651867e-19) (0.000000e+00 0.000000e+00 0.000000e+00)) ((-7.546373e-01 2.451967e-01 3.829430e+00) (1.259917e-03 3.895930e-03 -5.208192e-05) (0.000000e+00 0.000000e+00 0.000000e+00))
3.750000e+02	((4.766995e+00 1.467129e+01 -2.828930e-18) (8.086169e-02 -2.615512e-02 1.666485e-19) (0.000000e+00 0.000000e+00 0.000000e+00)) ((-7.335646e-01 2.383498e-01 3.723168e+00) (1.307756e-03 4.043085e-03 -5.066015e-05) (0.000000e+00 0.000000e+00 0.000000e+00))
3.800000e+02	((4.610079e+00 1.418835e+01 -2.674979e-18) (8.367581e-02 -2.706883e-02 1.623003e-19) (0.000000e+00 0.000000e+00 0.000000e+00)) ((-7.094177e-01 2.305039e-01 3.597568e+00) (1.353441e-03 4.183791e-03 -4.943346e-05) (0.000000e+00 0.000000e+00 0.000000e+00))
3.850000e+02	((4.437679e+00 1.365776e+01 -2.526143e-18) (8.644940e-02 -2.796983e-02 1.522349e-19) (0.000000e+00 0.000000e+00 0.000000e+00)) ((-6.828881e-01 2.218840e-01 3.447093e+00) (1.398491e-03 4.322470e-03 -4.910214e-05) (0.000000e+00 0.000000e+00 0.000000e+00))
3.900000e+02	((4.337813e+00 1.335041e+01 -2.407010e-18) (8.914304e-02 -2.883675e-02 1.471517e-19) (0.000000e+00 0.000000e+00 0.000000e+00)) ((-6.675203e-01 2.168907e-01 3.362034e+00) (1.441837e-03 4.457152e-03 -4.944635e-05) (0.000000e+00 0.000000e+00 0.000000e+00))
3.950000e+02	((4.191079e+00 1.289880e+01 -2.290738e-18) (9.168196e-02 -2.965420e-02 1.411181e-19) (0.000000e+00 0.000000e+00 0.000000e+00)) ((-6.449401e-01 2.095539e-01 3.216334e+00) (1.482710e-03 4.584098e-03 -4.991170e-05) (0.000000e+00 0.000000e+00 0.000000e+00))
4.000000e+02	((4.064158e+00 1.250818e+01 -2.135914e-18) (9.415751e-02 -3.045303e-02 1.335889e-19) (0.000000e+00 0.000000e+00 0.000000e+00)) ((-6.254091e-01 2.032079e-01 3.057628e+00) (1.522652e-03 4.707875e-03 -5.158447e-05) (0.000000e+00 0.000000e+00 0.000000e+00))
4.050000e+02	((4.031030e+00 1.240622e+01 -1.959086e-18) (9.652607e-02 -3.121723e-02 1.236793e-19) (0.000000e+00 0.000000e+00 0.000000e+00)) ((-6.203112e-01 2.015515e-01 2.992952e+00) (1.560862e-03 4.826304e-03 -5.236493e-05) (0.000000e+00 0.000000e+00 0.000000e+00))
4.100000e+02	((3.982176e+00 1.225587e+01 -1.852359e-18) (9.866327e-02 -3.190582e-02 1.197835e-19) (0.000000e+00 0.000000e+00 0.000000e+00)) ((-6.127933e-01 1.991088e-01 2.882834e+00) (1.595291e-03 4.933163e-03 -5.198639e-05) (0.000000e+00 0.000000e+00 0.000000e+00))
4.150000e+02	((3.953703e+00 1.216824e+01 -1.621315e-18) (1.006348e-01 -3.254726e-02 1.090020e-19) (0.000000e+00 0.000000e+00 0.000000e+00)) ((-6.084118e-01 1.976852e-01 2.751466e+00) (1.627363e-03 5.031742e-03 -5.253144e-05) (0.000000e+00 0.000000e+00 0.000000e+00))
4.200000e+02	((3.979434e+00 1.224743e+01 -1.417738e-18) (1.024711e-01 -3.314357e-02 1.002497e-19) (0.000000e+00 0.000000e+00 0.000000e+00)) ((-6.123713e-01 1.989717e-01 2.671506e+00) (1.657178e-03 5.123554e-03 -5.264835e-05) (0.000000e+00 0.000000e+00 0.000000e+00))
4.250000e+02	((4.008522e+00 1.233695e+01 -1.300228e-18) (1.040238e-01 -3.365441e-02 9.985613e-20) (0.000000e+00 0.000000e+00 0.000000e+00)) ((-6.168475e-01 2.004261e-01 2.587095e+00) (1.682721e-03 5.201189e-03 -5.040855e-05) (0.000000e+00 0.000000e+00 0.000000e+00))
4.300000e+02	((4.069918e+00 1.252591e+01 -1.079813e-18) (1.053485e-01 -3.408625e-02 8.852630e-20) (0.000000e+00 0.000000e+00 0.000000e+00)) ((-6.262953e-01 2.034959e-01 2.495672e+00) (1.704313e-03 5.267425e-03 -5.018696e-05) (0.000000e+00 0.000000e+00 0.000000e+00))
4.350000e+02	((4.168401e+00 1.282901e+01 -9.337667e-19) (1.064796e-01 -3.445823e-02 8.103408e-20) (0.000000e+00 0.000000e+00 0.000000e+00)) ((-6.414504e-01 2.084201e-01 2.411957e+00) (1.722911e-03 5.323982e-03 -4.930698e-05) (0.000000e+00 0.000000e+00 0.000000e+00))
4.400000e+02	((4.267662e+00 1.313450e+01 -7.208348e-19) (1.074173e-01 -3.475819e-02 6.734900e-20) (0.000000e+00 0.000000e+00 0.000000e+00)) ((-6.567251e-01 2.133831e-01 2.350510e+00) (1.737910e-03 5.370865e-03 -5.009256e-05) (0.000000e+00 0.000000e+00 0.000000e+00))
4.450000e+02	((4.365237e+00 1.343481e+01 -5.039843e-19) (1.080692e-01 -3.497614e-02 5.258957e-20) (0.000000e+00 0.000000e+00 0.000000e+00)) ((-6.717403e-01 2.182618e-01 2.289908e+00) (1.748807e-03 5.403462e-03 -4.855290e-05) (0.000000e+00 0.000000e+00 0.000000e+00))
4.500000e+02	((4.505338e+00 1.386599e+01 -3.708238e-19) (1.085044e-01 -3.511508e-02 4.317416e-20) (0.000000e+00 0.000000e+00 0.000000e+00)) ((-6.932996e-01 2.252669e-01 2.224600e+00) (1.755754e-03 5.425222e-03 -4.908530e-05) (0.000000e+00 0.000000e+00 0.000000e+00))
4.550000e+02	((4.652769e+00 1.431974e+01 -1.498729e-19) (1.087237e-01 -3.519054e-02 2.645934e-20) (0.000000e+00 0.000000e+00 0.000000e+00)) ((-7.159869e-01 2.326384e-01 2.169357e+00) (1.759527e-03 5.436187e-03 -4.834958e-05) (0.000000e+00 0.000000e+00 0.000000e+00))
4.600000e+02	((4.806918e+00 1.479416e+01 6.788204e-20) (1.087588e-01 -3.519310e-02 1.060758e-20) (0.000000e+00 0.000000e+00 0.000000e+00)) ((-7.397080e-01 2.403459e-01 2.119774e+00) (1.759655e-03 5.437941e-03 -5.052553e-05) (0.000000e+00 0.000000e+00 0.000000e+00))
4.650000e+02	((4.989320e+00 1.535554e+01 1.963937e-19) (1.085835e-01 -3.513677e-02 2.376216e-21) (0.000000e+00 0.000000e+00 0.000000e+00)) ((-7.677768e-01 2.494660e-01 2.071389e+00) (1.756839e-03 5.429173e-03 -5.055944e-05) (0.000000e+00 0.000000e+00 0.000000e+00))
4.700000e+02	((5.158224e+00 1.587537e+01 4.050009e-19) (1.082188e-01 -3.501527e-02 -1.314425e-20) (0.000000e+00 0.000000e+00 0.000000e+00)) ((-7.937684e-01 2.579112e-01 2.032587e+00) (1.750763e-03 5.410940e-03 -5.135699e-05) (0.000000e+00 0.000000e+00 0.000000e+00))
4.750000e+02	((5.328862e+00 1.640054e+01 6.089917e-19) (1.076511e-01 -3.482777e-02 -2.770723e-20) (0.000000e+00 0.000000e+00 0.000000e+00)) ((-8.200270e-01 2.664431e-01 1.998905e+00) (1.741388e-03 5.382557e-03 -5.242978e-05) (0.000000e+00 0.000000e+00 0.000000e+00))
4.800000e+02	((5.543185e+00 1.706016e+01 7.242167e-19) (1.069060e-01 -3.457868e-02 -3.498117e-20) (0.000000e+00 0.000000e+00 0.000000e+00)) ((-8.530078e-01 2.771592e-01 1.970707e+00) (1.728934e-03 5.345302e-03 -5.425463e-05) (0.000000e+00 0.000000e+00 0.000000e+00))
4.850000e+02	((5.739767e+00 1.766518e+01 9.198825e-19) (1.059835e-01 -3.427530e-02 -4.898552e-20) (0.000000e+00 0.000000e+00 0.000000e+00)) ((-8.832588e-01 2.869884e-01 1.950711e+00) (1.713765e-03 5.299175e-03 -5.542234e-05) (0.000000e+00 0.000000e+00 0.000000e+00))
4.900000e+02	((5.938244e+00 1.827602e+01 1.109575e-18) (1.048740e-01 -3.391089e-02 -6.321853e-20) (0.000000e+00 0.000000e+00 0.000000e+00)) ((-9.138012e-01 2.969122e-01 1.938192e+00) (1.695545e-03 5.243698e-03 -5.677422e-05) (0.000000e+00 0.000000e+00 0.000000e+00))
4.950000e+02	((6.166974e+00 1.897998e+01 1.221932e-18) (1.036028e-01 -3.349460e-02 -7.075430e-20) (0.000000e+00 0.000000e+00 0.000000e+00)) ((-9.489992e-01 3.083487e-01 1.935971e+00) (1.674730e-03 5.180139e-03 -5.774996e-05) (0.000000e+00 0.000000e+00 0.000000e+00))
5.000000e+02	((6.404909e+00 1.971227e+01 1.334574e-18) (1.021312e-01 -3.301285e-02 -7.809233e-20) (0.000000e+00 0.000000e+00 0.000000e+00)) ((-9.856137e-01 3.202455e-01 1.941754e+00) (1.650642e-03 5.106560e-03 -5.916630e-05) (0.000000e+00 0.000000e+00 0.000000e+00))
5.050000e+02	((6.619503e+00 2.037272e+01 1.529810e-18) (1.005275e-01 -3.248929e-02 -9.333379e-20) (0.000000e+00 0.000000e+00 0.000000e+00)) ((-1.018636e+00 3.309752e-01 1.954742e+00) (1.624465e-03 5.026373e-03 -6.019359e-05) (0.000000e+00 0.000000e+00 0.000000e+00))
5.100000e+02	((6.875582e+00 2.116086e+01 1.642366e-18) (9.876722e-02 -3.191222e-02 -1.027173e-19) (0.000000e+00 0.000000e+00 0.000000e+00)) ((-1.058043e+00 3.437791e-01 1.979470e+00) (1.595611e-03 4.938361e-03 -6.145238e-05) (0.000000e+00 0.000000e+00 0.000000e+00))
5.150000e+02	((7.135244e+00 2.196001e+01 1.753367e-18) (9.684388e-02 -3.128543e-02 -1.123247e-19) (0.000000e+00 0.000000e+00 0.000000e+00)) ((-1.098001e+00 3.567622e-01 2.012768e+00) (1.564271e-03 4.842194e-03 -6.243182e-05) (0.000000e+00 0.000000e+00 0.000000e+00))
5.200000e+02	((7.389755e+00 2.274332e+01 1.861141e-18) (9.477877e-02 -3.061006e-02 -1.212682e-19) (0.000000e+00 0.000000e+00 0.000000e+00)) ((-1.137166e+00 3.694878e-01 2.054107e+00) (1.530503e-03 4.738938e-03 -6.393157e-05) (0.000000e+00 0.000000e+00 0.000000e+00))
5.250000e+02	((7.611833e+00 2.342680e+01 2.043461e-18) (9.259395e-02 -2.989901e-02 -1.435951e-19) (0.000000e+00 0.000000e+00 0.000000e+00)) ((-1.171340e+00 3.805917e-01 2.092087e+00) (1.494951e-03 4.629697e-03 -6.470522e-05) (0.000000e+00 0.000000e+00 0.000000e+00))
5.300000e+02	((7.860141e+00 2.419102e+01 2.148211e-18) (9.029802e-02 -2.914987e-02 -1.577522e-19) (0.000000e+00 0.000000e+00 0.000000e+00)) ((-1.209551e+00 3.930070e-01 2.143414e+00) (1.457493e-03 4.514901e-03 -6.583073e-05) (0.000000e+00 0.000000e+00 0.000000e+00))
5.350000e+02	((8.119027e+00 2.498779e+01 2.246738e-18) (8.787060e-02 -2.836234e-02 -1.715977e-19) (0.000000e+00 0.000000e+00 0.000000e+00)) ((-1.249389e+00 4.059514e-01 2.203842e+00) (1.418117e-03 4.393530e-03 -6.612782e-05) (0.000000e+00 0.000000e+00 0.000000e+00))
5.400000e+02	((8.383736e+00 2.580248e+01 2.341068e-18) (8.535004e-02 -2.754495e-02 -1.837703e-19) (0.000000e+00 0.000000e+00 0.000000e+00)) ((-1.290124e+00 4.191868e-01 2.273308e+00) (1.377248e-03 4.267502e-03 -6.638946e-05) (0.000000e+00 0.000000e+00 0.000000e+00))
5.450000e+02	((8.663319e+00 2.666294e+01 2.358864e-18) (8.270252e-02 -2.668772e-02 -1.894180e-19) (0.000000e+00 0.000000e+00 0.000000e+00)) ((-1.333147e+00 4.331659e-01 2.355789e+00) (1.334386e-03 4.135126e-03 -6.636090e-05) (0.000000e+00 0.000000e+00 0.000000e+00))
5.500000e+02	((8.968560e+00 2.760238e+01 2.466876e-18) (7.998498e-02 -2.580420e-02 -2.042943e-19) (0.000000e+00 0.000000e+00 0.000000e+00)) ((-1.380119e+00 4.484280e-01 2.455808e+00) (1.290210e-03 3.999249e-03 -6.724704e-05) (0.000000e+00 0.000000e+00 0.000000e+00))
5.550000e+02	((9.197460e+00 2.830686e+01 2.478672e-18) (7.719036e-02 -2.489968e-02 -2.094066e-19) (0.000000e+00 0.000000e+00 0.000000e+00)) ((-1.415343e+00 4.598730e-01 2.539607e+00) (1.244984e-03 3.859518e-03 -6.702126e-05) (0.000000e+00 0.000000e+00 0.000000e+00))