/*--------------------------------*- C++ -*----------------------------------*\
| =========                 |                                                 |
| \\      /  F ield         | OpenFOAM: The Open Source CFD Toolbox           |
|  \\    /   O peration     | Version:  2.3.0                                 |
|   \\  /    A nd           | Web:      www.OpenFOAM.org                      |
|    \\/     M anipulation  |                                                 |
\*---------------------------------------------------------------------------*/
FoamFile
{
    version     2.0;
    format      ascii;
    class       volScalarField;
    location    "4000";
    object      nut;
}
// * * * * * * * * * * * * * * * * * * * * * * * * * * * * * * * * * * * * * //

dimensions      [0 2 -1 0 0 0 0];

internalField   nonuniform List<scalar> 
38977
(
0.0620702
0.0603979
0.0587358
0.0570802
0.0554311
0.0537887
0.052154
0.0505278
0.0489111
0.0473049
0.0457098
0.0441272
0.0425576
0.0410022
0.0394621
0.0379376
0.0364297
0.0349396
0.0334681
0.0320162
0.0305851
0.0291765
0.0277922
0.0264342
0.0251055
0.0238103
0.0225535
0.0213389
0.0201691
0.019049
0.017989
0.0169984
0.0160813
0.0152074
0.0143399
0.013464
0.012577
0.0116747
0.010747
0.00977344
0.00871871
0.00756412
0.00652959
0.063578
0.0621174
0.0606599
0.0592062
0.0577577
0.0563147
0.0548779
0.0534481
0.0520256
0.0506109
0.0492046
0.0478073
0.0464198
0.0450428
0.0436767
0.0423225
0.0409802
0.0396507
0.038335
0.0370335
0.0357469
0.0344767
0.0332232
0.0319887
0.0307735
0.0295792
0.0284088
0.0272645
0.0261482
0.025063
0.0240129
0.0230036
0.0220402
0.0211297
0.0202766
0.0194891
0.0187804
0.0181633
0.0176534
0.0172667
0.01702
0.0169283
0.0170069
0.0649618
0.0636786
0.0623922
0.0611073
0.0598261
0.0585489
0.0572763
0.0560087
0.0547461
0.0534888
0.0522371
0.0509917
0.049753
0.0485213
0.0472971
0.0460811
0.0448742
0.0436762
0.0424886
0.0413109
0.0401452
0.0389923
0.0378529
0.0367289
0.0356216
0.0345324
0.0334648
0.0324203
0.0314025
0.0304153
0.0294619
0.028548
0.0276807
0.0268657
0.0261113
0.0254272
0.0248232
0.0243119
0.0239046
0.0236117
0.0234447
0.0234101
0.0235109
0.0662436
0.0650979
0.0639536
0.0628111
0.0616708
0.0605331
0.0593981
0.0582662
0.0571371
0.056011
0.0548878
0.0537682
0.0526524
0.0515407
0.0504336
0.0493315
0.0482353
0.0471455
0.0460623
0.0449869
0.0439198
0.0428628
0.0418168
0.0407828
0.0397631
0.0387597
0.0377745
0.0368115
0.035873
0.0349636
0.0340877
0.0332497
0.032456
0.0317142
0.0310312
0.0304161
0.0298778
0.0294262
0.0290715
0.0288225
0.0286867
0.0286692
0.0287713
0.0674028
0.0663812
0.0653598
0.0643386
0.0633179
0.0622981
0.0612791
0.0602612
0.0592442
0.0582279
0.0572123
0.0561975
0.0551838
0.0541717
0.0531615
0.0521535
0.0511486
0.0501472
0.0491502
0.0481582
0.0471726
0.0461939
0.0452238
0.0442632
0.0433143
0.0423798
0.0414613
0.0405622
0.0396862
0.0388378
0.0380206
0.0372403
0.0365024
0.0358133
0.0351813
0.0346131
0.0341182
0.0337056
0.0333831
0.0331591
0.0330402
0.0330299
0.0331305
0.0684534
0.0675404
0.0666257
0.0657085
0.0647893
0.0638694
0.0629487
0.0620269
0.0611041
0.0601802
0.0592548
0.058328
0.0573997
0.0564705
0.0555409
0.0546113
0.0536819
0.0527537
0.0518277
0.0509046
0.0499857
0.0490717
0.0481639
0.0472635
0.0463725
0.0454939
0.0446294
0.0437821
0.0429557
0.0421548
0.0413836
0.0406472
0.0399519
0.0393035
0.0387083
0.0381744
0.03771
0.0373236
0.0370226
0.0368149
0.0367054
0.0366981
0.0367962
0.0694039
0.0685875
0.0677659
0.0669378
0.0661046
0.0652691
0.0644321
0.063592
0.0627484
0.0619025
0.0610534
0.0602007
0.0593443
0.0584846
0.0576225
0.0567584
0.0558923
0.0550249
0.0541576
0.0532915
0.052428
0.0515675
0.0507113
0.0498608
0.049018
0.0481851
0.0473647
0.0465598
0.0457736
0.0450103
0.0442752
0.0435737
0.0429115
0.0422948
0.0417287
0.0412206
0.0407789
0.040411
0.040125
0.0399283
0.0398255
0.0398197
0.0399141
0.0702687
0.0695336
0.0687925
0.0680428
0.067281
0.0665163
0.0657509
0.0649814
0.0642036
0.0634233
0.0626389
0.0618496
0.0610544
0.060253
0.0594476
0.0586387
0.0578262
0.0570099
0.0561909
0.0553719
0.0545541
0.0537389
0.0529259
0.0521166
0.0513142
0.0505199
0.0497363
0.048966
0.0482131
0.0474807
0.0467743
0.0460997
0.0454645
0.0448737
0.0443318
0.0438448
0.0434198
0.0430649
0.0427905
0.0426027
0.0425055
0.0425004
0.0425911
0.0710438
0.0703789
0.0697057
0.0690316
0.0683293
0.0676215
0.0669111
0.0662046
0.0654811
0.0647561
0.0640244
0.0632886
0.0625467
0.0617944
0.0610354
0.0602724
0.059504
0.0587324
0.0579534
0.0571712
0.0563905
0.0556131
0.054839
0.0540644
0.0532949
0.0525335
0.0517808
0.0510408
0.0503169
0.0496119
0.0489312
0.0482785
0.0476646
0.0470972
0.0465783
0.0461106
0.0457026
0.0453565
0.0450917
0.0449135
0.0448246
0.0448191
0.0449102
0.00729963
0.0092163
0.010401
0.0115489
0.0127647
0.0140534
0.0154004
0.0167908
0.0182133
0.0196593
0.0211233
0.0226017
0.0240913
0.0255909
0.0270984
0.0286135
0.0301353
0.031663
0.0331962
0.034735
0.0362787
0.0378269
0.0393798
0.040937
0.0424981
0.0440628
0.0456314
0.0472029
0.0487772
0.0503543
0.0519335
0.0535144
0.0550966
0.0566798
0.0582636
0.0598474
0.0614305
0.0630123
0.0645921
0.0661692
0.0677428
0.069312
0.0708729
0.0172625
0.0176975
0.0183022
0.0190617
0.0199553
0.0209615
0.022059
0.0232291
0.0244562
0.0257282
0.0270345
0.0283667
0.0297201
0.0310888
0.0324697
0.0338598
0.0352574
0.0366602
0.038067
0.039477
0.0408896
0.0423036
0.0437191
0.0451358
0.0465528
0.0479702
0.0493879
0.0508053
0.0522225
0.0536395
0.0550559
0.0564716
0.0578864
0.0593002
0.060713
0.0621245
0.0635342
0.0649418
0.066347
0.0677494
0.0691484
0.0705436
0.071931
0.0237454
0.0241169
0.0246273
0.0252678
0.0260259
0.0268876
0.0278376
0.0288618
0.0299475
0.031083
0.0322579
0.0334643
0.0346948
0.0359447
0.0372089
0.0384835
0.0397659
0.041054
0.0423456
0.0436396
0.0449345
0.0462293
0.0475236
0.0488169
0.0501084
0.051398
0.0526854
0.0539704
0.0552529
0.0565331
0.0578105
0.0590852
0.0603574
0.061627
0.062894
0.0641583
0.0654201
0.0666787
0.067934
0.0691861
0.0704347
0.0716792
0.0729165
0.0289922
0.029333
0.0297945
0.0303704
0.0310512
0.0318271
0.0326859
0.0336158
0.0346052
0.0356437
0.0367227
0.0378338
0.0389696
0.0401251
0.0412957
0.0424767
0.0436651
0.0448585
0.0460544
0.0472513
0.0484479
0.0496426
0.0508353
0.0520248
0.0532109
0.0543931
0.055571
0.0567444
0.0579134
0.0590781
0.0602382
0.0613938
0.0625452
0.0636925
0.0648358
0.0659753
0.0671106
0.0682419
0.0693688
0.0704915
0.0716098
0.0727237
0.0738306
0.0333413
0.0336624
0.0340929
0.034628
0.0352597
0.0359793
0.0367763
0.0376404
0.0385612
0.0395294
0.0405363
0.0415747
0.0426371
0.0437185
0.0448143
0.0459198
0.0470319
0.0481476
0.0492641
0.0503807
0.0514959
0.0526079
0.0537158
0.054819
0.0559169
0.0570092
0.0580954
0.0591752
0.0602488
0.0613162
0.0623775
0.0634326
0.064482
0.0655259
0.0665644
0.0675976
0.0686252
0.0696473
0.070664
0.0716754
0.0726814
0.073682
0.0746779
0.0369984
0.0373049
0.0377137
0.0382205
0.0388182
0.0394978
0.0402499
0.0410658
0.0419361
0.0428512
0.0438028
0.0447841
0.0457888
0.0468119
0.0478476
0.0488921
0.0499416
0.050993
0.0520446
0.0530951
0.054143
0.0551863
0.0562239
0.0572549
0.0582791
0.059296
0.0603053
0.0613068
0.0623003
0.0632859
0.0642636
0.0652337
0.066197
0.0671535
0.0681032
0.0690459
0.0699816
0.0709102
0.071832
0.0727472
0.0736559
0.074558
0.075456
0.0401088
0.0404036
0.0407966
0.0412824
0.0418541
0.0425034
0.0432222
0.0440017
0.044833
0.0457066
0.0466144
0.0475503
0.048509
0.0494853
0.0504729
0.0514672
0.0524643
0.0534614
0.054459
0.0554561
0.0564483
0.0574337
0.0584122
0.0593829
0.0603454
0.0612991
0.062244
0.0631794
0.0641051
0.0650211
0.065928
0.0668263
0.0677168
0.0685996
0.0694737
0.0703393
0.071196
0.0720442
0.0728842
0.0737164
0.0745407
0.0753566
0.0761661
0.0427768
0.0430616
0.0434429
0.0439132
0.0444646
0.0450896
0.0457818
0.0465333
0.0473354
0.0481753
0.0490466
0.0499455
0.050868
0.0518071
0.052754
0.053707
0.0546584
0.055608
0.0565615
0.0575179
0.0584624
0.0593978
0.0603268
0.0612469
0.0621571
0.0630576
0.0639483
0.0648275
0.0656952
0.0665521
0.0673986
0.0682361
0.0690653
0.0698867
0.0706947
0.0714952
0.0722837
0.073062
0.0738318
0.0745925
0.0753439
0.076084
0.0768168
0.0450827
0.0453596
0.0457325
0.0461907
0.0467238
0.0473278
0.0479976
0.0487286
0.0495103
0.0503167
0.0511554
0.0520255
0.0529241
0.0538347
0.0547396
0.0556572
0.0565643
0.0574741
0.0583965
0.059325
0.0602168
0.0611103
0.0619995
0.0628762
0.0637421
0.0645974
0.0654436
0.066274
0.0670923
0.0678993
0.0686951
0.0694824
0.0702617
0.0710358
0.0717798
0.0725275
0.0732548
0.0739746
0.0746856
0.0753856
0.0760757
0.0767488
0.0774171
0.0500693
0.0481383
0.0461884
0.0442229
0.0422472
0.0402673
0.0382897
0.0363211
0.0343692
0.0324418
0.0305469
0.0286928
0.0268876
0.0251382
0.0234509
0.0218302
0.0202792
0.0187994
0.0173908
0.0160527
0.0147834
0.0135809
0.012443
0.0113672
0.0103512
0.0093927
0.00848929
0.00763888
0.00683946
0.0060892
0.00538625
0.0047293
0.00411688
0.00354791
0.00302156
0.00253711
0.00209428
0.00169282
0.00133304
0.00101427
0.00073731
0.000544037
0.000388106
0.0501169
0.0483488
0.0465591
0.0447538
0.0429375
0.0411145
0.0392895
0.0374674
0.0356537
0.0338539
0.0320743
0.030321
0.0286004
0.0269187
0.0252814
0.0236937
0.0221594
0.0206815
0.0192617
0.0179007
0.0165988
0.0153553
0.0141691
0.0130389
0.0119636
0.0109413
0.00997079
0.00905059
0.00817956
0.00735636
0.00658005
0.00584981
0.00516492
0.00452499
0.00393008
0.00338036
0.00287445
0.00240722
0.00197416
0.00158845
0.00128093
0.00100835
0.000734878
0.0501833
0.0485588
0.0469184
0.0452635
0.0435965
0.0419208
0.0402395
0.0385561
0.0368745
0.0351987
0.0335333
0.0318827
0.0302518
0.0286455
0.0270686
0.0255258
0.024021
0.0225577
0.0211389
0.0197667
0.0184424
0.0171669
0.0159408
0.0147639
0.013636
0.0125567
0.0115256
0.0105422
0.0096061
0.00871684
0.00787445
0.00707884
0.00632952
0.00562572
0.0049652
0.00434401
0.00375596
0.00319555
0.00268491
0.00225324
0.00186096
0.00147954
0.00106312
0.0502373
0.0487546
0.0472516
0.0457326
0.0442003
0.042657
0.0411049
0.039547
0.0379855
0.0364237
0.0348647
0.0333119
0.0317689
0.0302396
0.0287278
0.0272375
0.0257722
0.0243356
0.0229308
0.0215609
0.0202282
0.0189347
0.0176816
0.0164704
0.0153019
0.0141768
0.0130955
0.0120587
0.0110666
0.0101193
0.00921695
0.00835901
0.00754415
0.00677029
0.00603338
0.00532758
0.00464637
0.00399668
0.00340709
0.00290611
0.00242482
0.00193226
0.00138171
0.0503071
0.0489419
0.0475602
0.0461623
0.04475
0.0433246
0.0418879
0.0404416
0.0389877
0.0375285
0.0360662
0.0346034
0.0331428
0.0316874
0.0302403
0.0288048
0.0273839
0.0259809
0.0245991
0.0232417
0.0219116
0.0206115
0.0193434
0.0181094
0.0169115
0.0157508
0.0146285
0.013546
0.0125038
0.0115025
0.0105422
0.00962188
0.00873974
0.00789283
0.00707607
0.00628273
0.00550817
0.00478307
0.00413584
0.00354719
0.00296936
0.00236597
0.00168979
0.0503731
0.0491179
0.0478448
0.0465549
0.0452491
0.0439285
0.0425939
0.0412466
0.0398881
0.0385201
0.0371442
0.0357627
0.0343775
0.0329908
0.031605
0.0302229
0.028847
0.0274801
0.0261254
0.0247862
0.0234656
0.0221667
0.020892
0.019644
0.018425
0.0172368
0.0160811
0.0149592
0.0138725
0.0128217
0.0118068
0.0108269
0.00987991
0.00896213
0.00806799
0.00719113
0.00633316
0.00553606
0.00483183
0.00416033
0.00348874
0.00277897
0.00198466
0.050439
0.0492825
0.0481063
0.0469123
0.0457013
0.0444735
0.0432292
0.0419693
0.0406949
0.0394074
0.0381082
0.0367991
0.035482
0.034158
0.0328289
0.0314972
0.0301646
0.0288337
0.0275073
0.0261885
0.0248808
0.0235876
0.0223119
0.0210561
0.0198229
0.0186139
0.0174312
0.0162759
0.0151501
0.0140547
0.0129904
0.0119559
0.0109487
0.00996475
0.00899834
0.00804414
0.00711386
0.00624897
0.00548233
0.00473616
0.00397879
0.00317009
0.00226464
0.0505088
0.0494372
0.0483457
0.0472359
0.0461093
0.0449647
0.0438002
0.0426175
0.0414167
0.0402001
0.0389682
0.0377226
0.0364671
0.0352005
0.0339234
0.0326382
0.0313468
0.0300499
0.0287508
0.0274532
0.0261599
0.024875
0.0236019
0.0223426
0.0211003
0.0198771
0.0186735
0.0174897
0.016329
0.0151939
0.0140858
0.0130025
0.0119412
0.0108966
0.00986312
0.00883745
0.00784477
0.00691923
0.00609148
0.00527578
0.00443971
0.00353973
0.00252789
0.0505758
0.0495821
0.0485633
0.0475252
0.0464747
0.0454082
0.0443132
0.0431984
0.0420623
0.0409075
0.0397349
0.0385417
0.0373422
0.0361303
0.0349009
0.0336588
0.0324072
0.0311408
0.0298659
0.0285895
0.0273115
0.0260354
0.0247682
0.0235076
0.0222602
0.0210301
0.0198132
0.0186042
0.0174102
0.0162383
0.0150923
0.0139664
0.0128583
0.0117596
0.0106639
0.00957284
0.00852883
0.00755233
0.00666454
0.00578269
0.00487857
0.00390307
0.00280821
0.000377112
0.000523181
0.000755808
0.000977737
0.00118841
0.0013889
0.00158071
0.00176545
0.00194445
0.00211965
0.00229291
0.0024663
0.0026426
0.00282547
0.00302029
0.00323431
0.00347769
0.00375943
0.00408023
0.0044369
0.0048258
0.00524446
0.00569176
0.00616734
0.00667116
0.00720353
0.00776496
0.00835598
0.00897718
0.00962914
0.0103123
0.0110274
0.0117751
0.0125564
0.0133724
0.0142241
0.0151124
0.0160386
0.0170036
0.0180083
0.0190535
0.0201395
0.0212663
0.000568559
0.000697599
0.000930216
0.00116098
0.0013802
0.00158817
0.00178661
0.00197755
0.00216316
0.00234593
0.00252896
0.00271566
0.00291061
0.00311956
0.0033495
0.00360869
0.00390523
0.00423832
0.00460298
0.00499576
0.00541435
0.00585776
0.0063255
0.00681724
0.00733321
0.00787383
0.00843918
0.00902985
0.00964599
0.0102881
0.0109566
0.0116521
0.0123753
0.0131271
0.0139082
0.0147195
0.0155618
0.016436
0.0173429
0.0182834
0.0192576
0.0202664
0.0213104
0.000765733
0.000853508
0.0010849
0.00132414
0.00155206
0.00176784
0.00197366
0.00217229
0.00236696
0.00256139
0.00276
0.00296787
0.00319084
0.00343537
0.00370777
0.00401473
0.00435894
0.00473318
0.00513264
0.00555502
0.00599878
0.00646342
0.00694872
0.00745435
0.0079807
0.00852789
0.00909595
0.00968502
0.0102953
0.0109272
0.0115811
0.0122574
0.0129568
0.0136797
0.0144271
0.0151994
0.0159971
0.0168211
0.017672
0.0185504
0.0194569
0.0203921
0.0213562
0.000958049
0.000991115
0.00121895
0.00146542
0.0017014
0.00192497
0.00213891
0.00234697
0.00255362
0.00276398
0.00298387
0.0032192
0.00347583
0.00375901
0.00407381
0.00442503
0.00480766
0.00521424
0.0056417
0.00608812
0.00655284
0.00703523
0.00753508
0.00805239
0.00858697
0.00913907
0.00970846
0.010295
0.0108991
0.0115206
0.0121603
0.0128183
0.0134952
0.0141913
0.014907
0.0156431
0.0163997
0.0171774
0.0179769
0.0187986
0.0196435
0.0205141
0.0214168
0.00114187
0.00111305
0.00133546
0.00158824
0.00183162
0.00206301
0.00228591
0.00250524
0.00272686
0.00295717
0.00320243
0.00346865
0.0037604
0.0040814
0.00443543
0.00482376
0.00523717
0.00567036
0.00612098
0.00658783
0.00707025
0.00756773
0.00807992
0.00860674
0.00914801
0.00970342
0.0102729
0.0108565
0.0114541
0.0120659
0.0126921
0.0133331
0.013989
0.0146602
0.0153469
0.0160495
0.0167685
0.0175038
0.0182564
0.0190267
0.0198158
0.020625
0.021455
0.00131628
0.00122201
0.00143714
0.00169542
0.00194592
0.00218537
0.0024182
0.00265073
0.00288992
0.00314284
0.00341578
0.00371349
0.00403904
0.00439475
0.00478419
0.00520267
0.00564167
0.00609739
0.00656793
0.00705214
0.0075498
0.00806026
0.00858306
0.00911795
0.00966447
0.0102223
0.0107913
0.0113715
0.0119629
0.0125653
0.0131789
0.013804
0.0144405
0.0150887
0.0157488
0.0164208
0.0171051
0.0178021
0.0185122
0.0192357
0.0199733
0.0207251
0.0214896
0.00148066
0.00131959
0.00152609
0.00178944
0.00204704
0.0022951
0.00253899
0.00278623
0.00304482
0.00332172
0.00362259
0.00395058
0.00430731
0.00469441
0.00511456
0.0055584
0.00601914
0.00649403
0.00698194
0.00748174
0.00799271
0.00851447
0.00904629
0.00958784
0.0101387
0.0106983
0.0112665
0.0118435
0.0124289
0.0130224
0.0136241
0.0142343
0.0148531
0.0154802
0.0161157
0.0167599
0.0174129
0.0180748
0.0187461
0.0194267
0.0201168
0.0208165
0.0215251
0.00163166
0.00140877
0.00160811
0.00187506
0.00213845
0.0023945
0.00264988
0.0029129
0.00319142
0.00349243
0.0038203
0.00417645
0.00456165
0.00497803
0.00542431
0.00588935
0.00636847
0.00686036
0.00736404
0.00787822
0.00840143
0.00893326
0.00947305
0.0100203
0.0105746
0.0111355
0.0117034
0.0122779
0.0128574
0.0134415
0.0140316
0.0146282
0.0152311
0.0158386
0.0164509
0.0170692
0.017694
0.0183239
0.0189596
0.0196008
0.0202475
0.0208987
0.0215544
0.00179971
0.00148435
0.00166032
0.00193507
0.00221078
0.00248172
0.00275327
0.00303233
0.0033332
0.00366167
0.00401544
0.00439822
0.00481321
0.00525768
0.0057204
0.00619597
0.00668859
0.00720202
0.00772677
0.0082551
0.00878831
0.00932843
0.00987437
0.0104261
0.0109823
0.0115442
0.0121153
0.0126897
0.0132584
0.0138266
0.0144056
0.0149921
0.0155823
0.0161689
0.016756
0.0173507
0.0179523
0.0185514
0.019155
0.019759
0.0203666
0.0209718
0.0215837
0.00036291
0.00135525
0.00280538
0.00423826
0.00559535
0.00687711
0.00809072
0.00924376
0.0103439
0.0114001
0.012425
0.0134376
0.014458
0.0154975
0.0165572
0.0176263
0.0186986
0.0198352
0.0210798
0.022411
0.0238071
0.0252524
0.0267379
0.0282581
0.029808
0.0313843
0.0329842
0.0346054
0.0362465
0.0379055
0.0395811
0.0412725
0.0429781
0.0446969
0.0464277
0.0481693
0.0499208
0.0516811
0.0534489
0.0552235
0.0570046
0.0587935
0.0605956
0.000288622
0.00098769
0.00222331
0.00340213
0.00449511
0.0055444
0.00657414
0.00758997
0.00859387
0.00958743
0.0105731
0.0115554
0.0125406
0.0135356
0.0145451
0.0155714
0.01662
0.0177103
0.0188623
0.0200743
0.0213276
0.0226227
0.0240306
0.0255308
0.0270962
0.028711
0.030365
0.0320504
0.0337622
0.0354967
0.0372501
0.0390206
0.0408061
0.0426047
0.044415
0.0462353
0.0480646
0.0499014
0.0517447
0.0535936
0.0554479
0.0573081
0.0591758
0.00017343
0.000667171
0.0015317
0.00264414
0.00391663
0.00508635
0.00615394
0.00714905
0.00809377
0.0090046
0.00989473
0.0107753
0.0116558
0.0125453
0.0134517
0.0143826
0.015346
0.0163509
0.0174065
0.0185178
0.019684
0.0209079
0.022203
0.0235593
0.0249677
0.0264921
0.0281117
0.0297978
0.0315336
0.0333071
0.0351099
0.0369364
0.038782
0.0406433
0.0425177
0.0444031
0.0462973
0.0481988
0.0501063
0.0520188
0.0539354
0.055856
0.0577798
0.000186761
0.000571019
0.00130614
0.00225096
0.00340653
0.00463779
0.00580472
0.00689176
0.00790557
0.00885536
0.0097515
0.0106058
0.011431
0.0122408
0.013049
0.013869
0.0147143
0.0155968
0.0165277
0.017516
0.0185685
0.0196896
0.0208813
0.0221415
0.0234684
0.024871
0.0263379
0.0278979
0.0295709
0.0313239
0.0331341
0.0349861
0.0368692
0.0387759
0.0407009
0.04264
0.04459
0.0465484
0.0485134
0.0504832
0.0524566
0.0544324
0.0564089
0.000168369
0.000509734
0.00116892
0.00201085
0.003038
0.00423295
0.00545332
0.00661695
0.00771075
0.00873734
0.00970081
0.0106057
0.0114585
0.0122681
0.0130462
0.0138068
0.014566
0.0153407
0.0161474
0.0170018
0.0179174
0.0189045
0.0199694
0.0211149
0.0223412
0.023646
0.025025
0.0264803
0.0280086
0.029632
0.0313742
0.0332006
0.0350856
0.0370126
0.0389697
0.0409488
0.0429438
0.0449506
0.0469659
0.0489872
0.0510122
0.0530389
0.0550649
0.000167175
0.000475654
0.00108964
0.00186891
0.00281674
0.003932
0.00515057
0.00635927
0.00751468
0.0086083
0.00964027
0.010612
0.0115252
0.0123828
0.0131903
0.0139558
0.0146914
0.0154123
0.0161363
0.0168827
0.0176712
0.0185195
0.019442
0.0204491
0.0215467
0.0227354
0.0240132
0.0253757
0.0268169
0.0283364
0.0299335
0.0316469
0.0334737
0.0353802
0.0373412
0.0393404
0.0413661
0.0434105
0.0454675
0.0475334
0.0496044
0.051678
0.0537513
0.000162787
0.000450127
0.00103059
0.00176547
0.00265674
0.00370516
0.00489143
0.0061214
0.00732389
0.0084741
0.0095665
0.0106006
0.0115764
0.0124944
0.0133555
0.014163
0.0149225
0.0156436
0.0163397
0.0170281
0.017729
0.0184643
0.0192553
0.0201205
0.0210743
0.0221257
0.0232778
0.0245292
0.0258744
0.0273069
0.0288203
0.0304176
0.0321027
0.0339236
0.0358445
0.0378335
0.0398688
0.0419355
0.0440235
0.0461255
0.0482363
0.0503517
0.0524688
0.000161605
0.000433126
0.000989193
0.00169192
0.00254209
0.00354045
0.00468288
0.00591163
0.00714501
0.00834131
0.00948625
0.0105762
0.0116099
0.0125866
0.0135055
0.0143669
0.0151725
0.0159263
0.016636
0.0173136
0.0179752
0.0186411
0.0193342
0.0200782
0.0208952
0.0218031
0.022814
0.0239335
0.0251612
0.0264922
0.0279185
0.0294325
0.0310287
0.0327139
0.0345261
0.0364572
0.0384701
0.0405376
0.0426413
0.0447687
0.0469111
0.0490621
0.0512156
0.00016029
0.000419595
0.00095658
0.00163454
0.00245304
0.00341255
0.00451344
0.00572683
0.00697772
0.00821097
0.00940197
0.0105422
0.0116288
0.0126601
0.0136348
0.0145515
0.0154097
0.0162102
0.0169562
0.0176544
0.0183154
0.0189546
0.0195918
0.0202508
0.0209568
0.0217345
0.0226048
0.0235826
0.0246758
0.0258852
0.0272062
0.0286301
0.0301475
0.0317517
0.0334472
0.0352552
0.0371979
0.0392342
0.0413322
0.0434702
0.0456341
0.0478143
0.0500061
0.000159618
0.000409024
0.000931129
0.00158953
0.00238307
0.00331184
0.00437755
0.00556753
0.00682401
0.00808487
0.00931543
0.0105009
0.011636
0.0127179
0.0137449
0.0147148
0.015626
0.0164774
0.0172694
0.0180049
0.0186897
0.0193338
0.019952
0.0205642
0.0211946
0.0218699
0.0226164
0.0234575
0.0244104
0.0254848
0.0266826
0.0279991
0.0294257
0.0309516
0.0325689
0.0342759
0.036091
0.0380504
0.0401118
0.04224
0.0444112
0.0466102
0.0488268
0.000159061
0.000400306
0.000910321
0.00155285
0.00232602
0.00322979
0.00426609
0.00543044
0.00668341
0.0079634
0.00922733
0.0104536
0.0116332
0.0127623
0.0138381
0.0148584
0.0158208
0.0167232
0.0175644
0.0183446
0.0190663
0.0197351
0.0203606
0.020958
0.0215473
0.0221531
0.0228032
0.0235259
0.024346
0.0252824
0.0263462
0.0275398
0.0288587
0.0302934
0.0318323
0.0334651
0.0351882
0.0370204
0.0390025
0.0410919
0.0432513
0.0454561
0.0476914
0.000158718
0.00039311
0.000893047
0.00152248
0.00227878
0.00316174
0.00417342
0.00531302
0.00655605
0.00784748
0.0091386
0.0104012
0.0116219
0.0127948
0.0139165
0.0149842
0.0159955
0.0169475
0.0178379
0.0186655
0.0194302
0.0201346
0.0207844
0.0213898
0.0219658
0.0225331
0.0231174
0.0237476
0.0244529
0.0252599
0.0261884
0.02725
0.0284474
0.0297755
0.0312239
0.0327799
0.0344319
0.0361762
0.038034
0.0400454
0.0421661
0.0443577
0.0465927
0.000158424
0.000387015
0.000878479
0.0014968
0.00223887
0.00310431
0.00409499
0.005212
0.00644123
0.00773754
0.00904998
0.0103445
0.0116029
0.0128168
0.0139816
0.0150942
0.0161518
0.0171513
0.0180898
0.018965
0.0197753
0.0205209
0.0212047
0.0218329
0.022416
0.0229698
0.0235161
0.0240816
0.0246964
0.025391
0.0261926
0.0271217
0.0281897
0.0293988
0.0307429
0.0322107
0.0337883
0.0354638
0.0372345
0.0391258
0.0411723
0.0433277
0.0455543
0.000158179
0.00038178
0.000865988
0.00147474
0.00220463
0.00305507
0.0040277
0.00512447
0.00633815
0.00763396
0.00896222
0.0102842
0.0115771
0.0128292
0.0140347
0.0151898
0.0162914
0.0173362
0.0183211
0.0192429
0.0200992
0.0208887
0.0216118
0.0222718
0.0228755
0.0234344
0.0239655
0.0244919
0.0250415
0.0256459
0.0263362
0.0271404
0.0280785
0.0291613
0.0303899
0.0317568
0.0332494
0.0348533
0.0365567
0.0383587
0.0402914
0.0423776
0.0445665
0.000157927
0.000377213
0.000855084
0.0014555
0.00217475
0.00301216
0.00396906
0.00504785
0.00624537
0.00753672
0.00887585
0.010221
0.011545
0.0128329
0.0140768
0.0152722
0.0164156
0.0175037
0.0185332
0.0195003
0.0204019
0.0212359
0.022001
0.0226981
0.0233311
0.0239078
0.0244412
0.0249495
0.0254574
0.0259947
0.0265938
0.0272869
0.0281015
0.0290572
0.0301631
0.0314186
0.0328146
0.0343375
0.0359723
0.0377075
0.0395453
0.0415267
0.0436554
0.000157602
0.00037313
0.000845398
0.00143849
0.00214839
0.00297427
0.00391731
0.00498008
0.00616193
0.00744566
0.00879129
0.0101556
0.0115075
0.0128285
0.0141086
0.0153424
0.0165258
0.0176553
0.0187273
0.0197382
0.0206841
0.0215623
0.0223702
0.0231073
0.023775
0.0243782
0.0249261
0.0254328
0.0259188
0.0264107
0.0269396
0.0275395
0.0282427
0.0290762
0.0300579
0.031195
0.0324844
0.0339156
0.0354736
0.0371429
0.0389131
0.0407921
0.0428344
0.000157226
0.000369475
0.000836762
0.00142332
0.00212486
0.00294045
0.0038712
0.00491964
0.00608663
0.00736089
0.00870903
0.0100886
0.0114652
0.0128168
0.0141311
0.0154013
0.0166229
0.0177919
0.0189049
0.0199578
0.0209467
0.0218682
0.022719
0.0234973
0.0242029
0.0248382
0.0254092
0.0259265
0.0264064
0.0268715
0.0273504
0.0278763
0.0284838
0.0292052
0.0300661
0.0310822
0.0322579
0.033588
0.0350595
0.0366565
0.0383633
0.0401716
0.0421011
0.000156785
0.000366165
0.00082894
0.00140964
0.00210368
0.00290996
0.00382962
0.0048652
0.00601828
0.00728198
0.00862954
0.0100206
0.0114186
0.0127984
0.0141449
0.0154499
0.0167078
0.0179148
0.0190668
0.0201603
0.0211908
0.0221545
0.0230477
0.0238675
0.0246125
0.0252833
0.0258833
0.02642
0.0269059
0.0273597
0.0278064
0.0282769
0.0288059
0.0294287
0.0301769
0.0310739
0.0321325
0.0333541
0.0347303
0.0362464
0.0378851
0.039631
0.0414779
0.000156244
0.000363127
0.000821815
0.00139712
0.00208439
0.00288228
0.00379184
0.00481565
0.00595585
0.00720854
0.00855304
0.00995221
0.0113685
0.0127738
0.0141506
0.0154886
0.0167814
0.0180247
0.0192145
0.0203468
0.0214174
0.0224221
0.0233567
0.0242179
0.025003
0.0257112
0.026344
0.0269063
0.0274073
0.0278619
0.0282915
0.0287235
0.0291912
0.0297307
0.0303775
0.0311616
0.0321034
0.0332122
0.0344857
0.0359126
0.0374762
0.0391585
0.0409458
0.000155623
0.000360313
0.000815297
0.00138569
0.00206667
0.00285693
0.00375732
0.00477035
0.00589849
0.00714005
0.00847954
0.00988388
0.0113154
0.0127439
0.0141488
0.015518
0.0168443
0.0181225
0.0193485
0.0205183
0.0216276
0.022672
0.023647
0.0245488
0.0253741
0.0261208
0.0267888
0.0273809
0.0279037
0.0283685
0.0287931
0.0292013
0.0296238
0.0300958
0.0306545
0.0313347
0.0321638
0.0331588
0.0343247
0.0356552
0.0371363
0.0387499
0.0404795
0.000154954
0.000357744
0.000809205
0.0013751
0.00205029
0.00283345
0.00372545
0.00472854
0.00584545
0.00707606
0.00840911
0.00981604
0.01126
0.012709
0.0141401
0.015539
0.0168972
0.018209
0.0194699
0.0206758
0.0218224
0.0229052
0.0239194
0.0248611
0.0257261
0.0265117
0.0272163
0.0278411
0.0283903
0.0288725
0.0293017
0.0296985
0.03009
0.0305096
0.0309945
0.0315821
0.0323054
0.0331888
0.0342448
0.0354736
0.0368654
0.0384042
0.0400735
0.000154216
0.000355359
0.000803572
0.00136524
0.00203507
0.00281168
0.00369585
0.0046897
0.00579614
0.00701612
0.00834173
0.00974899
0.0112028
0.0126698
0.0141251
0.015552
0.0169407
0.0182848
0.0195793
0.02082
0.0220026
0.0231224
0.0241749
0.0251554
0.0260596
0.0268838
0.0276258
0.0282851
0.0288642
0.0293689
0.0298104
0.0302057
0.0305787
0.0309597
0.0313847
0.0318922
0.0325191
0.0332959
0.0342423
0.0353661
0.0366631
0.0381204
0.0397211
0.000153431
0.000353131
0.000798311
0.00135602
0.00202083
0.00279134
0.00366821
0.00465344
0.00575012
0.00695981
0.00827733
0.00968302
0.0111442
0.0126269
0.0141041
0.0155575
0.0169754
0.0183504
0.0196773
0.0209516
0.022169
0.0233247
0.0244141
0.0254324
0.026375
0.0272376
0.0280171
0.028712
0.0293231
0.0298543
0.030314
0.030716
0.0310807
0.0314354
0.0318138
0.032254
0.0327952
0.0334724
0.0343125
0.0353303
0.0365285
0.0378996
0.039433
0.000152565
0.000351013
0.000793339
0.00134727
0.00200738
0.00277218
0.00364216
0.00461933
0.00570673
0.0069066
0.0082157
0.00961825
0.0110846
0.0125806
0.0140779
0.015556
0.0170016
0.0184064
0.0197647
0.0210714
0.0223223
0.0235129
0.0246381
0.0256932
0.0266731
0.0275734
0.0283904
0.0291215
0.0297662
0.0303266
0.0308087
0.0312237
0.0315888
0.0319277
0.0322716
0.032657
0.0331239
0.0337105
0.0344494
0.0353624
0.0364591
0.0377373
0.0391845
0.000151604
0.000348959
0.000788558
0.00133891
0.00199453
0.00275394
0.00361743
0.00458703
0.00566567
0.00685603
0.00815658
0.00955476
0.0110241
0.0125315
0.0140468
0.015548
0.01702
0.0184534
0.0198417
0.0211798
0.0224632
0.0236874
0.0248474
0.0259382
0.0269547
0.0278921
0.0287461
0.0295135
0.0301926
0.0307841
0.0312921
0.0317251
0.0320973
0.0324295
0.0327496
0.033092
0.033496
0.0340019
0.0346463
0.0354577
0.0364524
0.0376336
0.0389917
0.000150571
0.000346985
0.000783978
0.00133095
0.00198232
0.00273655
0.00359393
0.00455636
0.00562675
0.00680794
0.00809973
0.00949269
0.0109634
0.0124798
0.0140112
0.0155338
0.0170309
0.0184917
0.0199091
0.0212776
0.0225925
0.0238492
0.0250429
0.0261684
0.0272205
0.0281941
0.0290847
0.0298882
0.0306022
0.0312261
0.0317623
0.0322172
0.0326022
0.0329351
0.0332406
0.0335507
0.033903
0.0343384
0.0348967
0.0356113
0.0365051
0.0375876
0.0388543
0.000149468
0.000345082
0.000779582
0.00132333
0.00197062
0.00271986
0.00357141
0.0045271
0.00558965
0.00676213
0.00804525
0.00943203
0.0109024
0.0124261
0.0139718
0.0155141
0.0170349
0.0185219
0.0199672
0.0213651
0.0227105
0.0239988
0.0252251
0.0263843
0.027471
0.0284801
0.0294065
0.0302459
0.0309948
0.031652
0.0322182
0.032698
0.0331003
0.03344
0.033739
0.0340263
0.0343373
0.0347125
0.0351934
0.0358176
0.0366139
0.0375988
0.0387764
0.000148287
0.000343225
0.000775343
0.00131594
0.00195937
0.00270384
0.00354976
0.00449899
0.00555414
0.00671824
0.00799278
0.0093729
0.0108416
0.0123706
0.0139288
0.0154892
0.0170322
0.0185444
0.0200166
0.0214428
0.0228178
0.0241367
0.0253947
0.0265866
0.0277071
0.0287507
0.0297122
0.030587
0.0313709
0.0320617
0.0326591
0.0331658
0.0335889
0.0339407
0.0342399
0.0345127
0.034792
0.035117
0.0355298
0.0360709
0.0367742
0.0376625
0.0387457
0.000147007
0.0003414
0.00077126
0.00130886
0.00194849
0.00268847
0.00352903
0.00447203
0.00552001
0.00667605
0.00794218
0.00931517
0.0107811
0.0123139
0.0138827
0.0154595
0.0170235
0.0185595
0.0200578
0.0215113
0.022915
0.0242636
0.0255523
0.0267759
0.0279292
0.0290065
0.0300024
0.0309119
0.0317306
0.0324552
0.0330846
0.03362
0.0340666
0.0344344
0.0347395
0.035005
0.0352612
0.0355455
0.0358994
0.0363653
0.0369811
0.0377751
0.0387622
0.000145674
0.000339592
0.00076726
0.00130199
0.00193798
0.00267354
0.00350902
0.00444602
0.00548713
0.00663543
0.00789336
0.00925904
0.0107211
0.0122561
0.0138338
0.0154256
0.017009
0.0185678
0.020091
0.0215711
0.0230024
0.0243798
0.0256982
0.0269528
0.028138
0.0292482
0.0302777
0.0312214
0.0320743
0.0328327
0.0334945
0.0340597
0.034532
0.0349192
0.0352348
0.0354991
0.03574
0.0359921
0.0362961
0.036695
0.0372297
0.0379333
0.0388267
0.000144317
0.000337883
0.000763421
0.00129533
0.0019278
0.00265914
0.00348964
0.00442085
0.00545533
0.0065962
0.00784611
0.00920434
0.0106618
0.0121975
0.0137826
0.0153877
0.0169892
0.0185696
0.0201167
0.0216224
0.0230806
0.0244858
0.0258333
0.0271178