/*--------------------------------*- C++ -*----------------------------------*\
| =========                 |                                                 |
| \\      /  F ield         | OpenFOAM: The Open Source CFD Toolbox           |
|  \\    /   O peration     | Version:  2.3.0                                 |
|   \\  /    A nd           | Web:      www.OpenFOAM.org                      |
|    \\/     M anipulation  |                                                 |
\*---------------------------------------------------------------------------*/
FoamFile
{
    version     2.0;
    format      ascii;
    class       volScalarField;
    location    "4000";
    object      p;
}
// * * * * * * * * * * * * * * * * * * * * * * * * * * * * * * * * * * * * * //

dimensions      [0 2 -2 0 0 0 0];

internalField   nonuniform List<scalar> 
38977
(
0.00206283
-1.55406
-3.06575
-4.59894
-6.12648
-7.64922
-9.16837
-10.6854
-12.1998
-13.7128
-15.2259
-16.7364
-18.24
-19.7395
-21.2227
-22.6922
-24.1431
-25.5588
-26.9407
-28.2804
-29.5602
-30.7874
-31.9242
-32.9848
-33.9558
-34.8094
-35.5442
-36.1465
-36.5711
-36.8038
-36.786
-36.4922
-35.7621
-34.5361
-32.603
-29.7494
-25.7803
-20.3781
-12.4092
-0.552344
11.3274
16.5292
37.0427
5.3818
4.3507
3.32338
2.31536
1.34598
0.414646
-0.476513
-1.32533
-2.1314
-2.89258
-3.60866
-4.27481
-4.89118
-5.46034
-5.97236
-6.43492
-6.85056
-7.19698
-7.49959
-7.72955
-7.88494
-7.96597
-7.93468
-7.78859
-7.49994
-7.0075
-6.28179
-5.25058
-3.82527
-1.93186
0.551895
3.77762
7.89688
13.0824
19.5891
27.6782
37.6735
49.9087
64.8078
82.8542
104.321
129.934
159.923
10.2341
9.54471
8.83483
8.15885
7.51909
6.91636
6.35736
5.83846
5.3661
4.94097
4.56892
4.25921
4.01168
3.83573
3.73422
3.72162
3.80259
3.99279
4.29259
4.71934
5.287
6.01222
6.90909
7.99914
9.29713
10.8305
12.6459
14.76
17.2324
20.1127
23.4641
27.3696
31.9212
37.201
43.3392
50.4326
58.6195
67.9994
78.6555
90.6188
103.883
118.525
134.345
14.3092
14.0982
13.6698
13.2707
12.9107
12.5873
12.3135
12.0858
11.9125
11.7937
11.7361
11.7477
11.8294
11.9894
12.2288
12.5654
12.9956
13.533
14.1845
14.9684
15.9011
17.0013
18.2798
19.7654
21.4931
23.4777
25.7756
28.4064
31.4444
34.9243
38.9161
43.4848
48.6988
54.6396
61.3818
68.9884
77.5182
87.0047
97.431
108.727
120.747
133.223
145.794
18.3165
18.1866
17.9279
17.7187
17.5484
17.412
17.3265
17.2917
17.3049
17.3709
17.5046
17.7068
17.9832
18.3428
18.7881
19.3305
19.9774
20.7404
21.6201
22.6447
23.8152
25.1559
26.6815
28.402
30.3646
32.5664
35.0576
37.8563
41.0198
44.5744
48.566
53.0492
58.0755
63.7054
69.98
76.9333
84.6086
92.9894
102.051
111.733
121.88
132.32
142.779
21.8626
21.7601
21.6623
21.6129
21.5864
21.5842
21.6416
21.7506
21.904
22.1016
22.3651
22.7004
23.1109
23.6045
24.1815
24.8587
25.6427
26.5371
27.5474
28.7044
30.0019
31.4749
33.1364
34.9868
37.0773
39.4108
42.0214
44.9285
48.188
51.81
55.845
60.3248
65.2987
70.7988
76.8638
83.5061
90.7569
98.5548
106.893
115.692
124.81
134.107
143.374
24.8944
24.9089
24.9591
25.0532
25.1323
25.2145
25.3811
25.6217
25.8931
26.1915
26.536
26.9736
27.4859
28.0677
28.7423
29.5135
30.4033
31.3916
32.4994
33.7433
35.1323
36.6906
38.428
40.3537
42.5153
44.9139
47.5777
50.5138
53.7895
57.386
61.3774
65.7452
70.5682
75.8595
81.6741
87.9629
94.7824
102.02
109.711
117.778
126.132
134.565
143.021
27.6627
27.6191
27.7092
27.9548
28.1406
28.2436
28.4064
28.7417
29.146
29.5367
29.9082
30.3988
30.9834
31.622
32.3631
33.1568
34.1156
35.1782
36.3593
37.6525
39.0933
40.6766
42.4573
44.3852
46.547
48.9448
51.642
54.5468
57.8264
61.3715
65.3078
69.576
74.1977
79.2394
84.8714
90.8407
97.4383
104.289
111.489
118.972
126.811
134.647
142.579
29.9539
29.804
29.8429
30.176
30.576
30.5665
30.4294
30.7199
31.1102
31.4398
31.5973
31.9289
32.4903
33.1179
33.7819
34.3717
35.1934
36.1976
37.2774
38.3938
39.6594
40.9942
42.7141
44.5937
46.6575
48.8502
51.3834
54.0655
57.1813
60.6248
64.5431
68.8586
73.4186
78.0957
83.5806
89.3117
96.0078
102.943
110.081
117.273
125.18
132.891
140.831
128.019
173.889
198.384
214.218
226.099
235.139
241.856
246.8
250.39
252.913
254.602
255.629
256.149
256.226
255.978
255.444
254.691
253.755
252.667
251.455
250.147
248.761
247.315
245.821
244.292
242.743
241.176
239.602
238.024
236.442
234.865
233.29
231.722
230.158
228.601
227.05
225.507
223.969
222.439
220.922
219.425
217.899
216.044
187.661
206.813
221.011
231.902
240.242
246.463
250.957
254.059
256.054
257.173
257.608
257.517
257.015
256.21
255.175
253.973
252.648
251.24
249.775
248.274
246.752
245.222
243.689
242.157
240.629
239.106
237.588
236.078
234.575
233.079
231.593
230.115
228.647
227.189
225.742
224.306
222.883
221.472
220.071
218.686
217.319
215.905
214.144
150.254
165.063
178.24
189.609
199.246
207.282
213.903
219.292
223.621
227.049
229.731
231.778
233.303
234.394
235.123
235.551
235.731
235.701
235.496
235.142
234.663
234.078
233.404
232.65
231.835
230.964
230.047
229.092
228.104
227.087
226.048
224.989
223.915
222.827
221.729
220.621
219.506
218.386
217.259
216.132
215.005
213.807
212.243
157.986
169.364
179.707
188.87
196.844
203.658
209.4
214.167
218.077
221.235
223.749
225.707
227.199
228.298
229.064
229.551
229.809
229.868
229.764
229.525
229.169
228.717
228.185
227.582
226.922
226.213
225.462
224.677
223.862
223.022
222.16
221.282
220.388
219.483
218.568
217.645
216.713
215.775
214.83
213.882
212.932
211.919
210.617
153.009
162.75
171.823
180.069
187.428
193.88
199.462
204.228
208.254
211.614
214.393
216.658
218.481
219.93
221.05
221.894
222.502
222.905
223.135
223.216
223.165
223.004
222.749
222.41
222.003
221.534
221.015
220.451
219.85
219.214
218.55
217.862
217.154
216.429
215.69
214.938
214.175
213.401
212.619
211.834
211.043
210.231
209.483
152.412
161.051
169.152
176.601
183.32
189.285
194.517
199.044
202.924
206.214
208.979
211.273
213.158
214.697
215.92
216.886
217.624
218.167
218.528
218.742
218.827
218.801
218.676
218.47
218.194
217.859
217.471
217.04
216.569
216.064
215.529
214.971
214.392
213.797
213.189
212.569
211.936
211.29
210.634
209.97
209.29
208.614
208.095
151.226
159.102
166.517
173.405
179.655
185.273
190.247
194.587
198.358
201.595
204.351
206.661
208.587
210.205
211.523
212.6
213.47
214.122
214.591
214.92
215.116
215.198
215.181
215.088
214.921
214.698
214.42
214.101
213.741
213.341
212.906
212.446
211.969
211.489
210.995
210.491
209.959
209.406
208.846
208.283
207.698
207.125
206.798
150.247
157.602
164.514
171.018
176.923
182.278
187.041
191.196
194.877
198.076
200.814
203.087
204.997
206.704
208.135
209.292
210.242
210.928
211.465
211.866
212.107
212.236
212.281
212.257
212.159
212.021
211.838
211.603
211.311
210.966
210.596
210.218
209.852
209.511
209.11
208.676
208.186
207.701
207.232
206.78
206.293
205.818
205.691
148.448
155.654
162.468
168.932
174.726
179.95
184.531
188.52
192.164
195.344
198.044
200.18
201.972
203.833
205.176
206.224
207.225
207.958
208.402
208.711
209.163
209.323
209.377
209.396
209.369
209.366
209.315
209.116
208.84
208.552
208.321
208.124
207.933
207.672
207.263
206.795
206.41
206.132
205.855
205.578
205.162
204.747
204.678
96.282
96.3406
96.4242
96.4877
96.5366
96.5719
96.5935
96.6013
96.5957
96.5772
96.5465
96.5035
96.449
96.3835
96.3075
96.2222
96.1269
96.0238
95.9123
95.7937
95.6688
95.5375
95.4012
95.2598
95.1144
94.9654
94.8127
94.6573
94.4992
94.3388
94.1764
94.0124
93.8468
93.6797
93.5115
93.3421
93.1724
93.0034
92.8387
92.6874
92.5704
92.5593
92.9321
96.4243
96.3916
96.3236
96.2446
96.1587
96.0683
95.9749
95.8796
95.7831
95.686
95.5893
95.4935
95.399
95.3066
95.2158
95.1281
95.0419
94.9592
94.8787
94.8009
94.7259
94.6529
94.5822
94.5133
94.4462
94.3802
94.3156
94.252
94.1893
94.1273
94.066
94.0057
93.9463
93.8883
93.8325
93.7802
93.7337
93.6977
93.681
93.7103
93.8687
94.3362
95.1014
96.9162
96.7491
96.6654
96.5914
96.5203
96.4522
96.3864
96.3218
96.2577
96.1945
96.131
96.0672
96.0024
95.9371
95.8703
95.8026
95.7321
95.6605
95.5865
95.5111
95.434
95.3562
95.2775
95.1979
95.118
95.0375
94.957
94.8764
94.796
94.7162
94.6377
94.5607
94.4857
94.4138
94.3464
94.2865
94.2389
94.2117
94.2186
94.2987
94.563
95.219
96.2547
97.0418
97.0633
97.0169
96.9671
96.9154
96.8628
96.81
96.7558
96.6998
96.6431
96.5839
96.5232
96.4614
96.3982
96.3334
96.268
96.2
96.1303
96.0583
95.9851
95.9101
95.8337
95.7564
95.6783
95.5998
95.5204
95.4405
95.3604
95.2795
95.1984
95.1178
95.0381
94.9602
94.8857
94.8169
94.7583
94.7171
94.7045
94.7418
94.8824
95.2391
95.9719
97.0678
97.42
97.3259
97.2998
97.2659
97.2212
97.1732
97.1262
97.0782
97.0259
96.9745
96.9211
96.8643
96.8064
96.7481
96.6891
96.6299
96.5693
96.5066
96.4398
96.3701
96.2978
96.2245
96.1499
96.074
95.9972
95.9199
95.8416
95.7626
95.6819
95.6001
95.5189
95.4385
95.3603
95.2866
95.2209
95.1692
95.1404
95.1478
95.2194
95.4191
95.8567
96.6494
97.774
97.6996
97.5943
97.5644
97.5412
97.4995
97.4524
97.4122
97.3738
97.3231
97.2792
97.2352
97.1804
97.1252
97.0709
97.014
96.9582
96.9045
96.8509
96.79
96.7237
96.6538
96.5809
96.5069
96.4316
96.3541
96.2772
96.2007
96.1235
96.0437
95.9608
95.878
95.7968
95.7173
95.6433
95.579
95.5326
95.5151
95.5423
95.6481
95.9025
96.4122
97.2655
98.4238
97.7679
97.804
97.7894
97.7906
97.7558
97.7048
97.674
97.6589
97.6039
97.5672
97.5452
97.4938
97.4383
97.3932
97.3401
97.2872
97.2424
97.2093
97.1616
97.0991
97.0304
96.9561
96.8821
96.8116
96.7301
96.652
96.5764
96.5048
96.425
96.3373
96.247
96.1633
96.0801
96.0019
95.9327
95.8821
95.8626
95.8912
96.0021
96.2651
96.7901
97.6448
98.7961
98.1751
97.9863
97.984
98.0657
98.0299
97.9082
97.8293
97.8527
97.7693
97.6912
97.7017
97.6505
97.561
97.5037
97.4347
97.3563
97.2857
97.2801
97.268
97.2213
97.1578
97.0805
96.9965
96.9399
96.8535
96.7708
96.6936
96.6524
96.6045
96.5351
96.4449
96.3744
96.3016
96.2368
96.1801
96.1427
96.1436
96.2082
96.3683
96.6983
97.3349
98.2834
99.4667
98.3347
97.841
97.9291
98.5918
99.0398
98.9434
98.7644
99.065
99.0015
98.8194
98.9623
99.0182
98.9803
98.9945
98.9592
98.8744
98.6978
98.6267
98.6233
98.5975
98.5451
98.4711
98.3299
98.2734
98.1362
97.9894
97.7895
97.6671
97.5709
97.48
97.3092
97.1781
97.051
96.9168
96.783
96.6531
96.5399
96.4493
96.3679
96.3291
96.6388
97.4164
98.1904
95.1194
96.4247
97.7682
98.9027
99.933
100.861
101.698
102.455
103.14
103.764
104.336
104.864
105.354
105.815
106.251
106.669
107.073
107.468
107.858
108.247
108.639
109.036
109.439
109.849
110.266
110.69
111.119
111.555
111.994
112.437
112.883
113.331
113.779
114.228
114.677
115.126
115.573
116.019
116.463
116.905
117.347
117.788
118.181
96.4623
96.8979
97.5451
98.1663
98.8449
99.5357
100.228
100.913
101.585
102.242
102.885
103.512
104.126
104.726
105.314
105.89
106.455
107.009
107.552
108.084
108.605
109.115
109.614
110.102
110.58
111.047
111.505
111.953
112.393
112.825
113.25
113.669
114.082
114.49
114.893
115.293
115.689
116.082
116.473
116.861
117.25
117.636
117.967
97.5105
98.0428
98.6499
99.1861
99.7717
100.374
100.993
101.621
102.25
102.878
103.501
104.115
104.719
105.313
105.895
106.463
107.019
107.56
108.089
108.603
109.104
109.591
110.065
110.527
110.978
111.417
111.847
112.267
112.678
113.082
113.478
113.867
114.251
114.629
115.002
115.37
115.734
116.094
116.45
116.803
117.156
117.504
117.804
98.2787
98.9456
99.5918
100.168
100.778
101.389
102.006
102.621
103.23
103.831
104.422
105.001
105.566
106.117
106.653
107.174
107.68
108.172
108.65
109.115
109.569
110.01
110.442
110.863
111.275
111.679
112.076
112.465
112.847
113.224
113.594
113.96
114.32
114.675
115.026
115.373
115.716
116.054
116.389
116.721
117.05
117.381
117.694
98.964
99.6614
100.287
100.866
101.47
102.07
102.672
103.268
103.857
104.436
105.003
105.556
106.096
106.621
107.132
107.628
108.11
108.579
109.035
109.479
109.912
110.334
110.745
111.148
111.541
111.926
112.303
112.673
113.035
113.391
113.74
114.084
114.423
114.756
115.085
115.409
115.729
116.045
116.358
116.666
116.97
117.272
117.587
99.6332
100.357
100.96
101.52
102.097
102.672
103.248
103.821
104.387
104.944
105.491
106.025
106.547
107.054
107.548
108.028
108.495
108.949
109.39
109.819
110.236
110.643
111.039
111.426
111.803
112.172
112.532
112.884
113.227
113.564
113.895
114.221
114.54
114.853
115.16
115.464
115.763
116.057
116.347
116.633
116.915
117.194
117.496
100.048
100.857
101.503
102.098
102.678
103.245
103.805
104.356
104.902
105.44
105.967
106.483
106.986
107.475
107.952
108.415
108.867
109.304
109.727
110.138
110.539
110.93
111.311
111.682
112.042
112.394
112.739
113.074
113.4
113.72
114.035
114.346
114.648
114.941
115.231
115.518
115.798
116.074
116.344
116.612
116.873
117.133
117.423
100.858
101.747
102.36
102.848
103.324
103.811
104.324
104.842
105.36
105.877
106.387
106.886
107.372
107.846
108.308
108.758
109.197
109.621
110.029
110.426
110.814
111.193
111.564
111.919
112.265
112.605
112.941
113.257
113.563
113.866
114.169
114.472
114.753
115.024
115.297
115.572
115.831
116.092
116.341
116.594
116.834
117.078
117.368
99.933
101.582
102.31
103.017
103.594
104.186
104.745
105.236
105.75
106.276
106.77
107.25
107.722
108.183
108.626
109.064
109.501
109.907
110.283
110.662
111.04
111.41
111.772
112.106
112.438
112.769
113.1
113.368
113.663
113.976
114.281
114.585
114.824
115.078
115.362
115.64
115.87
116.127
116.354
116.605
116.824
117.055
117.319
-260.233
-244.49
-228.097
-214.995
-201.419
-186.825
-172.509
-158.975
-146.194
-134.233
-123.125
-112.917
-103.598
-95.1685
-87.5713
-80.7809
-74.6964
-69.268
-64.4157
-60.0819
-56.184
-52.6465
-49.4082
-46.4173
-43.6293
-41.01
-38.5273
-36.1587
-33.8763
-31.6642
-29.5144
-27.4078
-25.3367
-23.2985
-21.2843
-19.2909
-17.3149
-15.3508
-13.3977
-11.4528
-9.50591
-7.54999
-5.38007
-181.385
-180.721
-178.412
-175.684
-173.412
-171.171
-168.234
-164.442
-159.88
-154.698
-148.967
-142.773
-136.237
-129.462
-122.553
-115.659
-108.859
-102.256
-95.8998
-89.8628
-84.1512
-78.7767
-73.7323
-69.0111
-64.579
-60.4087
-56.4726
-52.7509
-49.2181
-45.8522
-42.6395
-39.5586
-36.5943
-33.7358
-30.9697
-28.2857
-25.6758
-23.1305
-20.6429
-18.2082
-15.8151
-13.4607
-10.9206
-189.694
-189.38
-189.294
-188.808
-187.473
-185.333
-182.687
-179.705
-176.252
-172.213
-167.59
-162.43
-156.803
-150.759
-144.389
-137.769
-131.016
-124.213
-117.441
-110.809
-104.36
-98.1504
-92.2107
-86.5571
-81.1833
-76.0896
-71.2602
-66.6781
-62.3223
-58.172
-54.2124
-50.4265
-46.7981
-43.3132
-39.9587
-36.7216
-33.5939
-30.5645
-27.6243
-24.7682
-21.9862
-19.2833
-16.4379
-179.733
-179.564
-179.206
-178.698
-178.035
-177.179
-176.081
-174.693
-173.058
-171.181
-168.948
-166.256
-163.052
-159.282
-154.974
-150.108
-144.78
-139.049
-132.998
-126.765
-120.426
-114.085
-107.835
-101.728
-95.8119
-90.1166
-84.6472
-79.4133
-74.4138
-69.6336
-65.0604
-60.683
-56.4874
-52.46
-48.5887
-44.8607
-41.2675
-37.7972
-34.4406
-31.191
-28.0392
-24.992
-21.7846
-178.916
-178.843
-178.759
-178.601
-178.337
-177.929
-177.326
-176.485
-175.369
-173.96
-172.266
-170.248
-167.866
-165.071
-161.851
-158.146
-153.976
-149.328
-144.241
-138.772
-133
-127.01
-120.902
-114.755
-108.654
-102.658
-96.8086
-91.1352
-85.6591
-80.3822
-75.3076
-70.4311
-65.7436
-61.236
-56.8993
-52.723
-48.6999
-44.8174
-41.0689
-37.4453
-33.9371
-30.5527
-26.9679
-175.83
-175.767
-175.655
-175.482
-175.242
-174.923
-174.507
-173.972
-173.297
-172.45
-171.399
-170.117
-168.567
-166.694
-164.468
-161.826
-158.758
-155.214
-151.21
-146.724
-141.82
-136.538
-130.955
-125.155
-119.23
-113.256
-107.311
-101.442
-95.7018
-90.1087
-84.6831
-79.4347
-74.3627
-69.4682
-64.7443
-60.1856
-55.787
-51.5398
-47.4383
-43.475
-39.6379
-35.9431
-32.0089
-174.123
-174.079
-174.015
-173.916
-173.771
-173.569
-173.295
-172.931
-172.459
-171.855
-171.095
-170.151
-168.996
-167.595
-165.913
-163.905
-161.54
-158.774
-155.594
-151.956
-147.881
-143.369
-138.459
-133.206
-127.69
-121.981
-116.169
-110.316
-104.498
-98.752
-93.1187
-87.6233
-82.2744
-77.0863
-72.0567
-67.1873
-62.4741
-57.9157
-53.5052
-49.2404
-45.1051
-41.1207
-36.843
-172.151
-172.117
-172.06
-171.972
-171.849
-171.685
-171.469
-171.192
-170.84
-170.398
-169.846
-169.162
-168.319
-167.292
-166.043
-164.539
-162.735
-160.594
-158.088
-155.171
-151.83
-148.053
-143.844
-139.227
-134.252
-128.973
-123.471
-117.811
-112.077
-106.328
-100.616
-94.9868
-89.4626
-84.068
-78.8109
-73.6997
-68.733
-63.9158
-59.2445
-54.7213
-50.3332
-46.1166
-41.6281
-170.418
-170.392
-170.349
-170.283
-170.192
-170.068
-169.905
-169.693
-169.424
-169.083
-168.656
-168.126
-167.472
-166.671
-165.696
-164.517
-163.096
-161.398
-159.389
-157.031
-154.286
-151.138
-147.566
-143.571
-139.173
-134.404
-129.323
-123.986
-118.47
-112.851
-107.179
-101.523
-95.9168
-90.3993
-84.9885
-79.7006
-74.5399
-69.5159
-64.6293
-59.8861
-55.2754
-50.8356
-46.1457
-168.654
-168.632
-168.596
-168.542
-168.466
-168.365
-168.232
-168.062
-167.846
-167.574
-167.236
-166.817
-166.3
-165.666
-164.891
-163.954
-162.821
-161.461
-159.836
-157.914
-155.652
-153.027
-150.007
-146.576
-142.734
-138.49
-133.879
-128.946
-123.744
-118.354
-112.831
-107.242
-101.644
-96.0795
-90.583
-85.1798
-79.8815
-74.7012
-69.6441
-64.7196
-59.9222
-55.2951
-50.5505
-166.92
-166.903
-166.874
-166.83
-166.769
-166.687
-166.58
-166.441
-166.266
-166.045
-165.77
-165.428
-165.007
-164.49
-163.859
-163.093
-162.166
-161.051
-159.714
-158.126
-156.245
-154.042
-151.482
-148.543
-145.201
-141.457
-137.318
-132.822
-127.992
-122.902
-117.61
-112.17
-106.66
-101.121
-95.6026
-90.1392
-84.7548
-79.4652
-74.2806
-69.2118
-64.2576
-59.4449
-54.6271
-165.167
-165.153
-165.128
-165.091
-165.041
-164.973
-164.884
-164.769
-164.624
-164.441
-164.213
-163.93
-163.581
-163.153
-162.629
-161.992
-161.222
-160.294
-159.179
-157.85
-156.27
-154.408
-152.227
-149.701
-146.798
-143.508
-139.821
-135.757
-131.324
-126.579
-121.569
-116.348
-110.988
-105.54
-100.061
-94.59
-89.1668
-83.8102
-78.5392
-73.3643
-68.2925
-63.3435
-58.6268
-163.392
-163.38
-163.361
-163.331
-163.289
-163.234
-163.16
-163.065
-162.943
-162.791
-162.6
-162.362
-162.068
-161.706
-161.265
-160.727
-160.076
-159.291
-158.346
-157.219
-155.875
-154.285
-152.416
-150.235
-147.709
-144.82
-141.546
-137.89
-133.855
-129.47
-124.775
-119.821
-114.663
-109.361
-103.974
-98.5469
-93.1282
-87.7443
-82.4222
-77.1745
-72.0103
-66.9233
-62.2859
-161.586
-161.578
-161.563
-161.539
-161.505
-161.459
-161.398
-161.319
-161.217
-161.088
-160.926
-160.725
-160.474
-160.166
-159.789
-159.329
-158.772
-158.099
-157.291
-156.322
-155.168
-153.798
-152.181
-150.287
-148.082
-145.538
-142.632
-139.35
-135.694
-131.668
-127.305
-122.641
-117.725
-112.613
-107.363
-102.025
-96.653
-91.2804
-85.9422
-80.6565
-75.4444
-70.2802
-65.6907
-159.756
-159.749
-159.737
-159.718
-159.69
-159.652
-159.601
-159.534
-159.449
-159.339
-159.201
-159.029
-158.814
-158.548
-158.222
-157.825
-157.342
-156.759
-156.059
-155.218
-154.215
-153.024
-151.615
-149.957
-148.021
-145.774
-143.193
-140.25
-136.944
-133.264
-129.231
-124.871
-120.22
-115.33
-110.253
-105.043
-99.7551
-94.4301
-89.1075
-83.8127
-78.5768
-73.3502
-68.574
-157.892
-157.886
-157.876
-157.861
-157.839
-157.807
-157.765
-157.709
-157.637
-157.545
-157.427
-157.279
-157.093
-156.863
-156.58
-156.233
-155.811
-155.301
-154.688
-153.951
-153.073
-152.027
-150.789
-149.329
-147.619
-145.626
-143.325
-140.685
-137.696
-134.341
-130.627
-126.571
-122.194
-117.549
-112.673
-107.623
-102.451
-97.206
-91.9299
-86.6567
-81.423
-76.1953
-71.4263
-155.993
-155.989
-155.982
-155.97
-155.952
-155.927
-155.892
-155.846
-155.785
-155.707
-155.606
-155.479
-155.317
-155.117
-154.869
-154.564
-154.193
-153.744
-153.203
-152.553
-151.777
-150.852
-149.756
-148.461
-146.942
-145.166
-143.107
-140.733
-138.029
-134.972
-131.559
-127.799
-123.702
-119.309
-114.653
-109.788
-104.759
-99.6219
-94.4187
-89.1886
-83.9733
-78.7432
-73.9726
-154.063
-154.059
-154.055
-154.046
-154.032
-154.012
-153.984
-153.946
-153.895
-153.828
-153.742
-153.632
-153.492
-153.317
-153.099
-152.83
-152.502
-152.103
-151.623
-151.045
-150.353
-149.53
-148.552
-147.397
-146.039
-144.448
-142.599
-140.46
-138.008
-135.223
-132.089
-128.61
-124.788
-120.651
-116.228
-111.563
-106.699
-101.693
-96.5853
-91.4195
-86.2395
-81.013
-76.2584
-152.099
-152.096
-152.094
-152.088
-152.078
-152.063
-152.041
-152.009
-151.967
-151.911
-151.838
-151.744
-151.622
-151.468
-151.276
-151.038
-150.746
-150.391
-149.961
-149.444
-148.825
-148.087
-147.21
-146.173
-144.953
-143.521
-141.853
-139.919
-137.691
-135.15
-132.275
-129.058
-125.501
-121.616
-117.429
-112.975
-108.294
-103.437
-98.447
-93.3684
-88.2485
-83.0568
-78.3396
-150.105
-150.103
-150.102
-150.099
-150.092
-150.082
-150.065
-150.04
-150.005
-149.958
-149.896
-149.815
-149.71
-149.575
-149.405
-149.194
-148.933
-148.615
-148.229
-147.764
-147.207
-146.542
-145.752
-144.816
-143.713
-142.418
-140.906
-139.151
-137.121
-134.798
-132.159
-129.186
-125.88
-122.241
-118.29
-114.053
-109.566
-104.872
-100.018
-95.0474
-90.0081
-84.8783
-80.1808
-148.085
-148.083
-148.083
-148.082
-148.078
-148.071
-148.058
-148.038
-148.01
-147.971
-147.919
-147.85
-147.759
-147.641
-147.491
-147.303
-147.07
-146.784
-146.436
-146.016
-145.512
-144.91
-144.193
-143.346
-142.345
-141.169
-139.793
-138.194
-136.341
-134.213
-131.786
-129.04
-125.967
-122.564
-118.843
-114.823
-110.537
-106.018
-101.315
-96.4682
-91.5259
-86.4791
-81.69
-146.036
-146.034
-146.035
-146.035
-146.034
-146.03
-146.021
-146.007
-145.985
-145.953
-145.91
-145.851
-145.773
-145.67
-145.538
-145.37
-145.161
-144.903
-144.589
-144.209
-143.751
-143.204
-142.553
-141.78
-140.867
-139.795
-138.539
-137.077
-135.381
-133.425
-131.189
-128.65
-125.794
-122.615
-119.118
-115.312
-111.228
-106.892
-102.349
-97.6387
-92.8055
-87.8556
-82.703
-143.95
-143.951
-143.955
-143.959
-143.961
-143.961
-143.957
-143.947
-143.931
-143.906
-143.871
-143.822
-143.755
-143.665
-143.549
-143.399
-143.212
-142.98
-142.695
-142.349
-141.932
-141.433
-140.838
-140.133
-139.298
-138.317
-137.166
-135.823
-134.265
-132.466
-130.402
-128.052
-125.397
-122.428
-119.142
-115.546
-111.663
-107.514
-103.139
-98.5782
-93.8743
-89.0916
-83.7258
-141.854
-141.854
-141.859
-141.864
-141.869
-141.871
-141.87
-141.864
-141.853
-141.834
-141.805
-141.765
-141.708
-141.63
-141.528
-141.395
-141.227
-141.017
-140.759
-140.444
-140.063
-139.606
-139.061
-138.413
-137.647
-136.745
-135.688
-134.452
-133.017
-131.357
-129.448
-127.269
-124.799
-122.025
-118.942
-115.549
-111.862
-107.9
-103.698
-99.2913
-94.7218
-90.1045
-84.8562
-139.733
-139.733
-139.74
-139.746
-139.753
-139.757
-139.759
-139.758
-139.751
-139.737
-139.715
-139.682
-139.634
-139.567
-139.478
-139.36
-139.209
-139.02
-138.785
-138.497
-138.149
-137.73
-137.23
-136.634
-135.929
-135.097
-134.122
-132.982
-131.656
-130.12
-128.352
-126.329
-124.029
-121.437
-118.543
-115.343
-111.847
-108.068
-104.038
-99.7855
-95.3422
-90.8288
-85.6919
-137.593
-137.593
-137.6
-137.609
-137.617
-137.624
-137.629
-137.63
-137.628
-137.619
-137.603
-137.576
-137.537
-137.48
-137.402
-137.298
-137.163
-136.992
-136.778
-136.516
-136.196
-135.811
-135.349
-134.8
-134.149
-133.381
-132.48
-131.424
-130.196
-128.772
-127.131
-125.249
-123.103
-120.679
-117.962
-114.946
-111.633
-108.037
-104.176
-100.081
-95.7752
-91.3722
-86.3638
-135.435
-135.435
-135.444
-135.454
-135.463
-135.473
-135.48
-135.485
-135.486
-135.482
-135.47
-135.45
-135.418
-135.371
-135.303
-135.211
-135.09
-134.936
-134.742
-134.502
-134.209
-133.854
-133.428
-132.921
-132.318
-131.607
-130.771
-129.792
-128.653
-127.33
-125.801
-124.047
-122.045
-119.776
-117.225
-114.383
-111.245
-107.824
-104.132
-100.197
-96.0366
-91.7608
-86.8777
-133.262
-133.263
-133.272
-133.283
-133.294
-133.305
-133.315
-133.323
-133.327
-133.327
-133.321
-133.306
-133.281
-133.241
-133.184
-133.103
-132.996
-132.857
-132.68
-132.461
-132.191
-131.864
-131.47
-131
-130.441
-129.781
-129.005
-128.096
-127.034
-125.802
-124.378
-122.741
-120.87
-118.743
-116.346
-113.666
-110.697
-107.446
-103.92
-100.143
-96.1301
-91.9813
-87.2573
-131.074
-131.076
-131.086
-131.098
-131.111
-131.124
-131.136
-131.146
-131.154
-131.157
-131.155
-131.146
-131.127
-131.095
-131.046
-130.977
-130.881
-130.756
-130.595
-130.395
-130.147
-129.845
-129.48
-129.044
-128.525
-127.911
-127.188
-126.341
-125.351
-124.203
-122.874
-121.342
-119.59
-117.595
-115.341
-112.815
-110.006
-106.918
-103.554
-99.9338
-96.0687
-92.0507
-87.4412
-128.875
-128.878
-128.888
-128.902
-128.916
-128.931
-128.945
-128.957
-128.968
-128.974
-128.976
-128.972
-128.959
-128.934
-128.893
-128.833
-128.749
-128.637
-128.491
-128.308
-128.079
-127.8
-127.463
-127.058
-126.575
-126.003
-125.329
-124.538
-123.614
-122.54
-121.295
-119.862
-118.22
-116.347
-114.226
-111.843
-109.187
-106.253
-103.047
-99.5825
-95.8667
-91.9886
-87.4533
-126.669
-126.671
-126.683
-126.697
-126.712
-126.728
-126.744
-126.759
-126.771
-126.781
-126.787
-126.787
-126.779
-126.76
-126.727
-126.676
-126.602
-126.502
-126.37
-126.202
-125.992
-125.735
-125.422
-125.044
-124.594
-124.061
-123.431
-122.693
-121.828
-120.822
-119.657
-118.312
-116.77
-115.009
-113.012
-110.762
-108.249
-105.466
-102.412
-99.1006
-95.537
-91.8151
-87.3549
-124.455
-124.457
-124.468
-124.483
-124.499
-124.517
-124.534
-124.551
-124.566
-124.579
-124.588
-124.592
-124.589
-124.576
-124.55
-124.507
-124.443
-124.353
-124.234
-124.081
-123.889
-123.65
-123.36
-123.009
-122.59
-122.091
-121.501
-120.809
-119.999
-119.056
-117.962
-116.7
-115.25
-113.592
-111.711
-109.586
-107.208
-104.565
-101.659
-98.4971
-95.0844
-91.5253
-87.1416
-122.225
-122.228
-122.242
-122.259
-122.277
-122.296
-122.316
-122.335
-122.353
-122.368
-122.381
-122.389
-122.39
-122.383
-122.363
-122.328
-122.273
-122.194
-122.087
-121.947
-121.77
-121.55
-121.28
-120.953
-120.562
-120.095
-119.544
-118.894
-118.135
-117.249
-116.221
-115.034
-113.669
-112.108
-110.332
-108.324
-106.072
-103.564
-100.798
-97.7774
-94.5082
-91.0932
-86.8793
-120.002
-120.005
-120.019
-120.036
-120.055
-120.075
-120.096
-120.117
-120.137
-120.155
-120.17
-120.181
-120.186
-120.184
-120.17
-120.142
-120.095
-120.025
-119.929
-119.803
-119.64
-119.436
-119.186
-118.881
-118.516
-118.079
-117.561
-116.952
-116.238
-115.405
-114.438
-113.32
-112.034
-110.561
-108.884
-106.986
-104.852
-102.47
-99.8352
-96.9491
-93.8143
-90.5343
-86.4622
-117.774
-117.776
-117.791
-117.808
-117.828
-117.849
-117.872
-117.894
-117.916
-117.937
-117.955
-117.969
-117.978
-117.98
-117.972
-117.95
-117.911
-117.85
-117.764
-117.649
-117.501
-117.312
-117.08
-116.796
-116.454
-116.045
-115.559
-114.986
-114.315
-113.53
-112.619
-111.566
-110.352
-108.962
-107.377
-105.58
-103.555
-101.292
-98.7802
-96.0198
-93.0027
-89.8128
-85.9246
-115.544
-115.547
-115.562
-115.581
-115.601
-115.624
-115.647
-115.671
-115.694
-115.717
-115.737
-115.754
-115.767
-115.773
-115.77
-115.754
-115.722
-115.67
-115.594
-115.49
-115.354
-115.18
-114.964
-114.7
-114.379
-113.996
-113.539
-113
-112.368
-111.629
-110.77
-109.775
-108.629
-107.315
-105.814
-104.112
-102.192
-100.041
-97.6475
-95.0098
-92.115
-89.0265
-85.2942
-113.316
-113.319
-113.334
-113.353
-113.374
-113.398
-113.422
-113.447
-113.472
-113.497
-113.519
-113.539
-113.555
-113.565
-113.566
-113.556
-113.53
-113.486
-113.42
-113.326
-113.201
-113.041
-112.841
-112.594
-112.295
-111.935
-111.506
-110.998
-110.403
-109.706
-108.894
-107.955
-106.872
-105.628
-104.208
-102.595
-100.771
-98.7268
-96.4487
-93.9355
-91.1797
-88.2514
-84.7091
-111.089
-111.092
-111.107
-111.127
-111.149
-111.173
-111.199
-111.225
-111.251
-111.277
-111.302
-111.324
-111.343
-111.357
-111.363
-111.358
-111.339
-111.302
-111.243
-111.159
-111.046
-110.898
-110.712
-110.482
-110.202
-109.865
-109.462
-108.984
-108.421
-107.763
-106.997
-106.108
-105.082
-103.905
-102.558
-101.028
-99.2972
-97.3527
-95.1806
-92.777
-90.1334
-87.3101
-83.5318
-108.864
-108.868
-108.884
-108.904
-108.926
-108.951
-108.978
-109.005
-109.033
-109.061
-109.088
-109.112
-109.134
-109.151
-109.16
-109.16
-109.147
-109.117
-109.066
-108.991
-108.888
-108.753
-108.581
-108.367
-108.104
-107.787
-107.407
-106.957
-106.426
-105.805
-105.079
-104.238
-103.268
-102.151
-100.875
-99.4221
-97.7774
-95.9273
-93.8606
-91.5732
-89.0595
-86.3853
-83.2577
-106.646
-106.649
-106.666
-106.686
-106.709
-106.735
-106.762
-106.79
-106.819
-106.848
-106.877
-106.904
-106.928
-106.947
-106.961
-106.965
-106.958
-106.934
-106.891
-106.824
-106.731
-106.607
-106.447
-106.248
-106.002
-105.705
-105.348
-104.923
-104.421
-103.834
-103.148
-102.351
-101.431
-100.371
-99.1595
-97.7793
-96.2154
-94.4538
-92.4831
-90.2949
-87.8962
-85.338
-82.1259
-104.433
-104.436
-104.453
-104.473
-104.497
-104.523
-104.551
-104.58
-104.61
-104.641
-104.671
-104.7
-104.726
-104.749
-104.766
-104.774
-104.772
-104.754
-104.717
-104.659
-104.575
-104.462
-104.315
-104.129
-103.9
-103.62
-103.283
-102.883
-102.409
-101.852
-101.202
-100.447
-99.5736
-98.5685
-97.4173
-96.1044
-94.6163
-92.9373
-91.0571
-88.9651
-86.6557
-84.1595
-81.9088
-102.223
-102.227
-102.244
-102.265
-102.29
-102.317
-102.346
-102.376
-102.408
-102.44
-102.471
-102.502
-102.53
-102.556
-102.576
-102.588
-102.591
-102.579
-102.549
-102.498
-102.423
-102.319
-102.183
-102.011
-101.796
-101.533
-101.217
-100.838
-100.39
-99.8631
-99.2473
-98.531
-97.7016
-96.7465
-95.6521
-94.4028
-92.9846
-91.382
-89.5833
-87.5736
-85.3434
-82.8674
-80.4393
-100.023
-100.027
-100.044
-100.067
-100.092
-100.119
-100.149
-100.18
-100.213
-100.246
-100.279
-100.311
-100.342
-100.37
-100.393
-100.409
-100.415
-100.408
-100.385
-100.341
-100.275
-100.18
-100.055
-99.8948
-99.6942
-99.4477
-99.149
-98.792
-98.3684
-97.8694
-97.2854
-96.6053
-95.8181
-94.9104
-93.8687
-92.6789
-91.327
-89.7973
-88.0764
-86.1473
-84.0004
-81.5866
-79.2133
-97.8348
-97.8383
-97.8562
-97.8784
-97.9038
-97.9315
-97.9618
-97.9941
-98.0278
-98.0619
-98.0958
-98.1294
-98.1618
-98.1919
-98.2179
-98.2373
-98.2476
-98.2457
-98.2281
-98.1912
-98.132
-98.0467
-97.9318
-97.7828
-97.5952
-97.3639
-97.083
-96.7457
-96.3448
-95.8717
-95.3175
-94.6719
-93.9234
-93.0599
-92.0687
-90.9357
-89.6472
-88.1881
-86.5449
-84.7023
-82.6512
-80.3473
-78.1464
-95.6561
-95.6596
-95.6774
-95.6997