/*--------------------------------*- C++ -*----------------------------------*\
| =========                 |                                                 |
| \\      /  F ield         | OpenFOAM: The Open Source CFD Toolbox           |
|  \\    /   O peration     | Version:  2.3.0                                 |
|   \\  /    A nd           | Web:      www.OpenFOAM.org                      |
|    \\/     M anipulation  |                                                 |
\*---------------------------------------------------------------------------*/
FoamFile
{
    version     2.0;
    format      ascii;
    class       volVectorField;
    location    "4000";
    object      U;
}
// * * * * * * * * * * * * * * * * * * * * * * * * * * * * * * * * * * * * * //

dimensions      [0 1 -1 0 0 0 0];

internalField   nonuniform List<vector> 
38977
(
(24.1831 7.12387 -1.65153e-21)
(24.1735 7.33265 -1.59958e-21)
(24.1594 7.5443 3.25025e-22)
(24.1414 7.75927 3.0791e-20)
(24.1193 7.97816 -1.17213e-20)
(24.0931 8.20101 -3.52667e-20)
(24.0625 8.42799 3.33511e-20)
(24.0274 8.65921 7.407e-21)
(23.9876 8.89489 3.36316e-21)
(23.9429 9.13515 0)
(23.8932 9.38027 -6.63462e-20)
(23.838 9.63051 6.17835e-20)
(23.777 9.88619 -1.41284e-19)
(23.71 10.1478 3.05251e-19)
(23.6365 10.4157 -1.5888e-19)
(23.5564 10.6905 7.20063e-21)
(23.4693 10.973 7.72689e-21)
(23.3748 11.2637 3.94729e-21)
(23.2725 11.5636 0)
(23.1622 11.8735 -2.35521e-19)
(23.0432 12.1941 2.39516e-19)
(22.9149 12.5264 -2.59695e-19)
(22.7765 12.871 2.6368e-19)
(22.6266 13.2282 -5.47494e-21)
(22.4637 13.5983 0)
(22.2854 13.9807 -3.27505e-19)
(22.0881 14.3748 3.29003e-19)
(21.8675 14.779 -3.10904e-21)
(21.6181 15.191 1.00314e-20)
(21.333 15.6077 1.41487e-20)
(21.0032 16.0254 0)
(20.6184 16.439 1.91659e-19)
(20.1645 16.8442 -2.10351e-19)
(19.6254 17.2344 -1.97044e-19)
(18.9811 17.6044 2.03477e-19)
(18.2071 17.948 -1.84545e-19)
(17.2755 18.2594 3.52779e-19)
(16.1534 18.531 -3.70399e-20)
(14.7977 18.7421 -1.16935e-19)
(13.1606 18.8628 2.27723e-20)
(11.2196 18.9237 -8.74006e-21)
(8.98871 19.0552 -1.31413e-19)
(6.45793 18.9532 1.48711e-19)
(23.9717 7.12609 -6.91066e-21)
(23.9541 7.31287 1.96517e-20)
(23.9316 7.50246 -2.43522e-21)
(23.9054 7.69487 -9.52147e-21)
(23.8753 7.89037 0)
(23.8412 8.08903 1.71167e-21)
(23.803 8.29093 0)
(23.7603 8.49616 0)
(23.7132 8.70485 -2.4952e-21)
(23.6613 8.91711 1.27662e-20)
(23.6044 9.13303 -2.39854e-20)
(23.5422 9.35274 1.53188e-20)
(23.4742 9.57634 -5.42547e-21)
(23.3999 9.80404 0)
(23.319 10.036 -2.40468e-20)
(23.2306 10.2723 5.02293e-20)
(23.1345 10.5134 -2.62841e-20)
(23.0296 10.7595 2.50352e-20)
(22.9153 11.0108 1.05711e-21)
(22.7907 11.2679 -6.21361e-20)
(22.6546 11.531 6.43172e-20)
(22.5061 11.8009 -3.80211e-20)
(22.3438 12.078 -5.13955e-21)
(22.1661 12.3629 5.36954e-21)
(21.9716 12.6564 -3.21117e-20)
(21.7582 12.9588 6.30988e-20)
(21.5233 13.2705 -3.09976e-20)
(21.2644 13.5917 3.02092e-21)
(20.9782 13.9222 0)
(20.6612 14.2611 1.96524e-21)
(20.3093 14.6071 -3.56134e-21)
(19.9178 14.9571 0)
(19.4817 15.3073 6.08896e-20)
(18.9956 15.6516 3.43654e-20)
(18.4545 15.9817 -9.849e-20)
(17.8533 16.2857 -7.75424e-21)
(17.1881 16.5475 1.37322e-21)
(16.4567 16.747 0)
(15.6597 16.8582 -1.26584e-20)
(14.804 16.8472 0)
(13.9077 16.6757 0)
(12.9849 16.3 -2.88224e-20)
(12.0272 15.6735 0)
(23.7886 7.11463 0)
(23.7615 7.28335 0)
(23.7315 7.45349 1.77134e-20)
(23.6984 7.62608 -1.47982e-20)
(23.6615 7.80118 -5.33169e-21)
(23.6207 7.9789 5.05134e-21)
(23.5758 8.15923 0)
(23.5265 8.34226 0)
(23.4726 8.52815 -9.06037e-22)
(23.4141 8.71696 1.8713e-20)
(23.3506 8.90879 -3.55171e-20)
(23.2818 9.1037 1.71838e-20)
(23.2073 9.30183 -3.94394e-21)
(23.1268 9.5033 0)
(23.0399 9.70824 -1.44695e-20)
(22.9461 9.91674 -4.03287e-22)
(22.8448 10.1289 1.88438e-21)
(22.7353 10.3449 1.53649e-20)
(22.6171 10.5647 1.79328e-20)
(22.4893 10.7885 2.00389e-21)
(22.351 11.0162 -2.31911e-20)
(22.2009 11.248 1.71934e-22)
(22.0381 11.4838 -3.38886e-21)
(21.861 11.7234 -3.80533e-21)
(21.6682 11.9668 4.43343e-20)
(21.4578 12.2137 7.55378e-21)
(21.2275 12.4633 -5.43439e-20)
(20.9751 12.715 0)
(20.6977 12.9676 0)
(20.3924 13.2196 -1.11439e-19)
(20.0559 13.4688 1.1341e-19)
(19.6846 13.7121 1.59344e-19)
(19.2747 13.9456 -1.68149e-19)
(18.8228 14.1646 0)
(18.3256 14.3627 -1.38941e-19)
(17.7807 14.5319 1.62408e-19)
(17.1872 14.6631 0)
(16.546 14.7447 -1.57768e-20)
(15.862 14.7648 -2.48644e-19)
(15.1447 14.7104 2.8847e-19)
(14.4105 14.5684 -1.93041e-19)
(13.6832 14.3265 2.22924e-19)
(12.9968 13.9735 -2.52813e-19)
(23.6275 7.09605 -1.57955e-20)
(23.5927 7.24803 -1.46647e-20)
(23.558 7.40094 -1.37268e-20)
(23.5208 7.55602 1.99704e-20)
(23.4802 7.71335 -2.58438e-21)
(23.4361 7.87296 -5.08589e-21)
(23.3882 8.03476 7.60189e-21)
(23.3361 8.19881 -2.41593e-20)
(23.2796 8.36524 2.39511e-20)
(23.2187 8.53418 4.66119e-20)
(23.1532 8.70564 -9.982e-20)
(23.0826 8.87965 4.60186e-20)
(23.0066 9.0563 -4.62514e-20)
(22.9249 9.23568 4.64908e-20)
(22.8369 9.41789 5.22665e-20)
(22.7421 9.60297 -4.85854e-20)
(22.6401 9.79098 -2.12322e-21)
(22.5302 9.98201 5.92847e-20)
(22.4119 10.1761 -1.13889e-19)
(22.2844 10.3731 1.16785e-19)
(22.1467 10.5731 -5.54714e-20)
(21.9979 10.7758 7.36119e-20)
(21.8369 10.9814 -6.54961e-20)
(21.6628 11.1895 -2.74269e-21)
(21.4742 11.3996 9.95191e-20)
(21.2697 11.6115 -1.01844e-19)
(21.0477 11.8243 1.25813e-19)
(20.8065 12.0371 -1.19254e-19)
(20.5444 12.2486 -1.11569e-20)
(20.2591 12.4569 -1.98916e-19)
(19.9488 12.6598 1.91947e-19)
(19.6113 12.8546 0)
(19.2445 13.0375 -1.42814e-19)
(18.8468 13.2039 -1.80791e-20)
(18.4171 13.3485 1.70529e-19)
(17.955 13.4647 -2.4708e-19)
(17.4617 13.545 2.44151e-19)
(16.94 13.5809 -2.45994e-21)
(16.3951 13.5635 -1.81168e-20)
(15.835 13.4842 0)
(15.2713 13.3359 0)
(14.7187 13.1142 2.41529e-19)
(14.1956 12.8202 -2.44107e-19)
(23.4752 7.06768 8.32772e-21)
(23.4417 7.20775 1.92216e-20)
(23.4057 7.34625 -2.96733e-20)
(23.3666 7.48622 8.21636e-21)
(23.3239 7.62804 8.00879e-21)
(23.2778 7.77204 1.01291e-20)
(23.2284 7.918 -5.30877e-20)
(23.1751 8.0658 3.50858e-20)
(23.1174 8.21565 0)
(23.0555 8.36781 0)
(22.9892 8.52224 7.32638e-21)
(22.9182 8.67886 0)
(22.842 8.83778 3.70968e-21)
(22.7603 8.99908 -7.31017e-20)
(22.6728 9.16281 6.93312e-20)
(22.5789 9.32897 0)
(22.478 9.49761 8.09844e-20)
(22.3698 9.66878 -9.1884e-20)
(22.2537 9.84247 -6.25152e-21)
(22.1289 10.0185 4.85764e-21)
(21.9947 10.1967 -5.1986e-21)
(21.8501 10.3768 0)
(21.694 10.5588 -1.4141e-20)
(21.5257 10.7423 7.09333e-20)
(21.3438 10.9268 1.4119e-20)
(21.1471 11.1117 -7.19743e-20)
(20.9344 11.2963 -9.67809e-20)
(20.7042 11.4796 -1.71852e-20)
(20.4548 11.6601 1.08721e-19)
(20.1848 11.8361 1.2687e-20)
(19.8929 12.0057 0)
(19.5773 12.166 -1.68876e-19)
(19.2369 12.3139 1.54246e-19)
(18.8706 12.4454 0)
(18.4778 12.5557 2.70798e-20)
(18.0593 12.6401 4.4291e-20)
(17.6167 12.6927 -5.00147e-20)
(17.1535 12.7071 1.80089e-20)
(16.675 12.6774 1.75073e-19)
(16.1885 12.5974 -1.78821e-19)
(15.7034 12.4632 1.90188e-19)
(15.2311 12.273 -2.19519e-19)
(14.7845 12.0287 -9.7845e-20)
(23.3426 7.04136 -7.67431e-22)
(23.3084 7.16721 3.58372e-20)
(23.2724 7.29247 -1.25389e-20)
(23.2329 7.41875 -3.52584e-20)
(23.1892 7.54688 -1.03245e-20)
(23.1423 7.6774 3.46716e-20)
(23.0926 7.8099 -2.06427e-21)
(23.0396 7.94392 6.06911e-21)
(22.9822 8.07965 -4.45416e-20)
(22.9205 8.21755 5.03218e-20)
(22.8547 8.35774 0)
(22.7846 8.49988 6.21031e-21)
(22.7095 8.64398 -5.27348e-20)
(22.6291 8.79029 8.74599e-20)
(22.5432 8.93885 -4.75708e-20)
(22.4513 9.08954 -5.04636e-20)
(22.3527 9.24228 4.36893e-20)
(22.2467 9.39728 1.33874e-20)
(22.1333 9.55462 6.32391e-21)
(22.0119 9.71405 -8.11394e-21)
(21.8818 9.87524 0)
(21.7421 10.0379 0)
(21.5915 10.2017 8.15756e-21)
(21.4293 10.3665 0)
(21.2547 10.5319 -9.57192e-21)
(21.0664 10.6969 8.19541e-20)
(20.8634 10.8609 -1.87992e-19)
(20.6444 11.023 1.2014e-19)
(20.4083 11.1818 1.08788e-19)
(20.1537 11.3355 -1.10644e-19)
(19.8797 11.4824 1.93483e-20)
(19.5853 11.6201 1.92662e-20)
(19.2699 11.7453 -1.89982e-19)
(18.9326 11.8545 1.95477e-19)
(18.5734 11.9436 -2.71691e-20)
(18.1925 12.0085 -3.05091e-20)
(17.792 12.0445 3.42333e-20)
(17.3751 12.0471 2.04418e-19)
(16.9473 12.0118 -1.681e-19)
(16.5148 11.9337 -2.49584e-19)
(16.085 11.8101 2.83871e-19)
(15.6663 11.6405 -5.78726e-20)
(15.2684 11.4262 -3.11509e-20)
(23.2244 7.01566 -1.57592e-21)
(23.191 7.12677 -2.68422e-20)
(23.1553 7.24047 -2.68169e-20)
(23.1164 7.35453 3.90802e-20)
(23.0727 7.47061 -1.94213e-20)
(23.0251 7.58946 3.34459e-20)
(22.9755 7.71055 -6.98551e-21)
(22.9236 7.83303 4.67726e-20)
(22.8675 7.95695 -1.05527e-19)
(22.8066 8.08261 -6.78781e-21)
(22.7415 8.21092 5.30926e-20)
(22.6729 8.3412 -1.34787e-20)
(22.5996 8.47294 -4.92988e-20)
(22.5208 8.60665 1.19133e-19)
(22.4368 8.74274 -5.70802e-20)
(22.3473 8.88098 -7.92663e-21)
(22.2517 9.02082 7.14206e-21)
(22.1485 9.16245 5.79664e-20)
(22.0377 9.30635 -7.50015e-20)
(21.9194 9.45241 -6.38984e-20)
(21.7933 9.60023 7.31127e-20)
(21.6583 9.74916 0)
(21.5133 9.89859 0)
(21.3567 10.0486 0)
(21.1884 10.199 -1.27345e-20)
(21.0075 10.3489 -1.38182e-21)
(20.8128 10.4973 -1.48451e-20)
(20.6031 10.6435 1.29178e-19)
(20.3778 10.7859 -1.14958e-19)
(20.1354 10.9233 -1.76367e-20)
(19.8752 11.0537 -4.04499e-20)
(19.5965 11.1751 1.85556e-19)
(19.2993 11.2852 -1.90762e-19)
(18.9838 11.38 0)
(18.6498 11.4555 1.25301e-19)
(18.2963 11.5081 -2.39757e-20)
(17.926 11.5337 -1.42111e-19)
(17.5409 11.5296 -3.99482e-20)
(17.1476 11.4927 0)
(16.7516 11.4186 4.84577e-20)
(16.3597 11.3043 -1.06302e-19)
(15.9772 11.1503 5.74418e-20)
(15.6129 10.9574 -1.27125e-19)
(23.1219 6.98519 1.46391e-20)
(23.088 7.08571 1.42793e-20)
(23.0531 7.1907 2.99858e-20)
(23.0156 7.29371 -2.97499e-20)
(22.9726 7.39963 -1.49973e-20)
(22.9246 7.50818 2.25564e-20)
(22.8751 7.61943 2.27096e-20)
(22.8244 7.73179 -2.9479e-20)
(22.7706 7.84673 3.00444e-20)
(22.7111 7.96164 -9.03564e-20)
(22.6464 8.07983 6.80199e-20)
(22.5794 8.20058 7.26644e-21)
(22.5089 8.32231 8.01465e-21)
(22.4321 8.44517 0)
(22.3495 8.57049 0)
(22.262 8.6987 -6.04195e-20)
(22.1702 8.82851 6.885e-20)
(22.0704 8.95898 -9.21423e-21)
(21.9623 9.09157 -6.04529e-22)
(21.8462 9.22645 -1.00363e-20)
(21.7229 9.36349 0)
(21.5923 9.50204 0)
(21.4533 9.64043 1.17678e-20)
(21.3022 9.7782 0)
(21.1398 9.91616 1.0912e-19)
(20.9651 10.0542 -9.82466e-20)
(20.7784 10.1906 1.49061e-20)
(20.5765 10.3247 -3.28318e-20)
(20.361 10.4547 0)
(20.129 10.5797 8.17521e-20)
(19.881 10.6978 -1.52189e-19)
(19.6147 10.8067 1.89352e-19)
(19.3321 10.9056 -2.32997e-19)
(19.0336 10.991 1.09791e-19)
(18.7212 11.0575 0)
(18.3897 11.1027 -7.4117e-20)
(18.0443 11.1217 1.82263e-19)
(17.6821 11.1128 -1.69936e-19)
(17.3135 11.0755 1.28903e-19)
(16.9444 11.0058 0)
(16.5812 10.8987 1.04912e-19)
(16.224 10.757 0)
(15.8855 10.5794 0)
(23.0319 6.95766 -8.88384e-21)
(22.9993 7.0463 0)
(22.9666 7.146 0)
(22.9321 7.23656 -4.11312e-20)
(22.8899 7.33478 2.43598e-20)
(22.8418 7.43464 8.83859e-21)
(22.7947 7.53839 0)
(22.7458 7.63917 8.78967e-21)
(22.6956 7.7487 -8.56286e-21)
(22.6408 7.85413 -8.76223e-21)
(22.5772 7.96326 9.20334e-22)
(22.5119 8.07636 0)
(22.4468 8.19078 -5.03534e-20)
(22.3738 8.30405 6.81826e-20)
(22.2939 8.41932 -4.43137e-20)
(22.2072 8.53868 0)
(22.122 8.66166 1.01216e-20)
(22.0281 8.78241 -3.98583e-20)
(21.9246 8.90531 3.82861e-20)
(21.8124 9.03039 2.17948e-20)
(21.6927 9.15774 -5.60505e-20)
(21.5661 9.2882 5.6649e-20)
(21.4365 9.41902 -7.34955e-20)
(21.2921 9.5468 -1.62983e-20)
(21.137 9.67324 8.22748e-20)
(20.9678 9.80081 1.60387e-20)
(20.7923 9.9275 0)
(20.5973 10.0518 -5.24207e-20)
(20.3938 10.1716 5.11024e-20)
(20.1706 10.2861 2.13653e-20)
(19.9356 10.3955 -6.50752e-20)
(19.6783 10.4937 9.03745e-20)
(19.4075 10.5836 -5.19792e-20)
(19.1207 10.6618 -7.23127e-21)
(18.8297 10.7202 1.17245e-19)
(18.5142 10.7612 1.72538e-21)
(18.1907 10.7757 1.61117e-21)
(17.8402 10.7638 4.12808e-20)
(17.4852 10.7269 4.94967e-20)
(17.133 10.6624 -1.87504e-19)
(16.7904 10.5586 4.6938e-20)
(16.4433 10.4299 0)
(16.124 10.261 0)
(3.92761 17.4343 2.54483e-20)
(4.05845 15.431 0)
(4.47308 13.8665 0)
(4.95353 12.6109 0)
(5.4531 11.5853 3.30457e-20)
(5.9542 10.7237 -5.18059e-19)
(6.44499 9.99042 1.00282e-18)
(6.9177 9.3605 -4.84756e-19)
(7.36819 8.81405 1.01384e-18)
(7.79427 8.33624 6.54171e-20)
(8.1955 7.91514 4.7267e-21)
(8.57238 7.5413 9.66316e-19)
(8.92574 7.20634 1.1001e-19)
(9.25731 6.90476 -3.14186e-18)
(9.56839 6.63087 1.51738e-18)
(9.86085 6.38088 1.46086e-18)
(10.1362 6.15113 -2.82667e-18)
(10.3961 5.93867 1.37074e-18)
(10.6419 5.74117 0)
(10.8752 5.55679 0)
(11.0971 5.38367 8.20712e-20)
(11.3086 5.22039 7.59728e-20)
(11.5109 5.06577 -7.74277e-20)
(11.7047 4.9188 0)
(11.891 4.77859 -2.85348e-21)
(12.0702 4.64437 0)
(12.2433 4.51561 0)
(12.4105 4.39161 -1.07418e-18)
(12.5724 4.27195 1.06874e-18)
(12.7295 4.15637 1.34751e-19)
(12.882 4.04439 -1.04162e-18)
(13.0304 3.93581 9.1792e-19)
(13.1749 3.83032 0)
(13.3158 3.72775 -1.16543e-18)
(13.4533 3.62793 1.04322e-18)
(13.5877 3.53068 2.57579e-19)
(13.719 3.43579 -5.18017e-19)
(13.8474 3.34318 5.11722e-19)
(13.9731 3.25277 -7.60728e-19)
(14.0961 3.16445 7.48219e-19)
(14.2165 3.07799 0)
(14.3346 2.99308 1.18066e-19)
(14.4519 2.91873 -1.14904e-19)
(11.0797 14.8244 -2.08058e-19)
(10.4127 13.8738 -6.12331e-20)
(10.0013 12.9669 1.60186e-19)
(9.77327 12.131 1.14717e-19)
(9.67034 11.3709 -8.86463e-20)
(9.65523 10.6838 5.32434e-20)
(9.70251 10.0655 -5.32209e-20)
(9.794 9.51024 -5.26719e-20)
(9.91631 9.01161 -8.90784e-19)
(10.0599 8.56325 8.56241e-19)
(10.2173 8.15896 0)
(10.3831 7.79326 -8.55496e-19)
(10.5539 7.46119 7.30414e-19)
(10.7265 7.15823 2.07403e-21)
(10.8992 6.88056 0)
(11.0706 6.62483 -4.21333e-20)
(11.2397 6.3882 0)
(11.4058 6.16815 0)
(11.5685 5.9626 0)
(11.7276 5.7698 -7.53598e-20)
(11.883 5.58821 7.35933e-20)
(12.0346 5.41653 -1.24874e-18)
(12.1824 5.25374 1.15144e-18)
(12.3266 5.0989 -1.18492e-18)
(12.4672 4.95116 1.09769e-18)
(12.6044 4.80995 0)
(12.7383 4.67467 -1.05591e-18)
(12.869 4.54477 2.15635e-18)
(12.9968 4.41989 -1.03882e-18)
(13.1218 4.29961 8.97842e-19)
(13.2441 4.1836 -1.02346e-18)
(13.3639 4.07155 -8.88153e-19)
(13.4813 3.96316 1.02193e-18)
(13.5965 3.8582 5.10062e-19)
(13.7096 3.75643 -3.85743e-19)
(13.8208 3.65761 7.65732e-19)
(13.9299 3.56153 -3.84218e-19)
(14.0372 3.468 0)
(14.1427 3.37691 -2.50356e-19)
(14.2464 3.28808 1.22722e-19)
(14.3483 3.20125 -1.21029e-19)
(14.4485 3.11625 -1.18473e-19)
(14.5483 3.04237 -1.14159e-19)
(12.3977 13.5112 4.31119e-19)
(11.9224 12.9651 -1.00595e-19)
(11.5634 12.377 4.51755e-20)
(11.3072 11.7806 0)
(11.1373 11.1968 1.77487e-19)
(11.0383 10.638 -2.74951e-19)
(10.9964 10.1113 -3.25289e-19)
(10.9996 9.61924 4.63105e-19)
(11.0381 9.16279 -9.50326e-20)
(11.1035 8.74094 -4.85662e-20)
(11.189 8.3516 -7.21078e-19)
(11.2893 7.99273 7.00199e-19)
(11.4002 7.66152 -4.23864e-20)
(11.5185 7.3555 4.38109e-20)
(11.6416 7.07206 0)
(11.7674 6.80899 -6.75259e-19)
(11.8945 6.56404 1.24336e-18)
(12.0218 6.33536 -6.81554e-19)
(12.1485 6.12121 -1.18393e-18)
(12.2739 5.92016 1.23353e-18)
(12.3976 5.73085 9.9021e-19)
(12.5192 5.55214 -1.11126e-18)
(12.6387 5.38305 0)
(12.7561 5.22269 6.76878e-20)
(12.8711 5.07025 -6.63766e-20)
(12.9841 4.92503 0)
(13.0949 4.7864 0)
(13.2036 4.65377 -2.06612e-18)
(13.3104 4.52669 1.9951e-18)
(13.4153 4.40468 1.2528e-19)
(13.5185 4.28737 1.24758e-19)
(13.6199 4.1744 0)
(13.7197 4.06543 3.69594e-19)
(13.818 3.96019 -3.70623e-19)
(13.9149 3.85835 -1.24989e-19)
(14.0104 3.75967 4.94566e-19)
(14.1045 3.6639 -2.53402e-21)
(14.1972 3.57087 -4.96497e-19)
(14.2884 3.48042 0)
(14.3784 3.39236 -9.88343e-22)
(14.467 3.30637 1.19557e-19)
(14.5544 3.22226 0)
(14.6411 3.1477 1.16864e-19)
(13.7204 12.4606 -3.40104e-20)
(13.3064 12.0487 -7.74181e-20)
(12.9602 11.6024 7.75773e-20)
(12.6821 11.1397 -4.08234e-20)
(12.4676 10.6751 -1.77171e-19)
(12.3103 10.2187 3.96972e-19)
(12.2025 9.77783 -1.75825e-19)
(12.1367 9.35711 -8.87252e-20)
(12.1056 8.95904 -2.69521e-19)
(12.1031 8.58462 -4.50857e-21)
(12.1237 8.23387 3.44124e-19)
(12.1627 7.90601 -8.31458e-20)
(12.2161 7.59996 -6.2452e-19)
(12.2809 7.31424 -8.23544e-20)
(12.3544 7.04726 6.33527e-19)
(12.4343 6.7975 6.98067e-19)
(12.5189 6.56346 -1.28278e-18)
(12.6069 6.34372 7.4717e-20)
(12.6969 6.13703 1.1533e-18)
(12.7881 5.94227 -1.05866e-18)
(12.88 5.75841 7.07724e-20)
(12.9719 5.58449 6.06725e-19)
(13.0637 5.4197 6.51225e-20)
(13.1551 5.26319 0)
(13.2459 5.11433 0)
(13.336 4.97242 -5.61441e-19)
(13.4253 4.83687 1.68272e-21)
(13.5137 4.70718 1.03904e-18)
(13.6012 4.5829 -1.79443e-21)
(13.6877 4.46363 -1.84214e-21)
(13.7732 4.349 -4.22815e-19)
(13.8579 4.23867 -4.80115e-19)
(13.9416 4.13234 7.2326e-19)
(14.0246 4.02967 -4.81789e-19)
(14.1067 3.93038 9.69238e-19)
(14.188 3.8342 -1.2452e-19)
(14.2683 3.74095 -3.67081e-19)
(14.3476 3.65043 -2.42179e-19)
(14.426 3.56251 2.41929e-19)
(14.5035 3.47702 0)
(14.5801 3.39373 -1.18847e-19)
(14.6562 3.31252 -5.80056e-20)
(14.7324 3.23777 1.74352e-19)
(14.3744 11.7354 1.30053e-19)
(14.0084 11.4008 7.38621e-20)
(13.6916 11.0356 -7.38943e-20)
(13.4263 10.6516 8.09241e-20)
(13.211 10.2596 -8.18445e-20)
(13.0426 9.86828 -8.23233e-20)
(12.9163 9.48451 -1.70674e-19)
(12.8269 9.11298 5.52697e-19)
(12.7696 8.7569 -2.94307e-19)
(12.7392 8.41806 -4.19775e-19)
(12.7314 8.09727 3.28655e-19)
(12.7422 7.79458 8.30353e-20)
(12.7682 7.50971 0)
(12.8066 7.24178 2.40037e-21)
(12.8549 6.98973 0)
(12.9107 6.75249 6.00626e-19)
(12.9724 6.52907 1.48285e-19)
(13.0383 6.31835 -1.14741e-18)
(13.1071 6.11953 5.6133e-19)
(13.178 5.93172 -1.64838e-21)
(13.2505 5.75409 6.65883e-20)
(13.324 5.58585 -6.65535e-20)
(13.3981 5.42628 -5.79624e-19)
(13.4726 5.27465 -6.17217e-20)
(13.5473 5.13032 5.58864e-19)
(13.6221 4.99266 -3.66661e-19)
(13.6965 4.86115 9.67835e-19)
(13.7706 4.7353 -5.40392e-19)
(13.8442 4.61474 0)
(13.9173 4.4991 0)
(13.9899 4.38806 -5.94578e-20)
(14.062 4.28128 0)
(14.1336 4.17842 4.11013e-19)
(14.2048 4.07916 -5.91644e-19)
(14.2754 3.9832 1.18079e-19)
(14.3454 3.89033 2.38236e-19)
(14.4146 3.80036 -3.59597e-19)
(14.4831 3.71314 -3.56717e-19)
(14.5508 3.62855 1.19453e-19)
(14.6178 3.54646 1.7683e-19)
(14.6841 3.46681 5.85636e-20)
(14.7498 3.39002 -5.72768e-20)
(14.8153 3.31725 -5.75365e-20)
(14.8986 11.1718 0)
(14.563 10.883 -7.03905e-20)
(14.2664 10.5675 7.37391e-20)
(14.0112 10.2336 0)
(13.7974 9.88976 8.06877e-20)
(13.6231 9.54358 2.22562e-21)
(13.4853 9.20101 0)
(13.3807 8.86655 0)
(13.3055 8.54331 -8.29981e-20)
(13.2558 8.23329 8.2413e-20)
(13.2277 7.93772 0)
(13.218 7.65711 0)
(13.2238 7.39153 7.71385e-20)
(13.2428 7.1403 3.84456e-19)
(13.2722 6.90262 3.76499e-19)
(13.3096 6.67791 -5.13682e-19)
(13.3534 6.46537 5.03482e-19)
(13.4017 6.2643 -6.85841e-20)
(13.4534 6.07422 -6.19755e-19)
(13.5079 5.89444 5.39233e-19)
(13.5647 5.72414 -5.95074e-19)
(13.6232 5.56267 0)
(13.6831 5.40944 6.27609e-20)
(13.7441 5.26367 5.59401e-19)
(13.8059 5.12478 -6.23172e-20)
(13.8682 4.99218 -5.43285e-19)
(13.9307 4.86544 -4.76017e-19)
(13.9931 4.74418 4.72366e-19)
(14.0554 4.62808 -5.81456e-20)
(14.1175 4.51678 5.78547e-20)
(14.1794 4.40996 0)
(14.2412 4.30733 5.76456e-20)
(14.3029 4.20852 -5.84057e-20)
(14.3645 4.11314 1.17081e-19)
(14.4256 4.021 -1.75589e-19)
(14.4862 3.93191 -5.83807e-20)
(14.5462 3.84566 0)
(14.6055 3.76217 1.10633e-21)
(14.6642 3.68126 1.16574e-19)
(14.7223 3.60269 -1.17026e-19)
(14.7796 3.52647 -1.15154e-19)
(14.8364 3.45286 1.14681e-19)
(14.893 3.37872 1.11567e-19)
(15.2713 10.7296 1.27933e-19)
(14.9586 10.472 3.42709e-20)
(14.679 10.1901 4.36576e-20)
(14.435 9.89021 -4.73831e-20)
(14.2258 9.5797 3.78462e-20)
(14.051 9.26545 -7.94843e-20)
(13.9086 8.95274 7.82326e-20)
(13.7961 8.64598 0)
(13.7111 8.34784 -1.60379e-19)
(13.6501 8.06028 7.85203e-20)
(13.6097 7.7848 3.14958e-19)
(13.587 7.52235 -3.07337e-19)
(13.5801 7.27316 -3.82341e-19)
(13.5871 7.036 2.23797e-19)
(13.6042 6.81043 -7.41216e-20)
(13.6291 6.59656 -7.26741e-20)
(13.6603 6.39359 -7.00205e-20)
(13.6959 6.20139 -2.07218e-19)
(13.7352 6.01972 3.39418e-19)
(13.7778 5.8475 -5.98483e-19)
(13.8232 5.68415 1.03891e-18)
(13.8707 5.52937 7.71898e-23)
(13.9202 5.38231 -6.23299e-19)
(13.9713 5.24219 -5.50434e-19)
(14.0236 5.10847 4.82318e-19)
(14.0766 4.98074 5.90477e-20)
(14.1298 4.85863 0)
(14.1832 4.74197 4.6507e-19)
(14.2365 4.63034 -4.04354e-19)
(14.29 4.52338 1.71782e-19)
(14.3435 4.42085 -2.86238e-19)
(14.3973 4.32242 -5.75051e-20)
(14.4513 4.22766 0)
(14.5052 4.13611 2.29095e-19)
(14.5585 4.0479 -1.72652e-19)
(14.6114 3.96265 5.80903e-20)
(14.6636 3.88027 -5.80415e-20)
(14.7154 3.80069 2.89897e-19)
(14.7668 3.72357 -5.85094e-20)
(14.8177 3.64863 0)
(14.8675 3.57601 1.14871e-19)
(14.917 3.50623 5.63348e-20)
(14.9664 3.43498 5.51154e-20)
(15.5636 10.3712 6.57914e-20)
(15.2679 10.1367 -6.59075e-20)
(15.0025 9.87928 -8.65876e-22)
(14.7688 9.60333 1.84805e-20)
(14.564 9.31635 -5.45162e-20)
(14.3897 9.0255 3.94636e-20)
(14.2445 8.73513 -1.51835e-19)
(14.1269 8.45001 -7.64655e-20)
(14.0359 8.17129 7.88212e-20)
(13.9671 7.90161 -1.5085e-19)
(13.9179 7.64242 -1.52874e-19)
(13.8858 7.39538 7.48567e-20)
(13.8706 7.16013 0)
(13.87 6.93424 7.35112e-20)
(13.8774 6.71878 -3.58846e-19)
(13.8923 6.51409 2.11117e-19)
(13.9144 6.31967 6.96848e-20)
(13.9396 6.13591 3.39238e-19)
(13.9691 5.96248 5.90436e-22)
(14.003 5.79655 -2.60571e-19)
(14.0399 5.63989 3.18626e-19)
(14.079 5.49167 -4.37982e-19)
(14.1208 5.35021 3.07161e-19)
(14.1647 5.21502 -1.20631e-19)
(14.2096 5.08602 4.1627e-19)
(14.2552 4.96275 -5.27944e-19)
(14.3008 4.84492 2.31956e-19)
(14.3467 4.73287 -5.70832e-20)
(14.393 4.62555 0)
(14.4396 4.52274 2.26563e-19)
(14.4867 4.42442 1.12552e-19)
(14.5342 4.33 -2.25816e-19)
(14.582 4.23893 2.25541e-19)
(14.6291 4.15071 -2.26476e-19)
(14.6758 4.06676 5.65097e-20)
(14.7224 3.9852 -5.67458e-20)
(14.7685 3.90688 -5.73724e-20)
(14.8143 3.83119 -1.14279e-19)
(14.8597 3.7578 -1.7121e-19)
(14.9045 3.68638 5.70142e-20)
(14.9477 3.6173 -3.53828e-21)
(14.9905 3.55159 -2.50951e-20)
(15.033 3.48362 -8.28621e-20)
(15.8087 10.0704 0)
(15.5218 9.85624 3.36266e-20)
(15.2654 9.61934 -1.01645e-19)
(15.0395 9.36104 -1.77733e-20)
(14.8352 9.09193 1.8503e-20)
(14.6609 8.81848 7.35016e-20)
(14.5135 8.54549 -7.45758e-20)
(14.3926 8.27832 -7.58012e-20)
(14.2982 8.01424 3.72667e-19)
(14.2227 7.76037 3.35115e-21)
(14.1672 7.51435 -2.26198e-19)
(14.1288 7.28077 2.25499e-19)
(14.1105 7.05564 -2.175e-19)
(14.1056 6.83636 -7.03345e-20)
(14.104 6.63136 6.80233e-20)
(14.1133 6.43582 6.7111e-20)
(14.1295 6.24941 -6.8498e-20)
(14.1446 6.07304 -6.91517e-20)
(14.1684 5.90726 0)
(14.1976 5.74534 -2.55721e-19)
(14.2267 5.5971 1.2727e-19)
(14.2598 5.45483 -1.24753e-19)
(14.297 5.31721 -6.06712e-20)
(14.3354 5.18617 -6.05521e-20)
(14.3739 5.06116 5.82394e-22)
(14.4132 4.94179 -5.86245e-20)
(14.4513 4.82759 -5.81724e-20)
(14.4915 4.72107 -1.14998e-19)
(14.5327 4.61729 3.08135e-22)
(14.5734 4.51826 2.26702e-19)
(14.6145 4.4237 1.69032e-19)
(14.6562 4.33243 -2.24502e-19)
(14.698 4.24398 0)
(14.7386 4.15806 0)
(14.7803 4.08041 -1.11269e-19)
(14.8231 4.00192 4.71186e-22)
(14.8636 3.92832 0)
(14.9034 3.85571 3.80774e-22)
(14.943 3.78555 3.64279e-22)
(14.9821 3.71725 0)
(15.0186 3.65129 -5.62597e-20)
(15.0563 3.58923 -5.65839e-20)
(15.0942 3.52097 0)
(10.0156 -1.74977 1.4333e-19)
(9.75903 -1.72146 6.76837e-22)
(9.51108 -1.69546 0)
(9.2714 -1.67062 -1.58223e-19)
(9.03969 -1.64652 0)
(8.81555 -1.62305 1.62192e-19)
(8.59858 -1.60016 1.65159e-19)
(8.38836 -1.57779 0)
(8.18448 -1.55592 0)
(7.98653 -1.53449 -8.73447e-20)
(7.7941 -1.51348 -8.92746e-20)
(7.60683 -1.49284 9.17936e-19)
(7.42435 -1.47255 -1.60603e-18)
(7.24633 -1.45256 1.46341e-18)
(7.0725 -1.43285 -8.06823e-19)
(6.90257 -1.41339 5.19916e-20)
(6.73632 -1.39415 8.70495e-19)
(6.5735 -1.37511 -9.10095e-19)
(6.41391 -1.35625 -5.92342e-20)
(6.25735 -1.33754 -6.23031e-20)
(6.10363 -1.31898 6.57692e-20)
(5.95255 -1.30058 1.18916e-18)
(5.80393 -1.28232 -1.26615e-18)
(5.65758 -1.26421 7.91456e-20)
(5.51329 -1.24627 0)
(5.37088 -1.22852 0)
(5.23013 -1.21096 0)
(5.09079 -1.19363 -1.72343e-18)
(4.95261 -1.17659 6.19568e-20)
(4.81532 -1.15989 2.00697e-18)
(4.67857 -1.14358 7.08192e-20)
(4.54202 -1.12771 0)
(4.40521 -1.11241 -7.31644e-22)
(4.26756 -1.09773 0)
(4.1284 -1.08376 0)
(3.98678 -1.07052 0)
(3.84151 -1.05792 -7.5879e-20)
(3.69101 -1.04546 -7.18906e-19)
(3.53421 -1.0315 7.54964e-19)
(3.37567 -1.0113 0)
(3.26003 -0.969098 -1.30842e-18)
(3.48954 -0.865626 1.64789e-18)
(5.75927 -0.669926 -3.22833e-18)
(10.0168 -1.75046 7.46349e-20)
(9.78326 -1.72857 -2.34475e-19)
(9.55703 -1.70647 0)
(9.33765 -1.68476 1.61203e-19)
(9.12478 -1.66353 2.44528e-19)
(8.91808 -1.64276 1.646e-19)
(8.71721 -1.62245 -4.17312e-19)
(8.52184 -1.60256 -3.37561e-19)
(8.33162 -1.58307 2.56856e-19)
(8.14622 -1.56395 -5.21186e-19)
(7.96529 -1.54515 8.97995e-20)
(7.78852 -1.52665 -1.81188e-19)
(7.61558 -1.50842 7.42973e-19)
(7.44619 -1.49044 0)
(7.28006 -1.47268 0)
(7.11696 -1.45512 -8.85336e-23)
(6.95664 -1.43772 -8.99856e-19)
(6.79889 -1.42047 8.83654e-19)
(6.64349 -1.40334 5.80703e-20)
(6.49022 -1.38629 -9.09499e-19)
(6.3389 -1.36933 1.98327e-18)
(6.18932 -1.35246 -1.22002e-18)
(6.04125 -1.33566 -1.15096e-18)
(5.8945 -1.31893 1.15185e-18)
(5.74886 -1.30229 8.25626e-20)
(5.60409 -1.28572 8.88193e-20)
(5.45992 -1.26922 0)
(5.3161 -1.25281 1.66076e-18)
(5.17233 -1.2365 -1.86978e-18)
(5.02823 -1.22028 0)
(4.8834 -1.20415 -1.09503e-18)
(4.7374 -1.18811 1.13841e-18)
(4.58965 -1.17211 -1.35376e-18)
(4.43954 -1.15604 1.51991e-18)
(4.28638 -1.13971 0)
(4.12957 -1.12268 -8.54513e-19)
(3.96913 -1.10397 1.12233e-18)
(3.80738 -1.08145 0)
(3.65525 -1.0499 0)
(3.55539 -0.997533 2.28359e-19)
(3.6672 -0.904311 1.35424e-19)
(4.53235 -0.78397 -3.30401e-19)
(7.74865 -0.690643 -2.72089e-18)
(10.0154 -1.75763 -2.30814e-19)
(9.79948 -1.7359 -4.94387e-21)
(9.58977 -1.71475 8.52252e-20)
(9.38561 -1.69448 -2.58484e-22)
(9.18674 -1.67477 -2.46015e-19)
(8.99288 -1.65552 0)
(8.80375 -1.63669 0)
(8.61908 -1.61823 8.48297e-20)
(8.43863 -1.60014 8.55051e-20)
(8.2621 -1.58237 -4.34562e-19)
(8.08924 -1.5649 3.54074e-19)
(7.91977 -1.54771 8.12054e-19)
(7.75341 -1.53076 -1.57073e-18)
(7.58991 -1.51405 8.06585e-19)
(7.42902 -1.49757 -8.30435e-19)
(7.27055 -1.48132 7.58207e-19)
(7.11425 -1.46526 -3.13939e-22)
(6.95997 -1.44935 8.72961e-19)
(6.80748 -1.43357 -9.70399e-19)
(6.65657 -1.41786 -9.57329e-19)
(6.50705 -1.4022 1.00889e-18)
(6.35869 -1.38657 -4.09126e-22)
(6.2113 -1.37095 7.04803e-20)
(6.06466 -1.35533 -7.55548e-20)
(5.91854 -1.3397 1.28994e-18)
(5.77272 -1.32404 -1.47269e-18)
(5.62695 -1.30833 7.47103e-19)
(5.48095 -1.29254 -8.09983e-19)
(5.33441 -1.27662 0)
(5.18697 -1.26049 -9.6236e-19)
(5.03827 -1.2441 1.05766e-18)
(4.88786 -1.22734 7.26981e-20)
(4.7353 -1.20999 1.3735e-18)
(4.5802 -1.19174 -2.16283e-18)
(4.42242 -1.17204 8.08556e-19)
(4.26259 -1.14984 -1.13831e-19)
(4.10354 -1.12316 -5.20213e-19)
(3.95436 -1.08808 6.3679e-23)
(3.84285 -1.03637 3.47838e-19)
(3.85017 -0.953638 1.01462e-19)
(4.19879 -0.824398 1.20171e-19)
(5.45215 -0.68516 -2.39329e-21)
(8.79145 -0.675064 0)
(10.0129 -1.75757 1.52362e-19)
(9.81433 -1.73874 0)
(9.61966 -1.72009 -1.46268e-22)
(9.42931 -1.70167 -8.21847e-20)
(9.24328 -1.68362 0)
(9.06133 -1.66587 1.66635e-19)
(8.88314 -1.64843 1.68032e-19)
(8.70855 -1.63133 -4.24533e-19)
(8.53733 -1.61451 -8.60598e-20)
(8.36922 -1.59797 3.4823e-19)
(8.20403 -1.58168 -2.65382e-19)
(8.04153 -1.56561 0)
(7.88144 -1.5497 9.19304e-20)
(7.72351 -1.53398 2.83305e-19)
(7.56751 -1.51844 4.82259e-20)
(7.41325 -1.5031 -4.01621e-19)
(7.26053 -1.48796 5.18768e-20)
(7.10922 -1.47299 0)
(6.95916 -1.45815 5.63243e-20)
(6.81015 -1.44335 4.73178e-19)
(6.66199 -1.42856 6.19832e-20)
(6.51444 -1.41372 -9.8587e-19)
(6.36728 -1.39883 6.27194e-19)
(6.2203 -1.38385 -3.37952e-22)
(6.07329 -1.36878 -7.89661e-20)
(5.926 -1.35359 8.50581e-20)
(5.77823 -1.33826 7.30656e-19)
(5.62972 -1.32274 -6.67254e-22)
(5.48022 -1.30695 -8.57827e-19)
(5.32942 -1.29074 0)
(5.17698 -1.27397 1.0219e-18)
(5.02259 -1.25644 1.39806e-19)
(4.86603 -1.23775 -1.24068e-18)
(4.70732 -1.21739 0)
(4.54713 -1.19437 0)
(4.38776 -1.16705 0)
(4.2355 -1.13249 3.67309e-19)
(4.10689 -1.08529 -5.61517e-19)
(4.0446 -1.01578 0)
(4.15432 -0.910902 2.79565e-19)
(4.68031 -0.764881 -1.07205e-19)
(6.1463 -0.624855 2.41415e-19)
(9.44489 -0.660991 0)
(10.0105 -1.75992 7.64089e-20)
(9.82748 -1.74181 -8.59965e-20)
(9.64692 -1.72425 8.67429e-20)
(9.46938 -1.70738 8.2371e-20)
(9.29524 -1.69091 -1.66253e-19)
(9.12424 -1.67454 2.51198e-19)
(8.95607 -1.65833 -1.68918e-19)
(8.79058 -1.6424 8.53358e-20)
(8.6277 -1.62668 1.72219e-19)
(8.46711 -1.61113 -2.61373e-19)
(8.30871 -1.59583 2.21499e-19)
(8.1524 -1.58069 3.60453e-19)
(7.99786 -1.56561 -3.2215e-19)
(7.84485 -1.55061 4.2403e-19)
(7.69313 -1.5357 -3.87751e-19)
(7.5425 -1.52093 0)
(7.39274 -1.50636 -5.18331e-20)
(7.24381 -1.49204 -5.38503e-20)
(7.09567 -1.47789 -5.04395e-19)
(6.94816 -1.46381 4.69479e-19)
(6.80106 -1.44968 4.31268e-19)
(6.65414 -1.43544 -1.03963e-18)
(6.50715 -1.42106 4.81724e-19)
(6.35986 -1.40651 7.29139e-20)
(6.21206 -1.39176 0)
(6.06347 -1.37681 -8.32167e-20)
(5.91386 -1.36166 7.16243e-19)
(5.76308 -1.34628 -8.69842e-19)
(5.61096 -1.33055 0)
(5.45726 -1.31425 0)
(5.30172 -1.29712 -3.71398e-19)
(5.14417 -1.27885 -2.71085e-19)
(4.98467 -1.25893 4.75727e-22)
(4.82375 -1.23655 6.61312e-19)
(4.66299 -1.21036 0)
(4.50638 -1.17816 0)
(4.36355 -1.13627 1.16435e-19)
(4.25749 -1.07832 -2.65792e-19)
(4.24158 -0.994714 1.51026e-19)
(4.43364 -0.87515 -3.89858e-19)
(5.08071 -0.722348 4.94511e-20)
(6.66044 -0.590238 0)
(9.89787 -0.651224 0)
(10.0113 -1.75988 8.06401e-20)
(9.84021 -1.74374 -2.74652e-21)
(9.67179 -1.72737 4.37581e-20)
(9.50545 -1.71184 -1.24685e-19)
(9.34194 -1.69686 -1.67311e-19)
(9.18097 -1.68172 4.20807e-19)
(9.02182 -1.6665 -2.54521e-19)
(8.8644 -1.65159 8.55764e-20)
(8.70909 -1.63682 -2.1572e-19)
(8.5552 -1.62202 8.75057e-20)
(8.40267 -1.60756 2.21515e-19)
(8.25183 -1.59329 -3.61008e-19)
(8.10225 -1.57893 -3.68017e-19)
(7.95358 -1.56454 4.24227e-19)
(7.80571 -1.55013 4.84769e-20)
(7.65829 -1.53568 4.48824e-19)
(7.51101 -1.52132 -3.61199e-19)
(7.36381 -1.50731 5.3443e-20)
(7.21696 -1.49367 5.57452e-19)
(7.07047 -1.48019 5.80787e-20)
(6.92408 -1.46665 -4.89385e-19)
(6.77757 -1.45295 0)