/*--------------------------------*- C++ -*----------------------------------*\
| =========                 |                                                 |
| \\      /  F ield         | OpenFOAM: The Open Source CFD Toolbox           |
|  \\    /   O peration     | Version:  2.3.0                                 |
|   \\  /    A nd           | Web:      www.OpenFOAM.org                      |
|    \\/     M anipulation  |                                                 |
\*---------------------------------------------------------------------------*/
FoamFile
{
    version     2.0;
    format      ascii;
    class       volScalarField;
    location    "3000";
    object      nut;
}
// * * * * * * * * * * * * * * * * * * * * * * * * * * * * * * * * * * * * * //

dimensions      [0 2 -1 0 0 0 0];

internalField   nonuniform List<scalar> 
38388
(
0.0406236
0.039097
0.0375984
0.0361299
0.0346961
0.0333022
0.0319495
0.0306353
0.0293567
0.0281119
0.0269023
0.0257281
0.02459
0.0234872
0.0224182
0.0213812
0.0203757
0.0194008
0.0184552
0.0175383
0.0166493
0.0157874
0.0149519
0.0141401
0.0133525
0.0125862
0.0118396
0.011111
0.0103979
0.00969903
0.00901143
0.00833471
0.00766852
0.00701684
0.00638547
0.00578379
0.00522721
0.00472417
0.00428806
0.00391939
0.00362809
0.00343424
0.00342665
0.0426932
0.041295
0.0399226
0.0385777
0.0372639
0.0359859
0.0347473
0.0335477
0.032378
0.0312335
0.0301136
0.02902
0.0279544
0.0269183
0.0259112
0.0249313
0.0239768
0.0230462
0.0221385
0.0212541
0.0203925
0.0195539
0.0187389
0.0179474
0.017181
0.0164395
0.0157263
0.0150406
0.0143871
0.013768
0.0131849
0.0126418
0.0121384
0.0116741
0.0112473
0.0108577
0.0105053
0.0101944
0.00993122
0.00973699
0.00963302
0.00967039
0.0099711
0.044654
0.0433996
0.0421661
0.0409542
0.0397647
0.0385987
0.0374564
0.0363379
0.0352423
0.034169
0.0331172
0.0320883
0.0310841
0.0301058
0.0291545
0.0282302
0.0273307
0.0264527
0.025594
0.0247542
0.0239329
0.0231308
0.0223483
0.021586
0.0208435
0.0201227
0.0194233
0.0187473
0.0180954
0.0174702
0.016878
0.0163258
0.015828
0.0154011
0.015049
0.014767
0.0145587
0.0144276
0.0143842
0.0144374
0.014594
0.0148612
0.0152416
0.0464648
0.0453437
0.0442397
0.0431526
0.0420823
0.0410286
0.0399919
0.0389724
0.0379698
0.0369843
0.0360162
0.0350652
0.0341316
0.0332164
0.0323199
0.0314417
0.0305819
0.0297393
0.0289151
0.0281082
0.0273209
0.0265523
0.0258043
0.0250781
0.0243752
0.0236964
0.0230456
0.022423
0.0218321
0.0212772
0.020762
0.0202916
0.0198715
0.0195085
0.0192079
0.0189746
0.018814
0.0187325
0.0187344
0.0188274
0.0190139
0.0192977
0.0196764
0.0481171
0.0471145
0.0461256
0.0451495
0.0441856
0.0432341
0.0422946
0.0413672
0.0404524
0.0395505
0.0386614
0.0377852
0.0369226
0.0360743
0.0352398
0.0344198
0.0336141
0.032823
0.0320466
0.0312861
0.0305421
0.0298162
0.029109
0.028423
0.0277588
0.0271195
0.0265056
0.0259211
0.0253673
0.0248483
0.0243687
0.0239331
0.0235451
0.0232107
0.0229359
0.0227255
0.0225846
0.0225202
0.0225367
0.0226383
0.0228298
0.0231117
0.0234836
0.0496147
0.0487176
0.0478295
0.0469502
0.0460793
0.0452166
0.0443626
0.0435168
0.0426794
0.0418514
0.0410319
0.0402216
0.0394218
0.0386327
0.0378545
0.0370879
0.0363329
0.0355899
0.0348587
0.0341409
0.0334366
0.032748
0.0320762
0.0314238
0.0307921
0.0301828
0.0295989
0.0290422
0.0285151
0.0280205
0.0275637
0.0271479
0.0267784
0.0264607
0.0262006
0.0260019
0.0258713
0.0258138
0.0258348
0.0259389
0.0261292
0.0264071
0.0267725
0.0509707
0.0501655
0.0493644
0.0485685
0.0477784
0.0469933
0.0462129
0.0454374
0.044667
0.0439033
0.0431448
0.042392
0.0416455
0.0409065
0.0401767
0.0394558
0.0387446
0.0380436
0.0373528
0.0366714
0.0360017
0.035345
0.0347031
0.0340779
0.0334723
0.0328874
0.0323265
0.0317923
0.0312869
0.0308118
0.0303712
0.0299701
0.0296133
0.0293067
0.0290552
0.0288646
0.0287394
0.0286853
0.0287076
0.02881
0.0289975
0.0292709
0.0296304
0.0521975
0.051473
0.050746
0.0500215
0.049301
0.048584
0.0478665
0.0471524
0.0464382
0.0457301
0.045025
0.0443222
0.0436217
0.042926
0.0422356
0.0415531
0.0408784
0.0402125
0.039556
0.038908
0.0382685
0.0376388
0.0370218
0.0364199
0.0358346
0.0352683
0.0347253
0.0342091
0.0337231
0.0332656
0.0328386
0.0324489
0.0321022
0.0318026
0.0315575
0.0313723
0.0312513
0.0312006
0.031222
0.0313211
0.0315037
0.0317726
0.0321272
0.0533165
0.0526602
0.0519916
0.0513255
0.0506604
0.0500068
0.0493416
0.0486898
0.0480161
0.0473523
0.0466931
0.0460335
0.0453731
0.0447162
0.044057
0.0434044
0.0427581
0.0421183
0.0414885
0.0408695
0.0402578
0.0396522
0.0390557
0.0384742
0.0379084
0.0373583
0.0368275
0.0363236
0.0358515
0.0354169
0.0350027
0.0346233
0.0342869
0.0339945
0.0337524
0.0335757
0.0334547
0.0334122
0.0334356
0.0335286
0.0337051
0.0339689
0.0343207
0.00410529
0.00540954
0.00640153
0.00744131
0.00854923
0.00971708
0.010932
0.012183
0.0134632
0.0147677
0.0160935
0.0174369
0.0187969
0.0201722
0.0215616
0.0229672
0.0243852
0.0258172
0.0272612
0.0287184
0.030188
0.0316702
0.0331643
0.0346707
0.0361888
0.0377182
0.0392591
0.0408111
0.0423741
0.0439477
0.0455313
0.0471244
0.0487269
0.0503383
0.0519579
0.0535849
0.0552188
0.0568589
0.0585048
0.0601554
0.0618103
0.0634682
0.0651245
0.0104932
0.0111695
0.0119487
0.0128254
0.013792
0.0148332
0.0159394
0.0170982
0.0183008
0.019537
0.0208019
0.0220911
0.0233989
0.0247214
0.0260579
0.0274048
0.0287616
0.0301265
0.0315005
0.0328815
0.0342696
0.0356647
0.0370661
0.0384741
0.0398878
0.0413075
0.0427329
0.0441639
0.0456004
0.0470422
0.0484889
0.0499408
0.0513974
0.0528587
0.0543242
0.0557937
0.0572669
0.0587437
0.0602232
0.0617057
0.0631907
0.0646784
0.0661663
0.0157288
0.0163203
0.0170166
0.0178097
0.0186893
0.0196446
0.0206665
0.0217437
0.0228673
0.0240292
0.0252217
0.0264394
0.027677
0.0289311
0.0301978
0.0314753
0.0327604
0.0340524
0.0353504
0.0366528
0.0379592
0.0392683
0.0405807
0.0418947
0.043211
0.0445294
0.0458494
0.0471708
0.0484937
0.0498179
0.0511434
0.0524704
0.0537987
0.0551282
0.0564587
0.0577903
0.0591231
0.0604567
0.0617908
0.0631254
0.0644604
0.0657954
0.0671253
0.0201477
0.020713
0.0213737
0.022121
0.0229503
0.0238521
0.024817
0.0258367
0.0269013
0.0280043
0.0291383
0.0302973
0.0314764
0.0326706
0.0338771
0.0350928
0.0363147
0.0375415
0.0387716
0.0400043
0.0412372
0.0424704
0.0437034
0.0449355
0.0461664
0.0473958
0.0486234
0.0498491
0.0510731
0.0522953
0.0535156
0.0547342
0.055951
0.057166
0.0583796
0.0595915
0.0608022
0.0620111
0.0632185
0.0644241
0.0656279
0.066829
0.0680239
0.0239434
0.0244921
0.025129
0.025849
0.0266454
0.0275103
0.0284355
0.0294129
0.0304343
0.0314919
0.0325797
0.0336917
0.0348221
0.0359669
0.037122
0.0382851
0.0394523
0.0406226
0.0417944
0.0429656
0.0441356
0.0453033
0.0464678
0.0476284
0.0487853
0.0499377
0.0510856
0.0522289
0.0533676
0.0545017
0.0556312
0.0567561
0.0578768
0.0589932
0.0601057
0.0612141
0.0623186
0.0634195
0.0645166
0.06561
0.0666998
0.0677858
0.0688675
0.0272235
0.0277605
0.0283815
0.0290816
0.0298542
0.0306929
0.0315881
0.0325335
0.0335214
0.0345439
0.0355948
0.0366678
0.0377585
0.0388622
0.0399747
0.0410927
0.0422141
0.0433361
0.0444576
0.0455766
0.0466929
0.0478043
0.0489099
0.0500093
0.0511023
0.0521888
0.0532685
0.0543412
0.0554065
0.0564648
0.057516
0.0585604
0.0595982
0.0606297
0.061655
0.0626741
0.0636869
0.0646939
0.0656951
0.0666907
0.0676811
0.0686664
0.0696469
0.0300745
0.0306022
0.0312115
0.0318967
0.0326514
0.0334688
0.0343414
0.0352615
0.0362231
0.0372176
0.0382386
0.0392799
0.0403368
0.0414057
0.0424826
0.0435632
0.0446449
0.0457258
0.0468042
0.0478795
0.0489496
0.050013
0.0510679
0.0521144
0.0531529
0.0541826
0.0552042
0.0562161
0.0572183
0.058211
0.0591949
0.0601701
0.0611366
0.0620947
0.063045
0.0639867
0.0649199
0.0658454
0.0667633
0.0676735
0.068577
0.069474
0.0703628
0.0325652
0.0330847
0.0336848
0.0343595
0.0351
0.0358994
0.0367519
0.0376535
0.0385937
0.0395652
0.0405611
0.0415758
0.0426044
0.043644
0.0446911
0.0457397
0.0467872
0.0478322
0.0488742
0.0499121
0.0509449
0.0519666
0.0529761
0.0539763
0.0549694
0.0559499
0.0569229
0.0578811
0.0588292
0.0597642
0.0606904
0.0616063
0.0625111
0.0634063
0.0642923
0.0651668
0.0660303
0.066885
0.0677308
0.0685656
0.0693926
0.0702126
0.0710209
0.0347532
0.0352627
0.0358563
0.0365246
0.0372559
0.0380388
0.038868
0.0397563
0.0406771
0.0416305
0.0426048
0.0435947
0.044599
0.045616
0.0466405
0.0476582
0.0486764
0.0496885
0.0506993
0.0517068
0.052711
0.0536913
0.054659
0.0556208
0.0565814
0.057513
0.0584533
0.0593547
0.0602622
0.0611412
0.0620226
0.0628866
0.0637374
0.0645801
0.0654116
0.0662251
0.067028
0.0678235
0.0686084
0.0693744
0.0701344
0.0708884
0.0716352
0.0866344
0.0822577
0.0780318
0.0739513
0.0700153
0.0662229
0.0625712
0.0590573
0.0556796
0.0524349
0.04932
0.0463312
0.0434655
0.0407196
0.0380895
0.0355716
0.0331639
0.0308624
0.0286624
0.0265622
0.024559
0.02265
0.0208309
0.0190997
0.0174541
0.0158904
0.0144082
0.0130041
0.0116766
0.0104237
0.00924413
0.00813497
0.00709683
0.00612852
0.00522923
0.00439849
0.00363682
0.00294595
0.00232619
0.00178425
0.00136614
0.00097692
0.000570896
0.0882088
0.0841555
0.0802248
0.0764132
0.0727203
0.0691448
0.0656853
0.0623397
0.0591067
0.0559836
0.0529679
0.0500577
0.0472504
0.0445432
0.0419337
0.0394194
0.0369984
0.0346671
0.0324243
0.0302669
0.0281941
0.0262027
0.0242911
0.0224577
0.0206998
0.0190186
0.0174102
0.0158744
0.0144105
0.0130183
0.0116955
0.0104434
0.00926204
0.00815123
0.00711198
0.00614661
0.00525805
0.0044548
0.00376942
0.00312056
0.00247922
0.00180142
0.00102848
0.0897709
0.0860144
0.0823577
0.0787986
0.0753355
0.0719682
0.0686953
0.0655151
0.0624262
0.0594272
0.0565164
0.0536926
0.0509535
0.0482971
0.0457211
0.0432254
0.040807
0.0384648
0.0361961
0.0340011
0.0318774
0.029824
0.0278396
0.0259234
0.0240746
0.022293
0.0205774
0.0189284
0.0173462
0.0158298
0.014381
0.0130003
0.0116893
0.0104507
0.00928792
0.0082075
0.00722527
0.00633043
0.00545176
0.00456051
0.00362139
0.00256772
0.00140134
0.091305
0.0878187
0.0844148
0.081089
0.0778402
0.074667
0.0715692
0.0685454
0.0655943
0.0627152
0.059907
0.0571692
0.0544999
0.0518976
0.0493623
0.0468915
0.0444845
0.0421403
0.0398586
0.0376376
0.0354764
0.0333752
0.0313336
0.0293504
0.0274267
0.0255619
0.0237568
0.0220119
0.0203276
0.0187061
0.0171489
0.0156582
0.0142387
0.0128947
0.0116352
0.0104829
0.00937207
0.00826672
0.00714154
0.00596617
0.0046971
0.00325332
0.00171554
0.0927839
0.0895555
0.0863868
0.083277
0.0802259
0.0772332
0.0742982
0.0714201
0.0685992
0.0658338
0.0631239
0.0604692
0.0578685
0.0553215
0.0528279
0.0503863
0.0479963
0.0456575
0.043369
0.0411308
0.0389429
0.0368053
0.0347181
0.0326814
0.0306955
0.0287619
0.0268814
0.0250554
0.0232863
0.0215759
0.0199282
0.0183476
0.0168404
0.0154181
0.0140816
0.0127743
0.0114654
0.0101322
0.00874989
0.00728445
0.00568371
0.00386552
0.00198743
0.0942326
0.0912241
0.0882683
0.0853569
0.0824886
0.0796622
0.0768777
0.0741351
0.0714346
0.0687757
0.0661585
0.0635827
0.0610482
0.0585552
0.0561031
0.0536926
0.0513235
0.0489941
0.0467046
0.0444554
0.0422479
0.0400828
0.0379601
0.03588
0.0338439
0.0318533
0.0299101
0.0280171
0.0261774
0.0243944
0.0226726
0.0210197
0.019448
0.0179372
0.0164496
0.0149587
0.0134437
0.0118819
0.0102453
0.00849773
0.00657965
0.00441218
0.0022253
0.0956027
0.0928084
0.090052
0.0873247
0.0846248
0.0819519
0.0793059
0.0766879
0.0740983
0.0715387
0.0690075
0.0665062
0.0640345
0.0615925
0.0591807
0.0568009
0.054455
0.0521397
0.049853
0.0475966
0.0453741
0.0431874
0.041038
0.0389258
0.0368491
0.0348115
0.0328166
0.0308678
0.0289706
0.0271288
0.0253488
0.0236359
0.0219683
0.0203212
0.0186712
0.0169989
0.0152835
0.0135007
0.0116202
0.00960337
0.00738691
0.00489869
0.00243532
0.0968737
0.0943025
0.0917347
0.0891771
0.0866351
0.0841028
0.0815835
0.0790788
0.0765905
0.0741225
0.071672
0.0692393
0.0668266
0.0644343
0.0620595
0.0597059
0.0573837
0.0550893
0.0528121
0.0505492
0.0483132
0.0461074
0.0439399
0.0418057
0.0396987
0.0376205
0.0355842
0.0335883
0.0316441
0.0297563
0.0279211
0.0261162
0.0243238
0.0225347
0.0207275
0.018883
0.0169788
0.0149891
0.0128794
0.0106059
0.00810699
0.00532813
0.00263136
0.0981462
0.0957271
0.0933217
0.0909154
0.0885232
0.0861173
0.0837123
0.0813131
0.0789118
0.0765306
0.0741554
0.0717842
0.0694276
0.0670842
0.0647497
0.0624085
0.0601027
0.0578385
0.0555885
0.0533155
0.0510677
0.048836
0.046651
0.0445104
0.0423927
0.0402688
0.0382065
0.0361631
0.0341763
0.0322348
0.030326
0.0284259
0.0264924
0.0245678
0.0226126
0.0206117
0.0185305
0.0163509
0.014038
0.0115211
0.00872896
0.00563995
0.00270824
0.000456709
0.000518694
0.000696403
0.000865701
0.00104021
0.00123482
0.00146561
0.00174581
0.00206339
0.00241206
0.00278944
0.00319418
0.00362599
0.00408448
0.00457013
0.00508324
0.00562447
0.00619393
0.00679256
0.00742063
0.00807884
0.00876773
0.00948773
0.01024
0.0110253
0.0118441
0.0126968
0.0135845
0.0145085
0.0154688
0.0164667
0.0175028
0.018578
0.019693
0.0208486
0.0220455
0.0232848
0.0245668
0.0258921
0.0272618
0.0286766
0.0301372
0.031646
0.000609463
0.000671542
0.00086375
0.00106672
0.00129493
0.00155997
0.00186697
0.00221759
0.00260285
0.00301613
0.00345525
0.00391933
0.0044082
0.00492171
0.00545925
0.00602154
0.00660861
0.00722052
0.00785729
0.00852004
0.00920813
0.00992245
0.0106633
0.011431
0.0122267
0.0130501
0.0139024
0.0147838
0.0156953
0.0166371
0.0176099
0.0186147
0.0196518
0.0207221
0.0218261
0.0229643
0.0241376
0.0253465
0.0265918
0.0278738
0.0291935
0.0305519
0.0319526
0.000757907
0.000822925
0.00104767
0.00130229
0.00159657
0.00193302
0.00230891
0.00272448
0.00317136
0.00364363
0.00413971
0.00465891
0.00520056
0.00576428
0.00634983
0.00695676
0.00758536
0.00823553
0.00890705
0.00960023
0.0103149
0.0110514
0.0118098
0.0125906
0.013394
0.0142207
0.0150704
0.0159442
0.0168421
0.017765
0.0187128
0.0196862
0.0206858
0.0217122
0.0227657
0.0238469
0.0249561
0.026094
0.0272612
0.0284582
0.0296851
0.0309426
0.0322312
0.000895077
0.000976203
0.00124737
0.0015616
0.00192161
0.0023223
0.00275909
0.00323439
0.00373662
0.00426236
0.00481003
0.00537871
0.0059678
0.0065764
0.00720439
0.0078512
0.00851636
0.00919974
0.00990122
0.0106205
0.0113577
0.0121127
0.0128856
0.0136765
0.0144859
0.0153134
0.0161597
0.0170248
0.0179092
0.0188129
0.0197366
0.0206802
0.0216443
0.0226295
0.0236358
0.0246636
0.0257135
0.0267856
0.0278805
0.0289983
0.0301389
0.031302
0.0324872
0.00102383
0.00113471
0.00145948
0.00183373
0.00225366
0.00271123
0.00320358
0.0037317
0.00428382
0.00485777
0.0054519
0.00606526
0.00669675
0.00734556
0.00801103
0.00869273
0.00939014
0.0101026
0.0108299
0.0115718
0.0123281
0.0130987
0.0138835
0.0146824
0.0154955
0.0163231
0.0171649
0.0180212
0.0188921
0.0197778
0.0206784
0.0215942
0.0225254
0.0234722
0.024435
0.0254136
0.0264087
0.0274205
0.0284489
0.0294941
0.0305556
0.031633
0.0327259
0.00114744
0.00129793
0.00167764
0.00210788
0.00258109
0.00308898
0.00363293
0.00420818
0.00480563
0.00542312
0.00605888
0.0067122
0.00738155
0.00806627
0.00876538
0.00947802
0.0102035
0.0109416
0.0116915
0.012453
0.0132259
0.0140098
0.0148045
0.0156098
0.0164258
0.0172521
0.0180891
0.0189365
0.0197945
0.0206631
0.0215422
0.0224321
0.0233327
0.0242442
0.0251667
0.0261005
0.0270455
0.0280019
0.0289696
0.0299485
0.0309385
0.0319394
0.0329537
0.00126868
0.00146589
0.00189797
0.00237816
0.00289808
0.00345136
0.00404197
0.00465945
0.00529759
0.00595428
0.00662773
0.00731697
0.00802048
0.00873725
0.00946645
0.0102069
0.0109576
0.0117185
0.0124885
0.0132675
0.0140546
0.01485
0.0156533
0.0164638
0.0172815
0.0181059
0.0189374
0.0197762
0.0206222
0.021475
0.0223345
0.0232002
0.024072
0.0249505
0.0258359
0.0267284
0.0276278
0.0285338
0.0294461
0.0303649
0.0312898
0.0322209
0.0331585
0.00138905
0.00162511
0.00210407
0.0026299
0.00319309
0.0037898
0.00442331
0.00508061
0.00575682
0.00644976
0.00715818
0.0078812
0.00861733
0.00936435
0.0101217
0.0108875
0.011661
0.0124422
0.0132302
0.0140246
0.0148247
0.0156296
0.0164405
0.0172551
0.0180713
0.0188912
0.0197168
0.0205476
0.0213828
0.022222
0.0230634
0.0239052
0.024748
0.025595
0.0264464
0.0273016
0.0281601
0.0290206
0.0298825
0.0307462
0.0316121
0.03248
0.0333507
0.00148992
0.00182102
0.00235796
0.00292514
0.00352803
0.00416621
0.0048357
0.00552368
0.0062292
0.00695265
0.00769595
0.00845886
0.00922844
0.0100012
0.0107841
0.0115629
0.0123523
0.0131512
0.0139498
0.0147557
0.015565
0.0163723
0.0171944
0.0180065
0.0188053
0.0196148
0.0204353
0.0212604
0.0220887
0.0229186
0.023744
0.0245548
0.0253624
0.0261805
0.0270012
0.0278239
0.0286472
0.0294671
0.0302824
0.0310954
0.0319073
0.0327185
0.0335292
4.80243e-05
0.000391149
0.000905657
0.00154812
0.00218688
0.00281858
0.0034455
0.00406481
0.00467357
0.00528108
0.00589244
0.00651122
0.0071403
0.00778332
0.00844095
0.00911327
0.00980163
0.0105068
0.0112312
0.0119764
0.0127445
0.0135373
0.0143581
0.0152083
0.01609
0.0170051
0.0179553
0.0189425
0.0199677
0.0210315
0.0221361
0.023282
0.0244711
0.0257035
0.0269792
0.0282976
0.0296579
0.0310614
0.0325089
0.0340004
0.0355316
0.0370978
0.0386887
7.38624e-06
0.000187998
0.000456541
0.000817384
0.00127826
0.00184569
0.00250884
0.00318297
0.00386531
0.00455564
0.00524717
0.00593332
0.00661125
0.00727832
0.00793761
0.00859322
0.0092489
0.00990838
0.0105751
0.0112524
0.0119439
0.0126534
0.013385
0.0141424
0.0149296
0.0157504
0.0166086
0.0175076
0.0184496
0.0194377
0.0204739
0.0215604
0.0226983
0.0238889
0.0251322
0.026428
0.0277755
0.029174
0.0306232
0.0321218
0.0336669
0.0352543
0.0368767
2.28503e-06
0.000143178
0.000322937
0.000577713
0.000899975
0.00129857
0.0017807
0.00234655
0.00299719
0.00373848
0.00451996
0.0052951
0.00605879
0.00680996
0.00754872
0.00827561
0.00899071
0.00969467
0.0103891
0.0110764
0.0117597
0.0124423
0.0131285
0.0138229
0.0145315
0.01526
0.0160147
0.0168018
0.0176274
0.0184974
0.0194172
0.0203915
0.0214239
0.0225177
0.023675
0.0248967
0.0261824
0.0275317
0.0289434
0.0304154
0.0319447
0.033527
0.0351561
3.32434e-06
0.000118187
0.000286622
0.000503632
0.000771256
0.00109795
0.00149113
0.0019562
0.00249613
0.00311429
0.00381429
0.00460025
0.00541783
0.00623632
0.00704692
0.00784708
0.00863604
0.00941287
0.0101772
0.0109287
0.0116671
0.012393
0.0131074
0.0138128
0.0145123
0.0152108
0.0159142
0.0166292
0.0173638
0.0181268
0.0189269
0.0197727
0.0206725
0.0216338
0.0226626
0.0237637
0.0249397
0.0261927
0.0275221
0.0289265
0.0304032
0.0319475
0.0335532
2.71651e-06
0.000115358
0.000259434
0.000451048
0.000688416
0.000975407
0.00131741
0.00172019
0.00218904
0.00272655
0.00333582
0.00402089
0.0047852
0.00562838
0.00649229
0.00735356
0.00820581
0.00904747
0.00987755
0.0106952
0.0114998
0.0122901
0.0130651
0.0138243
0.0145679
0.0152969
0.0160136
0.016722
0.0174278
0.0181383
0.0188627
0.0196112
0.0203951
0.0212259
0.0221148
0.023072
0.0241059
0.0252229
0.0264274
0.0277209
0.0291027
0.0305697
0.0321179
2.69825e-06
0.000108005
0.000244388
0.000417588
0.000633652
0.000893513
0.00120158
0.00156276
0.00198255
0.00246448
0.0030118
0.00362809
0.00431746
0.00508451
0.00593258
0.00682645
0.00772769
0.00862356
0.00951053
0.0103872
0.0112526
0.0121051
0.0129432
0.0137653
0.0145703
0.0153565
0.0161234
0.0168715
0.0176022
0.0183191
0.0190279
0.0197364
0.0204546
0.0211948
0.0219708
0.0227964
0.0236857
0.0246517
0.0257049
0.0268531
0.0281013
0.0294522
0.0309115
2.53957e-06
0.00010574
0.000236649
0.000392095
0.000591873
0.00083192
0.0011154
0.00144663
0.0018302
0.00227121
0.0027722
0.00333637
0.00396813
0.00467142
0.0054504
0.00630956
0.00723
0.00816615
0.00910062
0.0100281
0.0109466
0.0118544
0.0127501
0.0136318
0.0144975
0.0153453
0.016173
0.016979
0.017762
0.018522
0.0192605
0.019981
0.0206893
0.0213945
0.0221081
0.0228445
0.0236195
0.0244505
0.0253538
0.0263447
0.027436
0.0286384
0.0299666
2.44287e-06
0.000102814
0.000229787
0.000373738
0.000559943
0.000784215
0.00104869
0.00135688
0.00171291
0.00212147
0.00258614
0.00310984
0.00369636
0.00434942
0.00507342
0.00587289
0.0067522
0.00769793
0.00866562
0.00963529
0.0105994
0.0115555
0.0125021
0.0134371
0.0143587
0.0152646
0.016152
0.0170187
0.0178621
0.0186799
0.0194709
0.0202349
0.0209735
0.0216909
0.0223941
0.0230936
0.0238032
0.0245399
0.0253229
0.0261721
0.0271073
0.0281474
0.0293137
2.33413e-06
0.000101222
0.000225536
0.000360952
0.000534386
0.00074569
0.000994817
0.00128457
0.00161864
0.00200114
0.00243653
0.0029276
0.00347754
0.00408992
0.00476902
0.00551934
0.00634532
0.00725125
0.00822445
0.00922257
0.0102245
0.0112225
0.0122136
0.013196
0.0141676
0.015126
0.0160686
0.0169928
0.0178957
0.0187739
0.0196248
0.020446
0.021236
0.0219951
0.0227256
0.0234329
0.0241262
0.0248185
0.0255268
0.0262717
0.0270763
0.0279656
0.0289697
1.97551e-06
9.99196e-05
0.000222351
0.000351983
0.000513783
0.000713967
0.000950321
0.00122498
0.00154104
0.00190237
0.00231309
0.00277687
0.00329648
0.0038753
0.00451724
0.00522629
0.00600706
0.00686443
0.00780242
0.00880555
0.00983333
0.0108661
0.0118962
0.0129205
0.0139362
0.0149418
0.0159344
0.0169113
0.0178696
0.0188057
0.0197163
0.0205978
0.0214472
0.0222621
0.0230414
0.023786
0.0245003
0.0251918
0.0258727
0.0265599
0.0272755
0.0280467
0.02891
1.23858e-06
9.90295e-05
0.000220348
0.000345512
0.000497073
0.000687536
0.00091304
0.00117483
0.00147576
0.00181945
0.00220947
0.00265013
0.00314398
0.00369421
0.00430443
0.00497848
0.00572097
0.00653629
0.00742951
0.00840408
0.0094382
0.0104956
0.0115585
0.0126193
0.0136746
0.0147222
0.0157597
0.0167842
0.0177931
0.018783
0.0197499
0.0206902
0.0215999
0.0224751
0.0233127
0.0241107
0.024869
0.0255906
0.0262822
0.0269553
0.0276274
0.028324
0.0290826
1.21882e-06
9.84388e-05
0.000218556
0.000340414
0.000483909
0.000665253
0.000881165
0.00113209
0.00142028
0.00174893
0.00212153
0.00254206
0.00301385
0.00353941
0.00412233
0.00476643
0.00547575
0.0062547
0.00710824
0.00804116
0.00905489
0.0101214
0.0112083
0.0123003
0.0133905
0.0144756
0.0155533
0.016621
0.0176758
0.0187146
0.0197338
0.0207292
0.0216966
0.0226316
0.02353
0.0243877
0.0252023
0.0259728
0.026701
0.0273935
0.0280619
0.0287264
0.0294204
1.20292e-06
9.79093e-05
0.000217184
0.000336576
0.000473722
0.000646396
0.000853888
0.00109527
0.00137233
0.00168799
0.0020455
0.00244871
0.00290125
0.00340538
0.00396458
0.00458258
0.00526292
0.00601027
0.00682915
0.00772431
0.00870085
0.00975506
0.010854
0.01197
0.0130903
0.0142091
0.0153229
0.0164295
0.0175258
0.0186092
0.0196761
0.0207225
0.0217439
0.0227359
0.0236937
0.0246124
0.0254877
0.0263162
0.0270966
0.0278305
0.0285247
0.0291926
0.0298589
1.19377e-06
9.76758e-05
0.000216202
0.000333642
0.000465937
0.000630391
0.000830187
0.00106304
0.00133042
0.00163481
0.00197925
0.00236753
0.00280304
0.00328852
0.00382707
0.00442204
0.00507708
0.00579639
0.00658473
0.00744665
0.00838699
0.00941006
0.0105045
0.0116353
0.01278
0.0139283
0.0150746
0.0162162
0.0173504
0.0184742
0.0195845
0.0206775
0.0217489
0.0227941
0.0238084
0.0247863
0.0257225
0.0266125
0.0274523
0.0282405
0.028979
0.0296753
0.0303448
1.18428e-06
9.74688e-05
0.000215482
0.000331356
0.000459772
0.000616696
0.000809411
0.00103477
0.0012937
0.00158821
0.00192121
0.00229623
0.0027167
0.00318569
0.00370584
0.00428046
0.00491324
0.00560798
0.00636913
0.00720132
0.00810922
0.00909812
0.0101701
0.011303
0.0124649
0.0136377
0.014813
0.0159865
0.017155
0.0183157
0.0194656
0.0206014
0.0217187
0.0228133
0.0238803
0.0249141
0.0259093
0.0268602
0.0277618
0.02861
0.0294031
0.0301432
0.0308366
1.17994e-06
9.7374e-05
0.000214919
0.000329456
0.000454735
0.000605067
0.000791244
0.00100986
0.00126108
0.00154688
0.00186977
0.00223299
0.00264014
0.00309454
0.00359844
0.00415493
0.00476782
0.00544056
0.00617744
0.006983
0.00786217
0.00881967
0.00986044
0.0109806
0.0121501
0.013342
0.0145425
0.0157446
0.0169443
0.0181387
0.0193251
0.0204998
0.0216594
0.0227995
0.0239155
0.0250017
0.0260525
0.0270622
0.0280246
0.0289341
0.0297864
0.0305788
0.0313111
1.17426e-06
9.72548e-05
0.000214407
0.000327832
0.00045053
0.00059528
0.000775151
0.000987506
0.00123185
0.00150986
0.0018238
0.0021767
0.00257194
0.00301317
0.00350251
0.00404298
0.004638
0.00529103
0.00600629
0.0067882
0.0076413
0.00857045
0.00958103
0.0106764
0.0118418
0.0130457
0.0142666
0.0154941
0.0167223
0.0179476
0.0191673
0.020378
0.0215763
0.0227585
0.0239196
0.0250545
0.0261575
0.0272228
0.0282437
0.0292137
0.0301264
0.0309764
0.0317585
1.1763e-06
9.7308e-05
0.000214091
0.000326617
0.000447213
0.000587274
0.000760985
0.000967587
0.00120566
0.00147656
0.00178249
0.00212622
0.00251095
0.00294014
0.00341639
0.00394244
0.00452132
0.00515663
0.00585237
0.00661294
0.00744256
0.00834611
0.00932913
0.0103962
0.0115456
0.0127528
0.0139888
0.0152381
0.0164919
0.0177457
0.0189962
0.0202401
0.0214742
0.0226952
0.0238981
0.0250782
0.02623
0.0273474
0.0284238
0.0294522
0.0304255
0.0313362
0.0321773
1.17945e-06
9.74476e-05
0.000213845
0.000325574
0.000444322
0.000580528
0.00074846
0.000949679
0.00118201
0.0014464
0.00174507
0.0020805
0.00245569
0.002874
0.00333843
0.00385143
0.00441596
0.0050353
0.00571347
0.00645465
0.00726321
0.00814356
0.00910115
0.010141
0.0112669
0.0124675
0.0137123
0.0149791
0.0162557
0.0175356
0.0188146
0.0200892
0.0213567
0.0226135
0.0238552
0.0250773
0.0262746
0.0274409
0.0285698
0.0296542
0.0306865
0.0316588
0.0325635
1.18049e-06
9.75902e-05
0.000213664
0.00032461
0.000441792
0.000574784
0.000737221
0.000933293
0.00116036
0.00141899
0.00171095
0.00203875
0.00240532
0.00281385
0.00326754
0.00376877
0.00432016
0.00492503
0.00558726
0.00631089
0.00710009
0.0079595
0.0088941
0.00990895
0.0110094
0.0121942
0.0134403
0.0147199
0.0160161
0.0173196
0.0186247
0.0199281
0.0212266
0.0225165
0.0237944
0.0250556
0.0262952
0.0275075
0.0286859
0.0298233
0.0309123
0.0319444
0.0329118
1.18109e-06
9.76838e-05
0.000213441
0.0003237
0.00043956
0.000569819
0.000727194
0.000918471
0.00114066
0.00139387
0.00167978
0.00200068
0.00235938
0.00275885
0.00320267
0.00369305
0.00423241
0.00482406
0.00547183
0.00617943
0.00695095
0.00779116
0.00870489
0.00969712
0.010773
0.0119362
0.0131757
0.0144625
0.0157745
0.017099
0.0184284
0.0197584
0.0210857
0.0224069
0.0237186
0.0250163
0.0262954
0.0275507
0.0287754
0.0299629
0.0311055
0.0321946
0.0332214
1.18561e-06
9.78532e-05
0.000213311
0.00032301
0.000437702
0.000565469
0.000718186
0.000904911
0.00112251
0.00137074
0.001651
0.0019655
0.00231698
0.00270831
0.00314302
0.00362333
0.00415174
0.00473154
0.0053659
0.00605875
0.0068142
0.00763674
0.00853116
0.00950219
0.0105553
0.0116957
0.012921
0.0142089
0.0155326
0.0168751
0.0182267
0.0195816
0.0209359
0.0222865
0.0236298
0.0249618
0.026278
0.0275733
0.0288416
0.0300761
0.0312692
0.0324122
0.0334953
1.19012e-06
9.79843e-05
0.000213217
0.000322448
0.000436068
0.000561641
0.000710256
0.000892467
0.00110565
0.00134921
0.00162429
0.00193294
0.00227777
0.00266161
0.00308777
0.00355874
0.00407704
0.00464569
0.00526775
0.00594705
0.00668783
0.00749416
0.00837063
0.00932216
0.0103545
0.0114725
0.0126789
0.0139613
0.0152918
0.0166493
0.0180208
0.0193986
0.0207783
0.0221565
0.0235294
0.0248936
0.0262446
0.0275777
0.028887
0.0301657
0.0314065
0.0326008
0.0337393
1.19344e-06
9.81474e-05
0.000213178
0.000321942
0.000434585
0.000558305
0.000703254
0.000881119
0.00109023
0.00132937
0.00159956
0.00190269
0.00224133
0.00261819
0.00303639
0.00349881
0.00400771
0.004566
0.00517669
0.00584346
0.00657029
0.00736161
0.00822171
0.00915541
0.010168
0.0112649
0.0124506
0.0137213
0.0150536
0.0164226
0.0178112
0.0192101
0.0206136
0.0220177
0.0234186
0.0248132
0.0261971
0.0275656
0.0289136
0.0302343
0.0315204
0.0327635
0.0339535
1.2017e-06
9.8343e-05
0.000213155
0.000321459
0.000433225
0.000555325
0.000697017
0.000870575
0.00107569
0.00131065
0.00157625
0.00187435
0.00220723
0.0025776
0.0029885
0.00344284
0.00394303
0.0044916
0.00509166
0.00574675
0.0064609
0.00723806
0.00808279
0.00899975
0.009994
0.0110711
0.0122363
0.0134907
0.0148194
0.0161956
0.0175988
0.0190168
0.0204424
0.0218708
0.0232984
0.0247216
0.0261365
0.0275387
0.028923
0.0302837
0.0316134
0.0329045
0.0341478
1.20317e-06
9.84492e-05
0.000213051
0.000320934
0.000431918
0.000552558
0.000691406
0.000860845
0.00106214
0.00129315
0.00155442
0.0018477
0.00217515
0.00253941
0.00294343
0.00339021
0.00388212
0.00442169
0.00501179
0.00565599
0.00635823
0.00712223
0.00795262
0.00885389
0.00983102
0.0108897
0.0120348
0.0132707
0.0145904
0.0159696
0.0173843
0.018819
0.020265
0.0217164
0.0231691
0.0246193
0.0260636
0.0274974
0.028916
0.030314
0.031685
0.0330217
0.0343185
1.20766e-06
9.86231e-05
0.000212999
0.000320521
0.000430825
0.000550143
0.000686416
0.000851825
0.00104944
0.0012767
0.00153391
0.00182261
0.00214495
0.00250348
0.00290105
0.00334084
0.00382494
0.00435596
0.00493673
0.00557065
0.00626152
0.00701315
0.00783007
0.00871662
0.00967771
0.0107188
0.011845
0.0130617
0.0143682
0.0157457
0.0171683
0.0186175
0.0200821
0.0215548
0.0230309
0.0245067
0.0259785
0.0274422
0.0288931
0.030326
0.0317342
0.0331101
0.0344418
1.21345e-06
9.87725e-05
0.000212947
0.000320133
0.000429763
0.000547841
0.000681813
0.000843456
0.00103753
0.00126121
0.00151455
0.00179889
0.00211639
0.00246954
0.00286106
0.00329417
0.00377094
0.00429389
0.00486585
0.00549014
0.0061703
0.00691025
0.00771442
0.00858712
0.00953311
0.0105577
0.011666
0.0128637
0.0141539
0.0155248
0.0169516
0.0184128
0.019894
0.0213865
0.0228846
0.0243843
0.0258822
0.027374
0.0288553
0.0303209
0.0317647
0.0331798
0.03456
1.21906e-06
9.89191e-05
0.000212981
0.000319861
0.000428854
0.000545765
0.000677599
0.000835658
0.00102631
0.00124654
0.00149619
0.00177651
0.00208936
0.00243734
0.00282315
0.00324975
0.00371955
0.00423484
0.0047985
0.00541367
0.00608378
0.00681288
0.00760501
0.00846445
0.00939607
0.0104049
0.0114962
0.0126759
0.0139483
0.0153086
0.016736
0.0182058
0.0197013
0.0212118
0.0227307
0.0242533
0.0257755
0.0272939
0.0288038
0.0303004
0.0317776
0.0332285
0.0346429
1.22425e-06
9.9095e-05
0.000212934
0.000319512
0.00042794
0.000543822
0.000673772
0.000828437
0.00101568
0.00123258
0.00147869
0.00175521
0.00206373
0.00240672
0.00278711
0.00320768
0.00367077
0.00417886
0.00473465
0.00534111
0.00600169
0.00672033
0.00750095
0.00834784
0.00926584
0.0102598
0.0113352
0.0124976
0.0137518
0.0150984
0.016522
0.0179974
0.0195048
0.0210317
0.0225699
0.0241138