/*--------------------------------*- C++ -*----------------------------------*\
| =========                 |                                                 |
| \\      /  F ield         | OpenFOAM: The Open Source CFD Toolbox           |
|  \\    /   O peration     | Version:  2.3.0                                 |
|   \\  /    A nd           | Web:      www.OpenFOAM.org                      |
|    \\/     M anipulation  |                                                 |
\*---------------------------------------------------------------------------*/
FoamFile
{
    version     2.0;
    format      ascii;
    class       volScalarField;
    location    "3000";
    object      nuTilda;
}
// * * * * * * * * * * * * * * * * * * * * * * * * * * * * * * * * * * * * * //

dimensions      [0 2 -1 0 0 0 0];

internalField   nonuniform List<scalar> 
38388
(
0.0406236
0.039097
0.0375984
0.0361299
0.0346961
0.0333022
0.0319495
0.0306353
0.0293567
0.0281119
0.0269023
0.0257281
0.02459
0.0234872
0.0224182
0.0213812
0.0203757
0.0194008
0.0184552
0.0175383
0.0166493
0.0157874
0.0149519
0.0141401
0.0133525
0.0125862
0.0118396
0.0111111
0.0103979
0.00969904
0.00901145
0.00833472
0.00766855
0.00701687
0.0063855
0.00578383
0.00522726
0.00472423
0.00428814
0.00391948
0.0036282
0.00343436
0.00342677
0.0426932
0.041295
0.0399226
0.0385777
0.0372639
0.0359859
0.0347473
0.0335477
0.032378
0.0312335
0.0301136
0.02902
0.0279544
0.0269183
0.0259112
0.0249313
0.0239768
0.0230463
0.0221385
0.0212541
0.0203926
0.0195539
0.0187389
0.0179474
0.017181
0.0164395
0.0157263
0.0150406
0.0143871
0.013768
0.0131849
0.0126418
0.0121384
0.0116741
0.0112473
0.0108577
0.0105053
0.0101944
0.00993123
0.00973701
0.00963303
0.0096704
0.00997112
0.044654
0.0433996
0.0421661
0.0409542
0.0397647
0.0385987
0.0374564
0.0363379
0.0352423
0.034169
0.0331172
0.0320883
0.0310841
0.0301058
0.0291545
0.0282302
0.0273307
0.0264527
0.025594
0.0247542
0.0239329
0.0231308
0.0223483
0.021586
0.0208435
0.0201227
0.0194233
0.0187473
0.0180954
0.0174702
0.016878
0.0163258
0.015828
0.0154011
0.015049
0.014767
0.0145587
0.0144276
0.0143842
0.0144374
0.014594
0.0148612
0.0152416
0.0464648
0.0453437
0.0442397
0.0431526
0.0420823
0.0410286
0.0399919
0.0389724
0.0379698
0.0369843
0.0360162
0.0350652
0.0341316
0.0332164
0.0323199
0.0314417
0.0305819
0.0297393
0.0289151
0.0281082
0.0273209
0.0265523
0.0258043
0.0250781
0.0243752
0.0236964
0.0230456
0.022423
0.0218321
0.0212772
0.020762
0.0202916
0.0198715
0.0195086
0.019208
0.0189746
0.018814
0.0187325
0.0187344
0.0188274
0.019014
0.0192977
0.0196764
0.0481171
0.0471145
0.0461256
0.0451495
0.0441856
0.0432341
0.0422946
0.0413672
0.0404524
0.0395505
0.0386614
0.0377852
0.0369226
0.0360743
0.0352398
0.0344198
0.0336141
0.032823
0.0320466
0.0312861
0.0305421
0.0298162
0.029109
0.028423
0.0277588
0.0271195
0.0265056
0.0259211
0.0253673
0.0248483
0.0243687
0.0239331
0.0235451
0.0232107
0.0229359
0.0227255
0.0225846
0.0225202
0.0225367
0.0226383
0.0228298
0.0231117
0.0234836
0.0496147
0.0487176
0.0478295
0.0469502
0.0460793
0.0452166
0.0443626
0.0435168
0.0426794
0.0418514
0.0410319
0.0402216
0.0394218
0.0386327
0.0378545
0.0370879
0.0363329
0.0355899
0.0348587
0.0341409
0.0334366
0.032748
0.0320762
0.0314238
0.0307921
0.0301828
0.0295989
0.0290422
0.0285151
0.0280205
0.0275637
0.0271479
0.0267785
0.0264607
0.0262006
0.0260019
0.0258713
0.0258138
0.0258348
0.0259389
0.0261292
0.0264071
0.0267725
0.0509707
0.0501655
0.0493644
0.0485685
0.0477784
0.0469933
0.0462129
0.0454374
0.044667
0.0439033
0.0431448
0.042392
0.0416455
0.0409065
0.0401767
0.0394558
0.0387446
0.0380436
0.0373528
0.0366714
0.0360017
0.035345
0.0347031
0.0340779
0.0334723
0.0328874
0.0323265
0.0317923
0.0312869
0.0308118
0.0303712
0.0299702
0.0296133
0.0293067
0.0290552
0.0288646
0.0287394
0.0286853
0.0287076
0.02881
0.0289976
0.0292709
0.0296304
0.0521975
0.051473
0.050746
0.0500215
0.049301
0.048584
0.0478665
0.0471524
0.0464382
0.0457301
0.045025
0.0443222
0.0436217
0.042926
0.0422356
0.0415531
0.0408784
0.0402125
0.039556
0.038908
0.0382685
0.0376388
0.0370218
0.0364199
0.0358346
0.0352683
0.0347253
0.0342091
0.0337231
0.0332656
0.0328386
0.0324489
0.0321022
0.0318026
0.0315575
0.0313723
0.0312513
0.0312006
0.031222
0.0313211
0.0315037
0.0317726
0.0321272
0.0533165
0.0526602
0.0519916
0.0513255
0.0506604
0.0500068
0.0493416
0.0486898
0.0480161
0.0473523
0.0466931
0.0460335
0.0453731
0.0447162
0.044057
0.0434044
0.0427581
0.0421183
0.0414885
0.0408695
0.0402578
0.0396522
0.0390557
0.0384742
0.0379084
0.0373583
0.0368275
0.0363236
0.0358515
0.0354169
0.0350027
0.0346233
0.0342869
0.0339945
0.0337524
0.0335757
0.0334547
0.0334122
0.0334356
0.0335286
0.0337051
0.0339689
0.0343207
0.00410537
0.00540959
0.00640157
0.00744133
0.00854925
0.00971709
0.010932
0.012183
0.0134632
0.0147678
0.0160935
0.0174369
0.0187969
0.0201722
0.0215616
0.0229672
0.0243852
0.0258172
0.0272612
0.0287184
0.030188
0.0316702
0.0331643
0.0346707
0.0361888
0.0377182
0.0392591
0.0408111
0.0423741
0.0439477
0.0455313
0.0471244
0.0487269
0.0503383
0.0519579
0.0535849
0.0552188
0.0568589
0.0585048
0.0601554
0.0618103
0.0634682
0.0651245
0.0104933
0.0111695
0.0119487
0.0128254
0.013792
0.0148332
0.0159394
0.0170982
0.0183008
0.019537
0.0208019
0.0220911
0.0233989
0.0247214
0.0260579
0.0274048
0.0287616
0.0301265
0.0315005
0.0328815
0.0342696
0.0356647
0.0370661
0.0384741
0.0398878
0.0413075
0.0427329
0.0441639
0.0456004
0.0470422
0.0484889
0.0499408
0.0513974
0.0528587
0.0543242
0.0557937
0.057267
0.0587437
0.0602232
0.0617057
0.0631907
0.0646784
0.0661663
0.0157288
0.0163203
0.0170166
0.0178097
0.0186893
0.0196446
0.0206665
0.0217437
0.0228673
0.0240292
0.0252217
0.0264394
0.027677
0.0289311
0.0301978
0.0314753
0.0327604
0.0340524
0.0353504
0.0366528
0.0379592
0.0392683
0.0405807
0.0418947
0.043211
0.0445294
0.0458494
0.0471708
0.0484937
0.0498179
0.0511434
0.0524704
0.0537987
0.0551282
0.0564587
0.0577903
0.0591231
0.0604567
0.0617908
0.0631254
0.0644604
0.0657954
0.0671253
0.0201477
0.020713
0.0213737
0.0221211
0.0229503
0.0238521
0.024817
0.0258367
0.0269013
0.0280043
0.0291383
0.0302973
0.0314764
0.0326706
0.0338771
0.0350928
0.0363147
0.0375415
0.0387716
0.0400043
0.0412372
0.0424704
0.0437034
0.0449355
0.0461664
0.0473958
0.0486234
0.0498491
0.0510731
0.0522953
0.0535156
0.0547342
0.055951
0.057166
0.0583796
0.0595915
0.0608022
0.0620111
0.0632185
0.0644241
0.0656279
0.066829
0.0680239
0.0239434
0.0244921
0.025129
0.025849
0.0266454
0.0275103
0.0284355
0.0294129
0.0304343
0.0314919
0.0325797
0.0336917
0.0348221
0.0359669
0.037122
0.0382851
0.0394523
0.0406226
0.0417944
0.0429656
0.0441356
0.0453033
0.0464678
0.0476284
0.0487853
0.0499377
0.0510856
0.0522289
0.0533676
0.0545017
0.0556312
0.0567561
0.0578768
0.0589932
0.0601057
0.0612141
0.0623186
0.0634195
0.0645166
0.06561
0.0666998
0.0677858
0.0688675
0.0272235
0.0277605
0.0283815
0.0290816
0.0298542
0.0306929
0.0315881
0.0325335
0.0335214
0.0345439
0.0355948
0.0366678
0.0377585
0.0388622
0.0399747
0.0410927
0.0422141
0.0433361
0.0444576
0.0455766
0.0466929
0.0478043
0.0489099
0.0500093
0.0511023
0.0521888
0.0532686
0.0543412
0.0554065
0.0564648
0.057516
0.0585604
0.0595982
0.0606297
0.061655
0.0626741
0.0636869
0.0646939
0.0656951
0.0666907
0.0676811
0.0686664
0.0696469
0.0300745
0.0306022
0.0312115
0.0318967
0.0326514
0.0334688
0.0343414
0.0352615
0.0362231
0.0372176
0.0382386
0.0392799
0.0403368
0.0414057
0.0424826
0.0435632
0.0446449
0.0457258
0.0468042
0.0478795
0.0489496
0.050013
0.0510679
0.0521144
0.0531529
0.0541826
0.0552042
0.0562161
0.0572183
0.058211
0.0591949
0.0601701
0.0611366
0.0620947
0.063045
0.0639867
0.0649199
0.0658454
0.0667633
0.0676735
0.068577
0.069474
0.0703628
0.0325652
0.0330847
0.0336849
0.0343595
0.0351
0.0358994
0.0367519
0.0376535
0.0385937
0.0395652
0.0405611
0.0415758
0.0426044
0.043644
0.0446911
0.0457397
0.0467872
0.0478322
0.0488742
0.0499121
0.0509449
0.0519666
0.0529761
0.0539763
0.0549694
0.0559499
0.0569229
0.0578811
0.0588292
0.0597642
0.0606904
0.0616063
0.0625111
0.0634063
0.0642923
0.0651668
0.0660303
0.066885
0.0677308
0.0685656
0.0693926
0.0702126
0.0710209
0.0347532
0.0352628
0.0358563
0.0365246
0.0372559
0.0380388
0.038868
0.0397563
0.0406771
0.0416305
0.0426048
0.0435947
0.044599
0.045616
0.0466405
0.0476582
0.0486764
0.0496885
0.0506993
0.0517068
0.052711
0.0536913
0.054659
0.0556208
0.0565814
0.057513
0.0584533
0.0593547
0.0602622
0.0611412
0.0620226
0.0628866
0.0637374
0.0645801
0.0654116
0.0662251
0.067028
0.0678235
0.0686084
0.0693744
0.0701344
0.0708884
0.0716352
0.0866344
0.0822577
0.0780318
0.0739513
0.0700153
0.0662229
0.0625712
0.0590573
0.0556796
0.0524349
0.04932
0.0463312
0.0434655
0.0407196
0.0380895
0.0355716
0.0331639
0.0308624
0.0286624
0.0265622
0.024559
0.02265
0.0208309
0.0190997
0.0174541
0.0158904
0.0144082
0.0130041
0.0116767
0.0104237
0.00924415
0.00813499
0.00709686
0.00612856
0.00522928
0.00439856
0.00363693
0.00294611
0.00232645
0.00178469
0.00136688
0.000978359
0.000575038
0.0882088
0.0841555
0.0802248
0.0764132
0.0727203
0.0691448
0.0656853
0.0623397
0.0591067
0.0559836
0.0529679
0.0500577
0.0472504
0.0445432
0.0419337
0.0394194
0.0369984
0.0346671
0.0324243
0.0302669
0.0281942
0.0262027
0.0242911
0.0224577
0.0206998
0.0190186
0.0174102
0.0158744
0.0144105
0.0130183
0.0116955
0.0104434
0.00926205
0.00815125
0.00711201
0.00614665
0.0052581
0.00445487
0.00376952
0.0031207
0.00247945
0.00180185
0.00102978
0.0897709
0.0860144
0.0823577
0.0787986
0.0753355
0.0719682
0.0686953
0.0655151
0.0624262
0.0594272
0.0565165
0.0536926
0.0509535
0.0482971
0.0457211
0.0432254
0.040807
0.0384648
0.0361961
0.0340011
0.0318774
0.029824
0.0278396
0.0259234
0.0240746
0.022293
0.0205774
0.0189284
0.0173462
0.0158298
0.014381
0.0130003
0.0116894
0.0104507
0.00928794
0.00820752
0.00722529
0.00633046
0.00545181
0.00456058
0.00362149
0.00256793
0.00140205
0.091305
0.0878187
0.0844148
0.081089
0.0778402
0.074667
0.0715692
0.0685454
0.0655943
0.0627152
0.059907
0.0571692
0.0544999
0.0518976
0.0493623
0.0468915
0.0444845
0.0421403
0.0398586
0.0376376
0.0354764
0.0333752
0.0313336
0.0293504
0.0274267
0.0255619
0.0237568
0.0220119
0.0203276
0.0187061
0.0171489
0.0156582
0.0142387
0.0128947
0.0116352
0.010483
0.00937209
0.00826674
0.00714157
0.00596621
0.00469717
0.00325345
0.00171601
0.0927839
0.0895555
0.0863868
0.083277
0.0802259
0.0772332
0.0742982
0.0714201
0.0685992
0.0658338
0.0631239
0.0604692
0.0578685
0.0553215
0.0528279
0.0503863
0.0479963
0.0456575
0.043369
0.0411308
0.0389429
0.0368053
0.0347181
0.0326814
0.0306955
0.0287619
0.0268814
0.0250554
0.0232863
0.0215759
0.0199282
0.0183476
0.0168404
0.0154182
0.0140816
0.0127743
0.0114654
0.0101322
0.00874991
0.00728448
0.00568375
0.00386561
0.00198778
0.0942326
0.0912241
0.0882683
0.0853569
0.0824886
0.0796622
0.0768777
0.0741351
0.0714346
0.0687757
0.0661585
0.0635827
0.0610482
0.0585552
0.0561031
0.0536926
0.0513235
0.0489941
0.0467046
0.0444554
0.0422479
0.0400828
0.0379601
0.03588
0.0338439
0.0318533
0.0299101
0.0280171
0.0261774
0.0243944
0.0226726
0.0210197
0.019448
0.0179372
0.0164496
0.0149587
0.0134437
0.0118819
0.0102454
0.00849775
0.00657968
0.00441225
0.00222558
0.0956027
0.0928084
0.090052
0.0873247
0.0846248
0.0819519
0.0793059
0.0766879
0.0740983
0.0715387
0.0690075
0.0665062
0.0640345
0.0615925
0.0591807
0.0568009
0.054455
0.0521397
0.049853
0.0475966
0.0453741
0.0431874
0.041038
0.0389258
0.0368491
0.0348115
0.0328166
0.0308678
0.0289706
0.0271288
0.0253488
0.0236359
0.0219683
0.0203212
0.0186712
0.0169989
0.0152835
0.0135007
0.0116202
0.00960339
0.00738693
0.00489874
0.00243555
0.0968737
0.0943025
0.0917347
0.0891771
0.0866351
0.0841028
0.0815835
0.0790788
0.0765905
0.0741225
0.071672
0.0692393
0.0668266
0.0644343
0.0620595
0.0597059
0.0573837
0.0550893
0.0528121
0.0505492
0.0483132
0.0461074
0.0439399
0.0418057
0.0396987
0.0376205
0.0355842
0.0335883
0.0316441
0.0297563
0.0279211
0.0261162
0.0243238
0.0225347
0.0207275
0.018883
0.0169788
0.0149891
0.0128794
0.0106059
0.00810701
0.00532818
0.00263156
0.0981462
0.0957271
0.0933217
0.0909154
0.0885232
0.0861173
0.0837123
0.0813131
0.0789118
0.0765306
0.0741554
0.0717842
0.0694276
0.0670842
0.0647497
0.0624085
0.0601027
0.0578385
0.0555885
0.0533155
0.0510677
0.048836
0.046651
0.0445104
0.0423927
0.0402688
0.0382065
0.0361631
0.0341763
0.0322348
0.030326
0.0284259
0.0264924
0.0245679
0.0226126
0.0206117
0.0185305
0.0163509
0.014038
0.0115211
0.00872897
0.00564
0.00270843
0.000463056
0.000523678
0.000699214
0.000867531
0.00104148
0.00123572
0.00146626
0.00174626
0.00206372
0.00241229
0.00278962
0.00319431
0.00362609
0.00408456
0.00457019
0.0050833
0.00562452
0.00619397
0.00679259
0.00742065
0.00807886
0.00876775
0.00948774
0.0102401
0.0110253
0.0118441
0.0126968
0.0135846
0.0145085
0.0154688
0.0164667
0.0175028
0.0185781
0.019693
0.0208486
0.0220455
0.0232848
0.0245668
0.0258921
0.0272618
0.0286766
0.0301372
0.031646
0.000613112
0.00067456
0.000865588
0.00106793
0.00129575
0.00156054
0.00186737
0.00221787
0.00260306
0.00301629
0.00345537
0.00391942
0.00440827
0.00492176
0.00545929
0.00602158
0.00660864
0.00722055
0.00785731
0.00852006
0.00920815
0.00992247
0.0106633
0.0114311
0.0122267
0.0130502
0.0139025
0.0147838
0.0156953
0.0166371
0.0176099
0.0186147
0.0196519
0.0207221
0.0218261
0.0229643
0.0241376
0.0253465
0.0265918
0.0278738
0.0291935
0.0305519
0.0319526
0.000760286
0.000824947
0.00104893
0.00130311
0.00159711
0.00193339
0.00230917
0.00272467
0.00317149
0.00364373
0.0041398
0.00465897
0.00520061
0.00576432
0.00634987
0.00695679
0.00758539
0.00823555
0.00890706
0.00960025
0.0103149
0.0110515
0.0118098
0.0125906
0.0133941
0.0142207
0.0150704
0.0159442
0.0168421
0.017765
0.0187128
0.0196862
0.0206858
0.0217122
0.0227657
0.0238469
0.0249561
0.026094
0.0272612
0.0284582
0.0296851
0.0309426
0.0322312
0.000896789
0.000977644
0.00124826
0.00156216
0.00192198
0.00232256
0.00275927
0.00323452
0.00373672
0.00426243
0.00481009
0.00537876
0.00596784
0.00657644
0.00720442
0.00785122
0.00851638
0.00919976
0.00990123
0.0106205
0.0113577
0.0121127
0.0128856
0.0136765
0.0144859
0.0153134
0.0161597
0.0170248
0.0179092
0.0188129
0.0197366
0.0206802
0.0216443
0.0226295
0.0236358
0.0246636
0.0257135
0.0267856
0.0278805
0.0289983
0.0301389
0.031302
0.0324872
0.00102515
0.00113578
0.00146012
0.00183415
0.00225393
0.00271142
0.00320371
0.0037318
0.0042839
0.00485783
0.00545194
0.0060653
0.00669678
0.00734559
0.00801106
0.00869275
0.00939016
0.0101026
0.0108299
0.0115718
0.0123281
0.0130987
0.0138835
0.0146824
0.0154955
0.0163232
0.0171649
0.0180212
0.0188921
0.0197778
0.0206784
0.0215942
0.0225254
0.0234722
0.024435
0.0254136
0.0264087
0.0274205
0.0284489
0.0294941
0.0305556
0.031633
0.0327259
0.00114848
0.00129875
0.00167812
0.00210819
0.0025813
0.00308912
0.00363304
0.00420826
0.00480569
0.00542316
0.00605892
0.00671223
0.00738158
0.00806629
0.0087654
0.00947803
0.0102035
0.0109417
0.0116916
0.012453
0.013226
0.0140098
0.0148045
0.0156098
0.0164258
0.0172521
0.0180891
0.0189365
0.0197945
0.0206631
0.0215422
0.0224321
0.0233327
0.0242442
0.0251667
0.0261005
0.0270455
0.0280019
0.0289696
0.0299485
0.0309385
0.0319394
0.0329537
0.00126954
0.00146654
0.00189836
0.0023784
0.00289825
0.00345148
0.00404206
0.00465951
0.00529764
0.00595432
0.00662776
0.007317
0.0080205
0.00873726
0.00946646
0.0102069
0.0109577
0.0117185
0.0124885
0.0132675
0.0140546
0.01485
0.0156533
0.0164638
0.0172815
0.0181059
0.0189374
0.0197762
0.0206222
0.021475
0.0223345
0.0232002
0.024072
0.0249505
0.0258359
0.0267285
0.0276278
0.0285338
0.0294461
0.0303649
0.0312898
0.0322209
0.0331585
0.00138976
0.00162563
0.00210438
0.0026301
0.00319322
0.00378989
0.00442338
0.00508066
0.00575686
0.00644979
0.00715821
0.00788123
0.00861735
0.00936437
0.0101217
0.0108875
0.011661
0.0124423
0.0132302
0.0140246
0.0148248
0.0156296
0.0164405
0.0172551
0.0180713
0.0188912
0.0197168
0.0205476
0.0213828
0.022222
0.0230634
0.0239052
0.024748
0.025595
0.0264464
0.0273016
0.0281601
0.0290206
0.0298825
0.0307462
0.0316121
0.03248
0.0333507
0.00149054
0.00182144
0.00235821
0.0029253
0.00352814
0.00416629
0.00483576
0.00552373
0.00622923
0.00695268
0.00769597
0.00845888
0.00922846
0.0100012
0.0107841
0.0115629
0.0123523
0.0131512
0.0139498
0.0147557
0.015565
0.0163723
0.0171944
0.0180065
0.0188053
0.0196148
0.0204353
0.0212604
0.0220887
0.0229186
0.023744
0.0245548
0.0253624
0.0261805
0.0270012
0.0278239
0.0286472
0.0294671
0.0302824
0.0310954
0.0319073
0.0327185
0.0335292
0.000105016
0.000399604
0.00090733
0.00154869
0.00218717
0.00281876
0.00344562
0.00406489
0.00467363
0.00528113
0.00589248
0.00651125
0.00714033
0.00778334
0.00844097
0.00911329
0.00980165
0.0105068
0.0112312
0.0119764
0.0127445
0.0135374
0.0143581
0.0152083
0.01609
0.0170052
0.0179553
0.0189425
0.0199677
0.0210315
0.0221361
0.023282
0.0244711
0.0257035
0.0269792
0.0282976
0.029658
0.0310614
0.0325089
0.0340004
0.0355316
0.0370978
0.0386887
5.76834e-05
0.00021428
0.00046289
0.000819434
0.0012791
0.00184609
0.00250906
0.00318311
0.00386541
0.00455571
0.00524722
0.00593336
0.00661128
0.00727834
0.00793763
0.00859324
0.00924891
0.0099084
0.0105751
0.0112524
0.0119439
0.0126534
0.013385
0.0141424
0.0149296
0.0157504
0.0166086
0.0175076
0.0184496
0.0194377
0.020474
0.0215604
0.0226983
0.0238889
0.0251322
0.026428
0.0277755
0.029174
0.0306232
0.0321218
0.0336669
0.0352543
0.0368767
3.84692e-05
0.000177563
0.000334779
0.00058176
0.000901669
0.00129938
0.00178114
0.0023468
0.00299734
0.00373858
0.00452003
0.00529515
0.00605883
0.00680999
0.00754875
0.00827563
0.00899072
0.00969468
0.0103891
0.0110765
0.0117597
0.0124423
0.0131285
0.013823
0.0145315
0.01526
0.0160147
0.0168018
0.0176274
0.0184974
0.0194172
0.0203915
0.0214239
0.0225177
0.023675
0.0248967
0.0261824
0.0275318
0.0289434
0.0304154
0.0319447
0.033527
0.0351561
3.78397e-05
0.000157655
0.000301038
0.000508901
0.000773554
0.00109909
0.00149175
0.00195656
0.00249635
0.00311443
0.00381438
0.00460031
0.00541788
0.00623636
0.00704695
0.0078471
0.00863606
0.00941289
0.0101772
0.0109287
0.0116671
0.012393
0.0131074
0.0138128
0.0145123
0.0152108
0.0159142
0.0166292
0.0173638
0.0181268
0.0189269
0.0197727
0.0206725
0.0216338
0.0226626
0.0237637
0.0249397
0.0261927
0.0275221
0.0289265
0.0304032
0.0319475
0.0335532
3.57125e-05
0.000155505
0.000276287
0.000457539
0.000691291
0.000976851
0.00131821
0.00172065
0.00218933
0.00272673
0.00333594
0.00402098
0.00478526
0.00562843
0.00649232
0.00735358
0.00820583
0.00904749
0.00987757
0.0106953
0.0114998
0.0122901
0.0130651
0.0138243
0.0145679
0.0152969
0.0160137
0.016722
0.0174278
0.0181383
0.0188627
0.0196112
0.0203951
0.0212259
0.0221148
0.023072
0.0241059
0.0252229
0.0264274
0.0277209
0.0291027
0.0305698
0.0321179
3.51409e-05
0.000149873
0.000262815
0.000425082
0.000637033
0.000895232
0.00120253
0.00156332
0.0019829
0.0024647
0.00301196
0.00362819
0.00431754
0.00508456
0.00593262
0.00682648
0.00772771
0.00862358
0.00951054
0.0103872
0.0112526
0.0121051
0.0129432
0.0137653
0.0145703
0.0153565
0.0161234
0.0168715
0.0176022
0.0183191
0.0190279
0.0197364
0.0204546
0.0211948
0.0219708
0.0227965
0.0236857
0.0246517
0.0257049
0.0268531
0.0281013
0.0294522
0.0309115
3.4523e-05
0.000148174
0.000255956
0.000400507
0.000595735
0.000833899
0.00111651
0.00144728
0.00183061
0.00227148
0.00277238
0.00333649
0.00396821
0.00467148
0.00545044
0.00630959
0.00723002
0.00816618
0.00910063
0.0100281
0.0109466
0.0118544
0.0127501
0.0136318
0.0144975
0.0153453
0.016173
0.016979
0.017762
0.018522
0.0192605
0.019981
0.0206893
0.0213945
0.0221082
0.0228445
0.0236195
0.0244505
0.0253539
0.0263448
0.027436
0.0286384
0.0299666
3.41746e-05
0.000146014
0.000249935
0.000382913
0.000564243
0.000786439
0.00104994
0.00135763
0.00171338
0.00212178
0.00258634
0.00310999
0.00369646
0.0043495
0.00507347
0.00587293
0.00675223
0.00769796
0.00866564
0.0096353
0.0105994
0.0115555
0.0125021
0.0134371
0.0143587
0.0152646
0.016152
0.0170187
0.0178621
0.0186799
0.0194709
0.0202349
0.0209735
0.0216909
0.0223941
0.0230936
0.0238032
0.0245399
0.0253229
0.0261721
0.0271073
0.0281474
0.0293137
3.39051e-05
0.000144767
0.000246209
0.000370714
0.000539091
0.000748147
0.000996205
0.00128541
0.00161916
0.00200148
0.00243677
0.00292776
0.00347765
0.00409
0.00476908
0.00551939
0.00634535
0.00725127
0.00822447
0.00922259
0.0102245
0.0112225
0.0122136
0.013196
0.0141677
0.015126
0.0160686
0.0169928
0.0178958
0.018774
0.0196248
0.020446
0.021236
0.0219951
0.0227256
0.0234329
0.0241262
0.0248185
0.0255268
0.0262717
0.0270763
0.0279656
0.0289697
3.48893e-05
0.000144329
0.000243506
0.000362197
0.000518857
0.000716643
0.000951842
0.0012259
0.00154162
0.00190275
0.00231335
0.00277705
0.00329661
0.00387539
0.00451731
0.00522634
0.0060071
0.00686446
0.00780244
0.00880556
0.00983335
0.0108661
0.0118962
0.0129205
0.0139362
0.0149418
0.0159344
0.0169113
0.0178696
0.0188057
0.0197163
0.0205978
0.0214472
0.0222621
0.0230414
0.023786
0.0245003
0.0251918
0.0258727
0.0265599
0.0272755
0.0280467
0.02891
4.58969e-05
0.000145513
0.000241949
0.00035608
0.000502479
0.000690419
0.000914687
0.00117582
0.00147639
0.00181986
0.00220975
0.00265033
0.00314412
0.00369431
0.0043045
0.00497854
0.00572101
0.00653632
0.00742953
0.0084041
0.00943821
0.0104956
0.0115585
0.0126193
0.0136746
0.0147222
0.0157597
0.0167842
0.0177931
0.018783
0.0197499
0.0206902
0.0215999
0.0224751
0.0233127
0.0241107
0.024869
0.0255907
0.0262822
0.0269553
0.0276275
0.028324
0.0290826
4.66868e-05
0.000145283
0.000240428
0.000351265
0.000489599
0.000668328
0.000882931
0.00113317
0.00142096
0.00174938
0.00212184
0.00254228
0.00301401
0.00353952
0.00412241
0.00476649
0.00547579
0.00625474
0.00710827
0.00804118
0.00905491
0.0101214
0.0112083
0.0123003
0.0133905
0.0144756
0.0155533
0.016621
0.0176758
0.0187146
0.0197338
0.0207292
0.0216966
0.0226317
0.02353
0.0243877
0.0252023
0.0259728
0.026701
0.0273935
0.0280619
0.0287264
0.0294204
4.66064e-05
0.000144906
0.000239246
0.000347643
0.000479647
0.000649649
0.000855768
0.00109642
0.00137306
0.00168848
0.00204583
0.00244894
0.00290141
0.0034055
0.00396467
0.00458265
0.00526297
0.00601031
0.00682918
0.00772434
0.00870087
0.00975508
0.010854
0.01197
0.0130903
0.0142091
0.015323
0.0164295
0.0175258
0.0186093
0.0196761
0.0207225
0.0217439
0.0227359
0.0236937
0.0246124
0.0254877
0.0263162
0.0270966
0.0278305
0.0285247
0.0291926
0.0298589
4.65186e-05
0.000144731
0.000238399
0.000344879
0.00047205
0.000633807
0.000832175
0.00106425
0.0013312
0.00163532
0.0019796
0.00236777
0.00280322
0.00328865
0.00382717
0.00442211
0.00507713
0.00579643
0.00658476
0.00744667
0.008387
0.00941008
0.0105045
0.0116353
0.01278
0.0139283
0.0150746
0.0162162
0.0173504
0.0184742
0.0195845
0.0206775
0.0217489
0.0227941
0.0238084
0.0247863
0.0257225
0.0266125
0.0274523
0.0282405
0.028979
0.0296753
0.0303448
4.64425e-05
0.000144577
0.000237778
0.000342728
0.00046604
0.000620262
0.000811501
0.00103605
0.00129452
0.00158876
0.00192158
0.00229649
0.00271688
0.00318582
0.00370594
0.00428054
0.0049133
0.00560802
0.00636917
0.00720134
0.00810925
0.00909814
0.0101701
0.011303
0.0124649
0.0136377
0.014813
0.0159865
0.017155
0.0183157
0.0194656
0.0206014
0.0217187
0.0228133
0.0238803
0.0249141
0.0259093
0.0268602
0.0277618
0.02861
0.0294031
0.0301432
0.0308366
4.63986e-05
0.000144505
0.000237293
0.00034094
0.000461134
0.000608767
0.00079343
0.00101121
0.00126194
0.00154746
0.00187016
0.00223327
0.00264034
0.00309468
0.00359855
0.00415501
0.00476788
0.0054406
0.00617747
0.00698303
0.0078622
0.00881969
0.00986045
0.0109806
0.0121501
0.013342
0.0145425
0.0157446
0.0169443
0.0181387
0.0193251
0.0204998
0.0216594
0.0227995
0.0239155
0.0250017
0.0260525
0.0270622
0.0280246
0.0289341
0.0297864
0.0305788
0.0313111
4.63584e-05
0.000144416
0.000236851
0.000339415
0.000457043
0.0005991
0.000777427
0.000988915
0.00123276
0.00151046
0.00182422
0.00217699
0.00257215
0.00301332
0.00350262
0.00404306
0.00463806
0.00529108
0.00600633
0.00678823
0.00764132
0.00857047
0.00958105
0.0106765
0.0118418
0.0130457
0.0142666
0.0154941
0.0167223
0.0179476
0.0191673
0.020378
0.0215763
0.0227585
0.0239196
0.0250545
0.0261575
0.0272228
0.0282437
0.0292137
0.0301264
0.0309764
0.0317585
4.63677e-05
0.000144455
0.000236579
0.000338274
0.000453816
0.000591195
0.000763346
0.000969055
0.00120661
0.00147719
0.00178293
0.00212653
0.00251117
0.0029403
0.00341651
0.00394253
0.00452139
0.00515668
0.00585241
0.00661297
0.00744258
0.00834613
0.00932915
0.0103962
0.0115457
0.0127528
0.0139888
0.0152381
0.0164919
0.0177457
0.0189962
0.0202401
0.0214742
0.0226952
0.0238981
0.0250782
0.02623
0.0273474
0.0284238
0.0294522
0.0304255
0.0313362
0.0321773
4.63849e-05
0.000144558
0.000236367
0.000337295
0.000451006
0.000584539
0.0007509
0.000951201
0.00118299
0.00144706
0.00174552
0.00208081
0.00245592
0.00287416
0.00333855
0.00385152
0.00441603
0.00503535
0.00571351
0.00645469
0.00726323
0.00814358
0.00910116
0.010141
0.0112669
0.0124676
0.0137123
0.0149791
0.0162557
0.0175356
0.0188146
0.0200892
0.0213567
0.0226135
0.0238552
0.0250773
0.0262746
0.0274409
0.0285698
0.0296542
0.0306865
0.0316588
0.0325635
4.6395e-05
0.000144664
0.000236211
0.000336391
0.000448548
0.000578872
0.000739734
0.000934869
0.00116138
0.00141967
0.00171142
0.00203908
0.00240556
0.00281402
0.00326767
0.00376886
0.00432023
0.00492508
0.00558731
0.00631092
0.00710012
0.00795953
0.00889412
0.00990896
0.0110094
0.0121942
0.0134403
0.0147199
0.0160161
0.0173196
0.0186247
0.0199281
0.0212266
0.0225165
0.0237944
0.0250556
0.0262952
0.0275075
0.0286859
0.0298233
0.0309123
0.0319444
0.0329118
4.64076e-05
0.000144733
0.000236019
0.000335538
0.000446381
0.000573977
0.000729776
0.000920098
0.00114172
0.00139458
0.00168027
0.00200103
0.00235963
0.00275903
0.0032028
0.00369315
0.00423249
0.00482412
0.00547187
0.00617947
0.00695098
0.00779119
0.00870491
0.00969714
0.010773
0.0119362
0.0131757
0.0144625
0.0157745
0.017099
0.0184284
0.0197584
0.0210857
0.0224069
0.0237186
0.0250163
0.0262954
0.0275507
0.0287754
0.0299629
0.0311055
0.0321946
0.0332214
4.64506e-05
0.00014486
0.000235907
0.000334891
0.000444576
0.000569689
0.000720832
0.000906587
0.0011236
0.00137147
0.0016515
0.00196586
0.00231723
0.0027085
0.00314316
0.00362344
0.00415182
0.0047316
0.00536595
0.00605879
0.00681423
0.00763677
0.00853118
0.00950221
0.0105553
0.0116957
0.012921
0.0142089
0.0155327
0.0168751
0.0182267
0.0195816
0.0209359
0.0222865
0.0236299
0.0249618
0.026278
0.0275733
0.0288416
0.0300761
0.0312692
0.0324122
0.0334953
4.64931e-05
0.000144957
0.000235826
0.000334364
0.00044299
0.000565917
0.000712961
0.00089419
0.00110678
0.00134997
0.00162481
0.00193331
0.00227804
0.0026618
0.00308792
0.00355885
0.00407713
0.00464576
0.0052678
0.00594709
0.00668786
0.00749418
0.00837065
0.00932217
0.0103545
0.0114725
0.0126789
0.0139613
0.0152918
0.0166493
0.0180208
0.0193986
0.0207783
0.0221565
0.0235294
0.0248936
0.0262446
0.0275777
0.028887
0.0301657
0.0314065
0.0326008
0.0337393
4.65274e-05
0.00014508
0.000235792
0.00033389
0.000441552
0.00056263
0.000706011
0.000882885
0.00109138
0.00133015
0.00160009
0.00190307
0.0022416
0.0026184
0.00303654
0.00349893
0.0040078
0.00456606
0.00517674
0.0058435
0.00657032
0.00736164
0.00822173
0.00915543
0.010168
0.0112649
0.0124506
0.0137213
0.0150536
0.0164226
0.0178112
0.0192101
0.0206136
0.0220177
0.0234187
0.0248132
0.0261971
0.0275656
0.0289136
0.0302343
0.0315204
0.0327635
0.0339535
4.66076e-05
0.000145226
0.000235772
0.000333438
0.000440232
0.000559696
0.000699823
0.000872384
0.00107687
0.00131145
0.0015768
0.00187474
0.00220751
0.00257781
0.00298865
0.00344296
0.00394312
0.00449167
0.00509171
0.0057468
0.00646093
0.00723809
0.00808282
0.00899977
0.00999401
0.0110711
0.0122363
0.0134907
0.0148194
0.0161956
0.0175988
0.0190168
0.0204424
0.0218708
0.0232984
0.0247216
0.0261365
0.0275388
0.028923
0.0302837
0.0316134
0.0329045
0.0341478
4.66336e-05
0.000145305
0.000235683
0.000332946
0.000438965
0.00055697
0.000694256
0.000862695
0.00106336
0.00129397
0.00155499
0.00184811
0.00217544
0.00253962
0.00294359
0.00339033
0.00388222
0.00442176
0.00501184
0.00565603
0.00635826
0.00712226
0.00795265
0.00885391
0.00983103
0.0108897
0.0120348
0.0132707
0.0145904
0.0159696
0.0173843
0.0188191
0.020265
0.0217164
0.0231691
0.0246193
0.0260636
0.0274974
0.028916
0.030314
0.031685
0.0330217
0.0343185
4.66864e-05
0.000145436
0.000235638
0.000332559
0.000437905
0.000554593
0.000689308
0.000853714
0.00105069
0.00127755
0.00153449
0.00182302
0.00214525
0.0025037
0.00290121
0.00334097
0.00382503
0.00435604
0.00493679
0.0055707
0.00626156
0.00701318
0.0078301
0.00871664
0.00967773
0.0107188
0.011845
0.0130617
0.0143682
0.0157457
0.0171683
0.0186175
0.0200821
0.0215549
0.0230309
0.0245067
0.0259785
0.0274422
0.0288931
0.030326
0.0317342
0.0331101
0.0344418
4.67499e-05
0.000145548
0.000235593
0.000332197
0.000436876
0.000552327
0.000684744
0.000845382
0.00103881
0.00126208
0.00151515
0.00179931
0.0021167
0.00246977
0.00286123
0.0032943
0.00377103
0.00429396
0.00486591
0.00549019
0.00617033
0.00691027
0.00771445
0.00858713
0.00953312
0.0105577
0.011666
0.0128637
0.0141539
0.0155249
0.0169516
0.0184128
0.019894
0.0213865
0.0228846
0.0243843
0.0258822
0.027374
0.0288553
0.0303209
0.0317647
0.0331798
0.03456
4.68107e-05
0.000145659
0.000235621
0.000331942
0.000435994
0.000550284
0.000680566
0.00083762
0.00102762
0.00124742
0.00149681
0.00177695
0.00208968
0.00243757
0.00282332
0.00324988
0.00371965
0.00423492
0.00479856
0.00541371
0.00608382
0.00681291
0.00760503
0.00846447
0.00939608
0.0104049
0.0114962
0.0126759
0.0139483
0.0153086
0.016736
0.0182058
0.0197013
0.0212118
0.0227307
0.0242533
0.0257755
0.0272939
0.0288038
0.0303004
0.0317776
0.0332285
0.0346429
4.68709e-05
0.00014579
0.000235581
0.000331615
0.000435109
0.000548373
0.000676771
0.000830433
0.00101702
0.00123348
0.00147932
0.00175565
0.00206406
0.00240696
0.00278729
0.00320781
0.00367088
0.00417894
0.00473471
0.00534115
0.00600173
0.00672036
0.00750098
0.00834786
0.00926586
0.0102598
0.0113352
0.0124976
0.0137518
0.0150984
0.016522
0.0179974
0.0195048
0.0210317
0.0225699