/*--------------------------------*- C++ -*----------------------------------*\
| =========                 |                                                 |
| \\      /  F ield         | OpenFOAM: The Open Source CFD Toolbox           |
|  \\    /   O peration     | Version:  2.3.0                                 |
|   \\  /    A nd           | Web:      www.OpenFOAM.org                      |
|    \\/     M anipulation  |                                                 |
\*---------------------------------------------------------------------------*/
FoamFile
{
    version     2.0;
    format      ascii;
    class       volScalarField;
    location    "3000";
    object      p;
}
// * * * * * * * * * * * * * * * * * * * * * * * * * * * * * * * * * * * * * //

dimensions      [0 2 -2 0 0 0 0];

internalField   nonuniform List<scalar> 
38388
(
0.000303664
-1.07403
-2.23298
-3.46002
-4.73161
-6.05182
-7.41871
-8.8388
-10.3049
-11.8184
-13.379
-14.9916
-16.6442
-18.3351
-20.0529
-21.8035
-23.5705
-25.3386
-27.1051
-28.8617
-30.591
-32.3069
-33.9491
-35.5874
-37.1477
-38.659
-40.0958
-41.4709
-42.7313
-43.8777
-44.8676
-45.5763
-46.0166
-46.0634
-45.6667
-44.7456
-42.9351
-39.9777
-35.0451
-27.8255
-23.154
-27.8053
-21.738
6.7451
6.16065
5.61844
5.05832
4.50702
3.96187
3.42605
2.90371
2.39538
1.899
1.42132
0.960318
0.516757
0.0905831
-0.313015
-0.68868
-1.03778
-1.34992
-1.61486
-1.8205
-1.94283
-1.96976
-1.86492
-1.61736
-1.16803
-0.501494
0.453328
1.72678
3.3895
5.53025
8.1971
11.5506
15.6938
20.8138
27.0951
34.7266
43.9596
55.1325
68.7196
85.194
104.325
125.326
148.07
12.6884
12.3206
12.0526
11.768
11.494
11.2311
10.9801
10.7387
10.5149
10.3139
10.1367
9.985
9.87674
9.81219
9.79422
9.83747
9.94672
10.135
10.4068
10.7826
11.2697
11.8839
12.6479
13.5835
14.715
16.0819
17.7047
19.6373
21.931
24.6401
27.8414
31.6132
36.0527
41.2859
47.447
54.6566
63.0715
72.8285
84.0801
96.749
110.571
125.343
140.705
18.0083
17.8663
17.8712
17.8689
17.8931
17.9434
18.0216
18.1318
18.2791
18.4656
18.6976
18.9822
19.3228
19.7218
20.1945
20.7498
21.3897
22.1276
22.976
23.9483
25.0688
26.3458
27.8088
29.4795
31.3901
33.575
36.0699
38.9143
42.1532
45.8394
50.0298
54.7758
60.1395
66.1983
73.0074
80.6204
89.0831
98.4139
108.601
119.533
131.032
142.88
154.824
22.8191
22.7698
22.9472
23.1192
23.3234
23.5615
23.8338
24.1356
24.4756
24.8602
25.2947
25.7824
26.3325
26.9518
27.6491
28.4309
29.3094
30.2891
31.3876
32.6116
33.9768
35.4955
37.1987
39.1041
41.228
43.6124
46.288
49.2894
52.6555
56.4328
60.6648
65.3928
70.6715
76.5542
83.0725
90.2797
98.1817
106.774
116.031
125.851
136.088
146.563
157.065
26.9815
27.0816
27.4165
27.7307
28.0756
28.4577
28.8898
29.3474
29.8469
30.3884
30.9841
31.6391
32.3618
33.1593
34.0398
35.0086
36.0884
37.2739
38.5739
40.0137
41.6032
43.3477
45.2689
47.4003
49.7537
52.3463
55.2224
58.4214
61.9719
65.9197
70.2808
75.0687
80.3507
86.157
92.5039
99.4228
106.912
114.947
123.502
132.499
141.81
151.285
160.756
30.738
30.9093
31.3464
31.7647
32.21
32.6795
33.2232
33.7807
34.3949
35.0462
35.7582
36.5302
37.3604
38.2588
39.2578
40.3488
41.5651
42.8963
44.3362
45.8973
47.6095
49.4722
51.4872
53.7197
56.1633
58.8425
61.7592
65.0189
68.6224
72.6129
76.9935
81.7258
86.909
92.564
98.6799
105.308
112.435
119.994
128.044
136.491
145.183
153.971
162.746
34.3667
34.4468
34.8669
35.3036
35.8064
36.3141
36.9601
37.6162
38.2827
38.9792
39.7615
40.6174
41.5406
42.5117
43.5688
44.6926
45.981
47.4331
48.997
50.6914
52.5324
54.5515
56.6495
58.9714
61.4775
64.2277
67.106
70.3299
73.9057
77.9312
82.4149
87.1448
92.246
97.7849
103.683
110.061
116.912
124.007
131.566
139.552
147.815
156.107
164.334
38.1465
37.9541
38.1378
38.3445
38.6931
39.1489
40.3419
41.0894
41.587
41.9619
42.5057
43.2382
44.1292
45.0581
45.9972
46.799
47.7138
48.8021
50.0321
51.4605
53.0794
55.1322
57.1575
59.4787
61.9384
64.8069
67.6281
70.5967
73.6787
77.2009
82.4348
86.924
92.0376
97.9408
104.023
110.096
118.153
125.419
132.672
140.136
148.158
156.293
164.356
51.535
106.628
142.775
170.033
191.463
208.462
222.041
232.938
241.755
248.912
254.769
259.544
263.467
266.69
269.337
271.502
273.28
274.722
275.886
276.811
277.535
278.082
278.473
278.734
278.876
278.915
278.864
278.73
278.523
278.249
277.916
277.528
277.087
276.597
276.062
275.483
274.864
274.204
273.505
272.777
272.034
271.221
270.017
169.984
187.154
202.209
215.319
226.525
236.002
243.955
250.594
256.098
260.654
264.41
267.495
270.019
272.079
273.736
275.066
276.103
276.899
277.494
277.923
278.213
278.379
278.443
278.412
278.3
278.115
277.865
277.555
277.189
276.776
276.317
275.816
275.278
274.703
274.098
273.463
272.8
272.112
271.399
270.674
269.937
269.075
267.932
155.609
169.711
182.792
194.655
205.252
214.615
222.82
229.97
236.176
241.551
246.19
250.197
253.656
256.638
259.21
261.426
263.329
264.956
266.341
267.511
268.49
269.302
269.96
270.484
270.886
271.179
271.374
271.48
271.506
271.46
271.346
271.169
270.938
270.652
270.321
269.942
269.521
269.061
268.564
268.039
267.486
266.752
265.55
166.569
177.91
188.631
198.575
207.643
215.811
223.093
229.532
235.191
240.136
244.444
248.184
251.418
254.21
256.618
258.688
260.463
261.978
263.266
264.352
265.265
266.024
266.647
267.149
267.543
267.84
268.052
268.187
268.254
268.257
268.202
268.094
267.938
267.736
267.495
267.213
266.895
266.543
266.155
265.741
265.293
264.723
263.776
167.399
177.424
186.982
195.939
204.203
211.742
218.543
224.636
230.056
234.857
239.091
242.815
246.082
248.941
251.441
253.621
255.523
257.173
258.6
259.832
260.892
261.797
262.562
263.203
263.732
264.162
264.503
264.765
264.954
265.077
265.138
265.143
265.097
265.006
264.872
264.698
264.486
264.241
263.964
263.662
263.33
262.948
262.6
170.086
179.149
187.819
195.99
203.593
210.581
216.929
222.653
227.787
232.362
236.423
240.018
243.192
245.988
248.445
250.602
252.489
254.135
255.57
256.819
257.902
258.835
259.632
260.307
260.872
261.344
261.731
262.048
262.296
262.477
262.597
262.665
262.683
262.66
262.598
262.498
262.36
262.194
261.996
261.769
261.509
261.213
260.907
171.416
179.834
187.899
195.53
202.673
209.287
215.302
220.744
225.655
230.049
233.969
237.461
240.556
243.3
245.722
247.87
249.751
251.4
252.849
254.12
255.242
256.216
257.036
257.735
258.338
258.859
259.303
259.683
259.984
260.205
260.369
260.486
260.554
260.592
260.591
260.551
260.466
260.365
260.226
260.065
259.872
259.606
259.215
172.505
180.444
188.032
195.229
202.022
208.404
214.189
219.379
224.098
228.316
232.119
235.508
238.515
241.228
243.627
245.782
247.638
249.258
250.69
251.989
253.15
254.118
254.901
255.616
256.28
256.846
257.328
257.731
258.039
258.241
258.439
258.586
258.68
258.788
258.839
258.813
258.743
258.718
258.64
258.515
258.36
258.157
257.687
172.526
180.401
187.755
194.632
201.184
207.493
212.98
217.938
222.683
226.763
230.418
233.683
236.635
239.409
241.704
243.791
245.474
246.96
248.326
249.699
250.788
251.66
252.456
253.321
253.96
254.506
254.826
255.401
255.562
256.022
256.368
256.538
256.736
257
257.034
257.01
257.076
257.314
257.325
257.291
257.245
257.319
257.721
-75.7566
-75.5199
-75.3742
-75.2143
-75.0419
-74.8624
-74.677
-74.4878
-74.2954
-74.0995
-73.9003
-73.6983
-73.4941
-73.2887
-73.0822
-72.8761
-72.6706
-72.4657
-72.2631
-72.064
-71.869
-71.6791
-71.495
-71.3181
-71.1488
-70.9886
-70.8386
-70.6986
-70.5698
-70.4532
-70.3491
-70.2576
-70.1797
-70.1146
-70.0617
-70.0186
-69.9817
-69.9409
-69.8699
-69.7122
-69.3489
-68.4817
-66.5483
-76.3539
-75.984
-75.7598
-75.5339
-75.2997
-75.0656
-74.8345
-74.6053
-74.3797
-74.1583
-73.9424
-73.7332
-73.5306
-73.335
-73.1455
-72.9626
-72.7865
-72.618
-72.4557
-72.2987
-72.1479
-72.0025
-71.8635
-71.7293
-71.601
-71.4776
-71.3587
-71.2449
-71.1354
-71.0296
-70.9268
-70.8261
-70.7248
-70.6201
-70.5065
-70.3748
-70.2078
-69.979
-69.6286
-68.9856
-67.6565
-65.2537
-61.9945
-76.8812
-76.5377
-76.3574
-76.1781
-75.9919
-75.8057
-75.6222
-75.4413
-75.2625
-75.0851
-74.91
-74.7376
-74.5675
-74.3995
-74.2351
-74.0741
-73.9144
-73.7572
-73.6014
-73.4483
-73.297
-73.1466
-72.9978
-72.8506
-72.7059
-72.5623
-72.4209
-72.2811
-72.1418
-72.002
-71.8609
-71.7152
-71.5611
-71.3916
-71.195
-70.9522
-70.6317
-70.175
-69.4576
-68.2155
-65.9951
-62.4738
-57.5689
-77.3911
-76.9983
-76.8487
-76.6956
-76.5334
-76.3691
-76.2058
-76.0434
-75.8813
-75.7194
-75.5579
-75.3975
-75.2386
-75.0823
-74.9281
-74.776
-74.6265
-74.48
-74.3352
-74.1906
-74.0461
-73.9014
-73.7557
-73.6093
-73.4619
-73.3128
-73.1605
-73.0043
-72.8431
-72.6746
-72.4953
-72.3007
-72.0832
-71.8306
-71.5243
-71.1346
-70.6069
-69.8471
-68.6803
-66.7947
-63.8234
-59.6498
-54.3908
-77.7777
-77.4578
-77.292
-77.1409
-76.9938
-76.8463
-76.7004
-76.5576
-76.4148
-76.2699
-76.1227
-75.9747
-75.8261
-75.6785
-75.5336
-75.3899
-75.2474
-75.1056
-74.9666
-74.8301
-74.6914
-74.5485
-74.4023
-74.2516
-74.0966
-73.9379
-73.7719
-73.5962
-73.4084
-73.2044
-72.98
-72.7263
-72.4327
-72.0825
-71.6456
-71.0797
-70.3114
-69.2217
-67.6046
-65.1509
-61.5835
-56.9204
-51.5669
-78.3133
-77.8276
-77.653
-77.5106
-77.3819
-77.2469
-77.1132
-76.9844
-76.8558
-76.7257
-76.5898
-76.4517
-76.3099
-76.166
-76.0247
-75.8847
-75.7449
-75.6038
-75.4651
-75.3336
-75.2035
-75.0642
-74.9149
-74.757
-74.5931
-74.4243
-74.2458
-74.0507
-73.8375
-73.5967
-73.3247
-73.0104
-72.6403
-72.1954
-71.6274
-70.8866
-69.8881
-68.4985
-66.4953
-63.5842
-59.5574
-54.5174
-49.0344
-78.6717
-78.0662
-77.9323
-77.8014
-77.7009
-77.5771
-77.4447
-77.3277
-77.2147
-77.1025
-76.979
-76.8526
-76.7174
-76.5735
-76.438
-76.2969
-76.1543
-76.0083
-75.863
-75.7376
-75.625
-75.4901
-75.3362
-75.1705
-74.9919
-74.8109
-74.6214
-74.4009
-74.163
-73.8825
-73.5686
-73.1965
-72.7427
-72.2113
-71.522
-70.6134
-69.3914
-67.7444
-65.4023
-62.0021
-57.4563
-52.0391
-46.461
-78.7505
-78.3721
-78.2433
-78.0426
-77.97
-77.8678
-77.722
-77.6186
-77.5166
-77.4174
-77.2893
-77.1623
-77.0272
-76.8506
-76.7137
-76.5852
-76.4577
-76.2865
-76.0755
-75.9096
-75.841
-75.7616
-75.6219
-75.4345
-75.215
-75.0011
-74.8261
-74.596
-74.3614
-74.0302
-73.6561
-73.2427
-72.6908
-72.1298
-71.3588
-70.3075
-68.9058
-67.1559
-64.7778
-61.0157
-56.1991
-50.4884
-44.8101
-78.3572
-78.4578
-78.413
-78.0628
-78.0306
-78.0701
-77.9164
-77.879
-77.9827
-78.0393
-77.9376
-77.8655
-77.8743
-77.6858
-77.3744
-77.2745
-77.3334
-77.3479
-76.8987
-76.4301
-76.2997
-76.399
-76.4341
-76.3114
-75.8685
-75.4623
-75.2367
-74.998
-74.9048
-74.6187
-74.204
-73.5043
-72.5401
-72.0699
-71.3964
-70.0424
-68.0376
-66.4926
-63.8141
-58.3123
-51.5456
-45.0548
-39.9674
-58.3538
-50.8627
-43.7096
-37.4526
-31.7639
-26.6175
-21.9143
-17.5901
-13.5812
-9.82006
-6.2664
-2.8885
0.349994
3.46623
6.47818
9.40057
12.2452
15.0203
17.7362
20.3962
23.0066
25.5711
28.0939
30.5795
33.0308
35.4484
37.8339
40.192
42.5232
44.8277
47.1076
49.3644
51.5988
53.8122
56.0049
58.1767
60.3299
62.4631
64.5807
66.6787
68.7272
70.7994
73.2499
-56.1523
-51.2956
-45.7774
-40.2722
-34.7793
-29.4974
-24.4631
-19.6949
-15.1862
-10.9254
-6.89906
-3.08414
0.542239
3.99532
7.2903
10.4468
13.477
16.3916
19.2018
21.9205
24.5507
27.1041
29.5846
32.0003
34.3564
36.6578
38.9102
41.1147
43.278
45.4029
47.4931
49.5526
51.5827
53.5851
55.5624
57.5188
59.4543
61.3729
63.2749
65.1596
67.0006
68.8708
71.0554
-51.4386
-46.4404
-41.2196
-36.2057
-31.2664
-26.5018
-21.9143
-17.5205
-13.3255
-9.32553
-5.51269
-1.87742
1.59171
4.90805
8.08186
11.1254
14.051
16.8678
19.5837
22.2113
24.7546
27.2227
29.6221
31.958
34.2354
36.457
38.6299
40.7558
42.84
44.8849
46.8916
48.8648
50.8059
52.7162
54.5977
56.4541
58.2838
60.092
61.8794
63.6448
65.3665
67.1072
69.0945
-48.7205
-43.8665
-38.8881
-34.093
-29.3857
-24.8606
-20.5045
-16.332
-12.3404
-8.52052
-4.8698
-1.37634
1.96805
5.17334
8.25014
11.206
14.0512
16.7945
19.4459
22.0098
24.4946
26.9056
29.2485
31.5261
33.7449
35.9096
38.0214
40.0875
42.1106
44.0945
46.0405
47.9502
49.8251
51.6683
53.4821
55.2695
57.0306
58.767
60.4821
62.1727
63.8225
65.4852
67.3605
-46.2354
-41.6472
-36.9832
-32.4135
-27.9023
-23.539
-19.3218
-15.2681
-11.3799
-7.64977
-4.07745
-0.652367
2.62833
5.77386
8.7928
11.6948
14.4885
17.181
19.7827
22.2946
24.7253
27.0822
29.3676
31.5848
33.7398
35.836
37.8767
39.8705
41.8205
43.7314
45.6002
47.4295
49.2188
50.975
52.7015
54.4022
56.0761
57.7231
59.348
60.949
62.5141
64.0925
65.8537
-43.7945
-39.3453
-34.8719
-30.473
-26.1415
-21.9394
-17.8695
-13.947
-10.1706
-6.53952
-3.0528
0.296966
3.50601
6.58044
9.5298
12.3641
15.0955
17.7338
20.2789
22.7355
25.1064
27.4033
29.6307
31.7832
33.8702
35.8952
37.8676
39.7935
41.6792
43.5248
45.3237
47.0719
48.7764
50.4501
52.0941
53.7146
55.3046
56.8658
58.3987
59.9087
61.3835
62.8619
64.4834
-41.3773
-37.1305
-32.8356
-28.6072
-24.4507
-20.4092
-16.4912
-12.706
-9.04889
-5.51937
-2.12001
1.15
4.28449
7.28245
10.1561
12.9212
15.595
18.1908
20.6933
23.0932
25.4085
27.6637
29.8443
31.9392
33.9656
35.925
37.8374
39.7088
41.5459
43.3516
45.0924
46.7578
48.388
49.9921
51.5686
53.1275
54.646
56.1248
57.5755
59.0064
60.4072
61.7976
63.296
-39.7466
-35.4419
-31.1737
-27.0244
-22.9848
-19.0546
-15.2643
-11.5854
-8.0129
-4.54112
-1.16961
2.0752
5.15368
8.07054
10.8683
13.5745
16.2324
18.8278
21.2975
23.6241
25.8955
28.1394
30.2794
32.2915
34.2265
36.098
37.9564
39.7959
41.6138
43.4103
45.0572
46.5816
48.1208
49.6469
51.153
52.6582
54.1029
55.4906
56.8548
58.2066
59.5366
60.857
62.2555
-36.7878
-33.2896
-29.4038
-25.5053
-21.7137
-17.9285
-14.3385
-10.7749
-7.29382
-3.8796
-0.550846
2.57046
5.49154
8.30316
10.9847
13.671
16.3614
18.9395
21.3362
23.5334
25.7592
28.0822
30.0791
31.943
33.8648
35.7225
37.6401
39.4948
41.3076
43.0962
44.4905
45.8867
47.5326
49.0918
50.6422
52.2216
53.5918
54.8847
56.1902
57.5289
58.8802
60.2199
61.5301
-87.1904
-89.041
-90.8794
-91.6976
-91.6397
-90.9445
-89.8316
-88.4726
-86.7645
-84.5666
-81.9807
-79.1752
-76.2701
-73.2519
-70.1233
-66.9545
-63.7975
-60.6656
-57.57
-54.548
-51.5511
-48.675
-45.8449
-43.1281
-40.4902
-37.9558
-35.5115
-33.1659
-30.905
-28.7374
-26.6514
-24.6445
-22.7071
-20.8433
-19.0437
-17.3085
-15.6343
-14.0184
-12.4584
-10.9529
-9.50671
-8.11588
-6.91796
-78.1067
-77.9155
-77.6423
-77.3206
-77.0097
-76.7361
-76.502
-76.3065
-76.1248
-75.9171
-75.6574
-75.3377
-74.9634
-74.5601
-74.1302
-73.5733
-72.8419
-71.8466
-70.5842
-69.0891
-67.3375
-65.3608
-63.1721
-60.8173
-58.2973
-55.6606
-52.9238
-50.1386
-47.3198
-44.4908
-41.692
-38.9355
-36.2298
-33.5998
-31.0442
-28.5724
-26.1877
-23.8899
-21.6801
-19.553
-17.5133
-15.5252
-13.8564
-81.3582
-81.3664
-81.392
-81.4258
-81.4616
-81.4936
-81.5119
-81.5013
-81.4405
-81.3021
-81.068
-80.7251
-80.2664
-79.6813
-78.9752
-78.158
-77.2625
-76.3058
-75.2893
-74.1783
-72.9394
-71.5306
-69.9668
-68.2327
-66.3298
-64.2441
-62.0007
-59.6053
-57.0771
-54.4363
-51.7067
-48.9356
-46.1208
-43.3079
-40.5139
-37.759
-35.0565
-32.4191
-29.8538
-27.3641
-24.9668
-22.6044
-20.7879
-79.8311
-79.8112
-79.7693
-79.7161
-79.6569
-79.5952
-79.5328
-79.4697
-79.4051
-79.3356
-79.2548
-79.1532
-79.0224
-78.8543
-78.6389
-78.3619
-78.007
-77.5588
-76.9986
-76.333
-75.5771
-74.7111
-73.7149
-72.5578
-71.2309
-69.7163
-68.0333
-66.1498
-64.0846
-61.8567
-59.4492
-56.9167
-54.2594
-51.5164
-48.7129
-45.8849
-43.0439
-40.2276
-37.4474
-34.7137
-32.0586
-29.3815
-27.463
-80.0772
-80.0778
-80.0771
-80.0724
-80.0638
-80.0508
-80.0321
-80.0062
-79.9711
-79.9248
-79.8646
-79.787
-79.6862
-79.5553
-79.3883
-79.1814
-78.9292
-78.6239
-78.257
-77.8179
-77.2951
-76.6759
-75.9676
-75.162
-74.2318
-73.1549
-71.9308
-70.5293
-68.9487
-67.1881
-65.2364
-63.0972
-60.7906
-58.3193
-55.7111
-53.001
-50.2028
-47.3592
-44.4934
-41.6211
-38.8024
-35.8859
-34.187
-79.7566
-79.7521
-79.7425
-79.7281
-79.7091
-79.6863
-79.6597
-79.6292
-79.5947
-79.5553
-79.5102
-79.4578
-79.3958
-79.3212
-79.2295
-79.1155
-78.9731
-78.7973
-78.5812
-78.3164
-77.9956
-77.6053
-77.1361
-76.5756
-75.9241
-75.1651
-74.2851
-73.2577
-72.0809
-70.7346
-69.2132
-67.4983
-65.6051
-63.5124
-61.2446
-58.8071
-56.2244
-53.523
-50.7369
-47.8744
-45.0193
-41.9585
-40.3922
-79.6974
-79.6956
-79.6915
-79.6838
-79.6726
-79.6583
-79.6405
-79.6189
-79.5931
-79.5625
-79.5265
-79.4841
-79.434
-79.3745
-79.3034
-79.2178
-79.1139
-78.9874
-78.8341
-78.6476
-78.4227
-78.1522
-77.8279
-77.4376
-76.972
-76.4195
-75.7758
-75.0197
-74.1431
-73.122
-71.9474
-70.6004
-69.0789
-67.3669
-65.4682
-63.3793
-61.1025
-58.6608
-56.0762
-53.3627
-50.6067
-47.588
-46.0239
-79.5818
-79.579
-79.5735
-79.565
-79.5532
-79.5386
-79.521
-79.5005
-79.4767
-79.4495
-79.4184
-79.383
-79.3426
-79.2961
-79.2421
-79.1787
-79.1034
-79.0131
-78.9045
-78.7736
-78.6158
-78.4254
-78.1956
-77.9192
-77.586
-77.1891
-76.7153
-76.1533
-75.4943
-74.7228
-73.8215
-72.7762
-71.569
-70.1968
-68.6337
-66.8902
-64.9484
-62.8231
-60.5163
-58.0332
-55.4573
-52.552
-51.2262
-79.516
-79.5137
-79.509
-79.5017
-79.4916
-79.4789
-79.4635
-79.4455
-79.4246
-79.4007
-79.3735
-79.3426
-79.3074
-79.2674
-79.2217
-79.1691
-79.1082
-79.0369
-78.9527
-78.8524
-78.7323
-78.589
-78.4176
-78.2121
-77.9653
-77.6703
-77.3168
-76.8953
-76.3953
-75.8066
-75.1125
-74.3012
-73.3504
-72.2558
-70.9927
-69.5594
-67.9331
-66.115
-64.1108
-61.9049
-59.5709
-56.8139
-55.8696
-79.4547
-79.452
-79.4469
-79.4398
-79.43
-79.4177
-79.4032
-79.3863
-79.3669
-79.3449
-79.3201
-79.2923
-79.2611
-79.2261
-79.1868
-79.1422
-79.0913
-79.0327
-78.9645
-78.8849
-78.7913
-78.6801
-78.5475
-78.3901
-78.2017
-77.9767
-77.7076
-77.3855
-77.0017
-76.5457
-76.0055
-75.3716
-74.6243
-73.7509
-72.7355
-71.5623
-70.2207
-68.6966
-66.9885
-65.0654
-62.998
-60.449
-59.8795
-79.4072
-79.4053
-79.401
-79.3944
-79.3855
-79.3741
-79.3605
-79.3448
-79.3268
-79.3064
-79.2834
-79.2578
-79.2292
-79.1974
-79.162
-79.1223
-79.0777
-79.0272
-78.9696
-78.9033
-78.8261
-78.7361
-78.6299
-78.5045
-78.3553
-78.1786
-77.9678
-77.7164
-77.4173
-77.0608
-76.6357
-76.1342
-75.5413
-74.8428
-74.0265
-73.0719
-71.9721
-70.706
-69.2727
-67.6426
-65.891
-63.7378
-64.4018
-79.375
-79.3721
-79.3671
-79.3603
-79.3513
-79.3401
-79.3269
-79.3117
-79.2944
-79.275
-79.2533
-79.2292
-79.2026
-79.1733
-79.1409
-79.1049
-79.0648
-79.0199
-78.9694
-78.9121
-78.8463
-78.7707
-78.6828
-78.5802
-78.4594
-78.3169
-78.1482
-77.947
-77.708
-77.4239
-77.0855
-76.684
-76.2092
-75.6483
-74.9893
-74.2137
-73.3101
-72.2614
-71.0587
-69.6838
-68.1868
-66.2883
-67.2734
-79.3472
-79.3446
-79.3399
-79.3333
-79.3248
-79.3142
-79.3015
-79.2869
-79.2704
-79.2519
-79.2313
-79.2086
-79.1835
-79.1559
-79.1255
-79.0922
-79.0556
-79.015
-78.9696
-78.9187
-78.8613
-78.7959
-78.7207
-78.6338
-78.5325
-78.414
-78.2747
-78.1109
-77.9172
-77.6869
-77.4137
-77.0892
-76.7038
-76.2483
-75.7105
-75.0752
-74.3321
-73.4639
-72.4558
-71.2764
-69.9546
-68.1809
-68.9258
-79.3282
-79.3255
-79.3208
-79.3144
-79.3062
-79.2959
-79.2837
-79.2696
-79.2537
-79.2359
-79.2162
-79.1944
-79.1705
-79.1444
-79.1158
-79.0845
-79.0502
-79.0125
-78.9709
-78.9248
-78.8732
-78.8152
-78.7495
-78.6744
-78.5879
-78.488
-78.3714
-78.2347
-78.0734
-77.8834
-77.6592
-77.3935
-77.0778
-76.7047
-76.2626
-75.7429
-75.1274
-74.4025
-73.5564
-72.5475
-71.3977
-69.817
-70.3866
-79.3166
-79.314
-79.3093
-79.3029
-79.2948
-79.2848
-79.2729
-79.2592
-79.2438
-79.2265
-79.2075
-79.1865
-79.1636
-79.1386
-79.1114
-79.0818
-79.0496
-79.0144
-78.976
-78.9336
-78.8866
-78.8341
-78.7754
-78.7089
-78.6331
-78.5463
-78.4458
-78.3293
-78.1939
-78.0346
-77.8465
-77.6251
-77.3636
-77.0545
-76.6873
-76.2559
-75.746
-75.144
-74.4396
-73.5912
-72.6129
-71.3005
-72.1436
-79.312
-79.3091
-79.3042
-79.2976
-79.2895
-79.2796
-79.268
-79.2546
-79.2395
-79.2227
-79.2042
-79.184
-79.1619
-79.1379
-79.1118
-79.0836
-79.0529
-79.0196
-78.9834
-78.9438
-78.9003
-78.8524
-78.7992
-78.7397
-78.6725
-78.5961
-78.5089
-78.4084
-78.2918
-78.1564
-77.9985
-77.8125
-77.5934
-77.3349
-77.0288
-76.6674
-76.2422
-75.7397
-75.1491
-74.437
-73.6148
-72.5463
-73.4992
-79.3128
-79.3098
-79.3046
-79.298
-79.2898
-79.28
-79.2684
-79.2551
-79.2403
-79.224
-79.206
-79.1863
-79.165
-79.1418
-79.1168
-79.0897
-79.0606
-79.0291
-78.9949
-78.9578
-78.9174
-78.8729
-78.8237
-78.7691
-78.7085
-78.6404
-78.563
-78.4748
-78.3737
-78.2567
-78.1205
-77.9616
-77.7761
-77.5577
-77.3012
-76.9984
-76.6416
-76.2211
-75.7288
-75.1442
-74.4738
-73.6559
-74.7195
-79.3143
-79.3115
-79.3065
-79.3
-79.2922
-79.2828
-79.2718
-79.2591
-79.2448
-79.2289
-79.2116
-79.1926
-79.172
-79.1497
-79.1256
-79.0997
-79.0718
-79.0418
-79.0094
-78.9743
-78.9363
-78.895
-78.8497
-78.7998
-78.7444
-78.6827
-78.6136
-78.5354
-78.4463
-78.3443
-78.2265
-78.0901
-77.9311
-77.7449
-77.5265
-77.2694
-76.9672
-76.6139
-76.1992
-75.7062
-75.1321
-74.4311
-75.0243
-79.3205
-79.3179
-79.3134
-79.3073
-79.2998
-79.2907
-79.2799
-79.2675
-79.2536
-79.2382
-79.2213
-79.2029
-79.1829
-79.1613
-79.1381
-79.1132
-79.0864
-79.0576
-79.0268
-78.9936
-78.9578
-78.9189
-78.8767
-78.8306
-78.7798
-78.7236
-78.6609
-78.5907
-78.5114
-78.4213
-78.3183
-78.1997
-78.0619
-77.9019
-77.7152
-77.4967
-77.2398
-76.9373
-76.5807
-76.1568
-75.6555
-75.0237
-75.0754
-79.335
-79.3318
-79.3265
-79.32
-79.3121
-79.3029
-79.2922
-79.28
-79.2662
-79.2511
-79.2346
-79.2166
-79.1972
-79.1763
-79.1539
-79.1298
-79.1041
-79.0767
-79.0472
-79.0156
-78.9817
-78.9451
-78.9055
-78.8623
-78.8151
-78.7634
-78.7064
-78.643
-78.572
-78.4919
-78.4008
-78.2968
-78.1773
-78.0389
-77.8777
-77.6892
-77.4684
-77.2085
-76.9032
-76.5378
-76.1048
-75.5723
-75.4551
-79.3485
-79.3456
-79.3405
-79.3341
-79.3265
-79.3175
-79.307
-79.2949
-79.2815
-79.2667
-79.2506
-79.2331
-79.2142
-79.1939
-79.1721
-79.1489
-79.1241
-79.0976
-79.0694
-79.0393
-79.0072
-78.9727
-78.9355
-78.8952
-78.8517
-78.804
-78.7515
-78.6936
-78.6293
-78.5574
-78.4764
-78.3842
-78.2789
-78.1574
-78.017
-77.8541
-77.6639
-77.4404
-77.1774
-76.8617
-76.4876
-76.0337
-75.9178
-79.3671
-79.364
-79.3586
-79.352
-79.3442
-79.335
-79.3245
-79.3126
-79.2993
-79.2847
-79.2689
-79.2518
-79.2334
-79.2137
-79.1926
-79.1702
-79.1463
-79.1209
-79.0939
-79.065
-79.0343
-79.0016
-78.9666
-78.929
-78.888
-78.8435
-78.7953
-78.7422
-78.6837
-78.6188
-78.5459
-78.4637
-78.3708
-78.2641
-78.1413
-77.9983
-77.8318
-77.6365
-77.4062
-77.1291
-76.7972
-76.3931
-76.2405
-79.3841
-79.3809
-79.3758
-79.3694
-79.3618
-79.353
-79.3428
-79.3313
-79.3184
-79.3043
-79.2889
-79.2722
-79.2543
-79.2352
-79.2147
-79.193
-79.1699
-79.1454
-79.1194
-79.0919
-79.0627
-79.0315
-78.9982
-78.9626
-78.9244
-78.883
-78.838
-78.7892
-78.7356
-78.6763
-78.6107
-78.5371
-78.4535
-78.3588
-78.2506
-78.1257
-77.9811
-77.8119
-77.613
-77.3742
-77.09
-76.7619
-76.7983
-79.4034
-79.4005
-79.3955
-79.3892
-79.3818
-79.3732
-79.3633
-79.3519
-79.3393
-79.3254
-79.3103
-79.2941
-79.2766
-79.258
-79.2381
-79.217
-79.1947
-79.171
-79.146
-79.1195
-79.0915
-79.0619
-79.0303
-78.9967
-78.9608
-78.922
-78.8802
-78.8348
-78.7853
-78.731
-78.671
-78.6044
-78.5299
-78.4457
-78.3492
-78.2383
-78.11
-77.9616
-77.7879
-77.5785
-77.3291
-77.069
-77.2991
-79.4253
-79.4222
-79.4172
-79.4109
-79.4035
-79.3949
-79.3851
-79.374
-79.3616
-79.348
-79.3332
-79.3173
-79.3002
-79.282
-79.2626
-79.2421
-79.2204
-79.1975
-79.1733
-79.1478
-79.1208
-79.0924
-79.0623
-79.0303
-78.9962
-78.9596
-78.9204
-78.8781
-78.8324
-78.7825
-78.7276
-78.6668
-78.5988
-78.5225
-78.4362
-78.3381
-78.2254
-78.0953
-77.9463
-77.7722
-77.5638
-77.3442
-77.7864
-79.4502
-79.4468
-79.4414
-79.4348
-79.4273
-79.4186
-79.4087
-79.3975
-79.3851
-79.3716
-79.357
-79.3413
-79.3246
-79.3067
-79.2878
-79.2678
-79.2466
-79.2244
-79.2009
-79.1763
-79.1504
-79.123
-79.0941
-79.0636
-79.0313
-78.9969
-78.96
-78.9202
-78.8771
-78.8303
-78.7794
-78.7238
-78.6621
-78.5928
-78.5145
-78.425
-78.3223
-78.2039
-78.0647
-77.9015
-77.7121
-77.4738
-76.8364
-79.4719
-79.4688
-79.4635
-79.4571
-79.4497
-79.4412
-79.4316
-79.4208
-79.4087
-79.3955
-79.3811
-79.3657
-79.3493
-79.3318
-79.3133
-79.2937
-79.273
-79.2513
-79.2285
-79.2046
-79.1795
-79.1531
-79.1254
-79.0961
-79.065
-79.0321
-78.9971
-78.9596
-78.9193
-78.876
-78.8287
-78.7766
-78.719
-78.6552
-78.5835
-78.502
-78.4084
-78.2989
-78.1699
-78.0186
-77.8393
-77.5949
-77.0539
-79.4963
-79.4931
-79.4879
-79.4816
-79.4741
-79.4656
-79.456
-79.4451
-79.4331
-79.42
-79.4058
-79.3906
-79.3744
-79.3572
-79.339
-79.3198
-79.2996
-79.2784
-79.2562
-79.2329
-79.2084
-79.1828
-79.1559
-79.1277
-79.098
-79.0665
-79.0331
-78.9975
-78.9593
-78.918
-78.8734
-78.8249
-78.7716
-78.7122
-78.6456
-78.5703
-78.4842
-78.3845
-78.2678
-78.1329
-77.9834
-77.8092
-77.2157
-79.5201
-79.5169
-79.5116
-79.5052
-79.4978
-79.4893
-79.4799
-79.4692
-79.4573
-79.4444
-79.4304
-79.4154
-79.3994
-79.3825
-79.3646
-79.3457
-79.3259
-79.3051
-79.2832
-79.2605
-79.2367
-79.2118
-79.1857
-79.1584
-79.1297
-79.0994
-79.0673
-79.0331
-78.9966
-78.9574
-78.9151
-78.8693
-78.8191
-78.7636
-78.7014
-78.6309
-78.5508
-78.4582
-78.349
-78.2214
-78.074
-77.8966
-77.5298
-79.5446
-79.5413
-79.536
-79.5295
-79.5222
-79.5138
-79.5042
-79.4936
-79.4818
-79.4689
-79.4551
-79.4402
-79.4244
-79.4077
-79.39
-79.3714
-79.3519
-79.3315
-79.3101
-79.2878
-79.2644
-79.2401
-79.2146
-79.188
-79.1601
-79.1308
-79.0998
-79.067
-79.0321
-78.9948
-78.9547
-78.9111
-78.8634
-78.8108
-78.7524
-78.6867
-78.6115
-78.5244
-78.423
-78.3063
-78.1754
-78.0228
-77.4845
-79.568
-79.5648
-79.5596
-79.5532
-79.5458
-79.5375
-79.5281
-79.5176
-79.5059
-79.4932
-79.4795
-79.4648
-79.4491
-79.4326
-79.4152
-79.3968
-79.3775
-79.3574
-79.3363
-79.3144
-79.2915
-79.2677
-79.2428
-79.2168
-79.1896
-79.161
-79.131
-79.0993
-79.0656
-79.0295
-78.9908
-78.949
-78.9037
-78.854
-78.7988
-78.7366
-78.6661
-78.5854
-78.4905
-78.3797
-78.2504
-78.0824
-77.7124
-79.5918
-79.5885
-79.5833
-79.5769
-79.5696
-79.5612
-79.5519
-79.5415
-79.5299
-79.5173
-79.5036
-79.4891
-79.4736
-79.4572
-79.4399
-79.4217
-79.4027
-79.3828
-79.362
-79.3403
-79.3178
-79.2943
-79.2698
-79.2443
-79.2177
-79.19
-79.1608
-79.1299
-79.0972
-79.0623
-79.0253
-78.9854
-78.942
-78.8945
-78.8421
-78.7837
-78.7178
-78.6426
-78.5562
-78.4587
-78.3523
-78.2292
-77.8161
-79.6153
-79.6121
-79.6068
-79.6005
-79.5931
-79.5848
-79.5755
-79.5651
-79.5536
-79.541
-79.5275
-79.513
-79.4976
-79.4813
-79.4642
-79.4462
-79.4273
-79.4076
-79.3871
-79.3657
-79.3434
-79.3203
-79.2963
-79.2712
-79.2451
-79.2177
-79.1892
-79.1591
-79.1275
-79.0939
-79.0577
-79.0191
-78.9775
-78.9321
-78.8821
-78.8267
-78.7645
-78.694
-78.613
-78.521
-78.4174
-78.2944
-78.0553
-79.6393
-79.6359
-79.6305
-79.624
-79.6166
-79.6082
-79.5988
-79.5884
-79.577
-79.5644
-79.5509
-79.5365
-79.5212
-79.505
-79.4879
-79.47
-79.4513
-79.4318
-79.4114
-79.3902
-79.3682
-79.3453
-79.3215
-79.2968
-79.2712
-79.2444
-79.2164
-79.187
-79.1561
-79.1233
-79.0886
-79.0513
-79.0111
-78.9675
-78.9198
-78.867
-78.8079
-78.7408
-78.6637
-78.5753
-78.4773
-78.3621
-77.9534
-79.6613
-79.6581
-79.6528
-79.6465
-79.6391
-79.6308
-79.6215
-79.6112
-79.5998
-79.5873
-79.5738
-79.5595
-79.5442
-79.5281
-79.5111
-79.4933
-79.4747
-79.4553
-79.4351
-79.4141
-79.3922
-79.3696
-79.3461
-79.3218
-79.2964
-79.2701
-79.2426
-79.2138
-79.1834
-79.1514
-79.1175
-79.0813
-79.0426
-79.0008
-78.9551
-78.9048
-78.849
-78.7863
-78.7151
-78.6337
-78.542
-78.4407
-78.3573
-79.6845
-79.6811
-79.6757
-79.6692
-79.6617
-79.6533
-79.644
-79.6336
-79.6221
-79.6097
-79.5962
-79.5819
-79.5667
-79.5506
-79.5337
-79.516
-79.4975
-79.4782
-79.4581
-79.4372
-79.4156
-79.3931
-79.3698
-79.3456
-79.3206
-79.2946
-79.2674
-79.2391
-79.2096
-79.1784
-79.1454
-79.1103
-79.0727
-79.0322
-78.9883
-78.9403
-78.8869
-78.8273
-78.7601
-78.6828
-78.5965
-78.5025
-78.3491
-79.7055
-79.7022
-79.6969
-79.6905
-79.6831
-79.6748
-79.6655
-79.6552
-79.6438
-79.6314
-79.618
-79.6037
-79.5885
-79.5725
-79.5557
-79.538
-79.5196
-79.5003
-79.4803
-79.4595
-79.438
-79.4156
-79.3925
-79.3686
-79.3438
-79.3181
-79.2914
-79.2635
-79.2344
-79.2038
-79.1715
-79.1372
-79.1009
-79.0619
-79.0197
-78.9739
-78.9237
-78.8675
-78.8042
-78.733
-78.6559
-78.5707
-78.4454
-79.7269
-79.7236
-79.7182
-79.7118
-79.7044
-79.696
-79.6867
-79.6764
-79.665
-79.6526
-79.6392
-79.625
-79.6098
-79.5938
-79.577
-79.5594
-79.541
-79.5218
-79.5018
-79.4812
-79.4597
-79.4375
-79.4145
-79.3907
-79.366
-79.3405
-79.3142
-79.2868
-79.258
-79.228
-79.1965
-79.1633
-79.1278
-79.0899
-79.0493
-79.005
-78.9567
-78.9038
-78.8451
-78.7785
-78.7016
-78.6135
-78.6161
-79.7477
-79.7443
-79.7389
-79.7325
-79.725
-79.7166
-79.7073
-79.697
-79.6856
-79.6732
-79.6599
-79.6456
-79.6304
-79.6145
-79.5977
-79.5801
-79.5617
-79.5425
-79.5226
-79.502
-79.4806
-79.4585
-79.4356
-79.4119
-79.3876
-79.3623
-79.336
-79.3088
-79.2806
-79.251
-79.22
-79.1873
-79.1529
-79.1163
-79.077
-79.0347
-78.9886
-78.9378
-78.8819
-78.8188
-78.7409
-78.6405
-78.6768
-79.7677
-79.7644
-79.759
-79.7525
-79.7451
-79.7367
-79.7273
-79.717
-79.7057
-79.6933
-79.6799
-79.6656
-79.6505
-79.6345
-79.6177
-79.6001
-79.5817
-79.5626
-79.5427
-79.5221
-79.5007
-79.4786
-79.4559
-79.4323
-79.408
-79.3828
-79.3568
-79.3299
-79.3019
-79.2728
-79.2424
-79.2103
-79.1765
-79.1407
-79.1028
-79.0619
-79.0178
-78.9695
-78.9161
-78.8574
-78.7962
-78.7334
-78.5372
-79.7874
-79.784
-79.7786
-79.7721
-79.7646
-79.7562
-79.7468
-79.7365
-79.7251
-79.7127
-79.6993
-79.6851
-79.6699
-79.6539
-79.6371
-79.6195
-79.6011
-79.582
-79.5621
-79.5414
-79.5201
-79.498
-79.4752
-79.4516
-79.4274
-79.4023
-79.3765
-79.3498
-79.3221
-79.2931
-79.263
-79.2316
-79.1986
-79.1637
-79.1265
-79.0867
-79.044
-78.9979
-78.9479
-78.8931
-78.833
-78.7752
-78.744
-79.8061
-79.8028
-79.7974
-79.7909
-79.7835
-79.775
-79.7657
-79.7553
-79.744
-79.7316
-79.7182
-79.7039
-79.6887
-79.6727
-79.6559
-79.6383
-79.6199
-79.6007
-79.5808
-79.5601
-79.5388
-79.5167
-79.494
-79.4705
-79.4462
-79.4211
-79.3953
-79.3686
-79.341
-79.3125
-79.2828
-79.2516
-79.219
-79.1847
-79.1485
-79.1098
-79.0683
-79.0232
-78.9739
-78.9195
-78.8595
-78.7981
-78.6923
-79.8249
-79.8215
-79.816
-79.8095
-79.802
-79.7936
-79.7841
-79.7738
-79.7624
-79.75
-79.7365
-79.7222
-79.707
-79.691
-79.6741
-79.6564
-79.638
-79.6188
-79.5988
-79.5781
-79.5567
-79.5346
-79.5118
-79.4882
-79.464
-79.4389
-79.4132
-79.3866
-79.3591
-79.3305
-79.3009
-79.2701
-79.2379
-79.2039
-79.168
-79.13