/*--------------------------------*- C++ -*----------------------------------*\
| =========                 |                                                 |
| \\      /  F ield         | OpenFOAM: The Open Source CFD Toolbox           |
|  \\    /   O peration     | Version:  2.3.0                                 |
|   \\  /    A nd           | Web:      www.OpenFOAM.org                      |
|    \\/     M anipulation  |                                                 |
\*---------------------------------------------------------------------------*/
FoamFile
{
    version     2.0;
    format      ascii;
    class       surfaceScalarField;
    location    "3000";
    object      phi;
}
// * * * * * * * * * * * * * * * * * * * * * * * * * * * * * * * * * * * * * //

dimensions      [0 3 -1 0 0 0 0];

internalField   nonuniform List<scalar> 
76436
(
-0.00696887
-0.00467661
0.00513761
0.00650786
-0.00738768
-0.00445517
0.00487398
-0.00776575
-0.00424183
0.0046199
-0.00810782
-0.00404033
0.00438241
-0.00841143
-0.003845
0.00414861
-0.00867818
-0.00365874
0.00392549
-0.00890944
-0.00347964
0.0037109
-0.00910983
-0.00330607
0.00350645
-0.00927516
-0.00314103
0.00330636
-0.00941142
-0.00297788
0.00311414
-0.0095169
-0.00282568
0.00293116
-0.00959034
-0.00267726
0.00275071
-0.00963678
-0.00253426
0.00258069
-0.00965135
-0.0023965
0.00241108
-0.00964429
-0.00226042
0.00225336
-0.00960746
-0.00213438
0.00209756
-0.00954452
-0.0020082
0.00194526
-0.00945575
-0.00188846
0.0017997
-0.00934318
-0.00177172
0.00165915
-0.00920889
-0.00165785
0.00152356
-0.00905172
-0.00155021
0.00139304
-0.00887299
-0.00144208
0.00126335
-0.00867466
-0.00134289
0.00114457
-0.00845987
-0.00124013
0.00102534
-0.00822562
-0.00114598
0.000911723
-0.00797853
-0.0010508
0.000803715
-0.00772146
-0.000958482
0.000701405
-0.00745333
-0.000870373
0.000602247
-0.00718354
-0.000780032
0.00051024
-0.00690941
-0.000695448
0.000421317
-0.00663871
-0.000608626
0.000337929
-0.00637505
-0.000524423
0.000260765
-0.00612371
-0.000438931
0.00018759
-0.00588969
-0.000354278
0.000120254
-0.00568037
-0.000269008
5.96924e-05
-0.00550344
-0.000180256
3.32339e-06
-0.00536623
-9.06911e-05
-4.65188e-05
-0.00527669
1.02579e-06
-9.05635e-05
-0.00524572
9.73933e-05
-0.000128369
-0.00528471
0.000196276
-0.000157281
-0.00539537
0.000290961
-0.000180306
-0.00558044
0.000382804
-0.000197735
0.000468506
-0.00589521
-0.000153734
-0.00629582
-0.0042649
0.00588411
-0.00667402
-0.00407697
-0.00701116
-0.00390469
-0.00731808
-0.00373341
-0.00759293
-0.00357015
-0.00783925
-0.00341242
-0.00805648
-0.00326241
-0.00824446
-0.00311809
-0.00840986
-0.00297562
-0.00854605
-0.00284169
-0.00866185
-0.00270989
-0.00875283
-0.00258628
-0.00882478
-0.00246231
-0.00887642
-0.00234486
-0.00890495
-0.00223189
-0.00891937
-0.00211996
-0.00891523
-0.00201233
-0.00889318
-0.00191052
-0.00885885
-0.00180605
-0.00880964
-0.00170706
-0.00874633
-0.00161352
-0.0086732
-0.0015152
-0.00859072
-0.00142537
-0.00849677
-0.00133408
-0.00839722
-0.00124553
-0.00829097
-0.00115705
-0.00817865
-0.0010708
-0.00806407
-0.00098495
-0.00794447
-0.000899636
-0.0078254
-0.000814521
-0.00770318
-0.000730839
-0.00758065
-0.000646954
-0.0074561
-0.000563488
-0.00733293
-0.000477448
-0.00720801
-0.00039392
-0.00708033
-0.000307939
-0.00694495
-0.000226076
-0.0068014
-0.000142521
-0.00664359
-6.04174e-05
-0.00646119
1.38822e-05
-0.00625476
8.45295e-05
-0.00601223
0.000140273
0.000186734
-0.00573046
-0.005685
-0.00389674
0.00531684
-0.00601735
-0.00374462
-0.0063231
-0.00359894
-0.00659711
-0.0034594
-0.00684235
-0.0033249
-0.00705899
-0.00319578
-0.00725322
-0.00306819
-0.00742404
-0.00294726
-0.00757009
-0.00282957
-0.00769681
-0.00271497
-0.00780027
-0.00260643
-0.0078858
-0.00250075
-0.00795193
-0.00239617
-0.00800124
-0.00229555
-0.00803415
-0.00219899
-0.00805104
-0.00210307
-0.00805251
-0.00201087
-0.00804402
-0.00191901
-0.00801768
-0.00183239
-0.00798065
-0.0017441
-0.00793658
-0.00165758
-0.00787602
-0.00157577
-0.00780931
-0.00149208
-0.0077322
-0.0014112
-0.0076463
-0.00133143
-0.00755569
-0.00124765
-0.0074567
-0.0011698
-0.0073508
-0.00109085
-0.00723977
-0.00101067
-0.00712455
-0.000929734
-0.00700488
-0.00085051
-0.00688017
-0.000771668
-0.00675149
-0.000692163
-0.00661754
-0.000611405
-0.00647989
-0.000531567
-0.00633564
-0.000452188
-0.00618785
-0.000373866
-0.00602891
-0.000301464
-0.00586237
-0.000226953
-0.00568546
-0.000163028
-0.00549641
-0.000104523
-0.00530115
-5.49893e-05
-1.456e-05
-0.00509985
-0.00513261
-0.00356879
0.00480466
-0.00542941
-0.00344783
-0.00569895
-0.00332939
-0.00594369
-0.00321466
-0.00616413
-0.00310446
-0.00636121
-0.0029987
-0.00653393
-0.00289547
-0.00668574
-0.00279545
-0.00681748
-0.00269783
-0.00692982
-0.00260263
-0.00702444
-0.00251181
-0.00710203
-0.00242317
-0.00716155
-0.00233665
-0.00720493
-0.00225217
-0.00723574
-0.00216817
-0.00725288
-0.00208592
-0.00725513
-0.00200862
-0.00724453
-0.00192961
-0.00722484
-0.00185208
-0.00719295
-0.00177598
-0.00714954
-0.00170099
-0.00709789
-0.00162741
-0.0070369
-0.00155308
-0.00696989
-0.0014782
-0.0068942
-0.00140712
-0.00680945
-0.0013324
-0.00671984
-0.0012594
-0.00662345
-0.00118725
-0.00652042
-0.0011137
-0.00640971
-0.00104045
-0.00629578
-0.000964436
-0.00617679
-0.000890663
-0.00605266
-0.000816294
-0.00592394
-0.000740124
-0.00578793
-0.000667577
-0.00564635
-0.000593764
-0.00549981
-0.000520414
-0.00534929
-0.000451981
-0.00519021
-0.000386034
-0.00502789
-0.00032534
-0.00486325
-0.000269171
-0.00469657
-0.00022167
-0.000182301
-0.00452883
-0.00463341
-0.003276
0.00434062
-0.00490037
-0.00318087
-0.00514438
-0.00308539
-0.0053617
-0.00299734
-0.00555788
-0.00290828
-0.00573291
-0.00282367
-0.00588765
-0.00274074
-0.00602293
-0.00266017
-0.00614061
-0.00258015
-0.0062411
-0.00250213
-0.00632504
-0.00242787
-0.00639274
-0.00235548
-0.00644778
-0.00228161
-0.00648876
-0.0022112
-0.00651456
-0.00214237
-0.00652547
-0.00207501
-0.00652992
-0.00200417
-0.00652014
-0.00193939
-0.00649972
-0.00187251
-0.00647063
-0.00180507
-0.00643147
-0.00174015
-0.00638275
-0.00167613
-0.00632779
-0.00160803
-0.0062622
-0.0015438
-0.00619213
-0.00147718
-0.00611223
-0.00141231
-0.00602807
-0.00134355
-0.00593876
-0.00127657
-0.00584099
-0.00121147
-0.00573981
-0.00114162
-0.00563365
-0.0010706
-0.00552151
-0.0010028
-0.00540478
-0.000933029
-0.00528446
-0.000860441
-0.00516069
-0.00079135
-0.00503313
-0.000721326
-0.00489959
-0.00065395
-0.00476358
-0.000587988
-0.00462382
-0.000525795
-0.00448317
-0.000465992
-0.00433848
-0.000413857
-0.00419324
-0.00036691
-0.000326215
-0.00404933
-0.00418551
-0.00301416
0.00392367
-0.00442355
-0.00294282
-0.00464061
-0.00286833
-0.00483704
-0.00280091
-0.00501173
-0.00273358
-0.00517008
-0.00266533
-0.00531011
-0.0026007
-0.00543129
-0.002539
-0.00553757
-0.00247387
-0.00562571
-0.00241399
-0.00569961
-0.00235398
-0.00576277
-0.00229231
-0.00581048
-0.0022339
-0.00584478
-0.0021769
-0.0058693
-0.00211785
-0.00588255
-0.00206176
-0.00588149
-0.00200523
-0.00587457
-0.0019463
-0.00585565
-0.00189144
-0.00582656
-0.00183416
-0.00579077
-0.00177594
-0.00574705
-0.00171986
-0.00569393
-0.00166115
-0.00563656
-0.00160117
-0.00557198
-0.00154176
-0.00550017
-0.00148413
-0.00542174
-0.00142198
-0.0053379
-0.00136041
-0.00525042
-0.00129895
-0.00515897
-0.00123306
-0.00505956
-0.00117002
-0.00495683
-0.00110553
-0.00485137
-0.00103849
-0.00474092
-0.000970884
-0.00462809
-0.000904184
-0.00450884
-0.000840572
-0.00438866
-0.000774132
-0.00426592
-0.000710734
-0.00414018
-0.000651529
-0.00401172
-0.000594457
-0.003883
-0.000542575
-0.00375463
-0.000495277
-0.000457272
-0.00362358
-0.00378106
-0.00277804
0.00354494
-0.00399784
-0.00272603
-0.0041897
-0.00267647
-0.00436671
-0.0026239
-0.00452593
-0.00257436
-0.00466627
-0.00252499
-0.0047914
-0.00247556
-0.0048999
-0.0024305
-0.00499534
-0.00237843
-0.00507664
-0.00233268
-0.00514556
-0.00228507
-0.0051994
-0.00223847
-0.00524018
-0.00219311
-0.0052746
-0.00214248
-0.00529446
-0.00209799
-0.00530528
-0.00205094
-0.00530692
-0.00200359
-0.00529805
-0.00195517
-0.00528213
-0.00190736
-0.00525473
-0.00186155
-0.00522231
-0.00180836
-0.00518191
-0.00176026
-0.005134
-0.00170907
-0.00507996
-0.0016552
-0.00501885
-0.00160288
-0.00495547
-0.0015475
-0.0048824
-0.00149505
-0.00480892
-0.00143388
-0.00472855
-0.00137932
-0.00463988
-0.00132174
-0.00455039
-0.0012595
-0.00445824
-0.00119768
-0.00436267
-0.00113406
-0.00426004
-0.00107351
-0.00415589
-0.00100833
-0.00405075
-0.000945709
-0.00394151
-0.000883376
-0.00382964
-0.0008226
-0.00371654
-0.000764627
-0.00360188
-0.000709124
-0.00348606
-0.000658391
-0.0033676
-0.000613736
-0.000571688
-0.00325319
-0.00341703
-0.00256708
0.00320607
-0.0036108
-0.00253227
-0.00378676
-0.00250051
-0.0039438
-0.00246686
-0.00408863
-0.00242954
-0.00421569
-0.00239793
-0.00432621
-0.00236505
-0.00442725
-0.00232946
-0.00451091
-0.00229477
-0.00458403
-0.00225956
-0.00464568
-0.00222342
-0.00469397
-0.00219017
-0.00473441
-0.00215268
-0.00476211
-0.00211477
-0.00478109
-0.00207902
-0.00479252
-0.00203951
-0.00479054
-0.00200557
-0.00478286
-0.00196285
-0.00476523
-0.00192499
-0.00474578
-0.001881
-0.0047137
-0.00184045
-0.00467832
-0.00179564
-0.00463555
-0.00175183
-0.00458377
-0.00170698
-0.00452778
-0.00165887
-0.0044675
-0.00160778
-0.00440412
-0.00155843
-0.00433288
-0.00150512
-0.00426162
-0.00145059
-0.00418507
-0.00139829
-0.00410283
-0.00134174
-0.00401703
-0.00128348
-0.00392632
-0.00122478
-0.00383683
-0.001163
-0.00374214
-0.00110302
-0.00364568
-0.00104217
-0.00354701
-0.000982049
-0.00344723
-0.000922375
-0.0033442
-0.000867659
-0.0032394
-0.000813928
-0.00313353
-0.000764253
-0.00302871
-0.000718559
-0.000677194
-0.0029232
-0.0030902
-0.00237642
0.00289953
-0.00326272
-0.00235974
-0.00342207
-0.00234116
-0.00356682
-0.00232211
-0.00369316
-0.00230319
-0.00380936
-0.00228174
-0.00391072
-0.00226369
-0.00400147
-0.0022387
-0.00407718
-0.00221906
-0.00414341
-0.00219334
-0.00419779
-0.00216904
-0.00424455
-0.00214342
-0.00428
-0.00211723
-0.004305
-0.00208978
-0.00432274
-0.00206127
-0.00432911
-0.00203315
-0.00433513
-0.00199954
-0.00432622
-0.00197176
-0.00431366
-0.00193755
-0.00429301
-0.00190165
-0.00426492
-0.00186853
-0.00422993
-0.00183062
-0.00419088
-0.00179088
-0.00414775
-0.00175012
-0.00409761
-0.00170901
-0.00404246
-0.00166293
-0.00398187
-0.00161903
-0.00391836
-0.00156862
-0.00385192
-0.00151702
-0.0037828
-0.00146741
-0.00370656
-0.00141798
-0.00362776
-0.00136228
-0.00354779
-0.00130474
-0.00346184
-0.00124895
-0.00337721
-0.00118765
-0.00329115
-0.00112823
-0.00319777
-0.00107542
-0.00310595
-0.00101419
-0.00301254
-0.000961076
-0.00291837
-0.000908091
-0.00282337
-0.000859258
-0.0027275
-0.000814429
-0.00262987
-0.000774824
-0.00545727
0.000523922
-0.000961867
-0.00516469
0.000509119
-0.000801691
-0.00493617
0.000481404
-0.000709925
-0.00474473
0.000451172
-0.000642613
-0.00457623
0.00041556
-0.000584061
-0.00442023
0.00037788
-0.000533882
-0.00427554
0.000339805
-0.000484497
-0.00413627
0.000300565
-0.00043983
-0.00400176
0.000260562
-0.00039507
-0.00386975
0.000220987
-0.000353003
-0.00374118
0.000180775
-0.00030934
-0.00361311
0.000140158
-0.000268233
-0.00348703
9.98464e-05
-0.000225928
-0.00336194
5.79227e-05
-0.000183009
-0.00323912
1.71359e-05
-0.000139959
-0.00311656
-2.592e-05
-9.66403e-05
-0.00299685
-6.8507e-05
-5.11992e-05
-0.00287891
-0.000112207
-5.73636e-06
-0.00276389
-0.000157325
4.23108e-05
-0.00265155
-0.000203185
9.08428e-05
-0.00254211
-0.000250993
0.000141552
-0.00243672
-0.00029966
0.00019427
-0.00233461
-0.000350854
0.000248748
-0.00223808
-0.000402817
0.000306289
-0.00214608
-0.000457983
0.000365977
-0.00205964
-0.000515077
0.000428641
-0.00198003
-0.000574124
0.000494516
-0.00190665
-0.00063614
0.000562758
-0.00184168
-0.000699953
0.000634979
-0.00178455
-0.000767712
0.000710581
-0.00173685
-0.000838296
0.000790597
-0.0016996
-0.000911859
0.00087461
-0.00167311
-0.000988743
0.000962249
-0.00165902
-0.00106905
0.00105496
-0.00165796
-0.00115361
0.00115255
-0.00167036
-0.00124268
0.00125508
-0.0016991
-0.00133477
0.00136351
-0.00174338
-0.00143231
0.00147659
-0.00180599
-0.00153354
0.00159615
-0.00188639
-0.00164125
0.00172165
-0.00198844
-0.00175271
0.00185477
-0.00211123
-0.00187067
0.00199345
-0.00199479
0.00214031
-0.00225675
-0.00542123
0.000214689
-0.00514246
0.000230352
-0.00489215
0.000231098
-0.00466633
0.000225351
-0.00445966
0.000208884
-0.00427121
0.000189435
-0.00409673
0.000165327
-0.00393257
0.000136401
-0.00377914
0.000107135
-0.00363168
7.35277e-05
-0.00349245
4.1543e-05
-0.00335783
5.54204e-06
-0.00322728
-3.07087e-05
-0.00310183
-6.75298e-05
-0.00298018
-0.000104509
-0.00286225
-0.000143852
-0.00274708
-0.000183679
-0.00263553
-0.000223753
-0.0025274
-0.000265459
-0.00242299
-0.000307594
-0.00232258
-0.000351405
-0.00222509
-0.000397153
-0.00213334
-0.000442602
-0.00204464
-0.000491516
-0.00196226
-0.000540358
-0.00188592
-0.000591423
-0.00181548
-0.000644565
-0.00175221
-0.000699407
-0.00169553
-0.000756627
-0.00164683
-0.000816418
-0.00160754
-0.000877584
-0.00157828
-0.000941126
-0.00155816
-0.00100885
-0.00154923
-0.00107798
-0.00155185
-0.00115099
-0.0015681
-0.00122643
-0.00159791
-0.00130496
-0.00164214
-0.00138808
-0.0017011
-0.00147457
-0.00177793
-0.00156443
-0.00187237
-0.00165827
-0.00198575
-0.00175729
-0.00185906
-0.00212148
-0.00489661
1.14447e-05
-0.0046985
3.22452e-05
-0.0045076
4.01959e-05
-0.00432304
4.07947e-05
-0.00414853
3.43679e-05
-0.00398248
2.33905e-05
-0.00382426
7.09948e-06
-0.00367343
-1.44239e-05
-0.00352777
-3.85269e-05
-0.00338906
-6.51816e-05
-0.0032533
-9.42127e-05
-0.00312359
-0.00012417
-0.00299879
-0.000155509
-0.00287798
-0.000188344
-0.00275956
-0.000222928
-0.00264512
-0.000258291
-0.00253493
-0.000293867
-0.0024281
-0.000330588
-0.00232549
-0.000368066
-0.00222654
-0.000406547
-0.0021316
-0.000446337
-0.00204143
-0.000487325
-0.00195535
-0.000528685
-0.00187484
-0.000572022
-0.00179973
-0.000615471
-0.00173053
-0.000660618
-0.001667
-0.000708093
-0.00161049
-0.000755926
-0.00156073
-0.000806382
-0.00151975
-0.000857395
-0.00148601
-0.00091133
-0.00146112
-0.000966012
-0.00144617
-0.0010238
-0.00144147
-0.00108268
-0.00144692
-0.00114554
-0.00146479
-0.00120856
-0.00149405
-0.00127569
-0.00153681
-0.00134533
-0.00159388
-0.0014175
-0.00166581
-0.00149249
-0.00175312
-0.00157097
-0.00185753
-0.00165287
-0.00173779
-0.0019788
-0.00436449
-0.000152893
-0.00420007
-0.000132174
-0.00403932
-0.000120555
-0.00388352
-0.000115004
-0.00373366
-0.000115487
-0.00358727
-0.000123008
-0.00344489
-0.000135274
-0.00330981
-0.000149507
-0.00317874
-0.000169595
-0.00305183
-0.000192094
-0.00293032
-0.000215725
-0.00281216
-0.000242321
-0.00269686
-0.000270816
-0.00258577
-0.000299434
-0.00247962
-0.000329076
-0.0023764
-0.000361512
-0.00227612
-0.000394146
-0.00217971
-0.000426997
-0.00208735
-0.000460422
-0.00199841
-0.000495487
-0.00191372
-0.000531029
-0.0018342
-0.000566849
-0.00175829
-0.000604588
-0.00168844
-0.000641882
-0.00162296
-0.000680948
-0.00156218
-0.000721395
-0.00150812
-0.000762157
-0.00145957
-0.00080448
-0.00141857
-0.000847373
-0.0013842
-0.000891774
-0.00135775
-0.000937778
-0.00133898
-0.000984777
-0.00132874
-0.00103405
-0.00132745
-0.00108397
-0.0013372
-0.00113579
-0.00135604
-0.00118971
-0.00138662
-0.00124512
-0.00142911
-0.00130283
-0.00148434
-0.00136227
-0.00155197
-0.00142487
-0.00163446
-0.00148847
-0.0017313
-0.00155603
-0.00162538
-0.00184371
-0.00390498
-0.000297244
-0.00376301
-0.000274146
-0.00362308
-0.000260486
-0.00348741
-0.000250674
-0.00335344
-0.000249456
-0.00322477
-0.000251672
-0.00309911
-0.000260936
-0.00297696
-0.000271658
-0.00285884
-0.000287719
-0.00274563
-0.000305295
-0.00263388
-0.000327484
-0.00252633
-0.00034987
-0.00242383
-0.000373315
-0.00232311
-0.000400154
-0.00222579
-0.000426392
-0.00213119
-0.00045611
-0.00204194
-0.000483403
-0.00195557
-0.00051336
-0.00187162
-0.00054437
-0.00179219
-0.000574925
-0.00171736
-0.00060586
-0.00164616
-0.000638045
-0.00157889
-0.000671862
-0.00151617
-0.000704595
-0.0014588
-0.000738322
-0.00140659
-0.000773605
-0.00136039
-0.000808355
-0.00131933
-0.000845538
-0.00128446
-0.000882243
-0.00125623
-0.000920005
-0.00123517
-0.000958836
-0.00122111
-0.000998843
-0.00121581
-0.00103935
-0.00121855
-0.00108122
-0.00122996
-0.00112439
-0.00125066
-0.00116901
-0.00128124
-0.00121454
-0.00132299
-0.00126109
-0.00137543
-0.00130983
-0.00144049
-0.00135981
-0.00151781
-0.00141115
-0.00160881
-0.00146503
-0.00151992
-0.00171428
-0.00349673
-0.000424087
-0.00337078
-0.000400097
-0.00324742
-0.000383844
-0.00312377
-0.000374322
-0.00300604
-0.000367193
-0.00288982
-0.000367887
-0.00277775
-0.000373011
-0.00266684
-0.000382564
-0.00256136
-0.000393197
-0.00245816
-0.000408498
-0.0023589
-0.000426749
-0.00226183
-0.000446932
-0.0021675
-0.000467649
-0.00207734
-0.000490314
-0.00198939
-0.000514341
-0.00190612
-0.00053938
-0.00182361
-0.000565918
-0.00174588
-0.000591087
-0.00167198
-0.00061827
-0.00160176
-0.000645149
-0.0015344
-0.000673217
-0.00147071
-0.000701736
-0.00141259
-0.00072998
-0.0013584
-0.000758786
-0.00130777
-0.000788955
-0.00126323
-0.000818146
-0.0012228
-0.00084878
-0.00118832
-0.000880021
-0.00115942
-0.000911143
-0.00113655
-0.000942876
-0.00112021
-0.000975171
-0.00111075
-0.0010083
-0.00110796
-0.00104214
-0.00111301
-0.00107618
-0.0011263
-0.0011111
-0.00114847
-0.00114683
-0.00118002
-0.00118299
-0.00122033
-0.00122078
-0.00127064
-0.00125951
-0.00133207
-0.00129838
-0.00140487
-0.00133836
-0.0014897
-0.00138019
-0.00142298
-0.00158664
-0.0031374
-0.000539874
-0.00302203
-0.000515462
-0.00291088
-0.000495003
-0.00280316
-0.000482036
-0.00269561
-0.000474742
-0.00259041
-0.000473085
-0.00248803
-0.0004754
-0.00239087
-0.000479722
-0.00229387
-0.00049019
-0.00220134
-0.000501036
-0.00211135
-0.000516735
-0.00202387
-0.000534413
-0.00193949
-0.000552028
-0.00185648
-0.000573325
-0.00177794
-0.000592876
-0.00170217
-0.000615153
-0.00163054
-0.000637544
-0.00155962
-0.000662008
-0.00149411
-0.000683784
-0.00143037
-0.000708884
-0.00137053
-0.000733061
-0.00131449
-0.000757771
-0.00126277
-0.0007817
-0.0012147
-0.000806855
-0.00117125
-0.000832406
-0.00113182
-0.000857582
-0.00109761
-0.000882988
-0.00106865
-0.00090898
-0.00104422
-0.000935577
-0.00102594
-0.000961147
-0.00101341
-0.000987709
-0.00100721
-0.0010145
-0.00100752
-0.00104184
-0.00101472
-0.00106897
-0.00102948
-0.00109634
-0.00105218
-0.00112413
-0.00108212
-0.00115305
-0.00112143
-0.00118148
-0.00117021
-0.00121073
-0.00122838
-0.00124021
-0.00129653
-0.00127021
-0.00137521
-0.0013015
-0.00133288
-0.00146532
-0.00281783
-0.000645247
-0.00271652
-0.000616772
-0.00261571
-0.000595814
-0.00251621
-0.000581535
-0.00241875
-0.000572209
-0.00232399
-0.000567841
-0.0022332
-0.000566192
-0.00214323
-0.000569685
-0.00205674
-0.000576688
-0.00197101
-0.000586766
-0.00189063
-0.000597113
-0.0018119
-0.000613146
-0.00173445
-0.000629475
-0.00166184
-0.000645936
-0.00158969
-0.000665024
-0.00152097
-0.000683878
-0.00145556
-0.000702947
-0.00139417
-0.000723399
-0.0013342
-0.000743755
-0.00127754
-0.000765547
-0.00122428
-0.000786316
-0.00117498
-0.000807071
-0.00112876
-0.000827918
-0.00108656
-0.00084906
-0.00104935
-0.000869619
-0.00101503
-0.000891901
-0.000985226
-0.00091279
-0.000959706
-0.0009345
-0.0009402
-0.000955084
-0.000925074
-0.000976273
-0.000915813
-0.00099697
-0.000912052
-0.00101826
-0.000914893
-0.00103899
-0.000923289
-0.00106058
-0.000939115
-0.00108051
-0.00096136
-0.00110189
-0.000991734
-0.00112268
-0.00102941
-0.0011438
-0.00107548
-0.00116466
-0.00112995
-0.00118574
-0.00119369
-0.00120647
-0.00126721
-0.00122798
-0.00125053
-0.00134956
-0.00253655
-0.000738562
-0.00244239
-0.000710935
-0.00234942
-0.000688786
-0.002261
-0.000669953
-0.00217218
-0.000661027
-0.00208654
-0.000653483
-0.00200395
-0.000648783
-0.00192377
-0.000649861
-0.00184507
-0.000655397
-0.00176962
-0.000662213
-0.00169465
-0.000672082
-0.00162297
-0.000684824
-0.00155541
-0.000697038
-0.00148682
-0.000714526
-0.00142267
-0.000729168
-0.00136116
-0.000745387
-0.00130215
-0.00076196
-0.00124608
-0.00077947
-0.00119227
-0.000797563
-0.00114121
-0.000816607
-0.00109328
-0.000834254
-0.00105004
-0.000850306
-0.00100958
-0.000868379
-0.00097216
-0.00088648
-0.000938899
-0.00090288
-0.000909316
-0.000921484
-0.0008836
-0.000938507
-0.00086269
-0.000955409
-0.000845773
-0.000972001
-0.000833905
-0.000988141
-0.000827224
-0.00100365
-0.000825644
-0.00101984
-0.000829211
-0.00103543
-0.000839481
-0.00105031
-0.00085483
-0.00106516
-0.000877307
-0.00107941
-0.000906937
-0.00109305
-0.000942705
-0.00110803
-0.000986218
-0.00112114
-0.00103835
-0.00113361
-0.0010975
-0.00114732
-0.00116524
-0.00116024
-0.00117333
-0.00124243
0.0010531
0.000450114
-0.000463809
-0.0010394
0.00106966
0.000469444
-0.000486009
0.00108903
0.000486194
-0.000505558
0.00111051
0.000500622
-0.00052211
0.00113381
0.000512664
-0.000535955
0.0011572
0.000523074
-0.000546464
0.00118055
0.000531503
-0.000554856
0.00120382
0.000538101
-0.000561372
0.00122609
0.000543015
-0.000565288
0.00124713
0.000546749
-0.000567785
0.00126604
0.000549134
-0.000568047
0.00128306
0.000550314
-0.00056733
0.0012977
0.000550082
-0.000564722
0.0013093
0.000549545
-0.000561145
0.00131813
0.000547555
-0.000556385
0.00132435
0.000544801
-0.000551019
0.0013268
0.000541454
-0.000543908
0.00132564
0.000537629
-0.000536467
0.00132154
0.000532974
-0.000528876
0.00131338
0.000528036
-0.000519882
0.00130194
0.000521947
-0.000510505
0.00128658
0.000516229
-0.00050087
0.00126768
0.000510008
-0.000491099
0.00124512
0.000503351
-0.000480794
0.00121831
0.000496844
-0.000470034
0.00118928
0.000488976
-0.000459952
0.00115589
0.000482461
-0.000449068
0.00111917
0.000474688
-0.000437966
0.0010791
0.00046733
-0.000427266
0.00103627
0.000459334
-0.000416496
0.000989529
0.00045245
-0.000405713
0.000940623
0.000444451
-0.000395545
0.00088901
0.000436516
-0.000384902
0.000834326
0.000429306
-0.000374623
0.000776751
0.000421969
-0.000364393
0.000716318
0.000414898
-0.000354465
0.00065335
0.000408062
-0.000345093
0.000584874
0.000403164
-0.000334689
0.000508583
0.000401423
-0.000325129
0.000415447
0.000409715
-0.000316586
0.000279838
0.000446654
-0.000311039
2.62435e-05
0.000577362
-0.000323777
0.00100333
-0.000581257
-0.000395818
0.000954027
0.000434119
-0.000938031
0.000972823
0.000450648
0.000993417
0.0004656
0.00101544
0.000478602
0.00103786
0.000490238
0.00106127
0.000499667
0.00108445
0.00050832
0.00110717
0.000515383
0.00112855
0.000521641
0.00114877
0.00052652
0.00116776
0.000530145
0.00118479
0.000533287
0.00119914
0.000535736
0.00121177
0.000536913
0.00122135
0.000537977
0.00122833
0.000537821
0.00123234
0.000537442
0.00123338
0.000536587
0.00123094
0.000535417
0.00122571
0.000533263
0.0012163
0.000531353
0.00120388
0.000528655
0.00118793
0.000525952
0.00116841
0.000522873
0.0011458
0.000519457
0.001119
0.000515777
0.00108913
0.000512329
0.00105558
0.000508236
0.00101882
0.000504087
0.00097801
0.000500149
0.000934581
0.000495879
0.000887063
0.000491969
0.000835845
0.000487734
0.00078083
0.000484321
0.000721846
0.000480953
0.000657716
0.000479028
0.000586077
0.000479701
0.000503472
0.000485769
0.000401602
0.000503294
0.000263411
0.000547903
5.31565e-05
0.000656913
-0.0002934
0.00092391
0.00150807
-0.000798131
0.000862821
0.000416679
-0.000845381
0.00088193
0.000431539
0.000903123
0.000444407
0.000925236
0.000456488
0.000948072
0.000467403
0.000970707
0.000477032
0.000993269
0.000485758
0.00101496
0.000493687
0.00103603
0.000500576
0.00105571
0.00050684
0.00107364
0.000512218
0.00109015
0.000516776
0.0011049
0.000520981
0.00111687
0.000524946
0.00112733
0.000527516
0.0011344
0.000530751
0.00113938
0.000532466
0.00114109
0.000534869
0.00114042
0.000536094
0.00113622
0.000537462
0.00112901
0.000538558
0.00111824
0.000539424
0.0011046
0.000539592
0.00108735
0.000540123
0.00106678
0.000540035
0.00104267
0.000539883
0.00101528
0.000539723
0.000984466
0.000539045
0.000949515
0.000539038
0.000911007
0.000538657
0.000868898
0.000537988
0.000822481
0.000538385
0.000771907
0.000538308
0.000716208
0.00054002
0.00065408
0.000543081
0.000584212
0.000548896
0.000502399
0.000561515
0.000403853
0.000584316
0.000277499
0.000629649
0.000104618
0.000720782
-0.000143353
0.000904886
-0.000507254
0.00128781
0.00194024
-0.000939427
0.000778175
0.000398299
-0.000759796
0.000798421
0.000411293
0.000819078
0.00042375
0.000840685
0.000434881
0.000862366
0.000445722
0.00088404
0.000455358
0.000905573
0.000464225
0.000926207
0.000473053
0.000945917
0.000480867
0.000964355
0.000488402
0.000981567
0.000495006
0.000996879
0.000501464
0.00101042
0.000507441
0.00102259
0.000512777
0.00103205
0.000518058
0.00103966
0.000523136
0.00104419
0.000527934
0.00104713
0.00053193
0.00104677
0.000536452
0.00104335
0.000540887
0.00103739
0.000544516
0.00102872
0.000548097
0.0010164
0.000551905
0.00100131
0.000555218
0.000982807
0.000558537
0.000960802
0.000561889
0.000935526
0.000564998
0.000906188
0.000568383
0.000873712
0.000571514
0.000837232
0.000575137
0.000796037
0.000579183
0.000750775
0.000583648
0.000699749
0.000589334
0.000642887
0.000596882
0.000578141
0.000607827
0.000503241
0.000623797
0.000414342
0.000650414
0.000305041
0.000693617
0.000164817
0.000769875
-2.28063e-05
0.000908403
-0.000280625
0.00116271
-0.000624042
0.00163122
0.00231919
-0.00100299
0.00070069
0.000379866
-0.000682256
0.000720461
0.000391522
0.000740994
0.000403217
0.00076154
0.000414335
0.000782586
0.000424676
0.00080313
0.000434814
0.000822829
0.000444526
0.000842344
0.000453538
0.000860687
0.000462524
0.000877897
0.000471191
0.000893708
0.000479195
0.000908208
0.000486964
0.00092084
0.00049481
0.000931781
0.000501836
0.000940692
0.000509146
0.000947824
0.000516004
0.000952892
0.000522866
0.000955027
0.000529794
0.000955453
0.000536026
0.000953299
0.000543042
0.000948114
0.0005497
0.000940072
0.000556139
0.000929265
0.000562712
0.000915218
0.000569265
0.000898327
0.000575429
0.000878273
0.000581942
0.000854391
0.000588881
0.000827397
0.000595377
0.000796226
0.000602685
0.000761162
0.000610201
0.000721656
0.000618689
0.000677117
0.000628187
0.000626546
0.000639905
0.000569204
0.000654224
0.000503334
0.000673697
0.000425778
0.000701353
0.000333224
0.000742969
0.00021898
0.000807862
7.37402e-05
0.000915115
-0.000115204
0.00109735
-0.000365317
0.00141282
-0.000679382
0.00194528
0.00265528
-0.00101547
0.000630578
0.000360843
-0.000611555
0.000649857
0.000372243
0.000669561
0.000383513
0.000689395
0.000394501
0.000708658
0.000405413
0.000728061
0.000415411
0.000746629
0.000425958
0.000764438
0.000435729
0.000781174
0.000445789
0.000797272
0.000455094
0.000811482
0.000464985
0.00082463
0.000473815
0.000836527
0.000482913
0.000846321
0.000492042
0.000854809
0.000500659
0.0008612
0.000509613
0.000865891
0.000518175
0.000868507
0.000527178
0.000868394
0.000536139
0.00086647
0.000544965
0.000862097
0.000554074
0.000854716
0.000563521
0.00084478
0.000572648
0.000832415
0.00058163
0.000816691
0.000591153
0.000797933
0.0006007
0.000776016
0.000610798
0.000750292
0.000621101
0.000720977
0.000632
0.000687524
0.000643654
0.000649266
0.000656948
0.000606326
0.000671127
0.000557226
0.000689005
0.000500658
0.000710793
0.000434504
0.000739851
0.000357161
0.000778696
0.000263851
0.000836279
0.000148685
0.000923028
4.60617e-06
0.00105919
-0.000178921
0.00128087
-0.000413653
0.00164755
-0.000699679
0.00223131
0.00295495
-0.00099935
0.000566753
0.000342503
-0.000548413
0.000585453
0.000353543
0.000604119
0.000364846
0.00062255
0.00037607
0.000641036
0.000386928
0.000658638
0.000397808
0.000676222
0.000408375
0.000692462
0.000419488
0.00070815
0.000430101
0.000722349
0.000440895
0.0007359
0.000451434
0.000747595
0.00046212
0.000757937
0.000472571
0.000767189
0.00048279
0.000774487
0.000493361
0.000780593
0.000503507
0.000784461
0.000514307
0.000786625
0.000525014
0.000787258
0.000535506
0.000785454
0.000546769
0.000781304
0.000558223
0.000774708
0.000570117
0.000765931
0.000581424
0.000753837
0.000593724
0.00073941
0.00060558
0.00072214
0.00061797
0.000701454
0.000631484
0.000677688
0.000644867
0.000649636
0.000660051
0.000617759
0.000675531
0.000582145
0.000692563
0.000540058
0.000713213
0.000492979
0.000736084
0.000438171
0.000765601
0.000374594
0.000803428
0.000298174
0.000855117
0.000207126
0.000927327
9.40454e-05
0.00103611
-4.72979e-05
0.00120054
-0.000223599
0.00145718
-0.000441707
0.00186566
-0.000695813
0.00248542
0.00322268
-0.00096354
0.000509248
0.000324632
-0.000491377
0.00052709
0.000335701
0.000544442
0.000347495
0.000562301
0.00035821
0.000579415
0.000369813
0.00059571
0.000381514
0.000611092
0.000392993
0.000626326
0.000404253
0.000640548
0.000415879
0.000653845
0.000427598
0.000666014
0.000439264
0.00067658
0.000451555
0.000686417
0.000462734
0.000694469
0.000474738
0.000701286
0.000486544
0.000706232
0.000498561
0.000709903
0.000510637
0.000712075
0.000522842
0.000711961
0.00053562
0.00071061
0.000548121
0.000706921
0.000561912
0.000701315
0.000575723
0.000692472
0.000590267
0.000681711
0.000604486
0.000667925
0.000619366
0.000651825
0.000634071
0.000632772
0.000650537
0.000610093
0.000667546
0.000583967
0.000686178
0.000554299
0.000705198
0.000519573
0.000727288
0.000480695
0.000752091
0.000435879
0.000780901
0.000383619
0.000817861
0.000322088
0.000864958
0.000249511
0.000927695
0.000162246
0.00101459
5.52961e-05
0.00114306
-8.24099e-05
0.00133824
-0.000249868
0.00162463
-0.000451997
0.00206779
-0.000684896
0.00271832
0.00345819
-0.000920404
0.000458255
0.000306519
-0.000440141
0.00047458
0.000319375
0.000491282
0.000330792
0.000507521
0.000341972
0.000522824
0.000354511
0.000537942
0.000366395
0.000552746
0.000378188
0.000566484
0.000390516
0.000579291
0.000403072
0.000591164
0.000415725
0.000601939
0.000428489
0.000611979
0.000441515
0.000620031
0.000454682
0.000627157
0.000467612
0.000633546
0.000480155
0.000638191
0.000493916
0.000641127
0.000507701
0.000642186
0.000521782
0.000642495
0.000535312
0.000641341
0.000549274
0.000638413