/*--------------------------------*- C++ -*----------------------------------*\
| =========                 |                                                 |
| \\      /  F ield         | OpenFOAM: The Open Source CFD Toolbox           |
|  \\    /   O peration     | Version:  2.3.0                                 |
|   \\  /    A nd           | Web:      www.OpenFOAM.org                      |
|    \\/     M anipulation  |                                                 |
\*---------------------------------------------------------------------------*/
FoamFile
{
    version     2.0;
    format      ascii;
    class       volVectorField;
    location    "3000";
    object      U;
}
// * * * * * * * * * * * * * * * * * * * * * * * * * * * * * * * * * * * * * //

dimensions      [0 1 -1 0 0 0 0];

internalField   nonuniform List<vector> 
38388
(
(19.7843 14.0833 1.13798e-20)
(19.6285 14.2876 2.83031e-20)
(19.4702 14.4877 -2.41682e-20)
(19.3056 14.6861 1.39317e-20)
(19.1338 14.8822 2.16171e-22)
(18.9539 15.0753 0)
(18.765 15.2642 -4.41139e-20)
(18.5663 15.4479 2.6478e-20)
(18.3568 15.6251 6.52823e-20)
(18.1354 15.7945 -1.92518e-19)
(17.9013 15.9547 2.78064e-19)
(17.6534 16.1042 -1.57486e-19)
(17.3908 16.2416 1.9583e-19)
(17.1125 16.365 -1.9183e-19)
(16.8176 16.4727 0)
(16.5051 16.5629 2.77653e-20)
(16.1741 16.634 2.18525e-20)
(15.824 16.6843 2.38656e-20)
(15.4536 16.712 3.81211e-19)
(15.0622 16.7159 -3.53e-19)
(14.6489 16.6948 -1.26322e-20)
(14.2132 16.6481 4.41822e-19)
(13.7545 16.5758 -9.49461e-19)
(13.2712 16.4773 1.03397e-18)
(12.7637 16.3556 -5.38084e-19)
(12.2302 16.2121 -2.39933e-20)
(11.6697 16.0498 -6.56094e-19)
(11.0806 15.8736 6.87239e-19)
(10.4608 15.6898 0)
(9.80793 15.5062 -3.43127e-20)
(9.11758 15.3312 3.7542e-20)
(8.38507 15.1759 0)
(7.60306 15.0505 0)
(6.76544 14.9721 -2.43872e-20)
(5.86247 14.954 5.78897e-19)
(4.88349 15.0092 -1.85702e-20)
(3.81879 15.1541 -6.28383e-19)
(2.65009 15.4086 -3.12918e-20)
(1.35086 15.7689 -8.80516e-21)
(-0.112611 16.2313 -1.495e-20)
(-1.70306 16.9126 2.11019e-20)
(-3.3364 17.9956 0)
(-5.07654 18.9396 1.00187e-19)
(19.6064 14.0246 -1.88107e-20)
(19.464 14.2117 -2.4829e-20)
(19.3201 14.3983 -1.22266e-20)
(19.1717 14.5845 2.73908e-20)
(19.0185 14.771 -4.92257e-20)
(18.86 14.9577 2.30234e-20)
(18.696 15.1445 -1.00945e-20)
(18.5259 15.3311 -9.58237e-21)
(18.3492 15.5172 -4.89832e-21)
(18.1653 15.7026 -1.48806e-20)
(17.9737 15.887 -7.61527e-21)
(17.7736 16.0703 -3.80468e-21)
(17.5644 16.2522 -4.05309e-21)
(17.3454 16.4327 -5.99709e-21)
(17.1159 16.6117 0)
(16.8752 16.7892 7.45259e-22)
(16.6226 16.9651 -8.33944e-21)
(16.3573 17.1396 3.38947e-21)
(16.0786 17.3128 -6.68912e-21)
(15.7856 17.4852 0)
(15.4776 17.6569 -3.83235e-21)
(15.1538 17.8285 1.63737e-20)
(14.8131 18.0003 1.37875e-20)
(14.4548 18.1728 -1.43205e-20)
(14.0781 18.347 -2.22193e-21)
(13.6813 18.523 5.76906e-21)
(13.2637 18.702 0)
(12.8232 18.8837 0)
(12.3582 19.0687 3.41235e-20)
(11.8665 19.257 -4.2858e-20)
(11.3447 19.4469 8.05913e-20)
(10.7902 19.6378 -7.17574e-20)
(10.1988 19.8254 0)
(9.56619 20.0053 0)
(8.88747 20.1699 -2.91909e-19)
(8.15832 20.3105 3.23062e-19)
(7.37416 20.4137 0)
(6.53267 20.462 -4.07386e-20)
(5.63501 20.4267 -4.377e-20)
(4.70451 20.2674 -5.01321e-20)
(3.78106 19.9451 2.17884e-20)
(2.90846 19.4334 6.84313e-19)
(2.10021 18.6961 -7.20269e-19)
(19.4377 13.9471 4.04678e-20)
(19.3019 14.1155 -1.23545e-20)
(19.1638 14.2853 1.30378e-20)
(19.0212 14.4549 5.28793e-20)
(18.874 14.6253 0)
(18.7218 14.7965 0)
(18.5645 14.9688 -9.8962e-21)
(18.4019 15.142 9.55845e-21)
(18.2336 15.3161 0)
(18.0591 15.491 8.59728e-21)
(17.8781 15.6667 0)
(17.6899 15.8431 7.78023e-21)
(17.4939 16.0202 1.01493e-20)
(17.2896 16.1981 0)
(17.0763 16.3766 5.43644e-20)
(16.8536 16.5558 -4.73549e-20)
(16.6206 16.7357 3.33665e-21)
(16.3767 16.9163 -3.33813e-21)
(16.121 17.0975 -7.71692e-20)
(15.8524 17.2793 6.24753e-20)
(15.57 17.4614 -6.57833e-20)
(15.2726 17.6438 8.17564e-20)
(14.9588 17.8262 1.60863e-20)
(14.6272 18.0084 9.57295e-20)
(14.2763 18.1899 -1.06379e-19)
(13.9042 18.3702 -1.14062e-19)
(13.5094 18.5485 2.46923e-19)
(13.0901 18.7238 -1.33494e-19)
(12.6441 18.8947 0)
(12.1693 19.0591 2.07017e-19)
(11.6639 19.2144 -2.06167e-19)
(11.1257 19.3568 -1.11149e-20)
(10.5533 19.4817 0)
(9.94628 19.5825 2.92165e-20)
(9.30496 19.6512 -3.36666e-20)
(8.63117 19.6782 -2.56526e-20)
(7.92914 19.6514 0)
(7.20566 19.5577 3.83242e-20)
(6.47251 19.3808 4.86183e-19)
(5.74838 19.1076 -8.99136e-19)
(5.05741 18.7297 4.03988e-19)
(4.42177 18.2422 -5.33984e-19)
(3.86449 17.6566 6.50845e-19)
(19.288 13.8637 2.09382e-20)
(19.1597 14.0135 2.79066e-20)
(19.0292 14.1664 -4.88135e-20)
(18.8945 14.3189 7.71419e-21)
(18.7555 14.4722 0)
(18.6119 14.6263 -4.89197e-20)
(18.4636 14.7814 6.87424e-20)
(18.3104 14.9376 0)
(18.1522 15.095 0)
(17.9888 15.2533 0)
(17.8196 15.4126 0)
(17.6441 15.5729 0)
(17.4617 15.7339 -1.00731e-20)
(17.2718 15.8957 1.60364e-20)
(17.0738 16.0583 1.12403e-19)
(16.8669 16.2216 -1.24111e-19)
(16.6505 16.3856 -1.21679e-19)
(16.4241 16.5503 1.41843e-19)
(16.1868 16.7155 1.46838e-19)
(15.938 16.881 -1.36776e-19)
(15.6768 17.0463 1.52528e-19)
(15.4023 17.2113 -6.40862e-21)
(15.1135 17.3752 -1.83096e-19)
(14.8092 17.5372 1.92228e-19)
(14.4881 17.6966 -1.77907e-19)
(14.1489 17.8521 0)
(13.7901 18.0022 0)
(13.4104 18.1455 3.876e-20)
(13.0082 18.2797 -4.28428e-20)
(12.5824 18.4024 0)
(12.1317 18.5103 0)
(11.6553 18.5996 0)
(11.1528 18.6657 0)
(10.6241 18.7031 -2.81557e-20)
(10.0704 18.7055 -2.9572e-19)
(9.49418 18.6659 -8.20675e-20)
(8.8998 18.5769 3.80375e-19)
(8.29381 18.4309 4.73341e-19)
(7.68565 18.2214 -4.81451e-19)
(7.08842 17.9431 0)
(6.51709 17.5963 1.51209e-19)
(5.98769 17.1848 6.19796e-21)
(5.51468 16.7182 0)
(19.1539 13.777 0)
(19.0328 13.9107 9.68497e-20)
(18.9094 14.0481 -6.26186e-20)
(18.7818 14.185 -2.82412e-20)
(18.65 14.3226 0)
(18.5136 14.4608 0)
(18.3724 14.5998 0)
(18.2263 14.7399 1.81624e-20)
(18.0753 14.8812 6.6504e-20)
(17.9193 15.0236 -4.77202e-20)
(17.758 15.1669 0)
(17.5909 15.3112 0)
(17.4175 15.4562 -1.99251e-20)
(17.2373 15.6018 -1.59521e-20)
(17.0495 15.7479 2.1157e-20)
(16.8533 15.8944 1.36971e-19)
(16.648 16.0412 -1.60463e-19)
(16.4331 16.1882 1.5482e-19)
(16.2076 16.3352 -1.75728e-19)
(15.9711 16.482 0)
(15.7227 16.6282 2.79236e-20)
(15.4618 16.7734 0)
(15.1874 16.9169 0)
(14.8987 17.0578 -2.51176e-19)
(14.5946 17.1952 5.6505e-19)
(14.2741 17.3278 -2.38706e-19)
(13.9357 17.4541 4.28423e-20)
(13.5783 17.5721 1.37795e-19)
(13.2005 17.6801 -3.32211e-19)
(12.8013 17.7757 4.1359e-20)
(12.3803 17.8561 -7.84141e-20)
(11.9377 17.918 3.11134e-19)
(11.4737 17.9575 -7.50663e-20)
(10.9892 17.9698 -8.30804e-20)
(10.4862 17.9498 -4.59803e-20)
(9.96759 17.8922 9.67247e-20)
(9.43774 17.7919 5.62397e-20)
(8.90282 17.6433 0)
(8.37056 17.4426 -5.49558e-19)
(7.85047 17.1875 5.56708e-19)
(7.35383 16.8782 3.13874e-21)
(6.89131 16.5189 -3.51534e-19)
(6.47308 16.1162 3.54044e-19)
(19.0358 13.6932 3.98355e-20)
(18.9217 13.8112 -3.44059e-20)
(18.8053 13.9345 0)
(18.6847 14.0574 -9.69213e-20)
(18.5604 14.1811 -9.92997e-22)
(18.4318 14.3054 7.69058e-20)
(18.2984 14.4301 -7.88973e-20)
(18.1596 14.5558 -1.94345e-20)
(18.0159 14.6827 1.60757e-19)
(17.8673 14.8107 -1.82049e-19)
(17.7138 14.9398 1.44042e-19)
(17.5548 15.0697 -8.41844e-20)
(17.3901 15.2004 4.34536e-20)
(17.2191 15.3318 2.42508e-20)
(17.0412 15.4635 4.78747e-20)
(16.8557 15.5953 5.06137e-20)
(16.6616 15.727 -9.84999e-20)
(16.4582 15.8586 2.81806e-20)
(16.2449 15.9899 0)
(16.021 16.1207 -1.17645e-19)
(15.7857 16.2505 9.18144e-20)
(15.5385 16.3788 -1.67001e-19)
(15.2785 16.5053 1.71883e-19)
(15.0053 16.6288 -3.94255e-20)
(14.718 16.7485 -3.63279e-20)
(14.4162 16.8635 -2.14392e-19)
(14.0989 16.9719 -3.72886e-21)
(13.7653 17.0716 4.01002e-19)
(13.4134 17.1605 -2.11764e-19)
(13.042 17.2366 -3.01521e-19)
(12.6505 17.2974 5.83589e-19)
(12.2395 17.341 -7.15645e-19)
(11.8104 17.3634 3.78576e-19)
(11.3639 17.3605 -7.98912e-21)
(10.902 17.3282 4.53343e-20)
(10.4275 17.2624 -1.5828e-19)
(9.94463 17.1586 4.23353e-19)
(9.45852 17.0134 -9.2797e-20)
(8.97622 16.8235 -8.19754e-19)
(8.50498 16.5871 1.31774e-19)
(8.05289 16.3054 2.34392e-19)
(7.62881 15.9816 -4.4465e-19)
(7.24125 15.621 5.45822e-19)
(18.9317 13.6087 -6.32433e-20)
(18.8243 13.7152 0)
(18.7144 13.8267 0)
(18.6005 13.9377 2.04859e-20)
(18.483 14.0494 0)
(18.3618 14.1619 -6.61197e-20)
(18.2366 14.2744 1.13101e-19)
(18.105 14.3876 -9.19595e-20)
(17.968 14.5022 6.71979e-20)
(17.8259 14.618 0)
(17.679 14.7348 -7.44915e-20)
(17.5268 14.8523 9.70518e-20)
(17.3691 14.9708 7.82425e-20)
(17.2055 15.0901 -2.3126e-19)
(17.0356 15.2098 1.30414e-19)
(16.8587 15.3297 -2.59096e-20)
(16.6741 15.4493 0)
(16.4803 15.5682 6.22553e-20)
(16.2768 15.6867 -9.05004e-20)
(16.0633 15.8047 0)
(15.8391 15.9212 -1.41993e-19)
(15.6032 16.0361 1.7916e-19)
(15.3549 16.149 4.30055e-21)
(15.0941 16.2588 -1.31038e-19)
(14.8192 16.3645 1.74118e-19)
(14.5302 16.4655 1.45568e-19)
(14.2273 16.561 -2.48976e-19)
(13.9111 16.6484 0)
(13.5795 16.7248 2.46623e-19)
(13.2306 16.7877 -1.85604e-19)
(12.8623 16.8352 0)
(12.4744 16.8666 7.41584e-20)
(12.0713 16.879 3.47804e-19)
(11.6533 16.8675 -3.62371e-19)
(11.2215 16.8294 1.03119e-19)
(10.7797 16.7606 -1.20035e-19)
(10.3311 16.657 2.31589e-19)
(9.87943 16.5172 2.597e-19)
(9.43311 16.3379 0)
(8.99688 16.1167 -3.04279e-19)
(8.57671 15.8547 0)
(8.17981 15.5559 3.58933e-19)
(7.81431 15.2244 -5.43296e-19)
(18.8364 13.5294 -9.32218e-22)
(18.7372 13.6245 0)
(18.6347 13.7257 -2.31249e-20)
(18.5275 13.8264 4.81654e-20)
(18.4164 13.9278 4.92869e-20)
(18.3013 14.0304 -1.22368e-19)
(18.1851 14.1325 2.57702e-20)
(18.0609 14.2351 0)
(17.9308 14.339 5.13694e-20)
(17.7947 14.4444 0)
(17.6538 14.5511 2.76076e-20)
(17.5078 14.6582 0)
(17.3562 14.7661 1.41827e-19)
(17.1985 14.8751 -1.13497e-19)
(17.0354 14.9845 -1.19876e-19)
(16.8655 15.0944 1.20793e-19)
(16.6892 15.2042 0)
(16.504 15.3128 3.16335e-20)
(16.3084 15.4211 -3.3102e-20)
(16.103 15.5291 -1.48206e-19)
(15.888 15.6358 3.06813e-19)
(15.6622 15.7399 -1.58972e-19)
(15.423 15.8427 1.33885e-19)
(15.1738 15.942 -1.78449e-19)
(14.9107 16.0367 1.9821e-19)
(14.6329 16.1257 -1.53034e-19)
(14.339 16.2099 0)
(14.0351 16.2875 5.95625e-20)
(13.719 16.3551 6.38976e-20)
(13.3888 16.4104 1.92164e-21)
(13.0433 16.4479 -1.5427e-19)
(12.6714 16.4705 3.25492e-19)
(12.2872 16.4768 -8.34354e-20)
(11.8923 16.4599 9.3306e-20)
(11.4836 16.4187 -1.01483e-19)
(11.0661 16.3504 0)
(10.6473 16.2465 1.28851e-19)
(10.2205 16.1104 -3.85929e-19)
(9.80156 15.9403 1.50019e-19)
(9.39255 15.7312 7.44482e-21)
(8.99628 15.4844 0)
(8.61862 15.2042 1.73325e-19)
(8.26953 14.8944 0)
(18.741 13.4567 2.76133e-20)
(18.6541 13.5425 -2.69579e-20)
(18.562 13.6333 1.81208e-21)
(18.4644 13.7238 -5.33493e-20)
(18.3632 13.8156 1.05584e-19)
(18.2508 13.9104 1.09165e-21)
(18.1414 14.0043 -5.31346e-20)
(18.0225 14.0977 0)
(17.9019 14.1924 -5.69419e-20)
(17.775 14.2877 0)
(17.6432 14.3853 -5.84782e-20)
(17.5056 14.4834 0)
(17.3619 14.5814 -5.82379e-20)
(17.2096 14.6822 2.8627e-20)
(17.055 14.7822 0)
(16.8937 14.8819 -3.45694e-20)
(16.7289 14.9823 -6.72477e-20)
(16.5585 15.0801 3.07827e-20)
(16.3763 15.1774 -3.3648e-20)
(16.1822 15.2754 7.37494e-20)
(15.9781 15.3743 0)
(15.7672 15.4683 1.29132e-19)
(15.5356 15.5629 -1.33334e-19)
(15.2983 15.6549 0)
(15.0483 15.7417 -9.94527e-20)
(14.788 15.8208 2.06789e-19)
(14.5005 15.8952 -1.09364e-19)
(14.2062 15.962 4.64065e-21)
(13.9089 16.0151 -6.53923e-20)
(13.5942 16.0654 -1.43591e-19)
(13.279 16.0962 8.20495e-20)
(12.9203 16.1089 1.69356e-19)
(12.5445 16.1151 -2.62077e-19)
(12.1656 16.0957 1.98403e-19)
(11.7733 16.0507 -2.03199e-19)
(11.3655 15.992 0)
(10.9622 15.8973 1.16701e-19)
(10.5351 15.7657 0)
(10.1329 15.6005 2.87714e-19)
(9.7532 15.3941 -2.9351e-19)
(9.3781 15.1601 -3.32957e-19)
(9.00633 14.8993 -4.37356e-21)
(8.66289 14.6103 2.51396e-21)
(-6.77617 18.1282 -1.42641e-19)
(-5.97836 16.676 0)
(-5.21529 15.3318 4.64753e-19)
(-4.46083 14.2754 -5.34371e-19)
(-3.73927 13.3972 8.96854e-20)
(-3.05458 12.6536 7.14328e-20)
(-2.4101 12.0137 7.52769e-20)
(-1.80674 11.4571 -4.89441e-19)
(-1.24273 10.9679 8.20991e-19)
(-0.715373 10.5343 -9.90678e-19)
(-0.222374 10.1457 5.85939e-19)
(0.238436 9.79503 1.38026e-19)
(0.67023 9.47623 -1.32677e-19)
(1.07568 9.18391 0)
(1.45727 8.91387 9.30871e-19)
(1.81848 8.66336 -8.96994e-19)
(2.15999 8.42919 0)
(2.48424 8.20967 0)
(2.79242 8.00246 1.04005e-19)
(3.08701 7.80649 -1.05062e-19)
(3.36945 7.62023 1.58327e-18)
(3.64118 7.44252 -1.354e-18)
(3.9031 7.27221 0)
(4.15633 7.10833 -1.86966e-19)
(4.40163 6.95012 -3.73549e-19)
(4.63962 6.7968 -1.27632e-18)
(4.87102 6.64775 4.76602e-22)
(5.09638 6.50256 1.43362e-18)
(5.31619 6.36074 -1.77652e-19)
(5.53086 6.22195 -3.61031e-19)
(5.74069 6.08575 0)
(5.94599 5.95189 -1.06439e-18)
(6.14709 5.82023 -3.56628e-19)
(6.34425 5.69055 1.05946e-18)
(6.53767 5.56268 -1.42138e-21)
(6.72754 5.43645 -1.05606e-18)
(6.91407 5.31175 3.54747e-19)
(7.09748 5.18858 0)
(7.27802 5.06689 5.42137e-21)
(7.45591 4.94664 5.08703e-19)
(7.63138 4.82744 -8.51079e-19)
(7.80473 4.70943 6.61132e-19)
(7.97928 4.5994 -6.54737e-19)
(1.42132 17.732 0)
(1.00098 16.7069 -5.74827e-20)
(0.806548 15.7533 5.50102e-20)
(0.757177 14.8777 -8.73566e-20)
(0.809727 14.0829 3.97812e-19)
(0.931394 13.3656 0)
(1.10157 12.7206 0)
(1.30421 12.1407 6.59474e-20)
(1.52832 11.6194 0)
(1.76492 11.1493 4.02719e-19)
(2.00861 10.7241 -5.08708e-19)
(2.25539 10.3379 0)
(2.50161 9.98544 9.71952e-19)
(2.74557 9.662 -1.87827e-18)
(2.9864 9.364 7.98021e-19)
(3.22262 9.08773 7.78338e-19)
(3.4541 8.83047 -7.51999e-19)
(3.68059 8.58957 0)
(3.90242 8.36296 -1.01267e-19)
(4.11928 8.1487 0)
(4.33139 7.94526 -1.73956e-18)
(4.53889 7.75131 1.32737e-18)
(4.74184 7.5657 1.83261e-19)
(4.9405 7.38762 1.83344e-19)
(5.13494 7.21616 1.80899e-19)
(5.32541 7.0507 -1.78837e-19)
(5.51211 6.89062 0)
(5.69522 6.73539 1.73508e-19)
(5.87493 6.58461 1.74929e-19)
(6.05139 6.43779 0)
(6.22472 6.29459 1.71855e-19)
(6.39515 6.15476 0)
(6.56278 6.01798 0)
(6.72774 5.88402 3.82747e-21)
(6.89017 5.75268 3.4892e-19)
(7.05018 5.62369 -3.46991e-19)
(7.20793 5.49702 -1.77545e-21)
(7.36353 5.37246 2.50057e-21)
(7.51708 5.24995 0)
(7.66872 5.12932 -3.43742e-19)
(7.81852 5.0104 -3.36898e-19)
(7.96664 4.89436 -6.68269e-19)
(8.1162 4.79162 0)
(3.40758 17.0007 -2.96658e-19)
(3.06378 16.3064 4.44415e-19)
(2.82593 15.6053 0)
(2.68196 14.9191 -1.19422e-19)
(2.61634 14.2618 -1.24996e-19)
(2.61468 13.6416 -6.37645e-20)
(2.66432 13.0621 -2.36976e-22)
(2.75358 12.5238 -5.91747e-20)
(2.87316 12.0256 1.19045e-19)
(3.01517 11.5653 1.22263e-19)
(3.17338 11.1403 0)
(3.34292 10.7472 3.44142e-19)
(3.5202 10.3831 -4.40566e-19)
(3.70226 10.0451 0)
(3.88651 9.73047 9.56219e-19)
(4.07151 9.4365 -7.14684e-19)
(4.25591 9.16108 -9.09144e-19)
(4.4391 8.90226 9.77931e-19)
(4.62049 8.65822 0)
(4.79956 8.42746 5.664e-19)
(4.97617 8.20865 3.73229e-19)
(5.14993 8.00044 -5.43429e-19)
(5.32099 7.80191 -1.80931e-19)
(5.48909 7.61207 0)
(5.65444 7.43013 -6.9491e-19)
(5.81712 7.25538 6.87047e-19)
(5.97716 7.0871 0)
(6.13465 6.9247 -8.48709e-19)
(6.28969 6.76764 6.74476e-19)
(6.44233 6.61538 1.671e-19)
(6.59268 6.46759 5.02044e-19)
(6.74082 6.32389 -5.04869e-22)
(6.88681 6.18391 -1.00693e-18)
(7.03072 6.04739 -3.33957e-19)
(7.17266 5.91402 1.01509e-18)
(7.31268 5.7836 0)
(7.45091 5.656 -3.40415e-19)
(7.58739 5.53092 2.55725e-19)
(7.72217 5.40821 4.23199e-19)
(7.85534 5.28767 -2.62659e-21)
(7.98693 5.16885 6.65738e-19)
(8.1169 5.05229 0)
(8.2468 4.94908 6.31044e-19)
(5.10912 16.2079 -9.53276e-20)
(4.77528 15.6661 0)
(4.514 15.1069 0)
(4.32118 14.5457 -1.12584e-19)
(4.1913 13.9939 -2.306e-19)
(4.11625 13.46 1.47392e-19)
(4.08769 12.9497 2.91835e-20)
(4.09788 12.466 -5.86279e-20)
(4.13938 12.0104 -1.17406e-19)
(4.20623 11.5827 0)
(4.293 11.1821 0)
(4.39533 10.8073 5.60042e-19)
(4.50955 10.4568 -5.40531e-19)
(4.6325 10.1287 1.05264e-19)
(4.76197 9.82112 0)
(4.89602 9.53217 0)
(5.03309 9.26023 -7.94422e-19)
(5.17212 9.00375 5.77136e-19)
(5.31226 8.76133 -7.58409e-19)
(5.45295 8.53168 1.83514e-19)
(5.59339 8.31359 1.27007e-18)
(5.73332 8.10594 -8.91827e-19)
(5.87243 7.90782 0)
(6.01048 7.71836 5.20595e-19)
(6.14734 7.53689 -8.51705e-19)
(6.28294 7.36268 0)
(6.41721 7.19502 -5.03547e-19)
(6.55012 7.03339 6.64802e-19)
(6.68164 6.87719 0)
(6.8117 6.726 -3.2952e-19)
(6.94024 6.5794 0)
(7.06728 6.43708 0)
(7.19283 6.29868 3.30913e-19)
(7.31693 6.16394 0)
(7.43965 6.03253 0)
(7.56097 5.90427 -6.6052e-19)
(7.68099 5.77894 3.31985e-19)
(7.79974 5.65633 0)
(7.91729 5.53625 -3.30387e-19)
(8.03375 5.41845 -8.50989e-20)
(8.14932 5.30251 -2.47172e-19)
(8.26445 5.18835 0)
(8.38077 5.08087 3.14214e-19)
(6.1059 15.6784 0)
(5.79264 15.213 0)
(5.53487 14.7296 -1.11669e-19)
(5.33213 14.2393 3.26367e-19)
(5.18138 13.7514 1.13545e-19)
(5.07758 13.2732 0)
(5.01518 12.8103 -2.906e-20)
(4.98839 12.3663 -8.58699e-20)
(4.99193 11.9434 -1.17321e-19)
(5.02061 11.5425 -1.06884e-21)
(5.07003 11.1636 2.22849e-19)
(5.13626 10.8062 4.37625e-19)
(5.21582 10.4695 -3.15211e-19)
(5.30601 10.1524 3.13251e-19)
(5.40428 9.85345 3.78941e-21)
(5.50887 9.57136 -1.98528e-19)
(5.61789 9.30487 1.93346e-19)
(5.73042 9.05285 0)
(5.84546 8.8141 7.46671e-19)
(5.96214 8.58747 1.84554e-19)
(6.07986 8.37194 -7.14336e-19)
(6.19806 8.16657 8.78852e-19)
(6.31617 7.97051 -6.90833e-19)
(6.43393 7.78313 8.54182e-19)
(6.55129 7.60374 -1.344e-18)
(6.66811 7.43164 1.3314e-18)
(6.7843 7.26619 -8.2509e-19)
(6.89973 7.10676 0)
(7.0142 6.9528 -6.51226e-19)
(7.12755 6.80394 8.11464e-19)
(7.2397 6.65983 0)
(7.35064 6.52016 0)
(7.46041 6.38458 -3.2341e-19)
(7.56906 6.2528 -1.61042e-19)
(7.67658 6.12451 3.24631e-19)
(7.78291 5.9995 3.26149e-19)
(7.8881 5.87761 1.63088e-19)
(7.99229 5.75865 0)
(8.09547 5.64245 3.27635e-19)
(8.19776 5.52888 -2.54489e-21)
(8.29938 5.41797 0)
(8.40069 5.31012 0)
(8.5019 5.20748 -9.42429e-19)
(6.89558 15.2295 0)
(6.59451 14.8133 0)
(6.34 14.38 -1.05794e-19)
(6.13248 13.9382 -2.17746e-19)
(5.96989 13.4953 -2.21706e-19)
(5.84888 13.0576 -2.23971e-19)
(5.76459 12.6306 -1.96201e-19)
(5.71323 12.2183 8.5319e-20)
(5.69075 11.8226 0)
(5.6928 11.4452 -7.83632e-22)
(5.71548 11.0863 6.52621e-19)
(5.75522 10.7459 -4.30706e-19)
(5.80917 10.4236 4.17815e-19)
(5.87456 10.1185 2.04655e-19)
(5.94896 9.82981 2.00289e-19)
(6.03044 9.55642 -5.93713e-19)
(6.11738 9.29752 -1.96562e-19)
(6.2086 9.05223 3.75983e-19)
(6.30331 8.8195 1.83605e-19)
(6.40068 8.59826 -7.24594e-19)
(6.49999 8.38748 3.54252e-19)
(6.60024 8.18639 1.73937e-19)
(6.70083 7.99445 -1.19996e-18)
(6.80173 7.81119 5.0675e-19)
(6.90295 7.63586 -4.9982e-19)
(7.00436 7.4677 8.22462e-19)
(7.10573 7.30612 4.88872e-19)
(7.20681 7.15036 3.48903e-22)
(7.30712 6.99999 -4.83295e-19)
(7.40646 6.85473 7.99856e-19)
(7.50484 6.71435 1.14632e-22)
(7.60229 6.5785 -4.77581e-19)
(7.69886 6.44685 3.18857e-19)
(7.7946 6.319 1.60232e-19)
(7.88933 6.19466 -3.19847e-19)
(7.98293 6.07372 -1.60896e-19)
(8.07551 5.95612 1.60524e-19)
(8.16729 5.84151 -1.60865e-19)
(8.25804 5.72972 -3.2545e-19)
(8.3479 5.62077 -7.77663e-20)
(8.43707 5.51461 -2.38753e-19)
(8.52576 5.41114 1.58492e-19)
(8.61432 5.31035 7.65238e-19)
(7.48537 14.8645 4.11867e-21)
(7.195 14.4819 9.27301e-21)
(6.94574 14.0834 4.57512e-21)
(6.73833 13.6757 2.14726e-19)
(6.57144 13.265 4.36654e-19)
(6.44163 12.8566 1.93281e-19)
(6.34437 12.4563 4.70577e-19)
(6.27742 12.0686 0)
(6.23859 11.6948 0)
(6.22324 11.3364 2.19255e-19)
(6.22823 10.9942 -2.14583e-19)
(6.25032 10.6685 -2.12055e-19)
(6.28678 10.359 9.00622e-23)
(6.3353 10.0647 2.04308e-19)
(6.39294 9.78528 -7.94036e-19)
(6.45804 9.52011 -1.93924e-19)
(6.52866 9.26861 1.89852e-19)
(6.60425 9.03022 0)
(6.68419 8.80378 -5.50648e-19)
(6.76772 8.58809 8.97355e-19)
(6.85323 8.38206 -7.03659e-19)
(6.93964 8.18536 3.45096e-19)
(7.02654 7.99805 3.40142e-19)
(7.11454 7.81952 3.35065e-19)
(7.20348 7.64867 -1.64582e-19)
(7.29311 7.48493 -1.64058e-19)
(7.38302 7.32746 -1.6238e-19)
(7.47298 7.17562 0)
(7.56194 7.02901 1.58688e-19)
(7.64994 6.88772 -7.92653e-19)
(7.73722 6.7515 -1.70771e-22)
(7.82379 6.61985 4.73198e-19)
(7.90968 6.49243 0)
(7.99499 6.3687 -1.57546e-19)
(8.07908 6.24848 1.5777e-19)
(8.16196 6.13196 1.58058e-19)
(8.24398 6.019 -2.37159e-19)
(8.3255 5.9089 -2.37617e-19)
(8.40569 5.80169 0)
(8.48497 5.69763 0)
(8.56358 5.59645 3.17254e-19)
(8.64179 5.4982 -1.56944e-19)
(8.72035 5.40659 -2.99902e-19)
(7.95467 14.557 1.90724e-19)
(7.67339 14.1989 -4.19994e-21)
(7.42913 13.8262 1.00364e-19)
(7.22354 13.444 -2.09667e-19)
(7.05553 13.0575 1.04082e-19)
(6.92087 12.6707 -2.15075e-19)
(6.81317 12.2918 -4.3282e-19)
(6.73509 11.9241 2.15445e-19)
(6.68591 11.5682 -2.14206e-19)
(6.6581 11.2253 0)
(6.65011 10.8973 -2.11042e-19)
(6.6596 10.5844 0)
(6.68369 10.286 0)
(6.72004 10.0012 -2.00626e-19)
(6.76439 9.72978 1.96756e-19)
(6.81661 9.47196 3.87298e-19)
(6.87379 9.22757 -3.76775e-19)
(6.93728 8.99621 0)
(7.00635 8.77601 0)
(7.07954 8.56532 -1.76546e-19)
(7.15401 8.3633 0)
(7.22896 8.17107 0)
(7.30462 7.989 -1.69075e-19)
(7.38263 7.8155 -1.66578e-19)
(7.46159 7.64882 4.92095e-19)
(7.542 7.48973 -4.84211e-19)
(7.62261 7.33602 -1.59298e-19)
(7.70438 7.18825 0)
(7.78375 7.0452 0)
(7.86281 6.90828 0)
(7.94112 6.77628 1.55447e-19)
(8.0189 6.64887 1.55096e-19)
(8.0963 6.52568 1.55603e-19)
(8.17316 6.40582 -3.11241e-19)
(8.248 6.28962 -1.55246e-19)
(8.32193 6.17775 4.67699e-19)
(8.3955 6.06959 4.70818e-22)
(8.46883 5.96376 1.18031e-19)
(8.53972 5.86099 3.92434e-20)
(8.61007 5.76193 0)
(8.67973 5.66556 -2.34413e-19)
(8.74891 5.57165 2.33328e-19)
(8.8185 5.48355 -1.51984e-19)
(8.35404 14.29 -1.8138e-19)
(8.07194 13.9538 -1.95216e-19)
(7.82829 13.6014 0)
(7.62476 13.2375 -1.04433e-19)
(7.45798 12.8676 -1.05641e-19)
(7.32003 12.4963 1.297e-20)
(7.19933 12.1402 1.76035e-19)
(7.11293 11.7905 -2.39802e-19)
(7.05852 11.4512 2.59347e-19)
(7.02061 11.1185 -2.08891e-19)
(7.00328 10.8028 0)
(7.00417 10.5017 0)
(7.01912 10.2127 -4.07662e-19)
(7.04669 9.93498 -2.09468e-21)
(7.07956 9.66873 1.9195e-19)
(7.12345 9.41833 -1.89606e-19)
(7.16972 9.18021 1.88013e-19)
(7.22671 8.95632 -1.84358e-19)
(7.28936 8.74099 -1.80297e-19)
(7.35525 8.53408 1.76649e-19)
(7.42074 8.33489 0)
(7.48577 8.14894 -3.43782e-19)
(7.55065 7.97264 3.40353e-19)
(7.62031 7.80312 -3.36554e-19)
(7.69002 7.6382 3.33804e-19)
(7.76471 7.48593 -1.6243e-19)
(7.8386 7.33353 4.77327e-19)
(7.91534 7.19241 0)
(7.98473 7.05109 3.10611e-19)
(8.05638 6.9203 -4.71384e-19)
(8.12527 6.7915 -6.97986e-22)
(8.196 6.66848 -1.55817e-19)
(8.26563 6.54924 0)
(8.33478 6.43243 -1.54184e-19)
(8.40116 6.32045 1.54627e-19)
(8.46785 6.21433 -2.34761e-19)
(8.53327 6.11112 -4.63647e-23)
(8.59821 6.00868 7.83908e-20)
(8.65888 5.91039 0)
(8.72173 5.81733 0)
(8.78303 5.72589 1.5882e-19)
(8.84285 5.63656 -1.57954e-19)
(8.90433 5.54018 3.20466e-19)
(-1.06052 -3.10075 3.09848e-19)
(-0.918062 -3.13481 0)
(-0.778036 -3.16882 3.27494e-19)
(-0.640288 -3.20121 -3.32522e-19)
(-0.505142 -3.23208 -3.42801e-19)
(-0.372631 -3.26145 1.75284e-19)
(-0.242731 -3.28931 -5.35104e-19)
(-0.115426 -3.31568 9.0847e-19)
(0.00925744 -3.34053 -1.87975e-19)
(0.131334 -3.36387 -3.76083e-19)
(0.250834 -3.38573 3.84483e-19)
(0.367793 -3.40612 0)
(0.482229 -3.42508 1.9728e-19)
(0.594151 -3.44259 5.10082e-19)
(0.703604 -3.45869 -7.40559e-19)
(0.810614 -3.47341 1.11199e-19)
(0.915147 -3.48677 0)
(1.01722 -3.49881 3.50784e-19)
(1.11688 -3.50959 -3.66009e-19)
(1.21409 -3.51919 1.25141e-19)
(1.30881 -3.52766 0)
(1.40104 -3.53512 -2.80866e-19)
(1.49086 -3.54167 1.51493e-19)
(1.57822 -3.54742 -6.31123e-19)
(1.66313 -3.55251 6.75042e-19)
(1.74557 -3.55703 9.06771e-20)
(1.82552 -3.56118 8.75447e-19)
(1.90296 -3.56506 1.02389e-19)
(1.97783 -3.56887 -1.94927e-18)
(2.05009 -3.57275 8.80047e-19)
(2.11969 -3.57692 1.37029e-19)
(2.18656 -3.58147 0)
(2.25052 -3.58661 0)
(2.31148 -3.59238 -1.64533e-18)
(2.36937 -3.59878 1.20544e-21)
(2.42421 -3.60553 2.15222e-18)
(2.47667 -3.61201 2.35433e-18)
(2.52937 -3.61701 -2.775e-18)
(2.59149 -3.61952 0)
(2.69653 -3.62547 -2.50185e-19)
(2.97771 -3.68757 1.5662e-19)
(3.96848 -4.14119 -6.53333e-18)
(8.15339 -6.64047 5.84982e-18)
(-0.996302 -3.13925 3.13363e-19)
(-0.8645 -3.17156 -3.16512e-19)
(-0.735858 -3.20398 1.64716e-19)
(-0.609208 -3.23509 -1.67206e-19)
(-0.484648 -3.26512 -1.70483e-19)
(-0.362163 -3.29411 -1.11956e-21)
(-0.24169 -3.32205 1.74998e-19)
(-0.12321 -3.34892 1.7735e-19)
(-0.00676 -3.3747 -1.7984e-19)
(0.107704 -3.39941 1.84524e-19)
(0.22023 -3.42307 1.87768e-19)
(0.330842 -3.4457 -1.91361e-19)
(0.439592 -3.46729 9.77435e-20)
(0.546543 -3.48784 -9.91105e-20)
(0.65174 -3.50735 3.06184e-19)
(0.755216 -3.5258 0)
(0.85698 -3.54319 0)
(0.957054 -3.55946 -1.1237e-19)
(1.05544 -3.57463 1.16877e-19)
(1.15214 -3.58868 -1.23201e-19)
(1.24709 -3.60165 -1.26713e-19)
(1.34028 -3.61353 2.69733e-19)
(1.43172 -3.62435 0)
(1.52142 -3.63418 -1.49547e-19)
(1.60936 -3.64302 1.59903e-19)
(1.69547 -3.65092 -4.29982e-19)
(1.77981 -3.65791 5.55177e-19)
(1.86238 -3.66405 -4.00474e-19)
(1.94315 -3.66933 0)
(2.02219 -3.67379 1.18065e-19)
(2.09963 -3.67736 1.30946e-19)
(2.1757 -3.68001 0)
(2.25082 -3.6816 0)
(2.32592 -3.68194 1.79022e-19)
(2.40293 -3.6808 1.60088e-18)
(2.48591 -3.67812 -1.81629e-18)
(2.58367 -3.67477 -2.59494e-19)
(2.71697 -3.67476 2.36753e-18)
(2.93468 -3.69297 -3.08552e-18)
(3.35673 -3.78303 2.00897e-19)
(4.28757 -4.13638 0)
(6.53195 -5.36816 2.55459e-19)
(11.9925 -8.98011 2.2181e-19)
(-0.931748 -3.17035 1.46821e-21)
(-0.809147 -3.2012 1.57622e-19)
(-0.689532 -3.23293 -1.60446e-19)
(-0.571524 -3.26375 1.63703e-19)
(-0.455128 -3.29381 1.6648e-19)
(-0.34033 -3.32312 1.68128e-19)
(-0.227082 -3.35165 4.96471e-22)
(-0.115323 -3.37936 1.744e-19)
(-0.00507255 -3.40622 -1.75558e-19)
(0.103663 -3.43221 8.35957e-22)
(0.210922 -3.45738 -1.81063e-19)
(0.316723 -3.48172 1.85009e-19)
(0.421139 -3.50525 -1.89855e-19)
(0.524278 -3.528 1.94274e-19)
(0.626211 -3.54994 -4.37454e-22)
(0.726977 -3.57102 -3.08846e-19)
(0.826672 -3.59122 0)
(0.925325 -3.6105 0)
(1.02296 -3.62877 2.28151e-19)
(1.11958 -3.64599 -1.20258e-19)
(1.21519 -3.66211 -1.23785e-19)
(1.30977 -3.67712 0)
(1.40333 -3.69098 2.76285e-19)
(1.49593 -3.70371 -4.38605e-19)
(1.58761 -3.71526 -3.13176e-19)
(1.67841 -3.72559 4.98049e-19)
(1.76847 -3.73467 -3.58159e-19)
(1.85791 -3.74244 4.80316e-19)
(1.947 -3.74884 -4.15977e-19)
(2.0362 -3.75378 1.13482e-19)
(2.12612 -3.75715 -1.22543e-19)
(2.2179 -3.7588 1.35834e-19)
(2.31345 -3.75859 0)
(2.41607 -3.75652 -8.2388e-19)
(2.53186 -3.75302 1.46975e-18)
(2.67205 -3.74981 -1.43613e-18)
(2.85821 -3.75188 1.3811e-18)
(3.13238 -3.77282 0)
(3.5807 -3.8489 2.94352e-19)
(4.38291 -4.07811 -3.35527e-19)
(5.91291 -4.72483 -3.34475e-18)
(8.99216 -6.45633 2.90986e-18)
(14.3845 -10.1736 0)
(-0.867204 -3.19274 0)
(-0.753615 -3.2216 -1.55192e-19)
(-0.642803 -3.25196 0)
(-0.532954 -3.28165 1.61999e-19)
(-0.424183 -3.31086 -1.6491e-19)
(-0.316462 -3.33956 -1.13261e-21)
(-0.209783 -3.3677 -3.38546e-19)
(-0.104101 -3.39523 0)
(0.000574709 -3.42209 -3.46748e-19)
(0.104222 -3.44826 2.64165e-19)
(0.206832 -3.47377 -2.67899e-19)
(0.308428 -3.49866 -1.8224e-19)
(0.409089 -3.52295 2.79099e-19)
(0.508966 -3.5467 0)
(0.608132 -3.56988 9.70911e-20)
(0.706696 -3.59247 -3.01991e-19)
(0.80478 -3.61444 1.04636e-19)
(0.902507 -3.63573 4.29823e-19)
(0.999941 -3.65621 -4.46482e-19)
(1.09714 -3.67577 2.32982e-19)
(1.19412 -3.69429 1.22348e-19)
(1.29089 -3.71171 0)
(1.38749 -3.72798 0)
(1.48402 -3.74303 2.847e-19)
(1.58067 -3.75682 -1.52324e-19)
(1.67765 -3.7692 -3.23608e-19)
(1.77524 -3.78006 6.04393e-19)
(1.87384 -3.78928 9.38492e-20)
(1.97403 -3.79671 -2.00573e-19)
(2.07686 -3.80224 4.32827e-19)
(2.18377 -3.80572 -4.70583e-19)
(2.29714 -3.80706 -2.56282e-19)
(2.42084 -3.80637 0)
(2.56119 -3.80419 0)
(2.72887 -3.80224 6.77059e-19)
(2.94209 -3.80485 -1.12521e-18)
(3.2332 -3.82224 6.17522e-19)
(3.6616 -3.87811 -2.07845e-18)
(4.33747 -4.02745 1.05148e-18)
(5.46687 -4.39951 2.98352e-19)
(7.43267 -5.28856 6.29081e-19)
(10.923 -7.30931 -2.91689e-19)
(16.0042 -10.8962 0)
(-0.804759 -3.20581 -1.5115e-19)
(-0.69892 -3.23413 3.08703e-19)
(-0.595693 -3.2633 -3.22454e-22)
(-0.493088 -3.29189 -1.60234e-19)
(-0.390999 -3.32015 1.62835e-19)
(-0.28947 -3.34796 3.28359e-19)
(-0.188483 -3.3754 -1.67066e-19)
(-0.0879858 -3.40241 2.53365e-19)
(0.0120049 -3.42889 -1.70678e-19)
(0.11146 -3.4548 1.72872e-19)
(0.210308 -3.48013 8.81711e-20)
(0.308563 -3.50496 -2.69304e-19)
(0.406277 -3.52934 9.13355e-20)
(0.503578 -3.55335 -1.8072e-22)
(0.600659 -3.577 -4.56374e-22)
(0.697638 -3.60025 0)
(0.794656 -3.62311 -1.01455e-19)
(0.891894 -3.64554 1.05826e-19)
(0.989592 -3.66746 0)
(1.0879 -3.68866 1.14499e-19)
(1.18687 -3.70887 3.76726e-22)
(1.28647 -3.72794 -2.42732e-22)
(1.38672 -3.74584 -1.31857e-19)
(1.48785 -3.76253 0)
(1.59024 -3.77796 0)
(1.69434 -3.79195 1.56252e-19)
(1.80067 -3.80426 -3.33329e-19)
(1.90995 -3.81471 -1.77818e-19)
(2.02317 -3.82314 5.78044e-19)
(2.14189 -3.82941 -1.03579e-19)
(2.26867 -3.83353 4.48999e-19)
(2.40723 -3.83559 -3.67151e-19)
(2.56339 -3.83609 -2.65714e-19)
(2.74633 -3.83628 -4.31781e-19)
(2.97034 -3.83925 7.90529e-19)
(3.25926 -3.85218 1.72806e-19)
(3.65427 -3.89031 0)
(4.2262 -3.98601 2.11771e-19)
(5.09708 -4.20806 0)
(6.47864 -4.70344 2.54893e-19)
(8.74074 -5.77827 -2.69999e-19)
(12.4012 -7.95736 1.21286e-18)
(17.1573 -11.3736 -9.12992e-19)
(-0.744501 -3.21654 1.43644e-19)
(-0.645626 -3.24142 -1.52606e-19)
(-0.54923 -3.26913 1.55738e-19)
(-0.452946 -3.2964 1.57816e-19)
(-0.356599 -3.32354 -3.1994e-19)
(-0.260375 -3.35022 8.12054e-20)
(-0.164362 -3.37666 -8.21437e-20)
(-0.0683405 -3.4029 -8.27369e-20)
(0.027689 -3.42876 8.39549e-20)
(0.123679 -3.45413 -3.11226e-22)
(0.219479 -3.47896 0)
(0.31509 -3.50334 -5.03752e-22)
(0.410504 -3.52733 -8.98371e-20)
(0.505812 -3.55107 -1.7231e-22)
(0.601359 -3.57465 0)
(0.697256 -3.59796 -9.73242e-20)
(0.793644 -3.62101 -3.77566e-22)
(0.89074 -3.64384 -4.14346e-19)
(0.98891 -3.66654 1.0765e-19)
(1.08864 -3.68892 -1.12076e-19)
(1.19013 -3.71045 -2.09783e-22)
(1.29316 -3.73069 -1.22778e-19)
(1.39762 -3.74964 0)
(1.50385 -3.7674 1.36418e-19)
(1.6124 -3.784 5.65348e-22)
(1.7241 -3.7993 3.05555e-19)
(1.83986 -3.81293 5.17005e-22)
(1.96057 -3.82455 -1.74031e-19)
(2.08774 -3.83408 1.85871e-19)