/*--------------------------------*- C++ -*----------------------------------*\
| =========                 |                                                 |
| \\      /  F ield         | OpenFOAM: The Open Source CFD Toolbox           |
|  \\    /   O peration     | Version:  2.3.0                                 |
|   \\  /    A nd           | Web:      www.OpenFOAM.org                      |
|    \\/     M anipulation  |                                                 |
\*---------------------------------------------------------------------------*/
FoamFile
{
    version     2.0;
    format      ascii;
    class       volScalarField;
    location    "300";
    object      nut;
}
// * * * * * * * * * * * * * * * * * * * * * * * * * * * * * * * * * * * * * //

dimensions      [0 2 -1 0 0 0 0];

internalField   nonuniform List<scalar> 
28256
(
0.0161978
0.0147776
0.0135134
0.0124015
0.0114348
0.0106102
0.00992092
0.00936373
0.00893198
0.00860541
0.0083662
0.00818776
0.0080462
0.00791649
0.00778143
0.00761945
0.00742486
0.00718696
0.00691785
0.00659453
0.0173671
0.0161976
0.0152071
0.0143829
0.0137185
0.0132073
0.0128394
0.0126093
0.0124981
0.0124875
0.0125554
0.0126789
0.0128384
0.0130141
0.013193
0.0133575
0.0135127
0.0136396
0.0137418
0.0138173
0.0186564
0.0177632
0.0170664
0.0165483
0.0161939
0.0159893
0.0159199
0.0159668
0.016105
0.0163122
0.0165673
0.0168494
0.0171367
0.0174194
0.0176847
0.0179225
0.0181276
0.0183041
0.0184354
0.0185205
0.0200386
0.0194337
0.0190311
0.0188077
0.0187422
0.0188116
0.0189933
0.0192628
0.0195915
0.019961
0.0203521
0.0207432
0.0211203
0.021476
0.021798
0.0220881
0.0223358
0.0225357
0.0226894
0.0227964
0.0214951
0.0211687
0.0210429
0.021089
0.0212764
0.0215754
0.0219597
0.0224021
0.0228794
0.0233704
0.0238589
0.0243317
0.0247766
0.025187
0.0255568
0.025883
0.0261592
0.0263868
0.0265635
0.026682
0.0229908
0.0229313
0.0230563
0.023336
0.0237338
0.0242185
0.0247608
0.025337
0.0259251
0.0265061
0.0270686
0.0276036
0.0280996
0.0285511
0.0289565
0.0293124
0.0296152
0.0298681
0.0300598
0.0301967
0.0245193
0.0246895
0.0250301
0.0255028
0.0260696
0.0266989
0.0273627
0.0280382
0.0287074
0.0293552
0.0299741
0.0305525
0.031087
0.0315718
0.0320056
0.0323872
0.032714
0.0329824
0.0331928
0.0333433
0.0260406
0.0264105
0.0269286
0.0275555
0.0282532
0.0289908
0.0297431
0.0304901
0.0312162
0.0319125
0.0325696
0.0331809
0.033744
0.034254
0.0347112
0.0351119
0.0354551
0.0357409
0.0359674
0.0361293
0.0275498
0.0280725
0.0287282
0.029471
0.0302629
0.0310767
0.03189
0.0326849
0.0334499
0.0341775
0.03486
0.0354944
0.0360765
0.0366047
0.0370781
0.037494
0.037853
0.0381529
0.0383905
0.0385663
0.029009
0.0296522
0.0304076
0.0312303
0.032085
0.0329468
0.0337964
0.03462
0.0354077
0.0361526
0.0368502
0.0374974
0.0380915
0.0386315
0.0391159
0.0395435
0.0399136
0.0402238
0.0404734
0.0406594
0.0303869
0.0311232
0.0319473
0.0328203
0.0337109
0.0345968
0.0354629
0.0362979
0.0370933
0.0378438
0.0385462
0.0391982
0.0397975
0.040343
0.0408332
0.0412685
0.0416456
0.0419647
0.0422233
0.0424203
0.0316595
0.0324679
0.0333352
0.0342332
0.0351363
0.0360267
0.0368921
0.0377232
0.0385135
0.0392593
0.0399578
0.0406069
0.0412042
0.0417493
0.0422419
0.0426792
0.0430612
0.0433861
0.0436518
0.0438573
0.0328434
0.0336833
0.0345653
0.0354644
0.0363601
0.0372377
0.0380876
0.0389025
0.0396773
0.0404088
0.0410949
0.0417335
0.042323
0.0428629
0.0433518
0.0437881
0.0441709
0.0444984
0.0447695
0.0449819
0.0339211
0.0347635
0.0356345
0.0365132
0.0373835
0.0382336
0.0390554
0.0398433
0.0405933
0.0413025
0.0419691
0.0425912
0.0431676
0.0436967
0.0441774
0.0446085
0.0449886
0.0453164
0.0455903
0.0458086
0.0348775
0.0357022
0.0365419
0.0373824
0.0382119
0.0390211
0.0398038
0.0405555
0.0412723
0.0419522
0.0425928
0.0431926
0.0437503
0.0442641
0.0447329
0.0451552
0.0455299
0.0458554
0.0461301
0.0463523
0.0357215
0.0365006
0.0372894
0.0380762
0.038852
0.0396096
0.0403438
0.0410506
0.0417271
0.0423709
0.0429796
0.0435521
0.0440864
0.0445806
0.0450339
0.0454445
0.0458108
0.0461316
0.0464052
0.04663
0.0364431
0.037158
0.0378804
0.0386012
0.0393129
0.0400098
0.0406877
0.041343
0.0419726
0.0425743
0.0431462
0.0436865
0.044193
0.0446639
0.0450983
0.0454942
0.0458497
0.0461638
0.0464344
0.0466601
0.0370329
0.0376731
0.0383189
0.0389644
0.0396047
0.0402346
0.0408506
0.0414486
0.0420263
0.0425811
0.0431113
0.0436147
0.0440898
0.0445341
0.0449465
0.0453252
0.0456681
0.0459731
0.0462394
0.0464645
0.0374962
0.0380496
0.0386104
0.0391754
0.0397394
0.0402987
0.0408494
0.0413876
0.0419096
0.0424132
0.0428965
0.0433589
0.0437988
0.0442136
0.0446021
0.0449615
0.0452893
0.0455845
0.045845
0.0460686
0.0378303
0.0382885
0.0387616
0.0392463
0.0397311
0.0402197
0.0407065
0.0411856
0.041653
0.0421022
0.0425314
0.0429451
0.0433449
0.0437288
0.044093
0.044432
0.0447432
0.0450259
0.0452794
0.0455019
0.00657805
0.00688629
0.00718346
0.00744785
0.00769688
0.00792421
0.00814064
0.00835835
0.00858929
0.00885681
0.00918477
0.00959869
0.0101197
0.0107657
0.0115483
0.0124725
0.0135379
0.014739
0.0160651
0.0175009
0.0138455
0.0138355
0.0138066
0.0137596
0.0136869
0.0136143
0.013534
0.0134625
0.013408
0.0133914
0.0134307
0.0135479
0.0137651
0.0141027
0.0145766
0.015197
0.0159666
0.0168818
0.0179327
0.0191024
0.018562
0.0185683
0.018527
0.0184563
0.0183649
0.0182421
0.0181041
0.017949
0.0177951
0.0176539
0.0175386
0.0174726
0.0174742
0.0175655
0.0177699
0.0181021
0.0185733
0.0191877
0.0199422
0.0208266
0.0228502
0.0228521
0.022817
0.022745
0.0226358
0.022486
0.0223107
0.0221076
0.0218904
0.0216643
0.0214465
0.0212496
0.021088
0.02099
0.0209706
0.0210527
0.0212528
0.021582
0.0220445
0.0226385
0.026748
0.0267625
0.0267283
0.0266538
0.0265272
0.0263676
0.0261683
0.0259328
0.0256692
0.0253891
0.025096
0.0248007
0.0245251
0.0242775
0.0240813
0.0239584
0.0239261
0.0240001
0.0241909
0.0245034
0.0302748
0.0302942
0.030267
0.030187
0.0300631
0.0298917
0.0296771
0.0294203
0.029128
0.0288079
0.0284587
0.0280976
0.0277316
0.027374
0.0270428
0.0267555
0.0265313
0.0263872
0.0263368
0.0263942
0.0334312
0.0334629
0.0334381
0.0333652
0.033238
0.0330631
0.0328393
0.0325678
0.032259
0.0319106
0.0315274
0.0311164
0.0306874
0.0302475
0.0298137
0.0293998
0.0290223
0.0286968
0.0284424
0.028275
0.0362314
0.0362709
0.0362556
0.036186
0.0360637
0.0358857
0.0356587
0.0353841
0.0350644
0.0346997
0.0342935
0.0338506
0.0333755
0.0328784
0.0323709
0.0318624
0.0313658
0.030897
0.0304749
0.0301146
0.0386783
0.038729
0.0387242
0.0386626
0.0385435
0.0383705
0.0381456
0.0378727
0.0375478
0.0371745
0.0367544
0.0362934
0.0357919
0.0352577
0.0346978
0.0341213
0.0335372
0.0329604
0.0324047
0.0318863
0.040783
0.0408459
0.0408507
0.0407976
0.0406874
0.0405227
0.0403047
0.0400342
0.0397118
0.0393356
0.0389145
0.0384454
0.0379314
0.0373763
0.0367838
0.0361611
0.0355181
0.0348619
0.0342086
0.0335709
0.0425547
0.0426277
0.0426431
0.0426015
0.0425036
0.04235
0.0421401
0.0418783
0.0415625
0.0411946
0.0407761
0.0403086
0.0397925
0.0392287
0.0386212
0.0379754
0.0372944
0.0365887
0.0358681
0.0351431
0.0440012
0.0440863
0.0441134
0.0440842
0.0439979
0.0438569
0.0436615
0.0434127
0.0431101
0.0427544
0.0423466
0.0418884
0.0413774
0.0408174
0.0402099
0.0395556
0.0388603
0.0381285
0.0373664
0.0365873
0.0451357
0.0452311
0.0452708
0.045254
0.0451828
0.0450574
0.0448781
0.0446457
0.0443598
0.0440206
0.0436305
0.0431875
0.0426922
0.0421455
0.0415475
0.0409011
0.0402062
0.0394676
0.0386905
0.037885
0.0459704
0.0460767
0.0461282
0.0461264
0.0460708
0.0459618
0.0458005
0.0455873
0.045321
0.0450037
0.044635
0.0442139
0.0437402
0.0432144
0.0426371
0.0420084
0.0413293
0.0406015
0.0398296
0.0390223
0.0465214
0.0466373
0.0467013
0.0467136
0.0466741
0.0465832
0.0464417
0.0462496
0.0460063
0.0457128
0.0453687
0.044973
0.0445273
0.0440296
0.0434809
0.0428804
0.0422281
0.0415256
0.0407748
0.0399824
0.0468048
0.0469297
0.0470054
0.0470317
0.0470089
0.0469366
0.0468157
0.0466455
0.0464263
0.0461586
0.0458418
0.0454761
0.045061
0.044597
0.0440827
0.0435169
0.0429014
0.0422341
0.0415153
0.0407461
0.0468394
0.0469723
0.0470589
0.0470987
0.0470917
0.0470377
0.0469366
0.0467883
0.0465934
0.0463523
0.0460644
0.0457297
0.0453486
0.0449209
0.0444452
0.0439221
0.0433496
0.0427271
0.0420536
0.0413264
0.0466473
0.0467873
0.0468834
0.0469354
0.0469427
0.0469047
0.0468215
0.0466935
0.0465212
0.046305
0.0460454
0.0457425
0.0453964
0.045007
0.044574
0.0440971
0.043575
0.0430066
0.0423903
0.0417227
0.0462542
0.0464
0.0465051
0.0465678
0.0465872
0.0465613
0.0464909
0.0463773
0.0462228
0.0460284
0.0457953
0.0455229
0.0452113
0.0448615
0.0444731
0.0440455
0.0435782
0.0430699
0.0425198
0.0419265
0.0456885
0.0458403
0.0459549
0.0460299
0.0460617
0.0460372
0.0459636
0.0458511
0.0457074
0.0455322
0.0453264
0.0450796
0.0447975
0.0444895
0.0441468
0.0437689
0.0433555
0.0429095
0.0424317
0.0419201
0.00217484
0.00169296
0.00131942
0.00103434
0.000826931
0.00066932
0.000535893
0.00047072
0.000537271
0.000712794
0.000921935
0.00112071
0.00130021
0.00145166
0.00156759
0.00164732
0.00169074
0.00170061
0.0016803
0.00163082
0.00216509
0.00170029
0.0013387
0.0010536
0.000864357
0.000892994
0.0012218
0.0017411
0.00232251
0.00288319
0.00339065
0.00383874
0.0042275
0.00456021
0.00483978
0.00506891
0.00525001
0.00538661
0.00547748
0.00552595
0.00215776
0.00171359
0.00138771
0.00131952
0.00174434
0.00255982
0.00349548
0.0043952
0.0052094
0.0059311
0.00656683
0.00712275
0.00760555
0.00802022
0.008369
0.00865556
0.0088824
0.00905062
0.0091632
0.00921971
0.00216822
0.00185107
0.00201189
0.00283297
0.00402367
0.00525191
0.00638296
0.00739199
0.00828688
0.0090795
0.00977912
0.0103944
0.0109297
0.0113898
0.0117782
0.0120981
0.0123507
0.0125379
0.0126621
0.0127216
0.00240042
0.00277419
0.0039072
0.00538001
0.00683971
0.0081697
0.00935782
0.0104167
0.0113603
0.0122003
0.0129449
0.0136006
0.0141728
0.014665
0.0150812
0.0154236
0.0156947
0.0158955
0.0160265
0.0160892
0.00348646
0.00485266
0.00655537
0.00822434
0.00974525
0.0111091
0.0123298
0.0134227
0.0144008
0.0152739
0.0160492
0.016733
0.0173298
0.017844
0.018279
0.0186367
0.0189201
0.0191295
0.0192656
0.0193284
0.00563918
0.00753734
0.00940592
0.011116
0.0126549
0.014037
0.015278
0.0163926
0.0173919
0.0182849
0.0190788
0.0197794
0.0203916
0.0209191
0.0213653
0.021733
0.022023
0.0222371
0.0223751
0.0224368
0.00834762
0.0103964
0.0122928
0.0140069
0.0155493
0.0169373
0.0181869
0.0193103
0.0203187
0.0212207
0.022023
0.022731
0.0233505
0.0238841
0.0243358
0.0247072
0.0250002
0.0252153
0.0253529
0.0254122
0.0112128
0.0132897
0.0151772
0.0168795
0.0184134
0.0197959
0.0210417
0.0221632
0.0231702
0.0240712
0.0248731
0.0255816
0.0262007
0.0267349
0.0271866
0.0275575
0.0278494
0.0280626
0.0281969
0.0282518
0.0141198
0.0161788
0.0180402
0.019719
0.021233
0.022599
0.0238306
0.02494
0.0259366
0.0268291
0.0276235
0.0283252
0.0289389
0.029468
0.0299147
0.0302813
0.0305681
0.0307764
0.0309054
0.0309545
0.0170298
0.0190445
0.0208666
0.0225109
0.0239949
0.0253344
0.0265432
0.0276321
0.028611
0.0294875
0.0302684
0.0309581
0.0315609
0.0320801
0.032518
0.0328758
0.0331548
0.0333549
0.0334759
0.0335174
0.019901
0.0218671
0.023641
0.0252417
0.0266868
0.0279916
0.0291694
0.0302315
0.0311864
0.0320414
0.032803
0.0334756
0.034063
0.0345682
0.034993
0.0353388
0.0356063
0.0357955
0.0359066
0.035938
0.0227254
0.0246321
0.0263491
0.0278978
0.0292965
0.0305602
0.0317012
0.0327303
0.0336559
0.0344848
0.0352227
0.035874
0.0364418
0.0369289
0.0373369
0.0376672
0.0379201
0.0380958
0.0381937
0.0382135
0.0255015
0.0273274
0.0289766
0.0304664
0.0318127
0.0330298
0.0341294
0.0351213
0.0360135
0.0368121
0.0375226
0.0381487
0.0386934
0.0391589
0.0395469
0.0398581
0.0400933
0.0402525
0.0403351
0.0403406
0.0281901
0.0299294
0.0315062
0.0329327
0.0342229
0.0353899
0.036445
0.0373966
0.0382524
0.0390181
0.0396979
0.0402958
0.0408141
0.0412549
0.0416196
0.0419088
0.0421234
0.042263
0.0423274
0.0423161
0.030731
0.0324081
0.0339174
0.0352803
0.0365132
0.037629
0.0386378
0.039548
0.0403658
0.0410963
0.0417438
0.042311
0.0428005
0.0432139
0.0435523
0.0438168
0.0440075
0.0441248
0.0441682
0.0441373
0.0331642
0.0347601
0.0361966
0.0374948
0.03867
0.0397345
0.0406975
0.0415661
0.0423459
0.0430412
0.0436551
0.0441906
0.0446494
0.0450332
0.0453432
0.04558
0.0457443
0.0458362
0.0458556
0.0458018
0.0354567
0.0369667
0.0383271
0.0395588
0.040677
0.0416917
0.042611
0.0434406
0.0441845
0.0448461
0.0454278
0.0459315
0.046359
0.0467117
0.0469909
0.0471977
0.0473327
0.0473964
0.0473881
0.0473082
0.0375967
0.0390093
0.0402869
0.0414501
0.0425127
0.0434816
0.0443614
0.0451574
0.0458712
0.0465045
0.0470582
0.047533
0.0479301
0.0482505
0.0484961
0.0486698
0.0487728
0.0488053
0.0487667
0.0486559
0.0395772
0.0408664
0.0420464
0.043132
0.0441445
0.045077
0.0459218
0.0466957
0.0473915
0.0480083
0.0485445
0.0489979
0.0493702
0.0496563
0.0498607
0.0499947
0.0500616
0.0500637
0.0499955
0.0498459
0.00163404
0.00169156
0.00171851
0.00171752
0.00168707
0.0016295
0.00154888
0.00145377
0.0013574
0.00128583
0.00127686
0.00136798
0.00157912
0.00191422
0.00237841
0.00298769
0.00376928
0.00475875
0.00599698
0.00752564
0.00552564
0.00547379
0.00538268
0.00524906
0.00507394
0.00485594
0.00459709
0.00429865
0.00396669
0.00361347
0.00326258
0.00295727
0.00276345
0.00275541
0.0029785
0.00343533
0.00411513
0.00502113
0.00617221
0.00759351
0.00921561
0.00915308
0.00903412
0.00886128
0.00863262
0.0083486
0.00800794
0.00761139
0.00716093
0.0066604
0.00612041
0.00556008
0.00501989
0.00457168
0.00431878
0.00436013
0.00473776
0.00543566
0.00642677
0.00769683
0.012716
0.0126434
0.0125093
0.0123108
0.0120502
0.0117258
0.0113365
0.0108822
0.010363
0.00978085
0.0091387
0.00844686
0.00772384
0.00700929
0.00637689
0.00594271
0.00583754
0.00613845
0.00683669
0.00787971
0.0160804
0.0160003
0.0158513
0.0156344
0.0153488
0.0149934
0.0145684
0.0140719
0.0135039
0.0128636
0.0121535
0.0113767
0.0105437
0.00967544
0.00881354
0.00803731
0.00747301
0.00726922
0.00752009
0.00821425
0.0193161
0.0192292
0.0190691
0.0188362
0.0185306
0.0181522
0.0176994
0.0171711
0.0165662
0.015884
0.0151233
0.0142867
0.0133779
0.0124084
0.0114022
0.0104067
0.00950908
0.0088471
0.00857888
0.00879544
0.0224212
0.0223274
0.0221574
0.021912
0.0215908
0.021194
0.02072
0.0201678
0.0195357
0.0188217
0.0180252
0.0171448
0.0161821
0.0151426
0.0140391
0.0128994
0.0117773
0.0107715
0.0100303
0.00970925
0.0253919
0.0252916
0.0251135
0.024857
0.0245236
0.024112
0.0236217
0.0230516
0.0223992
0.0216629
0.02084
0.0199289
0.0189284
0.0178399
0.0166697
0.0154324
0.0141601
0.012915
0.0118063
0.0109882
0.0282262
0.0281199
0.0279332
0.0276682
0.0273238
0.026901
0.0263984
0.0258146
0.0251475
0.0243948
0.0235539
0.0226216
0.0215955
0.0204741
0.0192587
0.0179562
0.0165833
0.0151763
0.013806
0.0125909
0.0309225
0.0308087
0.0306149
0.0303413
0.0299884
0.0295562
0.0290437
0.0284496
0.0277717
0.0270079
0.0261549
0.0252092
0.0241669
0.0230249
0.0217811
0.0204366
0.0189979
0.0174843
0.0159367
0.0144341
0.0334776
0.0333566
0.0331548
0.0328732
0.0325127
0.0320722
0.0315519
0.03095
0.0302646
0.0294932
0.028633
0.0276794
0.0266285
0.0254754
0.024216
0.0228471
0.0213689
0.0197885
0.018126
0.0164284
0.0358892
0.0357593
0.0355492
0.0352601
0.0348917
0.0344443
0.0339173
0.0333091
0.0326183
0.0318424
0.0309778
0.0300211
0.028967
0.0278103
0.026545
0.0251658
0.023668
0.0220507
0.0203197
0.0184973
0.0381537
0.0380138
0.0377948
0.037497
0.037121
0.0366665
0.0361331
0.03552
0.0348251
0.034046
0.03318
0.0322229
0.03117
0.0300151
0.0287521
0.0273733
0.0258713
0.0242398
0.0224748
0.0205822
0.0402678
0.0401164
0.0398866
0.0395794
0.0391949
0.0387328
0.0381931
0.0375749
0.0368763
0.0360951
0.0352286
0.0342735
0.0332244
0.0320757
0.0308205
0.0294504
0.0279564
0.0263286
0.0245567
0.022636
0.0422281
0.0420626
0.0418206
0.041502
0.0411075
0.0406369
0.0400898
0.0394656
0.0387626
0.0379793
0.0371129
0.0361601
0.0351167
0.0339767
0.0327334
0.0313784
0.0299018
0.0282916
0.0265341
0.0246184
0.0440311
0.0438494
0.043592
0.04326
0.0428532
0.0423716
0.041815
0.0411829
0.0404742
0.0396871
0.0388197
0.037869
0.0368312
0.0357012
0.0344726
0.0331372
0.0316846
0.0301024
0.028374
0.0264812
0.0456744
0.0454728
0.0451974
0.0448484
0.044426
0.0439299
0.0433604
0.0427169
0.0419988
0.0412052
0.0403341
0.0393836
0.0383503
0.0372302
0.0360175
0.0347045
0.0332817
0.0317367
0.0300522
0.0282099
0.0471557
0.0469306
0.046633
0.046263
0.0458202
0.0453047
0.0447164
0.0440555
0.0433224
0.0425166
0.0416377
0.0406838
0.0396528
0.0385411
0.0373441
0.0360552
0.0346658
0.0331639
0.0315337
0.0297607
0.0484734
0.0482205
0.0478969
0.047502
0.0470335
0.0464899
0.0458724
0.0451834
0.0444254
0.0435997
0.0427064
0.0417444
0.0407115
0.0396055
0.0384231
0.0371592
0.0358057
0.0343549
0.0327983
0.0311274
0.0496222
0.0493361
0.0489866
0.0485714
0.0480729
0.0474827
0.0468146
0.0460749
0.045278
0.044421
0.0435075
0.0425332
0.0414927
0.0403867
0.0392168
0.0379813
0.0366751
0.0352867
0.0338122
0.032264
1.2832e-05
0.000207217
0.000422303
0.000657773
0.000930519
0.00124095
0.00159933
0.00201007
0.00248207
0.00302169
0.00364114
0.00434945
0.00515919
0.00608198
0.00712382
0.00829133
0.00959059
0.0110263
0.0126074
0.0143376
9.05573e-15
2.38201e-12
5.87368e-11
6.65448e-10
2.97107e-06
0.000124529
0.0003945
0.000653808
0.000973175
0.00136823
0.00185249
0.0024401
0.00314526
0.00398242
0.00496555
0.006107
0.00741738
0.008907
0.0105844
0.0124542
9.60085e-19
7.97964e-17
2.74845e-15
7.2414e-08
2.01652e-05
0.000170441
0.000323421
0.000504645
0.00073458
0.00102797
0.00139956
0.00186529
0.00244253
0.00315017
0.00400781
0.00503514
0.00625108
0.00767364
0.00931999
0.0112062
1.68784e-09
6.84877e-08
1.12668e-06
1.62841e-05
8.61971e-05
0.000190321
0.000310866
0.000460356
0.000651098
0.000895847
0.00120856
0.00160496
0.00210303
0.00272295
0.00348686
0.00441837
0.00554178
0.00688129
0.00846009
0.0102978
7.54814e-09
5.80006e-07
5.09661e-06
2.48911e-05
8.40248e-05
0.000173499
0.000282065
0.000416164
0.000586149
0.000803759
0.00108205
0.00143602
0.00188319
0.0024437
0.00314036
0.00399839
0.00504494
0.00630838
0.00781719
0.00959785
7.47642e-09
5.91877e-07
4.91134e-06
2.13829e-05
6.8735e-05
0.000150344
0.000251322
0.000374419
0.000529751
0.00072811
0.000981819
0.00130515
0.00171494
0.00223087
0.00287559
0.00367486
0.00465718
0.00585318
0.00729452
0.00901085
6.91139e-09
5.49786e-07
4.50102e-06
1.89003e-05
5.60868e-05
0.000129729
0.000224322
0.00033869
0.000482202
0.000665191
0.000899317
0.0011982
0.001578
0.00205777
0.00265979
0.00340984
0.00433695
0.00547303
0.00685185
0.00850633
6.43206e-09
5.23824e-07
4.31134e-06
1.76929e-05
4.92198e-05
0.000113432
0.000201944
0.000309161
0.000442693
0.000612957
0.000830863
0.00110943
0.0014642
0.00191365
0.00247969
0.00318798
0.00406804
0.0051535
0.00648244
0.00809931
6.12678e-09
5.14559e-07
4.31133e-06
1.76225e-05
4.72466e-05
0.000101143
0.000183471
0.000284534
0.000409682
0.000569148
0.000773307
0.00103464
0.00136803
0.00179135
0.00232597
0.00299701
0.00383355
0.00486853
0.0061373
0.00767291
5.8224e-09
4.99883e-07
4.25011e-06
1.73032e-05
4.52546e-05
9.16835e-05
0.00016801
0.000263782
0.000381893
0.000531847
0.000724165
0.000970546
0.00128525
0.00168557
0.00219216
0.00282943
0.00362589
0.00461396
0.00582913
0.00730898
5.56561e-09
4.89483e-07
4.21875e-06
1.72553e-05
4.46231e-05
8.77747e-05
0.000155644
0.000246083
0.000357977
0.000499581
0.000681552
0.000914813
0.00121309
0.00159302
0.00207463
0.00268183
0.00344283
0.00439041
0.00556243
0.00700396
5.37359e-09
4.81568e-07
4.22465e-06
1.74084e-05
4.46881e-05
8.60875e-05
0.000145589
0.000230848
0.000337273
0.000471647
0.000644233
0.000865894
0.00114962
0.00151144
0.0019708
0.00255108
0.00327999
0.00418992
0.00531769
0.00670267
5.18024e-09
4.72244e-07
4.18206e-06
1.73222e-05
4.42567e-05
8.40515e-05
0.000137555
0.000217614
0.000319111
0.000447086
0.000611219
0.000822524
0.00109327
0.00143891
0.00187831
0.00243431
0.00313417
0.00401
0.00509927
0.006446
5.00496e-09
4.62252e-07
4.14762e-06
1.73065e-05
4.42012e-05
8.33043e-05
0.000133897
0.000206639
0.00030311
0.000425246
0.000581753
0.000783746
0.00104284
0.0013739
0.00179527
0.00232914
0.00300212
0.00384574
0.00489607
0.00619262
4.85514e-09
4.55433e-07
4.13237e-06
1.74192e-05
4.45295e-05
8.3407e-05
0.000132229
0.000197481
0.000289023
0.000405861
0.000555595
0.000748896
0.000997406
0.00131528
0.00172025
0.00223394
0.0028825
0.00369702
0.00471419
0.00597743
4.70211e-09
4.45746e-07
4.09183e-06
1.73972e-05
4.45591e-05
8.30838e-05
0.000130296
0.000189687
0.000276485
0.000388481
0.000532043
0.000717317
0.000956169
0.00126201
0.00165199
0.00214721
0.00277319
0.00356051
0.00454503
0.00576781
4.5537e-09
4.3615e-07
4.03807e-06
1.72992e-05
4.44609e-05
8.27601e-05
0.000128977
0.000184952
0.000265632
0.00037279
0.000510621
0.000688509
0.000918472
0.00121324
0.00158937
0.00206734
0.00267199
0.00343286
0.00438428
0.0055644
4.41855e-09
4.27362e-07
3.99436e-06
1.72812e-05
4.46103e-05
8.29855e-05
0.000128784
0.000182852
0.000256461
0.000358696
0.000491179
0.00066236
0.000883798
0.0011682
0.00153135
0.00199307
0.00257736
0.00331274
0.0042324
0.00537332
4.28843e-09
4.1903e-07
3.95757e-06
1.72815e-05
4.47937e-05
8.3283e-05
0.000128717
0.000181141
0.000248425
0.000345919
0.000473388
0.000638288
0.000851656
0.00112634
0.0014773
0.00192372
0.00248895
0.00320091
0.00409272
0.00520355
4.17318e-09
4.10632e-07
3.90591e-06
1.71824e-05
4.47439e-05
8.32273e-05
0.000128249
0.000179249
0.000241777
0.000334277
0.00045693
0.00061592
0.000821671
0.0010872
0.00142675
0.00185882
0.00240617
0.00309612
0.00396092
0.00503729
4.04192e-09
4.00462e-07
3.83876e-06
1.70274e-05
4.45986e-05
8.31047e-05
0.000127927
0.0001781
0.000237861
0.000323977
0.000441664
0.000595025
0.000793688
0.00105049
0.00137938
0.00179819
0.00232921
0.00299964
0.00384243
0.00489831
3.91636e-09
3.91355e-07
3.78051e-06
1.69236e-05
4.45836e-05
8.324e-05
0.000128066
0.000177766
0.000235708
0.000314956
0.000427587
0.000575552
0.000767594
0.00101603
0.00133493
0.0017415
0.00225753
0.00290995
0.00373136
0.00476052
3.80774e-09
3.8237e-07
3.71448e-06
1.68213e-05
4.45854e-05
8.34275e-05
0.000128278
0.000177535
0.000233815
0.000306908
0.000414643
0.000557497
0.000743301
0.00098389
0.00129347
0.0016886
0.0021906
0.00282585
0.00362595
0.00462798
3.66608e-09
3.69422e-07
3.65124e-06
1.66325e-05
4.43954e-05
8.33522e-05
0.000128168
0.00017698
0.000231831
0.000300204
0.000402854
0.000540829
0.000720788
0.000953986
0.00125486
0.00163928
0.002128
0.00274662
0.00352584
0.00450148
3.56045e-09
3.62693e-07
3.56657e-06
1.63767e-05
4.40778e-05
8.30601e-05
0.000127892
0.000176472
0.000230434
0.000295909
0.00039247
0.000525538
0.000699989
0.000926378
0.00121889
0.00159313
0.0020691
0.00267157
0.00343016
0.00437904
3.47549e-09
3.52904e-07
3.49586e-06
1.61447e-05
4.37302e-05
8.27916e-05
0.000127738
0.00017628
0.000229761
0.00029342
0.000383444
0.000511577
0.000680774
0.000900743
0.00118521
0.00154971
0.00201343
0.00260046
0.00333966
0.00426471
3.3961e-09
3.44665e-07
3.41343e-06
1.58936e-05
4.34026e-05
8.2545e-05
0.00012763
0.000176187
0.000229288
0.000291415
0.000375434
0.000498768
0.000662953
0.000876837
0.0011536
0.00150893
0.00196133
0.00253456
0.00325796
0.0041684
3.30084e-09
3.35933e-07
3.3517e-06
1.56454e-05
4.30438e-05
8.22076e-05
0.000127376
0.000175891
0.000228575
0.000289245
0.000368168
0.000486908
0.000646332
0.000854454
0.00112397
0.00147074
0.00191267
0.0024732
0.00318141
0.00407242
3.23035e-09
3.28233e-07
3.272e-06
1.5383e-05
4.25752e-05
8.17201e-05
0.000126917
0.000175371
0.000227643
0.000287082
0.000362152
0.000476013
0.000630832
0.000833495
0.00109621
0.00143498
0.00186715
0.00241568
0.00310896
0.0039808
3.13225e-09
3.19313e-07
3.18915e-06
1.50678e-05
4.20292e-05
8.10832e-05
0.000126286
0.000174715
0.000226731
0.00028537
0.0003579
0.000466164
0.000616393
0.000813925
0.00107035
0.00140133
0.00182419
0.00236108
0.00303936
0.00389118
3.04994e-09
3.1095e-07
3.11386e-06
1.47872e-05
4.15063e-05
8.04563e-05
0.000125687
0.000174128
0.000226045
0.000284205
0.000354991
0.000457355
0.000602994
0.000795656
0.00104613
0.00136966
0.0017837
0.00230983
0.00297538
0.00381468
3.00062e-09
3.04716e-07
3.06012e-06
1.45748e-05
4.10801e-05
7.99727e-05
0.000125226
0.000173721
0.000225589
0.00028335
0.000352658
0.000449407
0.000590548
0.000778529
0.00102337
0.00133984
0.00174553
0.00226143
0.00291438
0.00373679
2.95481e-09
2.99239e-07
3.00422e-06
1.43523e-05
4.06865e-05
7.95035e-05
0.000124809
0.000173349
0.000225147
0.000282479
0.000350382
0.000442118
0.000578961
0.000762435
0.00100187
0.00131165
0.00170955
0.00221596
0.00285754
0.0036675
2.86512e-09
2.90674e-07
2.94671e-06
1.41147e-05
4.02314e-05
7.90032e-05
0.000124321
0.000172876
0.000224557
0.000281433
0.000348023
0.000435452
0.000568086
0.000747297
0.000981644
0.00128504
0.00167551
0.00217298
0.00280356
0.00359959
2.80823e-09
2.86547e-07
2.89227e-06
1.38895e-05
3.98076e-05
7.84687e-05
0.000123769
0.000172295
0.000223831
0.000280297
0.000345761
0.000429778
0.000557981
0.000733024
0.000962556
0.00126
0.00164329
0.00213216
0.00275211
0.00353469
2.75769e-09
2.80207e-07
2.84023e-06
1.36632e-05
3.93543e-05
7.78741e-05
0.000123139
0.000171632
0.000223074
0.000279225
0.000343846
0.000425389
0.000548711
0.000719624
0.000944524
0.00123639
0.00161283
0.00209351
0.00270351
0.00347444
2.70806e-09
2.75787e-07
2.786e-06
1.34465e-05
3.89008e-05
7.72602e-05
0.000122501
0.000171018
0.000222429
0.000278379
0.000342423
0.000422175
0.000540283
0.000707081
0.000927556
0.00121405
0.00158381
0.00205657
0.00265658
0.00341408
2.66726e-09
2.70415e-07
2.74092e-06
1.32498e-05
3.84912e-05
7.67233e-05
0.00012196
0.000170509
0.0002219
0.000277735
0.000341364
0.000419655
0.000532569
0.00069526
0.000911449
0.00119285
0.00155623
0.00202145
0.00261246
0.00336034
2.60909e-09
2.6529e-07
2.68796e-06
1.30513e-05
3.81072e-05
7.62426e-05
0.000121488
0.000170083
0.000221487
0.00027723
0.000340455
0.000417416
0.000525468
0.000684184
0.000896269
0.00117276
0.00153
0.00198823
0.00257115
0.00330997
2.56056e-09
2.60462e-07
2.6493e-06
1.28843e-05
3.77833e-05
7.58292e-05
0.000121066
0.0001697
0.000221127
0.000276763
0.000339568
0.000415245
0.000518826
0.00067369
0.000881807
0.00115359
0.00150504
0.00195652
0.00253102
0.00325808
2.53137e-09
2.56943e-07
2.60966e-06
1.274e-05
3.74704e-05
7.543e-05
0.000120651
0.000169318
0.000220747
0.00027625
0.000338627
0.000413083
0.000512692
0.000663822
0.000868136
0.00113543
0.00148144
0.00192675
0.00249463
0.00321725
2.49428e-09
2.529e-07
2.57426e-06
1.25781e-05
3.71427e-05
7.50223e-05
0.000120232
0.000168896
0.0002203
0.000275669
0.000337621
0.000410946
0.000507166
0.000654507
0.000855169
0.00111828
0.00145931
0.00189894
0.00246079
0.00317639
2.47936e-09
2.50079e-07
2.54204e-06
1.2425e-05
3.68241e-05
7.45956e-05
0.00011977
0.00016843
0.000219796
0.000275035
0.000336616
0.000409003
0.000502507
0.000645844
0.000842976
0.00110212
0.00143844
0.00187238
0.00242721
0.00313173
2.45826e-09
2.47208e-07
2.50631e-06
1.22798e-05
3.65066e-05
7.41473e-05
0.000119301
0.000167957
0.000219288
0.000274412
0.000335713
0.000407391
0.000498826
0.00063784
0.000831466
0.0010869
0.00141885
0.0018476
0.00239697
0.00309783
2.42638e-09
2.43564e-07
2.47197e-06
1.21377e-05
3.61819e-05
7.37352e-05
0.000118852
0.000167501
0.000218824
0.000273901
0.000335019
0.000406168
0.000496024
0.000630559
0.000820698
0.00107246
0.00139996
0.00182273
0.00236307
0.00304382
2.39993e-09
2.40056e-07
2.44415e-06
1.20137e-05
3.59061e-05
7.33465e-05
0.000118431
0.000167096
0.000218445
0.000273503
0.0003345
0.000405267
0.000493812
0.000623829
0.000810489
0.00105865
0.00138178
0.0017991
0.00233385
0.00301608
2.36111e-09
2.36764e-07
2.41572e-06
1.18983e-05
3.56394e-05
7.29868e-05
0.000118065
0.000166763
0.000218153
0.000273219
0.000334133
0.000404556
0.000491913
0.000617593
0.000800815
0.00104543
0.00136425
0.00177604
0.00230359
0.00297137
2.32147e-09
2.33244e-07
2.38855e-06
1.17761e-05
3.53905e-05
7.26696e-05
0.000117752
0.000166495
0.000217929
0.000273016
0.000333865
0.000403953
0.000490176
0.00061174
0.000791584
0.00103268
0.00134718
0.00175326
0.0022733
0.00293135
2.30152e-09
2.31786e-07
2.37039e-06
1.16871e-05
3.5211e-05
7.24333e-05
0.000117509
0.00016628
0.000217747
0.00027285
0.000333607
0.000403342
0.000488476
0.00060622
0.000782764
0.00102039
0.00133073
0.00173168
0.00224675
0.0029045
2.28919e-09
2.3041e-07
2.35564e-06
1.16174e-05
3.50472e-05
7.22245e-05
0.000117297
0.0001661
0.00021761
0.000272714
0.000333367
0.000402737
0.000486789
0.000601008
0.000774285
0.00100855
0.00131495
0.00171123
0.00222081
0.00286976
2.27416e-09
2.29105e-07
2.33978e-06
1.15438e-05
3.48955e-05
7.20095e-05
0.000117093
0.000165931
0.000217466
0.000272554
0.00033308
0.000402072
0.000485112
0.000596166
0.000766185
0.000997254
0.00129998
0.00169198
0.00219691
0.00284239
2.26167e-09
2.27246e-07
2.32173e-06
1.14707e-05
3.47234e-05
7.17803e-05
0.000116867
0.000165719
0.00021727
0.000272342
0.000332734
0.000401366
0.000483496
0.000591826
0.000758547
0.00098653
0.00128579
0.00167366
0.00217339
0.00281062
2.2369e-09
2.25184e-07
2.30353e-06
1.13939e-05
3.45494e-05
7.15259e-05
0.000116589
0.000165469
0.000217055
0.000272111
0.000332394
0.000400713
0.000482043
0.000588083
0.000751338
0.000976291
0.00127214
0.00165578
0.00214957
0.00277782
2.22431e-09
2.23642e-07
2.28976e-06
1.13227e-05
3.43836e-05
7.1305e-05
0.000116347
0.00016523
0.000216819
0.000271868
0.000332071
0.000400137
0.000480835
0.000585027
0.000744619
0.000966554
0.0012591
0.00163864
0.0021273
0.00275092
2.21758e-09
2.22752e-07
2.27758e-06
1.12608e-05
3.42373e-05
7.10936e-05
0.000116125
0.000165018
0.000216608
0.000271646
0.000331794
0.000399681
0.000479875
0.000582564
0.000738346
0.000957245
0.0012464
0.00162143
0.0021033
0.00271409
2.19686e-09
2.20875e-07
2.26188e-06
1.11934e-05
3.40886e-05
7.08846e-05
0.000115901
0.000164806
0.000216434
0.000271489
0.000331606
0.000399369
0.000479179
0.000580605
0.000732475
0.000948276
0.0012341
0.00160511
0.00208264
0.00269452
2.1933e-09
2.1997e-07
2.24729e-06
1.1139e-05
3.3961e-05
7.07165e-05
0.000115721
0.00016465
0.00021632
0.000271396
0.000331505
0.000399177
0.000478655
0.000578954
0.000726968
0.000939679
0.00122217