/*--------------------------------*- C++ -*----------------------------------*\
| =========                 |                                                 |
| \\      /  F ield         | OpenFOAM: The Open Source CFD Toolbox           |
|  \\    /   O peration     | Version:  2.3.0                                 |
|   \\  /    A nd           | Web:      www.OpenFOAM.org                      |
|    \\/     M anipulation  |                                                 |
\*---------------------------------------------------------------------------*/
FoamFile
{
    version     2.0;
    format      ascii;
    class       volScalarField;
    location    "300";
    object      nuTilda;
}
// * * * * * * * * * * * * * * * * * * * * * * * * * * * * * * * * * * * * * //

dimensions      [0 2 -1 0 0 0 0];

internalField   nonuniform List<scalar> 
28256
(
0.0161978
0.0147776
0.0135134
0.0124016
0.0114348
0.0106102
0.00992094
0.00936375
0.00893199
0.00860543
0.00836622
0.00818778
0.00804622
0.00791651
0.00778145
0.00761947
0.00742489
0.00718699
0.00691788
0.00659457
0.0173671
0.0161976
0.0152071
0.0143829
0.0137186
0.0132073
0.0128394
0.0126093
0.0124981
0.0124875
0.0125554
0.0126789
0.0128384
0.0130141
0.013193
0.0133575
0.0135127
0.0136396
0.0137418
0.0138173
0.0186564
0.0177632
0.0170664
0.0165483
0.0161939
0.0159893
0.0159199
0.0159668
0.016105
0.0163122
0.0165673
0.0168495
0.0171367
0.0174194
0.0176847
0.0179225
0.0181276
0.0183041
0.0184354
0.0185205
0.0200386
0.0194337
0.0190311
0.0188077
0.0187422
0.0188116
0.0189933
0.0192629
0.0195915
0.019961
0.0203521
0.0207432
0.0211203
0.021476
0.021798
0.0220881
0.0223358
0.0225357
0.0226894
0.0227964
0.0214951
0.0211687
0.0210429
0.021089
0.0212764
0.0215754
0.0219597
0.0224021
0.0228794
0.0233704
0.0238589
0.0243317
0.0247766
0.025187
0.0255568
0.025883
0.0261592
0.0263868
0.0265635
0.026682
0.0229908
0.0229313
0.0230563
0.023336
0.0237338
0.0242185
0.0247608
0.025337
0.0259251
0.0265061
0.0270686
0.0276036
0.0280996
0.0285511
0.0289565
0.0293124
0.0296152
0.0298681
0.0300598
0.0301967
0.0245193
0.0246895
0.0250301
0.0255028
0.0260696
0.0266989
0.0273627
0.0280382
0.0287074
0.0293552
0.0299741
0.0305525
0.031087
0.0315718
0.0320056
0.0323872
0.032714
0.0329824
0.0331928
0.0333433
0.0260406
0.0264105
0.0269286
0.0275555
0.0282532
0.0289908
0.0297431
0.0304901
0.0312162
0.0319125
0.0325696
0.0331809
0.033744
0.034254
0.0347112
0.0351119
0.0354551
0.0357409
0.0359674
0.0361293
0.0275498
0.0280725
0.0287282
0.029471
0.0302629
0.0310767
0.03189
0.0326849
0.0334499
0.0341775
0.03486
0.0354944
0.0360765
0.0366047
0.0370781
0.037494
0.037853
0.0381529
0.0383905
0.0385663
0.029009
0.0296522
0.0304076
0.0312303
0.032085
0.0329468
0.0337964
0.03462
0.0354077
0.0361526
0.0368502
0.0374974
0.0380915
0.0386315
0.0391159
0.0395435
0.0399136
0.0402238
0.0404734
0.0406594
0.0303869
0.0311232
0.0319473
0.0328203
0.0337109
0.0345968
0.0354629
0.0362979
0.0370933
0.0378438
0.0385462
0.0391982
0.0397975
0.040343
0.0408332
0.0412685
0.0416456
0.0419647
0.0422233
0.0424203
0.0316595
0.0324679
0.0333352
0.0342332
0.0351363
0.0360267
0.0368921
0.0377232
0.0385135
0.0392593
0.0399578
0.0406069
0.0412042
0.0417493
0.0422419
0.0426792
0.0430612
0.0433861
0.0436518
0.0438573
0.0328434
0.0336833
0.0345653
0.0354644
0.0363601
0.0372377
0.0380876
0.0389025
0.0396773
0.0404088
0.0410949
0.0417335
0.042323
0.0428629
0.0433518
0.0437881
0.0441709
0.0444984
0.0447695
0.0449819
0.0339211
0.0347635
0.0356345
0.0365132
0.0373835
0.0382336
0.0390554
0.0398433
0.0405933
0.0413025
0.0419691
0.0425912
0.0431676
0.0436967
0.0441774
0.0446085
0.0449886
0.0453164
0.0455903
0.0458086
0.0348775
0.0357022
0.0365419
0.0373824
0.0382119
0.0390211
0.0398038
0.0405555
0.0412723
0.0419522
0.0425928
0.0431927
0.0437503
0.0442641
0.0447329
0.0451552
0.0455299
0.0458554
0.0461301
0.0463523
0.0357215
0.0365006
0.0372894
0.0380762
0.038852
0.0396096
0.0403438
0.0410506
0.0417272
0.0423709
0.0429796
0.0435521
0.0440864
0.0445806
0.0450339
0.0454445
0.0458108
0.0461316
0.0464052
0.04663
0.0364431
0.037158
0.0378804
0.0386012
0.0393129
0.0400098
0.0406877
0.041343
0.0419727
0.0425743
0.0431462
0.0436865
0.044193
0.0446639
0.0450983
0.0454942
0.0458497
0.0461638
0.0464344
0.0466601
0.0370329
0.0376731
0.0383189
0.0389644
0.0396047
0.0402346
0.0408506
0.0414486
0.0420263
0.0425811
0.0431113
0.0436147
0.0440898
0.0445341
0.0449465
0.0453252
0.0456681
0.0459731
0.0462394
0.0464645
0.0374962
0.0380496
0.0386104
0.0391754
0.0397394
0.0402987
0.0408494
0.0413876
0.0419096
0.0424132
0.0428965
0.0433589
0.0437988
0.0442136
0.0446021
0.0449615
0.0452893
0.0455845
0.045845
0.0460686
0.0378303
0.0382885
0.0387616
0.0392463
0.0397311
0.0402197
0.0407065
0.0411856
0.041653
0.0421022
0.0425314
0.0429451
0.0433449
0.0437288
0.044093
0.044432
0.0447432
0.0450259
0.0452794
0.0455019
0.00657808
0.00688632
0.00718348
0.00744788
0.0076969
0.00792423
0.00814066
0.00835837
0.00858931
0.00885682
0.00918478
0.0095987
0.0101197
0.0107657
0.0115483
0.0124725
0.0135379
0.014739
0.0160651
0.0175009
0.0138455
0.0138355
0.0138066
0.0137596
0.0136869
0.0136143
0.013534
0.0134625
0.013408
0.0133914
0.0134307
0.0135479
0.0137651
0.0141027
0.0145767
0.015197
0.0159666
0.0168818
0.0179327
0.0191024
0.0185621
0.0185683
0.018527
0.0184563
0.0183649
0.0182421
0.0181041
0.017949
0.0177951
0.0176539
0.0175386
0.0174726
0.0174742
0.0175656
0.0177699
0.0181021
0.0185733
0.0191877
0.0199422
0.0208266
0.0228502
0.0228521
0.022817
0.022745
0.0226358
0.022486
0.0223108
0.0221076
0.0218904
0.0216643
0.0214465
0.0212496
0.021088
0.02099
0.0209706
0.0210528
0.0212528
0.021582
0.0220445
0.0226385
0.026748
0.0267625
0.0267283
0.0266538
0.0265273
0.0263676
0.0261683
0.0259328
0.0256692
0.0253891
0.025096
0.0248008
0.0245251
0.0242775
0.0240813
0.0239584
0.0239261
0.0240001
0.0241909
0.0245034
0.0302748
0.0302942
0.030267
0.030187
0.0300631
0.0298917
0.0296771
0.0294203
0.029128
0.0288079
0.0284587
0.0280976
0.0277316
0.027374
0.0270428
0.0267555
0.0265313
0.0263872
0.0263368
0.0263942
0.0334312
0.0334629
0.0334381
0.0333652
0.033238
0.0330631
0.0328393
0.0325678
0.032259
0.0319106
0.0315274
0.0311164
0.0306874
0.0302475
0.0298137
0.0293998
0.0290223
0.0286968
0.0284424
0.028275
0.0362314
0.0362709
0.0362556
0.036186
0.0360637
0.0358857
0.0356587
0.0353841
0.0350644
0.0346997
0.0342935
0.0338506
0.0333755
0.0328784
0.0323709
0.0318624
0.0313658
0.030897
0.0304749
0.0301146
0.0386784
0.038729
0.0387242
0.0386626
0.0385435
0.0383705
0.0381456
0.0378727
0.0375478
0.0371745
0.0367544
0.0362934
0.0357919
0.0352577
0.0346978
0.0341213
0.0335372
0.0329604
0.0324047
0.0318863
0.040783
0.0408459
0.0408507
0.0407976
0.0406874
0.0405227
0.0403047
0.0400342
0.0397118
0.0393356
0.0389145
0.0384454
0.0379314
0.0373763
0.0367838
0.0361611
0.0355181
0.0348619
0.0342086
0.0335709
0.0425547
0.0426277
0.0426431
0.0426015
0.0425036
0.04235
0.0421401
0.0418783
0.0415625
0.0411946
0.0407761
0.0403086
0.0397925
0.0392287
0.0386213
0.0379754
0.0372944
0.0365887
0.0358681
0.0351431
0.0440012
0.0440863
0.0441134
0.0440842
0.0439979
0.0438569
0.0436615
0.0434127
0.0431101
0.0427544
0.0423466
0.0418884
0.0413774
0.0408174
0.0402099
0.0395556
0.0388603
0.0381285
0.0373664
0.0365873
0.0451357
0.0452311
0.0452708
0.045254
0.0451828
0.0450574
0.0448781
0.0446457
0.0443598
0.0440206
0.0436305
0.0431875
0.0426922
0.0421455
0.0415475
0.0409011
0.0402062
0.0394676
0.0386905
0.037885
0.0459704
0.0460767
0.0461282
0.0461264
0.0460708
0.0459618
0.0458005
0.0455873
0.045321
0.0450037
0.044635
0.0442139
0.0437402
0.0432144
0.0426371
0.0420084
0.0413293
0.0406015
0.0398296
0.0390223
0.0465214
0.0466373
0.0467013
0.0467136
0.0466741
0.0465832
0.0464417
0.0462496
0.0460063
0.0457128
0.0453687
0.044973
0.0445273
0.0440296
0.0434809
0.0428804
0.0422281
0.0415256
0.0407748
0.0399824
0.0468048
0.0469297
0.0470054
0.0470317
0.0470089
0.0469366
0.0468157
0.0466455
0.0464263
0.0461586
0.0458418
0.0454761
0.045061
0.044597
0.0440827
0.0435169
0.0429014
0.0422341
0.0415153
0.0407461
0.0468394
0.0469723
0.0470589
0.0470987
0.0470917
0.0470377
0.0469366
0.0467883
0.0465934
0.0463523
0.0460644
0.0457297
0.0453486
0.0449209
0.0444452
0.0439221
0.0433496
0.0427271
0.0420536
0.0413264
0.0466473
0.0467873
0.0468834
0.0469354
0.0469427
0.0469047
0.0468215
0.0466935
0.0465212
0.046305
0.0460454
0.0457425
0.0453964
0.045007
0.044574
0.0440971
0.043575
0.0430066
0.0423903
0.0417227
0.0462542
0.0464
0.0465051
0.0465678
0.0465872
0.0465613
0.0464909
0.0463773
0.0462228
0.0460284
0.0457953
0.0455229
0.0452113
0.0448615
0.0444731
0.0440455
0.0435782
0.0430699
0.0425198
0.0419265
0.0456885
0.0458403
0.0459549
0.0460299
0.0460617
0.0460372
0.0459636
0.0458511
0.0457074
0.0455322
0.0453264
0.0450796
0.0447975
0.0444895
0.0441468
0.0437689
0.0433555
0.0429095
0.0424317
0.0419201
0.00217513
0.00169344
0.00132022
0.00103563
0.000828938
0.000672384
0.000540598
0.000476507
0.000541543
0.000715237
0.000923421
0.00112172
0.00130097
0.00145228
0.00156812
0.0016478
0.00169119
0.00170106
0.00168076
0.00163131
0.00216538
0.00170077
0.00133947
0.00105484
0.000866167
0.000894608
0.00122265
0.00174152
0.00232275
0.00288334
0.00339076
0.00383883
0.00422757
0.00456028
0.00483984
0.00506896
0.00525006
0.00538665
0.00547752
0.005526
0.00215806
0.00171406
0.00138841
0.00132028
0.00174476
0.00256001
0.00349559
0.00439527
0.00520945
0.00593114
0.00656687
0.00712277
0.00760557
0.00802024
0.00836902
0.00865558
0.00888241
0.00905064
0.00916321
0.00921973
0.00216851
0.00185146
0.00201221
0.00283312
0.00402375
0.00525196
0.006383
0.00739201
0.0082869
0.00907952
0.00977914
0.0103944
0.0109297
0.0113898
0.0117782
0.0120982
0.0123507
0.0125379
0.0126622
0.0127216
0.00240066
0.00277436
0.00390729
0.00538006
0.00683973
0.00816972
0.00935784
0.0104167
0.0113604
0.0122003
0.0129449
0.0136006
0.0141728
0.014665
0.0150812
0.0154236
0.0156948
0.0158955
0.0160265
0.0160892
0.00348657
0.00485272
0.0065554
0.00822436
0.00974526
0.0111091
0.0123298
0.0134227
0.0144008
0.0152739
0.0160492
0.016733
0.0173298
0.017844
0.018279
0.0186367
0.0189201
0.0191295
0.0192656
0.0193284
0.00563922
0.00753736
0.00940593
0.011116
0.0126549
0.014037
0.015278
0.0163926
0.0173919
0.0182849
0.0190788
0.0197794
0.0203916
0.0209191
0.0213653
0.021733
0.022023
0.0222371
0.0223751
0.0224368
0.00834764
0.0103964
0.0122929
0.0140069
0.0155493
0.0169373
0.0181869
0.0193103
0.0203187
0.0212207
0.022023
0.022731
0.0233505
0.0238841
0.0243358
0.0247072
0.0250002
0.0252153
0.0253529
0.0254122
0.0112128
0.0132898
0.0151772
0.0168795
0.0184134
0.0197959
0.0210417
0.0221632
0.0231702
0.0240712
0.0248731
0.0255816
0.0262007
0.0267349
0.0271866
0.0275575
0.0278494
0.0280626
0.0281969
0.0282518
0.0141198
0.0161788
0.0180402
0.019719
0.021233
0.022599
0.0238306
0.02494
0.0259366
0.0268291
0.0276235
0.0283252
0.0289389
0.029468
0.0299147
0.0302813
0.0305681
0.0307764
0.0309054
0.0309545
0.0170298
0.0190445
0.0208666
0.0225109
0.0239949
0.0253344
0.0265432
0.0276321
0.028611
0.0294875
0.0302684
0.0309581
0.0315609
0.0320801
0.032518
0.0328758
0.0331548
0.0333549
0.0334759
0.0335174
0.019901
0.0218671
0.023641
0.0252417
0.0266868
0.0279916
0.0291694
0.0302315
0.0311864
0.0320414
0.032803
0.0334756
0.034063
0.0345682
0.034993
0.0353388
0.0356063
0.0357955
0.0359066
0.035938
0.0227254
0.0246321
0.0263491
0.0278978
0.0292965
0.0305602
0.0317012
0.0327303
0.0336559
0.0344848
0.0352227
0.035874
0.0364418
0.0369289
0.0373369
0.0376672
0.0379201
0.0380958
0.0381937
0.0382135
0.0255015
0.0273274
0.0289766
0.0304664
0.0318127
0.0330298
0.0341294
0.0351213
0.0360135
0.0368121
0.0375226
0.0381487
0.0386934
0.0391589
0.0395469
0.0398581
0.0400933
0.0402525
0.0403351
0.0403406
0.0281901
0.0299294
0.0315062
0.0329327
0.0342229
0.0353899
0.036445
0.0373966
0.0382524
0.0390181
0.0396979
0.0402959
0.0408141
0.0412549
0.0416196
0.0419088
0.0421234
0.042263
0.0423274
0.0423161
0.030731
0.0324081
0.0339174
0.0352803
0.0365132
0.037629
0.0386378
0.039548
0.0403658
0.0410963
0.0417438
0.042311
0.0428005
0.0432139
0.0435523
0.0438168
0.0440075
0.0441248
0.0441683
0.0441373
0.0331642
0.0347601
0.0361966
0.0374948
0.03867
0.0397345
0.0406975
0.0415661
0.0423459
0.0430412
0.0436551
0.0441906
0.0446494
0.0450332
0.0453432
0.04558
0.0457443
0.0458362
0.0458556
0.0458018
0.0354567
0.0369667
0.0383271
0.0395588
0.040677
0.0416917
0.042611
0.0434406
0.0441845
0.0448461
0.0454278
0.0459315
0.046359
0.0467117
0.0469909
0.0471977
0.0473327
0.0473964
0.0473882
0.0473082
0.0375967
0.0390093
0.0402869
0.0414501
0.0425127
0.0434816
0.0443614
0.0451574
0.0458712
0.0465045
0.0470582
0.047533
0.0479301
0.0482505
0.0484961
0.0486698
0.0487728
0.0488053
0.0487667
0.0486559
0.0395772
0.0408664
0.0420464
0.043132
0.0441445
0.045077
0.0459218
0.0466957
0.0473915
0.0480083
0.0485445
0.0489979
0.0493702
0.0496563
0.0498607
0.0499947
0.0500616
0.0500637
0.0499955
0.0498459
0.00163453
0.00169202
0.00171895
0.00171796
0.00168753
0.00162999
0.00154941
0.00145438
0.0013581
0.00128661
0.00127766
0.00136869
0.00157966
0.00191459
0.00237865
0.00298784
0.00376938
0.00475881
0.00599702
0.00752566
0.00552568
0.00547383
0.00538273
0.00524911
0.005074
0.00485599
0.00459715
0.00429872
0.00396678
0.00361357
0.0032627
0.00295742
0.00276362
0.00275558
0.00297866
0.00343544
0.00411521
0.00502118
0.00617224
0.00759353
0.00921563
0.00915309
0.00903414
0.0088613
0.00863264
0.00834862
0.00800796
0.00761141
0.00716096
0.00666043
0.00612045
0.00556013
0.00501994
0.00457174
0.00431885
0.0043602
0.00473782
0.0054357
0.0064268
0.00769686
0.012716
0.0126434
0.0125093
0.0123108
0.0120502
0.0117258
0.0113365
0.0108822
0.010363
0.00978086
0.00913872
0.00844688
0.00772386
0.00700932
0.00637693
0.00594275
0.00583758
0.00613849
0.00683672
0.00787973
0.0160804
0.0160003
0.0158513
0.0156344
0.0153488
0.0149934
0.0145684
0.0140719
0.0135039
0.0128636
0.0121535
0.0113767
0.0105438
0.00967545
0.00881356
0.00803733
0.00747303
0.00726925
0.00752012
0.00821427
0.0193161
0.0192292
0.0190691
0.0188362
0.0185306
0.0181522
0.0176994
0.0171711
0.0165662
0.015884
0.0151233
0.0142867
0.0133779
0.0124084
0.0114022
0.0104067
0.00950909
0.00884712
0.0085789
0.00879546
0.0224212
0.0223274
0.0221574
0.021912
0.0215908
0.021194
0.02072
0.0201678
0.0195357
0.0188217
0.0180252
0.0171448
0.0161821
0.0151426
0.0140391
0.0128994
0.0117773
0.0107715
0.0100303
0.00970927
0.0253919
0.0252916
0.0251135
0.024857
0.0245236
0.024112
0.0236218
0.0230516
0.0223992
0.0216629
0.02084
0.0199289
0.0189284
0.0178399
0.0166697
0.0154324
0.0141601
0.012915
0.0118063
0.0109882
0.0282262
0.0281199
0.0279332
0.0276682
0.0273238
0.026901
0.0263984
0.0258146
0.0251475
0.0243948
0.0235539
0.0226216
0.0215955
0.0204741
0.0192587
0.0179562
0.0165833
0.0151763
0.013806
0.0125909
0.0309225
0.0308087
0.0306149
0.0303413
0.0299884
0.0295562
0.0290437
0.0284496
0.0277717
0.0270079
0.0261549
0.0252092
0.0241669
0.0230249
0.0217811
0.0204366
0.0189979
0.0174843
0.0159367
0.0144342
0.0334776
0.0333566
0.0331548
0.0328732
0.0325127
0.0320722
0.0315519
0.03095
0.0302646
0.0294932
0.028633
0.0276794
0.0266285
0.0254754
0.024216
0.0228471
0.0213689
0.0197885
0.018126
0.0164284
0.0358892
0.0357593
0.0355492
0.0352601
0.0348917
0.0344443
0.0339173
0.0333091
0.0326183
0.0318424
0.0309778
0.0300211
0.028967
0.0278103
0.026545
0.0251658
0.023668
0.0220507
0.0203197
0.0184974
0.0381537
0.0380138
0.0377948
0.037497
0.037121
0.0366665
0.0361331
0.03552
0.0348251
0.034046
0.03318
0.0322229
0.03117
0.0300151
0.0287521
0.0273733
0.0258713
0.0242398
0.0224749
0.0205822
0.0402678
0.0401164
0.0398866
0.0395794
0.0391949
0.0387328
0.0381931
0.0375749
0.0368763
0.0360951
0.0352286
0.0342735
0.0332244
0.0320757
0.0308205
0.0294504
0.0279564
0.0263286
0.0245567
0.022636
0.0422281
0.0420626
0.0418206
0.041502
0.0411075
0.0406369
0.0400898
0.0394656
0.0387626
0.0379793
0.0371129
0.0361601
0.0351167
0.0339767
0.0327334
0.0313784
0.0299018
0.0282916
0.0265341
0.0246184
0.0440311
0.0438494
0.043592
0.04326
0.0428532
0.0423716
0.041815
0.0411829
0.0404742
0.0396871
0.0388197
0.037869
0.0368312
0.0357012
0.0344726
0.0331372
0.0316846
0.0301024
0.028374
0.0264812
0.0456744
0.0454728
0.0451974
0.0448484
0.044426
0.0439299
0.0433604
0.0427169
0.0419988
0.0412052
0.0403341
0.0393836
0.0383503
0.0372302
0.0360175
0.0347045
0.0332817
0.0317367
0.0300522
0.0282099
0.0471557
0.0469306
0.046633
0.046263
0.0458202
0.0453047
0.0447164
0.0440555
0.0433224
0.0425166
0.0416377
0.0406838
0.0396528
0.0385411
0.0373441
0.0360552
0.0346658
0.033164
0.0315337
0.0297607
0.0484734
0.0482205
0.0478969
0.047502
0.0470335
0.0464899
0.0458724
0.0451834
0.0444254
0.0435997
0.0427064
0.0417444
0.0407115
0.0396055
0.0384231
0.0371592
0.0358057
0.0343549
0.0327983
0.0311274
0.0496222
0.0493361
0.0489866
0.0485714
0.0480729
0.0474827
0.0468146
0.0460749
0.045278
0.044421
0.0435075
0.0425332
0.0414927
0.0403867
0.0392168
0.0379813
0.0366751
0.0352867
0.0338122
0.032264
6.81829e-05
0.000230387
0.000429586
0.000660889
0.000932091
0.00124184
0.00159986
0.0020104
0.00248229
0.00302184
0.00364125
0.00434952
0.00515925
0.00608202
0.00712384
0.00829135
0.00959061
0.0110263
0.0126074
0.0143376
3.33577e-07
1.34341e-06
2.99366e-06
5.49249e-06
4.57862e-05
0.000163817
0.000402799
0.000656976
0.000974618
0.00136897
0.00185289
0.00244034
0.0031454
0.0039825
0.0049656
0.00610704
0.0074174
0.00890702
0.0105845
0.0124542
3.40719e-08
1.03049e-07
2.48941e-07
1.78559e-05
7.84907e-05
0.000199867
0.000335239
0.000509883
0.000737103
0.00102927
0.00140026
0.00186569
0.00244276
0.00315031
0.00400789
0.00503519
0.00625112
0.00767366
0.00932
0.0112062
6.97715e-06
1.76552e-05
3.57072e-05
7.33476e-05
0.000134752
0.000216237
0.000323505
0.000466594
0.000654297
0.000897552
0.0012095
0.00160549
0.00210334
0.00272313
0.00348697
0.00441844
0.00554182
0.00688132
0.00846011
0.0102978
1.01013e-05
3.00492e-05
5.28034e-05
8.35894e-05
0.000133096
0.000202338
0.000296905
0.000423698
0.000590078
0.000805873
0.00108322
0.00143668
0.00188358
0.00244393
0.0031405
0.00399847
0.00504499
0.00630841
0.00781721
0.00959786
1.0076e-05
3.01982e-05
5.22731e-05
7.96561e-05
0.000121509
0.000183733
0.00026909
0.000383559
0.000534529
0.000730682
0.000983242
0.00130596
0.00171541
0.00223115
0.00287575
0.00367496
0.00465725
0.00585322
0.00729454
0.00901087
9.88047e-06
2.96411e-05
5.1069e-05
7.66758e-05
0.000111637
0.000167659
0.000245272
0.000349612
0.000487922
0.000668263
0.000901011
0.00119916
0.00157855
0.0020581
0.00265998
0.00340996
0.00433703
0.00547307
0.00685188
0.00850635
9.70489e-06
2.92814e-05
5.04875e-05
7.5152e-05
0.000106072
0.000155231
0.000226044
0.000321932
0.000449415
0.000616562
0.000832845
0.00111055
0.00146484
0.00191402
0.00247992
0.00318811
0.00406812
0.00515356
0.00648247
0.00809933
9.5878e-06
2.915e-05
5.04887e-05
7.5063e-05
0.000104435
0.000145973
0.000210565
0.000299182
0.000417446
0.000573311
0.000775593
0.00103592
0.00136876
0.00179178
0.00232623
0.00299716
0.00383365
0.00486859
0.00613734
0.00767294
9.46658e-06
2.89377e-05
5.02973e-05
7.46498e-05
0.00010276
0.00013888
0.0001979
0.000280298
0.000390721
0.000536593
0.000726766
0.000972003
0.00128609
0.00168606
0.00219244
0.0028296
0.003626
0.00461402
0.00582917
0.007309
9.36054e-06
2.87846e-05
5.01991e-05
7.45892e-05
0.000102226
0.000135951
0.000187964
0.000264435
0.000367891
0.000504932
0.000684482
0.000916452
0.00121402
0.00159356
0.00207495
0.00268202
0.00344295
0.00439048
0.00556247
0.00700399
9.27882e-06
2.86664e-05
5.02184e-05
7.47897e-05
0.000102283
0.000134685
0.000180011
0.000250984
0.000348283
0.000477616
0.000647506
0.000867722
0.00115066
0.00151204
0.00197115
0.00255129
0.00328012
0.00419
0.00531773
0.0067027
9.19424e-06
2.8525e-05
5.00832e-05
7.46779e-05
0.000101916
0.000133156
0.000173736
0.00023947
0.000331222
0.000453689
0.000614845
0.000824547
0.00109442
0.00143957
0.0018787
0.00243454
0.00313431
0.00401009
0.00509932
0.00644603
9.11564e-06
2.83717e-05
4.9974e-05
7.46592e-05
0.000101871
0.000132597
0.000170902
0.00023005
0.000316319
0.000432496
0.000585746
0.000785972
0.0010441
0.00137463
0.0017957
0.00232939
0.00300228
0.00384583
0.00489612
0.00619266
9.04661e-06
2.82653e-05
4.99255e-05
7.48069e-05
0.000102152
0.000132675
0.000169614
0.000222284
0.00030331
0.000413763
0.000559959
0.000751332
0.000998787
0.00131608
0.00172072
0.00223422
0.00288266
0.00369713
0.00471425
0.00597747
8.97453e-06
2.81121e-05
4.97946e-05
7.47783e-05
0.000102177
0.000132432
0.000168124
0.000215746
0.00029183
0.000397042
0.000536788
0.000719968
0.000957671
0.00126288
0.00165249
0.00214751
0.00277337
0.00356062
0.0045451
0.00576785
8.90282e-06
2.79578e-05
4.96198e-05
7.46513e-05
0.000102094
0.00013219
0.00016711
0.000211809
0.000281976
0.000382014
0.000515755
0.000691382
0.000920098
0.00121418
0.00158991
0.00206767
0.00267218
0.00343298
0.00438436
0.00556445
8.83612e-06
2.78146e-05
4.94768e-05
7.46285e-05
0.000102223
0.000132361
0.000166963
0.00021007
0.000273714
0.000368579
0.000496708
0.00066546
0.000885554
0.00116921
0.00153194
0.00199342
0.00257757
0.00331287
0.00423248
0.00537337
8.77028e-06
2.76764e-05
4.93552e-05
7.46289e-05
0.000102379
0.000132584
0.000166911
0.000208655
0.000266527
0.000356455
0.000479318
0.000641621
0.000853545
0.00112743
0.00147793
0.0019241
0.00248917
0.00320104
0.0040928
0.0052036
8.71079e-06
2.75352e-05
4.91831e-05
7.44992e-05
0.000102336
0.000132542
0.000166552
0.000207097
0.000260622
0.000345462
0.000463269
0.000619494
0.000823699
0.00108836
0.00142742
0.00185922
0.0024064
0.00309627
0.00396101
0.00503735
8.64143e-06
2.73612e-05
4.89572e-05
7.4296e-05
0.000102213
0.000132451
0.000166306
0.000206153
0.000257163
0.000335783
0.000448421
0.000598847
0.00079586
0.00105173
0.0013801
0.00179862
0.00232946
0.0029998
0.00384252
0.00489837
8.57362e-06
2.72029e-05
4.87592e-05
7.41596e-05
0.000102201
0.000132554
0.000166413
0.00020588
0.000255265
0.000327344
0.000434765
0.000579629
0.000769914
0.00101736
0.0013357
0.00174195
0.0022578
0.00291011
0.00373146
0.00476059
8.5135e-06
2.70437e-05
4.85319e-05
7.40243e-05
0.000102203
0.000132695
0.000166576
0.00020569
0.0002536
0.00031985
0.000422241
0.000561834
0.000745773
0.000985309
0.00129429
0.00168908
0.00219089
0.00282602
0.00362605
0.00462805
8.4332e-06
2.68094e-05
4.83113e-05
7.37728e-05
0.00010204
0.000132637
0.000166491
0.000205233
0.000251859
0.000313632
0.000410867
0.000545427
0.000723414
0.000955495
0.00125574
0.00163979
0.00212831
0.0027468
0.00352595
0.00450154
8.37173e-06
2.66852e-05
4.80121e-05
7.34301e-05
0.000101769
0.000132418
0.000166279
0.000204818
0.000250635
0.000309663
0.000400876
0.000530397
0.000702771
0.000927977
0.00121982
0.00159367
0.00206942
0.00267176
0.00343027
0.00437911
8.32139e-06
2.65016e-05
4.77586e-05
7.31169e-05
0.000101472
0.000132217
0.000166162
0.000204662
0.000250047
0.000307368
0.000392213
0.000516693
0.000683712
0.000902434
0.00118619
0.00155028
0.00201377
0.00260067
0.00333979
0.00426478
8.27343e-06
2.6344e-05
4.74584e-05
7.2775e-05
0.000101192
0.000132031
0.00016608
0.000204585
0.000249633
0.00030552
0.000384544
0.000504139
0.000666048
0.00087862
0.00115464
0.00150954
0.00196168
0.00253478
0.00325809
0.00416848
8.21481e-06
2.61739e-05
4.72301e-05
7.24336e-05
0.000100882
0.000131777
0.000165884
0.000204342
0.000249008
0.000303523
0.000377604
0.000492531
0.000649585
0.000856331
0.00112506
0.00147138
0.00191305
0.00247343
0.00318154
0.0040725
8.17055e-06
2.60211e-05
4.69309e-05
7.2069e-05
0.000100477
0.000131409
0.000165531
0.000203916
0.000248194
0.000301535
0.000371872
0.000481883
0.000634243
0.000835467
0.00109736
0.00143565
0.00186754
0.00241592
0.0031091
0.00398089
8.10783e-06
2.58408e-05
4.66146e-05
7.16269e-05
0.000100004
0.000130929
0.000165047
0.000203379
0.000247399
0.000299965
0.000367827
0.000472271
0.000619961
0.000815991
0.00107155
0.00140203
0.00182461
0.00236133
0.00303951
0.00389127
8.05401e-06
2.56685e-05
4.63225e-05
7.12293e-05
9.95495e-05
0.000130457
0.000164589
0.0002029
0.000246802
0.000298898
0.000365064
0.000463685
0.000606718
0.000797817
0.00104739
0.00137039
0.00178413
0.00231008
0.00297554
0.00381477
8.02128e-06
2.55378e-05
4.61109e-05
7.09252e-05
9.91774e-05
0.000130093
0.000164236
0.000202568
0.000246405
0.000298115
0.000362849
0.000455949
0.000594427
0.000780786
0.00102468
0.00134061
0.00174598
0.0022617
0.00291454
0.00373689
7.99047e-06
2.54212e-05
4.58879e-05
7.06039e-05
9.88322e-05
0.000129738
0.000163917
0.000202264
0.000246019
0.000297317
0.00036069
0.000448864
0.000582992
0.000764787
0.00100324
0.00131245
0.00171002
0.00221624
0.00285771
0.00366761
7.92914e-06
2.52357e-05
4.56553e-05
7.02572e-05
9.84312e-05
0.00012936
0.000163543
0.000201877
0.000245504
0.000296359
0.000358454
0.000442393
0.000572268
0.000749743
0.00098307
0.00128587
0.001676
0.00217327
0.00280374
0.0035997
7.88946e-06
2.51448e-05
4.54322e-05
6.99255e-05
9.80562e-05
0.000128956
0.00016312
0.000201403
0.000244873
0.00029532
0.000356312
0.000436891
0.000562311
0.000735565
0.000964038
0.00126087
0.0016438
0.00213247
0.00275229
0.0035348
7.85372e-06
2.50034e-05
4.52162e-05
6.95891e-05
9.76539e-05
0.000128506
0.000162638
0.000200862
0.000244215
0.000294341
0.000354502
0.000432641
0.000553183
0.000722259
0.000946063
0.00123729
0.00161336
0.00209383
0.0027037
0.00347456
7.81814e-06
2.49034e-05
4.49882e-05
6.92642e-05
9.72501e-05
0.000128042
0.000162151
0.000200363
0.000243655
0.000293569
0.000353157
0.00042953
0.000544891
0.000709809
0.000929152
0.00121498
0.00158435
0.0020569
0.00265677
0.0034142
7.78855e-06
2.47803e-05
4.47964e-05
6.89666e-05
9.6884e-05
0.000127636
0.000161739
0.000199949
0.000243196
0.000292982
0.000352157
0.000427093
0.000537306
0.00069808
0.000913101
0.00119382
0.00155679
0.00202178
0.00261266
0.00336046
7.74573e-06
2.46611e-05
4.45682e-05
6.86638e-05
9.65395e-05
0.000127272
0.000161379
0.000199602
0.000242838
0.000292522
0.000351298
0.000424927
0.00053033
0.000687095
0.000897977
0.00117376
0.00153059
0.00198858
0.00257136
0.0033101
7.70948e-06
2.45473e-05
4.43995e-05
6.84067e-05
9.62476e-05
0.000126959
0.000161057
0.000199292
0.000242525
0.000292095
0.00035046
0.000422829
0.000523808
0.00067669
0.00088357
0.00115462
0.00150564
0.00195688
0.00253123
0.00325821
7.6874e-06
2.44633e-05
4.42247e-05
6.81827e-05
9.59645e-05
0.000126656
0.000160741
0.000198981
0.000242196
0.000291627
0.000349571
0.000420741
0.000517789
0.00066691
0.000869955
0.0011365
0.00148207
0.00192712
0.00249485
0.00321739
7.65908e-06
2.43657e-05
4.4067e-05
6.79297e-05
9.5667e-05
0.000126346
0.00016042
0.000198637
0.000241808
0.000291098
0.000348622
0.000418677
0.00051237
0.000657681
0.000857043
0.00111938
0.00145996
0.00189932
0.00246102
0.00317653
7.6476e-06
2.42969e-05
4.39221e-05
6.76886e-05
9.53768e-05
0.000126021
0.000160069
0.000198259
0.000241371
0.000290519
0.000347674
0.000416801
0.000507804
0.000649103
0.000844904
0.00110325
0.00143911
0.00187277
0.00242744
0.00313187
7.63128e-06
2.42264e-05
4.37599e-05
6.74585e-05
9.50867e-05
0.00012568
0.000159711
0.000197875
0.000240931
0.000289952
0.000346824
0.000415247
0.000504199
0.000641179
0.000833447
0.00108807
0.00141953
0.001848
0.00239721
0.00309797
7.60642e-06
2.41359e-05
4.36026e-05
6.72317e-05
9.47894e-05
0.000125367
0.00015937
0.000197506
0.00024053
0.000289488
0.00034617
0.000414068
0.000501456
0.000633974
0.000822731
0.00107366
0.00140067
0.00182315
0.00236332
0.00304397
7.58561e-06
2.40479e-05
4.34741e-05
6.70327e-05
9.45363e-05
0.000125072
0.00015905
0.000197178
0.000240202
0.000289126
0.000345681
0.0004132
0.00049929
0.000627317
0.000812573
0.00105987
0.0013825
0.00179953
0.0023341
0.00301623
7.55477e-06
2.39645e-05
4.33417e-05
6.68464e-05
9.42907e-05
0.000124798
0.000158772
0.000196909
0.00023995
0.000288868
0.000345336
0.000412514
0.000497432
0.00062115
0.000802949
0.00104669
0.00136499
0.00177648
0.00230385
0.00297153
7.52287e-06
2.38743e-05
4.3214e-05
6.66478e-05
9.40608e-05
0.000124557
0.000158534
0.000196692
0.000239756
0.000288683
0.000345083
0.000411934
0.000495732
0.000615363
0.000793768
0.00103397
0.00134794
0.00175371
0.00227357
0.00293151
7.50667e-06
2.38367e-05
4.31282e-05
6.65024e-05
9.38945e-05
0.000124377
0.00015835
0.000196519
0.000239599
0.000288532
0.00034484
0.000411344
0.000494069
0.000609907
0.000784997
0.00102171
0.0013315
0.00173214
0.00224702
0.00290466
7.49659e-06
2.3801e-05
4.30581e-05
6.63879e-05
9.37423e-05
0.000124218
0.000158188
0.000196373
0.000239481
0.000288408
0.000344614
0.000410761
0.000492418
0.000604758
0.000776566
0.0010099
0.00131574
0.0017117
0.00222109
0.00286993
7.48427e-06
2.3767e-05
4.29824e-05
6.62667e-05
9.36011e-05
0.000124053
0.000158033
0.000196236
0.000239356
0.000288262
0.000344344
0.00041012
0.000490778
0.000599976
0.000768515
0.000998636
0.0013008
0.00169246
0.00219719
0.00284256
7.47396e-06
2.37183e-05
4.28956e-05
6.61456e-05
9.34405e-05
0.000123878
0.000157861
0.000196064
0.000239187
0.00028807
0.000344018
0.00040944
0.000489198
0.000595691
0.000760923
0.000987942
0.00128662
0.00167415
0.00217368
0.0028108
7.45343e-06
2.36639e-05
4.28078e-05
6.60179e-05
9.32778e-05
0.000123684
0.000157649
0.000195862
0.000239
0.000287859
0.000343697
0.000408811
0.000487778
0.000591996
0.000753759
0.000977732
0.00127299
0.00165628
0.00214987
0.00277799
7.44289e-06
2.3623e-05
4.2741e-05
6.58993e-05
9.31227e-05
0.000123515
0.000157466
0.000195669
0.000238796
0.000287638
0.000343394
0.000408257
0.000486598
0.00058898
0.000747083
0.000968024
0.00125997
0.00163915
0.0021276
0.0027511
7.43728e-06
2.35994e-05
4.26817e-05
6.57957e-05
9.29855e-05
0.000123353
0.000157297
0.000195497
0.000238614
0.000287437
0.000343133
0.000407818
0.00048566
0.00058655
0.000740852
0.000958744
0.00124729
0.00162196
0.00210361
0.00271428
7.41985e-06
2.35491e-05
4.26049e-05
6.56827e-05
9.2846e-05
0.000123194
0.000157128
0.000195326
0.000238464
0.000287294
0.000342956
0.000407518
0.000484981
0.000584618
0.000735021
0.000949803
0.00123501
0.00160565
0.00208295
0.00269471
7.41687e-06
2.35249e-05
4.25333e-05
6.55912e-05
9.27263e-05
0.000123066
0.000156991
0.000195201
0.000238366
0.00028721
0.000342861
0.000407333
0.000484469
0.000582989
0.000729552
0.000941234