/*--------------------------------*- C++ -*----------------------------------*\
| =========                 |                                                 |
| \\      /  F ield         | OpenFOAM: The Open Source CFD Toolbox           |
|  \\    /   O peration     | Version:  2.3.0                                 |
|   \\  /    A nd           | Web:      www.OpenFOAM.org                      |
|    \\/     M anipulation  |                                                 |
\*---------------------------------------------------------------------------*/
FoamFile
{
    version     2.0;
    format      ascii;
    class       surfaceScalarField;
    location    "300";
    object      phi;
}
// * * * * * * * * * * * * * * * * * * * * * * * * * * * * * * * * * * * * * //

dimensions      [0 3 -1 0 0 0 0];

internalField   nonuniform List<scalar> 
56247
(
3.05351e-05
-0.000119821
0.000124014
-3.46802e-05
2.78207e-05
-9.63854e-05
9.90996e-05
2.64256e-05
-7.78241e-05
7.92191e-05
2.617e-05
-6.31745e-05
6.343e-05
2.68719e-05
-5.16329e-05
5.09309e-05
2.83192e-05
-4.25352e-05
4.10879e-05
3.02882e-05
-3.53183e-05
3.33494e-05
3.26135e-05
-2.95975e-05
2.72723e-05
3.51012e-05
-2.49712e-05
2.24835e-05
3.76652e-05
-2.12398e-05
1.86758e-05
4.02221e-05
-1.81834e-05
1.56266e-05
4.27468e-05
-1.56689e-05
1.31442e-05
4.52102e-05
-1.3575e-05
1.11116e-05
4.76319e-05
-1.18377e-05
9.41599e-06
4.99922e-05
-1.03532e-05
7.99295e-06
5.23142e-05
-9.09661e-06
6.77459e-06
5.46284e-05
-8.057e-06
5.74297e-06
5.6959e-05
-7.16784e-06
4.8372e-06
5.92738e-05
-6.36864e-06
4.054e-06
-5.73238e-06
6.17364e-05
3.26979e-06
3.33778e-05
-0.000116125
-3.70748e-05
3.12703e-05
-9.42779e-05
3.04405e-05
-7.69945e-05
3.06067e-05
-6.33408e-05
3.15237e-05
-5.25499e-05
3.2963e-05
-4.39744e-05
3.48054e-05
-3.71608e-05
3.68653e-05
-3.16573e-05
3.90877e-05
-2.71936e-05
4.1377e-05
-2.3529e-05
4.36711e-05
-2.04776e-05
4.59562e-05
-1.7954e-05
4.81805e-05
-1.57992e-05
5.03602e-05
-1.40174e-05
5.24664e-05
-1.24594e-05
5.45628e-05
-1.1193e-05
5.65658e-05
-1.006e-05
5.85714e-05
-9.17351e-06
6.05625e-05
-8.35961e-06
-7.6827e-06
6.25128e-05
3.56618e-05
-0.000112768
-3.9018e-05
3.38523e-05
-9.24685e-05
3.32131e-05
-7.63553e-05
3.34415e-05
-6.35692e-05
3.43026e-05
-5.34111e-05
3.55994e-05
-4.52712e-05
3.71552e-05
-3.87166e-05
3.88624e-05
-3.33645e-05
4.06177e-05
-2.89489e-05
4.24161e-05
-2.53274e-05
4.42367e-05
-2.22981e-05
4.6017e-05
-1.97344e-05
4.78092e-05
-1.75914e-05
4.96126e-05
-1.58208e-05
5.14127e-05
-1.42595e-05
5.32321e-05
-1.30123e-05
5.51077e-05
-1.19356e-05
5.69556e-05
-1.10215e-05
5.88371e-05
-1.02411e-05
-9.61936e-06
6.07738e-05
3.74612e-05
-0.00010965
-4.05799e-05
3.57157e-05
-9.07232e-05
3.50138e-05
-7.56535e-05
3.50809e-05
-6.36363e-05
3.56721e-05
-5.40023e-05
3.66152e-05
-4.62143e-05
3.77989e-05
-3.99002e-05
3.91194e-05
-3.4685e-05
4.05626e-05
-3.0392e-05
4.20731e-05
-2.68379e-05
4.36316e-05
-2.38566e-05
4.52526e-05
-2.13554e-05
4.69062e-05
-1.9245e-05
4.8585e-05
-1.74997e-05
5.03637e-05
-1.60381e-05
5.214e-05
-1.47887e-05
5.39387e-05
-1.37342e-05
5.58021e-05
-1.28849e-05
5.77068e-05
-1.21457e-05
-1.15366e-05
5.9624e-05
3.88551e-05
-0.000106566
-4.19387e-05
3.70465e-05
-8.89146e-05
3.61985e-05
-7.48056e-05
3.60353e-05
-6.34731e-05
3.63609e-05
-5.43279e-05
3.7038e-05
-4.68914e-05
3.79295e-05
-4.07917e-05
3.90334e-05
-3.57889e-05
4.02527e-05
-3.16113e-05
4.15539e-05
-2.81392e-05
4.29581e-05
-2.52607e-05
4.44544e-05
-2.28517e-05
4.60354e-05
-2.08259e-05
4.76495e-05
-1.91138e-05
4.93303e-05
-1.77189e-05
5.10747e-05
-1.65331e-05
5.28774e-05
-1.55368e-05
5.47292e-05
-1.47367e-05
5.66077e-05
-1.40243e-05
-1.34754e-05
5.85466e-05
3.99261e-05
-0.000103405
-4.30871e-05
3.79863e-05
-8.69748e-05
3.69412e-05
-7.37605e-05
3.65481e-05
-6.308e-05
3.66285e-05
-5.44083e-05
3.70543e-05
-4.73173e-05
3.77494e-05
-4.14868e-05
3.86343e-05
-3.66739e-05
3.97023e-05
-3.26793e-05
4.09076e-05
-2.93445e-05
4.22434e-05
-2.65965e-05
4.36583e-05
-2.42666e-05
4.51743e-05
-2.2342e-05
4.67825e-05
-2.07219e-05
4.84501e-05
-1.93866e-05
5.0188e-05
-1.8271e-05
5.2005e-05
-1.73538e-05
5.38419e-05
-1.65736e-05
5.57458e-05
-1.59282e-05
-1.54046e-05
5.7675e-05
4.07124e-05
-0.000100167
-4.39513e-05
3.8602e-05
-8.48644e-05
3.73492e-05
-7.25077e-05
3.6741e-05
-6.24717e-05
3.66166e-05
-5.4284e-05
3.68711e-05
-4.75717e-05
3.74093e-05
-4.20251e-05
3.81842e-05
-3.74488e-05
3.91376e-05
-3.36326e-05
4.02829e-05
-3.04897e-05
4.15304e-05
-2.78441e-05
4.29255e-05
-2.56617e-05
4.44172e-05
-2.38337e-05
4.60103e-05
-2.2315e-05
4.7687e-05
-2.10633e-05
4.94235e-05
-2.00075e-05
5.121e-05
-1.91403e-05
5.30679e-05
-1.84316e-05
5.49785e-05
-1.78388e-05
-1.7341e-05
5.69149e-05
4.1283e-05
-9.67221e-05
-4.47274e-05
3.89788e-05
-8.25601e-05
3.75329e-05
-7.10618e-05
3.67458e-05
-6.16847e-05
3.64535e-05
-5.39917e-05
3.65518e-05
-4.767e-05
3.69728e-05
-4.24461e-05
3.76427e-05
-3.81187e-05
3.85431e-05
-3.4533e-05
3.96226e-05
-3.15692e-05
4.08556e-05
-2.90771e-05
4.22299e-05
-2.70359e-05
4.37129e-05
-2.53168e-05
4.52979e-05
-2.38999e-05
4.69603e-05
-2.27258e-05
4.87037e-05
-2.17508e-05
5.05123e-05
-2.0949e-05
5.23778e-05
-2.0297e-05
5.42804e-05
-1.97415e-05
-1.93041e-05
5.62435e-05
4.16404e-05
-9.31321e-05
-4.52304e-05
3.91638e-05
-8.00835e-05
3.75466e-05
-6.94446e-05
3.65837e-05
-6.07219e-05
3.61519e-05
-5.35598e-05
3.61463e-05
-4.76644e-05
3.64787e-05
-4.27785e-05
3.70963e-05
-3.87363e-05
3.79499e-05
-3.53867e-05
3.89864e-05
-3.26057e-05
4.02131e-05
-3.03038e-05
4.1563e-05
-2.83858e-05
4.30423e-05
-2.67961e-05
4.4632e-05
-2.54895e-05
4.63009e-05
-2.43948e-05
4.80609e-05
-2.35107e-05
4.98782e-05
-2.27663e-05
5.17421e-05
-2.21609e-05
5.36708e-05
-2.16702e-05
-2.12614e-05
5.56281e-05
4.18457e-05
-8.93637e-05
-4.56142e-05
3.92e-05
-7.74378e-05
3.74161e-05
-6.76608e-05
3.63259e-05
-5.96317e-05
3.57802e-05
-5.3014e-05
3.56679e-05
-4.75521e-05
3.59312e-05
-4.30419e-05
3.64987e-05
-3.93037e-05
3.73179e-05
-3.6206e-05
3.83472e-05
-3.3635e-05
3.95497e-05
-3.15064e-05
4.09099e-05
-2.97461e-05
4.23921e-05
-2.82783e-05
4.3985e-05
-2.70825e-05
4.56638e-05
-2.60736e-05
4.7422e-05
-2.52689e-05
4.92519e-05
-2.45962e-05
5.11382e-05
-2.40472e-05
5.30641e-05
-2.3596e-05
-2.32437e-05
5.50464e-05
4.19254e-05
-8.54374e-05
-4.58517e-05
3.9113e-05
-7.46254e-05
3.71857e-05
-6.57334e-05
3.59677e-05
-5.84137e-05
3.53244e-05
-5.23707e-05
3.51535e-05
-4.73813e-05
3.53639e-05
-4.32522e-05
3.58944e-05
-3.98342e-05
3.66831e-05
-3.69947e-05
3.76984e-05
-3.46503e-05
3.88976e-05
-3.27055e-05
4.02581e-05
-3.11066e-05
4.17465e-05
-2.97666e-05
4.33398e-05
-2.86757e-05
4.50495e-05
-2.77832e-05
4.68103e-05
-2.70297e-05
4.86482e-05
-2.64342e-05
5.0548e-05
-2.5947e-05
5.2497e-05
-2.5545e-05
-2.52265e-05
5.44799e-05
4.18816e-05
-8.13541e-05
-4.59649e-05
3.89209e-05
-7.16647e-05
3.68677e-05
-6.36802e-05
3.55458e-05
-5.70918e-05
3.48211e-05
-5.16461e-05
3.45834e-05
-4.71436e-05
3.47498e-05
-4.34186e-05
3.52441e-05
-4.03285e-05
3.6023e-05
-3.77736e-05
3.70326e-05
-3.56599e-05
3.82411e-05
-3.39139e-05
3.95958e-05
-3.24614e-05
4.10928e-05
-3.12637e-05
4.2705e-05
-3.02879e-05
4.4406e-05
-2.94842e-05
4.61993e-05
-2.8823e-05
4.80543e-05
-2.82891e-05
4.99563e-05
-2.7849e-05
5.19187e-05
-2.75075e-05
-2.72206e-05
5.39128e-05
4.17351e-05
-7.71199e-05
-4.59693e-05
3.86385e-05
-6.85682e-05
3.64682e-05
-6.15098e-05
3.50527e-05
-5.56763e-05
3.42582e-05
-5.08516e-05
3.39689e-05
-4.68543e-05
3.40986e-05
-4.35483e-05
3.45781e-05
-4.0808e-05
3.5345e-05
-3.85405e-05
3.63433e-05
-3.66581e-05
3.75434e-05
-3.51141e-05
3.89102e-05
-3.38281e-05
4.04211e-05
-3.27746e-05
4.20442e-05
-3.1911e-05
4.37595e-05
-3.11995e-05
4.55592e-05
-3.06228e-05
4.74236e-05
-3.01535e-05
4.935e-05
-2.97753e-05
5.13155e-05
-2.9473e-05
-2.92368e-05
5.33317e-05
4.1493e-05
-7.27414e-05
-4.58715e-05
3.82738e-05
-6.53489e-05
3.60029e-05
-5.9239e-05
3.45064e-05
-5.41798e-05
3.36459e-05
-4.9991e-05
3.33129e-05
-4.65213e-05
3.34126e-05
-4.3648e-05
3.38675e-05
-4.12629e-05
3.4623e-05
-3.9296e-05
3.56267e-05
-3.76618e-05
3.68286e-05
-3.6316e-05
3.82068e-05
-3.52064e-05
3.97293e-05
-3.4297e-05
4.13592e-05
-3.35409e-05
4.30939e-05
-3.29343e-05
4.49042e-05
-3.2433e-05
4.67812e-05
-3.20306e-05
4.87184e-05
-3.17125e-05
5.07059e-05
-3.14605e-05
-3.12566e-05
5.27257e-05
4.11851e-05
-6.82281e-05
-4.56984e-05
3.78483e-05
-6.20121e-05
3.54808e-05
-5.68715e-05
3.39102e-05
-5.26092e-05
3.29933e-05
-4.90742e-05
3.26178e-05
-4.61458e-05
3.26869e-05
-4.37171e-05
3.31296e-05
-4.17056e-05
3.38727e-05
-4.00391e-05
3.48758e-05
-3.86649e-05
3.6086e-05
-3.75261e-05
3.74661e-05
-3.65865e-05
3.89908e-05
-3.58218e-05
4.06378e-05
-3.51879e-05
4.23804e-05
-3.46769e-05
4.42064e-05
-3.42591e-05
4.61051e-05
-3.39292e-05
4.80533e-05
-3.36607e-05
5.00466e-05
-3.34539e-05
-3.32955e-05
5.20856e-05
4.08037e-05
-6.3586e-05
-4.54459e-05
3.73704e-05
-5.85787e-05
3.49132e-05
-5.44144e-05
3.32729e-05
-5.09689e-05
3.23026e-05
-4.81039e-05
3.18874e-05
-4.57306e-05
3.19306e-05
-4.37604e-05
3.23549e-05
-4.21299e-05
3.30927e-05
-4.07769e-05
3.40877e-05
-3.966e-05
3.52989e-05
-3.87373e-05
3.66898e-05
-3.79774e-05
3.82241e-05
-3.73561e-05
3.98832e-05
-3.68469e-05
4.16373e-05
-3.6431e-05
4.34804e-05
-3.61022e-05
4.53847e-05
-3.58335e-05
4.7348e-05
-3.56239e-05
4.93596e-05
-3.54656e-05
-3.53402e-05
5.14043e-05
4.03758e-05
-5.88292e-05
-4.51326e-05
3.68337e-05
-5.50366e-05
3.43017e-05
-5.18823e-05
3.25928e-05
-4.926e-05
3.15733e-05
-4.70844e-05
3.11217e-05
-4.5279e-05
3.11426e-05
-4.37813e-05
3.15476e-05
-4.25349e-05
3.22755e-05
-4.15048e-05
3.32693e-05
-4.06537e-05
3.44826e-05
-3.99506e-05
3.58772e-05
-3.93721e-05
3.74197e-05
-3.88985e-05
3.90854e-05
-3.85127e-05
4.08557e-05
-3.82013e-05
4.27034e-05
-3.79498e-05
4.46226e-05
-3.77528e-05
4.66007e-05
-3.7602e-05
4.86178e-05
-3.74827e-05
-3.73997e-05
5.06773e-05
3.98935e-05
-5.39671e-05
-4.47557e-05
3.62602e-05
-5.14033e-05
3.36472e-05
-4.92694e-05
3.18887e-05
-4.75015e-05
3.08229e-05
-4.60185e-05
3.0338e-05
-4.47942e-05
3.03227e-05
-4.3766e-05
3.07155e-05
-4.29277e-05
3.14311e-05
-4.22203e-05
3.24187e-05
-4.16413e-05
3.36309e-05
-4.11628e-05
3.50308e-05
-4.07719e-05
3.65775e-05
-4.04452e-05
3.82499e-05
-4.01851e-05
4.00267e-05
-3.99781e-05
4.18907e-05
-3.98138e-05
4.38186e-05
-3.96807e-05
4.58036e-05
-3.9587e-05
4.78336e-05
-3.95127e-05
-3.94682e-05
4.99022e-05
3.93654e-05
-4.90146e-05
-4.43179e-05
3.56492e-05
-4.7687e-05
3.29744e-05
-4.65946e-05
3.11469e-05
-4.5674e-05
3.00378e-05
-4.49095e-05
2.95183e-05
-4.42746e-05
2.94895e-05
-4.37372e-05
2.98521e-05
-4.32903e-05
3.05583e-05
-4.29265e-05
3.15404e-05
-4.26235e-05
3.27506e-05
-4.2373e-05
3.41484e-05
-4.21697e-05
3.57009e-05
-4.19978e-05
3.73838e-05
-4.18679e-05
3.91631e-05
-4.17574e-05
4.10299e-05
-4.16805e-05
4.29718e-05
-4.16226e-05
4.49651e-05
-4.15804e-05
4.70041e-05
-4.15517e-05
-4.15444e-05
4.90803e-05
3.88009e-05
-4.38268e-05
-4.39888e-05
3.50192e-05
-4.39053e-05
3.22726e-05
-4.3848e-05
3.04004e-05
-4.38018e-05
2.92482e-05
-4.37573e-05
2.86895e-05
-4.37159e-05
2.86283e-05
-4.3676e-05
2.89803e-05
-4.36422e-05
2.96686e-05
-4.36149e-05
3.06382e-05
-4.3593e-05
3.18409e-05
-4.35757e-05
3.3236e-05
-4.35648e-05
3.47931e-05
-4.35549e-05
3.64726e-05
-4.35475e-05
3.82634e-05
-4.35482e-05
4.01353e-05
-4.35524e-05
4.20822e-05
-4.35695e-05
4.40843e-05
-4.35824e-05
4.61314e-05
-4.35989e-05
4.8214e-05
-4.3627e-05
6.36858e-05
-5.83414e-06
3.88482e-06
6.54683e-05
-6.75345e-06
4.97098e-06
6.71198e-05
-7.82689e-06
6.17545e-06
6.86751e-05
-9.18853e-06
7.63324e-06
7.00774e-05
-1.08109e-05
9.4087e-06
7.13222e-05
-1.28155e-05
1.15707e-05
7.23746e-05
-1.52563e-05
1.42038e-05
7.31811e-05
-1.82113e-05
1.74048e-05
7.37045e-05
-2.18133e-05
2.129e-05
7.3895e-05
-2.61783e-05
2.59877e-05
7.37076e-05
-3.14609e-05
3.16484e-05
7.30935e-05
-3.78321e-05
3.84462e-05
7.20155e-05
-4.55027e-05
4.65806e-05
7.04407e-05
-5.47171e-05
5.62919e-05
6.83402e-05
-6.57613e-05
6.78617e-05
6.56638e-05
-7.89734e-05
8.16499e-05
6.2319e-05
-9.47511e-05
9.80959e-05
5.81585e-05
-0.000113583
0.000117743
5.29668e-05
-0.000136061
0.000141253
-0.000162896
0.00016935
4.6513e-05
6.44388e-05
-7.76018e-06
6.63346e-05
-8.6492e-06
6.81566e-05
-9.64888e-06
6.98517e-05
-1.08837e-05
7.14691e-05
-1.24282e-05
7.28993e-05
-1.42457e-05
7.4151e-05
-1.6508e-05
7.51554e-05
-1.92158e-05
7.58869e-05
-2.25448e-05
7.62749e-05
-2.65663e-05
7.62862e-05
-3.14723e-05
7.58609e-05
-3.74067e-05
7.49492e-05
-4.4591e-05
7.34863e-05
-5.32542e-05
7.14083e-05
-6.36833e-05
6.8633e-05
-7.61981e-05
6.50626e-05
-9.11807e-05
6.05775e-05
-0.000109098
5.50048e-05
-0.000130489
-0.00015607
4.81788e-05
6.27101e-05
-9.69647e-06
6.45574e-05
-1.04966e-05
6.64052e-05
-1.14966e-05
6.82091e-05
-1.26877e-05
6.98977e-05
-1.41168e-05
7.14955e-05
-1.58434e-05
7.29181e-05
-1.79306e-05
7.41722e-05
-2.04699e-05
7.52008e-05
-2.35734e-05
7.59283e-05
-2.72938e-05
7.63023e-05
-3.18463e-05
7.62482e-05
-3.73526e-05
7.56731e-05
-4.40159e-05
7.45188e-05
-5.21e-05
7.26769e-05
-6.18415e-05
7.00632e-05
-7.35844e-05
6.65771e-05
-8.76945e-05
6.20884e-05
-0.000104609
5.64482e-05
-0.000124849
-0.000149065
4.9443e-05
6.15429e-05
-1.16154e-05
6.34438e-05
-1.23975e-05
6.52959e-05
-1.33487e-05
6.70797e-05
-1.44715e-05
6.87633e-05
-1.58004e-05
7.03766e-05
-1.74567e-05
7.18589e-05
-1.94129e-05
7.31697e-05
-2.17807e-05
7.42661e-05
-2.46698e-05
7.51275e-05
-2.81552e-05
7.56582e-05
-3.2377e-05
7.57899e-05
-3.74843e-05
7.54674e-05
-4.36934e-05
7.45554e-05
-5.1188e-05
7.29779e-05
-6.0264e-05
7.0614e-05
-7.12205e-05
6.73319e-05
-8.44125e-05
6.29925e-05
-0.00010027
5.7426e-05
-0.000119282
-0.000142069
5.04302e-05
6.04874e-05
-1.35562e-05
6.2373e-05
-1.42831e-05
6.42239e-05
-1.51996e-05
6.59974e-05
-1.6245e-05
6.77275e-05
-1.75306e-05
6.93386e-05
-1.90678e-05
7.08418e-05
-2.09161e-05
7.21898e-05
-2.31288e-05
7.33538e-05
-2.58337e-05
7.42771e-05
-2.90785e-05
7.48986e-05
-3.29985e-05
7.5181e-05
-3.77667e-05
7.49927e-05
-4.3505e-05
7.42749e-05
-5.04702e-05
7.29007e-05
-5.88898e-05
7.07431e-05
-6.90629e-05
6.76615e-05
-8.13309e-05
6.35006e-05
-9.61087e-05
5.80773e-05
-0.000113859
-0.000135144
5.11528e-05
5.96068e-05
-1.54881e-05
6.15157e-05
-1.6192e-05
6.33573e-05
-1.70412e-05
6.51669e-05
-1.80545e-05
6.68838e-05
-1.92475e-05
6.85033e-05
-2.06873e-05
7.00178e-05
-2.24306e-05
7.13817e-05
-2.44927e-05
7.25704e-05
-2.70224e-05
7.35276e-05
-3.00358e-05
7.42105e-05
-3.36814e-05
7.45419e-05
-3.80981e-05
7.44617e-05
-4.34249e-05
7.3859e-05
-4.98675e-05
7.26258e-05
-5.76566e-05
7.06308e-05
-6.70678e-05
6.77283e-05
-7.84284e-05
6.37382e-05
-9.21186e-05
5.84692e-05
-0.00010859
-0.000128371
5.16955e-05
5.88688e-05
-1.7442e-05
6.07697e-05
-1.80928e-05
6.26316e-05
-1.89032e-05
6.44182e-05
-1.98411e-05
6.61539e-05
-2.09832e-05
6.778e-05
-2.23134e-05
6.92858e-05
-2.39364e-05
7.06699e-05
-2.58768e-05
7.18628e-05
-2.82152e-05
7.28531e-05
-3.10261e-05
7.35672e-05
-3.43955e-05
7.39528e-05
-3.84837e-05
7.39245e-05
-4.33965e-05
7.34014e-05
-4.93444e-05
7.22738e-05
-5.65291e-05
7.04006e-05
-6.51946e-05
6.76299e-05
-7.56578e-05
6.37906e-05
-8.82793e-05
5.86695e-05
-0.000103469
-0.00012173
5.20284e-05
5.81934e-05
-1.93918e-05
6.01149e-05
-2.00144e-05
6.19826e-05
-2.07709e-05
6.37881e-05
-2.16465e-05
6.55037e-05
-2.26988e-05
6.71473e-05
-2.3957e-05
6.86692e-05
-2.54583e-05
7.00607e-05
-2.72684e-05
7.12587e-05
-2.94132e-05
7.22493e-05
-3.20166e-05
7.29831e-05
-3.51294e-05
7.33866e-05
-3.88872e-05
7.34024e-05
-4.34124e-05
7.29356e-05
-4.88776e-05
7.18701e-05
-5.54636e-05
7.00879e-05
-6.34124e-05
6.74282e-05
-7.29981e-05
6.37093e-05
-8.45604e-05
5.87241e-05
-9.84833e-05
-0.000115233
5.22278e-05
5.75866e-05
-2.13503e-05
5.95169e-05
-2.19447e-05
6.13927e-05
-2.26467e-05
6.32036e-05
-2.34574e-05
6.49339e-05
-2.4429e-05
6.65692e-05
-2.55924e-05
6.80982e-05
-2.69872e-05
6.94799e-05
-2.86501e-05
7.06957e-05
-3.06291e-05
7.16852e-05
-3.30061e-05
7.24378e-05
-3.5882e-05
7.28638e-05
-3.93132e-05
7.29048e-05
-4.34533e-05
7.24675e-05
-4.84403e-05
7.14516e-05
-5.44477e-05
6.9728e-05
-6.16887e-05
6.71517e-05
-7.04219e-05
6.35358e-05
-8.09445e-05
5.86677e-05
-9.36152e-05
-0.000108863
5.22971e-05
5.70289e-05
-2.33327e-05
5.89542e-05
-2.387e-05
6.08245e-05
-2.4517e-05
6.26433e-05
-2.52763e-05
6.43906e-05
-2.61763e-05
6.60402e-05
-2.7242e-05
6.75604e-05
-2.85074e-05
6.89452e-05
-3.00349e-05
7.01551e-05
-3.1839e-05
7.11663e-05
-3.40173e-05
7.19063e-05
-3.6622e-05
7.23439e-05
-3.97507e-05
7.24e-05
-4.35094e-05
7.19862e-05
-4.80266e-05
7.1005e-05
-5.34665e-05
6.93358e-05
-6.00195e-05
6.68183e-05
-6.79044e-05
6.32859e-05
-7.74122e-05
5.85194e-05
-8.88486e-05
-0.000102611
5.22678e-05
5.64619e-05
-2.53148e-05
5.84069e-05
-2.5815e-05
6.02975e-05
-2.64076e-05
6.21182e-05
-2.70969e-05
6.38596e-05
-2.79177e-05
6.55032e-05
-2.88856e-05
6.70377e-05
-3.0042e-05
6.84246e-05
-3.14218e-05
6.96444e-05
-3.30587e-05
7.06487e-05
-3.50217e-05
7.13993e-05
-3.73726e-05
7.18411e-05
-4.01925e-05
7.18983e-05
-4.35666e-05
7.15034e-05
-4.76317e-05
7.0545e-05
-5.25081e-05
6.89037e-05
-5.83782e-05
6.64438e-05
-6.54444e-05
6.29724e-05
-7.39408e-05
5.82925e-05
-8.41688e-05
-9.64681e-05
5.21494e-05
5.59128e-05
-2.73148e-05
5.78601e-05
-2.77622e-05
5.97558e-05
-2.83033e-05
6.1579e-05
-2.89201e-05
6.33256e-05
-2.96644e-05
6.49808e-05
-3.05408e-05
6.65151e-05
-3.15762e-05
6.79037e-05
-3.28104e-05
6.91212e-05
-3.42762e-05
7.01286e-05
-3.6029e-05
7.0882e-05
-3.8126e-05
7.13211e-05
-4.06316e-05
7.13891e-05
-4.36347e-05
7.09997e-05
-4.72423e-05
7.00584e-05
-5.15668e-05
6.84488e-05
-5.67686e-05
6.60206e-05
-6.30163e-05
6.26077e-05
-7.05278e-05
5.8001e-05
-7.95621e-05
-9.04204e-05
5.19533e-05
5.53366e-05
-2.93197e-05
5.72994e-05
-2.9725e-05
5.91978e-05
-3.02017e-05
6.10382e-05
-3.07605e-05
6.27919e-05
-3.14181e-05
6.44432e-05
-3.21921e-05
6.5979e-05
-3.3112e-05
6.73668e-05
-3.41982e-05
6.85828e-05
-3.54922e-05
6.9593e-05
-3.70393e-05
7.0344e-05
-3.8877e-05
7.07889e-05
-4.10765e-05
7.08611e-05
-4.37069e-05
7.04747e-05
-4.68559e-05
6.95479e-05
-5.064e-05
6.79538e-05
-5.51745e-05
6.55578e-05
-6.06202e-05
6.21899e-05
-6.716e-05
5.76482e-05
-7.50204e-05
-8.44635e-05
5.16914e-05
5.47461e-05
-3.13402e-05
5.6714e-05
-3.16929e-05
5.86254e-05
-3.2113e-05
6.04683e-05
-3.26035e-05
6.22231e-05
-3.3173e-05
6.38788e-05
-3.38477e-05
6.5416e-05
-3.46492e-05
6.6809e-05
-3.55913e-05
6.80282e-05
-3.67113e-05
6.90303e-05
-3.80414e-05
6.97824e-05
-3.96291e-05
7.02238e-05
-4.1518e-05
7.02952e-05
-4.37783e-05
6.99212e-05
-4.64819e-05
6.89991e-05
-4.97179e-05
6.74223e-05
-5.35977e-05
6.50537e-05
-5.82515e-05
6.17265e-05
-6.38328e-05
5.72404e-05
-7.05343e-05
-7.8581e-05
5.13578e-05
5.41135e-05
-3.33682e-05
5.60942e-05
-3.36736e-05
5.80147e-05
-3.40335e-05
5.98581e-05
-3.44468e-05
6.16239e-05
-3.49388e-05
6.3284e-05
-3.55079e-05
6.48228e-05
-3.61879e-05
6.62151e-05
-3.69836e-05
6.74314e-05
-3.79276e-05
6.84373e-05
-3.90473e-05
6.91861e-05
-4.03778e-05
6.96303e-05
-4.19622e-05
6.97023e-05
-4.38503e-05
6.93281e-05
-4.61077e-05
6.84154e-05
-4.88051e-05
6.68521e-05
-5.20345e-05
6.45035e-05
-5.59028e-05
6.12075e-05
-6.05368e-05
5.67718e-05
-6.60986e-05
-7.27677e-05
5.09585e-05
5.34445e-05
-3.54083e-05
5.54328e-05
-3.56619e-05
5.73558e-05
-3.59566e-05
5.92126e-05
-3.63036e-05
6.09786e-05
-3.67047e-05
6.26457e-05
-3.7175e-05
6.41861e-05
-3.77283e-05
6.558e-05
-3.83776e-05
6.67961e-05
-3.91436e-05
6.78014e-05
-4.00526e-05
6.85504e-05
-4.11268e-05
6.89917e-05
-4.24035e-05
6.90662e-05
-4.39248e-05
6.86925e-05
-4.57341e-05
6.77869e-05
-4.78995e-05
6.62356e-05
-5.04832e-05
6.39074e-05
-5.35746e-05
6.0644e-05
-5.72735e-05
5.62528e-05
-6.17074e-05
-6.70201e-05
5.05052e-05
5.27269e-05
-3.74579e-05
5.47223e-05
-3.76574e-05
5.66598e-05
-3.7894e-05
5.85179e-05
-3.81618e-05
6.02895e-05
-3.84763e-05
6.19586e-05
-3.88441e-05
6.35022e-05
-3.92719e-05
6.48981e-05
-3.97735e-05
6.61165e-05
-4.03621e-05
6.71195e-05
-4.10555e-05
6.78675e-05
-4.18748e-05
6.83094e-05
-4.28454e-05
6.83814e-05
-4.39967e-05
6.80147e-05
-4.53674e-05
6.71116e-05
-4.69964e-05
6.55681e-05
-4.89397e-05
6.32584e-05
-5.12649e-05
6.0023e-05
-5.40381e-05
5.56683e-05
-5.73527e-05
-6.13328e-05
4.9981e-05
5.19621e-05
-3.95178e-05
5.39663e-05
-3.96616e-05
5.59058e-05
-3.98335e-05
5.77718e-05
-4.00277e-05
5.95503e-05
-4.02548e-05
6.12222e-05
-4.0516e-05
6.27689e-05
-4.08186e-05
6.41642e-05
-4.11687e-05
6.53825e-05
-4.15804e-05
6.63892e-05
-4.20622e-05
6.71352e-05
-4.26209e-05
6.75778e-05
-4.32881e-05
6.7652e-05
-4.40709e-05
6.72837e-05
-4.49992e-05
6.63893e-05
-4.6102e-05
6.48581e-05
-4.74084e-05
6.25595e-05
-4.89664e-05
5.93435e-05
-5.08221e-05
5.50311e-05
-5.30403e-05
-5.56916e-05
4.939e-05
5.11452e-05
-4.15827e-05
5.31596e-05
-4.16761e-05
5.51046e-05
-4.17784e-05
5.69774e-05
-4.19006e-05
5.87579e-05
-4.20352e-05
6.04326e-05
-4.21907e-05
6.19838e-05
-4.23698e-05
6.33833e-05
-4.25682e-05
6.46009e-05
-4.2798e-05
6.56057e-05
-4.3067e-05
6.63554e-05
-4.33706e-05
6.67917e-05
-4.37244e-05
6.68692e-05
-4.41483e-05
6.65059e-05
-4.46358e-05
6.56126e-05
-4.52087e-05
6.40911e-05
-4.58869e-05
6.18109e-05
-4.66861e-05
5.86249e-05
-4.76361e-05
5.43464e-05
-4.87618e-05
-5.00945e-05
4.87493e-05
5.02894e-05
-4.36581e-05
5.23068e-05
-4.36935e-05
5.42648e-05
-4.37364e-05
5.6139e-05
-4.37747e-05
5.79229e-05
-4.38192e-05
5.95939e-05
-4.38617e-05
6.11455e-05
-4.39214e-05
6.25461e-05
-4.39688e-05
6.37648e-05
-4.40168e-05
6.47625e-05
-4.40646e-05
6.55123e-05
-4.41204e-05
6.59533e-05
-4.41654e-05
6.60244e-05
-4.42194e-05
6.56716e-05
-4.4283e-05
6.47873e-05
-4.43244e-05
6.32752e-05
-4.43749e-05
6.10133e-05
-4.44242e-05
5.78454e-05
-4.44683e-05
5.35993e-05
-4.45157e-05
4.80632e-05
-4.45584e-05
1.60771e-06
0.00018933
-0.00019696
6.02252e-06
7.7036e-06
0.000157366
-0.000163461
1.23923e-05
0.000130622
-0.000135311
1.58865e-05
0.000108162
-0.000111656
1.83588e-05
8.936e-05
-9.18324e-05
1.99832e-05
7.35862e-05
-7.52106e-05
2.08292e-05
6.05232e-05
-6.13693e-05
2.11094e-05
4.96653e-05
-4.99455e-05
2.08493e-05
4.07877e-05
-4.05277e-05
2.01552e-05
3.35086e-05
-3.28144e-05
1.90705e-05
2.76215e-05
-2.65369e-05
1.76364e-05
2.28267e-05
-2.13926e-05
1.58653e-05
1.89521e-05
-1.71809e-05
1.3847e-05
1.58079e-05
-1.37896e-05
1.16386e-05
1.33015e-05
-1.10929e-05
9.22079e-06
1.12775e-05
-8.85994e-06
6.61276e-06
9.63135e-06
-7.02301e-06
3.78577e-06
8.28752e-06
-5.46073e-06
7.23281e-07
7.2127e-06
-4.14999e-06
6.35974e-06
-2.49655e-06
-3.14007e-06
1.29029e-06
0.00018177
6.27062e-06
7.22063e-06
0.000151435
1.1774e-05
0.000126069
1.5161e-05
0.000104775
1.75703e-05
8.69506e-05
1.91281e-05
7.20285e-05
2.00195e-05
5.96317e-05
2.025e-05
4.94349e-05
1.99064e-05
4.11313e-05
1.90018e-05
3.44132e-05
1.76693e-05
2.89539e-05
1.59087e-05
2.45873e-05
1.38325e-05
2.10283e-05
1.15158e-05
1.81245e-05
9.02428e-06
1.57931e-05
6.43134e-06
1.38704e-05
3.78399e-06
1.22788e-05
1.06862e-06
1.10028e-05
-1.62232e-06
9.9037e-06
9.01201e-06
-4.27466e-06
8.53216e-07
0.000174334
6.58273e-06
6.63462e-06
0.000145654
1.10633e-05
0.00012164
1.43203e-05
0.000101518
1.66248e-05
8.46461e-05
1.80708e-05
7.05825e-05
1.87169e-05
5.89856e-05
1.86005e-05
4.95513e-05
1.78519e-05
4.18798e-05
1.66306e-05
3.56344e-05
1.49819e-05
3.06026e-05
1.30809e-05
2.64884e-05
1.09936e-05
2.31156e-05
8.7351e-06
2.0383e-05
6.4027e-06
1.81255e-05
4.02656e-06
1.62465e-05
1.61042e-06
1.46949e-05
-8.10712e-07
1.34239e-05
-3.25873e-06
1.23517e-05
1.14751e-05
-5.72184e-06
3.5701e-07
0.000167017
6.96004e-06
6.03175e-06
0.000139979
1.03278e-05
0.000117344
1.35254e-05
9.83204e-05
1.56994e-05
8.24721e-05
1.69053e-05
6.93767e-05
1.72391e-05
5.86517e-05
1.69124e-05
4.9878e-05
1.60338e-05
4.27585e-05
1.47113e-05
3.69569e-05
1.31188e-05
3.2195e-05
1.12735e-05
2.83337e-05
9.27816e-06
2.5111e-05
7.1635e-06
2.24976e-05
4.97361e-06
2.03154e-05
2.68885e-06
1.85313e-05
3.65256e-07
1.70186e-05
-1.98224e-06
1.57714e-05
-4.39653e-06
1.47661e-05
1.38828e-05
-6.80431e-06
-1.48398e-07
0.000159798
7.36669e-06
5.43573e-06
0.000134395
9.68918e-06
0.00011309
1.27512e-05
9.52584e-05
1.47023e-05
8.0521e-05
1.5706e-05
6.8373e-05
1.59331e-05
5.84246e-05
1.55112e-05
5.02999e-05
1.4606e-05
4.36637e-05
1.33478e-05
3.82152e-05
1.18102e-05
3.37326e-05
1.0073e-05
3.00708e-05
8.16703e-06
2.7017e-05
6.13534e-06
2.45293e-05
3.99826e-06
2.24525e-05
1.79314e-06
2.07364e-05
-4.82527e-07
1.92942e-05
-2.81239e-06
1.81012e-05
-5.16048e-06
1.71142e-05
1.62909e-05
-7.56855e-06
-6.02278e-07
0.000152638
7.76303e-06
4.94049e-06
0.000128852
9.11688e-06
0.000108914
1.20065e-05
9.23689e-05
1.38112e-05
7.87162e-05
1.47156e-05
6.74686e-05
1.4882e-05
5.82583e-05
1.44923e-05
5.06896e-05
1.36536e-05
4.45024e-05
1.24594e-05
3.94093e-05
1.09914e-05
3.52006e-05
9.30096e-06
3.17613e-05
7.45452e-06
2.88634e-05
5.47317e-06
2.65107e-05
3.37655e-06
2.45491e-05
1.2232e-06
2.28897e-05
-1.02922e-06
2.15466e-05
-3.3429e-06
2.04149e-05
-5.70017e-06
1.94714e-05
1.86937e-05
-8.103e-06
-1.01501e-06
0.000145494
8.1585e-06
4.5198e-06
0.000123317
8.54583e-06
0.000104888
1.13464e-05
8.95682e-05
1.30946e-05
7.69681e-05
1.39447e-05
6.66185e-05
1.41395e-05
5.80635e-05
1.37636e-05
5.10655e-05
1.29537e-05
4.53123e-05
1.1814e-05
4.05489e-05
1.03987e-05
3.66159e-05
8.77615e-06
3.33839e-05
6.97018e-06
3.06693e-05
5.02204e-06
2.84588e-05
2.97189e-06
2.65992e-05
7.98391e-07
2.50632e-05
-1.43955e-06
2.37846e-05
-3.74348e-06
2.27189e-05
-6.09489e-06
2.18228e-05
2.10741e-05
-8.47523e-06
-1.31305e-06
0.000138368
8.43963e-06
4.10766e-06
0.000117897
8.09272e-06
0.000100903
1.08051e-05
8.68559e-05
1.24995e-05
7.52736e-05
1.33932e-05
6.57248e-05
1.35701e-05
5.78867e-05
1.32536e-05
5.1382e-05
1.25081e-05
4.60577e-05
1.14116e-05
4.16454e-05
1.00148e-05
3.80127e-05
8.44693e-06
3.49518e-05
6.64828e-06
3.2468e-05
4.72233e-06
3.03848e-05
2.66883e-06
2.86527e-05
5.27778e-07
2.72043e-05
-1.70197e-06
2.60143e-05
-3.98092e-06
2.49978e-05
-6.33051e-06
2.41724e-05
2.34751e-05
-8.73157e-06
-1.57697e-06
0.000131282
8.66291e-06
3.77918e-06
0.000112541
7.68427e-06
9.69977e-05
1.03844e-05
8.41557e-05
1.20716e-05
7.35865e-05
1.2958e-05
6.48384e-05
1.32051e-05
5.76396e-05
1.29015e-05
5.16856e-05
1.21702e-05
4.6789e-05
1.11068e-05
4.27089e-05
9.78062e-06
3.93389e-05
8.19592e-06
3.65365e-05
6.43752e-06
3.42264e-05
4.52692e-06
3.22954e-05
2.48467e-06
3.0695e-05
3.51467e-07
2.93375e-05
-1.87357e-06
2.82394e-05
-4.17064e-06
2.72949e-05
-6.52037e-06
2.65221e-05
2.5858e-05
-8.90325e-06
-1.79645e-06
0.000124216
8.86184e-06
3.53626e-06
0.000107208
7.40728e-06
9.31267e-05
1.00718e-05
8.14912e-05
1.17855e-05
7.18727e-05
1.26688e-05
6.39551e-05
1.29418e-05
5.73667e-05
1.26666e-05
5.19608e-05
1.19842e-05
4.74713e-05
1.0925e-05
4.37681e-05
9.59976e-06
4.06641e-05
8.05369e-06
3.80825e-05
6.30941e-06
3.59707e-05
4.40939e-06
3.41954e-05
2.39516e-06
3.27092e-05
2.46008e-07
3.14867e-05
-1.95629e-06
3.04417e-05
-4.25335e-06
2.95919e-05
-6.60486e-06
2.88736e-05
2.82646e-05
-9.01142e-06
-1.95853e-06
0.000117206
8.96917e-06
3.31717e-06
0.000101932
7.16843e-06
8.92755e-05
9.8514e-06
7.88083e-05
1.15533e-05
7.01708e-05
1.24979e-05
6.30106e-05
1.27503e-05
5.71143e-05
1.24982e-05
5.22129e-05
1.18377e-05
4.81318e-05
1.08399e-05
4.47659e-05
9.53099e-06
4.19731e-05
7.97719e-06
3.96363e-05
6.24302e-06
3.77048e-05
4.3503e-06
3.60881e-05
2.3202e-06
3.47393e-05
1.94106e-07
3.36128e-05
-2.02819e-06
3.26639e-05
-4.32656e-06
3.18903e-05
-6.66035e-06
3.12074e-05
3.06754e-05
-9.07119e-06
-2.07131e-06
0.000110214
9.06304e-06
3.18106e-06
9.66797e-05
7.044e-06
8.54125e-05
9.7071e-06
7.61452e-05
1.14201e-05
6.84578e-05
1.23594e-05
6.20712e-05
1.26732e-05
5.68005e-05
1.24395e-05
5.24466e-05
1.17748e-05
4.87964e-05
1.07709e-05
4.57699e-05
9.47425e-06
4.32697e-05
7.95111e-06
4.11595e-05
6.22416e-06
3.94318e-05
4.33633e-06
3.79759e-05
2.30897e-06
3.67667e-05
1.83788e-07
3.57379e-05
-2.03935e-06
3.48871e-05
-4.31944e-06
3.41704e-05
-6.69803e-06
3.3586e-05
3.30707e-05
-9.09326e-06
-2.15021e-06
0.000103283
9.08134e-06
3.12687e-06
9.14026e-05
6.93869e-06
8.16007e-05
9.62676e-06
7.34571e-05
1.13712e-05
6.67134e-05
1.23025e-05
6.11399e-05
1.26097e-05
5.64933e-05
1.24119e-05
5.26444e-05
1.17817e-05
4.94265e-05
1.0789e-05
4.67626e-05
9.50161e-06
4.45571e-05
7.96452e-06
4.26965e-05
6.24258e-06
4.11537e-05
4.35782e-06
3.98607e-05
2.35255e-06
3.87719e-05
2.06226e-07
3.78843e-05
-2.01875e-06
3.71121e-05
-4.32262e-06
3.64743e-05
-6.66436e-06
3.59278e-05
3.5492e-05
-9.08565e-06
-2.13063e-06
9.63595e-05
9.05389e-06
3.083e-06
8.6189e-05
6.9101e-06
7.77736e-05
9.60024e-06
7.0767e-05
1.13307e-05
6.49829e-05
1.22941e-05
6.01765e-05
1.26343e-05
5.61531e-05
1.24263e-05
5.28524e-05
1.17849e-05
5.00679e-05
1.08008e-05
4.77466e-05
9.52021e-06
4.58377e-05
8.0092e-06
4.42076e-05
6.29056e-06
4.28724e-05
4.40743e-06
4.17438e-05
2.38145e-06
4.07979e-05
2.54609e-07
4.00111e-05
-1.95218e-06
3.93189e-05
-4.2599e-06
3.8782e-05
-6.62719e-06
3.8295e-05
3.79192e-05
-9.05446e-06
-2.09415e-06
8.94637e-05
8.98998e-06
3.10462e-06
8.09902e-05
6.94808e-06
7.39302e-05
9.61761e-06
6.80974e-05
1.13537e-05
6.32469e-05
1.23467e-05
5.91835e-05
1.26525e-05
5.58473e-05
1.24743e-05
5.30306e-05
1.18617e-05
5.06805e-05
1.08626e-05
4.87458e-05
9.60794e-06
4.70923e-05
8.07913e-06
4.57364e-05
6.36235e-06
4.45891e-05
4.47969e-06
4.36265e-05
2.45282e-06
4.28248e-05
3.44819e-07
4.21191e-05
-1.90689e-06
4.15706e-05
-4.21897e-06
4.10941e-05
-6.59159e-06
4.06677e-05
4.03321e-05
-9.00442e-06
-2.02007e-06
8.2593e-05
8.89078e-06
3.18666e-06
7.57835e-05
6.98042e-06
7.01364e-05
9.672e-06
6.54058e-05
1.14336e-05
6.14853e-05
1.23889e-05
5.82282e-05
1.2744e-05
5.54922e-05
1.25503e-05
5.32243e-05
1.19216e-05
5.13092e-05
1.09692e-05
4.96982e-05
9.67516e-06
4.83863e-05
8.16934e-06
4.72422e-05
6.4532e-06
4.63053e-05
4.57e-06
4.55097e-05
2.56242e-06
4.48324e-05
4.09835e-07
4.42717e-05
-1.82485e-06
4.38053e-05
-4.12084e-06
4.339e-05
-6.4992e-06
4.3046e-05
4.27722e-05
-8.93939e-06
-1.9137e-06
7.57388e-05
8.76792e-06
3.25749e-06
7.06123e-05
7.08905e-06
6.63048e-05
9.75773e-06
6.27372e-05
1.14997e-05
5.97433e-05
1.24804e-05
5.72475e-05
1.28181e-05
5.51546e-05
1.26497e-05
5.33927e-05
1.20456e-05
5.19134e-05
1.1053e-05
5.06908e-05
9.8031e-06
4.96362e-05
8.27671e-06
4.87686e-05
6.56019e-06
4.80218e-05
4.67559e-06
4.73943e-05
2.64461e-06
4.68633e-05
5.09585e-07
4.64067e-05
-1.72944e-06
4.60443e-05
-4.03059e-06
4.56912e-05
-6.43592e-06
4.54514e-05