/*--------------------------------*- C++ -*----------------------------------*\
| =========                 |                                                 |
| \\      /  F ield         | OpenFOAM: The Open Source CFD Toolbox           |
|  \\    /   O peration     | Version:  2.3.0                                 |
|   \\  /    A nd           | Web:      www.OpenFOAM.org                      |
|    \\/     M anipulation  |                                                 |
\*---------------------------------------------------------------------------*/
FoamFile
{
    version     2.0;
    format      ascii;
    class       volScalarField;
    location    "2000";
    object      nuTilda;
}
// * * * * * * * * * * * * * * * * * * * * * * * * * * * * * * * * * * * * * //

dimensions      [0 2 -1 0 0 0 0];

internalField   nonuniform List<scalar> 
39444
(
0.058937
0.0572884
0.0556472
0.054015
0.0523916
0.0507787
0.049177
0.0475873
0.0460104
0.0444475
0.0428991
0.0413662
0.0398496
0.0383496
0.0368677
0.0354041
0.0339601
0.0325364
0.0311342
0.0297552
0.0284001
0.0270714
0.0257711
0.0245026
0.0232704
0.0220773
0.0209262
0.0198191
0.0187634
0.0177682
0.0168409
0.0159704
0.0151216
0.0142737
0.0134236
0.0125703
0.0117137
0.0108495
0.00996819
0.00905278
0.00807448
0.0070246
0.00610775
0.0605676
0.0591206
0.0576796
0.0562451
0.0548184
0.0534
0.0519909
0.0505911
0.0492012
0.0478219
0.0464537
0.0450974
0.0437533
0.0424213
0.0411027
0.0397979
0.038507
0.0372306
0.03597
0.0347256
0.033498
0.0322881
0.0310974
0.0299265
0.0287778
0.0276519
0.0265512
0.0254775
0.0244331
0.0234218
0.0224465
0.0215123
0.0206223
0.0197797
0.0189921
0.0182687
0.0176208
0.0170628
0.0166078
0.0162729
0.016073
0.0160228
0.0161373
0.0620557
0.0607793
0.0595059
0.0582375
0.0569752
0.0557193
0.0544699
0.0532275
0.0519923
0.0507645
0.0495447
0.0483335
0.047131
0.0459378
0.0447535
0.0435793
0.0424157
0.0412628
0.0401214
0.0389918
0.0378759
0.0367738
0.0356871
0.0346168
0.033565
0.0325332
0.0315231
0.030538
0.0295801
0.0286538
0.027763
0.0269114
0.0261058
0.0253532
0.02466
0.0240353
0.0234897
0.0230334
0.0226793
0.0224364
0.0223148
0.0223212
0.0224584
0.0634166
0.0622806
0.0611489
0.0600216
0.0588982
0.0577791
0.0566641
0.0555537
0.0544476
0.0533464
0.0522504
0.0511596
0.0500746
0.0489955
0.047923
0.0468572
0.0457985
0.0447475
0.0437048
0.042671
0.0416468
0.040634
0.0396337
0.0386471
0.0376755
0.0367216
0.0357874
0.0348762
0.0339908
0.0331347
0.0323132
0.031531
0.030793
0.0301071
0.02948
0.0289195
0.0284352
0.0280367
0.0277318
0.0275308
0.02744
0.0274636
0.0276044
0.0646479
0.063636
0.0626266
0.0616195
0.0606143
0.0596112
0.0586101
0.0576108
0.0566132
0.055618
0.0546255
0.0536354
0.0526482
0.0516643
0.0506838
0.0497076
0.0487361
0.0477695
0.0468083
0.0458533
0.0449055
0.0439658
0.0430363
0.0421183
0.041213
0.0403225
0.0394496
0.0385971
0.0377684
0.0369679
0.0362001
0.03547
0.034783
0.0341459
0.0335652
0.0330483
0.0326048
0.0322422
0.0319683
0.0317911
0.0317171
0.0317492
0.03189
0.0657627
0.0648591
0.0639551
0.0630508
0.0621466
0.0612424
0.0603378
0.0594327
0.0585269
0.0576208
0.056715
0.0558095
0.0549042
0.0539996
0.0530959
0.0521937
0.0512942
0.0503979
0.0495048
0.0486155
0.0477305
0.0468512
0.0459795
0.0451176
0.044267
0.0434291
0.0426064
0.0418017
0.0410184
0.0402609
0.0395347
0.0388448
0.0381967
0.0375964
0.0370498
0.0365647
0.0361492
0.0358107
0.0355571
0.0353951
0.0353309
0.0353677
0.0355075
0.0667721
0.0659631
0.06515
0.0643334
0.0635153
0.0626957
0.0618734
0.0610486
0.0602207
0.0593895
0.0585568
0.0577226
0.0568866
0.0560486
0.0552095
0.054369
0.0535286
0.0526898
0.0518545
0.0510209
0.0501891
0.0493597
0.0485351
0.0477185
0.046913
0.0461194
0.045339
0.0445741
0.0438278
0.0431047
0.0424106
0.0417509
0.041133
0.0405619
0.0400419
0.0395807
0.0391859
0.0388643
0.038625
0.0384732
0.0384151
0.0384543
0.0385927
0.0676929
0.066961
0.0662266
0.0654833
0.0647385
0.0639916
0.0632395
0.0624823
0.0617233
0.0609543
0.060183
0.0594093
0.0586324
0.0578505
0.0570667
0.0562789
0.055488
0.054694
0.0539059
0.0531205
0.052335
0.0515493
0.0507647
0.0499826
0.0492129
0.0484565
0.0477129
0.0469832
0.0462685
0.0455737
0.0449057
0.0442672
0.0436722
0.0431248
0.0426274
0.0421846
0.0418066
0.0414966
0.0412677
0.0411233
0.0410689
0.0411097
0.0412462
0.0685424
0.0678669
0.0672032
0.0665158
0.06583
0.0651454
0.0644569
0.0637467
0.0630535
0.0623381
0.0616202
0.0608934
0.0601708
0.059432
0.058698
0.0579539
0.0572137
0.0564473
0.0556939
0.0549489
0.0542066
0.0534588
0.0527173
0.0519571
0.0512109
0.0504832
0.0497709
0.0490758
0.0483959
0.0477205
0.0470824
0.0464558
0.0458748
0.0453458
0.0448746
0.0444419
0.0440845
0.0437787
0.0435589
0.0434205
0.0433665
0.0434087
0.0435441
0.00687744
0.0087245
0.00988474
0.0110158
0.0122137
0.0134843
0.0148132
0.0161863
0.0175919
0.0190228
0.0204728
0.0219383
0.0234171
0.0249068
0.0264059
0.0279137
0.0294297
0.0309532
0.0324832
0.03402
0.0355631
0.0371121
0.038667
0.0402273
0.0417928
0.0433635
0.0449387
0.0465184
0.0481023
0.04969
0.0512809
0.0528748
0.0544711
0.0560692
0.0576689
0.0592692
0.0608698
0.06247
0.0640691
0.0656662
0.0672608
0.0688514
0.0704398
0.0164211
0.0168787
0.0174997
0.01827
0.0191709
0.0201808
0.0212797
0.02245
0.0236764
0.0249473
0.0262523
0.0275843
0.0289372
0.0303058
0.0316871
0.0330784
0.0344776
0.0358832
0.0372937
0.038708
0.0401255
0.0415457
0.0429683
0.0443923
0.0458177
0.0472445
0.0486723
0.050101
0.0515306
0.0529607
0.0543908
0.0558211
0.0572513
0.0586811
0.0601102
0.0615385
0.0629657
0.0643916
0.0658158
0.0672379
0.0686574
0.0700743
0.0714922
0.0227258
0.0231247
0.0236586
0.0243194
0.0250948
0.025971
0.0269336
0.0279684
0.0290633
0.0302068
0.0313895
0.0326032
0.033841
0.0350972
0.0363682
0.0376502
0.0389402
0.0402362
0.0415359
0.0428382
0.0441422
0.0454466
0.0467509
0.0480545
0.049357
0.0506583
0.051958
0.0532564
0.054553
0.0558475
0.0571398
0.0584298
0.059718
0.0610037
0.062287
0.0635681
0.0648467
0.0661229
0.0673968
0.0686682
0.0699366
0.071202
0.0724673
0.0278606
0.028233
0.0287231
0.0293251
0.0300295
0.0308264
0.0317038
0.0326503
0.0336556
0.0347086
0.0358005
0.036924
0.0380719
0.0392391
0.0404208
0.0416127
0.0428124
0.0440169
0.0452242
0.0464329
0.0476407
0.048847
0.0500515
0.0512531
0.0524517
0.0536471
0.0548389
0.0560271
0.057211
0.0583908
0.0595663
0.0607377
0.061905
0.0630683
0.0642274
0.0653827
0.0665344
0.0676826
0.0688273
0.0699684
0.0711058
0.0722397
0.0733729
0.0321385
0.032494
0.0329569
0.0335222
0.0341816
0.0349262
0.0357462
0.0366311
0.0375717
0.0385585
0.0395825
0.0406365
0.0417143
0.0428104
0.0439197
0.0450384
0.0461643
0.047294
0.048425
0.0495552
0.0506831
0.0518075
0.0529278
0.0540437
0.0551553
0.056262
0.0573635
0.0584588
0.0595479
0.0606309
0.0617078
0.0627788
0.0638438
0.0649028
0.0659563
0.0670044
0.0680477
0.0690862
0.07012
0.0711486
0.0721719
0.0731906
0.0742066
0.0357493
0.0360928
0.0365371
0.0370769
0.0377047
0.0384125
0.0391913
0.0400313
0.0409237
0.04186
0.0428314
0.0438311
0.0448531
0.0458915
0.0469424
0.0480023
0.0490681
0.0501364
0.0512044
0.0522695
0.0533299
0.0543852
0.0554351
0.0564798
0.0575191
0.0585519
0.0595773
0.0605946
0.0616036
0.062605
0.0635987
0.0645847
0.0655629
0.0665332
0.0674963
0.0684528
0.0694035
0.0703484
0.0712869
0.0722181
0.0731421
0.0740603
0.0749755
0.0388296
0.0391639
0.0395947
0.0401159
0.0407204
0.0414003
0.0421478
0.0429537
0.0438092
0.0447057
0.0456354
0.0465913
0.0475674
0.0485582
0.0495614
0.0505736
0.0515913
0.0526095
0.053625
0.0546347
0.0556371
0.0566334
0.0576241
0.0586103
0.05959
0.0605611
0.0615223
0.0624726
0.0634137
0.0643464
0.06527
0.0661839
0.067088
0.0679823
0.0688676
0.0697458
0.0706179
0.0714832
0.0723399
0.0731864
0.0740236
0.0748539
0.0756796
0.041478
0.0418057
0.0422262
0.0427337
0.0433207
0.0439773
0.0447006
0.0454799
0.0463059
0.0471704
0.0480659
0.0489858
0.0499235
0.0508731
0.0518375
0.0528118
0.0537926
0.0547687
0.0557394
0.0567001
0.0576509
0.058597
0.0595386
0.0604786
0.0614091
0.0623284
0.0632337
0.0641253
0.0650092
0.0658845
0.0667492
0.0676016
0.0684419
0.0692697
0.070088
0.0709
0.0717063
0.072504
0.0732906
0.0740623
0.0748224
0.0755766
0.0763261
0.0437667
0.0440891
0.0445019
0.044996
0.0455714
0.0462039
0.0469101
0.0476671
0.0484643
0.049301
0.050163
0.0510538
0.0519572
0.0528707
0.0538105
0.0547557
0.0557103
0.056643
0.0575754
0.0584864
0.0593949
0.0603004
0.0612018
0.0621112
0.0629942
0.0638711
0.0647236
0.065565
0.0664055
0.0672344
0.0680493
0.0688478
0.0696338
0.0704026
0.071165
0.071925
0.0726787
0.073418
0.0741433
0.074845
0.075538
0.0762277
0.0769079
0.0706608
0.0673362
0.0640088
0.0607464
0.057606
0.054605
0.0517405
0.0490063
0.0463963
0.0439046
0.0415252
0.0392525
0.0370812
0.0350061
0.0330225
0.0311257
0.0293114
0.0275751
0.0259138
0.0243231
0.0227997
0.0213394
0.0199385
0.0185924
0.0172995
0.0160549
0.0148578
0.0137051
0.0125954
0.011527
0.010498
0.00950917
0.00855908
0.00764784
0.00677759
0.00594917
0.00516508
0.00442877
0.00374829
0.00315981
0.00267685
0.00213992
0.00145041
0.070952
0.0678914
0.0648329
0.0618328
0.0589354
0.0561533
0.0534851
0.0509266
0.0484731
0.0461199
0.0438627
0.0416972
0.0396195
0.0376257
0.0357118
0.0338744
0.0321102
0.0304164
0.0287894
0.0272272
0.0257259
0.024282
0.0228916
0.0215524
0.0202604
0.0190137
0.0178101
0.016648
0.0155252
0.0144416
0.013397
0.0123918
0.0114266
0.0105041
0.00962749
0.00880402
0.00805884
0.00738102
0.00668825
0.00594171
0.00511812
0.00417711
0.00304829
0.0712267
0.0684141
0.0656024
0.0628382
0.0601582
0.0575739
0.0550845
0.0526869
0.0503774
0.0481528
0.0460098
0.0439456
0.0419573
0.0400418
0.0381964
0.0364188
0.0347066
0.0330577
0.0314704
0.0299427
0.0284705
0.0270513
0.0256826
0.0243621
0.0230871
0.0218554
0.0206664
0.019519
0.0184131
0.0173483
0.0163263
0.0153489
0.0144197
0.0135489
0.0127418
0.0119569
0.0111558
0.010317
0.00941662
0.00842832
0.00732138
0.00605994
0.00459526
0.0714846
0.0689023
0.0663153
0.0637637
0.0612796
0.058874
0.0565466
0.054295
0.0521169
0.0500098
0.0479718
0.0460007
0.0440949
0.0422524
0.0404713
0.0387501
0.0370877
0.0354827
0.0339344
0.0324405
0.0309989
0.0296065
0.0282625
0.0269646
0.0257117
0.0245031
0.0233385
0.0222181
0.0211421
0.0201126
0.0191321
0.0182075
0.0173378
0.0164927
0.0156425
0.0147646
0.0138397
0.0128475
0.0117674
0.0105752
0.00924209
0.00773374
0.00601206
0.0717445
0.0693629
0.0669748
0.0646133
0.0623053
0.0600605
0.0578794
0.0557601
0.0537009
0.0517003
0.0497573
0.0478709
0.0460399
0.0442638
0.0425415
0.0408723
0.0392557
0.0376912
0.0361788
0.0347172
0.0333037
0.0319375
0.0306174
0.0293429
0.0281133
0.0269298
0.0257927
0.0247028
0.0236634
0.0226767
0.0217464
0.0208576
0.0199799
0.01909
0.0181673
0.0171954
0.0161565
0.0150327
0.0138023
0.0124417
0.0109223
0.00921256
0.00727745
0.0719837
0.0697872
0.0675798
0.0653898
0.0632402
0.0611405
0.0590913
0.0570916
0.0551397
0.0532353
0.0513777
0.0495671
0.0478034
0.0460865
0.044417
0.0427947
0.0412197
0.0396921
0.0382125
0.0367795
0.0353923
0.0340499
0.0327518
0.0314982
0.0302905
0.0291304
0.0280198
0.0269618
0.0259596
0.0250151
0.0241087
0.0232098
0.022297
0.0213532
0.0203616
0.0193063
0.0181707
0.0169351
0.0155786
0.0140761
0.0123997
0.0105179
0.00839744
0.0721958
0.0701722
0.0681302
0.066096
0.0640897
0.0621204
0.0601907
0.0582992
0.0564447
0.0546263
0.0528455
0.0511025
0.0493981
0.0477338
0.0461106
0.0445299
0.0429925
0.0414984
0.0400479
0.038641
0.0372771
0.035956
0.034678
0.0334427
0.0322533
0.0311136
0.0300272
0.0289978
0.0280292
0.0271073
0.0261972
0.0252742
0.0243214
0.0233263
0.0222744
0.0211491
0.0199315
0.0186023
0.0171389
0.0155153
0.0137041
0.0116728
0.00938886
0.072397
0.0705245
0.0686311
0.0667376
0.0648601
0.0630071
0.0611852
0.0593934
0.0576271
0.0558858
0.0541735
0.0524905
0.0508389
0.0492199
0.0476364
0.0460916
0.0445879
0.0431251
0.0417002
0.0403168
0.0389732
0.0376709
0.0364141
0.0351939
0.034018
0.0328938
0.0318282
0.0308235
0.0298755
0.0289565
0.028034
0.0270857
0.026093
0.0250499
0.0239468
0.0227628
0.0214778
0.0200699
0.0185159
0.0167873
0.0148592
0.0126997
0.0102722
0.0725777
0.0708445
0.0690883
0.0673207
0.0655599
0.0638074
0.0620801
0.0603835
0.0586997
0.0570252
0.0553748
0.0537439
0.0521395
0.0505592
0.0490084
0.0474915
0.046016
0.0445868
0.0431827
0.0418205
0.0404984
0.0392012
0.0379767
0.0367709
0.0356014
0.0344863
0.0334381
0.0324568
0.0315132
0.0305865
0.0296455
0.0286775
0.0276495
0.0265555
0.025411
0.0241788
0.0228384
0.0213665
0.0197375
0.0179147
0.0158809
0.0136161
0.0110784
0.000678868
0.000553704
0.000778558
0.000999848
0.00120938
0.00140861
0.00159921
0.00178281
0.00196152
0.00213739
0.0023128
0.00249138
0.00267786
0.00287907
0.00310463
0.00336491
0.0036639
0.00400016
0.00436956
0.00476947
0.00519792
0.00565455
0.00613887
0.00665123
0.00719203
0.00776192
0.00836126
0.00899084
0.00965141
0.0103435
0.0110677
0.011825
0.0126161
0.0134421
0.0143035
0.0152017
0.0161378
0.0171123
0.0181266
0.0191819
0.0202792
0.0214207
0.0226085
0.00170665
0.000906565
0.000968175
0.00118918
0.00140632
0.00161264
0.00180984
0.00200041
0.00218735
0.00237429
0.00256594
0.00276778
0.00298686
0.00323143
0.00351012
0.00382767
0.00417859
0.00455889
0.00496565
0.00539744
0.00585339
0.00633336
0.00683734
0.00736514
0.00791752
0.00849479
0.00909747
0.00972589
0.0103804
0.0110615
0.0117698
0.012506
0.0132709
0.0140652
0.0148894
0.0157448
0.016632
0.0175519
0.0185054
0.0194936
0.0205175
0.0215786
0.0226773
0.00290786
0.00147391
0.00117073
0.00136061
0.00158385
0.00179781
0.00200327
0.00220385
0.00240416
0.00260981
0.0028272
0.00306324
0.00332455
0.00361769
0.00394855
0.00431409
0.0047067
0.00512312
0.00556144
0.00602083
0.00650091
0.00700131
0.00752233
0.0080638
0.00862605
0.00920939
0.00981387
0.0104398
0.0110876
0.0117573
0.0124498
0.0131654
0.0139046
0.014668
0.0154563
0.0162703
0.0171104
0.0179776
0.0188725
0.019796
0.020749
0.0217322
0.0227464
0.00405679
0.00216389
0.00140366
0.00151347
0.0017392
0.00196147
0.00217719
0.00239144
0.00261068
0.00284199
0.0030922
0.00336738
0.00367254
0.00401186
0.00438802
0.0047921
0.00521845
0.00566463
0.00612951
0.00661239
0.00711288
0.00763084
0.00816622
0.00871898
0.00928908
0.0098767
0.0104819
0.0111046
0.0117452
0.0124037
0.0130807
0.0137767
0.0144916
0.0152264
0.0159812
0.0167566
0.0175533
0.0183716
0.0192123
0.0200762
0.0209637
0.0218754
0.0228122
0.00509409
0.00287281
0.00166898
0.00165207
0.00187592
0.00210731
0.00233563
0.00256731
0.0028101
0.00307144
0.00335734
0.00367199
0.00401825
0.00439967
0.00481291
0.00524874
0.00570325
0.00617487
0.00666246
0.00716536
0.00768348
0.00821641
0.00876396
0.00932609
0.00990237
0.010493
0.0110978
0.0117167
0.01235
0.0129977
0.0136602
0.0143375
0.0150301
0.0157382
0.0164621
0.0172022
0.017959
0.0187328
0.0195241
0.0203334
0.0211611
0.0220071
0.0228712
0.0060157
0.00353891
0.00195221
0.00177998
0.00199762
0.00223918
0.00248245
0.00273454
0.00300375
0.00329692
0.00361823
0.00396981
0.00435332
0.00477163
0.00521567
0.00567844
0.00615724
0.00665066
0.00715801
0.0076786
0.00821208
0.00875792
0.00931579
0.00988557
0.0104669
0.0110595
0.0116635
0.0122784
0.0129045
0.013542
0.0141906
0.0148508
0.0155225
0.0162062
0.0169018
0.0176097
0.0183301
0.0190632
0.0198095
0.020569
0.0213421
0.022129
0.0229309
0.00682992
0.00414112
0.00223821
0.00189965
0.00210737
0.00235995
0.00262002
0.00289459
0.00319158
0.00351629
0.00387109
0.00425633
0.00467356
0.00512262
0.00559259
0.00607879
0.00657902
0.00709211
0.00761685
0.00815288
0.00869959
0.00925682
0.0098237
0.0104
0.0109853
0.0115793
0.012182
0.0127928
0.0134121
0.01404
0.014676
0.0153202
0.0159729
0.0166338
0.0173034
0.0179819
0.0186693
0.0193654
0.0200704
0.0207846
0.0215079
0.0222403
0.0229813
0.00755545
0.00467893
0.00251004
0.00201134
0.00220655
0.00247121
0.00274971
0.00304719
0.00337166
0.00372674
0.00411194
0.00452708
0.0049741
0.00544882
0.00594208
0.00645061
0.00697149
0.00750217
0.00804145
0.00859048
0.00914928
0.00971653
0.0102916
0.0108736
0.0114625
0.0120575
0.0126584
0.0132651
0.0138779
0.0144968
0.0151211
0.01575
0.0163842
0.0170241
0.01767
0.018322
0.0189797
0.0196421
0.0203093
0.0209819
0.0216596
0.0223424
0.0230305
0.00823898
0.00519955
0.00279979
0.00211646
0.00230053
0.0025799
0.00287159
0.00319509
0.00355185
0.0039308
0.00434372
0.00478711
0.00526284
0.0057707
0.00630017
0.00683873
0.00737357
0.00790503
0.00844124
0.00900237
0.00957412
0.0101514
0.0107336
0.0113207
0.0119123
0.0125061
0.0131025
0.0137032
0.0143099
0.014922
0.0155343
0.0161451
0.0167596
0.0173791
0.018004
0.0186341
0.0192665
0.019897
0.0205279
0.0211628
0.0217987
0.0224351
0.0230726
0.000334054
0.00120104
0.00251527
0.00382446
0.00507494
0.00626657
0.00740514
0.00849707
0.00954786
0.0105629
0.0115481
0.0125111
0.0134644
0.014425
0.0154074
0.016417
0.0174493
0.0184927
0.019552
0.0206992
0.0219404
0.0232547
0.0246246
0.0260386
0.0274905
0.0289762
0.0304921
0.0320347
0.0336021
0.035192
0.0368031
0.0384336
0.0400825
0.0417487
0.0434308
0.0451278
0.0468388
0.0485625
0.0502982
0.0520443
0.0538008
0.0555678
0.0573512
0.000266663
0.000856346
0.00193119
0.00304594
0.00407514
0.00505696
0.00601597
0.0069646
0.00790551
0.00884002
0.0097692
0.010695
0.0116208
0.0125524
0.0134963
0.0144585
0.015442
0.0164485
0.017485
0.0185729
0.0197234
0.0209292
0.0221725
0.0234675
0.0248641
0.0263403
0.0278741
0.0294534
0.0310706
0.0327196
0.0343959
0.0360958
0.0378169
0.0395568
0.0413133
0.0430851
0.0448707
0.0466686
0.0484779
0.0502972
0.0521258
0.0539645
0.0558154
0.000164349
0.000561328
0.00129194
0.00224037
0.0033934
0.0045131
0.00554304
0.00650098
0.00740802
0.00828024
0.00912975
0.00996656
0.0107993
0.0116358
0.0124833
0.013349
0.0142394
0.0151611
0.016121
0.0171273
0.0181875
0.019304
0.0204749
0.0217038
0.0230001
0.0243528
0.0257555
0.0272619
0.0288528
0.0305047
0.0322036
0.0339402
0.0357069
0.0374988
0.0393118
0.0411428
0.0429891
0.0448488
0.0467199
0.0486012
0.0504916
0.0523909
0.0542992
0.000171935
0.00047375
0.00108084
0.00186881
0.00283829
0.00396492
0.00507758
0.00612619
0.00711117
0.00803908
0.00891746
0.00975464
0.0105602
0.0113446
0.0121186
0.0128938
0.0136815
0.0144929
0.0153389
0.0162292
0.0171728
0.0181768
0.0192457
0.0203824
0.0215874
0.0228578
0.0241913
0.0255953
0.0270591
0.0286004
0.0302448
0.0319635
0.0337374
0.0355533
0.0374016
0.0392755
0.0411701
0.0430813
0.0450063
0.0469426
0.0488887
0.0508431
0.0528045
0.000153522
0.000418955
0.000951156
0.00164374
0.00249318
0.00350012
0.00462419
0.00573521
0.00679252
0.00779301
0.00874004
0.00963688
0.010487
0.0112956
0.0120697
0.0128186
0.013554
0.0142888
0.0150374
0.0158141
0.016633
0.0175067
0.0184459
0.0194581
0.0205474
0.0217149
0.0229595
0.0242786
0.0256673
0.0271257
0.0286526
0.0302534
0.0319642
0.0337553
0.0356047
0.0374973
0.0394222
0.0413717
0.0433404
0.0453238
0.047319
0.0493235
0.0513337
0.000149921
0.00038771
0.000873447
0.00150542
0.00227883
0.0031948
0.00425217
0.00537534
0.00647862
0.00753625
0.00854433
0.00950367
0.0104151
0.0112797
0.0120994
0.0128779
0.0136218
0.0143401
0.0150451
0.0157512
0.016475
0.0172336
0.0180435
0.0189191
0.019872
0.0209095
0.0220353
0.0232489
0.024547
0.0259253
0.0273774
0.0289007
0.0304967
0.0321775
0.0339684
0.0358388
0.0377656
0.0397335
0.0417312
0.0437509
0.0457873
0.0478355
0.0498913
0.0001439
0.000363597
0.000815043
0.00140382
0.00212278
0.00297286
0.00395669
0.00505471
0.00618096
0.00728188
0.00834089
0.00935441
0.0103223
0.0112443
0.0121202
0.0129503
0.0137363
0.0144822
0.0151946
0.0158838
0.0165632
0.0172494
0.0179612
0.0187176
0.019537
0.0204348
0.0214221
0.0225055
0.0236864
0.0249624
0.0263279
0.0277764
0.029301
0.0308995
0.0325725
0.034353
0.0362347
0.0381888
0.0401935
0.0422341
0.0443002
0.0463841
0.0484804
0.000140825
0.00034669
0.000773322
0.00133044
0.00200927
0.0028105
0.00373725
0.00478792
0.00591182
0.00703952
0.00813853
0.00919809
0.0102154
0.0111893
0.0121189
0.013003
0.013841
0.0146332
0.0153819
0.0160922
0.0167721
0.0174338
0.0180931
0.0187692
0.0194829
0.0202552
0.021105
0.0220471
0.0230913
0.0242414
0.0254961
0.0268499
0.0282954
0.029824
0.0314292
0.0331134
0.0348835
0.036773
0.0387504
0.0407882
0.0428677
0.0449761
0.0471032
0.000137987
0.000333229
0.000740304
0.00127269
0.00192041
0.0026837
0.0035655
0.00456847
0.00567213
0.00681194
0.00794116
0.00903967
0.0101003
0.0111206
0.0120989
0.0130337
0.0139232
0.0147662
0.0155621
0.0163123
0.0170204
0.0176932
0.0183414
0.0189802
0.0196284
0.0203078
0.0210416
0.0218513
0.0227551
0.0237655
0.024889
0.0261257
0.0274705
0.0289152
0.0304504
0.0320678
0.0337622
0.0355395
0.0374372
0.0394361
0.041505
0.0436223
0.0457758
0.000135987
0.000322581
0.000714215
0.00122699
0.00184984
0.00258303
0.00342894
0.00439119
0.00546415
0.00660259
0.00775194
0.00888226
0.00998072
0.0110424
0.0120648
0.013046
0.0139839
0.0148763
0.0157215
0.0165184
0.0172676
0.017972
0.0186373
0.0192735
0.0198949
0.0205201
0.0211717
0.0218741
0.0226512
0.0235239
0.0245073
0.0256101
0.0268336
0.0281736
0.0296212
0.0311658
0.032797
0.0345079
0.0363042
0.0382125
0.040234
0.0423348
0.04449
0.000134345
0.000313774
0.000692653
0.00118943
0.001792
0.00250041
0.0033169
0.00424515
0.0052855
0.00641205
0.00757228
0.00872762
0.0098589
0.0109576
0.01202
0.0130437
0.0140262
0.0149652
0.0158582
0.0167028
0.0174979
0.0182434
0.0189418
0.0195982
0.020222
0.0208271
0.0214323
0.0220605
0.0227373
0.0234886
0.0243373
0.0253009
0.0263898
0.0276064
0.0289467
0.0304014
0.0319592
0.0336083
0.0353412
0.0371599
0.039086
0.0411348
0.0432731
0.000133156
0.000306507
0.000674713
0.00115814
0.00174382
0.00243154
0.00322349
0.00412309
0.00513323
0.00624113
0.0074035
0.00857724
0.00973628
0.0108681
0.011967
0.0130297
0.0140535
0.0150359
0.015974
0.016865
0.0177064
0.0184966
0.0192356
0.0199253
0.0205707
0.0211809
0.0217698
0.0223564
0.0229644
0.0236205
0.024352
0.0251837
0.0261349
0.0272171
0.0284336
0.0297803
0.0312476
0.0328229
0.0344943
0.0362523
0.0380965
0.0400491
0.0421292
0.000132185
0.000300324
0.000659468
0.00113146
0.00170279
0.00237303
0.00314414
0.00401945
0.00500245
0.00608863
0.00724636
0.00843188
0.00961394
0.0107752
0.0119074
0.013006
0.0140681
0.015091
0.0160714
0.0170065
0.017893
0.0187284
0.0195109
0.0202403
0.0209185
0.0215504
0.0221453
0.0227176
0.0232865
0.0238768
0.0245161
0.0252336
0.0260551
0.0270013
0.0280845
0.0293082
0.0306678
0.0321533
0.0337513
0.0354487
0.0372352
0.0391108
0.0410981
0.000131372
0.000295059
0.000646409
0.00110845
0.00166733
0.00232254
0.00307571
0.00393004
0.00488924
0.00595299
0.00710099
0.00829254
0.00949273
0.0106799
0.0118424
0.0129743
0.014072
0.0151325
0.0161528
0.0171294
0.0180592
0.0189387
0.0197653
0.0205371
0.0212537
0.0219175
0.0225334
0.0231113
0.023666
0.0242179
0.0247925
0.0254192
0.0261279
0.0269461
0.027895
0.0289869
0.0302252
0.0316048
0.0331144
0.0347399
0.0364671
0.0382844
0.0401857
0.00013077
0.000290624
0.000635473
0.00108843
0.00163649
0.00227847
0.00301596
0.00385189
0.00479028
0.00583267
0.00696723
0.0081598
0.00937346
0.0105828
0.0117728
0.0129357
0.0140666
0.0151624
0.01622
0.017236
0.0182068
0.0191287
0.0199986
0.0208134
0.0215713
0.0222722
0.0229185
0.0235159
0.024075
0.0246113
0.0251467
0.0257081
0.026326
0.0270318
0.0278536
0.0288128
0.0299215
0.0311821
0.0325884
0.0341279
0.0357853
0.0375452
0.0393941
0.000130259
0.000286698
0.000625814
0.00107066
0.00160917
0.00223949
0.00296314
0.00378298
0.0047027
0.00572535
0.00684452
0.0080338
0.00925675
0.0104846
0.0116994
0.0128908
0.0140529
0.015182
0.0162747
0.0173277
0.0183375
0.0193001
0.0202117
0.021069
0.021869
0.0226098
0.0232918
0.0239178
0.0244943
0.0250328
0.0255504
0.0260703
0.026621
0.0272346
0.0279435
0.0287761
0.0297536
0.0308872
0.0321777
0.0336174
0.0351924
0.0368867
0.0386876
0.000129741
0.000283123
0.000617077
0.00105475
0.00158461
0.00220466
0.002916
0.00372147
0.00462458
0.00562887
0.00673215
0.00791474
0.00914302
0.0103861
0.0116228
0.0128405
0.0140318
0.0151922
0.0163183
0.0174063
0.018453
0.0194543
0.0204062
0.0213048
0.0221464
0.0229284
0.023649
0.024309
0.0249119
0.0254653
0.0259819
0.0264806
0.0269864
0.0275296
0.028144
0.0288626
0.0297138
0.0307179
0.0318843
0.0332121
0.0346917
0.036308
0.0380456
0.000129327
0.000279961
0.00060926
0.00104041
0.00156255
0.00217322
0.00287353
0.003666
0.00455424
0.00554187
0.00662919
0.00780275
0.00903284
0.0102878
0.0115437
0.0127854
0.0140041
0.0151941
0.0163516
0.0174731
0.0185548
0.019593
0.0205834
0.0215219
0.0224043
0.0232272
0.0239878
0.024685
0.0253199
0.0258971
0.0264254
0.0269194
0.0273997
0.0278936
0.0284336
0.0290546
0.0297901
0.0306681
0.0317072
0.0329146
0.0342868
0.0358123
0.037474
0.000128973
0.000277123
0.000602134
0.0010273
0.00154251
0.00214468
0.00283489
0.00361564
0.00449036
0.00546285
0.0065347
0.00769752
0.00892637
0.0101899
0.0114624
0.0127261
0.0139703
0.0151883
0.0163757
0.0175288
0.0186439
0.0197173
0.0207445
0.0217214
0.0226436
0.0235068
0.0243076
0.0250435
0.0257139
0.0263209
0.02687
0.0273718
0.0278429
0.0283063
0.0287916
0.0293334
0.0299677
0.0307283
0.0316417
0.0327242
0.0339802
0.0354032
0.036979
0.000128579
0.00027451
0.000595566
0.0010153
0.00152399
0.00211847
0.00279954
0.00356958
0.00443188
0.00539033
0.00644758
0.00759868
0.00882379
0.0100931
0.0113794
0.0126629
0.0139308
0.0151753
0.0163912
0.0175745
0.0187215
0.0198284
0.0208909
0.0219047
0.0228651
0.0237678
0.0246084
0.0253837
0.0260916
0.0267322
0.0273084
0.0278275
0.0283019
0.0287507
0.0291996
0.0296807
0.0302304
0.030886
0.0316803
0.032638
0.0337723
0.0350838
0.0365631
0.000128209
0.000272131
0.000589424
0.00100421
0.00150698
0.00209426
0.00276692
0.00352716
0.0043781
0.00532361
0.00636699
0.00750602
0.00872536
0.00999783
0.0112954
0.0125964
0.0138863
0.0151557
0.0163987
0.0176108
0.0187883
0.0199273
0.0210236
0.0220728
0.0230702
0.0240111
0.0248908
0.0257054
0.0264517
0.0271282
0.0277359
0.028279
0.0287666
0.0292135
0.0296416
0.0300795
0.0305621
0.0311274
0.0318129
0.0326504
0.0336615
0.0348557
0.0362307
0.00012795
0.000270071
0.000583788
0.000993822
0.00149117
0.00207185
0.00273662
0.00348771
0.00432826
0.00526189
0.0062922
0.00741898
0.00863103
0.00990422
0.0112107
0.0125272
0.0138372
0.0151301
0.0163988
0.0176385
0.0188452
0.0200149
0.0211436
0.0222268
0.0232598
0.0242376
0.0251556
0.0260089
0.0267939
0.0275076
0.0281494
0.0287213
0.0292294
0.0296848
0.0301052
0.0305154
0.0309474
0.0314384
0.0320281
0.0327534
0.0336438
0.0347173
0.0359781
0.000127687
0.000268235
0.000578517
0.000984187
0.00147635
0.00205091
0.0027084
0.00345099
0.00428171
0.00520438
0.00622242
0.00733708
0.00854073
0.00981255
0.0111255
0.0124554
0.0137839
0.0150989
0.016392
0.017658
0.0188926
0.0200919
0.0212517
0.0223676
0.0234348
0.0244485
0.0254034
0.0262948
0.0271181
0.0278697
0.0285474
0.0291514
0.0296852
0.0301569
0.0305803
0.0309761
0.0313727
0.0318053
0.0323134
0.0329375
0.0337133
0.0346675
0.0358164
0.000127409
0.000266565
0.000573504
0.000975122
0.00146243
0.0020312
0.00268192
0.00341662
0.0042382
0.00515037
0.00615702
0.00725996
0.00845438
0.00972313
0.0110406
0.0123817
0.0137268
0.0150622
0.0163787
0.0176699
0.0189314
0.020159
0.0213487
0.022496
0.0235962
0.0246444
0.0256354
0.0265639
0.027425
0.0282144
0.0289289
0.0295671
0.0301305
0.0306243
0.0310591
0.0314517
0.0318265
0.0322154
0.0326568
0.0331923
0.0338619
0.0346992
0.0357252
0.000127196
0.000265146
0.000568821
0.000966529
0.00144933
0.00201266
0.00265696
0.00338411
0.00419722
0.00509964
0.00609535
0.00718708
0.0083718
0.009636
0.010956
0.0123064
0.0136665
0.0150209
0.0163592
0.0176746
0.0189619
0.0202167
0.0214351
0.0226127
0.0237448
0.0248263
0.0258521
0.0268167
0.027715
0.0285419
0.0292936
0.0299673
0.0305629
0.0310833
0.031536
0.0319343
0.0322988
0.0326577
0.0330467
0.033507
0.0340811
0.0348077
0.0357151
0.000126984
0.000263902
0.000564363
0.000958353
0.00143685
0.00199507
0.00263325
0.00335341
0.00415838
0.00505177
0.00603719
0.00711789
0.00829286
0.0095512
0.0108718
0.0122298
0.013603
0.014975
0.0163341
0.0176724
0.0189845
0.0202656
0.0215116
0.0227184
0.0238812
0.024995
0.0260544
0.0270542
0.0279886
0.0288526
0.0296413
0.0303514
0.0309809
0.0315311
0.0320067
0.032418
0.0327818
0.0331224
0.0334724
0.0338711
0.0343617
0.0349866
0.03578
0.000126742
0.000262773
0.000560057
0.0009506
0.001425
0.00197827
0.00261074
0.00332429
0.00412162
0.00500622
0.00598198
0.00705219
0.00821717
0.00946886
0.0107886
0.0121521
0.0135369
0.014925
0.0163036
0.0176638
0.0189996
0.020306
0.0215789
0.0228137
0.0240061
0.025151
0.0262432
0.027277
0.0282468
0.0291471
0.0299726
0.0307191
0.0313837
0.0319659
0.0324683
0.0328983
0.0332692
0.0336018
0.0339248
0.034275
0.034695
0.0352293
0.0359201
0.000126549
0.000261799
0.000555978
0.000943189
0.00141369
0.00196228
0.0025893
0.00329644
0.00408658
0.00496291
0.00592939
0.00698961
0.00814472
0.00938896
0.0107064
0.012074
0.0134686
0.0148714
0.0162682
0.0176493
0.0190079
0.0203386
0.0216371
0.0228993
0.0241202
0.0252952
0.026419
0.0274858
0.0284901
0.0294259
0.0302878
0.0310706
0.0317709
0.0323865
0.0329184
0.0333716
0.0337562
0.0340893
0.034396
0.0347099
0.0350716
0.0355265
0.0361197
0.000126358
0.000260967
0.000552064
0.000935998
0.00140282
0.00194697
0.00256871
0.00326983
0.00405295
0.00492153
0.00587918
0.00692973
0.0080751
0.0093115
0.0106254
0.0119954
0.0133983
0.0148144
0.0162282
0.0176291
0.0190094
0.0203636
0.021687
0.0229753
0.024224
0.0254281
0.0265824
0.0276814
0.0287191
0.0296897
0.0305871
0.0314062
0.0321423
0.0327924
0.0333558
0.0338354
0.0342387
0.0345795
0.0348792
0.0351677
0.035483
0.0358696
0.0363736
0.000126106
0.000260216
0.000548234
0.000929128
0.00139232
0.00193224
0.00254894
0.00324429
0.00402081
0.0048818
0.00583109
0.00687231
0.00800813
0.00923629
0.0105457
0.0119168
0.0133264
0.0147542
0.0161838
0.0176034
0.0190047
0.0203815
0.021729
0.0230426
0.024318
0.0255503
0.0267342
0.0278643
0.0289345
0.0299389
0.0308714
0.0317261
0.032498
0.0331831
0.0337795
0.0342882
0.0347142
0.0350685
0.0353689
0.0356416
0.0359216
0.036251
0.0366764
0.00012585
0.000259553
0.000544598
0.000922537
0.00138224
0.00191796
0.00252992
0.00321971
0.00398994
0.00484371
0.00578484
0.00681724
0.00794373
0.00916345
0.0104675
0.0118382
0.0132532
0.0146914
0.0161356
0.0175728
0.0189941
0.0203926
0.0217632
0.0231015
0.0244027
0.0256622
0.0268749
0.0280351
0.029137
0.0301743
0.0311411
0.0320309