/*--------------------------------*- C++ -*----------------------------------*\
| =========                 |                                                 |
| \\      /  F ield         | OpenFOAM: The Open Source CFD Toolbox           |
|  \\    /   O peration     | Version:  2.3.0                                 |
|   \\  /    A nd           | Web:      www.OpenFOAM.org                      |
|    \\/     M anipulation  |                                                 |
\*---------------------------------------------------------------------------*/
FoamFile
{
    version     2.0;
    format      ascii;
    class       volScalarField;
    location    "10000";
    object      nut;
}
// * * * * * * * * * * * * * * * * * * * * * * * * * * * * * * * * * * * * * //

dimensions      [0 2 -1 0 0 0 0];

internalField   nonuniform List<scalar> 
120564
(
0.036734
0.0354541
0.0341966
0.0329604
0.0317459
0.0305543
0.0293853
0.0282391
0.0271154
0.0260137
0.0249343
0.0238777
0.0228427
0.0218292
0.020837
0.0198669
0.0189177
0.017989
0.0170809
0.016193
0.0153248
0.014476
0.0136466
0.0128367
0.0120454
0.0112717
0.0105172
0.00978063
0.00906183
0.00836084
0.00767705
0.00701285
0.00636649
0.00573861
0.00513041
0.00454369
0.00398
0.00344196
0.00293391
0.0024587
0.00202116
0.00161605
0.00115052
0.0372958
0.0361312
0.0349854
0.0338571
0.0327464
0.0316538
0.0305791
0.0295221
0.0284823
0.0274598
0.0264549
0.0254665
0.0244953
0.0235401
0.0226007
0.0216773
0.0207701
0.0198786
0.0190024
0.018142
0.0172959
0.0164645
0.0156481
0.0148469
0.0140601
0.0132877
0.0125307
0.0117883
0.011061
0.0103492
0.00965422
0.00897641
0.00831609
0.00767498
0.00705547
0.00645938
0.00588912
0.00534763
0.004839
0.00436614
0.003931
0.00353805
0.0031885
0.0378325
0.0367713
0.0357259
0.0346941
0.0336762
0.0326726
0.0316824
0.0307054
0.0297419
0.0287922
0.0278546
0.0269299
0.0260182
0.025118
0.0242293
0.0233527
0.0224884
0.0216351
0.0207938
0.0199634
0.0191437
0.0183355
0.017539
0.0167542
0.0159799
0.0152175
0.0144679
0.01373
0.0130055
0.0122954
0.0115995
0.010919
0.0102571
0.00961397
0.00899214
0.00839368
0.00782221
0.00728063
0.00677185
0.00629811
0.00586316
0.00546988
0.00512073
0.038338
0.0373726
0.0364174
0.0354719
0.0345375
0.0336129
0.0326983
0.0317936
0.0308986
0.0300132
0.0291366
0.0282694
0.0274108
0.0265604
0.0257182
0.0248848
0.0240593
0.0232416
0.0224324
0.0216309
0.0208368
0.020051
0.0192742
0.0185059
0.0177457
0.0169948
0.0162537
0.0155231
0.0148042
0.0140969
0.0134024
0.0127232
0.0120613
0.0114171
0.0107933
0.0101933
0.00961957
0.0090745
0.00856166
0.00808365
0.00764245
0.00724107
0.00688147
0.0388195
0.0379363
0.0370611
0.0361931
0.0353324
0.0344784
0.0336312
0.0327903
0.0319561
0.0311285
0.0303063
0.0294906
0.0286799
0.0278739
0.027073
0.0262776
0.0254874
0.0247018
0.0239221
0.023147
0.022376
0.0216111
0.0208517
0.0200987
0.0193515
0.0186111
0.0178791
0.0171553
0.0164407
0.0157368
0.0150445
0.0143666
0.0137035
0.0130579
0.0124315
0.0118286
0.0112506
0.0107005
0.0101813
0.00969634
0.0092477
0.00883698
0.00846577
0.0392727
0.0384623
0.0376581
0.0368586
0.0360632
0.0352719
0.0344849
0.0337009
0.0329206
0.0321434
0.0313707
0.0306005
0.0298325
0.029066
0.0283016
0.0275397
0.0267802
0.0260244
0.0252713
0.0245193
0.0237695
0.0230224
0.0222787
0.0215389
0.0208035
0.0200733
0.0193489
0.0186306
0.0179205
0.0172191
0.0165287
0.0158506
0.0151866
0.0145381
0.0139096
0.0133029
0.0127203
0.0121641
0.0116384
0.0111468
0.0106891
0.0102689
0.00988783
0.0396968
0.0389503
0.038209
0.0374701
0.0367327
0.0359984
0.035265
0.0345312
0.0337976
0.0330657
0.0323352
0.0316062
0.0308777
0.0301479
0.0294151
0.0286804
0.027948
0.0272185
0.0264899
0.0257603
0.0250287
0.0242969
0.023566
0.0228381
0.022113
0.0213921
0.0206742
0.0199607
0.0192533
0.0185544
0.0178646
0.0171859
0.0165201
0.0158705
0.0152391
0.0146276
0.0140399
0.0134784
0.0129474
0.012448
0.0119828
0.0115539
0.0111636
0.0400842
0.039399
0.0387152
0.038031
0.0373452
0.0366602
0.0359767
0.0352874
0.0345946
0.0339021
0.0332082
0.0325147
0.0318241
0.0311295
0.0304261
0.029713
0.0290006
0.028292
0.0275882
0.026882
0.0261689
0.0254469
0.0247264
0.0240079
0.0232926
0.0225795
0.0218675
0.0211568
0.0204519
0.0197552
0.0190664
0.0183864
0.0177185
0.0170675
0.0164333
0.0158178
0.015225
0.0146587
0.0141215
0.0136161
0.013144
0.0127076
0.0123078
0.0404449
0.0398113
0.0391777
0.0385445
0.0379014
0.037258
0.0366254
0.0359768
0.0353164
0.0346596
0.0339966
0.0333287
0.0326735
0.0320157
0.0313507
0.0306505
0.0299486
0.0292509
0.0285717
0.0278926
0.0272074
0.0264843
0.0257721
0.0250602
0.0243527
0.0236467
0.022944
0.022235
0.0215279
0.0208325
0.0201495
0.0194653
0.0187927
0.0181398
0.017508
0.0168867
0.0162889
0.0157171
0.0151755
0.0146653
0.0141874
0.013743
0.0133345
0.000964904
0.000906473
0.000896597
0.000931747
0.00101701
0.00114825
0.00131542
0.00150596
0.0017103
0.00192293
0.00214023
0.00236098
0.00258502
0.00281225
0.00304278
0.00327704
0.00351544
0.00375844
0.0040061
0.0042589
0.00451655
0.00478007
0.00504912
0.00532448
0.0056063
0.00589492
0.00619048
0.00649368
0.00680458
0.00712379
0.00745167
0.0077887
0.00813506
0.00849176
0.00885863
0.00923651
0.00962595
0.0100274
0.0104414
0.0108687
0.0113096
0.0117649
0.012235
0.00292125
0.00276107
0.00265643
0.00259891
0.00258447
0.00261077
0.00267382
0.0027681
0.00289026
0.00303478
0.003198
0.00337705
0.00356843
0.00377017
0.00398112
0.00419984
0.0044255
0.00465758
0.00489543
0.00513908
0.0053887
0.00564409
0.00590507
0.00617236
0.00644558
0.00672551
0.00701256
0.0073062
0.00760776
0.00791636
0.00823322
0.00855832
0.00889212
0.00923446
0.00958608
0.00994724
0.0103184
0.0106998
0.0110919
0.0114953
0.0119107
0.0123382
0.0127794
0.00481853
0.0045672
0.00437476
0.00427052
0.00421616
0.0041945
0.00420286
0.00424134
0.00430727
0.00439695
0.00450905
0.00463976
0.00478784
0.00495086
0.00512703
0.00531466
0.00551302
0.00572086
0.00593767
0.00616243
0.00639495
0.0066344
0.00688143
0.00713503
0.00739615
0.00766364
0.00793834
0.00821991
0.00850834
0.00880424
0.00910717
0.00941737
0.00973496
0.0100607
0.010394
0.0107353
0.0110852
0.0114438
0.0118116
0.0121886
0.0125759
0.0129736
0.0133828
0.00656197
0.00628186
0.00604527
0.00585636
0.00571493
0.00562271
0.00559471
0.00560979
0.00565008
0.00571225
0.005796
0.00590009
0.00602187
0.00615989
0.00631227
0.00647765
0.00665575
0.00684363
0.00704225
0.00724994
0.00746618
0.0076909
0.00792304
0.00816294
0.00840974
0.0086639
0.00892456
0.00919154
0.00946537
0.00974566
0.0100324
0.0103253
0.0106243
0.0109307
0.0112433
0.0115628
0.0118898
0.0122238
0.0125652
0.0129147
0.0132724
0.0136388
0.0140154
0.00813419
0.00784003
0.00758419
0.00736805
0.00719266
0.00705883
0.00696866
0.00691783
0.00690594
0.00694201
0.00701154
0.00710029
0.00720713
0.00732993
0.00746752
0.00761893
0.00778181
0.00795669
0.00814125
0.00833592
0.00853918
0.00875058
0.00897027
0.00919677
0.00943043
0.00967128
0.00991805
0.0101704
0.0104288
0.0106924
0.0109621
0.0112374
0.0115176
0.0118036
0.0120954
0.0123928
0.0126965
0.0130061
0.0133218
0.0136434
0.013972
0.0143078
0.0146509
0.0095455
0.00924049
0.00897288
0.00874291
0.00855199
0.0083997
0.00828406
0.00820479
0.00816154
0.00815285
0.00817598
0.00823171
0.0083218
0.0084333
0.00855985
0.00869961
0.00885248
0.00901645
0.00919155
0.00937565
0.00956875
0.00976985
0.00997873
0.0101944
0.0104161
0.010644
0.0108781
0.0111168
0.01136
0.0116086
0.0118618
0.0121197
0.012382
0.0126491
0.012921
0.0131978
0.0134796
0.0137658
0.0140568
0.0143528
0.0146541
0.0149606
0.0152731
0.010811
0.0104961
0.010219
0.00998027
0.00978014
0.00961636
0.00948896
0.00939548
0.0093348
0.00930505
0.0093057
0.00933545
0.00939185
0.00947246
0.00957789
0.00970614
0.00984974
0.0100057
0.010172
0.0103488
0.0105332
0.0107256
0.010926
0.0111316
0.0113431
0.0115599
0.0117818
0.0120073
0.0122376
0.0124718
0.01271
0.0129524
0.0131986
0.0134494
0.0137038
0.0139615
0.0142229
0.0144879
0.0147568
0.0150289
0.0153052
0.0155852
0.0158691
0.0119456
0.0116224
0.0113374
0.011092
0.010884
0.0107145
0.010579
0.0104762
0.0104047
0.0103642
0.0103527
0.0103676
0.0104063
0.0104674
0.0105511
0.0106557
0.0107801
0.0109233
0.0110808
0.0112487
0.0114256
0.0116097
0.0118026
0.0119986
0.0122007
0.0124077
0.0126187
0.0128326
0.0130513
0.013273
0.0134978
0.0137271
0.0139597
0.0141964
0.0144347
0.0146746
0.014918
0.0151642
0.0154142
0.0156639
0.0159177
0.016174
0.0164321
0.0129643
0.0126325
0.0123404
0.0120903
0.0118756
0.0117045
0.0115617
0.0114516
0.0113722
0.011328
0.0113084
0.0113141
0.0113408
0.0113871
0.0114605
0.0115505
0.0116648
0.0117877
0.0119255
0.0120794
0.0122487
0.0124205
0.0126114
0.0127904
0.0129894
0.0131848
0.0133866
0.0135877
0.0137992
0.0140078
0.0142213
0.0144423
0.0146613
0.0148879
0.0151092
0.0153327
0.0155624
0.0157908
0.0160278
0.0162515
0.0164894
0.0167239
0.0169567
0.0130654
0.0123436
0.0116513
0.0109881
0.0103528
0.00974464
0.00916317
0.00860736
0.00807624
0.00756897
0.00708478
0.00662283
0.00618236
0.00576266
0.00536306
0.00498291
0.00462161
0.00427857
0.00395314
0.00364471
0.00335273
0.00307667
0.00281612
0.00257074
0.00234026
0.00212465
0.00192429
0.00173999
0.00157363
0.00142763
0.00130215
0.00119207
0.00109225
0.000998816
0.000908986
0.000820629
0.000732063
0.000641848
0.000548627
0.00045103
0.000347703
0.000238767
9.60557e-05
0.0130835
0.0124155
0.011772
0.0111531
0.0105579
0.00998597
0.00943644
0.00890859
0.00840181
0.00791538
0.0074486
0.00700085
0.0065715
0.00615994
0.00576563
0.00538803
0.00502671
0.00468123
0.0043511
0.00403587
0.0037351
0.00344842
0.00317546
0.0029159
0.00266957
0.00243637
0.00221637
0.00201004
0.00181837
0.00164353
0.00148961
0.00135474
0.00123465
0.0011255
0.00102387
0.00092669
0.000831384
0.000735763
0.000637973
0.000536496
0.00043061
0.000322636
0.000207268
0.0131116
0.0124902
0.0118925
0.011316
0.0107594
0.0102221
0.00970343
0.00920274
0.0087196
0.00825327
0.00780347
0.00736963
0.00695125
0.00654785
0.00615898
0.00578426
0.00542337
0.00507596
0.00474173
0.00442039
0.00411164
0.00381516
0.00353072
0.00325814
0.00299725
0.00274798
0.00251037
0.00228469
0.00207155
0.00187251
0.00169197
0.0015315
0.00138797
0.00125864
0.00114061
0.00103072
0.000925751
0.000822667
0.000718838
0.000612286
0.000502543
0.00039352
0.000290101
0.0131334
0.0125603
0.0120054
0.011468
0.0109468
0.0104415
0.00995131
0.00947585
0.0090148
0.00856746
0.00813365
0.00771297
0.00730508
0.00690959
0.0065262
0.00615467
0.00579469
0.00544602
0.00510854
0.00478206
0.0044664
0.00416138
0.00386685
0.00358272
0.00330893
0.00304545
0.00279237
0.00254985
0.00231838
0.00209908
0.00189514
0.00171115
0.00154463
0.00139378
0.00125686
0.00113138
0.00101417
0.000901726
0.000790677
0.000678403
0.000564346
0.000453547
0.0003556
0.013154
0.0126252
0.0121101
0.0116084
0.0111196
0.0106436
0.0101795
0.00972715
0.00928635
0.00885655
0.00843771
0.00802934
0.00763136
0.00724345
0.00686546
0.00649716
0.00613837
0.00578902
0.00544897
0.00511817
0.00479658
0.00448413
0.00418073
0.00388642
0.00360121
0.00332511
0.00305825
0.00280087
0.00255339
0.00231661
0.00209283
0.00188757
0.00169989
0.00152822
0.0013718
0.00122924
0.001098
0.000974609
0.000855263
0.00073668
0.000618031
0.000505087
0.000409988
0.0131715
0.0126847
0.0122063
0.0117375
0.0112785
0.0108292
0.0103891
0.00995795
0.00953583
0.00912228
0.00871703
0.00832013
0.00793143
0.00755072
0.00717787
0.00681274
0.00645533
0.00610563
0.00576357
0.00542911
0.00510236
0.00478334
0.00447211
0.00416876
0.00387335
0.00358598
0.00330685
0.0030362
0.00277446
0.00252235
0.00228156
0.00205706
0.00185038
0.00165952
0.0014843
0.00132435
0.0011781
0.00104264
0.000914078
0.000788664
0.000665192
0.000549831
0.00045641
0.0131937
0.0127406
0.0122949
0.0118563
0.0114246
0.0109997
0.0105814
0.0101699
0.00976471
0.00936604
0.00897351
0.00858726
0.00820736
0.00783361
0.00746579
0.00710363
0.00674746
0.00639768
0.00605405
0.0057165
0.00538509
0.00506013
0.00474179
0.00443026
0.00412574
0.00382834
0.00353813
0.00325548
0.0029809
0.00271505
0.00245929
0.0022175
0.00199381
0.00178574
0.00159315
0.00141645
0.00125511
0.00110704
0.000968596
0.000835856
0.000707305
0.000589273
0.000496902
0.0132114
0.0127923
0.0123766
0.0119652
0.0115582
0.0111557
0.010758
0.0103645
0.00997507
0.00959004
0.00920939
0.0088333
0.00846179
0.00809503
0.00773331
0.00737419
0.0070179
0.00666796
0.00632368
0.00598407
0.00564836
0.00531741
0.00499211
0.00467248
0.00435951
0.00405391
0.00375416
0.0034606
0.00317422
0.00289562
0.002626
0.00236847
0.00212869
0.0019044
0.00169537
0.00150258
0.00132643
0.00116576
0.00101745
0.000877436
0.000743977
0.000623577
0.000532272
0.0132327
0.0128407
0.0124519
0.0120653
0.0116797
0.0112982
0.0109198
0.010544
0.0101698
0.00979673
0.00942775
0.00906152
0.00869761
0.00833614
0.00798662
0.00763709
0.00727255
0.00692102
0.00657805
0.00624184
0.00590359
0.00556489
0.00523198
0.00490317
0.00457534
0.00426849
0.00396669
0.00366542
0.00337088
0.00308368
0.00280326
0.00253219
0.00227974
0.00204118
0.00181594
0.00160616
0.00141306
0.00123563
0.00107359
0.000923446
0.000782266
0.000656279
0.000563813
1.90589e-05
2.00238e-05
6.11664e-05
0.000119139
0.000185313
0.000258985
0.000337558
0.000421901
0.000512587
0.00061013
0.000714891
0.000827197
0.000947328
0.00107561
0.00121235
0.00135787
0.00151245
0.00167649
0.00185031
0.00203419
0.00222846
0.00243331
0.00264877
0.00287471
0.00311068
0.00335591
0.00360918
0.00386911
0.00413411
0.00440253
0.00467276
0.0049433
0.00521276
0.00547994
0.00574369
0.00600296
0.00625674
0.00650406
0.0067439
0.00697519
0.00719681
0.00740751
0.00760592
0.000106232
7.55051e-05
0.000128245
0.000198209
0.000272673
0.00035646
0.000447012
0.000544334
0.000648717
0.000760432
0.000879703
0.0010067
0.00114161
0.00128462
0.00143592
0.00159572
0.0017642
0.00194155
0.00212785
0.00232318
0.00252746
0.00274051
0.00296191
0.00319107
0.00342717
0.00366914
0.00391581
0.00416585
0.004418
0.00467098
0.00492362
0.00517485
0.00542369
0.00566928
0.00591081
0.00614753
0.0063787
0.00660361
0.0068215
0.00703156
0.00723295
0.0074247
0.00760575
0.000196349
0.000149813
0.000193555
0.000270332
0.000358215
0.000455025
0.000559482
0.00067157
0.000791362
0.000918833
0.00105402
0.00119697
0.00134775
0.00150642
0.00167302
0.00184751
0.0020299
0.00222004
0.00241774
0.0026227
0.00283454
0.00305272
0.00327653
0.00350517
0.00373775
0.00397321
0.00421056
0.00444875
0.0046868
0.00492382
0.00515895
0.00539147
0.00562069
0.00584604
0.00606695
0.00628288
0.00649332
0.00669775
0.00689562
0.00708634
0.0072693
0.00744386
0.00760942
0.000269903
0.000220825
0.000258445
0.000342953
0.000444147
0.000557385
0.000679354
0.000808536
0.000945022
0.00108885
0.00124005
0.00139861
0.00156451
0.00173762
0.00191781
0.00210488
0.00229849
0.00249837
0.00270402
0.00291491
0.00313046
0.00334995
0.00357264
0.00379766
0.00402421
0.00425139
0.00447838
0.00470441
0.00492872
0.00515069
0.00536974
0.00558536
0.0057971
0.00600454
0.00620731
0.00640501
0.00659729
0.00678377
0.00696407
0.00713778
0.00730444
0.00746352
0.00761437
0.000331585
0.000285925
0.000323983
0.000418677
0.000535381
0.000664884
0.000803278
0.000949011
0.0011018
0.00126153
0.00142805
0.00160121
0.00178082
0.0019666
0.00215823
0.00235535
0.00255748
0.00276412
0.00297469
0.00318855
0.00340502
0.00362339
0.00384289
0.00406279
0.00428235
0.00450088
0.00471768
0.0049322
0.00514389
0.00535229
0.00555703
0.00575777
0.00595418
0.00614602
0.006333
0.00651485
0.00669132
0.00686216
0.00702711
0.00718589
0.0073382
0.00748369
0.00762204
0.000384794
0.000346136
0.000389568
0.000495371
0.000627163
0.000772213
0.000926226
0.0010876
0.0012557
0.00143017
0.00161067
0.00179688
0.00198843
0.00218493
0.00238588
0.00259081
0.00279914
0.00301033
0.0032237
0.00343862
0.00365438
0.00387031
0.00408575
0.00430006
0.00451258
0.00472279
0.00493012
0.00513415
0.00533451
0.00553091
0.00572306
0.0059108
0.00609394
0.00627227
0.00644557
0.00661364
0.00677634
0.00693353
0.00708506
0.00723075
0.00737038
0.00750375
0.00763054
0.000431739
0.000402287
0.000454239
0.000571434
0.000717278
0.000876938
0.00104559
0.00122138
0.00140344
0.00159117
0.00178404
0.00198157
0.00218325
0.00238856
0.00259693
0.00280781
0.00302058
0.00323466
0.00344942
0.00366421
0.00387836
0.00409127
0.00430239
0.00451119
0.00471709
0.00491959
0.00511829
0.00531293
0.00550324
0.00568901
0.00587014
0.00604658
0.00621829
0.00638501
0.00654647
0.00670252
0.00685318
0.00699844
0.00713823
0.00727242
0.00740087
0.0075235
0.00764017
0.000473438
0.000454503
0.000517075
0.000645919
0.000804914
0.000977982
0.00115986
0.00134866
0.00154323
0.00174282
0.00194652
0.00215376
0.00236391
0.00257636
0.00279052
0.00300572
0.00322148
0.00343732
0.00365262
0.00386652
0.00407849
0.0042882
0.00449513
0.00469882
0.00489861
0.00509405
0.00528495
0.00547122
0.00565259
0.00582888
0.00600025
0.00616699
0.00632916
0.00648601
0.00663707
0.00678245
0.00692254
0.00705736
0.00718693
0.00731103
0.00742957
0.00754265
0.00765017
0.000511041
0.000505311
0.000581504
0.000721744
0.000892213
0.00107557
0.0012679
0.0014684
0.00167433
0.00188505
0.002098
0.00231342
0.00253057
0.00274866
0.00296725
0.00318511
0.00340248
0.0036196
0.0038351
0.00404732
0.00425678
0.00446356
0.00466656
0.00486578
0.00505992
0.0052487
0.00543257
0.00561161
0.00578489
0.00595224
0.00611487
0.00627371
0.00642873
0.00657713
0.00671842
0.00685406
0.00698506
0.00711072
0.00723146
0.00734677
0.00745646
0.00756101
0.00766031
3.83988e-06
0.000314897
0.000705382
0.00113835
0.00160762
0.00210805
0.00263549
0.00318662
0.00376099
0.00435615
0.0049728
0.00560921
0.00626595
0.00694333
0.00764035
0.00835742
0.00909509
0.00985348
0.0106327
0.0114322
0.0122534
0.0130966
0.0139617
0.0148487
0.0157581
0.0166908
0.017646
0.0186239
0.019626
0.0206524
0.0217026
0.0227768
0.0238754
0.0249988
0.0261471
0.0273198
0.0285171
0.0297389
0.0309859
0.0322572
0.0335526
0.034873
0.0362202
9.31943e-06
0.000266391
0.000580829
0.00094188
0.00134661
0.00178992
0.00226707
0.0027754
0.003312
0.00387545
0.00446483
0.00507866
0.00571662
0.00637847
0.00706238
0.00776952
0.00849955
0.00925204
0.0100266
0.0108242
0.0116449
0.0124877
0.0133536
0.0142427
0.0151551
0.0160913
0.0170508
0.0180344
0.019042
0.0200743
0.021131
0.0222119
0.0233173
0.0244478
0.0256036
0.0267843
0.0279903
0.0292209
0.0304763
0.0317567
0.0330622
0.0343937
0.0357545
4.74706e-06
0.000217782
0.000497651
0.000818519
0.00118277
0.00158613
0.00202532
0.00249806
0.00300199
0.00353539
0.00409717
0.00468631
0.00530199
0.0059438
0.00661078
0.00730268
0.00801946
0.00876066
0.00952577
0.010316
0.0111297
0.0119671
0.0128296
0.013716
0.0146267
0.015562
0.0165222
0.0175067
0.0185157
0.0195505
0.0206103
0.0216948
0.0228046
0.02394
0.0251008
0.0262868
0.027498
0.0287343
0.0299962
0.0312834
0.0325959
0.0339335
0.0352992
2.97661e-06
0.000187625
0.000446269
0.000740548
0.00107577
0.00144939
0.001859
0.00230236
0.00277772
0.00328401
0.00382024
0.00438508
0.00497818
0.00559893
0.00624713
0.00692135
0.0076225
0.00834937
0.00910215
0.00988086
0.0106846
0.0115143
0.01237
0.0132505
0.0141565
0.0150886
0.016046
0.0170285
0.0180368
0.0190711
0.0201313
0.0212168
0.0223287
0.0234667
0.0246303
0.0258196
0.0270343
0.0282748
0.0295409
0.030833
0.0321502
0.0334921
0.034862
2.17382e-06
0.000166878
0.000409691
0.000683516
0.000995875
0.00134584
0.00173112
0.00214998
0.00260132
0.00308378
0.00359674
0.00413984
0.00471184
0.00531269
0.00594186
0.00659865
0.00728337
0.00799546
0.00873441
0.00950051
0.0102932
0.0111136
0.0119601
0.0128327
0.0137325
0.0146588
0.0156112
0.0165904
0.0175962
0.0186283
0.0196871
0.0207723
0.0218842
0.0230227
0.0241875
0.0253786
0.0265957
0.0278385
0.0291079
0.0304032
0.031723
0.0330681
0.0344387
1.59523e-06
0.00014912
0.000380301
0.000638682
0.000933485
0.00126459
0.00162998
0.0020288
0.00245966
0.00292134
0.00341415
0.0039371
0.00448947
0.00507165
0.00568277
0.00632218
0.00699076
0.0076874
0.00841228
0.00916509
0.00994595
0.0107549
0.0115912
0.0124551
0.013347
0.0142663
0.0152125
0.0161868
0.017188
0.0182167
0.019273
0.0203563
0.0214667
0.0226045
0.0237691
0.0249606
0.0261785
0.0274231
0.0286942
0.0299914
0.0313136
0.0326612
0.0340323
1.26859e-06
0.000135908
0.000357604
0.000603167
0.000883411
0.00119844
0.0015471
0.00192834
0.0023411
0.00278503
0.00325981
0.0037649
0.00429953
0.00486418
0.00545815
0.00608155
0.00673441
0.00741607
0.00812679
0.00886626
0.00963472
0.0104318
0.0112576
0.0121115
0.0129944
0.0139058
0.0148453
0.0158128
0.0168084
0.0178328
0.0188854
0.0199653
0.0210731
0.022209
0.0233724
0.0245632
0.0257815
0.0270263
0.0282979
0.029596
0.0309202
0.03227
0.0336442
1.01694e-06
0.000124087
0.000337892
0.000573086
0.00084113
0.00114265
0.00147713
0.00184347
0.002241
0.00266911
0.00312775
0.00361652
0.00413477
0.00468331
0.00526181
0.00587008
0.00650775
0.00717506
0.00787172
0.00859808
0.00935362
0.0101386
0.0109533
0.0117971
0.0126705
0.0135732
0.0145047
0.015465
0.0164544
0.0174733
0.0185212
0.0195971
0.0207018
0.0218348
0.022996
0.0241851
0.025402
0.0266464
0.0279178
0.0292161
0.0305411
0.031892
0.0332675
8.61063e-07
0.00011418
0.00032121
0.000547259
0.000804812
0.00109499
0.00141714
0.00177041
0.00215415
0.00256804
0.00301239
0.00348645
0.00399
0.00452394
0.00508808
0.00568147
0.00630488
0.00695829
0.00764151
0.00835496
0.00909775
0.00987101
0.0106747
0.0115081
0.0123715
0.0132648
0.0141879
0.0151405
0.0161232
0.0171358
0.0181777
0.0192494
0.02035
0.0214795
0.0226378
0.0238245
0.0250397
0.0262826
0.0275533
0.0288515
0.0301764
0.0315265
0.0329025
7.3572e-07
0.000105538
0.000306611
0.000525072
0.000773529
0.00105366
0.00136466
0.00170627
0.00207787
0.00247938
0.00291062
0.00337154
0.00386182
0.00438222
0.00493235
0.00551206
0.00612228
0.00676222
0.00743282
0.00813321
0.00886429
0.00962634
0.0104186
0.0112411
0.0120943
0.0129782
0.0138926
0.0148372
0.0158125
0.0168181
0.0178541
0.01892
0.0200158
0.021141
0.0222958
0.02348
0.0246931
0.0259346
0.0272043
0.0285018
0.0298257
0.0311756
0.0325518
6.4177e-07
9.80528e-05
0.000293603
0.000505509
0.000746033
0.00101699
0.00131816
0.0016494
0.00201034
0.00240022
0.0028196
0.00326862
0.00374683
0.00425456
0.00479204
0.00535927
0.0059565
0.00658431
0.00724226
0.00793089
0.00865021
0.00940052
0.0101815
0.0109937
0.0118369
0.0127112
0.0136166
0.014553
0.0155206
0.0165191
0.0175482
0.0186078
0.0196982
0.020819
0.0219702
0.0231511
0.0243616
0.0256011
0.0268693
0.0281657
0.0294897
0.0308398
0.0322149
5.71171e-07
9.16899e-05
0.000282125
0.000488147
0.000721497
0.000984502
0.001277
0.00159885
0.00194963
0.00232939
0.00273821
0.00317604
0.00364273
0.00413892
0.00466485
0.00522019
0.00580578
0.00642156
0.007068
0.00774522
0.008453
0.00919192
0.00996238
0.0107639
0.011597
0.0124618
0.0133581
0.014286
0.0152455
0.0162363
0.0172585
0.0183121
0.0193967
0.0205128
0.0216598
0.0228368
0.0240438
0.0252812
0.0265476
0.0278435
0.029168
0.0305219
0.0319091
5.09807e-07
8.5899e-05
0.000271988
0.000472598
0.00069938
0.00095515
0.00123983
0.00155299
0.00189501
0.00226539
0.00266423
0.00309182
0.00354823
0.00403363
0.00454835
0.00509281
0.00566726
0.00627184
0.00690717
0.00757336
0.00827027
0.00899828
0.0097582
0.0105497
0.0113728
0.0122281
0.0131152
0.0140342
0.0149857
0.0159687
0.0169839
0.018031
0.0191098
0.0202206
0.0213625
0.0225352
0.0237392
0.0249738
0.0262384
0.027533
0.0288572
0.0302105
0.0315921
4.61608e-07
8.0771e-05
0.000262704
0.000458351
0.000679327
0.000928399
0.00120587
0.00151163
0.00184543
0.00220688
0.00259652
0.00301485
0.00346166
0.00393725
0.00444154
0.00497558
0.00553974
0.00613387
0.00675828
0.00741367
0.00810005
0.00881779
0.00956772
0.0103493
0.0111628
0.0120086
0.0128863
0.0137967
0.0147398
0.015715
0.0167232
0.0177634
0.0188362
0.0199411
0.0210777
0.0222463
0.0234464
0.0246777
0.0259401
0.027233
0.0285564
0.0299114
0.0313011
4.30038e-07
7.61819e-05
0.000254308
0.000445379
0.000661035
0.000904114
0.00117505
0.00147354
0.00179962
0.00215316
0.00253438
0.00294384
0.00338162
0.00384802
0.00434292
0.00486726
0.00542148
0.00600553
0.00661992
0.00726504
0.00794142
0.00864959
0.00938942
0.0101611
0.0109653
0.0118017
0.0126703
0.0135722
0.014507
0.0154746
0.016475
0.0175083
0.0185747
0.0196735
0.020805
0.0219686
0.0231642
0.0243919
0.0256513
0.0269415
0.0282626
0.0296144
0.0309954
4.21293e-07
7.21231e-05
0.000246479
0.000433315
0.000644128
0.000881916
0.0011467
0.00143848
0.00175773
0.00210391
0.00247746
0.00287876
0.00330794
0.00376565
0.00425175
0.00476689
0.00531145
0.00588609
0.00649111
0.00712663
0.00779319
0.00849173
0.0092219
0.00998405
0.0107788
0.011606
0.0124661
0.0133593
0.014286
0.0152455
0.0162384
0.0172648
0.0183246
0.0194174
0.020543
0.0217014
0.0228925
0.024116
0.0253715
0.0266587
0.027977
0.0293259
0.0307057
4.18584e-07
6.84234e-05
0.000239401
0.000422549
0.000628785
0.000861278
0.00112039
0.0014062
0.00171868
0.0020581
0.00242452
0.00281808
0.00323954
0.003689
0.00416662
0.00467311
0.0052088
0.00577446
0.00637041
0.00699701
0.00765418
0.00834331
0.00906427
0.00981722
0.0106028
0.0114214
0.0122727
0.0131571
0.0140755
0.0150277
0.0160129
0.017032
0.018085
0.0191711
0.0202909
0.021444
0.02263
0.0238488
0.0251002
0.0263838
0.0276987
0.0290447
0.030422
4.00062e-07
6.48245e-05
0.000232858
0.000412569
0.000614402
0.000842038
0.00109602
0.00137617
0.0016826
0.0020156
0.00237532
0.00276171
0.00317562
0.00361721
0.00408688
0.0045853
0.005113
0.00567002
0.00625713
0.00687483
0.00752341
0.00820351
0.00891545
0.00965954
0.0104366
0.0112464
0.012089
0.0129652
0.0138753
0.0148194
0.0157972
0.0168089
0.0178548
0.0189346
0.0200481
0.0211953
0.0223763
0.0235903
0.0248372
0.0261167
0.0274281
0.0287706
0.0301428
3.98939e-07
6.16667e-05
0.000226835
0.000403425
0.00060132
0.000824531
0.00107344
0.00134836
0.00164909
0.001976
0.00232938
0.00270919
0.00311588
0.00355014
0.00401241
0.00450311
0.00502263
0.00557159
0.00615008
0.00675931
0.00739963
0.00807125
0.00877438
0.00951013
0.0102784
0.0110796
0.0119142
0.0127821
0.0136838
0.0146201
0.0155902
0.0165948
0.0176339
0.0187069
0.0198139
0.0209556
0.0221311
0.0233397
0.024582
0.0258575
0.0271653
0.0285055
0.0298793
4.01207e-07
5.87983e-05
0.00022109
0.000394663
0.000588881
0.00080797
0.00105246
0.00132227
0.00161759
0.00193867
0.00228599
0.00265955
0.00305977
0.00348715
0.00394223
0.00442544
0.00493757
0.00547867
0.00604931
0.00665043
0.00728253
0.0079455
0.00864051
0.00936798
0.0101279
0.0109207
0.0117471
0.0126068
0.013501
0.0144294
0.0153921
0.0163891
0.017421
0.0184874
0.0195884
0.0207238
0.0218932
0.0230968
0.0243344
0.025605
0.0269085
0.0282443
0.0296123
4.0003e-07
5.60083e-05
0.000215671
0.000386544
0.000577319
0.000792547
0.00103272
0.00129781
0.00158814
0.00190403
0.00224553
0.00261308
0.00300693
0.00342764
0.00387592
0.00435238
0.00485716
0.00539085
0.00595414
0.00654764
0.00717158
0.00782661
0.00851335
0.00923263
0.00998457
0.0107693
0.0115876
0.0124397
0.013326
0.0142467
0.0152014
0.0161914
0.0172163
0.0182758
0.0193705
0.0204994
0.0216631
0.0228615
0.0240936
0.0253591
0.0266579
0.0279899
0.0293554
3.95279e-07
5.32727e-05
0.000210464
0.000378788
0.000566319
0.000777747
0.00101374
0.00127445
0.00156012
0.00187096
0.00220705
0.00256883
0.00295673
0.00337142
0.00381344
0.00428293
0.00478055
0.00530722
0.00586346
0.00644958
0.00706598
0.00771347
0.00839228
0.00910367
0.00984772
0.0106247
0.0114355
0.0122797
0.0131581
0.0140709
0.0150185
0.0160014
0.0170189
0.0180717
0.0191598
0.0202825
0.0214403
0.022633
0.0238593
0.0251201
0.0264142
0.0277412
0.029101
3.92049e-07
5.0935e-05
0.00020565
0.000371467
0.000555887
0.000763787
0.00099605
0.00125263
0.00153372
0.00183965
0.00217074
0.00252728
0.00290965
0.00331836
0.00375415
0.00421726
0.00470832
0.00522811
0.00577746
0.00635621
0.00696518
0.00760523
0.00827697
0.00898095
0.00971699
0.0104863
0.0112893
0.012126
0.0129969
0.0139023
0.0148426
0.0158181
0.016829
0.0178749
0.0189561
0.0200726
0.0212246
0.0224109
0.0236321
0.0248878
0.0261766
0.0274989
0.0288546
3.9065e-07
4.8877e-05
0.000201123
0.000364722
0.00054628
0.000750863
0.000979467
0.00123202
0.00150871
0.00181016
0.0021365
0.0024878
0.00286467
0.00326777
0.00369773
0.00415489
0.0046398
0.00515316
0.00569558
0.00626725
0.0068693
0.00750236
0.00816674
0.0088631
0.00959191
0.0103538
0.0111491
0.0119783
0.012842
0.0137403
0.0146732
0.0156418
0.0166458
0.0176846
0.018759
0.0198696
0.0210154
0.0221958
0.0234114
0.0246615
0.0259458
0.0272624
0.028611
3.88704e-07
4.69917e-05
0.000196917
0.000358366
0.000537194
0.000738537
0.000963569
0.00121241
0.00148515
0.00178236
0.00210401
0.0024504
0.00282209
0.00321988
0.00364417
0.00409525
0.00457425
0.00508136
0.00561711
0.00618226
0.00677757
0.00740376
0.00806101
0.0087503
0.00947206
0.0102266
0.0110145
0.0118366
0.0126931
0.0135842
0.0145101
0.0154716
0.0164684
0.0175007
0.0185689
0.019673
0.0208126
0.0219873
0.0231975
0.0244428
0.0257219
0.0270349
0.0283824
3.86338e-07
4.51914e-05
0.000192849
0.000352327
0.000528509
0.000726861
0.000948697
0.00119396
0.0014629
0.00175583
0.00207299
0.0024148
0.00278173
0.00317438
0.00359318
0.00403847
0.00451148
0.00501252
0.00554238
0.00610144
0.00669012
0.0073095
0.00796
0.0086422
0.00935688
0.0101046
0.0108858
0.0117007
0.01255
0.0134338
0.0143529
0.0153073
0.0162972
0.0173233
0.018385
0.0194827
0.0206162
0.0217853
0.0229904
0.0242303
0.025505
0.0268141
0.0281579
3.81587e-07
4.34011e-05
0.000188901
0.000346475
0.000520197
0.000715888
0.000934581
0.00117637
0.00144151
0.00173045
0.00204327
0.00238057
0.00274287
0.00313054
0.00354413
0.00398423
0.0044517
0.00494704
0.0054709
0.00602382
0.00660622
0.0072191
0.0078629
0.00853862
0.00924677
0.0099876
0.0107617
0.0115698
0.0124119
0.0132889
0.0142014
0.0151489
0.0161325
0.0171519
0.0182071
0.0192988
0.0204265
0.0215903
0.02279
0.0240251
0.0252951
0.0265993
0.0279371
3.76854e-07
4.178e-05
0.000185138
0.000340925
0.000512502
0.000705341
0.000920929
0.00115953
0.00142124
0.00170635
0.00201508
0.00234823
0.00270602
0.00308886
0.00349752
0.00393257
0.00439486
0.00488459
0.00540259
0.00594942
0.0065259
0.00713256
0.00777019
0.00843954
0.00914102
0.00987486
0.0106422
0.0114434
0.0122789
0.0131492
0.0140551
0.0149962
0.0159733
0.0169863
0.0180356
0.0191214
0.0202435
0.0214018
0.0225963
0.0238267
0.0250925
0.0263929
0.0277261
3.74624e-07
4.04523e-05
0.00018183
0.000335867