/*--------------------------------*- C++ -*----------------------------------*\
| =========                 |                                                 |
| \\      /  F ield         | OpenFOAM: The Open Source CFD Toolbox           |
|  \\    /   O peration     | Version:  2.3.0                                 |
|   \\  /    A nd           | Web:      www.OpenFOAM.org                      |
|    \\/     M anipulation  |                                                 |
\*---------------------------------------------------------------------------*/
FoamFile
{
    version     2.0;
    format      ascii;
    class       volScalarField;
    location    "10000";
    object      nuTilda;
}
// * * * * * * * * * * * * * * * * * * * * * * * * * * * * * * * * * * * * * //

dimensions      [0 2 -1 0 0 0 0];

internalField   nonuniform List<scalar> 
120564
(
0.036734
0.0354541
0.0341966
0.0329604
0.0317459
0.0305543
0.0293853
0.0282391
0.0271154
0.0260137
0.0249343
0.0238777
0.0228427
0.0218292
0.020837
0.0198669
0.0189177
0.017989
0.0170809
0.016193
0.0153248
0.014476
0.0136466
0.0128367
0.0120454
0.0112718
0.0105172
0.00978065
0.00906184
0.00836086
0.00767707
0.00701288
0.00636652
0.00573866
0.00513046
0.00454376
0.00398008
0.00344208
0.00293407
0.00245893
0.00202149
0.00161658
0.00115156
0.0372958
0.0361312
0.0349854
0.0338571
0.0327464
0.0316538
0.0305791
0.0295221
0.0284823
0.0274598
0.0264549
0.0254665
0.0244953
0.0235401
0.0226007
0.0216773
0.0207701
0.0198786
0.0190025
0.018142
0.0172959
0.0164645
0.0156481
0.0148469
0.0140602
0.0132877
0.0125307
0.0117883
0.011061
0.0103492
0.00965423
0.00897643
0.00831611
0.00767501
0.0070555
0.00645941
0.00588916
0.00534768
0.00483905
0.00436621
0.00393109
0.00353816
0.00318863
0.0378325
0.0367713
0.0357259
0.0346941
0.0336762
0.0326726
0.0316824
0.0307054
0.0297419
0.0287922
0.0278546
0.0269299
0.0260182
0.025118
0.0242293
0.0233527
0.0224884
0.0216351
0.0207938
0.0199634
0.0191437
0.0183355
0.017539
0.0167542
0.0159799
0.0152175
0.0144679
0.01373
0.0130055
0.0122954
0.0115995
0.010919
0.0102571
0.00961398
0.00899216
0.0083937
0.00782223
0.00728066
0.00677188
0.00629814
0.0058632
0.00546992
0.00512078
0.038338
0.0373726
0.0364174
0.0354719
0.0345375
0.0336129
0.0326983
0.0317936
0.0308986
0.0300132
0.0291366
0.0282694
0.0274108
0.0265604
0.0257182
0.0248848
0.0240593
0.0232416
0.0224324
0.0216309
0.0208368
0.020051
0.0192742
0.0185059
0.0177457
0.0169948
0.0162537
0.0155231
0.0148042
0.0140969
0.0134024
0.0127232
0.0120613
0.0114171
0.0107933
0.0101933
0.00961958
0.00907451
0.00856167
0.00808367
0.00764247
0.00724109
0.0068815
0.0388195
0.0379363
0.0370611
0.0361931
0.0353324
0.0344784
0.0336312
0.0327903
0.0319561
0.0311285
0.0303063
0.0294906
0.0286799
0.0278739
0.027073
0.0262776
0.0254874
0.0247019
0.0239222
0.023147
0.022376
0.0216111
0.0208517
0.0200987
0.0193515
0.0186111
0.0178791
0.0171553
0.0164407
0.0157368
0.0150446
0.0143666
0.0137035
0.0130579
0.0124315
0.0118286
0.0112506
0.0107005
0.0101813
0.00969635
0.00924772
0.008837
0.00846579
0.0392727
0.0384623
0.0376582
0.0368586
0.0360632
0.0352719
0.0344849
0.0337009
0.0329206
0.0321434
0.0313707
0.0306005
0.0298325
0.029066
0.0283016
0.0275397
0.0267802
0.0260244
0.0252713
0.0245193
0.0237695
0.0230224
0.0222787
0.0215389
0.0208035
0.0200733
0.0193489
0.0186306
0.0179205
0.0172191
0.0165287
0.0158506
0.0151867
0.0145382
0.0139096
0.013303
0.0127203
0.0121642
0.0116385
0.0111468
0.0106891
0.0102689
0.00988785
0.0396968
0.0389503
0.038209
0.0374701
0.0367327
0.0359984
0.035265
0.0345312
0.0337976
0.0330657
0.0323352
0.0316062
0.0308777
0.0301479
0.0294151
0.0286804
0.027948
0.0272185
0.02649
0.0257603
0.0250287
0.0242969
0.023566
0.0228381
0.022113
0.0213921
0.0206742
0.0199607
0.0192533
0.0185544
0.0178646
0.0171859
0.0165201
0.0158705
0.0152391
0.0146276
0.0140399
0.0134784
0.0129474
0.012448
0.0119828
0.0115539
0.0111636
0.0400842
0.039399
0.0387152
0.038031
0.0373452
0.0366602
0.0359767
0.0352874
0.0345946
0.0339021
0.0332082
0.0325147
0.0318241
0.0311295
0.0304261
0.029713
0.0290006
0.028292
0.0275882
0.026882
0.0261689
0.0254469
0.0247264
0.0240079
0.0232926
0.0225795
0.0218675
0.0211568
0.0204519
0.0197552
0.0190664
0.0183864
0.0177185
0.0170675
0.0164333
0.0158178
0.015225
0.0146588
0.0141215
0.0136161
0.013144
0.0127076
0.0123078
0.0404449
0.0398113
0.0391777
0.0385445
0.0379014
0.037258
0.0366254
0.0359768
0.0353164
0.0346596
0.0339966
0.0333287
0.0326735
0.0320157
0.0313507
0.0306505
0.0299486
0.0292509
0.0285717
0.0278926
0.0272074
0.0264843
0.0257721
0.0250602
0.0243527
0.0236467
0.022944
0.022235
0.0215279
0.0208325
0.0201495
0.0194653
0.0187927
0.0181398
0.017508
0.0168868
0.0162889
0.0157171
0.0151755
0.0146653
0.0141874
0.013743
0.0133345
0.00096638
0.000908143
0.000898303
0.000933329
0.00101833
0.00114929
0.00131622
0.00150657
0.00171077
0.00192331
0.00214053
0.00236123
0.00258522
0.00281242
0.00304293
0.00327717
0.00351555
0.00375853
0.00400619
0.00425898
0.00451662
0.00478013
0.00504917
0.00532453
0.00560635
0.00589496
0.00619051
0.00649371
0.00680461
0.00712382
0.0074517
0.00778872
0.00813508
0.00849178
0.00885864
0.00923652
0.00962597
0.0100274
0.0104414
0.0108687
0.0113096
0.0117649
0.012235
0.00292141
0.00276125
0.00265663
0.00259912
0.00258468
0.00261097
0.00267402
0.00276828
0.00289043
0.00303493
0.00319814
0.00337717
0.00356854
0.00377027
0.0039812
0.00419992
0.00442557
0.00465765
0.00489548
0.00513913
0.00538875
0.00564413
0.00590511
0.0061724
0.00644562
0.00672554
0.00701259
0.00730622
0.00760779
0.00791638
0.00823324
0.00855834
0.00889214
0.00923448
0.0095861
0.00994726
0.0103184
0.0106998
0.0110919
0.0114953
0.0119107
0.0123382
0.0127795
0.00481859
0.00456726
0.00437484
0.00427059
0.00421624
0.00419458
0.00420294
0.00424141
0.00430734
0.00439702
0.00450912
0.00463982
0.0047879
0.00495091
0.00512709
0.00531471
0.00551306
0.0057209
0.00593771
0.00616246
0.00639498
0.00663443
0.00688146
0.00713506
0.00739618
0.00766366
0.00793836
0.00821993
0.00850836
0.00880426
0.00910719
0.00941739
0.00973497
0.0100608
0.010394
0.0107353
0.0110852
0.0114438
0.0118116
0.0121886
0.0125759
0.0129736
0.0133828
0.006562
0.0062819
0.0060453
0.0058564
0.00571497
0.00562275
0.00559475
0.00560983
0.00565012
0.00571229
0.00579604
0.00590013
0.00602191
0.00615992
0.0063123
0.00647768
0.00665578
0.00684366
0.00704228
0.00724997
0.00746621
0.00769092
0.00792306
0.00816296
0.00840976
0.00866392
0.00892458
0.00919155
0.00946539
0.00974567
0.0100324
0.0103253
0.0106243
0.0109308
0.0112433
0.0115628
0.0118898
0.0122238
0.0125652
0.0129147
0.0132724
0.0136389
0.0140154
0.00813421
0.00784006
0.00758421
0.00736808
0.00719269
0.00705886
0.00696869
0.00691786
0.00690597
0.00694204
0.00701157
0.00710032
0.00720715
0.00732995
0.00746754
0.00761895
0.00778184
0.00795672
0.00814127
0.00833594
0.0085392
0.0087506
0.00897028
0.00919679
0.00943045
0.00967129
0.00991806
0.0101704
0.0104288
0.0106924
0.0109621
0.0112374
0.0115176
0.0118036
0.0120954
0.0123928
0.0126966
0.0130061
0.0133218
0.0136434
0.013972
0.0143078
0.0146509
0.00954551
0.00924051
0.0089729
0.00874293
0.00855201
0.00839972
0.00828408
0.00820481
0.00816156
0.00815287
0.008176
0.00823173
0.00832182
0.00843331
0.00855987
0.00869963
0.0088525
0.00901646
0.00919157
0.00937566
0.00956877
0.00976987
0.00997875
0.0101944
0.0104161
0.010644
0.0108782
0.0111168
0.01136
0.0116086
0.0118618
0.0121197
0.012382
0.0126491
0.012921
0.0131978
0.0134796
0.0137658
0.0140568
0.0143528
0.0146541
0.0149607
0.0152731
0.010811
0.0104961
0.010219
0.00998029
0.00978016
0.00961637
0.00948898
0.0093955
0.00933482
0.00930507
0.00930572
0.00933546
0.00939187
0.00947247
0.0095779
0.00970616
0.00984976
0.0100057
0.010172
0.0103488
0.0105332
0.0107256
0.010926
0.0111316
0.0113432
0.0115599
0.0117818
0.0120073
0.0122376
0.0124718
0.01271
0.0129524
0.0131986
0.0134494
0.0137038
0.0139615
0.0142229
0.0144879
0.0147568
0.0150289
0.0153052
0.0155852
0.0158691
0.0119457
0.0116224
0.0113374
0.011092
0.0108841
0.0107145
0.010579
0.0104762
0.0104047
0.0103642
0.0103527
0.0103676
0.0104063
0.0104674
0.0105512
0.0106557
0.0107802
0.0109233
0.0110808
0.0112487
0.0114257
0.0116098
0.0118026
0.0119986
0.0122008
0.0124077
0.0126187
0.0128326
0.0130513
0.013273
0.0134978
0.0137271
0.0139597
0.0141964
0.0144347
0.0146746
0.014918
0.0151642
0.0154142
0.0156639
0.0159177
0.016174
0.0164321
0.0129643
0.0126325
0.0123404
0.0120904
0.0118756
0.0117045
0.0115617
0.0114516
0.0113722
0.011328
0.0113084
0.0113141
0.0113408
0.0113871
0.0114605
0.0115505
0.0116648
0.0117877
0.0119255
0.0120795
0.0122487
0.0124206
0.0126114
0.0127904
0.0129894
0.0131848
0.0133866
0.0135877
0.0137992
0.0140078
0.0142213
0.0144423
0.0146613
0.0148879
0.0151092
0.0153327
0.0155624
0.0157908
0.0160278
0.0162515
0.0164894
0.0167239
0.0169567
0.0130654
0.0123436
0.0116514
0.0109881
0.0103528
0.00974465
0.00916319
0.00860738
0.00807626
0.00756899
0.00708481
0.00662286
0.00618239
0.00576271
0.00536311
0.00498296
0.00462168
0.00427864
0.00395323
0.00364481
0.00335285
0.00307682
0.0028163
0.00257095
0.00234051
0.00212496
0.00192466
0.00174045
0.00157419
0.00142831
0.00130296
0.00119304
0.0010934
0.00100019
0.000910647
0.000822663
0.000734611
0.000645146
0.0005531
0.000457527
0.000358147
0.000257959
0.000142174
0.0130835
0.0124155
0.011772
0.0111531
0.0105579
0.00998598
0.00943646
0.00890861
0.00840183
0.0079154
0.00744862
0.00700087
0.00657153
0.00615998
0.00576567
0.00538808
0.00502676
0.0046813
0.00435117
0.00403595
0.0037352
0.00344854
0.0031756
0.00291607
0.00266976
0.0024366
0.00221665
0.00201038
0.00181879
0.00164404
0.00149023
0.00135549
0.00123555
0.00112659
0.00102518
0.000928289
0.000833366
0.000738285
0.00064131
0.000541167
0.000437695
0.000334528
0.000230592
0.0131116
0.0124902
0.0118925
0.011316
0.0107594
0.0102221
0.00970345
0.00920276
0.00871962
0.00825329
0.00780349
0.00736966
0.00695128
0.00654788
0.00615901
0.0057843
0.00542341
0.00507602
0.00474179
0.00442046
0.00411172
0.00381525
0.00353083
0.00325827
0.0029974
0.00274816
0.00251059
0.00228495
0.00207187
0.00187291
0.00169246
0.00153209
0.00138869
0.0012595
0.00114167
0.00103202
0.000927353
0.000824691
0.000721479
0.000615902
0.000507837
0.000401885
0.000304305
0.0131334
0.0125603
0.0120054
0.011468
0.0109468
0.0104415
0.00995133
0.00947586
0.00901482
0.00856748
0.00813367
0.007713
0.0073051
0.00690962
0.00652624
0.00615471
0.00579473
0.00544607
0.00510859
0.00478212
0.00446647
0.00416146
0.00386695
0.00358283
0.00330906
0.0030456
0.00279254
0.00255006
0.00231864
0.00209939
0.00189552
0.00171162
0.00154521
0.00139449
0.00125773
0.00113246
0.00101551
0.000903414
0.000792866
0.000681362
0.000568582
0.000459977
0.000365637
0.013154
0.0126252
0.0121101
0.0116084
0.0111197
0.0106436
0.0101795
0.00972716
0.00928636
0.00885656
0.00843773
0.00802936
0.00763138
0.00724348
0.00686549
0.00649719
0.00613841
0.00578907
0.00544902
0.00511822
0.00479664
0.0044842
0.00418081
0.00388652
0.00360131
0.00332524
0.0030584
0.00280104
0.0025536
0.00231687
0.00209315
0.00188795
0.00170037
0.00152881
0.00137253
0.00123015
0.00109914
0.000976055
0.000857137
0.000739196
0.000621582
0.00051033
0.000417747
0.0131715
0.0126847
0.0122063
0.0117375
0.0112785
0.0108292
0.0103891
0.00995796
0.00953584
0.0091223
0.00871705
0.00832015
0.00793145
0.00755075
0.0071779
0.00681277
0.00645537
0.00610567
0.00576361
0.00542916
0.00510242
0.0047834
0.00447218
0.00416884
0.00387345
0.00358608
0.00330697
0.00303635
0.00277464
0.00252256
0.00228182
0.00205739
0.00185078
0.00166003
0.00148493
0.00132514
0.00117909
0.0010439
0.000915721
0.000790864
0.000668268
0.000554286
0.000462765
0.0131937
0.0127406
0.0122949
0.0118563
0.0114246
0.0109997
0.0105814
0.0101699
0.00976473
0.00936606
0.00897353
0.00858728
0.00820738
0.00783363
0.00746581
0.00710366
0.0067475
0.00639771
0.00605409
0.00571654
0.00538514
0.00506019
0.00474185
0.00443033
0.00412582
0.00382843
0.00353824
0.00325561
0.00298105
0.00271523
0.00245952
0.00221778
0.00199416
0.00178617
0.0015937
0.00141713
0.00125599
0.00110816
0.00097006
0.000837817
0.000710032
0.000593169
0.000502311
0.0132114
0.0127923
0.0123766
0.0119652
0.0115582
0.0111557
0.010758
0.0103645
0.00997509
0.00959006
0.0092094
0.00883332
0.00846181
0.00809505
0.00773333
0.00737421
0.00701792
0.00666799
0.00632372
0.00598411
0.00564841
0.00531746
0.00499216
0.00467255
0.00435958
0.00405399
0.00375426
0.00346071
0.00317435
0.00289579
0.0026262
0.00236872
0.00212899
0.00190478
0.00169585
0.00150319
0.00132721
0.00116677
0.00101878
0.000879218
0.000746445
0.000627066
0.000537014
0.0132327
0.0128407
0.0124519
0.0120653
0.0116797
0.0112982
0.0109198
0.0105441
0.0101699
0.00979674
0.00942776
0.00906154
0.00869763
0.00833616
0.00798664
0.00763711
0.00727258
0.00692105
0.00657808
0.00624188
0.00590363
0.00556494
0.00523203
0.00490323
0.0045754
0.00426857
0.00396678
0.00366552
0.003371
0.00308382
0.00280344
0.00253241
0.00228
0.00204151
0.00181636
0.00160669
0.00141375
0.00123653
0.00107478
0.000925056
0.000784501
0.000659436
0.000568057
7.68957e-05
7.80755e-05
0.000115682
0.000159586
0.000212108
0.000275984
0.000348557
0.00042926
0.000517685
0.000613771
0.00071756
0.000829199
0.000948858
0.00107679
0.00121329
0.00135861
0.00151305
0.00167698
0.00185071
0.00203452
0.00222873
0.00243354
0.00264897
0.00287488
0.00311083
0.00335603
0.00360929
0.00386921
0.0041342
0.0044026
0.00467282
0.00494335
0.00521281
0.00547999
0.00574373
0.006003
0.00625678
0.00650409
0.00674393
0.00697522
0.00719683
0.00740753
0.00760594
0.00014982
0.000126712
0.000166548
0.000222903
0.000288363
0.000366454
0.00045362
0.000548876
0.000651947
0.000762796
0.000881475
0.00100805
0.00114267
0.00128546
0.00143659
0.00159626
0.00176465
0.00194191
0.00212815
0.00232343
0.00252767
0.00274069
0.00296206
0.00319121
0.00342729
0.00366925
0.0039159
0.00416593
0.00441807
0.00467105
0.00492368
0.0051749
0.00542374
0.00566932
0.00591085
0.00614756
0.00637873
0.00660364
0.00682153
0.00703159
0.00723297
0.00742473
0.00760578
0.000221335
0.00018335
0.000218986
0.000286237
0.000368123
0.000461416
0.000563789
0.000674588
0.000793547
0.000920459
0.00105525
0.00119793
0.00134851
0.00150703
0.00167351
0.00184792
0.00203023
0.00222032
0.00241798
0.0026229
0.00283471
0.00305287
0.00327666
0.00350529
0.00373784
0.0039733
0.00421063
0.00444882
0.00468687
0.00492387
0.005159
0.00539151
0.00562073
0.00584608
0.00606699
0.00628291
0.00649336
0.00669778
0.00689564
0.00708637
0.00726933
0.00744389
0.00760945
0.000285848
0.000242255
0.000275499
0.000353652
0.000450835
0.000561724
0.000682305
0.00081063
0.000946559
0.00109001
0.00124094
0.00139932
0.00156507
0.00173807
0.00191819
0.00210519
0.00229875
0.00249859
0.0027042
0.00291507
0.0031306
0.00335007
0.00357275
0.00379776
0.00402429
0.00425147
0.00447845
0.00470447
0.00492878
0.00515074
0.00536979
0.00558541
0.00579714
0.00600458
0.00620734
0.00640504
0.00659732
0.0067838
0.0069641
0.00713781
0.00730447
0.00746354
0.00761439
0.00034293
0.000300469
0.00033579
0.000426142
0.00054007
0.000667962
0.000805399
0.000950536
0.00110294
0.0012624
0.00142873
0.00160175
0.00178125
0.00196696
0.00215853
0.0023556
0.00255769
0.0027643
0.00297485
0.00318869
0.00340514
0.0036235
0.00384299
0.00406287
0.00428243
0.00450094
0.00471774
0.00493226
0.00514394
0.00535234
0.00555708
0.00575782
0.00595422
0.00614606
0.00633304
0.00651488
0.00669135
0.00686219
0.00702714
0.00718592
0.00733822
0.00748372
0.00762207
0.000393507
0.000356663
0.000398089
0.000500812
0.000630614
0.000774506
0.000927826
0.00108876
0.00125657
0.00143084
0.0016112
0.00179731
0.00198878
0.00218522
0.00238613
0.00259102
0.00279932
0.00301048
0.00322383
0.00343874
0.00365448
0.0038704
0.00408584
0.00430013
0.00451265
0.00472285
0.00493017
0.0051342
0.00533456
0.00553095
0.0057231
0.00591084
0.00609398
0.0062723
0.0064456
0.00661367
0.00677637
0.00693356
0.00708509
0.00723078
0.00737041
0.00750377
0.00763056
0.000438791
0.000410322
0.00046065
0.00057557
0.000719931
0.000878722
0.00104685
0.0012223
0.00140414
0.00159171
0.00178448
0.00198192
0.00218354
0.0023888
0.00259714
0.00280798
0.00302073
0.00323479
0.00344954
0.00366431
0.00387845
0.00409136
0.00430246
0.00451125
0.00471715
0.00491964
0.00511834
0.00531297
0.00550328
0.00568905
0.00587018
0.00604662
0.00621832
0.00638504
0.0065465
0.00670255
0.00685321
0.00699846
0.00713826
0.00727245
0.0074009
0.00752353
0.0076402
0.000479368
0.000460908
0.000522088
0.000649176
0.000807027
0.000979418
0.00116088
0.00134942
0.00154381
0.00174327
0.00194689
0.00215405
0.00236416
0.00257657
0.0027907
0.00300587
0.00322161
0.00343744
0.00365273
0.00386661
0.00407857
0.00428827
0.0044952
0.00469888
0.00489867
0.00509411
0.005285
0.00547126
0.00565264
0.00582892
0.00600028
0.00616703
0.0063292
0.00648604
0.0066371
0.00678248
0.00692257
0.00705739
0.00718695
0.00731106
0.0074296
0.00754268
0.00765019
0.000516169
0.00051055
0.000585501
0.000724364
0.000893936
0.00107676
0.00126876
0.00146903
0.00167482
0.00188544
0.00209831
0.00231367
0.00253078
0.00274884
0.0029674
0.00318525
0.0034026
0.00361971
0.0038352
0.00404741
0.00425685
0.00446363
0.00466662
0.00486583
0.00505998
0.00524875
0.00543262
0.00561166
0.00578493
0.00595228
0.00611491
0.00627374
0.00642876
0.00657716
0.00671845
0.00685409
0.00698509
0.00711075
0.00723149
0.0073468
0.00745649
0.00756103
0.00766034
4.89667e-05
0.00032729
0.000708123
0.00113941
0.00160815
0.00210836
0.00263569
0.00318676
0.00376109
0.00435623
0.00497286
0.00560925
0.00626598
0.00694336
0.00764037
0.00835744
0.0090951
0.00985349
0.0106327
0.0114322
0.0122534
0.0130966
0.0139617
0.0148487
0.0157581
0.0166908
0.017646
0.0186239
0.019626
0.0206524
0.0217026
0.0227768
0.0238754
0.0249988
0.0261471
0.0273198
0.0285171
0.0297389
0.0309859
0.0322572
0.0335526
0.034873
0.0362202
6.23557e-05
0.000282666
0.000584836
0.000943428
0.00134737
0.00179035
0.00226734
0.00277558
0.00331213
0.00387554
0.0044649
0.00507872
0.00571666
0.0063785
0.00706241
0.00776954
0.00849957
0.00925206
0.0100267
0.0108242
0.0116449
0.0124877
0.0133537
0.0142427
0.0151551
0.0160913
0.0170508
0.0180344
0.019042
0.0200743
0.021131
0.0222119
0.0233173
0.0244478
0.0256036
0.0267843
0.0279903
0.0292209
0.0304763
0.0317567
0.0330622
0.0343937
0.0357545
5.18193e-05
0.000239622
0.000503045
0.000820563
0.00118375
0.00158668
0.00202565
0.00249828
0.00300215
0.0035355
0.00409725
0.00468638
0.00530204
0.00594384
0.00661081
0.0073027
0.00801948
0.00876068
0.00952579
0.010316
0.0111297
0.0119671
0.0128296
0.013716
0.0146267
0.015562
0.0165222
0.0175067
0.0185157
0.0195505
0.0206103
0.0216948
0.0228046
0.02394
0.0251008
0.0262868
0.027498
0.0287343
0.0299962
0.0312834
0.0325959
0.0339335
0.0352992
4.57808e-05
0.00021403
0.000452897
0.000743038
0.00107696
0.00145005
0.00185939
0.00230263
0.0027779
0.00328414
0.00382034
0.00438516
0.00497824
0.00559898
0.00624716
0.00692137
0.00762252
0.00834939
0.00910217
0.00988087
0.0106846
0.0115144
0.01237
0.0132505
0.0141565
0.0150886
0.016046
0.0170285
0.0180368
0.0190711
0.0201313
0.0212168
0.0223287
0.0234667
0.0246303
0.0258196
0.0270343
0.0282748
0.0295409
0.030833
0.0321502
0.0334921
0.034862
4.21702e-05
0.000196997
0.000417461
0.000686432
0.00099726
0.0013466
0.00173158
0.00215028
0.00260152
0.00308393
0.00359684
0.00413992
0.0047119
0.00531274
0.0059419
0.00659869
0.0072834
0.00799548
0.00873442
0.00950053
0.0102932
0.0111136
0.0119601
0.0128327
0.0137325
0.0146589
0.0156112
0.0165904
0.0175962
0.0186283
0.0196871
0.0207723
0.0218842
0.0230227
0.0241875
0.0253786
0.0265957
0.0278385
0.0291079
0.0304032
0.031723
0.0330681
0.0344387
3.89227e-05
0.000182803
0.000389201
0.000642012
0.00093506
0.00126546
0.0016305
0.00202914
0.00245989
0.0029215
0.00341426
0.00393719
0.00448954
0.0050717
0.00568282
0.00632221
0.00699079
0.00768742
0.0084123
0.00916511
0.00994596
0.0107549
0.0115912
0.0124551
0.013347
0.0142663
0.0152125
0.0161868
0.017188
0.0182167
0.019273
0.0203563
0.0214667
0.0226045
0.0237691
0.0249606
0.0261785
0.0274231
0.0286942
0.0299914
0.0313136
0.0326612
0.0340323
3.66948e-05
0.000172465
0.000367542
0.00060689
0.000885169
0.0011994
0.00154767
0.00192871
0.00234135
0.0027852
0.00325994
0.003765
0.0042996
0.00486424
0.00545819
0.00608158
0.00673444
0.0074161
0.00812681
0.00886628
0.00963474
0.0104318
0.0112576
0.0121115
0.0129944
0.0139058
0.0148454
0.0158128
0.0168084
0.0178328
0.0188854
0.0199653
0.0210731
0.022209
0.0233724
0.0245632
0.0257815
0.0270263
0.0282979
0.029596
0.0309202
0.03227
0.0336442
3.46744e-05
0.00016336
0.000348872
0.000577198
0.000843067
0.0011437
0.00147776
0.00184388
0.00224128
0.0026693
0.00312789
0.00361663
0.00413485
0.00468337
0.00526186
0.00587012
0.00650778
0.00717508
0.00787174
0.0085981
0.00935364
0.0101386
0.0109533
0.0117971
0.0126705
0.0135732
0.0145047
0.015465
0.0164544
0.0174733
0.0185212
0.0195971
0.0207018
0.0218348
0.022996
0.0241851
0.025402
0.0266464
0.0279178
0.0292161
0.0305411
0.031892
0.0332675
3.32324e-05
0.000155821
0.000333192
0.000551755
0.000806926
0.00109614
0.00141783
0.00177085
0.00215445
0.00256825
0.00301254
0.00348656
0.00399009
0.004524
0.00508813
0.00568151
0.00630491
0.00695832
0.00764154
0.00835498
0.00909777
0.00987102
0.0106748
0.0115081
0.0123715
0.0132648
0.0141879
0.0151406
0.0161232
0.0171358
0.0181777
0.0192494
0.02035
0.0214795
0.0226378
0.0238245
0.0250397
0.0262826
0.0275533
0.0288515
0.0301764
0.0315265
0.0329025
3.19273e-05
0.000149297
0.000319573
0.00052994
0.000775815
0.0010549
0.0013654
0.00170675
0.00207819
0.0024796
0.00291078
0.00337166
0.00386192
0.00438229
0.0049324
0.00551211
0.00612232
0.00676225
0.00743285
0.00813324
0.00886431
0.00962635
0.0104186
0.0112411
0.0120943
0.0129782
0.0138926
0.0148372
0.0158125
0.0168181
0.0178541
0.01892
0.0200158
0.021141
0.0222958
0.02348
0.0246931
0.0259346
0.0272043
0.0285018
0.0298257
0.0311756
0.0325518
3.08377e-05
0.000143672
0.000307531
0.000510745
0.000748488
0.00101832
0.00131895
0.00164991
0.00201068
0.00240046
0.00281977
0.00326875
0.00374693
0.00425464
0.0047921
0.00535931
0.00595654
0.00658435
0.00724229
0.00793091
0.00865023
0.00940053
0.0101815
0.0109938
0.0118369
0.0127112
0.0136166
0.014553
0.0155206
0.0165191
0.0175482
0.0186078
0.0196982
0.020819
0.0219702
0.0231511
0.0243617
0.0256011
0.0268693
0.0281657
0.0294897
0.0308398
0.0322149
2.99389e-05
0.0001389
0.000296986
0.000493743
0.000724119
0.000985919
0.00127784
0.00159939
0.00194999
0.00232965
0.00273839
0.00317618
0.00364283
0.004139
0.00466491
0.00522024
0.00580582
0.0064216
0.00706803
0.00774525
0.00845302
0.00919193
0.00996239
0.0107639
0.011597
0.0124618
0.0133581
0.014286
0.0152455
0.0162363
0.0172585
0.0183121
0.0193967
0.0205128
0.0216598
0.0228368
0.0240438
0.0252812
0.0265476
0.0278435
0.0291681
0.0305219
0.0319091
2.90887e-05
0.000134553
0.000287741
0.000478548
0.000702168
0.000956655
0.00124073
0.00155356
0.00189539
0.00226566
0.00266443
0.00309197
0.00354834
0.00403372
0.00454842
0.00509286
0.00566731
0.00627188
0.0069072
0.00757339
0.00827029
0.0089983
0.00975821
0.0105497
0.0113728
0.0122281
0.0131152
0.0140342
0.0149857
0.0159687
0.0169839
0.018031
0.0191098
0.0202206
0.0213625
0.0225352
0.0237392
0.0249738
0.0262384
0.027533
0.0288572
0.0302105
0.0315921
2.83663e-05
0.000130694
0.000279335
0.000464655
0.000682279
0.000929992
0.00120681
0.00151223
0.00184583
0.00220717
0.00259673
0.003015
0.00346177
0.00393734
0.00444161
0.00497563
0.00553978
0.00613391
0.00675831
0.0074137
0.00810007
0.0088178
0.00956774
0.0103493
0.0111628
0.0120086
0.0128863
0.0137967
0.0147398
0.015715
0.0167232
0.0177634
0.0188362
0.0199411
0.0210777
0.0222463
0.0234464
0.0246777
0.0259401
0.027233
0.0285565
0.0299114
0.0313011
2.7863e-05
0.000127226
0.000271786
0.000452032
0.000664148
0.000905792
0.00117605
0.00147417
0.00180004
0.00215346
0.0025346
0.002944
0.00338174
0.00384811
0.00434299
0.00486732
0.00542153
0.00600557
0.00661995
0.00726507
0.00794144
0.00864961
0.00938944
0.0101611
0.0109653
0.0118017
0.0126704
0.0135722
0.014507
0.0154746
0.016475
0.0175083
0.0185747
0.0196735
0.020805
0.0219687
0.0231642
0.0243919
0.0256513
0.0269415
0.0282626
0.0296144
0.0309954
2.77406e-05
0.000124146
0.000264797
0.000440319
0.000647404
0.000883679
0.00114774
0.00143914
0.00175818
0.00210423
0.00247768
0.00287893
0.00330806
0.00376575
0.00425183
0.00476695
0.0053115
0.00588613
0.00649115
0.00712666
0.00779321
0.00849175
0.00922192
0.00998406
0.0107788
0.011606
0.0124661
0.0133593
0.014286
0.0152455
0.0162384
0.0172648
0.0183246
0.0194174
0.020543
0.0217014
0.0228925
0.024116
0.0253715
0.0266587
0.027977
0.0293259
0.0307057
2.81375e-05
0.000121393
0.000258527
0.000429888
0.000632218
0.000863126
0.00112149
0.00140689
0.00171915
0.00205842
0.00242476
0.00281825
0.00323967
0.0036891
0.0041667
0.00467317
0.00520885
0.0057745
0.00637044
0.00699704
0.0076542
0.00834333
0.00906429
0.00981723
0.0106028
0.0114214
0.0122727
0.0131571
0.0140755
0.0150277
0.0160129
0.017032
0.018085
0.0191711
0.0202909
0.021444
0.02263
0.0238488
0.0251002
0.0263838
0.0276987
0.0290447
0.030422
3.00691e-05
0.000118966
0.000252792
0.000420243
0.000617994
0.00084397
0.00109716
0.0013769
0.00168308
0.00201594
0.00237556
0.00276189
0.00317576
0.00361732
0.00408696
0.00458536
0.00511305
0.00567006
0.00625717
0.00687486
0.00752343
0.00820353
0.00891547
0.00965956
0.0104366
0.0112464
0.012089
0.0129652
0.0138753
0.0148194
0.0157972
0.0168089
0.0178548
0.0189346
0.0200481
0.0211953
0.0223763
0.0235903
0.0248372
0.0261167
0.0274281
0.0287706
0.0301428
3.18492e-05
0.000116806
0.000247548
0.000411423
0.000605066
0.000826546
0.00107464
0.00134912
0.0016496
0.00197635
0.00232963
0.00270938
0.00311602
0.00355025
0.0040125
0.00450318
0.00502268
0.00557163
0.00615012
0.00675934
0.00739966
0.00807127
0.0087744
0.00951014
0.0102784
0.0110796
0.0119142
0.0127821
0.0136838
0.0146201
0.0155902
0.0165948
0.0176339
0.0187069
0.0198139
0.0209556
0.0221311
0.0233398
0.024582
0.0258575
0.0271653
0.0285055
0.0298793
3.32099e-05
0.00011478
0.000242574
0.000402991
0.000592782
0.000810067
0.0010537
0.00132306
0.00161812
0.00193904
0.00228626
0.00265974
0.00305992
0.00348727
0.00394232
0.00442551
0.00493763
0.00547871
0.00604934
0.00665046
0.00728255
0.00794553
0.00864053
0.00936799
0.0101279
0.0109207
0.0117471
0.0126068
0.013501
0.0144294
0.0153921
0.0163891
0.017421
0.0184874
0.0195884
0.0207238
0.0218932
0.0230968
0.0243344
0.025605
0.0269085
0.0282443
0.0296123
3.42003e-05
0.000112739
0.000237908
0.000395194
0.000581373
0.000794726
0.00103401
0.00129862
0.00158868
0.00190442
0.00224581
0.00261328
0.00300708
0.00342776
0.00387601
0.00435246
0.00485722
0.00539089
0.00595418
0.00654768
0.0071716
0.00782663
0.00851337
0.00923265
0.00998458
0.0107694
0.0115876
0.0124397
0.013326
0.0142467
0.0152014
0.0161914
0.0172163
0.0182758
0.0193705
0.0204994
0.0216631
0.0228615
0.0240936
0.0253591
0.0266579
0.0279899
0.0293554
3.49044e-05
0.000110674
0.000233449
0.000387763
0.000570528
0.000780009
0.00101508
0.00127529
0.00156069
0.00187135
0.00220733
0.00256904
0.00295689
0.00337155
0.00381353
0.00428301
0.00478061
0.00530727
0.0058635
0.00644962
0.00706601
0.00771349
0.0083923
0.00910369
0.00984773
0.0106247
0.0114355
0.0122798
0.0131581
0.0140709
0.0150185
0.0160014
0.0170189
0.0180717
0.0191598
0.0202825
0.0214403
0.022633
0.0238593
0.0251201
0.0264142
0.0277412
0.029101
3.5458e-05
0.000108874
0.000229349
0.000380763
0.000560249
0.000766131
0.000997435
0.0012535
0.00153431
0.00184006
0.00217104
0.00252749
0.00290981
0.00331849
0.00375424
0.00421734
0.00470838
0.00522816
0.00577751
0.00635624
0.00696521
0.00760525
0.00827699
0.00898096
0.00971701
0.0104863
0.0112893
0.012126
0.0129969
0.0139023
0.0148426
0.0158181
0.016829
0.0178749
0.0189561
0.0200727
0.0212246
0.0224109
0.0236321
0.0248878
0.0261766
0.0274989
0.0288546
3.59229e-05
0.000107259
0.000225514
0.000374329
0.000550792
0.000753287
0.000980899
0.00123293
0.00150931
0.00181058
0.00213681
0.00248802
0.00286484
0.0032679
0.00369783
0.00415497
0.00463986
0.00515321
0.00569563
0.00626728
0.00686933
0.00750239
0.00816676
0.00886312
0.00959192
0.0103538
0.0111491
0.0119783
0.012842
0.0137403
0.0146732
0.0156418
0.0166458
0.0176846
0.018759
0.0198696
0.0210154
0.0221958
0.0234114
0.0246615
0.0259458
0.0272624
0.028611
3.62876e-05
0.00010575
0.00022197
0.000368279
0.000541854
0.000741041
0.000965048
0.00121335
0.00148577
0.0017828
0.00210432
0.00245063
0.00282227
0.00322002
0.00364427
0.00409533
0.00457432
0.00508141
0.00561715
0.0061823
0.0067776
0.00740378
0.00806103
0.00875032
0.00947207
0.0102266
0.0110145
0.0118366
0.0126931
0.0135842
0.0145101
0.0154716
0.0164684
0.0175007
0.0185689
0.0196731
0.0208126
0.0219873
0.0231975
0.0244428
0.0257219
0.0270349
0.0283824
3.65658e-05
0.000104282
0.000218559
0.000362544
0.000533318
0.000729445
0.000950223
0.00119492
0.00146354
0.00175628
0.00207331
0.00241503
0.0027819
0.00317452
0.00359328
0.00403855
0.00451155
0.00501258
0.00554242
0.00610148
0.00669015
0.00730953
0.00796002
0.00864222
0.0093569
0.0101046
0.0108858
0.0117007
0.01255
0.0134338
0.0143529
0.0153073
0.0162972
0.0173233
0.018385
0.0194827
0.0206162
0.0217853
0.0229904
0.0242303
0.025505
0.0268141
0.0281579
3.67403e-05
0.000102791
0.000215265
0.000356998
0.000525154
0.000718551
0.000936153
0.00117736
0.00144217
0.00173091
0.0020436
0.00238081
0.00274306
0.00313068
0.00354424
0.00398432
0.00445177
0.00494709
0.00547094
0.00602386
0.00660625
0.00721913
0.00786293
0.00853864
0.00924679
0.00998762
0.0107617
0.0115698
0.0124119
0.0132889
0.0142014
0.0151489
0.0161325
0.0171519
0.0182071
0.0192988
0.0204265
0.0215903
0.02279
0.0240251
0.0252951
0.0265993
0.0279371
3.68457e-05
0.000101415
0.00021214
0.000351749
0.000517603
0.000708082
0.000922547
0.00116055
0.00142192
0.00170683
0.00201542
0.00234848
0.00270621
0.00308901
0.00349763
0.00393266
0.00439493
0.00488465
0.00540264
0.00594946
0.00652593
0.00713258
0.00777021
0.00843956
0.00914103
0.00987487
0.0106422
0.0114434
0.0122789
0.0131493
0.0140551
0.0149962
0.0159733
0.0169863
0.0180356
0.0191214
0.0202435
0.0214018
0.0225963
0.0238267
0.0250925
0.0263929
0.0277261
3.69405e-05
0.000100268
0.000209405
0.000346977