/*--------------------------------*- C++ -*----------------------------------*\
| =========                 |                                                 |
| \\      /  F ield         | OpenFOAM: The Open Source CFD Toolbox           |
|  \\    /   O peration     | Version:  2.3.0                                 |
|   \\  /    A nd           | Web:      www.OpenFOAM.org                      |
|    \\/     M anipulation  |                                                 |
\*---------------------------------------------------------------------------*/
FoamFile
{
    version     2.0;
    format      ascii;
    class       volScalarField;
    location    "10000";
    object      p;
}
// * * * * * * * * * * * * * * * * * * * * * * * * * * * * * * * * * * * * * //

dimensions      [0 2 -2 0 0 0 0];

internalField   nonuniform List<scalar> 
120564
(
5.0809e-05
-0.282979
0.466322
1.33956
2.09946
2.78359
3.39689
3.94402
4.41708
4.8195
5.15644
5.41014
5.58246
5.66644
5.65937
5.55934
5.34191
5.01466
4.56992
3.99234
3.26755
2.38492
1.3306
0.0678303
-1.42544
-3.17985
-5.20576
-7.59808
-10.3675
-13.607
-17.4009
-21.8107
-27.0238
-33.1584
-40.4437
-49.1374
-59.5464
-72.1514
-87.4473
-106.188
-129.355
-158.842
-202.399
-2.96574
-3.00979
-2.14737
-1.18172
-0.294041
0.532778
1.30297
2.03106
2.7089
3.32476
3.88431
4.38426
4.81645
5.1694
5.45067
5.65108
5.75361
5.75454
5.64687
5.40942
5.04901
4.5312
3.86309
3.00525
1.93949
0.648165
-0.907362
-2.7735
-4.97972
-7.59918
-10.6803
-14.3133
-18.587
-23.6248
-29.5136
-36.4533
-44.5677
-54.0497
-65.0959
-77.8684
-92.5088
-108.921
-127.197
-6.53416
-6.07248
-5.38551
-4.66695
-4.03655
-3.48813
-3.0092
-2.60929
-2.26944
-2.00644
-1.82232
-1.7089
-1.6842
-1.73561
-1.87864
-2.10791
-2.44547
-2.89538
-3.46126
-4.1728
-5.01434
-6.0205
-7.19081
-8.54903
-10.1131
-11.8991
-13.9463
-16.2778
-18.9221
-21.9346
-25.3495
-29.23
-33.6287
-38.6322
-44.2872
-50.6909
-57.935
-66.0749
-75.1939
-85.3506
-96.5658
-108.794
-121.865
-8.90943
-8.74967
-8.18564
-7.60186
-7.10642
-6.68564
-6.31371
-6.01439
-5.76149
-5.58081
-5.46195
-5.40023
-5.42627
-5.5261
-5.7022
-5.95877
-6.30577
-6.7597
-7.33043
-8.04653
-8.90172
-9.91145
-11.0942
-12.4672
-14.0533
-15.864
-17.94
-20.3093
-22.9978
-26.0464
-29.5035
-33.4039
-37.8055
-42.7651
-48.3493
-54.5935
-61.564
-69.3017
-77.8341
-87.1528
-97.2222
-107.932
-119.074
-10.7235
-11.1496
-10.7236
-10.2641
-9.88862
-9.58617
-9.33323
-9.1519
-9.02007
-8.96598
-8.95693
-9.02108
-9.15929
-9.38543
-9.68922
-10.0694
-10.5141
-11.0472
-11.6993
-12.4965
-13.4488
-14.5535
-15.8162
-17.2537
-18.892
-20.7486
-22.8513
-25.2255
-27.9019
-30.9079
-34.281
-38.0605
-42.2938
-47.0127
-52.2698
-58.1155
-64.5814
-71.6898
-79.4482
-87.8409
-96.8241
-106.301
-116.133
-12.6818
-13.3436
-12.9738
-12.6211
-12.3431
-12.1105
-11.9573
-11.8598
-11.799
-11.8252
-11.8849
-11.9904
-12.1708
-12.4574
-12.8704
-13.3465
-13.8316
-14.3599
-14.9923
-15.7698
-16.765
-17.927
-19.2258
-20.6693
-22.3284
-24.1845
-26.2921
-28.674
-31.3419
-34.3131
-37.6308
-41.3271
-45.4389
-49.9929
-55.0313
-60.5959
-66.7125
-73.3968
-80.6379
-88.4139
-96.6807
-105.361
-114.339
-15.0293
-15.3441
-15.0007
-14.7107
-14.5179
-14.3415
-14.2403
-14.2163
-14.2199
-14.3318
-14.4718
-14.6229
-14.8052
-15.0726
-15.6083
-16.3175
-16.9477
-17.4487
-17.9731
-18.578
-19.5854
-20.8748
-22.2927
-23.7037
-25.3506
-27.1492
-29.1976
-31.5756
-34.2332
-37.1317
-40.3739
-43.9969
-48.0067
-52.3759
-57.185
-62.5044
-68.3361
-74.6727
-81.5012
-88.8147
-96.5425
-104.649
-113.054
-15.861
-16.9867
-16.7907
-16.518
-16.4233
-16.2961
-16.1574
-16.1821
-16.1539
-16.363
-16.5547
-16.7594
-16.9301
-16.9726
-17.1833
-18.1134
-19.318
-20.0875
-20.6135
-20.7766
-21.3161
-22.4722
-24.3336
-25.8194
-27.5925
-29.3172
-31.1802
-33.5673
-36.3916
-39.2563
-42.3425
-45.9049
-49.9714
-54.227
-58.7892
-63.9366
-69.606
-75.7236
-82.227
-89.171
-96.4265
-104.077
-112.09
-16.4233
-19.4775
-19.2677
-19.6172
-20.0789
-19.8075
-19.8869
-20.6549
-19.9345
-20.7204
-21.5287
-21.3963
-22.2175
-22.1583
-22.0052
-22.1369
-23.5421
-24.4567
-26.6718
-26.0605
-26.5168
-26.0715
-28.3824
-29.008
-31.1539
-33.1126
-34.6385
-36.0803
-39.0386
-42.1969
-45.3437
-47.9847
-51.9447
-56.2852
-60.5275
-65.1052
-70.2807
-76.2668
-82.6416
-89.4915
-96.5886
-104.006
-111.741
-256.767
-256.313
-253.818
-259.506
-266.051
-270.832
-274.335
-277.052
-279.056
-280.456
-281.357
-281.919
-282.221
-282.333
-282.271
-282.126
-281.896
-281.604
-281.236
-280.78
-280.281
-279.707
-279.118
-278.481
-277.823
-277.163
-276.454
-275.794
-275.049
-274.364
-273.628
-272.889
-272.168
-271.417
-270.665
-269.929
-269.154
-268.423
-267.664
-266.916
-266.214
-265.518
-266.126
-149.632
-172.537
-194.485
-213.746
-228.734
-239.584
-247.341
-253.004
-257.051
-260.049
-262.202
-263.781
-264.916
-265.778
-266.333
-266.686
-266.846
-266.898
-266.8
-266.707
-266.529
-266.32
-266.102
-265.886
-265.628
-265.43
-265.127
-264.903
-264.608
-264.345
-264.059
-263.771
-263.471
-263.167
-262.857
-262.542
-262.202
-261.878
-261.546
-261.197
-260.855
-260.508
-260.328
-135.785
-151.088
-166.181
-180.11
-192.562
-203.459
-212.826
-220.718
-227.282
-232.796
-237.283
-241.026
-244.078
-246.601
-248.659
-250.365
-251.739
-252.945
-253.888
-254.724
-255.423
-256.004
-256.462
-256.859
-257.13
-257.364
-257.532
-257.639
-257.703
-257.723
-257.705
-257.648
-257.6
-257.476
-257.384
-257.248
-257.093
-256.927
-256.767
-256.569
-256.35
-256.134
-255.348
-130.375
-141.86
-153.322
-164.483
-175.083
-184.893
-193.757
-201.643
-208.588
-214.673
-219.937
-224.47
-228.354
-231.696
-234.565
-237.037
-239.153
-241.014
-242.594
-243.949
-245.143
-246.157
-247.033
-247.806
-248.483
-249.04
-249.561
-250.007
-250.362
-250.707
-250.994
-251.226
-251.453
-251.58
-251.756
-251.861
-251.934
-252.004
-252.048
-252.07
-252.057
-252.061
-251.384
-126.166
-136.287
-146.352
-156.168
-165.555
-174.366
-182.508
-189.944
-196.648
-202.642
-207.973
-212.714
-216.901
-220.613
-223.891
-226.775
-229.33
-231.563
-233.54
-235.277
-236.819
-238.198
-239.404
-240.498
-241.479
-242.323
-243.106
-243.802
-244.401
-244.957
-245.446
-245.883
-246.284
-246.612
-246.946
-247.218
-247.449
-247.678
-247.864
-248.046
-248.171
-248.313
-247.894
-123.496
-132.718
-141.875
-150.805
-159.36
-167.471
-175.068
-182.085
-188.519
-194.395
-199.707
-204.474
-208.758
-212.6
-216.06
-219.155
-221.896
-224.338
-226.51
-228.459
-230.205
-231.776
-233.196
-234.483
-235.648
-236.685
-237.626
-238.487
-239.259
-239.972
-240.614
-241.216
-241.75
-242.228
-242.683
-243.084
-243.452
-243.797
-244.116
-244.418
-244.664
-244.911
-244.824
-121.634
-130.237
-138.767
-147.1
-155.089
-162.724
-169.949
-176.671
-182.871
-188.594
-193.808
-198.53
-202.81
-206.674
-210.206
-213.361
-216.175
-218.714
-220.999
-223.051
-224.931
-226.615
-228.175
-229.605
-230.878
-232.049
-233.102
-234.063
-234.937
-235.772
-236.529
-237.239
-237.856
-238.425
-238.971
-239.47
-239.941
-240.377
-240.81
-241.199
-241.547
-241.89
-242.155
-120.269
-128.361
-136.367
-144.174
-151.608
-158.86
-165.791
-172.17
-178.131
-183.73
-188.821
-193.481
-197.759
-201.704
-205.414
-208.656
-211.539
-214.159
-216.495
-218.616
-220.531
-222.268
-223.958
-225.474
-226.818
-228.076
-229.156
-230.157
-231.17
-232.128
-233.01
-233.775
-234.427
-235.093
-235.745
-236.329
-236.87
-237.369
-237.897
-238.345
-238.765
-239.095
-239.219
-119.675
-127.441
-135.456
-143.584
-150.648
-158.105
-164.891
-170.995
-177.155
-183.513
-188.413
-192.898
-197.047
-200.86
-204.787
-207.233
-209.43
-211.79
-213.903
-215.879
-217.624
-219.415
-221.558
-223.061
-224.541
-225.835
-226.675
-227.833
-229.305
-230.348
-230.981
-231.42
-232.051
-233.063
-233.805
-234.13
-234.343
-234.719
-235.363
-235.893
-236.392
-236.568
-236.639
-273.245
-274.611
-275.896
-277.154
-278.388
-279.598
-280.785
-281.948
-283.088
-284.205
-285.299
-286.368
-287.413
-288.433
-289.427
-290.394
-291.333
-292.243
-293.122
-293.971
-294.787
-295.571
-296.321
-297.038
-297.723
-298.377
-299.005
-299.612
-300.205
-300.794
-301.388
-302
-302.639
-303.319
-304.051
-304.849
-305.723
-306.687
-307.748
-308.909
-310.184
-311.586
-313.463
-273.684
-274.944
-276.075
-277.184
-278.279
-279.357
-280.418
-281.463
-282.495
-283.513
-284.52
-285.516
-286.502
-287.48
-288.45
-289.414
-290.373
-291.327
-292.277
-293.225
-294.17
-295.113
-296.054
-296.993
-297.93
-298.866
-299.798
-300.726
-301.648
-302.564
-303.472
-304.37
-305.256
-306.128
-306.982
-307.816
-308.623
-309.396
-310.125
-310.794
-311.4
-311.86
-312.586
-274.068
-275.275
-276.306
-277.319
-278.326
-279.322
-280.309
-281.286
-282.254
-283.213
-284.165
-285.111
-286.05
-286.985
-287.914
-288.84
-289.763
-290.684
-291.604
-292.524
-293.445
-294.369
-295.295
-296.225
-297.159
-298.098
-299.042
-299.99
-300.941
-301.892
-302.843
-303.788
-304.725
-305.647
-306.547
-307.419
-308.252
-309.037
-309.764
-310.421
-311.034
-311.551
-312.102
-274.479
-275.615
-276.571
-277.521
-278.471
-279.414
-280.35
-281.278
-282.2
-283.116
-284.025
-284.93
-285.83
-286.726
-287.619
-288.509
-289.395
-290.279
-291.161
-292.042
-292.923
-293.804
-294.686
-295.569
-296.455
-297.344
-298.236
-299.133
-300.035
-300.941
-301.852
-302.766
-303.683
-304.597
-305.506
-306.404
-307.285
-308.141
-308.967
-309.751
-310.521
-311.289
-311.967
-274.817
-275.885
-276.778
-277.666
-278.556
-279.443
-280.325
-281.201
-282.074
-282.944
-283.811
-284.675
-285.538
-286.401
-287.266
-288.131
-288.996
-289.86
-290.726
-291.594
-292.464
-293.338
-294.214
-295.093
-295.975
-296.861
-297.751
-298.646
-299.546
-300.45
-301.359
-302.273
-303.191
-304.111
-305.03
-305.944
-306.85
-307.741
-308.615
-309.463
-310.293
-311.167
-311.928
-275.145
-276.11
-276.938
-277.77
-278.603
-279.439
-280.27
-281.099
-281.929
-282.757
-283.585
-284.411
-285.239
-286.071
-286.907
-287.752
-288.6
-289.445
-290.292
-291.146
-292.008
-292.876
-293.75
-294.629
-295.514
-296.405
-297.302
-298.206
-299.116
-300.034
-300.957
-301.886
-302.821
-303.761
-304.703
-305.643
-306.575
-307.494
-308.395
-309.276
-310.135
-311.056
-311.881
-275.48
-276.303
-277.077
-277.861
-278.639
-279.433
-280.22
-281.007
-281.799
-282.594
-283.392
-284.184
-284.978
-285.781
-286.584
-287.411
-288.257
-289.085
-289.91
-290.749
-291.599
-292.459
-293.329
-294.201
-295.081
-295.972
-296.867
-297.774
-298.69
-299.614
-300.542
-301.476
-302.417
-303.363
-304.313
-305.262
-306.205
-307.137
-308.053
-308.961
-309.861
-310.877
-311.856
-275.604
-276.45
-277.187
-277.935
-278.643
-279.408
-280.153
-280.894
-281.646
-282.408
-283.185
-283.947
-284.698
-285.482
-286.241
-287.028
-287.902
-288.732
-289.524
-290.335
-291.17
-292.029
-292.911
-293.789
-294.677
-295.576
-296.459
-297.368
-298.294
-299.233
-300.177
-301.132
-302.099
-303.077
-304.065
-305.067
-306.058
-307.013
-307.93
-308.815
-309.681
-310.654
-311.637
-275.629
-276.513
-277.276
-278.073
-278.685
-279.482
-280.216
-280.929
-281.652
-282.363
-283.159
-283.921
-284.61
-285.41
-286.109
-286.793
-287.722
-288.608
-289.371
-290.165
-290.957
-291.748
-292.638
-293.484
-294.309
-295.298
-296.162
-297.064
-297.972
-298.908
-299.82
-300.736
-301.629
-302.561
-303.483
-304.405
-305.361
-306.33
-307.23
-308.075
-308.819
-310.154
-311.77
-314.87
-314.769
-314.701
-314.636
-314.578
-314.528
-314.483
-314.444
-314.412
-314.384
-314.36
-314.34
-314.323
-314.308
-314.295
-314.283
-314.271
-314.26
-314.249
-314.237
-314.224
-314.21
-314.195
-314.179
-314.161
-314.14
-314.118
-314.094
-314.068
-314.039
-314.009
-313.976
-313.941
-313.904
-313.865
-313.823
-313.78
-313.735
-313.688
-313.64
-313.591
-313.544
-313.523
-313.75
-313.814
-313.964
-314.015
-314.042
-314.054
-314.055
-314.048
-314.034
-314.015
-313.992
-313.967
-313.941
-313.913
-313.885
-313.857
-313.83
-313.803
-313.777
-313.752
-313.729
-313.707
-313.686
-313.667
-313.65
-313.634
-313.621
-313.609
-313.598
-313.589
-313.581
-313.575
-313.57
-313.566
-313.562
-313.56
-313.557
-313.555
-313.553
-313.55
-313.547
-313.539
-313.511
-313.292
-313.662
-313.856
-313.911
-313.948
-313.972
-313.988
-313.996
-313.997
-313.993
-313.986
-313.976
-313.965
-313.952
-313.938
-313.924
-313.911
-313.897
-313.883
-313.87
-313.857
-313.844
-313.831
-313.818
-313.806
-313.793
-313.781
-313.768
-313.756
-313.743
-313.731
-313.719
-313.708
-313.697
-313.686
-313.676
-313.667
-313.659
-313.652
-313.645
-313.639
-313.633
-313.638
-313.119
-313.647
-313.868
-313.941
-313.982
-314.008
-314.027
-314.04
-314.047
-314.05
-314.05
-314.047
-314.041
-314.034
-314.026
-314.017
-314.007
-313.996
-313.985
-313.974
-313.962
-313.95
-313.937
-313.925
-313.912
-313.899
-313.886
-313.873
-313.86
-313.848
-313.835
-313.824
-313.812
-313.8
-313.789
-313.778
-313.767
-313.757
-313.747
-313.736
-313.726
-313.712
-313.677
-313.006
-313.607
-313.882
-313.982
-314.027
-314.053
-314.072
-314.085
-314.093
-314.097
-314.098
-314.097
-314.093
-314.088
-314.081
-314.073
-314.065
-314.056
-314.046
-314.035
-314.024
-314.012
-314.001
-313.989
-313.977
-313.964
-313.952
-313.94
-313.928
-313.916
-313.905
-313.895
-313.884
-313.872
-313.862
-313.851
-313.841
-313.832
-313.823
-313.812
-313.803
-313.791
-313.792
-312.917
-313.575
-313.911
-314.037
-314.087
-314.113
-314.13
-314.142
-314.148
-314.152
-314.153
-314.153
-314.151
-314.147
-314.141
-314.135
-314.128
-314.12
-314.111
-314.1
-314.089
-314.077
-314.066
-314.054
-314.043
-314.031
-314.018
-314.006
-313.994
-313.983
-313.973
-313.964
-313.951
-313.939
-313.929
-313.919
-313.909
-313.9
-313.891
-313.878
-313.869
-313.862
-313.837
-312.958
-313.659
-314.014
-314.134
-314.174
-314.191
-314.2
-314.207
-314.211
-314.215
-314.218
-314.219
-314.218
-314.214
-314.209
-314.203
-314.197
-314.188
-314.177
-314.166
-314.154
-314.142
-314.135
-314.126
-314.114
-314.101
-314.085
-314.071
-314.058
-314.047
-314.043
-314.036
-314.016
-314.002
-313.994
-313.983
-313.971
-313.965
-313.956
-313.938
-313.933
-313.934
-313.945
-312.771
-313.573
-313.984
-314.151
-314.222
-314.256
-314.267
-314.272
-314.272
-314.271
-314.27
-314.268
-314.263
-314.254
-314.249
-314.247
-314.242
-314.227
-314.217
-314.211
-314.2
-314.185
-314.174
-314.15
-314.133
-314.117
-314.096
-314.085
-314.083
-314.085
-314.092
-314.073
-314.027
-314.023
-314.033
-314.025
-314.013
-314.017
-314.006
-313.973
-313.985
-313.996
-313.944
-313.704
-314.514
-314.446
-314.377
-314.375
-314.366
-314.321
-314.3
-314.299
-314.31
-314.341
-314.367
-314.384
-314.386
-314.401
-314.408
-314.392
-314.366
-314.378
-314.369
-314.324
-314.282
-314.293
-314.283
-314.325
-314.346
-314.346
-314.369
-314.383
-314.368
-314.359
-314.268
-314.198
-314.327
-314.359
-314.29
-314.271
-314.283
-314.23
-314.154
-314.238
-314.256
-314.116
17.0376
22.6997
24.5674
25.6351
26.3096
26.7174
26.9826
27.1398
27.2501
27.3324
27.3941
27.4721
27.4671
27.4644
27.4357
27.3323
27.2281
27.0185
26.7715
26.4521
26.0719
25.6173
25.0815
24.4811
23.8052
23.0674
22.2566
21.3912
20.4496
19.4544
18.3991
17.301
16.1526
14.9379
13.6796
12.3694
11.0141
9.61769
8.17023
6.67276
5.10142
3.69248
3.08321
44.798
43.6504
42.3143
41.0675
39.9239
38.852
37.8924
36.9849
36.1688
35.3974
34.6668
33.9913
33.3328
32.6881
32.0682
31.4292
30.809
30.17
29.5325
28.8706
28.1929
27.4916
26.7611
26.0195
25.2223
24.4088
23.5561
22.676
21.7457
20.7824
19.7844
18.7358
17.6555
16.5259
15.3616
14.1549
12.9099
11.6257
10.3026
8.92499
7.48065
6.23453
5.78611
64.093
63.6177
62.8057
61.8942
60.9007
59.8169
58.6503
57.422
56.1406
54.8233
53.471
52.0983
50.697
49.2988
47.8994
46.4929
45.0835
43.6911
42.2913
40.8945
39.5094
38.1262
36.7351
35.363
33.9751
32.5905
31.1937
29.8023
28.3916
26.9662
25.5452
24.1001
22.6479
21.1799
19.6952
18.1956
16.6813
15.1468
13.6063
12.0353
10.4105
8.99974
8.86313
69.0502
68.6522
67.9213
67.0549
66.1078
65.0808
63.9708
62.7954
61.5682
60.2986
58.9886
57.6559
56.294
54.9064
53.5059
52.0917
50.6572
49.2253
47.7704
46.31
44.848
43.3709
41.8866
40.3929
38.8876
37.3748
35.8478
34.3183
32.7745
31.2079
29.6432
28.0549
26.4507
24.8371
23.2069
21.5623
19.9103
18.2406
16.5545
14.8488
13.0997
11.531
11.1312
73.3024
73.0359
72.5337
71.9172
71.2192
70.4254
69.5379
68.5639
67.5057
66.368
65.1616
63.8825
62.5507
61.1555
59.7188
58.2354
56.7125
55.1619
53.5777
51.9769
50.3484
48.7015
47.0458
45.3774
43.6925
42.0027
40.3032
38.5918
36.884
35.1518
33.424
31.6855
29.9308
28.1715
26.401
24.6188
22.8272
21.0286
19.2202
17.3975
15.5491
13.788
12.6572
74.739
74.5313
74.1094
73.5775
72.9755
72.2915
71.524
70.6728
69.7469
68.7489
67.6793
66.5419
65.3424
64.0813
62.764
61.3946
59.9705
58.5065
56.9922
55.4468
53.8558
52.2341
50.586
48.9076
47.2
45.479
43.7315
41.9614
40.1813
38.3806
36.5641
34.7386
32.8939
31.0421
29.176
27.2983
25.4158
23.5169
21.6011
19.6845
17.7499
15.8005
13.8295
75.52
75.3614
75.0256
74.5956
74.1047
73.5426
72.9036
72.187
71.3964
70.5304
69.5896
68.5795
67.4973
66.3451
65.1311
63.8515
62.5118
61.1144
59.6642
58.1623
56.614
55.021
53.3881
51.718
50.0044
48.2735
46.5048
44.7153
42.8957
41.0558
39.1979
37.3209
35.4205
33.5087
31.58
29.6368
27.6776
25.7107
23.7189
21.7202
19.7172
17.6569
15.1276
75.4161
75.2865
75.0013
74.629
74.2052
73.72
73.166
72.5437
71.8523
71.0943
70.2663
69.3716
68.4098
67.3803
66.2845
65.1217
63.8976
62.609
61.2625
59.8558
58.3964
56.8782
55.315
53.7072
52.0474
50.3488
48.6091
46.8388
45.033
43.1883
41.3222
39.4297
37.5118
35.5718
33.61
31.6288
29.6238
27.6116
25.5769
23.526
21.4689
19.3867
16.926
74.9424
74.8322
74.5919
74.2746
73.911
73.4923
73.0121
72.4696
71.8648
71.1964
70.4634
69.667
68.8042
67.8747
66.88
65.8203
64.6946
63.5067
62.2529
60.94
59.5677
58.1345
56.6458
55.1022
53.5061
51.8628
50.1756
48.4403
46.6661
44.8519
43.0012
41.1185
39.2041
37.2603
35.2895
33.2985
31.2787
29.2391
27.1781
25.094
22.9834
20.9185
19.2292
74.083
73.9857
73.7754
73.4973
73.1773
72.8087
72.3855
71.9065
71.3708
70.7777
70.1248
69.4128
68.6402
67.8034
66.9054
65.9438
64.9175
63.8276
62.6735
61.4561
60.1772
58.8335
57.4319
55.9713
54.4553
52.8795
51.2566
49.5823
47.8553
46.0899
44.2762
42.421
40.5318
38.6057
36.6466
34.6549
32.6387
30.5959
28.5233
26.4165
24.2629
22.1812
20.6978
72.9989
72.9151
72.732
72.4872
72.2063
71.8805
71.5059
71.0799
70.6029
70.0725
69.4878
68.8469
68.1492
67.3917
66.5763
65.6975
64.7589
63.7562
62.6917
61.5644
60.3716
59.1169
57.8019
56.4234
54.9867
53.4903
51.9357
50.3287
48.6663
46.9523
45.1934
43.3839
41.5342
39.6407
37.712
35.7414
33.7366
31.7
29.6332
27.524
25.3644
23.29
21.8391
71.7304
71.6565
71.494
71.2765
71.0249
70.7337
70.398
70.0165
69.5872
69.11
68.5824
68.003
67.3712
66.6833
65.9396
65.1388
64.2771
63.3568
62.3731
61.3297
60.223
59.0533
57.8211
56.5262
55.1687
53.751
52.2743
50.7364
49.1432
47.4936
45.7936
44.041
42.2396
40.3869
38.4958
36.56
34.5865
32.5792
30.5401
28.4504
26.3326
24.38
23.1228
70.3319
70.2663
70.1215
69.9262
69.7008
69.4385
69.1365
68.7915
68.404
67.9717
67.493
66.9666
66.3907
65.7634
65.0826
64.3476
63.5566
62.7073
61.7995
60.8304
59.8029
58.7104
57.5574
56.343
55.0654
53.7229
52.3229
50.8588
49.3386
47.7572
46.1182
44.4267
42.6807
40.8833
39.037
37.1481
35.2114
33.2345
31.2255
29.17
27.0787
25.1116
23.8336
68.8248
68.7676
68.6382
68.4617
68.2579
68.0214
67.7467
67.4346
67.082
66.6888
66.2521
65.7718
65.2449
64.6705
64.0464
63.3696
62.6411
61.8566
61.0166
60.1168
59.1611
58.1431
57.0639
55.9227
54.7204
53.4545
52.1288
50.7361
49.2875
47.7756
46.2053
44.5776
42.8892
41.1518
39.3585
37.5146
35.6257
33.6883
31.7114
29.6821
27.6094
25.6394
24.0603
67.2506
67.1983
67.0803
66.9201
66.734
66.5179
66.2682
65.9827
65.6603
65.3004
64.9006
64.4595
63.9757
63.4467
62.872
62.2474
61.5735
60.847
60.0678
59.2321
58.3397
57.3887
56.3788
55.3077
54.1761
52.9819
51.7274
50.4075
49.0286
47.5855
46.0811
44.5182
42.8954
41.2151
39.4806
37.6896
35.8486
33.9572
32.0228
30.0418
28.0178
26.0664
24.504
65.592
65.549
65.4437
65.2984
65.1303
64.9342
64.7068
64.4452
64.1509
63.8205
63.4534
63.048
62.6021
62.1146
61.5832
61.0062
60.3815
59.7075
58.9822
58.2048
57.3715
56.4822
55.5369
54.5301
53.4653
52.3387
51.1518
49.9003
48.5875
47.214
45.778
44.2779
42.7208
41.1006
39.4231
37.6905
35.9028
34.0592
32.164
30.2179
28.2242
26.2602
24.3687
63.9146
63.8729
63.7754
63.6415
63.487
63.3063
63.0957
62.8563
62.5839
62.2793
61.9407
61.5656
61.1531
60.7018
60.2085
59.6733
59.0923
58.4655
57.7888
57.0633
56.285
55.4512
54.5642
53.6188
52.6156
51.552
50.4293
49.2436
47.9964
46.6875
45.3163
43.8803
42.3843
40.8267
39.2101
37.5316
35.7951
34.0044
32.1537
30.244
28.2775
26.3081
24.3432
62.173
62.1393
62.0526
61.9319
61.7904
61.6252
61.4332
61.2116
60.9616
60.6802
60.3669
60.0202
59.638
59.2191
58.7615
58.2629
57.7223
57.1373
56.5059
55.8264
55.0982
54.3169
53.4828
52.5931
51.6473
50.6429
49.5803
48.4573
47.2711
46.0239
44.7168
43.3438
41.9114
40.4147
38.8563
37.2388
35.5609
33.8243
32.0283
30.1727
28.268
26.3767
24.6326
60.4365
60.4041
60.3215
60.2077
60.0761
59.9227
59.7433
59.5384
59.3053
59.0443
58.753
58.4305
58.0748
57.6841
57.2575
56.793
56.2877
55.7414
55.1507
54.5142
53.8302
53.097
52.3121
51.4739
50.5817
49.6324
48.6261
47.5608
46.435
45.2477
43.9998
42.6886
41.3143
39.8791
38.3798
36.8176
35.1956
33.511
31.7674
29.9575
28.0864
26.2357
24.4131
58.6493
58.6222
58.5493
58.4458
58.3261
58.1843
58.02
57.8298
57.6144
57.3716
57.1013
56.801
56.4696
56.1057
55.7074
55.2728
54.8006
54.2884
53.7349
53.1374
52.4951
51.805
51.0661
50.2754
49.4333
48.5347
47.5817
46.5708
45.5006
44.3709
43.18
41.9264
40.611
39.234
37.7939
36.2892
34.7247
33.0987
31.4103
29.6615
27.85
26.0673
24.6306
56.8618
56.8362
56.7678
56.672
56.5605
56.4299
56.2764
56.1001
55.8988
55.6735
55.4208
55.1409
54.8315
54.4912
54.1186
53.712
53.2694
52.7888
52.2694
51.7079
51.1035
50.4534
49.7567
49.01
48.2138
47.364
46.4603
45.5004
44.4828
43.4062
42.2709
41.0736
39.8156
38.4923
37.1089
35.6623
34.151
32.5791
30.9461
29.2482
27.4865
25.7243
24.3378
55.0614
55.0379
54.9753
54.8868
54.7828
54.6613
54.5184
54.3539
54.1671
53.9562
53.7209
53.4587
53.169
52.8503
52.5014
52.1198
51.704
51.2528
50.7639
50.2357
49.6657
49.0529
48.3948
47.6895
46.9354
46.1301
45.2728
44.3609
43.3931
42.3683
41.2846
40.1394
38.9358
37.668
36.3388
34.9467
33.489
31.9693
30.3861
28.7337
27.0061
25.236
23.6659
53.2324
53.2145
53.1601
53.0789
52.9849
52.8725
52.7416
52.5889
52.4155
52.219
51.9992
51.7544
51.4837
51.1853
50.8578
50.4996
50.1093
49.6844
49.2245
48.7267
48.1892
47.6107
46.9885
46.3215
45.6072
44.8433
44.0296
43.1628
42.2422
41.2648
40.2307
39.1372
37.9845
36.7694
35.4922
34.1529
32.7496
31.283
29.7493
28.1475
26.4729
24.7659
23.1964
51.4163
51.4002
51.3486
51.2739
51.1864
51.0831
50.9605
50.8188
50.6562
50.4729
50.2677
50.0386
49.7844
49.5042
49.1967
48.8596
48.4923
48.0925
47.6585
47.1885
46.6807
46.1339
45.5453
44.9133
44.2368
43.5122
42.739
41.9141
41.0375
40.1062
39.119
38.073
36.9695
35.806
34.5801
33.2916
31.942
30.5277
29.0479
27.5022
25.8923
24.2728
22.7493
49.5907
49.5772
49.5317
49.4638
49.3827
49.2872
49.1734
49.0412
48.8898
48.7189
48.526
48.3109
48.0727
47.8092
47.5202
47.2029
46.8568
46.4801
46.0702
45.6267
45.1468
44.6294
44.0721
43.4727
42.8304
42.1425
41.4074
40.623
39.7872
38.8991
37.9562
36.957
35.8999
34.7848
33.6088
32.3703
31.0707
29.708
28.2813
26.7884
25.2345
23.675
22.1936
47.7806
47.768
47.7238
47.6591
47.5836
47.4928
47.387
47.2628
47.1211
46.9601
46.7796
46.5772
46.3531
46.1055
45.8327
45.5338
45.2072
44.8513
44.4642
44.0447
43.5905
43.1001
42.572
42.004
41.394
40.7403
40.0409
39.294
38.4973
37.6502
36.749
35.7945
34.7822
33.7132
32.5838
31.3945
30.1436
28.83
27.4507
26.0056
24.4911
22.9493
21.425
45.9615
45.9492
45.9099
45.851
45.7799
45.6974
45.5978
45.4822
45.3488
45.1983
45.028
44.8385
44.6274
44.3944
44.1372
43.8552
43.5466
43.2103
42.8444
42.4476
42.0174
41.5529
41.0515
40.512
39.9324
39.3108
38.6446
37.9335
37.1737
36.3648
35.5041
34.5909
33.621
32.5969
31.513
30.3705
29.1673
27.9024
26.5739
25.1781
23.7116
22.2196
20.8405
44.1312
44.1233
44.0901
44.0357
43.973
43.8964
43.8043
43.6969
43.5731
43.4322
43.2725
43.0944
42.8963
42.6763
42.4342
42.168
41.8771
41.559
41.2129
40.8365
40.4291
39.988
39.5124
39
38.449
37.8575
37.2234
36.545
35.8208
35.048
34.2254
33.3514
32.4232
31.4405
30.401
29.3032
28.1462
26.9291
25.6498
24.308
22.8986
21.4663
20.2093
42.3234
42.3159
42.284
42.2341
42.1742
42.1018
42.0163
41.9161
41.7999
41.6675
41.5179
41.3507
41.1636
40.9568
40.7279
40.4769
40.2016
39.9005
39.5728
39.2161
38.8299
38.4114
37.9595
37.4725
36.9479
36.3848
35.7804
35.1336
34.4418
33.7038
32.9172
32.0802
31.1917
30.2486
29.251
28.1961
27.0834
25.9121
24.6805
23.3871
22.0357
20.6668
19.3494
40.5117
40.5065
40.4774
40.4307
40.3758
40.3093
40.2303
40.1359
40.0281
39.9039
39.7638
39.6062
39.4301
39.2348
39.0193
38.7815
38.521
38.2366
37.9255
37.5879
37.2211
36.8236
36.3941
35.9308
35.4315
34.895
34.319
33.7015
33.0409
32.3351
31.5831
30.7814
29.9299
29.0253
28.0673
27.0539
25.9835
24.8558
23.6696
22.4244
21.1211
19.8003
18.6099
38.6912
38.6894
38.6662
38.6262
38.5765
38.5165
38.4436
38.3576
38.2568
38.1408
38.0099
37.8612
37.6962
37.5123
37.3084
37.0844
36.838
36.5683
36.2737
35.9527
35.6048
35.2274
34.819
34.3779
33.9026
33.391
32.8415
32.2521
31.6211
30.946
30.2263
29.4583
28.6419
27.7736
26.8532
25.8789
24.8482
23.7603
22.6145
21.4078
20.1368
18.8208
17.6297
36.8964
36.8939
36.8726
36.8345
36.7889
36.7336
36.6657
36.5848
36.4905
36.3824
36.2585
36.1202
35.9645
35.7906
35.5984
35.3865
35.1533
34.8979
34.6188
34.3148
33.9838
33.6248
33.2363
32.8161
32.363
31.8754
31.3507
30.7874
30.1844
29.5385
28.8493
28.1134
27.3301
26.497
25.612
24.6743
23.6821
22.632
21.5252
20.355
19.1172
17.8142
16.5453
35.1114
35.1115
35.0914
35.0558
35.013
34.9602
34.8963
34.8206
34.7317
34.6297
34.5141
34.3832
34.2357
34.0718
33.8905
33.6896
33.4687
33.2264
32.962
32.6727
32.3582
32.0169
31.647
31.2468
30.8148
30.3494
29.8487
29.3102
28.7335
28.1153
27.4551
26.7495
25.998
25.1977
24.3473
23.4452
22.4894
21.4786
20.4103
19.282
18.0916
16.848
15.5798
33.2975
33.3021
33.2909
33.262
33.2259
33.18
33.1232
33.0536
32.9722
32.8782
32.77
32.6468
32.5088
32.3548
32.1834
31.994
31.7846
31.5553
31.3039
31.0295
30.7302
30.4055
30.0532
29.6716
29.2597
28.8153
28.3369
27.8222
27.2702
26.6782
26.0453
25.3688
24.6471
23.8786
23.0606
22.1928
21.2722
20.2984
19.2689
18.1831
17.0433
15.876
14.66
31.5317
31.5361
31.5239
31.4963
31.4613
31.4179
31.3644
31.2997
31.2239
31.1348
31.0328
30.9173
30.787
30.6418
30.4796
30.3001
30.1021
29.8844
29.646
29.3852
29.1009
28.7916
28.456
28.0922
27.6989
27.2745
26.8172
26.325
25.7963
25.2294
24.6222
23.9733
23.2798
22.5415
21.7546
20.9194
20.0328
19.0958
18.105
17.0644
15.9806
14.8912
13.8968
29.7618
29.7663
29.7577
29.7326
29.7011
29.6625
29.6128
29.5528
29.4812
29.3984
29.3024
29.1936
29.071
28.9333
28.7804
28.6108
28.4227
28.216
27.9891
27.7411
27.4705
27.176
26.8559
26.5088
26.1336
25.728
25.2906
24.8197
24.3134
23.7702
23.1877
22.5648
21.8985
21.1881
20.4308
19.6256
18.7691
17.862
16.8996
15.8793
14.8001
13.6729
12.4817
27.987
27.9963
27.9919
27.9713
27.9446
27.9091
27.8638
27.8087
27.7429
27.6649
27.5756
27.4739
27.3581
27.2287
27.0838
26.9229
26.7451
26.5491
26.3341
26.0983
25.8406
25.5599
25.2547
24.9238
24.5652
24.1773
23.7591
23.308
22.8232
22.3022
21.7431
21.1448
20.5046
19.8207
19.0918
18.3156
17.4895
16.6131
15.6823
14.6952
13.6546
12.575
11.3644
26.2479
26.2554
26.249
26.2292
26.2029
26.1695
26.1274
26.0761
26.0135
25.9406
25.857
25.7604
25.6516
25.5285
25.3924
25.2398
25.0712
24.885
24.68
24.456
24.2109
23.9434
23.6524
23.3361
22.9939
22.6232
22.2228
21.7911
21.3262
20.8268
20.2901
19.7151
19.1
18.4418
17.7397
16.9916
16.1947
15.3485
14.4495
13.4958
12.4937
11.4633
10.3172
24.5013
24.5077
24.5044
24.487
24.4639
24.4329
24.3945
24.3462
24.2884
24.2208
24.1418
24.0515
23.9489
23.8336
23.704
23.5599
23.4005
23.2235
23.0293
22.816
22.5827
22.3277
22.0499
21.7484
21.4213
21.0668
20.6838
20.2702
19.8246
19.3455
18.8304
18.2778
17.6861
17.0529
16.3765
15.6549
14.8863
14.0692
13.2015
12.2811
11.3114
10.3155
9.3498
22.7639
22.7713
22.7679
22.7525
22.7304
22.7028
22.6674
22.6233
22.5694
22.506
22.4326
22.3479
22.2509
22.142
22.02
21.8839
21.7325
21.5652
21.3804
21.178
20.9558
20.7129
20.4481
20.1604
19.8476
19.5086
19.1416
18.7457
18.3185
17.8588
17.364
16.8333
16.2641
15.6549
15.0034
14.3072
13.5652
12.7752
11.9346
11.041
10.0897
9.08665
8.15224
20.9877
20.9984
21.0059
20.9979
20.9836
20.9631
20.9339
20.8958
20.8486
20.7916
20.7239
20.6456
20.5558
20.4544
20.3395
20.211
20.0682
19.9095
19.7346
19.542
19.3309
19.0994
18.8468
18.5719
18.2732
17.9491
17.5983
17.2192
16.8096
16.3684
15.8939
15.3836
14.8362
14.2495
13.6219
12.9507
12.2342
11.4704
10.6557
9.78774
8.85966
7.86585
6.87824
19.2773
19.2874
19.2903
19.2813
19.2675
19.2473
19.2207
19.1853
19.1414
19.0881
19.0253
18.952
18.8683
18.7727
18.6649
18.5433
18.408
18.258
18.0918
17.9091
17.7082
17.4882
17.2478
16.9855
16.7001
16.3899
16.054
15.6906
15.298
14.8749
14.4192
13.9291
13.4028
12.8385
12.2338
11.5873
10.8962
10.1587
9.3714
8.53212
7.63786
6.6873
5.68865
17.5433
17.5561
17.5652
17.5614
17.5504
17.5344
17.5112
17.4794
17.4401
17.3911
17.3329
17.2651
17.1863
17.0969
16.995
16.8808
16.7532
16.6113
16.4534
16.2796
16.0887
15.8789
15.6494
15.3996
15.1268
14.8308
14.5095
14.1615
13.7853
13.3793
12.942
12.4715
11.9656
11.4225
10.8406
10.2178
9.55184
8.84038
8.08026
7.26846
6.40759
5.50171
4.42311
15.8493
15.8599
15.8666
15.8603
15.8501
15.8353
15.8131
15.7841
15.7473
15.7022
15.6478
15.584
15.5105
15.4265
15.3305
15.2226
15.1025
14.9673
14.8184
14.6538
14.4722
14.2724
14.0541
13.8152
13.555
13.2719
12.9643
12.6314
12.2712
11.8818
11.462
11.0102
10.5241
10.0023
9.44247
8.84322
8.2021
7.51746
6.78648
6.00654
5.182
4.33294
3.41164
14.1487
14.1598
14.1658
14.1617
14.1536
14.1398
14.1202
14.0943
14.0606
14.0184
13.9682
13.909
13.8404
13.7612
13.6715
13.5702
13.4559
13.3295
13.1879
13.0317
12.8589
12.669
12.461
12.2336
11.9854
11.7146
11.4209
11.102
10.757
10.3836
9.98076
9.54695
9.07993
8.57811
8.03977
7.46302
6.84616
6.18743
5.48491
4.73749
3.94744
3.1365
2.34211
12.4375
12.448
12.4583
12.4584
12.4526
12.443
12.4276
12.4053
12.3747
12.3378
12.2923
12.2374
12.1738
12.1005
12.0161
11.9208
11.8141
11.6939
11.5603
11.412
11.2483
11.0678
10.8695