/*--------------------------------*- C++ -*----------------------------------*\
| =========                 |                                                 |
| \\      /  F ield         | OpenFOAM: The Open Source CFD Toolbox           |
|  \\    /   O peration     | Version:  2.3.0                                 |
|   \\  /    A nd           | Web:      www.OpenFOAM.org                      |
|    \\/     M anipulation  |                                                 |
\*---------------------------------------------------------------------------*/
FoamFile
{
    version     2.0;
    format      ascii;
    class       surfaceScalarField;
    location    "10000";
    object      phi;
}
// * * * * * * * * * * * * * * * * * * * * * * * * * * * * * * * * * * * * * //

dimensions      [0 3 -1 0 0 0 0];

internalField   nonuniform List<scalar> 
240188
(
0.00106141
-0.00029317
0.000320588
-0.00108883
0.00104053
-0.000261902
0.000282779
0.00102431
-0.000231973
0.000248201
0.00101332
-0.000204224
0.000215209
0.00100739
-0.000177882
0.000183814
0.00100518
-0.000153008
0.000155221
0.00100673
-0.000129265
0.000127707
0.00101205
-0.000107216
0.000101897
0.00102018
-8.56812e-05
7.755e-05
0.00103078
-6.50462e-05
5.4447e-05
0.00104393
-4.64628e-05
3.33117e-05
0.00105871
-2.80234e-05
1.32434e-05
0.00107595
-1.10234e-05
-6.21069e-06
0.00109394
6.1579e-06
-2.41526e-05
0.00111381
2.13371e-05
-4.1204e-05
0.00113383
3.60693e-05
-5.60866e-05
0.00115496
5.04385e-05
-7.15752e-05
0.00117696
6.37873e-05
-8.57831e-05
0.00119891
7.67784e-05
-9.873e-05
0.00122121
8.89534e-05
-0.000111252
0.00124359
0.000100961
-0.000123345
0.00126497
0.000113063
-0.000134439
0.00128595
0.000123486
-0.000144468
0.00130619
0.000134076
-0.000154315
0.00132558
0.000144842
-0.000164231
0.00134462
0.000155102
-0.000174137
0.00136141
0.000164694
-0.000181488
0.00137754
0.000174763
-0.000190893
0.00139182
0.000184413
-0.000198687
0.00140399
0.000194726
-0.000206896
0.00141594
0.000203644
-0.000215594
0.0014244
0.000213289
-0.000221751
0.00143122
0.000223847
-0.000230675
0.00143518
0.0002343
-0.000238255
0.00143861
0.000243336
-0.000246762
0.00143907
0.000254731
-0.000255192
0.00143802
0.000264703
-0.000263661
0.00143584
0.000275827
-0.000273643
0.00143191
0.000286731
-0.000282803
0.00143055
0.000297121
-0.000295762
0.00143142
0.000308346
-0.000309211
0.00144419
0.000316232
-0.000328999
0.000320816
0.00147873
-0.000355358
0.000992715
-0.000269454
-0.00101643
0.000974237
-0.000243425
0.000961068
-0.000218804
0.000951841
-0.000194997
0.000946539
-0.00017258
0.000945228
-0.000151697
0.000946916
-0.000130953
0.000950743
-0.000111042
0.000957897
-9.2836e-05
0.00096826
-7.54091e-05
0.000979552
-5.77547e-05
0.000993358
-4.18288e-05
0.00100863
-2.6295e-05
0.00102594
-1.11575e-05
0.00104355
3.72833e-06
0.00106255
1.7073e-05
0.00108277
3.02203e-05
0.00110323
4.3327e-05
0.00112508
5.49266e-05
0.00114595
6.80851e-05
0.0011679
7.90094e-05
0.00118992
9.10419e-05
0.00121191
0.0001015
0.00123359
0.000112392
0.00125491
0.000123527
0.00127661
0.000133392
0.00129764
0.000143671
0.00131782
0.000154583
0.00133824
0.000163992
0.00135883
0.000174133
0.00137858
0.000183896
0.00139741
0.000194463
0.00141779
0.000203461
0.00143755
0.000214539
0.00145818
0.000222712
0.00147994
0.000232974
0.00150196
0.000242679
0.00152759
0.000250194
0.00155613
0.000258189
0.00158684
0.000266419
0.00162373
0.000271451
0.00166597
0.000273998
0.000276824
0.00170996
0.000925026
-0.000249361
-0.000945119
0.000909454
-0.000227853
0.000897542
-0.000206892
0.000889586
-0.000187041
0.000885453
-0.000168447
0.000883556
-0.0001498
0.000885291
-0.000132688
0.00088973
-0.000115481
0.000896674
-9.97799e-05
0.000905052
-8.37868e-05
0.000915868
-6.85714e-05
0.000928979
-5.49396e-05
0.000942722
-4.00375e-05
0.000958069
-2.65045e-05
0.000974879
-1.30825e-05
0.000993035
-1.08292e-06
0.00101145
1.1806e-05
0.00103085
2.39276e-05
0.00105089
3.48847e-05
0.00107143
4.75434e-05
0.00109228
5.81614e-05
0.00111414
6.9185e-05
0.00113596
7.96816e-05
0.00115773
9.06181e-05
0.00117904
0.000102217
0.00120097
0.000111461
0.00122227
0.000122375
0.00124403
0.000132823
0.00126597
0.000142053
0.0012872
0.000152898
0.00130757
0.00016353
0.00132933
0.000172697
0.00135148
0.000181319
0.00137414
0.000191875
0.00139494
0.000201909
0.00141909
0.000208827
0.00144438
0.000217382
0.00146959
0.000224989
0.00149647
0.00023131
0.00152688
0.000236006
0.00155796
0.000240378
0.00159113
0.000240828
0.000238497
0.00162945
0.000859677
-0.000231922
-0.000877116
0.000845734
-0.00021391
0.000834957
-0.000196114
0.000828212
-0.000180297
0.000823982
-0.000164217
0.000822594
-0.000148412
0.000823778
-0.000133872
0.00082716
-0.000118862
0.000832652
-0.000105272
0.000840344
-9.1479e-05
0.000849553
-7.77804e-05
0.000860032
-6.54186e-05
0.000872759
-5.2765e-05
0.000886265
-4.00097e-05
0.000901703
-2.85211e-05
0.000916765
-1.61449e-05
0.000933486
-4.91451e-06
0.000950926
6.48691e-06
0.000969056
1.67553e-05
0.000988336
2.82627e-05
0.00100712
3.93788e-05
0.00102684
4.94658e-05
0.00104651
6.00137e-05
0.00106685
7.02775e-05
0.00108796
8.11034e-05
0.00110765
9.17722e-05
0.00112886
0.000101165
0.00115031
0.00011137
0.00117018
0.000122183
0.00119132
0.000131761
0.00121272
0.000142129
0.00123447
0.000150945
0.00125409
0.000161702
0.00127634
0.000169624
0.00129904
0.000179211
0.00132085
0.000187018
0.00134313
0.000195101
0.00136733
0.000200787
0.00139208
0.000206563
0.00141745
0.000210632
0.00144499
0.000212838
0.00147277
0.000213054
0.000212354
0.00149891
0.000796573
-0.000215588
-0.000812907
0.000783913
-0.00020125
0.000774931
-0.000187132
0.000767653
-0.000173018
0.000763681
-0.000160246
0.000761954
-0.000146685
0.000762399
-0.000134317
0.000765257
-0.000121719
0.00077024
-0.000110255
0.000776036
-9.72755e-05
0.000784947
-8.66917e-05
0.000793987
-7.44579e-05
0.000804632
-6.34108e-05
0.000816405
-5.17824e-05
0.000829155
-4.12709e-05
0.000843404
-3.03938e-05
0.000857727
-1.92376e-05
0.00087324
-9.0259e-06
0.000889317
6.78127e-07
0.000905787
1.17927e-05
0.000924071
2.1095e-05
0.000941609
3.19277e-05
0.000959809
4.18133e-05
0.000977833
5.22539e-05
0.000996352
6.25839e-05
0.00101636
7.17693e-05
0.00103491
8.26111e-05
0.0010538
9.24784e-05
0.00107389
0.000102094
0.0010932
0.000112448
0.00111374
0.000121588
0.00113329
0.000131401
0.00115422
0.000140769
0.00117294
0.000150906
0.00119405
0.000158098
0.00121545
0.000165616
0.00123698
0.000173578
0.00125733
0.000180435
0.00127915
0.000184738
0.00130244
0.000187345
0.00132421
0.00019107
0.0013473
0.000189966
0.000188264
0.00137139
0.000736573
-0.000200609
-0.000751552
0.000724691
-0.000189369
0.000716047
-0.000178487
0.000709906
-0.000166877
0.000705091
-0.000155431
0.000704119
-0.000145713
0.000704128
-0.000134327
0.000706309
-0.0001239
0.000709065
-0.000113012
0.000715411
-0.000103621
0.000721328
-9.26084e-05
0.000729263
-8.23936e-05
0.000738249
-7.23965e-05
0.000749125
-6.26588e-05
0.000760785
-5.29305e-05
0.000772245
-4.18543e-05
0.000785521
-3.25138e-05
0.000799346
-2.28502e-05
0.0008127
-1.26764e-05
0.000828009
-3.51577e-06
0.000843408
5.69567e-06
0.000859558
1.57776e-05
0.000875507
2.58641e-05
0.000892968
3.47928e-05
0.000909991
4.55616e-05
0.000927445
5.43151e-05
0.00094525
6.48058e-05
0.000963481
7.42472e-05
0.000980829
8.47458e-05
0.000999359
9.39191e-05
0.00101697
0.000103975
0.00103561
0.000112764
0.00105308
0.000123299
0.00107289
0.000131097
0.00109154
0.000139447
0.00111018
0.000146976
0.00112999
0.000153767
0.00114966
0.000160762
0.00117063
0.000163771
0.00119001
0.000167961
0.00121052
0.000170564
0.0012306
0.000169886
0.000167181
0.00125168
0.000679566
-0.000187811
-0.000692364
0.000668852
-0.000178655
0.0006603
-0.000169936
0.000654275
-0.000160852
0.000651122
-0.000152278
0.000648254
-0.000142845
0.000647936
-0.000134008
0.000649372
-0.000125336
0.000652428
-0.000116068
0.000656211
-0.000107404
0.00066232
-9.87178e-05
0.00066909
-8.91626e-05
0.000677419
-8.07264e-05
0.000685952
-7.11911e-05
0.000695175
-6.21537e-05
0.000706206
-5.28858e-05
0.000717579
-4.38859e-05
0.00072901
-3.42812e-05
0.000742054
-2.57209e-05
0.000754636
-1.60978e-05
0.000768999
-8.66705e-06
0.000783276
1.50074e-06
0.000797969
1.11708e-05
0.000812283
2.04793e-05
0.00082874
2.91039e-05
0.000843762
3.92937e-05
0.000860196
4.83712e-05
0.000875822
5.86217e-05
0.000892593
6.79748e-05
0.000909378
7.71336e-05
0.000926152
8.72016e-05
0.000942926
9.59902e-05
0.000960694
0.000105531
0.000978319
0.000113472
0.000994682
0.000123084
0.00101207
0.000129584
0.0010292
0.000136639
0.00104878
0.000141186
0.00106541
0.00014714
0.00108432
0.000149052
0.00110294
0.000151945
0.00112254
0.00015028
0.000149731
0.00113999
0.000625597
-0.000176057
-0.000637352
0.000616265
-0.000169322
0.000608177
-0.000161848
0.000602733
-0.000155408
0.000598027
-0.000147573
0.000596224
-0.000141042
0.00059559
-0.000133374
0.000596241
-0.000125987
0.000598907
-0.000118735
0.000602171
-0.000110668
0.000606428
-0.000102975
0.000612542
-9.52772e-05
0.000618966
-8.71504e-05
0.000626638
-7.8863e-05
0.000635773
-7.12881e-05
0.00064524
-6.23531e-05
0.000654699
-5.33451e-05
0.000664888
-4.44699e-05
0.000675597
-3.64303e-05
0.000687881
-2.83815e-05
0.000699596
-2.03826e-05
0.000712277
-1.11797e-05
0.000725905
-2.45768e-06
0.000740031
6.35374e-06
0.000753395
1.57397e-05
0.000767096
2.55932e-05
0.000781036
3.44307e-05
0.000797228
4.24298e-05
0.000812561
5.26422e-05
0.000826798
6.28963e-05
0.000843155
7.08444e-05
0.000858329
8.0816e-05
0.000874166
8.9695e-05
0.000888737
9.89008e-05
0.000905422
0.000106398
0.000921876
0.00011313
0.000938129
0.000120386
0.000953981
0.000125334
0.000970731
0.00013039
0.000987022
0.000132761
0.00100435
0.000134616
0.001021
0.000133631
0.000132147
0.00103858
0.000575611
-0.000586659
-0.000165008
0.000565985
-0.000159696
0.00055888
-0.000154743
0.000553397
-0.000149925
0.000549608
-0.000143783
0.000546388
-0.000137823
0.000545914
-0.0001329
0.00054626
-0.000126332
0.000547436
-0.000119911
0.000550842
-0.000114073
0.00055396
-0.000106093
0.000558821
-0.000100138
0.0005646
-9.29297e-05
0.000570867
-8.51298e-05
0.00057781
-7.82303e-05
0.000586667
-7.1211e-05
0.000595336
-6.2014e-05
0.000605818
-5.49515e-05
0.000615094
-4.57063e-05
0.000624174
-3.74615e-05
0.000634348
-3.05572e-05
0.000647406
-2.42371e-05
0.000658556
-1.36078e-05
0.000671214
-6.30466e-06
0.000683877
3.07678e-06
0.000696094
1.3377e-05
0.000709611
2.09136e-05
0.000722953
2.90874e-05
0.000736193
3.94021e-05
0.000751202
4.78873e-05
0.000764836
5.72108e-05
0.000778797
6.68548e-05
0.000793231
7.52613e-05
0.000808255
8.38762e-05
0.000822069
9.25843e-05
0.000836762
9.84374e-05
0.000852151
0.000104997
0.000866068
0.000111417
0.000882206
0.000114252
0.000897628
0.000117339
0.000912445
0.000119799
0.00092835
0.000117726
0.000944615
0.000115882
0.00124893
0.000300578
-7.07752e-05
0.00108291
0.000270556
-0.00010453
0.000946532
0.000238967
-0.000102594
0.00083869
0.000204193
-9.63523e-05
0.000755056
0.000172769
-8.9135e-05
0.000692974
0.000145346
-8.32641e-05
0.000649152
0.000122027
-7.82044e-05
0.000620581
0.000103528
-7.49575e-05
0.000606117
8.71642e-05
-7.26995e-05
0.000602162
7.49556e-05
-7.10011e-05
0.000608478
6.34415e-05
-6.97574e-05
0.000623694
5.3035e-05
-6.82505e-05
0.000646029
4.39042e-05
-6.624e-05
0.000674219
3.57856e-05
-6.39753e-05
0.00070831
2.67988e-05
-6.089e-05
0.000747587
1.81036e-05
-5.738e-05
0.000791471
8.9918e-06
-5.28757e-05
0.000838859
-3.73184e-08
-4.73511e-05
0.000889844
-9.82885e-06
-4.11566e-05
0.000943114
-1.96143e-05
-3.36559e-05
0.00100005
-3.10106e-05
-2.59267e-05
0.00105872
-4.28151e-05
-1.58523e-05
0.00111931
-5.4821e-05
-5.77123e-06
0.00118094
-6.78529e-05
6.22146e-06
0.00124294
-8.1354e-05
1.93603e-05
0.00130482
-9.54117e-05
3.35329e-05
0.0013676
-0.000112199
4.94114e-05
0.00142859
-0.00012744
6.64521e-05
0.00148938
-0.000146228
8.54408e-05
0.00154798
-0.0001638
0.000105198
0.00160526
-0.000184274
0.000126994
0.00165958
-0.000205149
0.00015083
0.00171185
-0.000227538
0.000175261
0.00175925
-0.00025053
0.000203131
0.00180325
-0.00027577
0.000231774
0.00184306
-0.000302157
0.00026235
0.00187774
-0.000331106
0.000296421
0.00190732
-0.000360462
0.000330885
0.00193074
-0.000392461
0.000369043
0.00194814
-0.000426309
0.000408907
0.00195769
-0.000459987
0.000450441
0.0019582
-0.000498059
0.000497546
-0.000538548
0.000544182
0.00195256
0.00173422
0.00027632
0.00173343
0.000271348
0.00171275
0.000259646
0.00167568
0.00024126
0.0016314
0.000217048
0.00158401
0.000192739
0.00153649
0.000169544
0.00149462
0.000145395
0.00145961
0.000122178
0.00143141
0.000103152
0.00141234
8.25181e-05
0.00139954
6.58286e-05
0.00139481
4.86354e-05
0.00139714
3.34527e-05
0.00140508
1.88669e-05
0.00141759
5.59231e-06
0.00143513
-8.55139e-06
0.00145564
-2.05497e-05
0.00148063
-3.48215e-05
0.00150844
-4.74192e-05
0.0015377
-6.02723e-05
0.00156773
-7.2845e-05
0.00159976
-8.68529e-05
0.00163169
-9.97783e-05
0.00166581
-0.000115476
0.00169946
-0.000129063
0.00173193
-0.000144664
0.00176483
-0.000160346
0.00179473
-0.000176128
0.00182517
-0.000194239
0.00185332
-0.000212425
0.00187993
-0.000231757
0.00190364
-0.000251248
0.00192548
-0.000272363
0.00194354
-0.000293831
0.00195806
-0.000316677
0.00196817
-0.00034122
0.00197496
-0.000367253
0.00197477
-0.000392272
0.0019699
-0.000421439
0.00196149
-0.000451574
0.00194418
-0.000480745
-0.000514928
0.00192056
0.00166804
0.000237737
0.00170195
0.000237437
0.00173087
0.000230724
0.00175118
0.000220949
0.00176111
0.000207117
0.00176389
0.000189963
0.00176296
0.000170473
0.00175698
0.000151368
0.0017494
0.000129759
0.00174273
0.000109826
0.00173531
8.99415e-05
0.00173057
7.05599e-05
0.00172765
5.15564e-05
0.00172661
3.44959e-05
0.00172747
1.80066e-05
0.00173142
1.64044e-06
0.00173829
-1.54214e-05
0.00174656
-2.88145e-05
0.00175609
-4.43531e-05
0.00176772
-5.90554e-05
0.00177993
-7.24817e-05
0.00179449
-8.73966e-05
0.00180928
-0.000101649
0.0018257
-0.000116193
0.00184031
-0.000130091
0.00185723
-0.000145982
0.00187254
-0.00015997
0.00188728
-0.000175086
0.00190347
-0.000192317
0.00191692
-0.000207689
0.00192802
-0.000223529
0.00193758
-0.000241314
0.00194476
-0.000258432
0.00195267
-0.000280272
0.00195504
-0.000296198
0.00195527
-0.00031691
0.00195217
-0.000338119
0.00194545
-0.00036054
0.00193647
-0.000383283
0.00192182
-0.000406795
0.00190171
-0.000431463
0.00187767
-0.000456702
-0.000483593
0.00184633
0.00152806
0.000208586
0.00155904
0.000206454
0.00158859
0.000201177
0.0016167
0.000192839
0.00164226
0.000181556
0.00166287
0.000169356
0.00168166
0.000151686
0.00169727
0.00013575
0.00170848
0.000118556
0.00171778
0.000100528
0.00172699
8.07237e-05
0.0017338
6.37539e-05
0.00174136
4.3994e-05
0.0017486
2.72572e-05
0.00175579
1.08215e-05
0.00176412
-6.69174e-06
0.00177017
-2.14766e-05
0.00177995
-3.85937e-05
0.00178846
-5.28635e-05
0.00179813
-6.87282e-05
0.00180864
-8.2991e-05
0.00181746
-9.62157e-05
0.00182807
-0.000112254
0.00183769
-0.000125811
0.00184752
-0.000139919
0.00185768
-0.000156147
0.00186656
-0.000168847
0.00187386
-0.000182389
0.00188035
-0.000198806
0.00188572
-0.000213059
0.00189133
-0.000229145
0.00189482
-0.000244799
0.00189588
-0.00025949
0.00189408
-0.000278475
0.0018904
-0.000292516
0.00188446
-0.00031097
0.00187714
-0.000330796
0.00186365
-0.000347058
0.00184682
-0.000366449
0.00182593
-0.000385902
0.00180302
-0.000408554
0.00177505
-0.000428734
-0.000451911
0.00174337
0.00139456
0.000185415
0.00141947
0.000181545
0.00144542
0.000175221
0.00147008
0.000168178
0.00149461
0.000157024
0.00151996
0.000144015
0.00154079
0.000130855
0.00156038
0.000116156
0.00158004
9.88993e-05
0.00159822
8.2347e-05
0.00161349
6.54552e-05
0.00162921
4.8036e-05
0.00164085
3.23508e-05
0.00165319
1.49124e-05
0.00166619
-2.17651e-06
0.00167721
-1.77111e-05
0.00169016
-3.44274e-05
0.0016998
-4.82371e-05
0.00171171
-6.4772e-05
0.00172121
-7.82231e-05
0.00173125
-9.30379e-05
0.0017418
-0.000106761
0.00174979
-0.000120246
0.00175892
-0.000134935
0.00176657
-0.000147572
0.00177342
-0.000163001
0.00178119
-0.000176615
0.00178772
-0.000188912
0.0017906
-0.000201692
0.00179434
-0.000216802
0.00179651
-0.00023131
0.00179579
-0.00024408
0.00179318
-0.000256878
0.001788
-0.000273294
0.0017824
-0.000286916
0.00177388
-0.000302448
0.00176121
-0.000318127
0.00174811
-0.000333957
0.00173234
-0.000350683
0.00171111
-0.000364667
0.00168612
-0.000383569
0.00165802
-0.00040063
-0.000418007
0.00162411
0.00127307
0.000164028
0.00129424
0.000160369
0.00131492
0.000154548
0.00133791
0.000145185
0.0013613
0.000133636
0.00138179
0.000123523
0.00140368
0.000108965
0.00142511
9.47221e-05
0.0014445
7.9514e-05
0.00146166
6.51876e-05
0.00147963
4.74849e-05
0.00149677
3.08998e-05
0.00151329
1.58225e-05
0.00152881
-5.989e-07
0.00154231
-1.56805e-05
0.00155631
-3.17138e-05
0.00156817
-4.62837e-05
0.00158217
-6.22408e-05
0.00159232
-7.49191e-05
0.00160445
-9.03533e-05
0.00161369
-0.000102277
0.00162403
-0.000117104
0.00163591
-0.000132123
0.00164311
-0.000142139
0.00165085
-0.00015531
0.00165736
-0.00016951
0.00166302
-0.00018228
0.00166604
-0.000191931
0.00167172
-0.00020737
0.00167222
-0.000217305
0.00167336
-0.000232447
0.00167146
-0.00024218
0.00166942
-0.000254839
0.00166359
-0.000267463
0.00165673
-0.000280058
0.00164766
-0.000293373
0.00163627
-0.000306743
0.00162062
-0.000318303
0.00160162
-0.000331686
0.00158284
-0.000345886
0.00156046
-0.000361192
0.00153244
-0.000372602
-0.000387847
0.00150228
0.00115763
0.000146393
0.00117799
0.000140001
0.00119785
0.000134689
0.00121858
0.000124459
0.00123689
0.000115322
0.00125866
0.000101758
0.00127779
8.98382e-05
0.00129709
7.54173e-05
0.00131617
6.04312e-05
0.00133502
4.63447e-05
0.00135203
3.04698e-05
0.00136848
1.44549e-05
0.00138453
-2.34495e-07
0.00140029
-1.63583e-05
0.00141516
-3.05459e-05
0.00142949
-4.60412e-05
0.0014417
-5.85023e-05
0.00145325
-7.37819e-05
0.00146656
-8.82333e-05
0.00147737
-0.000101161
0.00148789
-0.000112803
0.0014996
-0.000128809
0.0015075
-0.00014002
0.0015158
-0.00015044
0.00152498
-0.000164499
0.00152978
-0.000174306
0.0015349
-0.000187398
0.00154027
-0.000197301
0.00154162
-0.000208724
0.00154424
-0.000219925
0.00154206
-0.000230263
0.00154159
-0.00024171
0.00153853
-0.000251778
0.00153413
-0.000263061
0.00152649
-0.000272421
0.00151783
-0.000284714
0.00150507
-0.000293979
0.00149292
-0.000306153
0.00147717
-0.000315946
0.00145806
-0.000326766
0.00143438
-0.000337517
0.00140904
-0.000347263
-0.000359047
0.00138024
0.00105617
0.00012881
0.00107332
0.000122846
0.00109141
0.000116597
0.00110883
0.000107038
0.00112734
9.68193e-05
0.00114508
8.40108e-05
0.00116302
7.19036e-05
0.00117971
5.87247e-05
0.00119683
4.33147e-05
0.00121508
2.80934e-05
0.00123197
1.35809e-05
0.00124725
-8.24796e-07
0.00126267
-1.56559e-05
0.00127765
-3.13379e-05
0.00129175
-4.46496e-05
0.00130429
-5.85751e-05
0.00131784
-7.20512e-05
0.00133021
-8.61568e-05
0.0013401
-9.81181e-05
0.00135308
-0.000114145
0.00136372
-0.000123442
0.00137227
-0.000137361
0.00138112
-0.000148867
0.00138951
-0.000158833
0.00139606
-0.000171052
0.00140213
-0.00018037
0.00140855
-0.000193823
0.00141222
-0.000200971
0.00141478
-0.000211283
0.00141676
-0.000221906
0.0014163
-0.000229797
0.00141397
-0.000239387
0.00141046
-0.000248263
0.00140611
-0.000258717
0.00139857
-0.000264873
0.00138892
-0.000275073
0.0013801
-0.00028515
0.00136677
-0.00029283
0.00135129
-0.000300462
0.0013322
-0.000307681
0.00131162
-0.000316933
0.00129037
-0.000326014
-0.000332382
0.00126371
0.000959861
0.000113565
0.000975955
0.000106752
0.000993156
9.93961e-05
0.00100798
9.2213e-05
0.00102572
7.90804e-05
0.00104273
6.69999e-05
0.00105852
5.61103e-05
0.00107668
4.05711e-05
0.00109326
2.6731e-05
0.00110668
1.46711e-05
0.001122
-1.73326e-06
0.00113791
-1.67347e-05
0.00115198
-2.97242e-05
0.00116561
-4.49733e-05
0.00117825
-5.72893e-05
0.00118974
-7.00661e-05
0.00120299
-8.5299e-05
0.00121503
-9.81961e-05
0.00122662
-0.000109709
0.00123585
-0.000123374
0.00124659
-0.000134188
0.0012561
-0.000146862
0.00126425
-0.000157021
0.00127178
-0.000166359
0.00127826
-0.00017754
0.00128498
-0.000187087
0.00128681
-0.000195652
0.00129187
-0.000206033
0.00129314
-0.000212552
0.00129257
-0.000221336
0.00129321
-0.000230439
0.00129223
-0.000238401
0.001289
-0.000245036
0.00128365
-0.000253372
0.00127924
-0.000260457
0.00127057
-0.000266405
0.00125989
-0.000274469
0.00124812
-0.000281057
0.00123355
-0.000285895
0.00121878
-0.000292914
0.00120043
-0.000298576
0.00117768
-0.00030327
0.00115599
-0.00031069
0.00031562
0.00251595
-0.00273133
-0.000100241
0.000516434
0.00243358
-0.00263439
0.000705024
0.00235099
-0.00253958
0.000876402
0.00227539
-0.00244677
0.00103297
0.00220204
-0.00235861
0.00117839
0.00212839
-0.00227381
0.00130968
0.00205904
-0.00219033
0.0014279
0.00199237
-0.00211058
0.00153342
0.00192821
-0.00203373
0.00162744
0.00186561
-0.00195963
0.00170937
0.00180581
-0.00188774
0.00178011
0.00174785
-0.00181858
0.00184011
0.00169191
-0.00175191
0.00188929
0.00163808
-0.00168727
0.00192844
0.001586
-0.00162515
0.00195767
0.00153586
-0.00156508
0.00197694
0.00148747
-0.00150674
0.00198718
0.00144041
-0.00145065
0.00198813
0.00139548
-0.00139643
0.00198039
0.00135163
-0.00134389
0.00196396
0.00130953
-0.00129309
0.00193937
0.00126848
-0.0012439
0.00190694
0.00122872
-0.00119629
0.00186615
0.00119041
-0.00114963
0.00181775
0.00115316
-0.00110476
0.00176235
0.00111647
-0.00106106
0.00169903
0.00108142
-0.00101809
0.00162915
0.00104646
-0.000976586
0.00155235
0.00101262
-0.00093581
0.00146867
0.000979017
-0.000895344
0.00137883
0.000946171
-0.000856333
0.00128305
0.000912934
-0.000817152
0.00118172
0.000880314
-0.000778978
0.00107555
0.000847326
-0.000741156
0.000964654
0.000814248
-0.000703355
0.000849855
0.000780672
-0.000665873
0.000732009
0.000746116
-0.00062827
0.000611704
0.000710401
-0.000590096
0.000490278
0.000672119
-0.000550694
0.000369115
0.000630275
-0.000509111
0.000250249
0.000582048
-0.000463183
0.000138426
0.000517918
-0.000406095
0.000400235
3.63696e-05
-0.000298179
0.000294959
0.00231593
-9.49356e-05
0.000477928
0.00225061
0.000646204
0.00218272
0.000802154
0.00211944
0.000948109
0.00205608
0.00107911
0.00199739
0.00119712
0.00194103
0.00130451
0.00188498
0.00140094
0.00183178
0.00148584
0.0017807
0.00156044
0.00173122
0.00162502
0.00168326
0.00167939
0.00163754
0.00172442
0.00159306
0.00175984
0.00155058
0.00178659
0.00150911
0.00180472
0.00146933
0.00181418
0.00143095
0.00181577
0.00139389
0.00180924
0.00135815
0.00179541
0.00132336
0.00177384
0.00129005
0.0017449
0.00125766
0.00170909
0.00122622
0.00166661
0.00119565
0.00161693
0.00116614
0.0015612
0.00113715
0.00149898
0.00110868
0.00143083
0.00108077
0.00135636
0.00105349
0.00127636
0.00102617
0.00119071
0.000998585
0.00109971
0.000971317
0.0010039
0.000943129
0.000903687
0.000914462
0.000799413
0.000884946
0.000691951
0.000853578
0.000582004
0.000820347
0.000470295
0.000783829
0.000357921
0.000742649
0.000247051
0.000692919
0.000141583
0.000623386
0.000497733
4.40849e-05
0.000271996
0.00213605
-9.21189e-05
0.000439652
0.00208296
0.000594973
0.00202739
0.00073792
0.00197649
0.000866034
0.00192797
0.000986473
0.00187695
0.00109441
0.00183309
0.00119265
0.00178674
0.00127855
0.00174588
0.00135596
0.00170329
0.0014239
0.00166327
0.00148226
0.00162491
0.00153208
0.00158772
0.00157294
0.0015522
0.00160546
0.00151805
0.00162997
0.0014846
0.00164659
0.00145271
0.00165541
0.00142214
0.00165698
0.00139232
0.00165164
0.00136349
0.00163903
0.00133597
0.00161995
0.00130912
0.00159432
0.0012833
0.00156237
0.00125817
0.00152424
0.00123377
0.00148026
0.00121012
0.00143048
0.00118693
0.00137478
0.00116437
0.00131367
0.00114188
0.00124734
0.00111983
0.00117542
0.00109808
0.00109861
0.0010754
0.00101705
0.00105288
0.000930335
0.00102984
0.00083969
0.00100511
0.000745116
0.00097952
0.000647035
0.000951659
0.000546106
0.000921277
0.000442999
0.000886935
0.000339142
0.000846506
0.000236099
0.000795962
0.000137578
0.000721907
0.000587273
4.80384e-05
0.000249995
0.00197375
-8.76914e-05
0.000402374
0.00193058
0.000542403
0.00188737
0.000672383
0.00184651
0.000792373
0.00180798
0.000899932
0.00176939
0.000997371
0.00173565
0.0010872
0.00169692
0.00116753
0.00166555
0.00123751
0.00163332
0.00129899
0.00160179
0.00135216
0.00157173
0.00139704
0.00154283
0.00143414
0.0015151
0.00146415
0.00148804
0.00148628
0.00146247
0.00150118
0.00143782
0.00150973
0.00141359
0.00151127
0.00139078
0.00150637
0.00136839
0.00149538
0.00134697
0.00147818
0.00132632
0.00145511
0.00130637
0.0014265
0.00128679
0.00139223
0.00126804
0.00135283
0.00124953
0.00130799
0.00123177
0.00125809
0.00121427
0.00120321
0.00119676
0.00114322
0.00117982
0.00107912
0.00116217
0.00100957
0.00114495
0.000936045
0.00112641
0.000858257
0.00110763
0.000775935
0.00108743
0.000690233
0.00106522
0.000600937
0.00104095
0.000508987
0.00101323
0.000414889
0.000981034
0.000319392
0.000942003
0.000224393
0.000890961
0.000133064
0.000813235
0.000670314
5.00233e-05
0.000232164
0.00182437
-8.27897e-05
0.000371656
0.00179109
0.00049883
0.00176019
0.000615993
0.00172935
0.000723093
0.00170088
0.000822633
0.00166985
0.000912068
0.00164621
0.000991406
0.00161758
0.00106317
0.00159379
0.00112884
0.00156764
0.00118416
0.00154648
0.0012327
0.00152319
0.00127356
0.00150197
0.00130757
0.00148109
0.00133431
0.0014613
0.00135443
0.00144235
0.00136844
0.00142381
0.00137588
0.00140615
0.00137746
0.0013892
0.00137308
0.00137277
0.00136332
0.00135672
0.00134778
0.00134186
0.00132723
0.00132693
0.0013015
0.00131252
0.00127074
0.00129879
0.00123485
0.00128541
0.00119435
0.00127227
0.00114956
0.00125906
0.0011
0.00124632
0.0010463
0.00123352
0.000988091
0.00122038
0.000926066
0.00120697
0.000859437
0.00119304
0.000789189
0.00117788
0.000715171
0.00116145
0.000637497
0.0011429
0.000556376
0.00112208
0.000472561
0.00109704
0.000386656
0.00106694
0.000299067
0.00102959
0.000211902
0.000978126
0.000127482
0.000897655
0.000747164
5.06313e-05
0.000214309
0.0016877
-7.76343e-05
0.000338564
0.00166683
0.000455273
0.00164348
0.000562022
0.0016226
0.000661211
0.00160169
0.00075035
0.00158071
0.000831901
0.00156466
0.00090577
0.00154371
0.000972035
0.00152753
0.0010282
0.00151147
0.00107933
0.00149535
0.0011233
0.00147922
0.00116046
0.00146481
0.00119126
0.00145029
0.00121567
0.00143689
0.00123415
0.00142388
0.00124657
0.00141138
0.00125362
0.0013991
0.00125508
0.00138774
0.00125142
0.00137643
0.00124223
0.00136591
0.00122859
0.0013555
0.00120979
0.00134573
0.00118654
0.00133577
0.00115856
0.00132678
0.00112668
0.00131729
0.00109025
0.0013087
0.00104947
0.00129983
0.00100493
0.00129087
0.000956441
0.001282
0.000903834
0.00127299
0.000847802
0.00126301
0.000787793
0.00125305
0.000724208
0.00124146
0.000657359
0.00122829
0.000586749
0.00121351
0.000513326
0.0011955
0.000437237
0.00117313
0.000358731
0.00114544
0.000279101
0.00110922
0.000199017
0.00105821
0.000121218
0.000975455
0.000818309
5.00727e-05
0.000196789
0.00156377
-7.28632e-05
0.000310803
0.00155282
0.000417152
0.00153713
0.00051597
0.00152378
0.000604872
0.00151279
0.000683613
0.00150197
0.000759728
0.00148855
0.000823361
0.00148008
0.000884142
0.00146675
0.000937383
0.00145823
0.000982979
0.00144975
0.00102331
0.00143889
0.00105732
0.00143081
0.00108496
0.00142265
0.00110729
0.00141456
0.00112408
0.00140709
0.00113579
0.00139966
0.00114193
0.00139296
0.00114331
0.00138636
0.00113971
0.00138003
0.00113192
0.0013737
0.0011194
0.00136802
0.00110249
0.00136264
0.00108116
0.00135709
0.00105626
0.00135167
0.00102707
0.00134649
0.000994235
0.00134153
0.000957479
0.00133659
0.000917197
0.00133115
0.000873153
0.00132605
0.000825994
0.00132015
0.000774979
0.00131402
0.000720995
0.00130703
0.000663615
0.00129884
0.000602755
0.00128915
0.000538999
0.00127726
0.000472626
0.00126187
0.00040336
0.0012424
0.000331832
0.00121697
0.000259192
0.00118186
0.000186296
0.00113111
0.000115038
0.00104671
0.000883996
4.93515e-05
0.000180435
0.0014527
-6.9369e-05
0.000286448
0.0014468
0.000380147
0.00144343
0.000468631
0.0014353
0.000549625
0.00143179
0.000625468
0.00142613
0.000691272
0.00142274
0.000751967
0.00141938
0.000805077
0.00141364
0.000852966
0.00141034
0.000895701
0.00140702
0.000933268
0.00140132
0.000963653
0.00140043
0.000988122
0.00139818
0.00100835
0.00139433
0.00102375
0.0013917
0.00103384
0.00138957
0.00103968
0.00138712
0.00104097
0.00138508
0.00103805
0.00138294
0.00103059
0.00138117
0.0010193
0.00137931
0.00100424
0.0013777
0.000985335
0.001376
0.000962524
0.00137449
0.000935932
0.00137308
0.000906203
0.00137126
0.00087328
0.00136951
0.00083668
0.00136775
0.000797041
0.00136569
0.000753956
0.00136323
0.000708006
0.00135997
0.00065908
0.00135596
0.000606944
0.00135098
0.000551871
0.00134423
0.00049438
0.00133475
0.000433801
0.00132245
0.000370781
0.00130542
0.000305997
0.00128176
0.000239878
0.00124798
0.00017295
0.00119803
0.000107904
0.00111176
0.000944332
4.75683e-05
0.000165467
0.00134922
-6.19842e-05
0.000258734
0.00135354
0.000349394
0.00135277
0.000427671
0.00135702
0.000500816
0.00135865
0.000568864
0.00135808
0.000629282
0.00136232
0.00068709
0.00136157
0.000734843
0.00136589
0.000777521
0.00136766
0.000817486
0.00136705
0.00084731
0.0013715
0.0008745
0.00137324
0.000899594
0.00137309
0.000917834
0.00137609
0.000931877
0.00137765
0.000941411
0.00138003
0.000946597
0.00138194
0.00094777
0.00138391
0.000944966
0.00138575
0.000938569
0.00138756
0.000928413
0.00138946
0.00091442
0.00139169
0.000897076
0.00139334
0.000876596
0.00139497
0.000852751
0.00139693
0.000825696
0.00139832
0.000795607
0.0013996
0.000762611
0.00140074
0.000726465
0.00140183
0.000687808
0.00140189
0.000646264
0.00140151
0.000601911
0.00140031
0.000554988
0.0013979
0.000505593
0.00139362
0.000453236
0.00138711
0.000398185
0.0013775
0.000341105
0.0013625
0.000282053
0.00134081
0.000221439
0.00130859
0.00016157
0.0012579
0.000102561
0.00117077
4.75896e-05
0.000999304
-6.8627e-05
0.000182499
-7.75023e-05
-0.000105679
0.000143103
-0.000106051
-0.00013657
0.000158669
-0.000127778
-0.000165019
0.000168288
-0.000139839
-0.000191643
0.000174956
-0.000148332
-0.000216586
0.000180306
-0.000155364
-0.000239936
0.000184994
-0.000161643
-0.000261734
0.00018923