/*--------------------------------*- C++ -*----------------------------------*\
| =========                 |                                                 |
| \\      /  F ield         | OpenFOAM: The Open Source CFD Toolbox           |
|  \\    /   O peration     | Version:  2.3.0                                 |
|   \\  /    A nd           | Web:      www.OpenFOAM.org                      |
|    \\/     M anipulation  |                                                 |
\*---------------------------------------------------------------------------*/
FoamFile
{
    version     2.0;
    format      ascii;
    class       volVectorField;
    location    "10000";
    object      U;
}
// * * * * * * * * * * * * * * * * * * * * * * * * * * * * * * * * * * * * * //

dimensions      [0 1 -1 0 0 0 0];

internalField   nonuniform List<vector> 
120564
(
(8.72688 -4.39726 -3.67304e-21)
(8.56073 -4.55932 1.97183e-21)
(8.38558 -4.71061 0)
(8.21097 -4.86388 0)
(8.03611 -5.01996 0)
(7.8603 -5.17877 0)
(7.68312 -5.34043 -1.42446e-21)
(7.50429 -5.50506 -5.10322e-21)
(7.32364 -5.67278 5.81059e-21)
(7.14082 -5.84363 -8.38612e-21)
(6.95582 -6.01782 0)
(6.76875 -6.19553 -5.47626e-21)
(6.57913 -6.37698 1.09624e-20)
(6.38681 -6.56229 -2.17027e-21)
(6.19162 -6.75171 -1.23701e-21)
(5.99379 -6.94568 4.49421e-21)
(5.79271 -7.14466 0)
(5.58791 -7.34894 -8.11809e-21)
(5.3793 -7.55903 1.55165e-21)
(5.16638 -7.7756 -4.27968e-21)
(4.94869 -7.9992 -4.12469e-21)
(4.72565 -8.23046 1.39284e-21)
(4.49696 -8.47038 -4.13717e-21)
(4.2622 -8.72008 -5.57324e-22)
(4.0204 -8.98067 2.5179e-21)
(3.77013 -9.25317 8.90999e-22)
(3.5117 -9.53937 0)
(3.24366 -9.84122 1.72112e-20)
(2.96469 -10.1607 -2.22614e-20)
(2.67391 -10.5004 -3.49632e-20)
(2.36928 -10.8631 3.49771e-20)
(2.05181 -11.2523 0)
(1.71884 -11.6724 0)
(1.36917 -12.1285 5.21326e-21)
(1.00245 -12.6269 -1.3245e-19)
(0.619524 -13.1746 1.43112e-19)
(0.221134 -13.7807 1.12262e-20)
(-0.189824 -14.4562 0)
(-0.606498 -15.2145 7.43646e-21)
(-1.02003 -16.0744 -5.4026e-21)
(-1.40552 -17.0575 0)
(-1.68514 -18.2229 0)
(-1.92611 -19.3018 0)
(8.90861 -4.58805 6.54103e-21)
(8.76759 -4.73539 -3.00024e-21)
(8.62012 -4.87809 5.02174e-21)
(8.47376 -5.02385 -2.8719e-21)
(8.3279 -5.17282 7.3387e-22)
(8.18195 -5.32485 1.54461e-22)
(8.03548 -5.47995 8.06004e-22)
(7.88817 -5.63818 -2.59418e-22)
(7.73989 -5.79973 0)
(7.5906 -5.9647 2.50285e-21)
(7.44025 -6.13317 2.85298e-21)
(7.28872 -6.30538 -7.00701e-21)
(7.13616 -6.48153 2.90602e-21)
(6.98237 -6.6619 -1.17141e-21)
(6.82733 -6.84676 9.27269e-21)
(6.67118 -7.03663 -3.60685e-21)
(6.51398 -7.23194 -3.78798e-21)
(6.35554 -7.43315 3.62544e-23)
(6.19574 -7.64083 5.63469e-21)
(6.03462 -7.85552 5.28743e-21)
(5.87182 -8.07786 1.18455e-21)
(5.70745 -8.30854 -3.51004e-21)
(5.54171 -8.54833 0)
(5.37494 -8.79832 -1.33585e-21)
(5.2069 -9.05957 3.03602e-21)
(5.03783 -9.33335 -1.33138e-21)
(4.86854 -9.62116 0)
(4.69914 -9.92471 -3.56828e-21)
(4.53046 -10.246 -5.01099e-22)
(4.36347 -10.5873 6.36591e-21)
(4.19986 -10.951 4.85667e-21)
(4.04122 -11.3404 -2.46658e-20)
(3.88956 -11.7586 6.19048e-20)
(3.74823 -12.2093 9.31393e-21)
(3.62193 -12.6964 4.73287e-21)
(3.51579 -13.2243 -1.08945e-19)
(3.437 -13.7967 -9.74284e-21)
(3.39458 -14.4177 1.90208e-19)
(3.40131 -15.089 -2.01414e-19)
(3.47261 -15.8109 1.82231e-20)
(3.62743 -16.5781 3.78637e-19)
(3.89995 -17.3763 -3.69659e-19)
(4.34398 -18.1634 0)
(9.07579 -4.7469 -4.74364e-21)
(8.95617 -4.88727 0)
(8.83144 -5.02577 0)
(8.70681 -5.16713 0)
(8.58257 -5.31184 0)
(8.45845 -5.45988 -1.95218e-21)
(8.33406 -5.61136 2.55058e-21)
(8.20914 -5.76632 2.92255e-21)
(8.08367 -5.92484 2.49571e-21)
(7.95775 -6.08711 0)
(7.83104 -6.25323 -1.41012e-21)
(7.70379 -6.4234 1.12163e-21)
(7.57606 -6.59779 1.05696e-21)
(7.44769 -6.77658 -1.54571e-21)
(7.31893 -6.96005 -5.03415e-22)
(7.19021 -7.14861 -1.31651e-21)
(7.06176 -7.34282 1.72749e-21)
(6.9333 -7.5433 -1.7556e-21)
(6.80506 -7.75068 0)
(6.67676 -7.96552 -2.11951e-21)
(6.5484 -8.18836 -3.8708e-21)
(6.42044 -8.41986 6.87239e-21)
(6.29321 -8.66059 2.41793e-21)
(6.16715 -8.91152 -1.37504e-20)
(6.04218 -9.17354 7.39799e-21)
(5.91931 -9.44772 -2.87142e-21)
(5.79949 -9.73511 -1.29427e-20)
(5.68322 -10.037 1.34985e-20)
(5.57207 -10.3546 -4.90678e-21)
(5.46793 -10.6895 0)
(5.37228 -11.0432 -1.17349e-20)
(5.28764 -11.4175 -2.52121e-21)
(5.21792 -11.8137 7.47038e-21)
(5.16649 -12.2335 -1.21556e-20)
(5.13821 -12.6782 1.16659e-20)
(5.13872 -13.149 -7.48922e-20)
(5.17543 -13.6456 5.48264e-20)
(5.25663 -14.1668 -1.03343e-19)
(5.3918 -14.7102 7.90265e-20)
(5.59108 -15.2709 1.29481e-19)
(5.8664 -15.8397 -1.11414e-19)
(6.22738 -16.4034 2.3321e-20)
(6.68009 -16.9479 5.37687e-20)
(9.24162 -4.88087 -5.7865e-21)
(9.13694 -5.01519 0)
(9.02955 -5.14672 5.53616e-21)
(8.92319 -5.28115 0)
(8.81776 -5.41891 4.06987e-21)
(8.71259 -5.56001 -8.95823e-21)
(8.60746 -5.70461 3.66445e-21)
(8.50216 -5.85277 -9.80521e-21)
(8.39658 -6.00454 1.06014e-21)
(8.29073 -6.16008 -3.30786e-21)
(8.18455 -6.31939 4.44444e-21)
(8.07826 -6.48282 -4.38e-21)
(7.97175 -6.65062 3.29723e-21)
(7.86497 -6.82272 0)
(7.75829 -6.99929 0)
(7.65243 -7.1805 1.29947e-21)
(7.54764 -7.36704 0)
(7.44412 -7.55966 4.58015e-21)
(7.34204 -7.75917 4.26729e-22)
(7.24099 -7.96624 6.1424e-21)
(7.14093 -8.18126 -3.26494e-21)
(7.04239 -8.4047 -5.18166e-21)
(6.94599 -8.63707 3.38795e-21)
(6.85212 -8.87917 1.00579e-20)
(6.76116 -9.13187 -2.86374e-20)
(6.674 -9.39591 1.50175e-20)
(6.59158 -9.67235 0)
(6.5149 -9.96194 -5.03592e-21)
(6.44555 -10.2655 4.83611e-21)
(6.38482 -10.5843 -1.98523e-20)
(6.33483 -10.9192 3.48831e-20)
(6.29839 -11.2709 8.27609e-21)
(6.27867 -11.6401 -1.11009e-20)
(6.27858 -12.0276 1.18426e-20)
(6.30244 -12.4335 0)
(6.35535 -12.8568 1.68402e-20)
(6.44234 -13.2963 -6.76441e-20)
(6.5691 -13.7495 9.1725e-20)
(6.74194 -14.2118 2.79792e-20)
(6.96685 -14.6771 0)
(7.24857 -15.137 4.44855e-23)
(7.59021 -15.58 -5.13278e-22)
(7.99073 -15.9936 -5.04679e-20)
(9.39393 -4.99876 5.76169e-21)
(9.30424 -5.12583 6.21834e-21)
(9.2113 -5.24882 -1.1774e-20)
(9.12022 -5.37547 6.67961e-21)
(9.03017 -5.50571 0)
(8.94064 -5.6395 8.01107e-21)
(8.85119 -5.77708 0)
(8.76155 -5.91843 -5.3479e-21)
(8.67173 -6.06354 5.36064e-21)
(8.58164 -6.21245 0)
(8.49133 -6.36512 -3.11967e-21)
(8.4012 -6.52192 0)
(8.31094 -6.68331 3.23392e-21)
(8.2203 -6.84936 0)
(8.12954 -7.01988 3.4942e-21)
(8.03955 -7.19457 3.67606e-21)
(7.95133 -7.3737 3.41718e-21)
(7.86549 -7.55834 -3.48105e-21)
(7.7823 -7.74965 -3.98816e-21)
(7.70106 -7.94873 -4.20688e-21)
(7.62111 -8.15609 -1.3481e-21)
(7.5431 -8.37156 -4.37695e-21)
(7.46761 -8.59545 6.43213e-21)
(7.39561 -8.82837 1.40084e-20)
(7.32752 -9.07123 -5.86047e-22)
(7.26429 -9.32474 -9.12933e-21)
(7.20691 -9.58957 0)
(7.1561 -9.86656 5.01108e-21)
(7.11322 -10.1561 0)
(7.08018 -10.4587 2.42874e-20)
(7.05885 -10.775 -4.1487e-20)
(7.05186 -11.1051 0)
(7.06164 -11.4494 1.09526e-20)
(7.09163 -11.8076 -5.67776e-20)
(7.14519 -12.1796 4.33943e-20)
(7.2266 -12.5638 9.54756e-20)
(7.33952 -12.9583 -1.69482e-19)
(7.48839 -13.3601 1.71556e-19)
(7.67725 -13.765 -1.07548e-19)
(7.90984 -14.1668 0)
(8.18861 -14.5585 -1.9234e-19)
(8.5139 -14.9319 -5.74365e-20)
(8.88328 -15.2779 1.80218e-19)
(9.53201 -5.10401 0)
(9.45563 -5.22029 0)
(9.37627 -5.33438 1.1311e-20)
(9.29859 -5.45312 -1.3967e-20)
(9.22151 -5.57556 -3.8967e-21)
(9.14517 -5.7017 -1.05021e-20)
(9.06904 -5.83199 3.49259e-21)
(8.99247 -5.96623 0)
(8.91574 -6.10438 0)
(8.83829 -6.24665 -3.84858e-21)
(8.76085 -6.39227 3.08765e-21)
(8.6837 -6.54189 3.57682e-21)
(8.60673 -6.69625 -1.04907e-20)
(8.52949 -6.85582 3.71311e-21)
(8.45138 -7.02051 -3.46672e-21)
(8.37311 -7.18921 -3.65028e-21)
(8.29657 -7.36129 -4.44001e-21)
(8.2238 -7.5374 9.65238e-21)
(8.15514 -7.71934 -5.4303e-21)
(8.08983 -7.9092 4.77242e-21)
(8.02617 -8.1083 5.23244e-21)
(7.96378 -8.3159 -1.34721e-20)
(7.9036 -8.53143 3.58109e-22)
(7.84754 -8.75513 9.28601e-22)
(7.79612 -8.98808 9.36024e-22)
(7.75059 -9.23071 -1.28881e-21)
(7.71149 -9.48441 1.16555e-20)
(7.67911 -9.7498 1.30844e-20)
(7.65475 -10.0267 1.28066e-21)
(7.6403 -10.3152 1.49023e-21)
(7.63778 -10.6158 1.06474e-20)
(7.64919 -10.9284 -4.25153e-20)
(7.67704 -11.2526 0)
(7.72448 -11.5882 0)
(7.79521 -11.9341 1.58636e-20)
(7.89216 -12.2892 7.92675e-20)
(8.01821 -12.6515 -1.94e-19)
(8.17657 -13.018 1.43119e-19)
(8.37067 -13.3842 -1.17853e-19)
(8.60304 -13.7446 1.22173e-19)
(8.87472 -14.0939 3.60791e-20)
(9.18579 -14.4252 0)
(9.53351 -14.7312 0)
(9.65523 -5.19021 -4.70896e-21)
(9.59209 -5.29878 0)
(9.5255 -5.40519 5.37967e-22)
(9.4596 -5.51686 0)
(9.39339 -5.63203 3.85731e-21)
(9.32833 -5.75036 3.8099e-21)
(9.2635 -5.87354 0)
(9.19775 -6.00101 0)
(9.13206 -6.13231 4.40084e-21)
(9.06503 -6.26865 3.52442e-21)
(8.99738 -6.40794 -8.4407e-21)
(8.9305 -6.55043 4.26673e-21)
(8.86432 -6.6975 0)
(8.79856 -6.84987 -4.80386e-21)
(8.73124 -7.00873 0)
(8.66198 -7.17291 0)
(8.59328 -7.33998 0)
(8.52873 -7.50918 -5.10169e-21)
(8.46972 -7.68224 1.76793e-20)
(8.4175 -7.86151 -6.10693e-21)
(8.36784 -8.05177 0)
(8.3186 -8.252 6.8687e-21)
(8.26933 -8.46053 8.3592e-21)
(8.22469 -8.67557 -8.63444e-21)
(8.18464 -8.89983 -2.9765e-20)
(8.15174 -9.13194 2.08996e-20)
(8.12676 -9.37474 -1.16032e-20)
(8.10858 -9.62975 1.42737e-20)
(8.09716 -9.89627 -3.08238e-20)
(8.09572 -10.1729 2.43787e-22)
(8.10618 -10.4604 -6.00006e-20)
(8.1301 -10.7586 6.70329e-20)
(8.16902 -11.0672 -5.13832e-20)
(8.22737 -11.3841 2.79896e-20)
(8.30869 -11.7092 -3.3752e-20)
(8.41486 -12.0423 -5.84202e-20)
(8.54809 -12.3805 6.27591e-20)
(8.71108 -12.7209 2.70124e-20)
(8.90685 -13.0591 -5.33213e-20)
(9.13671 -13.391 0)
(9.40216 -13.7106 -1.79176e-19)
(9.70278 -14.0133 7.5632e-20)
(10.0351 -14.2932 -3.69524e-21)
(9.77244 -5.26448 -1.47997e-20)
(9.71681 -5.36727 -5.23063e-22)
(9.66057 -5.46501 1.98135e-22)
(9.60415 -5.57092 -9.82297e-21)
(9.54607 -5.67983 0)
(9.48999 -5.79009 -5.46192e-22)
(9.43489 -5.90696 5.13924e-21)
(9.37719 -6.02886 -4.6115e-21)
(9.32146 -6.15252 -4.35803e-21)
(9.26304 -6.28454 -9.3484e-22)
(9.20221 -6.41925 0)
(9.14332 -6.55518 0)
(9.08517 -6.69636 0)
(9.02847 -6.84105 -1.0753e-21)
(8.96821 -6.99312 0)
(8.90722 -7.15268 -6.17087e-21)
(8.84631 -7.31699 3.62907e-21)
(8.78871 -7.48202 6.98911e-21)
(8.73375 -7.65012 1.37978e-21)
(8.69124 -7.81709 3.43188e-21)
(8.65057 -7.99724 -8.1874e-21)
(8.61356 -8.19025 -8.53517e-21)
(8.57306 -8.3943 0)
(8.53923 -8.60059 -9.95004e-21)
(8.50714 -8.81788 -1.8029e-21)
(8.48181 -9.0403 1.13434e-20)
(8.46744 -9.27171 0)
(8.46239 -9.51656 2.99957e-20)
(8.46164 -9.77415 1.7011e-20)
(8.46928 -10.0408 1.77466e-20)
(8.48821 -10.3178 -1.3184e-21)
(8.52232 -10.6039 2.22235e-20)
(8.56886 -10.8997 -2.73532e-20)
(8.63348 -11.2016 -2.4133e-21)
(8.7216 -11.5096 1.34351e-19)
(8.83518 -11.8245 -3.6435e-20)
(8.97316 -12.1428 -4.48584e-20)
(9.1383 -12.4627 -2.14114e-21)
(9.33388 -12.7807 5.48161e-20)
(9.56004 -13.0923 0)
(9.81926 -13.3902 6.84822e-20)
(10.1122 -13.6727 1.54991e-19)
(10.4325 -13.935 -2.49114e-19)
(9.87117 -5.3306 2.39374e-20)
(9.82971 -5.42264 6.2418e-21)
(9.79061 -5.50715 5.14955e-21)
(9.74541 -5.60733 1.67602e-20)
(9.69294 -5.71108 -5.55365e-21)
(9.64669 -5.80871 1.09196e-20)
(9.60369 -5.91763 -8.64531e-23)
(9.55056 -6.03703 5.95874e-21)
(9.50447 -6.14895 -7.80107e-22)
(9.45713 -6.27608 7.90991e-21)
(9.40111 -6.40775 8.66624e-23)
(9.34938 -6.53564 2.4219e-21)
(9.30182 -6.67051 9.33964e-21)
(9.2584 -6.81053 -5.22017e-21)
(9.19863 -6.94981 1.13492e-20)
(9.13088 -7.10272 6.57913e-21)
(9.07348 -7.26928 -1.10535e-20)
(9.03168 -7.43284 -4.07894e-21)
(8.98337 -7.6024 -8.15797e-21)
(8.9566 -7.75969 -6.16952e-21)
(8.92099 -7.918 2.20499e-20)
(8.88404 -8.10321 1.3499e-20)
(8.84067 -8.31135 -1.12744e-20)
(8.81847 -8.5108 1.08362e-20)
(8.79298 -8.72749 1.80684e-20)
(8.77228 -8.94361 -2.03397e-20)
(8.76389 -9.16092 1.43877e-20)
(8.76794 -9.396 5.46837e-22)
(8.77418 -9.64936 -3.45571e-20)
(8.79309 -9.90832 9.57191e-21)
(8.81605 -10.1753 3.22791e-20)
(8.8534 -10.4544 -2.38271e-20)
(8.90121 -10.7434 2.77794e-20)
(8.97036 -11.0357 3.11855e-20)
(9.06029 -11.3287 -3.2807e-20)
(9.17734 -11.6341 3.83135e-20)
(9.31496 -11.937 4.42808e-20)
(9.4814 -12.2405 -3.9158e-22)
(9.68014 -12.5429 3.17439e-22)
(9.90403 -12.8423 6.19804e-20)
(10.1589 -13.1186 2.18424e-21)
(10.4516 -13.3848 -1.42566e-19)
(10.7631 -13.6282 1.65941e-19)
(-0.240868 -18.0978 0)
(0.486026 -15.2706 1.07891e-19)
(1.05477 -12.6075 1.99838e-19)
(1.71023 -10.5204 1.38863e-19)
(2.21165 -8.86982 2.76336e-18)
(2.50238 -7.57392 -2.42099e-18)
(2.67356 -6.62641 3.15963e-19)
(2.78826 -5.97348 1.57044e-19)
(2.88428 -5.54627 2.16378e-18)
(2.98933 -5.28512 -4.33353e-18)
(3.11694 -5.13769 2.0291e-18)
(3.27838 -5.07085 1.20598e-19)
(3.4764 -5.05939 0)
(3.70652 -5.08321 -2.03266e-19)
(3.96795 -5.131 1.99054e-19)
(4.25868 -5.19573 0)
(4.57488 -5.27196 0)
(4.9146 -5.3577 -5.5452e-21)
(5.27388 -5.45056 -6.35361e-19)
(5.65161 -5.5498 1.36369e-18)
(6.04179 -5.65189 -4.33656e-19)
(6.44872 -5.75973 -5.53462e-19)
(6.86496 -5.86937 5.32884e-19)
(7.29054 -5.98146 2.50087e-19)
(7.72367 -6.09524 2.41249e-19)
(8.16133 -6.20972 2.3679e-19)
(8.60385 -6.32485 -4.62878e-19)
(9.05014 -6.44057 -2.19802e-19)
(9.49805 -6.55566 -2.19636e-19)
(9.9477 -6.67 2.14263e-19)
(10.3964 -6.7822 -4.15714e-19)
(10.8461 -6.8933 8.1473e-19)
(11.2929 -7.00085 -1.19416e-18)
(11.7386 -7.10591 7.82574e-19)
(12.1805 -7.20689 -2.11573e-21)
(12.6189 -7.30383 -3.76797e-19)
(13.0535 -7.39664 -1.10853e-18)
(13.4828 -7.48439 1.46012e-18)
(13.9064 -7.56713 -2.89161e-21)
(14.3248 -7.64503 -7.07026e-19)
(14.7349 -7.71583 -6.91787e-19)
(15.1446 -7.78738 6.75066e-19)
(15.5107 -7.80828 1.29805e-18)
(4.91934 -18.783 3.80299e-20)
(5.58697 -18.8456 -5.92312e-20)
(6.26596 -18.4426 -1.1579e-19)
(6.90943 -17.7033 -1.11611e-18)
(7.44805 -16.7541 -1.26364e-19)
(7.8613 -15.7186 2.27415e-18)
(8.16824 -14.6896 -2.53367e-18)
(8.39216 -13.72 1.0966e-18)
(8.5636 -12.8491 -1.49064e-19)
(8.7001 -12.0828 -1.49489e-19)
(8.82101 -11.4238 6.26483e-19)
(8.94285 -10.8703 -1.37107e-18)
(9.0717 -10.4076 -2.25754e-21)
(9.21235 -10.0238 5.90932e-19)
(9.36897 -9.70954 -1.36377e-19)
(9.54164 -9.45301 0)
(9.7308 -9.24547 1.28467e-19)
(9.93489 -9.07876 -1.31291e-19)
(10.1518 -8.94453 1.203e-19)
(10.3815 -8.83847 -1.16467e-19)
(10.6223 -8.75623 1.12892e-19)
(10.8729 -8.69355 0)
(11.1309 -8.64608 0)
(11.3963 -8.61234 -2.16213e-19)
(11.667 -8.58862 2.01471e-19)
(11.9423 -8.57338 -4.03002e-19)
(12.2229 -8.56608 1.94137e-19)
(12.5054 -8.56289 -1.89344e-19)
(12.7919 -8.56522 3.80054e-19)
(13.0789 -8.56956 -1.8443e-19)
(13.3687 -8.57732 0)
(13.6595 -8.58685 0)
(13.9511 -8.59762 1.87386e-19)
(14.2416 -8.60812 -3.51448e-19)
(14.5323 -8.61909 3.48157e-19)
(14.8214 -8.62916 0)
(15.1092 -8.63844 7.87368e-21)
(15.3957 -8.64671 0)
(15.6796 -8.65326 -1.01811e-18)
(15.9606 -8.65749 6.68753e-19)
(16.2391 -8.65881 -6.58428e-19)
(16.5133 -8.65784 9.69005e-19)
(16.7841 -8.64098 0)
(7.21327 -17.4594 2.83975e-20)
(7.8252 -17.8713 6.92853e-20)
(8.48026 -18.1016 3.01933e-19)
(9.13718 -18.1145 -3.40737e-19)
(9.75889 -17.9248 -3.41238e-19)
(10.3193 -17.5736 3.95798e-19)
(10.8063 -17.1065 -1.01674e-19)
(11.2197 -16.5679 1.27544e-20)
(11.5658 -15.9963 1.1979e-20)
(11.8523 -15.4186 -3.4214e-19)
(12.0926 -14.8578 4.57821e-19)
(12.2955 -14.3253 9.38345e-21)
(12.4726 -13.8309 0)
(12.6313 -13.3773 7.84404e-21)
(12.7777 -12.9649 1.16411e-19)
(12.9163 -12.5919 0)
(13.0529 -12.2577 -1.11666e-19)
(13.1888 -11.9578 0)
(13.3268 -11.6899 -1.06198e-19)
(13.4689 -11.4508 -4.01355e-19)
(13.6152 -11.2373 1.00698e-19)
(13.7648 -11.0452 1.90187e-19)
(13.9209 -10.8742 -3.80527e-19)
(14.081 -10.7198 3.72659e-19)
(14.2474 -10.5821 1.79847e-19)
(14.4179 -10.4569 1.76973e-19)
(14.5931 -10.3441 -1.79812e-19)
(14.772 -10.2411 0)
(14.9541 -10.1466 1.70103e-19)
(15.1403 -10.0606 1.72816e-19)
(15.3289 -9.98114 -3.38145e-19)
(15.52 -9.90749 3.35391e-19)
(15.7124 -9.83851 1.68334e-19)
(15.9075 -9.77448 3.34208e-19)
(16.1032 -9.7139 -6.57475e-19)
(16.2987 -9.65556 -3.27199e-19)
(16.495 -9.59997 3.28842e-19)
(16.6918 -9.54675 3.38449e-21)
(16.888 -9.49467 0)
(17.0827 -9.44319 -3.18742e-19)
(17.2771 -9.39273 3.15723e-19)
(17.466 -9.3396 -5.12613e-21)
(17.668 -9.29616 0)
(8.44765 -16.3697 -5.73041e-20)
(8.96095 -16.6958 -3.24997e-21)
(9.51809 -16.95 1.39549e-19)
(10.0968 -17.112 0)
(10.6745 -17.1693 -7.88504e-20)
(11.2315 -17.1209 -8.35817e-20)
(11.7519 -16.976 7.00362e-21)
(12.2258 -16.7502 9.76422e-20)
(12.6502 -16.462 9.99826e-20)
(13.0254 -16.1296 3.95185e-19)
(13.3538 -15.7701 8.79572e-21)
(13.641 -15.3977 -1.93671e-19)
(13.8924 -15.0237 -4.00325e-19)
(14.1143 -14.6567 5.91948e-19)
(14.3118 -14.3015 -4.91831e-19)
(14.4898 -13.9623 2.92452e-19)
(14.6542 -13.6427 9.38266e-20)
(14.8064 -13.3411 1.89154e-19)
(14.9508 -13.0596 -1.84615e-19)
(15.0896 -12.7969 -2.68039e-19)
(15.2244 -12.552 3.60788e-19)
(15.357 -12.3242 -1.79157e-19)
(15.4881 -12.1122 1.73131e-19)
(15.6197 -11.9158 4.98255e-22)
(15.7508 -11.7327 -3.38058e-19)
(15.8835 -11.5629 -1.65529e-19)
(16.0173 -11.4045 -1.6332e-19)
(16.1512 -11.2559 3.21679e-19)
(16.287 -11.1173 -4.83157e-19)
(16.4244 -10.9873 1.59006e-19)
(16.5626 -10.8647 1.5619e-19)
(16.702 -10.7491 3.14292e-19)
(16.8417 -10.6395 -3.1276e-19)
(16.9835 -10.5364 -3.1167e-19)
(17.1254 -10.4374 6.25454e-19)
(17.2673 -10.3426 0)
(17.41 -10.2519 0)
(17.5531 -10.1647 3.11508e-19)
(17.6958 -10.0801 3.05071e-19)
(17.8383 -9.99829 6.10439e-19)
(17.9804 -9.91901 -2.49137e-21)
(18.119 -9.83927 -3.03737e-19)
(18.2722 -9.77728 0)
(9.29402 -15.5892 -2.17967e-19)
(9.74328 -15.8597 1.63859e-19)
(10.2246 -16.081 -6.47845e-20)
(10.7268 -16.2441 0)
(11.237 -16.3425 1.47436e-19)
(11.742 -16.3741 1.56097e-19)
(12.2304 -16.34 8.38643e-20)
(12.6931 -16.246 -3.4412e-19)
(13.1242 -16.0997 2.56813e-19)
(13.5203 -15.9104 0)
(13.8807 -15.6877 3.63157e-19)
(14.206 -15.4412 -4.50368e-19)
(14.499 -15.179 8.88945e-20)
(14.7625 -14.9086 8.97536e-20)
(14.9996 -14.6358 1.74892e-21)
(15.2143 -14.3654 -1.76129e-19)
(15.4094 -14.1002 2.58656e-19)
(15.5887 -13.8428 0)
(15.7541 -13.5941 0)
(15.9088 -13.3557 1.7159e-19)
(16.0547 -13.1275 2.90505e-21)
(16.1933 -12.9095 8.8973e-22)
(16.3269 -12.7024 -1.61056e-19)
(16.456 -12.5058 0)
(16.5817 -12.3192 2.26425e-21)
(16.7051 -12.1425 2.3242e-21)
(16.8265 -11.9749 1.54213e-19)
(16.9458 -11.8155 -3.0506e-19)
(17.0642 -11.664 -3.01131e-19)
(17.1817 -11.5197 1.48979e-19)
(17.2988 -11.3825 -1.51422e-19)
(17.4153 -11.2518 1.49435e-19)
(17.5307 -11.1266 -1.48875e-19)
(17.6458 -11.0068 1.47276e-19)
(17.7608 -10.8917 0)
(17.8748 -10.7807 1.47244e-19)
(17.9891 -10.6742 0)
(18.1031 -10.5712 -2.97159e-19)
(18.2168 -10.4719 -1.49567e-19)
(18.3294 -10.3756 -5.91717e-19)
(18.4416 -10.2824 -2.96716e-19)
(18.5515 -10.19 0)
(18.6712 -10.1121 2.90329e-19)
(9.91435 -15.006 0)
(10.3253 -15.2445 2.26591e-19)
(10.7608 -15.4415 -4.17338e-19)
(11.2129 -15.5924 4.84293e-20)
(11.6734 -15.6935 1.96363e-19)
(12.1334 -15.7447 -1.44669e-19)
(12.5842 -15.748 7.97082e-20)
(13.0187 -15.7059 -1.53716e-19)
(13.4321 -15.6228 2.93162e-21)
(13.8201 -15.5046 -1.67297e-19)
(14.1806 -15.3568 1.6545e-19)
(14.513 -15.1853 0)
(14.8182 -14.9956 8.50038e-20)
(15.098 -14.793 -3.36347e-19)
(15.3533 -14.5828 8.0781e-20)
(15.586 -14.3684 2.50507e-19)
(15.7986 -14.1527 1.61721e-19)
(15.9937 -13.9379 1.68325e-21)
(16.1742 -13.7261 -1.27355e-21)
(16.342 -13.5183 3.1728e-19)
(16.4994 -13.3159 -1.52614e-19)
(16.6481 -13.1193 0)
(16.7896 -12.9298 0)
(16.9244 -12.7477 0)
(17.053 -12.5725 3.35178e-21)
(17.1768 -12.4043 -1.46625e-19)
(17.2967 -12.2428 0)
(17.4127 -12.0875 1.4736e-19)
(17.5258 -11.9383 1.46319e-19)
(17.6365 -11.7954 -2.74529e-21)
(17.7447 -11.6583 0)
(17.8506 -11.5266 0)
(17.9542 -11.3992 0)
(18.0563 -11.2765 -2.8581e-19)
(18.1571 -11.158 0)
(18.2566 -11.0435 -1.44284e-19)
(18.3555 -10.9328 2.85542e-19)
(18.4537 -10.8257 -1.44533e-19)
(18.5509 -10.7225 1.4561e-19)
(18.6465 -10.6224 2.89186e-19)
(18.741 -10.5255 0)
(18.8336 -10.4298 -2.848e-19)
(18.9305 -10.3435 2.83275e-19)
(10.395 -14.5451 1.88074e-19)
(10.7797 -14.7636 1.082e-19)
(11.1846 -14.9447 -2.79321e-19)
(11.6031 -15.0851 -6.14893e-20)
(12.0302 -15.182 0)
(12.4582 -15.2393 2.03382e-19)
(12.8796 -15.2572 -6.82746e-20)
(13.2889 -15.2375 -1.45602e-19)
(13.682 -15.1843 7.71268e-20)
(14.054 -15.1027 0)
(14.4032 -14.9948 0)
(14.729 -14.8655 0)
(15.0322 -14.7193 -1.59158e-19)
(15.3138 -14.5607 4.23836e-21)
(15.5719 -14.3944 -9.39345e-22)
(15.8083 -14.2205 -4.79602e-19)
(16.0263 -14.0414 -3.02747e-21)
(16.2285 -13.8597 -1.56685e-19)
(16.4164 -13.6776 -2.63474e-21)
(16.5927 -13.4965 -3.06644e-19)
(16.7584 -13.3175 1.50827e-19)
(16.9155 -13.1424 1.47834e-19)
(17.0638 -12.9729 7.35528e-20)
(17.203 -12.8083 -2.16337e-19)
(17.335 -12.6485 1.45059e-19)
(17.4603 -12.4935 2.15002e-19)
(17.5805 -12.3429 -7.0417e-20)
(17.6963 -12.1967 -1.39043e-19)
(17.8081 -12.0561 1.39672e-19)
(17.9157 -11.9206 -1.39509e-19)
(18.0194 -11.7899 4.2908e-22)
(18.1195 -11.6631 3.86827e-22)
(18.2169 -11.5396 -1.37947e-19)
(18.3122 -11.4204 2.05965e-21)
(18.4054 -11.3049 -1.3734e-19)
(18.4971 -11.1927 0)
(18.5877 -11.0837 -8.33718e-22)
(18.6774 -10.9783 -4.17575e-19)
(18.765 -10.8772 -1.37735e-19)
(18.8503 -10.779 4.17569e-19)
(18.9337 -10.6837 -1.39299e-19)
(19.0159 -10.5896 0)
(19.0989 -10.4989 0)
(10.7755 -14.172 -9.25627e-20)
(11.1397 -14.377 3.48967e-21)
(11.52 -14.5484 6.23372e-22)
(11.9113 -14.6836 1.09035e-19)
(12.3136 -14.7759 2.40984e-19)
(12.7191 -14.837 -2.58487e-19)
(13.1166 -14.8639 2.72975e-19)
(13.5043 -14.857 1.43183e-19)
(13.8781 -14.8225 0)
(14.2302 -14.765 -1.49085e-19)
(14.5645 -14.68 2.9723e-19)
(14.8812 -14.5751 -3.04862e-19)
(15.1801 -14.4549 3.05601e-19)
(15.4603 -14.3238 1.54564e-19)
(15.7137 -14.1862 0)
(15.9486 -14.0355 0)
(16.1695 -13.8783 -1.49814e-19)
(16.3756 -13.719 -1.48377e-19)
(16.5688 -13.5582 -7.42157e-20)
(16.7509 -13.3971 7.26111e-20)
(16.923 -13.2374 0)
(17.0861 -13.0813 7.16328e-20)
(17.2368 -12.9318 -2.81787e-19)
(17.3777 -12.7832 2.7991e-19)
(17.5109 -12.6378 2.06923e-19)
(17.6368 -12.4954 -2.05751e-19)
(17.7577 -12.3552 6.79922e-20)
(17.8742 -12.2195 1.36621e-19)
(17.985 -12.0893 0)
(18.0909 -11.9625 -6.64998e-20)
(18.1917 -11.8391 6.65577e-20)
(18.2881 -11.7185 0)
(18.3821 -11.601 0)
(18.4733 -11.488 4.02081e-19)
(18.5623 -11.3776 1.35458e-19)
(18.65 -11.2692 -2.6919e-19)
(18.7366 -11.1641 1.34846e-19)
(18.8218 -11.0633 1.36162e-19)
(18.9029 -10.968 2.71697e-19)
(18.9806 -10.8745 -2.72338e-19)
(19.0559 -10.7833 8.09699e-22)
(19.1301 -10.6919 -1.35004e-19)
(19.2084 -10.6059 -2.63441e-19)
(11.092 -13.8564 -9.19886e-20)
(11.443 -14.0527 1.99929e-19)
(11.8104 -14.212 -1.29817e-21)
(12.1896 -14.3413 -2.2487e-19)
(12.5841 -14.4057 -2.95865e-21)
(12.9779 -14.4742 2.46385e-19)
(13.3594 -14.5 -1.35382e-19)
(13.7338 -14.497 1.31542e-19)
(14.0991 -14.4652 1.35994e-19)
(14.4335 -14.416 -1.44446e-19)
(14.7569 -14.3347 -4.11191e-21)
(15.0642 -14.2479 3.00544e-19)
(15.3573 -14.1453 -1.46577e-19)
(15.6275 -14.035 1.4466e-19)
(15.855 -13.9284 1.48942e-19)
(16.0828 -13.7933 -1.48984e-19)
(16.2975 -13.667 2.96217e-19)
(16.5005 -13.5342 1.47627e-19)
(16.6949 -13.3944 -1.43179e-19)
(16.8784 -13.253 1.42375e-19)
(17.0536 -13.1115 -1.41051e-19)
(17.2198 -12.9728 0)
(17.3673 -12.8426 2.06145e-19)
(17.51 -12.6998 -2.03001e-19)
(17.6422 -12.5694 -1.82622e-21)
(17.767 -12.4375 3.35993e-19)
(17.8874 -12.3084 -1.9983e-19)
(18.0062 -12.1805 6.35993e-20)
(18.1159 -12.0582 1.92648e-19)
(18.2183 -11.9389 1.87675e-21)
(18.3117 -11.8276 -1.34505e-19)
(18.4033 -11.7183 1.32683e-19)
(18.4969 -11.606 -1.28876e-19)
(18.5865 -11.4981 -1.55466e-21)
(18.6722 -11.3925 1.33479e-19)
(18.7542 -11.2919 -6.71912e-20)
(18.8357 -11.1967 -6.81134e-20)
(18.9167 -11.104 -1.33113e-19)
(18.9914 -11.019 -2.74692e-22)
(19.0644 -10.9283 2.69577e-19)
(19.1327 -10.8435 2.67904e-19)
(19.2003 -10.7574 -1.35845e-19)
(19.2703 -10.6722 1.28807e-19)
(24.0941 6.03058 9.35792e-19)
(24.1474 6.06172 -6.32444e-19)
(24.1993 6.09389 1.60654e-19)
(24.2502 6.12518 0)
(24.3002 6.15585 0)
(24.3492 6.18594 1.6761e-19)
(24.3972 6.21544 6.80338e-19)
(24.4441 6.24434 -6.86071e-19)
(24.4899 6.27263 0)
(24.5345 6.30032 1.76541e-19)
(24.5778 6.32735 0)
(24.6196 6.35371 -1.82611e-19)
(24.6599 6.37937 0)
(24.6984 6.40428 0)
(24.7349 6.42837 9.77643e-19)
(24.769 6.45158 -8.00861e-19)
(24.8006 6.47379 -2.06039e-19)
(24.8291 6.49492 0)
(24.8541 6.51479 -8.82021e-19)
(24.8751 6.53325 1.94028e-18)
(24.8912 6.55008 2.57457e-21)
(24.9018 6.56503 -1.11143e-18)
(24.9057 6.57776 1.29134e-19)
(24.9017 6.58792 -1.08422e-18)
(24.8884 6.59502 2.2758e-18)
(24.8638 6.5985 -1.27264e-18)
(24.8258 6.59769 -7.9272e-20)
(24.7715 6.59175 -1.34333e-18)
(24.6977 6.57975 1.51257e-18)
(24.6009 6.56068 9.50032e-20)
(24.4769 6.53349 -9.84558e-24)
(24.3218 6.49707 -1.83486e-18)
(24.1308 6.45015 5.4034e-20)
(23.8983 6.39114 1.99165e-18)
(23.6173 6.31803 0)
(23.2783 6.22805 -2.37391e-18)
(22.8683 6.11731 2.70392e-18)
(22.3679 5.98007 0)
(21.7462 5.80716 -1.0596e-19)
(20.9484 5.58154 2.49052e-19)
(19.8575 5.26863 -2.43679e-18)
(18.1544 4.75226 3.40526e-18)
(14.2236 3.67056 0)
(24.1231 5.9824 -9.63154e-19)
(24.1724 6.0088 -1.42563e-21)
(24.2198 6.03778 4.98833e-19)
(24.2666 6.0659 -1.68631e-19)
(24.3127 6.09344 1.70462e-19)
(24.3581 6.12048 -1.72276e-19)
(24.4028 6.14703 0)
(24.4466 6.17309 -1.75942e-19)
(24.4897 6.19866 0)
(24.532 6.22372 -1.80721e-19)
(24.5734 6.24826 0)
(24.6139 6.27228 1.86617e-19)
(24.6533 6.29575 7.60926e-19)
(24.6915 6.31866 -6.77618e-19)
(24.7284 6.34096 -9.94289e-20)
(24.7639 6.36261 -8.16294e-19)
(24.7976 6.38354 9.41804e-19)
(24.8294 6.40369 0)
(24.8588 6.42297 0)
(24.8855 6.44126 0)
(24.909 6.4584 -9.64253e-19)
(24.9286 6.47423 1.00156e-18)
(24.9436 6.48849 -1.31086e-19)
(24.953 6.50092 0)
(24.9557 6.51114 7.20326e-20)
(24.9502 6.51868 7.59505e-20)
(24.9345 6.52298 0)
(24.9064 6.5233 -8.50253e-20)
(24.8629 6.51873 0)
(24.8004 6.50819 -9.60817e-20)
(24.7146 6.49042 -1.02468e-19)
(24.6007 6.46397 1.09503e-19)
(24.4531 6.42727 0)
(24.2653 6.37844 1.26698e-19)
(24.0293 6.3152 2.19751e-18)
(23.7348 6.23457 -2.53582e-18)
(23.3677 6.13255 2.62888e-18)
(22.9075 6.00334 -2.91362e-18)
(22.3224 5.83803 -1.54498e-18)
(21.5561 5.61989 1.89423e-18)
(20.4864 5.3166 -1.40647e-19)
(18.7852 4.80205 -3.51974e-19)
(15.1738 3.76861 -2.51575e-19)
(24.1492 5.93941 -1.639e-19)
(24.1949 5.96142 3.37053e-19)
(24.2386 5.98754 -6.81929e-19)
(24.282 6.01286 5.16217e-19)
(24.3251 6.03767 3.48768e-19)
(24.3676 6.06208 -3.50877e-19)
(24.4096 6.0861 1.77343e-19)
(24.451 6.10973 3.58433e-19)
(24.4919 6.13296 -7.26025e-19)
(24.5322 6.15578 7.33082e-19)
(24.5719 6.17817 -7.46206e-19)
(24.611 6.20013 -2.50275e-21)
(24.6493 6.22164 7.70091e-19)
(24.6868 6.24269 -9.8512e-20)
(24.7234 6.26326 8.0708e-19)
(24.7589 6.28331 -8.25253e-19)
(24.7932 6.30278 0)
(24.8262 6.32162 0)
(24.8574 6.33975 1.13117e-19)
(24.8868 6.35708 0)
(24.9138 6.37351 -9.76511e-19)
(24.938 6.3889 1.14084e-18)
(24.9588 6.40306 1.06239e-18)
(24.9754 6.41578 -1.10911e-18)
(24.987 6.42677 1.09539e-18)
(24.9924 6.43569 -1.22639e-18)
(24.9899 6.44208 -8.09481e-20)
(24.9777 6.44536 8.59389e-20)
(24.9532 6.44478 0)
(24.9132 6.43939 -9.68747e-20)
(24.8535 6.42798 -1.03323e-19)
(24.7691 6.40912 1.77257e-18)
(24.6539 6.3811 -1.89237e-18)
(24.5008 6.34193 -2.03925e-18)
(24.301 6.2892 3.29221e-18)
(24.0435 6.2199 -1.03964e-18)
(23.7134 6.12998 0)
(23.2897 6.01367 0)
(22.7396 5.86217 1.60036e-18)
(22.0062 5.65833 -1.92769e-18)
(20.964 5.36954 -1.98521e-18)
(19.272 4.87613 3.05226e-18)
(15.8328 3.87136 3.69255e-18)
(24.1719 5.89941 6.7654e-19)
(24.2147 5.91856 -6.8916e-19)
(24.2556 5.94201 6.97698e-19)
(24.2963 5.96481 -3.51659e-19)
(24.3368 5.98726 -1.77545e-19)
(24.3769 6.00943 3.58975e-19)
(24.4166 6.03133 -5.4145e-19)
(24.4559 6.05292 -1.82556e-19)
(24.4949 6.07419 0)
(24.5334 6.09517 7.47854e-19)
(24.5715 6.1158 -7.56107e-19)
(24.6092 6.13608 0)
(24.6464 6.156 -7.85005e-19)
(24.683 6.17555 6.98829e-19)
(24.719 6.19475 -9.21994e-19)
(24.7542 6.21354 9.42979e-19)
(24.7886 6.23189 0)
(24.822 6.24974 0)
(24.8541 6.267 -1.14981e-19)
(24.8848 6.28362 -1.1894e-19)
(24.9137 6.2995 -1.23523e-19)
(24.9405 6.31453 -1.28838e-19)
(24.9646 6.32856 0)
(24.9856 6.3414 0)
(25.0025 6.3528 0)
(25.0145 6.36249 0)
(25.0203 6.37008 2.45568e-19)
(25.0181 6.37509 0)
(25.006 6.37691 0)
(24.9809 6.3747 -6.84319e-19)
(24.9393 6.36741 1.01642e-19)
(24.8762 6.35366 -2.68385e-21)
(24.7856 6.3318 9.48152e-19)
(24.6599 6.29979 8.91903e-19)
(24.49 6.25516 -1.09311e-18)
(24.2641 6.19478 -1.18404e-18)
(23.9668 6.11457 2.40787e-18)
(23.5765 6.0087 -1.40371e-18)
(23.0601 5.8684 -1.55711e-18)
(22.3599 5.67627 -4.38219e-21)
(21.3481 5.39692 2.00311e-18)
(19.6737 4.92115 -2.99042e-19)
(16.3403 3.94872 -1.95238e-18)
(24.1916 5.86199 -2.30227e-22)
(24.2316 5.87924 1.75744e-19)
(24.2699 5.90039 -1.77959e-19)
(24.3082 5.92102 0)
(24.3462 5.9414 0)
(24.3839 5.96161 0)
(24.4215 5.98166 0)
(24.4588 6.00149 0)
(24.4959 6.02109 -4.69173e-19)
(24.5327 6.04047 3.78875e-19)
(24.5692 6.0596 -3.85157e-19)
(24.6055 6.07845 3.90241e-19)
(24.6415 6.09701 4.97977e-19)
(24.6772 6.11528 -3.0395e-19)
(24.7126 6.13327 1.03939e-19)
(24.7475 6.15102 -2.13068e-19)
(24.7819 6.16848 4.38774e-19)
(24.8154 6.18555 -4.50868e-19)
(24.8481 6.20214 0)
(24.8798 6.21821 1.20896e-19)
(24.9103 6.23371 2.50878e-19)
(24.9391 6.24854 0)
(24.9659 6.26258 0)
(24.9902 6.27565 -1.42388e-19)
(25.0113 6.28755 -5.98574e-19)
(25.0285 6.29801 4.70394e-19)
(25.0405 6.3067 4.97395e-19)
(25.0461 6.31321 -5.23595e-19)
(25.0433 6.31698 -1.85002e-19)
(25.0296 6.31733 1.96376e-19)
(25.0018 6.31327 7.331e-19)
(24.9553 6.30356 -8.8972e-19)
(24.8843 6.28658 -1.18826e-19)
(24.7812 6.26031 1.01909e-18)
(24.6366 6.22224 -1.22599e-18)
(24.4381 6.16915 -1.46736e-19)
(24.1698 6.09681 1.58824e-19)
(23.8095 5.99924 1.72651e-19)
(23.3235 5.86757 0)
(22.6533 5.68472 -2.1092e-19)
(21.6698 5.4123 7.19599e-19)
(20.0158 4.94795 -8.41948e-19)
(16.7546 4.00717 3.58478e-19)
(24.2091 5.82705 -1.73319e-19)
(24.2461 5.84344 1.79968e-19)
(24.2821 5.86252 2.19463e-22)
(24.3181 5.88124 0)
(24.3539 5.89981 9.20077e-20)
(24.3896 5.91831 2.78651e-19)
(24.4251 5.93676 -3.72713e-19)
(24.4606 5.95507 0)
(24.4959 5.97323 -3.80788e-19)
(24.5312 5.99127 3.84404e-19)
(24.5663 6.00918 0)