/*--------------------------------*- C++ -*----------------------------------*\
| =========                 |                                                 |
| \\      /  F ield         | OpenFOAM: The Open Source CFD Toolbox           |
|  \\    /   O peration     | Version:  2.3.0                                 |
|   \\  /    A nd           | Web:      www.OpenFOAM.org                      |
|    \\/     M anipulation  |                                                 |
\*---------------------------------------------------------------------------*/
FoamFile
{
    version     2.0;
    format      ascii;
    class       volScalarField;
    location    "2000";
    object      p;
}
// * * * * * * * * * * * * * * * * * * * * * * * * * * * * * * * * * * * * * //

dimensions      [0 2 -2 0 0 0 0];

internalField   nonuniform List<scalar> 
37724
(
4.67817e-05
-0.0841586
-0.185751
-0.290856
-0.398982
-0.510234
-0.624906
-0.743159
-0.865165
-0.991108
-1.12118
-1.25556
-1.39438
-1.53777
-1.68576
-1.83831
-1.99527
-2.15638
-2.32123
-2.48922
-2.65961
-2.83142
-3.00346
-3.17434
-3.34241
-3.50577
-3.66212
-3.80899
-3.94339
-4.06204
-4.16095
-4.23542
-4.27985
-4.28732
-4.24919
-4.15476
-3.98907
-3.72602
-3.32394
-2.76995
-2.16154
-1.3046
1.73473
0.151313
0.0823294
-0.00312044
-0.0916711
-0.182599
-0.275908
-0.371781
-0.470309
-0.571596
-0.675779
-0.783021
-0.893508
-1.00747
-1.12518
-1.24695
-1.37319
-1.50432
-1.64084
-1.78328
-1.9322
-2.0881
-2.25147
-2.42253
-2.60146
-2.78787
-2.981
-3.17937
-3.38062
-3.58099
-3.77527
-3.95611
-4.11359
-4.23421
-4.30051
-4.28941
-4.17135
-3.90828
-3.45151
-2.74123
-1.70583
-0.232297
1.92796
5.08181
0.30022
0.247447
0.179473
0.109553
0.0386815
-0.0331009
-0.105875
-0.179582
-0.254122
-0.329434
-0.405428
-0.481968
-0.558875
-0.635909
-0.712775
-0.789094
-0.864419
-0.938214
-1.00986
-1.0786
-1.14362
-1.2039
-1.25834
-1.30555
-1.34398
-1.37165
-1.38623
-1.38483
-1.36392
-1.31907
-1.24473
-1.13409
-0.978792
-0.768472
-0.490948
-0.131753
0.325651
0.899202
1.6069
2.46521
3.48868
4.68572
6.02978
0.433742
0.395484
0.341718
0.286004
0.229602
0.172726
0.115365
0.0575742
-0.000490658
-0.0587756
-0.117252
-0.175851
-0.234437
-0.29293
-0.351117
-0.40879
-0.465657
-0.52142
-0.57557
-0.627522
-0.67654
-0.721719
-0.761935
-0.795756
-0.821401
-0.836668
-0.838906
-0.824857
-0.7905
-0.731025
-0.640666
-0.512544
-0.33853
-0.109389
0.185448
0.557559
1.01908
1.5819
2.25636
3.04907
3.96
4.97777
6.07284
0.568713
0.536961
0.491652
0.446122
0.40113
0.356422
0.31187
0.267428
0.22346
0.180085
0.137317
0.0952054
0.0541496
0.0142475
-0.0240588
-0.0605292
-0.0945248
-0.125828
-0.153805
-0.177559
-0.196341
-0.209139
-0.21487
-0.212234
-0.199585
-0.174936
-0.135977
-0.0800567
-0.0037898
0.0965293
0.225732
0.38884
0.592111
0.842137
1.14611
1.51176
1.94621
2.45573
3.04424
3.71231
4.4544
5.2583
6.10234
0.679949
0.660547
0.623888
0.58782
0.552454
0.517357
0.482657
0.447923
0.414095
0.381496
0.350036
0.319058
0.289553
0.261087
0.234712
0.210113
0.188748
0.170157
0.154588
0.14366
0.138031
0.138844
0.14711
0.164087
0.191307
0.23081
0.285011
0.355614
0.446457
0.559776
0.701251
0.874116
1.08411
1.33669
1.63632
1.98957
2.40107
2.87491
3.4113
4.01036
4.66341
5.3606
6.08504
0.786997
0.771105
0.741714
0.71324
0.685834
0.658345
0.632179
0.604932
0.578433
0.553652
0.531711
0.509712
0.490468
0.470964
0.454831
0.439209
0.428658
0.422233
0.417335
0.4175
0.423182
0.436033
0.456576
0.485317
0.524005
0.575026
0.642104
0.723762
0.826572
0.94736
1.09629
1.27277
1.4828
1.73321
2.02262
2.35857
2.74182
3.17802
3.66758
4.21382
4.80017
5.42202
6.06601
0.882094
0.87236
0.846487
0.822266
0.80138
0.77907
0.7615
0.74109
0.719717
0.698358
0.683309
0.665754
0.656173
0.642518
0.635937
0.624154
0.619262
0.624755
0.628405
0.635948
0.647515
0.666954
0.695782
0.732398
0.775603
0.83137
0.906332
0.991258
1.10508
1.23153
1.38687
1.56352
1.77098
2.01856
2.29587
2.62234
2.98778
3.39527
3.85702
4.36207
4.8875
5.44833
6.03144
0.975903
0.980653
0.951318
0.931168
0.913401
0.897331
0.884371
0.866024
0.849391
0.834252
0.836488
0.811797
0.811209
0.796851
0.80445
0.788955
0.784144
0.801943
0.80495
0.812674
0.82117
0.836681
0.867807
0.923548
0.984429
1.02919
1.12945
1.18934
1.32537
1.43655
1.593
1.76177
1.96044
2.20756
2.46592
2.79079
3.16575
3.63063
4.04366
4.51812
4.96614
5.45403
5.97012
11.7931
15.9596
16.7854
17.1911
17.5595
17.8042
17.915
17.9293
17.8766
17.7739
17.6329
17.4623
17.2691
17.0585
16.8348
16.6015
16.3612
16.1166
15.8693
15.6213
15.374
15.1286
14.886
14.6473
14.413
14.1837
13.9597
13.7414
13.5289
13.322
13.1209
12.9254
12.7353
12.5504
12.3706
12.1954
12.0248
11.8585
11.6962
11.5381
11.3838
11.2317
11.0499
8.76351
11.9298
14.0459
15.4498
16.3991
17.0184
17.3834
17.5554
17.5837
17.5069
17.3547
17.1502
16.9107
16.6495
16.3766
16.0991
15.8222
15.5496
15.2836
15.0257
14.7766
14.5366
14.3057
14.0836
13.8697
13.6637
13.4648
13.2727
13.0866
12.9062
12.731
12.5607
12.395
12.2336
12.0762
11.9226
11.7727
11.6263
11.4832
11.3434
11.2065
11.0705
10.9058
7.44233
8.80696
10.0012
10.9979
11.8093
12.4563
12.96
13.3417
13.6215
13.8178
13.9462
14.02
14.0502
14.0455
14.0132
13.9588
13.8871
13.8014
13.7048
13.5994
13.4872
13.3697
13.2481
13.1235
12.9968
12.8686
12.7396
12.6104
12.4813
12.3528
12.225
12.0983
11.9729
11.8488
11.7261
11.6049
11.4853
11.3672
11.2505
11.1354
11.0216
10.9059
10.763
7.19699
8.28142
9.27598
10.1519
10.8994
11.5207
12.0247
12.4234
12.73
12.9578
13.1193
13.2256
13.2864
13.3103
13.3043
13.2743
13.2251
13.1609
13.0849
12.9997
12.9077
12.8105
12.7097
12.6062
12.5011
12.3949
12.2881
12.1812
12.0745
11.9682
11.8625
11.7576
11.6536
11.5504
11.4483
11.3471
11.2471
11.148
11.0498
10.9527
10.8566
10.7587
10.642
6.95794
7.79344
8.57958
9.29469
9.92727
10.473
10.9337
11.3149
11.6239
11.8692
12.0591
12.2014
12.3036
12.372
12.4122
12.429
12.4263
12.4074
12.3753
12.3323
12.2805
12.2216
12.1571
12.0881
12.0152
11.9393
11.8609
11.7807
11.699
11.6165
11.5334
11.4498
11.3661
11.2823
11.1987
11.1155
11.0327
10.9503
10.8684
10.7872
10.7068
10.6271
10.5497
6.8153
7.53136
8.21259
8.84156
9.40921
9.90752
10.3373
10.7013
11.0035
11.2508
11.449
11.6037
11.7217
11.8074
11.8665
11.9029
11.9196
11.9196
11.9058
11.8807
11.8468
11.8059
11.7594
11.7079
11.6519
11.5922
11.5296
11.4646
11.3982
11.3308
11.2628
11.1939
11.1243
11.0542
10.9843
10.9146
10.8453
10.7759
10.7066
10.6374
10.5683
10.4999
10.4398
6.71089
7.3447
7.95104
8.51386
9.0263
9.47852
9.87744
10.2216
10.5115
10.7549
10.9544
11.1136
11.2408
11.3371
11.4095
11.4601
11.4907
11.5044
11.5043
11.4938
11.4765
11.4524
11.4225
11.3855
11.343
11.2961
11.246
11.1934
11.1402
11.0861
11.0308
10.9732
10.9143
10.8551
10.7968
10.7391
10.6805
10.6212
10.5618
10.5024
10.4429
10.3836
10.3385
6.61221
7.18733
7.74169
8.26277
8.74103
9.16673
9.54453
9.87196
10.1477
10.3871
10.5868
10.7449
10.88
10.985
11.0658
11.1234
11.1587
11.1778
11.1861
11.1892
11.188
11.1753
11.1562
11.1242
11.0877
11.0483
11.0071
10.9642
10.9229
10.8792
10.8324
10.7817
10.7313
10.6822
10.6356
10.5879
10.5358
10.4849
10.4341
10.3839
10.3327
10.2827
10.255
6.49072
7.01804
7.52749
7.98356
8.53236
8.95963
9.32292
9.63072
9.88707
10.122
10.3191
10.4642
10.6041
10.701
10.8013
10.8656
10.8917
10.9081
10.9193
10.9283
10.9271
10.921
10.9022
10.8829
10.855
10.8237
10.7931
10.7605
10.7301
10.6913
10.6509
10.6078
10.5694
10.5306
10.4903
10.4375
10.4038
10.3663
10.3246
10.2847
10.2394
10.196
10.1788
2.54294
2.53256
2.5233
2.51533
2.50915
2.5052
2.50402
2.50628
2.51268
2.52402
2.54114
2.56483
2.59583
2.63466
2.68157
2.73645
2.79882
2.86794
2.94289
3.02249
3.10535
3.18984
3.27418
3.35638
3.43442
3.50615
3.56939
3.62197
3.66178
3.68672
3.69473
3.68382
3.65212
3.59788
3.51946
3.41547
3.28475
3.12657
2.94146
2.72841
2.48256
2.14824
2.16911
2.56224
2.54985
2.53684
2.5231
2.50849
2.49278
2.47568
2.45689
2.4361
2.413
2.38727
2.35867
2.32703
2.29228
2.25445
2.21373
2.17041
2.12492
2.07772
2.02937
1.98049
1.93173
1.88375
1.83719
1.79256
1.75038
1.71109
1.67505
1.64243
1.6134
1.58805
1.56649
1.54876
1.53497
1.52524
1.5198
1.51904
1.52311
1.53254
1.54528
1.57354
1.52143
1.60114
2.58063
2.56861
2.55562
2.54163
2.52658
2.51029
2.49259
2.47327
2.45211
2.42889
2.40341
2.37547
2.34492
2.31166
2.27566
2.23701
2.19583
2.15234
2.10679
2.05949
2.01075
1.96097
1.91052
1.85981
1.80925
1.75925
1.7102
1.66249
1.61654
1.57277
1.53158
1.49338
1.45867
1.42798
1.4018
1.38067
1.36491
1.35426
1.34825
1.33934
1.34445
1.30682
1.32671
2.6005
2.59039
2.58023
2.56964
2.55875
2.54757
2.53608
2.52427
2.51212
2.49959
2.48662
2.47315
2.45911
2.44441
2.42893
2.41254
2.39508
2.37644
2.35643
2.33495
2.31196
2.28747
2.26156
2.23429
2.20574
2.17603
2.14532
2.11379
2.08155
2.04867
2.01527
1.9815
1.94755
1.91377
1.88051
1.84801
1.81645
1.7854
1.75523
1.71818
1.68692
1.64032
1.62715
2.61853
2.61056
2.60212
2.59344
2.58457
2.57554
2.5663
2.55681
2.54703
2.53696
2.52648
2.51553
2.5041
2.49217
2.4797
2.46662
2.45284
2.43825
2.42267
2.40592
2.3879
2.36866
2.34832
2.327
2.30471
2.28149
2.25759
2.23336
2.20916
2.18487
2.16013
2.1348
2.10897
2.08284
2.05673
2.03077
2.00513
1.979
1.95302
1.92081
1.88964
1.85802
1.84958
2.63542
2.62849
2.621
2.61336
2.60548
2.59744
2.58922
2.58067
2.57183
2.56277
2.55335
2.54335
2.53279
2.52177
2.51032
2.49835
2.4859
2.47302
2.45948
2.44491
2.42898
2.41154
2.3929
2.37338
2.35281
2.33103
2.30767
2.28339
2.26006
2.23847
2.21713
2.19463
2.17029
2.14443
2.11778
2.09222
2.06811
2.04381
2.01597
1.97965
1.93691
1.90189
1.89027
2.65119
2.64507
2.63834
2.63178
2.62494
2.6181
2.61141
2.60445
2.59722
2.59011
2.58309
2.57559
2.56763
2.55942
2.55104
2.54228
2.53323
2.52432
2.51522
2.50559
2.49475
2.48173
2.4671
2.45186
2.43581
2.41786
2.39837
2.37491
2.35127
2.33135
2.31286
2.29457
2.27398
2.24876
2.22023
2.18627
2.15301
2.12137
2.08409
2.01636
1.92186
1.83327
1.82017
2.66551
2.66089
2.65471
2.64935
2.6432
2.63709
2.6316
2.62552
2.61884
2.61311
2.60815
2.60194
2.59449
2.58698
2.5806
2.5733
2.56463
2.55804
2.55284
2.54741
2.54152
2.53142
2.51693
2.50485
2.49353
2.48227
2.46126
2.42939
2.39743
2.39028
2.38408
2.3714
2.35182
2.32263
2.28362
2.25778
2.23202
2.23381
2.21382
2.1735
2.04232
1.90738
1.77075
2.67464
2.67176
2.66557
2.66269
2.65803
2.65318
2.65186
2.64955
2.64237
2.63631
2.6374
2.63861
2.63666
2.6298
2.62624
2.62687
2.61891
2.61074
2.60643
2.60953
2.61663
2.61972
2.60623
2.59175
2.58445
2.5848
2.63483
2.6016
2.50421
2.46716
2.47154
2.50225
2.52459
2.52157
2.4993
2.38346
2.27083
2.2693
2.3298
2.19358
1.84031
1.33139
1.12042
2.21162
2.22596
2.59903
2.87546
3.11584
3.32485
3.50368
3.65198
3.77072
3.8613
3.9254
3.96494
3.98201
3.97886
3.95788
3.92155
3.87244
3.81312
3.74623
3.67442
3.60022
3.52604
3.4541
3.38639
3.32467
3.27038
3.22474
3.18863
3.16245
3.14608
3.13901
3.14045
3.14943
3.16494
3.18597
3.21157
3.24085
3.27306
3.30754
3.34374
3.38097
3.41894
3.46049
1.62202
1.55346
1.63019
1.62135
1.63047
1.64348
1.66211
1.68547
1.71324
1.74497
1.78044
1.81956
1.86228
1.90862
1.95852
2.01194
2.06873
2.12874
2.1916
2.25686
2.32398
2.39239
2.46141
2.53037
2.59864
2.66561
2.73071
2.79347
2.85352
2.91064
2.96477
3.01598
3.06443
3.11037
3.15407
3.19585
3.23601
3.27483
3.31258
3.34948
3.38555
3.42079
3.45737
1.34852
1.34687
1.40941
1.4215
1.45022
1.4766
1.50836
1.54559
1.58839
1.6363
1.68873
1.74513
1.805
1.86782
1.93318
2.0007
2.06995
2.14054
2.21207
2.28414
2.3563
2.42809
2.49902
2.56868
2.63663
2.7025
2.76591
2.82659
2.88438
2.93923
2.9912
3.0404
3.08701
3.13124
3.17331
3.21343
3.25185
3.28875
3.32435
3.35884
3.39232
3.42485
3.45799
1.64887
1.68609
1.76097
1.81267
1.87175
1.92331
1.9758
2.02846
2.08158
2.1349
2.18813
2.24095
2.29309
2.3445
2.39513
2.44498
2.49409
2.54246
2.59001
2.63665
2.68227
2.72678
2.7701
2.81219
2.85307
2.89279
2.93142
2.96909
3.00588
3.04188
3.07719
3.11186
3.14594
3.17946
3.21247
3.24496
3.27696
3.30847
3.33951
3.37012
3.40028
3.42997
3.46051
1.87742
1.92237
1.98803
2.04117
2.09359
2.13852
2.18339
2.22718
2.2704
2.31287
2.35468
2.39595
2.43664
2.47683
2.51677
2.55673
2.59689
2.63716
2.67737
2.71733
2.75689
2.7959
2.83424
2.87181
2.90858
2.94456
2.97982
3.01441
3.04833
3.08158
3.11414
3.14604
3.17729
3.20794
3.23801
3.26755
3.29657
3.32514
3.35326
3.38098
3.40827
3.43496
3.46082
1.91473
1.96538
2.03667
2.09813
2.15263
2.19781
2.24178
2.28506
2.32783
2.36987
2.41114
2.45021
2.48687
2.5222
2.55796
2.59543
2.63436
2.6739
2.71347
2.75295
2.79218
2.83087
2.86878
2.90578
2.94182
2.97704
3.01158
3.04544
3.07849
3.11066
3.14193
3.17238
3.20203
3.23095
3.25917
3.28675
3.31373
3.34016
3.36609
3.39155
3.41655
3.44106
3.46595
1.92037
2.05964
2.17248
2.24801
2.29797
2.34024
2.38448
2.42716
2.46387
2.49519
2.52253
2.54703
2.57202
2.60007
2.63372
2.67052
2.70827
2.74587
2.78304
2.81988
2.85636
2.89205
2.92668
2.9602
2.9927
3.02449
3.05584
3.08671
3.11675
3.14588
3.17416
3.20176
3.2287
3.25504
3.28079
3.30599
3.33068
3.35489
3.37866
3.40204
3.42499
3.44741
3.47047
1.80473
1.96244
2.10213
2.17789
2.25574
2.30279
2.35068
2.40445
2.44867
2.49099
2.54976
2.59418
2.62754
2.65345
2.67926
2.71485
2.75519
2.79431
2.82951
2.86494
2.90178
2.93722
2.97062
3.00213
3.03167
3.06082
3.09094
3.121
3.14938
3.17616
3.20217
3.2277
3.25255
3.27683
3.30054
3.3237
3.34644
3.3687
3.39055
3.41204
3.43314
3.45343
3.47517
1.87102
2.75414
2.89618
2.88324
2.80986
2.76781
2.83936
2.91276
2.91256
2.91464
2.88938
2.78922
2.72969
2.69174
2.74296
2.82089
2.86715
2.88929
2.91197
2.94793
2.98376
3.0096
3.03348
3.0555
3.07778
3.10541
3.13626
3.16318
3.18503
3.20678
3.2298
3.25286
3.27497
3.29731
3.31877
3.34013
3.36111
3.3815
3.40159
3.42155
3.44136
3.45916
3.48092
-57.8704
-48.4623
-41.151
-35.7082
-31.1412
-27.1368
-23.6694
-20.6972
-18.155
-15.9804
-14.1196
-12.5258
-11.1588
-9.9834
-8.96935
-8.09076
-7.32571
-6.65554
-6.06464
-5.53995
-5.07063
-4.64767
-4.26369
-3.91269
-3.58972
-3.29078
-3.01262
-2.75259
-2.50854
-2.27873
-2.06169
-1.85622
-1.66129
-1.47606
-1.29976
-1.13171
-0.971344
-0.81812
-0.671568
-0.531126
-0.396461
-0.267245
-0.159033
-19.9467
-20.8702
-20.4935
-19.6485
-18.6223
-17.5173
-16.3806
-15.2462
-14.1391
-13.0767
-12.0701
-11.1256
-10.246
-9.43157
-8.68073
-7.99057
-7.35739
-6.77698
-6.24488
-5.75666
-5.30799
-4.89478
-4.51323
-4.15993
-3.83178
-3.52603
-3.24031
-2.9725
-2.72078
-2.48357
-2.25949
-2.04736
-1.84613
-1.65491
-1.4729
-1.29939
-1.13377
-0.97549
-0.824077
-0.679023
-0.540089
-0.406765
-0.293905
-10.4351
-11.1398
-11.3662
-11.5912
-11.7332
-11.7485
-11.6388
-11.4236
-11.1222
-10.7524
-10.3305
-9.8715
-9.38826
-8.89191
-8.39169
-7.89503
-7.4078
-6.93441
-6.47802
-6.04073
-5.62379
-5.22768
-4.85239
-4.49749
-4.16225
-3.84575
-3.54697
-3.26481
-2.99819
-2.74604
-2.50733
-2.28111
-2.06647
-1.86257
-1.66865
-1.484
-1.30797
-1.13998
-0.97949
-0.825924
-0.678867
-0.537555
-0.412089
-12.9701
-12.2781
-12.0352
-11.8897
-11.7084
-11.4843
-11.2249
-10.9327
-10.6093
-10.2579
-9.88281
-9.48896
-9.08118
-8.66414
-8.24226
-7.81952
-7.39947
-6.98517
-6.57914
-6.18346
-5.79973
-5.4291
-5.07236
-4.72998
-4.40213
-4.08878
-3.78969
-3.50449
-3.23271
-2.97383
-2.72726
-2.49239
-2.26861
-2.05532
-1.85195
-1.6579
-1.47264
-1.29565
-1.12642
-0.964428
-0.809079
-0.659206
-0.521259
-11.9737
-11.3228
-11.2295
-11.0495
-10.8211
-10.5759
-10.3196
-10.0499
-9.7663
-9.4695
-9.16067
-8.84113
-8.5124
-8.17619
-7.83435
-7.48878
-7.14144
-6.79421
-6.44888
-6.10715
-5.7705
-5.44025
-5.11749
-4.80317
-4.49798
-4.20246
-3.91697
-3.64171
-3.37674
-3.12204
-2.87747
-2.64281
-2.4178
-2.20215
-1.99551
-1.79751
-1.6078
-1.42599
-1.25169
-1.08444
-0.923773
-0.768595
-0.624866
-9.51567
-9.27686
-9.33783
-9.25951
-9.16275
-9.0559
-8.93293
-8.79025
-8.62804
-8.4472
-8.24879
-8.03401
-7.80429
-7.56123
-7.30654
-7.04201
-6.76946
-6.49074
-6.20763
-5.92188
-5.63514
-5.34892
-5.06461
-4.78346
-4.50656
-4.23483
-3.96906
-3.70986
-3.45772
-3.213
-2.97594
-2.74668
-2.52527
-2.3117
-2.10588
-1.90767
-1.7169
-1.53338
-1.35689
-1.18705
-1.02353
-0.86622
-0.734877
-8.18414
-8.13891
-8.17749
-8.12174
-8.07137
-8.01433
-7.94332
-7.85596
-7.75204
-7.63157
-7.49482
-7.34236
-7.175
-6.99373
-6.79971
-6.59417
-6.37844
-6.15393
-5.92204
-5.68421
-5.44186
-5.19634
-4.94898
-4.70102
-4.45362
-4.20782
-3.96457
-3.72471
-3.48895
-3.25791
-3.03207
-2.81185
-2.59754
-2.38937
-2.18748
-1.99194
-1.80277
-1.61996
-1.44343
-1.27293
-1.10828
-0.949438
-0.819371
-7.4904
-7.48883
-7.47666
-7.42035
-7.37145
-7.31639
-7.25202
-7.17729
-7.09166
-6.99459
-6.88577
-6.76513
-6.63281
-6.48908
-6.33439
-6.1693
-5.9945
-5.81078
-5.61901
-5.42015
-5.21519
-5.00518
-4.79113
-4.57411
-4.35514
-4.1352
-3.91522
-3.69607
-3.47856
-3.2634
-3.05123
-2.84261
-2.63801
-2.43783
-2.24239
-2.05193
-1.86664
-1.68667
-1.51211
-1.34293
-1.17917
-1.02055
-0.88721
-6.84923
-6.84943
-6.82021
-6.77709
-6.73628
-6.6896
-6.63621
-6.57543
-6.50656
-6.429
-6.34231
-6.24624
-6.14062
-6.02544
-5.9008
-5.7669
-5.62405
-5.47268
-5.31328
-5.14646
-4.9729
-4.79331
-4.60847
-4.41922
-4.22638
-4.0308
-3.83332
-3.63475
-3.43587
-3.23742
-3.04008
-2.84449
-2.65121
-2.46075
-2.27354
-2.08995
-1.9103
-1.73485
-1.56383
-1.39736
-1.23551
-1.07741
-0.933124
-6.25093
-6.24713
-6.21939
-6.19004
-6.15927
-6.1238
-6.08312
-6.03649
-5.98319
-5.92267
-5.85449
-5.77834
-5.69401
-5.60136
-5.50035
-5.39103
-5.2735
-5.148
-5.01479
-4.87424
-4.72679
-4.57294
-4.41325
-4.24834
-4.07885
-3.90547
-3.72892
-3.54989
-3.36911
-3.18726
-3.00502
-2.82302
-2.64186
-2.4621
-2.28424
-2.10873
-1.93597
-1.76628
-1.59994
-1.43712
-1.27792
-1.12101
-0.962973
-5.75072
-5.74416
-5.72047
-5.69774
-5.67218
-5.6433
-5.61041
-5.57277
-5.52972
-5.48076
-5.42548
-5.36354
-5.29468
-5.21869
-5.13544
-5.04487
-4.94697
-4.84181
-4.72949
-4.61022
-4.48426
-4.35191
-4.21355
-4.06963
-3.92062
-3.76705
-3.60949
-3.44854
-3.28479
-3.11887
-2.95139
-2.78296
-2.61416
-2.44555
-2.27767
-2.111
-1.946
-1.78309
-1.62266
-1.4651
-1.31073
-1.15971
-1.01349
-5.32384
-5.3168
-5.2966
-5.27686
-5.25418
-5.22922
-5.20115
-5.16929
-5.1331
-5.09212
-5.04595
-4.99426
-4.93676
-4.87322
-4.80345
-4.7273
-4.64469
-4.55558
-4.45997
-4.35794
-4.24959
-4.13512
-4.01474
-3.88876
-3.7575
-3.62136
-3.48077
-3.3362
-3.18814
-3.03713
-2.8837
-2.7284
-2.57177
-2.41435
-2.25666
-2.0992
-1.94243
-1.78682
-1.63276
-1.48059
-1.33077
-1.1835
-1.03781
-4.944
-4.93799
-4.92074
-4.9033
-4.88326
-4.8616
-4.83747
-4.81026
-4.77949
-4.74475
-4.70568
-4.66197
-4.61334
-4.55953
-4.50034
-4.43559
-4.36514
-4.2889
-4.2068
-4.11883
-4.02501
-3.92543
-3.82019
-3.70949
-3.59353
-3.4726
-3.34701
-3.21711
-3.0833
-2.94601
-2.8057
-2.66284
-2.51791
-2.37141
-2.22382
-2.07563
-1.92731
-1.77932
-1.6321
-1.48602
-1.34153
-1.19954
-1.07415
-4.60548
-4.60059
-4.58519
-4.56942
-4.55165
-4.53273
-4.51181
-4.48833
-4.46189
-4.43212
-4.39868
-4.36129
-4.31967
-4.27359
-4.22283
-4.16721
-4.10655
-4.04073
-3.96965
-3.89323
-3.81145
-3.72431
-3.63184
-3.53415
-3.43136
-3.32365
-3.21124
-3.09438
-2.97339
-2.8486
-2.72038
-2.58913
-2.45526
-2.31922
-2.18145
-2.04239
-1.90249
-1.7622
-1.62195
-1.48209
-1.34297
-1.20448
-1.08023
-4.30592
-4.30116
-4.28586
-4.27069
-4.25467
-4.23783
-4.21934
-4.19873
-4.17563
-4.14972
-4.12069
-4.08827
-4.05221
-4.01228
-3.96827
-3.91999
-3.86726
-3.80994
-3.7479
-3.68102
-3.60925
-3.53254
-3.45086
-3.36426
-3.27279
-3.17654
-3.07568
-2.97036
-2.86082
-2.74731
-2.63013
-2.50959
-2.38606
-2.2599
-2.13151
-2.00129
-1.86963
-1.73693
-1.60358
-1.46981
-1.33591
-1.20092
-1.07248
-4.03882
-4.03295
-4.01649
-4.00124
-3.98668
-3.97144
-3.95483
-3.93645
-3.91598
-3.89312
-3.86759
-3.83915
-3.80755
-3.77259
-3.73405
-3.69174
-3.6455
-3.59517
-3.54059
-3.48166
-3.41827
-3.35034
-3.27781
-3.20068
-3.11894
-3.03265
-2.94187
-2.84674
-2.74739
-2.64402
-2.53685
-2.42614
-2.31217
-2.19526
-2.07574
-1.95398
-1.83033
-1.70518
-1.57893
-1.45193
-1.32466
-1.1972
-1.08433
-3.79603
-3.78858
-3.77117
-3.75605
-3.74279
-3.72881
-3.7137
-3.69714
-3.67881
-3.65844
-3.63577
-3.61058
-3.58263
-3.55173
-3.51769
-3.48032
-3.43945
-3.39492
-3.34659
-3.29431
-3.23798
-3.17749
-3.11276
-3.04375
-2.97041
-2.89276
-2.81083
-2.72467
-2.63438
-2.54009
-2.44197
-2.34021
-2.23504
-2.12672
-2.01553
-1.90178
-1.78578
-1.66787
-1.5484
-1.42757
-1.30579
-1.18244
-1.06852
-3.57172
-3.56316
-3.54587
-3.53146
-3.51933
-3.50637
-3.49252
-3.47749
-3.46096
-3.44268
-3.42239
-3.39989
-3.37499
-3.34748
-3.31719
-3.28394
-3.24756
-3.20791
-3.16483
-3.11818
-3.06784
-3.01369
-2.95564
-2.89362
-2.82756
-2.75743
-2.68324
-2.60499
-2.52275
-2.43659
-2.34662
-2.253
-2.15588
-2.05549
-1.95206
-1.84584
-1.73711
-1.62617
-1.51335
-1.39887
-1.28312
-1.16602
-1.06931
-3.36303
-3.35425
-3.33795
-3.32459
-3.31343
-3.30136
-3.28862
-3.27491
-3.25993
-3.24341
-3.22514
-3.20493
-3.18259
-3.15794
-3.13081
-3.10103
-3.06846
-3.03294
-2.99432
-2.95246
-2.90723
-2.85853
-2.80623
-2.75024
-2.6905
-2.62695
-2.55955
-2.48829
-2.41319
-2.33429
-2.25166
-2.16541
-2.07565
-1.98256
-1.88631
-1.78713
-1.68525
-1.58094
-1.47449
-1.3661
-1.2561
-1.14366
-1.04822
-3.16873
-3.16045
-3.14547
-3.13321
-3.12286
-3.11158
-3.09982
-3.08726
-3.0736
-3.0586
-3.04206
-3.0238
-3.00364
-2.98142
-2.95698
-2.93018
-2.90085
-2.86885
-2.83404
-2.79629
-2.75547
-2.71146
-2.66413
-2.6134
-2.55917
-2.50137
-2.43996
-2.37488
-2.30613
-2.23373
-2.1577
-2.07812
-1.99506
-1.90866
-1.81906
-1.72643
-1.63096
-1.53288
-1.43242
-1.32974
-1.22516
-1.11759
-1.01936
-2.98829
-2.98087
-2.96711
-2.95573
-2.94599
-2.93541
-2.92449
-2.91291
-2.90039
-2.88669
-2.87163
-2.85504
-2.83675
-2.81661
-2.79448
-2.77022
-2.74367
-2.7147
-2.68318
-2.64898
-2.61196
-2.57201
-2.52901
-2.48286
-2.43346
-2.38072
-2.32458
-2.26498
-2.20189
-2.1353
-2.06521
-1.99166
-1.91471
-1.83444
-1.75096
-1.66441
-1.57495
-1.48278
-1.38813
-1.29121
-1.19245
-1.09175
-1.00383
-2.82123
-2.81465
-2.80176
-2.7908
-2.78136
-2.77141
-2.76122
-2.75049
-2.73893
-2.72635
-2.71255
-2.69739
-2.68071
-2.66236
-2.64222
-2.62014
-2.59599
-2.56964
-2.54097
-2.50984
-2.47613
-2.43972
-2.4005
-2.35835
-2.31319
-2.26491
-2.21344
-2.1587
-2.10066
-2.03928
-1.97454
-1.90645
-1.83505
-1.76038
-1.68253
-1.6016
-1.51773
-1.43106
-1.34179
-1.25012
-1.15621
-1.05902
-0.958519
-2.6666
-2.66055
-2.64813
-2.63707
-2.62764
-2.61827
-2.60872
-2.5987
-2.58797
-2.57634
-2.56363
-2.5497
-2.5344
-2.5176
-2.49918
-2.47899
-2.45692
-2.43285
-2.40664
-2.37819
-2.34737
-2.31406
-2.27815
-2.23954
-2.19811
-2.15377
-2.10645
-2.05605
-2.00252
-1.94581
-1.88589
-1.82275
-1.75639
-1.68684
-1.61417
-1.53843
-1.45974
-1.37821
-1.29399
-1.20728
-1.11835
-1.027
-0.926409
-2.52286
-2.51695
-2.5047
-2.49329
-2.48381
-2.47496
-2.46593
-2.45651
-2.44649
-2.43567
-2.4239
-2.41103
-2.39692
-2.38146
-2.36452
-2.34598
-2.32572
-2.30363
-2.27959
-2.25348
-2.22519
-2.19461
-2.16162
-2.12612
-2.088
-2.04716
-2.00352
-1.95699
-1.90751
-1.855
-1.79943
-1.74077
-1.679
-1.61414
-1.54622
-1.47528
-1.4014
-1.32469
-1.24526
-1.1633
-1.07912
-0.993275
-0.902656
-2.3881
-2.38207
-2.36991
-2.35829
-2.34891
-2.34052
-2.33191
-2.32299
-2.31356
-2.30344
-2.29247
-2.28052
-2.26745
-2.25315
-2.23751
-2.2204
-2.20173
-2.18137
-2.15923
-2.13518
-2.10913
-2.08095
-2.05054
-2.0178
-1.98262
-1.9449
-1.90455
-1.86149
-1.81563
-1.7669
-1.71527
-1.66067
-1.60308
-1.5425
-1.47894
-1.41242
-1.34299
-1.27072
-1.19568
-1.11792
-1.03757
-0.954747
-0.870246
-2.26068
-2.25449
-2.24253
-2.231
-2.22193
-2.21394
-2.20569
-2.19719
-2.18828
-2.17877
-2.1685
-2.15735
-2.14519
-2.13191
-2.1174
-2.10156
-2.08428
-2.06546
-2.04499
-2.02277
-1.99869
-1.97264
-1.94453
-1.91424
-1.88168
-1.84675
-1.80935
-1.76939
-1.7268
-1.6815
-1.63342
-1.58251
-1.52874
-1.47208
-1.41253
-1.35009
-1.2848
-1.21671
-1.14591
-1.07247
-0.996593
-0.918545
-0.84727
-2.13962
-2.13342
-2.12181
-2.11065
-2.10199
-2.09436
-2.08642
-2.07832
-2.06988
-2.06091
-2.05126
-2.04082
-2.02947
-2.0171
-2.0036
-1.98889
-1.97285
-1.95539
-1.93641
-1.91581
-1.89349
-1.86934
-1.84327
-1.81518
-1.78497
-1.75253
-1.71778
-1.68062
-1.64098
-1.59877
-1.55392
-1.50637
-1.45608
-1.40301
-1.34714
-1.28846
-1.227
-1.16277
-1.09584
-1.0262
-0.953954
-0.878477
-0.807446
-2.02454
-2.0185
-2.00737
-1.9967
-1.98846
-1.98111
-1.97349
-1.96575
-1.95773
-1.94925
-1.94017
-1.93037
-1.91974
-1.90818
-1.8956
-1.88188
-1.86695
-1.85071
-1.83306
-1.81391
-1.79316
-1.77072
-1.74648
-1.72036
-1.69225
-1.66205
-1.62969
-1.59506
-1.55808
-1.51867
-1.47676
-1.43227
-1.38516
-1.33538
-1.2829
-1.2277
-1.16978
-1.10917
-1.04591
-0.980033
-0.911738
-0.840604
-0.776829
-1.91521
-1.90949
-1.89885
-1.88869
-1.88073
-1.87358
-1.86625
-1.85885
-1.85123
-1.8432
-1.83464
-1.82543
-1.81546
-1.80463
-1.79286
-1.78006
-1.76612
-1.75097
-1.73452
-1.71667
-1.69733
-1.67642
-1.65383
-1.62948
-1.60327
-1.5751
-1.54489
-1.51255
-1.47799
-1.44112
-1.40188
-1.36019
-1.31599
-1.26923
-1.21987
-1.16788
-1.11324
-1.05597
-0.996084
-0.933556
-0.868509
-0.800039
-0.735574
-1.8116
-1.80624
-1.79605
-1.78629
-1.77841
-1.77134
-1.7643
-1.75724
-1.74998
-1.74236
-1.73427
-1.72559
-1.71621
-1.70605
-1.69502
-1.68303
-1.67
-1.65583
-1.64046
-1.62378
-1.60572
-1.58618
-1.56508
-1.54233
-1.51783
-1.4915
-1.46324
-1.43297
-1.40061
-1.36606
-1.32926
-1.29012
-1.24859
-1.2046
-1.15811
-1.10909
-1.0575
-1.00334
-0.946611
-0.887252
-0.825376
-0.760273
-0.699768
-1.71345
-1.70839
-1.69854
-1.68904
-1.68108
-1.67402
-1.66727
-1.6605
-1.65357
-1.64634
-1.63867
-1.63047
-1.62164
-1.61208
-1.60172
-1.59047
-1.57825
-1.56498
-1.55057
-1.53496
-1.51804
-1.49975
-1.48
-1.45869
-1.43575
-1.41108
-1.38459
-1.35621
-1.32585
-1.29342
-1.25884
-1.22204
-1.18296
-1.14152
-1.09769
-1.05141
-1.00266
-0.951432
-0.897729
-0.841534
-0.783027
-0.72179
-0.667743
-1.62026
-1.61541
-1.60579
-1.59645
-1.58837
-1.58133
-1.57484
-1.56834
-1.5617
-1.5548
-1.54752
-1.53975
-1.5314
-1.52239
-1.51262
-1.50204
-1.49055
-1.47808
-1.46456
-1.4499
-1.43403
-1.41687
-1.39833
-1.37834
-1.35681
-1.33365
-1.30878
-1.28212
-1.25358
-1.22308
-1.19054
-1.15589
-1.11905
-1.07997
-1.03858
-0.994844
-0.948721
-0.900193
-0.849262
-0.79589
-0.740173
-0.681415
-0.628552
-1.53143
-1.52668
-1.51723
-1.50801
-1.4999
-1.49295
-1.4867
-1.48041
-1.47402
-1.46742
-1.46048
-1.4531
-1.44519
-1.43667
-1.42745
-1.41746
-1.40664
-1.3949
-1.38217
-1.36839
-1.35346
-1.33732
-1.31989
-1.3011
-1.28085
-1.25906
-1.23567
-1.21057
-1.1837
-1.15497
-1.1243
-1.09162
-1.05685
-1.01994
-0.980808
-0.939417
-0.895724
-0.8497
-0.801343
-0.750625
-0.697646
-0.641757
-0.591058
-1.44644
-1.44175
-1.43247
-1.42338
-1.41536
-1.40859
-1.40255
-1.39645
-1.39028
-1.38394
-1.3773
-1.37027
-1.36275
-1.35467
-1.34594
-1.3365
-1.32627
-1.3152
-1.30319
-1.29019
-1.27613
-1.26092
-1.2445
-1.22679
-1.20771
-1.18718
-1.16513
-1.14147
-1.11613
-1.08902
-1.06007
-1.0292
-0.996338
-0.961417
-0.924374
-0.885152
-0.843704
-0.799993
-0.753997
-0.705661
-0.65501
-0.601381
-0.551475
-1.36487
-1.36023
-1.35115
-1.34226
-1.33444
-1.32787
-1.322
-1.31608
-1.31012
-1.30402
-1.29766
-1.29094
-1.28378
-1.2761
-1.26781
-1.25887
-1.24919
-1.23871
-1.22737
-1.21509
-1.2018
-1.18745
-1.17195
-1.15523
-1.13722
-1.11784
-1.09702
-1.07468
-1.05074
-1.02512
-0.997752
-0.968551
-0.937447
-0.904371
-0.869258
-0.832047
-0.792687
-0.751132
-0.707357
-0.661309
-0.613017
-0.56192
-0.514982
-1.28651
-1.28197
-1.27314
-1.26448
-1.25691
-1.25053
-1.2448
-1.23905
-1.23329
-1.22741
-1.22131
-1.21488
-1.20805
-1.20073
-1.19286
-1.18436
-1.17518
-1.16526
-1.15451
-1.14289
-1.13032
-1.11674
-1.10208
-1.08627
-1.06924
-1.05092
-1.03123
-1.0101
-0.987449
-0.963203
-0.937287
-0.909627
-0.880148
-0.84878
-0.815457
-0.780114
-0.742694
-0.703145
-0.661426
-0.61747
-0.571249
-0.522034
-0.475575
-1.21129
-1.20689
-1.19833
-1.18994
-1.18261
-1.17636
-1.17072
-1.16514
-1.15957
-1.15391
-1.14804
-1.14189
-1.13535
-1.12837
-1.12087
-1.1128
-1.10407
-1.09464
-1.08445
-1.07343
-1.06151
-1.04865
-1.03476
-1.01978
-1.00365
-0.9863
-0.96765
-0.94763
-0.926167
-0.903188
-0.878617
-0.852381
-0.824406
-0.794623
-0.762963
-0.729359
-0.69375
-0.656078
-0.61629
-0.574304
-0.530069
-0.482853
-0.437576
-1.13909
-1.13487
-1.12658
-1.11844
-1.11132
-1.1051
-1.09952
-1.09411
-1.08872
-1.08326
-1.07763
-1.07172
-1.06547
-1.0588
-1.05165
-1.04395
-1.03565
-1.02668
-1.01699
-1.00652
-0.995203
-0.982989
-0.969809
-0.955603
-0.940301
-0.923839
-0.906146
-0.887153
-0.866788
-0.844979
-0.821653
-0.796737
-0.77016
-0.741851
-0.71174
-0.679762
-0.645854
-0.609955
-0.572012
-0.531946
-0.489711
-0.444716
-0.401778
-1.06987
-1.06583
-1.05778
-1.04987
-1.0429
-1.03667
-1.0311
-1.02586
-1.02065
-1.01537
-1.00994
-1.00427
-0.998269
-0.991882
-0.985041
-0.977688
-0.969764
-0.961216
-0.951986
-0.942019
-0.931257
-0.919643
-0.907115
-0.893615
-0.879077
-0.863437
-0.846629
-0.828585
-0.809235
-0.78851
-0.766338
-0.742649
-0.71737
-0.690433
-0.66177
-0.631314
-0.599003
-0.564782
-0.528606
-0.490424
-0.450244
-0.407617
-0.367447
-1.00342
-0.999536
-0.991694
-0.983961
-0.97709
-0.970829
-0.965306
-0.960219
-0.955157
-0.950051
-0.944806
-0.93934
-0.933573
-0.927444
-0.920888
-0.913851
-0.906277
-0.898113
-0.889306
-0.879803
-0.869548
-0.858486
-0.84656
-0.833711
-0.819877
-0.804998
-0.789009
-0.771843
-0.753434
-0.733715
-0.712615
-0.690065
-0.665994
-0.640336
-0.613022
-0.583986
-0.553166
-0.520507
-0.485962
-0.449475
-0.411034
-0.37011
-0.330507
-0.939553
-0.935788
-0.928123
-0.920536
-0.913748
-0.907502
-0.902048
-0.897096
-0.892162
-0.887193
-0.882106
-0.876816
-0.871252
-0.865346
-0.859045
-0.852289
-0.845031
-0.837217
-0.828797
-0.819718
-0.80993
-0.799378
-0.788006
-0.77576
-0.762579
-0.748405
-0.733174
-0.716824
-0.69929
-0.680504
-0.660401
-0.638912
-0.615967
-0.591501
-0.565445
-0.537735
-0.508307
-0.477102
-0.444069
-0.409135
-0.372259
-0.332955
-0.294875
-0.877968
-0.874292
-0.866782
-0.859323
-0.852625
-0.846444
-0.841087
-0.836252
-0.831427
-0.826579
-0.821634
-0.816503
-0.811121
-0.80542
-0.799351
-0.792855
-0.785888
-0.778396
-0.770333
-0.761647
-0.752292
-0.742212
-0.731355
-0.719668
-0.707093
-0.693573
-0.679048
-0.663456
-0.646735
-0.628819
-0.609644
-0.589144
-0.56725
-0.543897
-0.519018
-0.492549
-0.464428
-0.434596
-0.403007
-0.369604
-0.334381
-0.296943
-0.261395
-0.818539
-0.814937
-0.80758
-0.800254
-0.793665
-0.787594
-0.782341
-0.777596
-0.772863
-0.768116
-0.763291
-0.758296
-0.753074
-0.747555
-0.741695