# Forces     
# CofR       : (0.000000e+00 0.000000e+00 0.000000e+00)
# Time       forces(pressure viscous porous) moment(pressure viscous porous)
5.000000e+00	((-1.692032e+03 2.747930e+03 -1.656218e-18) (8.970772e-01 7.597013e-02 2.145200e-20) (0.000000e+00 0.000000e+00 0.000000e+00)) ((-1.373965e+02 -8.460159e+01 -6.364464e+02) (-3.798506e-03 4.485386e-02 -4.149926e-02) (0.000000e+00 0.000000e+00 0.000000e+00))
1.000000e+01	((-1.044068e+03 1.718878e+03 -7.777150e-19) (8.279220e-01 1.356342e-01 2.937270e-20) (0.000000e+00 0.000000e+00 0.000000e+00)) ((-8.594390e+01 -5.220339e+01 -3.885204e+02) (-6.781712e-03 4.139610e-02 -5.774309e-02) (0.000000e+00 0.000000e+00 0.000000e+00))
1.500000e+01	((-3.712274e+02 6.044884e+02 3.121887e-20) (8.138514e-01 1.298622e-01 1.799544e-20) (0.000000e+00 0.000000e+00 0.000000e+00)) ((-3.022442e+01 -1.856137e+01 -1.434841e+02) (-6.493110e-03 4.069257e-02 -5.540448e-02) (0.000000e+00 0.000000e+00 0.000000e+00))
2.000000e+01	((-6.322995e+01 9.560928e+01 2.807090e-19) (8.089345e-01 1.143849e-01 5.453726e-21) (0.000000e+00 0.000000e+00 0.000000e+00)) ((-4.780464e+00 -3.161497e+00 -2.876185e+01) (-5.719243e-03 4.044672e-02 -5.074361e-02) (0.000000e+00 0.000000e+00 0.000000e+00))
2.500000e+01	((1.844837e+01 -2.563971e+01 2.775033e-19) (7.994810e-01 1.037725e-01 -1.275088e-21) (0.000000e+00 0.000000e+00 0.000000e+00)) ((1.281986e+00 9.224183e-01 7.683714e+00) (-5.188625e-03 3.997405e-02 -4.754451e-02) (0.000000e+00 0.000000e+00 0.000000e+00))
3.000000e+01	((2.167301e+01 -2.275178e+01 1.662184e-19) (7.862069e-01 9.833344e-02 -2.778185e-21) (0.000000e+00 0.000000e+00 0.000000e+00)) ((1.137589e+00 1.083650e+00 1.261621e+01) (-4.916672e-03 3.931035e-02 -4.576400e-02) (0.000000e+00 0.000000e+00 0.000000e+00))
3.500000e+01	((1.280475e+01 -5.266758e+00 1.120343e-19) (7.707294e-01 9.524534e-02 -2.521209e-21) (0.000000e+00 0.000000e+00 0.000000e+00)) ((2.633379e-01 6.402376e-01 1.061497e+01) (-4.762267e-03 3.853647e-02 -4.462731e-02) (0.000000e+00 0.000000e+00 0.000000e+00))
4.000000e+01	((7.211977e+00 4.113226e+00 9.499634e-20) (7.544226e-01 9.277612e-02 -2.136415e-21) (0.000000e+00 0.000000e+00 0.000000e+00)) ((-2.056613e-01 3.605988e-01 8.635661e+00) (-4.638806e-03 3.772113e-02 -4.366032e-02) (0.000000e+00 0.000000e+00 0.000000e+00))
4.500000e+01	((5.330343e+00 6.494557e+00 9.287572e-20) (7.379377e-01 9.032340e-02 -2.077833e-21) (0.000000e+00 0.000000e+00 0.000000e+00)) ((-3.247279e-01 2.665171e-01 7.666335e+00) (-4.516170e-03 3.689688e-02 -4.269633e-02) (0.000000e+00 0.000000e+00 0.000000e+00))
5.000000e+01	((5.063541e+00 6.446483e+00 9.667085e-20) (7.215251e-01 8.778393e-02 -2.324610e-21) (0.000000e+00 0.000000e+00 0.000000e+00)) ((-3.223241e-01 2.531771e-01 7.384566e+00) (-4.389197e-03 3.607625e-02 -4.170927e-02) (0.000000e+00 0.000000e+00 0.000000e+00))
5.500000e+01	((5.116071e+00 6.268033e+00 1.004850e-19) (7.053283e-01 8.521037e-02 -2.605507e-21) (0.000000e+00 0.000000e+00 0.000000e+00)) ((-3.134017e-01 2.558035e-01 7.370447e+00) (-4.260518e-03 3.526641e-02 -4.071475e-02) (0.000000e+00 0.000000e+00 0.000000e+00))
6.000000e+01	((5.088528e+00 6.436328e+00 9.989189e-20) (6.893545e-01 8.264055e-02 -2.862661e-21) (0.000000e+00 0.000000e+00 0.000000e+00)) ((-3.218164e-01 2.544264e-01 7.413141e+00) (-4.132028e-03 3.446773e-02 -3.972204e-02) (0.000000e+00 0.000000e+00 0.000000e+00))
6.500000e+01	((5.056708e+00 6.562291e+00 9.837175e-20) (6.735367e-01 8.008701e-02 -3.133554e-21) (0.000000e+00 0.000000e+00 0.000000e+00)) ((-3.281146e-01 2.528354e-01 7.447955e+00) (-4.004351e-03 3.367684e-02 -3.873375e-02) (0.000000e+00 0.000000e+00 0.000000e+00))
7.000000e+01	((5.072420e+00 6.513619e+00 9.785423e-20) (6.578570e-01 7.755624e-02 -3.154048e-21) (0.000000e+00 0.000000e+00 0.000000e+00)) ((-3.256810e-01 2.536210e-01 7.460270e+00) (-3.877812e-03 3.289285e-02 -3.775053e-02) (0.000000e+00 0.000000e+00 0.000000e+00))
7.500000e+01	((5.077982e+00 6.518651e+00 9.774745e-20) (6.423209e-01 7.505628e-02 -3.122849e-21) (0.000000e+00 0.000000e+00 0.000000e+00)) ((-3.259325e-01 2.538991e-01 7.476939e+00) (-3.752814e-03 3.211604e-02 -3.677271e-02) (0.000000e+00 0.000000e+00 0.000000e+00))
8.000000e+01	((5.081940e+00 6.553442e+00 9.787295e-20) (6.269277e-01 7.259850e-02 -3.335095e-21) (0.000000e+00 0.000000e+00 0.000000e+00)) ((-3.276721e-01 2.540970e-01 7.504344e+00) (-3.629925e-03 3.134639e-02 -3.579868e-02) (0.000000e+00 0.000000e+00 0.000000e+00))
8.500000e+01	((5.095071e+00 6.564539e+00 9.784919e-20) (6.117032e-01 7.018014e-02 -3.770298e-21) (0.000000e+00 0.000000e+00 0.000000e+00)) ((-3.282270e-01 2.547536e-01 7.531903e+00) (-3.509007e-03 3.058516e-02 -3.483353e-02) (0.000000e+00 0.000000e+00 0.000000e+00))
9.000000e+01	((5.113145e+00 6.582578e+00 9.820825e-20) (5.966997e-01 6.782113e-02 -4.035016e-21) (0.000000e+00 0.000000e+00 0.000000e+00)) ((-3.291289e-01 2.556573e-01 7.566124e+00) (-3.391056e-03 2.983499e-02 -3.387773e-02) (0.000000e+00 0.000000e+00 0.000000e+00))
9.500000e+01	((5.132402e+00 6.602146e+00 9.855038e-20) (5.819954e-01 6.552440e-02 -4.185266e-21) (0.000000e+00 0.000000e+00 0.000000e+00)) ((-3.301073e-01 2.566201e-01 7.600888e+00) (-3.276220e-03 2.909977e-02 -3.293866e-02) (0.000000e+00 0.000000e+00 0.000000e+00))
1.000000e+02	((5.154767e+00 6.617691e+00 9.899705e-20) (5.676738e-01 6.329095e-02 -4.067164e-21) (0.000000e+00 0.000000e+00 0.000000e+00)) ((-3.308846e-01 2.577383e-01 7.637018e+00) (-3.164548e-03 2.838369e-02 -3.202160e-02) (0.000000e+00 0.000000e+00 0.000000e+00))
1.050000e+02	((5.179095e+00 6.633208e+00 9.941763e-20) (5.538032e-01 6.112304e-02 -3.730950e-21) (0.000000e+00 0.000000e+00 0.000000e+00)) ((-3.316604e-01 2.589547e-01 7.674859e+00) (-3.056152e-03 2.769016e-02 -3.113106e-02) (0.000000e+00 0.000000e+00 0.000000e+00))
1.100000e+02	((5.204849e+00 6.650662e+00 9.982225e-20) (5.404157e-01 5.902384e-02 -4.032940e-21) (0.000000e+00 0.000000e+00 0.000000e+00)) ((-3.325331e-01 2.602425e-01 7.714506e+00) (-2.951192e-03 2.702079e-02 -3.026895e-02) (0.000000e+00 0.000000e+00 0.000000e+00))
1.150000e+02	((5.230822e+00 6.671347e+00 1.001893e-19) (5.275065e-01 5.699363e-02 -4.921961e-21) (0.000000e+00 0.000000e+00 0.000000e+00)) ((-3.335674e-01 2.615411e-01 7.755444e+00) (-2.849682e-03 2.637533e-02 -2.943486e-02) (0.000000e+00 0.000000e+00 0.000000e+00))
1.200000e+02	((5.260317e+00 6.690043e+00 1.007120e-19) (5.150527e-01 5.502535e-02 -5.625533e-21) (0.000000e+00 0.000000e+00 0.000000e+00)) ((-3.345021e-01 2.630158e-01 7.798858e+00) (-2.751267e-03 2.575263e-02 -2.862567e-02) (0.000000e+00 0.000000e+00 0.000000e+00))
1.250000e+02	((5.288764e+00 6.708510e+00 1.014755e-19) (5.030217e-01 5.312388e-02 -5.881414e-21) (0.000000e+00 0.000000e+00 0.000000e+00)) ((-3.354255e-01 2.644382e-01 7.840584e+00) (-2.656194e-03 2.515108e-02 -2.784049e-02) (0.000000e+00 0.000000e+00 0.000000e+00))
1.300000e+02	((5.315621e+00 6.731051e+00 1.021566e-19) (4.913953e-01 5.128906e-02 -6.176663e-21) (0.000000e+00 0.000000e+00 0.000000e+00)) ((-3.365525e-01 2.657811e-01 7.882435e+00) (-2.564453e-03 2.456976e-02 -2.707793e-02) (0.000000e+00 0.000000e+00 0.000000e+00))
1.350000e+02	((5.342539e+00 6.753744e+00 1.028480e-19) (4.802084e-01 4.951987e-02 -6.561755e-21) (0.000000e+00 0.000000e+00 0.000000e+00)) ((-3.376872e-01 2.671269e-01 7.924450e+00) (-2.475994e-03 2.401042e-02 -2.633738e-02) (0.000000e+00 0.000000e+00 0.000000e+00))
1.400000e+02	((5.368714e+00 6.779506e+00 1.035288e-19) (4.696835e-01 4.782991e-02 -7.000506e-21) (0.000000e+00 0.000000e+00 0.000000e+00)) ((-3.389753e-01 2.684357e-01 7.967106e+00) (-2.391495e-03 2.348417e-02 -2.562832e-02) (0.000000e+00 0.000000e+00 0.000000e+00))
1.450000e+02	((5.393526e+00 6.806753e+00 1.042447e-19) (4.601061e-01 4.623444e-02 -7.382501e-21) (0.000000e+00 0.000000e+00 0.000000e+00)) ((-3.403376e-01 2.696763e-01 8.008666e+00) (-2.311722e-03 2.300530e-02 -2.497334e-02) (0.000000e+00 0.000000e+00 0.000000e+00))
1.500000e+02	((5.418149e+00 6.835583e+00 1.049504e-19) (4.514822e-01 4.472904e-02 -7.583768e-21) (0.000000e+00 0.000000e+00 0.000000e+00)) ((-3.417791e-01 2.709075e-01 8.050780e+00) (-2.236452e-03 2.257411e-02 -2.438141e-02) (0.000000e+00 0.000000e+00 0.000000e+00))
1.550000e+02	((5.441310e+00 6.865643e+00 1.056100e-19) (4.435833e-01 4.330767e-02 -7.695312e-21) (0.000000e+00 0.000000e+00 0.000000e+00)) ((-3.432822e-01 2.720655e-01 8.091898e+00) (-2.165384e-03 2.217917e-02 -2.383677e-02) (0.000000e+00 0.000000e+00 0.000000e+00))
1.600000e+02	((5.462931e+00 6.896200e+00 1.063144e-19) (4.361763e-01 4.196083e-02 -7.350239e-21) (0.000000e+00 0.000000e+00 0.000000e+00)) ((-3.448100e-01 2.731466e-01 8.131488e+00) (-2.098041e-03 2.180881e-02 -2.332235e-02) (0.000000e+00 0.000000e+00 0.000000e+00))
1.650000e+02	((5.483485e+00 6.927577e+00 1.069095e-19) (4.291041e-01 4.067615e-02 -7.238568e-21) (0.000000e+00 0.000000e+00 0.000000e+00)) ((-3.463788e-01 2.741742e-01 8.170472e+00) (-2.033808e-03 2.145520e-02 -2.282737e-02) (0.000000e+00 0.000000e+00 0.000000e+00))
1.700000e+02	((5.501791e+00 6.957382e+00 1.075281e-19) (4.222713e-01 3.944228e-02 -7.142808e-21) (0.000000e+00 0.000000e+00 0.000000e+00)) ((-3.478691e-01 2.750895e-01 8.206434e+00) (-1.972114e-03 2.111356e-02 -2.234596e-02) (0.000000e+00 0.000000e+00 0.000000e+00))
1.750000e+02	((5.517915e+00 6.986223e+00 1.081659e-19) (4.156226e-01 3.825162e-02 -7.504906e-21) (0.000000e+00 0.000000e+00 0.000000e+00)) ((-3.493112e-01 2.758957e-01 8.239724e+00) (-1.912581e-03 2.078113e-02 -2.187453e-02) (0.000000e+00 0.000000e+00 0.000000e+00))
1.800000e+02	((5.532445e+00 7.013522e+00 1.087102e-19) (4.091335e-01 3.710112e-02 -7.125281e-21) (0.000000e+00 0.000000e+00 0.000000e+00)) ((-3.506761e-01 2.766222e-01 8.270846e+00) (-1.855056e-03 2.045667e-02 -2.141204e-02) (0.000000e+00 0.000000e+00 0.000000e+00))
1.850000e+02	((5.545684e+00 7.038329e+00 1.092124e-19) (4.028270e-01 3.598758e-02 -7.009855e-21) (0.000000e+00 0.000000e+00 0.000000e+00)) ((-3.519165e-01 2.772842e-01 8.299831e+00) (-1.799379e-03 2.014135e-02 -2.096012e-02) (0.000000e+00 0.000000e+00 0.000000e+00))
1.900000e+02	((5.557736e+00 7.060472e+00 1.096777e-19) (3.967857e-01 3.491149e-02 -6.893507e-21) (0.000000e+00 0.000000e+00 0.000000e+00)) ((-3.530236e-01 2.778868e-01 8.326659e+00) (-1.745574e-03 1.983929e-02 -2.052436e-02) (0.000000e+00 0.000000e+00 0.000000e+00))
1.950000e+02	((5.568516e+00 7.079324e+00 1.100969e-19) (3.910857e-01 3.388016e-02 -6.607337e-21) (0.000000e+00 0.000000e+00 0.000000e+00)) ((-3.539662e-01 2.784258e-01 8.350951e+00) (-1.694008e-03 1.955428e-02 -2.010940e-02) (0.000000e+00 0.000000e+00 0.000000e+00))
2.000000e+02	((5.577030e+00 7.094573e+00 1.103958e-19) (3.857160e-01 3.289696e-02 -6.452696e-21) (0.000000e+00 0.000000e+00 0.000000e+00)) ((-3.547286e-01 2.788515e-01 8.371373e+00) (-1.644848e-03 1.928580e-02 -1.971587e-02) (0.000000e+00 0.000000e+00 0.000000e+00))
2.050000e+02	((5.588595e+00 7.102385e+00 1.108603e-19) (3.806231e-01 3.194998e-02 -6.118132e-21) (0.000000e+00 0.000000e+00 0.000000e+00)) ((-3.551193e-01 2.794297e-01 8.392599e+00) (-1.597499e-03 1.903115e-02 -1.934083e-02) (0.000000e+00 0.000000e+00 0.000000e+00))
2.100000e+02	((5.599191e+00 7.106445e+00 1.112483e-19) (3.757641e-01 3.103364e-02 -5.585397e-21) (0.000000e+00 0.000000e+00 0.000000e+00)) ((-3.553222e-01 2.799596e-01 8.411229e+00) (-1.551682e-03 1.878821e-02 -1.898215e-02) (0.000000e+00 0.000000e+00 0.000000e+00))
2.150000e+02	((5.603915e+00 7.111946e+00 1.114111e-19) (3.711179e-01 3.014181e-02 -5.047883e-21) (0.000000e+00 0.000000e+00 0.000000e+00)) ((-3.555973e-01 2.801957e-01 8.423628e+00) (-1.507090e-03 1.855589e-02 -1.863773e-02) (0.000000e+00 0.000000e+00 0.000000e+00))
2.200000e+02	((5.607076e+00 7.109071e+00 1.116389e-19) (3.666858e-01 2.927710e-02 -4.499222e-21) (0.000000e+00 0.000000e+00 0.000000e+00)) ((-3.554535e-01 2.803538e-01 8.431223e+00) (-1.463855e-03 1.833429e-02 -1.830808e-02) (0.000000e+00 0.000000e+00 0.000000e+00))
2.250000e+02	((5.612943e+00 7.099098e+00 1.117812e-19) (3.624818e-01 2.845339e-02 -3.888857e-21) (0.000000e+00 0.000000e+00 0.000000e+00)) ((-3.549549e-01 2.806472e-01 8.439267e+00) (-1.422669e-03 1.812409e-02 -1.799277e-02) (0.000000e+00 0.000000e+00 0.000000e+00))
2.300000e+02	((5.619308e+00 7.082670e+00 1.119292e-19) (3.584897e-01 2.766660e-02 -3.197352e-21) (0.000000e+00 0.000000e+00 0.000000e+00)) ((-3.541335e-01 2.809654e-01 8.445478e+00) (-1.383330e-03 1.792449e-02 -1.769210e-02) (0.000000e+00 0.000000e+00 0.000000e+00))
2.350000e+02	((5.623700e+00 7.062845e+00 1.118967e-19) (3.546796e-01 2.691116e-02 -2.695648e-21) (0.000000e+00 0.000000e+00 0.000000e+00)) ((-3.531423e-01 2.811850e-01 8.448145e+00) (-1.345558e-03 1.773398e-02 -1.740298e-02) (0.000000e+00 0.000000e+00 0.000000e+00))
2.400000e+02	((5.631055e+00 7.029209e+00 1.118317e-19) (3.510376e-01 2.618023e-02 -3.147676e-21) (0.000000e+00 0.000000e+00 0.000000e+00)) ((-3.514604e-01 2.815527e-01 8.448736e+00) (-1.309012e-03 1.755188e-02 -1.712712e-02) (0.000000e+00 0.000000e+00 0.000000e+00))
2.450000e+02	((5.632948e+00 7.001127e+00 1.117538e-19) (3.475382e-01 2.547454e-02 -3.555733e-21) (0.000000e+00 0.000000e+00 0.000000e+00)) ((-3.500563e-01 2.816474e-01 8.445327e+00) (-1.273727e-03 1.737691e-02 -1.686136e-02) (0.000000e+00 0.000000e+00 0.000000e+00))
2.500000e+02	((5.634903e+00 6.967322e+00 1.117370e-19) (3.442179e-01 2.479602e-02 -4.171023e-21) (0.000000e+00 0.000000e+00 0.000000e+00)) ((-3.483661e-01 2.817452e-01 8.439865e+00) (-1.239801e-03 1.721090e-02 -1.661006e-02) (0.000000e+00 0.000000e+00 0.000000e+00))
2.550000e+02	((5.638548e+00 6.924741e+00 1.116466e-19) (3.410180e-01 2.414513e-02 -4.853371e-21) (0.000000e+00 0.000000e+00 0.000000e+00)) ((-3.462371e-01 2.819274e-01 8.432790e+00) (-1.207257e-03 1.705090e-02 -1.636665e-02) (0.000000e+00 0.000000e+00 0.000000e+00))
2.600000e+02	((5.641773e+00 6.877959e+00 1.115389e-19) (3.379771e-01 2.351650e-02 -5.371951e-21) (0.000000e+00 0.000000e+00 0.000000e+00)) ((-3.438980e-01 2.820886e-01 8.423559e+00) (-1.175825e-03 1.689885e-02 -1.613616e-02) (0.000000e+00 0.000000e+00 0.000000e+00))
2.650000e+02	((5.645671e+00 6.822958e+00 1.113259e-19) (3.350314e-01 2.290866e-02 -5.819614e-21) (0.000000e+00 0.000000e+00 0.000000e+00)) ((-3.411479e-01 2.822835e-01 8.411945e+00) (-1.145433e-03 1.675157e-02 -1.591259e-02) (0.000000e+00 0.000000e+00 0.000000e+00))
2.700000e+02	((5.648647e+00 6.767396e+00 1.111646e-19) (3.322431e-01 2.233074e-02 -5.726030e-21) (0.000000e+00 0.000000e+00 0.000000e+00)) ((-3.383698e-01 2.824323e-01 8.399087e+00) (-1.116537e-03 1.661216e-02 -1.570303e-02) (0.000000e+00 0.000000e+00 0.000000e+00))
2.750000e+02	((5.652568e+00 6.702654e+00 1.109391e-19) (3.295383e-01 2.177180e-02 -4.572813e-21) (0.000000e+00 0.000000e+00 0.000000e+00)) ((-3.351327e-01 2.826284e-01 8.383761e+00) (-1.088590e-03 1.647691e-02 -1.549995e-02) (0.000000e+00 0.000000e+00 0.000000e+00))
2.800000e+02	((5.656115e+00 6.638021e+00 1.107424e-19) (3.269774e-01 2.123557e-02 -3.186880e-21) (0.000000e+00 0.000000e+00 0.000000e+00)) ((-3.319010e-01 2.828058e-01 8.367972e+00) (-1.061779e-03 1.634887e-02 -1.530885e-02) (0.000000e+00 0.000000e+00 0.000000e+00))
2.850000e+02	((5.657743e+00 6.578545e+00 1.105398e-19) (3.244703e-01 2.071109e-02 -2.330859e-21) (0.000000e+00 0.000000e+00 0.000000e+00)) ((-3.289273e-01 2.828871e-01 8.352146e+00) (-1.035554e-03 1.622352e-02 -1.512232e-02) (0.000000e+00 0.000000e+00 0.000000e+00))
2.900000e+02	((5.659270e+00 6.515606e+00 1.102854e-19) (3.221051e-01 2.021118e-02 -1.807202e-21) (0.000000e+00 0.000000e+00 0.000000e+00)) ((-3.257803e-01 2.829635e-01 8.335057e+00) (-1.010559e-03 1.610525e-02 -1.494788e-02) (0.000000e+00 0.000000e+00 0.000000e+00))
2.950000e+02	((5.662625e+00 6.443712e+00 1.100272e-19) (3.197925e-01 1.972648e-02 -2.042668e-21) (0.000000e+00 0.000000e+00 0.000000e+00)) ((-3.221856e-01 2.831312e-01 8.316553e+00) (-9.863241e-04 1.598962e-02 -1.477858e-02) (0.000000e+00 0.000000e+00 0.000000e+00))
3.000000e+02	((5.664855e+00 6.377594e+00 1.098232e-19) (3.176184e-01 1.927824e-02 -2.477327e-21) (0.000000e+00 0.000000e+00 0.000000e+00)) ((-3.188797e-01 2.832428e-01 8.298995e+00) (-9.639120e-04 1.588092e-02 -1.462311e-02) (0.000000e+00 0.000000e+00 0.000000e+00))
3.050000e+02	((5.667538e+00 6.311276e+00 1.096699e-19) (3.154828e-01 1.884599e-02 -2.805233e-21) (0.000000e+00 0.000000e+00 0.000000e+00)) ((-3.155638e-01 2.833769e-01 8.281766e+00) (-9.422993e-04 1.577414e-02 -1.447296e-02) (0.000000e+00 0.000000e+00 0.000000e+00))
3.100000e+02	((5.669372e+00 6.246849e+00 1.095009e-19) (3.134779e-01 1.844041e-02 -2.890022e-21) (0.000000e+00 0.000000e+00 0.000000e+00)) ((-3.123424e-01 2.834686e-01 8.264551e+00) (-9.220207e-04 1.567390e-02 -1.433438e-02) (0.000000e+00 0.000000e+00 0.000000e+00))
3.150000e+02	((5.671054e+00 6.183238e+00 1.093280e-19) (3.114962e-01 1.804411e-02 -2.868998e-21) (0.000000e+00 0.000000e+00 0.000000e+00)) ((-3.091619e-01 2.835527e-01 8.247590e+00) (-9.022053e-04 1.557481e-02 -1.419921e-02) (0.000000e+00 0.000000e+00 0.000000e+00))
3.200000e+02	((5.671387e+00 6.126587e+00 1.092151e-19) (3.096337e-01 1.766748e-02 -2.494638e-21) (0.000000e+00 0.000000e+00 0.000000e+00)) ((-3.063294e-01 2.835694e-01 8.231940e+00) (-8.833742e-04 1.548168e-02 -1.407422e-02) (0.000000e+00 0.000000e+00 0.000000e+00))
3.250000e+02	((5.671880e+00 6.070010e+00 1.090717e-19) (3.077684e-01 1.728417e-02 -2.106105e-21) (0.000000e+00 0.000000e+00 0.000000e+00)) ((-3.035005e-01 2.835940e-01 8.216562e+00) (-8.642083e-04 1.538842e-02 -1.394927e-02) (0.000000e+00 0.000000e+00 0.000000e+00))
3.300000e+02	((5.671625e+00 6.016736e+00 1.089189e-19) (3.060120e-01 1.691558e-02 -1.982655e-21) (0.000000e+00 0.000000e+00 0.000000e+00)) ((-3.008368e-01 2.835813e-01 8.201796e+00) (-8.457790e-04 1.530060e-02 -1.383315e-02) (0.000000e+00 0.000000e+00 0.000000e+00))
3.350000e+02	((5.671205e+00 5.966654e+00 1.088047e-19) (3.042437e-01 1.654239e-02 -1.881708e-21) (0.000000e+00 0.000000e+00 0.000000e+00)) ((-2.983327e-01 2.835602e-01 8.188051e+00) (-8.271197e-04 1.521219e-02 -1.371767e-02) (0.000000e+00 0.000000e+00 0.000000e+00))
3.400000e+02	((5.670545e+00 5.919958e+00 1.087215e-19) (3.025804e-01 1.618412e-02 -1.646470e-21) (0.000000e+00 0.000000e+00 0.000000e+00)) ((-2.959979e-01 2.835272e-01 8.175301e+00) (-8.092062e-04 1.512902e-02 -1.361085e-02) (0.000000e+00 0.000000e+00 0.000000e+00))
3.450000e+02	((5.669950e+00 5.875441e+00 1.086528e-19) (3.008905e-01 1.581469e-02 -1.390112e-21) (0.000000e+00 0.000000e+00 0.000000e+00)) ((-2.937720e-01 2.834975e-01 8.163388e+00) (-7.907345e-04 1.504453e-02 -1.350325e-02) (0.000000e+00 0.000000e+00 0.000000e+00))
3.500000e+02	((5.668714e+00 5.835398e+00 1.086664e-19) (2.993030e-01 1.546519e-02 -1.109861e-21) (0.000000e+00 0.000000e+00 0.000000e+00)) ((-2.917699e-01 2.834357e-01 8.152484e+00) (-7.732596e-04 1.496515e-02 -1.340526e-02) (0.000000e+00 0.000000e+00 0.000000e+00))
3.550000e+02	((5.667632e+00 5.796895e+00 1.086800e-19) (2.976821e-01 1.510863e-02 -7.897737e-22) (0.000000e+00 0.000000e+00 0.000000e+00)) ((-2.898447e-01 2.833816e-01 8.142226e+00) (-7.554313e-04 1.488410e-02 -1.330745e-02) (0.000000e+00 0.000000e+00 0.000000e+00))
3.600000e+02	((5.666450e+00 5.761123e+00 1.087736e-19) (2.961662e-01 1.477553e-02 -7.675652e-22) (0.000000e+00 0.000000e+00 0.000000e+00)) ((-2.880561e-01 2.833225e-01 8.132811e+00) (-7.387767e-04 1.480831e-02 -1.321940e-02) (0.000000e+00 0.000000e+00 0.000000e+00))
3.650000e+02	((5.665024e+00 5.728086e+00 1.088887e-19) (2.946084e-01 1.443199e-02 -1.049580e-21) (0.000000e+00 0.000000e+00 0.000000e+00)) ((-2.864043e-01 2.832512e-01 8.124105e+00) (-7.215994e-04 1.473042e-02 -1.313059e-02) (0.000000e+00 0.000000e+00 0.000000e+00))
3.700000e+02	((5.664529e+00 5.694147e+00 1.090314e-19) (2.931550e-01 1.411590e-02 -1.629867e-21) (0.000000e+00 0.000000e+00 0.000000e+00)) ((-2.847073e-01 2.832265e-01 8.115864e+00) (-7.057950e-04 1.465775e-02 -1.305200e-02) (0.000000e+00 0.000000e+00 0.000000e+00))
3.750000e+02	((5.663591e+00 5.663720e+00 1.092491e-19) (2.916532e-01 1.379070e-02 -2.239641e-21) (0.000000e+00 0.000000e+00 0.000000e+00)) ((-2.831860e-01 2.831796e-01 8.108415e+00) (-6.895349e-04 1.458266e-02 -1.297286e-02) (0.000000e+00 0.000000e+00 0.000000e+00))
3.800000e+02	((5.662764e+00 5.634979e+00 1.094997e-19) (2.902482e-01 1.349070e-02 -2.850507e-21) (0.000000e+00 0.000000e+00 0.000000e+00)) ((-2.817489e-01 2.831382e-01 8.101624e+00) (-6.745350e-04 1.451241e-02 -1.290326e-02) (0.000000e+00 0.000000e+00 0.000000e+00))
3.850000e+02	((5.661281e+00 5.609776e+00 1.096881e-19) (2.887831e-01 1.317828e-02 -3.554170e-21) (0.000000e+00 0.000000e+00 0.000000e+00)) ((-2.804888e-01 2.830640e-01 8.095463e+00) (-6.589141e-04 1.443915e-02 -1.283247e-02) (0.000000e+00 0.000000e+00 0.000000e+00))
3.900000e+02	((5.660387e+00 5.584725e+00 1.099536e-19) (2.874121e-01 1.289425e-02 -4.154768e-21) (0.000000e+00 0.000000e+00 0.000000e+00)) ((-2.792362e-01 2.830194e-01 8.089869e+00) (-6.447123e-04 1.437060e-02 -1.277186e-02) (0.000000e+00 0.000000e+00 0.000000e+00))
3.950000e+02	((5.660426e+00 5.559126e+00 1.103121e-19) (2.859718e-01 1.259666e-02 -4.378916e-21) (0.000000e+00 0.000000e+00 0.000000e+00)) ((-2.779563e-01 2.830213e-01 8.084972e+00) (-6.298331e-04 1.429859e-02 -1.270990e-02) (0.000000e+00 0.000000e+00 0.000000e+00))
4.000000e+02	((5.661516e+00 5.532555e+00 1.105860e-19) (2.846223e-01 1.232700e-02 -4.075039e-21) (0.000000e+00 0.000000e+00 0.000000e+00)) ((-2.766278e-01 2.830758e-01 8.080715e+00) (-6.163500e-04 1.423111e-02 -1.265737e-02) (0.000000e+00 0.000000e+00 0.000000e+00))
4.050000e+02	((5.662915e+00 5.506997e+00 1.109318e-19) (2.831986e-01 1.204261e-02 -3.419208e-21) (0.000000e+00 0.000000e+00 0.000000e+00)) ((-2.753498e-01 2.831457e-01 8.077172e+00) (-6.021303e-04 1.415993e-02 -1.260310e-02) (0.000000e+00 0.000000e+00 0.000000e+00))
4.100000e+02	((5.663460e+00 5.485577e+00 1.112702e-19) (2.818638e-01 1.178848e-02 -2.676376e-21) (0.000000e+00 0.000000e+00 0.000000e+00)) ((-2.742789e-01 2.831730e-01 8.074437e+00) (-5.894238e-04 1.409319e-02 -1.255818e-02) (0.000000e+00 0.000000e+00 0.000000e+00))
4.150000e+02	((5.662516e+00 5.469703e+00 1.115003e-19) (2.804489e-01 1.151880e-02 -2.137943e-21) (0.000000e+00 0.000000e+00 0.000000e+00)) ((-2.734852e-01 2.831258e-01 8.072444e+00) (-5.759398e-04 1.402244e-02 -1.251132e-02) (0.000000e+00 0.000000e+00 0.000000e+00))
4.200000e+02	((5.663301e+00 5.451167e+00 1.117831e-19) (2.791163e-01 1.127977e-02 -1.726928e-21) (0.000000e+00 0.000000e+00 0.000000e+00)) ((-2.725584e-01 2.831651e-01 8.071365e+00) (-5.639887e-04 1.395582e-02 -1.247343e-02) (0.000000e+00 0.000000e+00 0.000000e+00))
4.250000e+02	((5.661289e+00 5.441751e+00 1.119216e-19) (2.776984e-01 1.102445e-02 -1.032480e-21) (0.000000e+00 0.000000e+00 0.000000e+00)) ((-2.720875e-01 2.830644e-01 8.071142e+00) (-5.512225e-04 1.388492e-02 -1.243364e-02) (0.000000e+00 0.000000e+00 0.000000e+00))
4.300000e+02	((5.663113e+00 5.424522e+00 1.121279e-19) (2.763563e-01 1.079995e-02 -7.013025e-22) (0.000000e+00 0.000000e+00 0.000000e+00)) ((-2.712261e-01 2.831556e-01 8.072068e+00) (-5.399977e-04 1.381782e-02 -1.240263e-02) (0.000000e+00 0.000000e+00 0.000000e+00))
4.350000e+02	((5.661116e+00 5.419071e+00 1.121868e-19) (2.749220e-01 1.055734e-02 -5.143409e-22) (0.000000e+00 0.000000e+00 0.000000e+00)) ((-2.709535e-01 2.830558e-01 8.073894e+00) (-5.278669e-04 1.374610e-02 -1.236940e-02) (0.000000e+00 0.000000e+00 0.000000e+00))
4.400000e+02	((5.662485e+00 5.407306e+00 1.122781e-19) (2.735580e-01 1.034519e-02 -5.372347e-22) (0.000000e+00 0.000000e+00 0.000000e+00)) ((-2.703653e-01 2.831242e-01 8.077126e+00) (-5.172596e-04 1.367790e-02 -1.234453e-02) (0.000000e+00 0.000000e+00 0.000000e+00))
4.450000e+02	((5.659776e+00 5.407983e+00 1.122204e-19) (2.720956e-01 1.011281e-02 -4.413908e-22) (0.000000e+00 0.000000e+00 0.000000e+00)) ((-2.703992e-01 2.829888e-01 8.081229e+00) (-5.056407e-04 1.360478e-02 -1.231707e-02) (0.000000e+00 0.000000e+00 0.000000e+00))
4.500000e+02	((5.660487e+00 5.402487e+00 1.121229e-19) (2.706997e-01 9.910488e-03 -1.808397e-22) (0.000000e+00 0.000000e+00 0.000000e+00)) ((-2.701244e-01 2.830243e-01 8.087006e+00) (-4.955244e-04 1.353498e-02 -1.229751e-02) (0.000000e+00 0.000000e+00 0.000000e+00))
4.550000e+02	((5.657755e+00 5.407799e+00 1.119838e-19) (2.692016e-01 9.686564e-03 -1.807753e-22) (0.000000e+00 0.000000e+00 0.000000e+00)) ((-2.703899e-01 2.828877e-01 8.093708e+00) (-4.843282e-04 1.346008e-02 -1.227485e-02) (0.000000e+00 0.000000e+00 0.000000e+00))
4.600000e+02	((5.656088e+00 5.412827e+00 1.117224e-19) (2.677716e-01 9.493828e-03 -3.235300e-22) (0.000000e+00 0.000000e+00 0.000000e+00)) ((-2.706413e-01 2.828044e-01 8.101879e+00) (-4.746914e-04 1.338858e-02 -1.225971e-02) (0.000000e+00 0.000000e+00 0.000000e+00))
4.650000e+02	((5.652702e+00 5.424497e+00 1.114004e-19) (2.662327e-01 9.274019e-03 -4.983339e-22) (0.000000e+00 0.000000e+00 0.000000e+00)) ((-2.712248e-01 2.826351e-01 8.111308e+00) (-4.637009e-04 1.331163e-02 -1.224048e-02) (0.000000e+00 0.000000e+00 0.000000e+00))
4.700000e+02	((5.648624e+00 5.440091e+00 1.109978e-19) (2.647522e-01 9.080338e-03 -8.060927e-22) (0.000000e+00 0.000000e+00 0.000000e+00)) ((-2.720045e-01 2.824312e-01 8.122056e+00) (-4.540169e-04 1.323761e-02 -1.222823e-02) (0.000000e+00 0.000000e+00 0.000000e+00))
4.750000e+02	((5.644887e+00 5.458057e+00 1.105312e-19) (2.631630e-01 8.876561e-03 -6.474960e-22) (0.000000e+00 0.000000e+00 0.000000e+00)) ((-2.729029e-01 2.822443e-01 8.134491e+00) (-4.438281e-04 1.315815e-02 -1.221613e-02) (0.000000e+00 0.000000e+00 0.000000e+00))
4.800000e+02	((5.640132e+00 5.480405e+00 1.099857e-19) (2.616407e-01 8.705570e-03 -4.815840e-22) (0.000000e+00 0.000000e+00 0.000000e+00)) ((-2.740202e-01 2.820066e-01 8.148102e+00) (-4.352785e-04 1.308203e-02 -1.221184e-02) (0.000000e+00 0.000000e+00 0.000000e+00))
4.850000e+02	((5.634397e+00 5.507094e+00 1.093664e-19) (2.600077e-01 8.506799e-03 -5.810174e-22) (0.000000e+00 0.000000e+00 0.000000e+00)) ((-2.753547e-01 2.817199e-01 8.162911e+00) (-4.253400e-04 1.300039e-02 -1.220419e-02) (0.000000e+00 0.000000e+00 0.000000e+00))
4.900000e+02	((5.628759e+00 5.535641e+00 1.086664e-19) (2.584347e-01 8.338368e-03 -5.974745e-22) (0.000000e+00 0.000000e+00 0.000000e+00)) ((-2.767820e-01 2.814379e-01 8.179315e+00) (-4.169184e-04 1.292173e-02 -1.220356e-02) (0.000000e+00 0.000000e+00 0.000000e+00))
4.950000e+02	((5.620217e+00 5.572066e+00 1.079577e-19) (2.567551e-01 8.142347e-03 -4.625333e-22) (0.000000e+00 0.000000e+00 0.000000e+00)) ((-2.786033e-01 2.810109e-01 8.196020e+00) (-4.071174e-04 1.283775e-02 -1.219932e-02) (0.000000e+00 0.000000e+00 0.000000e+00))
5.000000e+02	((5.611250e+00 5.610498e+00 1.070970e-19) (2.551401e-01 7.976353e-03 -5.636123e-22) (0.000000e+00 0.000000e+00 0.000000e+00)) ((-2.805249e-01 2.805625e-01 8.213653e+00) (-3.988177e-04 1.275701e-02 -1.220211e-02) (0.000000e+00 0.000000e+00 0.000000e+00))
5.050000e+02	((5.601638e+00 5.651337e+00 1.061824e-19) (2.534190e-01 7.781393e-03 -4.926919e-22) (0.000000e+00 0.000000e+00 0.000000e+00)) ((-2.825669e-01 2.800819e-01 8.232251e+00) (-3.890697e-04 1.267095e-02 -1.220067e-02) (0.000000e+00 0.000000e+00 0.000000e+00))
5.100000e+02	((5.589231e+00 5.698594e+00 1.052460e-19) (2.517649e-01 7.617085e-03 -3.075054e-22) (0.000000e+00 0.000000e+00 0.000000e+00)) ((-2.849297e-01 2.794616e-01 8.250550e+00) (-3.808542e-04 1.258825e-02 -1.220634e-02) (0.000000e+00 0.000000e+00 0.000000e+00))
5.150000e+02	((5.575148e+00 5.749078e+00 1.042570e-19) (2.500071e-01 7.423321e-03 -1.879940e-22) (0.000000e+00 0.000000e+00 0.000000e+00)) ((-2.874539e-01 2.787574e-01 8.268623e+00) (-3.711660e-04 1.250035e-02 -1.220773e-02) (0.000000e+00 0.000000e+00 0.000000e+00))
5.200000e+02	((5.562000e+00 5.796331e+00 1.033097e-19) (2.483177e-01 7.261107e-03 -1.062010e-22) (0.000000e+00 0.000000e+00 0.000000e+00)) ((-2.898165e-01 2.781000e-01 8.287527e+00) (-3.630554e-04 1.241589e-02 -1.221607e-02) (0.000000e+00 0.000000e+00 0.000000e+00))
5.250000e+02	((5.547400e+00 5.845431e+00 1.021975e-19) (2.465315e-01 7.069533e-03 -1.074081e-22) (0.000000e+00 0.000000e+00 0.000000e+00)) ((-2.922715e-01 2.773700e-01 8.305724e+00) (-3.534767e-04 1.232657e-02 -1.221968e-02) (0.000000e+00 0.000000e+00 0.000000e+00))
5.300000e+02	((5.531581e+00 5.896121e+00 1.010072e-19) (2.448220e-01 6.911186e-03 -6.043022e-23) (0.000000e+00 0.000000e+00 0.000000e+00)) ((-2.948060e-01 2.765791e-01 8.324158e+00) (-3.455593e-04 1.224110e-02 -1.222988e-02) (0.000000e+00 0.000000e+00 0.000000e+00))
5.350000e+02	((5.514021e+00 5.948702e+00 9.985389e-20) (2.430181e-01 6.722818e-03 4.719892e-23) (0.000000e+00 0.000000e+00 0.000000e+00)) ((-2.974351e-01 2.757011e-01 8.341573e+00) (-3.361409e-04 1.215090e-02 -1.223488e-02) (0.000000e+00 0.000000e+00 0.000000e+00))
5.400000e+02	((5.494159e+00 6.004308e+00 9.875754e-20) (2.412935e-01 6.567846e-03 3.240691e-22) (0.000000e+00 0.000000e+00 0.000000e+00)) ((-3.002154e-01 2.747080e-01 8.357735e+00) (-3.283923e-04 1.206467e-02 -1.224651e-02) (0.000000e+00 0.000000e+00 0.000000e+00))
5.450000e+02	((5.473445e+00 6.058829e+00 9.764638e-20) (2.394758e-01 6.383558e-03 5.568495e-22) (0.000000e+00 0.000000e+00 0.000000e+00)) ((-3.029415e-01 2.736722e-01 8.372284e+00) (-3.191779e-04 1.197379e-02 -1.225298e-02) (0.000000e+00 0.000000e+00 0.000000e+00))
5.500000e+02	((5.453404e+00 6.109153e+00 9.639864e-20) (2.377425e-01 6.233455e-03 7.612830e-22) (0.000000e+00 0.000000e+00 0.000000e+00)) ((-3.054577e-01 2.726702e-01 8.387164e+00) (-3.116727e-04 1.188713e-02 -1.226550e-02) (0.000000e+00 0.000000e+00 0.000000e+00))
5.550000e+02	((5.431319e+00 6.162246e+00 9.521060e-20) (2.359246e-01 6.053923e-03 8.754297e-22) (0.000000e+00 0.000000e+00 0.000000e+00)) ((-3.081123e-01 2.715659e-01 8.400323e+00) (-3.026961e-04 1.179623e-02 -1.227211e-02) (0.000000e+00 0.000000e+00 0.000000e+00))