/*--------------------------------*- C++ -*----------------------------------*\
| =========                 |                                                 |
| \\      /  F ield         | OpenFOAM: The Open Source CFD Toolbox           |
|  \\    /   O peration     | Version:  2.3.0                                 |
|   \\  /    A nd           | Web:      www.OpenFOAM.org                      |
|    \\/     M anipulation  |                                                 |
\*---------------------------------------------------------------------------*/
FoamFile
{
    version     2.0;
    format      ascii;
    class       volScalarField;
    location    "6000";
    object      nut;
}
// * * * * * * * * * * * * * * * * * * * * * * * * * * * * * * * * * * * * * //

dimensions      [0 2 -1 0 0 0 0];

internalField   nonuniform List<scalar> 
14201
(
0.0608727
0.0576163
0.0544158
0.051288
0.0482415
0.0452855
0.04243
0.0396874
0.0370724
0.0346033
0.0322999
0.0301766
0.028249
0.0265373
0.0250482
0.0237086
0.0224047
0.0211055
0.0198067
0.0184945
0.0171357
0.0156824
0.0141182
0.0127109
0.0641951
0.0614735
0.0588326
0.0562681
0.0537819
0.0513784
0.0490625
0.0468394
0.0447144
0.0426935
0.0407824
0.0389876
0.0373166
0.0357792
0.0343839
0.033138
0.0320472
0.0311151
0.03035
0.0297559
0.0293373
0.0290951
0.0290288
0.0291363
0.067164
0.0648975
0.0627036
0.06058
0.0585274
0.0565484
0.0546469
0.0528266
0.0510918
0.0494467
0.047896
0.0464449
0.0450985
0.0438634
0.0427454
0.0417515
0.040888
0.0401599
0.0395727
0.0391298
0.0388319
0.0386783
0.0386655
0.0387859
0.0698396
0.0679364
0.0661016
0.0643286
0.0626163
0.0609659
0.0593804
0.0578626
0.0564165
0.0550454
0.0537528
0.0525437
0.0514223
0.0503934
0.0494625
0.0486345
0.0479155
0.04731
0.0468225
0.0464563
0.0462126
0.0460916
0.0460909
0.0462057
0.0722152
0.0706195
0.0690763
0.0675827
0.0661379
0.0647428
0.0633995
0.0621109
0.0608803
0.0597109
0.058606
0.05757
0.0566069
0.0557213
0.0549183
0.0542025
0.0535788
0.0530529
0.0526287
0.0523097
0.0520979
0.0519946
0.0519992
0.0521087
0.0743359
0.0729862
0.0716774
0.0704063
0.0691728
0.0679773
0.0668217
0.0657087
0.0646419
0.063624
0.0626588
0.0617504
0.060903
0.0601209
0.0594094
0.058773
0.0582167
0.0577458
0.0573651
0.0570779
0.056887
0.0567947
0.0568011
0.0569047
0.0762162
0.0750709
0.0739515
0.0728589
0.0717935
0.0707558
0.0697472
0.0687707
0.06783
0.0669287
0.06607
0.0652581
0.0644971
0.0637923
0.0631489
0.0625716
0.0620652
0.0616348
0.0612854
0.0610211
0.0608452
0.0607606
0.0607679
0.0608664
0.0778944
0.0769092
0.0759425
0.0749936
0.0740631
0.0731518
0.0722605
0.0713911
0.0705484
0.0697384
0.0689634
0.0682267
0.0675324
0.0668855
0.0662944
0.0657625
0.0652949
0.0648956
0.0645691
0.0643226
0.0641586
0.0640799
0.0640883
0.0641825
0.0793789
0.0785305
0.0776885
0.0768558
0.0760344
0.0752253
0.0744296
0.0736469
0.0728799
0.0721415
0.0714354
0.0707568
0.0701211
0.0695129
0.0689633
0.0684667
0.0680297
0.0676586
0.0673469
0.0671156
0.0669603
0.0668868
0.0668976
0.0669911
0.0807121
0.0799701
0.0792242
0.0784811
0.0777442
0.0770153
0.0762972
0.0755936
0.0748915
0.0742044
0.0735617
0.0729144
0.0723536
0.071757
0.0712417
0.0707729
0.0703551
0.0700241
0.0697128
0.0695004
0.0693501
0.0692793
0.0692914
0.0693968
0.0136451
0.0160531
0.0175692
0.0189981
0.02055
0.0222755
0.0241722
0.0262242
0.0284135
0.0307245
0.0331446
0.0356637
0.0382742
0.040969
0.0437414
0.0465851
0.0494936
0.0524605
0.0554788
0.0585414
0.061641
0.06477
0.0679222
0.071103
0.0293978
0.0298251
0.0304447
0.0312612
0.0322711
0.0334662
0.034835
0.0363638
0.038038
0.0398429
0.0417653
0.0437929
0.0459147
0.048121
0.0504034
0.0527548
0.0551682
0.0576372
0.0601566
0.0627208
0.0653242
0.0679612
0.0706265
0.0733293
0.0390266
0.0393952
0.0399111
0.040577
0.0413921
0.0423525
0.0434518
0.0446819
0.0460338
0.0474974
0.0490631
0.050722
0.0524651
0.0542842
0.0561729
0.0581248
0.0601339
0.0621953
0.0643044
0.0664569
0.0686483
0.0708746
0.0731325
0.0754359
0.0464288
0.0467642
0.0472224
0.047805
0.0485112
0.0493368
0.0502768
0.0513253
0.0524742
0.0537159
0.0550429
0.0564476
0.0579226
0.0594614
0.0610587
0.0627088
0.0644077
0.0661512
0.0679358
0.0697583
0.0716156
0.0735044
0.0754224
0.0773849
0.0523182
0.0526301
0.0530506
0.0535796
0.0542156
0.0549541
0.0557895
0.0567163
0.0577271
0.0588153
0.0599742
0.0611966
0.0624764
0.0638083
0.0651868
0.0666079
0.0680682
0.0695644
0.0710937
0.0726539
0.0742426
0.0758574
0.077496
0.0791652
0.0571026
0.0573965
0.0577895
0.0582804
0.0588664
0.0595431
0.0603044
0.0611442
0.0620562
0.0630334
0.0640691
0.0651569
0.0662912
0.0674671
0.0686794
0.0699247
0.0712
0.0725032
0.0738317
0.0751838
0.0765572
0.0779506
0.0793625
0.0807946
0.0610543
0.0613332
0.0617048
0.062167
0.0627156
0.0633463
0.0640524
0.0648276
0.0656656
0.0665592
0.0675013
0.0684864
0.0695092
0.0705646
0.0716477
0.0727553
0.0738854
0.0750365
0.076206
0.0773917
0.0785919
0.0798054
0.0810313
0.082269
0.0643609
0.0646262
0.0649802
0.0654203
0.0659408
0.0665358
0.0671991
0.0679249
0.0687061
0.0695344
0.070403
0.0713076
0.0722433
0.0732037
0.0741837
0.0751809
0.0761957
0.0772261
0.0782682
0.0793198
0.0803795
0.0814462
0.0825197
0.0836019
0.0671566
0.0674084
0.0677477
0.0681716
0.0686703
0.0692365
0.0698649
0.0705531
0.0712902
0.0720653
0.0728735
0.0737143
0.0745822
0.0754663
0.0763607
0.077267
0.0781896
0.0791248
0.0800629
0.0810064
0.0819511
0.0828968
0.0838457
0.0848023
0.0695369
0.069776
0.0701028
0.0705158
0.0709931
0.0715323
0.0721315
0.0727921
0.0734903
0.0742155
0.0749733
0.0757663
0.0765838
0.0774015
0.0782215
0.0790559
0.0799079
0.0807695
0.0816214
0.0824808
0.083327
0.0841749
0.0850256
0.0858859
0.0580841
0.052959
0.0478235
0.0428026
0.0380479
0.0336825
0.0297404
0.0261996
0.0230245
0.0201799
0.0176332
0.0153553
0.0133204
0.0115055
0.00989059
0.00845853
0.0071951
0.00609031
0.00514352
0.00436264
0.00380379
0.00327209
0.0026769
0.00193656
0.0585753
0.0539545
0.0493308
0.0447812
0.0404071
0.036311
0.0325526
0.0291378
0.026046
0.0232505
0.0207253
0.0184466
0.0163943
0.0145509
0.0129035
0.0114451
0.0101799
0.00911681
0.00828294
0.00751248
0.0067152
0.0058416
0.0048329
0.00360354
0.0591288
0.0550106
0.0508837
0.0468006
0.0428221
0.0390168
0.0354474
0.0321517
0.0291347
0.026382
0.0238732
0.02159
0.0195173
0.0176446
0.01597
0.0145033
0.0132554
0.0122506
0.0113004
0.010322
0.00926356
0.00807663
0.00670747
0.00508993
0.0597465
0.0560669
0.052381
0.0487189
0.0451142
0.0416065
0.0382408
0.0350629
0.0321074
0.0293829
0.0268788
0.0245809
0.0224797
0.0205726
0.0188692
0.0173901
0.0161553
0.0150463
0.0139298
0.0127503
0.0114601
0.0100106
0.00834724
0.00641171
0.0603671
0.0570759
0.0537726
0.050475
0.0472015
0.0439736
0.0408182
0.0377712
0.0348774
0.0321747
0.0296687
0.0273513
0.0252176
0.0232717
0.0215316
0.0200141
0.0187432
0.0175067
0.0162342
0.0148759
0.0133844
0.011709
0.00979424
0.00758099
0.0609724
0.0580152
0.0550374
0.052049
0.0490593
0.0460786
0.0431224
0.0402139
0.0373935
0.0347157
0.0322098
0.0298748
0.0277115
0.02573
0.0239557
0.0224026
0.0210435
0.0196867
0.0182739
0.0167574
0.0150886
0.0132152
0.011078
0.008615
0.0615414
0.0588719
0.0561708
0.0534435
0.0506936
0.047926
0.0451482
0.0423749
0.039637
0.0369922
0.0344922
0.0321456
0.029959
0.0279489
0.0261459
0.024573
0.0231088
0.0216342
0.0200924
0.0184337
0.0166072
0.0145568
0.0122197
0.00953013
0.0620742
0.0596441
0.0571775
0.0546708
0.0521238
0.0495383
0.0469173
0.0442692
0.0416163
0.0390117
0.0365232
0.0341716
0.0319683
0.0299347
0.0281011
0.0264951
0.0249462
0.02337
0.0217144
0.01993
0.0179633
0.0157555
0.0132389
0.010343
0.0625288
0.0603272
0.0580661
0.0557478
0.0533726
0.050942
0.0484586
0.0459259
0.0433576
0.0407963
0.0383212
0.0359682
0.033756
0.0317072
0.0298472
0.0282018
0.0265809
0.0249166
0.0231605
0.0212648
0.0191741
0.0168285
0.0141564
0.0110756
0.062954
0.0609384
0.0588514
0.0566934
0.054462
0.0521607
0.0497967
0.0473761
0.0449024
0.0423794
0.039908
0.0375519
0.0353391
0.0332895
0.0314173
0.0297284
0.0280414
0.0262972
0.0244495
0.0224546
0.0202486
0.0177811
0.0150004
0.0118178
0.00104846
0.000814
0.00108777
0.00138672
0.0016745
0.00195513
0.0022367
0.00253086
0.00285627
0.00324255
0.00373288
0.00435526
0.00508818
0.00592577
0.00687014
0.00792696
0.00910383
0.010408
0.011847
0.0134296
0.015166
0.0170659
0.0191386
0.0213955
0.00214367
0.00128473
0.00137694
0.00166962
0.0019663
0.00226247
0.00257171
0.0029133
0.00331058
0.00378887
0.00437191
0.00506656
0.00585094
0.00672399
0.00768881
0.00875065
0.00991525
0.011188
0.0125753
0.014085
0.0157255
0.017505
0.0194327
0.021521
0.00323437
0.00182077
0.00164758
0.00192476
0.0022396
0.00256779
0.00292655
0.00333693
0.00381754
0.00438157
0.00504141
0.00579307
0.00661999
0.00752221
0.00850289
0.00956598
0.0107152
0.011955
0.0132909
0.014729
0.0162761
0.0179395
0.0197274
0.0216494
0.00421351
0.00235329
0.00189881
0.00215467
0.00249752
0.00287139
0.00329275
0.00377802
0.00433648
0.00497271
0.00569799
0.006496
0.00735757
0.00828352
0.0092759
0.010337
0.0114694
0.0126767
0.0139632
0.0153339
0.0167945
0.0183505
0.0200091
0.0217777
0.00507386
0.00284724
0.00213238
0.00236673
0.00274623
0.00317467
0.00366295
0.00421999
0.00484736
0.00554612
0.0063241
0.0071611
0.00805209
0.00899744
0.00999802
0.011055
0.0121702
0.0133466
0.0145872
0.0158957
0.0172766
0.0187346
0.0202751
0.0219042
0.00582917
0.00329148
0.00234921
0.00256643
0.00298855
0.00347496
0.00402841
0.00465043
0.00533759
0.00609152
0.00691285
0.00778321
0.00869933
0.00966084
0.0106673
0.011719
0.0128175
0.0139647
0.0151627
0.0164143
0.0177226
0.0190913
0.0205244
0.0220254
0.00649244
0.00368549
0.00254994
0.00275644
0.00322423
0.00376829
0.00438206
0.00506099
0.00579941
0.00660325
0.00746153
0.00836119
0.00929899
0.0102738
0.0112844
0.0123306
0.0134132
0.0145332
0.0156921
0.0168918
0.0181342
0.0194215
0.0207564
0.0221406
0.00707496
0.00403304
0.00273608
0.00293785
0.00345217
0.00405092
0.00471908
0.00544809
0.00623271
0.00707947
0.00797012
0.00889541
0.00985219
0.0108379
0.0118514
0.0128921
0.0139597
0.0150548
0.0161779
0.0173302
0.0185125
0.0197261
0.020972
0.0222514
0.00759027
0.00433571
0.00290612
0.00311069
0.00366952
0.00431729
0.00503523
0.00580994
0.00663689
0.00752026
0.00843985
0.0093881
0.010361
0.0113554
0.0123707
0.0134062
0.0144604
0.0155322
0.0166229
0.0177332
0.0188616
0.0200072
0.0211727
0.0223647
0.00815129
0.00465623
0.00307578
0.00327153
0.00387463
0.004586
0.00534474
0.00615369
0.00701674
0.00792973
0.00887225
0.00983693
0.0108165
0.0118161
0.0128421
0.0138832
0.0149234
0.0159649
0.0170318
0.0181157
0.019194
0.0202662
0.021347
0.0224491
0.000586781
0.0020261
0.0041412
0.00647639
0.00878407
0.0110097
0.0131439
0.0151868
0.0171433
0.0190327
0.0209007
0.0228033
0.0247707
0.0267852
0.0288369
0.0312536
0.0340041
0.0370013
0.0401797
0.0434959
0.0469214
0.0504353
0.0540202
0.0576542
0.000438679
0.00133011
0.00309513
0.00498478
0.00680033
0.00860121
0.0104215
0.0122624
0.0141179
0.0159829
0.0178582
0.0197546
0.0216874
0.0236669
0.0257182
0.0279611
0.0304273
0.0330449
0.0361085
0.0395035
0.0431119
0.0468585
0.0506949
0.0545722
0.000268029
0.000880077
0.00207398
0.00369142
0.00573402
0.00776066
0.0096669
0.011483
0.01324
0.0149622
0.0166713
0.018389
0.0201381
0.0219453
0.0238451
0.0258889
0.0281237
0.0305651
0.0333072
0.0362936
0.0397709
0.0435731
0.0475589
0.0516325
0.000291892
0.00075366
0.00176781
0.00313967
0.00491432
0.00698999
0.00906403
0.011055
0.0129507
0.0147509
0.0164634
0.0181074
0.0197136
0.0213237
0.0229894
0.0247688
0.0267241
0.028911
0.0313776
0.0341292
0.0372179
0.0407386
0.044683
0.0488693
0.000266739
0.000671631
0.00157985
0.00280283
0.00437788
0.00632973
0.00847466
0.0106032
0.0126548
0.0146138
0.0164683
0.0182101
0.0198437
0.0213932
0.0229059
0.0244503
0.0261107
0.0279763
0.0301217
0.0325942
0.0354181
0.0386212
0.0422215
0.0463173
0.000266041
0.000625652
0.00146953
0.00259942
0.00405044
0.00585693
0.00797195
0.0101767
0.0123489
0.0144477
0.0164536
0.0183468
0.02011
0.0217374
0.0232451
0.0246807
0.0261258
0.0276891
0.0294855
0.0316123
0.0341281
0.0370542
0.0403714
0.0441199
0.000259438
0.000589875
0.0013864
0.00245056
0.0038138
0.00550886
0.00754819
0.00978471
0.0120486
0.0142645
0.0164021
0.0184393
0.020352
0.0221175
0.0237239
0.0251831
0.0265452
0.0279054
0.0293956
0.0311583
0.0333096
0.0359111
0.0389577
0.0423938
0.000257524
0.000566583
0.00132773
0.00234359
0.00364227
0.00525449
0.00720902
0.00943634
0.0117614
0.0140742
0.0163268
0.0184926
0.0205457
0.0224577
0.0242021
0.0257645
0.0271579
0.0284405
0.0297258
0.0311721
0.0329462
0.0351737
0.0379014
0.0410972
0.000255058
0.000547679
0.00128069
0.00225903
0.00350747
0.0050549
0.00693414
0.0091275
0.0114887
0.0138811
0.0162351
0.018516
0.0206967
0.0227473
0.0246354
0.0263323
0.0278245
0.0291315
0.0303276
0.0315521
0.0329919
0.0348317
0.0371917
0.0400999
0.000253511
0.000532801
0.00124361
0.00219207
0.00340053
0.00489631
0.00671255
0.00885919
0.0112336
0.013688
0.0161309
0.0185158
0.0208127
0.0229914
0.0250173
0.026855
0.0284754
0.0298697
0.0310715
0.0321803
0.0333689
0.0348528
0.0368233
0.0393864
0.000252014
0.000520372
0.00121276
0.00213667
0.00331236
0.00476576
0.00652929
0.00862625
0.0109962
0.0134966
0.0160168
0.0184963
0.0208997
0.0231964
0.0253516
0.0273266
0.0290839
0.0305966
0.0318668
0.0329511
0.033985
0.0351807
0.0367768
0.0389603
0.000250758
0.000509939
0.00118696
0.0020902
0.00323843
0.00465635
0.00637539
0.0084249
0.0107775
0.0133088
0.0158947
0.0184599
0.0209617
0.0233678
0.0256435
0.0277491
0.0296427
0.0312865
0.0326606
0.0337857
0.0347532
0.0357455
0.0370158
0.0388179
0.000249592
0.000500953
0.00116477
0.0020503
0.00317498
0.00456266
0.00624354
0.00824968
0.0105769
0.0131256
0.0157663
0.0184089
0.0210018
0.0235096
0.0258979
0.0281268
0.0301522
0.0319299
0.0334255
0.034633
0.0356031
0.0364761
0.0374897
0.0389347
0.000248441
0.00049303
0.00114525
0.00201541
0.00311956
0.00448088
0.00612877
0.00809588
0.0103932
0.0129481
0.0156328
0.0183447
0.021022
0.023625
0.0261187
0.0284637
0.030615
0.0325247
0.0341491
0.0354631
0.0364847
0.0373102
0.0381425
0.0392769
0.000247282
0.000485999
0.00112793
0.00198446
0.00307054
0.00440862
0.00602734
0.00795953
0.0102254
0.0127771
0.0154954
0.0182687
0.021024
0.0237163
0.026309
0.0287634
0.0310344
0.033072
0.0348267
0.03626
0.0373649
0.0381985
0.0389205
0.0398049
0.000246072
0.000479665
0.00111234
0.00195668
0.00302665
0.00434401
0.00593674
0.0078374
0.0100717
0.0126132
0.0153558
0.0181823
0.0210095
0.0237853
0.0264714
0.0290291
0.0314135
0.0335741
0.0354574
0.0370157
0.0382235
0.0391057
0.039778
0.0404776
0.000244876
0.000473923
0.00109831
0.00193156
0.00298701
0.00428575
0.00585508
0.00772709
0.00993116
0.012457
0.0152155
0.0180872
0.02098
0.0238343
0.0266084
0.0292636
0.0317557
0.0340337
0.0360422
0.0377272
0.0390493
0.040008
0.0406793
0.0412574
0.000243699
0.000468749
0.00108555
0.00190878
0.00295091
0.00423283
0.0057809
0.00762696
0.00980226
0.0123092
0.0150759
0.0179856
0.0209377
0.0238652
0.0267226
0.0294701
0.0320642
0.0344543
0.0365835
0.0383941
0.0398365
0.0408904
0.0415988
0.0421133
0.0002425
0.000463997
0.0010739
0.00188801
0.00291804
0.00418446
0.00571332
0.00753564
0.00968403
0.0121698
0.0149388
0.0178793
0.020885
0.0238808
0.0268167
0.0296517
0.0323426
0.0348394
0.0370848
0.0390181
0.0405832
0.0417446
0.0425179
0.0430158
0.0002413
0.000459663
0.0010633
0.0018691
0.00288813
0.00414045
0.00565168
0.00745243
0.00957568
0.0120396
0.0148056
0.0177708
0.0208243
0.0238838
0.0268939
0.0298119
0.0325947
0.035193
0.0375498
0.0396026
0.0412902
0.042566
0.0434237
0.0439387
0.000240101
0.000455742
0.00105368
0.0018519
0.00286095
0.00410043
0.00559559
0.00737656
0.00947643
0.0119186
0.0146779
0.017662
0.0207581
0.0238768
0.0269573
0.0299542
0.0328246
0.0355197
0.037983
0.0401512
0.0419597
0.0433534
0.0443085
0.0448704
0.000238896
0.000452157
0.00104498
0.00183624
0.00283619
0.004064
0.00554441
0.00730721
0.00938559
0.0118063
0.0145563
0.0175545
0.0206884
0.0238623
0.0270096
0.0300819
0.0330358
0.0358233
0.0383884
0.0406678
0.0425943
0.0441066
0.0451664
0.0457896
0.000237676
0.00044887
0.00103698
0.00182191
0.00281342
0.00403057
0.00549752
0.00724364
0.00930217
0.0117023
0.014441
0.0174491
0.0206164
0.0238419
0.0270527
0.0301973
0.0332313
0.0361071
0.0387697
0.0411558
0.0431968
0.0448261
0.0459932
0.0466856
0.000236425
0.000445831
0.00102962
0.00180871
0.00279248
0.00399969
0.00545429
0.00718514
0.00922521
0.0116056
0.0143314
0.017346
0.0205427
0.0238162
0.0270877
0.0303017
0.0334126
0.0363732
0.0391291
0.0416174
0.0437684
0.0455115
0.0467856
0.0475563
0.00023513
0.00044298
0.00102274
0.00179638
0.00277296
0.00397095
0.00541405
0.00713067
0.00915353
0.011515
0.014227
0.0172447
0.0204669
0.0237851
0.0271145
0.0303953
0.0335803
0.0366223
0.0394677
0.0420538
0.0443104
0.0461635
0.0475453
0.0484127
0.000233774
0.000440262
0.00101622
0.00178474
0.00275456
0.0039439
0.00537617
0.00707944
0.00908607
0.0114294
0.0141268
0.0171446
0.0203886
0.023748
0.0271326
0.0304777
0.0337341
0.0368544
0.0397856
0.0424654
0.0448232
0.0467828
0.0482705
0.0492299
0.000232343
0.000437663
0.00101004
0.00177363
0.00273699
0.00391813
0.00534011
0.00703067
0.00902192
0.0113477
0.0140298
0.0170449
0.0203069
0.0237042
0.027141
0.0305481
0.0338735
0.0370693
0.0400829
0.0428528
0.0453079
0.0473705
0.048962
0.0500142
0.00023084
0.000435135
0.00100406
0.00176289
0.00272001
0.00389326
0.00530537
0.00698379
0.00896034
0.0112691
0.0139354
0.0169452
0.0202214
0.0236529
0.0271391
0.0306056
0.0339976
0.0372663
0.0403595
0.043216
0.0457651
0.0479276
0.0496214
0.0507715
0.000229255
0.000432658
0.000998205
0.00175242
0.00270348
0.00386906
0.00527166
0.00693835
0.00890067
0.0111929
0.013843
0.0168452
0.0201319
0.0235937
0.0271261
0.0306495
0.0341057
0.0374449
0.0406149
0.0435551
0.046195
0.0484548
0.05025
0.0515011
0.000227587
0.000430202
0.000992462
0.00174216
0.00268734
0.00384543
0.00523874
0.00689407
0.00884259
0.0111186
0.0137521
0.0167448
0.0200384
0.0235268
0.0271021
0.0306797
0.0341976
0.0376048
0.040849
0.0438702
0.0465982
0.0489529
0.0508486
0.0522024
0.000225855
0.00042781
0.000986888
0.00173216
0.00267156
0.00382235
0.0052066
0.00685083
0.00878593
0.0110461
0.013663
0.0166443
0.0199415
0.0234527
0.0270675
0.0306964
0.0342736
0.0377463
0.0410622
0.0441618
0.0469752
0.0494226
0.0514171
0.0528728
0.000224057
0.000425464
0.000981439
0.00172239
0.00265617
0.00379987
0.00517528
0.00680871
0.00873073
0.0109755
0.0135758
0.0165444
0.019842
0.0233724
0.0270233
0.0307005
0.0343345
0.0378704
0.0412555
0.0444309
0.0473273
0.0498651
0.0519571
0.0535158
0.0002222
0.000423177
0.000976159
0.00171293
0.00264124
0.00377804
0.00514491
0.00676788
0.00867724
0.010907
0.0134907
0.0164457
0.0197413
0.0232873
0.0269708
0.0306935
0.0343818
0.0379784
0.0414303
0.0446789
0.0476557
0.0502815
0.0524686
0.0541272
0.0002203
0.000420956
0.00097105
0.00170376
0.00262678
0.00375692
0.00511554
0.0067284
0.00862552
0.0108407
0.0134082
0.016349
0.0196403
0.0231989
0.0269119
0.0306773
0.0344172
0.0380721
0.0415883
0.0449075
0.0479619
0.0506727
0.0529515
0.0547063
0.000218354
0.000418802
0.000966118
0.00169491
0.00261283
0.00373653
0.0050872
0.00669032
0.00857566
0.0107768
0.0133286
0.0162548
0.0195402
0.0231086
0.0268483
0.0306536
0.0344429
0.0381539
0.0417321
0.0451195
0.0482489
0.051042
0.0534101
0.0552585
0.000216357
0.000416692
0.000961318
0.00168631
0.00259929
0.00371675
0.00505974
0.00665348
0.00852748
0.0107151
0.0132516
0.0161631
0.0194413
0.0230174
0.0267812
0.0306243
0.0344608
0.0382261
0.0418643
0.0453178
0.0485201
0.0513936
0.0538496
0.0557928
0.000214308
0.000414622
0.000956627
0.0016779
0.00258607
0.0036975
0.00503302
0.00661769
0.00848073
0.0106553
0.0131768
0.0160737
0.0193436
0.0229252
0.026711
0.0305898
0.0344719
0.0382897
0.0419863
0.0455042
0.0487776
0.0517296
0.0542721
0.0563083
0.0002122
0.000412567
0.000951998
0.00166962
0.00257306
0.00367857
0.00500681
0.00658262
0.00843498
0.0105969
0.0131037
0.0159859
0.0192464
0.0228316
0.026637
0.0305496
0.0344758
0.0383447
0.0420981
0.0456787
0.0490213
0.0520498
0.0546767
0.0568062
0.000210029
0.000410518
0.000947402
0.0016614
0.00256016
0.00365981
0.00498086
0.00654794
0.00838981
0.0105392
0.0130316
0.0158988
0.0191488
0.0227355
0.0265584
0.0305027
0.034471
0.0383895
0.0421982
0.0458395
0.0492489
0.0523507
0.0550575
0.0572717
0.000207794
0.000408465
0.000942814
0.00165319
0.0025473
0.00364113
0.00495503
0.00651347
0.00834494
0.0104819
0.01296
0.015812
0.0190505
0.0226365
0.0264743
0.030448
0.0344565
0.0384227
0.0422848
0.0459848
0.0494584
0.0526304
0.0554128
0.0577056
0.000205496
0.000406404
0.000938221
0.00164498
0.00253444
0.00362247
0.00492928
0.00647911
0.00830024
0.0104249
0.0128886
0.0157253
0.0189512
0.0225345
0.0263846
0.0303851
0.0344316
0.0384435
0.042357
0.0461135
0.0496488
0.0528881
0.0557434
0.0581131
0.000203136
0.000404335
0.000933625
0.00163677
0.00252159
0.00360384
0.00490356
0.00644484
0.00825571
0.0103682
0.0128177
0.0156389
0.0188512
0.0224299
0.0262897
0.0303145
0.0343968
0.0384524
0.0424154
0.0462265
0.0498218
0.0531273
0.0560565
0.0585134
0.000200712
0.000402245
0.000929006
0.00162854
0.00250871
0.00358518
0.00487785
0.00641062
0.0082113
0.0103117
0.012747
0.0155526
0.0187508
0.0223231
0.0261903
0.0302371
0.0343531
0.0384506
0.0424614
0.0463255
0.0499793
0.0533495
0.0563503
0.0588833
0.000198223
0.000400137
0.000924361
0.00162027
0.00249579
0.0035665
0.00485213
0.00637641
0.00816696
0.0102553
0.0126766
0.0154666
0.0186501
0.0222145
0.0260869
0.0301535
0.0343012
0.0384389
0.0424962
0.0464119
0.0501227
0.053556
0.0566267
0.0592368
0.000195674
0.000398002
0.000919673
0.00161193
0.0024828
0.00354772
0.00482632
0.00634214
0.00812259
0.010199
0.0126063
0.0153805
0.0185488
0.0221039
0.0259794
0.0300635
0.0342408
0.038417
0.042519
0.0464846
0.0502503
0.0537438
0.05688
0.0595594
0.000193068
0.000395844
0.000914941
0.00160353
0.00246971
0.00352883
0.00480039
0.00630775
0.00807811
0.0101426
0.0125359
0.0152944
0.0184469
0.0219915
0.0258681
0.0299674
0.0341725
0.0383854
0.0425307
0.0465446
0.0503637
0.053916
0.057117
0.0598693
0.000190406
0.000393659
0.00091016
0.00159504
0.0024565
0.00350979
0.00477427
0.00627315
0.00803342
0.010086
0.0124654
0.0152081
0.0183445
0.0218774
0.025753
0.0298655
0.0340964
0.0383445
0.0425316
0.0465928
0.0504644
0.0540751
0.0573411
0.0601644
0.000187686
0.000391447
0.000905328
0.00158647
0.00244317
0.00349059
0.00474796
0.00623831
0.00798847
0.0100291
0.0123945
0.0151214
0.0182414
0.0217614
0.0256343
0.0297578
0.0340126
0.0382945
0.0425223
0.0466298
0.0505532
0.0542219
0.0575537
0.0604537
0.000184917
0.000389211
0.000900453
0.00157783
0.00242974
0.00347125
0.00472146
0.00620325
0.00794325
0.0099719
0.0123234
0.0150343
0.0181374
0.0216435
0.0255118
0.0296441
0.0339207
0.0382346
0.0425016
0.0466539
0.0506275
0.0543523
0.0577469
0.0607168
0.000182123
0.000386983
0.00089558
0.00156918
0.00241628
0.00345187
0.00469489
0.00616811
0.00789793
0.0099146
0.0122521
0.014947
0.018033
0.0215242
0.0253859
0.0295249
0.0338211
0.038165
0.0424696
0.0466652
0.0506872
0.0544659
0.0579208
0.0609588
0.000179271
0.000384757
0.000890724
0.00156055
0.00240286
0.00343252
0.00466839
0.00613303
0.00785271
0.00985743
0.0121809
0.0148598
0.0179285
0.021404
0.0252576
0.0294009
0.0337146
0.0380866
0.0424271
0.0466644
0.0507333
0.0545643
0.0580769
0.0611771
0.000176384
0.000382518
0.000885886
0.00155197
0.00238951
0.0034133
0.00464205
0.0060982
0.0078078
0.00980067
0.0121104
0.0147733
0.0178246
0.0212839
0.025128
0.0292736
0.0336028
0.038001
0.0423757
0.0466534
0.0507682
0.054651
0.0582223
0.0613897
0.000173491
0.000380325
0.000881107
0.0015435
0.00237634
0.00339431
0.00461605
0.0060638
0.00776347
0.00974462
0.0120407
0.0146879
0.017722
0.0211647
0.0249981
0.0291444
0.033487
0.0379098
0.0423174
0.0466343
0.050794
0.054728
0.0583582
0.0615955
0.000170572
0.00037816
0.000876389
0.00153518
0.0023634
0.00337566
0.00459048
0.00602999
0.00771985
0.00968956
0.0119721
0.014604
0.017621
0.021047
0.0248688
0.0290143
0.0333684
0.0378139
0.0422528
0.0466075
0.0508106
0.0547938
0.0584795
0.061778
0.000167632
0.000376032
0.000871818
0.00152699
0.00235071
0.00335739
0.00456543
0.0059968
0.00767709
0.00963549
0.011905
0.0145216
0.0175218
0.0209311
0.0247407
0.0288838
0.0332481
0.0377145
0.0421831
0.0465739
0.0508188
0.0548493
0.0585882
0.0619455
0.000164676
0.000373933
0.000867279
0.00151895
0.00233815
0.00333941
0.00454077
0.00596423
0.0076351
0.00958254
0.0118392
0.014441
0.0174245
0.0208172
0.0246142
0.0287539
0.0331265
0.0376126
0.0421092
0.046535
0.0508203
0.0548966
0.0586871
0.0621024
0.000161695
0.00037186
0.000862811
0.00151104
0.00232583
0.00332162
0.00451654
0.00593219
0.00759394
0.00953054
0.0117746
0.014362
0.0173294
0.0207055
0.0244895
0.0286247
0.0330047
0.037509
0.0420326
0.0464918
0.0508166
0.054938
0.05878
0.0622538
0.00015867
0.000369795
0.000858368
0.00150319
0.00231365
0.00330411
0.0044926
0.00590065
0.00755337
0.00947938
0.0117111
0.0142843
0.0172358
0.0205956
0.0243662
0.0284963
0.0328823
0.0374037
0.0419534
0.0464454
0.0508087
0.0549745
0.0588679
0.0624025
0.000155639
0.000367731
0.000853949
0.00149541
0.00230161
0.00328679
0.00446892
0.00586942
0.00751318
0.0094288
0.0116483
0.0142075
0.0171433
0.0204868
0.0242437
0.0283678
0.0327589
0.0372963
0.041871
0.046395
0.0507959
0.0550051
0.0589482
0.0625397
0.000152599
0.000365722
0.000849607
0.00148765
0.00228959
0.00326955
0.00444532
0.0058383
0.00747324
0.00937847
0.011586
0.0141312
0.0170515
0.0203784
0.0241212
0.0282384
0.0326333
0.0371856
0.0417841
0.0463391
0.0507766
0.0550278
0.0590187
0.0626636
0.000149506
0.000363692
0.000845241
0.00147992
0.00227756
0.00325229
0.0044218
0.00580724
0.0074334
0.00932831
0.0115239
0.0140553
0.0169598
0.0202703
0.0239983
0.0281075
0.0325049
0.0370706
0.0416917
0.0462762
0.0507491
0.0550408
0.0590773
0.0627728
0.000146386
0.000361686
0.000840927
0.00147228
0.00226568
0.0032352
0.00439843
0.00577648
0.00739384
0.00927846
0.011462
0.0139797
0.0168686
0.0201624
0.0238751
0.0279751
0.0323734
0.0369509
0.041593
0.0462057
0.0507123
0.0550429
0.0591238
0.0628701
0.000143224
0.0003597
0.000836641
0.00146472
0.00225395
0.00321831
0.00437537
0.00574606
0.00735473
0.00922916
0.0114008
0.0139048
0.0167782
0.0200552
0.0237523
0.027842
0.0322396
0.0368273
0.0414891
0.0461284
0.0506674
0.0550356
0.0591599
0.0629581
0.000140061
0.000357729
0.000832434
0.00145726
0.00224244
0.00320173
0.00435269
0.00571613
0.00731616
0.0091806
0.0113406
0.0138311
0.0166891
0.0199494
0.0236305
0.0277092
0.0321052
0.0367014
0.041381
0.0460456
0.0506155
0.0550198
0.0591857
0.0630313
0.000136895
0.000355833
0.000828359
0.00144998
0.0022311
0.00318546
0.00433039
0.00568666
0.0072783
0.00913286
0.0112815
0.0137587
0.0166017
0.0198456
0.0235108
0.0275779
0.0319709
0.0365746
0.0412706
0.0459591
0.0505585
0.0549973
0.0592026
0.0630921
0.000133671
0.000353914
0.00082425
0.00144273
0.00221981
0.00316929
0.00430836
0.00565759
0.00724104
0.00908596
0.0112234
0.0136876
0.0165159
0.0197438
0.0233932
0.0274486
0.0318379
0.0364477
0.041159
0.0458699
0.0504977
0.0549698
0.0592125
0.0631426
0.000130406
0.000351993
0.00082014
0.0014355
0.00220862
0.00315323
0.00428647
0.00562884
0.00720416
0.00903959
0.0111659
0.0136175
0.0164313
0.0196434
0.0232772
0.0273206
0.0317056
0.0363208
0.0410464
0.0457788
0.0504338
0.054938
0.059218
0.0631907
0.000127074
0.000350035
0.000815962
0.00142818
0.00219734
0.00313709
0.00426453
0.00560005
0.00716725
0.0089933
0.0111087
0.0135478
0.0163473
0.0195437
0.0231618
0.027193
0.0315731
0.0361927
0.040932
0.0456852
0.0503668
0.0549026
0.0592192
0.0632344
0.000123724
0.000348054
0.000811749
0.00142072
0.00218591
0.00312076
0.00424234
0.00557089
0.00712997
0.00894652
0.011051
0.0134775
0.0162627
0.0194434
0.0230456
0.0270639
0.0314385
0.0360618
0.0408138
0.0455871
0.0502945
0.0548612
0.0592138
0.0632709
0.000120316
0.000346065
0.000807458
0.00141317
0.0021742
0.00310413
0.00421969
0.00554118
0.00709199
0.00889903
0.0109925
0.0134061
0.0161769
0.0193415
0.0229274
0.0269322
0.0313001
0.0359262
0.0406899
0.0454827
0.0502152
0.0548121
0.0591996
0.0632967
0.00011683
0.000343998
0.000803066
0.00140545
0.00216228
0.00308706
0.00419656
0.00551084
0.00705333
0.00885056
0.0109327
0.0133334
0.0160894
0.0192376
0.0228066
0.0267968
0.0311568
0.0357844
0.0405587
0.0453697
0.0501267
0.0547527
0.0591742
0.0633105
0.000113324
0.000341941
0.000798642
0.00139768
0.00215027
0.00306986
0.00417317
0.0054802
0.00701413
0.00880143
0.010872
0.0132596
0.0160005
0.0191319
0.0226833
0.026658
0.0310086
0.0356363
0.0404203
0.0452487
0.0500292
0.0546839
0.0591391
0.0633156
0.000109798
0.000339912
0.000794258
0.00138997
0.00213833
0.00305274
0.00414986
0.00544956
0.00697485
0.00875217
0.0108112
0.0131854
0.015911
0.0190254
0.0225587
0.0265171
0.030857
0.0354831
0.0402752
0.04512
0.0499232
0.0546056
0.0590928
0.0633045
0.000106288
0.000337957
0.000790039
0.00138243
0.00212671
0.00303603
0.00412697
0.00541939
0.00693617
0.00870349
0.0107511
0.0131119
0.0158224
0.0189197
0.0224349
0.0263761
0.0307046
0.0353277
0.0401266
0.0449868
0.0498119
0.0545219
0.0590426
0.0632956
0.000102776
0.000336102
0.000786012
0.00137528
0.00211551
0.00301998
0.00410497
0.00539026
0.00689874
0.00865644
0.0106928
0.0130406
0.0157363
0.0188169
0.0223142
0.0262384
0.0305545
0.0351737
0.0399782
0.0448524
0.0496988
0.0544362
0.0589902
0.0632844
9.92837e-05
0.00033437
0.000782278
0.00136862
0.00210507
0.00300484
0.00408428
0.00536287
0.00686343
0.0086118
0.0106374
0.0129729
0.0156543
0.0187189
0.022199
0.0261066
0.0304102
0.0350247
0.0398336
0.0447207
0.0495874
0.054351
0.0589374
0.0632695
9.5821e-05
0.000332792
0.000778831
0.00136248
0.00209546
0.0029909
0.0040651
0.00533747
0.00683062
0.0085703
0.0105857
0.0129096
0.0155777
0.0186273
0.0220912
0.025983
0.0302745
0.0348841
0.0396967
0.0445957
0.0494811
0.0542699
0.0588872
0.0632564
9.23993e-05
0.000331333
0.000775688
0.00135684
0.00208669
0.00297816
0.00404755
0.00531416
0.00680043
0.00853214
0.0105382
0.0128512
0.015507
0.0185427
0.0219917
0.0258691
0.0301494
0.034754
0.0395697
0.0444796
0.0493827
0.0541951
0.0588418
0.0632461
8.89894e-05
0.000330012
0.000772818
0.00135164
0.00207852