/*--------------------------------*- C++ -*----------------------------------*\
| =========                 |                                                 |
| \\      /  F ield         | OpenFOAM: The Open Source CFD Toolbox           |
|  \\    /   O peration     | Version:  2.3.0                                 |
|   \\  /    A nd           | Web:      www.OpenFOAM.org                      |
|    \\/     M anipulation  |                                                 |
\*---------------------------------------------------------------------------*/
FoamFile
{
    version     2.0;
    format      ascii;
    class       volScalarField;
    location    "6000";
    object      p;
}
// * * * * * * * * * * * * * * * * * * * * * * * * * * * * * * * * * * * * * //

dimensions      [0 2 -2 0 0 0 0];

internalField   nonuniform List<scalar> 
14201
(
0.000964669
-1.75336
-3.67475
-5.50426
-7.20576
-8.74603
-10.0985
-11.2418
-12.1587
-12.8437
-13.2735
-13.4263
-13.2437
-12.6475
-11.4703
-9.49399
-6.46745
-2.1747
3.6659
11.8664
23.1741
35.2279
43.9287
62.719
10.8645
10.2794
9.76993
9.47569
9.38001
9.49264
9.83979
10.4616
11.4267
12.8281
14.7872
17.4307
20.9195
25.3926
31.0069
37.9418
46.3402
56.3786
68.1941
81.9298
97.6487
115.321
135.035
156.489
19.8189
20.3354
20.7788
21.498
22.4867
23.7705
25.37
27.3082
29.6126
32.3063
35.4314
39.027
43.1502
47.8509
53.192
59.2381
66.0197
73.5821
81.9358
91.0409
100.821
111.165
121.951
132.983
28.0308
28.8709
29.7963
31.0418
32.5508
34.3405
36.4278
38.8439
41.6258
44.8005
48.4209
52.5181
57.1352
62.3085
68.0666
74.4288
81.4045
88.9777
97.1134
105.735
114.737
123.969
133.235
142.323
34.1518
35.7136
37.079
38.6817
40.5079
42.5795
44.9094
47.5225
50.4341
53.6671
57.2505
61.2097
65.5621
70.3382
75.5479
81.2019
87.3019
93.827
100.75
108.004
115.511
123.163
130.831
138.378
40.1174
41.6498
43.1323
44.8602
46.8013
48.9696
51.3743
54.0398
56.9712
60.1921
63.7247
67.5947
71.8085
76.3882
81.333
86.6539
92.3374
98.366
104.705
111.291
118.064
124.932
131.794
138.536
44.9855
46.5588
48.1151
49.8878
51.8552
54.029
56.4179
59.0362
61.8982
65.0045
68.3922
72.0769
76.0662
80.3802
84.9932
89.9467
95.2103
100.764
106.592
112.624
118.814
125.085
131.356
137.532
49.0242
50.6586
52.2441
54.0301
56.0015
58.1656
60.517
63.0413
65.7801
68.7344
71.9737
75.4905
79.2879
83.4216
87.7813
92.4693
97.3964
102.553
107.982
113.587
119.356
125.187
131.017
136.784
52.4641
54.1232
55.6776
57.3737
59.2522
61.3437
63.6605
66.1728
68.8702
71.6571
74.7305
78.0849
81.7518
85.7145
89.7975
94.2835
98.9537
103.908
109.051
114.339
119.765
125.231
130.793
136.398
56.1679
57.4847
58.6486
59.8949
61.3687
63.0951
65.176
67.8603
71.2751
74.1493
76.5305
80.2241
83.3306
87.6803
90.5854
94.8235
99.8993
104.527
110.283
115.384
120.434
125.654
131.235
137.032
126.388
158.453
177.843
192.436
204.504
214.315
222.132
228.236
232.858
236.203
238.442
239.71
240.129
239.813
238.864
237.379
235.451
233.174
230.628
227.887
225.005
222.018
219.069
216.348
176.269
191.637
203.855
213.675
221.442
227.367
231.667
234.557
236.25
236.95
236.847
236.116
234.911
233.365
231.584
229.647
227.611
225.509
223.357
221.159
218.908
216.586
214.321
212.556
143.929
154.54
164.504
173.604
181.747
188.903
195.083
200.325
204.688
208.24
211.052
213.196
214.741
215.755
216.295
216.416
216.171
215.61
214.774
213.707
212.436
210.976
209.501
208.562
151.062
159.381
167.183
174.35
180.805
186.506
191.459
195.676
199.201
202.086
204.388
206.167
207.485
208.399
208.96
209.215
209.204
208.962
208.516
207.891
207.094
206.123
205.147
204.726
145.726
152.837
159.628
165.99
171.848
177.15
181.886
186.048
189.657
192.742
195.336
197.476
199.206
200.562
201.582
202.301
202.748
202.955
202.948
202.749
202.371
201.821
201.227
201.111
145.093
151.422
157.467
163.143
168.398
173.186
177.492
181.315
184.666
187.568
190.047
192.134
193.865
195.27
196.381
197.226
197.834
198.229
198.436
198.473
198.354
198.089
197.755
197.562
143.554
149.366
154.925
160.154
165.016
169.48
173.514
177.124
180.319
183.124
185.55
187.625
189.379
190.844
192.035
192.982
193.713
194.243
194.612
194.822
194.89
194.832
194.686
194.585
142.439
147.883
153.091
157.962
162.507
166.716
170.534
173.959
177.011
179.727
182.081
184.113
185.856
187.339
188.559
189.543
190.341
190.955
191.432
191.74
191.917
191.987
192.005
192.181
141.75
146.797
151.714
156.342
160.674
164.706
168.315
171.601
174.535
177.166
179.391
181.35
183.081
184.585
185.782
186.721
187.573
188.264
188.796
189.104
189.314
189.458
189.624
190.115
141.978
146.352
150.914
155.423
159.926
163.829
167.015
170.075
172.905
175.489
177.424
179.225
180.934
182.414
183.457
184.216
185.117
185.532
186.19
186.564
186.887
187.142
187.435
188.135
71.4552
71.3914
71.1974
70.9601
70.6974
70.4148
70.117
69.8078
69.4905
69.1683
68.8443
68.5219
68.2042
67.8943
67.5957
67.3132
67.0543
66.8325
66.6721
66.605
66.6628
66.8888
67.4889
69.3567
72.5424
72.2778
71.9693
71.6632
71.3639
71.0745
70.7977
70.5349
70.2853
70.0476
69.8205
69.6038
69.398
69.2054
69.0313
68.8847
68.7808
68.7434
68.8133
69.0655
69.6297
70.707
72.4822
74.8319
73.7828
73.3743
73.1146
72.8583
72.6035
72.3549
72.1142
71.882
71.6578
71.4415
71.2333
71.0353
70.8517
70.6885
70.5554
70.4667
70.4439
70.5244
70.7681
71.2562
72.096
73.4141
75.2755
77.543
74.4566
74.374
74.1767
73.967
73.7505
73.5313
73.3143
73.1037
72.9022
72.7114
72.5327
72.3697
72.2278
72.1145
72.0407
72.0222
72.0851
72.2729
72.6414
73.2591
74.2045
75.5451
77.2754
79.2916
75.6205
75.3573
75.1586
74.9694
74.7774
74.5841
74.3925
74.2068
74.0304
73.8666
73.7172
73.5858
73.4794
73.4073
73.3815
73.4185
73.5472
73.8097
74.2567
74.9454
75.9364
77.2743
78.9378
80.8312
76.294
76.2049
76.0403
75.8776
75.7133
75.5467
75.3798
75.2169
75.0625
74.9226
74.7983
74.691
74.6104
74.5671
74.5741
74.6493
74.8219
75.1311
75.622
76.3448
77.3494
78.6687
80.2901
82.1254
77.1189
77.0007
76.8503
76.7098
76.5673
76.424
76.2776
76.1339
75.9959
75.876
75.7769
75.6869
75.6228
75.5974
75.6269
75.7298
75.9353
76.2811
76.8055
77.5574
78.5773
79.894
81.4957
83.3053
77.9094
77.6666
77.5727
77.4608
77.3336
77.2136
77.0857
76.9623
76.829
76.7233
76.6593
76.5836
76.5295
76.5115
76.554
76.6721
76.8906
77.2513
77.7768
78.5283
79.5223
80.7737
82.2811
84.0298
78.3677
78.3342
78.2606
78.1742
78.0562
77.9583
77.8368
77.7106
77.5528
77.4591
77.4793
77.4072
77.3321
77.2886
77.3367
77.4881
77.746
78.1706
78.7497
79.5997
80.6855
81.9905
83.5458
85.3534
78.1913
78.3208
78.377
78.4918
78.5277
78.5973
78.6637
78.5833
78.1319
77.938
78.3421
78.4209
78.3342
78.1093
77.9318
77.8446
77.8255
78.01
78.2087
78.8498
79.904
80.638
81.1482
82.3203
74.2098
76.6105
78.5035
80.2475
81.9122
83.4705
84.9211
86.2709
87.5329
88.7244
89.8652
90.9753
92.0748
93.1793
94.2973
95.4327
96.5857
97.7542
98.9343
100.123
101.318
102.511
103.694
104.991
77.5565
78.8176
79.7775
80.8076
81.9491
83.1667
84.4362
85.7346
87.0427
88.3465
89.6353
90.9011
92.1393
93.3484
94.5288
95.6835
96.8158
97.9299
99.0294
100.119
101.202
102.271
103.331
104.496
79.8262
81.4316
82.4576
83.3878
84.354
85.368
86.4221
87.5051
88.6067
89.717
90.8283
91.9338
93.0281
94.1074
95.1696
96.2138
97.2405
98.2507
99.2459
100.229
101.203
102.161
103.109
104.152
81.3504
83.0475
84.1047
85.0397
85.9895
86.9618
87.9484
88.9409
89.9328
90.9196
91.8984
92.8676
93.8269
94.7761
95.7152
96.6451
97.5661
98.479
99.3843
100.283
101.177
102.059
102.932
103.874
82.7689
84.3991
85.4111
86.297
87.1927
88.1079
89.0337
89.9615
90.8852
91.8012
92.7074
93.6029
94.487
95.3602
96.2227
97.0751
97.9183
98.7534
99.5811
100.403
101.221
102.031
102.833
103.685
84.0085
85.6101
86.6267
87.483
88.3303
89.1884
90.0522
90.9163
91.7758
92.628
93.4711
94.3039
95.1259
95.9367
96.7361
97.5241
98.3016
99.0697
99.8294
100.581
101.328
102.066
102.801
103.572
85.166
86.7568
87.7691
88.5858
89.3827
90.1852
90.9924
91.799
92.6014
93.3964
94.1823
94.9581
95.7234
96.478
97.2211
97.9515
98.6702
99.3796
100.08
100.77
101.453
102.128
102.798
103.495
85.9707
87.7104
88.7676
89.547
90.2904
91.0442
91.8014
92.5602
93.316
94.0648
94.8037
95.5331
96.2529
96.9629
97.6603
98.3406
99.0081
99.6688
100.319
100.955
101.583
102.204
102.82
103.46
87.4088
89.3129
89.9763
90.4804
91.105
91.7755
92.4888
93.2096
93.9296
94.6419
95.3412
96.0326
96.7163
97.3928
98.0555
98.6899
99.313
99.9382
100.549
101.134
101.712
102.283
102.854
103.452
85.973
90.0503
90.4842
91.0737
91.6626
92.3913
93.084
93.7751
94.468
95.151
95.8103
96.4726
97.1335
97.7955
98.4352
99.0064
99.5815
100.197
100.779
101.283
101.819
102.37
102.938
103.54
-249.161
-233.621
-216.845
-203.103
-188.749
-173.167
-157.611
-142.515
-127.882
-113.787
-100.438
-87.9877
-76.6045
-66.3721
-57.3103
-49.3879
-42.5214
-36.5555
-31.31
-26.625
-22.3616
-18.4073
-14.6673
-11.4582
-147.611
-147.255
-145.593
-143.471
-141.755
-140.211
-138.051
-134.91
-130.737
-125.531
-119.287
-112.053
-103.973
-95.2743
-86.2532
-77.2134
-68.4348
-60.1288
-52.411
-45.3126
-38.7951
-32.8028
-27.2383
-22.5867
-159.003
-158.852
-158.907
-158.687
-157.731
-155.905
-153.379
-150.28
-146.482
-141.827
-136.272
-129.853
-122.595
-114.588
-105.966
-96.9248
-87.7044
-78.5578
-69.6954
-61.2613
-53.3303
-45.9293
-38.9501
-32.9236
-146.152
-146.052
-145.804
-145.433
-144.935
-144.272
-143.384
-142.184
-140.679
-138.801
-136.337
-133.077
-128.837
-123.517
-117.097
-109.669
-101.438
-92.6752
-83.6856
-74.744
-66.0548
-57.7687
-49.8573
-43.0395
-145.451
-145.419
-145.386
-145.302
-145.129
-144.82
-144.309
-143.519
-142.375
-140.832
-138.837
-136.281
-133.047
-129.004
-124.028
-118.042
-111.063
-103.213
-94.7213
-85.8747
-76.9464
-68.1938
-59.6669
-52.2693
-141.292
-141.26
-141.19
-141.075
-140.902
-140.657
-140.315
-139.842
-139.194
-138.314
-137.128
-135.55
-133.453
-130.692
-127.118
-122.593
-117.026
-110.415
-102.867
-94.6013
-85.8906
-77.0467
-68.1607
-60.3727
-139.081
-139.059
-139.026
-138.967
-138.87
-138.72
-138.495
-138.169
-137.705
-137.058
-136.172
-134.982
-133.398
-131.306
-128.571
-125.048
-120.599
-115.127
-108.624
-101.185
-93.0139
-84.4093
-75.4701
-67.4981
-136.441
-136.424
-136.393
-136.339
-136.256
-136.134
-135.96
-135.718
-135.381
-134.919
-134.29
-133.439
-132.291
-130.751
-128.696
-125.982
-122.46
-117.992
-112.493
-105.966
-98.5162
-90.3896
-81.6719
-73.5705
-134.163
-134.15
-134.128
-134.09
-134.031
-133.941
-133.811
-133.628
-133.37
-133.013
-132.525
-131.86
-130.964
-129.762
-128.153
-126.011
-123.192
-119.541
-114.925
-109.277
-102.612
-95.0954
-86.7816
-78.6759
-131.858
-131.848
-131.83
-131.798
-131.749
-131.677
-131.573
-131.428
-131.225
-130.945
-130.562
-130.041
-129.335
-128.385
-127.109
-125.399
-123.124
-120.133
-116.271
-111.422
-105.535
-98.6988
-90.9441
-83.1965
-129.63
-129.622
-129.608
-129.583
-129.545
-129.488
-129.405
-129.289
-129.126
-128.901
-128.591
-128.167
-127.593
-126.818
-125.777
-124.381
-122.516
-120.042
-116.803
-112.653
-107.492
-101.341
-94.1913
-87.0027
-127.403
-127.397
-127.387
-127.368
-127.337
-127.292
-127.225
-127.131
-126.998
-126.814
-126.56
-126.212
-125.738
-125.097
-124.235
-123.076
-121.524
-119.454
-116.721
-113.166
-108.653
-103.137
-96.5301
-89.8018
-125.198
-125.193
-125.185
-125.17
-125.146
-125.109
-125.055
-124.978
-124.869
-124.717
-124.505
-124.214
-123.816
-123.277
-122.55
-121.572
-120.261
-118.509
-116.183
-113.125
-109.177
-104.242
-98.1439
-91.7895
-122.992
-122.988
-122.982
-122.97
-122.951
-122.922
-122.878
-122.814
-122.724
-122.597
-122.419
-122.173
-121.836
-121.377
-120.756
-119.922
-118.801
-117.302
-115.303
-112.661
-109.212
-104.83
-99.2949
-93.4337
-120.788
-120.785
-120.781
-120.772
-120.757
-120.733
-120.697
-120.644
-120.569
-120.462
-120.312
-120.102
-119.813
-119.418
-118.882
-118.162
-117.193
-115.897
-114.167
-111.874
-108.86
-104.99
-100.03
-94.6555
-118.584
-118.58
-118.577
-118.57
-118.558
-118.539
-118.51
-118.466
-118.403
-118.313
-118.185
-118.005
-117.756
-117.413
-116.947
-116.318
-115.474
-114.343
-112.834
-110.83
-108.188
-104.771
-100.354
-95.4644
-116.372
-116.371
-116.369
-116.365
-116.356
-116.341
-116.318
-116.282
-116.229
-116.153
-116.044
-115.889
-115.672
-115.372
-114.964
-114.411
-113.669
-112.674
-111.347
-109.586
-107.259
-104.238
-100.314
-96.0184
-114.168
-114.166
-114.166
-114.163
-114.156
-114.145
-114.126
-114.096
-114.051
-113.986
-113.893
-113.759
-113.569
-113.306
-112.946
-112.457
-111.8
-110.92
-109.746
-108.189
-106.132
-103.457
-99.9698
-96.3547
-111.965
-111.963
-111.963
-111.962
-111.958
-111.949
-111.934
-111.909
-111.872
-111.817
-111.736
-111.62
-111.454
-111.222
-110.902
-110.467
-109.882
-109.097
-108.051
-106.662
-104.824
-102.422
-99.2471
-95.9575
-109.765
-109.764
-109.765
-109.765
-109.762
-109.756
-109.744
-109.724
-109.693
-109.646
-109.577
-109.476
-109.331
-109.126
-108.842
-108.454
-107.93
-107.228
-106.29
-105.047
-103.403
-101.253
-98.394
-95.6611
-107.566
-107.566
-107.567
-107.569
-107.568
-107.564
-107.556
-107.541
-107.516
-107.477
-107.419
-107.332
-107.205
-107.023
-106.77
-106.423
-105.951
-105.319
-104.473
-103.35
-101.86
-99.9048
-97.2881
-94.6592
-105.37
-105.37
-105.373
-105.376
-105.377
-105.376
-105.371
-105.36
-105.341
-105.309
-105.26
-105.186
-105.075
-104.916
-104.69
-104.379
-103.955
-103.384
-102.62
-101.604
-100.257
-98.487
-96.1047
-94.1344
-103.176
-103.176
-103.18
-103.183
-103.186
-103.188
-103.186
-103.179
-103.165
-103.14
-103.1
-103.038
-102.943
-102.803
-102.602
-102.323
-101.939
-101.421
-100.723
-99.7912
-98.5452
-96.8871
-94.6132
-92.4717
-100.978
-100.979
-100.983
-100.988
-100.993
-100.996
-100.998
-100.995
-100.986
-100.968
-100.937
-100.885
-100.805
-100.682
-100.505
-100.254
-99.9073
-99.4354
-98.7983
-97.9443
-96.8013
-95.2719
-93.1505
-91.3504
-98.7745
-98.7755
-98.7804
-98.7868
-98.7935
-98.7996
-98.8039
-98.805
-98.801
-98.7892
-98.7657
-98.7245
-98.6566
-98.5508
-98.3936
-98.1684
-97.8536
-97.4218
-96.8353
-96.0436
-94.9766
-93.5525
-91.5794
-89.2051
-96.5635
-96.5648
-96.5704
-96.578
-96.5863
-96.5945
-96.6017
-96.6065
-96.607
-96.601
-96.5848
-96.553
-96.4971
-96.4063
-96.2679
-96.066
-95.7805
-95.3857
-94.8471
-94.1187
-93.1356
-91.8167
-90.0422
-88.684
-94.3422
-94.3438
-94.3504
-94.3593
-94.3692
-94.3795
-94.3894
-94.3975
-94.4022
-94.4015
-94.3921
-94.3687
-94.3237
-94.2466
-94.125
-93.9441
-93.6847
-93.3226
-92.8257
-92.1506
-91.2375
-90.0068
-88.3094
-86.5547
-92.1131
-92.115
-92.1222
-92.132
-92.1433
-92.1553
-92.1674
-92.1784
-92.1868
-92.1906
-92.187
-92.1713
-92.136
-92.0712
-91.965
-91.8029
-91.5669
-91.2342
-90.7747
-90.1471
-89.2956
-88.1461
-86.5625
-84.7132
-89.8756
-89.8777
-89.8854
-89.8961
-89.9085
-89.922
-89.936
-89.9495
-89.9611
-89.9689
-89.9704
-89.9613
-89.9345
-89.8807
-89.7881
-89.6431
-89.4286
-89.1228
-88.6977
-88.115
-87.3236
-86.2579
-84.8133
-83.0526
-87.6316
-87.6339
-87.6421
-87.6535
-87.6669
-87.6818
-87.6974
-87.713
-87.7272
-87.7385
-87.7444
-87.7409
-87.7217
-87.6776
-87.5973
-87.4676
-87.2724
-86.9911
-86.5979
-86.0567
-85.3208
-84.3309
-83.0028
-81.3259
-85.3837
-85.3862
-85.3948
-85.407
-85.4212
-85.4371
-85.4542
-85.4716
-85.4881
-85.5022
-85.5118
-85.5133
-85.5007
-85.4652
-85.396
-85.2804
-85.103
-84.8446
-84.481
-83.9796
-83.2983
-82.3811
-81.1509
-79.6833
-83.135
-83.1375
-83.1466
-83.1592
-83.1742
-83.191
-83.2092
-83.2281
-83.2466
-83.2634
-83.2763
-83.2821
-83.2753
-83.2477
-83.1888
-83.0862
-82.9253
-82.6881
-82.3523
-81.8876
-81.2557
-80.4087
-79.2737
-77.8191
-80.8879
-80.8906
-80.9
-80.9131
-80.9287
-80.9463
-80.9657
-80.9859
-81.0062
-81.0251
-81.0409
-81.0505
-81.049
-81.0283
-80.9784
-80.8875
-80.7416
-80.5236
-80.2119
-79.7777
-79.1825
-78.3794
-77.3128
-75.8875
-78.6443
-78.6471
-78.6568
-78.6705
-78.6867
-78.7052
-78.7256
-78.7472
-78.7692
-78.7903
-78.8088
-78.8221
-78.8254
-78.8113
-78.7702
-78.6905
-78.559
-78.3595
-78.0722
-77.6709
-77.1219
-76.3851
-75.4103
-74.1764
-76.4063
-76.4093
-76.4193
-76.4334
-76.4504
-76.4697
-76.4912
-76.5142
-76.5379
-76.5613
-76.5826
-76.5995
-76.6075
-76.5999
-76.5671
-76.4984
-76.3808
-76.1992
-75.9352
-75.5652
-75.0583
-74.3765
-73.487
-72.5117
-74.1741
-74.1773
-74.1877
-74.2023
-74.2199
-74.2402
-74.2629
-74.2873
-74.3129
-74.3385
-74.3627
-74.3833
-74.3962
-74.3948
-74.3703
-74.3119
-74.2075
-74.0423
-73.7988
-73.4544
-72.9794
-72.3355
-71.473
-70.3593
-71.9482
-71.9515
-71.9623
-71.9775
-71.9958
-72.0171
-72.0409
-72.0669
-72.0944
-72.1224
-72.1496
-72.1739
-72.1916
-72.1967
-72.1804
-72.1325
-72.0412
-71.8926
-71.67
-71.3527
-70.9135
-70.313
-69.498
-68.6425
-69.7283
-69.7317
-69.7428
-69.7586
-69.7776
-69.7997
-69.8247
-69.8522
-69.8815
-69.9117
-69.9418
-69.9696
-69.992
-70.003
-69.9943
-69.9559
-69.8759
-69.741
-69.5343
-69.2345
-68.8113
-68.2246
-67.4244
-66.3368
-67.5146
-67.5181
-67.5295
-67.5457
-67.5654
-67.5884
-67.6144
-67.6432
-67.6741
-67.7065
-67.7391
-67.7703
-67.7969
-67.8134
-67.8119
-67.7825
-67.7138
-67.5926
-67.4029
-67.1248
-66.7315
-66.188
-65.4365
-64.4738
-65.3078
-65.3114
-65.3231
-65.3397
-65.3599
-65.3835
-65.4105
-65.4403
-65.4727
-65.5068
-65.5416
-65.5756
-65.6057
-65.6269
-65.6315
-65.6096
-65.5501
-65.4399
-65.2632
-64.9996
-64.6217
-64.0959
-63.3457
-62.0492
-63.1088
-63.1124
-63.1244
-63.1414
-63.1621
-63.1863
-63.214
-63.2449
-63.2785
-63.3141
-63.3509
-63.3873
-63.4206
-63.446
-63.4562
-63.4415
-63.3911
-63.2925
-63.1306
-62.887
-62.5368
-62.0482
-61.39
-60.7319
-60.9194
-60.9231
-60.9353
-60.9527
-60.9737
-60.9985
-61.0269
-61.0586
-61.0932
-61.1302
-61.1687
-61.2072
-61.2433
-61.2725
-61.2877
-61.2794
-61.2369
-61.1482
-60.9988
-60.7708
-60.4419
-59.9997
-59.4293
-58.3525
-58.741
-58.7448
-58.7572
-58.7748
-58.7962
-58.8214
-58.8505
-58.883
-58.9187
-58.9571
-58.9972
-59.0379
-59.0769
-59.11
-59.1304
-59.1291
-59.096
-59.0194
-58.8863
-58.6826
-58.3917
-57.9976
-57.4838
-57.0822
-56.5744
-56.5783
-56.5909
-56.6087
-56.6305
-56.6561
-56.6857
-56.719
-56.7556
-56.7951
-56.8367
-56.8792
-56.9206
-56.957
-56.9817
-56.986
-56.9595
-56.8905
-56.7655
-56.5678
-56.2739
-55.8507
-55.2396
-54.3169
-54.4213
-54.4252
-54.4379
-54.456
-54.478
-54.5041
-54.5341
-54.568
-54.6055
-54.646
-54.6891
-54.7335
-54.7773
-54.8168
-54.8459
-54.8561
-54.8372
-54.7779
-54.6652
-54.4844
-54.2157
-53.8254
-53.2552
-52.7245
-52.2826
-52.2865
-52.2994
-52.3176
-52.3398
-52.3662
-52.3966
-52.431
-52.4692
-52.5107
-52.5549
-52.6007
-52.6465
-52.6887
-52.7216
-52.7367
-52.7241
-52.6725
-52.569
-52.398
-52.1411
-51.7841
-51.2776
-50.1524
-50.1596
-50.1635
-50.1765
-50.1949
-50.2174
-50.244
-50.2747
-50.3097
-50.3485
-50.3908
-50.4361
-50.4835
-50.5313
-50.5764
-50.6133
-50.6339
-50.6285
-50.5865
-50.496
-50.3441
-50.1146
-49.79
-49.3659
-49.1312
-48.054
-48.0579
-48.071
-48.0894
-48.112
-48.1387
-48.1697
-48.2048
-48.2441
-48.287
-48.3331
-48.3816
-48.4309
-48.4781
-48.5179
-48.5426
-48.5425
-48.5066
-48.4227
-48.276
-48.0461
-47.7107
-47.2526
-46.5245
-45.9674
-45.9712
-45.9842
-46.0026
-46.0251
-46.0518
-46.0828
-46.1182
-46.1577
-46.201
-46.2478
-46.2972
-46.3478
-46.397
-46.4399
-46.4687
-46.4743
-46.4458
-46.3718
-46.2389
-46.0301
-45.7212
-45.2812
-44.807
-43.8994
-43.9034
-43.9165
-43.935
-43.9576
-43.9843
-44.0155
-44.0509
-44.0906
-44.1342
-44.1814
-44.2315
-44.2831
-44.3339
-44.3791
-44.4115
-44.4219
-44.3999
-44.3338
-44.2109
-44.0144
-43.7178
-43.2828
-42.7841
-41.8544
-41.8582
-41.8713
-41.8896
-41.9121
-41.9388
-41.9698
-42.0052
-42.0448
-42.0885
-42.1359
-42.1863
-42.2387
-42.2906
-42.3378
-42.3733
-42.388
-42.3718
-42.3129
-42.1985
-42.012
-41.7335
-41.3149
-40.5618
-39.8318
-39.8357
-39.8487
-39.867
-39.8894
-39.9159
-39.9469
-39.9821
-40.0217
-40.0655
-40.113
-40.1638
-40.2169
-40.27
-40.3192
-40.3578
-40.3772
-40.3677
-40.3187
-40.2185
-40.0526
-39.8037
-39.4706
-39.2106
-37.8343
-37.838
-37.8508
-37.8688
-37.8909
-37.9172
-37.9479
-37.9829
-38.0223
-38.066
-38.1136
-38.1646
-38.2181
-38.272
-38.3227
-38.364
-38.3876
-38.3836
-38.3412
-38.249
-38.092
-37.8537
-37.5137
-36.9944
-35.859
-35.8627
-35.8757
-35.8937
-35.9158
-35.9421
-35.9727
-36.0077
-36.0472
-36.091
-36.1387
-36.1899
-36.2438
-36.2988
-36.3512
-36.3949
-36.4223
-36.4237
-36.3888
-36.3067
-36.1639
-35.9455
-35.6299
-35.1505
-33.909
-33.9128
-33.9258
-33.9439
-33.9658
-33.992
-34.0226
-34.0577
-34.0971
-34.1408
-34.1887
-34.2402
-34.2947
-34.3503
-34.404
-34.4501
-34.4809
-34.4873
-34.459
-34.3855
-34.2538
-34.048
-33.7474
-33.3141
-31.9846
-31.9884
-32.0013
-32.0192
-32.0411
-32.0671
-32.0976
-32.1326
-32.172
-32.2157
-32.2637
-32.3156
-32.3705
-32.427
-32.4821
-32.5306
-32.5648
-32.5761
-32.5547
-32.4903
-32.371
-32.1826
-31.9026
-31.5005
-30.0849
-30.0887
-30.1014
-30.1192
-30.141
-30.167
-30.1973
-30.2322
-30.2715
-30.3154
-30.3635
-30.4157
-30.4711
-30.5285
-30.585
-30.6356
-30.6732
-30.6891
-30.674
-30.6177
-30.5088
-30.3309
-30.0534
-29.6584
-28.2092
-28.2128
-28.2253
-28.2429
-28.2647
-28.2906
-28.3209
-28.3556
-28.395
-28.439
-28.4875
-28.5399
-28.5959
-28.6541
-28.7121
-28.765
-28.8062
-28.8267
-28.8174
-28.7687
-28.6695
-28.5021
-28.2292
-27.8577
-26.3556
-26.3594
-26.372
-26.3896
-26.4113
-26.4373
-26.4676
-26.5024
-26.5419
-26.5861
-26.6347
-26.6875
-26.7441
-26.8033
-26.8626
-26.9175
-26.9614
-26.9858
-26.9816
-26.9392
-26.8464
-26.6857
-26.4253
-26.0613
-24.5262
-24.53
-24.5427
-24.5604
-24.582
-24.6078
-24.6381
-24.6729
-24.7123
-24.7563
-24.805
-24.8582
-24.9151
-24.9749
-25.0353
-25.0921
-25.1387
-25.1672
-25.1684
-25.1325
-25.0481
-24.9017
-24.6729
-24.3226
-22.721
-22.7247
-22.7373
-22.7548
-22.7763
-22.8019
-22.8319
-22.8665
-22.9058
-22.9497
-22.9983
-23.0514
-23.1085
-23.1687
-23.2299
-23.288
-23.3367
-23.3682
-23.3734
-23.342
-23.2626
-23.1204
-22.8947
-22.5198
-20.9397
-20.9434
-20.9559
-20.9731
-20.9944
-21.0198
-21.0496
-21.0839
-21.1228
-21.1666
-21.215
-21.268
-21.3251
-21.3856
-21.4474
-21.5068
-21.5578
-21.5928
-21.6032
-21.58
-21.5133
-21.3882
-21.1782
-20.9398
-19.1824
-19.1859
-19.1982
-19.2152
-19.2362
-19.2613
-19.2908
-19.3248
-19.3635
-19.407
-19.4553
-19.508
-19.565
-19.6255
-19.6876
-19.748
-19.8008
-19.8384
-19.8522
-19.8332
-19.7705
-19.6518
-19.462
-19.1443
-17.4475
-17.4511
-17.4634
-17.4805
-17.5013
-17.5263
-17.5557
-17.5896
-17.6282
-17.6715
-17.7196
-17.7722
-17.8292
-17.8899
-17.9525
-18.0138
-18.0683
-18.1087
-18.127
-18.1147
-18.0625
-17.9612
-17.7993
-17.525
-15.737
-15.7405
-15.7529
-15.77
-15.7907
-15.8156
-15.8449
-15.8786
-15.917
-15.9601
-16.008
-16.0606
-16.1176
-16.1784
-16.2414
-16.3035
-16.3597
-16.4029
-16.4254
-16.4189
-16.3749
-16.2847
-16.1365
-15.8801
-14.0503
-14.0539
-14.0662
-14.083
-14.1037
-14.1285
-14.1576
-14.1912
-14.2294
-14.2724
-14.3202
-14.3727
-14.4298
-14.4907
-14.5541
-14.617
-14.6745
-14.72
-14.7459
-14.7438
-14.7047
-14.6167
-14.467
-14.2452
-12.3869
-12.3904
-12.4025
-12.4192
-12.4397
-12.4643
-12.4932
-12.5266
-12.5647
-12.6077
-12.6554
-12.7081
-12.7653
-12.8265
-12.8905
-12.9546
-13.0141
-13.0623
-13.0924
-13.097
-13.0687
-12.9973
-12.8645
-12.7226
-10.7456
-10.7489
-10.7609
-10.7773
-10.7976
-10.8221
-10.8508
-10.8841
-10.9222
-10.9651
-11.0128
-11.0653
-11.1226
-11.184
-11.2485
-11.3132
-11.3737
-11.4234
-11.455
-11.46
-11.4289
-11.3503
-11.2097
-10.9278
-9.12415
-9.12773
-9.13993
-9.15653
-9.17676
-9.20114
-9.22986
-9.2632
-9.30123
-9.34398
-9.39168
-9.44432
-9.50179
-9.5636
-9.62855
-9.69419
-9.75624
-9.80844
-9.84355
-9.85449
-9.83358
-9.77047
-9.64651
-9.49798
-7.52752
-7.53076
-7.54281
-7.55911
-7.57917
-7.60314
-7.63158
-7.66453
-7.70214
-7.74451
-7.79194
-7.84438
-7.90161
-7.96323
-8.02817
-8.09413
-8.15669
-8.20976
-8.24579
-8.25588
-8.23023
-8.15624
-8.01577
-7.71226
-5.95296
-5.95612
-5.96796
-5.984
-6.00378
-6.0275
-6.05546
-6.08795
-6.12508
-6.16709
-6.21404
-6.26608
-6.32304
-6.38451
-6.44956
-6.51601
-6.57974
-6.63491
-6.67458
-6.69115
-6.67754
-6.62285
-6.50456
-6.38131
-4.40224
-4.40525
-4.41676
-4.43246
-4.45182
-4.47506
-4.5025
-4.53433
-4.57078
-4.61216
-4.65852
-4.70981
-4.76601
-4.82686
-4.89146
-4.95775
-5.02182
-5.07765
-5.11788
-5.1341
-5.1169
-5.05491
-4.92846
-4.63456
-2.87448
-2.87747
-2.88898
-2.90439
-2.9234
-2.94626
-2.97317
-3.00442
-3.04031
-3.08097
-3.12652
-3.177
-3.23252
-3.29276
-3.35682
-3.42278
-3.48725
-3.54445
-3.58737
-3.60865
-3.60036
-3.5527
-3.44647
-3.25991
-1.37223
-1.37527
-1.38657
-1.4018
-1.42032
-1.44267
-1.46914
-1.4998
-1.53488
-1.57457
-1.61916
-1.66879
-1.72337
-1.78263
-1.84591
-1.91152
-1.97609
-2.03431
-2.07964
-2.10475
-2.10241
-2.06269
-1.9651
-1.80059
0.104561
0.101619
0.0905101
0.0756489
0.0574118
0.0356282
0.00975289
-0.0202865
-0.0545927
-0.0934513
-0.137191
-0.185894
-0.239464
-0.297798
-0.360246
-0.425254
-0.489668
-0.548653
-0.595918
-0.62416
-0.626556
-0.593256
-0.506229
-0.344884
1.55664
1.55369
1.5428
1.52818
1.51022
1.48873
1.46339
1.43394
1.40026
1.36204
1.31915
1.27134
1.21863
1.16121
1.09956
1.03507
0.970678
0.910816
0.861154
0.828198
0.817965
0.837158
0.898479
1.02692
2.98512
2.98226
2.9715
2.95711
2.93942
2.91816
2.8931
2.86407
2.83081
2.79302
2.75058
2.70344
2.65148
2.59474
2.53372
2.46968
2.40519
2.3446
2.29332
2.25719
2.24172
2.25295
2.3027
2.41469
4.39278
4.38983
4.37899
4.36456
4.34691
4.32563
4.30062
4.27163
4.23841
4.20079
4.15862
4.11179
4.06012
4.00371
3.94309
3.87941
3.81514
3.7543
3.702
3.66366
3.64499
3.65285
3.70139
3.82445
5.78027
5.7773
5.76635
5.7518
5.73404
5.71273
5.68756
5.65843
5.62512
5.58751
5.5453
5.49833
5.44661
5.39026
5.32969
5.26593
5.20137
5.13969
5.08566
5.04437
5.02005
5.01846
5.05628
5.12149
7.15007
7.14708
7.13607
7.1215
7.10355
7.08205
7.05673
7.02734
6.99379
6.95579
6.91324
6.86599
6.814
6.75735
6.69646
6.63251
6.56779
6.50594
6.45177
6.41089
6.38814
6.38874
6.4186
6.51584
8.50428
8.50132
8.49028
8.47562
8.45755
8.43586
8.41027
8.38062
8.34669
8.30824
8.26522
8.21743
8.1648
8.10755
8.04601
7.98126
7.91567
7.85277
7.79716
7.75386
7.72684
7.72184
7.75373
7.76223
9.8443
9.84146
9.83038
9.81573
9.79765
9.77583
9.7501
9.72024
9.68604
9.64722
9.6037
9.55549
9.50249
9.44478
9.38282
9.31776
9.25198
9.18967
9.13661
9.0998
9.08837
9.11736
9.21642
9.44175
11.1711
11.1682
11.157
11.1423
11.1242
11.1023
11.0765
11.0465
11.012
10.973
10.9293
10.8808
10.8274
10.7692
10.7067
10.6412
10.5749
10.512
10.4584
10.4208
10.4076
10.43
10.5103
10.6846
12.4824
12.4796
12.4684
12.4537
12.4357
12.414
12.3883
12.3584
12.3241
12.2852
12.2416
12.193
12.1395
12.0813
12.0187
11.9529
11.8861
11.8225
11.768
11.7295
11.7147
11.7339
11.8046
11.9443
13.777
13.7742
13.7632
13.7487
13.7309
13.7095
13.6841
13.6545
13.6206
13.582
13.5387
13.4904
13.4371
13.379
13.3164
13.2504
13.1833
13.1188
13.0628
13.0219
13.0033
13.0153
13.0705
13.1916
15.0532
15.0505
15.0397
15.0255
15.0081
14.987
14.9621
14.9331
14.8997
14.8617
14.8189
14.7711
14.7183
14.6607
14.5984
14.5323
14.4647
14.3994
14.3418
14.2982
14.2755
14.2815
14.3293
14.4299
16.3098
16.3072
16.2967
16.2829
16.2659
16.2453
16.2209
16.1925
16.1597
16.1223
16.0802
16.0331
15.981
15.9238
15.8618
15.7961
15.7282
15.6619
15.6022
15.5552
15.5269
15.5232
15.5546
15.6506
17.547
17.5441
17.5336
17.52
17.5034
17.4833
17.4594
17.4314
17.3993
17.3627
17.3214
17.2751
17.2238
17.1674
17.1062
17.0409
16.9733
16.9067
16.8463
16.7979
16.769
16.7681
16.8061
16.9138
18.7608
18.7581
18.7479
18.7347
18.7184
18.6989
18.6756
18.6484
18.6171
18.5815
18.541
18.4957
18.4453
18.3898
18.3293
18.2645
18.197
18.1295
18.0667
18.0138
17.9757
17.9573
17.9697
18.004
19.9532
19.9504
19.9405
19.9276
19.9118
19.8927
19.8701
19.8436
19.8131
19.7782
19.7388
19.6945
19.6451
19.5907
19.5312
19.4674
19.4006
19.3335
19.2704
19.2172
19.1795
19.1611
19.172
19.3774
21.1235
21.1206
21.111
21.0985
21.0831
21.0645
21.0424
21.0166
20.9869
20.9528
20.9142
20.8708
20.8225
20.7692
20.7107
20.6476
20.5811
20.5138
20.4493
20.392
20.3469
20.3197
20.3075
20.1811
22.2735
22.2705
22.2609
22.2487
22.2335
22.2152
22.1936
22.1683
22.1391
22.1057
22.0679
22.0255
21.9781
21.9256
21.8682
21.8062
21.7407
21.674
21.6098
21.5523
21.5059
21.4698
21.4439
21.5967
23.4029
23.3997
23.3904
23.3782
23.3634
23.3455
23.3241
23.2992
23.2705
23.2377
23.2006
23.1588
23.1122
23.0607
23.0042
22.943
22.8782
22.8119
22.7472
22.6879
22.6369
22.5971
22.5816
22.5789
24.5135
24.5102
24.501
24.4891
24.4744
24.4567
24.4357
24.4111
24.3829
24.3506
24.314
24.2728
24.2269
24.1761
24.1204
24.0601
23.9964
23.931
23.8673
23.8094
23.7611
23.729
23.7376
23.8028
25.6066
25.6031
25.5941
25.5823
25.5678
25.5503
25.5296
25.5054
25.4775
25.4455
25.4094
25.3688
25.3235
25.2734
25.2185
25.1592
25.0965
25.0323
24.9703
24.9153
24.8731
24.8511
24.8596
24.9602
26.6831
26.6796
26.6707
26.6591
26.6448
26.6275
26.607
26.5831
26.5555
26.5239
26.4882
26.4481
26.4033
26.3538
26.2996
26.2409
26.1786
26.1149
26.0531
25.9972
25.9522
25.922
25.9106
25.9492
27.7445
27.7407
27.7319
27.7204
27.7063
27.6892
27.6689
27.6452
27.6178
27.5865
27.5511
27.5114
27.4671
27.4181
27.3644
27.3064
27.2448
27.1817
27.1203
27.0642
27.0182
26.9869
26.9822
27.023
28.7902
28.7864
28.7777
28.7663
28.7523
28.7354
28.7153
28.6918
28.6647
28.6339
28.5989
28.5595
28.5157
28.4672
28.4141
28.3566
28.2956
28.2329
28.1717
28.1162
28.0711
28.0412
28.0391
28.1086
29.821
29.8171
29.8085
29.7973
29.7835
29.7667
29.7469
29.7237
29.697
29.6664
29.6318
29.5929
29.5495
29.5015
29.4489
29.3919
29.3315
29.2694
29.2087
29.1541
29.1108
29.0846
29.0824
29.1482
30.8371
30.8332
30.8247
30.8137
30.8
30.7835
30.7639
30.741
30.7146
30.6844
30.6502
30.6117
30.5688
30.5213
30.4692
30.4126
30.3525
30.2905
30.2293
30.1729
30.1256
30.093
30.0852
30.1022
31.8389
31.8349
31.8266
31.8157
31.8023
31.7859
31.7666
31.744
31.7179
31.688
31.6542
31.6162
31.5737
31.5267
31.475
31.4189
31.3592
31.2974
31.2365
31.18
31.1324
31.0999
31.0895
31.0778
32.8269
32.8228
32.8146
32.8038
32.7906
32.7744
32.7553
32.7328
32.707
32.6775
32.644
32.6064
32.5644
32.5178
32.4666
32.411
32.3517
32.2903
32.2295
32.1726
32.1239
32.0879
32.0767
32.1326
33.8009
33.7968
33.7886
33.7779
33.7648
33.7489
33.7299
33.7077
33.6822
33.6531
33.62
33.5827
33.5411
33.495
33.4443
33.3892
33.3304
33.2693
33.2085
33.1519
33.1033
33.0689
33.0633
33.1005
34.7614
34.7573
34.7491
34.7386
34.7255
34.7098
34.691
34.6691
34.6439
34.615
34.5823
34.5454
34.5042
34.4586
34.4083
34.3537
34.2955
34.2348
34.1743
34.1177
34.0692
34.0342
34.024
34.0814