/*--------------------------------*- C++ -*----------------------------------*\
| =========                 |                                                 |
| \\      /  F ield         | OpenFOAM: The Open Source CFD Toolbox           |
|  \\    /   O peration     | Version:  2.3.0                                 |
|   \\  /    A nd           | Web:      www.OpenFOAM.org                      |
|    \\/     M anipulation  |                                                 |
\*---------------------------------------------------------------------------*/
FoamFile
{
    version     2.0;
    format      ascii;
    class       surfaceScalarField;
    location    "6000";
    object      phi;
}
// * * * * * * * * * * * * * * * * * * * * * * * * * * * * * * * * * * * * * //

dimensions      [0 3 -1 0 0 0 0];

internalField   nonuniform List<scalar> 
28212
(
-0.0093768
-0.0132071
0.0146807
0.0079032
-0.0106638
-0.012107
0.013394
-0.0117811
-0.0110995
0.0122168
-0.012748
-0.010172
0.0111388
-0.0135782
-0.00931958
0.0101498
-0.0142893
-0.008535
0.00924615
-0.0148931
-0.00781305
0.00841686
-0.0153993
-0.00714942
0.00765563
-0.015817
-0.0065373
0.00695497
-0.016147
-0.00597435
0.00630439
-0.0163916
-0.00545206
0.0056966
-0.0165466
-0.00496961
0.00512465
-0.0166109
-0.00452036
0.00458464
-0.0165803
-0.00410064
0.00407009
-0.016457
-0.00370848
0.00358514
-0.0162439
-0.00333648
0.00312334
-0.0159437
-0.00298925
0.00268915
-0.0155684
-0.00265703
0.00228166
-0.0151248
-0.00234587
0.00190228
-0.0146262
-0.00204847
0.00154989
-0.014082
-0.00176821
0.001224
-0.0134979
-0.00150495
0.000920831
-0.0129031
-0.00125927
0.000664483
-0.00103292
-0.0124186
0.000548457
-0.00839578
-0.011923
0.00711163
-0.00950539
-0.0109974
-0.010456
-0.0101488
-0.0112595
-0.00936852
-0.0119316
-0.00864749
-0.0124821
-0.00798449
-0.0129233
-0.00737189
-0.0132655
-0.00680716
-0.0135179
-0.00628489
-0.013691
-0.00580127
-0.0137902
-0.00535285
-0.0138218
-0.00493808
-0.0137925
-0.00454959
-0.0137031
-0.00419008
-0.0135577
-0.00385391
-0.013356
-0.00353809
-0.0130989
-0.00324635
-0.0127829
-0.0029731
-0.0124111
-0.00271769
-0.0119769
-0.00248261
-0.0114789
-0.00226619
-0.0109158
-0.00206811
-0.0102842
-0.00189084
-0.00173421
-0.00958291
-0.00751529
-0.0108037
0.00639597
-0.00847852
-0.0100341
-0.00929655
-0.00933082
-0.00998467
-0.0086804
-0.0105499
-0.00808223
-0.0110063
-0.00752813
-0.01136
-0.00701813
-0.0116215
-0.0065457
-0.0117986
-0.00610783
-0.011896
-0.00570386
-0.0119224
-0.00532641
-0.0118847
-0.00497581
-0.0117843
-0.00464997
-0.0116294
-0.00434495
-0.0114233
-0.00406003
-0.0111687
-0.0037927
-0.0108714
-0.00354369
-0.0105349
-0.00330953
-0.0101613
-0.00309132
-0.00975448
-0.00288942
-0.0093178
-0.00270287
-0.00885362
-0.00253228
-0.00836534
-0.00237913
-0.00224179
-0.00785776
-0.00672511
-0.00981455
0.00573598
-0.00756507
-0.00919418
-0.00827771
-0.00861818
-0.00887038
-0.00808773
-0.00935436
-0.00759824
-0.00973767
-0.00714483
-0.0100308
-0.00672498
-0.010241
-0.00633556
-0.010376
-0.0059728
-0.0104417
-0.00563814
-0.0104443
-0.00532378
-0.0103884
-0.00503169
-0.0102808
-0.00475763
-0.0101248
-0.00450096
-0.00992465
-0.00426016
-0.00968238
-0.00403498
-0.00940484
-0.00382122
-0.00909186
-0.00362251
-0.00874797
-0.00343521
-0.00837608
-0.00326131
-0.00797918
-0.00309977
-0.00756082
-0.00295064
-0.00712309
-0.00281686
-0.00269498
-0.0066699
-0.00602235
-0.00894928
0.00515708
-0.00676174
-0.00845479
-0.00738425
-0.00799567
-0.00790038
-0.0075716
-0.00831915
-0.00717947
-0.00864901
-0.00681497
-0.00889662
-0.00647738
-0.00907133
-0.00616085
-0.00917626
-0.00586788
-0.00922164
-0.00559275
-0.00920888
-0.00533655
-0.00914689
-0.00509368
-0.0090359
-0.00486862
-0.00888371
-0.00465315
-0.00869238
-0.00445149
-0.00846664
-0.00426072
-0.00820785
-0.00408001
-0.00792124
-0.00390912
-0.00760922
-0.00374723
-0.00727348
-0.00359705
-0.00691694
-0.00345631
-0.00654229
-0.0033253
-0.00615463
-0.00320452
-0.00309619
-0.00575342
-0.0053909
-0.0081833
0.00462492
-0.00604828
-0.00779742
-0.00659821
-0.00744574
-0.00705297
-0.00711683
-0.00742039
-0.00681205
-0.00770718
-0.00652817
-0.00792152
-0.00626304
-0.00806923
-0.00601314
-0.0081568
-0.0057803
-0.00818887
-0.00556069
-0.00817194
-0.00535347
-0.00810792
-0.0051577
-0.00800394
-0.0049726
-0.00786062
-0.00479647
-0.00768382
-0.00462829
-0.00747585
-0.00446869
-0.0072398
-0.00431606
-0.00697907
-0.00416985
-0.00669461
-0.0040317
-0.00638961
-0.00390205
-0.00606858
-0.00377733
-0.00573178
-0.00366211
-0.0053805
-0.00355579
-0.00345835
-0.00501834
-0.0048379
-0.00749608
0.00415068
-0.00541818
-0.00721713
-0.00590761
-0.00695631
-0.00630989
-0.00671455
-0.00663391
-0.00648803
-0.00688655
-0.00627553
-0.00707464
-0.00607494
-0.00720156
-0.00588622
-0.00727589
-0.00570598
-0.00730015
-0.00553642
-0.00728072
-0.0053729
-0.00721901
-0.00521941
-0.00712136
-0.00507025
-0.00698956
-0.00492828
-0.00682737
-0.00479048
-0.00663764
-0.00465842
-0.00642344
-0.00453027
-0.00618586
-0.00440742
-0.00592802
-0.00428954
-0.0056537
-0.00417637
-0.00536138
-0.00406965
-0.00505601
-0.00396747
-0.00473977
-0.00387203
-0.00378466
-0.00441346
-0.00434193
-0.00688504
0.00373088
-0.0048614
-0.00669767
-0.00529692
-0.00652079
-0.00565629
-0.00635518
-0.00594562
-0.0061987
-0.00616952
-0.00605164
-0.00633466
-0.0059098
-0.0064468
-0.00577408
-0.00650928
-0.0056435
-0.00652922
-0.00551649
-0.0065087
-0.00539341
-0.00645178
-0.00527632
-0.00636153
-0.00516051
-0.00624057
-0.00504924
-0.00609242
-0.00493863
-0.00591974
-0.0048311
-0.0057242
-0.00472581
-0.00550852
-0.0046231
-0.00527499
-0.00452306
-0.00502536
-0.004426
-0.00476203
-0.00433299
-0.00448642
-0.00424308
-0.00419801
-0.00416044
-0.00408135
-0.00390132
-0.00390298
-0.0063381
0.00335604
-0.0043676
-0.00623304
-0.00475731
-0.00613108
-0.00507884
-0.00603364
-0.00533729
-0.00594025
-0.0055379
-0.00585103
-0.00568513
-0.00576258
-0.0057839
-0.00567531
-0.00583885
-0.00558855
-0.00585442
-0.00550092
-0.00583412
-0.00541372
-0.00578189
-0.00532855
-0.00569858
-0.00524381
-0.0055877
-0.00516012
-0.0054531
-0.00507323
-0.00529519
-0.00498901
-0.00511762
-0.00490339
-0.00492318
-0.00481754
-0.00471196
-0.00473428
-0.00448492
-0.00465304
-0.00424603
-0.00457187
-0.00399508
-0.00449404
-0.00373533
-0.00442018
-0.00435047
-0.00346621
-0.00351128
0.00302246
-0.00584928
-0.0039287
-0.00581562
-0.00427874
-0.00578105
-0.00456681
-0.00574557
-0.00479891
-0.00570816
-0.00497939
-0.00567055
-0.00511119
-0.00563077
-0.00519994
-0.00558656
-0.00524767
-0.00554082
-0.00525948
-0.0054891
-0.00524172
-0.00543148
-0.00519133
-0.00537895
-0.00511746
-0.00531768
-0.00501456
-0.00526302
-0.00489292
-0.00519487
-0.00475086
-0.00513107
-0.00458745
-0.00506679
-0.00441166
-0.00499333
-0.00421849
-0.00492745
-0.00401414
-0.0048574
-0.00379719
-0.00478881
-0.00356939
-0.00472184
-0.00333404
-0.00465554
-0.00308898
-0.00459553
-0.0110736
-0.00091851
-0.000426503
-0.0100143
-0.00093876
-0.000120486
-0.00907832
-0.000991456
5.5444e-05
-0.00822077
-0.00107022
0.000212678
-0.00742347
-0.00116756
0.000370259
-0.00667587
-0.00128513
0.000537537
-0.00597396
-0.00142053
0.000718624
-0.00531712
-0.00157443
0.000917591
-0.00470406
-0.00174954
0.00113648
-0.00413775
-0.00194416
0.00137785
-0.0036212
-0.00216105
0.0016445
-0.00315786
-0.00240095
0.00193762
-0.00275132
-0.00266587
0.00225933
-0.00240705
-0.00295707
0.0026128
-0.00212854
-0.00327831
0.00299979
-0.00192155
-0.00363075
0.00342377
-0.00179035
-0.00401881
0.00388761
-0.00174118
-0.00444521
0.00439604
-0.00178014
-0.00491455
0.0049535
-0.00191409
-0.00543087
0.00556483
-0.00215204
-0.00599928
0.00623723
-0.00250391
-0.00662483
0.00697671
-0.00298117
-0.00731333
0.00779058
-0.00807454
0.00868639
-0.00359301
-0.00883839
-0.00166303
-0.00810805
-0.0016691
-0.00740491
-0.00169459
-0.00673686
-0.00173827
-0.00610327
-0.00180114
-0.00550779
-0.00188061
-0.00494912
-0.0019792
-0.00442825
-0.0020953
-0.00394751
-0.00223029
-0.00350643
-0.00238523
-0.00310776
-0.00255972
-0.00275332
-0.00275539
-0.00244492
-0.00297427
-0.00218439
-0.0032176
-0.00197711
-0.00348558
-0.00182624
-0.00378162
-0.00173644
-0.00410862
-0.00171348
-0.00446816
-0.00176504
-0.00486299
-0.00189883
-0.00529708
-0.00212363
-0.00577448
-0.00244961
-0.00629885
-0.00288717
-0.00687577
-0.00751094
-0.00345077
-0.00734096
-0.00217983
-0.00682256
-0.0021875
-0.00630899
-0.00220816
-0.00580523
-0.00224203
-0.00531663
-0.00228974
-0.00484434
-0.0023529
-0.00439316
-0.00243038
-0.00396442
-0.00252404
-0.00356152
-0.00263319
-0.003187
-0.00275975
-0.00284388
-0.00290283
-0.00253584
-0.00306343
-0.00226515
-0.00324496
-0.00203793
-0.00344483
-0.00185674
-0.00366677
-0.00172599
-0.00391236
-0.00165218
-0.00418243
-0.00164052
-0.00447982
-0.00169696
-0.00480655
-0.00182803
-0.00516601
-0.00204135
-0.00556115
-0.0023459
-0.0059943
-0.00275118
-0.00647049
-0.00699536
-0.00326676
-0.00621321
-0.00263653
-0.00576268
-0.00263803
-0.00532213
-0.00264871
-0.00489393
-0.00267022
-0.00448051
-0.00270316
-0.00408237
-0.00275104
-0.00370377
-0.00280897
-0.00334587
-0.00288194
-0.00300983
-0.00296923
-0.00270049
-0.00306909
-0.00241899
-0.00318434
-0.00216753
-0.0033149
-0.00195097
-0.00346152
-0.00177125
-0.00362455
-0.00163172
-0.00380629
-0.00153791
-0.00400618
-0.00149387
-0.00422647
-0.00150374
-0.00446995
-0.00157338
-0.00473691
-0.00170927
-0.00503012
-0.00191883
-0.00535159
-0.00220848
-0.00570465
-0.0025871
-0.00609188
-0.00651776
-0.0030647
-0.00535127
-0.00303867
-0.00495821
-0.00303109
-0.0045754
-0.00303152
-0.00420393
-0.00304169
-0.00384613
-0.00306096
-0.00350393
-0.00309325
-0.00317735
-0.00313555
-0.00286945
-0.00318984
-0.00258308
-0.0032556
-0.002319
-0.00333317
-0.00208039
-0.00342295
-0.00186856
-0.00352672
-0.00168855
-0.00364153
-0.00154097
-0.00377213
-0.00143129
-0.00391597
-0.00136154
-0.00407593
-0.00133663
-0.00425138
-0.00136072
-0.00444585
-0.00143947
-0.00465815
-0.00157763
-0.00489196
-0.00178129
-0.00514793
-0.00205711
-0.00542883
-0.00241333
-0.00573566
-0.00607278
-0.00285831
-0.00465701
-0.00340001
-0.00430546
-0.00338263
-0.00396505
-0.00337193
-0.00363574
-0.003371
-0.00331882
-0.00337788
-0.00301751
-0.00339456
-0.00273099
-0.00342207
-0.00246273
-0.0034581
-0.00221431
-0.00350402
-0.00198637
-0.00356111
-0.00178113
-0.00362819
-0.00160234
-0.00370551
-0.00145067
-0.0037932
-0.00133032
-0.00389248
-0.00124318
-0.00400311
-0.00119339
-0.00412572
-0.00118356
-0.00426121
-0.00121952
-0.00440989
-0.00130374
-0.00457393
-0.00144224
-0.00475347
-0.00163929
-0.00495089
-0.00190248
-0.00516564
-0.00223648
-0.00540165
-0.00566035
-0.00264891
-0.00408634
-0.00372713
-0.00376939
-0.00369959
-0.00346319
-0.00367812
-0.00316948
-0.00366471
-0.00288682
-0.00366055
-0.00261887
-0.00366251
-0.00236558
-0.00367535
-0.00212889
-0.0036948
-0.00190933
-0.00372357
-0.00170997
-0.00376048
-0.00153225
-0.00380592
-0.00137816
-0.00385959
-0.00124884
-0.00392252
-0.00114877
-0.00399255
-0.00107906
-0.00407282
-0.00104397
-0.00416082
-0.00104562
-0.00425956
-0.00108787
-0.00436764
-0.00117476
-0.00448705
-0.00131044
-0.00461778
-0.00150059
-0.00476074
-0.00174929
-0.00491694
-0.00206248
-0.00508846
-0.00527567
-0.00244716
-0.00360572
-0.00402273
-0.00331928
-0.00398602
-0.00304364
-0.00395377
-0.00277865
-0.0039297
-0.00252641
-0.00391279
-0.00228548
-0.00390344
-0.00205954
-0.00390129
-0.00184865
-0.00390568
-0.00165493
-0.0039173
-0.00147909
-0.00393632
-0.00132303
-0.00396197
-0.00118831
-0.00399432
-0.00107864
-0.00403219
-0.000993369
-0.00407782
-0.00093829
-0.0041279
-0.000913089
-0.00418602
-0.000922313
-0.00425033
-0.000968538
-0.00432141
-0.00105535
-0.00440023
-0.00118688
-0.00448625
-0.00136769
-0.00457994
-0.00160197
-0.00468266
-0.00189525
-0.00479518
-0.00491844
-0.00225247
-0.00319592
-0.00429303
-0.00293708
-0.00424485
-0.00268757
-0.00420328
-0.00244894
-0.00416834
-0.0022204
-0.00414133
-0.00200461
-0.00411923
-0.00180252
-0.00410338
-0.00161418
-0.00409402
-0.00144087
-0.00409061
-0.00128448
-0.0040927
-0.00114676
-0.0040997
-0.00102953
-0.00411154
-0.000933524
-0.0041282
-0.000862276
-0.00414907
-0.000816585
-0.00417359
-0.000799579
-0.00420302
-0.000813654
-0.00423626
-0.00086133
-0.00427374
-0.000946609
-0.00431495
-0.00107309
-0.00435977
-0.00124389
-0.00440914
-0.00146338
-0.00446316
-0.00173586
-0.0045227
-0.00458728
-0.00206702
-0.00284427
-0.00453774
-0.00260934
-0.00447978
-0.00238402
-0.0044286
-0.00216816
-0.0043842
-0.00196316
-0.00434632
-0.00176755
-0.00431485
-0.00158512
-0.0042858
-0.00141674
-0.00426241
-0.00126273
-0.00424462
-0.00112283
-0.0042326
-0.00100044
-0.00422208
-0.000896618
-0.00421536
-0.000812776
-0.00421204
-0.000751671
-0.00421018
-0.000714671
-0.00421059
-0.000702941
-0.00421475
-0.000717323
-0.00422187
-0.000767406
-0.00422365
-0.000850052
-0.00423231
-0.000968953
-0.00424087
-0.00112941
-0.00424868
-0.00133351
-0.00425906
-0.00158595
-0.00427027
-0.00428231
-0.00189092
0.000994064
0.00345568
-0.00377765
-0.000672099
0.001221
0.00293666
-0.0031636
0.00137633
0.00249798
-0.00265331
0.00147636
0.00212692
-0.00222695
0.00153397
0.00181259
-0.0018702
0.0015594
0.00154592
-0.00157135
0.00156126
0.00131974
-0.0013216
0.00154632
0.00112788
-0.00111294
0.0015197
0.000965419
-0.000938799
0.00148571
0.000827831
-0.000793839
0.00144718
0.000711827
-0.000673294
0.00140653
0.000613917
-0.000573272
0.00136491
0.000531954
-0.000490338
0.00132297
0.000463794
-0.00042185
0.00128068
0.000407839
-0.000365546
0.00123617
0.000363742
-0.000319231
0.00118692
0.000330838
-0.000281595
0.00112801
0.000310414
-0.0002515
0.00105139
0.000305579
-0.000228962
0.000943543
0.000321971
-0.00021412
0.000782565
0.000370567
-0.000209589
0.000531922
0.000471188
-0.000220545
0.000125194
0.000663351
-0.000256623
0.00102768
-0.00058348
-0.00031901
0.000925502
0.00316351
-0.000633325
0.00113714
0.00272502
0.00128581
0.0023493
0.00138486
0.00202787
0.00144498
0.00175247
0.00147497
0.00151593
0.001482
0.00131271
0.00147173
0.00113815
0.00144888
0.000988267
0.00141744
0.000859272
0.00137985
0.000749415
0.001338
0.00065577
0.0012931
0.000576852
0.00124489
0.000512008
0.00119255
0.000460183
0.0011337
0.00042259
0.00106381
0.000400722
0.000976146
0.000398081
0.000861188
0.000420537
0.000705965
0.000477193
0.000493092
0.00058344
0.000200196
0.000764085
-0.000190752
0.0010543
0.00149529
-0.00065836
0.00085489
0.00290392
-0.000595303
0.00104899
0.00253092
0.00118748
0.00221082
0.00128147
0.00193387
0.00133981
0.00169414
0.00136993
0.00148581
0.00137808
0.00130456
0.00136937
0.00114685
0.00134796
0.00100968
0.00131643
0.000890803
0.00127781
0.000788035
0.00123343
0.000700158
0.00118366
0.000626616
0.00112851
0.000567164
0.00106659
0.000522098
0.000995225
0.000493955
0.000910399
0.000485549
0.000806319
0.000502161
0.000675719
0.000551136
0.000508899
0.000644013
0.000294763
0.000797576
2.38253e-05
0.00103502
-0.00030891
0.00138703
0.00187436
-0.000687982
0.00078033
0.00265985
-0.000536264
0.000959828
0.00235143
0.00108897
0.00208167
0.00117744
0.00184541
0.00123335
0.00163822
0.00126301
0.00145615
0.00127156
0.00129601
0.00126345
0.00115495
0.00124206
0.00103107
0.00121075
0.000922108
0.00117099
0.000827793
0.00112436
0.000746797
0.00107151
0.000679461
0.00101237
0.000626304
0.000945498
0.000588969
0.000869181
0.000570272
0.000779809
0.000574921
0.000673314
0.000608656
0.000544044
0.000680406
0.000384764
0.000803293
0.000187632
0.000994708
-5.48917e-05
0.00127755
-0.000346352
0.00167849
0.00221557
-0.000687556
0.000712764
0.00244366
-0.000496568
0.000876198
0.00218799
0.000995189
0.00196268
0.0010777
0.0017629
0.00113036
0.00158555
0.00115854
0.00142798
0.00116708
0.00128747
0.00115936
0.00116268
0.0011391
0.00105133
0.00110812
0.000953086
0.00106891
0.000867011
0.00102232
0.00079338
0.000969047
0.000732738
0.000909029
0.000686323
0.000841579
0.000656419
0.000764994
0.000646857
0.000677083
0.000662832
0.000574317
0.000711422
0.000452029
0.000802695
0.000304656
0.000950665
0.000125378
0.00117399
-9.29367e-05
0.00149586
-0.000355601
0.00194116
0.00252924
-0.000669278
0.000648263
0.00224538
-0.00044999
0.000797494
0.00203876
0.000906971
0.0018532
0.000983689
0.00168619
0.00103288
0.00153636
0.00105976
0.00140111
0.00106792
0.00127931
0.00106121
0.00116938
0.00104184
0.0010707
0.00101241
0.000982514
0.000974576
0.000904849
0.000929421
0.000838535
0.000877725
0.000784434
0.000819434
0.000744613
0.00075385
0.000722002
0.00067986
0.000720847
0.000595851
0.000746841
0.000498897
0.000808376
0.000385025
0.000916568
0.000249402
0.00108629
8.60878e-05
0.0013373
-0.000111423
0.00169337
-0.000352303
0.00218204
0.00281716
-0.00064022
0.00058978
0.00206783
-0.00041223
0.000725219
0.00190332
0.000825417
0.00175301
0.000895925
0.00161568
0.000941918
0.00149036
0.000967275
0.00137575
0.000975545
0.00127104
0.000969485
0.00117544
0.000951414
0.00108877
0.0009238
0.00101013
0.000888187
0.000940463
0.000845884
0.000880838
0.000796785
0.000833533
0.000741213
0.000800185
0.000678879
0.000784337
0.000608962
0.000790763
0.000529702
0.000826101
0.000438993
0.000899086
0.000333412
0.00102215
0.000208741
0.00121096
5.89669e-05
0.00148707
-0.000122634
0.00187497
-0.00034282
0.00240222
0.00308273
-0.000608387
0.000535588
0.00190885
-0.000376609
0.000658634
0.00178028
0.000750162
0.00166148
0.00081518
0.00155066
0.000857826
0.00144772
0.000881783
0.00135179
0.000889902
0.00126292
0.000884818
0.00118053
0.000868383
0.0011052
0.000842214
0.0010363
0.000809487
0.00097319
0.000769921
0.000920404
0.000724534
0.00087892
0.000672654
0.000852065
0.000614215
0.000842776
0.000548642
0.000856336
0.000474614
0.000900128
0.000390205
0.000983494
0.000292423
0.00111993
0.000177875
0.00132551
4.14286e-05
0.00162352
-0.000124511
0.00204091
-0.000327112
0.00260482
0.00332935
-0.000573735
0.00048578
0.00176385
-0.000340776
0.000597789
0.00166827
0.000681508
0.00157776
0.000741336
0.00149083
0.000780562
0.00140849
0.000802888
0.00132946
0.000810931
0.00125488
0.000806789
0.00118467
0.000791839
0.00112015
0.000767404
0.00106073
0.000736847
0.00100375
0.000700809
0.000956441
0.000658929
0.0009208
0.000610995
0.000899999
0.000556868
0.000896903
0.000496265
0.000916939
0.000427465
0.000968929
0.000349051
0.00106191
0.000257631
0.00121135
0.000151596
0.00143154
2.67955e-05
0.00174832
-0.000125955
0.00219366
-0.000313518
0.00279239
0.00355441
-0.000538572
0.000440187
-0.000312988
0.00163665
0.000541154
0.0015673
0.000617114
0.0015018
0.000672368
0.00143558
0.00070912
0.00137174
0.000730235
0.00130835
0.000737979
0.00124713
0.000735609
0.00118704
0.000721797
0.00113396
0.000697864
0.00108467
0.000670466
0.00103114
0.000638047
0.00098886
0.000600491
0.000958357
0.000556524
0.000943966
0.000506226
0.000947202
0.000450001
0.000973163
0.000385972
0.00103296
0.00031374
0.00113414
0.00022653
0.00129856
0.000125813
0.00153226
1.32261e-05
0.00186091
-0.000124479
0.00233137
-0.00030035
0.00296826
-0.000523885
0.00377794
-0.000952268
0.001714
-0.00134521
-0.00149608
0.00225077
-0.00170695
-0.00207172
0.00257213
-0.00199649
-0.00264244
0.00283651
-0.00226578
-0.00319184
0.00309114
-0.00254175
-0.00370948
0.00334946
-0.00283182
-0.00419268
0.00362167
-0.00313847
-0.00462959
0.00390119
-0.00346428
-0.00501501
0.00419899
-0.00381357
-0.0053425
0.00451319
-0.0041857
-0.00560683
0.00484702
-0.00458269
-0.00580409
0.00520449
-0.00500723
-0.00592826
0.00558843
-0.00546426
-0.00597223
0.00599948
-0.00595551
-0.0059369
0.00644596
-0.00648128
-0.00581123
0.00692646
-0.00705214
-0.00558997
0.00744688
-0.00766813
-0.00526649
0.00801166
-0.00833514
-0.00483379
0.00862243
-0.00905512
-0.00428497
0.0092874
-0.00983622
-0.00360677
0.0100082
-0.0106864
-0.00279497
0.0107907
-0.0116025
-0.00183495
0.0116408
-0.0126008
0.012564
-0.0136834
-0.000715566
-0.00106824
0.00212388
-0.00156508
0.0027476
-0.00209892
0.00310597
-0.00261511
0.00335271
-0.00311069
0.00358673
-0.00357371
0.00381247
-0.00399659
0.00404456
-0.00437918
0.00428377
-0.00471164
0.00453145
-0.00499379
0.00479534
-0.0052186
0.00507183
-0.00538505
0.00537094
-0.00548306
0.00568644
-0.00551598
0.00603239
-0.00547212
0.0064021
-0.00535006
0.0068044
-0.00514475
0.00724157
-0.00484659
0.00771349
-0.00445027
0.00822611
-0.00394655
0.00878369
-0.00332803
0.00938969
-0.00258603
0.0100487
-0.00170907
0.0107638
0.011541
-0.000686138
-0.0010899
0.0025258
-0.00154622
0.00320392
-0.00203122
0.00359097
-0.00250243
0.00382392
-0.00294804
0.00403233
-0.00336456
0.00422899
-0.00374355
0.00442355
-0.00408139
0.0046216
-0.00437774
0.0048278
-0.00462388
0.00504148
-0.00482082
0.00526877
-0.00496051
0.00551063
-0.00504848
0.00577442
-0.00507018
0.00605409
-0.00502863
0.00636055
-0.00491447
0.00669024
-0.0047238
0.00705091
-0.0044491
0.00743879
-0.00408727
0.00786427
-0.00362824
0.00832466
-0.00306313
0.00882459
-0.00238589
0.00937142
-0.00158582
0.00996373
0.0106086
-0.000653394
-0.0010721
0.00291034
-0.00149112
0.00362294
-0.00193032
0.00403017
-0.00235908
0.00425267
-0.0027603
0.00443356
-0.00313121
0.00459991
-0.00347036
0.0047627
-0.00377309
0.00492433
-0.00403468
0.0050894
-0.00425406
0.00526086
-0.00442946
0.00544417
-0.00455525
0.00563642
-0.00462774
0.00584691
-0.00464783
0.00607417
-0.00460752
0.00632024
-0.00450115
0.00658387
-0.00432713
0.00687689
-0.00407774
0.0071894
-0.00374512
0.00753166
-0.00332606
0.0079056
-0.00281475
0.00831327
-0.00219556
0.00875223
-0.00146666
0.00923483
0.009759
-0.000617042
-0.00102785
0.00326891
-0.00141107
0.00400616
-0.00181284
0.00443194
-0.00219994
0.00463977
-0.00256235
0.00479598
-0.00289813
0.00493568
-0.00320209
0.00506666
-0.00347186
0.00519409
-0.00370605
0.00532358
-0.0039007
0.00545551
-0.00405667
0.00560014
-0.00417002
0.00574977
-0.00423742
0.00591432
-0.00425289
0.00608965
-0.00421278
0.00628013
-0.00411708
0.00648817
-0.00395648
0.00671629
-0.00373086
0.00696378
-0.00343064
0.00723143
-0.00304981
0.00752477
-0.00257861
0.00784207
-0.00201966
0.00819328
-0.00135511
0.00857028
0.00898524
-0.000581352
-0.000970118
0.00359881
-0.00132627
0.00436231
-0.00169071
0.00479638
-0.00203856
0.00498762
-0.00236699
0.00512441
-0.00266652
0.00523521
-0.0029389
0.00533904
-0.0031821
0.00543729
-0.0033924
0.00553389
-0.00357043
0.00563354
-0.00371024
0.00573995
-0.00381058
0.00585011
-0.00386947
0.00597321
-0.00388297
0.00610315
-0.00384956
0.00624672
-0.00376124
0.00639985
-0.00361618
0.00657122
-0.00340851
0.00675611
-0.00313435
0.00695727
-0.00278809
0.00717851
-0.00236367
0.00741765
-0.00185123
0.00768084
-0.00124925
0.0079683
0.00827951
-0.000543513
-0.000910928
0.00390135
-0.00123475
0.00468613
-0.00156333
0.00512496
-0.00188227
0.00530656
-0.00217588
0.00541802
-0.0024489
0.00550823
-0.00269307
0.00558321
-0.00291303
0.00565726
-0.00310282
0.00572367
-0.00326088
0.0057916
-0.0033856
0.00586467
-0.00347939
0.0059439
-0.00353006
0.00602388
-0.00354434
0.00611743
-0.00351172
0.00621409
-0.00343288
0.00632102
-0.00330138
0.00643973
-0.00311177
0.0065665
-0.00286393
0.00670943
-0.00254993
0.00686451
-0.00216393
0.00703164
-0.00169818
0.00721509
-0.00114849
0.00741861
0.00763826
-0.000507244
-0.000853512
0.00418113
-0.00114769
0.00498031
-0.00144553
0.0054228
-0.00172977
0.00559079
-0.00199507
0.00568333
-0.0022404
0.00575357
-0.0024636
0.00580641
-0.00265884
0.00585249
-0.0028309
0.00589573
-0.00297588
0.00593659
-0.00309001
0.00597879
-0.00317149
0.00602538
-0.00322065
0.00607304
-0.00322915
0.00612593
-0.00320172
0.00618666
-0.00312997
0.00624927
-0.00301028
0.00632004
-0.00284046
0.00639668
-0.00261457
0.00648354
-0.00232676
0.0065767
-0.00197539
0.00668028
-0.00155597
0.00679567
-0.00105681
0.00691945
0.0070533
-0.00047185
-0.000794553
0.00443711
-0.00105432
0.00524007
-0.00132406
0.00569255
-0.00158259
0.00584932
-0.00182748
0.00592822
-0.00204843
0.00597452
-0.0022496
0.00600758
-0.00242718
0.00603007
-0.00258175
0.0060503
-0.00271182
0.00606666
-0.00281557
0.00608253
-0.00289124
0.00610105
-0.00293454
0.00611634
-0.00294586
0.00613726
-0.00291711
0.0061579
-0.00285068
0.00618284
-0.00274245
0.00621181
-0.00259038
0.0062446
-0.0023844
0.00627756
-0.00212498
0.00631727
-0.00180755
0.00636285
-0.00142243
0.00641055
-0.000967268
0.00646429
0.00652453
-0.000438502
-0.000755028
0.00466825
-0.00096998
0.00545503
-0.00121531
0.00593788
-0.00145008
0.00608408
-0.00166937
0.00614751
-0.00186991
0.00617506
-0.00205099
0.00618866
-0.00221332
0.00619241
-0.00235503
0.00619201
-0.00247249
0.00618412
-0.0025662
0.00617625
-0.00263389
0.00616875
-0.00267367
0.00615612
-0.00268143
0.00614502
-0.0026575
0.00613397
-0.00260054
0.00612588
-0.00250178
0.00611305
-0.00235889
0.00610171
-0.00217452
0.00609319
-0.00193888
0.00608163
-0.00164762
0.00607159
-0.00129849
0.00606142
-0.000887668
0.00605346
0.00604133
-0.000404461
0.00145715
-0.000908693
0.00267556
-0.000553924
0.00383904
-0.000242644
0.00497853
8.45141e-05
0.00607186
0.000456558
0.00709307
0.000881065
0.00801278
0.00136195
0.00880865
0.00189328
0.00946355
0.00246843
0.00996732
0.00308138
0.0103154
0.00372202
0.0105128
0.00438721
0.0105698
0.00506762
0.0105055
0.00576092
0.0103429
0.00646703
0.0101077
0.00719011
0.00982541
0.00793795
0.00951772
0.00872455
0.00920098
0.0095629
0.00888459
0.0104661
0.00857627
0.0114471
0.0082762
0.0125169
0.00798599
0.0136842
0.0149669
0.00769975
-9.67199e-05
-0.000811968
0.000186226
-0.000836865
0.000693699
-0.000750116
0.00136849
-0.000590274
0.00217658
-0.000351534
0.00309234
-3.46931e-05
0.00408753
0.000366761
0.00511933
0.000861477
0.00613775
0.00145002
0.00709396
0.00212516
0.00793841
0.00287757
0.00863749
0.00368813
0.00916425
0.00454087
0.00950889
0.00541628
0.0096807
0.00629522
0.00970003
0.00717078
0.00959375
0.00804423
0.00939934
0.00891896
0.00914927
0.00981297
0.00886789
0.0107475
0.00857458
0.0117404
0.00828002
0.0128115
0.00798969
0.0139745
0.0152483
0.0077083
-1.36434e-05
-0.000798322
-8.03412e-06
-0.000842471
5.6287e-05
-0.000814438
0.000209957
-0.000743942
0.000488867
-0.000630445
0.000918301
-0.000464126
0.00151427
-0.000229204
0.00227431
0.000101439
0.00317521
0.000549109
0.00417161
0.00112876
0.00520597
0.00184322
0.00621138
0.00268272
0.00712256
0.00362969
0.00788634
0.0046525
0.00846206
0.0057195
0.00883506
0.00679778
0.00901706
0.00786223
0.00903348
0.00890254
0.00892457
0.00992188
0.00873061
0.0109415
0.00848745
0.0119836
0.00822005
0.0130789
0.00794353
0.014251
0.015529
0.0076629
-1.5254e-05
-0.000783066
9.12456e-06
-0.000866847
6.69992e-05
-0.000872312
0.000164636
-0.000841577
0.000310967
-0.000776777
0.000520259
-0.000673418
0.000810733
-0.000519678
0.00120984
-0.000297667
0.00174253
1.64219e-05
0.00242316
0.000448128
0.00324373
0.00102265
0.00416959
0.00175686
0.00514509
0.00265418
0.00609617
0.00370143
0.00694862
0.00486705
0.00763992
0.00610648
0.00813177
0.00737038
0.00841675
0.00861756
0.00851366
0.00982497
0.00846556
0.0109896
0.00831402
0.0121351
0.00810124
0.0132917
0.00785606
0.0144962
0.0157843
0.00760077
1.00286e-05
-0.000793094
2.74257e-05
-0.000884244
5.89526e-05
-0.000903839
0.000109847
-0.000892472
0.00018693
-0.00085386
0.000298787
-0.000785275
0.000458585
-0.000679477
0.000684549
-0.000523631
0.00100006
-0.000299085
0.0014306
1.75863e-05
0.00199751
0.000455742
0.00270724
0.00104713
0.00354459
0.00181683
0.00446732
0.0027787
0.00540865
0.00392572
0.00628842
0.00522671
0.00703062
0.00662818
0.00758068
0.00806749
0.00791928
0.00948638
0.00805996
0.0108489
0.00804373
0.0121514
0.00791828
0.0134171
0.00772796
0.0146865
0.0160063
0.00750591
-4.64465e-07
-0.000792631
1.19509e-05
-0.00089666
3.77026e-05
-0.00092959
7.84709e-05
-0.00093324
0.00013755
-0.000912939
0.000219411
-0.000867135
0.000330963
-0.000791029
0.000482549
-0.000675217
0.000688886
-0.000505423
0.000967958
-0.000261486
0.00134255
8.11531e-05
0.00183683
0.000552843
0.00246572
0.00118794
0.0032267
0.00201772
0.00408971
0.00306271
0.0049953
0.00432112
0.00586219
0.0057613
0.00660831
0.00732136
0.00717063
0.00892406
0.00752088
0.0104987
0.00767242
0.0119998
0.00766483
0.0134247
0.00754909
0.0148023
0.016184
0.00737135
4.63012e-06
-0.000797263
1.70275e-05
-0.000909059
3.70568e-05
-0.00094962
6.70069e-05
-0.000963191
0.000109452
-0.000955384
0.000167673
-0.000925357
0.000246208
-0.000869565
0.000352082
-0.00078109
0.000495182
-0.000648523
0.000689565
-0.000455869
0.000952063
-0.000181344
0.00130343
0.000201477
0.00176517
0.000726198
0.00235391
0.00142899
0.00307117
0.00234545
0.00389288
0.00349941
0.00476445
0.00488973
0.0056049
0.00648091
0.00632861
0.00820035
0.00686943
0.00995783
0.00720018
0.0116691
0.00733581
0.0132891
0.00731936
0.0148187
0.0162983
0.00720506
2.86065e-06
-0.000800125
1.19618e-05
-0.000918163
2.84492e-05
-0.000966108
5.27142e-05
-0.000987457
8.68619e-05
-0.000989531
0.000133218
-0.000971714
0.000194483
-0.00093083
0.000275469
-0.000862076
0.000383072
-0.000756127
0.000526809
-0.000599606
0.000719525
-0.000374061
0.000977195
-5.61932e-05
0.00131981
0.000383579
0.00176767
0.000981131
0.00233695
0.00177616
0.0030299
0.00280646
0.00382334
0.00409629
0.00466271
0.00564154
0.00546642
0.00739665
0.0061489
0.00927534
0.00664506
0.0111729
0.00693382
0.0130003
0.0070368
0.0147158
0.0163324
0.00700269
3.31536e-06
-0.000803443
1.14073e-05
-0.000926257
2.49489e-05
-0.00097965
4.46802e-05
-0.00100719
7.19234e-05
-0.00101677
0.000108623
-0.00100841
0.000157197
-0.000979403
0.000220615
-0.000925495
0.000303904
-0.000839417
0.000414137
-0.000709839
0.000561341
-0.000521265
0.000757847
-0.000252699
0.00101959
0.00012184
0.00136524
0.000635476
0.0018141
0.0013273
0.0023806
0.00223996
0.00306473
0.00341217
0.00384079
0.00486548
0.00465016
0.00658728
0.00541004
0.00851546
0.00603475
0.0105482
0.00646812
0.0125669
0.00669837
0.0144855
0.0162727
0.00675806
2.6088e-06
-0.000806053
9.02736e-06
-0.000932678
2.02037e-05
-0.000990826
3.66304e-05
-0.00102362
5.91938e-05
-0.00103934
8.94128e-05
-0.00103863
0.000129083
-0.00101907
0.000180596
-0.000977008
0.000247545
-0.000906366
0.000335305
-0.0007976
0.000451341
-0.000637302
0.000605567
-0.000406925
0.000810679
-8.32726e-05
0.00108252
0.000363633
0.00143931
0.000970515
0.00189903
0.00178024
0.00247357
0.00283763
0.00315822
0.00418082
0.0039214
0.0058241
0.00469811
0.00773875
0.00540336
0.00984297
0.00595708