/*--------------------------------*- C++ -*----------------------------------*\
| =========                 |                                                 |
| \\      /  F ield         | OpenFOAM: The Open Source CFD Toolbox           |
|  \\    /   O peration     | Version:  2.3.0                                 |
|   \\  /    A nd           | Web:      www.OpenFOAM.org                      |
|    \\/     M anipulation  |                                                 |
\*---------------------------------------------------------------------------*/
FoamFile
{
    version     2.0;
    format      ascii;
    class       volScalarField;
    location    "1000";
    object      nuTilda;
}
// * * * * * * * * * * * * * * * * * * * * * * * * * * * * * * * * * * * * * //

dimensions      [0 2 -1 0 0 0 0];

internalField   nonuniform List<scalar> 
38325
(
0.072781
0.0711632
0.069531
0.0678921
0.0662477
0.0645986
0.0629457
0.0612901
0.0596326
0.0579741
0.0563153
0.054657
0.0529997
0.0513443
0.0496913
0.0480414
0.0463951
0.0447527
0.0431146
0.0414814
0.0398536
0.0382315
0.0366154
0.0350061
0.0334036
0.0318084
0.0302211
0.0286425
0.0270731
0.0255137
0.0239657
0.0224306
0.0209104
0.0194083
0.0179284
0.0164766
0.0150622
0.0136962
0.0123933
0.0111685
0.010018
0.00883333
0.00693858
0.0737536
0.0723048
0.0708525
0.0693938
0.0679296
0.0664608
0.064988
0.0635116
0.0620322
0.0605502
0.0590662
0.0575803
0.0560929
0.0546044
0.0531152
0.0516257
0.0501359
0.0486463
0.0471574
0.0456689
0.0441816
0.0426961
0.0412125
0.0397321
0.0382551
0.0367819
0.0353146
0.0338544
0.0324022
0.0309611
0.0295342
0.0281249
0.0267382
0.0253797
0.0240572
0.022782
0.0215655
0.0204225
0.0193717
0.0184325
0.017625
0.0169681
0.016475
0.0746548
0.0733613
0.0720641
0.0707605
0.0694514
0.0681373
0.0668185
0.0654953
0.0641679
0.0628365
0.0615015
0.0601627
0.0588204
0.0574747
0.056126
0.0547743
0.0534196
0.0520624
0.0507031
0.0493414
0.0479782
0.0466139
0.045249
0.0438845
0.0425212
0.0411604
0.0398043
0.0384537
0.0371114
0.0357807
0.0344652
0.0331696
0.0318992
0.0306605
0.0294617
0.0283132
0.0272259
0.0262129
0.0252878
0.024464
0.0237551
0.0231739
0.0227269
0.0754944
0.0743357
0.0731727
0.0720033
0.0708277
0.0696462
0.0684592
0.0672668
0.066069
0.0648659
0.0636572
0.062443
0.0612235
0.0599988
0.0587686
0.0575332
0.0562927
0.0550472
0.0537972
0.0525425
0.0512839
0.050022
0.0487573
0.0474905
0.0462229
0.0449561
0.0436922
0.0424328
0.0411809
0.0399399
0.0387134
0.0375066
0.0363244
0.0351742
0.0340631
0.0330011
0.0319986
0.0310664
0.0302148
0.0294556
0.0287995
0.028256
0.0278288
0.0762714
0.0752308
0.0741846
0.0731313
0.0720706
0.0710031
0.069929
0.0688483
0.0677608
0.0666667
0.0655655
0.0644569
0.0633411
0.0622181
0.0610876
0.0599503
0.0588057
0.0576541
0.0564959
0.0553309
0.0541598
0.0529834
0.0518023
0.0506172
0.0494295
0.0482406
0.0470525
0.0458677
0.0446893
0.0435202
0.0423644
0.0412269
0.0401132
0.0390296
0.0379832
0.0369834
0.0360397
0.0351613
0.0343585
0.0336409
0.0330177
0.0324967
0.0320817
0.0769885
0.0760511
0.0751064
0.0741535
0.0731921
0.0722225
0.071245
0.0702597
0.0692664
0.0682651
0.0672553
0.0662362
0.0652079
0.0641706
0.0631243
0.0620694
0.0610055
0.0599329
0.0588517
0.057762
0.0566641
0.0555593
0.0544476
0.0533302
0.0522087
0.0510845
0.0499591
0.0488355
0.0477163
0.0466049
0.0455059
0.0444243
0.0433647
0.0423328
0.0413356
0.0403818
0.039481
0.0386418
0.037874
0.037186
0.0365859
0.0360804
0.0356739
0.0776448
0.0767998
0.0759442
0.0750788
0.0742033
0.073318
0.0724229
0.0715189
0.0706062
0.0696844
0.0687525
0.0678098
0.0668559
0.0658911
0.064916
0.0639306
0.0629346
0.0619283
0.0609122
0.0598858
0.0588496
0.0578046
0.0567511
0.0556903
0.0546242
0.0535539
0.052481
0.0514075
0.0503365
0.0492727
0.04822
0.0471836
0.0461681
0.0451784
0.0442196
0.0433003
0.0424319
0.041623
0.0408817
0.0402166
0.0396337
0.0391398
0.0387397
0.0782476
0.0774833
0.076705
0.0759157
0.0751145
0.0743022
0.0734773
0.0726428
0.0717987
0.0709449
0.0700802
0.0692038
0.0683137
0.0674089
0.0664946
0.0655682
0.0646295
0.0636792
0.0627182
0.061746
0.0607617
0.0597672
0.0587626
0.0577497
0.0567294
0.055705
0.0546771
0.0536458
0.0526138
0.0515893
0.0505743
0.0495738
0.0485962
0.047643
0.0467162
0.0458221
0.0449773
0.0441933
0.0434716
0.0428297
0.0422589
0.0417739
0.0413784
0.078806
0.07811
0.077397
0.0766743
0.0759349
0.075188
0.0744213
0.0736443
0.0728575
0.0720607
0.0712533
0.0704343
0.0696044
0.0687463
0.0678829
0.067007
0.0661173
0.0652133
0.0642973
0.0633734
0.0624332
0.0614841
0.0605183
0.0595476
0.0585638
0.0575769
0.0565879
0.0555977
0.054594
0.0536018
0.0526202
0.0516478
0.0507042
0.049781
0.048885
0.0480126
0.0471845
0.0464254
0.04571
0.0451061
0.0445384
0.0440631
0.0436681
0.0061416
0.00704739
0.00804039
0.00893637
0.00976598
0.0105658
0.0113528
0.0121357
0.0129164
0.0136954
0.0144742
0.0152641
0.0160904
0.0169726
0.0179124
0.018901
0.0199319
0.0209988
0.0220985
0.0232303
0.0243949
0.0255885
0.0268098
0.0280555
0.0293248
0.0306169
0.0319307
0.0332654
0.0346202
0.0359948
0.0373884
0.0388006
0.0402303
0.0416768
0.0431396
0.0446177
0.0461104
0.0476172
0.0491374
0.0506705
0.0522162
0.053774
0.0553425
0.0161524
0.015995
0.0159973
0.0161443
0.0164235
0.0168174
0.0173117
0.0178916
0.0185437
0.0192572
0.0200219
0.0208339
0.021687
0.0225787
0.0235039
0.0244594
0.0254417
0.0264492
0.0274797
0.0285316
0.0296047
0.0306977
0.0318085
0.0329379
0.034084
0.0352469
0.0364258
0.0376202
0.0388299
0.0400542
0.0412932
0.0425454
0.043811
0.0450891
0.0463797
0.0476818
0.0489952
0.0503199
0.0516554
0.053002
0.0543593
0.0557279
0.0571097
0.0224108
0.0222214
0.0221604
0.0222244
0.0224068
0.0226977
0.0230868
0.0235631
0.0241146
0.0247322
0.0254074
0.0261326
0.0269021
0.0277083
0.0285495
0.0294193
0.0303159
0.0312359
0.0321773
0.0331386
0.0341173
0.0351128
0.036124
0.0371495
0.0381891
0.0392419
0.0403066
0.0413838
0.0424724
0.0435719
0.0446818
0.045802
0.0469315
0.0480701
0.0492175
0.0503735
0.0515378
0.0527106
0.0538922
0.0550825
0.0562813
0.0574886
0.0587038
0.0275169
0.0273184
0.0272348
0.0272629
0.0273992
0.0276357
0.0279648
0.0283761
0.0288616
0.0294121
0.0300192
0.030676
0.0313758
0.0321143
0.0328848
0.0336849
0.0345095
0.0353567
0.0362236
0.037108
0.0380083
0.0389231
0.0398511
0.040791
0.041742
0.042703
0.0436736
0.0446534
0.0456413
0.0466372
0.0476401
0.0486496
0.0496656
0.0506874
0.051715
0.0527481
0.0537872
0.0548325
0.0558843
0.0569427
0.0580073
0.0590778
0.0601543
0.0317728
0.0315702
0.0314738
0.0314815
0.0315901
0.0317931
0.032083
0.0324519
0.0328917
0.0333936
0.0339508
0.0345566
0.0352047
0.0358891
0.0366055
0.037349
0.0381164
0.0389044
0.0397105
0.0405328
0.041369
0.0422179
0.0430774
0.0439468
0.0448246
0.04571
0.0466028
0.0475015
0.0484063
0.0493156
0.050229
0.051146
0.0520665
0.0529902
0.0539168
0.0548466
0.0557803
0.0567183
0.0576607
0.0586072
0.0595575
0.060511
0.0614676
0.0353679
0.0351625
0.0350585
0.0350537
0.0351446
0.0353253
0.0355888
0.0359275
0.0363332
0.0367994
0.0373192
0.037886
0.0384937
0.0391365
0.0398091
0.0405074
0.041228
0.0419681
0.0427252
0.0434967
0.0442807
0.0450753
0.0458786
0.0466893
0.0475065
0.0483295
0.0491574
0.0499896
0.0508244
0.0516612
0.0524993
0.0533385
0.0541787
0.0550195
0.0558608
0.0567035
0.0575485
0.058396
0.0592458
0.0600974
0.0609499
0.061803
0.0626574
0.0384357
0.0382288
0.0381198
0.0381065
0.0381857
0.0383515
0.0385959
0.0389108
0.0392905
0.0397292
0.0402203
0.0407576
0.0413339
0.0419424
0.0425786
0.0432398
0.0439226
0.0446244
0.0453414
0.0460714
0.0468121
0.0475618
0.0483183
0.0490802
0.0498467
0.0506179
0.0513927
0.0521689
0.0529449
0.0537199
0.0544941
0.0552677
0.0560398
0.0568101
0.0575793
0.0583484
0.0591186
0.0598901
0.0606618
0.0614324
0.0622006
0.0629671
0.0637338
0.0410757
0.0408677
0.0407552
0.040736
0.0408076
0.0409638
0.0411927
0.0414874
0.0418451
0.0422626
0.0427327
0.043248
0.0437973
0.0443753
0.0449813
0.0456126
0.0462657
0.0469359
0.0476194
0.0483146
0.04902
0.0497322
0.0504489
0.0511691
0.0518937
0.0526229
0.0533538
0.0540825
0.0548071
0.0555291
0.0562496
0.056968
0.057682
0.0583918
0.0590995
0.0598071
0.0605153
0.0612231
0.0619289
0.0626293
0.063324
0.064015
0.0647051
0.0433647
0.0431551
0.0430388
0.0430135
0.0430802
0.0432307
0.0434443
0.0437159
0.0440532
0.044458
0.044913
0.0454108
0.0459287
0.0464789
0.0470606
0.0476684
0.0482977
0.0489409
0.049594
0.0502609
0.050937
0.0516154
0.052297
0.0529821
0.0536739
0.0543709
0.0550648
0.0557508
0.0564296
0.0571081
0.0577852
0.0584574
0.0591206
0.0597796
0.0604388
0.0610991
0.0617587
0.0624145
0.0630644
0.0637017
0.0643329
0.0649611
0.0655873
0.0173167
0.0163227
0.0153731
0.0144643
0.0135949
0.0127637
0.0119698
0.0112123
0.0104907
0.0098046
0.00915358
0.00853701
0.00795484
0.00740744
0.006896
0.00642315
0.00599326
0.00561463
0.00528702
0.00499824
0.00473846
0.00450104
0.00428151
0.00407663
0.00388354
0.00369982
0.00352319
0.00335148
0.00318266
0.00301482
0.0028461
0.00267478
0.00249917
0.00231776
0.00212906
0.00193169
0.00172443
0.00150624
0.00127636
0.00103476
0.00078404
0.000536532
0.000302255
0.0172368
0.0163172
0.0154352
0.0145883
0.0137752
0.0129946
0.0122457
0.0115276
0.0108399
0.0101826
0.00955494
0.00895652
0.00838732
0.00784741
0.00733743
0.00685887
0.00641455
0.00600996
0.00565115
0.005335
0.00505225
0.00479567
0.00455999
0.00434125
0.00413619
0.00394225
0.00375699
0.00357821
0.00340376
0.0032316
0.00305969
0.00288603
0.00270862
0.00252561
0.00233511
0.00213534
0.00192472
0.00170185
0.00146583
0.00121685
0.000958145
0.000699389
0.000451574
0.0171698
0.0163194
0.015502
0.0147144
0.0139551
0.0132229
0.012517
0.0118369
0.011182
0.0105522
0.00994711
0.00936657
0.00881049
0.0082788
0.00777185
0.00729055
0.00683672
0.00641385
0.00602749
0.00568292
0.00537483
0.00509583
0.00484051
0.00460462
0.00438473
0.00417788
0.00398151
0.00379323
0.00361083
0.00343212
0.00325492
0.00307704
0.00289624
0.00271027
0.00251688
0.00231386
0.00209911
0.00187084
0.00162787
0.00137062
0.00110308
0.000835336
0.000598102
0.0171079
0.0163232
0.0155651
0.0148318
0.0141217
0.0134339
0.0127678
0.0121227
0.0114981
0.0108941
0.0103103
0.00974685
0.00920358
0.00868041
0.0081778
0.00769621
0.00723686
0.00680212
0.00639595
0.00602493
0.00569165
0.00538955
0.00511316
0.00485826
0.00462153
0.00439987
0.00419057
0.00399109
0.00379908
0.00361223
0.00342823
0.00324472
0.00305925
0.00286929
0.00267225
0.00246545
0.00224638
0.00201277
0.00176322
0.00149839
0.0012232
0.000950801
0.000747243
0.0170499
0.0163266
0.0156231
0.0149391
0.0142739
0.0136266
0.0129966
0.0123834
0.0117867
0.0112064
0.0106426
0.0100951
0.00956409
0.00904967
0.00855205
0.00807163
0.00760948
0.00716701
0.00674721
0.0063554
0.00599824
0.00567364
0.00537596
0.00510134
0.00484662
0.00460887
0.00438532
0.00417338
0.00397056
0.00377442
0.00358256
0.00339244
0.00320143
0.00300677
0.00280556
0.00259475
0.00237137
0.00213278
0.00187738
0.00160602
0.00132496
0.00105334
0.000900544
0.0169965
0.0163292
0.0156758
0.015037
0.0144125
0.0138019
0.0132047
0.0126206
0.0120494
0.0114911
0.0109455
0.0104129
0.00989367
0.00938767
0.00889529
0.00841697
0.00795345
0.00750598
0.00707668
0.00666959
0.00629128
0.00594558
0.00562767
0.00533362
0.00506059
0.00480604
0.00456742
0.0043422
0.00412775
0.00392158
0.00372111
0.00352371
0.00332659
0.00312676
0.00292104
0.00270609
0.00247856
0.00223542
0.00197485
0.00169805
0.00141295
0.00114775
0.00105617
0.016951
0.016332
0.0157237
0.015126
0.0145385
0.0139613
0.013394
0.0128365
0.0122886
0.0117503
0.0112217
0.0107032
0.0101948
0.0096968
0.00920972
0.00873383
0.00826994
0.00781895
0.00738289
0.00696448
0.00656917
0.00620404
0.00586719
0.00555445
0.0052635
0.00499218
0.00473825
0.00449927
0.00427271
0.00405598
0.00384642
0.00364132
0.00343777
0.00323252
0.0030222
0.00280304
0.00257141
0.002324
0.00205887
0.0017776
0.00149028
0.00123666
0.0012115
0.016908
0.0163343
0.0157671
0.0152068
0.0146536
0.0141071
0.0135675
0.0130345
0.0125073
0.0119866
0.0114734
0.0109682
0.0104706
0.0099807
0.0094989
0.00902557
0.0085615
0.00810787
0.00766635
0.00723933
0.0068307
0.00644776
0.00609332
0.00576332
0.00545528
0.00516739
0.00489795
0.00464491
0.00440608
0.00417881
0.00396007
0.0037468
0.00353607
0.00332509
0.00311022
0.00288774
0.00265292
0.00240204
0.002133
0.00184795
0.00155976
0.00132141
0.00136206
0.016867
0.0163356
0.0158056
0.0152797
0.0147588
0.0142418
0.0137289
0.0132208
0.0127127
0.0122052
0.0117038
0.0112114
0.010727
0.0102485
0.00977482
0.00930631
0.00884347
0.0083862
0.00793879
0.00750592
0.00708904
0.00669022
0.00631818
0.00597235
0.00564872
0.00534512
0.00506006
0.00479154
0.00453623
0.00429649
0.00407102
0.00385333
0.00363806
0.00341819
0.00319405
0.00295894
0.00271852
0.00246241
0.00219066
0.00190437
0.00161701
0.00140093
0.00152424
0.000208826
0.000398162
0.00062831
0.000903076
0.00121076
0.00155444
0.00194657
0.00238278
0.00285636
0.00336586
0.0039115
0.00449345
0.00511228
0.00576865
0.00646309
0.00719673
0.00797018
0.00878457
0.00964125
0.0105413
0.011486
0.0124766
0.0135146
0.0146013
0.0157383
0.0169272
0.0181694
0.0194667
0.0208208
0.022233
0.0237053
0.0252393
0.0268366
0.0284988
0.0302274
0.0320239
0.0338895
0.0358255
0.0378327
0.0399113
0.0420617
0.0442827
0.0465733
0.000415315
0.000673499
0.000988895
0.0013394
0.00172276
0.00214062
0.00259425
0.00308264
0.00360887
0.00417742
0.0047869
0.00543385
0.00611673
0.00683513
0.00758921
0.00837919
0.00920561
0.010069
0.0109697
0.011909
0.0128875
0.013906
0.0149655
0.0160674
0.0172125
0.0184021
0.0196371
0.020919
0.0222491
0.0236284
0.0250583
0.0265401
0.028075
0.0296642
0.0313088
0.0330101
0.0347688
0.0365858
0.0384616
0.0403965
0.0423897
0.0444398
0.0465416
0.000647718
0.000983405
0.00137991
0.00180865
0.00226948
0.00276183
0.00328479
0.00383858
0.00442521
0.0050469
0.00570538
0.00640235
0.00713759
0.00790912
0.00871514
0.00955478
0.0104276
0.0113337
0.0122732
0.0132463
0.0142535
0.0152954
0.0163725
0.0174855
0.0186352
0.0198223
0.0210475
0.0223118
0.0236162
0.0249613
0.0263483
0.0277779
0.0292511
0.0307686
0.0323314
0.0339402
0.0355956
0.0372981
0.0390481
0.0408456
0.04269
0.0445806
0.0465153
0.000892651
0.00130522
0.00177767
0.00228025
0.00281293
0.00337483
0.00396507
0.00458373
0.00523149
0.00590927
0.00661856
0.00736112
0.00813809
0.00894996
0.00979605
0.010675
0.0115854
0.0125262
0.013497
0.0144975
0.0155276
0.0165873
0.017677
0.0187971
0.0199477
0.0211294
0.0223427
0.0235881
0.0248661
0.0261773
0.0275224
0.0289019
0.0303165
0.0317666
0.033253
0.034776
0.0363359
0.0379333
0.0395683
0.0412409
0.0429509
0.0446977
0.0464803
0.00114015
0.00162545
0.0021682
0.00273872
0.00333718
0.00396313
0.00461571
0.00529464
0.00599992
0.00673197
0.00749157
0.00827972
0.00909743
0.00994561
0.0108245
0.0117341
0.0126732
0.0136407
0.0146356
0.015657
0.0167043
0.0177772
0.0188755
0.0199991
0.021148
0.0223223
0.0235221
0.0247478
0.0259996
0.0272778
0.0285829
0.0299151
0.031275
0.0326627
0.0340785
0.0355228
0.0369957
0.0384975
0.0400284
0.0415887
0.0431783
0.0447973
0.0464455
0.00138323
0.00193608
0.00254337
0.00317611
0.00383475
0.00451922
0.00522873
0.00596275
0.00672103
0.00750347
0.00831036
0.00914223
0.00999959
0.010883
0.0117928
0.0127293
0.013692
0.0146802
0.0156934
0.0167303
0.0177901
0.0188722
0.0199757
0.0211001
0.0222451
0.0234103
0.0245956
0.0258013
0.0270273
0.0282739
0.0295411
0.0308292
0.0321383
0.0334684
0.0348199
0.0361924
0.0375862
0.0390015
0.0404388
0.0418984
0.0433809
0.0448864
0.0464152
0.00161794
0.00223303
0.00289931
0.00358892
0.0043026
0.0050405
0.00580196
0.0065863
0.00739301
0.0082218
0.0090724
0.00994486
0.0108394
0.0117561
0.0126953
0.013657
0.014641
0.0156471
0.0166752
0.0177245
0.0187941
0.0198829
0.0209894
0.0221128
0.0232521
0.0244067
0.0255767
0.0267621
0.0279631
0.0291793
0.0304111
0.0316582
0.0329206
0.0341984
0.0354911
0.0367988
0.0381207
0.0394573
0.0408102
0.0421805
0.0435681
0.0449732
0.0463972
0.0018408
0.00251443
0.00323597
0.00397852
0.00474305
0.00553004
0.00633877
0.00716922
0.00802091
0.00889283
0.00978321
0.0106923
0.0116206
0.0125673
0.013533
0.014517
0.0155202
0.0165427
0.0175847
0.0186464
0.0197263
0.0208218
0.0219309
0.0230531
0.0241847
0.0253268
0.0264803
0.0276456
0.0288221
0.0300097
0.0312085
0.0324177
0.0336379
0.0348679
0.036108
0.0373574
0.0386131
0.0398768
0.0411542
0.0424457
0.0437502
0.0450662
0.0463972
0.00207766
0.00280485
0.003575
0.00436532
0.00517517
0.00600463
0.00685246
0.00772527
0.00861989
0.00953455
0.0104562
0.0113958
0.0123541
0.0133247
0.0143129
0.0153109
0.016331
0.0173688
0.0184255
0.019503
0.0205959
0.0217013
0.0228162
0.023942
0.0250588
0.0261867
0.0273222
0.0284684
0.0296204
0.0307816
0.0319504
0.0331237
0.0343067
0.0354919
0.0366885
0.0378874
0.0390777
0.0402687
0.0414805
0.0427053
0.0439389
0.0451723
0.0464121
0.000466873
0.00185942
0.00339563
0.00499193
0.0066139
0.00824839
0.00989141
0.0115412
0.0131941
0.0148483
0.0165047
0.0181637
0.019826
0.0214931
0.0231644
0.0248414
0.0265247
0.0282142
0.0299106
0.0316141
0.0333242
0.0350416
0.036766
0.0384966
0.0402337
0.0419769
0.0437253
0.0454786
0.0472366
0.0489982
0.0507633
0.0525306
0.0542992
0.0560688
0.0578379
0.0596058
0.0613716
0.0631338
0.0648917
0.0666442
0.0683898
0.0701284
0.0718532
0.000163381
0.00101832
0.00215827
0.00345867
0.00485924
0.00632901
0.00784924
0.00940889
0.0109992
0.0126138
0.014249
0.0159015
0.01757
0.0192525
0.0209476
0.0226546
0.024373
0.0261018
0.0278409
0.0295896
0.0313472
0.0331137
0.0348884
0.0366705
0.0384596
0.0402551
0.0420562
0.0438627
0.0456737
0.0474882
0.0493056
0.0511249
0.0529453
0.054766
0.0565855
0.0584033
0.0602177
0.0620282
0.0638335
0.0656319
0.0674224
0.0692032
0.0709668
0.000246743
0.000883967
0.00182846
0.00292054
0.00412414
0.00541575
0.0067798
0.0082048
0.00968173
0.0112033
0.0127634
0.0143575
0.0159814
0.0176319
0.019306
0.0210013
0.0227162
0.0244486
0.0261968
0.0279596
0.029736
0.0315247
0.0333248
0.0351349
0.036954
0.0387815
0.0406165
0.042458
0.0443049
0.0461562
0.0480107
0.0498678
0.0517265
0.0535853
0.0554434
0.0572992
0.0591518
0.0610001
0.0628426
0.0646779
0.0665049
0.0683224
0.0701291
0.000252562
0.00076787
0.00159362
0.00255563
0.00362932
0.00479646
0.00604379
0.007361
0.00874038
0.010175
0.0116587
0.0131869
0.0147546
0.0163583
0.0179944
0.0196599
0.0213528
0.0230696
0.0248083
0.0265674
0.0283454
0.0301401
0.0319497
0.0337729
0.0356087
0.0374556
0.0393125
0.0411776
0.0430499
0.0449282
0.0468114
0.0486981
0.050587
0.052477
0.0543666
0.0562547
0.0581399
0.0600207
0.0618955
0.0637632
0.0656222
0.0674707
0.0693068
0.000253302
0.000671503
0.00141172
0.00228241
0.00326285
0.0043372
0.00549414
0.00672441
0.00802173
0.00937928
0.0107922
0.0122559
0.0137657
0.0153183
0.0169102
0.0185381
0.0201993
0.0218906
0.0236099
0.025355
0.0271233
0.028913
0.0307221
0.0325488
0.0343916
0.0362488
0.0381183
0.0399986
0.0418887
0.0437869
0.0456916
0.0476013
0.0495145
0.0514301
0.0533462
0.0552617
0.0571748
0.0590839
0.0609876
0.0628842
0.0647721
0.0666496
0.0685182
0.000253719
0.000604731
0.00128088
0.00208175
0.00298879
0.0039883
0.00507005
0.00622702
0.0074527
0.00874176
0.01009
0.011493
0.012947
0.0144487
0.0159944
0.0175816
0.0192071
0.0208678
0.0225618
0.0242861
0.0260381
0.027816
0.0296174
0.0314404
0.0332831
0.035143
0.0370184
0.038908
0.0408097
0.0427216
0.0446422
0.0465695
0.0485021
0.0504384
0.0523767
0.0543153
0.0562524
0.0581865
0.0601159
0.0620385
0.0639531
0.0658576
0.0677531
0.000253311
0.000555731
0.00118078
0.00192584
0.00277336
0.00371098
0.00473001
0.00582417
0.00698763
0.00821633
0.00950618
0.0108537
0.0122554
0.0137079
0.0152086
0.0167545
0.0183427
0.0199704
0.0216354
0.023335
0.0250668
0.0268278
0.0286166
0.0304307
0.0322677
0.0341252
0.0360018
0.0378951
0.0398031
0.041724
0.0436557
0.0455963
0.047544
0.0494971
0.0514536
0.0534118
0.0553697
0.0573258
0.0592779
0.0612245
0.0631638
0.0650944
0.067018
0.000252702
0.000516785
0.0010998
0.00179906
0.00259709
0.00348276
0.00444853
0.00548859
0.00659826
0.00777376
0.00901153
0.0103084
0.0116614
0.013068
0.0145253
0.0160307
0.0175816
0.0191755
0.02081
0.0224828
0.0241912
0.0259328
0.0277052
0.0295066
0.031334
0.0331854
0.0350586
0.0369515
0.0388617
0.0407875
0.0427264
0.0446764
0.0466357
0.048602
0.0505735
0.0525482
0.054524
0.0564991
0.0584718
0.06044
0.0624023
0.0643566
0.0663035
0.000252171
0.000485021
0.00103254
0.00169338
0.00244953
0.00329098
0.00421075
0.00520377
0.00626614
0.00739432
0.00858525
0.00983603
0.0111445
0.0125081
0.0139243
0.015391
0.0169055
0.0184657
0.0200694
0.0217142
0.0233979
0.0251177
0.0268715
0.0286572
0.0304722
0.0323142
0.034181
0.0360701
0.0379794
0.0399064
0.0418493
0.0438056
0.045773
0.0477494
0.049733
0.0517215
0.0537125
0.0557044
0.0576953
0.0596834
0.061667
0.0636451
0.0656201
0.000251777
0.000458732
0.000975942
0.00160366
0.00232388
0.00312697
0.00400661
0.00495852
0.00597876
0.00706465
0.00821325
0.00942229
0.0106896
0.0120131
0.0133909
0.0148205
0.0162998
0.0178273
0.0194004
0.021017
0.0226749
0.0243718
0.0261055
0.0278738
0.0296742
0.0315044
0.033362
0.0352449
0.0371502
0.039076
0.0410199
0.0429794
0.0449524
0.0469366
0.0489295
0.050929
0.052933
0.0549394
0.0569463
0.0589518
0.0609547
0.0629545
0.0649475
0.000251301
0.000436401
0.000927829
0.00152627
0.00221498
0.00298445
0.0038288
0.00474403
0.00572685
0.00677466
0.00788487
0.0090557
0.0102853
0.0115718
0.0129132
0.0143077
0.0157538
0.0172494
0.0187926
0.0203811
0.0220131
0.0236865
0.0253992
0.0271487
0.0289329
0.0307495
0.0325963
0.0344704
0.0363699
0.0382919
0.0402343
0.0421949
0.044171
0.0461603
0.0481602
0.0501687
0.0521834
0.054202
0.0562224
0.0582426
0.0602609
0.0622751
0.0642778
0.000250845
0.000417431
0.000886252
0.00145856
0.00211948
0.00285922
0.00367214
0.00455456
0.00550355
0.00651684
0.00759225
0.00872822
0.00992306
0.0111749
0.0124825
0.0138441
0.0152583
0.0167233
0.0182372
0.0197982
0.0214045
0.0230544
0.0247454
0.0264755
0.0282425
0.0300442
0.0318783
0.0337424
0.0356337
0.0375502
0.0394897
0.0414491
0.0434261
0.0454183
0.0474233
0.0494386
0.0514617
0.0534903
0.055522
0.0575546
0.0595853
0.0616111
0.063625
0.000250472
0.000400821
0.000849527
0.00139869
0.00203493
0.00274796
0.00353265
0.00438543
0.00530384
0.00628582
0.00732934
0.00843313
0.00959577
0.0108156
0.0120916
0.0134222
0.014806
0.0162418
0.0177275
0.0192617
0.0208429
0.0224691
0.0241384
0.0258485
0.0275976
0.0293833
0.0312038
0.0330563
0.0349384
0.0368481
0.0387824
0.0407388
0.0427151
0.0447084
0.0467166
0.0487367
0.0507663
0.0528029
0.0548441
0.0568871
0.058929
0.0609676
0.0629998
0.000250135
0.00038636
0.000817009
0.00134528
0.00195917
0.00264813
0.00340715
0.00423318
0.00512382
0.00607708
0.00709141
0.00816565
0.00929834
0.0104883
0.0117347
0.0130359
0.0143912
0.0157988
0.0172574
0.0187659
0.0203223
0.0219252
0.0235726
0.0252628
0.0269936
0.0287631
0.030569
0.0324087
0.0342807
0.0361817
0.0381094
0.0400617
0.0420355
0.0440286
0.0460379
0.0480612
0.0500956
0.0521387
0.0541876
0.0562394
0.0582912
0.0603397
0.0623801
0.000249828
0.000373339
0.000787663
0.001297
0.0018908
0.00255797
0.00329379
0.00409539
0.00496045
0.00588741
0.00687481
0.00792165
0.00902652
0.0101887
0.011407
0.0126808
0.0140088
0.0153896
0.0168224
0.0183057
0.0198383
0.0214182
0.0230442
0.0247144
0.0264268
0.0281795
0.0299701
0.0317968
0.033657
0.0355484
0.0374687
0.0394154
0.0413856
0.0433766
0.0453861
0.047411
0.0494489
0.0514969
0.0535521
0.0556117
0.0576727
0.0597321
0.0617885
0.000249463
0.000361746
0.000761326
0.0012536
0.00182866
0.00247595
0.00319052
0.00396957
0.00481119
0.00571379
0.00667629
0.00769761
0.00877675
0.00991274
0.011105
0.0123527
0.0136547
0.0150103
0.0164183
0.0178775
0.0193867
0.0209445
0.0225493
0.0241995
0.0258934
0.0276289
0.0294041
0.0312169
0.0330652
0.0349462
0.036858
0.0387979
0.0407632
0.0427511
0.0447592
0.0467846
0.0488247
0.0508764
0.0529369
0.0550034
0.0570734
0.0591445
0.0612186
0.000249188
0.000351378
0.000737523
0.00121428
0.00177203
0.00240088
0.00309586
0.00385433
0.00467418
0.00555431
0.00649357
0.00749121
0.00854608
0.0096576
0.0108254
0.0120484
0.0133259
0.0146574
0.0160417
0.0174776
0.0189643
0.0205004
0.0220844
0.0237149
0.0253904
0.0271087
0.0288682
0.0306671
0.0325025
0.0343727
0.0362751
0.0382075
0.0401667
0.0421506
0.0441563
0.046181
0.048222
0.0502762
0.0523408
0.0544134
0.0564909
0.0585713
0.0606556
0.000249001
0.000342182
0.000715915
0.00117847
0.00172006
0.00233192
0.00300883
0.00374808
0.00454791
0.00540718
0.00632479
0.00730007
0.00833238
0.00942095
0.0105655
0.0117651
0.0130195
0.014328
0.0156895
0.0171032
0.0185681
0.0200829
0.0216467
0.023258
0.0249152
0.0266164
0.0283602
0.0301443
0.0319669
0.0338255
0.035718
0.0376419
0.0395947
0.0415734
0.0435757
0.0455987
0.0476395
0.0496952
0.051763
0.0538401
0.0559234
0.0580104
0.0600996
0.000248928
0.000334555
0.000696148
0.00114543
0.0016721
0.00226832
0.00292847
0.00364997
0.00443113
0.00527082
0.00616806
0.00712254
0.00813359
0.00920052
0.0103231
0.0115007
0.012733
0.0140195
0.0153592
0.0167514
0.0181951
0.0196896
0.0212338
0.022826
0.0244651
0.0261495
0.0278774
0.0296469
0.0314563
0.0333029
0.035185
0.0371001
0.0390453
0.0410182
0.0430163
0.0450367
0.0470765
0.0491326
0.0512024
0.0532827
0.0553704
0.0574623
0.0595559
0.000249181
0.000330337
0.000678032
0.00111497
0.00162771
0.00220927
0.00285378
0.00355866
0.00432231
0.00514363
0.00602204
0.006957
0.00794787
0.00899437
0.0100962
0.011253
0.0124643
0.0137298
0.0150486
0.01642
0.0178437
0.0193185
0.0208433
0.022417
0.0240383
0.025706
0.0274181
0.0291731
0.0309688
0.0328033
0.0346746
0.0365801
0.0385174
0.0404841
0.0424772
0.0444941
0.0465318
0.0485875
0.0506581
0.0527406
0.0548318
0.0569279
0.0590257
0.000250119
0.000329888
0.000661413
0.00108667
0.00158629
0.00215428
0.00278423
0.00347358
0.00422077
0.00502503
0.00588571
0.00680216
0.00777405
0.00880124
0.00988347
0.0110203
0.0122116
0.013457
0.0147558
0.0161075
0.0175117
0.0189672
0.0204734
0.0220289
0.023633
0.0252841
0.0269806
0.0287209
0.030503
0.0323252
0.0341853
0.0360809
0.0380098
0.0399693
0.0419568
0.0439695
0.0460046
0.0480588
0.0501298
0.0522138
0.0543079
0.056409
0.0585158
0.000251538
0.00033145
0.000646123
0.0010604
0.00154805
0.00210306
0.00271928
0.00339407
0.00412588
0.00491394
0.00575778
0.00665684
0.00761089
0.00861985
0.00968333
0.0108013
0.0119736
0.0131997
0.0144792
0.0158119
0.0171971
0.0186342
0.0201221
0.0216601
0.0232472
0.024882
0.026563
0.0282886
0.0300572
0.0318669
0.0337157
0.0356012
0.0375212
0.0394731
0.0414544
0.0434624
0.045494
0.0475465
0.0496167
0.0517016
0.0537982
0.0559035
0.058017
0.000253116
0.000333543
0.000632107
0.00103609
0.00151248
0.00205513
0.00265849
0.00331948
0.00403672
0.0048096
0.00563763
0.0065202
0.00745733
0.00844878
0.00949454
0.0105945
0.0117486
0.0129562
0.0142174
0.0155318
0.0168987
0.0183178
0.0197882
0.0213091
0.0228794
0.0244981
0.0261638
0.027875
0.02963
0.0314273
0.0332645
0.0351397
0.0370504
0.0389944
0.0409691
0.0429717
0.0449994
0.0470493
0.0491183
0.0512033
0.0533012
0.0554088
0.0575235
0.00025465
0.000335441
0.000619104
0.00101341
0.00147918
0.00201013
0.00260126
0.00324931
0.00395292
0.00471141
0.00552425
0.00639131
0.00731225
0.00828723
0.00931613
0.0103989
0.0115354
0.0127255
0.0139692
0.0152658
0.0166151
0.0180169
0.0194702
0.0209743
0.0225285
0.0241314
0.0257821
0.027479
0.0292205
0.0310049
0.0328305
0.0346952
0.0365964
0.0385322
0.0405
0.0424968
0.04452
0.0465666
0.0486338
0.0507182
0.0528169
0.0549265
0.0570444
0.000256057
0.000337011
0.000607108
0.00099227
0.00144793
0.00196774
0.00254727
0.00318315
0.00387386
0.00461861
0.0054172
0.00626942
0.00717514
0.00813435
0.00914717
0.0102135
0.0113333
0.0125066
0.0137331
0.0150127
0.0163452
0.0177302
0.0191668
0.0206547
0.022193
0.0237806
0.0254164
0.0270991
0.0288271
0.0305989
0.032413
0.0342669
0.0361585
0.0380857
0.0400459
0.0420368
0.0440548
0.0460981
0.0481629
0.0502463
0.0523454
0.0544567
0.0565786
0.000257322
0.000338281
0.000595929
0.000972339
0.00141848
0.00192776
0.00249634
0.00312061
0.00379903
0.00453082
0.00531595
0.00615417
0.00704524
0.00798941
0.00898688
0.0100374
0.0111411
0.0122981
0.0135084
0.0147717
0.016088
0.0174565
0.018877
0.020349
0.0218718
0.0234443
0.0250655
0.0267342
0.028449
0.0302084
0.0320106
0.0338537
0.0357355
0.0376539
0.0396066
0.0415908
0.0436037
0.0456428
0.0477049
0.0497869
0.0518858
0.0539987
0.0561234
0.000258395
0.000339081
0.000585343
0.000953488
0.0013906
0.00188993
0.00244817
0.00306145
0.00372813
0.00444764
0.00521984
0.00604461
0.00692177
0.00785158
0.00883431
0.00986974
0.0109581
0.0120997
0.0132942
0.0145418
0.0158421
0.0171949
0.0185999
0.0200565
0.021564
0.0231218
0.0247286
0.0263836
0.0280852
0.0298321
0.0316226
0.0334548
0.0353268
0.0372363
0.0391811
0.0411584
0.0431657
0.0452004
0.0472593
0.0493394
0.0514378
0.0535512
0.0556779
0.000259364
0.000339864
0.000575535
0.000935785
0.00136426
0.00185418
0.00240249
0.00300521
0.00366086
0.00436873
0.00512866
0.00594058
0.00680446
0.00772056
0.00868908
0.00971008
0.0107838
0.0119103
0.0130897
0.0143219
0.0156069
0.0169446
0.0183344
0.019776
0.0212687
0.022812
0.0244049
0.0260463
0.0277349
0.0294694
0.0312482
0.0330696
0.0349316
0.0368321
0.0387687
0.040739
0.0427404
0.0447703
0.0468255
0.0489031
0.0510001
0.0531134
0.0552398
0.000260284
0.000340292
0.000566352
0.000919083
0.00133939
0.00182037
0.00235908
0.00295179
0.00359683
0.00429358
0.00504175
0.00584144
0.00669259
0.00759548
0.00855045
0.00955769
0.0106172
0.0117293
0.0128941
0.0141116
0.0153818
0.0167046
0.0180797
0.0195067
0.020985
0.0225142
0.0240932
0.0257213
0.0273971
0.0291194
0.0308865
0.0326972
0.034549
0.0364403
0.0383686
0.0403317
0.042327
0.0443517
0.0464028
0.0484775
0.0505725
0.0526844
0.0548089
0.000261042
0.000340601
0.000558056
0.000903321
0.00131591
0.00178838
0.00231778
0.00290087
0.0035358
0.00422188
0.00495885
0.00574685
0.00658577
0.00747607
0.00841807
0.00941196
0.0104578
0.011556
0.0127068
0.0139101
0.015166
0.0164744
0.0178352
0.0192479
0.0207122
0.0222275
0.0237932
0.0254081
0.0270712
0.0287812
0.030537
0.0323367
0.0341785
0.0360606
0.0379806
0.0399363
0.0419251
0.0439441
0.045991
0.0480622
0.050155
0.052266
0.0543931
0.000261845
0.000341112
0.000551514
0.000888512
0.00129362
0.00175788
0.00227846
0.00285241
0.00347765
0.00415346
0.00487973
0.00565648
0.00648378