/*--------------------------------*- C++ -*----------------------------------*\
| =========                 |                                                 |
| \\      /  F ield         | OpenFOAM: The Open Source CFD Toolbox           |
|  \\    /   O peration     | Version:  2.3.0                                 |
|   \\  /    A nd           | Web:      www.OpenFOAM.org                      |
|    \\/     M anipulation  |                                                 |
\*---------------------------------------------------------------------------*/
FoamFile
{
    version     2.0;
    format      ascii;
    class       surfaceScalarField;
    location    "1000";
    object      phi;
}
// * * * * * * * * * * * * * * * * * * * * * * * * * * * * * * * * * * * * * //

dimensions      [0 3 -1 0 0 0 0];

internalField   nonuniform List<scalar> 
76310
(
0.00183964
-0.0042404
0.00459813
-0.00219755
0.00151547
-0.00405162
0.0043758
0.00122472
-0.00387175
0.00416249
0.000965736
-0.00369942
0.0039584
0.000737272
-0.00353436
0.00376282
0.000538057
-0.00337618
0.0035754
0.000366333
-0.00322444
0.00339616
0.000220993
-0.00307906
0.0032244
0.000100484
-0.00293948
0.00305999
3.88336e-06
-0.00280606
0.00290266
-7.05091e-05
-0.00267749
0.00275188
-0.000123535
-0.00255452
0.00260755
-0.000156355
-0.00243643
0.00246925
-0.000170192
-0.00232311
0.00233695
-0.000165936
-0.00221429
0.00221003
-0.000144778
-0.00210976
0.0020886
-0.000107238
-0.00200953
0.00197198
-5.4446e-05
-0.00191291
0.00186012
1.30281e-05
-0.00182019
0.00175272
9.38637e-05
-0.00173062
0.00164978
0.000187858
-0.00164484
0.00155085
0.000294297
-0.00156181
0.00145537
0.000412325
-0.00148192
0.00136389
0.000542304
-0.00140505
0.00127507
0.000682753
-0.00133029
0.00118984
0.000833341
-0.00125787
0.00110728
0.00099471
-0.00118861
0.00102724
0.00116578
-0.00112048
0.00094941
0.00134609
-0.00105465
0.000874344
0.00153679
-0.00099085
0.000800152
0.0017376
-0.000928966
0.000728152
0.00194822
-0.000868047
0.000657432
0.00217029
-0.000809501
0.00058743
0.00240313
-0.000751716
0.000518871
0.00264945
-0.000696206
0.000449891
0.00291208
-0.000642993
0.000380363
0.00319147
-0.000590724
0.000311332
0.00349283
-0.000541142
0.000239778
0.00382313
-0.000494824
0.000164528
0.00419238
-0.000453146
8.38998e-05
0.00461594
-0.000416813
-6.74771e-06
0.00513144
-0.000390602
-0.000124897
-0.000384818
0.00587114
-0.000354887
0.00172243
-0.00391183
-0.002051
0.00142681
-0.003756
0.00116166
-0.0036066
0.000925444
-0.00346321
0.000716681
-0.00332559
0.000533959
-0.00319346
0.000375948
-0.00306643
0.000241474
-0.00294458
0.000129497
-0.0028275
3.87535e-05
-0.00271532
-3.13854e-05
-0.00260735
-8.24544e-05
-0.00250345
-0.000115435
-0.00240345
-0.000130999
-0.00230755
-0.000129878
-0.00221541
-0.000113178
-0.00212646
-8.19994e-05
-0.0020407
-3.63808e-05
-0.00195853
2.24083e-05
-0.00187898
9.39155e-05
-0.00180213
0.000177512
-0.00172844
0.000272545
-0.00165684
0.000378496
-0.00158787
0.000494817
-0.00152137
0.000621065
-0.00145654
0.00075752
-0.00139432
0.000902899
-0.00133399
0.00105789
-0.00127548
0.00122199
-0.00121875
0.00139565
-0.0011645
0.00157826
-0.00111158
0.00177128
-0.00106107
0.00197461
-0.00101283
0.0021889
-0.000966006
0.00241528
-0.00092259
0.00265469
-0.000882404
0.00290867
-0.000844706
0.00318074
-0.000813212
0.00347153
-0.000785608
0.00378336
-0.00076498
0.00411878
-0.000752232
0.00448073
-0.000752554
-0.000764822
0.00486074
0.00160363
-0.00361492
-0.00190054
0.0013354
-0.00348778
0.00109417
-0.00336536
0.000878753
-0.00324779
0.000687738
-0.00313458
0.000520262
-0.00302598
0.000375042
-0.00292121
0.000251139
-0.00282068
0.000147483
-0.00272384
6.31863e-05
-0.00263102
-3.05452e-06
-0.00254111
-5.15563e-05
-0.00245495
-8.32827e-05
-0.00237172
-9.92129e-05
-0.00229162
-0.000100157
-0.00221446
-8.68898e-05
-0.00213973
-5.96228e-05
-0.00206797
-1.95216e-05
-0.00199863
3.30125e-05
-0.00193151
9.7698e-05
-0.00186681
0.00017335
-0.00180409
0.000260095
-0.00174359
0.000357059
-0.00168484
0.000463795
-0.00162811
0.00058026
-0.001573
0.000706078
-0.00152014
0.000841101
-0.00146901
0.000984278
-0.00141865
0.00113669
-0.00137117
0.00129705
-0.00132486
0.00146635
-0.00128089
0.00164411
-0.00123883
0.00182974
-0.00119846
0.00202496
-0.00116122
0.00222832
-0.00112595
0.00244117
-0.00109526
0.00266385
-0.00106739
0.00289533
-0.00104469
0.00313567
-0.00102595
0.00338491
-0.00101421
0.0036425
-0.00100982
0.00390311
-0.00101316
-0.00102351
0.00416179
0.0014882
-0.00334515
-0.00175797
0.00124373
-0.00324331
0.00102355
-0.00314519
0.00082647
-0.00305071
0.000651234
-0.00295934
0.000497239
-0.00287199
0.00036326
-0.00278723
0.000248395
-0.00270582
0.000151981
-0.00262743
7.25026e-05
-0.00255154
9.92808e-06
-0.00247853
-3.6913e-05
-0.00240811
-6.85176e-05
-0.00234012
-8.59638e-05
-0.00227417
-8.99188e-05
-0.00221051
-8.03004e-05
-0.00214935
-5.87662e-05
-0.00208951
-2.51391e-05
-0.00203226
1.9742e-05
-0.0019764
7.53442e-05
-0.00192241
0.000141478
-0.00187022
0.000217653
-0.00181976
0.000303133
-0.00177032
0.000397821
-0.0017228
0.00050133
-0.00167651
0.000612975
-0.00163178
0.000732647
-0.00158868
0.000860748
-0.00154675
0.000996557
-0.00150697
0.00113974
-0.00146804
0.00129021
-0.00143136
0.00144796
-0.00139658
0.00161326
-0.00136376
0.00178581
-0.00133377
0.00196571
-0.00130584
0.0021524
-0.00128195
0.00234721
-0.00126219
0.0025477
-0.00124518
0.00275573
-0.00123398
0.00296927
-0.00122776
0.00318748
-0.00122803
0.00340946
-0.00123515
-0.00124677
0.00363272
0.00137679
-0.00309964
-0.0016223
0.00115392
-0.00302044
0.000952575
-0.00294384
0.000772018
-0.00287015
0.000611696
-0.00279902
0.000469644
-0.00272994
0.000346281
-0.00266387
0.000239792
-0.00259933
0.000149687
-0.00253732
7.5499e-05
-0.00247735
1.64435e-05
-0.00241948
-2.84834e-05
-0.00236318
-5.99549e-05
-0.00230865
-7.80265e-05
-0.0022561
-8.3707e-05
-0.00220483
-7.75625e-05
-0.00215549
-6.01357e-05
-0.00210693
-3.17372e-05
-0.00206065
6.89251e-06
-0.00201503
5.55338e-05
-0.00197105
0.000113449
-0.00192814
0.000180548
-0.00188686
0.000256393
-0.00184616
0.000340617
-0.00180702
0.000432872
-0.00176876
0.000532784
-0.0017317
0.00064006
-0.00169596
0.000754801
-0.0016615
0.000875856
-0.00162803
0.001004
-0.00159619
0.00113867
-0.00156603
0.00127987
-0.00153778
0.00142781
-0.0015117
0.00158156
-0.00148752
0.00174156
-0.00146584
0.00190767
-0.00144806
0.00207826
-0.00143278
0.00225518
-0.0014221
0.00243713
-0.00141593
0.00262376
-0.00141439
0.00281425
-0.00141852
0.00300671
-0.00142761
-0.00144199
0.00320194
0.00127087
-0.00287516
-0.00149536
0.00106709
-0.00281665
0.000883117
-0.00275987
0.000717787
-0.00270482
0.000570129
-0.00265136
0.00044007
-0.00259988
0.000325682
-0.00254948
0.000227098
-0.00250074
0.000143566
-0.00245379
7.41183e-05
-0.00240791
1.81874e-05
-0.00236355
-2.4836e-05
-0.00232016
-5.50282e-05
-0.00227845
-7.38925e-05
-0.00223723
-8.11488e-05
-0.00219757
-7.76898e-05
-0.00215895
-6.35085e-05
-0.00212111
-4.01458e-05
-0.00208402
-6.7461e-06
-0.00204843
3.51537e-05
-0.00201295
8.63584e-05
-0.00197934
0.000145255
-0.00194576
0.000212472
-0.00191338
0.000286933
-0.00188148
0.00036937
-0.0018512
0.0004584
-0.00182073
0.000554438
-0.001792
0.000656822
-0.00176388
0.000765372
-0.00173658
0.000880114
-0.00171093
0.00100095
-0.00168687
0.00112795
-0.00166478
0.00125966
-0.00164342
0.00139739
-0.00162524
0.00154008
-0.00160854
0.00168783
-0.00159581
0.00184128
-0.00158623
0.00199874
-0.00157955
0.00216069
-0.00157788
0.00232654
-0.00158024
0.00249601
-0.00158799
0.00266811
-0.0015997
-0.00161619
0.0028423
0.00116997
-0.00267125
-0.00137388
0.000984182
-0.00263087
0.00081598
-0.00259166
0.000664435
-0.00255328
0.000529279
-0.00251621
0.000409046
-0.00247965
0.000303923
-0.00244436
0.000212829
-0.00240965
0.000134972
-0.00237593
7.01084e-05
-0.00234304
1.765e-05
-0.00231109
-2.29164e-05
-0.00227959
-5.23896e-05
-0.00224898
-7.08369e-05
-0.00221879
-7.91807e-05
-0.00218923
-7.78009e-05
-0.00216033
-6.69235e-05
-0.00213199
-4.67173e-05
-0.00210422
-1.8422e-05
-0.00207672
1.86443e-05
-0.00205002
6.29354e-05
-0.00202363
0.000115397
-0.00199822
0.000174817
-0.0019728
0.000241837
-0.0019485
0.000314738
-0.0019241
0.000394664
-0.00190065
0.000480637
-0.00187797
0.000572247
-0.00185549
0.000670069
-0.0018344
0.000773226
-0.00181409
0.000881881
-0.00179552
0.000994754
-0.00177765
0.00111383
-0.00176249
0.00123774
-0.00174915
0.0013661
-0.0017369
0.00149865
-0.00172837
0.00163584
-0.00172342
0.00177711
-0.00172082
0.00192158
-0.00172234
0.00207056
-0.00172923
0.00222239
-0.00173982
0.00237703
-0.00175435
-0.0017737
0.00253454
0.00107547
-0.00248524
-0.00126147
0.000905669
-0.00246107
0.0007517
-0.00243769
0.000612973
-0.00241455
0.000488832
-0.00239206
0.000378618
-0.00236943
0.000281777
-0.00234751
0.000197573
-0.00232544
0.000125554
-0.00230392
6.52911e-05
-0.00228278
1.61151e-05
-0.00226191
-2.2155e-05
-0.00224132
-5.05334e-05
-0.0022206
-6.89702e-05
-0.00220035
-7.77967e-05
-0.0021804
-7.77764e-05
-0.00216035
-6.91093e-05
-0.00214066
-5.22127e-05
-0.00212112
-2.74327e-05
-0.0021015
4.75629e-06
-0.00208221
4.42941e-05
-0.00206317
9.02612e-05
-0.00204419
0.00014355
-0.00202609
0.000202776
-0.00200773
0.000268661
-0.00198999
0.000340308
-0.0019723
0.000417288
-0.00195495
0.000499915
-0.00193812
0.000587815
-0.0019223
0.000680351
-0.00190662
0.000777843
-0.00189301
0.000880377
-0.00188018
0.000986605
-0.00186872
0.00109793
-0.00186048
0.00121445
-0.00185341
0.00133401
-0.00184794
0.00145675
-0.00184616
0.00158433
-0.0018484
0.00171513
-0.00185314
0.00184911
-0.0018632
0.00198645
-0.00187717
0.00212609
-0.00189398
-0.00191561
0.00226801
0.000987259
-0.00115693
-0.00231557
0.000832267
-0.00230608
0.000691596
-0.00229702
0.000564449
-0.0022874
0.000450398
-0.00227801
0.000349256
-0.00226829
0.000259981
-0.00225824
0.000182456
-0.00224792
0.000115961
-0.00223742
5.96913e-05
-0.00222651
1.39898e-05
-0.00221621
-2.23622e-05
-0.00220497
-4.901e-05
-0.00219395
-6.66011e-05
-0.00218276
-7.64274e-05
-0.00217057
-7.74184e-05
-0.00215936
-7.08159e-05
-0.00214726
-5.64152e-05
-0.00213552
-3.45704e-05
-0.00212335
-6.20877e-06
-0.00211057
2.88151e-05
-0.00209819
7.00448e-05
-0.00208542
0.000117054
-0.0020731
0.000170509
-0.00206119
0.000229003
-0.00204848
0.000293415
-0.00203671
0.000363021
-0.00202455
0.000437095
-0.00201219
0.000516295
-0.0020015
0.000599919
-0.00199025
0.000688125
-0.00198122
0.000780339
-0.0019724
0.000876508
-0.00196489
0.000977583
-0.00196156
0.0010813
-0.00195713
0.00118994
-0.00195658
0.0013018
-0.00195802
0.00141595
-0.00196255
0.00153284
-0.00197003
0.0016545
-0.00198486
0.00177801
-0.00200067
0.00190493
-0.0020209
0.00203288
-0.00204357
0.00606294
-0.000452769
0.000260967
0.00633412
-0.000566564
0.000295384
0.00660676
-0.000677993
0.000405356
0.00686639
-0.000783832
0.000524201
0.00711671
-0.000890388
0.000640067
0.00735237
-0.000988378
0.000752717
0.00757535
-0.00108431
0.000861334
0.00778245
-0.0011762
0.000969095
0.00797449
-0.00126629
0.00107425
0.00815126
-0.00135478
0.001178
0.00831298
-0.00144047
0.00127875
0.00846121
-0.00152829
0.00138006
0.00859444
-0.00161347
0.00148024
0.00871507
-0.00170029
0.00157966
0.00882303
-0.00178892
0.00168096
0.00891934
-0.00187725
0.00178095
0.00900309
-0.00196764
0.00188389
0.00907495
-0.00206046
0.0019886
0.00913545
-0.00215537
0.00209486
0.0091835
-0.00225259
0.00220454
0.00921796
-0.00235319
0.00231873
0.00924033
-0.00245707
0.0024347
0.0092464
-0.00256281
0.00255674
0.00923842
-0.00267418
0.00268217
0.00921424
-0.0027883
0.00281248
0.00917216
-0.00290655
0.00294862
0.00911048
-0.00302839
0.00309007
0.00902908
-0.00315596
0.00323736
0.00892673
-0.00328767
0.00339002
0.00880201
-0.00342447
0.0035492
0.00865458
-0.00356736
0.00371478
0.00848059
-0.00371384
0.00388783
0.00828084
-0.00386721
0.00406696
0.00805274
-0.00402614
0.00425425
0.00779609
-0.00419219
0.00444884
0.00750856
-0.00436371
0.00465124
0.00718848
-0.00454209
0.00486216
0.00683519
-0.00472854
0.00508183
0.00644651
-0.00492124
0.00530992
0.00602165
-0.00512278
0.00554764
0.00555783
-0.00533136
0.00579518
0.00505398
-0.00554919
0.00605303
-0.00577591
0.00632061
0.00450929
0.00521443
-0.000806459
0.0055212
-0.000873332
0.00579016
-0.000946959
0.00603018
-0.00102385
0.00624301
-0.00110322
0.00643765
-0.00118301
0.00661792
-0.00126459
0.00678703
-0.0013453
0.00694513
-0.00142439
0.00709411
-0.00150376
0.00723652
-0.00158288
0.00737042
-0.00166219
0.00749878
-0.00174183
0.00761733
-0.00181883
0.00772833
-0.00189993
0.00783012
-0.00197905
0.00792313
-0.00206065
0.0080057
-0.00214302
0.00807692
-0.00222659
0.00813719
-0.00231285
0.00818438
-0.00240039
0.00821754
-0.00249023
0.00823803
-0.00258331
0.00824136
-0.00267751
0.00822944
-0.00277638
0.0082009
-0.002878
0.00815426
-0.00298175
0.00808888
-0.00309058
0.00800312
-0.00320192
0.00789707
-0.00331841
0.00776768
-0.00343797
0.0076166
-0.00356276
0.00744084
-0.00369145
0.00724012
-0.00382542
0.00701241
-0.00396448
0.00675739
-0.00410869
0.00647304
-0.00425774
0.00615763
-0.00441313
0.00581114
-0.00457474
0.00543077
-0.00474241
0.00501594
-0.00491653
0.00456478
-0.00509803
-0.00528647
0.00407533
0.00441316
-0.00105783
0.00465194
-0.0011121
0.00487879
-0.00117381
0.00509422
-0.00123929
0.00529959
-0.00130859
0.00549444
-0.00137787
0.00568003
-0.00145017
0.00585468
-0.00151995
0.0060222
-0.00159191
0.00618123
-0.00166279
0.00633091
-0.00173256
0.00647187
-0.00180315
0.0066024
-0.00187236
0.00672686
-0.00194329
0.00683938
-0.00201244
0.00694406
-0.00208372
0.0070377
-0.00215429
0.00712161
-0.00222693
0.00719525
-0.00230024
0.00725618
-0.00237378
0.00730533
-0.00244954
0.00734229
-0.00252719
0.00736526
-0.00260627
0.0073752
-0.00268745
0.0073697
-0.00277089
0.00734755
-0.00285585
0.00731051
-0.00294471
0.007256
-0.00303606
0.00718318
-0.0031291
0.00709093
-0.00322617
0.00697952
-0.00332656
0.00684668
-0.00342993
0.0066924
-0.00353717
0.00651427
-0.00364729
0.00631244
-0.00376264
0.00608518
-0.00388143
0.00583158
-0.00400414
0.00555051
-0.00413207
0.00524066
-0.00426489
0.00490047
-0.00440222
0.00452914
-0.0045452
0.0041245
-0.0046934
-0.00484809
0.00368613
0.00385196
-0.00127706
0.00406592
-0.00132607
0.00427096
-0.00137885
0.00446717
-0.0014355
0.00465486
-0.00149628
0.00483479
-0.00155779
0.00500545
-0.00162083
0.00516956
-0.00168406
0.00532542
-0.00174777
0.00547301
-0.00181038
0.00561353
-0.00187308
0.00574563
-0.00193525
0.00587093
-0.00199767
0.00598676
-0.00205912
0.00609594
-0.00212162
0.00619491
-0.00218269
0.00628561
-0.00224499
0.00636604
-0.00230736
0.00643592
-0.00237012
0.00649632
-0.00243418
0.00654528
-0.0024985
0.00658298
-0.00256489
0.00660717
-0.00263046
0.00661966
-0.00269994
0.00661797
-0.0027692
0.00660245
-0.00284033
0.00657181
-0.00291407
0.00652477
-0.00298902
0.00646254
-0.00306687
0.00638222
-0.00314585
0.00628323
-0.00322757
0.00616537
-0.00331206
0.00602799
-0.00339979
0.00587003
-0.00348933
0.00568959
-0.00358221
0.00548583
-0.00367767
0.00525914
-0.00377745
0.005007
-0.00387993
0.00472912
-0.00398701
0.00442442
-0.00409751
0.00409114
-0.00421192
0.00372819
-0.00433045
-0.0044532
0.00333329
0.00339574
-0.00147087
0.00358398
-0.00151431
0.00376755
-0.00156241
0.00394507
-0.00161302
0.00411618
-0.00166739
0.00428094
-0.00172255
0.00443866
-0.00177855
0.00459081
-0.00183621
0.00473482
-0.00189177
0.00487258
-0.00194815
0.00500385
-0.00200435
0.00512787
-0.00205927
0.00524414
-0.00211394
0.00535355
-0.00216853
0.0054544
-0.00222247
0.00554832
-0.00227661
0.00563317
-0.00232985
0.0057091
-0.00238328
0.00577619
-0.0024372
0.00583332
-0.00249132
0.00588022
-0.00254539
0.00591633
-0.002601
0.00594186
-0.00265599
0.00595475
-0.00271283
0.00595548
-0.00276994
0.00594394
-0.00282879
0.00591744
-0.00288757
0.00587773
-0.00294931
0.00582195
-0.00301109
0.00575104
-0.00307494
0.00566376
-0.00314029
0.00555888
-0.00320719
0.00543581
-0.00327672
0.00529415
-0.00334766
0.00513225
-0.00342032
0.00495016
-0.00349558
0.00474676
-0.00357404
0.00452074
-0.00365391
0.00427077
-0.00373704
0.00399621
-0.00382296
0.00369635
-0.00391205
0.00336993
-0.00400403
-0.00409901
0.00301574
0.0030159
-0.00164446
0.00318566
-0.00168407
0.00335098
-0.00172773
0.00351182
-0.00177387
0.00366758
-0.00182315
0.00381789
-0.00187286
0.00396335
-0.00192402
0.00410101
-0.00197387
0.00423434
-0.0020251
0.00436133
-0.00207513
0.00448115
-0.00212417
0.00459521
-0.00217333
0.00470348
-0.00222221
0.00480509
-0.00227014
0.00489879
-0.00231617
0.00498528
-0.00236311
0.0050636
-0.00240817
0.00513494
-0.00245462
0.0051969
-0.00249917
0.00525038
-0.0025448
0.00529474
-0.00258975
0.00532867
-0.00263493
0.00535305
-0.00268036
0.00536637
-0.00272615
0.00536833
-0.0027719
0.00535841
-0.00281887
0.00533698
-0.00286613
0.00530122
-0.00291355
0.0052523
-0.00296216
0.00518937
-0.00301202
0.0051107
-0.00306161
0.00501761
-0.0031141
0.00490722
-0.00316632
0.00477956
-0.00322
0.00463447
-0.00327523
0.00447062
-0.00333173
0.00428723
-0.00339065
0.00408343
-0.00345011
0.00385881
-0.00351241
0.0036122
-0.00357635
0.00334194
-0.00364179
0.00304732
-0.00370941
-0.00377959
0.0027279
0.00269071
-0.00180063
0.00284397
-0.00183733
0.00299387
-0.00187764
0.00313968
-0.00191969
0.00328134
-0.0019648
0.00341856
-0.00201008
0.00354994
-0.00205539
0.00367669
-0.00210063
0.00379816
-0.00214656
0.0039141
-0.00219108
0.00402449
-0.00223456
0.00413025
-0.00227908
0.00422889
-0.00232085
0.00432141
-0.00236267
0.00440837
-0.00240313
0.00448764
-0.00244237
0.0045611
-0.00248163
0.0046259
-0.00251942
0.00468427
-0.00255754
0.00473328
-0.00259381
0.00477476
-0.00263123
0.00480682
-0.00266699
0.00483027
-0.00270382
0.00484243
-0.00273831
0.00484591
-0.00277538
0.0048378
-0.00281076
0.00481818
-0.00284651
0.00478732
-0.0028827
0.0047437
-0.00291854
0.00468687
-0.0029552
0.00461685
-0.00299159
0.00453205
-0.0030293
0.00443263
-0.0030669
0.00431844
-0.00310582
0.00418762
-0.00314441
0.00404003
-0.00318414
0.00387446
-0.00322507
0.00369187
-0.00326753
0.00348892
-0.00330947
0.00326584
-0.00335327
0.00302249
-0.00339845
0.00275706
-0.00344397
-0.00349138
0.00246884
0.00240958
-0.0019422
0.0025485
-0.00197625
0.00268448
-0.00201362
0.00281761
-0.00205282
0.00294493
-0.00209212
0.00307022
-0.00213538
0.00318993
-0.0021751
0.00330521
-0.00221591
0.00341576
-0.00225711
0.0035216
-0.00229693
0.00362301
-0.00233597
0.00371916
-0.00237523
0.00381054
-0.00241222
0.00389504
-0.00244717
0.00397446
-0.00248255
0.00404769
-0.0025156
0.00411425
-0.00254819
0.00417435
-0.00257951
0.00422702
-0.00261021
0.00427335
-0.00264014
0.00431149
-0.00266937
0.0043413
-0.00269681
0.00436229
-0.0027248
0.0043754
-0.00275143
0.00437836
-0.00277834
0.00437111
-0.00280351
0.00435444
-0.00282983
0.00432653
-0.00285478
0.00428772
-0.00287974
0.00423644
-0.00290392
0.0041737
-0.00292884
0.00409777
-0.00295337
0.00400854
-0.00297767
0.00390454
-0.00300182
0.0037866
-0.00302647
0.00365359
-0.00305113
0.00350493
-0.00307641
0.00333873
-0.00310132
0.00315605
-0.0031268
0.00295502
-0.00315223
0.00273497
-0.00317839
0.00249549
-0.00320449
-0.00323143
0.00223554
0.00216259
-0.0020719
0.00228972
-0.00210338
0.00241277
-0.00213667
0.00253415
-0.00217419
0.00265027
-0.00220824
0.0027641
-0.00224921
0.00287319
-0.00228418
0.00297817
-0.00232089
0.00307909
-0.00235804
0.00317553
-0.00239336
0.00327019
-0.00243064
0.00335808
-0.00246313
0.00344008
-0.00249422
0.00351852
-0.0025256
0.00359038
-0.00255441
0.00365794
-0.00258316
0.0037192
-0.00260946
0.00377327
-0.00263358
0.00382249
-0.00265943
0.00386529
-0.00268294
0.00389977
-0.00270385
0.00392713
-0.00272417
0.00394614
-0.0027438
0.00395824
-0.00276353
0.00396151
-0.00278161
0.00395617
-0.00279817
0.0039411
-0.00281476
0.00391546
-0.00282914
0.00387953
-0.00284382
0.00383391
-0.0028583
0.00377667
-0.0028716
0.0037082
-0.00288491
0.00362655
-0.00289602
0.00353306
-0.00290834
0.00342657
-0.00291997
0.00330593
-0.0029305
0.00317116
-0.00294164
0.0030218
-0.00295196
0.00285575
-0.00296075
0.00267424
-0.00297072
0.00247518
-0.00297934
0.00225937
-0.00298869
0.00202417
-0.00299623
-9.50726e-05
0.00613819
-0.0066844
0.000641284
0.000407666
0.0059223
-0.00642504
0.000871347
0.00571227
-0.00617595
0.00129755
0.00551061
-0.00593682
0.00168882
0.00531661
-0.00570788
0.00204482
0.00512879
-0.00548479
0.00236565
0.00495087
-0.00527169
0.00265294
0.00477893
-0.00506622
0.0029111
0.00461078
-0.00486894
0.00313973
0.00444853
-0.00467716
0.00333469
0.00429616
-0.00449112
0.00350422
0.00414524
-0.00431477
0.003648
0.00400003
-0.00414382
0.00376187
0.00386229
-0.00397615
0.00385166
0.00372422
-0.00381401
0.00391518
0.00359522
-0.00365874
0.00395641
0.00346732
-0.00350854
0.00397089
0.00334472
-0.00335919
0.00396285
0.0032248
-0.00321676
0.00393425
0.00310585
-0.00307724
0.00388337
0.00299156
-0.00294068
0.00381171
0.00287988
-0.00280822
0.00372163
0.00276938
-0.00267929
0.00361173
0.00266235
-0.00255245
0.00348476
0.00255664
-0.00242967
0.00334148
0.00245263
-0.00230934
0.00318257
0.00235068
-0.00219177
0.00301013
0.00225025
-0.00207781
0.00282524
0.00215134
-0.00196646
0.00262944
0.0020536
-0.0018578
0.00242416
0.00195736
-0.00175208
0.0022111
0.00186208
-0.00164903
0.00199187
0.00176837
-0.00154913
0.00176827
0.0016747
-0.0014511
0.00154208
0.00158193
-0.00135574
0.00131502
0.00148935
-0.00126228
0.0010894
0.00139596
-0.00117034
0.00086728
0.00130131
-0.00107918
0.000651417
0.00120384
-0.000987969
0.000444696
0.00110128
-0.000894559
0.000252717
0.000987246
-0.000795263
8.476e-05
0.000848368
-0.000680405
0.000651854
-6.22544e-05
-0.000504832
-9.40536e-05
0.00564387
0.000588377
0.00036326
0.00546498
0.000785375
0.00529016
0.00117067
0.00512532
0.0015249
0.00496238
0.00184414
0.00480955
0.00213613
0.00465888
0.00239725
0.00451782
0.00263132
0.00437671
0.00283612
0.00424372
0.00301594
0.00411635
0.00316851
0.00399267
0.00329777
0.00387077
0.00340345
0.00375661
0.00348392
0.00364375
0.00354273
0.00353642
0.00357955
0.0034305
0.00359674
0.00332752
0.00359386
0.00322768
0.00356902
0.00313068
0.00352598
0.0030346
0.00346493
0.00294094
0.00338633
0.00284797
0.0032896
0.00275908
0.00317713
0.00266911
0.00304907
0.00258069
0.00290703
0.00249273
0.00275194
0.00240534
0.00258467
0.00231861
0.00240639
0.00223188
0.0022187
0.00214505
0.00202265
0.00205815
0.00182055
0.00197047
0.00161309
0.00188215
0.00140219
0.00179283
0.00119016
0.00170138
0.00097836
0.00160776
0.000769311
0.00151035
0.00056596
0.00140719
0.000372044
0.0012952
0.000193521
0.00116577
3.96578e-05
0.00100223
0.000785015
-9.35013e-05
-8.98116e-05
0.0051965
0.000537175
0.000322648
0.00505252
0.000704288
0.00490852
0.00105497
0.00477463
0.00137468
0.00464267
0.00166542
0.00451881
0.00192961
0.00439468
0.0021668
0.00428063
0.00237696
0.00416655
0.00256251
0.00405817
0.00272512
0.00395373
0.0028646
0.00385319
0.00298118
0.00375419
0.00307665
0.00366114
0.00315108
0.00356932
0.00320622
0.00348128
0.00324211
0.0033946
0.00325848
0.00331115
0.00325539
0.00323077
0.00323672
0.00314936
0.00319845
0.00307287
0.00314434
0.00299505
0.00307261
0.00291969
0.0029884
0.00284329
0.00288834
0.00276917
0.00277405
0.00269498
0.00264672
0.00262005
0.00250663
0.00254543
0.00235539
0.00246985
0.00219361
0.00239366
0.00202242
0.00231624
0.00184337
0.00223719
0.00165727
0.00215657
0.00146613
0.0020733
0.00127134
0.00198761
0.00107422
0.00189851
0.000877414
0.00180457
0.000682603
0.00170516
0.000492886
0.0015969
0.000312283
0.0014758
0.000146931
0.00133112
4.9735e-06
0.00114419
0.000910106
-0.000120118
-8.65577e-05
0.00479172
0.000491337
0.000289391
0.00467658
0.000634594
0.00456332
0.000951204
0.00445802
0.00124096
0.00435292
0.00150613
0.00425363
0.00174442
0.00415639
0.00195998
0.00406507
0.00215092
0.00397561
0.00231908
0.00389001
0.00246645
0.00380636
0.00259299
0.00372665
0.0026968
0.00365038
0.00278386
0.00357408
0.00285194
0.00350124
0.00290113
0.00343209
0.00293337
0.00336237
0.00294839
0.00329613
0.00294627
0.00323289
0.00292891
0.00316672
0.00289624
0.00310553
0.00285003
0.00304127
0.00278664
0.00298307
0.00271046
0.00291947
0.00262118
0.00285846
0.00251904
0.00279712
0.00240434
0.00273475
0.00227845
0.00267132
0.00214159
0.00260671
0.00199518
0.00254007
0.00183995
0.00247146
0.00167686
0.00240029
0.00150691
0.00232651
0.00133163
0.00224858
0.00115253
0.00216671
0.000971307
0.00207973
0.000789414
0.00198646
0.000609471
0.00188511
0.0004342
0.00177218
0.000267523
0.00164248
0.000115549
0.0014831
-1.39481e-05
0.00127369
0.00102624
-0.000130077
-8.13232e-05
0.00442305
0.000449994
0.000258878
0.00433637
0.000570296
0.0042519
0.00085896
0.00416936
0.00112325
0.00408863
0.00136277
0.00401412
0.00157777
0.00394139
0.00177213
0.00387071
0.00194384
0.00380391
0.00209888
0.00373496
0.00223138
0.00367386
0.00234548
0.00361256
0.00244269
0.00355316
0.00252129
0.00349548
0.00258123
0.00344131
0.0026283
0.00338501
0.00265662
0.00333406
0.00267026
0.00328249
0.00267082
0.00323233
0.00265426
0.00318328
0.00262676
0.00313303
0.00258236
0.00308567
0.00252855
0.00303688
0.00245962
0.0029884
0.00237988
0.0029382
0.00228726
0.00288974
0.00218437
0.00283764
0.00207069
0.002785
0.00194725
0.00273015
0.00181462
0.00267271
0.00167367
0.00261241
0.00152518
0.00254878
0.00137058
0.00248111
0.00121059
0.00240857
0.0010466
0.0023307
0.000880055
0.00224628
0.000712966
0.00215355
0.000547587
0.00205049
0.000386028
0.00193373
0.000232769
0.00179574
9.36372e-05
0.00162223
-2.42106e-05
0.00139153
0.00113333
-0.000131303
-7.82104e-05
0.00408999
0.000411273
0.00023019
0.00402797
0.000516162
0.00396592
0.000777691
0.00390783
0.00101451
0.0038518
0.00123078
0.00379785
0.00142661
0.00374556
0.00160402
0.0036933
0.00176286
0.00364508
0.00189923
0.00359858
0.00201903
0.00355406
0.00212437
0.00350722
0.00221123
0.00346631
0.00228144
0.00342528
0.00233909
0.00338365
0.00237833
0.00334578
0.00240679
0.0033056
0.00241843
0.00327085
0.00241962
0.00323114
0.00240587
0.00319702
0.00237926
0.00315965
0.00234169
0.00312324
0.00229328
0.00308529
0.00223173
0.00304995
0.00215931
0.00301062
0.00207606
0.00297299
0.0019838
0.0029299
0.00188149
0.00288732
0.00176997
0.00284167
0.00164975
0.00279293
0.00152198
0.00274017
0.00138735
0.00268342
0.00124659
0.00262186
0.00110036
0.0025548
0.000950601
0.00248046
0.000798358
0.00239852
0.000645198
0.00230671
0.000493161
0.00220252
0.00034503
0.00208186
0.000204563
0.0019362
7.75443e-05
0.00174925
-2.97716e-05
0.00149885
0.00123233
-0.000128774
-7.38922e-05
0.00378822
0.000375666
0.000207373
0.00374671
0.000464106
0.00370919
0.0007002
0.00367174
0.00091606
0.00363594
0.00111356
0.00360036
0.00129241
0.0035667
0.0014529
0.00353281
0.00159513
0.00350284
0.00172071
0.00347301
0.00183205
0.00344272
0.00192487
0.0034144
0.00200328
0.00338789
0.00206928
0.00335928
0.00211882
0.00333411
0.00215772
0.00330688
0.00218026
0.00328306
0.00219436
0.00325674
0.00219357
0.00323193
0.00218242
0.00320817
0.00215841
0.00318366
0.00212573
0.00315592
0.00207812
0.0031329
0.00202375
0.00310432
0.00195868
0.0030757
0.00188643
0.00304523
0.00180154
0.00301479
0.00170895
0.0029799
0.00160803
0.0029426
0.0014993
0.00290167
0.00138354
0.00285593
0.00126127
0.00280569
0.00113316
0.00274997
0.00100057
0.00268739
0.000864055
0.00261698
0.000724769
0.00253781
0.000584483
0.002447
0.00044521
0.0023418
0.00030946
0.00221761
0.000181372
0.00206429
6.55656e-05
0.00186505
-3.28872e-05
0.0015973
0.00132488
-0.000125434
-6.8603e-05
0.00351364
0.000343174
0.00018545
0.00349266
0.000419152
0.00347549
0.000634639
0.00345625
0.00083144
0.00343914
0.00101004
0.00342175
0.00117232
0.00340442
0.00131616
0.00338898
0.00144553
0.00337347
0.0015588
0.00335974
0.00165749
0.00334403
0.00174399
0.00332791
0.00181601
0.00331587
0.00187382
0.00330147
0.0019211
0.00328683
0.00195411
0.00327387
0.00197868
0.00325849
0.00198861
0.00324681
0.00198831
0.00323223
0.00197734
0.00321914
0.00195788
0.00320311
0.00192561
0.0031882
0.0018867
0.00317181
0.00183725
0.00315377
0.0017789
0.00313405
0.00171012
0.00311402
0.00163522
0.00308969
0.00155203
0.00306309
0.00146035
0.00303428
0.00136189
0.00300013
0.00125676
0.00296106
0.00114558
0.00291687
0.0010296
0.00286596
0.000908983
0.002808
0.000784624
0.00274134
0.000658598
0.00266384
0.000530252
0.00257534
0.000402587
0.00246946
0.000278705
0.0023415
0.000161441
0.00218156
5.63435e-05
0.00197015
-3.29472e-05
0.00168659
0.0014111
-0.000119168
-6.2825e-05
0.00326183
0.000314644
0.000166493
0.00326334
0.000379469
0.00326251
0.000573825
0.00326189
0.000752087
0.00326088
0.000914062
0.00325978
0.00105958
0.0032589
0.00119099
0.00325756
0.00131004
0.00325443
0.00141457
0.00325521
0.0015051
0.0032535
0.00158105
0.00325195
0.00164685
0.00325007
0.00170052
0.0032478
0.00174172
0.00324564
0.00177451
0.00324108
0.00179316
0.00323984
0.00180335
0.00323662
0.00180284
0.00323274
0.00179426
0.00322772
0.0017751
0.00322228
0.00174741
0.00321589
0.00171107
0.00320814
0.00166801
0.00319683
0.00161459
0.00318747
0.00155469
0.00317391
0.00148606
0.00315832
0.00140988
0.00313927
0.00132715
0.003117
0.00123704
0.00309024
0.00114145
0.00305665
0.00104142
0.00301689
0.000936458
0.00297093
0.000827022
0.00291744
0.000714127
0.00285423
0.000598087
0.00277988
0.000480327
0.0026931
0.000363458
0.00258633
0.000250563
0.00245439
0.000144976
0.00228714
5.13732e-05
0.00206375
-3.35462e-05
0.00177151
-0.000120281
0.00149783
-0.000221707
0.000524183
-0.000364726
-0.000356839
0.000587259
-0.000452124
-0.000493836
0.000639952
-0.000502954
-0.000631957
0.000683605
-0.000545481
-0.000770512
0.000723438
-0.000584882
-0.000908755
0.000761737
-0.000623493
-0.00104606
0.000799772
-0.000662461
-0.00118198
0.000838124
-0.000702206
-0.00131587
0.000877005
-0.000743115
-0.00144732
0.000916909
-0.000785463
-0.00157603
0.000958047
-0.000829334
-0.00170158
0.00100045
-0.000874905
-0.00182331
0.00104435
-0.000922621
-0.00194094
0.00108982
-0.000972195
-0.00205411
0.00113711
-0.00102394
-0.00216231
0.00118638
-0.00107818
-0.00226515
0.00123746
-0.00113462
-0.00236187
0.00129071
-0.00119398
-0.00245224
0.00134639
-0.00125602
-0.00253584
0.00140441
-0.00132081
-0.00261176
0.00146484
-0.00138893
-0.00267982
0.00152819
-0.00146013
-0.00273927
0.00159426
-0.00153481
-0.00278953
0.00166339
-0.00161313
-0.00282969