/*--------------------------------*- C++ -*----------------------------------*\
| =========                 |                                                 |
| \\      /  F ield         | OpenFOAM: The Open Source CFD Toolbox           |
|  \\    /   O peration     | Version:  2.3.0                                 |
|   \\  /    A nd           | Web:      www.OpenFOAM.org                      |
|    \\/     M anipulation  |                                                 |
\*---------------------------------------------------------------------------*/
FoamFile
{
    version     2.0;
    format      ascii;
    class       volScalarField;
    location    "6000";
    object      nuTilda;
}
// * * * * * * * * * * * * * * * * * * * * * * * * * * * * * * * * * * * * * //

dimensions      [0 2 -1 0 0 0 0];

internalField   nonuniform List<scalar> 
14036
(
0.0544437
0.0512922
0.0482127
0.045233
0.0423682
0.0396334
0.037049
0.0346361
0.0324107
0.0303948
0.0286102
0.0270407
0.0255409
0.0240601
0.0226137
0.0212125
0.0198581
0.0185467
0.0172713
0.0160203
0.0147772
0.0135208
0.0122568
0.0112242
0.0581715
0.0555444
0.0529987
0.0505431
0.0481815
0.0459173
0.0437551
0.0416987
0.0397515
0.0379192
0.0362065
0.0346183
0.0331538
0.0318135
0.0306028
0.0295296
0.0286011
0.0278246
0.0272075
0.0267534
0.0264662
0.0263464
0.0263934
0.0266053
0.0615113
0.0593128
0.0571949
0.0551586
0.0532049
0.0513363
0.0495547
0.0478628
0.0462627
0.0447585
0.0433533
0.0420505
0.0408552
0.0397706
0.0388024
0.0379555
0.0372356
0.0366467
0.036194
0.0358797
0.035704
0.0356655
0.0357598
0.0359797
0.0644889
0.0626447
0.0608724
0.0591697
0.0575376
0.0559767
0.0544889
0.0530759
0.0517397
0.0504828
0.0493083
0.0482196
0.0472204
0.0463156
0.0455088
0.0448051
0.044209
0.0437248
0.0433553
0.0431042
0.0429716
0.0429569
0.043058
0.0432692
0.0671315
0.0655824
0.0640889
0.0626517
0.0612718
0.0599503
0.0586886
0.0574881
0.0563505
0.0552771
0.0542719
0.0533379
0.052479
0.051699
0.0510029
0.0503949
0.0498792
0.0494608
0.049143
0.0489286
0.0488197
0.0488166
0.0489181
0.0491211
0.0694827
0.0681699
0.0669004
0.0656743
0.0644931
0.0633584
0.0622719
0.0612348
0.0602485
0.0593147
0.0584362
0.0576169
0.0568606
0.0561714
0.0555542
0.0550139
0.0545545
0.0541806
0.0538968
0.0537064
0.0536112
0.0536135
0.0537129
0.0539073
0.0715647
0.0704472
0.0693593
0.0683023
0.0672782
0.0662899
0.0653397
0.0644297
0.0635611
0.0627354
0.0619548
0.0612229
0.0605439
0.0599225
0.0593639
0.0588732
0.058455
0.058114
0.0578547
0.0576804
0.0575944
0.0575988
0.0576947
0.0578815
0.0734135
0.0724529
0.0715131
0.0705928
0.0696937
0.0688213
0.0679783
0.0671676
0.0663915
0.0656512
0.0649483
0.0642856
0.0636666
0.063097
0.062583
0.0621303
0.061743
0.061427
0.0611863
0.0610245
0.0609448
0.0609499
0.0610418
0.0612214
0.0750516
0.0742205
0.0734023
0.072595
0.0717963
0.0710162
0.0702575
0.0695247
0.0688212
0.0681491
0.0675099
0.066904
0.0663341
0.0658042
0.0653247
0.0649024
0.0645383
0.0642421
0.0640167
0.0638653
0.0637914
0.0637965
0.0638827
0.0640564
0.0765103
0.0757776
0.075051
0.0743428
0.0736266
0.0729239
0.0722285
0.0715541
0.0709062
0.0702867
0.0696991
0.0691456
0.0686182
0.0681181
0.0676625
0.0672728
0.0669249
0.0666487
0.0664373
0.0662958
0.0662296
0.0662383
0.0663137
0.0664844
0.0122226
0.0145055
0.0160047
0.0174489
0.0190138
0.0207453
0.0226435
0.0246949
0.0268831
0.0291954
0.0316198
0.034147
0.0367694
0.0394808
0.042275
0.0451458
0.0480869
0.0510917
0.054153
0.0572629
0.0604137
0.0635962
0.0668019
0.0700391
0.0269634
0.0274814
0.0281841
0.0290749
0.0301515
0.0314067
0.0328294
0.0344079
0.0361288
0.0379788
0.039945
0.0420162
0.0441827
0.0464355
0.0487664
0.0511682
0.0536343
0.0561587
0.0587359
0.0613595
0.0640237
0.0667226
0.0694503
0.0722159
0.0363133
0.0367716
0.0373732
0.0381207
0.0390136
0.040048
0.0412176
0.0425153
0.0439322
0.0454589
0.0470861
0.0488053
0.050609
0.0524893
0.0544396
0.0564536
0.0585258
0.0606509
0.0628243
0.0650413
0.0672975
0.0695886
0.0719117
0.074272
0.0435844
0.0440092
0.0445548
0.0452221
0.0460102
0.0469152
0.047932
0.0490549
0.0502765
0.0515893
0.0529859
0.0544589
0.0560021
0.0576091
0.0592741
0.0609921
0.0627584
0.0645692
0.0664204
0.0683085
0.0702308
0.0721838
0.0741651
0.0761837
0.0494212
0.049822
0.0503301
0.0509445
0.0516633
0.0524826
0.0533969
0.0544007
0.0554871
0.0566495
0.0578814
0.059176
0.0605273
0.0619301
0.0633794
0.0648708
0.0663998
0.0679636
0.0695596
0.0711846
0.0728365
0.0745128
0.0762109
0.0779373
0.0541942
0.0545758
0.0550555
0.0556309
0.0562995
0.057057
0.0578976
0.0588152
0.0598034
0.0608555
0.0619652
0.0631266
0.0643339
0.0655821
0.0668666
0.068183
0.0695274
0.0708973
0.0722906
0.0737052
0.0751392
0.0765909
0.0780588
0.0795448
0.0581571
0.0585227
0.0589793
0.0595244
0.0601547
0.0608652
0.0616499
0.0625022
0.0634157
0.0643838
0.0654
0.066459
0.0675553
0.068684
0.0698405
0.0710198
0.0722181
0.073434
0.0746657
0.0759112
0.0771688
0.0784372
0.0797153
0.081002
0.0614871
0.0618384
0.0622759
0.0627965
0.0633965
0.0640702
0.0648109
0.0656119
0.0664668
0.0673689
0.0683115
0.0692896
0.0702987
0.071334
0.0723899
0.0734594
0.0745399
0.0756316
0.0767334
0.0778428
0.0789564
0.0800744
0.0811956
0.0823216
0.0643146
0.0646507
0.0650735
0.0655722
0.0661482
0.0667933
0.0674977
0.0682573
0.0690653
0.0699149
0.070797
0.0717096
0.0726495
0.0736114
0.0745888
0.0755668
0.0765498
0.0775406
0.0785379
0.0795382
0.080531
0.0815259
0.0825168
0.0835118
0.0667454
0.0670555
0.0674677
0.0679424
0.0685034
0.0691288
0.0697983
0.0705252
0.0712955
0.0721026
0.0729289
0.0737891
0.0746758
0.0755792
0.0764963
0.0773883
0.0782914
0.0792038
0.0801213
0.0810394
0.0819171
0.0828128
0.0836949
0.0845936
0.0711898
0.0653701
0.0600719
0.0552138
0.050725
0.0465489
0.0426405
0.0389646
0.0354964
0.0322179
0.0291167
0.0261869
0.0234272
0.0208395
0.0184246
0.0161775
0.0140955
0.0121848
0.0104754
0.00905383
0.00787767
0.00668606
0.00537653
0.00383315
0.0727928
0.0677516
0.0631534
0.0589332
0.0550311
0.0513977
0.0479921
0.0447822
0.0417435
0.0388564
0.0361058
0.0334822
0.0309907
0.0286529
0.0264967
0.0245168
0.0226485
0.0208153
0.0189617
0.0170573
0.0150788
0.0129829
0.0107121
0.00819455
0.074547
0.0702151
0.0662652
0.062647
0.0593115
0.0562173
0.05333
0.05062
0.048065
0.0456525
0.0433594
0.0411514
0.0389966
0.0368718
0.0347596
0.0326469
0.030511
0.028325
0.026058
0.0236742
0.0211386
0.0184123
0.015457
0.0122332
0.0763925
0.0726917
0.0693312
0.0662629
0.0634504
0.0608621
0.0584711
0.0562403
0.0541047
0.0520117
0.049932
0.0478462
0.04574
0.0435974
0.0414046
0.0391458
0.0368018
0.0343523
0.031769
0.0290231
0.0260779
0.0228994
0.0194498
0.0156968
0.0782677
0.0751325
0.0722913
0.0697104
0.0673639
0.0652237
0.0632233
0.0612821
0.0593515
0.0574013
0.0554123
0.0533712
0.0512653
0.0490827
0.0468102
0.0444311
0.041928
0.0392775
0.0364545
0.0334275
0.0301645
0.0266294
0.0227865
0.0186015
0.080135
0.0774916
0.0751013
0.0729429
0.0709913
0.0691674
0.0673878
0.0656051
0.0637892
0.0619201
0.0599821
0.057963
0.0558501
0.0536321
0.0512942
0.0488204
0.0461909
0.0433821
0.0403669
0.0371148
0.0335916
0.029762
0.0255872
0.0210328
0.0819683
0.0797391
0.0777328
0.075928
0.0742508
0.0726147
0.0709699
0.0692874
0.0675477
0.065734
0.0638319
0.0618274
0.0597082
0.0574611
0.0550713
0.0525209
0.0497891
0.0468514
0.0436788
0.0402395
0.0364986
0.0324173
0.027957
0.0230806
0.0837304
0.0818507
0.0801673
0.0786152
0.0771095
0.0755969
0.0740461
0.0724366
0.0707533
0.0689831
0.0671093
0.0651163
0.0629914
0.0607212
0.0582899
0.0556767
0.0528606
0.0498157
0.0465118
0.0429148
0.0389866
0.0346878
0.0299782
0.0248174
0.0853808
0.0838109
0.0823738
0.0809854
0.0795972
0.078174
0.0766958
0.0751463
0.0735089
0.0717739
0.0699255
0.0679413
0.0658109
0.0635217
0.061057
0.0583916
0.0555046
0.0523708
0.0489574
0.0452258
0.041135
0.0366467
0.0317202
0.0263104
0.0869337
0.0856051
0.0843315
0.083055
0.0817557
0.0804004
0.0789781
0.0774847
0.0758906
0.0741824
0.0723633
0.0703847
0.0682471
0.0659403
0.063453
0.0607437
0.0577956
0.0545875
0.0510843
0.0472366
0.0430035
0.0383482
0.0332379
0.0276172
0.00204077
0.000958834
0.00110586
0.00140704
0.00169102
0.00197346
0.00226978
0.00260277
0.00300648
0.00352554
0.00416802
0.00491432
0.00576225
0.00671537
0.00777995
0.00896411
0.0102752
0.0117213
0.0133114
0.0150554
0.0169627
0.0190421
0.0213018
0.0237571
0.00534246
0.00259647
0.00152791
0.00170272
0.00200383
0.00232433
0.00268418
0.00310883
0.00362165
0.00424206
0.00496527
0.00577491
0.00667182
0.00766014
0.00874514
0.00993282
0.0112286
0.0126392
0.0141723
0.0158358
0.0176375
0.0195852
0.0216888
0.023964
0.00866932
0.00487035
0.00230302
0.00200446
0.00232328
0.00270761
0.00315375
0.00367721
0.00428702
0.00499399
0.00578469
0.00664896
0.00758834
0.00860621
0.00970654
0.010893
0.0121702
0.0135436
0.0150191
0.0166029
0.0183017
0.0201223
0.0220732
0.0241602
0.0115734
0.00708992
0.00335342
0.00234248
0.00265101
0.00311214
0.00364827
0.00426224
0.00495494
0.00573495
0.00658274
0.00749364
0.00846879
0.00951061
0.0106214
0.0118035
0.0130606
0.0143971
0.0158172
0.0173261
0.018929
0.0206318
0.0224416
0.0243678
0.0140119
0.00900765
0.00446527
0.00272731
0.00298702
0.00352668
0.00414694
0.00483978
0.00560501
0.00644555
0.00734257
0.00829381
0.00929953
0.0103605
0.011478
0.0126541
0.0138911
0.015192
0.0165602
0.0179997
0.0195146
0.0211094
0.0227889
0.0245551
0.0160412
0.0106061
0.00549468
0.00314301
0.00332616
0.00393889
0.00463338
0.00539376
0.00622499
0.0071174
0.00805751
0.00904362
0.0100752
0.0111518
0.0122739
0.0134429
0.0146602
0.0159277
0.017248
0.0186237
0.0200579
0.0215543
0.0231165
0.0247515
0.0177358
0.0119295
0.00638767
0.00356212
0.00366235
0.00433958
0.00509956
0.00592056
0.00680898
0.00774662
0.00872478
0.00974133
0.0107948
0.0118843
0.0130094
0.0141707
0.0153692
0.0166057
0.0178819
0.0191995
0.0205605
0.021967
0.0234213
0.0249236
0.0191592
0.013027
0.00714281
0.00396465
0.00398957
0.00472311
0.00554127
0.00641755
0.00735455
0.00833233
0.00934419
0.0103874
0.0114596
0.0125596
0.0136867
0.0148406
0.0160214
0.0172294
0.018465
0.0197294
0.0210234
0.0223478
0.0237024
0.0250855
0.0203764
0.0139549
0.00777843
0.00433586
0.00430276
0.00508594
0.00595647
0.00688306
0.00786201
0.00887487
0.00991594
0.0109822
0.0120716
0.0131815
0.01431
0.0154572
0.0166224
0.0178036
0.0190009
0.0202159
0.0214483
0.0226973
0.0239625
0.0252494
0.0214652
0.0148412
0.00839704
0.00471355
0.00460565
0.00542944
0.00633651
0.00730412
0.00832069
0.00936735
0.0104381
0.011542
0.0126605
0.0137767
0.0149018
0.0160498
0.0172014
0.018342
0.0194929
0.0206609
0.0218375
0.0230136
0.0241898
0.025378
0.000464208
0.00157165
0.00326433
0.00523334
0.00719178
0.0091265
0.0110363
0.0129234
0.01479
0.0166385
0.0184703
0.0202858
0.0220868
0.0238968
0.025778
0.0277794
0.0298962
0.0320881
0.0346348
0.0375022
0.0406039
0.0438824
0.0472967
0.0508033
0.000349493
0.000944735
0.00219743
0.00385779
0.00553164
0.00716484
0.00879297
0.0104411
0.0121242
0.0138418
0.0155908
0.0173674
0.0191693
0.0210004
0.0228776
0.02483
0.0268798
0.029044
0.0314339
0.0340754
0.0369069
0.0401397
0.0436631
0.0474069
0.00019933
0.000599785
0.00142286
0.00256802
0.00405559
0.00590776
0.00777736
0.0095645
0.0112823
0.0129556
0.0146049
0.0162467
0.0178964
0.0195697
0.0212848
0.023066
0.0249439
0.0269551
0.0291554
0.0315918
0.034272
0.0372627
0.0405165
0.0442232
0.000213264
0.00049909
0.00116856
0.00209705
0.00331151
0.00484762
0.00671768
0.0086574
0.0105574
0.0124006
0.014181
0.0158969
0.0175528
0.0191627
0.0207498
0.0223476
0.0239997
0.0257599
0.0276886
0.0298494
0.0322911
0.035051
0.03812
0.0415119
0.000186193
0.000435588
0.00101235
0.00181883
0.00286973
0.00419453
0.00582907
0.00777569
0.00979956
0.0117921
0.0137314
0.0156071
0.017407
0.019121
0.0207485
0.0223048
0.0238261
0.0253702
0.027014
0.0288463
0.0309542
0.0334036
0.036223
0.0394077
0.000181116
0.00039872
0.000918126
0.00164485
0.00259025
0.00378079
0.00524976
0.00703448
0.00907118
0.0111597
0.0132248
0.0152438
0.0172008
0.0190758
0.0208488
0.0225071
0.0240556
0.0255262
0.0269847
0.0285293
0.0302788
0.0323479
0.0348197
0.0377277
0.000171593
0.000369816
0.000847178
0.00151455
0.00238406
0.00347762
0.0048248
0.00646118
0.00841297
0.0105444
0.0127043
0.0148397
0.0169289
0.0189527
0.0208864
0.0227037
0.0243835
0.0259219
0.027347
0.0287318
0.0301953
0.0318862
0.0339485
0.0364819
0.000166395
0.000349342
0.000795876
0.00141817
0.00223051
0.00325104
0.00450716
0.00603186
0.00786196
0.00997053
0.0121873
0.0144143
0.0166143
0.0187657
0.0208447
0.0228218
0.0246652
0.0263477
0.0278605
0.0292317
0.0305452
0.0319443
0.0336099
0.0357157
0.000161281
0.000332562
0.000754231
0.00134069
0.00210803
0.0030712
0.00425559
0.00569208
0.0074165
0.00945207
0.0116875
0.013983
0.0162753
0.0185357
0.0207406
0.0228619
0.0248651
0.0267132
0.0283746
0.0298392
0.0311411
0.0323827
0.0337389
0.0354324
0.000157839
0.000319934
0.000720695
0.00127806
0.00200886
0.0029256
0.00405191
0.00541702
0.00705511
0.00900104
0.0112171
0.0135554
0.0159224
0.0182759
0.0205904
0.0228388
0.0249876
0.026997
0.0288251
0.0304379
0.0318281
0.0330445
0.0342197
0.0355801
0.000155604
0.000311456
0.000692831
0.00122599
0.00192658
0.00280477
0.00388303
0.0051889
0.00675513
0.00861804
0.0107851
0.0131404
0.0155647
0.0179974
0.0204071
0.0227672
0.025046
0.027204
0.0291958
0.0309753
0.0325087
0.0337985
0.0349207
0.0360624
0.000154604
0.000306999
0.000669882
0.00118268
0.00185788
0.00270378
0.00374167
0.00499792
0.00650369
0.00829476
0.0103981
0.0127465
0.0152104
0.0177091
0.0202016
0.0226599
0.025054
0.0273462
0.0294908
0.0314367
0.0331352
0.0345571
0.0357264
0.0367689
0.000154413
0.000305128
0.000651052
0.00114673
0.00180033
0.00261895
0.00362274
0.00483686
0.00629127
0.00802061
0.0100588
0.0123814
0.0148675
0.0174194
0.0199838
0.0225288
0.0250252
0.0274375
0.0297215
0.0318249
0.0336917
0.0352734
0.0365548
0.0375986
0.000154678
0.000304647
0.000635748
0.00111752
0.0017522
0.00254773
0.00352259
0.00470097
0.00611169
0.00778821
0.00976663
0.0120506
0.0145439
0.0171368
0.0197632
0.0223848
0.0249723
0.0274919
0.0299019
0.0321506
0.0341793
0.0359292
0.0373583
0.038479
0.000155156
0.00030461
0.000622974
0.00109302
0.0017117
0.00248786
0.00343837
0.00458648
0.00595999
0.00759143
0.00951701
0.011757
0.0142452
0.0168684
0.0195481
0.0222382
0.0249073
0.0275234
0.0300468
0.0324281
0.0346084
0.0365235
0.0381157
0.0393599
0.000155844
0.000304713
0.000612275
0.00107244
0.00167762
0.00243734
0.00336729
0.00448978
0.00583175
0.00742474
0.00930464
0.0115003
0.0139744
0.0166189
0.0193445
0.0220966
0.0248403
0.027544
0.0301705
0.0326726
0.0349929
0.0370655
0.0388233
0.0402171
0.000156609
0.000304858
0.00060318
0.00105489
0.00164861
0.00239438
0.0033068
0.00440752
0.00572264
0.00728289
0.0091234
0.0112776
0.0137317
0.01639
0.0191555
0.0219646
0.0247777
0.0275626
0.0302838
0.032897
0.0353466
0.0375668
0.0394848
0.0410272
0.000157427
0.00030497
0.000595365
0.00103974
0.00162348
0.00235731
0.0032547
0.00433673
0.00562878
0.00716075
0.00896723
0.0110838
0.0135142
0.0161804
0.0189805
0.0218427
0.0247213
0.0275829
0.0303929
0.0331094
0.0356792
0.0380378
0.0401106
0.0418187
0.000158288
0.000305018
0.000588477
0.0010264
0.00160139
0.00232465
0.00320893
0.00427457
0.00554658
0.00705399
0.0088307
0.0109132
0.0133179
0.0159861
0.0188162
0.0217277
0.0246688
0.0276033
0.0304976
0.033311
0.0359929
0.0384801
0.0406968
0.0425542
0.000159098
0.000305042
0.000582363
0.00101447
0.00158158
0.0022954
0.00316789
0.00421899
0.00547303
0.00695863
0.00870882
0.0107604
0.0131384
0.0158035
0.0186582
0.0216153
0.0246159
0.0276204
0.0305947
0.0334999
0.036287
0.0388945
0.0412466
0.0432522
0.000159908
0.000305011
0.000576818
0.00100362
0.00156352
0.00226884
0.00313064
0.0041685
0.00540624
0.00687191
0.00859806
0.0106213
0.012972
0.0156289
0.0185027
0.0215009
0.0245576
0.0276291
0.0306798
0.0336721
0.0365584
0.0392789
0.0417583
0.043904
0.000160714
0.000304952
0.000571725
0.000993635
0.00154692
0.00224432
0.00309631
0.00412192
0.00534471
0.00679209
0.00849609
0.010493
0.0128165
0.0154605
0.0183473
0.0213813
0.0244902
0.0276249
0.0307485
0.0338233
0.0368036
0.0396309
0.0422315
0.0445146
0.00016145
0.000304918
0.000567043
0.000984398
0.00153153
0.00222162
0.00306446
0.00407875
0.00528753
0.00671791
0.0084013
0.0103736
0.0126704
0.0152977
0.0181914
0.0212556
0.0244118
0.0276059
0.0307981
0.0339509
0.0370196
0.0399474
0.0426612
0.0450684
0.000162151
0.000304899
0.000562706
0.00097585
0.00151728
0.00220057
0.00303492
0.00403866
0.00523444
0.00664894
0.00831305
0.0102622
0.0125331
0.0151411
0.018036
0.0211246
0.0243232
0.0275724
0.0308292
0.0340556
0.037208
0.0402313
0.0430551
0.0455921
0.000162844
0.000304888
0.000558696
0.000967922
0.00150405
0.00218105
0.00300751
0.00400145
0.00518515
0.00658486
0.00823101
0.0101585
0.0124047
0.0149916
0.0178831
0.0209906
0.0242268
0.0275267
0.0308443
0.0341402
0.0373719
0.040486
0.0434142
0.0460702
0.000163516
0.0003049
0.000554996
0.000960577
0.00149179
0.00216295
0.00298212
0.00396698
0.0051395
0.00652549
0.00815498
0.0100624
0.0122852
0.0148506
0.0177349
0.0208563
0.0241254
0.0274723
0.0308468
0.0342085
0.0375153
0.0407154
0.0437426
0.0465121
0.00016417
0.000304932
0.000551586
0.000953775
0.00148042
0.00214616
0.0029586
0.00393509
0.00509727
0.00647062
0.00808472
0.00997354
0.0121746
0.0147185
0.0175929
0.0207244
0.0240223
0.0274123
0.0308405
0.0342647
0.037643
0.0409251
0.0440472
0.0469285
0.000164819
0.000304985
0.000548473
0.000947528
0.00146992
0.00213062
0.00293681
0.00390556
0.00505822
0.00641993
0.00801984
0.00989151
0.0120724
0.0145956
0.0174585
0.0205967
0.0239199
0.0273499
0.0308291
0.034313
0.0377598
0.0411206
0.0443335
0.0473187
0.000165464
0.000305057
0.000545665
0.000941851
0.00146035
0.00211622
0.00291657
0.00387815
0.00502202
0.00637299
0.00795982
0.0098157
0.0119779
0.0144814
0.0173318
0.0204741
0.0238197
0.0272873
0.0308151
0.0343567
0.0378699
0.0413075
0.0446111
0.047709
0.000166102
0.000305131
0.000543093
0.000936624
0.00145161
0.00210283
0.00289775
0.00385266
0.00498835
0.00632937
0.00790414
0.00974543
0.0118903
0.0143751
0.0172123
0.0203567
0.0237222
0.0272251
0.0307998
0.0343972
0.0379746
0.0414861
0.0448757
0.0480758
0.000166727
0.000305208
0.000540724
0.000931735
0.00144342
0.0020903
0.00288014
0.00382884
0.00495692
0.00628866
0.0078522
0.00967994
0.0118087
0.0142758
0.0170994
0.0202438
0.023627
0.027163
0.0307827
0.034434
0.0380731
0.0416539
0.0451196
0.0483923
0.000167346
0.000305285
0.000538558
0.000927156
0.00143574
0.00207855
0.00286362
0.00380649
0.00492743
0.00625047
0.00780348
0.00961857
0.0117322
0.0141825
0.0169923
0.020135
0.0235336
0.0271007
0.0307638
0.0344678
0.0381675
0.0418175
0.0453637
0.0487396
0.00016796
0.000305372
0.000536597
0.000922891
0.00142855
0.0020675
0.00284807
0.00378544
0.00489965
0.00621446
0.00775755
0.00956069
0.0116601
0.0140943
0.01689
0.0200293
0.023441
0.0270372
0.0307421
0.0344973
0.0382563
0.0419738
0.0455966
0.0490586
0.000168564
0.000305468
0.000534825
0.000918887
0.00142178
0.00205708
0.0028334
0.00376556
0.00487339
0.00618044
0.0077141
0.0095059
0.0115918
0.0140104
0.0167919
0.0199262
0.0233486
0.0269716
0.0307163
0.0345214
0.0383383
0.0421215
0.0458191
0.0493656
0.00016916
0.000305586
0.000533252
0.000915135
0.00141541
0.00204726
0.00281956
0.00374678
0.00484855
0.00614823
0.00767293
0.0094539
0.0115268
0.0139306
0.0166976
0.0198253
0.023256
0.0269032
0.0306856
0.0345385
0.0384115
0.0422583
0.046028
0.0496573
0.000169749
0.000305732
0.000531887
0.000911641
0.00140943
0.00203801
0.00280647
0.00372901
0.00482505
0.00611772
0.00763387
0.0094045
0.011465
0.0138544
0.016607
0.0197268
0.0231633
0.0268321
0.0306497
0.0345484
0.0384752
0.0423831
0.0462217
0.0499302
0.00017033
0.000305901
0.000530706
0.000908367
0.00140381
0.00202932
0.00279419
0.00371229
0.00480288
0.00608887
0.00759688
0.00935768
0.0114064
0.0137819
0.0165202
0.019631
0.023071
0.0267588
0.0306092
0.0345514
0.0385298
0.0424961
0.0463992
0.0501758
0.000170909
0.000306101
0.000529716
0.00090532
0.00139855
0.00202115
0.00278264
0.00369657
0.00478199
0.00606165
0.00756198
0.00931344
0.0113509
0.0137132
0.0164374
0.0195383
0.0229799
0.0266843
0.0305653
0.0345491
0.0385774
0.0426008
0.0465681
0.0504175
0.000171483
0.000306328
0.000528899
0.00090248
0.00139361
0.00201349
0.00277179
0.00368179
0.00476234
0.00603604
0.0075291
0.00927172
0.0112985
0.0136482
0.0163587
0.0194492
0.0228907
0.0266095
0.0305189
0.0345425
0.0386196
0.0426994
0.0467314
0.0506576
0.000172052
0.000306582
0.000528241
0.000899837
0.001389
0.00200631
0.00276162
0.00366793
0.00474393
0.00601202
0.00749822
0.00923249
0.0112492
0.0135868
0.0162842
0.0193639
0.022804
0.0265351
0.0304708
0.0345324
0.0386564
0.0427906
0.0468846
0.0508809
0.000172618
0.000306856
0.000527725
0.000897374
0.00138468
0.00199959
0.0027521
0.00365496
0.00472668
0.0059895
0.00746926
0.0091957
0.0112029
0.0135292
0.0162139
0.0192828
0.0227202
0.0264619
0.0304218
0.0345193
0.0386883
0.0428749
0.047028
0.0510905
0.00017318
0.00030715
0.000527339
0.000895085
0.00138064
0.00199329
0.00274319
0.00364282
0.00471054
0.00596844
0.00744217
0.00916126
0.0111595
0.0134752
0.0161479
0.019206
0.02264
0.0263906
0.030373
0.0345046
0.038717
0.0429541
0.0471641
0.0512894
0.000173737
0.000307457
0.000527061
0.000892955
0.00137686
0.0019874
0.00273485
0.00363146
0.00469544
0.00594875
0.00741684
0.00912906
0.011119
0.0134246
0.016086
0.0191337
0.0225637
0.0263219
0.0303251
0.0344894
0.0387439
0.0430307
0.0472975
0.0514887
0.000174293
0.000307773
0.00052688
0.000890974
0.00137333
0.00198188
0.00272703
0.00362081
0.00468131
0.0059303
0.00739313
0.00909892
0.011081
0.0133773
0.016028
0.0190657
0.0224913
0.026256
0.0302788
0.0344744
0.0387697
0.0431048
0.0474266
0.0516794
0.000174842
0.000308095
0.000526777
0.00088913
0.00137002
0.00197671
0.0027197
0.00361083
0.00466804
0.00591302
0.00737091
0.00907069
0.0110456
0.0133331
0.0159737
0.0190019
0.0224228
0.0261933
0.0302344
0.0344602
0.0387952
0.0431773
0.0475524
0.0518642
0.00017538
0.000308414
0.000526732
0.000887416
0.00136693
0.00197186
0.00271282
0.00360145
0.00465559
0.00589677
0.00735003
0.00904417
0.0110122
0.0132915
0.0159228
0.0189417
0.0223579
0.0261336
0.0301922
0.0344472
0.0388211
0.0432496
0.047677
0.052046
0.000175913
0.00030873
0.000526738
0.000885817
0.00136403
0.00196732
0.00270637
0.00359265
0.00464387
0.00588148
0.00733037
0.00901919
0.0109808
0.0132524
0.0158747
0.0188848
0.0222962
0.0260764
0.0301517
0.0344355
0.0388479
0.0433231
0.0478049
0.0522383
0.000176439
0.000309042
0.000526795
0.000884337
0.00136132
0.00196306
0.00270032
0.00358437
0.00463284
0.00586707
0.00731181
0.00899559
0.0109511
0.0132153
0.0158291
0.0188306
0.022237
0.026021
0.0301123
0.0344238
0.0388743
0.0433958
0.047931
0.0524252
0.000176955
0.000309347
0.00052689
0.000882966
0.00135881
0.00195907
0.00269463
0.00357658
0.00462246
0.00585347
0.00729428
0.00897327
0.0109229
0.0131802
0.0157858
0.0187789
0.0221801
0.025967
0.030073
0.0344113
0.0388987
0.0434652
0.0480519
0.0526032
0.000177473
0.000309646
0.000527035
0.000881695
0.00135645
0.00195533
0.00268929
0.00356926
0.00461266
0.00584063
0.00727769
0.00895211
0.0108962
0.0131468
0.0157445
0.0187295
0.0221251
0.0259142
0.0300337
0.0343974
0.0389206
0.0435307
0.0481668
0.0527716
0.000177966
0.000309941
0.000527209
0.000880528
0.00135426
0.00195182
0.00268424
0.00356234
0.00460341
0.00582847
0.00726196
0.00893201
0.0108708
0.0131149
0.0157052
0.0186822
0.0220721
0.0258626
0.0299947
0.0343828
0.0389409
0.0435941
0.0482798
0.0529392
0.000178431
0.000310214
0.000527338
0.000879417
0.00135219
0.00194852
0.00267951
0.00355581
0.00459464
0.00581694
0.00724703
0.00891291
0.0108466
0.0130846
0.0156676
0.0186368
0.0220208
0.025812
0.0299556
0.0343674
0.0389598
0.0436561
0.0483928
0.0531146
0.000178883
0.000310484
0.00052749
0.000878378
0.00135024
0.00194542
0.00267505
0.00354965
0.00458634
0.00580599
0.00723284
0.00889476
0.0108236
0.0130556
0.0156316
0.0185931
0.0219711
0.0257622
0.029916
0.03435
0.0389754
0.0437133
0.0484972
0.0532653
0.00017932
0.000310727
0.000527608
0.000877392
0.00134839
0.00194251
0.00267083
0.00354383
0.00457849
0.00579561
0.00721936
0.00887744
0.0108016
0.013028
0.0155972
0.0185512
0.0219228
0.0257134
0.0298763
0.034331
0.0389882
0.043767
0.0485997
0.0534259
0.000179783
0.000310953
0.000527783
0.000876491
0.00134669
0.00193973
0.00266687
0.0035383
0.00457111
0.00578584
0.00720661
0.00886101
0.0107806
0.0130016
0.0155643
0.0185111
0.0218764
0.0256655
0.0298366
0.0343107
0.038998
0.0438164
0.0486967
0.0535817
0.00018021
0.000311198
0.000528004
0.000875674
0.00134511
0.00193715
0.0026631
0.0035331
0.00456403
0.0057765
0.00719444
0.00884536
0.0107607
0.0129764
0.0155327
0.0184725
0.0218316
0.025619
0.0297971
0.0342895
0.0390056
0.0438606
0.0487823
0.0537015
0.000180613
0.000311404
0.000528145
0.000874874
0.00134357
0.00193472
0.00265956
0.00352818
0.00455734
0.00576757
0.00718278
0.00883036
0.0107416
0.0129523
0.0155026
0.0184355
0.0217884
0.0255737
0.0297583
0.0342681
0.0390127
0.0439061
0.048877
0.0538735
0.000181027
0.000311603
0.000528342
0.000874113
0.00134213
0.00193234
0.00265617
0.00352342
0.004551
0.00575917
0.00717178
0.00881612
0.0107234
0.0129292
0.0154736
0.0183998
0.0217465
0.0255291
0.0297194
0.0342454
0.0390167
0.0439448
0.0489517
0.0539639
0.000181372
0.000311789
0.000528471
0.000873396
0.00134076
0.00193008
0.00265286
0.00351888
0.00454482
0.00575106
0.00716117
0.00880241
0.0107059
0.0129071
0.0154459
0.0183656
0.0217059
0.0254856
0.0296804
0.034222
0.0390197
0.0439839
0.0490369
0.0541135
0.000181725
0.000311947
0.000528584
0.000872703
0.00133942
0.00192796
0.00264977
0.00351456
0.00453895
0.00574322
0.00715095
0.00878926
0.0106891
0.0128859
0.0154193
0.0183328
0.0216668
0.0254433
0.0296419
0.0341977
0.0390206
0.0440195
0.049114
0.0542359
0.000182091
0.000312101
0.000528755
0.000872028
0.00133813
0.00192585
0.00264673
0.00351034
0.00453327
0.00573575
0.00714122
0.00877669
0.010673
0.0128654
0.0153937
0.0183011
0.0216292
0.025402
0.029604
0.0341731
0.0390201
0.0440525
0.0491872
0.05435
0.000182388
0.000312241
0.000528848
0.000871369
0.00133689
0.00192389
0.00264388
0.00350637
0.00452784
0.00572852
0.00713178
0.00876451
0.0106575
0.0128458
0.0153691
0.0182706
0.0215927
0.0253621
0.0295669
0.0341487
0.0390192
0.0440854
0.0492643
0.0544857
0.000182688
0.000312371
0.000528915
0.000870731
0.00133567
0.00192195
0.0026411
0.00350248
0.00452256
0.00572145
0.00712256
0.00875267
0.0106424
0.0128268
0.0153452
0.0182412
0.0215575
0.025323
0.0295303
0.0341239
0.0390169
0.0441155
0.0493357
0.0546111
0.000182977
0.000312487
0.000528992
0.000870111
0.00133455
0.00192011
0.00263837
0.00349869
0.00451743
0.00571467
0.00711373
0.00874129
0.0106278
0.0128083
0.015322
0.0182124
0.0215231
0.0252847
0.0294935
0.034098
0.039012
0.0441401
0.049394
0.054694
0.000183223
0.000312575
0.000528955
0.000869502
0.00133342
0.00191834
0.00263581
0.00349509
0.00451252
0.00570807
0.0071051
0.0087302
0.0106137
0.0127904
0.0152995
0.0181845
0.0214894
0.0252471
0.0294571
0.0340716
0.0390063
0.0441648
0.0494578
0.0548083
0.000183508
0.000312653
0.000529007
0.000868964
0.00133241
0.00191664
0.00263334
0.00349161
0.00450781
0.00570181
0.00709681
0.00871939
0.0105999
0.0127729
0.0152776
0.0181574
0.0214566
0.0252098
0.0294206
0.0340444
0.0389987
0.0441872
0.0495188
0.0549159
0.000183756
0.00031275
0.000529079
0.00086849
0.00133147
0.00191505
0.00263092
0.00348823
0.0045032
0.00569573
0.00708881
0.00870902
0.0105867
0.0127561
0.0152564
0.018131
0.0214247
0.0251735
0.029384
0.0340161
0.0389888
0.0442053
0.0495729
0.0550108
0.000183987
0.000312809
0.00052906
0.000868023
0.00133056
0.00191361
0.00262873
0.0034851
0.00449885
0.00568981
0.00708105
0.00869898
0.0105738
0.0127399
0.0152359
0.0181056
0.0213938
0.0251381
0.0293482
0.0339876
0.0389776
0.044221
0.0496231
0.0551011
0.000184235
0.000312866
0.000529108
0.000867615
0.00132976
0.00191222
0.00262667
0.00348209
0.00449474
0.00568427
0.00707373
0.00868943
0.0105615
0.0127241
0.0152163
0.018081
0.021364
0.0251037
0.0293134
0.0339598
0.0389664
0.0442365
0.0496737
0.0551941
0.000184419
0.00031291
0.000529081
0.000867264
0.00132907
0.00191102
0.00262479
0.00347937
0.00449084
0.00567901
0.00706672
0.00868025
0.0105497
0.0127091
0.0151972
0.0180574
0.0213352
0.0250706
0.0292793
0.0339324
0.0389553
0.0442512
0.0497235
0.055286
0.000184618
0.000312949
0.000529066
0.000867022
0.00132851
0.00191006
0.0026232
0.00347697
0.00448736
0.00567408
0.00706007
0.00867151
0.0105383
0.0126946
0.0151789
0.0180346
0.0213073
0.0250386
0.0292464
0.0339053
0.0389438
0.044265
0.0497704
0.0553729
0.000184837
0.000312985
0.000529124
0.000866872
0.00132814
0.00190926
0.0026219
0.00347487
0.00448433
0.00566975
0.00705408
0.00866346
0.0105277
0.0126808
0.0151613
0.0180124
0.0212804
0.0250072
0.0292142
0.0338788
0.0389325
0.0442783
0.049816
0.0554556
0.000184993
0.000313012
0.000529119
0.000866818
0.00132792
0.00190873
0.00262089
0.00347323
0.00448173
0.005666
0.00704876
0.00865611
0.0105179
0.0126678
0.0151446
0.0179912
0.0212542
0.0249766
0.0291821
0.0338527
0.0389214
0.0442921
0.0498636
0.0555437
0.00018516
0.000313041
0.00052911
0.000866874
0.00132788
0.00190847
0.00262028
0.00347205
0.00447976
0.0056629
0.00704419
0.00864962
0.0105089
0.0126559
0.0151289
0.0179711
0.0212288
0.0249466
0.0291502
0.0338257
0.0389093
0.0443055
0.049912
0.0556373
0.000185324
0.000313045
0.000529128
0.000867016
0.00132806
0.0019085
0.00262001
0.00347136
0.00447841
0.00566066
0.00704068
0.00864439
0.0105014
0.0126454
0.0151146
0.0179522
0.0212048
0.0249172
0.0291182
0.0337972
0.0388941
0.0443142
0.0499539
0.0557163
0.000185453
0.000313037
0.000529067
0.000867244
0.00132833
0.00190881
0.00262018
0.00347123
0.00447774
0.00565919
0.00703815
0.00864042
0.0104954
0.0126367
0.0151025
0.0179356
0.0211828
0.0248898
0.0290871
0.0337681
0.0388761
0.0443181
0.0499895
0.0557911
0.000185628
0.000313018
0.000529098
0.000867575
0.0013288
0.00190931
0.00262068
0.00347156
0.00447777
0.00565868
0.00703677
0.00863775
0.010491
0.0126301
0.0150927
0.0179218
0.021164
0.0248655
0.0290591
0.033741
0.0388584
0.0443199
0.0500219
0.0558705
0.000185763
0.000312983
0.000529074
0.000867957