/*--------------------------------*- C++ -*----------------------------------*\
| =========                 |                                                 |
| \\      /  F ield         | OpenFOAM: The Open Source CFD Toolbox           |
|  \\    /   O peration     | Version:  2.3.0                                 |
|   \\  /    A nd           | Web:      www.OpenFOAM.org                      |
|    \\/     M anipulation  |                                                 |
\*---------------------------------------------------------------------------*/
FoamFile
{
    version     2.0;
    format      ascii;
    class       volScalarField;
    location    "4000";
    object      nuTilda;
}
// * * * * * * * * * * * * * * * * * * * * * * * * * * * * * * * * * * * * * //

dimensions      [0 2 -1 0 0 0 0];

internalField   nonuniform List<scalar> 
38227
(
0.0731637
0.0715617
0.0699562
0.0683455
0.0667298
0.0651097
0.0634859
0.0618593
0.0602304
0.0585998
0.0569684
0.0553368
0.053706
0.0520763
0.0504481
0.0488223
0.0471993
0.0455795
0.0439637
0.0423521
0.040745
0.0391428
0.0375459
0.0359543
0.0343688
0.0327901
0.031218
0.0296536
0.0280975
0.0265502
0.0250137
0.0234892
0.0219787
0.0204856
0.0190144
0.0175715
0.0161663
0.0148112
0.013522
0.0123128
0.0111736
0.00997221
0.0079465
0.0741494
0.072721
0.0712941
0.0698633
0.0684281
0.0669886
0.0655452
0.0640985
0.0626486
0.061196
0.059741
0.058284
0.0568255
0.0553656
0.0539045
0.0524427
0.0509806
0.0495185
0.048057
0.0465963
0.0451365
0.0436787
0.0422231
0.0407698
0.0393204
0.0378758
0.0364362
0.0350039
0.0335806
0.0321684
0.0307708
0.0293916
0.0280361
0.0267105
0.0254232
0.0241857
0.0230116
0.0219165
0.02092
0.0200444
0.0193122
0.018742
0.0183449
0.0750595
0.0737873
0.0725166
0.0712413
0.069961
0.0686759
0.0673863
0.0660926
0.0647949
0.0634931
0.0621874
0.0608784
0.0595658
0.0582498
0.0569305
0.0556082
0.0542834
0.0529558
0.0516263
0.0502953
0.0489628
0.04763
0.0462975
0.0449657
0.0436364
0.0423106
0.040989
0.0396747
0.0383697
0.0370769
0.0358007
0.0345456
0.0333176
0.0321233
0.0309717
0.0298736
0.0288409
0.0278871
0.0270259
0.0262732
0.0256427
0.0251444
0.0247866
0.0758929
0.0747671
0.0736333
0.0724925
0.0713453
0.0701925
0.0690343
0.0678706
0.0667017
0.0655276
0.0643481
0.0631636
0.061974
0.060779
0.0595787
0.0583736
0.0571636
0.0559488
0.0547298
0.0535071
0.0522807
0.0510517
0.0498212
0.0485901
0.04736
0.0461319
0.0449074
0.0436888
0.042479
0.0412814
0.0401001
0.0389398
0.0378065
0.036707
0.0356501
0.0346448
0.0337024
0.0328342
0.032051
0.0313654
0.0307879
0.030326
0.0299862
0.0766861
0.0756723
0.0746532
0.0736274
0.0725947
0.0715552
0.0705088
0.0694557
0.0683963
0.0673303
0.0662576
0.065178
0.0640918
0.0629986
0.0618983
0.0607912
0.0596773
0.0585565
0.0574295
0.0562968
0.0551582
0.0540151
0.0528688
0.0517203
0.0505712
0.0494231
0.0482776
0.0471367
0.0460031
0.0448809
0.0437739
0.0426866
0.0416253
0.040596
0.0396077
0.0386677
0.0377864
0.0369745
0.0362411
0.0355974
0.0350517
0.0346117
0.0342819
0.0774149
0.076501
0.0755815
0.0746553
0.0737211
0.0727784
0.0718274
0.070869
0.0699028
0.0689285
0.067946
0.0669552
0.065956
0.0649483
0.0639323
0.0629075
0.0618739
0.0608318
0.0597818
0.0587241
0.0576585
0.0565862
0.055509
0.0544283
0.0533453
0.0522623
0.0511814
0.050104
0.0490326
0.0479706
0.0469219
0.0458924
0.0448871
0.0439117
0.0429748
0.0420829
0.0412462
0.040474
0.0397753
0.0391602
0.0386361
0.0382104
0.0378872
0.0780829
0.0772564
0.0764242
0.0755845
0.074736
0.0738766
0.0730073
0.0721293
0.0712427
0.0703468
0.0694407
0.0685247
0.0675993
0.0666638
0.0657184
0.0647635
0.0637979
0.0628213
0.0618358
0.0608415
0.0598374
0.0588239
0.0578033
0.0567781
0.0557496
0.0547199
0.0536918
0.0526672
0.0516476
0.0506345
0.0496326
0.0486495
0.0476892
0.0467566
0.0458595
0.045005
0.0442025
0.0434595
0.0427867
0.0421917
0.0416828
0.041267
0.0409494
0.0786897
0.0779432
0.0771873
0.0764231
0.0756507
0.0748635
0.0740635
0.0732534
0.0724347
0.0716062
0.0707655
0.0699127
0.0690502
0.0681761
0.0672897
0.0663937
0.0654883
0.0645657
0.0636334
0.062693
0.0617425
0.0607793
0.0598047
0.0588246
0.0578408
0.0568543
0.0558691
0.0548883
0.0539142
0.0529431
0.0519775
0.0510308
0.0501092
0.0492116
0.0483458
0.0475213
0.0467464
0.0460258
0.0453729
0.0447922
0.0442938
0.0438865
0.0435745
0.0792548
0.0785744
0.0778807
0.0771766
0.0764741
0.0757513
0.07501
0.0742549
0.073492
0.0727209
0.0719383
0.0711368
0.0703266
0.0695058
0.0686703
0.0678162
0.0669708
0.0660943
0.0652057
0.0643082
0.0634052
0.0624892
0.061551
0.0606067
0.0596593
0.0587061
0.0577524
0.0568021
0.0558668
0.0549402
0.0540031
0.0530803
0.0521914
0.051328
0.050488
0.0496888
0.0489392
0.0482351
0.0476018
0.0470336
0.0465448
0.0461432
0.045839
0.00722673
0.00842209
0.00940681
0.0101937
0.0109852
0.0118319
0.012737
0.0136937
0.0146951
0.015734
0.0168076
0.0179137
0.0190495
0.0202108
0.0213955
0.0226017
0.0238278
0.0250728
0.0263367
0.0276165
0.0289137
0.0302269
0.0315556
0.0328994
0.0342573
0.0356294
0.0370146
0.0384129
0.0398237
0.0412462
0.04268
0.0441247
0.0455796
0.0470441
0.0485177
0.0499998
0.0514898
0.0529868
0.0544906
0.0560006
0.0575169
0.0590397
0.0605691
0.0181264
0.0180766
0.0181891
0.0184525
0.0188534
0.0193767
0.020006
0.0207238
0.021516
0.0223714
0.0232793
0.0242322
0.0252227
0.0262451
0.0272957
0.0283702
0.0294669
0.0305825
0.0317149
0.032864
0.0340277
0.035205
0.0363952
0.0375969
0.0388103
0.0400343
0.0412681
0.042512
0.0437649
0.0450264
0.0462965
0.0475745
0.04886
0.0501528
0.0514522
0.0527581
0.0540704
0.0553881
0.0567113
0.0580398
0.0593742
0.0607157
0.0620709
0.0245662
0.0244776
0.0245239
0.0246998
0.024998
0.0254082
0.0259176
0.0265145
0.0271869
0.0279245
0.028718
0.0295588
0.0304392
0.0313547
0.0322986
0.0332681
0.0342591
0.0352691
0.0362959
0.0373374
0.0383919
0.0394583
0.0405349
0.041621
0.0427162
0.0438192
0.0449299
0.0460473
0.047171
0.0483011
0.0494366
0.0505775
0.0517237
0.0528745
0.0540302
0.0551902
0.0563543
0.0575223
0.0586942
0.0598699
0.0610494
0.062233
0.0634209
0.0297654
0.0296624
0.0296784
0.0298104
0.0300521
0.0303963
0.0308328
0.031352
0.0319445
0.0326006
0.0333114
0.0340697
0.0348682
0.0357004
0.0365618
0.0374481
0.0383556
0.0392808
0.0402214
0.0411761
0.0421417
0.0431173
0.0441015
0.0450933
0.0460913
0.0470953
0.0481042
0.0491173
0.0501348
0.0511557
0.0521799
0.0532072
0.0542374
0.0552704
0.0563057
0.0573433
0.0583831
0.0594249
0.0604688
0.0615146
0.0625624
0.0636115
0.0646597
0.0340617
0.0339503
0.0339483
0.0340528
0.0342592
0.0345607
0.0349491
0.0354164
0.0359534
0.0365513
0.0372032
0.0379005
0.0386367
0.0394061
0.0402035
0.0410247
0.0418652
0.0427231
0.0435954
0.0444795
0.0453734
0.0462754
0.0471841
0.0480983
0.0490168
0.0499389
0.050864
0.0517914
0.0527204
0.0536509
0.0545827
0.0555155
0.0564492
0.0573832
0.0583178
0.0592526
0.0601874
0.0611223
0.0620573
0.0629928
0.0639287
0.0648649
0.0658014
0.0376682
0.0375514
0.0375376
0.0376237
0.0378053
0.038077
0.0384316
0.0388611
0.0393578
0.0399142
0.0405217
0.0411731
0.0418618
0.0425817
0.0433284
0.0440971
0.044885
0.0456887
0.0465054
0.0473327
0.0481681
0.0490097
0.0498561
0.0507066
0.0515597
0.0524145
0.0532699
0.0541258
0.0549815
0.055837
0.0566917
0.0575457
0.0583983
0.0592496
0.0600994
0.0609473
0.0617932
0.0626369
0.0634793
0.0643209
0.0651613
0.0660001
0.0668386
0.0407313
0.0406113
0.0405892
0.0406614
0.0408249
0.0410745
0.0414031
0.0418046
0.0422717
0.0427965
0.0433706
0.0439864
0.0446368
0.0453171
0.0460225
0.0467489
0.0474944
0.0482547
0.0490266
0.0498072
0.0505939
0.0513852
0.0521807
0.0529792
0.0537778
0.0545754
0.055373
0.0561695
0.0569643
0.0577567
0.0585472
0.059335
0.0601195
0.0609008
0.0616789
0.0624533
0.0632231
0.0639888
0.0647524
0.0655142
0.0662728
0.0670268
0.0677771
0.0433584
0.043236
0.043208
0.0432678
0.0434172
0.0436486
0.0439571
0.0443378
0.0447831
0.0452842
0.045833
0.0464181
0.047037
0.0476849
0.0483559
0.0490476
0.0497604
0.0504857
0.0512205
0.0519611
0.052706
0.0534557
0.0542106
0.0549658
0.0557172
0.0564664
0.0572165
0.0579636
0.0587065
0.0594459
0.0601833
0.0609151
0.0616411
0.0623644
0.0630808
0.0637935
0.0644967
0.0651951
0.0658927
0.0665871
0.0672759
0.0679555
0.0686283
0.0456289
0.0455034
0.0454749
0.0455174
0.0456592
0.0458725
0.0461656
0.0465323
0.0469628
0.0474458
0.0479746
0.0485262
0.0491206
0.0497388
0.0503799
0.0510438
0.051739
0.0524288
0.0531327
0.0538356
0.0545446
0.0552601
0.0559831
0.0566973
0.0574064
0.0581165
0.058833
0.0595345
0.0602346
0.0609305
0.0616256
0.062306
0.0629832
0.0636632
0.0643216
0.0649857
0.0656252
0.0662695
0.0669159
0.0675549
0.0681856
0.0687988
0.0694007
0.0167838
0.0158189
0.0148933
0.0140073
0.01316
0.0123508
0.0115787
0.0108435
0.0101445
0.00948106
0.00885297
0.00826014
0.00770323
0.0071839
0.00670535
0.00627326
0.00589604
0.00556767
0.00527601
0.00501215
0.00477032
0.00454646
0.00433745
0.00414063
0.00395358
0.00377405
0.00359988
0.00342907
0.0032597
0.00308998
0.00291817
0.0027427
0.00256204
0.00237481
0.00217968
0.00197543
0.00176102
0.00153565
0.00129882
0.00105087
0.000794596
0.000539946
0.000285929
0.0167053
0.0158099
0.0149507
0.0141255
0.0133332
0.012573
0.0118447
0.0111475
0.010481
0.00984472
0.00923842
0.00866199
0.00811568
0.00760051
0.00711842
0.00667317
0.00627106
0.00591645
0.00560197
0.00531889
0.00506074
0.00482282
0.00460156
0.00439399
0.00419767
0.00401029
0.00382972
0.00365389
0.00348079
0.00330845
0.00313492
0.00295835
0.00277688
0.00258875
0.00239225
0.0021858
0.00196802
0.00173773
0.00149433
0.00123816
0.00097155
0.000698422
0.000411522
0.0166313
0.0158077
0.0150126
0.0142457
0.0135059
0.012793
0.0121064
0.0114457
0.0108106
0.0102006
0.00961562
0.00905556
0.00852046
0.008011
0.00752837
0.00707498
0.00665509
0.00627507
0.00593661
0.00563208
0.00535479
0.00509994
0.00486369
0.00464292
0.00443497
0.00423744
0.00404815
0.003865
0.00368591
0.00350879
0.00333157
0.00315212
0.00296834
0.0027781
0.00257927
0.00236987
0.002148
0.0019121
0.00166122
0.00139558
0.0011167
0.0008241
0.000524996
0.0165692
0.0158076
0.0150708
0.0143572
0.0136659
0.0129962
0.0123481
0.0117212
0.0111152
0.0105299
0.0099651
0.00942083
0.00889715
0.00839451
0.00791374
0.00745645
0.00702557
0.00662615
0.00626453
0.00593837
0.00564111
0.00536793
0.00511506
0.00487941
0.00465818
0.0044489
0.00424932
0.00405726
0.00387055
0.0036871
0.0035047
0.00332103
0.00313376
0.00294045
0.00273862
0.00252583
0.00229976
0.00205838
0.00180042
0.00152574
0.00123485
0.000924548
0.000633453
0.0165114
0.0158081
0.0151244
0.0144591
0.0138117
0.0131815
0.0125685
0.0119724
0.0113932
0.0108307
0.0102849
0.00975569
0.00924327
0.00874796
0.0082705
0.00781198
0.00737457
0.00696197
0.00658028
0.0062336
0.00591682
0.00562506
0.00535488
0.00510332
0.00486771
0.0046456
0.00443462
0.00423254
0.00403716
0.00384629
0.00365764
0.00346878
0.00327718
0.00308014
0.00287489
0.00265854
0.00242837
0.00218194
0.00191758
0.00163479
0.00133309
0.00100857
0.000742077
0.016458
0.0158086
0.0151731
0.0145518
0.0139443
0.0133501
0.012769
0.0122013
0.0116466
0.0111051
0.0105767
0.0100616
0.00955999
0.00907217
0.00859873
0.00814064
0.00769944
0.00727799
0.00688112
0.00651557
0.00618035
0.00587068
0.00558325
0.00531544
0.00506488
0.00482921
0.00460611
0.00439327
0.00418849
0.00398949
0.00379389
0.00359917
0.00340267
0.00320148
0.00299251
0.00277257
0.00253849
0.00228746
0.00201744
0.00172753
0.00141641
0.00108201
0.000852213
0.0164103
0.0158089
0.0152174
0.0146361
0.0140647
0.0135032
0.0129514
0.0124093
0.0118771
0.0113549
0.0108429
0.010341
0.00984954
0.00936886
0.00889977
0.00844295
0.00799981
0.00757236
0.00716449
0.00678251
0.00643035
0.00610393
0.00579992
0.00551613
0.00525053
0.00500103
0.00476542
0.00454143
0.00432683
0.00411924
0.00391626
0.00371529
0.00351351
0.00330787
0.00309503
0.00287147
0.00263368
0.00237851
0.00210368
0.00180759
0.00148824
0.00114789
0.000964088
0.0163657
0.015809
0.0152573
0.0147122
0.0141737
0.0136421
0.0131174
0.0125993
0.0120877
0.0115833
0.0110866
0.0105977
0.010116
0.00964173
0.00917629
0.00872107
0.00827695
0.00784544
0.00742945
0.0070341
0.00666611
0.00632431
0.00600491
0.00570556
0.0054249
0.00516153
0.00491328
0.0046778
0.00445299
0.00423672
0.00402633
0.00381897
0.00361169
0.00340151
0.00318482
0.00295784
0.00271673
0.00245772
0.00217805
0.00187721
0.00155285
0.00121095
0.00107304
0.0163328
0.0158111
0.0152917
0.0147798
0.0142706
0.0137665
0.0132683
0.0127744
0.0122825
0.0117942
0.011313
0.0108406
0.010374
0.00990599
0.00944037
0.00898453
0.00854062
0.00810704
0.00768635
0.00728237
0.00689803
0.00654082
0.00620959
0.00589823
0.00560136
0.00532265
0.0050621
0.00481568
0.00457813
0.0043493
0.00412976
0.00391604
0.00370311
0.00348678
0.00326524
0.00303369
0.00278844
0.00252847
0.00224829
0.00193654
0.00159562
0.00125476
0.00119824
0.000207761
0.000378558
0.000589217
0.000845859
0.00114319
0.00147908
0.00186599
0.00229444
0.00275971
0.00326138
0.00379969
0.00437465
0.00498691
0.00563681
0.006325
0.00705222
0.0078194
0.00862718
0.00947677
0.010369
0.0113048
0.0122855
0.013312
0.0143854
0.0155069
0.0166775
0.0178983
0.0191702
0.0204943
0.021871
0.0233006
0.024783
0.026317
0.0279007
0.0295303
0.0311999
0.032901
0.0346227
0.036351
0.0380715
0.0397708
0.0414376
0.0430658
0.000359025
0.000592319
0.000883109
0.0012195
0.00159395
0.00200516
0.00245427
0.00294174
0.00347372
0.00404682
0.00465678
0.00530242
0.0059835
0.00669978
0.00745136
0.00823857
0.00906173
0.00992123
0.0108174
0.011751
0.0127227
0.0137329
0.0147824
0.0158719
0.017002
0.0181735
0.019387
0.020643
0.0219419
0.0232839
0.0246689
0.026096
0.0275639
0.0290698
0.0306095
0.0321771
0.0337643
0.0353615
0.0369576
0.0385417
0.0401041
0.0416363
0.0431304
0.000532723
0.000839466
0.00120955
0.0016249
0.00207805
0.00256602
0.00308742
0.00364315
0.00423574
0.00486699
0.00553824
0.00624712
0.00699067
0.00776762
0.00857726
0.00941908
0.0102931
0.0111994
0.0121378
0.0131085
0.0141119
0.0151481
0.0162175
0.0173204
0.0184571
0.0196279
0.0208331
0.0220729
0.0233472
0.0246557
0.0259977
0.0273716
0.0287754
0.0302057
0.0316576
0.0331252
0.0346012
0.0360778
0.0375468
0.0390005
0.040432
0.0418355
0.0432059
0.000720477
0.00110231
0.0015475
0.00203746
0.00256477
0.00312564
0.00371816
0.0043422
0.0049984
0.00568826
0.00641314
0.00717355
0.00796874
0.00879701
0.00965643
0.0105458
0.0114642
0.012411
0.0133861
0.014389
0.0154196
0.0164781
0.0175643
0.0186781
0.0198198
0.0209891
0.0221859
0.0234099
0.0246604
0.0259365
0.027237
0.0285595
0.0299012
0.0312583
0.032626
0.033999
0.0353714
0.0367373
0.0380906
0.0394263
0.0407392
0.0420253
0.0432805
0.000915189
0.00136919
0.00188457
0.00244398
0.00304013
0.00366894
0.00432804
0.00501671
0.00573477
0.0064827
0.00726125
0.00807107
0.00891222
0.00978415
0.0106855
0.011615
0.0125713
0.0135533
0.0145601
0.015591
0.0166456
0.0177235
0.0188242
0.0199473
0.0210925
0.0222592
0.0234467
0.0246543
0.0258806
0.0271242
0.028383
0.0296544
0.0309353
0.032222
0.0335102
0.0347954
0.0360731
0.0373388
0.0385884
0.0398182
0.0410248
0.0422053
0.0433574
0.00111087
0.00163256
0.00221323
0.00283696
0.00349676
0.0041883
0.00490906
0.00565777
0.00643383
0.00723709
0.00806783
0.00892617
0.00981217
0.0107255
0.0116654
0.0126307
0.0136202
0.0146328
0.0156672
0.0167226
0.0177978
0.0188923
0.0200048
0.0211347
0.0222811
0.0234431
0.0246192
0.0258083
0.0270085
0.028218
0.0294343
0.0306551
0.0318773
0.0330975
0.0343121
0.0355173
0.0367095
0.0378856
0.0390427
0.0401781
0.0412897
0.0423759
0.0434346
0.00130438
0.00188822
0.00252889
0.00321202
0.00393052
0.00468007
0.00545781
0.00626217
0.0070923
0.00794761
0.00882782
0.00973271
0.0106621
0.0116156
0.0125924
0.0135913
0.0146114
0.0156517
0.0167107
0.0177875
0.0188802
0.0199877
0.0211088
0.0222422
0.0233866
0.0245407
0.0257026
0.0268704
0.0280424
0.0292164
0.0303899
0.0315613
0.0327283
0.0338877
0.0350357
0.036169
0.0372852
0.0383815
0.0394563
0.040508
0.0415353
0.0425372
0.0435131
0.0014872
0.00213083
0.00282958
0.00356917
0.00434312
0.00514652
0.00597667
0.00683261
0.00771357
0.00861838
0.00954488
0.0104928
0.0114641
0.012456
0.0134673
0.014497
0.0155449
0.0166103
0.0176911
0.018786
0.0198918
0.0210085
0.0221344
0.0232676
0.0244067
0.0255501
0.026695
0.0278399
0.028983
0.0301196
0.0312485
0.0323732
0.0334909
0.0345966
0.035686
0.0367561
0.037805
0.0388307
0.0398324
0.0408095
0.0417619
0.0426892
0.0435909
0.00170674
0.0024125
0.00315942
0.00394427
0.00476768
0.00561043
0.0064824
0.00738373
0.00831421
0.00926891
0.0102329
0.0112159
0.0122325
0.0132567
0.0142974
0.0153509
0.0164232
0.0175119
0.0186097
0.0197177
0.0208271
0.0219502
0.0230786
0.024207
0.0253389
0.0264705
0.0275969
0.0287209
0.0298367
0.0309264
0.0320042
0.0330912
0.0341687
0.0352296
0.0362694
0.0372846
0.0382748
0.0392374
0.0401731
0.0410832
0.0419689
0.0428294
0.0436647
0.000611699
0.00223121
0.00390345
0.00558857
0.00727769
0.0089675
0.0106543
0.0123373
0.0140159
0.0156915
0.0173655
0.0190378
0.0207096
0.0223828
0.0240583
0.0257364
0.0274181
0.0291041
0.0307944
0.0324894
0.0341897
0.0358953
0.0376058
0.0393211
0.0410415
0.0427665
0.0444956
0.0462285
0.0479648
0.0497035
0.0514444
0.0531869
0.0549299
0.0566727
0.0584146
0.0601546
0.0618919
0.0636255
0.0653548
0.0670786
0.0687963
0.0705074
0.0722155
4.27084e-05
0.00100934
0.00224469
0.00362852
0.00511103
0.0066569
0.00824634
0.00986722
0.0115108
0.0131722
0.0148481
0.0165354
0.0182326
0.0199391
0.0216536
0.0233758
0.0251054
0.0268425
0.0285862
0.0303361
0.032093
0.033856
0.0356244
0.0373982
0.0391773
0.0409609
0.0427482
0.0445396
0.0463336
0.0481298
0.0499277
0.0517262
0.0535246
0.0553223
0.0571181
0.0589114
0.0607009
0.0624859
0.0642654
0.0660385
0.0678043
0.0695616
0.0713111
0.000253579
0.000862874
0.00185327
0.0030007
0.00426361
0.00561486
0.00703723
0.00851699
0.0100443
0.0116121
0.0132145
0.0148458
0.0165026
0.0181816
0.0198803
0.0215964
0.0233284
0.0250744
0.0268328
0.028603
0.030384
0.0321744
0.0339736
0.0357804
0.0375942
0.0394144
0.0412401
0.0430703
0.0449042
0.0467411
0.0485798
0.0504194
0.0522592
0.0540982
0.0559354
0.0577696
0.0596
0.0614255
0.063245
0.0650575
0.066862
0.0686575
0.0704454
0.000295713
0.000786072
0.00164063
0.0026409
0.00375571
0.00496491
0.00625457
0.00761332
0.00903235
0.0105047
0.0120242
0.0135853
0.0151831
0.0168143
0.018475
0.0201625
0.0218735
0.023606
0.0253579
0.0271275
0.0289127
0.0307122
0.0325245
0.0343481
0.036182
0.0380247
0.0398753
0.0417324
0.0435947
0.0454613
0.0473313
0.0492033
0.0510763
0.0529491
0.0548205
0.0566895
0.0585545
0.0604149
0.0622692
0.0641165
0.0659556
0.0677857
0.0696099
0.000294981
0.000697707
0.00146115
0.00236223
0.00337494
0.00448218
0.0056724
0.00693628
0.00826586
0.00965532
0.0110988
0.0125913
0.0141284
0.0157062
0.0173212
0.01897
0.0206494
0.0223571
0.0240904
0.0258467
0.0276241
0.0294207
0.0312342
0.0330634
0.0349063
0.0367612
0.038627
0.0405017
0.0423842
0.0442728
0.0461665
0.0480637
0.0499634
0.0518639
0.053764
0.0556622
0.0575574
0.0594483
0.0613333
0.0632116
0.0650816
0.0669419
0.0687948
0.000294704
0.000628112
0.00132305
0.00214984
0.00308432
0.00411182
0.00522225
0.00640757
0.00766143
0.0089783
0.0103532
0.011782
0.0132605
0.0147848
0.0163521
0.0179584
0.0196016
0.0212783
0.0229859
0.0247215
0.0264836
0.0282691
0.0300758
0.0319023
0.0337463
0.035606
0.0374793
0.0393646
0.0412603
0.0431648
0.045076
0.0469929
0.0489137
0.0508367
0.0527604
0.0546836
0.0566048
0.0585219
0.0604342
0.0623398
0.064237
0.0661246
0.0680034
0.000292964
0.000576105
0.00121734
0.00198472
0.0028561
0.00381828
0.00486219
0.00598103
0.00716956
0.00842281
0.00973633
0.0111067
0.0125301
0.0140036
0.0155237
0.0170875
0.0186922
0.020335
0.0220131
0.0237242
0.0254656
0.0272346
0.0290292
0.0308472
0.0326867
0.0345451
0.0364203
0.0383103
0.040214
0.0421286
0.0440525
0.0459839
0.0479212
0.0498623
0.0518056
0.05375
0.0556929
0.0576332
0.0595691
0.0614987
0.0634205
0.0653324
0.0672346
0.000290872
0.000535189
0.00113245
0.00185048
0.00266942
0.00357698
0.00456474
0.00562688
0.00675881
0.0079559
0.00921478
0.0105324
0.0119052
0.0133306
0.0148057
0.0163277
0.017894
0.0195019
0.021149
0.0228327
0.0245504
0.0262999
0.0280785
0.029884
0.0317141
0.0335669
0.0354395
0.0373302
0.0392369
0.0411571
0.0430891
0.0450311
0.0469808
0.0489364
0.0508959
0.0528575
0.0548192
0.0567794
0.0587357
0.0606868
0.0626303
0.0645643
0.0664884
0.000289039
0.000501842
0.00106205
0.00173832
0.00251304
0.00337391
0.00431353
0.00532651
0.00640861
0.00755611
0.00876626
0.0100359
0.0113623
0.012743
0.0141755
0.0156576
0.0171864
0.0187596
0.0203751
0.0220302
0.0237228
0.0254503
0.0272104
0.0290002
0.0308182
0.0326617
0.0345283
0.0364158
0.038322
0.0402444
0.042181
0.0441298
0.0460886
0.0480553
0.0500275
0.0520033
0.0539809
0.0559579
0.0579325
0.0599024
0.0618656
0.0638196
0.0657642
0.000287363
0.000474059
0.00100264
0.00164321
0.00237991
0.00320038
0.00409792
0.00506766
0.00610567
0.0072092
0.00837522
0.00960138
0.0108853
0.0122245
0.0136172
0.0150611
0.0165538
0.0180932
0.0196772
0.0213036
0.0229703
0.0246746
0.0264141
0.0281866
0.0299899
0.0318217
0.0336794
0.035561
0.0374637
0.0393852
0.0413234
0.0432761
0.0452409
0.0472156
0.0491976
0.0511851
0.0531757
0.0551673
0.0571577
0.0591443
0.0611251
0.0630978
0.0650618
0.000285844
0.00045071
0.000951883
0.00156138
0.00226477
0.00304977
0.00391034
0.00484182
0.00584079
0.00690467
0.00803087
0.00921743
0.0104621
0.0117629
0.0131181
0.014526
0.0159842
0.017491
0.0190442
0.0206422
0.0222824
0.0239625
0.0256808
0.0274344
0.0292216
0.0310399
0.0328867
0.0347598
0.0366566
0.0385749
0.0405122
0.0424662
0.0444344
0.0464146
0.048404
0.0504007
0.052402
0.0544059
0.0564097
0.0584112
0.0604082
0.0623984
0.0643827
0.000284488
0.000430548
0.000907675
0.00148977
0.00216388
0.00291762
0.00374525
0.00464246
0.00560631
0.00663427
0.00772438
0.00887458
0.0100831
0.0113485
0.0126688
0.0140425
0.0154681
0.0169433
0.0184669
0.0200366
0.0216505
0.0233066
0.0250028
0.026737
0.028507
0.0303101
0.0321444
0.0340073
0.0358965
0.0378093
0.0397437
0.0416968
0.0436663
0.0456496
0.0476443
0.0496479
0.0516578
0.053672
0.0556874
0.0577018
0.059713
0.0617187
0.0637194
0.000283214
0.000413148
0.000868944
0.0014267
0.00207459
0.00280042
0.00359844
0.00446477
0.00539685
0.00639229
0.00744921
0.008566
0.00974137
0.0109737
0.0122613
0.0136031
0.0149974
0.0164428
0.0179376
0.0194799
0.021068
0.0227001
0.0243741
0.0260882
0.02784
0.0296273
0.0314478
0.0332992
0.0351791
0.0370849
0.0390143
0.0409647
0.0429334
0.0449182
0.0469162
0.0489248
0.0509416
0.052964
0.0549892
0.0570148
0.0590384
0.0610572
0.0630699
0.000282138
0.000397951
0.000834794
0.00137089
0.00199481
0.00269548
0.00346681
0.00430515
0.00520819
0.00617381
0.00720044
0.00828664
0.00943109
0.0106326
0.0118898
0.0132013
0.0145662
0.015983
0.0174499
0.0189657
0.0205288
0.0221372
0.0237892
0.0254829
0.0272161
0.0289868
0.0307926
0.0326314
0.0345008
0.0363982
0.0383213
0.0402673
0.0422338
0.0442183
0.0462178
0.0482298
0.0502516
0.0522807
0.0543141
0.0563493
0.0583836
0.0604143
0.0624399
0.000281075
0.000384427
0.000804275
0.00132088
0.00192306
0.00260083
0.00334786
0.00416077
0.00503732
0.00597565
0.0069743
0.00803209
0.00914789
0.0103206
0.0115492
0.0128323
0.0141692
0.0155586
0.016999
0.0184892
0.0200277
0.021613
0.0232432
0.0249164
0.0266308
0.0283844
0.0301751
0.0320006
0.0338584
0.0357464
0.0376618
0.0396022
0.0415652
0.0435477
0.0455473
0.0475611
0.0495866
0.0516207
0.053661
0.0557043
0.0577481
0.0597892
0.0618261
0.000280041
0.000372479
0.000776821
0.00127571
0.00185803
0.00251483
0.00323958
0.00402915
0.00488133
0.00579455
0.00676732
0.00779871
0.00888781
0.0100337
0.0112353
0.0124916
0.0138021
0.0151655
0.0165805
0.0180458
0.0195607
0.0211232
0.0227318
0.024385
0.0260805
0.0278168
0.029592
0.0314034
0.0332491
0.0351266
0.0370335
0.0389673
0.0409253
0.0429047
0.044903
0.0469174
0.048945
0.0509832
0.0530288
0.0550792
0.0571316
0.0591834
0.0612343
0.000279244
0.000362832
0.000751999
0.00123456
0.00179868
0.0024363
0.00314062
0.00390859
0.00473829
0.0056282
0.00657707
0.00758391
0.00864804
0.00976866
0.0109449
0.0121761
0.0134613
0.0147999
0.0161905
0.0176324
0.019124
0.0206645
0.022252
0.0238852
0.025562
0.0272811
0.0290401
0.0308374
0.0326703
0.0345367
0.0364343
0.0383604
0.0403124
0.0422878
0.0442837
0.0462975
0.0483262
0.0503669
0.0524171
0.0544735
0.0565337
0.0585954
0.0606586
0.000279036
0.000357647
0.00072952
0.00119702
0.00174428
0.00236419
0.00304969
0.00379774
0.0046065
0.00547478
0.00640125
0.00738513
0.00842591
0.00952274
0.0106752
0.0118825
0.013144
0.0144589
0.0158262
0.0172452
0.0187148
0.0202337
0.0218006
0.023414
0.0250723
0.0267741
0.0285171
0.0302997
0.0321195
0.0339744
0.0358618
0.0377796
0.0397249
0.0416953
0.043688
0.0457001
0.0477287
0.0497712
0.0518245
0.0538857
0.0559524
0.0580219
0.0600925
0.000279577
0.000356847
0.000709128
0.0011626
0.00169429
0.00229765
0.00296575
0.00369533
0.00448469
0.00533264
0.00623813
0.00720063
0.00821945
0.00929403
0.0104239
0.0116086
0.0128475
0.0141398
0.0154848
0.0168819
0.0183299
0.019828
0.0213749
0.0229689
0.0246091
0.0262936
0.0280205
0.0297883
0.0315948
0.0334376
0.0353146
0.0372233
0.0391612
0.0411258
0.0431143
0.0451237
0.0471514
0.0491945
0.05125
0.0533148
0.0553867
0.0574627
0.0595414
0.000280597
0.000358181
0.000690616
0.001131
0.00164839
0.00223615
0.00288789
0.00360032
0.00437155
0.0052005
0.00608646
0.00702874
0.00802701
0.00908051
0.0101889
0.0113521
0.0125695
0.0138403
0.015164
0.0165399
0.0179674
0.0194454
0.0209726
0.0225479
0.02417
0.0258374
0.0275484
0.0293014
0.0310941
0.0329246
0.0347906
0.0366898
0.0386198
0.040578
0.0425613
0.0445674
0.0465932
0.048636
0.0506924
0.0527598
0.0548349
0.0569149
0.0589954
0.00028176
0.000359945
0.000673724
0.00110198
0.00160599
0.00217901
0.00281548
0.00351178
0.00426608
0.00507731
0.00594481
0.00686814
0.00784681
0.00888054
0.00996885
0.0111115
0.0123083
0.0135586
0.0148619
0.0162176
0.017625
0.0190834
0.0205915
0.0221483
0.0237528
0.0254035
0.0270988
0.0288367
0.0306158
0.0324337
0.0342885
0.0361779
0.0380994
0.0400504
0.0420282
0.0440301
0.0460533
0.0480946
0.0501511
0.0522196
0.0542968
0.0563786
0.0584608
0.000282874
0.000361523
0.000658187
0.00107493
0.00156641
0.0021257
0.00274786
0.00342901
0.00416734
0.00496183
0.00581205
0.00671745
0.00767783
0.00869263
0.00976181
0.0108851
0.0120623
0.0132928
0.0145766
0.0159128
0.0173011
0.0187404
0.02023
0.0217691
0.0233562
0.0249903
0.0266697
0.0283929
0.0301582
0.0319635
0.033807
0.035686
0.0375987
0.039542
0.0415136
0.0435106
0.0455304
0.0475697
0.0496255
0.0516944
0.0537728
0.0558558
0.0579373
0.000283804
0.00036262
0.000643884
0.00104977
0.00152949
0.00207582
0.00268452
0.00335144
0.00407474
0.00485365
0.00568738
0.00657585
0.00751873
0.00851565
0.00956664
0.0106715
0.0118299
0.0130418
0.0143066
0.015624
0.0169937
0.0184148
0.0198866
0.0214081
0.0229783
0.024596
0.02626
0.0279686
0.0297201
0.0315127
0.0333443
0.035213
0.0371163
0.0390518
0.0410166
0.0430083
0.0450241
0.0470608
0.0491155
0.0511847
0.0532656
0.0553556
0.0574573
0.000284599
0.000363503
0.000630636
0.00102635
0.0014949
0.00202902
0.00262506
0.00327851
0.0039877
0.00475177
0.00557007
0.00644247
0.00736876
0.00834864
0.00938221
0.0104694
0.0116099
0.0128038
0.0140506
0.01535
0.0167017
0.0181052
0.0195595
0.021064
0.0226177
0.0242195
0.0258681
0.0275621
0.0292998
0.0310796
0.0328996
0.0347577
0.0366515
0.0385786
0.0405363
0.0425224
0.0445337
0.0465674
0.0486205
0.05069
0.0527732
0.0548679
0.0569749
0.000285365
0.000364029
0.000618299
0.00100442
0.00146257
0.00198522
0.00256916
0.00320988
0.00390562
0.00465566
0.00545926
0.00631639
0.00722697
0.00819066
0.00920771
0.010278
0.0114014
0.012578
0.0138075
0.0150896
0.016424
0.0178102
0.0192476
0.0207356
0.0222731
0.0238592
0.0254927
0.0271724
0.0288966
0.0306637
0.032472
0.0343191
0.036203
0.0381216
0.0400722
0.0420519
0.0440584
0.0460887
0.0481399
0.0502092
0.0522938
0.0543913
0.0565017
0.000285972
0.000364268
0.000606866
0.000983824
0.00143207
0.00194398
0.00251632
0.00314498
0.00382814
0.00456476
0.00535437
0.0061971
0.00709259
0.00804089
0.00904222
0.0100963
0.0112034
0.0123634
0.0135762
0.0148416
0.0161592
0.0175287
0.0189497
0.0204216
0.0219433
0.0235141
0.0251329
0.0267983
0.0285091
0.0302637
0.03206
0.0338962
0.0357703
0.0376801
0.0396229
0.0415963
0.0435976
0.045624
0.0476729
0.0497411
0.0518258
0.0539245
0.0560358
0.000286473
0.000364328
0.000596634
0.000964567
0.00140344
0.00190521
0.00246651
0.00308376
0.00375478
0.00447861
0.00525505
0.00608394
0.006965
0.00789869
0.00888488
0.00992351
0.0110149
0.012159
0.0133557
0.0146049
0.0159064
0.0172598
0.0186649
0.0201212
0.0216275
0.0231832
0.0247876
0.0264391
0.0281366
0.0298783
0.0316628
0.0334882
0.0353523
0.0372531
0.0391881
0.0411547
0.0431505
0.0451727
0.0472185
0.0492848
0.0513686
0.0534669
0.0555766
0.000286935
0.000364518
0.000588709
0.000946543
0.00137654
0.00186859
0.00241926
0.00302555
0.00368511
0.00439691
0.00516068
0.00597631
0.00684385
0.00776348
0.00873507
0.00975899
0.0108352
0.011964
0.0131452
0.0143787
0.0156646
0.0170026
0.0183923
0.0198331
0.0213244
0.0228657
0.0244556
0.0260934
0.0277777
0.029507
0.0312797
0.0330942
0.0349483
0.03684
0.0387667
0.0407265
0.0427165
0.044734
0.0467762
0.0488398
0.0509221
0.0530191
0.0551278
0.00028743
0.000365256
0.000584334
0.000929881
0.0013511
0.00183379
0.00237438
0.00297027
0.00361887
0.00431921
0.0050709
0.00587396
0.0067285
0.00763446
0.0085923
0.00960193
0.0106636
0.0117777
0.012944
0.0141625
0.0154334
0.0167562
0.0181309
0.0195569
0.0210336
0.0225603
0.0241363
0.0257606
0.0274319
0.0291488
0.0309099
0.0327133
0.0345573
0.0364397
0.0383585
0.040311
0.0422948
0.0443072
0.0463452
0.048406
0.0504862
0.0525823
0.0546907
0.000288028
0.000366718
0.000583148
0.000914589
0.00132704
0.00180075
0.00233166
0.00291765
0.00355581
0.00424515
0.00498533
0.00577633
0.00661826
0.00751136
0.00845586
0.00945185
0.0104997
0.0115995
0.0127514
0.0139554
0.0152116
0.0165199
0.01788
0.0192915
0.020754
0.0222666
0.0238291
0.02544
0.0270984
0.0288032
0.0305526
0.032345
0.0341789
0.036052
0.0379624
0.0399075
0.0418849
0.0438919
0.0459255
0.0479832
0.0500613
0.052157
0.0542683
0.000288732
0.000368742
0.000583661
0.000900376
0.00130421
0.00176933
0.00229106
0.00286752
0.00349566
0.00417452
0.00490364
0.0056831
0.00651311