/*--------------------------------*- C++ -*----------------------------------*\
| =========                 |                                                 |
| \\      /  F ield         | OpenFOAM: The Open Source CFD Toolbox           |
|  \\    /   O peration     | Version:  2.3.0                                 |
|   \\  /    A nd           | Web:      www.OpenFOAM.org                      |
|    \\/     M anipulation  |                                                 |
\*---------------------------------------------------------------------------*/
FoamFile
{
    version     2.0;
    format      ascii;
    class       volScalarField;
    location    "4000";
    object      p;
}
// * * * * * * * * * * * * * * * * * * * * * * * * * * * * * * * * * * * * * //

dimensions      [0 2 -2 0 0 0 0];

internalField   nonuniform List<scalar> 
38227
(
0.000142149
1.39101
3.09202
4.83983
6.59693
8.3694
10.1595
11.9661
13.7908
15.6346
17.4973
19.3802
21.2829
23.206
25.1495
27.1117
29.0916
31.0896
33.0991
35.1184
37.1397
39.1588
41.1666
43.1533
45.108
47.0086
48.8458
50.5841
52.1969
53.6543
54.9122
55.9065
56.5776
56.8311
56.541
55.5289
53.6116
50.4928
45.8106
39.1325
30.0456
16.5807
-7.93083
-0.654572
0.313977
1.82749
3.41973
5.02899
6.6576
8.31048
9.9849
11.68
13.3972
15.1353
16.8947
18.6758
20.4791
22.3057
24.1563
26.0316
27.9318
29.859
31.8128
33.7952
35.8035
37.8367
39.8918
41.9618
44.036
46.1037
48.15
50.1503
52.0661
53.8477
55.4325
56.7395
57.6669
58.0844
57.8256
56.6863
54.4185
50.7124
45.1928
37.3894
26.5348
11.3544
-2.10263
-1.08787
0.256486
1.64327
3.01962
4.39349
5.77071
7.15257
8.53689
9.92431
11.3138
12.703
14.0911
15.4766
16.8572
18.2305
19.5932
20.9422
22.2723
23.5788
24.8565
26.0962
27.2899
28.4272
29.4932
30.4728
31.3475
32.0855
32.6603
33.0335
33.16
32.9858
32.4423
31.4513
29.9148
27.7221
24.7453
20.8549
15.9103
9.77178
2.33548
-6.43772
-16.4059
-2.95956
-2.25023
-1.0909
0.107884
1.30049
2.49329
3.68864
4.8888
6.09218
7.29733
8.50405
9.71075
10.9157
12.1184
13.3168
14.5086
15.691
16.8616
18.0153
19.1482
20.2544
21.3254
22.3537
23.3276
24.2323
25.0525
25.7696
26.358
26.7913
27.0326
27.0419
26.7684
26.1562
25.1377
23.6388
21.5773
18.8588
15.4034
11.1263
5.959
-0.121897
-7.09211
-14.8382
-4.24165
-3.40823
-2.37276
-1.32557
-0.287896
0.7468
1.77888
2.81416
3.84852
4.88146
5.91059
6.93512
7.95271
8.96114
9.95841
10.9414
11.9075
12.8532
13.7723
14.6609
15.512
16.3171
17.0689
17.7559
18.3652
18.8788
19.2816
19.5473
19.6523
19.5616
19.2472
18.6605
17.7605
16.4874
14.7873
12.6056
9.86675
6.52739
2.5433
-2.11515
-7.42664
-13.348
-19.7475
-4.96647
-4.39105
-3.50442
-2.60274
-1.70536
-0.80297
0.0944141
0.999763
1.90312
2.80531
3.70307
4.5958
5.48189
6.35842
7.22007
8.06654
8.8949
9.70365
10.486
11.2397
11.9503
12.6117
13.2189
13.7614
14.2286
14.6002
14.8611
14.9855
14.9508
14.7275
14.294
13.6108
12.6414
11.321
9.62385
7.50586
4.89888
1.78103
-1.8739
-6.07328
-10.8085
-16.0204
-21.6148
-6.0475
-5.3947
-4.58937
-3.78082
-2.98425
-2.18895
-1.41166
-0.609516
0.193325
0.993508
1.78514
2.56849
3.34699
4.12067
4.87257
5.60967
6.32486
7.00718
7.66327
8.31479
8.91469
9.45152
9.9331
10.3541
10.7059
10.9723
11.1336
11.1624
11.0292
10.7021
10.1598
9.3922
8.38536
7.02537
5.33396
3.27182
0.766595
-2.20675
-5.61637
-9.47447
-13.7968
-18.5199
-23.5938
-6.45096
-6.17092
-5.52857
-4.83578
-4.12351
-3.40537
-2.76271
-2.06439
-1.35226
-0.622638
0.0999757
0.79228
1.47693
2.18009
2.85127
3.50478
4.17423
4.76979
5.28284
5.86071
6.40878
6.86442
7.23908
7.54985
7.79951
7.97929
8.07745
8.05832
7.90872
7.57
6.98068
6.14289
5.18981
3.83869
2.19834
0.224869
-2.13239
-5.02192
-8.19793
-11.831
-15.8439
-20.1533
-24.8444
-6.9981
-6.7305
-6.27044
-5.79686
-5.3377
-4.45379
-3.96882
-3.44289
-2.92244
-2.33041
-1.68777
-1.06989
-0.510949
0.0965466
0.710492
1.22403
1.66505
2.52144
2.87593
3.33311
3.86818
4.34575
4.6912
4.89522
5.01723
5.06984
5.06387
4.934
4.71982
4.31577
3.79919
3.06323
2.46015
1.02584
-0.620858
-2.30559
-4.41459
-7.14614
-10.1053
-13.4303
-17.3706
-21.3161
-25.16
-69.0738
-89.5407
-97.19
-105.776
-113.403
-118.585
-122.06
-124.591
-126.437
-127.787
-128.713
-129.315
-129.665
-129.825
-129.812
-129.651
-129.362
-128.954
-128.442
-127.854
-127.177
-126.434
-125.632
-124.781
-123.894
-122.97
-122.025
-121.064
-120.085
-119.099
-118.109
-117.113
-116.117
-115.122
-114.126
-113.132
-112.14
-111.148
-110.158
-109.17
-108.182
-107.196
-106.293
-9.7891
-32.3272
-50.6567
-65.1679
-76.9112
-86.324
-93.7708
-99.6289
-104.174
-107.667
-110.304
-112.259
-113.671
-114.672
-115.335
-115.754
-115.974
-116.048
-116.003
-115.874
-115.672
-115.422
-115.126
-114.796
-114.439
-114.046
-113.632
-113.192
-112.725
-112.234
-111.718
-111.177
-110.613
-110.026
-109.416
-108.786
-108.135
-107.464
-106.778
-106.075
-105.353
-104.604
-103.853
-27.0787
-37.69
-47.4803
-56.2465
-64.0462
-70.9014
-76.8317
-81.9372
-86.303
-90.0235
-93.1864
-95.8763
-98.1521
-100.084
-101.714
-103.09
-104.237
-105.187
-105.967
-106.602
-107.092
-107.469
-107.736
-107.907
-107.994
-108.003
-107.942
-107.821
-107.647
-107.421
-107.154
-106.848
-106.508
-106.135
-105.735
-105.308
-104.86
-104.388
-103.896
-103.385
-102.856
-102.304
-101.695
-23.1421
-31.6677
-40.0436
-47.9856
-55.3376
-62.0077
-67.9708
-73.2438
-77.8589
-81.8751
-85.3522
-88.3395
-90.9071
-93.1034
-94.975
-96.566
-97.9121
-99.0532
-100.005
-100.802
-101.459
-101.997
-102.429
-102.767
-103.024
-103.212
-103.332
-103.393
-103.403
-103.365
-103.281
-103.158
-102.997
-102.8
-102.573
-102.315
-102.031
-101.72
-101.384
-101.027
-100.65
-100.262
-99.8149
-26.4769
-33.3393
-40.1503
-46.7047
-52.8921
-58.6127
-63.8297
-68.5385
-72.7503
-76.4903
-79.7983
-82.7129
-85.2706
-87.5086
-89.4684
-91.1751
-92.6623
-93.9536
-95.0752
-96.0409
-96.8704
-97.5785
-98.1774
-98.6815
-99.0949
-99.434
-99.698
-99.9008
-100.045
-100.139
-100.179
-100.179
-100.135
-100.057
-99.9451
-99.8029
-99.6355
-99.4375
-99.2131
-98.9637
-98.6933
-98.41
-98.0507
-27.477
-33.4658
-39.4569
-45.2833
-50.8507
-56.0704
-60.8947
-65.3051
-69.3
-72.8979
-76.116
-78.9874
-81.5322
-83.7838
-85.7734
-87.5182
-89.0641
-90.4174
-91.6074
-92.6409
-93.5393
-94.3162
-94.9862
-95.5634
-96.0523
-96.4666
-96.8142
-97.0935
-97.3205
-97.4945
-97.6157
-97.6989
-97.7353
-97.7414
-97.713
-97.6592
-97.5807
-97.467
-97.3265
-97.1591
-96.9733
-96.7727
-96.4968
-28.8819
-34.2639
-39.6594
-44.9241
-49.9776
-54.7429
-59.1881
-63.2989
-67.0625
-70.4673
-73.553
-76.3055
-78.7673
-80.9653
-82.9318
-84.6767
-86.2448
-87.6211
-88.8385
-89.9039
-90.8359
-91.6465
-92.3575
-92.9828
-93.5368
-94.0105
-94.4203
-94.7582
-95.054
-95.2857
-95.4663
-95.6091
-95.7029
-95.7762
-95.8084
-95.8262
-95.8173
-95.7634
-95.6863
-95.5813
-95.4665
-95.3308
-95.1549
-29.7763
-34.7365
-39.7078
-44.5894
-49.3
-53.7857
-57.97
-61.8553
-65.4292
-68.6282
-71.6035
-74.2486
-76.6432
-78.8214
-80.7993
-82.5122
-84.074
-85.4466
-86.6755
-87.748
-88.6821
-89.4968
-90.2457
-90.9306
-91.5451
-92.037
-92.4851
-92.8668
-93.2218
-93.4679
-93.6866
-93.8793
-93.9994
-94.1296
-94.2153
-94.2953
-94.3331
-94.3039
-94.2621
-94.1888
-94.123
-94.026
-93.9344
-29.7083
-34.3509
-39.0291
-43.8149
-48.5221
-53.0857
-57.1473
-60.8044
-64.1859
-67.2228
-70.2816
-73.016
-75.5361
-77.8124
-79.7703
-81.2894
-82.7982
-84.1644
-85.4238
-86.5004
-87.449
-88.3093
-89.1711
-89.9597
-90.5615
-90.9393
-91.3791
-91.746
-92.0699
-92.2249
-92.4449
-92.6449
-92.6834
-92.8289
-92.876
-93.1446
-93.204
-93.09
-93.0268
-92.9438
-92.8961
-92.7734
-92.6933
-72.217
-71.8826
-71.578
-71.257
-70.9268
-70.5864
-70.2352
-69.8723
-69.4968
-69.1069
-68.7014
-68.2784
-67.8359
-67.3725
-66.8868
-66.3788
-65.8486
-65.2975
-64.7274
-64.1413
-63.5435
-62.939
-62.3327
-61.73
-61.1368
-60.5595
-60.0035
-59.4729
-58.9727
-58.5062
-58.0765
-57.6852
-57.3325
-57.0176
-56.7397
-56.4955
-56.2805
-56.0889
-55.9135
-55.7492
-55.6023
-55.4948
-55.2436
-71.6061
-71.2785
-70.9887
-70.6883
-70.3824
-70.0712
-69.755
-69.4339
-69.1088
-68.78
-68.4482
-68.114
-67.7774
-67.4395
-67.1
-66.7589
-66.4156
-66.0699
-65.7207
-65.3672
-65.0081
-64.6423
-64.2687
-63.8859
-63.493
-63.0888
-62.6729
-62.245
-61.8049
-61.3525
-60.888
-60.4122
-59.9256
-59.4292
-58.9241
-58.412
-57.8958
-57.3798
-56.8723
-56.3859
-55.9407
-55.5935
-55.3561
-71.0495
-70.7473
-70.4764
-70.1948
-69.908
-69.6165
-69.3207
-69.0207
-68.7165
-68.4091
-68.0986
-67.7856
-67.4701
-67.1526
-66.833
-66.5113
-66.1873
-65.8603
-65.5296
-65.1947
-64.8547
-64.5089
-64.1558
-63.7946
-63.424
-63.0431
-62.6513
-62.2474
-61.831
-61.4021
-60.9608
-60.5073
-60.0422
-59.5667
-59.0829
-58.5936
-58.1026
-57.6159
-57.1424
-56.6961
-56.2884
-55.9287
-55.6771
-70.5692
-70.275
-70.0149
-69.7447
-69.4688
-69.1871
-68.8997
-68.6063
-68.3069
-68.0013
-67.6896
-67.3716
-67.0474
-66.7166
-66.3793
-66.0355
-65.6856
-65.3293
-64.9668
-64.5985
-64.2243
-63.8444
-63.4587
-63.0674
-62.67
-62.2669
-61.8577
-61.4423
-61.0208
-60.5933
-60.1601
-59.7221
-59.2809
-58.8374
-58.3943
-57.9542
-57.5213
-57.1009
-56.7012
-56.3347
-56.0131
-55.7223
-55.5679
-70.1346
-69.8593
-69.6135
-69.3569
-69.0943
-68.8257
-68.5513
-68.271
-67.9845
-67.6913
-67.3919
-67.0861
-66.7737
-66.4541
-66.1273
-65.7927
-65.4508
-65.1013
-64.7443
-64.38
-64.0084
-63.6294
-63.2436
-62.8505
-62.4504
-62.0436
-61.6301
-61.2101
-60.7838
-60.3516
-59.9138
-59.4718
-59.0279
-58.5843
-58.1438
-57.7102
-57.2889
-56.887
-56.5135
-56.1806
-55.9007
-55.6399
-55.5334
-69.7585
-69.4973
-69.2673
-69.0254
-68.7778
-68.5237
-68.264
-67.9985
-67.7266
-67.4479
-67.1628
-66.8717
-66.5745
-66.2699
-65.9573
-65.6363
-65.3075
-64.97
-64.624
-64.2695
-63.9066
-63.5355
-63.1564
-62.7701
-62.3759
-61.9736
-61.5645
-61.1499
-60.7289
-60.2998
-59.8633
-59.4224
-58.9799
-58.538
-58.0996
-57.6696
-57.2545
-56.8644
-56.513
-56.2116
-55.9703
-55.7292
-55.6407
-69.4329
-69.1814
-68.9666
-68.7374
-68.5043
-68.2624
-68.0157
-67.7634
-67.5046
-67.2375
-66.9621
-66.6811
-66.395
-66.102
-65.7994
-65.4865
-65.1662
-64.8354
-64.4949
-64.1447
-63.786
-63.4177
-63.0398
-62.655
-62.2622
-61.8598
-61.45
-61.0374
-60.6231
-60.2036
-59.7744
-59.3359
-58.8973
-58.4637
-58.0348
-57.6132
-57.2057
-56.8195
-56.483
-56.2493
-56.118
-55.9286
-55.8329
-69.1359
-68.8995
-68.704
-68.4844
-68.2679
-68.0354
-67.8006
-67.561
-67.3156
-67.0607
-66.7932
-66.5206
-66.2449
-65.9658
-65.6745
-65.3674
-65.0569
-64.734
-64.4001
-64.0543
-63.7
-63.333
-62.9554
-62.5793
-62.1952
-61.7928
-61.3774
-60.969
-60.5638
-60.1517
-59.7238
-59.2821
-58.8392
-58.4045
-57.9731
-57.5486
-57.1348
-56.7417
-56.3728
-56.1116
-56.1357
-56.081
-55.9784
-68.8934
-68.6606
-68.4869
-68.2638
-68.0674
-67.8359
-67.6093
-67.3799
-67.149
-66.9109
-66.6439
-66.3673
-66.092
-65.8341
-65.5683
-65.2542
-64.9546
-64.6362
-64.3088
-63.9563
-63.615
-63.2576
-62.8403
-62.438
-62.0712
-61.6783
-61.2149
-60.7648
-60.3853
-60.0349
-59.6415
-59.1682
-58.7185
-58.323
-57.9262
-57.5217
-57.1248
-56.6301
-56.0791
-55.9335
-56.6509
-56.9152
-56.5047
-54.7977
-54.2549
-53.7096
-53.2227
-52.7823
-52.3796
-52.0077
-51.6611
-51.3355
-51.0274
-50.7348
-50.4558
-50.1884
-49.9327
-49.6872
-49.4513
-49.225
-49.0076
-48.7991
-48.5997
-48.4093
-48.2277
-48.0555
-47.8924
-47.7388
-47.5943
-47.4603
-47.336
-47.2215
-47.1177
-47.0237
-46.941
-46.8686
-46.8068
-46.756
-46.7157
-46.6865
-46.6672
-46.6583
-46.6586
-46.6677
-46.6825
-46.6757
-55.1626
-54.8545
-54.5048
-54.1482
-53.7957
-53.455
-53.1305
-52.8231
-52.5333
-52.2604
-52.0024
-51.7588
-51.5275
-51.3083
-51.0997
-50.9008
-50.71
-50.5275
-50.3519
-50.1821
-50.0178
-49.8582
-49.7032
-49.5512
-49.4031
-49.2572
-49.1141
-48.974
-48.8351
-48.6992
-48.5647
-48.4333
-48.3025
-48.1754
-48.0512
-47.9304
-47.8135
-47.7
-47.5918
-47.4891
-47.3941
-47.3058
-47.2256
-55.39
-55.0332
-54.6849
-54.3453
-54.0186
-53.7035
-53.4003
-53.1089
-52.8298
-52.5634
-52.3089
-52.0657
-51.8334
-51.611
-51.3981
-51.1942
-50.9982
-50.8099
-50.6291
-50.4551
-50.2867
-50.1253
-49.9691
-49.8181
-49.6726
-49.5316
-49.3956
-49.2634
-49.135
-49.0101
-48.8876
-48.7686
-48.6511
-48.5369
-48.4245
-48.3145
-48.2066
-48.0999
-47.9946
-47.89
-47.7875
-47.6854
-47.5589
-55.3627
-55.062
-54.7492
-54.4326
-54.1251
-53.8258
-53.5356
-53.255
-52.9848
-52.7251
-52.4757
-52.2364
-52.0076
-51.7877
-51.577
-51.3745
-51.1803
-50.9933
-50.8135
-50.6406
-50.4735
-50.3123
-50.157
-50.0073
-49.8622
-49.7218
-49.5866
-49.4547
-49.3283
-49.2049
-49.0842
-48.9669
-48.8524
-48.7422
-48.636
-48.5342
-48.4354
-48.339
-48.245
-48.1531
-48.0644
-47.9769
-47.8713
-55.3708
-55.1111
-54.832
-54.5424
-54.2563
-53.9738
-53.6975
-53.4285
-53.1679
-52.916
-52.6733
-52.4402
-52.2164
-52.0012
-51.7952
-51.597
-51.407
-51.2236
-51.0475
-50.8773
-50.7133
-50.5534
-50.4015
-50.2536
-50.1111
-49.9739
-49.8418
-49.7126
-49.5892
-49.4658
-49.3443
-49.2252
-49.1104
-49.0007
-48.8957
-48.7959
-48.6996
-48.6049
-48.5123
-48.4233
-48.3383
-48.2549
-48.1501
-55.4799
-55.2252
-54.951
-54.6659
-54.3853
-54.1093
-53.8401
-53.5787
-53.3253
-53.0791
-52.8408
-52.6125
-52.3928
-52.1817
-51.978
-51.7832
-51.5953
-51.4147
-51.2417
-51.0718
-50.9087
-50.7501
-50.601
-50.4552
-50.3159
-50.1814
-50.05
-49.9245
-49.8023
-49.6777
-49.5537
-49.4338
-49.3214
-49.2156
-49.1167
-49.024
-48.9321
-48.8393
-48.7493
-48.6636
-48.5829
-48.5041
-48.4049
-55.6204
-55.3308
-55.039
-54.7467
-54.4646
-54.1922
-53.9273
-53.6705
-53.4216
-53.1748
-52.9358
-52.7109
-52.4909
-52.2814
-52.0783
-51.8865
-51.6985
-51.5216
-51.3517
-51.1797
-51.0159
-50.8595
-50.7172
-50.574
-50.4384
-50.3105
-50.1829
-50.0749
-49.9631
-49.8402
-49.7128
-49.5955
-49.4908
-49.393
-49.3029
-49.2196
-49.1328
-49.0408
-48.9529
-48.8728
-48.7998
-48.7331
-48.6329
-55.7756
-55.4801
-55.1968
-54.8783
-54.5905
-54.3161
-54.0557
-53.8139
-53.5868
-53.3386
-53.1046
-52.9026
-52.6917
-52.4961
-52.2959
-52.1205
-51.9329
-51.7785
-51.6047
-51.4254
-51.2608
-51.1177
-50.989
-50.8383
-50.7089
-50.5943
-50.4615
-50.3788
-50.2375
-50.0538
-49.8813
-49.7527
-49.6461
-49.5479
-49.4674
-49.3988
-49.3134
-49.2103
-49.1193
-49.0414
-48.9736
-48.9309
-48.8756
-55.8553
-55.291
-54.9961
-54.6956
-54.4164
-54.1986
-53.9636
-53.7315
-53.4813
-53.1371
-52.8771
-52.7191
-52.4135
-52.1648
-51.9379
-51.7263
-51.524
-51.3328
-51.1288
-50.8828
-50.7474
-50.6105
-50.4703
-50.2841
-50.1784
-50.0527
-49.8778
-49.8528
-49.5772
-49.3945
-49.4341
-49.4654
-49.5037
-49.5206
-49.5407
-49.5446
-49.4691
-49.3406
-49.2693
-49.2411
-49.2407
-49.2868
-49.3505
266.043
250.916
232.758
215.273
198.867
183.385
168.946
155.633
143.477
132.415
122.395
113.335
105.149
97.7388
91.0158
84.9007
79.3119
74.1752
69.4369
65.0241
60.8966
57.0125
53.3371
49.8401
46.4952
43.2886
40.1961
37.2093
34.3189
31.5145
28.7867
26.1339
23.5483
21.027
18.5667
16.1639
13.8174
11.5222
9.27842
7.08044
4.91332
2.824
1.10326
141.242
140.958
138.16
134.11
129.539
124.702
119.712
114.662
109.611
104.608
99.6955
94.8911
90.2066
85.6664
81.2659
77.0168
72.9154
68.9597
65.1545
61.4852
57.949
54.5426
51.2556
48.0811
45.0085
42.0387
39.1559
36.3574
33.6371
30.9898
28.4082
25.891
23.4304
21.027
18.6748
16.3711
14.1162
11.9057
9.73986
7.61452
5.51937
3.49292
1.84156
112.984
114.748
115.219
115.039
114.216
112.78
110.79
108.319
105.451
102.257
98.8088
95.1712
91.3948
87.5359
83.6343
79.7248
75.839
71.9965
68.221
64.5211
60.9075
57.389
53.9645
50.6406
47.4084
44.2747
41.2291
38.2751
35.4031
32.612
29.8975
27.2572
24.6836
22.1755
19.7303
17.3434
15.0115
12.7331
10.5057
8.32018
6.16928
4.09473
2.28867
115.197
114.667
113.047
111.248
109.285
107.135
104.796
102.278
99.5961
96.7658
93.8077
90.7382
87.5754
84.3382
81.0472
77.7174
74.3667
71.011
67.6613
64.3331
61.0327
57.7728
54.5565
51.3949
48.2885
45.2408
42.2541
39.332
36.472
33.6756
30.9416
28.2692
25.6586
23.1051
20.6092
18.1707
15.7849
13.4528
11.1734
8.94161
6.74993
4.65954
3.05646
101.31
100.713
99.7137
98.5893
97.3014
95.8507
94.2449
92.4905
90.5889
88.5468
86.3686
84.0642
81.6411
79.1113
76.4862
73.7817
71.0056
68.1773
65.3034
62.4037
59.483
56.559
53.6362
50.7237
47.8343
44.9683
42.136
39.338
36.5825
33.8667
31.1978
28.5727
25.9956
23.4677
20.9846
18.5519
16.165
13.8269
11.534
9.28615
7.06906
4.92725
3.18702
87.5814
87.3916
87.0983
86.6543
86.0427
85.2668
84.3293
83.2313
81.9756
80.5666
79.0089
77.309
75.476
73.5158
71.4405
69.2588
66.9815
64.621
62.188
59.6919
57.146
54.5609
51.9456
49.3102
46.6652
44.0148
41.3728
38.7374
36.1217
33.527
30.9587
28.4198
25.9114
23.4406
21.0038
18.6054
16.246
13.927
11.6465
9.40581
7.19304
5.04063
3.22044
78.5939
78.4858
78.2826
77.9354
77.4714
76.8899
76.1874
75.3614
74.4121
73.3385
72.1404
70.8206
69.3813
67.8259
66.16
64.3868
62.515
60.5492
58.4999
56.3719
54.1765
51.9212
49.6137
47.2637
44.8803
42.4695
40.0432
37.6024
35.1588
32.7172
30.2813
27.8593
25.4522
23.0674
20.7036
18.3678
16.0598
13.7824
11.5373
9.32301
7.13413
4.99786
3.15159
70.8724
70.786
70.5998
70.2997
69.9156
69.4457
68.8851
68.2316
67.4837
66.637
65.69
64.6425
63.4922
62.2403
60.8881
59.4368
57.8899
56.2504
54.5229
52.7136
50.8262
48.8694
46.8483
44.7696
42.6414
40.4707
38.2655
36.0296
33.7737
31.502
29.2201
26.9357
24.6515
22.3754
20.1071
17.855
15.6189
13.4039
11.2125
9.04298
6.89213
4.78693
2.94234
63.4806
63.4469
63.3303
63.1235
62.8497
62.5041
62.0839
61.5864
61.009
60.3483
59.6032
58.7706
57.8492
56.8369
55.7343
54.5415
53.2586
51.8872
50.4302
48.8904
47.2711
45.5767
43.8122
41.9826
40.0925
38.15
36.1596
34.1278
32.0608
29.9657
27.8459
25.7103
23.5614
21.4074
19.2505
17.0967
14.9489
12.8119
10.6885
8.58038
6.48194
4.42282
2.60705
56.8365
56.8381
56.7687
56.628
56.4315
56.1755
55.8573
55.4742
55.0232
54.5029
53.9097
53.2413
52.4956
51.6703
50.7643
49.7774
48.7078
47.556
46.3234
45.0104
43.6205
42.1542
40.6159
39.0086
37.3361
35.6044
33.817
31.98
30.0976
28.1761
26.2207
24.2374
22.2305
20.2069
18.1695
16.1247
14.0765
12.0284
9.9858
7.94943
5.91735
3.9177
2.16006
50.8356
50.8665
50.8282
50.7308
50.5856
50.3902
50.1438
49.8429
49.4851
49.0684
48.5897
48.0469
47.4369
46.7575
46.007
45.1843
44.2871
43.3153
42.2678
41.1458
39.9494
38.6793
37.338
35.9272
34.4497
32.9097
31.309
29.6536
27.9469
26.1937
24.3977
22.5665
20.7019
18.812
16.8987
14.9686
13.0263
11.075
9.12145
7.16472
5.20424
3.26883
1.589
45.3496
45.3908
45.3702
45.3019
45.1934
45.0435
44.8512
44.613
44.3269
43.9904
43.6013
43.1567
42.6539
42.0909
41.4652
40.7749
40.0189
39.1948
38.3018
37.3396
36.3075
35.2054
34.0349
32.7963
31.4918
30.1233
28.6934
27.2047
25.6612
24.0666
22.4239
20.7394
19.0146
17.257
15.4693
13.6567
11.8238
9.97501
8.11535
6.24716
4.37025
2.51117
0.912908
40.2167
40.2771
40.2775
40.2376
40.163
40.0528
39.9055
39.7187
39.4911
39.2201
38.903
38.5378
38.1225
37.6544
37.1306
36.5496
35.9095
35.2085
34.4447
33.617
32.7245
31.7669
30.7441
29.6559
28.5041
27.2886
26.0121
24.6756
23.2826
21.8352
20.337
18.792
17.2026
15.5738
13.9097
12.2144
10.491
8.7458
6.98197
5.20124
3.40194
1.59754
-0.0272924
35.4588
35.5256
35.5358
35.5146
35.4642
35.3842
35.2722
35.1263
34.9453
34.7266
34.4682
34.1681
33.8238
33.4331
32.9937
32.5029
31.9594
31.3613
30.706
29.9926
29.2196
28.3859
27.4912
26.5345
25.5164
24.4372
23.298
22.0993
20.8438
19.5329
18.1688
16.7552
15.2941
13.7898
12.2453
10.6647
9.05128
7.40962
5.74334
4.05409
2.33971
0.61059
-0.979726
30.9868
31.0604
31.0819
31.0775
31.048
30.993
30.91
30.7977
30.6548
30.4793
30.2693
30.0226
29.7372
29.411
29.0416
28.6263
28.1639
27.6525
27.0893
26.4731
25.8025
25.076
24.2924
23.4506
22.5508
21.5921
20.5756
19.5014
18.3704
17.1843
15.9448
14.6535
13.3137
11.9273
10.4979
9.02869
7.52286
5.98445
4.41724
2.82364
1.20302
-0.427914
-1.90305
26.7327
26.8202
26.8571
26.8716
26.8633
26.8318
26.7754
26.6935
26.5845
26.4466
26.2779
26.0768
25.8415
25.57
25.2598
24.9087
24.5155
24.0779
23.5937
23.061
22.4786
21.8449
21.158
20.4169
19.6212
18.7696
17.8629
16.9004
15.8826
14.8104
13.6854
12.5078
11.281
10.006
8.68595
7.32363
5.922
4.48417
3.01421
1.51434
-0.0167178
-1.5591
-2.93921
22.7484
22.8391
22.8806
22.9045
22.9099
22.8952
22.8591
22.8005
22.7188
22.6119
22.4778
22.3148
22.1217
21.8964
21.6365
21.3406
21.0062
20.6321
20.2156
19.7553
19.2493
18.6961
18.094
17.4417
16.7377
15.9815
15.1728
14.3107
13.3956
12.427
11.4066
10.3347
9.21265
8.0423
6.82549
5.56478
4.26288
2.92256
1.54791
0.142548
-1.29296
-2.73978
-4.0241
18.9367
19.0392
19.0909
19.127
19.1466
19.1479
19.1302
19.0926
19.0342
18.9541
18.8497
18.7196
18.5627
18.3767
18.1603
17.9113
17.6282
17.3088
16.951
16.5535
16.1143
15.6315
15.1038
14.5294
13.907
13.2358
12.5144
11.7429
10.9202
10.0465
9.12152
8.14681
7.12184
6.04899
4.92926
3.76438
2.55672
1.30882
0.0234227
-1.29673
-2.65284
-4.0373
-5.33364
15.3075
15.4199
15.4788
15.5247
15.5556
15.5711
15.5699
15.5507
15.5131
15.4557
15.3767
15.2754
15.1498
14.9983
14.8192
14.6112
14.3726
14.1009
13.7943
13.4517
13.071
12.6504
12.1884
11.6829
11.133
10.5376
9.89475
9.20461
8.4657
7.67794
6.84059
5.95488
5.0201
4.0376
3.00866
1.93414
0.81546
-0.344356
-1.54366
-2.77969
-4.05097
-5.35445
-6.60988
11.8516
11.9698
12.0328
12.0859
12.1262
12.1531
12.1652
12.1617
12.1415
12.1035
12.0469
11.9701
11.8721
11.7505
11.604
11.4316
11.2316
11.0018
10.7403
10.4458
10.1166
9.75107
9.34711
8.90313
8.41783
7.89001
7.31802
6.70117
6.03822
5.32854
4.57156
3.76743
2.9162
2.01783
1.07311
0.0833094
-0.950858
-2.02762
-3.14558
-4.30297
-5.49704
-6.73053
-8.02197
8.55415
8.67289
8.73745
8.79675
8.84427
8.87969
8.90267
8.91222
8.90694
8.88603
8.84834
8.79298
8.71842
8.62305
8.50527
8.36402
8.1979
8.00487
7.78318
7.53146
7.24795
6.93108
6.57873
6.18957
5.7622
5.29518
4.78711
4.23628
3.64224
3.00367
2.32029
1.59138
0.816945
-0.00320319
-0.868994
-1.7794
-2.73403
-3.73181
-4.77232
-5.85475
-6.97865
-8.1407
-9.36153
5.36091
5.4839
5.555
5.62304
5.67966
5.72558
5.76004
5.78249
5.79153
5.78641
5.76656
5.73036
5.67733
5.60538
5.51345
5.40021
5.2642
5.1039
4.91776
4.70378
4.4611
4.18756
3.88144
3.54151
3.16602
2.75378
2.30319
1.81243
1.28121
0.707613
0.0915404
-0.568178
-1.2716
-2.01942
-2.81136
-3.64729
-4.52637
-5.44831
-6.41251
-7.41899
-8.46667
-9.54611
-10.6215
2.30764
2.42832
2.50116
2.57394
2.63715
2.69117
2.73505
2.76829
2.7895
2.79863
2.79413
2.77551
2.74134
2.69014
2.62111
2.53281
2.42364
2.29276
2.13795
1.95815
1.75192
1.51751
1.25324
0.957533
0.628895
0.265954
-0.132587
-0.568606
-1.04297
-1.55706
-2.11155
-2.70751
-3.34524
-4.02562
-4.74883
-5.51478
-6.32244
-7.17174
-8.06093
-8.98932
-9.95336
-10.9394
-11.8219
-0.666139
-0.538048
-0.457669
-0.376275
-0.304425
-0.241209
-0.187199
-0.143333
-0.109711
-0.0874145
-0.0775969
-0.0805582
-0.0974855
-0.129896
-0.178505
-0.244475
-0.329086
-0.433754
-0.560226
-0.709633
-0.883032
-1.0822
-1.30902
-1.56467
-1.85088
-2.169
-2.52037
-2.90653
-3.32887
-3.78849
-4.28635
-4.82352
-5.40082
-6.01873
-6.67793
-7.37836
-8.11964
-8.90156
-9.72275
-10.5829
-11.4798
-12.4106
-13.3034
-3.49429
-3.37095
-3.2917
-3.20903
-3.13328
-3.06475
-3.00403
-2.95198
-2.90911
-2.87575
-2.85357
-2.84288
-2.84464
-2.86043
-2.89064
-2.93681
-2.99966
-3.08068
-3.18153
-3.30318
-3.44689
-3.61458
-3.80745
-4.02681
-4.27455
-4.55192
-4.86024
-5.20104
-5.57564
-5.98521
-6.43095
-6.91411
-7.43557
-7.99567
-8.59531
-9.23491
-9.91424
-10.6331
-11.3911
-12.1876
-13.0234
-13.8962
-14.7052
-6.2469
-6.12257
-6.0401
-5.95259
-5.87218
-5.79765
-5.73006
-5.67035
-5.61834
-5.57544
-5.54242
-5.51919
-5.50736
-5.50785
-5.52128
-5.5494
-5.59267
-5.6523
-5.72992
-5.82663
-5.94371
-6.08269
-6.24469
-6.43113
-6.64389
-6.88401
-7.15285
-7.45206
-7.78287
-8.14656
-8.54448
-8.9777
-9.4473
-9.95384
-10.4981
-11.0811
-11.7023
-12.362
-13.0598
-13.7952
-14.5694
-15.3838
-16.1381
-8.90734
-8.78494
-8.70133
-8.61079
-8.52645
-8.44666
-8.37282
-8.30568
-8.24569
-8.19383
-8.15024
-8.11572
-8.09173
-8.0781
-8.07641
-8.08802
-8.11334
-8.15367
-8.21013
-8.28422
-8.37689
-8.48954
-8.62324
-8.77958
-8.96032
-9.16642
-9.39911
-9.66022
-9.95089
-10.2725
-10.6263
-11.0132
-11.4346
-11.8914
-12.3843
-12.9142
-13.4811
-14.0856
-14.7275
-15.4065
-16.1247
-16.89
-17.6329
-11.5102
-11.3842
-11.2945
-11.198
-11.1076
-11.0211
-10.9406
-10.866
-10.7979
-10.737
-10.6835
-10.6385
-10.6026
-10.5762
-10.5608
-10.5569
-10.5659
-10.5884
-10.6256
-10.6789
-10.7493
-10.8377
-10.9456
-11.0746
-11.2259
-11.4007
-11.6003
-11.8263
-12.0799
-12.3626
-12.6755
-13.0197
-13.3965
-13.807
-14.252
-14.7322
-15.2483
-15.8007
-16.3898
-17.0156
-17.6795
-18.391
-19.1038
-14.0247
-13.898
-13.8059
-13.7057
-13.611
-13.5201
-13.434
-13.3529
-13.2774
-13.2083
-13.146
-13.0911
-13.0441
-13.0063
-12.9779
-12.9604
-12.9542
-12.9601
-12.9798
-13.014
-13.0637
-13.13
-13.2144
-13.3181
-13.4422
-13.5884
-13.7576
-13.9512
-14.1707
-14.4172
-14.6921
-14.9968
-15.3321
-15.6994
-16.0995
-16.5333
-17.0017
-17.5049
-18.0436
-18.6178
-19.2283
-19.8837
-20.5528
-16.4574
-16.3312
-16.2381
-16.1357
-16.0389
-15.9446
-15.854
-15.7679
-15.6862
-15.6101
-15.54
-15.4764
-15.42
-15.3715
-15.3314
-15.3011
-15.2811
-15.2721
-15.2755
-15.292
-15.3229
-15.3689
-15.4315
-15.5118
-15.6111
-15.7308
-15.8716
-16.0354
-16.2233
-16.4364
-16.6763
-16.9442
-17.241
-17.568
-17.926
-18.3163
-18.7397
-19.1966
-19.6876
-20.2124
-20.7722
-21.3737
-21.9903
-18.8451
-18.715
-18.6175
-18.5109
-18.4092
-18.3098
-18.2136
-18.1213
-18.0335
-17.9501
-17.8725
-17.8006
-17.735
-17.6763
-17.6256
-17.5832
-17.5505
-17.5277
-17.516
-17.5163
-17.5296
-17.557
-17.5996
-17.6583
-17.7345
-17.8294
-17.9442
-18.0804
-18.2388
-18.4209
-18.6283
-18.8618
-19.1225
-19.4118
-19.7308
-20.0804
-20.4615
-20.8748
-21.3206
-21.7988
-22.3098
-22.859
-23.4191
-21.1445
-21.0181
-20.9225
-20.8153
-20.7115
-20.6091
-20.5091
-20.4124
-20.3191
-20.2298
-20.1451
-20.0657
-19.9915
-19.9237
-19.8629
-19.8097
-19.7651
-19.7294
-19.7036
-19.689
-19.6863
-19.6964
-19.7202
-19.7589
-19.8138
-19.8858
-19.9765
-20.0869
-20.2182
-20.3715
-20.5483
-20.7496
-20.9767
-21.2309
-21.5131
-21.8247
-22.1662
-22.5389
-22.943
-23.3789
-23.8476
-24.3562
-24.8891
-23.4139
-23.2828
-23.1824
-23.0706
-22.9622
-22.855
-22.7502
-22.6483
-22.5493
-22.4537
-22.3624
-22.2754
-22.1937
-22.1173
-22.0469
-21.9836
-21.9278
-21.8801
-21.8415
-21.8127
-21.795
-21.7889
-21.7954
-21.8155
-21.8506
-21.9016
-21.9697
-22.0559
-22.1618
-22.2884
-22.4367
-22.6079
-22.8037
-23.0249
-23.2728
-23.5484
-23.8528
-24.1871
-24.5521
-24.9485
-25.3777
-25.8481
-26.3539
-25.6158
-25.4848
-25.3834
-25.2693
-25.1577
-25.0463
-24.9373
-24.8305
-24.7259
-24.6245
-24.5268
-24.4329
-24.3437
-24.2592
-24.1802
-24.1073
-24.0409
-23.9822
-23.9315
-23.8897
-23.858
-23.8368
-23.8272
-23.8301
-23.8467
-23.878
-23.9249
-23.9888
-24.0709
-24.1722
-24.2938
-24.4371
-24.6033
-24.7937
-25.0092
-25.2509
-25.5203
-25.8183
-26.1458
-26.5038
-26.8942
-27.3261
-27.811
-27.7508
-27.6215
-27.5212
-27.4066
-27.2931
-27.1799
-27.068
-26.9575
-26.8488
-26.7427
-26.6393
-26.5393
-26.4432
-26.3513
-26.2643
-26.1826
-26.1067
-26.0376
-25.9757
-25.9219
-25.877
-25.8417
-25.817
-25.8039
-25.8032
-25.8161
-25.8435
-25.8864
-25.9461
-26.0238
-26.1205
-26.2376
-26.3762
-26.5373
-26.7222
-26.932
-27.1679
-27.431
-27.7223
-28.0427
-28.3935
-28.783
-29.2327
-29.8451
-29.716
-29.6143
-29.4973
-29.3815
-29.2654
-29.1499
-29.0355
-28.9227
-28.812
-28.7037
-28.5978
-28.4953
-28.3967
-28.3022
-28.212
-28.1273
-28.0485
-27.9762
-27.9111
-27.8538
-27.8054
-27.7668
-27.7387
-27.7218
-27.7173
-27.7262
-27.7495
-27.7886
-27.8443
-27.9175
-28.0098
-28.1221
-28.2556
-28.4117
-28.5912
-28.7953
-29.0251
-29.2815
-29.5649
-29.8757
-30.2217
-30.6241
-31.9009
-31.7694
-31.6651
-31.5456
-31.4265
-31.3069
-31.1877
-31.0692
-30.952
-30.8366
-30.7232
-30.6117
-30.5033
-30.398
-30.2962
-30.1984
-30.1051
-30.0172
-29.9351
-29.8594
-29.7906
-29.7299
-29.6781
-29.6358
-29.6036
-29.5829
-29.5745
-29.5794
-29.5989
-29.6338
-29.6851
-29.754
-29.8416
-29.9492
-30.0779
-30.2287
-30.4028
-30.6012
-30.825
-31.075
-31.3496
-31.6553
-32.0619
-33.8802
-33.7535
-33.653
-33.5357
-33.4169
-33.2965
-33.1759
-33.0552
-32.9349
-32.8157
-32.6978
-32.5817
-32.4677
-32.3564
-32.2479
-32.1427
-32.0418
-31.9452
-31.8539
-31.7682
-31.6888
-31.6166
-31.5524
-31.4966
-31.4502
-31.4142
-31.3896
-31.3773
-31.3782
-31.3933
-31.4239
-31.4708
-31.5352
-31.6184
-31.7213
-31.8449
-31.9905
-32.1588
-32.3509
-32.5671
-32.8065
-33.0702
-33.3574
-35.8432
-35.7166
-35.614
-35.494
-35.3726
-35.2497
-35.1257
-35.0016
-34.8777
-34.7544
-34.6322
-34.5112
-34.3919
-34.2745
-34.1596
-34.0479
-33.9393
-33.8345
-33.7344
-33.6394
-33.5498
-33.4666
-33.3907
-33.3225
-33.2627
-33.2123
-33.1725
-33.1439
-33.1272
-33.1238
-33.1347
-33.1608
-33.2035
-33.2634
-33.3418
-33.4399
-33.5587
-33.699
-33.8619
-34.0481
-34.2578
-34.4948
-34.7585
-37.7829
-37.6525
-37.5456
-37.4216
-37.2964
-37.1691
-37.0409
-36.9125
-36.7842
-36.6562
-36.529
-36.403
-36.2781
-36.1549
-36.0338
-35.9153
-35.7995
-35.6871
-35.5787
-35.4745
-35.3754
-35.2819
-35.1948
-35.1147
-35.0422
-34.9783
-34.9239
-34.8798
-34.847
-34.8262
-34.8184
-34.8249
-34.8468
-34.8849
-34.9402
-35.014
-35.1075
-35.2215
-35.3573
-35.5159
-35.6985
-35.9128
-36.1739
-39.6705
-39.5383
-39.4304
-39.3045
-39.1765
-39.0466
-38.9154
-38.7833
-38.6511
-38.5191
-38.3874
-38.2566
-38.1268
-37.9981
-37.8711
-37.7461
-37.6237
-37.504
-37.3875
-37.2749
-37.1668
-37.0635
-36.9659
-36.8745
-36.7901
-36.7134
-36.6451
-36.5863
-36.538
-36.5007
-36.4755
-36.4633
-36.4654
-36.4826
-36.5162
-36.567
-36.6362
-36.7251
-36.8348
-36.9666
-37.1223
-37.3115
-37.554
-41.4947
-41.3667
-41.2612
-41.1362
-41.0082
-40.8777
-40.7452
-40.6111
-40.4766
-40.342
-40.2069
-40.0723
-39.9382
-39.8046
-39.6722
-39.5414
-39.4126
-39.2861
-39.1623
-39.0418
-38.9249
-38.8125
-38.7049
-38.603
-38.5071
-38.4183
-38.3371
-38.2645
-38.2013
-38.1484
-38.1064
-38.0767
-38.06
-38.0573
-38.0701
-38.0989
-38.1449
-38.2095
-38.2936
-38.3986
-38.5254
-38.6814
-38.9028
-43.2996
-43.1701
-43.0635
-42.9369
-42.8072
-42.6748
-42.5404
-42.4042
-42.2673
-42.1296
-41.9912
-41.8528
-41.7145
-41.5764
-41.4389
-41.3029
-41.1679
-41.035
-40.9041
-40.7761
-40.6512
-40.5299
-40.4129
-40.3009
-40.1944
-40.0941
-40.0006
-39.9148
-39.8377
-39.7698
-39.7121
-39.6657
-39.6311
-39.6096
-39.6023
-39.6099
-39.6337
-39.6747
-39.7336
-39.8111
-39.9075
-40.0293
-40.2184
-45.0776
-44.947
-44.8392
-44.7104
-44.5783
-44.4435
-44.3063
-44.1673
-44.027
-43.8857
-43.7438