/*--------------------------------*- C++ -*----------------------------------*\
| =========                 |                                                 |
| \\      /  F ield         | OpenFOAM: The Open Source CFD Toolbox           |
|  \\    /   O peration     | Version:  2.3.0                                 |
|   \\  /    A nd           | Web:      www.OpenFOAM.org                      |
|    \\/     M anipulation  |                                                 |
\*---------------------------------------------------------------------------*/
FoamFile
{
    version     2.0;
    format      ascii;
    class       surfaceScalarField;
    location    "4000";
    object      phi;
}
// * * * * * * * * * * * * * * * * * * * * * * * * * * * * * * * * * * * * * //

dimensions      [0 3 -1 0 0 0 0];

internalField   nonuniform List<scalar> 
76114
(
0.00143046
-0.00488695
0.00530607
-0.00184958
0.00104915
-0.00468516
0.00506648
0.000704317
-0.00449168
0.0048365
0.000394591
-0.0043063
0.00461603
0.000118146
-0.00412822
0.00440466
-0.000126285
-0.0039575
0.00420193
-0.000340591
-0.00379329
0.00400759
-0.00052554
-0.00363595
0.0038209
-0.000682987
-0.00348478
0.00364223
-0.000814093
-0.00333958
0.00347068
-0.00091975
-0.00320036
0.00330601
-0.00100156
-0.00306648
0.00314828
-0.00106049
-0.00293784
0.00299677
-0.00109743
-0.00281445
0.00285139
-0.00111374
-0.00269572
0.00271202
-0.00111034
-0.00258152
0.00257812
-0.00108784
-0.00247202
0.00244951
-0.00104746
-0.00236637
0.002326
-0.000989668
-0.00226502
0.00220722
-0.000915577
-0.00216717
0.00209308
-0.000825541
-0.00207311
0.00198307
-0.000720282
-0.00198247
0.00187721
-0.000600364
-0.001895
0.00177508
-0.000466309
-0.00181052
0.00167646
-0.000318455
-0.00172923
0.00158138
-0.000156853
-0.00165061
0.001489
1.77632e-05
-0.0015743
0.00139968
0.000205806
-0.00150095
0.00131291
0.000406749
-0.00142931
0.00122837
0.000620913
-0.00136022
0.00114605
0.000848262
-0.00129308
0.00106573
0.00108975
-0.00122814
0.000986644
0.00134579
-0.00116498
0.000908947
0.00161731
-0.00110404
0.000832523
0.00190529
-0.00104501
0.000757021
0.00221286
-0.000988882
0.000681314
0.00254192
-0.000935173
0.000606097
0.00289616
-0.000884466
0.000530226
0.00328102
-0.00083794
0.000453062
0.00370526
-0.000797158
0.000372902
0.00418368
-0.000764815
0.000286385
0.00475007
-0.000745702
0.000179308
-0.000751499
0.00554091
-3.93483e-05
0.00133725
-0.00450545
-0.00171876
0.000990588
-0.0043385
0.000677253
-0.00417834
0.000395054
-0.0040241
0.000142913
-0.00387607
-8.0885e-05
-0.0037337
-0.000277196
-0.00359698
-0.000447439
-0.00346571
-0.000592802
-0.00333942
-0.000714411
-0.00321797
-0.000813281
-0.00310148
-0.000890604
-0.00298915
-0.000946931
-0.00288151
-0.000983899
-0.00277748
-0.00100183
-0.00267779
-0.00100167
-0.00258168
-0.000984523
-0.00248916
-0.000950939
-0.00239996
-0.000901709
-0.00231425
-0.000837556
-0.00223132
-0.000759112
-0.00215155
-0.000666857
-0.00207473
-0.000561482
-0.00200037
-0.000443317
-0.00192868
-0.000312759
-0.00185979
-0.000170597
-0.00179277
-1.65396e-05
-0.00172835
0.000148834
-0.00166633
0.000325639
-0.00160611
0.000514253
-0.00154884
0.000714224
-0.00149305
0.000926464
-0.00144038
0.00115116
-0.00138968
0.00138889
-0.00134178
0.00164107
-0.00129719
0.00190846
-0.00125628
0.00219237
-0.00121909
0.00249481
-0.00118691
0.00281784
-0.00116097
0.00316304
-0.00114236
0.0035303
-0.00113208
0.00391656
-0.00113197
-0.00114653
0.00431159
0.00124321
-0.0041613
-0.00158736
0.000929045
-0.00402433
0.00064398
-0.00389328
0.000387122
-0.00376724
0.000157021
-0.00364597
-4.73589e-05
-0.00352932
-0.000226986
-0.00341735
-0.000383447
-0.00330925
-0.000517252
-0.00320561
-0.000629552
-0.00310567
-0.000721511
-0.00300953
-0.000793552
-0.00291711
-0.000847054
-0.00282801
-0.000882412
-0.00274212
-0.000900769
-0.00265943
-0.000902617
-0.00257983
-0.000888755
-0.00250302
-0.000859754
-0.00242896
-0.000816554
-0.00235745
-0.000759394
-0.00228848
-0.000689033
-0.00222191
-0.000606047
-0.00215771
-0.000510765
-0.00209565
-0.000403632
-0.00203581
-0.000285251
-0.00197817
-0.000155571
-0.00192245
-1.53469e-05
-0.00186857
0.000135607
-0.00181728
0.000296847
-0.00176735
0.000467823
-0.00171982
0.000649377
-0.0016746
0.000840472
-0.00163148
0.00104176
-0.00159096
0.00125285
-0.00155287
0.00147421
-0.00151855
0.00170533
-0.0014874
0.00194721
-0.00146096
0.00219873
-0.00143844
0.00245893
-0.00142116
0.00272758
-0.00141102
0.00300266
-0.00140716
0.0032808
-0.0014101
-0.0014223
0.00355657
0.00115356
-0.00384684
-0.00146802
0.000867299
-0.00373807
0.000607495
-0.00363347
0.000372812
-0.00353256
0.000162565
-0.00343573
-2.47016e-05
-0.00334205
-0.00018987
-0.00325218
-0.000333865
-0.00316525
-0.000457631
-0.00308185
-0.000561959
-0.00300134
-0.000647696
-0.00292379
-0.000715799
-0.00284901
-0.000766871
-0.00277694
-0.000801876
-0.00270712
-0.000821208
-0.0026401
-0.000825742
-0.00257529
-0.000816103
-0.00251266
-0.000792775
-0.00245229
-0.00075631
-0.00239391
-0.000707335
-0.00233745
-0.000646465
-0.00228278
-0.000574054
-0.00223012
-0.000490537
-0.00217917
-0.000396335
-0.00213002
-0.000291858
-0.00208264
-0.000177447
-0.00203686
-5.3175e-05
-0.00199285
7.99015e-05
-0.00195036
0.000222517
-0.00190997
0.000374287
-0.00187159
0.000534344
-0.00183466
0.000703137
-0.00180027
0.000880194
-0.00176802
0.00106622
-0.0017389
0.00125993
-0.00171226
0.00146156
-0.00168903
0.00167082
-0.00167023
0.00188761
-0.00165522
0.00211157
-0.00164512
0.0023412
-0.00164065
0.00257525
-0.00164121
0.00281365
-0.0016485
-0.00166032
0.00305166
0.00106672
-0.00356127
-0.00135229
0.000806114
-0.00347747
0.000568994
-0.00339635
0.000354722
-0.00331829
0.0001622
-0.0032432
-9.41292e-06
-0.00317044
-0.000161172
-0.00310042
-0.000293487
-0.00303294
-0.000407834
-0.0029675
-0.000504601
-0.00290457
-0.000584533
-0.00284386
-0.000648566
-0.00278498
-0.000697098
-0.00272841
-0.000730839
-0.00267337
-0.000750487
-0.00262045
-0.000756822
-0.00256896
-0.00075017
-0.00251931
-0.000731232
-0.00247123
-0.000700362
-0.00242478
-0.000657963
-0.00237985
-0.000604652
-0.00233609
-0.000540854
-0.00229392
-0.000467009
-0.00225301
-0.000383506
-0.00221352
-0.000290924
-0.00217522
-0.000188978
-0.00213881
-7.86295e-05
-0.00210319
4.05519e-05
-0.00206954
0.000167515
-0.00203693
0.000302474
-0.00200655
0.00044495
-0.00197714
0.000595345
-0.00195067
0.000752829
-0.0019255
0.000917028
-0.0019031
0.00108877
-0.001884
0.00126647
-0.00186673
0.00145062
-0.00185437
0.00164073
-0.00184534
0.00183605
-0.00184044
0.00203624
-0.00184084
0.00224044
-0.00184541
0.00244759
-0.00185566
-0.00186951
0.00265679
0.000984684
-0.00330071
-0.00124524
0.000746711
-0.00323949
0.000530358
-0.00318
0.00033456
-0.00312249
0.000158196
-0.00306684
1.08877e-06
-0.00301333
-0.000138244
-0.00296109
-0.000260361
-0.00291082
-0.000365629
-0.00286223
-0.000455287
-0.00281491
-0.000529738
-0.0027694
-0.000589526
-0.00272519
-0.000635576
-0.00268236
-0.000668235
-0.00264072
-0.000688121
-0.00260056
-0.000695674
-0.00256141
-0.000691533
-0.00252346
-0.000675979
-0.00248678
-0.000649827
-0.00245093
-0.000613312
-0.00241637
-0.000566779
-0.00238262
-0.00051072
-0.00234998
-0.000445369
-0.00231836
-0.000371325
-0.00228756
-0.000288888
-0.00225766
-0.000198404
-0.00222929
-9.97008e-05
-0.0022019
6.27947e-06
-0.00217552
0.000119975
-0.00215063
0.000240311
-0.00212688
0.000367854
-0.00210468
0.000501816
-0.00208463
0.000642318
-0.002066
0.000789485
-0.00205027
0.00094179
-0.00203631
0.00110043
-0.00202537
0.00126446
-0.00201841
0.00143279
-0.00201367
0.00160689
-0.00201454
0.00178439
-0.00201835
0.0019665
-0.00202751
0.00215057
-0.00203973
-0.00205714
0.00233819
0.00090632
-0.00306412
-0.00114291
0.000689385
-0.00302256
0.000491904
-0.00298252
0.000312961
-0.00294355
0.000151795
-0.00290567
7.67398e-06
-0.00286921
-0.000119979
-0.00283343
-0.000232178
-0.00279862
-0.000329432
-0.00276498
-0.000412056
-0.00273229
-0.000481326
-0.00270013
-0.000537111
-0.00266941
-0.000580486
-0.00263898
-0.000611583
-0.00260962
-0.000631117
-0.00258103
-0.00063939
-0.00255313
-0.000637139
-0.00252571
-0.000624805
-0.00249911
-0.000602453
-0.00247328
-0.000570797
-0.00244802
-0.000529838
-0.00242358
-0.000480183
-0.00239964
-0.000422291
-0.00237625
-0.000356312
-0.00235354
-0.000282564
-0.00233141
-0.000201775
-0.00231008
-0.000113774
-0.0022899
-1.8807e-05
-0.00227049
8.29464e-05
-0.00225238
0.000190929
-0.00223486
0.000305316
-0.00221907
0.000425373
-0.00220469
0.000551386
-0.00219202
0.000682803
-0.00218169
0.000819616
-0.00217312
0.000961977
-0.00216773
0.00110847
-0.0021649
0.0012598
-0.002165
0.00141494
-0.00216967
0.00157431
-0.00217772
0.0017367
-0.00218991
0.00190289
-0.00220592
-0.00222554
0.0020713
0.00083311
-0.0028478
-0.00104943
0.000635373
-0.00282482
0.000455049
-0.00280219
0.000291252
-0.00277975
0.000144011
-0.00275843
1.20155e-05
-0.00273722
-0.000105118
-0.0027163
-0.000208012
-0.00269573
-0.000297457
-0.00267553
-0.000374065
-0.00265568
-0.000437789
-0.00263641
-0.000489917
-0.00261728
-0.000530388
-0.00259851
-0.000559796
-0.00258021
-0.000578805
-0.00256202
-0.000587859
-0.00254408
-0.000586906
-0.00252666
-0.000576537
-0.00250948
-0.000557604
-0.00249221
-0.000529968
-0.00247566
-0.000493986
-0.00245957
-0.000449867
-0.00244375
-0.000398372
-0.00242775
-0.000339558
-0.00241236
-0.000273741
-0.00239723
-0.000201152
-0.00238267
-0.000122051
-0.002369
-3.697e-05
-0.00235557
5.42658e-05
-0.00234361
0.000151799
-0.0023324
0.000254289
-0.00232156
0.000362112
-0.00231251
0.000475581
-0.00230549
0.000593954
-0.00230006
0.000716885
-0.00229605
0.000844653
-0.0022955
0.000977014
-0.00229726
0.00111273
-0.00230072
0.00125177
-0.00230871
0.00139508
-0.00232103
0.00154238
-0.0023372
0.00169224
-0.00235578
-0.00237804
0.00184473
0.000764289
-0.00265121
-0.000960876
0.000584042
-0.00264458
0.000419539
-0.00263769
0.000270299
-0.00263051
0.000134888
-0.00262302
1.45696e-05
-0.0026169
-9.26965e-05
-0.00260903
-0.000187158
-0.00260127
-0.000269444
-0.00259325
-0.000339944
-0.00258518
-0.00039913
-0.00257723
-0.000447187
-0.00256922
-0.000485168
-0.00256053
-0.000513025
-0.00255235
-0.000530965
-0.00254408
-0.000539919
-0.00253512
-0.000540692
-0.00252589
-0.000531834
-0.00251834
-0.000515275
-0.00250877
-0.000491161
-0.00249977
-0.000459499
-0.00249123
-0.000420523
-0.00248273
-0.000374263
-0.00247401
-0.000321507
-0.00246511
-0.000262347
-0.00245638
-0.000197027
-0.00244799
-0.000125905
-0.00244012
-4.90668e-05
-0.00243241
3.28035e-05
-0.00242548
0.000120254
-0.00241985
0.000213198
-0.0024145
0.000310263
-0.00240957
0.000413148
-0.00240837
0.000519754
-0.00240667
0.000630158
-0.00240646
0.000745589
-0.00241093
0.000865212
-0.00241688
0.00098771
-0.00242322
0.00111298
-0.00243398
0.00124206
-0.00245012
0.00137503
-0.00247017
0.00151036
-0.00249112
0.00164803
-0.00251571
0.00584786
-0.000835259
0.000528333
0.00616266
-0.000971784
0.000656992
0.00644106
-0.00109681
0.000818426
0.00668555
-0.00121206
0.000967564
0.0069016
-0.00131963
0.00110359
0.00709394
-0.00142022
0.00122787
0.00726596
-0.00151526
0.00134326
0.00742038
-0.00160572
0.0014513
0.00755827
-0.00169263
0.00155474
0.00768419
-0.00177856
0.00165264
0.00779911
-0.00186305
0.00174813
0.0079044
-0.00194711
0.00184181
0.00799985
-0.0020312
0.00193576
0.00808795
-0.00211651
0.00202841
0.00816766
-0.00220273
0.00212302
0.0082383
-0.00229055
0.00221991
0.00829998
-0.00238082
0.00231914
0.00835218
-0.00247311
0.0024209
0.00839228
-0.00256709
0.002527
0.00842115
-0.00266499
0.00263612
0.0084367
-0.00276519
0.00274963
0.00843806
-0.00286903
0.00286767
0.00842384
-0.00297564
0.00298986
0.00839248
-0.00308575
0.00311711
0.00834395
-0.00320047
0.003249
0.00827594
-0.00331792
0.00338593
0.00818803
-0.00344007
0.00352797
0.0080788
-0.0035668
0.00367604
0.00794696
-0.00369754
0.00382938
0.00779156
-0.00383319
0.00398859
0.00761163
-0.00397371
0.00415364
0.00740604
-0.00411934
0.00432494
0.00717313
-0.00427021
0.00450312
0.00691225
-0.0044266
0.00468748
0.00662175
-0.00458882
0.00487932
0.00630079
-0.0047572
0.00507816
0.00594851
-0.00493189
0.00528417
0.00556268
-0.00511242
0.00549825
0.00514294
-0.00530039
0.00572014
0.00468757
-0.00549532
0.00595069
0.00419509
-0.00569743
0.0061899
0.00366463
-0.00590743
0.0064379
-0.00612541
0.00669524
0.0030948
0.00467002
-0.0011937
0.00496925
-0.00127102
0.00522668
-0.00135424
0.00545182
-0.0014372
0.00565394
-0.00152174
0.00583911
-0.00160538
0.00601038
-0.00168654
0.0061719
-0.00176723
0.00632521
-0.00184594
0.00647044
-0.00192379
0.00660839
-0.00200099
0.00673946
-0.00207818
0.00686203
-0.00215377
0.00697667
-0.00223116
0.00708152
-0.00230757
0.00717712
-0.00238616
0.00726135
-0.00246504
0.00733378
-0.00254554
0.00739468
-0.00262799
0.00744197
-0.00271227
0.00747479
-0.00279801
0.00749268
-0.00288693
0.00749457
-0.00297754
0.00747986
-0.00307104
0.00744766
-0.00316827
0.00739703
-0.00326728
0.0073275
-0.00337054
0.00723757
-0.00347688
0.00712679
-0.00358677
0.00699417
-0.00370057
0.00683865
-0.00381819
0.00665941
-0.0039401
0.00645536
-0.00406616
0.00622567
-0.00419692
0.00596914
-0.00433229
0.00568438
-0.00447244
0.00537099
-0.0046185
0.00502742
-0.00476885
0.00465261
-0.00492558
0.00424504
-0.00508775
0.00380386
-0.00525625
0.00332712
-0.00543068
-0.00561258
0.00281428
0.00382173
-0.00145886
0.00407293
-0.00152221
0.00430826
-0.00158958
0.00453078
-0.00165973
0.00473934
-0.0017303
0.00493619
-0.00180223
0.00512254
-0.0018729
0.00529831
-0.00194301
0.00546456
-0.00201219
0.00562179
-0.00208102
0.00576938
-0.00214857
0.00590681
-0.00221561
0.00603551
-0.00228248
0.00615357
-0.00234923
0.00626198
-0.00241597
0.00635932
-0.0024835
0.00644603
-0.00255175
0.00652106
-0.00262058
0.00658324
-0.00269017
0.00663341
-0.00276244
0.00667019
-0.00283479
0.0066926
-0.00290934
0.00670078
-0.00298571
0.00669371
-0.00306397
0.00667008
-0.00314464
0.00663087
-0.00322807
0.00657332
-0.00331299
0.00649736
-0.00340091
0.00640281
-0.00349222
0.00628816
-0.00358592
0.00615236
-0.0036824
0.00599503
-0.00378276
0.00581536
-0.0038865
0.00561215
-0.00399371
0.00538441
-0.00410455
0.00513144
-0.00421947
0.00485151
-0.00433857
0.00454488
-0.00446222
0.00420932
-0.00459002
0.00384398
-0.00472242
0.003448
-0.00486027
0.0030198
-0.00500248
-0.00515051
0.00255773
0.00328587
-0.00169307
0.00350981
-0.00174615
0.00372419
-0.00180395
0.00392733
-0.00186287
0.00412207
-0.00192503
0.00430609
-0.00198626
0.00448074
-0.00204755
0.00464719
-0.00210945
0.00480471
-0.00216971
0.00495293
-0.00222924
0.00509348
-0.00228912
0.00522519
-0.00234732
0.00534799
-0.00240528
0.00546166
-0.00246289
0.00556618
-0.00252049
0.00566087
-0.0025782
0.00574455
-0.00263543
0.00581818
-0.0026942
0.00588101
-0.002753
0.00593119
-0.00281262
0.00596958
-0.00287318
0.0059952
-0.00293496
0.00600751
-0.00299802
0.00600601
-0.00306247
0.00598933
-0.00312796
0.00595714
-0.00319589
0.00590931
-0.00326516
0.00584499
-0.0033366
0.00576269
-0.00340991
0.00566225
-0.00348547
0.00554329
-0.00356345
0.00540448
-0.00364395
0.00524518
-0.0037272
0.00506418
-0.0038127
0.00486134
-0.00390171
0.00463534
-0.00399347
0.00438544
-0.00408867
0.00411014
-0.00418692
0.00380923
-0.0042891
0.00348117
-0.00439436
0.00312489
-0.00450399
0.00273973
-0.00461733
-0.00473521
0.00232443
0.00286412
-0.00190041
0.00306455
-0.00194657
0.00325771
-0.00199712
0.00344357
-0.00204873
0.00362075
-0.00210221
0.00379089
-0.0021564
0.00395402
-0.00221069
0.00410885
-0.00226428
0.00425602
-0.00231688
0.00439643
-0.00236965
0.004528
-0.00242069
0.00465186
-0.00247119
0.00476763
-0.00252105
0.00487503
-0.00257029
0.00497372
-0.00261917
0.00506277
-0.00266725
0.00514319
-0.00271585
0.0052131
-0.00276412
0.00527297
-0.00281287
0.0053221
-0.00286176
0.00536001
-0.00291108
0.00538618
-0.00296114
0.00539976
-0.0030116
0.00540098
-0.00306369
0.00538874
-0.00311572
0.00536265
-0.0031698
0.00532189
-0.0032244
0.00526599
-0.00328069
0.00519382
-0.00333775
0.00510575
-0.0033974
0.00500025
-0.00345795
0.00487701
-0.0035207
0.00473472
-0.00358492
0.00457359
-0.00365157
0.00439216
-0.00372028
0.00418972
-0.00379104
0.00396548
-0.00386442
0.00371849
-0.00393994
0.00344791
-0.00401852
0.00315284
-0.00409929
0.00283238
-0.00418352
0.00248542
-0.00427037
-0.0043603
0.00211051
0.00252411
-0.00208633
0.00270465
-0.00212711
0.00287952
-0.00217199
0.00304808
-0.00221729
0.00321059
-0.00226473
0.00336674
-0.00231255
0.00351573
-0.00235968
0.00365839
-0.00240695
0.00379452
-0.00245301
0.00392378
-0.00249892
0.00404568
-0.00254258
0.00416088
-0.00258639
0.00426805
-0.00262822
0.00436757
-0.00266981
0.00445917
-0.00271077
0.00454253
-0.00275061
0.00461736
-0.00279068
0.00468287
-0.00282963
0.00473919
-0.00286918
0.00478584
-0.00290841
0.00482233
-0.00294757
0.00484801
-0.00298682
0.00486277
-0.00302636
0.00486564
-0.00306656
0.00485669
-0.00310677
0.00483444
-0.00314755
0.00479953
-0.00318949
0.00475032
-0.00323148
0.00468726
-0.00327469
0.00460896
-0.0033191
0.00451515
-0.00336414
0.00440505
-0.0034106
0.00427813
-0.003458
0.0041338
-0.00350724
0.00397101
-0.00355749
0.00378953
-0.00360955
0.00358776
-0.00366265
0.00336553
-0.00371772
0.00312197
-0.00377496
0.00285636
-0.00383368
0.00256735
-0.00389452
0.00225432
-0.00395734
-0.00402214
0.00191616
0.0022388
-0.00225383
0.00240262
-0.00229093
0.00256071
-0.00233008
0.00271432
-0.0023709
0.00286242
-0.00241283
0.00300451
-0.00245463
0.00314097
-0.00249614
0.00327165
-0.00253763
0.00339644
-0.00257779
0.00351471
-0.00261719
0.0036274
-0.00265527
0.00373292
-0.00269191
0.00383157
-0.00272688
0.00392362
-0.00276186
0.00400781
-0.00279495
0.00408531
-0.00282811
0.00415455
-0.00285992
0.00421576
-0.00289084
0.00426843
-0.00292186
0.00431228
-0.00295225
0.00434666
-0.00298195
0.00437147
-0.00301164
0.0043862
-0.00304109
0.00438999
-0.00307034
0.00438261
-0.00309939
0.0043642
-0.00312914
0.00433321
-0.00315849
0.00429023
-0.00318851
0.00423426
-0.00321872
0.00416454
-0.00324938
0.00408066
-0.00328025
0.00398208
-0.00331203
0.0038684
-0.00334432
0.00373852
-0.00337735
0.00359244
-0.00341141
0.00342856
-0.00344567
0.00324736
-0.00348145
0.00304753
-0.00351789
0.00282814
-0.00355556
0.0025885
-0.00359404
0.00232749
-0.00363351
0.00204491
-0.00367477
-0.00371695
0.00173971
0.00199589
-0.00240498
0.00214373
-0.00243877
0.00228774
-0.00247409
0.00242714
-0.00251029
0.00256142
-0.00254711
0.00269108
-0.00258429
0.00281568
-0.00262074
0.00293496
-0.00265691
0.0030491
-0.00269194
0.00315827
-0.00272636
0.00326047
-0.00275747
0.00335735
-0.00278879
0.00344805
-0.00281758
0.00353218
-0.00284598
0.0036102
-0.00287297
0.00368089
-0.00289881
0.00374482
-0.00292384
0.0038016
-0.00294762
0.00385023
-0.00297049
0.00389069
-0.00299271
0.00392313
-0.0030144
0.00394634
-0.00303485
0.00396028
-0.00305502
0.00396459
-0.00307465
0.0039591
-0.0030939
0.00394294
-0.00311298
0.00391625
-0.00313181
0.00387804
-0.0031503
0.0038283
-0.00316897
0.0037657
-0.00318678
0.00369089
-0.00320545
0.00360228
-0.00322341
0.00350026
-0.0032423
0.00338351
-0.0032606
0.00325151
-0.00327941
0.00310442
-0.00329858
0.00294072
-0.00331776
0.00276044
-0.0033376
0.00256235
-0.00335747
0.00234581
-0.0033775
0.00211053
-0.00339823
0.00185488
-0.00341912
-0.00344104
0.00157898
0.0017857
-0.00254265
0.00191969
-0.00257276
0.00204996
-0.00260436
0.00217649
-0.00263682
0.00229924
-0.00266987
0.00241694
-0.00270199
0.00253066
-0.00273446
0.00263979
-0.00276604
0.00274416
-0.00279631
0.00284311
-0.00282531
0.00293709
-0.00285145
0.00302554
-0.00287723
0.00310864
-0.00290068
0.00318554
-0.00292288
0.00325648
-0.00294391
0.00332196
-0.00296429
0.00338067
-0.00298256
0.00343314
-0.00300009
0.00347813
-0.00301548
0.00351559
-0.00303017
0.00354519
-0.00304399
0.00356717
-0.00305683
0.00358055
-0.00306841
0.00358527
-0.00307937
0.00358073
-0.00308936
0.00356688
-0.00309913
0.00354297
-0.0031079
0.00350899
-0.00311632
0.00346373
-0.00312371
0.00340823
-0.00313128
0.0033404
-0.00313762
0.0032609
-0.00314391
0.00316854
-0.00314995
0.00306331
-0.00315537
0.00294491
-0.00316101
0.0028121
-0.00316577
0.00266456
-0.00317022
0.00250147
-0.00317452
0.00232234
-0.00317834
0.00212678
-0.00318194
0.00191363
-0.00318508
0.00168306
-0.00318854
0.00143313
-0.00319112
-0.000122629
0.00620525
-0.0067571
0.000674478
0.000387134
0.00598641
-0.00649617
0.000856811
0.00577411
-0.00624378
0.00128841
0.00556788
-0.00599947
0.0016821
0.00537197
-0.00576566
0.0020417
0.00518225
-0.00554186
0.00236781
0.00500031
-0.00532641
0.00265785
0.0048253
-0.00511535
0.00291706
0.00465532
-0.00491452
0.00314575
0.00449194
-0.00472063
0.00334438
0.00433448
-0.00453312
0.00351449
0.00418221
-0.00435232
0.00365623
0.00403533
-0.00417706
0.00377084
0.00389281
-0.00400742
0.00385898
0.00375519
-0.00384332
0.0039219
0.00362105
-0.00368397
0.00395958
0.00349142
-0.0035291
0.00397297
0.00336485
-0.00337823
0.00396321
0.00324147
-0.00323171
0.00393094
0.00312106
-0.00308878
0.00387711
0.0030033
-0.00294947
0.00380247
0.0028884
-0.00281376
0.00370812
0.00277567
-0.00268132
0.00359482
0.00266535
-0.00255205
0.00346445
0.00255656
-0.0024262
0.00331782
0.0024502
-0.00230357
0.00315631
0.00234554
-0.00218403
0.00298154
0.00224267
-0.0020679
0.00279472
0.00214137
-0.00195455
0.0025975
0.00204178
-0.00184456
0.00239154
0.00194379
-0.00173783
0.00217837
0.00184688
-0.00163371
0.00195928
0.0017517
-0.00153261
0.0017369
0.00165682
-0.00143444
0.00151225
0.00156316
-0.0013385
0.00128739
0.00146987
-0.00124501
0.00106453
0.00137577
-0.00115291
0.000845166
0.00128101
-0.00106165
0.000632693
0.00118319
-0.000970712
0.000429775
0.00108061
-0.000877695
0.000241129
0.000967329
-0.000778684
7.27588e-05
0.000833026
-0.000664655
0.000666688
-9.63167e-05
-0.000497613
-0.000117247
0.00570594
0.000616551
0.000344009
0.00552515
0.000771567
0.00534655
0.00116137
0.00517807
0.00151749
0.00501585
0.00184194
0.0048578
0.0021365
0.00470574
0.00240017
0.00456164
0.0026353
0.00442019
0.00284244
0.00428479
0.00302254
0.00415439
0.00317693
0.00402782
0.00330613
0.00390613
0.00341081
0.00378812
0.00349227
0.00367373
0.0035505
0.00356281
0.00358686
0.00345506
0.0036016
0.00335011
0.00359563
0.00324744
0.00356955
0.00314714
0.0035235
0.00304936
0.00345921
0.00295269
0.00337703
0.00285785
0.00327756
0.00276482
0.00316194
0.00267218
0.00303135
0.0025808
0.00288638
0.00249051
0.00272862
0.00240043
0.00255919
0.00231079
0.00237909
0.00222189
0.00219005
0.00213283
0.00199346
0.00204347
0.00179105
0.0019541
0.00158377
0.0018641
0.00137373
0.0017732
0.0011631
0.0016805
0.000953142
0.00158573
0.000746589
0.00148756
0.00054578
0.001384
0.000354934
0.00127146
0.000178655
0.00114361
2.16514e-05
0.000990029
0.000821501
-0.000133162
-0.000112613
0.00525468
0.000563874
0.000306947
0.00510559
0.000691107
0.00496239
0.00104557
0.00482361
0.0013687
0.00469271
0.00166437
0.00456214
0.00192869
0.00444142
0.00216957
0.00432076
0.00238169
0.00420806
0.0025693
0.00409719
0.00273297
0.00399072
0.00287279
0.003888
0.00299018
0.00378875
0.00308582
0.00369248
0.00316003
0.00359952
0.0032139
0.00350894
0.00324815
0.00342081
0.00326284
0.00333541
0.00325889
0.00325139
0.00323682
0.00316921
0.00319743
0.00308874
0.00314094
0.00300918
0.00306811
0.00293068
0.00298022
0.00285272
0.00287729
0.00277511
0.0027599
0.00269819
0.00263002
0.0026204
0.00248763
0.00254281
0.00233372
0.0024647
0.00217019
0.00238542
0.00199765
0.00230537
0.00181705
0.00222408
0.00163061
0.00214054
0.00143927
0.00205545
0.00124481
0.00196766
0.00104868
0.00187662
0.000853398
0.00178101
0.000660601
0.00168036
0.000473432
0.00157116
0.000295389
0.0014495
0.000131387
0.00130761
-1.5152e-05
0.00113657
0.000969417
-0.000163068
-0.000105893
0.00484479
0.000515784
0.000272889
0.00472681
0.000622045
0.00461323
0.000944025
0.00450163
0.0012366
0.00440013
0.00150202
0.00429673
0.00174412
0.00419932
0.00196085
0.00410403
0.00215384
0.00401507
0.00232387
0.00392715
0.00247213
0.00384246
0.00259899
0.00376114
0.0027054
0.00368234
0.00279189
0.00360599
0.00285986
0.00353155
0.00290898
0.00345982
0.00294021
0.00338959
0.00295445
0.00332117
0.0029516
0.00325424
0.0029324
0.00318841
0.00289804
0.0031231
0.00284802
0.0030592
0.00278386
0.00299484
0.00270528
0.0029313
0.00261287
0.00286752
0.00250839
0.00280266
0.00239127
0.00273752
0.00226285
0.00267124
0.00212378
0.00260377
0.00197517
0.00253402
0.00181824
0.0024623
0.00165384
0.00238848
0.00148294
0.00231143
0.00130719
0.0022312
0.00112838
0.00214647
0.000947725
0.00205728
0.000767057
0.00196168
0.00058898
0.00185844
0.000415663
0.00174448
0.00025085
0.00161431
9.9609e-05
0.00145885
-3.6199e-05
0.00127238
0.00110621
-0.000172997
-0.000101238
0.00447345
0.000472579
0.000244847
0.00438072
0.000561596
0.00429648
0.000851252
0.00421198
0.00111768
0.0041337
0.00135926
0.00405515
0.00157762
0.00398096
0.00177316
0.00390849
0.00194809
0.00384014
0.00210301
0.00377224
0.00223709
0.00370838
0.00235233
0.0036459
0.0024491
0.00358557
0.00252798
0.00352711
0.00258928
0.00347025
0.00263441
0.00341469
0.00266306
0.00336094
0.00267637
0.00330785
0.0026745
0.00325611
0.00265839
0.00320452
0.00262771
0.00315378
0.00258369
0.00310322
0.00252607
0.00305246
0.00245588
0.0030015
0.00237355
0.00294984
0.00227922
0.002897
0.00217382
0.00284292
0.00205777
0.00278729
0.00193246
0.00272908
0.0017979
0.00266859
0.00165498
0.00260522
0.00150498
0.00253848
0.00134911
0.0024673
0.00118865
0.00239166
0.00102446
0.00231066
0.000858449
0.00222329
0.00069227
0.00212786
0.00052798
0.00202273
0.000368495
0.00190397
0.000217174
0.00176563
7.77916e-05
0.00159823
-4.6977e-05
0.00139714
0.00123256
-0.000173323
-9.33647e-05
0.00413436
0.000432453
0.000218309
0.00406905
0.000505173
0.00400962
0.000769082
0.00394807
0.00101187
0.00389092
0.00122968
0.00383733
0.0014288
0.00378184
0.00160679
0.0037305
0.00176609
0.00368085
0.00190445
0.00363387
0.00202613
0.0035867
0.00213048
0.00354155
0.0022183
0.00349775
0.00228974
0.00345567
0.002346
0.00341399
0.00238661
0.00337408
0.00241337
0.00333418
0.00242557
0.00329565
0.00242458
0.0032571
0.00241012
0.00321899
0.00238297
0.00318093
0.00234366
0.00314253
0.00229214
0.00310398
0.00222923
0.00306441
0.00215531
0.00302376
0.00207063
0.00298168
0.00197575
0.0029378
0.00187161
0.00289143
0.00175781
0.00284288
0.00163567
0.00279073
0.00150596
0.00273493
0.00136997
0.00267447
0.00122761
0.00260966
0.00108067
0.0025386
0.000930569
0.00246076
0.00077833
0.00237553
0.00062578
0.00228041
0.000475221
0.00217329
0.000328918
0.00205027
0.00019003
0.00190452
6.23128e-05
0.00172595
-5.24295e-05
0.00151189
0.00134889
-0.000168763
-8.73069e-05
0.00382948
0.000392196
0.000194662
0.00378708
0.000455928
0.00374835
0.000695946
0.00370805
0.000913652
0.00367321
0.00111417
0.00363682
0.00129181
0.0036042
0.00145283
0.00356947
0.00159724
0.00353645
0.00172502
0.00350609
0.00183539
0.00347633
0.00193036
0.00344658
0.00200988
0.00341822
0.00207514
0.00339042
0.00212588
0.00336324
0.00216334
0.00333662
0.00218722
0.0033103
0.00219895
0.00328393
0.00219822
0.00325783
0.00218542
0.00323179
0.00216126
0.00320509
0.0021259
0.00317788
0.00207994
0.00314994
0.00202352
0.00312083
0.001957
0.00309027
0.00188086
0.00305782
0.00179535
0.00302331
0.00170083
0.00298595
0.00159836
0.00294535
0.00148782
0.00290127
0.00137014
0.00285261
0.00124599
0.00279863
0.00111649
0.00273916
0.000982747
0.00267234
0.000845322
0.00259819
0.000706279
0.00251458
0.000566689
0.00242
0.000429185
0.00231079
0.000295597
0.00218386
0.000168846
0.00203127
5.10398e-05
0.00184376
-5.55954e-05
0.00161852
0.0014569
-0.000163606
-8.11603e-05
0.00355017
0.00036047
0.000175556
0.00353036
0.000413028
0.00351088
0.000628096
0.00349298
0.000826167
0.00347514
0.00100771
0.00345528
0.00117269
0.00343921
0.0013189
0.00342327
0.00144813
0.00340722
0.00156339
0.00339082
0.00166352
0.0033762
0.00174955
0.00336056
0.00182184
0.00334593
0.00188093
0.00333133
0.00192718
0.003317
0.00196123
0.00330256
0.00198344
0.00328809
0.00199394
0.00327343
0.00199331
0.00325845
0.00198236
0.00324274
0.00196059
0.00322686
0.00192872
0.00320975
0.00188741
0.00319125
0.00183676
0.00317148
0.00177672
0.00315031
0.0017079
0.00312664
0.00163065
0.00310056
0.00154543
0.00307117
0.00145271
0.00303806
0.0013526
0.00300138
0.00124578
0.00295943
0.00113316
0.00291125
0.00101561
0.0028567
0.000893314
0.00279463
0.000768033
0.00272347
0.000641011
0.0026416
0.00051342
0.00254759
0.00038701
0.0024372
0.0002654
0.00230547
0.000151684
0.00214499
4.46221e-05
0.00195082
-5.50717e-05
0.00171822
0.00155619
-0.000154357
-7.72752e-05
0.00329775
0.000329687
0.000155934
0.00329715
0.00037052
0.00329629
0.000568341
0.00329516
0.000749535
0.00329395
0.000912018
0.0032928
0.00105983
0.00329141
0.00119334
0.00328975
0.00131215
0.00328841
0.00141617
0.00328681
0.00150812
0.00328425
0.00158602
0.00328265
0.00165193
0.00328002
0.00170555
0.00327771
0.00174748
0.00327507
0.00177858
0.00327146
0.00179863
0.00326804
0.00180851
0.00326355
0.0018083
0.00325866
0.0017981
0.00325295
0.00177898
0.00324598
0.00175037
0.00323835
0.00171301
0.00322861
0.00166736
0.00321712
0.00161325
0.00320443
0.00155103
0.00318886
0.00148145
0.00317013
0.00140481
0.00314782
0.00132097
0.0031219
0.00123021
0.00309214
0.00113302
0.00305662
0.00103057
0.0030137
0.000923442
0.00296384
0.000812487
0.00290559
0.000698051
0.00283791
0.000581433
0.00275822
0.000464562
0.00266446
0.000349175
0.00255259
0.000240261
0.00241438
0.00014032
0.00224493
3.88509e-05
0.00205229
-6.08289e-05
0.0018179
-0.000154391
0.00164975
-0.000272141
0.000662
-0.000486176
-0.000442463
0.000768062
-0.00059774
-0.000615
0.000833896
-0.000661359
-0.000786658
0.000884389
-0.000712731
-0.000956207
0.000928652
-0.000759103
-0.00112336
0.000970812
-0.000803663
-0.00128703
0.00101199
-0.000848318
-0.00144718
0.00105366
-0.000893514
-0.00160363
0.00109611
-0.000939661
-0.00175559
0.00113949
-0.000987524
-0.00190328
0.00118461
-0.00103691
-0.00204583
0.00123131
-0.00108876
-0.00218309
0.00127982
-0.00114256
-0.00231474
0.00133028
-0.00119864
-0.00244032
0.00138296
-0.00125737
-0.00255925
0.00143791
-0.00131898
-0.00267166
0.00149558
-0.00138316
-0.00277622
0.00155545
-0.00145089
-0.00287316
0.00161845
-0.00152151
-0.0029616
0.00168417
-0.00159574
-0.00304097
0.00175307