/*--------------------------------*- C++ -*----------------------------------*\
| =========                 |                                                 |
| \\      /  F ield         | OpenFOAM: The Open Source CFD Toolbox           |
|  \\    /   O peration     | Version:  2.3.0                                 |
|   \\  /    A nd           | Web:      www.OpenFOAM.org                      |
|    \\/     M anipulation  |                                                 |
\*---------------------------------------------------------------------------*/
FoamFile
{
    version     2.0;
    format      ascii;
    class       volScalarField;
    location    "1000";
    object      nut;
}
// * * * * * * * * * * * * * * * * * * * * * * * * * * * * * * * * * * * * * //

dimensions      [0 2 -1 0 0 0 0];

internalField   nonuniform List<scalar> 
39548
(
0.0533682
0.0518524
0.0503526
0.0488681
0.0473994
0.0459462
0.0445092
0.0430887
0.0416848
0.0402985
0.0389295
0.0375792
0.0362471
0.034934
0.0336397
0.032364
0.0311073
0.0298697
0.0286507
0.027451
0.0262698
0.0251079
0.0239648
0.0228407
0.0217354
0.0206504
0.0195862
0.0185439
0.0175263
0.0165338
0.0155677
0.0146275
0.0137174
0.0128428
0.012011
0.0112305
0.0105067
0.00983571
0.0091926
0.00853467
0.00778761
0.0068631
0.00588869
0.0550551
0.0537274
0.0524042
0.0510927
0.0497941
0.0485091
0.0472369
0.0459777
0.044732
0.0434996
0.0422808
0.0410764
0.0398864
0.0387109
0.0375504
0.0364049
0.0352744
0.0341587
0.0330584
0.0319732
0.030904
0.0298497
0.0288121
0.0277902
0.0267858
0.0257979
0.0248289
0.0238794
0.0229519
0.0220477
0.0211704
0.020323
0.0195104
0.0187382
0.0180133
0.0173458
0.016746
0.0162255
0.0157983
0.0154774
0.0152762
0.0152081
0.0152853
0.0566293
0.0554418
0.0542646
0.0530989
0.0519449
0.0508018
0.0496692
0.0485467
0.0474346
0.0463322
0.0452398
0.0441578
0.0430866
0.0420265
0.0409776
0.0399402
0.0389148
0.037901
0.0368991
0.0359098
0.0349332
0.03397
0.03302
0.0320847
0.0311642
0.0302606
0.0293739
0.028507
0.0276615
0.0268401
0.0260465
0.0252849
0.0245601
0.0238784
0.0232472
0.0226747
0.0221705
0.0217451
0.021409
0.0211732
0.021046
0.0210356
0.021145
0.0580689
0.057005
0.0559531
0.0549121
0.0538809
0.052859
0.0518454
0.0508396
0.0498406
0.0488485
0.0478632
0.046885
0.0459143
0.0449509
0.0439959
0.043049
0.0421108
0.0411822
0.0402626
0.0393526
0.0384531
0.0375642
0.0366874
0.0358227
0.0349716
0.0341356
0.0333165
0.0325157
0.0317363
0.0309809
0.0302527
0.0295565
0.0288977
0.0282817
0.0277149
0.0272064
0.0267639
0.0263968
0.0261138
0.0259238
0.0258328
0.0258469
0.0259682
0.0593821
0.0584284
0.0574852
0.056551
0.0556252
0.0547069
0.0537948
0.0528878
0.0519855
0.0510873
0.0501935
0.0493033
0.0484169
0.0475354
0.0466584
0.0457874
0.0449225
0.044064
0.0432129
0.0423689
0.041533
0.040706
0.0398886
0.039082
0.0382867
0.0375053
0.0367396
0.0359914
0.0352637
0.0345591
0.0338816
0.0332355
0.0326252
0.0320567
0.0315362
0.0310714
0.0306703
0.0303409
0.0300916
0.0299296
0.0298609
0.0298895
0.0300184
0.0605815
0.0597248
0.0588756
0.0580335
0.057198
0.0563682
0.0555422
0.0547195
0.0538993
0.0530816
0.052265
0.0514499
0.0506361
0.0498236
0.049013
0.0482047
0.0474004
0.0466011
0.0458065
0.0450171
0.0442339
0.0434576
0.0426894
0.0419306
0.0411818
0.0404442
0.0397208
0.039014
0.0383269
0.0376624
0.0370244
0.0364166
0.0358439
0.0353111
0.0348248
0.0343917
0.0340194
0.0337158
0.0334889
0.0333449
0.0332909
0.0333297
0.0334633
0.0616789
0.0609067
0.0601389
0.0593755
0.058617
0.0578625
0.0571104
0.0563595
0.0556095
0.0548602
0.05411
0.0533589
0.0526072
0.0518546
0.0511002
0.0503451
0.0495909
0.0488402
0.048093
0.0473492
0.0466096
0.0458753
0.0451474
0.0444279
0.0437176
0.0430171
0.0423277
0.0416532
0.040998
0.0403652
0.0397582
0.0391809
0.0386373
0.0381324
0.0376725
0.0372636
0.0369123
0.0366268
0.0364149
0.0362833
0.036239
0.0362852
0.0364225
0.0626883
0.0619869
0.0612883
0.0605921
0.0598985
0.0592083
0.05852
0.0578304
0.0571395
0.0564485
0.0557558
0.0550588
0.0543596
0.0536595
0.0529543
0.0522461
0.0515324
0.0508218
0.0501138
0.0494086
0.0487058
0.0480059
0.0473108
0.0466233
0.0459452
0.0452769
0.0446164
0.0439668
0.0433369
0.0427282
0.042146
0.041593
0.041074
0.0405915
0.0401514
0.0397632
0.0394284
0.0391557
0.0389529
0.0388292
0.0387921
0.0388443
0.0389854
0.0636228
0.0629778
0.0623356
0.0616945
0.0610521
0.0604138
0.0597796
0.0591426
0.0584998
0.0578555
0.0572128
0.0565637
0.0559059
0.0552556
0.0545901
0.0539306
0.0532476
0.0525711
0.0518928
0.0512179
0.0505458
0.0498765
0.0492079
0.0485445
0.0478909
0.047251
0.0466234
0.045992
0.0453842
0.0447922
0.0442292
0.0436951
0.043196
0.0427372
0.0423136
0.0419451
0.0416246
0.0413629
0.0411663
0.0410458
0.0410165
0.0410757
0.0412206
0.00653273
0.00824707
0.00929387
0.0103047
0.0113827
0.0125323
0.0137414
0.0149965
0.0162868
0.0176055
0.018947
0.0203079
0.0216853
0.0230783
0.0244854
0.0259058
0.0273393
0.0287849
0.0302424
0.0317121
0.0331937
0.0346869
0.0361916
0.0377076
0.0392351
0.0407734
0.0423226
0.0438825
0.0454523
0.0470318
0.0486207
0.0502183
0.0518238
0.0534366
0.0550563
0.0566818
0.0583122
0.0599468
0.0615844
0.0632245
0.0648668
0.066512
0.06817
0.0155141
0.0159014
0.0164419
0.017124
0.0179321
0.0188465
0.0198483
0.0209215
0.0220519
0.0232284
0.0244421
0.0256856
0.0269531
0.028241
0.0295463
0.0308661
0.0321982
0.0335413
0.0348947
0.0362572
0.0376283
0.0390073
0.0403941
0.0417878
0.0431884
0.0445958
0.0460094
0.0474294
0.0488551
0.0502862
0.0517227
0.053164
0.0546095
0.0560592
0.0575125
0.0589687
0.0604272
0.0618876
0.0633498
0.0648125
0.0662751
0.0677352
0.0691919
0.0213734
0.0217248
0.0222015
0.0227974
0.0235025
0.0243048
0.025191
0.0261489
0.0271668
0.0282343
0.0293428
0.0304846
0.031654
0.0328459
0.0340561
0.0352812
0.0365191
0.0377672
0.0390243
0.0402887
0.0415591
0.0428351
0.0441157
0.0454005
0.046689
0.047981
0.0492759
0.0505739
0.0518743
0.0531769
0.0544814
0.0557877
0.0570952
0.0584039
0.0597134
0.0610236
0.0623341
0.063645
0.0649558
0.0662663
0.0675755
0.068882
0.0701845
0.0261961
0.0265328
0.0269788
0.0275301
0.0281797
0.0289177
0.0297336
0.0306176
0.0315598
0.0325507
0.0335825
0.0346477
0.0357406
0.0368561
0.0379893
0.0391373
0.0402971
0.0414659
0.042642
0.0438232
0.0450086
0.0461969
0.0473872
0.0485791
0.0497719
0.0509655
0.0521594
0.0533533
0.0545469
0.0557398
0.0569318
0.0581226
0.059312
0.0605
0.0616864
0.0628713
0.0640548
0.0652369
0.0664175
0.0675965
0.0687741
0.06995
0.0711262
0.0302465
0.0305746
0.0310034
0.0315285
0.0321436
0.0328405
0.0336102
0.0344436
0.0353324
0.0362681
0.0372428
0.0382495
0.0392828
0.0403378
0.0414099
0.0424956
0.0435914
0.0446947
0.0458037
0.0469158
0.0480296
0.0491444
0.0502585
0.0513718
0.0524838
0.0535943
0.0547027
0.0558086
0.0569117
0.0580114
0.0591076
0.0602001
0.0612887
0.0623734
0.0634544
0.064532
0.0656062
0.0666773
0.0677454
0.0688107
0.0698738
0.0709352
0.0719986
0.0336915
0.0340145
0.0344322
0.0349403
0.0355317
0.0362001
0.036937
0.0377339
0.0385834
0.0394774
0.040408
0.0413694
0.0423561
0.0433628
0.0443859
0.0454212
0.0464649
0.0475145
0.0485681
0.0496229
0.050677
0.0517294
0.0527793
0.0538263
0.0548704
0.0559108
0.0569472
0.0579788
0.0590053
0.0600259
0.0610405
0.0620488
0.063051
0.0640475
0.0650384
0.0660241
0.0670042
0.0679794
0.0689502
0.0699167
0.0708794
0.0718392
0.0727991
0.036651
0.0369707
0.0373804
0.0378763
0.0384519
0.0390992
0.0398113
0.0405806
0.0413996
0.0422607
0.0431567
0.0440821
0.0450311
0.0459995
0.0469827
0.0479768
0.0489785
0.0499836
0.0509914
0.0519984
0.0530015
0.0540005
0.0549959
0.0559875
0.0569745
0.0579559
0.0589312
0.0599003
0.0608616
0.0618149
0.0627596
0.0636954
0.0646232
0.0655439
0.0664579
0.0673647
0.0682639
0.0691562
0.0700426
0.0709227
0.0717973
0.0726674
0.0735347
0.0392151
0.0395314
0.0399351
0.0404218
0.040987
0.0416164
0.0423093
0.0430577
0.0438516
0.0446866
0.0455544
0.0464502
0.0473682
0.0483053
0.0492567
0.0502164
0.0511849
0.052151
0.0531231
0.0540883
0.055046
0.0559996
0.056949
0.0578945
0.0588337
0.0597651
0.0606885
0.0616057
0.0625098
0.0634064
0.0642904
0.0651632
0.0660269
0.0668825
0.0677316
0.0685702
0.0693989
0.0702193
0.0710328
0.0718374
0.0726346
0.0734263
0.0742145
0.0414546
0.0417643
0.0421653
0.0426443
0.0432029
0.04381
0.0444906
0.0452252
0.0459947
0.0468102
0.0476512
0.0485229
0.0494139
0.0503275
0.0512534
0.052179
0.0531213
0.0540492
0.0550104
0.0559227
0.0568392
0.0577568
0.0586675
0.0595765
0.0604745
0.0613638
0.0622432
0.063123
0.0639688
0.0648225
0.065649
0.0664692
0.0672778
0.0680786
0.0688756
0.069652
0.0704198
0.0711795
0.0719324
0.0726697
0.0733999
0.0741237
0.0748419
0.0815119
0.0780722
0.0747281
0.0714746
0.068309
0.0652303
0.0622356
0.0593233
0.0564915
0.0537395
0.0510661
0.0484697
0.0459498
0.0435049
0.0411337
0.0388358
0.0366091
0.0344529
0.0323665
0.0303471
0.0283946
0.0265076
0.0246836
0.0229239
0.0212256
0.0195885
0.0180123
0.0164951
0.0150366
0.0136369
0.012295
0.0110117
0.00978683
0.00862172
0.00751831
0.00647861
0.00550544
0.00460317
0.0037748
0.00303929
0.00246376
0.00187853
0.00118798
0.0828484
0.0797313
0.0766905
0.0737213
0.070822
0.0679908
0.065226
0.0625254
0.0598875
0.0573119
0.0547977
0.0523433
0.0499479
0.0476113
0.0453324
0.0431106
0.0409447
0.038835
0.0367802
0.0347784
0.0328302
0.0309334
0.0290883
0.0272926
0.0255471
0.0238509
0.0222045
0.0206067
0.0190596
0.0175629
0.0161179
0.0147261
0.0133902
0.0121136
0.0108993
0.00975183
0.00868414
0.00772778
0.00684483
0.00594116
0.00498427
0.00393136
0.00270229
0.0841922
0.0813649
0.0785989
0.0758897
0.073236
0.0706357
0.0680869
0.065588
0.0631375
0.0607344
0.0583783
0.056067
0.0538012
0.0515793
0.0494022
0.0472686
0.0451776
0.0431301
0.0411246
0.0391612
0.0372391
0.0353578
0.0335166
0.0317173
0.0299573
0.0282379
0.0265588
0.0249215
0.0233284
0.02178
0.0202788
0.0188285
0.017434
0.0161021
0.0148471
0.0136727
0.0125311
0.0113812
0.0101952
0.00894011
0.0075818
0.00607778
0.00436925
0.085529
0.0829663
0.080451
0.0779805
0.075553
0.0731661
0.0708186
0.0685091
0.0662355
0.0639976
0.0617935
0.0596231
0.0574848
0.0553791
0.0533058
0.0512638
0.0492535
0.0472752
0.0453288
0.0434135
0.0415298
0.0396774
0.037857
0.0360687
0.0343116
0.0325883
0.0308994
0.029246
0.0276308
0.0260577
0.0245301
0.0230564
0.0216381
0.0202646
0.0189163
0.0175726
0.0162091
0.0148011
0.0133208
0.0117418
0.0100316
0.00814872
0.0060471
0.0868488
0.0845284
0.0822424
0.0799904
0.0777701
0.0755801
0.073419
0.0712856
0.0691781
0.0670955
0.0650364
0.0630001
0.0609857
0.0589929
0.0570216
0.0550716
0.0531433
0.0512367
0.049352
0.0474896
0.0456501
0.0438344
0.0420423
0.0402744
0.0385327
0.0368171
0.0351295
0.0334734
0.0318506
0.0302622
0.0287069
0.0271791
0.0256719
0.024171
0.0226624
0.0211273
0.0195468
0.0178975
0.0161564
0.0142947
0.0122809
0.0100773
0.00764379
0.088148
0.086046
0.083969
0.0819164
0.079886
0.077876
0.0758864
0.0739154
0.0719624
0.0700245
0.0681018
0.0661922
0.0642948
0.0624092
0.0605363
0.0586752
0.0568261
0.0549904
0.0531676
0.0513591
0.0495653
0.0477871
0.0460255
0.0442821
0.0425566
0.0408494
0.0391623
0.0374947
0.0358464
0.0342128
0.0325902
0.0309721
0.0293488
0.0277092
0.0260406
0.0243268
0.0225496
0.0206869
0.0187141
0.0166041
0.0143257
0.0118427
0.00911914
0.0894142
0.0875121
0.0856259
0.0837554
0.0818979
0.0800531
0.07822
0.0763982
0.0745856
0.0727827
0.0709848
0.0691932
0.0674054
0.0656207
0.0638391
0.0620605
0.0602863
0.0585164
0.0567522
0.0549927
0.0532395
0.0514951
0.0497583
0.0480309
0.0463126
0.0446034
0.0429012
0.0412057
0.0395133
0.0378199
0.0361196
0.0344042
0.032665
0.0308946
0.0290792
0.0272051
0.0252528
0.0231993
0.021021
0.0186905
0.0161763
0.013445
0.0104625
0.0906338
0.0889223
0.0872102
0.0855054
0.0838053
0.0821095
0.0804194
0.0787321
0.0770457
0.0753675
0.0736819
0.0719987
0.0703107
0.0686172
0.0669187
0.0652163
0.0635077
0.0617936
0.0600817
0.0583646
0.0566416
0.0549232
0.0532007
0.0514804
0.0497597
0.0480393
0.046314
0.0445815
0.0428407
0.0410861
0.0393086
0.037502
0.0356555
0.033763
0.0318151
0.0297983
0.0276914
0.0254666
0.0231056
0.020577
0.0178514
0.0148954
0.011677
0.0918299
0.0902825
0.0887213
0.087168
0.0856084
0.0840437
0.0824813
0.0809212
0.0793354
0.077784
0.0761894
0.0746006
0.0730011
0.0713891
0.0697632
0.0681289
0.0664868
0.0648085
0.0631394
0.0614691
0.059754
0.0580628
0.0563443
0.0546287
0.0528949
0.0511598
0.0494109
0.0476407
0.0458513
0.0440417
0.0421899
0.0403052
0.0383565
0.036351
0.034281
0.0321404
0.0299048
0.0275165
0.0249944
0.0222897
0.0193732
0.016215
0.012777
0.000544473
0.00053207
0.000747029
0.000948632
0.00113794
0.00131818
0.00149247
0.00166413
0.00183803
0.00202073
0.00222147
0.00245193
0.00272169
0.00303043
0.00337444
0.00374998
0.00415563
0.00459027
0.00505394
0.00554694
0.0060702
0.00662435
0.00721025
0.00782929
0.00848245
0.00917108
0.00989635
0.0106597
0.0114624
0.012306
0.013192
0.0141214
0.0150959
0.0161168
0.0171851
0.0183022
0.0194689
0.0206861
0.0219543
0.0232733
0.0246426
0.0260621
0.0275328
0.00133821
0.00077655
0.000919212
0.00112511
0.00132234
0.00151218
0.00169968
0.00189136
0.00209491
0.00231931
0.00257327
0.00286509
0.00319849
0.00356478
0.00396003
0.0043823
0.00483054
0.00530479
0.00580474
0.006331
0.00688426
0.00746496
0.00807394
0.00871198
0.00938017
0.0100793
0.0108105
0.0115746
0.0123731
0.0132065
0.0140762
0.0149832
0.0159285
0.0169131
0.017938
0.0190039
0.0201117
0.0212616
0.0224538
0.0236886
0.0249659
0.0262862
0.0276488
0.00247134
0.00117538
0.00108501
0.00128612
0.00149367
0.00169849
0.00190801
0.0021312
0.00237679
0.00265204
0.00296233
0.00331194
0.00369912
0.00411438
0.00455443
0.00501829
0.00550538
0.00601549
0.00654883
0.00710573
0.00768642
0.0082914
0.0089212
0.00957637
0.0102577
0.0109659
0.0117015
0.012465
0.0132578
0.0140804
0.0149334
0.0158176
0.0167338
0.0176827
0.0186648
0.0196805
0.0207306
0.0218152
0.0229345
0.0240886
0.0252781
0.026505
0.0277744
0.00372515
0.00175164
0.00125878
0.00143058
0.00165094
0.00187672
0.00211593
0.00237812
0.00267035
0.00299648
0.0033584
0.00375952
0.00419219
0.00464919
0.0051285
0.00562906
0.00615068
0.00669301
0.00725597
0.00783976
0.00844452
0.00907059
0.00971827
0.0103881
0.0110802
0.0117952
0.0125333
0.0132955
0.0140817
0.0148928
0.015729
0.0165909
0.0174791
0.0183939
0.0193356
0.0203045
0.0213008
0.0223247
0.0233767
0.0244567
0.025565
0.0267018
0.0278638
0.0049656
0.00244827
0.00145838
0.00156301
0.00179814
0.00204961
0.00232351
0.00262761
0.00296574
0.0033386
0.00374692
0.0041927
0.00466476
0.00515842
0.00567235
0.00620568
0.00675787
0.00732876
0.00791797
0.00852556
0.00915149
0.00979599
0.0104592
0.011141
0.0118419
0.0125621
0.0133015
0.0140608
0.0148399
0.0156394
0.0164593
0.0173
0.0181616
0.0190443
0.0199483
0.0208738
0.0218207
0.022789
0.023779
0.0247907
0.0258237
0.0268769
0.027948
0.00613272
0.00318929
0.00169215
0.00168707
0.00193785
0.00221846
0.00252892
0.00287433
0.00325528
0.00367033
0.00412041
0.00460428
0.00511118
0.00563766
0.00618251
0.006745
0.00732449
0.00792068
0.00853321
0.00916188
0.00980646
0.010467
0.0111434
0.0118355
0.0125433
0.0132673
0.0140071
0.014763
0.0155348
0.0163228
0.0171269
0.0179472
0.0187837
0.0196365
0.0205055
0.021391
0.0222924
0.0232098
0.0241431
0.025092
0.0260558
0.0270329
0.0280207
0.00720526
0.00391781
0.00195206
0.00180641
0.00207278
0.00238389
0.00273057
0.00311457
0.0035339
0.0039862
0.00447406
0.00499118
0.00552884
0.00608477
0.00665742
0.00724619
0.00785042
0.00846929
0.0091027
0.00975005
0.0104112
0.0110857
0.0117736
0.0124746
0.0131884
0.0139151
0.0146546
0.0154066
0.0161709
0.0169473
0.017736
0.0185367
0.0193496
0.0201745
0.0210113
0.0218597
0.0227195
0.0235902
0.0244714
0.0253628
0.0262637
0.0271729
0.0280895
0.0081752
0.00460515
0.00224407
0.00192204
0.00219551
0.0025378
0.00291906
0.00333886
0.00379329
0.0042801
0.00480248
0.00535035
0.0059171
0.00650036
0.00709904
0.00771229
0.00833944
0.00897971
0.00963267
0.0102975
0.0109734
0.0116603
0.0123577
0.0130659
0.0137849
0.014514
0.0152525
0.0159995
0.0167548
0.0175185
0.0182912
0.0190731
0.0198636
0.0206629
0.0214703
0.0222853
0.0231071
0.0239345
0.0247677
0.0256063
0.0264504
0.0272994
0.028153
0.00902873
0.00514744
0.00239195
0.00202106
0.0023538
0.00272463
0.00314348
0.00359861
0.00408554
0.00460748
0.0051628
0.0057379
0.00632884
0.00693457
0.00755399
0.00818804
0.00883588
0.00949542
0.0101658
0.0108432
0.0115269
0.0122206
0.0129222
0.0136345
0.0143577
0.0150878
0.0158221
0.0165591
0.017299
0.0180449
0.0187991
0.019562
0.0203317
0.0211073
0.0218887
0.0226745
0.0234617
0.0242481
0.025036
0.0258261
0.0266191
0.0274141
0.0282092
0.000334958
0.0012146
0.00240777
0.00358242
0.00466957
0.00567817
0.00663072
0.00754988
0.00845361
0.00935349
0.0102553
0.0111587
0.0120577
0.0129445
0.013828
0.0147701
0.015787
0.0168625
0.017982
0.0191355
0.0203175
0.0215251
0.0227568
0.0240117
0.0252886
0.0265872
0.027907
0.0292476
0.0306091
0.0319913
0.0333937
0.0348165
0.0362594
0.0377218
0.0392038
0.0407045
0.0422238
0.0437605
0.0453149
0.0468864
0.0484752
0.050082
0.0517112
0.000216139
0.00087223
0.00187842
0.00276386
0.0036022
0.00442376
0.00523828
0.00605036
0.0068641
0.0076834
0.00851083
0.00934707
0.0101908
0.0110415
0.0119047
0.012798
0.0137335
0.01471
0.0157141
0.0167336
0.0178094
0.0189658
0.0201833
0.021446
0.0227457
0.0240773
0.0254374
0.0268235
0.028234
0.0296675
0.0311234
0.0326007
0.0340986
0.035617
0.0371547
0.0387119
0.0402871
0.0418804
0.0434911
0.0451188
0.0467643
0.0484284
0.0501158
8.88319e-05
0.000574477
0.00130028
0.00222265
0.00319196
0.00406494
0.00486569
0.00562108
0.00635017
0.00706725
0.00778343
0.008507
0.00924401
0.00999949
0.0107784
0.0115866
0.0124298
0.0133112
0.0142296
0.0151837
0.0161825
0.0172316
0.0183206
0.0194431
0.0206517
0.0219366
0.0232776
0.0246636
0.0260873
0.0275434
0.0290283
0.0305393
0.0320747
0.0336329
0.0352128
0.0368128
0.0384324
0.0400707
0.0417267
0.0434008
0.0450928
0.0468041
0.0485398
9.50911e-05
0.000474191
0.00107662
0.00184412
0.0027731
0.00371863
0.00459844
0.00541206
0.00617084
0.00688679
0.00757204
0.00823881
0.0088989
0.00956336
0.0102424
0.0109446
0.0116779
0.0124488
0.013262
0.0141208
0.0150279
0.0159843
0.0169883
0.0180395
0.0191471
0.0203054
0.0215087
0.0228049
0.0241789
0.0256111
0.0270903
0.0286086
0.0301605
0.031742
0.0333499
0.0349815
0.0366357
0.0383107
0.0400053
0.041719
0.0434513
0.0452029
0.0469738
6.05859e-05
0.000408799
0.000933634
0.00159817
0.00240373
0.00333531
0.00427064
0.00515221
0.00597611
0.00674777
0.00747361
0.00816075
0.00881762
0.00945419
0.0100816
0.0107113
0.0113549
0.0120234
0.0127267
0.0134731
0.014269
0.0151181
0.016023
0.016985
0.0180041
0.0190786
0.0202069
0.0213968
0.0226403
0.0239565
0.0253658
0.0268454
0.0283801
0.0299595
0.0315761
0.0332248
0.0349017
0.0366038
0.0383287
0.0400747
0.0418412
0.0436269
0.0454294
4.77821e-05
0.000366885
0.000841011
0.00143748
0.00215933
0.00300655
0.0039407
0.00486419
0.005742
0.00656972
0.00734996
0.00808613
0.00878208
0.00944307
0.0100758
0.0106892
0.0112935
0.0119006
0.0125228
0.0131725
0.0138608
0.0145973
0.0153894
0.0162423
0.0171586
0.0181389
0.0191829
0.0202894
0.0214556
0.0226834
0.0239729
0.0253302
0.0267882
0.0283229
0.0299178
0.0315604
0.0332427
0.0349581
0.0367026
0.0384731
0.0402666
0.0420812
0.0439132
3.34795e-05
0.000332729
0.000767375
0.00131187
0.00196963
0.0027412
0.00362382
0.00455908
0.00547652
0.00635263
0.00718373
0.00797107
0.0087166
0.00942243
0.0100916
0.0107286
0.0113397
0.0119336
0.0125206
0.013113
0.0137239
0.0143664
0.0150527
0.0157935
0.0165966
0.0174675
0.0184088
0.0194209
0.0205023
0.021651
0.0228638
0.0241402
0.0254836
0.0269007
0.0284209
0.0300201
0.0316803
0.0333894
0.0351388
0.0369218
0.0387339
0.0405717
0.0424335
2.57412e-05
0.00030727
0.00071033
0.00121389
0.00182108
0.00253281
0.00335071
0.00426039
0.00519562
0.00610872
0.0069839
0.00781807
0.00861155
0.00936519
0.0100801
0.0107579
0.0114015
0.0120155
0.0126066
0.0131836
0.0137577
0.0143419
0.0149501
0.0155964
0.0162935
0.0170524
0.017881
0.0187845
0.0197649
0.0208215
0.021952
0.0231536
0.024423
0.0257591
0.0271651
0.0286584
0.0302521
0.0319234
0.0336542
0.035433
0.0372512
0.039103
0.040986
2.01233e-05
0.000285487
0.00066279
0.00113275
0.00169858
0.00236113
0.00312255
0.00398263
0.00491055
0.00584661
0.00675818
0.00763419
0.00847199
0.00927141
0.0100325
0.0107556
0.0114416
0.0120922
0.0127107
0.0133025
0.0138748
0.0144379
0.0150039
0.0155869
0.0162017
0.016863
0.017584
0.0183752
0.019244
0.0201945
0.0212275
0.0223414
0.0235327
0.0247976
0.0261326
0.0275382
0.0290153
0.0305999
0.0322767
0.034026
0.0358318
0.0376839
0.0395764
1.64559e-05
0.000267298
0.000623577
0.00106565
0.00159698
0.00221845
0.00293223
0.0037408
0.00463726
0.00557788
0.00651557
0.00742748
0.00830563
0.00914763
0.00995283
0.0107207
0.0114512
0.0121444
0.0128014
0.0134245
0.0140179
0.0145881
0.015144
0.0156971
0.0162611
0.0168514
0.0174836
0.0181728
0.0189318
0.0197702
0.020694
0.0217057
0.0228045
0.0239873
0.0252496
0.0265866
0.0279948
0.0294793
0.0310498
0.0327299
0.0344955
0.036328
0.0382152
1.38221e-05
0.000251773
0.000590591
0.00100922
0.00151138
0.00209823
0.00277161
0.00353447
0.00438795
0.00531367
0.00626465
0.0072053
0.00811949
0.00900102
0.00984772
0.0106586
0.0114327
0.0121696
0.0128688
0.013531
0.0141579
0.0147528
0.0153215
0.015872
0.016415
0.0169641
0.0175346
0.0181431
0.0188059
0.0195375
0.0203498
0.0212508
0.0222443
0.0233305
0.0245068
0.0257684
0.0271099
0.028527
0.030018
0.031588
0.0332738
0.0350571
0.0369176
1.193e-05
0.000238655
0.000562986
0.000961868
0.00143946
0.00199689
0.00263597
0.00335939
0.00417037
0.00506551
0.00601466
0.00697495
0.00792003
0.00883799
0.00972379
0.0105755
0.0113918
0.0121716
0.0129137
0.0136177
0.0142837
0.014913
0.0155084
0.016075
0.0166203
0.0171546
0.0176909
0.0182448
0.0188334
0.0194741
0.0201829
0.0209734
0.0218552
0.0228339
0.0239106
0.025083
0.0263463
0.0276947
0.0291221
0.0306248
0.0322103
0.0339027
0.0357065
1.05068e-05
0.000227582
0.000539844
0.000922139
0.00137896
0.00191134
0.00252106
0.00321081
0.00398377
0.0048421
0.00577426
0.00674295
0.00771266
0.00866345
0.00958621
0.0104771
0.0113339
0.0121553
0.0129398
0.013686
0.0143933
0.0150614
0.0156914
0.0162858
0.0168491
0.0173886
0.0179141
0.0184387
0.0189779
0.0195493
0.0201712
0.0208608
0.0216334
0.0225001
0.0234675
0.0245378
0.0257093
0.0269771
0.0283348
0.0297761
0.0312975
0.0329027
0.0346132
9.39368e-06
0.000218171
0.000520413
0.000888708
0.00132785
0.00183896
0.0024236
0.00308441
0.0038245
0.00464718
0.00555138
0.00651561
0.00750169
0.00848098
0.00943838
0.0103669
0.0112631
0.012125
0.012951
0.0137392
0.0144883
0.0151972
0.0158657
0.0164945
0.0170858
0.0176443
0.0181767
0.0186929
0.0192058
0.0197312
0.0202871
0.0208927
0.0215664
0.0223245
0.0231796
0.0241395
0.025207
0.0263809
0.0276563
0.0290268
0.030486
0.0320299
0.0336611
8.50457e-06
0.00021016
0.000504027
0.000860414
0.00128457
0.00177752
0.00234076
0.00297657
0.00368812
0.00447889
0.00535149
0.00629884
0.00729102
0.008293
0.00928204
0.0102467
0.0111814
0.0120831
0.0129497
0.0137794
0.0145704
0.0153209
0.0160298
0.0166968
0.0173223
0.0179087
0.0184604
0.0189841
0.0194899
0.0199906
0.0205025
0.0210442
0.0216354
0.0222958
0.0230427
0.0238898
0.0248458
0.0259144
0.0270943
0.0283808
0.0297677
0.031249
0.0328227
7.77208e-06
0.000203276
0.000490071
0.000836361
0.00124766
0.00172501
0.00226972
0.00288402
0.00357075
0.0043334
0.00517556
0.00609772
0.00708451
0.00810124
0.00911784
0.0101168
0.0110889
0.0120299
0.0129368
0.0138076
0.0146403
0.0154327
0.0161832
0.0168904
0.0175539
0.0181742
0.0187536
0.0192966
0.0198099
0.0203038
0.0207917
0.0212901
0.0218182
0.0223967
0.0230462
0.0237849
0.0246276
0.0255835
0.0266567
0.0278466
0.0291482
0.0305548
0.0320567
7.14975e-06
0.000197328
0.000478126
0.000815699
0.00121581
0.00167957
0.00220816
0.00280368
0.00346876
0.00420668
0.0050211
0.00591536
0.00688566
0.00790733
0.00894572
0.00997603
0.0109845
0.0119641
0.0129112
0.0138229
0.0146971
0.0155316
0.0163243
0.0170733
0.0177771
0.0184353
0.0190483
0.0196187
0.020151
0.0206523
0.0211331
0.0216072
0.0220919
0.0226071
0.0231744
0.0238152
0.0245488
0.0253905
0.0263502
0.0274324
0.0286362
0.0299568
0.0313885
6.60687e-06
0.000192083
0.000467651
0.000797511
0.00118779
0.00163959
0.00215402
0.00273286
0.00337877
0.00409471
0.00488434
0.00575152
0.00669807
0.00771322
0.00876545
0.00982297
0.0108658
0.0118833
0.0128701
0.0138227
0.0147385
0.0156154
0.0164506
0.0172423
0.0179883
0.018687
0.0193381
0.019942
0.0205015
0.0210213
0.0215089
0.0219753
0.022435
0.0229059
0.0234089
0.0239666
0.0246011
0.0253326
0.026177
0.0271447
0.0282401
0.0294627
0.0308089
6.12106e-06
0.000187392
0.000458353
0.000781284
0.00116273
0.00160372
0.00210534
0.00266923
0.00329779
0.00399395
0.00476115
0.00560331
0.00652393
0.00752194
0.00857752
0.00965604
0.0107302
0.0117844
0.0128103
0.0138036
0.014761
0.0156802
0.0165586
0.0173936
0.018183
0.0189244
0.0196166
0.0202588
0.0208518
0.0213987
0.0219044
0.0223769
0.0228279
0.0232726
0.0237299
0.0242217
0.0247715
0.0254023
0.0261352
0.0269864
0.0279667
0.0290816
0.030335
5.67393e-06
0.000183083
0.000449897
0.000766543
0.00113986
0.00157092
0.0020607
0.00261084
0.00322347
0.00390151
0.00464807
0.005467
0.00636228
0.0073367
0.00838372
0.00947434
0.010575
0.0116636
0.0127279
0.0137615
0.0147604
0.015722
0.0166437
0.0175226
0.0183562
0.0191419
0.0198775
0.0205615
0.0211933
0.021774
0.0223067
0.0227968
0.0232531
0.0236879
0.0241175
0.0245617
0.0250435
0.0255875
0.0262177
0.0269557
0.0278185
0.0288181
0.0299619
5.25383e-06
0.000179031
0.000441987
0.000752691
0.00111837
0.00154013
0.00201888
0.00255607
0.00315385
0.00381483
0.00454217
0.00533935
0.00621039
0.00715929
0.00818704
0.00927833
0.0103986
0.0115179
0.0126189
0.0136922
0.0147324
0.0157363
0.0167011
0.0176243
0.0185028
0.0193338
0.0201147
0.020843
0.0215174
0.0221375
0.0227044
0.0232216
0.0236951
0.0241344
0.0245526
0.0249672
0.0253992
0.0258728
0.0264137
0.0270469
0.0277948
0.0286754
0.0297016
4.85427e-06
0.000175193
0.000434528
0.000739537
0.00109791
0.00151075
0.00197895
0.00250374
0.00308725
0.00373201
0.00444092
0.00521749
0.00606539
0.00698889
0.00799162
0.00907057
0.0102003
0.011345
0.0124799
0.0135914
0.0146723
0.0157183
0.0167263
0.0176936
0.0186174
0.0194944
0.0203218
0.0210966
0.0218165
0.0224801
0.0230871
0.0236391
0.0241397
0.0245957
0.0250174
0.0254192
0.0258194
0.0262406
0.0267083
0.0272494
0.0278901
0.0286538
0.0295595
4.47114e-06
0.000171484
0.000427342
0.000726881
0.00107814
0.00148227
0.00194009
0.00245289
0.00302253
0.00365149
0.00434258
0.0050991
0.00592471
0.00682342
0.00779961
0.00885575
0.00998165
0.0111433
0.0123079
0.0134557
0.0145761
0.0156636
0.0167145
0.0177259
0.0186948
0.0196182
0.0204928
0.0213154
0.0220832
0.0227935
0.0234452
0.0240381
0.024574
0.0250573
0.0254953
0.0258994
0.026285
0.0266721
0.0270846
0.0275495
0.028095
0.0287487
0.0295349
4.10027e-06
0.000167832
0.000420257
0.000714365
0.00105863
0.00145423
0.00190186
0.0024028
0.00295886
0.00357227
0.00424585
0.00498272
0.00578641
0.00666087
0.00761031
0.008639
0.009747
0.0109137
0.0121013
0.013282
0.0144404
0.0155685
0.0166616
0.0177167
0.0187307
0.0197004
0.0206226
0.0214938
0.0223108
0.0230704
0.0237702
0.0244089
0.0249868
0.0255059
0.0259712
0.0263911
0.0267778
0.0271483
0.027524
0.0279305
0.0283965
0.028952
0.0296262
3.74037e-06
0.000164207
0.000413254
0.000701983
0.00103932
0.00142642
0.00186399
0.00235308
0.00289561
0.00349366
0.00414987
0.00486728
0.00564927
0.0064997
0.00742259
0.00842248
0.00950321
0.0106596
0.0118601
0.0130686
0.0142623
0.0154295
0.0165642
0.0176623
0.0187209
0.0197367
0.0207065
0.0216267
0.0224937
0.0233041
0.0240546
0.024743
0.025368
0.0259299
0.0264316
0.0268788
0.0272807
0.0276509
0.0280078
0.0283746
0.0287789
0.0292515
0.0298257
3.3921e-06
0.00016057
0.000406304
0.000689712
0.00102016
0.00139876
0.00182622
0.00230362
0.00283256
0.00341522
0.00405409
0.0047521
0.00551254
0.00633901
0.00723559
0.00820648
0.00925637
0.0103878
0.0115869
0.0128149
0.0140399
0.0152442
0.0164191
0.0175595
0.018662
0.0197234
0.0207405
0.0217098
0.0226274
0.0234894
0.0242923
0.025033
0.025709
0.0263195
0.0268651
0.0273491
0.0277782
0.0281626
0.0285174
0.028863
0.0292245
0.0296319
0.0301195
3.05801e-06
0.000156935
0.000399356
0.000677457
0.00100097
0.00137116
0.00178854
0.0022542
0.00276969
0.00333696
0.0039585
0.00463711
0.00537593
0.00617852
0.00704869
0.00799066
0.00900895
0.0101081
0.0112879
0.0125229
0.0137727
0.0150109
0.0162243
0.0174059
0.0185514
0.0196578
0.0207217
0.0217396
0.0227077
0.0236219
0.0244783
0.0252731
0.0260031
0.0266662
0.0272616
0.0277904
0.0282567
0.0286679
0.0290359
0.0293775
0.0297148
0.0300759
0.0304937
2.73979e-06
0.000153309
0.000392424
0.000665235
0.000981921
0.0013437
0.00175111
0.00220501
0.00270705
0.00325902
0.00386327
0.00452249
0.0052397
0.00601836
0.00686211
0.00777508
0.00876167
0.00982655
0.0109739
0.0121978
0.013462
0.0147292
0.0159785
0.0171997
0.0183873
0.0195377
0.0206477
0.0217138
0.0227321
0.0236985
0.0246088
0.0254588
0.0262448
0.0269636
0.0276131
0.028193
0.0287049
0.0291536
0.0295478
0.0299011
0.0302321
0.0305659
0.0309332
2.43889e-06
0.000149682
0.000385561
0.000653164
0.000963099
0.00131654
0.00171398
0.00215636
0.00264495
0.00318167
0.00376871
0.00440861
0.00510434
0.00585911
0.00667658
0.00756054
0.00851532
0.00954561
0.0106561
0.0118499
0.0131121
0.0143999
0.0156813
0.0169402
0.0181686
0.019362
0.0205172
0.0216307
0.0226987
0.023717
0.0246812
0.0255871
0.0264302
0.0272068
0.0279138
0.0285493
0.0291132
0.0296082
0.0300398
0.0304184
0.0307593
0.0310837
0.0314199
2.15841e-06
0.0001461
0.00037877
0.000641261
0.000944511
0.00128979
0.00167745
0.00210841
0.00258387
0.0031055
0.00367551
0.00429628
0.00497062
0.0057017
0.00649293
0.00734809
0.00827122
0.00926687
0.0103398
0.0114947
0.0127326
0.0140268
0.0153337
0.0166273
0.0178948
0.0191303
0.0203296
0.0214896
0.0226064
0.0236761
0.0246942
0.0256559
0.0265568
0.0273925
0.0281591
0.0288538
0.0294747
0.0300227
0.0305009
0.0309163
0.031281
0.0316125
0.0319353
1.90156e-06
0.0001426
0.000372128
0.000629637
0.000926439
0.00126374
0.00164191
0.00206164
0.0025242
0.00303111
0.00358439
0.00418634
0.00483962
0.0055473
0.00631258
0.00713916
0.00803097
0.00899227
0.0100276
0.0111419
0.01234
0.0136183
0.0149389
0.016262