/*--------------------------------*- C++ -*----------------------------------*\
| =========                 |                                                 |
| \\      /  F ield         | OpenFOAM: The Open Source CFD Toolbox           |
|  \\    /   O peration     | Version:  2.3.0                                 |
|   \\  /    A nd           | Web:      www.OpenFOAM.org                      |
|    \\/     M anipulation  |                                                 |
\*---------------------------------------------------------------------------*/
FoamFile
{
    version     2.0;
    format      ascii;
    class       volScalarField;
    location    "1000";
    object      nuTilda;
}
// * * * * * * * * * * * * * * * * * * * * * * * * * * * * * * * * * * * * * //

dimensions      [0 2 -1 0 0 0 0];

internalField   nonuniform List<scalar> 
39548
(
0.0533682
0.0518524
0.0503526
0.0488681
0.0473994
0.0459462
0.0445092
0.0430887
0.0416848
0.0402985
0.0389295
0.0375792
0.0362471
0.034934
0.0336397
0.032364
0.0311073
0.0298697
0.0286507
0.027451
0.0262698
0.0251079
0.0239648
0.0228407
0.0217354
0.0206504
0.0195862
0.0185439
0.0175263
0.0165338
0.0155677
0.0146275
0.0137174
0.0128428
0.012011
0.0112305
0.0105068
0.00983573
0.00919262
0.00853469
0.00778764
0.00686313
0.00588873
0.0550551
0.0537274
0.0524042
0.0510927
0.0497941
0.0485091
0.0472369
0.0459777
0.044732
0.0434996
0.0422808
0.0410764
0.0398864
0.0387109
0.0375504
0.0364049
0.0352744
0.0341587
0.0330584
0.0319732
0.030904
0.0298498
0.0288121
0.0277902
0.0267858
0.0257979
0.0248289
0.0238794
0.0229519
0.0220477
0.0211704
0.020323
0.0195104
0.0187382
0.0180133
0.0173458
0.016746
0.0162255
0.0157983
0.0154774
0.0152762
0.0152081
0.0152853
0.0566293
0.0554418
0.0542646
0.0530989
0.0519449
0.0508018
0.0496692
0.0485467
0.0474346
0.0463322
0.0452398
0.0441578
0.0430866
0.0420265
0.0409776
0.0399402
0.0389148
0.037901
0.0368991
0.0359098
0.0349332
0.03397
0.03302
0.0320847
0.0311642
0.0302606
0.0293739
0.028507
0.0276615
0.0268401
0.0260465
0.0252849
0.0245601
0.0238784
0.0232472
0.0226747
0.0221705
0.0217451
0.021409
0.0211732
0.021046
0.0210357
0.021145
0.0580689
0.057005
0.0559531
0.0549121
0.0538809
0.052859
0.0518454
0.0508396
0.0498406
0.0488485
0.0478632
0.046885
0.0459143
0.0449509
0.0439959
0.043049
0.0421108
0.0411822
0.0402626
0.0393526
0.0384531
0.0375642
0.0366874
0.0358227
0.0349716
0.0341356
0.0333165
0.0325157
0.0317363
0.0309809
0.0302527
0.0295565
0.0288977
0.0282817
0.0277149
0.0272064
0.0267639
0.0263968
0.0261138
0.0259238
0.0258328
0.0258469
0.0259683
0.0593821
0.0584284
0.0574852
0.056551
0.0556252
0.0547069
0.0537948
0.0528878
0.0519855
0.0510873
0.0501935
0.0493033
0.0484169
0.0475354
0.0466584
0.0457874
0.0449225
0.044064
0.0432129
0.042369
0.041533
0.040706
0.0398886
0.039082
0.0382867
0.0375053
0.0367396
0.0359914
0.0352637
0.0345591
0.0338816
0.0332355
0.0326252
0.0320567
0.0315362
0.0310714
0.0306703
0.0303409
0.0300916
0.0299296
0.0298609
0.0298895
0.0300184
0.0605815
0.0597248
0.0588756
0.0580335
0.057198
0.0563682
0.0555422
0.0547195
0.0538993
0.0530816
0.052265
0.0514499
0.0506361
0.0498236
0.049013
0.0482047
0.0474004
0.0466011
0.0458065
0.0450171
0.0442339
0.0434576
0.0426894
0.0419306
0.0411818
0.0404442
0.0397208
0.039014
0.0383269
0.0376624
0.0370244
0.0364166
0.0358439
0.0353111
0.0348248
0.0343917
0.0340194
0.0337158
0.0334889
0.0333449
0.0332909
0.0333297
0.0334633
0.0616789
0.0609067
0.0601389
0.0593755
0.058617
0.0578625
0.0571104
0.0563595
0.0556095
0.0548602
0.05411
0.0533589
0.0526072
0.0518546
0.0511002
0.0503451
0.0495909
0.0488402
0.048093
0.0473492
0.0466096
0.0458753
0.0451474
0.0444279
0.0437176
0.0430171
0.0423277
0.0416532
0.040998
0.0403652
0.0397582
0.0391809
0.0386373
0.0381324
0.0376725
0.0372636
0.0369123
0.0366268
0.0364149
0.0362833
0.036239
0.0362852
0.0364225
0.0626883
0.0619869
0.0612883
0.0605921
0.0598985
0.0592083
0.05852
0.0578304
0.0571395
0.0564485
0.0557558
0.0550588
0.0543596
0.0536595
0.0529543
0.0522461
0.0515324
0.0508218
0.0501138
0.0494086
0.0487058
0.0480059
0.0473108
0.0466233
0.0459452
0.0452769
0.0446164
0.0439668
0.0433369
0.0427282
0.042146
0.041593
0.041074
0.0405915
0.0401514
0.0397632
0.0394284
0.0391557
0.0389529
0.0388292
0.0387921
0.0388443
0.0389854
0.0636228
0.0629778
0.0623356
0.0616945
0.0610521
0.0604138
0.0597796
0.0591426
0.0584998
0.0578555
0.0572128
0.0565637
0.0559059
0.0552556
0.0545901
0.0539306
0.0532476
0.0525711
0.0518928
0.0512179
0.0505458
0.0498765
0.0492079
0.0485445
0.0478909
0.047251
0.0466234
0.045992
0.0453842
0.0447922
0.0442292
0.0436951
0.043196
0.0427372
0.0423136
0.0419451
0.0416246
0.0413629
0.0411663
0.0410458
0.0410165
0.0410757
0.0412206
0.00653276
0.00824709
0.00929389
0.0103047
0.0113827
0.0125323
0.0137415
0.0149965
0.0162868
0.0176055
0.018947
0.0203079
0.0216854
0.0230783
0.0244854
0.0259058
0.0273393
0.0287849
0.0302424
0.0317121
0.0331937
0.0346869
0.0361916
0.0377076
0.0392351
0.0407734
0.0423226
0.0438825
0.0454523
0.0470318
0.0486207
0.0502183
0.0518238
0.0534366
0.0550563
0.0566818
0.0583122
0.0599468
0.0615844
0.0632245
0.0648668
0.066512
0.06817
0.0155141
0.0159014
0.0164419
0.017124
0.0179321
0.0188465
0.0198483
0.0209215
0.0220519
0.0232284
0.0244421
0.0256856
0.0269531
0.028241
0.0295463
0.0308661
0.0321982
0.0335413
0.0348947
0.0362572
0.0376283
0.0390073
0.0403941
0.0417878
0.0431884
0.0445958
0.0460094
0.0474294
0.0488551
0.0502862
0.0517227
0.053164
0.0546095
0.0560592
0.0575125
0.0589687
0.0604272
0.0618876
0.0633498
0.0648125
0.0662751
0.0677352
0.0691919
0.0213734
0.0217248
0.0222015
0.0227974
0.0235025
0.0243048
0.025191
0.0261489
0.0271668
0.0282343
0.0293428
0.0304846
0.031654
0.0328459
0.0340561
0.0352812
0.0365191
0.0377672
0.0390243
0.0402887
0.0415591
0.0428351
0.0441157
0.0454005
0.046689
0.047981
0.0492759
0.0505739
0.0518743
0.0531769
0.0544814
0.0557877
0.0570952
0.0584039
0.0597134
0.0610236
0.0623341
0.063645
0.0649558
0.0662663
0.0675755
0.068882
0.0701845
0.0261961
0.0265328
0.0269788
0.0275301
0.0281797
0.0289177
0.0297336
0.0306176
0.0315598
0.0325507
0.0335825
0.0346477
0.0357406
0.0368561
0.0379893
0.0391373
0.0402971
0.0414659
0.042642
0.0438232
0.0450086
0.0461969
0.0473872
0.0485791
0.0497719
0.0509655
0.0521594
0.0533533
0.0545469
0.0557398
0.0569318
0.0581226
0.059312
0.0605
0.0616864
0.0628713
0.0640548
0.0652369
0.0664175
0.0675965
0.0687741
0.06995
0.0711262
0.0302465
0.0305746
0.0310034
0.0315285
0.0321437
0.0328405
0.0336102
0.0344436
0.0353324
0.0362681
0.0372428
0.0382495
0.0392828
0.0403378
0.0414099
0.0424956
0.0435914
0.0446947
0.0458037
0.0469158
0.0480296
0.0491444
0.0502585
0.0513718
0.0524838
0.0535943
0.0547027
0.0558086
0.0569117
0.0580114
0.0591076
0.0602001
0.0612887
0.0623734
0.0634544
0.064532
0.0656062
0.0666773
0.0677454
0.0688107
0.0698738
0.0709352
0.0719986
0.0336915
0.0340145
0.0344322
0.0349403
0.0355317
0.0362001
0.036937
0.0377339
0.0385834
0.0394774
0.040408
0.0413694
0.0423561
0.0433628
0.0443859
0.0454212
0.0464649
0.0475145
0.0485681
0.0496229
0.050677
0.0517294
0.0527793
0.0538263
0.0548704
0.0559108
0.0569472
0.0579788
0.0590053
0.0600259
0.0610405
0.0620488
0.063051
0.0640475
0.0650384
0.0660241
0.0670042
0.0679794
0.0689502
0.0699167
0.0708794
0.0718392
0.0727991
0.036651
0.0369707
0.0373804
0.0378763
0.0384519
0.0390992
0.0398113
0.0405806
0.0413996
0.0422607
0.0431567
0.0440821
0.0450311
0.0459995
0.0469827
0.0479768
0.0489785
0.0499836
0.0509914
0.0519984
0.0530015
0.0540005
0.0549959
0.0559875
0.0569745
0.0579559
0.0589312
0.0599003
0.0608616
0.0618149
0.0627596
0.0636954
0.0646232
0.0655439
0.0664579
0.0673647
0.0682639
0.0691562
0.0700426
0.0709227
0.0717973
0.0726674
0.0735347
0.0392151
0.0395314
0.0399351
0.0404218
0.040987
0.0416164
0.0423093
0.0430577
0.0438516
0.0446866
0.0455544
0.0464502
0.0473682
0.0483053
0.0492567
0.0502164
0.0511849
0.052151
0.0531231
0.0540883
0.055046
0.0559996
0.056949
0.0578945
0.0588337
0.0597651
0.0606885
0.0616057
0.0625098
0.0634064
0.0642904
0.0651632
0.0660269
0.0668825
0.0677316
0.0685702
0.0693989
0.0702193
0.0710328
0.0718374
0.0726346
0.0734263
0.0742145
0.0414546
0.0417643
0.0421653
0.0426443
0.0432029
0.04381
0.0444906
0.0452252
0.0459947
0.0468102
0.0476512
0.0485229
0.0494139
0.0503275
0.0512534
0.052179
0.0531213
0.0540492
0.0550104
0.0559227
0.0568392
0.0577568
0.0586675
0.0595765
0.0604745
0.0613638
0.0622432
0.063123
0.0639688
0.0648225
0.065649
0.0664692
0.0672778
0.0680786
0.0688756
0.069652
0.0704198
0.0711795
0.0719324
0.0726697
0.0733999
0.0741237
0.0748419
0.0815119
0.0780722
0.0747281
0.0714746
0.068309
0.0652303
0.0622356
0.0593233
0.0564915
0.0537395
0.0510661
0.0484697
0.0459498
0.0435049
0.0411337
0.0388358
0.0366091
0.0344529
0.0323665
0.0303471
0.0283946
0.0265076
0.0246836
0.0229239
0.0212256
0.0195885
0.0180124
0.0164951
0.0150366
0.0136369
0.012295
0.0110117
0.00978685
0.00862174
0.00751833
0.00647865
0.00550549
0.00460323
0.0037749
0.00303944
0.00246398
0.00187892
0.00118896
0.0828484
0.0797313
0.0766905
0.0737213
0.070822
0.0679908
0.065226
0.0625254
0.0598875
0.0573119
0.0547977
0.0523433
0.0499479
0.0476113
0.0453324
0.0431106
0.0409447
0.038835
0.0367802
0.0347784
0.0328302
0.0309334
0.0290883
0.0272926
0.0255471
0.0238509
0.0222045
0.0206067
0.0190596
0.0175629
0.0161179
0.0147261
0.0133902
0.0121136
0.0108993
0.00975184
0.00868416
0.0077278
0.00684486
0.0059412
0.00498432
0.00393145
0.00270248
0.0841922
0.0813649
0.0785989
0.0758897
0.073236
0.0706357
0.0680869
0.065588
0.0631375
0.0607344
0.0583783
0.056067
0.0538012
0.0515793
0.0494022
0.0472686
0.0451776
0.0431301
0.0411246
0.0391612
0.0372391
0.0353578
0.0335166
0.0317173
0.0299573
0.0282379
0.0265588
0.0249215
0.0233284
0.02178
0.0202788
0.0188285
0.017434
0.0161021
0.0148471
0.0136727
0.0125311
0.0113812
0.0101952
0.00894013
0.00758182
0.00607782
0.00436932
0.085529
0.0829663
0.080451
0.0779805
0.075553
0.0731661
0.0708186
0.0685091
0.0662355
0.0639976
0.0617935
0.0596231
0.0574848
0.0553791
0.0533058
0.0512638
0.0492535
0.0472752
0.0453288
0.0434135
0.0415298
0.0396774
0.037857
0.0360687
0.0343116
0.0325883
0.0308994
0.029246
0.0276308
0.0260577
0.0245301
0.0230564
0.0216381
0.0202646
0.0189163
0.0175726
0.0162091
0.0148011
0.0133208
0.0117419
0.0100316
0.00814874
0.00604713
0.0868488
0.0845284
0.0822424
0.0799904
0.0777701
0.0755801
0.0734191
0.0712856
0.0691781
0.0670955
0.0650364
0.0630001
0.0609857
0.0589929
0.0570216
0.0550716
0.0531433
0.0512367
0.049352
0.0474896
0.0456501
0.0438344
0.0420423
0.0402744
0.0385327
0.0368171
0.0351295
0.0334734
0.0318506
0.0302622
0.0287069
0.0271791
0.0256719
0.024171
0.0226624
0.0211273
0.0195468
0.0178975
0.0161564
0.0142947
0.0122809
0.0100773
0.00764382
0.088148
0.086046
0.083969
0.0819164
0.079886
0.077876
0.0758864
0.0739154
0.0719624
0.0700245
0.0681018
0.0661922
0.0642948
0.0624092
0.0605363
0.0586752
0.0568261
0.0549904
0.0531676
0.0513591
0.0495653
0.0477871
0.0460255
0.0442821
0.0425566
0.0408494
0.0391623
0.0374947
0.0358464
0.0342128
0.0325902
0.0309721
0.0293488
0.0277092
0.0260406
0.0243268
0.0225496
0.0206869
0.0187141
0.0166041
0.0143257
0.0118427
0.00911916
0.0894143
0.0875121
0.0856259
0.0837554
0.0818979
0.0800531
0.07822
0.0763982
0.0745856
0.0727827
0.0709848
0.0691932
0.0674054
0.0656207
0.0638391
0.0620605
0.0602863
0.0585164
0.0567522
0.0549927
0.0532395
0.0514951
0.0497583
0.0480309
0.0463126
0.0446034
0.0429012
0.0412057
0.0395133
0.0378199
0.0361196
0.0344042
0.032665
0.0308946
0.0290792
0.0272051
0.0252528
0.0231993
0.021021
0.0186905
0.0161763
0.013445
0.0104625
0.0906338
0.0889223
0.0872102
0.0855054
0.0838053
0.0821095
0.0804194
0.0787321
0.0770457
0.0753675
0.0736819
0.0719987
0.0703107
0.0686172
0.0669187
0.0652163
0.0635077
0.0617936
0.0600817
0.0583646
0.0566416
0.0549232
0.0532007
0.0514804
0.0497597
0.0480393
0.046314
0.0445815
0.0428407
0.0410861
0.0393086
0.037502
0.0356556
0.033763
0.0318151
0.0297983
0.0276914
0.0254666
0.0231056
0.020577
0.0178514
0.0148954
0.011677
0.0918299
0.0902825
0.0887213
0.087168
0.0856084
0.0840437
0.0824813
0.0809212
0.0793354
0.077784
0.0761894
0.0746006
0.0730011
0.0713891
0.0697632
0.0681289
0.0664868
0.0648085
0.0631394
0.0614691
0.059754
0.0580628
0.0563443
0.0546287
0.0528949
0.0511598
0.0494109
0.0476407
0.0458513
0.0440417
0.0421899
0.0403052
0.0383565
0.036351
0.034281
0.0321404
0.0299048
0.0275165
0.0249944
0.0222897
0.0193732
0.016215
0.012777
0.00054902
0.000536817
0.000749478
0.000950158
0.001139
0.00131897
0.00149309
0.00166463
0.00183843
0.00202106
0.00222175
0.00245216
0.00272188
0.00303058
0.00337457
0.00375008
0.00415571
0.00459034
0.00505399
0.00554699
0.00607024
0.00662438
0.00721028
0.00782931
0.00848247
0.00917109
0.00989636
0.0106597
0.0114624
0.012306
0.013192
0.0141214
0.0150959
0.0161168
0.0171851
0.0183022
0.019469
0.0206861
0.0219543
0.0232733
0.0246426
0.0260621
0.0275328
0.00133899
0.000778821
0.000920837
0.0011262
0.00132312
0.00151278
0.00170015
0.00189175
0.00209522
0.00231956
0.00257348
0.00286526
0.00319863
0.00356489
0.00396012
0.00438237
0.0048306
0.00530484
0.00580478
0.00633103
0.00688428
0.00746498
0.00807396
0.008712
0.00938018
0.0100793
0.0108105
0.0115747
0.0123731
0.0132065
0.0140762
0.0149832
0.0159285
0.0169131
0.017938
0.0190039
0.0201117
0.0212616
0.0224538
0.0236886
0.024966
0.0262862
0.0276488
0.00247156
0.00117638
0.00108618
0.00128696
0.00149429
0.00169897
0.00190839
0.0021315
0.00237703
0.00265224
0.00296249
0.00331207
0.00369922
0.00411446
0.00455449
0.00501835
0.00550542
0.00601552
0.00654886
0.00710576
0.00768645
0.00829142
0.00892122
0.00957639
0.0102577
0.0109659
0.0117015
0.0124651
0.0132578
0.0140804
0.0149334
0.0158176
0.0167338
0.0176827
0.0186648
0.0196805
0.0207306
0.0218152
0.0229345
0.0240886
0.0252781
0.026505
0.0277744
0.00372525
0.00175209
0.00125965
0.00143125
0.00165144
0.00187711
0.00211624
0.00237837
0.00267054
0.00299663
0.00335852
0.00375962
0.00419227
0.00464926
0.00512855
0.0056291
0.00615071
0.00669304
0.00725599
0.00783979
0.00844454
0.0090706
0.00971828
0.0103881
0.0110802
0.0117952
0.0125333
0.0132955
0.0140817
0.0148928
0.015729
0.0165909
0.0174791
0.0183939
0.0193356
0.0203045
0.0213008
0.0223247
0.0233767
0.0244567
0.025565
0.0267018
0.0278638
0.00496565
0.0024485
0.00145903
0.00156357
0.00179857
0.00204994
0.00232376
0.00262781
0.0029659
0.00333873
0.00374702
0.00419278
0.00466482
0.00515847
0.0056724
0.00620572
0.0067579
0.00732879
0.00791799
0.00852558
0.00915151
0.009796
0.0104592
0.011141
0.0118419
0.0125621
0.0133015
0.0140608
0.0148399
0.0156394
0.0164593
0.0173
0.0181616
0.0190443
0.0199483
0.0208738
0.0218207
0.022789
0.023779
0.0247907
0.0258237
0.0268769
0.027948
0.00613276
0.00318943
0.00169263
0.00168755
0.00193821
0.00221874
0.00252914
0.0028745
0.00325541
0.00367044
0.00412049
0.00460434
0.00511123
0.00563771
0.00618255
0.00674504
0.00732451
0.0079207
0.00853323
0.00916189
0.00980648
0.010467
0.0111434
0.0118355
0.0125433
0.0132673
0.0140072
0.014763
0.0155348
0.0163228
0.0171269
0.0179472
0.0187837
0.0196365
0.0205055
0.021391
0.0222924
0.0232098
0.0241431
0.025092
0.0260558
0.0270329
0.0280207
0.00720528
0.00391791
0.00195242
0.00180683
0.0020731
0.00238414
0.00273076
0.00311471
0.00353401
0.00398629
0.00447413
0.00499123
0.00552889
0.0060848
0.00665745
0.00724622
0.00785044
0.00846931
0.00910272
0.00975006
0.0104112
0.0110857
0.0117736
0.0124746
0.0131884
0.0139151
0.0146546
0.0154066
0.0161709
0.0169473
0.017736
0.0185367
0.0193496
0.0201745
0.0210113
0.0218597
0.0227195
0.0235902
0.0244714
0.0253628
0.0262637
0.0271729
0.0280895
0.00817522
0.00460522
0.00224435
0.00192241
0.0021958
0.00253801
0.00291922
0.00333899
0.00379339
0.00428018
0.00480254
0.0053504
0.00591714
0.00650039
0.00709907
0.00771232
0.00833946
0.00897973
0.00963269
0.0102975
0.0109734
0.0116603
0.0123577
0.0130659
0.0137849
0.014514
0.0152525
0.0159996
0.0167548
0.0175185
0.0182912
0.0190731
0.0198636
0.0206629
0.0214703
0.0222853
0.0231071
0.0239345
0.0247677
0.0256063
0.0264504
0.0272994
0.0281531
0.00902875
0.00514749
0.00239219
0.00202139
0.00235405
0.00272481
0.00314362
0.00359871
0.00408562
0.00460754
0.00516286
0.00573794
0.00632887
0.00693459
0.00755402
0.00818806
0.00883589
0.00949543
0.0101658
0.0108432
0.0115269
0.0122206
0.0129222
0.0136345
0.0143577
0.0150878
0.0158221
0.0165591
0.017299
0.0180449
0.0187991
0.019562
0.0203317
0.0211073
0.0218887
0.0226745
0.0234617
0.0242481
0.025036
0.0258261
0.0266191
0.0274141
0.0282092
0.000346139
0.00121554
0.002408
0.00358253
0.00466963
0.00567821
0.00663076
0.00754991
0.00845363
0.00935351
0.0102553
0.0111587
0.0120577
0.0129445
0.013828
0.0147701
0.015787
0.0168625
0.017982
0.0191355
0.0203175
0.0215251
0.0227568
0.0240117
0.0252886
0.0265872
0.027907
0.0292476
0.0306091
0.0319913
0.0333937
0.0348165
0.0362594
0.0377218
0.0392038
0.0407045
0.0422238
0.0437605
0.0453149
0.0468864
0.0484752
0.050082
0.0517112
0.000238288
0.00087404
0.00187881
0.00276404
0.00360231
0.00442383
0.00523833
0.0060504
0.00686413
0.00768342
0.00851085
0.00934708
0.0101908
0.0110415
0.0119048
0.012798
0.0137335
0.01471
0.0157141
0.0167336
0.0178095
0.0189658
0.0201833
0.0214461
0.0227457
0.0240773
0.0254374
0.0268235
0.028234
0.0296675
0.0311234
0.0326007
0.0340986
0.035617
0.0371547
0.0387119
0.0402871
0.0418804
0.0434911
0.0451188
0.0467643
0.0484284
0.0501158
0.000137012
0.00057859
0.0013011
0.00222293
0.0031921
0.00406502
0.00486575
0.00562113
0.0063502
0.00706728
0.00778345
0.00850701
0.00924403
0.0099995
0.0107785
0.0115866
0.0124298
0.0133113
0.0142296
0.0151838
0.0161825
0.0172316
0.0183206
0.0194431
0.0206517
0.0219366
0.0232776
0.0246636
0.0260873
0.0275434
0.0290283
0.0305393
0.0320747
0.0336329
0.0352128
0.0368128
0.0384324
0.0400707
0.0417267
0.0434008
0.0450928
0.0468041
0.0485398
0.000141757
0.000480137
0.00107781
0.00184453
0.00277328
0.00371873
0.0045985
0.00541211
0.00617087
0.00688682
0.00757206
0.00823884
0.00889892
0.00956338
0.0102424
0.0109446
0.0116779
0.0124488
0.013262
0.0141208
0.0150279
0.0159843
0.0169883
0.0180395
0.0191472
0.0203054
0.0215087
0.022805
0.0241789
0.0256111
0.0270903
0.0286086
0.0301605
0.031742
0.0333499
0.0349816
0.0366357
0.0383107
0.0400053
0.041719
0.0434513
0.0452029
0.0469738
0.000115688
0.000416651
0.000935221
0.00159871
0.00240398
0.00333544
0.00427072
0.00515226
0.00597614
0.0067478
0.00747364
0.00816078
0.00881764
0.00945421
0.0100816
0.0107113
0.0113549
0.0120234
0.0127267
0.0134731
0.014269
0.0151181
0.016023
0.016985
0.0180041
0.0190786
0.0202069
0.0213968
0.0226403
0.0239565
0.0253658
0.0268454
0.0283801
0.0299595
0.0315762
0.0332248
0.0349017
0.0366038
0.0383287
0.0400747
0.0418412
0.043627
0.0454294
0.00010541
0.000376448
0.000842964
0.00143815
0.00215963
0.0030067
0.00394079
0.00486425
0.00574204
0.00656975
0.00734998
0.00808615
0.0087821
0.00944308
0.0100759
0.0106892
0.0112935
0.0119006
0.0125228
0.0131725
0.0138608
0.0145973
0.0153894
0.0162423
0.0171586
0.0181389
0.0191829
0.0202894
0.0214556
0.0226834
0.0239729
0.0253302
0.0267882
0.028323
0.0299178
0.0315604
0.0332427
0.0349581
0.0367026
0.0384731
0.0402666
0.0420812
0.0439132
9.27676e-05
0.000344092
0.000769717
0.00131267
0.00196999
0.00274138
0.00362393
0.00455915
0.00547656
0.00635267
0.00718375
0.0079711
0.00871661
0.00942244
0.0100916
0.0107286
0.0113398
0.0119336
0.0125206
0.013113
0.0137239
0.0143664
0.0150528
0.0157935
0.0165966
0.0174675
0.0184088
0.0194209
0.0205023
0.021651
0.0228638
0.0241402
0.0254836
0.0269007
0.028421
0.0300201
0.0316803
0.0333894
0.0351388
0.0369218
0.0387339
0.0405717
0.0424335
8.49778e-05
0.00032029
0.00071306
0.00121483
0.0018215
0.00253303
0.00335083
0.00426047
0.00519567
0.00610875
0.00698392
0.0078181
0.00861157
0.00936521
0.0100801
0.0107579
0.0114015
0.0120156
0.0126066
0.0131836
0.0137578
0.0143419
0.0149501
0.0155964
0.0162935
0.0170524
0.017881
0.0187845
0.0197649
0.0208215
0.021952
0.0231536
0.024423
0.0257591
0.0271651
0.0286584
0.0302521
0.0319234
0.0336542
0.035433
0.0372512
0.039103
0.040986
7.85798e-05
0.000300188
0.000665919
0.00113384
0.00169906
0.00236138
0.00312269
0.00398272
0.00491061
0.00584665
0.00675822
0.00763421
0.00847201
0.00927143
0.0100325
0.0107556
0.0114416
0.0120922
0.0127107
0.0133025
0.0138749
0.0144379
0.0150039
0.0155869
0.0162017
0.016863
0.017584
0.0183752
0.019244
0.0201945
0.0212275
0.0223414
0.0235327
0.0247976
0.0261326
0.0275382
0.0290153
0.0305999
0.0322767
0.034026
0.0358318
0.0376839
0.0395764
7.38787e-05
0.000283622
0.000627102
0.00106687
0.00159752
0.00221873
0.00293239
0.0037409
0.00463733
0.00557793
0.0065156
0.00742751
0.00830565
0.00914765
0.00995285
0.0107207
0.0114512
0.0121444
0.0128014
0.0134245
0.0140179
0.0145881
0.015144
0.0156971
0.0162611
0.0168514
0.0174836
0.0181728
0.0189318
0.0197702
0.020694
0.0217057
0.0228045
0.0239873
0.0252496
0.0265866
0.0279948
0.0294793
0.0310498
0.0327299
0.0344955
0.036328
0.0382152
7.01287e-05
0.000269661
0.000594509
0.00101058
0.00151199
0.00209855
0.00277179
0.00353458
0.00438803
0.00531372
0.00626469
0.00720532
0.00811951
0.00900103
0.00984774
0.0106586
0.0114327
0.0121696
0.0128688
0.013531
0.0141579
0.0147528
0.0153215
0.015872
0.016415
0.0169641
0.0175346
0.0181431
0.0188059
0.0195375
0.0203498
0.0212508
0.0222443
0.0233305
0.0245068
0.0257684
0.0271099
0.028527
0.030018
0.031588
0.0332738
0.0350571
0.0369176
6.71708e-05
0.000258009
0.000567283
0.000963367
0.00144013
0.00199724
0.00263617
0.00335952
0.00417045
0.00506557
0.0060147
0.00697498
0.00792005
0.00883801
0.0097238
0.0105755
0.0113918
0.0121716
0.0129137
0.0136177
0.0142837
0.014913
0.0155084
0.016075
0.0166203
0.0171546
0.0176909
0.0182448
0.0188334
0.0194741
0.0201829
0.0209734
0.0218553
0.0228339
0.0239106
0.025083
0.0263463
0.0276947
0.0291221
0.0306248
0.0322103
0.0339027
0.0357065
6.47572e-05
0.000248284
0.000544502
0.000923769
0.00137969
0.00191172
0.00252128
0.00321094
0.00398386
0.00484216
0.0057743
0.00674298
0.00771269
0.00866347
0.00958623
0.0104771
0.011334
0.0121554
0.0129398
0.013686
0.0143933
0.0150614
0.0156914
0.0162858
0.0168491
0.0173886
0.0179142
0.0184387
0.0189779
0.0195493
0.0201712
0.0208608
0.0216334
0.0225001
0.0234675
0.0245378
0.0257093
0.0269771
0.0283348
0.0297761
0.0312975
0.0329027
0.0346132
6.27296e-05
0.000240103
0.000525408
0.00089046
0.00132863
0.00183937
0.00242384
0.00308455
0.00382459
0.00464724
0.00555143
0.00651564
0.00750171
0.008481
0.0094384
0.0103669
0.0112631
0.012125
0.012951
0.0137392
0.0144883
0.0151972
0.0158657
0.0164945
0.0170858
0.0176443
0.0181767
0.0186929
0.0192058
0.0197312
0.0202872
0.0208927
0.0215664
0.0223245
0.0231796
0.0241395
0.025207
0.0263809
0.0276563
0.0290268
0.030486
0.0320299
0.0336611
6.10051e-05
0.000233205
0.000509334
0.000862282
0.00128541
0.00177796
0.00234101
0.00297672
0.00368822
0.00447896
0.00535154
0.00629888
0.00729105
0.00829302
0.00928205
0.0102467
0.0111814
0.0120831
0.0129497
0.0137794
0.0145704
0.0153209
0.0160298
0.0166968
0.0173223
0.0179087
0.0184604
0.0189841
0.0194899
0.0199906
0.0205025
0.0210442
0.0216354
0.0222958
0.0230427
0.0238898
0.0248458
0.0259144
0.0270943
0.0283808
0.0297677
0.031249
0.0328227
5.95022e-05
0.000227329
0.000495667
0.000838335
0.00124855
0.00172547
0.00226999
0.00288419
0.00357086
0.00433347
0.00517561
0.00609776
0.00708454
0.00810126
0.00911786
0.0101168
0.011089
0.0120299
0.0129368
0.0138076
0.0146403
0.0154327
0.0161832
0.0168904
0.0175539
0.0181742
0.0187536
0.0192966
0.0198099
0.0203038
0.0207917
0.0212901
0.0218182
0.0223967
0.0230462
0.0237849
0.0246276
0.0255835
0.0266567
0.0278466
0.0291482
0.0305548
0.0320567
5.81562e-05
0.000222291
0.000483988
0.000817773
0.00121675
0.00168006
0.00220845
0.00280386
0.00346888
0.00420676
0.00502116
0.0059154
0.00688569
0.00790735
0.00894574
0.00997605
0.0109845
0.0119641
0.0129112
0.0138229
0.0146971
0.0155316
0.0163243
0.0170733
0.0177771
0.0184353
0.0190483
0.0196187
0.020151
0.0206523
0.0211331
0.0216072
0.0220919
0.0226071
0.0231744
0.0238152
0.0245488
0.0253905
0.0263502
0.0274324
0.0286362
0.0299568
0.0313885
5.69182e-05
0.000217881
0.000473762
0.000799678
0.00118877
0.00164011
0.00215432
0.00273304
0.00337889
0.0040948
0.0048844
0.00575156
0.00669811
0.00771324
0.00876547
0.00982298
0.0108658
0.0118833
0.0128701
0.0138227
0.0147385
0.0156154
0.0164506
0.0172423
0.0179883
0.018687
0.0193381
0.019942
0.0205015
0.0210213
0.0215089
0.0219753
0.022435
0.0229059
0.0234089
0.0239666
0.0246011
0.0253326
0.026177
0.0271447
0.0282401
0.0294627
0.0308089
5.57472e-05
0.000213962
0.000464698
0.000783541
0.00116375
0.00160426
0.00210565
0.00266943
0.00329792
0.00399404
0.00476121
0.00560335
0.00652397
0.00752197
0.00857754
0.00965606
0.0107302
0.0117844
0.0128103
0.0138036
0.014761
0.0156802
0.0165586
0.0173936
0.018183
0.0189244
0.0196166
0.0202588
0.0208518
0.0213987
0.0219044
0.0223769
0.0228279
0.0232726
0.0237299
0.0242217
0.0247715
0.0254023
0.0261352
0.0269864
0.0279667
0.0290816
0.030335
5.4606e-05
0.000210385
0.000456467
0.000768886
0.00114093
0.00157148
0.00206102
0.00261105
0.00322361
0.0039016
0.00464813
0.00546705
0.00636231
0.00733672
0.00838374
0.00947436
0.010575
0.0116636
0.012728
0.0137615
0.0147604
0.015722
0.0166437
0.0175226
0.0183562
0.0191419
0.0198775
0.0205615
0.0211933
0.021774
0.0223067
0.0227968
0.0232531
0.0236879
0.0241175
0.0245617
0.0250435
0.0255875
0.0262177
0.0269557
0.0278185
0.0288181
0.0299619
5.34717e-05
0.000207041
0.000448779
0.00075512
0.00111947
0.00154072
0.00201922
0.00255628
0.00315399
0.00381493
0.00454223
0.0053394
0.00621043
0.00715931
0.00818706
0.00927835
0.0103986
0.0115179
0.0126189
0.0136922
0.0147324
0.0157363
0.0167011
0.0176243
0.0185028
0.0193338
0.0201147
0.020843
0.0215174
0.0221375
0.0227044
0.0232216
0.0236952
0.0241344
0.0245526
0.0249672
0.0253992
0.0258728
0.0264137
0.0270469
0.0277948
0.0286754
0.0297016
5.23342e-05
0.000203893
0.00044154
0.000742052
0.00109906
0.00151136
0.0019793
0.00250396
0.0030874
0.00373211
0.00444099
0.00521754
0.00606543
0.00698892
0.00799164
0.00907059
0.0102003
0.011345
0.0124799
0.0135914
0.0146723
0.0157183
0.0167263
0.0176936
0.0186174
0.0194944
0.0203218
0.0210966
0.0218165
0.0224801
0.0230871
0.0236391
0.0241397
0.0245957
0.0250174
0.0254192
0.0258194
0.0262406
0.0267083
0.0272494
0.0278901
0.0286538
0.0295595
5.11871e-05
0.000200867
0.000434576
0.000729484
0.00107933
0.00148291
0.00194046
0.00245312
0.00302268
0.00365159
0.00434265
0.00509916
0.00592475
0.00682345
0.00779963
0.00885577
0.00998167
0.0111433
0.0123079
0.0134557
0.0145761
0.0156636
0.0167145
0.0177259
0.0186948
0.0196182
0.0204928
0.0213154
0.0220832
0.0227935
0.0234452
0.0240381
0.024574
0.0250573
0.0254953
0.0258994
0.026285
0.0266721
0.0270846
0.0275495
0.028095
0.0287487
0.0295349
5.00179e-05
0.000197906
0.000427721
0.000717059
0.00105986
0.00145489
0.00190224
0.00240304
0.00295902
0.00357238
0.00424592
0.00498278
0.00578645
0.0066609
0.00761034
0.00863901
0.00974701
0.0109137
0.0121013
0.013282
0.0144404
0.0155685
0.0166616
0.0177168
0.0187307
0.0197004
0.0206226
0.0214938
0.0223108
0.0230704
0.0237702
0.0244089
0.0249868
0.0255059
0.0259712
0.0263911
0.0267778
0.0271483
0.027524
0.0279305
0.0283965
0.028952
0.0296262
4.88173e-05
0.000194982
0.000420955
0.000704773
0.00104061
0.0014271
0.00186439
0.00235333
0.00289577
0.00349378
0.00414995
0.00486734
0.00564932
0.00649973
0.00742262
0.0084225
0.00950322
0.0106596
0.0118601
0.0130686
0.0142623
0.0154295
0.0165642
0.0176623
0.0187209
0.0197367
0.0207065
0.0216267
0.0224937
0.0233041
0.0240546
0.024743
0.025368
0.0259299
0.0264316
0.0268788
0.0272807
0.0276509
0.0280078
0.0283746
0.0287789
0.0292515
0.0298257
4.75799e-05
0.000192064
0.000414252
0.0006926
0.00102149
0.00139947
0.00182664
0.00230389
0.00283273
0.00341534
0.00405417
0.00475216
0.00551258
0.00633905
0.00723562
0.0082065
0.00925639
0.0103879
0.0115869
0.0128149
0.0140399
0.0152442
0.0164191
0.0175595
0.018662
0.0197234
0.0207405
0.0217098
0.0226274
0.0234894
0.0242923
0.025033
0.025709
0.0263195
0.0268651
0.0273491
0.0277782
0.0281626
0.0285174
0.028863
0.0292245
0.0296319
0.0301195
4.63078e-05
0.000189163
0.000407562
0.00068045
0.00100236
0.0013719
0.00178898
0.00225448
0.00276988
0.00333709
0.00395859
0.00463717
0.00537598
0.00617855
0.00704871
0.00799068
0.00900897
0.0101081
0.0112879
0.0125229
0.0137727
0.0150109
0.0162243
0.0174059
0.0185514
0.0196578
0.0207217
0.0217396
0.0227077
0.0236219
0.0244783
0.0252731
0.0260031
0.0266662
0.0272616
0.0277904
0.0282567
0.0286679
0.0290359
0.0293775
0.0297148
0.0300759
0.0304937
4.50024e-05
0.000186284
0.000400899
0.000668338
0.00098336
0.00134447
0.00175156
0.0022053
0.00270724
0.00325915
0.00386337
0.00452256
0.00523975
0.0060184
0.00686214
0.0077751
0.00876169
0.00982656
0.0109739
0.0121978
0.013462
0.0147292
0.0159785
0.0171997
0.0183873
0.0195377
0.0206477
0.0217138
0.0227321
0.0236985
0.0246088
0.0254588
0.0262448
0.0269636
0.0276132
0.028193
0.0287049
0.0291536
0.0295478
0.0299011
0.0302321
0.0305659
0.0309332
4.3665e-05
0.000183417
0.000394313
0.000656381
0.000964595
0.00131734
0.00171446
0.00215666
0.00264515
0.00318181
0.00376881
0.00440868
0.00510439
0.00585915
0.00667661
0.00756056
0.00851534
0.00954562
0.0106561
0.0118499
0.0131121
0.0143999
0.0156813
0.0169402
0.0181686
0.019362
0.0205172
0.0216307
0.0226987
0.023717
0.0246812
0.0255871
0.0264302
0.0272069
0.0279138
0.0285493
0.0291132
0.0296082
0.0300398
0.0304184
0.0307593
0.0310837
0.0314199
4.23069e-05
0.000180598
0.00038781
0.000644596
0.000946066
0.00129062
0.00167794
0.00210872
0.00258408
0.00310564
0.00367561
0.00429636
0.00497068
0.00570174
0.00649296
0.00734812
0.00827125
0.00926688
0.0103398
0.0114947
0.0127326
0.0140268
0.0153337
0.0166273
0.0178948
0.0191303
0.0203296
0.0214896
0.0226064
0.0236761
0.0246942
0.0256559
0.0265568
0.0273925
0.0281592
0.0288538
0.0294747
0.0300227
0.0305009
0.0309163
0.031281
0.0316125
0.0319353
4.09447e-05
0.000177854
0.00038146
0.000633094
0.000928055
0.00126461
0.00164243
0.00206197
0.00252442
0.00303127
0.0035845
0.00418642
0.00483968
0.00554734
0.00631261
0.00713919
0.008031
0.00899229
0.0100276
0.011142
0.01234
0.0136183
0.014939
0.016262