/*--------------------------------*- C++ -*----------------------------------*\
| =========                 |                                                 |
| \\      /  F ield         | OpenFOAM: The Open Source CFD Toolbox           |
|  \\    /   O peration     | Version:  2.3.0                                 |
|   \\  /    A nd           | Web:      www.OpenFOAM.org                      |
|    \\/     M anipulation  |                                                 |
\*---------------------------------------------------------------------------*/
FoamFile
{
    version     2.0;
    format      ascii;
    class       volVectorField;
    location    "8000";
    object      U;
}
// * * * * * * * * * * * * * * * * * * * * * * * * * * * * * * * * * * * * * //

dimensions      [0 1 -1 0 0 0 0];

internalField   nonuniform List<vector> 
14036
(
(22.0251 9.18946 3.3385e-20)
(21.8813 9.57096 4.42812e-20)
(21.7311 9.9594 0)
(21.5705 10.3609 3.34934e-20)
(21.3992 10.7767 -3.99107e-20)
(21.2167 11.2072 -4.70327e-20)
(21.0209 11.6508 5.68048e-20)
(20.8074 12.104 -5.74159e-20)
(20.569 12.5608 0)
(20.2967 13.0139 0)
(19.9793 13.4552 -9.08523e-21)
(19.6044 13.8771 1.10107e-20)
(19.1586 14.2739 -1.3534e-20)
(18.6288 14.642 -7.35867e-21)
(18.0025 14.9793 -1.35861e-20)
(17.2678 15.2855 7.79839e-20)
(16.4142 15.5611 8.25779e-20)
(15.4329 15.8086 -1.71073e-19)
(14.3158 16.028 3.5031e-19)
(13.0522 16.2073 -3.90079e-19)
(11.6349 16.3266 0)
(10.0885 16.4194 -4.44553e-19)
(8.47096 16.5809 4.81526e-19)
(6.78317 16.6238 -9.75956e-19)
(21.6708 9.05832 0)
(21.5103 9.38106 -7.13582e-20)
(21.3392 9.70225 -8.02591e-20)
(21.1542 10.0269 4.89241e-20)
(20.9528 10.3548 1.65019e-19)
(20.7332 10.687 -3.46704e-20)
(20.4937 11.0237 -1.75745e-19)
(20.2328 11.3657 2.15006e-19)
(19.9484 11.7125 -2.22167e-19)
(19.6382 12.063 2.70259e-19)
(19.3 12.4146 8.9256e-21)
(18.9306 12.7636 -1.0801e-20)
(18.5275 13.1047 -2.30847e-20)
(18.0879 13.4308 5.71027e-19)
(17.6098 13.7331 -5.10441e-19)
(17.0917 14.0018 0)
(16.5337 14.2255 4.62718e-20)
(15.9371 14.3915 -1.6084e-20)
(15.3047 14.4865 2.3891e-20)
(14.6418 14.4957 4.63135e-20)
(13.9581 14.4031 0)
(13.2698 14.1951 0)
(12.588 13.8611 0)
(11.91 13.3955 0)
(21.3693 8.90671 0)
(21.2018 9.18132 8.06358e-20)
(21.0235 9.45067 0)
(20.8332 9.71971 -5.93334e-20)
(20.629 9.98715 0)
(20.4096 10.2524 3.55255e-19)
(20.1732 10.5144 -5.54883e-21)
(19.9179 10.7723 -8.53613e-19)
(19.6418 11.0247 -1.54352e-19)
(19.3428 11.2699 1.02701e-18)
(19.019 11.5059 5.19426e-20)
(18.6684 11.7303 -1.20765e-18)
(18.2894 11.9398 6.97085e-19)
(17.8809 12.1309 0)
(17.4424 12.299 -4.60677e-20)
(16.9746 12.4393 5.03366e-19)
(16.4793 12.5462 -6.42874e-19)
(15.9598 12.6141 1.16062e-19)
(15.4212 12.6368 7.84475e-19)
(14.8708 12.6088 -1.46355e-18)
(14.3184 12.5254 -1.9617e-20)
(13.7766 12.3833 -7.6841e-20)
(13.2598 12.1809 9.20089e-19)
(12.7844 11.9181 -5.38202e-19)
(21.1173 8.7502 -9.70768e-20)
(20.9521 8.98149 2.40061e-20)
(20.7755 9.20566 2.07122e-19)
(20.5881 9.42835 -4.58041e-20)
(20.3888 9.64796 -2.21608e-19)
(20.177 9.86394 1.21389e-19)
(19.9516 10.0754 -2.7375e-19)
(19.7115 10.2813 5.69737e-19)
(19.4558 10.4804 7.82999e-21)
(19.1834 10.6712 -2.31211e-19)
(18.8936 10.8517 0)
(18.5855 11.0198 -5.12549e-19)
(18.2585 11.1726 4.1884e-19)
(17.9124 11.3071 6.28463e-20)
(17.5474 11.4197 6.86195e-20)
(17.1645 11.5066 0)
(16.7653 11.5636 7.33935e-20)
(16.3527 11.5867 -9.04349e-19)
(15.9305 11.5719 6.52071e-19)
(15.5039 11.5156 8.27673e-19)
(15.0793 11.4157 1.34889e-20)
(14.6642 11.2709 -1.98225e-18)
(14.267 11.0824 1.57597e-18)
(13.8962 10.8535 -5.49491e-19)
(20.9138 8.59781 -1.33022e-20)
(20.7514 8.78868 6.88796e-21)
(20.5802 8.97541 -2.55424e-19)
(20.4001 9.16026 3.15448e-19)
(20.2103 9.34157 -3.6229e-19)
(20.0099 9.51859 2.98418e-19)
(19.7982 9.69041 0)
(19.574 9.85609 3.47819e-19)
(19.3365 10.0146 -3.60276e-19)
(19.085 10.1647 -9.04158e-20)
(18.8187 10.3047 5.40331e-19)
(18.5372 10.4329 -3.81603e-19)
(18.2402 10.5471 0)
(17.9279 10.6451 -6.09984e-19)
(17.6008 10.724 4.10712e-19)
(17.2599 10.7809 0)
(16.9069 10.813 0)
(16.5446 10.8171 9.46397e-19)
(16.1762 10.7906 -7.72195e-19)
(15.8062 10.7312 1.09243e-19)
(15.4396 10.6374 4.79926e-19)
(15.0824 10.5089 -4.84173e-19)
(14.7406 10.3467 -1.33124e-19)
(14.4202 10.1535 -5.77947e-19)
(20.7427 8.43954 1.29374e-19)
(20.5872 8.60404 -1.40427e-19)
(20.4251 8.7628 3.64263e-19)
(20.255 8.91822 -2.2739e-19)
(20.0765 9.06991 7.50924e-20)
(19.8891 9.21743 -1.67556e-19)
(19.6921 9.36001 3.66347e-19)
(19.4848 9.49675 -2.68751e-19)
(19.2665 9.62676 9.5605e-20)
(19.0364 9.74896 0)
(18.794 9.86193 -2.27966e-19)
(18.5391 9.96401 -5.07635e-19)
(18.2715 10.0535 5.80993e-19)
(17.9912 10.1284 0)
(17.6989 10.1864 -5.60868e-19)
(17.3954 10.225 6.45094e-19)
(17.0822 10.242 -6.50973e-19)
(16.7612 10.2349 6.58087e-19)
(16.4355 10.2017 -5.36773e-19)
(16.1084 10.1407 3.26338e-19)
(15.7842 10.0508 0)
(15.4672 9.93172 0)
(15.1622 9.78461 1.36655e-19)
(14.8739 9.61151 0)
(20.5974 8.30085 1.48516e-19)
(20.4527 8.43701 8.03154e-20)
(20.3011 8.57138 -7.65739e-20)
(20.1419 8.70265 8.02293e-20)
(19.975 8.83074 1.80246e-19)
(19.7997 8.95528 -1.86949e-19)
(19.6163 9.07552 1.00178e-19)
(19.4237 9.19049 -9.87358e-20)
(19.2213 9.2994 -4.44912e-19)
(19.0085 9.40134 3.29729e-19)
(18.7847 9.49514 -2.5881e-19)
(18.5499 9.57922 5.08177e-19)
(18.3038 9.65189 5.06598e-19)
(18.0466 9.71175 -5.82823e-19)
(17.779 9.75687 -8.15691e-20)
(17.5019 9.78476 -8.74755e-20)
(17.2161 9.79317 -9.20391e-20)
(16.9231 9.78042 0)
(16.626 9.74485 1.06796e-19)
(16.3278 9.68491 0)
(16.0316 9.59957 -1.23027e-19)
(15.7414 9.48864 -5.35951e-19)
(15.4607 9.35312 4.03227e-19)
(15.194 9.1947 -1.45624e-19)
(20.4799 8.17217 1.48235e-21)
(20.3437 8.28537 -8.08923e-20)
(20.2015 8.39987 0)
(20.0526 8.51185 -1.85934e-19)
(19.8969 8.62128 1.85447e-19)
(19.7328 8.72786 3.99668e-19)
(19.5615 8.83091 -3.03112e-19)
(19.3815 8.92939 -2.23042e-19)
(19.1927 9.02256 3.40916e-19)
(18.9943 9.10953 -4.81186e-21)
(18.786 9.18939 -1.25966e-19)
(18.5678 9.26067 1.38536e-19)
(18.3395 9.32125 0)
(18.1002 9.37034 3.98428e-19)
(17.8519 9.40672 1.55469e-20)
(17.5959 9.42769 -2.59291e-19)
(17.3325 9.43055 0)
(17.0613 9.41419 4.19466e-19)
(16.7859 9.37768 -5.35797e-19)
(16.5092 9.31924 0)
(16.2341 9.23784 1.24127e-19)
(15.9637 9.13284 0)
(15.7005 9.00585 6.91515e-22)
(15.4494 8.85852 1.47074e-19)
(20.3816 8.05338 0)
(20.2549 8.14709 -1.84286e-19)
(20.1222 8.24562 2.81478e-19)
(19.9825 8.34261 -2.86998e-19)
(19.8382 8.43767 -2.04209e-19)
(19.6839 8.52981 1.02164e-19)
(19.5233 8.61898 -1.09677e-19)
(19.3542 8.70418 -3.46402e-19)
(19.1769 8.78503 3.59991e-19)
(18.9903 8.86063 3.72179e-21)
(18.7942 8.93033 2.71881e-19)
(18.589 8.99301 -4.13765e-19)
(18.3771 9.04433 -1.48535e-19)
(18.1506 9.08538 2.47373e-19)
(17.915 9.11636 -2.46928e-19)
(17.6747 9.13379 -4.60429e-19)
(17.4316 9.13298 3.76693e-19)
(17.1771 9.11393 5.24352e-19)
(16.9176 9.07706 -7.68493e-19)
(16.6575 9.02007 4.56183e-19)
(16.3986 8.9421 1.23027e-19)
(16.1441 8.8411 2.68117e-19)
(15.8928 8.72071 1.27592e-20)
(15.653 8.58322 -2.84736e-19)
(20.2956 7.94319 0)
(20.1847 8.02298 9.58734e-20)
(20.0677 8.10655 0)
(19.9369 8.19071 9.89724e-20)
(19.8021 8.27595 0)
(19.6547 8.35649 2.22352e-19)
(19.5068 8.43427 -1.11275e-19)
(19.3513 8.50719 1.17529e-19)
(19.1879 8.57633 0)
(19.0149 8.64123 -3.89768e-19)
(18.8329 8.70166 5.31792e-19)
(18.6383 8.76081 1.23501e-20)
(18.445 8.80354 -4.43139e-19)
(18.2315 8.83316 3.16734e-19)
(18.0045 8.86028 0)
(17.7706 8.88036 4.60608e-19)
(17.5428 8.87903 -1.75312e-19)
(17.2974 8.85674 -3.04604e-19)
(17.0484 8.82038 0)
(16.8011 8.7643 0)
(16.5545 8.69002 1.26369e-19)
(16.3151 8.58873 -2.50792e-19)
(16.0693 8.47381 4.13229e-19)
(15.836 8.34644 -2.76317e-19)
(5.0683 15.7702 1.00221e-18)
(4.89485 14.359 4.31945e-20)
(5.05538 13.1143 0)
(5.33616 12.0267 -8.98239e-20)
(5.67304 11.0584 0)
(6.05232 10.1886 -8.96715e-20)
(6.46345 9.40321 -1.76812e-19)
(6.89554 8.69195 -3.14892e-19)
(7.33873 8.04686 0)
(7.78501 7.4617 -1.01724e-18)
(8.22721 6.93071 8.02043e-19)
(8.65973 6.44845 -1.40494e-18)
(9.0786 6.01041 8.09965e-19)
(9.48132 5.61248 2.72497e-19)
(9.86662 5.2505 1.08738e-18)
(10.2344 4.92037 -1.07604e-18)
(10.5856 4.61816 0)
(10.9215 4.33987 0)
(11.244 4.08182 -1.51132e-18)
(11.5547 3.84058 -4.49275e-19)
(11.8554 3.61354 4.59997e-19)
(12.1477 3.39973 -4.43623e-19)
(12.4327 3.19474 0)
(12.7093 2.97153 0)
(11.2471 12.8163 4.26073e-20)
(10.7246 12.1516 -8.8175e-20)
(10.3491 11.4678 9.57785e-20)
(10.0971 10.7945 4.59383e-19)
(9.94285 10.1449 -4.66026e-19)
(9.86646 9.52571 0)
(9.85329 8.94131 0)
(9.89196 8.39395 1.25563e-19)
(9.97291 7.8843 -5.13983e-19)
(10.088 7.41161 2.56799e-19)
(10.2304 6.97421 -1.02471e-18)
(10.3943 6.56968 2.29645e-18)
(10.575 6.19505 -1.01483e-18)
(10.7688 5.84716 -4.94758e-19)
(10.9723 5.52271 4.78939e-19)
(11.183 5.21863 4.75144e-19)
(11.3988 4.93213 0)
(11.618 4.66091 9.37287e-19)
(11.8391 4.40314 4.77925e-19)
(12.061 4.15736 1.81513e-18)
(12.2828 3.92288 0)
(12.5039 3.70019 0)
(12.7238 3.48776 1.60678e-18)
(12.9396 3.26518 -7.54099e-19)
(12.3629 11.5956 1.045e-18)
(12.003 11.2146 4.6129e-20)
(11.7062 10.7882 -8.15412e-19)
(11.4722 10.3343 0)
(11.2979 9.86669 0)
(11.1786 9.39611 0)
(11.1088 8.93034 0)
(11.0831 8.47517 4.13013e-19)
(11.0955 8.03463 -6.34571e-19)
(11.1407 7.6114 2.14085e-19)
(11.2132 7.20707 2.13686e-19)
(11.3084 6.82242 4.39683e-19)
(11.4221 6.45744 -4.39036e-19)
(11.5504 6.11183 -6.55735e-19)
(11.6903 5.78477 -8.12088e-21)
(11.839 5.47538 -2.07166e-20)
(11.9944 5.18254 -4.32834e-19)
(12.1549 4.90517 -1.0537e-20)
(12.3192 4.64206 -1.07567e-18)
(12.4865 4.392 -6.53318e-19)
(12.656 4.15397 1.03111e-18)
(12.8272 3.92742 -2.03561e-19)
(12.9994 3.70932 7.61283e-19)
(13.1695 3.48485 -7.22732e-19)
(13.5562 10.5878 0)
(13.2482 10.2869 1.57219e-19)
(12.9759 9.95558 8.40816e-20)
(12.7429 9.60236 -1.73383e-19)
(12.5504 9.23505 0)
(12.3975 8.86075 0)
(12.2823 8.48523 1.90956e-19)
(12.202 8.11314 -7.30848e-21)
(12.1536 7.74819 0)
(12.1336 7.39304 7.88274e-21)
(12.1387 7.04949 -2.09799e-19)
(12.1657 6.71871 0)
(12.2118 6.4012 0)
(12.2741 6.09706 0)
(12.3504 5.80604 6.79427e-21)
(12.4385 5.52767 -7.1076e-21)
(12.5367 5.26136 1.35936e-20)
(12.6433 5.00647 -2.06397e-19)
(12.7571 4.76226 6.21516e-19)
(12.8771 4.52804 -1.26498e-20)
(13.0023 4.30314 -7.96015e-19)
(13.1321 4.08741 -7.71852e-19)
(13.2661 3.87886 -7.66027e-19)
(13.4046 3.66353 -7.25766e-19)
(14.1242 9.93183 1.19223e-18)
(13.8528 9.68237 -5.39199e-19)
(13.6088 9.40787 -5.00477e-19)
(13.3951 9.11397 1.68901e-19)
(13.2132 8.80618 3.5161e-19)
(13.0632 8.48972 -1.34717e-19)
(12.944 8.16933 -2.3856e-19)
(12.8539 7.84889 -1.95531e-19)
(12.7907 7.53167 3.8528e-19)
(12.7519 7.22018 6.11476e-21)
(12.7351 6.91627 2.01286e-19)
(12.7375 6.62125 -3.92427e-19)
(12.757 6.33593 -3.96917e-19)
(12.7913 6.06063 7.92151e-19)
(12.8384 5.79549 -7.92514e-19)
(12.8964 5.54038 7.86344e-19)
(12.9637 5.29511 1.13736e-20)
(13.039 5.05943 -3.89285e-19)
(13.1215 4.83284 0)
(13.2101 4.61485 -6.07307e-21)
(13.3041 4.40504 6.01425e-21)
(13.4029 4.20364 3.89666e-19)
(13.5057 4.01023 7.3099e-19)
(13.6103 3.81307 7.06793e-19)
(14.6048 9.41435 0)
(14.3557 9.19425 -4.85793e-19)
(14.129 8.95357 4.94374e-19)
(13.9273 8.6965 1.73949e-19)
(13.7522 8.42718 -3.54783e-19)
(13.6038 8.14961 3.63176e-19)
(13.4816 7.86767 0)
(13.3842 7.58463 0)
(13.31 7.3033 -1.91724e-19)
(13.2572 7.02597 -1.87975e-19)
(13.2236 6.75434 1.93811e-19)
(13.2074 6.48965 0)
(13.2067 6.23275 1.89297e-19)
(13.2197 5.98395 0)
(13.2446 5.7434 -3.78265e-19)
(13.2796 5.51119 -3.8715e-19)
(13.3234 5.28734 9.0329e-21)
(13.375 5.0717 3.84734e-19)
(13.4336 4.86384 -9.46376e-20)
(13.4984 4.66322 -2.78277e-19)
(13.5685 4.46949 3.69004e-19)
(13.6433 4.28271 7.35043e-19)
(13.7219 4.10168 -7.2729e-19)
(13.802 3.91909 -1.01625e-18)
(14.9436 9.01461 1.5262e-19)
(14.7103 8.81448 -1.59089e-19)
(14.4969 8.59691 0)
(14.306 8.36502 1.73881e-19)
(14.1386 8.12213 8.96746e-20)
(13.9949 7.87155 -9.28491e-20)
(13.8745 7.6166 0)
(13.776 7.36019 9.28847e-20)
(13.698 7.10487 1.85203e-19)
(13.639 6.85265 -2.75984e-19)
(13.5971 6.60522 7.2084e-22)
(13.571 6.36381 1.84986e-19)
(13.5591 6.12918 -4.11997e-21)
(13.5599 5.90149 -3.69183e-19)
(13.5713 5.68082 3.76359e-19)
(13.5917 5.46763 5.53621e-19)
(13.6199 5.26218 5.56103e-19)
(13.6555 5.06419 0)
(13.6977 4.87318 -9.19232e-20)
(13.7459 4.68844 8.28416e-19)
(13.7986 4.50989 -3.71662e-19)
(13.8555 4.33792 -8.96903e-19)
(13.9169 4.17164 5.27169e-19)
(13.9819 4.00792 3.45542e-19)
(15.2135 8.6905 -1.54097e-19)
(14.9919 8.50429 6.43818e-19)
(14.7883 8.30342 -4.8902e-19)
(14.6058 8.09001 -1.72246e-19)
(14.4448 7.86637 1.6886e-19)
(14.3058 7.63555 4.47337e-20)
(14.1877 7.40068 1.33609e-19)
(14.0896 7.1643 0)
(14.0097 6.92877 -1.83927e-19)
(13.9469 6.69591 -1.80688e-19)
(13.8996 6.46738 1.82644e-19)
(13.8667 6.24461 1.80999e-19)
(13.8473 6.02818 -3.66062e-19)
(13.8401 5.81772 1.89209e-19)
(13.8421 5.61334 -1.81029e-19)
(13.8517 5.41642 -3.6541e-19)
(13.8686 5.22721 -3.64152e-19)
(13.8928 5.04486 -3.56749e-19)
(13.9235 4.86883 0)
(13.9596 4.69807 -3.56831e-19)
(13.9988 4.5332 -4.4327e-19)
(14.0415 4.37509 6.15002e-19)
(14.0896 4.22273 -1.7589e-19)
(14.1415 4.07102 1.62417e-21)
(15.4302 8.42438 -1.50519e-19)
(15.2161 8.24938 -1.85129e-21)
(15.0187 8.06058 1.63561e-19)
(14.8437 7.86172 -8.141e-20)
(14.6892 7.65185 -1.69678e-19)
(14.5549 7.43525 -2.80165e-19)
(14.4391 7.21613 1.93528e-20)
(14.3421 6.99496 -1.76205e-19)
(14.2615 6.775 2.66958e-19)
(14.1967 6.55701 1.81457e-19)
(14.1457 6.34344 -8.89344e-20)
(14.1082 6.13578 5.34487e-19)
(14.0842 5.93419 -1.77607e-19)
(14.0721 5.73764 1.83976e-19)
(14.0672 5.54606 1.03126e-21)
(14.0688 5.36384 -3.53624e-19)
(14.0781 5.18908 1.75905e-19)
(14.0946 5.02012 6.14932e-19)
(14.1172 4.85688 1.31258e-19)
(14.1447 4.69746 -4.35748e-20)
(14.173 4.54493 4.53077e-21)
(14.2039 4.39931 -1.7471e-19)
(14.2428 4.25962 -2.36433e-21)
(14.2844 4.11612 1.73254e-19)
(15.6263 8.19065 -1.67758e-21)
(15.4092 8.03192 -3.68977e-21)
(15.209 7.85489 0)
(15.04 7.67111 8.38836e-20)
(14.891 7.46997 8.36082e-20)
(14.7589 7.26174 1.72647e-19)
(14.6436 7.05777 -1.75896e-19)
(14.5487 6.84714 1.3259e-19)
(14.4681 6.64111 -1.32807e-19)
(14.4034 6.4339 0)
(14.3497 6.2334 0)
(14.3089 6.03747 -3.58719e-19)
(14.2823 5.84721 -1.76512e-19)
(14.2684 5.66204 5.12817e-19)
(14.2572 5.48094 0)
(14.2518 5.31519 4.42865e-19)
(14.2558 5.15246 -8.8833e-20)
(14.2663 4.99346 -7.0244e-19)
(14.2823 4.84026 0)
(14.3032 4.68831 0)
(14.3236 4.54926 3.7608e-19)
(14.3468 4.41489 -4.22864e-20)
(14.3803 4.28673 -3.45284e-19)
(14.4144 4.14297 -3.30571e-19)
(-3.90186 -2.51995 0)
(-3.88759 -2.52576 1.1503e-19)
(-3.80973 -2.53189 -6.46689e-20)
(-3.67572 -2.53738 -2.03827e-19)
(-3.49289 -2.54164 -1.44341e-19)
(-3.26841 -2.54417 0)
(-3.00895 -2.54455 7.93485e-20)
(-2.72048 -2.5424 0)
(-2.40832 -2.53732 8.57524e-20)
(-2.07698 -2.52893 1.0279e-19)
(-1.73006 -2.51679 -2.00612e-19)
(-1.37023 -2.50032 0)
(-0.999278 -2.47869 2.2233e-19)
(-0.61776 -2.45065 -1.82818e-19)
(-0.224649 -2.41407 2.78689e-20)
(0.18309 -2.3662 -9.70256e-20)
(0.612191 -2.30344 1.34713e-19)
(1.07627 -2.22137 1.08403e-19)
(1.60122 -2.11489 -4.18003e-20)
(2.23391 -1.97898 -3.21777e-19)
(3.05792 -1.81158 -9.1947e-22)
(4.24033 -1.61456 3.78353e-19)
(6.13399 -1.41113 -7.15051e-19)
(9.54143 -1.4385 8.36713e-19)
(-3.9085 -2.51589 1.96955e-19)
(-3.8841 -2.5149 -1.14535e-19)
(-3.80537 -2.51093 0)
(-3.67813 -2.50485 2.5825e-19)
(-3.5077 -2.49656 1.04444e-19)
(-3.29901 -2.48585 -3.657e-20)
(-3.05632 -2.47247 -7.48011e-20)
(-2.78321 -2.45605 7.70725e-20)
(-2.48251 -2.43597 7.99086e-20)
(-2.1562 -2.4114 -8.29117e-20)
(-1.80524 -2.3812 -2.16113e-19)
(-1.4292 -2.34389 4.02766e-19)
(-1.02609 -2.29764 -1.859e-19)
(-0.591734 -2.24024 4.76477e-20)
(-0.119077 -2.16915 0)
(0.401424 -2.08144 7.49957e-20)
(0.9849 -1.97413 -1.36346e-20)
(1.65604 -1.84445 -1.49689e-20)
(2.45373 -1.69142 -2.72321e-20)
(3.43833 -1.51874 9.79186e-20)
(4.70455 -1.34041 -1.07129e-19)
(6.39654 -1.19377 0)
(8.72037 -1.15891 1.28855e-20)
(11.9019 -1.38632 0)
(-3.89219 -2.48336 0)
(-3.85454 -2.47204 -4.92895e-20)
(-3.76755 -2.45697 2.58154e-20)
(-3.63585 -2.43881 -9.25898e-20)
(-3.46352 -2.41721 0)
(-3.25406 -2.39176 6.45031e-20)
(-3.01023 -2.36201 6.94262e-20)
(-2.734 -2.32735 0)
(-2.42646 -2.28703 -7.39115e-20)
(-2.08776 -2.23997 -2.19378e-21)
(-1.71694 -2.185 1.93848e-19)
(-1.31162 -2.12071 -1.19518e-19)
(-0.867626 -2.04559 8.16624e-20)
(-0.378695 -1.9581 4.049e-20)
(0.164636 -1.8567 -1.67754e-19)
(0.776269 -1.73995 4.26053e-20)
(1.47584 -1.6072 4.04821e-20)
(2.29109 -1.45927 -2.18903e-20)
(3.26194 -1.30022 -1.94528e-20)
(4.44274 -1.14106 1.84649e-20)
(5.90724 -1.00458 -1.68059e-20)
(7.74777 -0.933573 -1.38915e-20)
(10.0601 -1.00031 0)
(12.8836 -1.30602 -2.52182e-21)
(-3.85593 -2.43294 9.26761e-20)
(-3.80491 -2.40528 3.76219e-21)
(-3.70974 -2.37787 -2.36175e-19)
(-3.57337 -2.34653 -2.6489e-20)
(-3.39878 -2.31064 -2.92941e-20)
(-3.18819 -2.26993 -1.44671e-21)
(-2.94303 -2.22408 3.18443e-20)
(-2.6639 -2.17269 8.48846e-22)
(-2.35044 -2.11516 -6.73853e-20)
(-2.00133 -2.05058 -6.71131e-20)
(-1.61422 -1.9779 0)
(-1.18536 -1.89605 0)
(-0.709126 -1.80393 0)
(-0.177596 -1.70071 0)
(0.420068 -1.58579 0)
(1.09906 -1.45904 3.58304e-20)
(1.87977 -1.32168 -6.68152e-20)
(2.7893 -1.17717 4.19924e-20)
(3.8637 -1.03298 3.30249e-20)
(5.14943 -0.903217 -1.75407e-20)
(6.70294 -0.812657 1.58793e-20)
(8.58699 -0.800592 1.29841e-20)
(10.8547 -0.924454 0)
(13.5127 -1.2527 1.27523e-21)
(-3.80256 -2.3625 -8.12903e-20)
(-3.7384 -2.32553 8.86587e-20)
(-3.6344 -2.28822 5.25319e-20)
(-3.49231 -2.24623 5.1391e-20)
(-3.31399 -2.19917 8.17011e-22)
(-3.10074 -2.14686 0)
(-2.85311 -2.08912 5.45417e-20)
(-2.57071 -2.02582 0)
(-2.25196 -1.95661 -1.48622e-21)
(-1.89413 -1.88067 6.25845e-20)
(-1.49384 -1.79687 -6.19079e-20)
(-1.04664 -1.70426 0)
(-0.546329 -1.60224 0)
(0.0158209 -1.49057 3.22859e-20)
(0.651356 -1.36951 -3.33671e-20)
(1.37571 -1.24018 0)
(2.20899 -1.10514 3.91185e-21)
(3.17717 -0.969489 -6.76635e-20)
(4.31346 -0.842117 -3.20773e-20)
(5.65761 -0.738271 0)
(7.25607 -0.681781 0)
(9.15622 -0.707921 -2.81626e-20)
(11.3943 -0.863678 3.05287e-20)
(13.9689 -1.20109 -1.92051e-21)
(-3.73603 -2.28104 3.71452e-20)
(-3.66055 -2.2392 -4.53372e-20)
(-3.54875 -2.19496 4.58566e-20)
(-3.40165 -2.14537 4.43133e-20)
(-3.22022 -2.09044 7.4554e-22)
(-3.00498 -2.03004 0)
(-2.75588 -1.964 -5.27453e-20)
(-2.47183 -1.89241 5.2734e-20)
(-2.15037 -1.81551 3.66635e-22)
(-1.78717 -1.73283 -5.29816e-20)
(-1.3777 -1.64285 -5.63896e-20)
(-0.917058 -1.54432 0)
(-0.399089 -1.43693 2.84011e-20)
(0.185102 -1.32101 0)
(0.847463 -1.1975 2.92385e-20)
(1.6033 -1.06831 -1.60377e-20)
(2.47216 -0.937067 1.2843e-20)
(3.4791 -0.81004 5.67963e-20)
(4.65493 -0.696786 -1.29342e-20)
(6.03614 -0.612338 9.45419e-21)
(7.66239 -0.579177 3.40349e-20)
(9.57287 -0.629331 -2.34242e-20)
(11.7952 -0.804095 5.24506e-21)
(14.3211 -1.14709 -1.42082e-21)
(-3.66179 -2.19996 3.73777e-20)
(-3.5766 -2.15264 -7.63641e-20)
(-3.4581 -2.10372 0)
(-3.30697 -2.04905 -2.75501e-21)
(-3.12333 -1.98908 -1.11374e-20)
(-2.90671 -1.92355 5.5138e-20)
(-2.65668 -1.85202 2.1625e-20)
(-2.37216 -1.77454 2.38242e-20)
(-2.05062 -1.69235 0)
(-1.68524 -1.60606 5.20157e-20)
(-1.26974 -1.51358 0)
(-0.798892 -1.41253 0)
(-0.267255 -1.30238 -5.39874e-20)
(0.333653 -1.18429 2.67283e-20)
(1.01581 -1.05985 -4.10362e-20)
(1.79461 -0.931337 1.38716e-20)
(2.68835 -0.803164 -2.36882e-21)
(3.7222 -0.682945 -2.67068e-20)
(4.92542 -0.58072 2.50346e-20)
(6.33246 -0.511087 -2.2422e-20)
(7.97956 -0.49448 1.37882e-20)
(9.89972 -0.560653 -3.78499e-20)
(12.1134 -0.74806 -2.94835e-21)
(14.6087 -1.09554 -3.5521e-21)
(-3.58224 -2.12347 -3.33589e-20)
(-3.48935 -2.06991 3.71177e-20)
(-3.36569 -2.01777 -9.52226e-21)
(-3.21193 -1.95965 7.38794e-21)
(-3.02744 -1.89656 3.8598e-20)
(-2.81025 -1.82822 -4.28865e-20)
(-2.55951 -1.75356 -4.41221e-20)
(-2.27454 -1.67169 -2.05605e-20)
(-1.95583 -1.58495 -2.23931e-20)
(-1.59259 -1.49658 0)
(-1.17481 -1.4046 0)
(-0.695946 -1.30397 4.64517e-20)
(-0.153473 -1.19293 5.0042e-20)
(0.460194 -1.07369 -8.04808e-22)
(1.15659 -0.948965 -2.53891e-20)
(1.95315 -0.820805 5.94159e-21)
(2.8637 -0.693856 -3.12604e-20)
(3.91468 -0.578261 0)
(5.13483 -0.484185 0)
(6.55951 -0.426468 0)
(8.22272 -0.421883 -1.25013e-20)
(10.1498 -0.496819 6.4616e-21)
(12.3558 -0.690645 1.40628e-20)
(14.8294 -1.04182 0)
(-3.5001 -2.04411 -1.35861e-20)
(-3.40138 -1.99149 1.64773e-20)
(-3.27311 -1.938 0)
(-3.11731 -1.87788 -1.42461e-21)
(-2.93258 -1.81286 -3.80953e-20)
(-2.71527 -1.74357 2.84331e-20)
(-2.46311 -1.66832 -1.00562e-20)
(-2.17371 -1.58394 4.15937e-20)
(-1.85893 -1.49302 -2.16622e-20)
(-1.50013 -1.40166 0)
(-1.08281 -1.31289 2.12275e-20)
(-0.595022 -1.21621 -6.76374e-20)
(-0.0400344 -1.10606 4.70142e-20)
(0.588073 -0.986759 0)
(1.29942 -0.862753 0)
(2.11676 -0.736322 0)
(3.04356 -0.608735 0)
(4.11178 -0.497172 0)
(5.34621 -0.409568 7.70934e-21)
(6.78789 -0.364682 -8.20163e-21)
(8.47489 -0.371523 -2.17172e-21)
(10.4198 -0.450572 -5.28109e-21)
(12.6199 -0.647737 -1.4711e-21)
(15.0691 -1.00691 -2.95161e-20)
(-3.42241 -1.97234 1.50456e-20)
(-3.32108 -1.91884 -1.4304e-20)
(-3.19327 -1.86304 -4.30098e-21)
(-3.04236 -1.80113 -6.28266e-20)
(-2.86331 -1.7325 4.57233e-21)
(-2.65101 -1.66202 -4.27753e-20)
(-2.40723 -1.58708 -3.54761e-20)
(-2.12039 -1.49783 0)
(-1.81652 -1.40815 4.15854e-20)
(-1.47228 -1.3053 1.25171e-20)
(-1.06262 -1.21937 8.63548e-21)
(-0.570541 -1.12959 -6.33887e-20)
(-0.0166026 -1.02056 -4.72018e-20)
(0.604812 -0.901062 -3.89492e-20)
(1.30574 -0.770845 3.68794e-20)
(2.13503 -0.644708 -3.31218e-20)
(3.0539 -0.510315 -4.3689e-20)
(4.10698 -0.398577 0)
(5.33625 -0.306529 0)
(6.77741 -0.273735 0)
(8.47532 -0.293925 1.51208e-21)
(10.4091 -0.35877 6.38516e-22)
(12.5868 -0.523979 -2.04589e-20)
(15.0502 -0.88661 3.7971e-20)
(15.8455 -2.61334 -4.50973e-21)
(19.4925 -3.77592 7.02142e-21)
(20.8594 -4.2061 -3.86908e-19)
(21.533 -4.36444 3.5966e-19)
(21.992 -4.45295 -1.49585e-20)
(22.316 -4.50368 0)
(22.5441 -4.52691 0)
(22.6985 -4.52925 -5.55108e-20)
(22.7939 -4.51506 0)
(22.8415 -4.48769 8.89672e-19)
(22.8518 -4.45006 -9.16417e-19)
(22.8337 -4.4046 5.68007e-20)
(22.7946 -4.35329 -8.98028e-19)
(22.7397 -4.29765 1.88056e-18)
(22.6729 -4.23875 -9.24387e-19)
(22.5971 -4.17727 7.54308e-19)
(22.5144 -4.1138 -1.85848e-18)
(22.4263 -4.04866 -3.14731e-19)
(22.3341 -3.98211 2.06207e-18)
(22.2385 -3.91433 -1.0244e-18)
(22.1403 -3.84554 1.09978e-18)
(22.0401 -3.77537 -1.06655e-18)
(21.9384 -3.70298 0)
(21.8335 -3.64151 -7.35488e-22)
(15.7603 -2.145 6.97181e-20)
(19.4835 -3.27413 -6.50972e-20)
(21.3682 -3.88792 2.44426e-19)
(22.052 -4.06246 -2.4484e-19)
(22.4435 -4.14633 -6.82279e-19)
(22.7006 -4.19747 6.13932e-19)
(22.8637 -4.22508 -7.60095e-19)
(22.9569 -4.2343 -3.04578e-20)
(22.9976 -4.2289 7.6551e-19)
(22.9993 -4.21198 -8.39862e-19)
(22.9731 -4.18616 -8.44671e-20)
(22.9273 -4.15349 8.08424e-19)
(22.8676 -4.11558 5.90306e-20)
(22.7979 -4.07361 6.01552e-20)
(22.7212 -4.0284 0)
(22.6393 -3.98056 1.14558e-18)
(22.5535 -3.93057 -1.10961e-18)
(22.4648 -3.87872 2.58974e-19)
(22.3738 -3.82525 1.31857e-19)
(22.2809 -3.77035 -2.68763e-19)
(22.1865 -3.71427 -2.73878e-19)
(22.0909 -3.65657 0)
(21.9944 -3.59748 0)
(21.8949 -3.54603 0)
(16.1134 -1.95369 1.26279e-19)
(19.4412 -2.91708 -1.44323e-19)
(21.6026 -3.63462 -3.41845e-19)
(22.3571 -3.85637 7.77624e-19)
(22.6906 -3.92966 -3.68524e-19)
(22.8922 -3.97125 -4.33263e-19)
(23.0077 -3.99318 -7.19742e-20)
(23.0614 -4.00051 8.71805e-19)
(23.0712 -3.99653 -4.23741e-19)
(23.0502 -3.98397 8.95379e-19)
(23.0083 -3.9648 -8.92159e-19)
(22.9519 -3.94047 -6.01191e-20)
(22.8855 -3.91204 -1.2061e-19)
(22.8122 -3.88021 9.54553e-19)
(22.734 -3.84555 -1.87795e-18)
(22.6524 -3.80848 9.91942e-19)
(22.5683 -3.76932 0)
(22.4825 -3.72828 -1.32595e-19)
(22.3952 -3.68556 -5.54516e-19)
(22.3068 -3.64135 8.16845e-19)
(22.2175 -3.59578 2.83252e-19)
(22.1275 -3.54845 0)
(22.0368 -3.49962 5.98293e-19)
(21.9432 -3.45579 -5.80675e-19)
(16.4946 -1.84245 -6.87611e-20)
(19.5353 -2.68403 -1.89749e-19)
(21.7568 -3.42068 2.39678e-19)
(22.5901 -3.69066 2.71246e-20)
(22.8746 -3.75813 4.44533e-19)
(23.0251 -3.79232 -4.6351e-19)
(23.0991 -3.80969 0)
(23.121 -3.81516 -5.55159e-20)
(23.1077 -3.81173 -4.26981e-19)
(23.0712 -3.80171 4.56135e-19)
(23.0192 -3.7866 0)
(22.9569 -3.76747 6.06187e-20)
(22.8876 -3.74505 6.17522e-20)
(22.8135 -3.71983 0)
(22.7362 -3.69223 5.29712e-19)
(22.6567 -3.66255 -5.09185e-19)
(22.5755 -3.63101 0)
(22.4932 -3.59779 5.55209e-19)
(22.41 -3.56304 -1.13743e-19)
(22.3261 -3.5269 -5.52533e-19)
(22.2416 -3.4895 0)
(22.1568 -3.45044 2.93355e-19)
(22.0714 -3.41021 6.13089e-19)
(21.9829 -3.37547 -2.86364e-19)
(16.8127 -1.76045 5.02154e-21)
(19.6764 -2.52791 -1.24834e-19)
(21.8658 -3.24532 1.80913e-19)
(22.7553 -3.54789 3.26008e-21)
(23.0034 -3.61291 0)
(23.1125 -3.64166 -3.01806e-21)
(23.1543 -3.65597 0)
(23.1525 -3.66053 0)
(23.1228 -3.6579 -5.619e-19)
(23.0753 -3.64992 4.73117e-19)
(23.0165 -3.63784 -5.16598e-19)
(22.9503 -3.62243 5.54913e-19)
(22.8794 -3.60426 0)
(22.8054 -3.58374 -5.36045e-19)
(22.7294 -3.56118 2.50396e-19)
(22.6521 -3.53683 1.35336e-19)
(22.574 -3.51089 0)
(22.4954 -3.48349 4.29283e-19)
(22.4164 -3.45477 -6.97537e-19)
(22.3371 -3.4249 -5.90886e-19)
(22.2576 -3.39396 5.79996e-19)
(22.1781 -3.36162 -4.54169e-19)
(22.0981 -3.32825 0)
(22.0155 -3.29916 0)
(17.0769 -1.68914 0)
(19.8211 -2.40963 0)
(21.9503 -3.09875 1.38757e-19)
(22.8649 -3.41949 -4.62268e-19)
(23.0851 -3.48552 2.11763e-19)
(23.1614 -3.51109 -3.29168e-21)
(23.1792 -3.52404 -5.65592e-19)
(23.1607 -3.52867 -1.04408e-19)
(23.1201 -3.52716 -3.8378e-20)
(23.0657 -3.52108 4.93218e-19)
(23.0029 -3.51144 0)
(22.9348 -3.49891 -6.06326e-19)
(22.8635 -3.48399 5.17795e-19)
(22.7903 -3.467 -5.53526e-19)
(22.7161 -3.44822 1.22938e-18)
(22.6414 -3.42788 -8.19361e-19)
(22.5664 -3.40617 1.41625e-19)
(22.4914 -3.38322 1.42898e-19)
(22.4165 -3.35917 -4.49401e-19)
(22.3417 -3.33423 1.19046e-18)
(22.267 -3.30848 -2.87389e-19)
(22.1925 -3.28165 -1.49442e-19)
(22.1178 -3.25414 -1.58262e-19)
(22.0407 -3.23123 4.84498e-19)
(17.305 -1.62682 0)
(19.9618 -2.31537 -1.34599e-19)
(22.0258 -2.97706 1.93999e-19)
(22.9392 -3.30527 0)
(23.1355 -3.37367 2.47593e-19)
(23.1859 -3.39793 -1.72788e-19)
(23.1858 -3.41081 3.23409e-19)
(23.1557 -3.41617 -1.83799e-19)
(23.1078 -3.41591 0)
(23.0491 -3.41147 0)
(22.9841 -3.40377 -6.22424e-19)
(22.9153 -3.39349 5.98152e-19)
(22.8445 -3.38104 -6.95969e-20)
(22.7726 -3.36667 7.11512e-19)
(22.7003 -3.35069 -5.51284e-19)
(22.6281 -3.3334 7.26284e-19)
(22.5561 -3.31489 -5.66894e-19)
(22.4845 -3.29528 0)
(22.4133 -3.27481 1.55161e-19)
(22.3424 -3.25376 -1.47225e-19)
(22.272 -3.23216 -1.56291e-19)
(22.202 -3.20976 0)
(22.132 -3.18678 1.63636e-19)
(22.0604 -3.16701 -1.67265e-19)
(17.4857 -1.56604 -1.94098e-20)
(20.0792 -2.2296 0)
(22.0852 -2.86702 1.93034e-19)
(22.9854 -3.1997 -1.48685e-19)
(23.1638 -3.27443 6.28107e-20)
(23.1951 -3.30003 6.49339e-20)
(23.1823 -3.31391 -6.64478e-20)
(23.1442 -3.3203 0)
(23.0916 -3.32119 -2.79312e-19)
(23.0302 -3.31792 5.48274e-19)
(22.9637 -3.31158 -2.01043e-19)
(22.8946 -3.30299 -6.94736e-20)
(22.8246 -3.29242 -7.29246e-20)
(22.7542 -3.27987 -4.35896e-19)
(22.6836 -3.26591 2.83939e-19)
(22.6137 -3.25095 2.99916e-19)
(22.5446 -3.23483 -2.90842e-19)
(22.4761 -3.21769 0)
(22.408 -3.19998 3.08212e-19)
(22.3406 -3.18211 5.05548e-21)
(22.2742 -3.1639 -3.15809e-19)
(22.2083 -3.14495 0)
(22.143 -3.12559 0)
(22.0766 -3.10905 1.74184e-19)
(17.692 -1.53204 5.12746e-20)
(20.2269 -2.17621 0)
(22.1523 -2.78403 0)
(23.0161 -3.11396 1.89492e-19)
(23.1757 -3.19221 -3.03424e-19)
(23.1939 -3.21777 2.71866e-21)
(23.1726 -3.2318 -2.3786e-21)
(23.1291 -3.23869 0)
(23.0737 -3.24011 0)
(23.0108 -3.23719 0)
(22.9434 -3.23165 0)
(22.8743 -3.22473 0)
(22.806 -3.21586 4.42332e-19)
(22.7372 -3.20428 -5.88444e-19)
(22.6675 -3.19177 5.95261e-19)
(22.6 -3.17901 -4.47013e-19)
(22.5337 -3.16474 -1.52102e-19)
(22.4673 -3.14916 1.55591e-19)
(22.4012 -3.13341 -3.15881e-19)
(22.3364 -3.11832 1.6079e-19)
(22.2739 -3.10296 3.28999e-19)
(22.2112 -3.08669 0)
(22.1498 -3.07038 -1.74932e-19)
(22.0876 -3.05874 1.7465e-19)
(17.6903 -1.41335 0)
(20.2276 -2.03601 7.14996e-20)
(22.1471 -2.65295 0)
(23.0024 -3.00943 0)
(23.1754 -3.11955 2.72185e-19)
(23.1882 -3.14793 -1.97074e-19)
(23.1605 -3.16154 6.8008e-20)
(23.1134 -3.16873 4.3091e-19)
(23.0573 -3.17049 -2.75022e-19)
(22.9929 -3.16708 1.45183e-19)
(22.9235 -3.16197 1.51587e-19)
(22.8529 -3.15679 -1.36568e-19)
(22.7872 -3.1494 4.459e-19)
(22.7201 -3.13734 -6.03154e-19)
(22.6487 -3.12552 6.08098e-19)
(22.5847 -3.11559 5.56325e-21)
(22.5203 -3.1019 0)
(22.4569 -3.0871 1.02467e-21)
(22.3931 -3.07308 1.64252e-19)
(22.3306 -3.06064 1.66839e-19)
(22.2745 -3.04792 -7.27393e-23)
(22.2135 -3.03304 0)
(22.1604 -3.02109 1.80646e-19)
(22.0979 -3.01356 -3.84455e-19)
(0.25528 1.96325 1.36653e-19)
(1.65183 2.23898 0)
(3.56696 3.02661 5.93303e-18)
(5.55957 4.06197 -8.37465e-18)
(7.50627 5.1076 3.34661e-18)
(9.3388 6.1788 3.25591e-20)
(11.0866 7.25045 0)
(12.7522 8.2856 0)
(14.3176 9.24487 -1.18507e-18)
(15.7593 10.0962 1.21644e-19)
(17.0552 10.8151 1.0769e-19)
(18.1878 11.3836 1.95962e-19)
(19.1471 11.791 6.38698e-19)
(19.9324 12.0345 0)
(20.5523 12.12 -1.32614e-19)
(21.0248 12.0619 -1.14246e-19)
(21.3747 11.8819 0)
(21.6306 11.6066 0)
(21.8204 11.2637 1.27707e-20)
(21.9684 10.8794 1.07948e-19)
(22.0925 10.4749 5.9698e-20)
(22.2037 10.0648 -1.03009e-19)
(22.3076 9.65787 5.00978e-20)
(22.4028 9.24568 -1.95183e-19)
(-10.5086 2.21405 -3.70054e-19)
(-9.50762 2.14288 -1.31068e-17)
(-8.0103 2.1199 3.60869e-19)
(-6.32099 2.29281 5.62051e-18)
(-4.36839 2.61462 -3.96658e-18)
(-2.04285 3.04175 -1.83879e-19)
(0.513315 3.59845 2.7612e-20)
(3.20887 4.28113 3.50444e-20)
(5.95614 5.0778 1.85299e-18)
(8.65217 5.96644 0)
(11.2143 6.90684 0)
(13.5749 7.84686 -1.28305e-19)
(15.6806 8.73075 -9.574e-19)
(17.4933 9.50716 6.62383e-20)
(18.9923 10.1341 1.14286e-20)
(20.176 10.5836 7.85122e-19)
(21.0637 10.8455 -1.5301e-19)
(21.6928 10.9269 0)
(22.1134 10.8505 7.73614e-20)
(22.3806 10.6494 3.13697e-19)
(22.5464 10.36 5.86552e-20)
(22.6524 10.0157 0)