/*--------------------------------*- C++ -*----------------------------------*\
| =========                 |                                                 |
| \\      /  F ield         | OpenFOAM: The Open Source CFD Toolbox           |
|  \\    /   O peration     | Version:  2.3.0                                 |
|   \\  /    A nd           | Web:      www.OpenFOAM.org                      |
|    \\/     M anipulation  |                                                 |
\*---------------------------------------------------------------------------*/
FoamFile
{
    version     2.0;
    format      ascii;
    class       surfaceScalarField;
    location    "5000";
    object      phi;
}
// * * * * * * * * * * * * * * * * * * * * * * * * * * * * * * * * * * * * * //

dimensions      [0 3 -1 0 0 0 0];

internalField   nonuniform List<scalar> 
76310
(
0.00175466
-0.00432262
0.00468928
-0.00212132
0.00142197
-0.00413272
0.00446541
0.00112297
-0.00395171
0.00425071
0.000855994
-0.00377826
0.00404524
0.00061977
-0.00361207
0.00384829
0.000413073
-0.00345286
0.00365956
0.000234085
-0.00330008
0.00347907
8.1749e-05
-0.00315371
0.00330605
-4.54765e-05
-0.00301318
0.00314041
-0.000148578
-0.00287881
0.00298191
-0.000229171
-0.00274937
0.00282996
-0.000288114
-0.00262554
0.00268449
-0.000326593
-0.00250662
0.00254509
-0.00034578
-0.0023925
0.00241168
-0.000346592
-0.0022829
0.00228371
-0.000330167
-0.00217764
0.00216122
-0.000297093
-0.00207667
0.00204359
-0.00024845
-0.00197939
0.00193074
-0.000184837
-0.001886
0.00182239
-0.000107471
-0.00179585
0.00171849
-1.6617e-05
-0.00170946
0.00161861
8.70218e-05
-0.0016259
0.00152226
0.000202636
-0.00154548
0.00142987
0.000330464
-0.00146809
0.00134026
0.000469174
-0.00139289
0.00125418
0.000618457
-0.00132011
0.00117082
0.000778821
-0.00125039
0.00109003
0.000949301
-0.00118197
0.00101149
0.00112949
-0.00111587
0.000935676
0.00132041
-0.0010518
0.000860885
0.00152184
-0.000989679
0.000788251
0.00173351
-0.000928653
0.000716978
0.00195698
-0.000869972
0.000646505
0.0021917
-0.000812201
0.000577484
0.00244013
-0.000756671
0.000508232
0.002705
-0.00070348
0.000438614
0.00298682
-0.0006514
0.000369585
0.00329043
-0.00060207
0.000298451
0.00362239
-0.000556092
0.000224137
0.00399212
-0.000514945
0.00014521
0.00441436
-0.000479635
5.73975e-05
0.00492645
-0.00045535
-5.67364e-05
-0.000451957
0.00565507
-0.000276665
0.00164297
-0.00398635
-0.00197924
0.00133983
-0.00382958
0.00106733
-0.0036792
0.000824022
-0.00353495
0.000608407
-0.00339645
0.000419012
-0.00326347
0.000254622
-0.00313569
0.000113962
-0.00301305
-3.92368e-06
-0.0028953
-0.000100326
-0.0027824
-0.000175936
-0.00267376
-0.000232213
-0.00256927
-0.000270127
-0.0024687
-0.000290378
-0.00237224
-0.000293727
-0.00227955
-0.000281236
-0.00219013
-0.000253951
-0.00210395
-0.000212027
-0.00202131
-0.000156641
-0.00194139
-8.82882e-05
-0.00186421
-7.59756e-06
-0.00179015
8.479e-05
-0.00171829
0.000188368
-0.00164906
0.000302596
-0.00158231
0.000427037
-0.00151733
0.000561873
-0.00145494
0.000705971
-0.00139449
0.000859932
-0.00133593
0.00102323
-0.00127917
0.00119633
-0.0012249
0.00137866
-0.00117202
0.00157158
-0.00112157
0.001775
-0.00107339
0.00198957
-0.00102677
0.0022164
-0.000983501
0.00245637
-0.000943454
0.00271099
-0.000906016
0.00298354
-0.000874622
0.00327464
-0.000847189
0.00358632
-0.000826632
0.00392055
-0.000813857
0.00427885
-0.000813658
-0.00082492
0.00465182
0.00152983
-0.00368247
-0.0018337
0.0012548
-0.00355455
0.00100704
-0.00343145
0.000785283
-0.00331319
0.000588164
-0.00319933
0.000414838
-0.00309014
0.000263955
-0.0029848
0.000134619
-0.00288372
2.57266e-05
-0.0027864
-6.36038e-05
-0.00269307
-0.000134596
-0.00260277
-0.000187673
-0.00251619
-0.000223793
-0.00243258
-0.000243895
-0.00235214
-0.000248781
-0.00227467
-0.000239221
-0.00219969
-0.000215505
-0.00212767
-0.000178711
-0.0020581
-0.00012928
-0.00199082
-6.75316e-05
-0.00192595
5.44162e-06
-0.00186312
8.96802e-05
-0.00180253
0.000184351
-0.00174373
0.000289012
-0.00168697
0.000403572
-0.00163189
0.000527654
-0.00157902
0.000661109
-0.00152795
0.000802923
-0.00147775
0.000954079
-0.00143032
0.00111337
-0.00138419
0.00128169
-0.00134034
0.00145858
-0.00129845
0.00164349
-0.0012583
0.00183792
-0.0012212
0.00204058
-0.00118616
0.00225266
-0.00115553
0.00247443
-0.00112779
0.00270487
-0.00110506
0.00294399
-0.00108631
0.00319167
-0.00107432
0.00344727
-0.00106945
0.00370561
-0.001072
-0.00108132
0.00396201
0.00141987
-0.00340647
-0.00169588
0.0011694
-0.00330409
0.000943408
-0.00320545
0.000740714
-0.0031105
0.000560116
-0.00301874
0.000400912
-0.00293094
0.000261946
-0.00284584
0.000142325
-0.0027641
4.13151e-05
-0.00268539
-4.2528e-05
-0.00260923
-0.000109299
-0.002536
-0.000160131
-0.00246536
-0.000195554
-0.00239716
-0.000216605
-0.00233109
-0.000223947
-0.00226732
-0.000217615
-0.00220602
-0.000199102
-0.00214618
-0.00016835
-0.00208885
-0.000126155
-0.00203301
-7.30496e-05
-0.00197906
-9.26627e-06
-0.00192691
6.47033e-05
-0.0018765
0.00014817
-0.0018272
0.000240991
-0.0017798
0.000342777
-0.00173368
0.000452892
-0.00168914
0.000571174
-0.00164623
0.000697973
-0.00160455
0.00083261
-0.00156496
0.000974737
-0.00152632
0.00112428
-0.00148988
0.00128119
-0.00145537
0.00144569
-0.00142279
0.0016175
-0.00139301
0.00179664
-0.0013653
0.00198259
-0.00134149
0.00217652
-0.00132172
0.00237616
-0.0013047
0.00258313
-0.00129327
0.00279551
-0.00128669
0.00301235
-0.0012863
0.00323281
-0.00129246
-0.00130293
0.00345442
0.00131377
-0.0031554
-0.00156484
0.00108554
-0.00307585
0.000879039
-0.00299895
0.00069355
-0.00292501
0.000528447
-0.00285363
0.000381864
-0.00278435
0.000254093
-0.00271807
0.000143419
-0.00265342
4.93221e-05
-0.0025913
-2.86988e-05
-0.00253121
-9.14288e-05
-0.00247327
-0.000139833
-0.00241695
-0.00017458
-0.00236241
-0.000195799
-0.00230987
-0.000204461
-0.00225866
-0.00020113
-0.00220936
-0.000186346
-0.00216096
-0.000160459
-0.00211474
-0.000124167
-0.0020693
-7.77334e-05
-0.00202549
-2.18513e-05
-0.00198279
4.33456e-05
-0.00194169
0.000117415
-0.00190127
0.000199992
-0.00186237
0.000290726
-0.00182441
0.000389241
-0.00178765
0.000495243
-0.00175223
0.000608777
-0.00171808
0.000728793
-0.00168498
0.000855962
-0.00165349
0.000989752
-0.00162367
0.00113011
-0.00159573
0.00127724
-0.00156992
0.00143025
-0.00154602
0.00158951
-0.00152455
0.00175485
-0.00150684
0.00192477
-0.00149163
0.00210089
-0.00148083
0.00228198
-0.00147436
0.00246767
-0.00147239
0.00265714
-0.00147577
0.0028486
-0.00148392
-0.00149705
0.00304273
0.00121289
-0.00292599
-0.0014423
0.00100437
-0.00286733
0.00081584
-0.00281042
0.000646136
-0.0027553
0.000494282
-0.00270178
0.000360181
-0.00265025
0.000241967
-0.00259985
0.000139713
-0.00255117
5.26655e-05
-0.00250425
-2.01091e-05
-0.00245843
-7.92137e-05
-0.00241416
-0.000125257
-0.00237091
-0.000158348
-0.00232932
-0.000179918
-0.0022883
-0.000189759
-0.00224882
-0.000188726
-0.00221039
-0.000176892
-0.0021728
-0.000155631
-0.002136
-0.000124295
-0.00210064
-8.42518e-05
-0.00206554
-3.48698e-05
-0.00203217
2.241e-05
-0.00199897
8.80807e-05
-0.00196694
0.000161157
-0.00193545
0.000242231
-0.00190549
0.000330057
-0.00187548
0.000424955
-0.00184713
0.000526307
-0.00181943
0.000633935
-0.0017926
0.000747804
-0.00176736
0.000867813
-0.00174368
0.00099402
-0.00172194
0.00112508
-0.00170098
0.00126211
-0.00168305
0.00140418
-0.00166662
0.00155129
-0.00165395
0.00170403
-0.00164437
0.00186081
-0.00163761
0.00202205
-0.0016356
0.00218715
-0.00163748
0.00235582
-0.00164445
0.00252708
-0.00165518
-0.00167041
0.00270044
0.00111682
-0.00271767
-0.00132513
0.00092679
-0.00267731
0.000754531
-0.00263817
0.00059911
-0.00259988
0.000460261
-0.00256293
0.000336513
-0.00252651
0.000228027
-0.00249137
0.000133682
-0.00245683
5.27603e-05
-0.00242333
-1.50181e-05
-0.00239066
-7.02418e-05
-0.00235894
-0.000113463
-0.00232769
-0.000145442
-0.00229734
-0.000166281
-0.00226746
-0.000176866
-0.00223823
-0.000177577
-0.00220968
-0.000168679
-0.0021817
-0.00015038
-0.0021543
-0.000123796
-0.00212723
-8.84104e-05
-0.00210092
-4.5599e-05
-0.00207498
5.40585e-06
-0.00204998
6.35193e-05
-0.00202505
0.000129247
-0.00200118
0.000201053
-0.00197729
0.000279896
-0.00195432
0.000364889
-0.00193212
0.000455622
-0.00191017
0.000552564
-0.00188955
0.000654941
-0.00186973
0.000762856
-0.00185159
0.000875136
-0.00183421
0.000993535
-0.00181938
0.00111684
-0.00180636
0.0012446
-0.00179438
0.00137663
-0.00178598
0.00151324
-0.00178098
0.00165392
-0.00177829
0.00179784
-0.00177952
0.00194618
-0.00178581
0.00209734
-0.00179561
0.00225131
-0.00180915
-0.00182718
0.00240808
0.00102679
-0.0025277
-0.00121676
0.000853274
-0.00250379
0.000695737
-0.00248063
0.00055359
-0.00245774
0.000426171
-0.00243551
0.000312822
-0.00241316
0.000212989
-0.00239153
0.000125977
-0.00236981
5.12599e-05
-0.00234861
-1.15558e-05
-0.00232784
-6.318e-05
-0.00230731
-0.000103751
-0.00228712
-0.000134288
-0.0022668
-0.000154774
-0.00224698
-0.000165581
-0.00222743
-0.000167397
-0.00220786
-0.000160464
-0.00218863
-0.000145198
-0.00216957
-0.000121942
-0.00215048
-9.11702e-05
-0.00213169
-5.29809e-05
-0.00211317
-8.20945e-06
-0.00209475
4.38906e-05
-0.00207715
0.000102071
-0.00205936
0.000166919
-0.00204214
0.000237626
-0.00202503
0.000313764
-0.00200826
0.0003956
-0.001992
0.00048275
-0.0019767
0.000574632
-0.00196162
0.000671511
-0.00194847
0.000773418
-0.00193612
0.000879159
-0.00192512
0.000989951
-0.00191715
0.00110589
-0.00191032
0.00122495
-0.00190504
0.00134725
-0.00190328
0.0014743
-0.00190533
0.00160456
-0.00190979
0.00173801
-0.00191926
0.00187477
-0.00193236
0.00201381
-0.00194819
-0.00196853
0.00215516
0.000942815
-0.00111598
-0.00235453
0.000784484
-0.00234546
0.000640623
-0.00233677
0.000510431
-0.00232754
0.00039351
-0.00231859
0.000289607
-0.00230925
0.000197739
-0.00229967
0.000117699
-0.00228977
4.88322e-05
-0.00227974
-9.6722e-06
-0.00226934
-5.75058e-05
-0.00225948
-9.58465e-05
-0.00224878
-0.000124419
-0.00223823
-0.000143839
-0.00222756
-0.000155307
-0.00221596
-0.000157915
-0.00220525
-0.000152795
-0.00219375
-0.000139823
-0.00218254
-0.000119348
-0.00217096
-9.22173e-05
-0.00215882
-5.83619e-05
-0.00214703
-1.82312e-05
-0.00213488
2.78129e-05
-0.0021232
8.03022e-05
-0.00211185
0.000137972
-0.00209981
0.000201562
-0.00208862
0.0002704
-0.0020771
0.000343798
-0.0020654
0.000422352
-0.00205525
0.000505382
-0.00204465
0.000593028
-0.00203612
0.000684721
-0.00202781
0.000780406
-0.00202081
0.000880979
-0.00201772
0.000984302
-0.00201364
0.00109245
-0.00201318
0.00120383
-0.00201467
0.0013176
-0.00201911
0.00143413
-0.00202631
0.00155528
-0.00204041
0.00167833
-0.00205542
0.00180471
-0.00207457
0.00193221
-0.00209603
0.00587256
-0.000519893
0.000302403
0.00615493
-0.000633945
0.00035157
0.00643009
-0.000744307
0.000469151
0.00668747
-0.000848038
0.000590662
0.00693119
-0.000951496
0.000707771
0.0071572
-0.00104637
0.000820368
0.00736816
-0.00113891
0.000927948
0.00756189
-0.00122737
0.00103364
0.0077399
-0.00131397
0.00113597
0.00790262
-0.00139896
0.00123623
0.00805087
-0.00148138
0.00133314
0.00818647
-0.00156576
0.00143016
0.00830841
-0.00164784
0.0015259
0.00841903
-0.00173149
0.00162087
0.00851836
-0.00181696
0.00171763
0.00860729
-0.00190234
0.0018134
0.00868492
-0.00198975
0.00191212
0.00875169
-0.00207957
0.0020128
0.00880799
-0.00217153
0.00211523
0.00885259
-0.00226584
0.00222124
0.00888433
-0.00236346
0.00233173
0.0089043
-0.00246425
0.00244427
0.00890862
-0.00256705
0.00256273
0.00889911
-0.00267517
0.00268468
0.0088737
-0.00278605
0.00281146
0.00883079
-0.00290098
0.0029439
0.00876868
-0.00301942
0.00308152
0.00868724
-0.00314337
0.00322481
0.00858519
-0.00327134
0.00337339
0.00846126
-0.00340427
0.0035282
0.00831503
-0.00354304
0.00368926
0.00814297
-0.0036854
0.00385746
0.00794578
-0.00383438
0.00403157
0.00772096
-0.00398872
0.00421354
0.00746834
-0.00414989
0.00440252
0.00718572
-0.00431646
0.00459907
0.00687154
-0.00448962
0.0048038
0.00652509
-0.00467048
0.00501694
0.00614439
-0.00485751
0.00523821
0.00572857
-0.00505296
0.00546878
0.00527507
-0.00525527
0.00570877
0.00478289
-0.00546647
0.00595866
-0.0056862
0.006218
0.00425109
0.00499757
-0.000865644
0.0052957
-0.000932077
0.00555611
-0.00100471
0.0057883
-0.00108023
0.00599451
-0.00115771
0.00618345
-0.00123531
0.00635882
-0.00131428
0.00652369
-0.00139224
0.00667821
-0.00146849
0.00682416
-0.0015449
0.00696376
-0.00162098
0.0070952
-0.0016972
0.00722108
-0.00177373
0.00733749
-0.0018479
0.00744638
-0.00192585
0.00754616
-0.00200212
0.00763716
-0.00208075
0.00771782
-0.00216023
0.00778724
-0.00224096
0.00784566
-0.00232426
0.00789115
-0.00240895
0.00792279
-0.00249589
0.00794172
-0.00258598
0.00794384
-0.00267729
0.00793085
-0.00277306
0.00790143
-0.00287156
0.00785423
-0.00297222
0.0077886
-0.00307773
0.00770304
-0.00318578
0.00759751
-0.00329874
0.00746927
-0.0034148
0.00731972
-0.00353585
0.00714608
-0.00366074
0.00694807
-0.00379071
0.0067238
-0.00392562
0.00647287
-0.00406553
0.00619343
-0.00421018
0.00588386
-0.00436092
0.00554402
-0.00451767
0.00517134
-0.00468028
0.00476523
-0.00484916
0.00432389
-0.00502513
-0.00520785
0.00384554
0.00421104
-0.00111468
0.00444734
-0.00116837
0.0046715
-0.00122888
0.00488406
-0.00129279
0.00508636
-0.00136
0.00527809
-0.00142705
0.00546049
-0.00149668
0.00563212
-0.00156387
0.00579652
-0.0016329
0.00595248
-0.00170086
0.00609924
-0.00176774
0.00623736
-0.00183533
0.00636533
-0.00190169
0.00648701
-0.00196959
0.00659714
-0.00203597
0.00669933
-0.00210431
0.0067907
-0.00217211
0.00687235
-0.00224188
0.0069438
-0.0023124
0.00700276
-0.00238323
0.00705004
-0.00245623
0.00708524
-0.00253109
0.00710666
-0.00260741
0.00711515
-0.00268577
0.00710849
-0.0027664
0.0070855
-0.00284857
0.00704774
-0.00293446
0.00699284
-0.00302283
0.00691999
-0.00311293
0.00682812
-0.00320687
0.0067174
-0.00330408
0.00658575
-0.0034042
0.00643308
-0.00350807
0.00625718
-0.00361481
0.00605811
-0.00372655
0.00583428
-0.0038417
0.00558477
-0.00396067
0.00530851
-0.00408466
0.00500425
-0.00421341
0.00467049
-0.00434652
0.00430645
-0.00448512
0.00391012
-0.0046288
-0.00477874
0.00348101
0.00367188
-0.00133215
0.00388361
-0.00138009
0.0040863
-0.00143158
0.00428005
-0.00148654
0.00446525
-0.00154521
0.00464261
-0.00160441
0.00481085
-0.00166491
0.00497242
-0.00172543
0.00512582
-0.0017863
0.00527105
-0.00184609
0.00540921
-0.00190591
0.00553907
-0.00196518
0.00566205
-0.00202467
0.00577576
-0.0020833
0.00588268
-0.00214289
0.0059796
-0.00220123
0.00606822
-0.00226073
0.00614671
-0.00232038
0.00621475
-0.00238044
0.00627333
-0.0024418
0.00632059
-0.00250349
0.00635667
-0.00256717
0.00637949
-0.00263023
0.00639067
-0.00269695
0.0063879
-0.00276364
0.00637149
-0.00283216
0.00634019
-0.00290316
0.00629282
-0.00297546
0.00623041
-0.00305052
0.00615032
-0.00312678
0.00605194
-0.0032057
0.00593504
-0.00328731
0.00579901
-0.00337205
0.00564285
-0.00345865
0.00546478
-0.00354848
0.00526394
-0.00364086
0.00504069
-0.00373742
0.00479264
-0.00383661
0.00451949
-0.00394026
0.0042202
-0.00404723
0.00389309
-0.00415801
0.00353713
-0.00427283
-0.00439176
0.00315015
0.0032353
-0.00152472
0.00342215
-0.00156694
0.00360405
-0.00161347
0.00377977
-0.00166225
0.00394898
-0.00171441
0.00411176
-0.00176719
0.00426746
-0.00182062
0.0044175
-0.00187547
0.0045595
-0.0019283
0.0046952
-0.00198179
0.00482437
-0.00203507
0.00494633
-0.00208715
0.00506062
-0.00213896
0.00516801
-0.0021907
0.00526695
-0.00224182
0.00535887
-0.00229316
0.00544185
-0.00234371
0.00551595
-0.00239448
0.00558127
-0.00244576
0.00563673
-0.00249726
0.00568205
-0.00254882
0.00571671
-0.00260182
0.00574086
-0.00265438
0.00575261
-0.0027087
0.00575234
-0.00276336
0.00573987
-0.00281969
0.00571284
-0.00287613
0.00567267
-0.00293529
0.0056168
-0.00299466
0.00554602
-0.003056
0.00545917
-0.00311885
0.00535507
-0.00318321
0.00523318
-0.00325015
0.00509305
-0.00331851
0.00493316
-0.0033886
0.00475352
-0.00346122
0.004553
-0.0035369
0.00433046
-0.00361406
0.00408452
-0.00369432
0.00381463
-0.00377734
0.00352005
-0.00386343
0.00319958
-0.00395237
-0.00404424
0.00285205
0.0028731
-0.00169737
0.0030417
-0.00173555
0.00320569
-0.00177747
0.00336507
-0.00182163
0.00351923
-0.00186858
0.00366786
-0.00191582
0.00381151
-0.00196426
0.0039475
-0.00201146
0.00407899
-0.00205979
0.00420415
-0.00210696
0.00432226
-0.00215318
0.00443454
-0.00219943
0.00454098
-0.0022454
0.00464073
-0.00229045
0.0047327
-0.00233379
0.00481747
-0.00237793
0.00489416
-0.00242039
0.00496381
-0.00246414
0.00502422
-0.00250617
0.00507621
-0.00254925
0.00511914
-0.00259175
0.00515182
-0.0026345
0.00517497
-0.00267753
0.00518723
-0.00272095
0.00518829
-0.00276443
0.00517765
-0.00280905
0.00515556
-0.00285404
0.00511952
-0.00289924
0.00507043
-0.00294557
0.00500757
-0.00299314
0.00492929
-0.00304056
0.0048368
-0.00309072
0.0047274
-0.00314075
0.00460109
-0.00319221
0.00445769
-0.0032452
0.00429595
-0.00329947
0.00411511
-0.00335606
0.00391429
-0.00341325
0.00369311
-0.00347315
0.00345042
-0.00353464
0.0031847
-0.00359771
0.00289524
-0.00366291
-0.00373062
0.00258162
0.00256349
-0.00185278
0.00271581
-0.00188787
0.00286462
-0.00192627
0.00300919
-0.00196619
0.00314948
-0.00200888
0.00328523
-0.00205157
0.00341516
-0.00209419
0.00354036
-0.00213667
0.00366027
-0.0021797
0.00377467
-0.00222136
0.0038835
-0.00226201
0.00398759
-0.00230352
0.00408466
-0.00234247
0.00417565
-0.00238144
0.00426099
-0.00241912
0.00433876
-0.00245571
0.00441064
-0.00249228
0.00447403
-0.00252753
0.00453095
-0.00256309
0.00457868
-0.00259698
0.00461885
-0.00263192
0.00464975
-0.00266539
0.00467207
-0.00269986
0.00468336
-0.00273225
0.00468596
-0.00276703
0.00467719
-0.00280028
0.00465707
-0.00283391
0.00462582
-0.002868
0.00458205
-0.00290179
0.00452532
-0.00293641
0.00445559
-0.00297084
0.00437139
-0.00300652
0.00427284
-0.00304219
0.00415975
-0.00307913
0.00403042
-0.00311587
0.00388465
-0.00315371
0.00372128
-0.00319268
0.00354117
-0.00323313
0.0033412
-0.00327318
0.00312158
-0.00331502
0.00288211
-0.00335824
0.00262111
-0.00340191
-0.00344738
0.00233788
0.00229608
-0.0019937
0.00243419
-0.00202597
0.0025692
-0.00206128
0.00270121
-0.00209821
0.00282747
-0.00213513
0.00295142
-0.00217553
0.00306985
-0.00221262
0.00318382
-0.00225064
0.00329305
-0.00228893
0.00339755
-0.00232586
0.00349755
-0.00236201
0.00359226
-0.00239824
0.00368215
-0.00243235
0.00376527
-0.00246457
0.00384329
-0.00249713
0.00391516
-0.00252757
0.0039804
-0.00255752
0.0040392
-0.00258633
0.00409064
-0.00261453
0.00413573
-0.00264206
0.00417271
-0.0026689
0.00420147
-0.00269415
0.00422154
-0.00271993
0.00423377
-0.00274447
0.004236
-0.00276926
0.0042282
-0.00279247
0.00421102
-0.00281674
0.00418278
-0.00283975
0.0041438
-0.0028628
0.0040926
-0.00288522
0.00403008
-0.00290832
0.00395464
-0.00293107
0.00386612
-0.00295368
0.00376321
-0.00297622
0.00364654
-0.0029992
0.00351509
-0.00302226
0.00336829
-0.00304588
0.00320432
-0.00306917
0.00302419
-0.00309305
0.00282612
-0.00311695
0.00260946
-0.00314159
0.00237379
-0.00316624
-0.00319171
0.00211812
0.00206125
-0.00212273
0.00218759
-0.00215232
0.00230984
-0.00218354
0.00243017
-0.00221854
0.00254533
-0.00225029
0.002658
-0.00228819
0.00276596
-0.00232058
0.00286981
-0.0023545
0.00296956
-0.00238867
0.00306483
-0.00242113
0.00315801
-0.00245518
0.0032446
-0.00248483
0.00332542
-0.00251317
0.00340255
-0.00254169
0.00347324
-0.00256783
0.00353951
-0.00259384
0.00359954
-0.00261755
0.00365254
-0.00263934
0.00370061
-0.00266259
0.00374223
-0.00268369
0.00377574
-0.00270241
0.00380218
-0.00272059
0.00382042
-0.00273817
0.00383173
-0.00275578
0.00383433
-0.00277187
0.0038284
-0.00278654
0.00381287
-0.00280122
0.00378698
-0.00281386
0.00375101
-0.00282684
0.00370542
-0.00283962
0.00364842
-0.00285132
0.00358038
-0.00286302
0.00349949
-0.00287279
0.00340688
-0.00288361
0.00330152
-0.00289384
0.00318229
-0.00290303
0.00304916
-0.00291275
0.00290169
-0.00292169
0.00273792
-0.00292928
0.00255898
-0.002938
0.00236291
-0.00294552
0.00215036
-0.00295369
0.00191895
-0.0029603
-5.01047e-05
0.00617152
-0.00672128
0.000599866
0.000455961
0.00595465
-0.00646072
0.00092281
0.00574374
-0.00621058
0.001352
0.00554133
-0.00597052
0.00174617
0.00534664
-0.0057408
0.00210493
0.00515824
-0.005517
0.00242842
0.00497982
-0.00530331
0.00271824
0.00480746
-0.00509729
0.00297888
0.00463893
-0.00489957
0.00320989
0.00447638
-0.00470738
0.0034071
0.00432379
-0.004521
0.00357883
0.00417266
-0.00434439
0.00372474
0.00402731
-0.00417322
0.00384064
0.00388948
-0.00400538
0.00393237
0.00375139
-0.00384313
0.00399774
0.00362243
-0.0036878
0.00404075
0.0034946
-0.00353761
0.00405686
0.00337217
-0.00338828
0.00405034
0.00325244
-0.00324592
0.00402312
0.00313373
-0.00310651
0.00397344
0.00301973
-0.00297005
0.00390279
0.00290836
-0.00283771
0.00381353
0.00279822
-0.00270896
0.00370417
0.00269159
-0.00258223
0.00357751
0.00258629
-0.00245963
0.00343424
0.00248271
-0.00233944
0.003275
0.00238124
-0.00222199
0.00310187
0.00228129
-0.00210816
0.0029159
0.0021829
-0.00199693
0.0027186
0.00208565
-0.00188836
0.00251137
0.00198993
-0.0017827
0.00229589
0.00189519
-0.0016797
0.0020737
0.00180205
-0.00157986
0.00184662
0.00170891
-0.00148183
0.00161638
0.00161672
-0.00138648
0.00138465
0.00152474
-0.00129301
0.00115377
0.00143194
-0.00120105
0.000925726
0.00133789
-0.00110985
0.000703282
0.00124103
-0.00101859
0.000489314
0.00113908
-0.000925109
0.000289917
0.00102517
-0.000825776
0.000118711
0.000881892
-0.000710682
0.000653676
-6.59306e-06
-0.000528373
-5.18153e-05
0.00567399
0.000549339
0.000408525
0.00549431
0.000833488
0.00531877
0.00122151
0.00515331
0.00157833
0.00498981
0.00190006
0.00483651
0.00219442
0.00468545
0.00245783
0.00454405
0.00269412
0.00440264
0.00290104
0.00426946
0.00308291
0.00414192
0.00323745
0.00401811
0.00336862
0.00389615
0.00347611
0.00378199
0.00355834
0.00366916
0.00361883
0.00356194
0.00365724
0.00345619
0.00367598
0.00335342
0.00367455
0.00325388
0.00365106
0.00315722
0.00360924
0.00306155
0.00354927
0.00296833
0.00347163
0.00287586
0.00337567
0.00278755
0.00326376
0.00269819
0.00313605
0.00261043
0.0029941
0.00252318
0.00283884
0.00243655
0.00267111
0.00235063
0.00249201
0.00226476
0.00230314
0.0021788
0.00210549
0.00209284
0.00190141
0.00200612
0.00169148
0.00191884
0.00147762
0.00183058
0.00126211
0.00174025
0.00104624
0.00164781
0.000832491
0.00155164
0.00062373
0.00144979
0.000423726
0.00133909
0.000239488
0.00120941
8.70032e-05
0.00103438
0.000765365
-2.4685e-05
-5.03205e-05
0.00522375
0.000500561
0.000364853
0.00507914
0.000749073
0.00493455
0.0011022
0.00480018
0.00142423
0.00466778
0.00171717
0.00454357
0.00198351
0.00441911
0.00222275
0.00430481
0.00243485
0.00419054
0.00262231
0.004082
0.00278676
0.00397746
0.00292799
0.00387689
0.00304626
0.00377787
0.00314336
0.00368489
0.00321937
0.00359315
0.00327603
0.00350528
0.00331339
0.00341882
0.00333117
0.00333565
0.00332942
0.00325562
0.00331203
0.00317461
0.00327496
0.00309862
0.00322193
0.00302135
0.00315118
0.00294661
0.00306784
0.00287088
0.00296851
0.00279752
0.00285475
0.00272419
0.00272781
0.00265013
0.00258786
0.0025765
0.00243651
0.00250197
0.00227437
0.0024269
0.00210248
0.00235069
0.00192241
0.00227291
0.00173489
0.00219365
0.00154192
0.00211181
0.00134485
0.00202765
0.00114489
0.00194021
0.000944702
0.00184801
0.000745809
0.00175054
0.000551254
0.00164435
0.000365186
0.00152515
0.000195677
0.00137892
5.91293e-05
0.00117092
0.000869286
-4.47921e-05
-4.97501e-05
0.0048164
0.000457105
0.000328625
0.00470077
0.00067612
0.00458706
0.000994922
0.00448138
0.00128675
0.00437595
0.00155393
0.00427639
0.00179412
0.00417892
0.0020115
0.00408743
0.0022042
0.00399784
0.00237406
0.00391215
0.00252305
0.00382847
0.00265115
0.00374879
0.00275647
0.00367255
0.002845
0.00359636
0.00291449
0.00352366
0.00296505
0.00345472
0.00299861
0.00338526
0.00301491
0.00331936
0.00301402
0.00325652
0.00299784
0.00319079
0.0029663
0.00313016
0.00292114
0.00306652
0.00285873
0.00300902
0.00278344
0.00294617
0.00269492
0.00288604
0.00259346
0.00282565
0.00247925
0.00276434
0.0023537
0.00270205
0.00221698
0.0026387
0.00207046
0.00257341
0.00191492
0.00250624
0.00175118
0.00243665
0.00158025
0.00236458
0.0014036
0.00228845
0.00122272
0.00220854
0.00103923
0.00212369
0.000854472
0.00203276
0.000671014
0.00193399
0.000491497
0.00182387
0.000320141
0.00169651
0.000165751
0.00153331
4.41822e-05
0.00129249
0.000966676
-5.32089e-05
-4.71358e-05
0.00444542
0.00041811
0.000295254
0.00435838
0.00060872
0.00427359
0.000899322
0.00419078
0.00116549
0.00410979
0.00140677
0.00403511
0.00162347
0.00396223
0.00181946
0.00389144
0.00199271
0.00382459
0.00214925
0.00375561
0.00228319
0.00369453
0.00239869
0.00363328
0.00249725
0.003574
0.00257714
0.00351647
0.00263834
0.00346247
0.00268663
0.00340643
0.00271611
0.00335577
0.00273091
0.00330456
0.00273259
0.00325484
0.00271708
0.0032063
0.00269062
0.00315662
0.00264721
0.00310993
0.00259435
0.00306188
0.00252628
0.00301425
0.00244733
0.002965
0.00235538
0.00291759
0.00225309
0.00286663
0.00213986
0.00281528
0.00201672
0.00276184
0.00188421
0.00270592
0.00174315
0.0026473
0.00159429
0.0025855
0.00143907
0.00251981
0.0012781
0.00244942
0.00111275
0.00237389
0.000944377
0.00229207
0.000774972
0.00220217
0.000606643
0.00210232
0.000441405
0.0019891
0.000284279
0.00185363
0.000144264
0.00167333
3.53619e-05
0.00140139
0.00105775
-5.57096e-05
-4.65294e-05
0.00411031
0.000381647
0.000263799
0.00404805
0.000551615
0.00398578
0.000814898
0.00392749
0.00105336
0.00387132
0.00127119
0.00381728
0.00146852
0.00376489
0.00164738
0.00371258
0.0018076
0.00366437
0.0019453
0.0036179
0.00206637
0.00357347
0.00217294
0.00352671
0.00226099
0.00348595
0.00233233
0.00344513
0.0023911
0.0034037
0.00243142
0.00336611
0.00246093
0.00332627
0.00247356
0.00329193
0.00247577
0.00325263
0.00246299
0.00321908
0.00243731
0.0031823
0.00240065
0.00314659
0.00235313
0.0031094
0.00229238
0.00307499
0.00222073
0.00303665
0.00213818
0.00300014
0.00204654
0.00295827
0.00194475
0.00291707
0.00183362
0.00287297
0.00171364
0.0028259
0.00158594
0.002775
0.00145115
0.00272029
0.00131
0.00266095
0.00116306
0.00259636
0.00101228
0.00252467
0.000858617
0.00244573
0.000703552
0.00235723
0.000549041
0.00225683
0.000397831
0.00214031
0.000254273
0.00199719
0.000127697
0.0017999
2.94068e-05
0.00149968
0.001143
-5.58433e-05
-4.46091e-05
0.00380669
0.000348224
0.000238399
0.00376504
0.000496765
0.00372741
0.000734385
0.00368987
0.000951717
0.00365399
0.00115063
0.00361837
0.00133081
0.00358471
0.00149256
0.00355083
0.00163603
0.0035209
0.00176277
0.00349116
0.00187526
0.00346098
0.00196915
0.00343282
0.00204861
0.00340649
0.00211562
0.00337812
0.00216613
0.00335319
0.00220597
0.00332627
0.00222943
0.0033028
0.00224447
0.00327689
0.00224455
0.00325255
0.00223429
0.00322934
0.00221111
0.00320547
0.00217927
0.00317843
0.00213243
0.00315624
0.00207884
0.00312859
0.0020145
0.00310099
0.00194294
0.0030717
0.00185866
0.00304255
0.00176661
0.00300911
0.00166615
0.00297343
0.00155774
0.00293431
0.00144216
0.00289057
0.00131987
0.00284259
0.00119148
0.00278935
0.00105841
0.00272943
0.0009211
0.00266198
0.000780694
0.00258613
0.000638893
0.00249903
0.000497595
0.00239813
0.000359318
0.00227859
0.000229024
0.00212749
0.000114901
0.00191402
2.52134e-05
0.00158937
0.00122357
-5.53581e-05
-4.15795e-05
0.00353049
0.000317786
0.000214006
0.00350945
0.000449162
0.00349225
0.000666052
0.00347298
0.000864143
0.0034559
0.00104399
0.00343853
0.00120746
0.00342125
0.00135241
0.00340588
0.00148284
0.00339046
0.00159717
0.00337683
0.00169685
0.0033613
0.00178432
0.00334535
0.00185725
0.00333356
0.00191596
0.00331941
0.00196409
0.00330506
0.00199794
0.00329242
0.00202335
0.0032774
0.00203407
0.00326617
0.00203457
0.00325205
0.00202437
0.00323954
0.0020057
0.00322414
0.00197415
0.00320997
0.00193599
0.00319441
0.00188726
0.00317731
0.00182958
0.00315867
0.00176144
0.00313984
0.00168714
0.00311685
0.0016045
0.00309175
0.00151329
0.00306464
0.00141522
0.00303238
0.00131034
0.00299546
0.00119922
0.00295371
0.00108314
0.00290542
0.000962141
0.00285042
0.000837143
0.00278698
0.000710176
0.0027131
0.000580559
0.00262865
0.000451167
0.00252752
0.000325154
0.0024046
0.000206227
0.00224641
0.000103714
0.00201654
2.27598e-05
0.00167032
0.00129921
-5.28788e-05
-3.79269e-05
0.00327721
0.000291202
0.000192761
0.00327877
0.000407041
0.00327797
0.000602605
0.00327742
0.000782033
0.00327647
0.000945115
0.00327545
0.00109167
0.00327469
0.00122408
0.00327346
0.00134408
0.00327047
0.00144953
0.00327138
0.00154096
0.00326987
0.00161775
0.00326857
0.00168435
0.00326695
0.00173882
0.00326494
0.00178076
0.00326311
0.00181429
0.00325889
0.00183366
0.00325803
0.00184457
0.00325526
0.00184474
0.00325187
0.00183687
0.00324741
0.00181837
0.00324265
0.00179136
0.00323698
0.00175572
0.00323005
0.00171331
0.00321972
0.0016605
0.00321148
0.0016012
0.00319914
0.00153312
0.00318493
0.00145746
0.00316741
0.00137528
0.00314683
0.0012856
0.00312206
0.00119028
0.00309077
0.00109039
0.00305359
0.000985317
0.0030105
0.00087561
0.00296013
0.00076222
0.00290037
0.000645409
0.00282991
0.000526605
0.00274745
0.000408381
0.00264575
0.000293908
0.00251907
0.000187851
0.00235247
9.90627e-05
0.00210532
2.33543e-05
0.00174603
-5.36599e-05
0.00137622
-0.000167537
0.000385817
-0.000224872
-0.000260691
0.000345908
-0.000252754
-0.000341422
0.000355759
-0.000275028
-0.000419879
0.000374414
-0.000295958
-0.000498358
0.000394842
-0.000316363
-0.000577178
0.000415808
-0.000336988
-0.000656293
0.000437374
-0.000358259
-0.00073555
0.000459635
-0.000380378
-0.000814696
0.000482691
-0.000403544
-0.000893578
0.000506774
-0.000427893
-0.000971986
0.000531948
-0.000453539
-0.0010498
0.000558367
-0.000480558
-0.00112667
0.000586095
-0.000509224
-0.00120236
0.000615198
-0.000539508
-0.00127679
0.000645919
-0.000571482
-0.00134955
0.000678286
-0.000605524
-0.00142051
0.00071239
-0.000641435
-0.0014892
0.00074838
-0.000679687
-0.00155542
0.000786458
-0.000720235
-0.00161889
0.000826669
-0.0007632
-0.00167901
0.000869123
-0.000809004
-0.00173565
0.000914186
-0.000857545
-0.00178818
0.000961771
-0.000909238