/*--------------------------------*- C++ -*----------------------------------*\
| =========                 |                                                 |
| \\      /  F ield         | OpenFOAM: The Open Source CFD Toolbox           |
|  \\    /   O peration     | Version:  2.3.0                                 |
|   \\  /    A nd           | Web:      www.OpenFOAM.org                      |
|    \\/     M anipulation  |                                                 |
\*---------------------------------------------------------------------------*/
FoamFile
{
    version     2.0;
    format      ascii;
    class       volScalarField;
    location    "10000";
    object      nut;
}
// * * * * * * * * * * * * * * * * * * * * * * * * * * * * * * * * * * * * * //

dimensions      [0 2 -1 0 0 0 0];

internalField   nonuniform List<scalar> 
42074
(
0.0639953
0.0622289
0.060468
0.0587114
0.0569593
0.0552128
0.0534729
0.0517414
0.050019
0.0483075
0.0466079
0.0449214
0.0432494
0.041593
0.0399532
0.0383315
0.0367293
0.0351484
0.0335903
0.0320574
0.030553
0.0290802
0.0276443
0.0262505
0.0249063
0.0236176
0.0223887
0.0212284
0.0201416
0.0191058
0.018082
0.0170592
0.0160422
0.0150342
0.0140364
0.0130469
0.0120601
0.01107
0.0100669
0.00904059
0.00798416
0.00692256
0.00609051
0.0654616
0.0639135
0.0623676
0.0608245
0.0592854
0.0577507
0.0562213
0.0546979
0.0531821
0.0516738
0.0501744
0.048685
0.047206
0.0457383
0.0442825
0.0428395
0.04141
0.0399953
0.0385959
0.0372127
0.0358473
0.0345006
0.0331739
0.0318689
0.0305877
0.0293331
0.0281069
0.026912
0.0257513
0.0246269
0.0235401
0.0224931
0.021492
0.0205427
0.0196549
0.0188388
0.0181066
0.0174721
0.0169495
0.016554
0.0163014
0.0162079
0.0162877
0.0668118
0.0654428
0.0640767
0.0627129
0.0613517
0.0599929
0.0586375
0.0572863
0.0559394
0.0545977
0.0532621
0.0519333
0.0506116
0.0492973
0.0479913
0.046694
0.0454067
0.0441297
0.0428638
0.0416104
0.04037
0.0391436
0.0379334
0.0367399
0.0355655
0.0344123
0.033283
0.0321805
0.0311081
0.030069
0.029067
0.0281086
0.0271995
0.0263459
0.0255565
0.0248416
0.0242115
0.0236763
0.023248
0.0229372
0.0227534
0.0227032
0.0227895
0.068041
0.0668291
0.0656167
0.0644048
0.0631938
0.0619836
0.0607746
0.0595669
0.0583611
0.0571578
0.0559578
0.0547614
0.0535693
0.0523815
0.0511986
0.0500212
0.0488501
0.0476859
0.0465294
0.0453818
0.0442438
0.0431164
0.0420015
0.0409004
0.0398147
0.0387472
0.0377001
0.0366768
0.0356806
0.0347159
0.0337871
0.0328991
0.032059
0.0312725
0.0305484
0.0298957
0.0293233
0.0288404
0.0284567
0.0281805
0.0280187
0.0279762
0.0280542
0.0691652
0.0680854
0.0670034
0.0659212
0.0648379
0.0637537
0.0626683
0.0615818
0.0604944
0.059407
0.0583197
0.0572336
0.056149
0.0550659
0.053985
0.0529065
0.051831
0.0507594
0.049693
0.048632
0.0475778
0.046531
0.0454938
0.0444679
0.0434546
0.0424567
0.0414762
0.0405164
0.0395812
0.038675
0.0378025
0.0369688
0.0361793
0.0354415
0.0347629
0.034152
0.033617
0.0331669
0.0328098
0.032553
0.0324016
0.0323604
0.0324308
0.0701929
0.0692225
0.0682518
0.0672797
0.0663056
0.065329
0.0643489
0.0633648
0.0623774
0.0613871
0.0603947
0.0594004
0.0584055
0.0574098
0.0564136
0.0554174
0.0544215
0.0534266
0.0524337
0.0514441
0.0504589
0.0494787
0.048505
0.0475404
0.0465867
0.0456456
0.0447192
0.0438109
0.042924
0.0420641
0.0412365
0.0404449
0.0396947
0.0389933
0.0383478
0.0377661
0.037257
0.0368281
0.0364875
0.0362418
0.0360962
0.0360546
0.0361182
0.0711227
0.0702491
0.069374
0.0684963
0.0676161
0.0667317
0.0658419
0.0649452
0.0640423
0.0631353
0.0622228
0.0613047
0.060384
0.0594619
0.0585373
0.0576099
0.0566805
0.0557498
0.054818
0.0538868
0.052959
0.0520343
0.0511135
0.0501988
0.0492926
0.0483995
0.0475191
0.0466531
0.0458049
0.0449805
0.0441887
0.0434323
0.0427141
0.04204
0.0414193
0.0408595
0.040369
0.0399543
0.039624
0.0393852
0.0392432
0.0392013
0.0392599
0.0719631
0.0711755
0.0703827
0.0695864
0.068786
0.0679807
0.0671701
0.0663497
0.0655165
0.0646801
0.0638375
0.0629842
0.0621225
0.0612629
0.0603988
0.0595297
0.0586556
0.0577796
0.0568999
0.0560163
0.0551347
0.0542591
0.0533815
0.0525107
0.0516385
0.0507853
0.0499472
0.0491162
0.0483057
0.0475029
0.0467378
0.0460119
0.0453235
0.0446691
0.044068
0.0435252
0.0430497
0.0426464
0.04232
0.0420854
0.0419456
0.0419041
0.0419604
0.0727389
0.072018
0.0712923
0.0705636
0.0698293
0.0690893
0.0683464
0.0676026
0.0668222
0.0660389
0.0652561
0.0644666
0.0636478
0.0628417
0.0620243
0.061208
0.0603784
0.0595488
0.0587153
0.0578761
0.0570187
0.0561953
0.0553441
0.0545289
0.053679
0.0528483
0.0520605
0.0512427
0.0504951
0.0496958
0.048944
0.048238
0.047589
0.0469494
0.0463673
0.045836
0.0453712
0.0449852
0.0446528
0.0444214
0.0442812
0.0442395
0.0443009
0.00688748
0.00872203
0.00988073
0.0110165
0.0122147
0.013474
0.014782
0.0161274
0.0175004
0.0188941
0.0203031
0.021725
0.0231559
0.0245957
0.026042
0.027495
0.0289539
0.0304182
0.0318874
0.0333618
0.034841
0.0363244
0.0378121
0.0393043
0.0408009
0.0423012
0.0438053
0.0453132
0.0468246
0.0483392
0.0498569
0.0513774
0.0529005
0.0544258
0.055953
0.057482
0.0590123
0.0605435
0.0620749
0.0636059
0.0651361
0.0666651
0.0681916
0.0165462
0.0169832
0.0175838
0.0183317
0.0192067
0.0201874
0.0212535
0.022388
0.0235753
0.024803
0.0260634
0.027347
0.0286497
0.0299658
0.0312932
0.0326286
0.0339701
0.0353167
0.036667
0.0380199
0.0393748
0.0407315
0.0420894
0.0434485
0.0448085
0.046169
0.0475301
0.0488919
0.050254
0.0516165
0.0529794
0.0543423
0.0557057
0.0570693
0.058433
0.0597972
0.0611615
0.0625256
0.0638892
0.0652519
0.0666132
0.0679726
0.0693266
0.0230091
0.0233636
0.0238543
0.024472
0.0252036
0.026035
0.0269515
0.0279392
0.0289844
0.0300771
0.0312071
0.0323666
0.0335491
0.0347494
0.0359628
0.0371864
0.0384172
0.0396531
0.0408921
0.0421331
0.0433753
0.0446175
0.0458592
0.0471001
0.0483399
0.0495782
0.0508149
0.0520498
0.0532833
0.0545149
0.0557445
0.0569724
0.0581989
0.059424
0.0606478
0.0618708
0.0630929
0.0643135
0.0655327
0.0667502
0.0679656
0.0691789
0.0703892
0.0282506
0.028565
0.0289984
0.0295449
0.0301941
0.0309349
0.0317567
0.032647
0.0335948
0.0345902
0.0356244
0.0366893
0.0377784
0.0388859
0.0400079
0.0411403
0.0422794
0.0434231
0.0445695
0.0457167
0.0468634
0.048009
0.0491528
0.0502939
0.051432
0.0525672
0.0536987
0.0548267
0.0559511
0.0570714
0.0581882
0.0593016
0.0604117
0.0615193
0.0626242
0.0637268
0.0648273
0.0659252
0.0670202
0.0681124
0.0692017
0.0702878
0.0713724
0.0326108
0.0328996
0.0332963
0.0337961
0.0343912
0.0350718
0.0358282
0.03665
0.0375272
0.0384511
0.039413
0.0404051
0.0414211
0.0424556
0.0435039
0.0445617
0.0456258
0.0466939
0.0477635
0.0488324
0.0498995
0.0509642
0.0520257
0.0530833
0.0541367
0.0551853
0.0562287
0.0572665
0.0582986
0.0593252
0.0603465
0.0613628
0.0623746
0.0633823
0.0643863
0.0653868
0.0663836
0.0673764
0.0683648
0.0693489
0.0703288
0.0713044
0.0722769
0.0362855
0.0365553
0.0369262
0.0373935
0.0379503
0.0385873
0.039296
0.0400674
0.0408918
0.0417613
0.0426675
0.0436031
0.0445615
0.0455374
0.0465261
0.0475237
0.0485265
0.0495323
0.0505382
0.0515419
0.0525427
0.05354
0.054533
0.0555212
0.0565036
0.05748
0.0584491
0.0594108
0.0603652
0.0613125
0.0622529
0.0631869
0.0641152
0.0650383
0.0659569
0.0668708
0.0677795
0.0686822
0.0695788
0.0704695
0.0713545
0.072234
0.0731091
0.0394169
0.0396715
0.0400229
0.0404665
0.0409944
0.0415982
0.0422703
0.0430025
0.0437862
0.0446132
0.0454759
0.0463663
0.0472786
0.0482072
0.0491475
0.0500955
0.0510478
0.0520019
0.0529544
0.0539033
0.0548485
0.0557894
0.0567252
0.0576555
0.0585791
0.0594947
0.060401
0.0612979
0.0621862
0.0630661
0.0639378
0.0648017
0.0656589
0.0665107
0.0673573
0.0681982
0.0690316
0.0698567
0.0706738
0.0714839
0.0722866
0.0730822
0.0738727
0.0421083
0.0423509
0.0426859
0.0431107
0.0436173
0.0441938
0.0448363
0.0455375
0.0462892
0.0470828
0.0479107
0.0487641
0.049639
0.0505288
0.0514287
0.0523351
0.0532463
0.0541578
0.0550644
0.0559653
0.0568638
0.0577572
0.0586456
0.0595284
0.0604034
0.0612671
0.0621189
0.0629602
0.0637928
0.064615
0.0654276
0.0662316
0.0670287
0.0678205
0.0686071
0.0693869
0.0701553
0.0709126
0.0716607
0.0724012
0.0731323
0.0738549
0.074572
0.0444353
0.0446674
0.0449851
0.0453946
0.0458881
0.0464357
0.0470535
0.0477284
0.0484537
0.0492197
0.0500198
0.0508385
0.0516837
0.0525397
0.0534047
0.054276
0.0551554
0.0560298
0.0568928
0.057753
0.0586153
0.0594674
0.0603181
0.0611631
0.0619976
0.0628143
0.0636184
0.0644127
0.0652009
0.0659721
0.0667343
0.0674885
0.0682379
0.0689831
0.0697224
0.0704531
0.0711622
0.0718601
0.0725497
0.0732321
0.0738992
0.0745591
0.0752184
0.0578987
0.0552591
0.0526497
0.0501178
0.0476894
0.0453653
0.0431413
0.0410123
0.0389734
0.0370204
0.0351491
0.0333552
0.0316344
0.029983
0.0283976
0.0268739
0.0254092
0.0240008
0.022645
0.0213387
0.0200791
0.0188631
0.0176876
0.0165504
0.0154501
0.0143842
0.0133517
0.0123512
0.0113825
0.0104434
0.00953405
0.00865517
0.00780641
0.00698851
0.00620335
0.00545407
0.00474236
0.00407045
0.00345513
0.00295059
0.00248544
0.00195714
0.00126849
0.058014
0.0555872
0.0532005
0.0508912
0.0486696
0.0465342
0.0444821
0.0425099
0.0406134
0.0387895
0.0370351
0.0353472
0.0337221
0.0321572
0.0306493
0.0291962
0.0277949
0.0264435
0.0251386
0.0238771
0.0226559
0.0214727
0.0203243
0.0192089
0.0181244
0.0170694
0.0160423
0.0150432
0.0140707
0.0131251
0.0122069
0.0113175
0.0104577
0.00962926
0.00883771
0.00809807
0.00743637
0.00679053
0.00611055
0.00537497
0.00456006
0.00361592
0.00244968
0.0581332
0.0559062
0.0537251
0.051614
0.0495765
0.0476108
0.045714
0.0438839
0.0421178
0.0404129
0.0387675
0.0371785
0.035644
0.0341619
0.0327306
0.0313478
0.0300122
0.0287207
0.0274708
0.0262595
0.025085
0.0239443
0.0228358
0.0217573
0.0207077
0.0196854
0.0186899
0.0177208
0.0167784
0.0158634
0.0149776
0.0141235
0.0133123
0.0125467
0.0117947
0.0110286
0.0102337
0.00939517
0.00849017
0.00749148
0.00636334
0.005057
0.00350121
0.0582571
0.056216
0.0542222
0.0522884
0.0504152
0.048601
0.0468437
0.045142
0.0434939
0.0418975
0.040351
0.0388532
0.0374029
0.0359982
0.0346384
0.0333228
0.0320488
0.030815
0.0296189
0.0284588
0.027332
0.0262377
0.0251736
0.024139
0.0231326
0.0221541
0.0212027
0.0202794
0.0193852
0.0185234
0.0176975
0.0168925
0.0160875
0.0152696
0.0144259
0.0135421
0.0126034
0.0115922
0.010487
0.00925893
0.0078719
0.00627602
0.004412
0.0583854
0.0565167
0.0546917
0.0529156
0.0511888
0.0495101
0.0478781
0.0462917
0.0447497
0.043251
0.0417943
0.0403794
0.0390054
0.0376713
0.0363774
0.0351226
0.033906
0.0327255
0.0315799
0.0304677
0.0293876
0.0283387
0.0273201
0.0263312
0.025372
0.0244417
0.0235416
0.022673
0.0218349
0.0210133
0.0201922
0.0193585
0.0185013
0.0176099
0.0166727
0.015677
0.014608
0.0134468
0.0121702
0.0107484
0.00914403
0.00730811
0.00518713
0.0585149
0.0568057
0.0551322
0.0534972
0.0519011
0.0503434
0.0488234
0.04734
0.0458933
0.0444824
0.0431064
0.0417659
0.0404608
0.0391907
0.0379559
0.0367565
0.0355914
0.0344588
0.0333588
0.0322908
0.0312537
0.0302478
0.0292727
0.0283288
0.0274162
0.0265359
0.0256888
0.0248648
0.0240458
0.0232184
0.0223719
0.0214966
0.0205831
0.0196214
0.0185993
0.0175048
0.0163219
0.0150307
0.0136065
0.0120185
0.010228
0.00818572
0.00584227
0.0586489
0.0570828
0.0555441
0.0540348
0.0525555
0.0511059
0.0496854
0.0482942
0.0469327
0.0456006
0.0442971
0.0430232
0.0417798
0.040567
0.0393854
0.0382351
0.0371161
0.036027
0.0349673
0.0339379
0.0329401
0.0319735
0.0310389
0.0301369
0.0292685
0.0284336
0.0276208
0.0268113
0.0259896
0.025145
0.0242687
0.0233523
0.0223867
0.021361
0.0202638
0.019082
0.0177992
0.0163942
0.0148421
0.0131108
0.0111585
0.00893505
0.00639289
0.0587879
0.0573476
0.0559281
0.0545306
0.0531554
0.0518023
0.0504708
0.0491611
0.0478755
0.0466147
0.0453767
0.0441609
0.0429735
0.0418131
0.0406785
0.0395707
0.0384932
0.0374436
0.0364198
0.0354223
0.0344592
0.0335278
0.0326297
0.031768
0.0309365
0.0301263
0.0293265
0.0285215
0.0276928
0.0268287
0.0259248
0.0249715
0.0239594
0.0228764
0.021711
0.0204509
0.0190788
0.0175735
0.0159108
0.0140583
0.0119677
0.00958639
0.00686543
0.0589257
0.0575979
0.0562844
0.054986
0.0537033
0.0524369
0.0511861
0.0499476
0.0487279
0.0475324
0.0463583
0.0451885
0.0440506
0.0429393
0.0418483
0.040774
0.0397327
0.0387205
0.0377349
0.0367563
0.0358259
0.0349258
0.0340559
0.0332329
0.0324264
0.0316162
0.0308187
0.0300197
0.0291913
0.0283025
0.0273745
0.0263931
0.0253404
0.0242044
0.0229749
0.021643
0.0201908
0.0185932
0.0168334
0.0148866
0.0126822
0.0101745
0.00732505
0.000575929
0.000505775
0.000689796
0.000866173
0.0010337
0.00119677
0.00136115
0.00153507
0.00172936
0.00195574
0.002216
0.00250756
0.00282734
0.00317299
0.00354404
0.0039398
0.00436025
0.00480575
0.00527646
0.00577319
0.00629614
0.006846
0.00742326
0.00802848
0.00866208
0.00932497
0.0100175
0.0107408
0.0114954
0.0122825
0.0131029
0.0139572
0.0148466
0.0157718
0.0167337
0.0177333
0.0187715
0.0198492
0.020967
0.0221255
0.0233253
0.0245667
0.025851
0.00116177
0.000706398
0.000849802
0.00103486
0.00121678
0.00140223
0.00160054
0.00182096
0.00207111
0.00235637
0.0026761
0.00302263
0.00339321
0.00378685
0.00420278
0.00464076
0.00510051
0.00558279
0.00608736
0.0066143
0.0071641
0.00773693
0.00833312
0.00895292
0.00959708
0.0102661
0.0109603
0.0116803
0.012427
0.0132009
0.0140026
0.0148332
0.0156929
0.0165828
0.0175035
0.0184557
0.0194402
0.0204575
0.0215083
0.022593
0.023712
0.0248658
0.0260538
0.0018059
0.000933786
0.00100095
0.0011996
0.00140554
0.00162576
0.00186965
0.0021431
0.00244888
0.00278881
0.00316059
0.00355566
0.00397215
0.00440904
0.00486594
0.00534244
0.00583845
0.00635391
0.00688872
0.00744303
0.00801657
0.00860953
0.00922223
0.00985485
0.0105076
0.0111809
0.0118755
0.0125913
0.013329
0.0140892
0.0148723
0.015679
0.0165095
0.0173646
0.0182449
0.0191507
0.0200827
0.0210415
0.0220272
0.0230402
0.0240811
0.0251497
0.0262444
0.00239551
0.00116755
0.0011424
0.00136031
0.00159826
0.00186047
0.002153
0.00247734
0.00283318
0.00322335
0.00364027
0.00407819
0.00453522
0.0050109
0.00550436
0.00601515
0.00654299
0.0070879
0.00764939
0.00822706
0.00882098
0.00943114
0.0100576
0.0107005
0.0113599
0.0120362
0.0127297
0.0134405
0.0141691
0.0149155
0.0156804
0.0164641
0.0172671
0.0180895
0.0189317
0.0197943
0.0206774
0.0215815
0.022507
0.0234541
0.0244229
0.0254136
0.0264231
0.00290204
0.0013906
0.001277
0.00151919
0.00179404
0.00210017
0.00243941
0.00281002
0.00321139
0.00364585
0.00410301
0.00457886
0.00507237
0.00558249
0.00610842
0.00664969
0.00720578
0.00777633
0.00836088
0.00895906
0.00957034
0.0101951
0.010833
0.0114845
0.0121491
0.0128271
0.0135187
0.0142242
0.0149433
0.0156766
0.0164243
0.0171865
0.0179632
0.0187552
0.0195623
0.0203849
0.0212231
0.0220773
0.0229477
0.0238345
0.0247381
0.0256593
0.026602
0.00332506
0.00159142
0.0014067
0.00167689
0.00199036
0.00233894
0.0027209
0.00313316
0.0035763
0.00404944
0.00454242
0.00505252
0.00557849
0.00611939
0.00667446
0.00724293
0.00782415
0.00841721
0.00902181
0.00963774
0.0102644
0.0109016
0.0115494
0.0122075
0.0128764
0.0135553
0.0142447
0.0149444
0.0156548
0.0163754
0.0171066
0.0178488
0.0186015
0.0193652
0.0201399
0.0209257
0.0217227
0.0225314
0.0233516
0.0241837
0.0250278
0.0258844
0.0267539
0.00367424
0.00176897
0.00153158
0.00183214
0.00218352
0.00257148
0.00299193
0.0034415
0.00392323
0.00443057
0.00495574
0.00549658
0.006052
0.00662071
0.00720187
0.00779441
0.00839753
0.00901064
0.00963311
0.0102646
0.0109046
0.0115529
0.0122093
0.0128732
0.0135449
0.0142244
0.0149113
0.0156055
0.0163069
0.0170156
0.0177316
0.0184549
0.0191855
0.0199232
0.0206681
0.0214202
0.0221798
0.0229467
0.0237213
0.0245035
0.0252933
0.0260907
0.026895
0.00396229
0.00191988
0.00165454
0.00198574
0.00237154
0.00279456
0.00324959
0.00373325
0.00424925
0.00478713
0.00534138
0.00591046
0.00649265
0.00708666
0.0076911
0.00830499
0.00892801
0.00955925
0.0101982
0.0108439
0.0114962
0.0121546
0.012818
0.0134861
0.0141599
0.01484
0.0155245
0.0162127
0.016905
0.0176015
0.0183038
0.0190101
0.0197202
0.0204335
0.0211508
0.0218717
0.0225971
0.0233262
0.0240594
0.0247959
0.0255365
0.0262813
0.0270289
0.00428554
0.00208604
0.00176118
0.00211887
0.00254528
0.00300778
0.0034948
0.00401082
0.00455821
0.00512472
0.00571044
0.00630901
0.00691422
0.00752765
0.00815036
0.00878296
0.00942614
0.0100748
0.0107309
0.01139
0.0120552
0.0127232
0.0133863
0.0140529
0.0147294
0.0154144
0.0160938
0.0167736
0.0174542
0.0181359
0.0188306
0.0195198
0.0202116
0.0208999
0.0215914
0.0222829
0.0229785
0.0236719
0.0243689
0.025062
0.0257588
0.0264591
0.0271598
0.000311459
0.00120015
0.00253441
0.00386711
0.0051589
0.00641981
0.00764979
0.00885027
0.0100238
0.011175
0.0123073
0.013424
0.0145284
0.015623
0.0167148
0.017817
0.018941
0.0200857
0.0212413
0.0224476
0.0237745
0.0252026
0.0267076
0.0282715
0.0298835
0.0315352
0.0332206
0.034935
0.0366749
0.038437
0.0402189
0.0420185
0.043834
0.0456639
0.0475067
0.0493602
0.0512237
0.0530953
0.0549737
0.0568573
0.058746
0.0606398
0.0625449
0.000286355
0.000887169
0.00201653
0.003224
0.00434672
0.00540631
0.00643698
0.00746069
0.00848416
0.00951077
0.0105424
0.0115799
0.0126242
0.0136759
0.0147368
0.0158102
0.0169006
0.0180109
0.0191457
0.0203226
0.0215669
0.0228806
0.0242456
0.0256698
0.0272167
0.028859
0.0305692
0.0323312
0.0341331
0.0359669
0.0378268
0.0397079
0.0416069
0.043521
0.0454476
0.0473848
0.0493309
0.0512841
0.0532422
0.055205
0.057171
0.0591401
0.0611118
0.000178291
0.00060558
0.00141113
0.00245986
0.00373452
0.00497459
0.00611805
0.00717928
0.00818101
0.00914163
0.0100761
0.0109971
0.0119156
0.0128407
0.0137797
0.0147387
0.0157237
0.0167401
0.0177946
0.0188962
0.0200546
0.0212764
0.0225619
0.023915
0.025347
0.0268443
0.0284204
0.0301193
0.0319072
0.0337585
0.035656
0.0375879
0.0395456
0.0415231
0.0435163
0.0455214
0.0475361
0.0495574
0.0515836
0.0536136
0.0556456
0.0576793
0.0597161
0.00020013
0.000544913
0.00125373
0.00216773
0.00329212
0.0045567
0.00579487
0.00696351
0.00806183
0.0090945
0.0100681
0.0109913
0.011875
0.0127318
0.0135753
0.0144191
0.0152766
0.0161605
0.0170831
0.0180556
0.0190882
0.0201897
0.0213663
0.0226218
0.0239569
0.025368
0.0268558
0.0284217
0.0300609
0.0318297
0.0336974
0.0356334
0.0376171
0.0396348
0.0416769
0.0437362
0.0458082
0.0478889
0.0499755
0.0520656
0.0541574
0.0562504
0.0583427
0.000189186
0.000503753
0.00115792
0.00199591
0.00302027
0.0042246
0.00550201
0.00674676
0.00792916
0.00904588
0.0100989
0.0110907
0.0120242
0.0129049
0.0137413
0.014545
0.0153306
0.0161145
0.0169149
0.0177495
0.0186355
0.0195882
0.02062
0.0217398
0.0229514
0.0242551
0.0256479
0.0271244
0.0286796
0.0303187
0.0320423
0.0338996
0.0358539
0.0378742
0.0399391
0.0420341
0.0441499
0.0462797
0.0484181
0.0505616
0.0527078
0.0548551
0.0570022
0.000193896
0.00048474
0.00110821
0.00190181
0.0028672
0.00400513
0.00527144
0.00655687
0.00780233
0.00898987
0.0101163
0.0111812
0.0121846
0.0131271
0.0140109
0.0148408
0.0156253
0.0163768
0.0171118
0.0178499
0.0186128
0.0194225
0.0202997
0.0212618
0.022321
0.0234841
0.0247525
0.0261221
0.0275868
0.0291391
0.0307738
0.0324951
0.0343263
0.0362844
0.0383295
0.0404319
0.0425719
0.0447362
0.0469159
0.049105
0.051299
0.0534948
0.0556893
0.000194422
0.000470109
0.00107103
0.00183405
0.00275871
0.00384641
0.00508305
0.00638797
0.00768257
0.00893147
0.0101234
0.0112556
0.0123268
0.0133361
0.0142827
0.0151672
0.0159923
0.0167641
0.0174927
0.0181931
0.0188849
0.0195916
0.0203384
0.0211503
0.0220493
0.0230522
0.0241689
0.0254024
0.0267495
0.0282028
0.0297527
0.0313909
0.0331156
0.0349326
0.0368917
0.0389567
0.041091
0.0432696
0.0454763
0.0477004
0.0499344
0.0521726
0.0544112
0.000196895
0.000460677
0.00104674
0.00178839
0.00268433
0.00373556
0.00493869
0.00624473
0.00757286
0.0088728
0.0101232
0.0113171
0.0124515
0.0135248
0.0145351
0.0154809
0.0163618
0.0171794
0.0179382
0.0186469
0.0193192
0.0199741
0.0206357
0.0213312
0.0220889
0.0229346
0.0238892
0.0249658
0.0261695
0.0274976
0.0289423
0.0304923
0.0321364
0.0338666
0.0356912
0.0376512
0.0397335
0.0418961
0.0441095
0.0463548
0.0486185
0.0508919
0.053169
0.000198589
0.000453261
0.00102773
0.00175321
0.00262737
0.00365084
0.0048238
0.00612027
0.00746998
0.00881226
0.0101155
0.0113663
0.01256
0.0136938
0.0147652
0.0157721
0.0167123
0.0175849
0.018391
0.0191341
0.0198223
0.0204683
0.0210908
0.0217143
0.0223674
0.0230808
0.0238835
0.0247996
0.0258448
0.0270261
0.0283414
0.0297822
0.0313357
0.0329887
0.0347325
0.0365721
0.0385389
0.0406402
0.0428307
0.045077
0.0473569
0.0496561
0.0519651
0.000200367
0.000447695
0.00101349
0.00172645
0.00258381
0.00358562
0.00473339
0.00601449
0.00737504
0.00875064
0.0101002
0.0114038
0.0126531
0.013844
0.0149738
0.0160396
0.0170386
0.0179686
0.0188282
0.0196182
0.0203421
0.0210072
0.0216264
0.0222183
0.022808
0.0234254
0.0241031
0.0248726
0.0257603
0.026784
0.0279519
0.029262
0.030705
0.0322672
0.0339341
0.0356955
0.0375526
0.0395355
0.0416608
0.0438803
0.0461584
0.0484714
0.0508044
0.000201788
0.000443199
0.0010019
0.00170481
0.00254861
0.00353296
0.00465961
0.00592344
0.00728676
0.00868758
0.0100775
0.0114295
0.012731
0.0139763
0.0151616
0.0162839
0.0173401
0.018327
0.019242
0.0200839
0.0208532
0.0215536
0.0221927
0.0227834
0.0233452
0.023904
0.024491
0.0251406
0.0258862
0.0267557
0.0277683
0.0289324
0.0302457
0.0316981
0.0332748
0.03496
0.0367416
0.0386199
0.0406285
0.0427827
0.0450335
0.0473432
0.0496884
0.00020299
0.000439446
0.000992293
0.00168699
0.00251962
0.00348953
0.00459853
0.0058453
0.0072054
0.00862378
0.0100478
0.0114438
0.0127944
0.0140911
0.0153295
0.016506
0.0176171
0.0186595
0.0196296
0.0205251
0.0213445
0.0220887
0.0227615
0.0233711
0.0239316
0.0244633
0.0249934
0.0255548
0.0261835
0.0269142
0.0277757
0.0287877
0.0299581
0.0312835
0.0327527
0.0343494
0.0360565
0.0378613
0.0397652
0.041808
0.0439968
0.0462799
0.0486179
0.000203915
0.000436217
0.000984217
0.00167184
0.00249511
0.00345284
0.00454679
0.00577759
0.00713033
0.00855979
0.010012
0.0114474
0.0128436
0.0141892
0.0154783
0.0167066
0.0178707
0.0189667
0.0199909
0.0209398
0.0218109
0.022603
0.0233174
0.0239587
0.0245359
0.0250645
0.0255662
0.0260701
0.0266109
0.0272258
0.0279507
0.0288147
0.0298366
0.031023
0.0323693
0.0338623
0.0354841
0.0372168
0.0390474
0.0409819
0.0430679
0.0452942
0.0476082
0.000204563
0.000433424
0.000977108
0.00165873
0.00247381
0.00342106
0.00450199
0.00571818
0.00706138
0.00849633
0.00997075
0.011441
0.0128794
0.0142712
0.0156086
0.0168867
0.0181017
0.0192495
0.0203262
0.0213276
0.0222506
0.0230925
0.0238527
0.024533
0.025139
0.0256813
0.0261767
0.0266493
0.0271301
0.0276556
0.0282645
0.0289931
0.0298698
0.030912
0.0321241
0.0334992
0.035022
0.0366734
0.0384348
0.0402952
0.0422662
0.0444022
0.0466705
0.000204957
0.000430877
0.000970883
0.00164706
0.00245489
0.00339299
0.00446245
0.00566548
0.00699784
0.00843366
0.0099251
0.0114254
0.0129026
0.014338
0.0157215
0.0170473
0.0183111
0.0195088
0.0206363
0.021689
0.0226632
0.0235554
0.0243635
0.0250872
0.0257294
0.0262969
0.0268021
0.0272641
0.0277092
0.0281709
0.0286876
0.029299
0.0300412
0.0309411
0.0320137
0.0332603
0.0346713
0.0362292
0.0379142
0.0397076
0.0416014
0.0436201
0.0458109
0.00020515
0.000428613
0.000965168
0.00163645
0.00243791
0.00336768
0.00442695
0.00561797
0.0069392
0.00837239
0.00987576
0.0114017
0.012914
0.0143901
0.0158176
0.0171892
0.0185
0.0197458
0.0209222
0.0220249
0.0230492
0.0239913
0.0248479
0.0256174
0.0263003
0.0269007
0.0274272
0.0278942
0.0283235
0.028744
0.0291919
0.0297073
0.0303306
0.0310967
0.0320302
0.0331425
0.0344315
0.0358847
0.0374824
0.0392042
0.0410333
0.0429676
0.0450512
0.000205107
0.000426475
0.000959839
0.00162678
0.00242228
0.00334455
0.00439452
0.00557444
0.00688462
0.00831282
0.0098237
0.0113708
0.0129144
0.0144285
0.0158977
0.0173131
0.0186692
0.0199614
0.0211851
0.0223361
0.0234093
0.0244004
0.0253055
0.0261218
0.0268482
0.0274864
0.028042
0.0285256
0.0289543
0.0293527
0.0297531
0.030194
0.030717
0.0313624
0.032163
0.03314
0.0343007
0.0356391
0.0371393
0.0387809
0.0405436
0.0424142
0.0444067
0.000204811
0.000424463
0.000954844
0.0016176
0.00240766
0.00332301
0.00436442
0.00553412
0.00683358
0.00825483
0.00976959
0.0113335
0.0129049
0.0144541
0.0159627
0.0174201
0.0188196
0.0201565
0.021426
0.0226236
0.0237443
0.0247834
0.0257365
0.0265998
0.0273711
0.0280501
0.0286401
0.0291486
0.0295885
0.0299801
0.0303514
0.0307376
0.0311798
0.0317205
0.0323988
0.0332447
0.0342748
0.0354915
0.036885
0.0384367
0.0401258
0.0419337
0.0438535
0.000204298
0.000422543
0.000950075
0.00160888
0.0023938
0.00330274
0.00433613
0.00549643
0.00678546
0.00819871
0.00971409
0.0112909
0.0128866
0.0144678
0.0160134
0.0175108
0.0189522
0.0203321
0.0216457
0.0228884
0.0240553
0.0251412
0.0261412
0.0270513
0.027868
0.0285898
0.0292179
0.0297569
0.0302168
0.0306136
0.0309709
0.0313202
0.0317001
0.0321535
0.0327231
0.0334457
0.0343471
0.0354388
0.0367181
0.0381712
0.039778
0.0415168
0.0433682
0.000203594
0.000420715
0.000945419
0.00160049
0.00238051
0.00328331
0.0043093
0.00546065
0.00673968
0.00814442
0.00965774
0.0112439
0.0128599
0.0144704
0.0160508
0.0175862
0.0190677
0.020489
0.0218453
0.0231317
0.0243432
0.0254746
0.0265207
0.0274768
0.0283389
0.0291044
0.0297728
0.0303465
0.0308327
0.0312439
0.0315995
0.031927
0.0322617
0.0326449
0.0331208
0.0337312
0.0345095
0.035476
0.0366368
0.0379838
0.0394998
0.041162
0.0429467
0.000202703
0.000418885
0.000940891
0.00159231
0.00236766
0.00326464
0.00428349
0.0054264
0.00669596
0.00809157
0.00960101
0.0111932
0.0128263
0.0144628
0.0160755
0.0176471
0.019167
0.0206283
0.0220257
0.0233543
0.024609
0.0257845
0.0268756
0.027877
0.0287842
0.0295936
0.0303035
0.0309148
0.0314319
0.0318644
0.0322281
0.0325464
0.0328507
0.0331798
0.0335777
0.0340887
0.0347523
0.0355971
0.0366376
0.0378732
0.039291
0.0408696
0.0425835
0.000201658
0.000417001
0.000936399
0.00158429
0.00235512
0.00324646
0.00425853
0.00539342
0.0066537
0.00804013
0.00954413
0.0111394
0.0127863
0.0144459
0.0160885
0.0176943
0.0192509
0.0207506
0.0221877
0.0235571
0.0248537
0.026072
0.0272068
0.0282525
0.0292041
0.0300574
0.0308096
0.0314602
0.0320116
0.0324706
0.0328499
0.0331693
0.0334559
0.0337457
0.0340806
0.0345061
0.0350656
0.0357945
0.0367157
0.0378368
0.0391509
0.0406397
0.0422789
0.000200441
0.000415179
0.00093194
0.00157639
0.00234281
0.00322866
0.0042343
0.00536136
0.00661283
0.00799005
0.00948733
0.0110833
0.0127409
0.0144207
0.0160906
0.0177285
0.0193202
0.0208569
0.0223323
0.0237411
0.0250781
0.0263381
0.0275153
0.0286042
0.0295995
0.0304963
0.0312911
0.0319819
0.0325698
0.0330593
0.0334602
0.0337888
0.0340686
0.0343317
0.0346177
0.0349715
0.0354386
0.0360599
0.0368657
0.0378717
0.0390779
0.0404716
0.0420313
0.00019909
0.000413255
0.000927492
0.00156855
0.00233062
0.00321127
0.00421048
0.00533019
0.00657301
0.00794106
0.00943096
0.0110253
0.0126908
0.0143879
0.0160827
0.0177506
0.0193757
0.0209479
0.0224602
0.0239071
0.0252833
0.0265835
0.027802
0.028933
0.029971
0.0309107
0.0317479
0.0324797
0.0331057
0.0336285
0.0340555
0.0343998
0.0346815
0.0349291
0.035179
0.0354743
0.0358614
0.0363848
0.0370809
0.0379734
0.0390699
0.0403635
0.0418351
0.000197625
0.0004114
0.000923085
0.00156076
0.0023186
0.003194
0.00418709
0.00529957
0.00653406
0.00789312
0.00937486
0.010966
0.0126367
0.0143484
0.0160656
0.0177614
0.0194181
0.0210244
0.0225722
0.024056
0.0254701
0.0268092
0.0280678
0.0292398
0.0303196
0.0313015
0.0321807
0.0329536
0.0336185
0.0341767
0.0346332
0.0349984
0.0352893
0.0355307
0.0357558
0.0360051
0.0363245
0.0367605
0.0373546
0.0381372
0.0391239
0.0403139
0.0416921
0.000195995
0.00040945
0.000918629
0.00155296
0.00230656
0.00317692
0.00416399
0.00526934
0.00649579
0.0078459
0.0093193
0.0109056
0.0125792
0.0143029
0.0160399
0.0177616
0.0194484
0.0210871
0.0226692
0.0241884
0.0256392
0.0270162
0.0283135
0.0295255
0.0306459
0.0316692
0.0325899
0.0334038
0.0341083
0.0347031
0.0351917
0.0355819
0.0358878
0.036131
0.036341
0.0365556
0.0368192
0.0371788
0.0376796
0.0383579
0.0392368
0.0403238
0.0416144
0.000194255
0.000407492
0.000914168
0.00154515
0.00229463
0.00316003
0.00414112
0.0052396
0.00645804
0.00779943
0.00926414
0.0108447
0.012519
0.014252
0.0160065
0.0177521
0.019467
0.0211367
0.0227517
0.0243053
0.0257915
0.027205
0.0285401
0.0297908
0.030951
0.0320147
0.0329762
0.0338308
0.034575
0.0352074
0.0357299
0.0361482
0.036474
0.0367255
0.0369288
0.0371189
0.0373376
0.0376319
0.0380487
0.0386295
0.039404
0.0403873
0.0415792
0.000192411
0.000405498
0.000909694
0.00153736
0.00228269
0.00314309
0.00411839
0.00521008
0.00642075
0.0077535
0.00920949
0.0107834
0.0124565
0.0141965
0.0159662
0.0177336
0.0194748
0.021174
0.0228207
0.0244073
0.0259278
0.0273768
0.0287484
0.0300366
0.0312354
0.0323387
0.0333403
0.0342351
0.035019
0.0356895
0.0362472
0.0366962
0.0370455
0.0373106
0.0375146
0.0376889
0.037873
0.0381124
0.0384551
0.0389461
0.0396208
0.0405014
0.0415933
0.00019046
0.000403506
0.00090517
0.00152953
0.0022708
0.00312628
0.00409584
0.00518077
0.00638394
0.00770805
0.00915521
0.0107217
0.0123922
0.014137
0.0159195
0.0177065
0.0194725
0.0211997
0.0228767
0.0244951
0.0260488
0.027532
0.028939
0.0302638
0.0315002
0.032642
0.033683
0.0346174
0.0354407
0.0361496
0.0367435
0.0372248
0.0376006
0.0378837
0.0380944
0.0382608
0.0384194
0.0386139
0.0388923
0.0393017
0.0398825
0.0406627
0.0416537
0.000188411
0.00040148
0.000900644
0.00152166
0.0022588
0.00310946
0.00407325
0.00515169
0.00634725
0.00766305
0.00910125
0.01066
0.0123265
0.0140741
0.0158673
0.0176718
0.0194606
0.0212144
0.0229203
0.0245694
0.0261552
0.0276715
0.0291129
0.0304731
0.0317461
0.0329255
0.0340048
0.0349782
0.0358405
0.0365879
0.0372184
0.0377334
0.0381381
0.0384429
0.0386654
0.0388305
0.0389717
0.0391306
0.0393541
0.0396906
0.0401843
0.0408692
0.0417661
0.000186266
0.000399406
0.000896069
0.00151374
0.00224681
0.0030926
0.00405081
0.00512268
0.00631087
0.0076183
0.00904772
0.0105981
0.0122595
0.0140081
0.0158099
0.01763
0.0194399
0.0212187
0.0229523
0.0246309
0.0262476
0.027796
0.0292707
0.0306653
0.0319738
0.0331898
0.0343067
0.0353184
0.0362192
0.0370047
0.0376724
0.038222
0.0386573
0.0389868
0.0392252
0.0393947
0.0395259
0.0396576
0.0398353
0.0401075
0.0405211
0.0411148
0.0419133