/*--------------------------------*- C++ -*----------------------------------*\
| =========                 |                                                 |
| \\      /  F ield         | OpenFOAM: The Open Source CFD Toolbox           |
|  \\    /   O peration     | Version:  2.3.0                                 |
|   \\  /    A nd           | Web:      www.OpenFOAM.org                      |
|    \\/     M anipulation  |                                                 |
\*---------------------------------------------------------------------------*/
FoamFile
{
    version     2.0;
    format      ascii;
    class       volScalarField;
    location    "10000";
    object      nuTilda;
}
// * * * * * * * * * * * * * * * * * * * * * * * * * * * * * * * * * * * * * //

dimensions      [0 2 -1 0 0 0 0];

internalField   nonuniform List<scalar> 
123156
(
0.0374044
0.0361366
0.0348891
0.0336614
0.0324547
0.0312689
0.0301038
0.0289601
0.0278376
0.026737
0.025657
0.0245982
0.02356
0.0225426
0.0215459
0.0205692
0.0196129
0.0186761
0.0177585
0.0168598
0.0159807
0.0151201
0.014278
0.0134547
0.0126496
0.0118617
0.0110919
0.01034
0.00960504
0.00888799
0.00818833
0.0075056
0.00684156
0.00619596
0.00556968
0.00496483
0.00438415
0.00382838
0.00330334
0.00281361
0.0023636
0.00194098
0.00141935
0.0380022
0.0368501
0.0357149
0.0345957
0.0334937
0.0324076
0.0313377
0.0302847
0.0292484
0.0282282
0.0272249
0.0262375
0.025266
0.0243105
0.0233704
0.0224465
0.0215369
0.0206423
0.0197624
0.0188972
0.0180462
0.0172091
0.0163863
0.0155774
0.0147823
0.0140015
0.0132349
0.0124828
0.0117459
0.0110245
0.0103186
0.00963044
0.00896073
0.00831023
0.00768158
0.0070786
0.00650248
0.00595811
0.00544881
0.00497934
0.00455277
0.00417276
0.00384183
0.0385713
0.0375227
0.0364882
0.0354663
0.0344572
0.0334603
0.0324765
0.0315052
0.030546
0.0295994
0.0286653
0.0277431
0.0268331
0.0259349
0.0250487
0.0241732
0.0233094
0.0224565
0.0216144
0.020783
0.0199623
0.0191524
0.0183532
0.0175653
0.0167883
0.0160225
0.0152683
0.0145266
0.0137983
0.0130836
0.0123839
0.0117007
0.0110357
0.0103902
0.00976728
0.00916996
0.00860198
0.00806541
0.00756402
0.00710298
0.00668596
0.00631371
0.00599079
0.0391093
0.038154
0.0372094
0.0362739
0.035348
0.0344311
0.0335236
0.0326246
0.0317347
0.030854
0.0299815
0.0291177
0.0282629
0.0274167
0.0265785
0.0257477
0.0249254
0.0241109
0.0233031
0.0225033
0.0217115
0.0209271
0.020151
0.0193828
0.0186234
0.017873
0.0171318
0.0164011
0.0156823
0.0149753
0.0142822
0.0136045
0.0129443
0.0123032
0.0116842
0.0110902
0.0105242
0.00998983
0.00949008
0.00902933
0.00860886
0.00823184
0.00790085
0.0396155
0.0387438
0.0378793
0.0370214
0.0361697
0.0353239
0.0344835
0.0336485
0.0328203
0.0319974
0.0311799
0.0303683
0.0295621
0.0287622
0.0279666
0.0271757
0.0263907
0.0256105
0.0248342
0.0240629
0.023297
0.022536
0.0217801
0.0210305
0.0202872
0.0195506
0.0188207
0.0181004
0.0173894
0.0166891
0.0160013
0.0153279
0.0146714
0.0140326
0.0134153
0.0128221
0.012256
0.0117195
0.0112179
0.0107527
0.0103266
0.00994294
0.00960197
0.0400872
0.0392916
0.0384995
0.0377105
0.0369249
0.0361422
0.0353617
0.034584
0.0338093
0.0330372
0.0322683
0.0315023
0.0307394
0.0299797
0.0292223
0.0284673
0.0277154
0.0269655
0.0262171
0.0254718
0.0247285
0.0239877
0.0232504
0.0225166
0.0217875
0.0210623
0.0203432
0.0196314
0.018927
0.018232
0.0175483
0.0168782
0.0162234
0.0155863
0.0149693
0.0143751
0.0138064
0.0132674
0.0127623
0.0122916
0.0118594
0.0114679
0.011119
0.0405274
0.0397994
0.0390717
0.0383444
0.0376171
0.0368903
0.0361632
0.0354362
0.034709
0.0339817
0.0332552
0.0325295
0.0318042
0.0310797
0.0303556
0.0296327
0.0289103
0.0281869
0.0274637
0.0267408
0.0260179
0.0252958
0.0245741
0.0238546
0.0231371
0.0224224
0.0217123
0.0210072
0.0203082
0.0196178
0.0189375
0.0182687
0.0176154
0.0169782
0.0163606
0.0157649
0.0151942
0.0146527
0.014142
0.0136658
0.0132275
0.0128291
0.0124715
0.0409378
0.0402701
0.0395988
0.0389261
0.038251
0.0375731
0.036894
0.0362126
0.0355263
0.0348383
0.0341487
0.0334585
0.0327663
0.0320719
0.0313771
0.0306827
0.0299873
0.0292881
0.0285854
0.0278828
0.0271787
0.0264728
0.0257648
0.0250576
0.0243503
0.0236449
0.0229429
0.0222441
0.0215487
0.020861
0.0201824
0.0195156
0.0188618
0.0182246
0.0176071
0.0170095
0.0164365
0.0158907
0.0153752
0.0148952
0.0144502
0.0140451
0.0136817
0.0413193
0.040708
0.0400822
0.0394605
0.038831
0.0381951
0.0375583
0.0369193
0.0362677
0.0356145
0.0349547
0.0342961
0.0336349
0.0329655
0.0322947
0.031625
0.0309553
0.0302823
0.0295929
0.0289087
0.0282212
0.0275315
0.026835
0.0261391
0.0254396
0.0247432
0.0240478
0.0233568
0.022661
0.021974
0.021298
0.0206323
0.0199772
0.0193392
0.0187243
0.0181251
0.0175481
0.0170003
0.0164793
0.015996
0.0155425
0.0151326
0.0147674
0.00115576
0.00114204
0.00119583
0.00129312
0.0014287
0.00159725
0.00179045
0.00200238
0.00222812
0.00246309
0.002705
0.00295277
0.00320462
0.00346054
0.00371975
0.00398331
0.00425022
0.0045217
0.00479768
0.00507896
0.00536594
0.00565944
0.00595944
0.00626757
0.0065834
0.00690792
0.007242
0.00758587
0.0079402
0.00830581
0.00868272
0.00907214
0.00947437
0.00988969
0.010319
0.0107629
0.0112218
0.0116963
0.0121874
0.0126958
0.0132223
0.0137674
0.0143311
0.00358388
0.00344498
0.00338692
0.00337649
0.00340374
0.0034644
0.00355686
0.00367808
0.00382227
0.00398588
0.00416652
0.0043605
0.00456557
0.00478217
0.00500872
0.00524421
0.00548872
0.00574144
0.00600182
0.006271
0.00654782
0.00683307
0.00712665
0.00742841
0.0077387
0.00805808
0.0083865
0.00872406
0.00907111
0.0094281
0.00979534
0.010173
0.0105615
0.010961
0.0113719
0.0117946
0.0122297
0.0126778
0.0131394
0.0136154
0.0141064
0.0146131
0.0151366
0.00571799
0.00549312
0.00532106
0.00519886
0.00512971
0.0051302
0.005187
0.00527379
0.0053808
0.00550516
0.00564649
0.00580497
0.00598117
0.00617256
0.00637693
0.00659282
0.0068199
0.00705692
0.00730485
0.00756135
0.00782811
0.00810253
0.00838634
0.00867793
0.00897801
0.00928624
0.00960298
0.00992794
0.0102614
0.0106038
0.0109545
0.0113138
0.011682
0.0120595
0.0124463
0.012843
0.01325
0.0136677
0.0140969
0.0145381
0.0149918
0.0154588
0.0159401
0.00761292
0.00736827
0.00716545
0.00700684
0.00689273
0.00682275
0.00679416
0.00680174
0.00684317
0.0069191
0.00703509
0.00718354
0.00735103
0.0075312
0.00772216
0.00792522
0.00814023
0.00836784
0.00860521
0.00885272
0.0091084
0.00937296
0.00964466
0.00992425
0.0102121
0.0105074
0.0108104
0.0111202
0.0114378
0.0117623
0.0120936
0.0124322
0.0127784
0.013132
0.0134934
0.0138631
0.0142414
0.0146289
0.0150259
0.0154328
0.0158502
0.0162785
0.0167187
0.00930459
0.00904679
0.00883153
0.00865656
0.00852271
0.00842885
0.00837223
0.00835113
0.00836295
0.00840645
0.008479
0.00857867
0.00870145
0.00884478
0.00900947
0.00919671
0.00940357
0.00962314
0.00985181
0.0100886
0.0103332
0.0105852
0.0108455
0.011114
0.0113897
0.0116722
0.0119608
0.0122557
0.0125566
0.0128631
0.0131752
0.0134934
0.0138178
0.0141482
0.0144856
0.0148299
0.0151816
0.0155405
0.0159074
0.0162825
0.016666
0.0170579
0.0174589
0.010811
0.010545
0.0103194
0.0101347
0.00998928
0.00988257
0.00981254
0.00977668
0.00977228
0.00979804
0.00985134
0.00993061
0.0100328
0.0101559
0.0102992
0.0104619
0.0106408
0.0108343
0.0110393
0.0112558
0.0114835
0.0117225
0.011972
0.0122287
0.0124925
0.0127618
0.0130365
0.0133162
0.0136007
0.0138898
0.014184
0.0144829
0.0147871
0.0150972
0.0154127
0.0157341
0.0160614
0.0163946
0.0167341
0.0170803
0.0174328
0.0177916
0.0181575
0.0121555
0.0118813
0.0116482
0.0114547
0.0113015
0.0111866
0.0111074
0.0110621
0.0110486
0.0110639
0.0111063
0.0111746
0.0112652
0.0113764
0.0115078
0.0116563
0.011821
0.0119991
0.0121885
0.0123886
0.0125997
0.0128212
0.0130512
0.0132891
0.0135348
0.0137865
0.0140435
0.0143059
0.0145737
0.0148458
0.0151221
0.0154033
0.0156899
0.015981
0.0162769
0.0165775
0.0168824
0.0171924
0.0175074
0.0178272
0.0181513
0.0184796
0.0188115
0.013357
0.013075
0.0128349
0.0126347
0.0124756
0.0123551
0.0122683
0.0122162
0.0121961
0.0122046
0.012241
0.0123023
0.0123861
0.0124902
0.012614
0.0127534
0.0129107
0.0130777
0.0132542
0.0134416
0.0136412
0.0138499
0.0140665
0.0142909
0.0145245
0.0147601
0.0150012
0.0152491
0.0155
0.0157539
0.0160121
0.0162759
0.0165447
0.0168174
0.0170943
0.0173748
0.0176579
0.0179454
0.0182373
0.0185322
0.0188298
0.0191301
0.0194347
0.0144304
0.0141418
0.0138977
0.0136902
0.0135262
0.0134042
0.0133082
0.0132498
0.0132266
0.0132306
0.0132627
0.0133209
0.0133989
0.013497
0.0136193
0.0137499
0.0139088
0.0140587
0.0142225
0.0144008
0.0145966
0.0147946
0.015
0.015215
0.0154433
0.0156572
0.0158891
0.0161263
0.0163597
0.0165975
0.0168417
0.0170931
0.0173488
0.0176043
0.0178661
0.0181288
0.0183904
0.0186591
0.0189319
0.0192029
0.0194764
0.0197517
0.0200349
0.0125354
0.0118381
0.0111696
0.0105295
0.00991688
0.00933099
0.00877092
0.00823579
0.00772469
0.00723679
0.00677129
0.00632741
0.00590443
0.00550173
0.00511862
0.00475454
0.00440881
0.0040808
0.00376993
0.00347558
0.00319733
0.00293473
0.00268742
0.00245524
0.00223829
0.00203703
0.00185254
0.00168688
0.00154215
0.00141716
0.00130657
0.00120562
0.00111083
0.00101973
0.000930425
0.00084145
0.000751545
0.000659644
0.000564787
0.000466185
0.000363831
0.000261009
0.000142969
0.0125477
0.0119029
0.011282
0.0106848
0.0101109
0.00955954
0.00903014
0.00852192
0.00803418
0.00756623
0.00711739
0.00668704
0.00627461
0.00587952
0.00550125
0.00513937
0.00479338
0.00446283
0.00414723
0.00384612
0.00355913
0.0032859
0.00302616
0.00277971
0.00254651
0.00232674
0.00212092
0.00193028
0.00175719
0.00160504
0.00147122
0.00135149
0.00124214
0.00113995
0.0010422
0.000946565
0.000851181
0.000754459
0.000655047
0.000552007
0.000445551
0.000339555
0.000232632
0.0125645
0.0119692
0.0113937
0.0108377
0.0103011
0.0097832
0.00928347
0.00880132
0.00833624
0.00788766
0.00745508
0.00703798
0.00663596
0.00624853
0.00587531
0.00551592
0.00517009
0.00483748
0.00451773
0.00421052
0.0039156
0.0036327
0.0033616
0.00310217
0.00285436
0.00261824
0.00239411
0.00218272
0.00198584
0.00180773
0.00164935
0.00150748
0.0013792
0.00126163
0.0011518
0.00104684
0.000944082
0.000841225
0.000736376
0.000628269
0.000517325
0.000408439
0.000307212
0.0125922
0.0120353
0.0114993
0.0109807
0.0104783
0.00999115
0.00951884
0.00906091
0.00861693
0.0081865
0.00776921
0.00736472
0.00697266
0.00659271
0.0062246
0.00586804
0.00552282
0.00518876
0.00486567
0.00455336
0.00425164
0.0039603
0.00367927
0.00340846
0.00314785
0.00289755
0.00265776
0.002429
0.00221253
0.00201159
0.00183036
0.00166645
0.00151774
0.00138229
0.00125766
0.00114092
0.00102897
0.000918829
0.000807941
0.000694565
0.000579196
0.000467708
0.000369279
0.0126075
0.0120955
0.0115974
0.011113
0.0106416
0.0101826
0.00973541
0.00929972
0.00887521
0.00846152
0.00805845
0.00766572
0.00728307
0.0069103
0.00654723
0.00619363
0.00584941
0.00551446
0.00518869
0.00487204
0.00456442
0.00426575
0.00397602
0.00369522
0.00342338
0.00316062
0.00290718
0.00266347
0.00243038
0.00221028
0.00200834
0.00182396
0.00165532
0.00150129
0.00136034
0.00123008
0.00110741
0.000988917
0.000871412
0.00075264
0.000632959
0.000518996
0.000422142
0.0126209
0.0121497
0.0116874
0.0112347
0.0107918
0.0103584
0.00993424
0.00951893
0.00911225
0.008714
0.00832404
0.00794222
0.0075684
0.00720246
0.00684425
0.00649366
0.00615065
0.00581516
0.00548721
0.00516687
0.00485413
0.00454903
0.0042516
0.00396195
0.00368013
0.00340634
0.00314078
0.00288389
0.00263642
0.00240008
0.00217948
0.00197669
0.00178958
0.00161753
0.00145994
0.00131523
0.00118074
0.00105298
0.000928332
0.000803977
0.000680043
0.000563705
0.000468019
0.0126349
0.0121994
0.0117695
0.0113461
0.0109295
0.0105196
0.0101166
0.0097201
0.0093299
0.00894582
0.00856778
0.00819587
0.00783024
0.00747081
0.00711742
0.00676994
0.00642835
0.00609265
0.00576296
0.00543933
0.00512195
0.00481101
0.00450667
0.00420908
0.00391837
0.00363468
0.00335824
0.00308957
0.00282932
0.00257887
0.00234174
0.00212245
0.00191864
0.00172982
0.00155615
0.00139695
0.00125014
0.0011125
0.000980189
0.000849987
0.000721756
0.000603071
0.000508445
0.01265
0.0122456
0.0118447
0.0114478
0.0110551
0.0106671
0.0102836
0.00990494
0.00953042
0.0091595
0.0087921
0.00842858
0.0080702
0.00771718
0.00736895
0.0070251
0.00668573
0.00635044
0.0060196
0.00569336
0.00537134
0.00505434
0.00474312
0.00443802
0.0041394
0.00384734
0.00356116
0.00328163
0.0030098
0.00274627
0.0024943
0.00225967
0.00204108
0.00183669
0.00164686
0.0014728
0.00131346
0.00116602
0.0010265
0.000890911
0.000758791
0.000637924
0.000544379
0.0126662
0.0122891
0.0119142
0.0115407
0.0111689
0.0108012
0.0104356
0.0100747
0.00971683
0.00935893
0.0090019
0.00864303
0.0082891
0.00794223
0.00760135
0.00726232
0.00692851
0.00659625
0.00626542
0.00594043
0.00561443
0.00528913
0.00496884
0.00465473
0.00434677
0.00405196
0.00376193
0.00347013
0.00319289
0.00291761
0.00264913
0.00239745
0.00216237
0.00195632
0.00175803
0.00156687
0.00139085
0.00122718
0.00107397
0.000929797
0.000791721
0.00066814
0.000575403
8.00269e-05
9.1769e-05
0.000136237
0.000191029
0.000258571
0.000339121
0.000430133
0.000530704
0.000640603
0.000759827
0.000888464
0.00102672
0.00117484
0.00133309
0.00150178
0.00168123
0.00187177
0.00207378
0.00228757
0.00251337
0.00275132
0.00300138
0.00326322
0.00353611
0.00381893
0.00411019
0.00440807
0.00471061
0.00501585
0.00532189
0.00562695
0.00592944
0.0062279
0.00652103
0.00680762
0.00708654
0.00735664
0.00761685
0.00786601
0.00810294
0.00832634
0.00853486
0.0087272
0.00015256
0.000143045
0.000196435
0.000266868
0.00035098
0.000448995
0.000557481
0.000675767
0.000803683
0.000941185
0.00108831
0.00124513
0.0014118
0.00158846
0.00177526
0.00197236
0.00217982
0.00239771
0.00262596
0.00286436
0.00311249
0.00336976
0.00363532
0.00390798
0.00418647
0.00446929
0.00475488
0.00504169
0.0053282
0.00561312
0.00589518
0.00617324
0.00644636
0.00671358
0.00697406
0.00722701
0.00747162
0.00770705
0.00793248
0.00814699
0.00834964
0.00853937
0.00871499
0.000223113
0.000201597
0.000258134
0.000345201
0.000449864
0.000568007
0.000697559
0.000836693
0.000984955
0.00114248
0.00130941
0.0014858
0.00167171
0.00186706
0.00207177
0.00228564
0.00250842
0.00273977
0.00297921
0.00322613
0.00347974
0.00373913
0.00400321
0.00427089
0.00454084
0.00481191
0.00508286
0.00535251
0.00561987
0.00588396
0.00614397
0.00639911
0.0066487
0.00689214
0.00712883
0.00735821
0.00757971
0.00779274
0.0079967
0.00819091
0.00837469
0.00854728
0.00870793
0.000287365
0.000263566
0.000326512
0.000432252
0.000558929
0.000699879
0.000851102
0.00101141
0.00118047
0.00135827
0.00154477
0.00173989
0.00194345
0.00215524
0.00237482
0.00260188
0.0028358
0.00307599
0.00332174
0.00357224
0.00382656
0.00408371
0.00434265
0.00460236
0.00486184
0.00512008
0.00537622
0.00562941
0.00587894
0.00612418
0.0063645
0.00659943
0.00682846
0.00705118
0.0072672
0.00747615
0.00767762
0.00787119
0.00805644
0.00823288
0.0084
0.00855723
0.00870388
0.000345182
0.000326659
0.00040038
0.000525572
0.000673721
0.000835738
0.00100777
0.00118855
0.00137759
0.00157458
0.00177922
0.00199122
0.00221016
0.0024356
0.00266702
0.00290379
0.00314529
0.00339072
0.0036393
0.00389015
0.00414238
0.00439502
0.00464719
0.00489801
0.00514668
0.00539251
0.00563485
0.00587313
0.00610683
0.0063355
0.00655872
0.00677613
0.00698742
0.00719229
0.00739051
0.00758185
0.00776605
0.00794282
0.00811183
0.00827275
0.00842524
0.00856894
0.00870348
0.000397471
0.000389371
0.000477037
0.000620791
0.000788893
0.000970658
0.00116223
0.00136208
0.00156941
0.00178364
0.00200425
0.00223071
0.00246245
0.00269886
0.0029393
0.00318308
0.00342942
0.00367762
0.00392683
0.00417623
0.00442496
0.00467215
0.00491708
0.00515902
0.0053974
0.00563178
0.00586173
0.00608685
0.00630677
0.00652114
0.00672962
0.00693196
0.00712797
0.00731746
0.00750035
0.00767655
0.0078459
0.00800816
0.00816309
0.00831045
0.00845005
0.00858166
0.008705
0.000445237
0.000450763
0.000554106
0.000715419
0.000901992
0.00110213
0.00131165
0.00152873
0.00175234
0.00198168
0.00221599
0.00245454
0.00269668
0.00294166
0.0031888
0.00343733
0.00368659
0.00393587
0.00418439
0.00443133
0.0046759
0.00491735
0.00515505
0.00538853
0.00561737
0.00584141
0.00606042
0.0062741
0.00648217
0.00668429
0.00688012
0.00706948
0.0072523
0.00742845
0.00759811
0.00776138
0.00791805
0.0080678
0.00821048
0.00834595
0.00847417
0.00859509
0.00870864
0.000488863
0.000509722
0.000630113
0.000808629
0.00101252
0.00122947
0.00145491
0.00168712
0.0019251
0.00216764
0.00241362
0.00266214
0.00291252
0.00316404
0.00341592
0.00366739
0.00391804
0.00416724
0.0044142
0.00465816
0.00489831
0.00513394
0.00536468
0.00559015
0.00581008
0.0060248
0.00623426
0.00643813
0.0066363
0.00682805
0.00701288
0.00719097
0.00736234
0.00752665
0.00768496
0.00783751
0.00798339
0.00812229
0.00825428
0.0083793
0.00849743
0.00860877
0.00871374
0.000529688
0.000571363
0.000712033
0.000906793
0.00112556
0.00135558
0.00159226
0.00183678
0.00208816
0.00234259
0.00259827
0.00285442
0.00311112
0.00336747
0.00362235
0.00387486
0.00412581
0.00437417
0.00461886
0.00485958
0.00509534
0.00532516
0.00554942
0.00576728
0.00597832
0.00618485
0.006386
0.00658182
0.00677242
0.00695525
0.00713008
0.00729847
0.00745994
0.00761253
0.00776196
0.00790644
0.00804289
0.00817206
0.00829475
0.00841058
0.0085197
0.00862192
0.0087182
6.10391e-05
0.000385029
0.000804279
0.00127392
0.00178078
0.0023164
0.00287736
0.0034603
0.00406421
0.00468851
0.00533227
0.00599524
0.00667624
0.00737565
0.00809518
0.00883357
0.00959083
0.0103681
0.011165
0.0119818
0.0128192
0.0136779
0.0145568
0.0154577
0.0163801
0.017324
0.0182898
0.019278
0.0202881
0.021321
0.0223765
0.0234556
0.0245577
0.0256823
0.0268305
0.0280027
0.0291975
0.0304158
0.0316571
0.0329208
0.0342072
0.0355148
0.0368445
6.65818e-05
0.00030662
0.000635132
0.00102277
0.00145676
0.00192991
0.00243696
0.00297429
0.00353966
0.00413134
0.00474826
0.0053889
0.00605165
0.00673752
0.00744562
0.00817536
0.0089262
0.00969937
0.0104941
0.0113098
0.0121479
0.0130074
0.0138887
0.0147921
0.0157176
0.016666
0.0176367
0.0186305
0.0196475
0.0206874
0.0217508
0.0228377
0.0239483
0.0250821
0.0262398
0.0274211
0.0286259
0.0298543
0.0311056
0.0323798
0.033677
0.0349963
0.03634
5.52878e-05
0.000257182
0.000539573
0.000878835
0.00126524
0.00169239
0.00215633
0.00265453
0.00318386
0.00374262
0.00432987
0.00494379
0.00558454
0.00624985
0.00693972
0.0076542
0.00839231
0.00915452
0.00994002
0.0107487
0.0115806
0.0124358
0.0133144
0.0142158
0.0151413
0.0160898
0.0170616
0.0180576
0.0190774
0.020121
0.0211881
0.0222792
0.0233948
0.0245345
0.0256979
0.0268853
0.0280967
0.0293319
0.0305905
0.0318727
0.0331776
0.0345051
0.0358572
4.80257e-05
0.000227092
0.000481183
0.000789341
0.00114284
0.00153638
0.00196743
0.0024329
0.00293095
0.00346011
0.00401877
0.00460701
0.00522308
0.00586578
0.00653563
0.00723148
0.00795342
0.00870074
0.00947315
0.0102705
0.011093
0.0119401
0.0128114
0.0137078
0.0146289
0.0155746
0.0165447
0.0175392
0.0185584
0.0196023
0.0206706
0.021764
0.022882
0.0240248
0.0251919
0.0263834
0.0275995
0.0288395
0.0301037
0.0313914
0.0327025
0.0340377
0.0353993
4.42391e-05
0.000208285
0.000441373
0.000725278
0.00105282
0.00142002
0.00182383
0.00226199
0.00273321
0.00323604
0.00376996
0.0043339
0.00492662
0.00554832
0.00619801
0.0068756
0.00758033
0.00831181
0.00907006
0.00985484
0.0106659
0.0115025
0.0123651
0.0132536
0.0141681
0.0151086
0.016074
0.0170653
0.0180821
0.0191245
0.0201923
0.0212857
0.0224042
0.023548
0.0247167
0.0259109
0.0271297
0.0283733
0.0296412
0.0309333
0.0322492
0.0335885
0.0349532
4.0791e-05
0.000192405
0.000410106
0.000676164
0.000984156
0.00133035
0.00171218
0.00212797
0.00257662
0.00305682
0.00356815
0.00411008
0.00468161
0.00528267
0.00591336
0.00657228
0.00725922
0.00797468
0.00871791
0.00948876
0.0102871
0.0111124
0.0119649
0.012844
0.0137508
0.014684
0.0156435
0.0166295
0.0176425
0.0186814
0.0197471
0.0208387
0.0219562
0.0230996
0.0242691
0.0254639
0.0266842
0.0279301
0.0292007
0.0304957
0.0318148
0.0331577
0.0345249
3.86258e-05
0.000180926
0.000385772
0.000636867
0.000928071
0.00125639
0.00161939
0.00201595
0.00244512
0.00290576
0.00339741
0.00391995
0.00447251
0.00505492
0.00566724
0.00630866
0.00697903
0.00767845
0.00840647
0.00916308
0.00994827
0.0107618
0.0116029
0.0124722
0.0133698
0.0142947
0.0152472
0.016227
0.017234
0.0182689
0.0193309
0.0204195
0.0215348
0.022677
0.0238457
0.0250402
0.0262611
0.0275081
0.0287797
0.0300769
0.0313989
0.0327449
0.0341151
3.64751e-05
0.000170634
0.000364648
0.000603219
0.000880647
0.00119394
0.00154136
0.00192163
0.00233388
0.00277738
0.00325172
0.00375677
0.0042918
0.00485678
0.00545224
0.00607736
0.00673175
0.00741549
0.00812867
0.00887137
0.00964359
0.0104444
0.0112738
0.0121327
0.0130202
0.0139362
0.0148807
0.0158533
0.0168539
0.0178832
0.0189404
0.0200249
0.021137
0.0222768
0.0234438
0.0246375
0.0258583
0.0271049
0.0283773
0.0296759
0.0309998
0.0323484
0.0337219
3.49039e-05
0.000162676
0.000347404
0.000575332
0.000840734
0.00114127
0.0014753
0.00184134
0.00223848
0.00266661
0.00312542
0.00361456
0.00413354
0.0046831
0.00526244
0.00587178
0.00651089
0.00717994
0.00787902
0.00860804
0.0093671
0.0101554
0.0109732
0.0118211
0.0126982
0.0136048
0.0145406
0.0155051
0.0164988
0.0175217
0.0185732
0.0196531
0.0207615
0.0218978
0.0230619
0.0242541
0.0254736
0.0267195
0.0279922
0.0292912
0.0306162
0.031967
0.0333431
3.3575e-05
0.00015578
0.000332405
0.000551167
0.000806408
0.00109575
0.0014179
0.00177109
0.00215496
0.00256918
0.00301391
0.00348875
0.00399368
0.00452841
0.0050932
0.00568805
0.00631297
0.00696799
0.00765332
0.00836892
0.00911498
0.00989095
0.0106973
0.0115338
0.0124006
0.0132976
0.0142239
0.0151802
0.0161667
0.0171825
0.0182276
0.0193024
0.0204063
0.0215381
0.0226987
0.0238882
0.0251054
0.0263502
0.0276225
0.0289214
0.0302469
0.0315988
0.0329782
3.24214e-05
0.000149722
0.000319258
0.000529975
0.000776394
0.00105579
0.0013671
0.00170892
0.00208074
0.00248282
0.00291495
0.00337683
0.00386817
0.00438963
0.00494084
0.00552237
0.00613412
0.0067757
0.00744774
0.00815049
0.00888399
0.00964802
0.0104429
0.0112683
0.0121244
0.0130111
0.0139281
0.0148761
0.0158546
0.0168628
0.0179014
0.0189703
0.0200684
0.0211959
0.022353
0.023539
0.0247535
0.0259963
0.027267
0.0285654
0.0298906
0.0312425
0.032622
3.15346e-05
0.000144294
0.000307706
0.000511129
0.000749485
0.00102008
0.00132178
0.00165347
0.0020148
0.00240577
0.0028265
0.00327608
0.00375533
0.00426445
0.00480311
0.00537188
0.00597089
0.0066002
0.00725988
0.00795054
0.00867172
0.00942393
0.0102075
0.0110219
0.0118672
0.0127438
0.0136518
0.0145909
0.0155608
0.0165612
0.0175929
0.0186551
0.0197475
0.0208705
0.0220229
0.0232051
0.0244167
0.0256567
0.0269253
0.0282221
0.0295466
0.0308975
0.0322748
3.11555e-05
0.000139708
0.000297677
0.000494584
0.000725588
0.000988229
0.00128134
0.00160394
0.00195559
0.00233635
0.00274632
0.00318493
0.00365279
0.00415047
0.00467764
0.00523457
0.00582159
0.006439
0.00708689
0.00776579
0.00847554
0.00921633
0.00998879
0.0107925
0.0116274
0.0124941
0.0133925
0.0143224
0.0152838
0.0162765
0.0173008
0.0183561
0.0194427
0.02056
0.0217074
0.0228854
0.0240933
0.0253303
0.0265967
0.0278916
0.0292146
0.0305645
0.0319421
3.04799e-05
0.000135389
0.000288484
0.000479454
0.000703963
0.000959311
0.00124462
0.00155875
0.00190141
0.00227296
0.00267318
0.00310174
0.00355928
0.00404584
0.00456219
0.00510826
0.00568413
0.00629005
0.0069268
0.0075947
0.00829346
0.00902329
0.00978495
0.0105781
0.0114029
0.0122599
0.0131485
0.0140691
0.0150221
0.016007
0.0170238
0.0180719
0.0191521
0.0202634
0.021406
0.0225793
0.0237827
0.0250168
0.0262803
0.0275728
0.0288945
0.0302446
0.0316251
2.92656e-05
0.000131172
0.000280308
0.000465785
0.000684215
0.000933075
0.0012111
0.00151761
0.00185202
0.00221482
0.00260586
0.00302532
0.00347322
0.00395001
0.00445606
0.00499183
0.00555712
0.00615252
0.00677858
0.00743555
0.00812348
0.00884306
0.00959438
0.0103774
0.0111922
0.0120393
0.0129186
0.0138303
0.0147745
0.0157514
0.0167605
0.0178017
0.0188749
0.0199803
0.0211173
0.0222854
0.0234847
0.024715
0.0259751
0.0272654
0.028585
0.0299337
0.0313112
2.8681e-05
0.000127602
0.000272886
0.000453408
0.000666355
0.000909119
0.00118046
0.00147991
0.00180689
0.00216168
0.00254436
0.00295498
0.00339411
0.00386162
0.00435815
0.00488385
0.00543924
0.0060249
0.00664074
0.00728731
0.00796526
0.00867447
0.00941566
0.0101888
0.0109939
0.0118315
0.012702
0.0136048
0.0145402
0.0155088
0.0165103
0.0175442
0.0186108
0.0197095
0.0208404
0.0220033
0.0231979
0.024424
0.0256807
0.0269681
0.0282857
0.0296331
0.0310117
2.82634e-05
0.000124363
0.000266071
0.000442114
0.000649892
0.000887122
0.00115228
0.00144505
0.00176532
0.0021128
0.00248755
0.00289007
0.00332066
0.0037795
0.00426698
0.00478352
0.00532961
0.00590574
0.0065119
0.00714893
0.0078169
0.0085162
0.00924767
0.0100112
0.0108069
0.0116356
0.0124969
0.0133907
0.0143177
0.0152783
0.0162719
0.0172984
0.0183578
0.0194502
0.0205752
0.0217327
0.0229221
0.0241435
0.0253963
0.0266805
0.0279952
0.0293397
0.0307153
2.79063e-05
0.000121273
0.000259626
0.000431562
0.000634462
0.000866482
0.00112604
0.00141266
0.00172647
0.00206717
0.00243463
0.00282941
0.00325211
0.00370264
0.00418174
0.00468976
0.005227
0.00579385
0.00639101
0.00701877
0.00767752
0.0083675
0.00908934
0.00984354
0.0106301
0.0114497
0.012302
0.0131875
0.0141064
0.0150586
0.0160443
0.0170632
0.0181158
0.0192013
0.0203202
0.0214721
0.0226564
0.0238729
0.0251214
0.0264019
0.0277128
0.029054
0.0304263
2.76423e-05
0.000118665
0.00025386
0.000421932
0.000620428
0.000847547
0.00110183
0.00138281
0.00169048
0.00202461
0.00238512
0.00277294
0.00318815
0.00363092
0.00410201
0.00460161
0.00513036
0.00568871
0.00627708
0.00689615
0.00754606
0.00822702
0.00894028
0.00968533
0.0104627
0.0112733
0.0121172
0.0129941
0.0139046
0.0148488
0.0158266
0.0168383
0.0178836
0.0189625
0.0200753
0.0212211
0.0224
0.0236118
0.0248557
0.0261315
0.0274387
0.0287764
0.0301444
2.73468e-05
0.000116125
0.000248468
0.000412867
0.000607242
0.000829838
0.00107911
0.00135478
0.00165669
0.00198451
0.00233879
0.00272007
0.00312816
0.00356367
0.00402713
0.004519
0.00503987
0.00558999
0.00617013
0.00678052
0.0074217
0.00809451
0.0087991
0.00953535
0.0103041
0.0111062
0.0119415
0.01281
0.0137124
0.0146487
0.0156187
0.0166229
0.0176611
0.0187336
0.0198398
0.0209795
0.0221528
0.0233592
0.0245982
0.0258698
0.0271731
0.0285068
0.0298709
2.70894e-05
0.000113837
0.000243608
0.000404717
0.000595172
0.000813322
0.001058
0.00132885
0.00162524
0.0019473
0.00229561
0.0026705
0.0030719
0.00350068
0.00395702
0.00444145
0.00495463
0.00549707
0.00606923
0.0066714
0.00730423
0.00796856
0.00866464
0.00939284
0.0101533
0.0109471
0.0117742
0.0126345
0.0135287
0.014457
0.0154195
0.0164165
0.0174474
0.0185133
0.0196128
0.0207465
0.0219141
0.0231154
0.0243494
0.0256166
0.0269156
0.0282461
0.0296076
2.68813e-05
0.000111723
0.000238948
0.000397045
0.000583792
0.000797756
0.00103816
0.00130411
0.00159557
0.00191234
0.00225498
0.00262375
0.00301887
0.00344124
0.00389097
0.00436822
0.00487399
0.00540894
0.00597363
0.00656805
0.00719293
0.00784911
0.00853736
0.00925729
0.0100096
0.0107952
0.0116142
0.0124667
0.0133529
0.0142736
0.0152289
0.0162182
0.0172423
0.0183009
0.0193941
0.0205219
0.0216837
0.0228795
0.0241091
0.0253717
0.0266668
0.0279946
0.0293548
2.66549e-05
0.000109679
0.000234546
0.000389683
0.00057301
0.000783396
0.00101957
0.00128088
0.00156757
0.00187952
0.00221673
0.00257976
0.00296907
0.00338506
0.0038282
0.00429894
0.00479785
0.0053256
0.00588268
0.0064698
0.00708707
0.00773577
0.0084161
0.00912811
0.00987262
0.0106501
0.0114613
0.0123061
0.0131848
0.0140979
0.0150454
0.0160279
0.0170449
0.0180966
0.0191835
0.020305
0.0214611
0.0226517
0.0238764
0.0251345
0.0264258
0.0277501
0.0291067
2.64783e-05
0.000107826
0.000230427
0.000382801
0.000562902
0.000769512
0.00100168
0.00125883
0.00154097
0.00184818
0.0021804
0.00253804
0.00292181
0.00333186
0.00376873
0.00423305
0.00472535
0.00524623
0.0057966
0.00637657
0.00698673
0.00762786
0.00830037
0.00900471
0.00974169
0.0105116
0.0113149
0.0121522
0.0130234
0.0139288
0.0148695
0.0158449
0.016855
0.0179
0.0189803
0.0200959
0.0212464
0.0224311
0.023651
0.0249049
0.0261925
0.0275134
0.0288684
2.63503e-05
0.000106224
0.000226554
0.000376279
0.000553441
0.000756613
0.000985164
0.00123839
0.0015161
0.00181867
0.00214589
0.00249828
0.00287666
0.00328115
0.00371214
0.00417017
0.00465622
0.00517089
0.00571446
0.00628742
0.00689059
0.00752458
0.00818974
0.00888698
0.00961686
0.0103793
0.0111749
0.0120047
0.0128685
0.0137669
0.0147002
0.0156686
0.0166718
0.0177104
0.0187845
0.0198938
0.0210385
0.022218
0.0234326
0.024682
0.0259655
0.0272829
0.0286341
2.62835e-05
0.000104967
0.000223023
0.000370138
0.000544392
0.000744281
0.000969351
0.00121886
0.00149269
0.00179081
0.0021134
0.00246093
0.00283409
0.0032332
0.00365847
0.00411069
0.00459062
0.00509902
0.00563609
0.0062023
0.00679892
0.00742602
0.00808437
0.00877463
0.00949723
0.0102524
0.011041
0.0118633
0.0127201
0.0136113
0.0145374
0.0154985
0.0164951
0.0175277
0.0185952
0.0196986
0.0208374
0.0220113
0.0232207
0.0244652
0.0257447
0.0270583
0.028408
2.62302e-05
0.000103978
0.000219696
0.00036449
0.00053607
0.000732839
0.000954397
0.00120032
0.00147025
0.00176418
0.00208238
0.00242535
0.00279361
0.00318733
0.00360722
0.00405405
0.00452824
0.00503056
0.00556112
0.00612112
0.00671122
0.00733187
0.00798333
0.00866646
0.00938204
0.0101306
0.010912
0.0117273
0.0125771
0.0134611
0.0143803
0.0153347
0.016325
0.0173509
0.0184122
0.0195093
0.0206424
0.0218109
0.023015
0.0242548
0.0255292
0.0268381
0.028182
2.62909e-05
0.00010356
0.000216489
0.000359005
0.000527986
0.000721894
0.000940302
0.00118271
0.0014487
0.00173857
0.00205274
0.00239136
0.00275483
0.00314363
0.00355839
0.0039998
0.00446838
0.00496487
0.00548976
0.00604364
0.00662746
0.00724141
0.00788633
0.00856274
0.00927168
0.0100132
0.0107879
0.0115964
0.0124393
0.0133165
0.0142291
0.0151769
0.0161605
0.0171797
0.0182346
0.019326
0.0204532
0.021616
0.0228149
0.0240494
0.025319
0.026623
0.0279612
2.64574e-05
0.000103871
0.000213661
0.000353917
0.000520306
0.000711428
0.000926745
0.00116594
0.00142837