/*--------------------------------*- C++ -*----------------------------------*\
| =========                 |                                                 |
| \\      /  F ield         | OpenFOAM: The Open Source CFD Toolbox           |
|  \\    /   O peration     | Version:  2.3.0                                 |
|   \\  /    A nd           | Web:      www.OpenFOAM.org                      |
|    \\/     M anipulation  |                                                 |
\*---------------------------------------------------------------------------*/
FoamFile
{
    version     2.0;
    format      ascii;
    class       volScalarField;
    location    "10000";
    object      p;
}
// * * * * * * * * * * * * * * * * * * * * * * * * * * * * * * * * * * * * * //

dimensions      [0 2 -2 0 0 0 0];

internalField   nonuniform List<scalar> 
123156
(
-0.000225073
0.480093
1.66285
2.92246
4.09091
5.19128
6.25309
7.2544
8.19744
9.0869
9.91711
10.6817
11.3902
12.0219
12.5876
13.0676
13.4725
13.7831
13.9868
14.082
14.0523
13.8644
13.5253
12.9889
12.2405
11.2333
9.9551
8.35709
6.356
3.92089
0.947952
-2.67053
-7.04121
-12.3471
-18.7931
-26.6879
-36.3033
-48.1659
-62.8295
-81.0312
-103.745
-133.36
-178.452
-2.51857
-2.04375
-0.837199
0.46739
1.70852
2.89437
4.05898
5.18175
6.27291
7.31509
8.3187
9.26381
10.1642
11.0038
11.7826
12.4879
13.1214
13.6717
14.1355
14.4978
14.7569
14.8884
14.8802
14.7234
14.3898
13.8637
13.116
12.0986
10.7841
9.1066
7.01287
4.42583
1.25163
-2.62037
-7.28502
-12.8991
-19.6267
-27.6389
-37.0982
-48.171
-61.0374
-75.7061
-92.2835
-5.11077
-4.89587
-3.95318
-2.94262
-2.00859
-1.13828
-0.312291
0.450604
1.1653
1.82566
2.42115
2.95097
3.40995
3.78898
4.09185
4.30115
4.42172
4.43581
4.3471
4.13409
3.78991
3.31382
2.67937
1.87617
0.884293
-0.324903
-1.77014
-3.49153
-5.52106
-7.90508
-10.6788
-13.9085
-17.6494
-21.9795
-26.9658
-32.704
-39.2633
-46.7384
-55.2043
-64.706
-75.2563
-86.8249
-99.2282
-7.53278
-7.43596
-6.66697
-5.83517
-5.08022
-4.36691
-3.69021
-3.05993
-2.47146
-1.93673
-1.44191
-0.999498
-0.617757
-0.297885
-0.0547562
0.121442
0.208612
0.198392
0.0916223
-0.122793
-0.467175
-0.948167
-1.57969
-2.38336
-3.3789
-4.58983
-6.04287
-7.76202
-9.7896
-12.1574
-14.9155
-18.1089
-21.7909
-26.0214
-30.8518
-36.3505
-42.5669
-49.5543
-57.3274
-65.8994
-75.2313
-85.2265
-95.6985
-9.93608
-9.82386
-9.17955
-8.49926
-7.88528
-7.32041
-6.80113
-6.31461
-5.87486
-5.49157
-5.14855
-4.85498
-4.61934
-4.44549
-4.3475
-4.32051
-4.38182
-4.54289
-4.80379
-5.1689
-5.65963
-6.28246
-7.05487
-7.99218
-9.11202
-10.4337
-11.9789
-13.7756
-15.86
-18.2552
-21.0036
-24.1481
-27.7336
-31.8007
-36.4003
-41.5789
-47.368
-53.7988
-60.8828
-68.6079
-76.9264
-85.7483
-94.9386
-12.0448
-11.9561
-11.4157
-10.8716
-10.3742
-9.92005
-9.51837
-9.13791
-8.80741
-8.52627
-8.27662
-8.06884
-7.91572
-7.81983
-7.79034
-7.82322
-7.94621
-8.16803
-8.48717
-8.90704
-9.44113
-10.1077
-10.9202
-11.8933
-13.0459
-14.3968
-15.9605
-17.7688
-19.8479
-22.2248
-24.931
-28.0082
-31.4975
-35.4276
-39.8364
-44.7751
-50.2599
-56.2971
-62.9058
-70.0608
-77.7199
-85.7874
-94.1634
-13.6556
-13.8507
-13.4307
-13.0009
-12.586
-12.2165
-11.8976
-11.6113
-11.3819
-11.2178
-11.0607
-10.9073
-10.8174
-10.7938
-10.8212
-10.8901
-11.0517
-11.3369
-11.7467
-12.2344
-12.8052
-13.5027
-14.3499
-15.3557
-16.5273
-17.8953
-19.4593
-21.2583
-23.3239
-25.6691
-28.3062
-31.2926
-34.6803
-38.4709
-42.6865
-47.4227
-52.6474
-58.3388
-64.5622
-71.2739
-78.4662
-85.9953
-93.7828
-14.8688
-15.4856
-15.1993
-14.9106
-14.6041
-14.3369
-14.0707
-13.7455
-13.5114
-13.504
-13.5196
-13.393
-13.2805
-13.3204
-13.4181
-13.4693
-13.5385
-13.7263
-14.212
-14.8222
-15.4361
-16.1316
-16.9874
-18.0193
-19.2138
-20.6171
-22.1766
-23.9323
-26.0117
-28.3606
-30.9231
-33.7848
-37.0707
-40.7363
-44.7179
-49.3063
-54.3852
-59.7711
-65.7101
-72.0929
-79.029
-86.2005
-93.5335
-15.7522
-16.5495
-16.0744
-16.3712
-16.369
-16.3709
-16.7187
-16.6392
-15.6713
-15.6874
-16.2065
-16.4659
-16.4269
-16.5267
-16.9879
-17.4008
-17.6911
-17.7459
-17.7366
-18.4307
-19.0311
-19.6646
-20.3375
-21.3179
-22.4489
-23.9203
-25.4127
-26.9808
-28.8675
-31.3937
-34.0304
-36.7586
-39.9865
-43.6792
-47.2375
-51.5791
-56.3574
-61.1705
-66.8906
-72.6682
-79.2287
-85.953
-92.7484
-238.052
-238.902
-235.075
-239.825
-246.209
-250.869
-254.36
-257.122
-259.249
-260.797
-261.842
-262.434
-262.685
-262.541
-262.222
-261.731
-261.181
-260.562
-259.93
-259.212
-258.494
-257.73
-256.98
-256.185
-255.393
-254.608
-253.773
-252.966
-252.154
-251.305
-250.502
-249.692
-248.845
-248.058
-247.268
-246.471
-245.696
-244.944
-244.209
-243.484
-242.794
-242.162
-242.26
-113.155
-134.738
-155.127
-173.61
-188.881
-200.851
-210.122
-217.165
-222.567
-226.622
-229.515
-231.692
-233.454
-234.826
-235.899
-236.773
-237.436
-237.964
-238.401
-238.717
-238.934
-239.143
-239.224
-239.311
-239.34
-239.34
-239.275
-239.235
-239.156
-239.049
-238.945
-238.823
-238.666
-238.522
-238.371
-238.196
-238.015
-237.827
-237.629
-237.423
-237.212
-237.001
-236.864
-112.329
-126.165
-139.575
-152.011
-163.241
-173.128
-181.749
-189.196
-195.606
-201.114
-205.865
-209.984
-213.477
-216.469
-219.049
-221.252
-223.129
-224.746
-226.105
-227.285
-228.265
-229.129
-229.834
-230.45
-230.946
-231.387
-231.726
-232.032
-232.26
-232.441
-232.601
-232.716
-232.795
-232.856
-232.892
-232.905
-232.9
-232.889
-232.854
-232.82
-232.776
-232.728
-232.5
-106.41
-117.255
-127.991
-138.392
-148.277
-157.441
-165.784
-173.294
-179.984
-185.899
-191.1
-195.648
-199.603
-203.052
-206.077
-208.719
-211.047
-213.085
-214.912
-216.503
-217.931
-219.188
-220.315
-221.324
-222.206
-223.014
-223.728
-224.385
-224.956
-225.482
-225.96
-226.379
-226.751
-227.096
-227.401
-227.672
-227.913
-228.129
-228.315
-228.489
-228.64
-228.796
-228.667
-104.349
-113.859
-123.313
-132.51
-141.296
-149.554
-157.194
-164.199
-170.574
-176.32
-181.465
-186.054
-190.152
-193.818
-197.092
-200.018
-202.632
-204.98
-207.097
-208.991
-210.696
-212.239
-213.616
-214.863
-215.992
-217.024
-217.952
-218.794
-219.56
-220.269
-220.914
-221.502
-222.038
-222.534
-222.98
-223.39
-223.763
-224.111
-224.426
-224.721
-224.994
-225.265
-225.151
-102.735
-111.38
-119.966
-128.36
-136.432
-144.091
-151.256
-157.889
-163.994
-169.569
-174.629
-179.202
-183.336
-187.08
-190.464
-193.51
-196.266
-198.762
-201.037
-203.093
-204.953
-206.636
-208.166
-209.564
-210.838
-212.012
-213.07
-214.054
-214.968
-215.81
-216.581
-217.299
-217.957
-218.564
-219.13
-219.654
-220.141
-220.588
-220.999
-221.381
-221.743
-222.078
-221.996
-101.79
-109.854
-117.838
-125.661
-133.218
-140.447
-147.252
-153.574
-159.441
-164.848
-169.777
-174.268
-178.377
-182.107
-185.521
-188.629
-191.46
-194.045
-196.407
-198.541
-200.49
-202.269
-203.898
-205.357
-206.745
-208.027
-209.152
-210.209
-211.208
-212.136
-213
-213.797
-214.545
-215.233
-215.877
-216.473
-217.033
-217.536
-218.014
-218.466
-218.885
-219.311
-219.666
-101.186
-108.84
-116.359
-123.757
-130.901
-137.797
-144.318
-150.343
-156.011
-161.241
-166.01
-170.414
-174.483
-178.191
-181.632
-184.708
-187.512
-190.201
-192.655
-194.832
-196.83
-198.666
-200.34
-201.794
-203.33
-204.648
-205.695
-206.849
-207.987
-209.02
-209.98
-210.834
-211.646
-212.371
-213.067
-213.714
-214.345
-214.877
-215.402
-215.896
-216.339
-216.82
-217.266
-100.101
-107.672
-115.185
-122.4
-129.16
-135.909
-142.289
-148.056
-153.665
-158.946
-163.703
-168.118
-172.127
-175.703
-179.147
-182.1
-185.089
-188.223
-190.691
-192.741
-194.717
-196.556
-198.165
-199.52
-201.705
-202.543
-203.482
-205.45
-206.815
-207.64
-208.317
-208.903
-209.625
-210.263
-210.877
-211.487
-212.11
-212.523
-213.022
-213.423
-213.607
-213.804
-213.907
-271.624
-272.755
-273.966
-275.151
-276.307
-277.441
-278.55
-279.636
-280.699
-281.736
-282.749
-283.736
-284.695
-285.627
-286.529
-287.401
-288.242
-289.05
-289.823
-290.561
-291.264
-291.929
-292.558
-293.151
-293.711
-294.239
-294.743
-295.227
-295.702
-296.175
-296.658
-297.159
-297.69
-298.261
-298.885
-299.572
-300.333
-301.176
-302.108
-303.131
-304.258
-305.505
-307.201
-271.973
-272.949
-274.018
-275.07
-276.1
-277.113
-278.11
-279.092
-280.06
-281.015
-281.956
-282.886
-283.804
-284.711
-285.609
-286.497
-287.378
-288.252
-289.119
-289.98
-290.836
-291.687
-292.534
-293.375
-294.211
-295.04
-295.862
-296.674
-297.477
-298.267
-299.043
-299.804
-300.548
-301.272
-301.973
-302.65
-303.296
-303.906
-304.472
-304.982
-305.438
-305.775
-306.391
-272.269
-273.167
-274.138
-275.101
-276.049
-276.988
-277.918
-278.838
-279.749
-280.651
-281.544
-282.429
-283.304
-284.17
-285.029
-285.881
-286.728
-287.569
-288.407
-289.243
-290.078
-290.912
-291.747
-292.583
-293.421
-294.261
-295.101
-295.941
-296.78
-297.614
-298.441
-299.257
-300.057
-300.837
-301.59
-302.309
-302.987
-303.615
-304.185
-304.687
-305.153
-305.537
-305.977
-272.366
-273.364
-274.301
-275.21
-276.109
-277.001
-277.884
-278.761
-279.63
-280.492
-281.345
-282.191
-283.027
-283.854
-284.674
-285.486
-286.292
-287.093
-287.889
-288.682
-289.472
-290.26
-291.046
-291.832
-292.619
-293.406
-294.195
-294.985
-295.778
-296.571
-297.366
-298.16
-298.951
-299.735
-300.508
-301.265
-302.001
-302.709
-303.385
-304.022
-304.649
-305.279
-305.849
-272.62
-273.587
-274.44
-275.284
-276.129
-276.969
-277.802
-278.631
-279.455
-280.274
-281.088
-281.896
-282.699
-283.494
-284.284
-285.07
-285.854
-286.635
-287.415
-288.195
-288.976
-289.757
-290.54
-291.323
-292.107
-292.892
-293.679
-294.468
-295.259
-296.052
-296.846
-297.642
-298.437
-299.23
-300.019
-300.799
-301.565
-302.314
-303.046
-303.753
-304.449
-305.194
-305.848
-272.85
-273.749
-274.538
-275.33
-276.124
-276.915
-277.699
-278.479
-279.259
-280.036
-280.814
-281.588
-282.361
-283.128
-283.892
-284.653
-285.415
-286.178
-286.943
-287.711
-288.485
-289.265
-290.05
-290.837
-291.628
-292.422
-293.22
-294.021
-294.825
-295.632
-296.442
-297.253
-298.065
-298.881
-299.699
-300.512
-301.311
-302.088
-302.845
-303.588
-304.315
-305.107
-305.818
-273.04
-273.874
-274.614
-275.361
-276.113
-276.862
-277.602
-278.335
-279.076
-279.814
-280.559
-281.302
-282.05
-282.793
-283.533
-284.274
-285.021
-285.769
-286.518
-287.274
-288.038
-288.81
-289.596
-290.383
-291.174
-291.971
-292.771
-293.577
-294.388
-295.204
-296.024
-296.842
-297.66
-298.474
-299.298
-300.129
-300.948
-301.749
-302.543
-303.34
-304.148
-305.044
-305.903
-273.194
-273.981
-274.677
-275.379
-276.087
-276.797
-277.498
-278.165
-278.867
-279.557
-280.277
-280.993
-281.741
-282.471
-283.185
-283.895
-284.619
-285.358
-286.09
-286.833
-287.59
-288.355
-289.158
-289.959
-290.76
-291.566
-292.365
-293.179
-293.998
-294.829
-295.669
-296.504
-297.324
-298.168
-299.057
-299.963
-300.866
-301.649
-302.341
-303.067
-303.827
-304.688
-305.545
-273.278
-274.043
-274.71
-275.389
-276.072
-276.802
-277.525
-278.139
-278.84
-279.439
-280.133
-280.721
-281.477
-282.251
-283.009
-283.71
-284.424
-285.179
-285.88
-286.599
-287.339
-288.015
-288.829
-289.628
-290.411
-291.249
-292.04
-292.857
-293.646
-294.465
-295.333
-296.172
-297
-297.532
-298.277
-299.167
-300.092
-300.988
-301.88
-302.658
-303.723
-304.781
-306.324
-308.496
-308.37
-308.281
-308.221
-308.175
-308.14
-308.112
-308.091
-308.076
-308.067
-308.061
-308.059
-308.06
-308.063
-308.067
-308.072
-308.077
-308.082
-308.086
-308.089
-308.091
-308.091
-308.09
-308.086
-308.08
-308.071
-308.06
-308.046
-308.03
-308.011
-307.989
-307.965
-307.939
-307.91
-307.879
-307.847
-307.812
-307.776
-307.739
-307.701
-307.667
-307.642
-307.541
-307.449
-307.463
-307.606
-307.656
-307.679
-307.689
-307.689
-307.681
-307.667
-307.648
-307.627
-307.603
-307.578
-307.552
-307.527
-307.502
-307.479
-307.457
-307.437
-307.418
-307.403
-307.389
-307.379
-307.371
-307.366
-307.364
-307.365
-307.369
-307.376
-307.385
-307.398
-307.413
-307.43
-307.449
-307.469
-307.491
-307.514
-307.538
-307.563
-307.588
-307.612
-307.634
-307.681
-307.026
-307.319
-307.521
-307.579
-307.617
-307.643
-307.662
-307.672
-307.677
-307.678
-307.676
-307.672
-307.667
-307.661
-307.655
-307.649
-307.644
-307.64
-307.636
-307.633
-307.631
-307.629
-307.628
-307.628
-307.628
-307.628
-307.629
-307.631
-307.633
-307.636
-307.639
-307.643
-307.648
-307.654
-307.662
-307.671
-307.681
-307.693
-307.707
-307.722
-307.739
-307.756
-307.803
-306.885
-307.343
-307.576
-307.652
-307.698
-307.731
-307.755
-307.774
-307.787
-307.796
-307.802
-307.806
-307.807
-307.808
-307.807
-307.806
-307.804
-307.802
-307.8
-307.798
-307.796
-307.794
-307.791
-307.789
-307.787
-307.787
-307.787
-307.788
-307.79
-307.792
-307.794
-307.796
-307.799
-307.803
-307.808
-307.813
-307.819
-307.826
-307.834
-307.843
-307.852
-307.858
-307.858
-306.831
-307.373
-307.651
-307.751
-307.798
-307.828
-307.851
-307.868
-307.881
-307.89
-307.896
-307.901
-307.903
-307.905
-307.905
-307.904
-307.903
-307.902
-307.901
-307.9
-307.898
-307.896
-307.893
-307.891
-307.89
-307.891
-307.893
-307.896
-307.898
-307.9
-307.902
-307.904
-307.906
-307.909
-307.913
-307.917
-307.922
-307.928
-307.934
-307.94
-307.948
-307.955
-307.995
-306.773
-307.387
-307.724
-307.85
-307.901
-307.929
-307.949
-307.963
-307.973
-307.98
-307.986
-307.99
-307.993
-307.994
-307.995
-307.995
-307.996
-307.996
-307.996
-307.996
-307.994
-307.991
-307.988
-307.986
-307.986
-307.99
-307.996
-308
-308.002
-308.003
-308.003
-308.004
-308.004
-308.007
-308.009
-308.011
-308.014
-308.018
-308.02
-308.023
-308.031
-308.048
-308.04
-306.912
-307.554
-307.893
-308.004
-308.039
-308.057
-308.069
-308.076
-308.082
-308.089
-308.095
-308.1
-308.105
-308.107
-308.106
-308.108
-308.11
-308.113
-308.115
-308.114
-308.109
-308.102
-308.093
-308.083
-308.086
-308.099
-308.108
-308.111
-308.108
-308.102
-308.097
-308.091
-308.084
-308.089
-308.092
-308.093
-308.098
-308.102
-308.098
-308.095
-308.103
-308.122
-308.096
-306.656
-307.431
-307.855
-308.024
-308.093
-308.131
-308.143
-308.143
-308.138
-308.137
-308.137
-308.134
-308.131
-308.124
-308.111
-308.114
-308.117
-308.118
-308.116
-308.106
-308.087
-308.073
-308.06
-308.056
-308.089
-308.129
-308.141
-308.141
-308.126
-308.12
-308.123
-308.123
-308.138
-308.194
-308.182
-308.158
-308.169
-308.174
-308.15
-308.137
-308.16
-308.186
-308.26
-308.148
-308.632
-308.51
-308.413
-308.367
-308.385
-308.361
-308.327
-308.335
-308.375
-308.417
-308.445
-308.479
-308.506
-308.526
-308.581
-308.603
-308.625
-308.637
-308.647
-308.655
-308.675
-308.684
-308.714
-308.784
-308.8
-308.72
-308.659
-308.634
-308.643
-308.632
-308.615
-308.628
-308.639
-308.28
-308.234
-308.287
-308.301
-308.231
-308.267
-308.445
-308.523
-308.377
55.2963
59.7223
59.9109
59.2927
58.2663
57.0378
55.7399
54.3533
52.9919
51.6562
50.372
49.1105
47.9057
46.7248
45.5635
44.4514
43.313
42.1525
41.0039
39.8287
38.6144
37.3776
36.1018
34.7984
33.4442
32.0489
30.6125
29.1141
27.5739
25.9919
24.3612
22.6968
20.9896
19.2569
17.468
15.6614
13.8241
11.9464
10.048
8.10196
6.09358
4.1831
2.98618
71.7738
70.3466
68.3214
66.2762
64.3141
62.3764
60.5193
58.7386
57.0193
55.3615
53.7662
52.2325
50.7467
49.2945
47.8495
46.4489
45.0629
43.6895
42.3255
40.962
39.5858
38.2264
36.8407
35.4536
34.0493
32.6347
31.1846
29.7314
28.2476
26.7469
25.2071
23.6383
22.0455
20.4301
18.7776
17.0944
15.3883
13.6422
11.8819
10.0595
8.17319
6.39834
5.30672
86.0099
85.4328
84.4272
83.2407
81.9022
80.4121
78.778
77.0249
75.1783
73.2474
71.2438
69.2038
67.1188
65.0251
62.9045
60.8054
58.6931
56.5823
54.5024
52.4307
50.3715
48.3345
46.315
44.3039
42.2964
40.321
38.3428
36.3718
34.4134
32.4578
30.5161
28.5669
26.6233
24.6746
22.7317
20.7751
18.8209
16.8516
14.8817
12.8878
10.8528
8.98889
7.93245
86.4915
86.0628
85.2118
84.1716
83.0095
81.7253
80.3162
78.8051
77.2095
75.5369
73.8082
72.013
70.1771
68.3114
66.402
64.4684
62.5202
60.5492
58.5602
56.5654
54.5632
52.5491
50.5304
48.5085
46.4766
44.4433
42.4091
40.3609
38.3144
36.2592
34.2051
32.1435
30.0757
28.001
25.9269
23.8386
21.7508
19.6572
17.5497
15.4287
13.2711
11.2836
10.1199
87.8533
87.572
87.013
86.3048
85.4856
84.5412
83.4711
82.2808
80.9747
79.5631
78.0472
76.4381
74.7462
72.9713
71.1353
69.2312
67.2719
65.2724
63.2348
61.1601
59.0557
56.9442
54.8044
52.6584
50.4981
48.3324
46.1616
43.9912
41.815
39.6398
37.4536
35.2713
33.0844
30.8959
28.7023
26.5116
24.3121
22.1152
19.9166
17.7073
15.4782
13.3943
12.0954
86.4576
86.2248
85.7518
85.1521
84.4666
83.6833
82.7969
81.8093
80.7252
79.5458
78.2744
76.9169
75.4739
73.9492
72.3468
70.6751
68.9352
67.1329
65.2699
63.3563
61.3956
59.3891
57.3461
55.2679
53.1522
51.0217
48.8601
46.6773
44.4796
42.2662
40.0437
37.8097
35.5651
33.3198
31.0571
28.7985
26.5252
24.2527
21.9779
19.6852
17.38
15.1528
13.5298
85.2163
85.0397
84.6851
84.226
83.6884
83.0621
82.3416
81.5265
80.6175
79.6174
78.523
77.3381
76.067
74.7057
73.2614
71.741
70.1389
68.4666
66.7278
64.9187
63.0568
61.1357
59.1695
57.1497
55.0948
52.9953
50.8761
48.7142
46.5328
44.3214
42.0936
39.8455
37.5807
35.2996
33.0099
30.7107
28.3942
26.076
23.7524
21.4076
19.0492
16.7519
14.939
83.2719
83.1175
82.8127
82.4149
81.9526
81.4159
80.8003
80.1043
79.3278
78.4704
77.5319
76.5102
75.4078
74.223
72.9561
71.6098
70.1862
68.6823
67.1089
65.4604
63.7442
61.9618
60.1219
58.2155
56.2674
54.2571
52.2039
50.117
47.9812
45.8121
43.6154
41.3894
39.1376
36.8625
34.5707
32.2594
29.9324
27.5927
25.2419
22.8699
20.4761
18.137
16.185
81.1315
81.0108
80.7628
80.4365
80.0525
79.6037
79.0847
78.494
77.8296
77.0917
76.2773
75.3876
74.4192
73.3727
72.2471
71.0418
69.7614
68.4016
66.967
65.4533
63.8709
62.2199
60.4972
58.7111
56.8627
54.9608
52.9987
50.9903
48.9319
46.8278
44.6866
42.5061
40.2946
38.0489
35.775
33.4732
31.1581
28.8186
26.4631
24.0897
21.6857
19.3568
17.4165
78.8796
78.7743
78.5604
78.2749
77.9419
77.5507
77.0988
76.583
76.0029
75.3566
74.6424
73.8586
73.0041
72.0759
71.0756
69.9995
68.8494
67.6211
66.3206
64.9436
63.4909
61.9696
60.3726
58.7119
56.9781
55.1822
53.3282
51.4098
49.443
47.4182
45.3492
43.2278
41.071
38.8773
36.6433
34.3756
32.083
29.763
27.4182
25.0514
22.6377
20.3173
18.5589
76.5167
76.4294
76.2439
75.9976
75.7076
75.3677
74.9723
74.5214
74.0116
73.4428
72.8122
72.1183
71.3583
70.5318
69.6358
68.6684
67.6323
66.5217
65.3375
64.0806
62.7504
61.3463
59.8704
58.3231
56.7041
55.0192
53.2707
51.4525
49.5799
47.6443
45.6565
43.615
41.5239
39.3908
37.2135
34.9967
32.7434
30.4578
28.1383
25.7934
23.3994
21.0903
19.4582
74.1087
74.0324
73.8713
73.6556
73.4003
73.1002
72.7518
72.3512
71.9
71.3937
70.8325
70.2127
69.5327
68.791
67.9858
67.1138
66.1743
65.1675
64.0896
62.9401
61.7201
60.4255
59.0613
57.6265
56.1179
54.5407
52.8961
51.18
49.4047
47.5631
45.6592
43.7044
41.6892
39.6253
37.5087
35.3493
33.146
30.9082
28.6258
26.3046
23.9219
21.5861
19.8277
71.6635
71.6015
71.4594
71.2682
71.0428
70.776
70.466
70.1102
69.7066
69.2545
68.7512
68.1954
67.5832
66.9149
66.1864
65.3975
64.5442
63.6263
62.6416
61.5888
60.4688
59.2765
58.0126
56.6805
55.277
53.7997
52.2567
50.6407
48.9618
47.216
45.4024
43.5333
41.5962
39.612
37.5672
35.4736
33.3309
31.1434
28.9149
26.6342
24.2875
21.9969
20.2571
69.2269
69.169
69.042
68.87
68.6675
68.429
68.1499
67.8304
67.4668
67.0592
66.6054
66.1021
65.5493
64.9423
64.2813
63.5629
62.7858
61.9469
61.0451
60.0781
59.0455
57.9449
56.7761
55.5372
54.2296
52.8505
51.4034
49.8839
48.2968
46.6429
44.9215
43.1361
41.2859
39.3784
37.4109
35.3882
33.3123
31.1859
29.013
26.7862
24.5016
22.275
20.6179
66.7577
66.7107
66.6011
66.4499
66.2681
66.0555
65.8051
65.517
65.1897
64.8213
64.4102
63.9547
63.4516
62.9002
62.2968
61.6408
60.9294
60.1606
59.3319
58.4422
57.4896
56.4714
55.3875
54.2369
53.0162
51.7275
50.3707
48.9434
47.4466
45.8799
44.2487
42.5484
40.7828
38.9553
37.0634
35.1181
33.1095
31.0538
28.9488
26.7856
24.5751
22.4133
20.8077
64.3075
64.2702
64.1715
64.0327
63.8719
63.6788
63.4535
63.1925
62.8957
62.5609
62.187
61.7712
61.3129
60.8087
60.2572
59.6562
59.0026
58.2959
57.5329
56.7112
55.8301
54.8868
53.8795
52.8084
51.6707
50.465
49.1921
47.8499
46.4389
44.9583
43.41
41.7956
40.111
38.3645
36.55
34.6796
32.7431
30.7528
28.7109
26.6074
24.4427
22.3093
20.6761
61.8918
61.8544
61.7633
61.6378
61.4893
61.3137
61.1075
60.8688
60.5976
60.2922
59.9495
59.5692
59.1485
58.6862
58.1789
57.626
57.0241
56.3718
55.6667
54.9067
54.0902
53.2141
52.2777
51.2784
50.2155
49.0864
47.892
46.6298
45.2993
43.9012
42.4337
40.8986
39.2945
37.6281
35.8905
34.0941
32.2324
30.3118
28.3355
26.2999
24.2046
22.1268
20.5364
59.4553
59.4275
59.3478
59.2358
59.1035
58.9448
58.7578
58.5414
58.2939
58.0146
57.7013
57.3519
56.9659
56.5402
56.0734
55.5631
55.0079
54.4042
53.7515
53.0462
52.2879
51.4731
50.5997
49.6677
48.6728
47.6154
46.4937
45.3064
44.0513
42.7284
41.3386
39.882
38.3547
36.7629
35.1006
33.3768
31.5861
29.7358
27.8229
25.8468
23.8035
21.7384
20.0373
57.0553
57.0302
56.9587
56.8559
56.735
56.5911
56.4199
56.2216
55.9953
55.7389
55.4505
55.1293
54.7738
54.3807
53.95
53.4781
52.9638
52.4048
51.7987
51.1436
50.4376
49.6782
48.8632
47.9916
47.0598
46.0674
45.0134
43.8937
42.7108
41.4611
40.1442
38.7595
37.3082
35.7888
34.2015
32.5479
30.8277
29.0447
27.1969
25.2841
23.3014
21.281
19.5333
54.6749
54.652
54.5872
54.4948
54.3845
54.2529
54.0968
53.9148
53.707
53.4701
53.2045
52.9086
52.5795
52.2167
51.8171
51.3796
50.9025
50.3826
49.8193
49.209
48.5502
47.8411
47.0794
46.263
45.39
44.4571
43.4663
42.4118
41.2938
40.1119
38.864
37.549
36.1681
34.7179
33.2029
31.6186
29.9676
28.2506
26.4701
24.6198
22.6979
20.7283
18.944
52.2984
52.2826
52.227
52.1438
52.0451
51.9254
51.7821
51.6168
51.425
51.2075
50.9626
50.6895
50.3849
50.0486
49.6787
49.2724
48.8286
48.3454
47.82
47.2511
46.6356
45.9726
45.2594
44.4939
43.6738
42.7972
41.8631
40.8687
39.8124
38.694
37.5107
36.2631
34.9478
33.5665
32.1181
30.6024
29.02
27.3709
25.6545
23.8689
22.0127
20.112
18.3633
49.9663
49.9519
49.8996
49.8234
49.7324
49.6213
49.4915
49.3374
49.1611
48.96
48.7336
48.4797
48.1979
47.8854
47.5415
47.1635
46.7498
46.2988
45.8087
45.2767
44.7011
44.0796
43.4108
42.6923
41.921
41.0962
40.2155
39.2775
38.2789
37.2195
36.0974
34.9123
33.6605
32.3444
30.9607
29.5119
27.9927
26.4097
24.7591
23.0399
21.2445
19.4164
17.7897
47.6469
47.633
47.5872
47.5187
47.4344
47.3347
47.2136
47.0723
46.9091
46.7236
46.514
46.2784
46.0164
45.7267
45.406
45.054
44.6679
44.2472
43.7883
43.2911
42.7517
42.1693
41.5413
40.8654
40.1399
39.3625
38.5311
37.6449
36.7006
35.6964
34.6318
33.5054
32.315
31.0599
29.7379
28.3523
26.8997
25.3793
23.7926
22.1406
20.4112
18.6552
17.1431
45.3458
45.3363
45.2949
45.2324
45.1573
45.0653
44.9541
44.8239
44.6741
44.5024
44.3079
44.0897
43.8461
43.5756
43.2769
42.9483
42.5881
42.194
41.765
41.2982
40.7926
40.2454
39.6548
39.019
38.3355
37.6027
36.8175
35.9791
35.0856
34.134
33.1231
32.0521
30.9187
29.7221
28.4608
27.1339
25.743
24.2846
22.76
21.17
19.502
17.8022
16.3185
43.0432
43.0384
43.007
42.9534
42.8875
42.8055
42.7056
42.5875
42.4495
42.292
42.1126
41.91
41.6845
41.4331
41.155
40.8477
40.5106
40.1424
39.7406
39.3031
38.8282
38.3141
37.758
37.1588
36.5143
35.8223
35.0801
34.2866
33.4397
32.5374
31.5768
30.5583
29.479
28.3374
27.1337
25.8637
24.5321
23.1345
21.6699
20.141
18.5406
16.912
15.5083
40.8009
40.7969
40.7664
40.7156
40.6549
40.5787
40.4871
40.3769
40.2502
40.1034
39.9362
39.748
39.537
39.3029
39.0424
38.7556
38.4404
38.0952
37.7182
37.3066
36.8604
36.3763
35.8528
35.288
34.6797
34.0257
33.3238
32.5723
31.769
30.9127
30.0003
29.0305
28.0022
26.9133
25.7632
24.5488
23.2713
21.9303
20.525
19.0517
17.5075
15.9329
14.5995
38.5667
38.564
38.5381
38.4934
38.438
38.369
38.2837
38.1836
38.0655
37.9301
37.7751
37.6
37.404
37.185
36.9418
36.6732
36.3776
36.0541
35.6994
35.3132
34.8931
34.4376
33.944
33.4106
32.8357
32.2173
31.5528
30.8402
30.0788
29.2645
28.3975
27.4746
26.4935
25.4548
24.3549
23.193
21.9699
20.6817
19.3312
17.9142
16.4263
14.8977
13.5829
36.3523
36.3544
36.3322
36.2923
36.242
36.1791
36.1016
36.0092
35.9004
35.774
35.6304
35.4681
35.2846
35.0799
34.8527
34.6015
34.3247
34.0203
33.6875
33.3235
32.9283
32.4983
32.0326
31.5284
30.9853
30.3996
29.7706
29.0946
28.3717
27.5981
26.7725
25.8937
24.9581
23.966
22.9151
21.8026
20.6294
19.393
18.0925
16.7273
15.2899
13.799
12.4408
34.1274
34.1358
34.1249
34.0939
34.0519
33.998
33.9296
33.8464
33.747
33.6317
33.4992
33.3483
33.1787
32.9879
32.7757
32.54
32.2802
31.9946
31.6818
31.34
30.9665
30.5616
30.1214
29.6452
29.131
28.5763
27.9799
27.3383
26.6516
25.9161
25.1302
24.2927
23.4006
22.4531
21.4475
20.3823
19.2573
18.0701
16.8193
15.5026
14.113
12.6624
11.2771
31.9784
31.986
31.9746
31.9432
31.9041
31.8528
31.7904
31.7131
31.6207
31.5133
31.3898
31.2488
31.0899
30.912
30.7132
30.4927
30.2485
29.9803
29.6856
29.363
29.0112
28.628
28.2125
27.7618
27.275
26.7494
26.1834
25.5746
24.9215
24.2218
23.4734
22.6747
21.8236
20.9181
19.9567
18.9367
17.8581
16.7183
15.5152
14.2478
12.9073
11.5085
10.1818
29.8355
29.8434
29.835
29.8084
29.7728
29.7273
29.6689
29.5966
29.5121
29.4122
29.2964
29.1659
29.0176
28.8505
28.6641
28.4563
28.227
27.9746
27.6972
27.3936
27.0612
26.6999
26.3072
25.8805
25.4193
24.9206
24.3834
23.8053
23.1841
22.5183
21.8051
21.0434
20.2309
19.3658
18.4461
17.4694
16.4357
15.3424
14.1885
12.9709
11.6856
10.3543
9.15444
27.7158
27.7254
27.7181
27.6942
27.6616
27.62
27.5661
27.5006
27.4215
27.3278
27.222
27.0991
26.9604
26.8043
26.629
26.4345
26.2193
25.9814
25.72
25.4331
25.1194
24.7776
24.4055
24.0018
23.5644
23.0918
22.5813
22.0318
21.4409
20.8067
20.1276
19.4008
18.6246
17.7977
16.918
15.9828
14.9923
13.9424
12.8353
11.6639
10.4273
9.14388
8.00079
25.5831
25.5963
25.5968
25.5789
25.5545
25.519
25.4717
25.4131
25.3407
25.2568
25.1577
25.0443
24.9154
24.7694
24.606
24.4236
24.2211
23.9972
23.7513
23.4814
23.1852
22.8623
22.5104
22.1276
21.7129
21.2641
20.7797
20.2569
19.6948
19.0902
18.4429
17.7494
17.008
16.2176
15.3751
14.48
13.5298
12.5228
11.4598
10.3359
9.14927
7.91972
6.82273
23.526
23.5331
23.5288
23.5109
23.485
23.4501
23.4063
23.3512
23.2848
23.2061
23.1138
23.008
22.8871
22.7508
22.5978
22.4269
22.2369
22.0258
21.7938
21.5383
21.259
20.9534
20.6202
20.2576
19.8643
19.4384
18.978
18.4809
17.9459
17.37
16.7524
16.0904
15.3824
14.6263
13.8198
12.9621
12.0505
11.0838
10.0611
8.97888
7.83241
6.63704
5.56196
21.4255
21.4392
21.4421
21.4314
21.4114
21.3842
21.347
21.2982
21.2376
21.1657
21.0814
20.9835
20.8721
20.7446
20.6015
20.4418
20.2625
20.065
19.8462
19.6055
19.3416
19.0532
18.7377
18.394
18.0206
17.616
17.1786
16.706
16.1963
15.6476
15.0583
14.4262
13.7494
13.0264
12.254
11.4318
10.5572
9.62855
8.64527
7.60325
6.4983
5.3392
4.28345
19.3623
19.3743
19.3809
19.3736
19.3589
19.3358
19.3031
19.2599
19.2061
19.1413
19.0635
18.9739
18.8702
18.7523
18.6188
18.4688
18.3016
18.1157
17.9095
17.6825
17.4336
17.1604
16.8623
16.5367
16.1823
15.7981
15.3819
14.9324
14.4467
13.9244
13.3617
12.7582
12.111
11.4191
10.6796
9.89125
9.05195
8.15935
7.21383
6.21082
5.14735
4.0249
2.97229
17.3237
17.3404
17.3475
17.3422
17.3286
17.3087
17.2802
17.2412
17.193
17.1332
17.062
16.9793
16.883
16.7732
16.6492
16.5088
16.3523
16.1772
15.9835
15.7702
15.5345
15.2766
14.9938
14.6854
14.3495
13.9847
13.5893
13.1613
12.6988
12.2004
11.6638
11.0873
10.4686
9.8065
9.09801
8.34222
7.53673
6.67886
5.76897
4.80275
3.77717
2.6901
1.64802
15.3192
15.3291
15.336
15.3306
15.3202
15.3023
15.2764
15.2415
15.1966
15.1423
15.077
14.9999
14.9113
14.8094
14.6931
14.5619
14.4146
14.2506
14.0687
13.8677
13.6456
13.4015
13.1341
12.8419
12.5238
12.177
11.8012
11.3938
10.9533
10.4781
9.96595
9.41484
8.8237
8.18983
7.51114
6.78638
6.01322
5.18903
4.31303
3.38219
2.39187
1.34153
0.324091
13.2827
13.3001
13.3135
13.3149
13.309
13.2982
13.278
13.2482
13.2105
13.1617
13.1024
13.0326
12.9505
12.8567
12.749
12.6266
12.4896
12.3356
12.1646
11.9747
11.7656
11.5354
11.282
11.0054
10.7036
10.3748
10.0172
9.6294
9.20995
8.75694
8.26861
7.74237
7.17712
6.57028
5.92021
5.22529
4.48288
3.69113
2.84826
1.95072
0.993468
-0.0262975
-1.02454
11.2873
11.3031
11.318
11.3223
11.3213
11.313
11.2969
11.2728
11.2395
11.1965
11.1434
11.0798
11.0052
10.9182
10.8178
10.7043
10.5763
10.4322
10.2714
10.0934
9.89625
9.67861
9.43948
9.17745
8.891
8.57883
8.23919
7.87046
7.47056
7.03881
6.57263
6.07031
5.52976
4.94927
4.32692
3.66048
2.94831
2.1881
1.37854
0.516428
-0.398525
-1.36855
-2.36845
9.31527
9.3358
9.35062
9.35585
9.35607
9.34989
9.33681
9.31543
9.28652
9.24731
9.20012
9.14211
9.07303
8.99257
8.89991
8.79456
8.67485
8.53995
8.38946
8.22173
8.03566
7.83075
7.60466
7.35656
7.08548
6.7893
6.46669
6.11579
5.73553
5.32358
4.87903
4.39892
3.8824
3.32706
2.731
2.09202
1.40906
0.67848
-0.101055
-0.933396
-1.81772
-2.76264
-3.90848
7.37716
7.39041
7.40423
7.41003
7.40971
7.4054
7.3936
7.37583
7.34935
7.31517
7.27178
7.21823
7.15529
7.08131
6.9954
6.89722
6.7856
6.66008
6.5189
6.36109
6.18649
5.99309
5.77929
5.54444
5.28735
5.00663
4.70012
4.36695
4.0047
3.61221
3.18805
2.72967
2.23636
1.70496
1.13419
0.522407
-0.132027
-0.83173
-1.57804
-2.37108
-3.20394
-4.06772
-5.0864
5.40143
5.4221
5.44373
5.45445
5.46016
5.46069
5.45492
5.4414
5.41983
5.39087
5.35265
5.30515
5.24749
5.18051
5.10179
5.01079
4.90768
4.7904
4.6582
4.51024
4.34629
4.16373
3.96216
3.74113
3.49763
3.23105
2.94031
2.62337
2.27874
1.90486
1.5001
1.06251
0.590983
0.0828309
-0.463521
-1.04994
-1.67783
-2.34946
-3.06733
-3.83295
-4.64167
-5.48913
-6.53453
3.47294
3.49297
3.51203
3.52449
3.53262
3.53519
3.53251
3.52219
3.50505
3.48032
3.44721
3.40492
3.35358
3.29208
3.21972
3.13615
3.0403
2.93132
2.8079
2.67007
2.51596
2.34425
2.15437
1.94493
1.71498
1.46286
1.18661
0.885309
0.557467
0.201666
-0.18432
-0.60169
-1.05249
-1.53851
-2.06149
-2.62324
-3.22565
-3.86994
-4.55877
-5.29301
-6.06954
-6.88013
-7.75643
1.5574
1.57587
1.59945
1.61291
1.62206
1.62702
1.62628
1.61874
1.60489
1.58373
1.55522
1.51774
1.47114
1.41603
1.35038
1.27371
1.18469
1.0834
0.968664
0.839519
0.695299
0.533906
0.355155
0.157717
-0.0594884
-0.298548
-0.560179
-0.846015
-1.1578
-1.49706
-1.86487
-2.26297
-2.69374
-3.15852
-3.65911
-4.19742
-4.77522
-5.39421
-6.05623
-6.76261
-7.51491
-8.31449
-9.10433
-0.349432
-0.329031
-0.307476
-0.291893
-0.280791
-0.273295
-0.271084
-0.274766
-0.285004