/*--------------------------------*- C++ -*----------------------------------*\
| =========                 |                                                 |
| \\      /  F ield         | OpenFOAM: The Open Source CFD Toolbox           |
|  \\    /   O peration     | Version:  2.3.0                                 |
|   \\  /    A nd           | Web:      www.OpenFOAM.org                      |
|    \\/     M anipulation  |                                                 |
\*---------------------------------------------------------------------------*/
FoamFile
{
    version     2.0;
    format      ascii;
    class       surfaceScalarField;
    location    "10000";
    object      phi;
}
// * * * * * * * * * * * * * * * * * * * * * * * * * * * * * * * * * * * * * //

dimensions      [0 3 -1 0 0 0 0];

internalField   nonuniform List<scalar> 
245372
(
0.00101041
-0.000509487
0.000554325
-0.00105525
0.000972552
-0.000471602
0.000509462
0.000941445
-0.000435267
0.000466374
0.000916572
-0.000401216
0.000426089
0.000897782
-0.000368874
0.000387664
0.000883742
-0.000337335
0.000351374
0.000874519
-0.000307982
0.000317205
0.000869945
-0.000280042
0.000284616
0.00087002
-0.000253736
0.000253661
0.000872605
-0.00022769
0.000225105
0.000879577
-0.000204197
0.000197225
0.000889058
-0.0001807
0.000171219
0.000901275
-0.000159122
0.000146905
0.000916256
-0.000138329
0.000123348
0.000932753
-0.000118318
0.000101821
0.000952532
-0.000100095
8.03153e-05
0.000972523
-8.1304e-05
6.1313e-05
0.000994071
-6.41289e-05
4.25807e-05
0.00101697
-4.74127e-05
2.45105e-05
0.00104092
-3.16543e-05
7.70923e-06
0.00106573
-1.69038e-05
-7.90898e-06
0.00109109
-1.53633e-06
-2.38238e-05
0.00111674
1.22477e-05
-3.79006e-05
0.00114249
2.60093e-05
-5.17508e-05
0.00116737
3.98001e-05
-6.46826e-05
0.00119339
5.22368e-05
-7.82588e-05
0.00121891
6.47865e-05
-9.03046e-05
0.00124281
7.76855e-05
-0.000101584
0.00126747
8.92201e-05
-0.000113883
0.00129105
0.000101145
-0.000124724
0.00131331
0.000113699
-0.000135961
0.00133605
0.000124885
-0.000147624
0.00135735
0.000136742
-0.000158042
0.00137699
0.000149464
-0.00016911
0.0013961
0.000160892
-0.000179999
0.00141599
0.000171993
-0.000191881
0.00143354
0.000185211
-0.000202757
0.00145279
0.000196937
-0.00021619
0.00147368
0.00020823
-0.000229119
0.00149935
0.000218711
-0.000244387
0.00152875
0.000231131
-0.000260527
0.00157384
0.000240102
-0.000285196
0.000242184
0.00165561
-0.000323954
0.000945442
-0.00047024
-0.000984689
0.000912241
-0.000438401
0.000884819
-0.000407845
0.000862621
-0.000379019
0.000845351
-0.000351604
0.000832927
-0.000324911
0.000824846
-0.0002999
0.000820395
-0.000275591
0.000819117
-0.000252458
0.000822193
-0.000230766
0.000827719
-0.000209723
0.000836448
-0.00018943
0.000847512
-0.000170186
0.000860681
-0.000151497
0.000876647
-0.000134284
0.000892919
-0.000116367
0.000912229
-0.000100614
0.000932396
-8.42958e-05
0.000954601
-6.96173e-05
0.000977322
-5.4376e-05
0.00100016
-3.97369e-05
0.0010251
-2.64849e-05
0.00104988
-1.25333e-05
0.00107583
6.2492e-08
0.00110269
1.294e-05
0.00112887
2.60568e-05
0.00115584
3.78175e-05
0.00118352
5.00025e-05
0.00121107
6.16708e-05
0.0012384
7.38224e-05
0.00126749
8.46002e-05
0.00129639
9.59906e-05
0.00132628
0.000106853
0.00135745
0.000118289
0.00139017
0.000128173
0.00142372
0.000138442
0.00146211
0.000146829
0.00150243
0.000156618
0.00154536
0.0001653
0.00159296
0.000171105
0.00164939
0.000174704
0.00171102
0.000178469
0.000176838
0.00177637
0.000881842
-0.000434794
-0.000917288
0.000852164
-0.000408724
0.000827513
-0.000383194
0.000807669
-0.000359174
0.000791885
-0.00033582
0.000780506
-0.000313532
0.000773197
-0.000292591
0.000769258
-0.000271652
0.000768673
-0.000251873
0.000770787
-0.00023288
0.00077558
-0.000214515
0.000783214
-0.000197064
0.000793369
-0.00018034
0.000805814
-0.000163942
0.000819323
-0.000147794
0.000835811
-0.000132856
0.000853391
-0.000118194
0.000872411
-0.000103315
0.000892015
-8.92214e-05
0.000913977
-7.63381e-05
0.000936875
-6.26345e-05
0.000959788
-4.93986e-05
0.000984632
-3.73773e-05
0.00100919
-2.44946e-05
0.00103472
-1.25877e-05
0.00106126
-4.8875e-07
0.00108782
1.1263e-05
0.00111517
2.26513e-05
0.00114326
3.35751e-05
0.00117214
4.49493e-05
0.00120072
5.6016e-05
0.00123013
6.65804e-05
0.00126035
7.66377e-05
0.00129145
8.71859e-05
0.00132364
9.5985e-05
0.00135694
0.000105143
0.00139057
0.000113198
0.001427
0.00012019
0.00146661
0.000125688
0.00150837
0.000129344
0.00155081
0.000132258
0.00159654
0.000132744
0.000128769
0.00164461
0.000819765
-0.000403451
-0.000851108
0.000792955
-0.000381913
0.000770285
-0.000360524
0.000752195
-0.000341084
0.000737982
-0.000321607
0.000727461
-0.000303012
0.000719688
-0.000284817
0.000715395
-0.000267359
0.000714658
-0.000251136
0.000716022
-0.000234244
0.000720052
-0.000218545
0.000726442
-0.000203454
0.000734599
-0.000188497
0.000745322
-0.000174666
0.000757355
-0.000159827
0.000771054
-0.000146554
0.000786664
-0.000133804
0.000803721
-0.000120372
0.000821773
-0.000107273
0.000840711
-9.52763e-05
0.000861125
-8.30483e-05
0.00088288
-7.11538e-05
0.000904435
-5.89315e-05
0.000927781
-4.78407e-05
0.000951425
-3.62323e-05
0.000975947
-2.50099e-05
0.00100047
-1.32644e-05
0.00102667
-3.54071e-06
0.00105173
8.50752e-06
0.00107841
1.82726e-05
0.00110575
2.86767e-05
0.00113379
3.85425e-05
0.00116241
4.80161e-05
0.00119176
5.78341e-05
0.00122188
6.58629e-05
0.00125277
7.42562e-05
0.00128553
8.04379e-05
0.001318
8.77215e-05
0.00135244
9.12455e-05
0.00138635
9.5431e-05
0.00142211
9.65001e-05
0.00145959
9.52677e-05
9.31638e-05
0.00149519
0.000759617
-0.000374693
-0.000788375
0.000735163
-0.00035746
0.000715133
-0.000340493
0.00069812
-0.000324072
0.00068494
-0.000308427
0.000674704
-0.000292776
0.000667251
-0.000277364
0.000663306
-0.000263415
0.000661273
-0.000249103
0.0006621
-0.000235071
0.000665287
-0.000221733
0.000670184
-0.00020835
0.000677478
-0.000195791
0.000686141
-0.000183329
0.000696839
-0.000170525
0.000708912
-0.000158626
0.000722343
-0.000147236
0.000737394
-0.000135423
0.000753518
-0.000123397
0.000771027
-0.000112785
0.000789178
-0.0001012
0.000807865
-8.98408e-05
0.0008283
-7.93666e-05
0.000849056
-6.85965e-05
0.000870643
-5.78195e-05
0.000892304
-4.66712e-05
0.000915458
-3.64176e-05
0.000938494
-2.65771e-05
0.00096304
-1.60386e-05
0.000987151
-5.83799e-06
0.00101186
3.96626e-06
0.00103799
1.24086e-05
0.00106369
2.23212e-05
0.00109082
3.06996e-05
0.00111832
3.83693e-05
0.00114644
4.61345e-05
0.00117375
5.31292e-05
0.00120368
5.77919e-05
0.00123411
6.08128e-05
0.00126468
6.48634e-05
0.00129665
6.45247e-05
0.00132716
6.47657e-05
6.03617e-05
0.00135996
0.000701972
-0.000349123
-0.000727542
0.000679838
-0.000335327
0.000660914
-0.000321568
0.000645502
-0.00030866
0.000632859
-0.000295784
0.000623424
-0.000283341
0.000616673
-0.000270612
0.000612121
-0.000258863
0.00060983
-0.000246811
0.000609965
-0.000235206
0.000611934
-0.000223702
0.000616303
-0.000212719
0.000621792
-0.00020128
0.000629325
-0.000190862
0.000638254
-0.000179454
0.000649014
-0.000169387
0.000660849
-0.000159071
0.000673647
-0.000148221
0.00068834
-0.00013809
0.000703163
-0.000127608
0.000719104
-0.00011714
0.000736843
-0.00010758
0.000754265
-9.67882e-05
0.000773129
-8.74607e-05
0.00079215
-7.68403e-05
0.000812575
-6.70967e-05
0.000833697
-5.75396e-05
0.000854462
-4.73424e-05
0.000875828
-3.7404e-05
0.000898592
-2.8602e-05
0.000921631
-1.9073e-05
0.000944125
-1.00852e-05
0.000968982
-2.5364e-06
0.000993099
6.5832e-06
0.00101762
1.38477e-05
0.00104327
2.0489e-05
0.00106924
2.71593e-05
0.00109656
3.0472e-05
0.00112268
3.46925e-05
0.00115011
3.7426e-05
0.00117729
3.73439e-05
0.00120674
3.53224e-05
3.38932e-05
0.00123321
0.000647525
-0.000325339
-0.000671308
0.000627262
-0.000315064
0.000610318
-0.000304625
0.00059536
-0.000293702
0.000583679
-0.000284104
0.00057408
-0.000273742
0.000567486
-0.000264019
0.000563148
-0.000254525
0.000560988
-0.000244651
0.000560568
-0.000234787
0.000561978
-0.000225112
0.000564865
-0.000215606
0.000569914
-0.000206329
0.000575514
-0.000196462
0.000583398
-0.000187338
0.000592371
-0.00017836
0.000602091
-0.000168791
0.000613944
-0.000160074
0.00062647
-0.000150616
0.000640053
-0.00014119
0.000654672
-0.000131759
0.000669685
-0.000122594
0.000686192
-0.000113295
0.000702773
-0.000104042
0.000720108
-9.4175e-05
0.000738026
-8.50147e-05
0.000756416
-7.59298e-05
0.000776208
-6.71338e-05
0.000796376
-5.7572e-05
0.000816867
-4.90934e-05
0.00083686
-3.90655e-05
0.000858927
-3.21528e-05
0.000879238
-2.28476e-05
0.000901763
-1.59413e-05
0.00092444
-8.8291e-06
0.000947158
-2.22895e-06
0.000972184
2.13284e-06
0.000994941
7.71533e-06
0.00101881
1.0822e-05
0.00104491
1.13309e-05
0.00106962
1.26303e-05
0.00109398
1.09622e-05
7.55492e-06
0.00112032
0.000596443
-0.000303726
-0.000618056
0.00057777
-0.000296391
0.000561352
-0.000288206
0.000548488
-0.000280838
0.000536993
-0.000272609
0.000528419
-0.000265167
0.000521952
-0.000257552
0.000516902
-0.000249476
0.00051414
-0.000241889
0.000513556
-0.000234203
0.000514393
-0.000225948
0.000516526
-0.00021774
0.000520397
-0.0002102
0.000526036
-0.0002021
0.00053245
-0.000193752
0.000540375
-0.000186286
0.000549012
-0.000177428
0.000558894
-0.000169956
0.000569871
-0.000161593
0.000581841
-0.00015316
0.000594812
-0.00014473
0.000607794
-0.000135576
0.000622343
-0.000127843
0.00063763
-0.000119329
0.000653524
-0.000110069
0.000670584
-0.000102075
0.000687417
-9.27631e-05
0.00070466
-8.43762e-05
0.000722233
-7.51455e-05
0.000739855
-6.6715e-05
0.00075969
-5.89004e-05
0.000778768
-5.12313e-05
0.000798913
-4.29919e-05
0.000818946
-3.59746e-05
0.000839262
-2.91454e-05
0.000860607
-2.35739e-05
0.000880652
-1.79118e-05
0.000902906
-1.45389e-05
0.000926085
-1.2357e-05
0.000947978
-1.05623e-05
0.000970518
-9.90951e-06
0.000994037
-1.25563e-05
-1.5676e-05
0.00101727
0.000548193
-0.000284326
-0.000567593
0.000531035
-0.000279233
0.000516569
-0.000273741
0.000503564
-0.000267832
0.00049332
-0.000262365
0.000485014
-0.000256861
0.00047856
-0.000251098
0.000473484
-0.0002444
0.000470831
-0.000239236
0.000469471
-0.000232842
0.000469822
-0.0002263
0.000471762
-0.000219679
0.000474653
-0.000213092
0.000479164
-0.000206611
0.000484983
-0.000199571
0.000491324
-0.000192627
0.000499343
-0.000185447
0.000508045
-0.000178658
0.000517351
-0.000170899
0.000527826
-0.000163635
0.000539179
-0.000156084
0.000551894
-0.00014829
0.000564726
-0.000140675
0.000578063
-0.000132667
0.000592842
-0.000124847
0.000607281
-0.000116515
0.00062256
-0.000108042
0.000638278
-0.000100095
0.000654276
-9.11441e-05
0.000671317
-8.37552e-05
0.0006883
-7.58839e-05
0.000705769
-6.86997e-05
0.000723904
-6.11269e-05
0.000741976
-5.40469e-05
0.000761227
-4.83963e-05
0.000780372
-4.2719e-05
0.000800303
-3.78429e-05
0.000820062
-3.42983e-05
0.000839647
-3.19417e-05
0.000858974
-2.98887e-05
0.000879805
-3.07405e-05
0.000900585
-3.33372e-05
0.000922448
-3.75381e-05
0.00148608
0.000226658
-5.71235e-05
0.00136963
0.000201793
-8.53432e-05
0.00128188
0.000173488
-8.5736e-05
0.0012171
0.000146783
-8.20031e-05
0.00117446
0.000119301
-7.66645e-05
0.00114926
9.50464e-05
-6.9842e-05
0.00113992
7.28346e-05
-6.35019e-05
0.00114514
5.11264e-05
-5.63379e-05
0.00116094
3.31173e-05
-4.89245e-05
0.00118614
1.63821e-05
-4.15818e-05
0.00122084
-1.00778e-06
-3.36906e-05
0.00126259
-1.66968e-05
-2.50564e-05
0.00131048
-3.1276e-05
-1.66058e-05
0.0013633
-4.67962e-05
-6.0274e-06
0.00142038
-6.17672e-05
4.68933e-06
0.00147943
-7.62786e-05
1.72217e-05
0.00154167
-9.20709e-05
2.98341e-05
0.00160513
-0.000107898
4.4439e-05
0.00166956
-0.000123616
5.91859e-05
0.00173459
-0.000141072
7.60453e-05
0.00179964
-0.000158712
9.36581e-05
0.00186319
-0.000176563
0.000113013
0.00192699
-0.000196349
0.00013255
0.00198751
-0.000215659
0.000155138
0.00204646
-0.000236304
0.000177351
0.00210337
-0.000258335
0.000201429
0.00215717
-0.000281957
0.000228153
0.00220707
-0.000305171
0.000255276
0.00225317
-0.00033004
0.00028394
0.0022945
-0.000356609
0.000315282
0.00233184
-0.000384158
0.000346817
0.00236331
-0.000412548
0.000381075
0.00238892
-0.00044385
0.000418236
0.00240916
-0.000475328
0.00045509
0.00242238
-0.000508097
0.000494875
0.00242829
-0.000543132
0.000537229
0.00242617
-0.000579374
0.00058149
0.00241696
-0.000618135
0.000627345
0.00239858
-0.00065744
0.000675821
0.00237148
-0.000699711
0.000726807
0.00233453
-0.00074338
0.000780335
0.0022875
-0.000788355
0.000835384
-0.000838921
0.00089509
0.00223133
0.00183074
0.000172284
0.00186596
0.000166577
0.00188755
0.000151898
0.0018983
0.000136033
0.00190042
0.000117179
0.00190074
9.47262e-05
0.0019001
7.34727e-05
0.00189936
5.18719e-05
0.00190211
3.03644e-05
0.00190895
9.53866e-06
0.00191768
-9.73786e-06
0.00192803
-2.70438e-05
0.00194385
-4.70948e-05
0.00196273
-6.56751e-05
0.00198377
-8.28075e-05
0.0020077
-0.000100206
0.00203328
-0.000117658
0.00205957
-0.000134187
0.00208841
-0.000152457
0.00211617
-0.000168833
0.00214568
-0.000188218
0.00217406
-0.000204939
0.00220229
-0.00022458
0.0022295
-0.000242873
0.00225656
-0.000263366
0.00228088
-0.000282651
0.00230296
-0.000304042
0.0023225
-0.000324707
0.00233983
-0.000347367
0.00235489
-0.000371671
0.00236563
-0.0003949
0.00237312
-0.00042004
0.00237568
-0.000446408
0.00237392
-0.00047357
0.00236722
-0.000501395
0.00235481
-0.000530722
0.00233775
-0.000562316
0.00231314
-0.000593521
0.00228355
-0.000627852
0.0022463
-0.000662459
0.00220111
-0.000698197
0.00215011
-0.000737347
-0.000776144
0.00208733
0.00169046
0.000126429
0.001738
0.00011904
0.00177872
0.000111179
0.00181484
9.99092e-05
0.00184785
8.41734e-05
0.00187481
6.77607e-05
0.00189843
4.98604e-05
0.00191953
3.07702e-05
0.0019387
1.11897e-05
0.00195693
-8.6898e-06
0.00197438
-2.71897e-05
0.00199307
-4.57318e-05
0.00201019
-6.42184e-05
0.00202732
-8.27966e-05
0.00204432
-9.9812e-05
0.00206246
-0.000118346
0.00208053
-0.000135727
0.00210068
-0.000154336
0.00211792
-0.0001697
0.00213801
-0.000188916
0.00215472
-0.000204933
0.00217349
-0.000223706
0.00218963
-0.000240719
0.00220487
-0.000258121
0.00221913
-0.000277619
0.00223191
-0.000295433
0.00224293
-0.000315058
0.00225172
-0.000333497
0.00225925
-0.000354901
0.00226262
-0.00037504
0.002263
-0.000395277
0.00226056
-0.000417602
0.00225528
-0.000441131
0.00224552
-0.000463808
0.00223172
-0.000487591
0.00221405
-0.000513055
0.00219019
-0.000538459
0.00216248
-0.000565804
0.00212897
-0.000594348
0.00208945
-0.000622937
0.00204427
-0.000653019
0.00199096
-0.000684034
-0.000718059
0.00193287
0.00153426
8.73613e-05
0.0015699
8.33971e-05
0.0016086
7.24884e-05
0.00164498
6.3528e-05
0.00167851
5.06419e-05
0.00171175
3.45156e-05
0.00174162
1.99926e-05
0.00176961
2.78389e-06
0.00179608
-1.52857e-05
0.00182105
-3.36547e-05
0.00184333
-4.94711e-05
0.00186618
-6.85867e-05
0.00188806
-8.60904e-05
0.00190893
-0.000103675
0.00193059
-0.000121467
0.00195003
-0.000137786
0.00196981
-0.000155508
0.00198744
-0.000171963
0.00200497
-0.000187236
0.00202125
-0.000205196
0.00203867
-0.000222352
0.00205185
-0.00023688
0.00206558
-0.000254453
0.00207852
-0.000271066
0.00208906
-0.000288153
0.0020982
-0.000304577
0.00210453
-0.000321383
0.00210999
-0.000338958
0.00211222
-0.000357138
0.00211183
-0.000374649
0.00210975
-0.000393195
0.00210456
-0.000412413
0.00209575
-0.00043232
0.00208315
-0.000451205
0.00206766
-0.000472102
0.00204734
-0.000492733
0.00202426
-0.00051538
0.00199503
-0.000536578
0.00196116
-0.000560477
0.00192287
-0.00058465
0.0018794
-0.000609545
0.00183
-0.000634631
-0.000662111
0.00177405
0.00139028
5.70429e-05
0.00142441
4.92661e-05
0.00145475
4.21463e-05
0.00148819
3.00919e-05
0.00151993
1.88931e-05
0.00154951
4.94153e-06
0.00158004
-1.05362e-05
0.00160838
-2.55604e-05
0.00163412
-4.1022e-05
0.00165913
-5.86661e-05
0.00168484
-7.51812e-05
0.0017095
-9.32451e-05
0.00173197
-0.000108563
0.00175355
-0.000125252
0.00177409
-0.000142015
0.00179513
-0.000158825
0.00181366
-0.000174037
0.00183246
-0.000190764
0.00184987
-0.000204638
0.00186615
-0.000221477
0.00188041
-0.000236619
0.00189454
-0.000251008
0.00190791
-0.000267825
0.00191807
-0.000281224
0.00192734
-0.000297421
0.00193391
-0.000311149
0.00194039
-0.000327856
0.00194382
-0.00034239
0.00194543
-0.00035875
0.00194399
-0.000373208
0.00194084
-0.00039005
0.00193406
-0.000405635
0.00192426
-0.000422519
0.001912
-0.000438942
0.00189629
-0.00045639
0.00187767
-0.000474111
0.00185396
-0.000491669
0.00182733
-0.000509954
0.00179523
-0.000528374
0.00175995
-0.000549372
0.00171898
-0.000568575
0.00167296
-0.000588608
-0.000611555
0.0016224
0.00126256
2.76902e-05
0.00129132
2.05033e-05
0.00132083
1.26356e-05
0.00134804
2.88515e-06
0.00137671
-9.78164e-06
0.0014041
-2.24426e-05
0.00143119
-3.76316e-05
0.00145782
-5.21861e-05
0.00148417
-6.73762e-05
0.00150867
-8.3162e-05
0.00153244
-9.89497e-05
0.00155559
-0.000116396
0.00157821
-0.000131183
0.00159877
-0.000145815
0.00161992
-0.000163159
0.00163884
-0.000177753
0.00165815
-0.000193342
0.00167502
-0.000207635
0.00169215
-0.000221765
0.00170643
-0.000235761
0.00172068
-0.000250867
0.00173467
-0.000265003
0.00174438
-0.00027753
0.00175459
-0.00029144
0.00176282
-0.000305644
0.00177016
-0.00031849
0.00177487
-0.000332568
0.00177745
-0.000344969
0.00177798
-0.000359276
0.00177782
-0.00037305
0.00177357
-0.000385801
0.00176681
-0.000398874
0.00175851
-0.000414218
0.00174645
-0.000426886
0.00173123
-0.000441173
0.00171257
-0.000455448
0.00169057
-0.000469666
0.00166558
-0.000484962
0.00163729
-0.000500084
0.0016036
-0.000515686
0.00156622
-0.000531193
0.00152557
-0.000547957
-0.000563292
0.00147731
0.00114563
2.38176e-06
0.00117165
-5.52418e-06
0.00119718
-1.28863e-05
0.00122315
-2.30895e-05
0.00124953
-3.61626e-05
0.00127482
-4.77262e-05
0.00129857
-6.13894e-05
0.00132378
-7.73962e-05
0.00134738
-9.0968e-05
0.00136931
-0.000105096
0.00139243
-0.000122066
0.00141241
-0.000136378
0.00143325
-0.000152027
0.00145507
-0.000167636
0.00147354
-0.000181625
0.0014913
-0.000195514
0.00150844
-0.000210478
0.00152438
-0.000223581
0.00154065
-0.000238035
0.00155583
-0.000250939
0.00156849
-0.000263525
0.00157949
-0.000276006
0.00159054
-0.000288578
0.00159988
-0.000300782
0.00160735
-0.000313108
0.00161294
-0.000324087
0.00161672
-0.000336341
0.00162003
-0.000348288
0.00162012
-0.00035936
0.0016184
-0.000371335
0.00161503
-0.000382426
0.00160956
-0.000393408
0.00159998
-0.000404631
0.00158905
-0.000415957
0.00157541
-0.000427538
0.00155816
-0.000438197
0.00153851
-0.000450011
0.00151595
-0.000462402
0.00148862
-0.000472758
0.00145846
-0.000485524
0.00142497
-0.000497703
0.00138629
-0.000509282
-0.000522207
0.00134521
0.00104053
-2.0876e-05
0.00106324
-2.82365e-05
0.00108664
-3.62892e-05
0.00111087
-4.73225e-05
0.00113413
-5.94191e-05
0.00115629
-6.98829e-05
0.00117988
-8.49789e-05
0.00120104
-9.85606e-05
0.00122213
-0.00011206
0.00124445
-0.00012741
0.00126395
-0.000141573
0.00128487
-0.000157297
0.00130404
-0.000171196
0.00132161
-0.000185207
0.00133878
-0.000198786
0.0013565
-0.000213242
0.00137236
-0.000226335
0.00138762
-0.000238839
0.0014018
-0.000252211
0.00141495
-0.000264093
0.00142601
-0.000274581
0.00143714
-0.000287136
0.00144697
-0.000298409
0.00145548
-0.000309294
0.00146215
-0.000319781
0.00146839
-0.000330321
0.00147196
-0.000339917
0.00147454
-0.000350863
0.00147479
-0.000359611
0.00147258
-0.000369122
0.00146897
-0.000378816
0.00146304
-0.000387485
0.00145501
-0.000396594
0.00144519
-0.000406145
0.00143208
-0.000414427
0.00141668
-0.000422796
0.00139871
-0.000432039
0.00137677
-0.000440461
0.00135297
-0.00044896
0.00132584
-0.000458394
0.00129436
-0.000466221
0.00126002
-0.000474945
-0.000485064
0.00122288
0.000944074
-4.25023e-05
0.000965317
-4.94793e-05
0.000987372
-5.83449e-05
0.00100851
-6.84624e-05
0.00102941
-8.03202e-05
0.00105158
-9.20524e-05
0.00107126
-0.000104657
0.00109016
-0.000117457
0.00111035
-0.000132248
0.0011293
-0.000146367
0.00114842
-0.000160693
0.00116615
-0.000175023
0.00118388
-0.000188932
0.00120119
-0.000202513
0.00121816
-0.000215763
0.00123372
-0.000228793
0.0012488
-0.000241419
0.00126153
-0.000251566
0.00127384
-0.000264524
0.00128559
-0.000275841
0.00129743
-0.000286428
0.00130733
-0.000297034
0.00131601
-0.000307082
0.00132399
-0.000317275
0.00132963
-0.000325422
0.00133475
-0.000335445
0.00133944
-0.000344609
0.00134054
-0.00035196
0.00133976
-0.000358829
0.00133816
-0.000367525
0.00133459
-0.000375246
0.00132947
-0.000382368
0.00132233
-0.000389454
0.00131244
-0.000396251
0.00130058
-0.000402565
0.00128691
-0.000409132
0.00126991
-0.000415037
0.00125089
-0.000421433
0.00122805
-0.000426126
0.00120276
-0.000433099
0.00117541
-0.000438876
0.00114477
-0.0004443
-0.00045044
0.00111014
0.000292254
0.00253815
-0.00275717
-7.3234e-05
0.000496652
0.00245415
-0.00265855
0.000685214
0.00237285
-0.00256141
0.000859087
0.00229447
-0.00246835
0.00101874
0.00221894
-0.00237859
0.00116445
0.00214617
-0.00229188
0.00129667
0.00207585
-0.00220806
0.00141587
0.00200805
-0.00212725
0.00152267
0.00194269
-0.00204949
0.00161726
0.00187964
-0.00197423
0.00170005
0.00181887
-0.00190166
0.0017712
0.00176039
-0.00183154
0.00183173
0.00170341
-0.00176394
0.00188125
0.00164904
-0.00169856
0.00192049
0.00159623
-0.00163547
0.00194982
0.0015452
-0.00157453
0.00196926
0.00149625
-0.00151569
0.00197944
0.00144856
-0.00145874
0.00197988
0.00140296
-0.00140339
0.00197197
0.00135835
-0.00135044
0.00195538
0.0013153
-0.00129871
0.00193004
0.00127378
-0.00124844
0.00189669
0.00123342
-0.00120007
0.0018553
0.00119424
-0.00115285
0.00180622
0.00115605
-0.00110697
0.00174954
0.00111885
-0.00106217
0.00168537
0.00108279
-0.00101861
0.00161424
0.00104689
-0.000975761
0.00153624
0.00101189
-0.000933878
0.00145188
0.000977451
-0.000893095
0.00136107
0.000943312
-0.000852504
0.00126456
0.00090954
-0.000813022
0.00116289
0.00087555
-0.00077388
0.00105629
0.000841871
-0.000735272
0.000945696
0.000807432
-0.000696838
0.00083134
0.000773136
-0.00065878
0.000714099
0.000737859
-0.000620617
0.000595161
0.000700963
-0.000582024
0.000475191
0.000662367
-0.000542396
0.000356011
0.000619895
-0.000500715
0.000239445
0.000571028
-0.000454461
0.000130263
0.000506453
-0.000397269
0.000389561
3.10056e-05
-0.000290303
0.0002709
0.00233916
-7.19099e-05
0.000458169
0.00226688
0.000628607
0.00220241
0.000786807
0.00213627
0.000931582
0.00207416
0.00106427
0.00201348
0.00118439
0.00195573
0.00129274
0.00189969
0.00138976
0.00184568
0.00147555
0.00179385
0.00155086
0.00174357
0.00161591
0.00169534
0.00167078
0.00164854
0.00171611
0.00160371
0.00175198
0.00156036
0.0017786
0.00151859
0.00179674
0.00147811
0.0018063
0.00143901
0.00180771
0.00140154
0.00180098
0.00136509
0.00178629
0.00132999
0.00176438
0.00129569
0.00173515
0.00126265
0.00169854
0.00123086
0.00165528
0.0011993
0.00160506
0.00116906
0.00154839
0.00113946
0.00148516
0.00111012
0.00141591
0.00108114
0.00134058
0.00105278
0.00125958
0.00102431
0.00117322
0.0009959
0.00108157
0.000967199
0.000985599
0.000937842
0.000884694
0.000908338
0.000780595
0.000877233
0.000673694
0.000844761
0.000564191
0.000810466
0.000453633
0.000772925
0.000342808
0.000730719
0.000234197
0.00067964
0.000131448
0.000609201
0.000483762
3.72472e-05
0.000250962
0.00215781
-6.96213e-05
0.000420093
0.00209775
0.000576412
0.0020461
0.000719896
0.00199279
0.000852041
0.00194202
0.000972137
0.00189339
0.00108134
0.00184653
0.00117994
0.00180109
0.00126786
0.00175775
0.0013462
0.00171551
0.00141429
0.00167548
0.00147343
0.00163621
0.0015233
0.00159866
0.00156456
0.00156245
0.00159722
0.0015277
0.00162181
0.001494
0.00163839
0.00146152
0.00164728
0.00143013
0.00164865
0.00140016
0.00164299
0.00137075
0.00163052
0.00134245
0.00161071
0.0013155
0.00158475
0.0012886
0.00155235
0.00126326
0.0015135
0.00123816
0.00146885
0.00121371
0.0014184
0.00118992
0.00136202
0.00116649
0.00129999
0.00114318
0.00123256
0.00112021
0.00115992
0.00109694
0.00108237
0.00107345
0.000999837
0.00104973
0.000912577
0.0010251
0.00082169
0.000999225
0.00072689
0.000972033
0.000628677
0.000942974
0.000528244
0.000910899
0.000426021
0.000875149
0.000323397
0.000833343
0.000222087
0.00078095
0.000126051
0.000705237
0.000570544
3.92684e-05
0.000233629
0.0019894
-6.52114e-05
0.000384891
0.00194649
0.000527592
0.0019034
0.000658713
0.00186167
0.000778384
0.00182235
0.000887873
0.0017839
0.00098703
0.00174737
0.00107643
0.00171169
0.00115668
0.0016775
0.00122732
0.00164487
0.00128985
0.00161295
0.00134332
0.00158274
0.00138858
0.0015534
0.00142605
0.00152498
0.00145598
0.00149777
0.00147833
0.00147165
0.00149331
0.00144654
0.00150138
0.00142205
0.00150311
0.00139843
0.00149815
0.00137571
0.00148666
0.00135394
0.00146942
0.00133275
0.00144591
0.00131211
0.00141681
0.00129236
0.00138211
0.00127285
0.00134203
0.0012538
0.0012965
0.00123544
0.00124604
0.00121695
0.00119028
0.00119893
0.00112989
0.0011806
0.00106446
0.00116237
0.000994455
0.00114346
0.000920095
0.00112409
0.000841558
0.00110364
0.000758947
0.00108184
0.000672736
0.00105824
0.000583492
0.00103222
0.000491705
0.00100269
0.000398001
0.000968853
0.000303495
0.000927849
0.000210077
0.000874369
0.000121122
0.000794192
0.000650928
4.07388e-05
0.000214055
0.00184101
-6.56714e-05
0.000355099
0.00180544
0.00048374
0.00177475
0.000601748
0.00174366
0.000710769
0.00171333
0.000810097
0.00168457
0.000900593
0.00165688
0.000981805
0.00163048
0.00105448
0.00160483
0.00111893
0.00158042
0.00117526
0.00155663
0.00122417
0.00153383
0.00126533
0.00151224
0.00129929
0.00149101
0.00132624
0.00147083
0.00134663
0.00145126
0.00136078
0.00143239
0.00136831
0.00141452
0.00136948
0.00139726
0.00136502
0.00138017
0.00135494
0.00136402
0.00133919
0.00134849
0.00131825
0.00133305
0.00129229
0.00131832
0.00126085
0.00130429
0.00122486
0.00128978
0.00118403
0.00127628
0.00113834
0.00126263
0.00108826
0.00124901
0.00103373
0.00123513
0.00097492
0.00122118
0.000911881
0.0012065
0.000844814
0.00119116
0.000773752
0.0011747
0.000698791
0.0011568
0.000620888
0.00113615
0.000539808
0.0011133
0.000455895
0.0010866
0.000370449
0.0010543
0.000284043
0.00101425
0.000197868
0.000960544
0.000115463
0.000876596
0.00072512
4.12707e-05
0.000198045
0.00170287
-5.9904e-05
0.000323827
0.00167966
0.000442227
0.00165635
0.000550343
0.00163554
0.000648805
0.00161486
0.000739178
0.0015942
0.000821112
0.00157494
0.000894895
0.0015567
0.000960867
0.00153886
0.00101979
0.0015215
0.00107103
0.00150538
0.0011151
0.00148976
0.00115276
0.00147458
0.00118369
0.00146009
0.00120815
0.00144637
0.00122662
0.00143279
0.00123907
0.00141994
0.00124603
0.00140756
0.00124767
0.00139561
0.0012435
0.00138434
0.00123451
0.00137301
0.0012204
0.0013626
0.00120135
0.0013521
0.00117775
0.00134191
0.00114991
0.00133213
0.00111707
0.00132263
0.00108004
0.00131331
0.0010392
0.00130347
0.000994046
0.00129417
0.000944772
0.0012844
0.000891633
0.00127432
0.000834748
0.00126338
0.000773984
0.00125192
0.000709747
0.00123893
0.000642371
0.00122417
0.000571421
0.0012071
0.000497647
0.00118707
0.000421632
0.00116261
0.000343397
0.00113253
0.000264132
0.00109352
0.000185308
0.00103937
0.000109548
0.000952357
0.00079371
4.09575e-05
0.000181054
0.00157749
-5.56707e-05
0.000296578
0.00156413
0.00040215
0.00155078
0.000502734
0.00153496
0.000592089
0.00152551
0.000674147
0.00151214
0.000748387
0.0015007
0.000815636
0.00148945
0.000875805
0.00147869
0.000928827
0.00146848
0.000975294
0.00145892
0.0010156
0.00144946
0.00104948
0.0014407
0.00107762
0.00143194
0.00110015
0.00142384
0.00111695
0.00141599
0.00112824
0.00140864
0.0011346
0.0014012
0.00113592
0.0013943
0.00113247
0.00138779
0.00112427
0.00138121
0.00111176
0.00137511
0.00109468
0.00136918
0.00107316
0.00136343
0.00104757
0.00135772
0.00101812
0.00135208
0.000984907
0.00134652
0.000947567
0.00134081
0.000906942
0.0013348
0.00086261
0.00132873
0.000814631
0.0013223
0.000763055
0.00131496
0.000708314
0.00130667
0.000650476
0.00129677
0.000589278
0.00128537
0.000525048
0.00127132
0.000458112
0.00125401
0.000388572
0.00123215
0.00031763
0.00120348
0.000245403
0.00116575
0.000173324
0.00111145
0.000103632
0.00102205
0.000857069
4.02738e-05
0.000165939
0.00146475
-5.32059e-05
0.000271143
0.00145893
0.000368925
0.001453
0.000456765
0.00144712
0.000541044
0.00144123
0.000614559
0.00143863
0.000682288
0.00143298
0.000743235
0.00142851
0.000797779
0.00142415
0.000845855
0.0014204
0.000888219
0.00141655
0.000924766
0.00141291
0.00095593
0.00140954
0.000981149
0.00140673
0.00100146
0.00140353
0.00101681
0.00140063
0.00102727
0.00139818
0.00103295
0.00139553
0.00103424
0.00139301
0.00103103
0.00139099
0.0010235
0.00138874
0.00101205
0.00138655
0.000996805
0.00138443
0.000977531
0.0013827
0.000954375
0.00138088
0.000927809
0.00137864
0.000897716
0.00137661
0.000864201
0.00137432
0.000826988
0.00137201
0.000786841
0.00136888
0.000743435
0.0013657
0.000696993
0.0013614
0.000647495
0.00135616
0.000594877
0.00134939
0.000539484
0.00134076
0.000481203
0.00132961
0.000420334
0.00131488
0.000357317
0.00129517
0.000292452
0.00126834
0.000226948
0.00123125
0.000160918
0.00117748
9.71501e-05
0.00108582
0.000914925
3.92944e-05
0.000152929
-5.04695e-05
0.00136229
0.000250469
0.00136139
0.000338023
0.00136545
0.000418077
0.00136707
0.000490619
0.00136869
0.000558843
0.0013704
0.00062144
0.00137038
0.000676824
0.00137312
0.000726398
0.00137457
0.000770424
0.00137638
0.000808768
0.00137821
0.000841913
0.00137977
0.000870092
0.00138136
0.00089339
0.00138343
0.000911693
0.00138523
0.000925343
0.00138698
0.000934928
0.0013886
0.000940306
0.00139015
0.000941206
0.00139211
0.000938475
0.00139372
0.000931715
0.0013955
0.000921602
0.00139666
0.000907453
0.00139857
0.000889991
0.00140017
0.000869241
0.00140163
0.000844916
0.00140297
0.000817813
0.00140371
0.000787299
0.00140484
0.000754006
0.0014053
0.000717509
0.00140537
0.000678562
0.00140465
0.000636347
0.00140361
0.000591266
0.00140124
0.000543913
0.00139674
0.000493811
0.00139087
0.000441475
0.00138194
0.000386107
0.00137024
0.000328557
0.00135272
0.000269408
0.00132749
0.000209799
0.00129086
0.000149911
0.00123737
9.22926e-05
0.00114343
3.91573e-05
0.00096806
-6.96552e-05
0.000186728
-8.60658e-05
-0.000110863
0.000167723
-0.000126514
-0.000145873