/*--------------------------------*- C++ -*----------------------------------*\
| =========                 |                                                 |
| \\      /  F ield         | OpenFOAM: The Open Source CFD Toolbox           |
|  \\    /   O peration     | Version:  2.3.0                                 |
|   \\  /    A nd           | Web:      www.OpenFOAM.org                      |
|    \\/     M anipulation  |                                                 |
\*---------------------------------------------------------------------------*/
FoamFile
{
    version     2.0;
    format      ascii;
    class       volVectorField;
    location    "10000";
    object      U;
}
// * * * * * * * * * * * * * * * * * * * * * * * * * * * * * * * * * * * * * //

dimensions      [0 1 -1 0 0 0 0];

internalField   nonuniform List<vector> 
123156
(
(9.79275 -3.36579 -1.48465e-21)
(9.63072 -3.51017 -2.63032e-21)
(9.45935 -3.64914 -2.66863e-21)
(9.28654 -3.79108 1.75872e-21)
(9.11259 -3.93613 0)
(8.93704 -4.08374 -6.8951e-21)
(8.75981 -4.23397 6.94773e-21)
(8.58098 -4.38701 -3.7549e-21)
(8.40039 -4.5429 -7.86276e-21)
(8.21812 -4.70177 -1.37468e-20)
(8.03388 -4.86391 1.59551e-20)
(7.84758 -5.02944 -6.41788e-21)
(7.65904 -5.19865 -1.07238e-20)
(7.46812 -5.37192 9.81331e-21)
(7.27469 -5.54943 6.44933e-21)
(7.07834 -5.7317 5.89385e-21)
(6.8791 -5.91891 -4.14449e-21)
(6.67642 -6.11179 -9.15536e-21)
(6.46989 -6.31089 4.82417e-21)
(6.25907 -6.51677 3.60295e-21)
(6.04386 -6.73031 1.0064e-20)
(5.82346 -6.95222 -1.03508e-20)
(5.59742 -7.18312 0)
(5.36555 -7.42442 0)
(5.12702 -7.67727 6.851e-21)
(4.88058 -7.94325 -1.00107e-20)
(4.62591 -8.22381 -8.14242e-21)
(4.36226 -8.52122 1.68213e-21)
(4.08815 -8.83793 7.19531e-21)
(3.80297 -9.17648 0)
(3.50541 -9.54045 0)
(3.19372 -9.93349 -8.18798e-21)
(2.86836 -10.3602 3.69931e-20)
(2.52785 -10.8262 1.55379e-20)
(2.17168 -11.3387 2.03381e-20)
(1.80101 -11.9055 -7.23095e-20)
(1.41873 -12.5362 -2.26566e-21)
(1.02472 -13.2439 7.05732e-21)
(0.627493 -14.0433 0)
(0.239045 -14.9535 1.68232e-20)
(-0.111273 -16.0008 -2.73094e-21)
(-0.354215 -17.2471 0)
(-0.512406 -18.4818 9.73999e-21)
(9.96644 -3.55046 4.06381e-21)
(9.8286 -3.68881 -2.58562e-21)
(9.68326 -3.82206 0)
(9.53733 -3.95821 9.50107e-22)
(9.39108 -4.0975 0)
(9.24401 -4.23955 -1.62307e-21)
(9.09607 -4.38438 3.13183e-21)
(8.94746 -4.53215 3.69824e-21)
(8.79815 -4.68299 0)
(8.64805 -4.83707 9.65944e-21)
(8.49736 -4.9946 -3.16832e-21)
(8.34586 -5.15588 0)
(8.1935 -5.32112 9.79586e-21)
(8.0403 -5.49072 -2.99908e-21)
(7.88614 -5.66497 -2.41815e-21)
(7.73112 -5.84426 -1.21408e-20)
(7.57484 -6.02898 6.63533e-21)
(7.41746 -6.21949 8.753e-21)
(7.25891 -6.41636 -1.42225e-20)
(7.09927 -6.62021 2.45838e-20)
(6.93839 -6.83168 -2.37354e-20)
(6.7763 -7.0516 1.38348e-20)
(6.61317 -7.28082 0)
(6.44911 -7.52033 -1.11426e-20)
(6.28426 -7.77128 8.88258e-21)
(6.1191 -8.03486 -1.33114e-21)
(5.9541 -8.31266 -1.07847e-20)
(5.78989 -8.6064 1.03585e-20)
(5.62761 -8.91795 -5.41877e-22)
(5.46834 -9.24977 -7.95516e-21)
(5.31332 -9.60439 8.28804e-21)
(5.16529 -9.98469 2.69281e-22)
(5.02688 -10.3941 -7.91054e-22)
(4.90118 -10.836 6.02302e-21)
(4.79341 -11.3142 6.57305e-21)
(4.71085 -11.8325 8.34597e-21)
(4.65991 -12.3948 -2.32773e-20)
(4.65255 -13.004 8.35031e-20)
(4.70168 -13.6617 -1.11993e-19)
(4.82563 -14.3669 -1.58144e-21)
(5.04764 -15.1122 0)
(5.40509 -15.8794 1.82854e-20)
(5.95885 -16.6246 -3.80955e-19)
(10.1305 -3.71099 -3.58474e-21)
(10.0107 -3.84515 0)
(9.88467 -3.9747 3.0803e-21)
(9.75854 -4.10722 2.58584e-21)
(9.63226 -4.24292 3.03011e-21)
(9.50556 -4.38158 -1.36346e-21)
(9.37857 -4.5233 -1.07125e-21)
(9.25124 -4.66819 -7.83333e-22)
(9.12349 -4.81633 2.22801e-22)
(8.99555 -4.96794 0)
(8.86756 -5.12326 -1.54824e-21)
(8.73942 -5.28258 2.60073e-22)
(8.61125 -5.44623 0)
(8.48303 -5.61452 -1.68972e-21)
(8.35481 -5.7878 2.2889e-21)
(8.22636 -5.96656 -7.02888e-22)
(8.09795 -6.15113 -1.3174e-21)
(7.96949 -6.34198 -1.40206e-21)
(7.84104 -6.53956 7.40451e-22)
(7.71278 -6.74461 0)
(7.58483 -6.95754 3.07978e-21)
(7.45739 -7.17908 -2.43389e-21)
(7.33078 -7.41012 -1.90476e-21)
(7.20557 -7.65141 1.36326e-21)
(7.08213 -7.904 -5.31901e-22)
(6.96107 -8.16888 1.30018e-21)
(6.84325 -8.44717 0)
(6.72984 -8.74026 3.55276e-21)
(6.62223 -9.04936 -3.56985e-21)
(6.52195 -9.37607 6.82096e-23)
(6.43112 -9.72184 0)
(6.35253 -10.0883 -1.64342e-20)
(6.28941 -10.477 4.43147e-20)
(6.24556 -10.8895 5.34585e-21)
(6.22622 -11.3267 -2.94997e-20)
(6.23739 -11.7891 0)
(6.28665 -12.2761 1.35723e-20)
(6.38148 -12.7867 6.49564e-21)
(6.5314 -13.3173 -7.83896e-20)
(6.74745 -13.8606 -2.57031e-20)
(7.0405 -14.406 1.08806e-19)
(7.41848 -14.9389 9.81729e-20)
(7.88642 -15.4385 -1.12599e-19)
(10.2849 -3.85019 -6.04662e-22)
(10.1804 -3.97648 4.17436e-21)
(10.0715 -4.09989 -2.05802e-21)
(9.96282 -4.22641 -1.19312e-23)
(9.85425 -4.35601 -5.22294e-21)
(9.74558 -4.48853 -2.32285e-21)
(9.63688 -4.6241 2.33012e-21)
(9.52807 -4.76284 2.20157e-21)
(9.41926 -4.90485 1.02142e-21)
(9.31064 -5.0502 -1.11064e-21)
(9.20217 -5.19909 0)
(9.09417 -5.35188 -2.5596e-22)
(8.98678 -5.50885 -8.05357e-22)
(8.88002 -5.67038 4.89115e-22)
(8.77383 -5.8368 7.06152e-22)
(8.66818 -6.00854 6.32473e-22)
(8.56342 -6.18605 6.81436e-22)
(8.45948 -6.36967 4.55304e-23)
(8.3563 -6.5598 6.39691e-22)
(8.25446 -6.75701 -1.03031e-22)
(8.15421 -6.96189 1.00012e-22)
(8.0557 -7.17499 3.76278e-22)
(7.95948 -7.39693 0)
(7.86594 -7.62858 -1.06424e-21)
(7.77593 -7.87057 1.93175e-22)
(7.6901 -8.12379 -3.69011e-21)
(7.60938 -8.38917 4.07289e-21)
(7.53513 -8.66763 1.2248e-21)
(7.46893 -8.96001 -9.81802e-21)
(7.41215 -9.26756 2.29029e-20)
(7.36718 -9.59107 2.90436e-21)
(7.33645 -9.93139 -1.6861e-20)
(7.32306 -10.2891 1.35611e-21)
(7.33028 -10.6647 3.18045e-20)
(7.36243 -11.058 -7.26284e-20)
(7.42413 -11.4682 5.30731e-20)
(7.52049 -11.8934 -2.7468e-20)
(7.6574 -12.3305 -1.7213e-20)
(7.84033 -12.7748 0)
(8.07501 -13.2192 0)
(8.3651 -13.6551 -2.81287e-20)
(8.71274 -14.0703 1.92306e-22)
(9.11603 -14.451 -3.78196e-20)
(10.4255 -3.96745 1.15702e-20)
(10.3358 -4.08667 -5.46824e-21)
(10.2419 -4.20408 -1.02834e-20)
(10.1479 -4.32439 5.96273e-21)
(10.054 -4.44761 -4.65157e-21)
(9.96009 -4.57381 2.47827e-21)
(9.86607 -4.70309 2.35323e-21)
(9.77202 -4.83558 -1.36805e-21)
(9.67824 -4.97141 9.05397e-22)
(9.58451 -5.11065 5.86786e-22)
(9.49116 -5.25329 -3.49923e-21)
(9.39852 -5.39972 0)
(9.30665 -5.55031 7.96075e-22)
(9.2158 -5.70536 0)
(9.12579 -5.8653 1.14674e-21)
(9.03674 -6.03047 0)
(8.949 -6.20137 2.61355e-21)
(8.86242 -6.37838 6.60245e-23)
(8.77703 -6.56177 9.98893e-23)
(8.69338 -6.75195 1.39666e-22)
(8.61197 -6.94946 -1.81046e-21)
(8.5329 -7.15491 0)
(8.45663 -7.36885 2.66642e-21)
(8.38391 -7.5918 -2.75342e-21)
(8.31536 -7.82435 2.4119e-21)
(8.25175 -8.06715 -4.4048e-21)
(8.19403 -8.321 2.7135e-21)
(8.14389 -8.58634 0)
(8.10247 -8.86407 0)
(8.07149 -9.15466 4.70073e-21)
(8.05314 -9.45876 0)
(8.04978 -9.77672 -1.31013e-20)
(8.06415 -10.1085 7.12729e-21)
(8.09892 -10.4543 9.28297e-21)
(8.15792 -10.813 -1.09909e-20)
(8.24475 -11.1835 1.25507e-21)
(8.36334 -11.5633 7.74868e-20)
(8.51755 -11.9495 -4.90697e-20)
(8.71167 -12.3369 0)
(8.94822 -12.72 0)
(9.22918 -13.0914 1.44489e-19)
(9.5546 -13.4418 -8.85674e-20)
(9.92139 -13.7628 0)
(10.5576 -4.06778 -6.1276e-21)
(10.4793 -4.17995 0)
(10.3975 -4.29101 5.75714e-21)
(10.3154 -4.40486 -6.27518e-22)
(10.2336 -4.52133 0)
(10.152 -4.64088 -2.45175e-21)
(10.0703 -4.76359 -5.36902e-21)
(9.98867 -4.88951 -2.95647e-21)
(9.90712 -5.01896 -2.10588e-21)
(9.82545 -5.15189 4.4101e-21)
(9.7442 -5.28805 -4.58868e-22)
(9.66389 -5.42782 2.74977e-21)
(9.58459 -5.57165 0)
(9.50634 -5.71988 -2.28357e-21)
(9.42924 -5.87276 2.79717e-21)
(9.35354 -6.0307 -2.34175e-21)
(9.27947 -6.19432 -1.90496e-21)
(9.20668 -6.36411 -1.29257e-21)
(9.13515 -6.54024 1.31925e-21)
(9.0657 -6.72275 4.93986e-21)
(8.99873 -6.91231 2.19981e-21)
(8.93459 -7.10952 0)
(8.87376 -7.31483 0)
(8.81666 -7.52883 0)
(8.76409 -7.75181 5.59776e-21)
(8.71665 -7.98439 0)
(8.67578 -8.22689 0)
(8.64274 -8.47989 0)
(8.61864 -8.74406 -9.52665e-21)
(8.60526 -9.01965 -4.66442e-21)
(8.60472 -9.30686 0)
(8.6192 -9.60592 0)
(8.65087 -9.91674 0)
(8.70254 -10.2386 -1.92698e-20)
(8.77721 -10.5707 -8.91336e-22)
(8.87755 -10.9119 -1.28166e-20)
(9.0068 -11.2594 -1.69824e-20)
(9.16858 -11.6097 -4.04929e-21)
(9.36545 -11.9586 6.07128e-20)
(9.59891 -12.3018 -7.70989e-20)
(9.86968 -12.6324 7.68093e-20)
(10.1772 -12.9434 3.10964e-20)
(10.5194 -13.2277 3.47689e-20)
(10.6783 -4.15372 -2.26691e-22)
(10.6105 -4.25977 -3.12128e-23)
(10.5389 -4.36433 -7.71229e-21)
(10.4664 -4.47163 3.32501e-21)
(10.3944 -4.58121 0)
(10.323 -4.69407 -3.36547e-21)
(10.2515 -4.8104 6.38714e-21)
(10.1802 -4.92981 2.92721e-21)
(10.1091 -5.0529 0)
(10.0373 -5.18001 0)
(9.96541 -5.3102 3.49776e-21)
(9.89481 -5.44355 -2.72468e-21)
(9.82553 -5.58104 0)
(9.7572 -5.723 -3.51756e-21)
(9.68989 -5.86945 0)
(9.62451 -6.02047 1.63476e-21)
(9.56122 -6.177 -5.40575e-21)
(9.49946 -6.33997 1.78158e-21)
(9.43882 -6.5094 7.07301e-23)
(9.37979 -6.685 -5.36794e-21)
(9.32358 -6.8671 -3.70377e-21)
(9.2708 -7.05653 0)
(9.22151 -7.25405 -2.60043e-21)
(9.1761 -7.45992 5.85697e-21)
(9.13513 -7.67456 -2.5759e-21)
(9.09922 -7.89819 3.61889e-21)
(9.07018 -8.13073 -1.19503e-20)
(9.04924 -8.3731 -9.58078e-22)
(9.03721 -8.62584 9.42158e-21)
(9.03581 -8.88871 0)
(9.04743 -9.16174 0)
(9.07389 -9.44551 0)
(9.11689 -9.73926 1.88471e-20)
(9.1789 -10.0422 -9.71932e-21)
(9.26349 -10.3534 6.1332e-20)
(9.37172 -10.6722 -5.55001e-20)
(9.50628 -10.9952 4.72e-20)
(9.67117 -11.3186 3.86502e-20)
(9.86738 -11.6404 -1.65534e-20)
(10.0965 -11.9556 -2.12249e-20)
(10.3577 -12.2585 2.69998e-20)
(10.6512 -12.5424 -9.42358e-20)
(10.9755 -12.8028 2.80999e-20)
(10.7879 -4.22622 -2.40058e-22)
(10.7301 -4.32726 -8.50796e-21)
(10.6678 -4.4259 8.28537e-21)
(10.6022 -4.52718 -1.72649e-22)
(10.5381 -4.62968 -4.28223e-21)
(10.4756 -4.73586 -4.257e-21)
(10.4122 -4.84673 -3.84874e-21)
(10.3485 -4.9602 3.85714e-21)
(10.2868 -5.07676 0)
(10.2236 -5.19852 5.97926e-21)
(10.1591 -5.32356 -5.36253e-21)
(10.0958 -5.45108 0)
(10.0343 -5.5826 1.89535e-21)
(9.97422 -5.71913 1.57445e-21)
(9.91438 -5.86034 0)
(9.85628 -6.00542 0)
(9.80062 -6.15538 3.71176e-21)
(9.74748 -6.31183 0)
(9.69605 -6.47553 0)
(9.64508 -6.64505 5.3485e-21)
(9.5972 -6.82027 0)
(9.55299 -7.0025 -6.06221e-21)
(9.51302 -7.19261 -6.50951e-21)
(9.47686 -7.3911 1.07308e-21)
(9.44528 -7.59844 1.14209e-20)
(9.41775 -7.81465 -3.81477e-21)
(9.39708 -8.03842 0)
(9.38518 -8.2711 1.98596e-20)
(9.38261 -8.51415 0)
(9.38909 -8.76665 0)
(9.40875 -9.02805 1.51176e-20)
(9.44409 -9.29942 1.71052e-20)
(9.4941 -9.58061 1.94556e-20)
(9.56156 -9.86839 0)
(9.6533 -10.1623 -4.9107e-20)
(9.76651 -10.4645 0)
(9.90341 -10.7685 -3.06883e-20)
(10.0699 -11.0711 2.09557e-21)
(10.2645 -11.3714 -4.36725e-20)
(10.491 -11.665 -1.82656e-21)
(10.7432 -11.9472 0)
(11.0255 -12.2096 5.92824e-20)
(11.339 -12.4517 -6.58391e-20)
(10.8833 -4.28997 -3.79155e-21)
(10.8329 -4.38731 8.4571e-21)
(10.781 -4.48288 -8.86329e-21)
(10.7204 -4.5775 9.1646e-21)
(10.6645 -4.67059 -4.76306e-21)
(10.6133 -4.76776 8.73465e-21)
(10.561 -4.87215 -4.55235e-21)
(10.5014 -4.97987 0)
(10.4456 -5.09016 -2.1427e-21)
(10.3892 -5.20718 -6.59139e-21)
(10.3325 -5.32793 -2.35754e-21)
(10.2771 -5.44925 -1.28385e-22)
(10.2227 -5.57358 -2.3771e-21)
(10.1708 -5.70385 -2.40085e-21)
(10.1192 -5.84014 6.52796e-23)
(10.0688 -5.97977 -2.60642e-21)
(10.0207 -6.12238 -5.3593e-21)
(9.97294 -6.27012 0)
(9.92758 -6.42992 0)
(9.88098 -6.59535 -5.50378e-21)
(9.83989 -6.76516 0)
(9.80186 -6.94098 -7.94277e-22)
(9.76921 -7.12479 1.0171e-20)
(9.73916 -7.31653 -1.087e-20)
(9.71678 -7.51742 -1.21099e-20)
(9.69525 -7.72827 -5.02782e-21)
(9.67973 -7.9455 -5.20862e-21)
(9.67271 -8.1688 -5.05154e-21)
(9.67804 -8.4049 0)
(9.69072 -8.64897 0)
(9.71773 -8.89847 -2.2572e-20)
(9.76305 -9.1588 -2.51583e-20)
(9.81842 -9.43128 -4.97851e-20)
(9.88636 -9.70609 1.0843e-20)
(9.98469 -9.98418 2.46172e-20)
(10.0978 -10.2747 -2.95976e-20)
(10.2298 -10.5679 3.2779e-20)
(10.3954 -10.8574 -7.5674e-20)
(10.5795 -11.1415 0)
(10.8037 -11.4247 4.91901e-20)
(11.0404 -11.6918 -5.1182e-20)
(11.31 -11.9366 -5.72741e-20)
(11.6195 -12.1726 -1.31731e-19)
(1.13983 -17.924 -1.48618e-18)
(1.99745 -15.8368 1.60607e-18)
(2.72204 -13.8258 0)
(3.53712 -12.2844 1.80027e-18)
(4.25225 -11.0515 -1.68699e-18)
(4.82155 -10.0561 9.47677e-20)
(5.29215 -9.27571 1.74078e-18)
(5.71227 -8.69276 -1.56323e-18)
(6.10729 -8.27402 8.67214e-20)
(6.48727 -7.97903 -9.21478e-20)
(6.86637 -7.78426 1.50066e-18)
(7.2553 -7.67431 -1.1808e-18)
(7.64918 -7.6216 0)
(8.05702 -7.61546 9.79245e-19)
(8.47453 -7.64004 -1.19772e-18)
(8.90339 -7.68825 0)
(9.33611 -7.74934 0)
(9.77696 -7.82271 -1.02013e-18)
(10.2183 -7.90097 8.6566e-19)
(10.6611 -7.98336 0)
(11.1037 -8.06784 -9.52115e-20)
(11.5449 -8.15317 7.61657e-19)
(11.9803 -8.23551 -5.59415e-19)
(12.4139 -8.31749 0)
(12.8398 -8.39473 -8.55153e-19)
(13.2584 -8.46721 5.08724e-19)
(13.6713 -8.53596 8.09026e-19)
(14.0763 -8.59938 -1.5658e-19)
(14.4714 -8.65593 -1.24464e-18)
(14.8583 -8.70685 6.10669e-19)
(15.235 -8.75065 1.51119e-19)
(15.6016 -8.78737 -1.43707e-19)
(15.9582 -8.81761 0)
(16.3041 -8.84054 -5.78376e-19)
(16.6383 -8.85571 8.48303e-19)
(16.9613 -8.86344 -8.35486e-19)
(17.2728 -8.86393 2.79788e-19)
(17.5725 -8.85691 5.40058e-19)
(17.8603 -8.84258 0)
(18.1363 -8.8212 0)
(18.401 -8.79284 -2.66789e-19)
(18.6572 -8.76051 2.61452e-19)
(18.8878 -8.69429 4.80609e-19)
(6.66559 -17.216 8.6496e-19)
(7.42054 -17.4596 -4.84079e-19)
(8.17164 -17.3992 0)
(8.89996 -17.1016 -1.09021e-20)
(9.56651 -16.6391 0)
(10.1496 -16.0836 -8.81771e-19)
(10.6545 -15.494 -9.02484e-20)
(11.095 -14.9115 7.40281e-19)
(11.4808 -14.3557 -9.25834e-19)
(11.8227 -13.8386 9.5036e-19)
(12.1344 -13.3691 -9.62635e-19)
(12.4235 -12.9432 9.13122e-20)
(12.6956 -12.56 8.02749e-19)
(12.959 -12.2235 2.98583e-19)
(13.2156 -11.9288 -2.88023e-19)
(13.4663 -11.6698 3.70072e-19)
(13.715 -11.4444 -3.5825e-19)
(13.9623 -11.2476 8.46046e-20)
(14.2073 -11.074 0)
(14.4528 -10.9225 -8.03463e-20)
(14.6972 -10.7881 4.04536e-19)
(14.9412 -10.6687 -3.13058e-19)
(15.1843 -10.5615 2.97359e-19)
(15.4262 -10.4644 -2.99242e-19)
(15.6662 -10.3751 7.38027e-21)
(15.9047 -10.2927 4.36265e-19)
(16.1411 -10.2159 -4.28768e-19)
(16.3749 -10.1431 4.22211e-19)
(16.6049 -10.0728 -2.75307e-19)
(16.832 -10.0052 -2.71878e-19)
(17.0559 -9.93946 2.69264e-19)
(17.2752 -9.87408 -2.62077e-19)
(17.4908 -9.80951 2.64792e-19)
(17.702 -9.74488 -1.05336e-18)
(17.9083 -9.67938 7.81407e-19)
(18.1095 -9.61289 2.6292e-19)
(18.3057 -9.54527 -5.16273e-19)
(18.4969 -9.47634 -5.91888e-22)
(18.6827 -9.40557 0)
(18.8634 -9.33308 2.5077e-19)
(19.039 -9.2584 -5.01947e-19)
(19.2096 -9.18162 4.89833e-21)
(19.3762 -9.09599 -5.8508e-21)
(8.43559 -15.8809 4.58259e-20)
(9.04972 -16.2355 0)
(9.70099 -16.4614 0)
(10.3608 -16.5465 -3.78645e-19)
(11.0031 -16.5009 2.80118e-19)
(11.6078 -16.3466 0)
(12.1631 -16.1109 0)
(12.665 -15.8194 8.80592e-20)
(13.1147 -15.4944 0)
(13.5162 -15.1534 2.52064e-19)
(13.8754 -14.81 -3.33671e-19)
(14.1983 -14.4713 -8.80106e-20)
(14.4912 -14.1438 -3.33667e-19)
(14.7595 -13.8305 4.09253e-19)
(15.0071 -13.5327 -5.44424e-21)
(15.2381 -13.2513 0)
(15.4563 -12.9873 0)
(15.6636 -12.7395 -7.80131e-20)
(15.8637 -12.5085 7.24716e-20)
(16.0561 -12.2914 3.67064e-19)
(16.2445 -12.0896 -2.85511e-19)
(16.4275 -11.8998 4.18646e-19)
(16.6077 -11.7225 -2.81288e-19)
(16.7842 -11.5553 0)
(16.9581 -11.398 4.03663e-19)
(17.1291 -11.2492 -5.2746e-19)
(17.2978 -11.108 1.32425e-19)
(17.4638 -10.9733 0)
(17.6274 -10.8444 0)
(17.7892 -10.7212 3.77706e-19)
(17.9483 -10.6022 -3.7522e-19)
(18.1047 -10.4869 1.26595e-19)
(18.2587 -10.3753 1.22774e-19)
(18.4102 -10.2666 3.73461e-19)
(18.5587 -10.1601 -2.74262e-21)
(18.7043 -10.0556 -2.74051e-22)
(18.8472 -9.95292 -2.54927e-21)
(18.9869 -9.85143 5.11261e-21)
(19.1239 -9.75115 2.42507e-19)
(19.258 -9.65164 -2.46135e-19)
(19.3894 -9.55253 4.86526e-19)
(19.5174 -9.45315 -2.35668e-19)
(19.6487 -9.35725 -2.31987e-19)
(9.56981 -14.7872 -1.56221e-21)
(10.0705 -15.068 1.98232e-19)
(10.6045 -15.2841 6.89452e-20)
(11.1553 -15.427 -1.60842e-19)
(11.7065 -15.4943 6.03723e-20)
(12.2425 -15.4899 0)
(12.7531 -15.4216 -6.70815e-20)
(13.2318 -15.3001 -2.91508e-19)
(13.6754 -15.136 2.87407e-19)
(14.0836 -14.9404 -3.00865e-19)
(14.4581 -14.723 2.93902e-19)
(14.8008 -14.4912 0)
(15.1145 -14.252 0)
(15.4027 -14.0104 2.94207e-19)
(15.6685 -13.7699 -3.60611e-19)
(15.9149 -13.5335 -6.95494e-20)
(16.1442 -13.303 -6.85345e-20)
(16.3592 -13.0802 -2.76655e-19)
(16.5611 -12.865 6.75034e-20)
(16.7522 -12.6585 0)
(16.9335 -12.4606 -2.63156e-19)
(17.1068 -12.2713 2.52796e-19)
(17.2725 -12.0899 1.25352e-19)
(17.4317 -11.9161 -1.27037e-19)
(17.5856 -11.7499 0)
(17.7344 -11.5904 0)
(17.8789 -11.4371 3.71442e-21)
(18.0192 -11.2894 -3.60569e-19)
(18.1562 -11.1473 2.39185e-19)
(18.2899 -11.0103 -1.2085e-19)
(18.4205 -10.8775 3.0456e-21)
(18.548 -10.7489 -2.36752e-19)
(18.6729 -10.6244 -3.9158e-22)
(18.7951 -10.5031 -1.19406e-19)
(18.9144 -10.3846 0)
(19.0312 -10.2689 -4.7493e-19)
(19.1456 -10.1555 3.53139e-19)
(19.2576 -10.0441 2.3861e-19)
(19.3676 -9.93462 -4.33721e-21)
(19.4756 -9.82667 -2.33617e-19)
(19.582 -9.72022 0)
(19.6862 -9.61405 1.9468e-21)
(19.7954 -9.51486 4.56105e-19)
(10.3256 -14.0463 -4.05496e-20)
(10.7627 -14.2879 0)
(11.2256 -14.4803 -2.52684e-19)
(11.7034 -14.6203 2.04661e-19)
(12.1858 -14.7058 -1.1379e-19)
(12.6625 -14.7385 0)
(13.1251 -14.7229 6.44079e-20)
(13.5681 -14.6644 6.36037e-20)
(13.9875 -14.5698 0)
(14.3807 -14.4456 0)
(14.747 -14.2987 -2.74981e-19)
(15.0872 -14.1346 2.68698e-19)
(15.4025 -13.9585 -6.66126e-20)
(15.6947 -13.7744 -3.38554e-19)
(15.9656 -13.5858 2.65428e-19)
(16.217 -13.3953 2.50138e-21)
(16.4511 -13.2051 -1.96221e-19)
(16.6695 -13.0168 2.56364e-19)
(16.8739 -12.8316 1.2948e-19)
(17.0658 -12.6503 0)
(17.2464 -12.4737 0)
(17.4169 -12.3016 -2.46374e-19)
(17.5786 -12.1343 1.20092e-19)
(17.7326 -11.972 -3.24437e-21)
(17.8799 -11.8145 0)
(18.0209 -11.6618 0)
(18.1564 -11.5136 2.31575e-19)
(18.2872 -11.3698 1.16328e-19)
(18.4138 -11.2304 2.27511e-19)
(18.5364 -11.0952 -2.26271e-19)
(18.655 -10.9638 -1.12591e-19)
(18.7698 -10.8361 -1.12769e-19)
(18.8813 -10.7119 1.13888e-19)
(18.9895 -10.5907 4.5346e-19)
(19.0947 -10.4722 4.35924e-22)
(19.1972 -10.3564 -2.27291e-19)
(19.2972 -10.243 -1.14995e-19)
(19.3949 -10.1316 2.28604e-19)
(19.4907 -10.0219 -4.5909e-19)
(19.5848 -9.91414 5.72649e-19)
(19.6776 -9.80811 -1.60578e-21)
(19.7684 -9.70256 0)
(19.8638 -9.60521 -3.25116e-21)
(10.8917 -13.4806 0)
(11.2903 -13.6966 1.77006e-19)
(11.7094 -13.872 -2.24894e-19)
(12.1416 -14.0039 0)
(12.5785 -14.0923 1.56506e-21)
(13.0123 -14.1383 0)
(13.4362 -14.1447 0)
(13.8454 -14.1153 -1.20602e-19)
(14.2365 -14.0551 2.50319e-19)
(14.607 -13.9685 -2.45881e-19)
(14.9558 -13.8604 0)
(15.2827 -13.7351 6.57441e-20)
(15.5885 -13.597 -6.0861e-20)
(15.8745 -13.4493 1.8913e-19)
(16.1414 -13.2952 0)
(16.3903 -13.1369 1.86436e-19)
(16.623 -12.9766 0)
(16.8405 -12.8159 0)
(17.044 -12.6559 0)
(17.2345 -12.4974 -1.17994e-19)
(17.4132 -12.341 1.1661e-19)
(17.5815 -12.1872 1.16988e-19)
(17.7407 -12.0362 -1.14827e-19)
(17.8919 -11.888 -1.15424e-19)
(18.0358 -11.7435 1.13259e-19)
(18.1728 -11.6025 -1.11682e-19)
(18.3041 -11.4645 -2.28342e-21)
(18.4303 -11.33 0)
(18.5516 -11.1994 -2.20045e-19)
(18.6679 -11.0723 1.09515e-19)
(18.7795 -10.9485 7.55738e-22)
(18.8869 -10.8275 8.37388e-22)
(18.9903 -10.7095 2.18755e-19)
(19.0904 -10.594 -1.09397e-19)
(19.1873 -10.481 0)
(19.2813 -10.3704 -1.10266e-19)
(19.3726 -10.2619 -1.10838e-19)
(19.4616 -10.1552 3.31521e-19)
(19.5488 -10.0502 1.12079e-19)
(19.6344 -9.94698 -5.56937e-19)
(19.7188 -9.84548 -1.13805e-19)
(19.8012 -9.74515 -1.10181e-19)
(19.8852 -9.6532 1.0744e-19)
(11.3257 -13.0353 1.46968e-19)
(11.6974 -13.2345 -8.17096e-20)
(12.0867 -13.3973 1.36594e-19)
(12.4877 -13.5225 -9.22062e-20)
(12.8935 -13.6102 5.0975e-20)
(13.2964 -13.6621 0)
(13.6911 -13.6792 0)
(14.0738 -13.6646 5.73379e-20)
(14.4411 -13.6228 -1.17738e-19)
(14.791 -13.5573 -3.69355e-21)
(15.1227 -13.4714 1.17274e-19)
(15.4358 -13.3692 6.06562e-20)
(15.7307 -13.2547 0)
(16.008 -13.1306 -1.21374e-19)
(16.2678 -12.9996 0)
(16.5114 -12.8634 -1.20062e-19)
(16.7397 -12.7243 1.16397e-19)
(16.9528 -12.5844 -1.15414e-19)
(17.1517 -12.4441 0)
(17.3381 -12.3036 2.28836e-19)
(17.5133 -12.1639 -1.14363e-19)
(17.6785 -12.0254 0)
(17.8346 -11.8883 -1.11332e-19)
(17.9839 -11.753 2.19769e-19)
(18.1249 -11.6214 -1.08596e-19)
(18.2585 -11.4917 -2.15712e-19)
(18.3872 -11.3637 -1.0896e-19)
(18.5106 -11.2396 1.06594e-19)
(18.6278 -11.1193 1.07328e-19)
(18.7391 -11.0018 -1.08032e-19)
(18.8453 -10.8866 1.07423e-19)
(18.9474 -10.7736 0)
(19.0455 -10.6631 -1.06269e-19)
(19.1403 -10.5548 5.73441e-22)
(19.2317 -10.4488 0)
(19.3201 -10.345 1.07168e-19)
(19.4056 -10.2431 -2.14876e-19)
(19.4891 -10.1427 -8.39214e-22)
(19.5708 -10.0441 1.08907e-19)
(19.651 -9.94713 1.08587e-19)
(19.7303 -9.85193 -2.17625e-19)
(19.8079 -9.75885 1.09003e-19)
(19.8848 -9.67059 -1.08704e-19)
(11.6724 -12.67 -1.47591e-19)
(12.023 -12.8578 1.55046e-19)
(12.3904 -13.0123 8.74635e-20)
(12.7692 -13.1317 -8.7693e-20)
(13.1532 -13.218 -9.79932e-20)
(13.5324 -13.2744 -1.04191e-19)
(13.9032 -13.2978 1.01572e-19)
(14.2648 -13.2914 1.09044e-19)
(14.6123 -13.2622 -1.07608e-19)
(14.9438 -13.2103 0)
(15.2604 -13.1382 1.14284e-19)
(15.5619 -13.0513 6.71979e-22)
(15.8469 -12.9523 0)
(16.116 -12.8438 1.15113e-19)
(16.3675 -12.7293 -1.12695e-19)
(16.6044 -12.6085 1.14097e-19)
(16.8264 -12.4862 -2.25268e-19)
(17.0332 -12.3626 3.59868e-22)
(17.2262 -12.2366 1.10103e-19)
(17.4081 -12.109 -2.21305e-19)
(17.5796 -11.9822 1.08363e-19)
(17.7417 -11.8555 1.07342e-19)
(17.8952 -11.7293 -1.06382e-19)
(18.0434 -11.6051 2.11922e-19)
(18.1797 -11.4862 -2.09813e-19)
(18.31 -11.3651 2.10429e-19)
(18.4379 -11.2459 -1.03721e-19)
(18.5581 -11.1334 1.03146e-19)
(18.6706 -11.0228 0)
(18.7773 -10.9128 -2.06366e-19)
(18.8795 -10.8047 4.9382e-22)
(18.9781 -10.6988 2.05936e-19)
(19.0725 -10.5958 3.74629e-22)
(19.1636 -10.4945 -1.027e-19)
(19.2509 -10.3959 3.91788e-22)
(19.3351 -10.2992 -1.03593e-19)
(19.4163 -10.2042 -1.04078e-19)
(19.496 -10.1102 0)
(19.574 -10.0183 0)
(19.6505 -9.92779 -7.49793e-22)
(19.7263 -9.83888 -2.26392e-22)
(19.8007 -9.75222 1.06807e-19)
(19.876 -9.67045 -7.51453e-22)
(11.9382 -12.38 6.81572e-20)
(12.2745 -12.5585 -7.43803e-20)
(12.6362 -12.7021 7.98624e-20)
(13.0033 -12.8069 4.83067e-21)
(13.3704 -12.8949 -1.79576e-19)
(13.7292 -12.9587 1.87841e-19)
(14.0817 -12.9794 -9.96248e-20)
(14.4291 -12.9769 -1.02755e-19)
(14.7611 -12.9588 -1.05612e-19)
(15.0793 -12.9116 -1.09278e-19)
(15.3878 -12.8442 -4.30183e-22)
(15.6803 -12.7672 -2.21671e-19)
(15.9549 -12.6796 1.08882e-19)
(16.2149 -12.5842 -1.0863e-19)
(16.4563 -12.4841 0)
(16.6878 -12.3741 0)
(16.9047 -12.2648 5.47886e-20)
(17.107 -12.1472 -5.44607e-20)
(17.2937 -12.0315 5.47667e-20)
(17.4715 -11.9156 -5.31347e-20)
(17.6389 -11.8011 -1.57556e-19)
(17.7986 -11.6831 -5.69444e-22)
(17.9496 -11.566 -5.02077e-20)
(18.0984 -11.4518 -1.01654e-19)
(18.2256 -11.3448 5.30464e-20)
(18.3564 -11.2272 2.29054e-22)
(18.486 -11.1179 -4.91952e-20)
(18.6025 -11.0135 -2.45322e-19)
(18.708 -10.907 -4.97872e-20)
(18.8078 -10.8048 -5.01365e-20)
(18.9048 -10.7065 1.02906e-19)
(18.9991 -10.6109 -1.53051e-19)
(19.0885 -10.5167 0)
(19.176 -10.4225 1.025e-19)
(19.2575 -10.3331 -2.04423e-19)
(19.3382 -10.2432 2.06017e-19)
(19.4156 -10.155 1.01313e-21)
(19.4919 -10.0677 0)
(19.5661 -9.98328 1.04111e-19)
(19.6381 -9.8997 -2.11923e-19)
(19.7084 -9.81858 1.06187e-19)
(19.7764 -9.7401 -2.08035e-19)
(19.8509 -9.66575 -7.59774e-22)
(24.6291 4.59813 -1.5803e-19)
(24.6809 4.6251 6.46568e-19)
(24.7325 4.64763 -3.27491e-19)
(24.7829 4.67014 0)
(24.8321 4.69225 -1.68257e-19)
(24.8802 4.71389 -3.40532e-19)
(24.9271 4.73507 -5.18809e-19)
(24.9727 4.75576 1.71613e-19)
(25.017 4.77595 7.94111e-19)
(25.0598 4.79563 -7.18557e-19)
(25.1011 4.81477 8.18274e-19)
(25.1406 4.83333 0)
(25.1782 4.85128 7.57218e-19)
(25.2136 4.86858 -1.54465e-18)
(25.2465 4.88514 7.89581e-19)
(25.2765 4.90091 1.01318e-19)
(25.3034 4.9158 -5.04324e-23)
(25.3264 4.92968 1.72353e-18)
(25.3452 4.94241 -1.66555e-18)
(25.3589 4.95384 0)
(25.3667 4.96375 0)
(25.3676 4.9719 0)
(25.3604 4.97798 6.50535e-20)
(25.3436 4.98165 6.81321e-20)
(25.3153 4.98246 0)
(25.2734 4.97992 -1.50684e-19)
(25.2155 4.97345 0)
(25.1385 4.9624 -4.20451e-20)
(25.0393 4.94612 -1.37585e-18)
(24.9146 4.924 -2.42704e-21)
(24.761 4.89536 -2.64885e-21)
(24.5746 4.85946 -3.01979e-21)
(24.3511 4.81537 5.39941e-20)
(24.0849 4.76198 -1.27551e-19)
(23.7692 4.69778 4.20228e-18)
(23.3947 4.62074 -2.33583e-18)
(22.9484 4.52792 -8.1402e-20)
(22.4107 4.41502 -3.01119e-18)
(21.7508 4.27509 -6.33583e-20)
(20.913 4.09497 3.80935e-18)
(19.7786 3.84808 0)
(18.0225 3.442 0)
(14.0496 2.6291 1.61541e-19)
(24.6494 4.54955 1.95753e-22)
(24.6967 4.57411 1.68118e-19)
(24.7438 4.5943 1.3132e-21)
(24.7901 4.61438 -3.4276e-19)
(24.8355 4.63414 6.95264e-19)
(24.8801 4.6535 -5.24312e-19)
(24.9237 4.67246 7.09157e-19)
(24.9664 4.69102 -7.1418e-19)
(25.0082 4.70917 6.34443e-19)
(25.0489 4.72692 -1.37483e-18)
(25.0885 4.74424 8.35712e-19)
(25.127 4.76111 9.4458e-20)
(25.164 4.7775 9.62174e-20)
(25.1996 4.79339 0)
(25.2336 4.80874 0)
(25.2656 4.82349 0)
(25.2954 4.83761 -2.77485e-22)
(25.3227 4.851 2.18707e-19)
(25.347 4.86359 -1.13118e-19)
(25.3679 4.87526 -5.84488e-20)
(25.3846 4.88586 6.07104e-20)
(25.3965 4.89523 0)
(25.4025 4.90312 9.27251e-19)
(25.4015 4.90928 -1.17525e-18)
(25.3921 4.91334 0)
(25.3724 4.91488 5.55786e-24)
(25.3402 4.91337 0)
(25.2929 4.90817 -1.45456e-18)
(25.2271 4.89854 -3.87842e-21)
(25.1393 4.88365 2.98211e-18)
(25.0252 4.86261 -3.27402e-18)
(24.8804 4.83444 1.57988e-18)
(24.6996 4.79801 0)
(24.4765 4.752 2.00895e-18)
(24.2033 4.69473 -6.28017e-20)
(23.8698 4.62401 -4.72539e-18)
(23.4621 4.53687 2.59373e-18)
(22.9597 4.42899 8.98664e-20)
(22.3303 4.29364 -1.01935e-19)
(21.5166 4.11784 2.35057e-19)
(20.3942 3.87686 -1.40147e-19)
(18.6261 3.46817 -2.82059e-18)
(14.9641 2.68176 3.79398e-18)
(24.6667 4.50743 3.45241e-19)
(24.7107 4.5285 -3.43191e-19)
(24.7543 4.54658 0)
(24.7973 4.56454 0)
(24.8396 4.58223 -3.55271e-19)
(24.8813 4.5996 2.67754e-19)
(24.9223 4.61664 6.33042e-19)
(24.9626 4.63335 2.39433e-21)
(25.0023 4.64972 -6.43812e-19)
(25.0412 4.66577 -9.33389e-20)
(25.0792 4.68147 -9.46651e-20)
(25.1164 4.69682 -7.70329e-19)
(25.1526 4.71178 5.86056e-19)
(25.1877 4.72632 0)
(25.2216 4.74041 -1.02103e-19)
(25.2541 4.75401 0)
(25.285 4.76708 6.47309e-19)
(25.314 4.77955 -1.88636e-18)
(25.3408 4.79137 1.11847e-19)
(25.3651 4.80244 -2.60942e-21)
(25.3863 4.81266 1.91028e-18)
(25.4039 4.82189 -1.02497e-18)
(25.4171 4.82997 6.70519e-20)
(25.425 4.83669 0)
(25.4264 4.84177 0)
(25.4198 4.8449 7.74728e-20)
(25.4034 4.84565 -8.14919e-20)
(25.3748 4.8435 8.64324e-20)
(25.3311 4.83778 -1.37504e-18)
(25.2686 4.82771 1.65014e-18)
(25.1829 4.81235 -1.65628e-18)
(25.0692 4.79065 1.76057e-18)
(24.9215 4.76139 0)
(24.7329 4.72318 6.31592e-20)
(24.495 4.67429 1.15707e-18)
(24.1968 4.61251 -1.17725e-18)
(23.8237 4.53489 -1.20797e-18)
(23.3544 4.43712 2.83946e-18)
(22.7559 4.31258 -1.38726e-18)
(21.9697 4.14779 -2.25737e-19)
(20.8664 3.91748 1.32012e-19)
(19.0956 3.52526 1.61024e-19)
(15.5963 2.75613 1.91592e-22)
(24.682 4.47162 -1.69529e-19)
(24.7238 4.48616 0)
(24.7643 4.50285 0)
(24.8044 4.5192 0)
(24.8441 4.53522 9.0529e-20)
(24.8833 4.55096 9.12494e-20)
(24.922 4.56642 1.84003e-19)
(24.9603 4.58159 0)
(24.998 4.59649 -9.38376e-20)
(25.0353 4.61114 -7.60707e-19)
(25.0719 4.62554 -2.32466e-21)
(25.1079 4.63967 7.8091e-19)
(25.1431 4.65351 -7.97324e-19)
(25.1775 4.66703 8.1126e-19)
(25.211 4.68018 2.07694e-19)
(25.2434 4.69292 8.52896e-19)
(25.2746 4.70523 -8.7387e-19)
(25.3044 4.71704 0)
(25.3325 4.72831 -2.00235e-22)
(25.3586 4.73896 1.20523e-19)
(25.3824 4.74891 -1.00216e-18)
(25.4034 4.75806 -2.82458e-21)
(25.4208 4.76624 1.08492e-18)
(25.4341 4.7733 0)
(25.4421 4.77899 -7.43892e-20)
(25.4437 4.78306 1.17579e-18)
(25.4373 4.78514 -1.23538e-18)
(25.4209 4.78481 -8.70724e-20)
(25.3919 4.78149 -9.24494e-20)
(25.347 4.77447 -8.82428e-19)
(25.2818 4.76286 8.31546e-19)
(25.1915 4.74562 1.11006e-19)
(25.0697 4.72151 9.47005e-19)
(24.9092 4.68908 -8.84141e-19)
(24.7009 4.64655 -1.35699e-19)
(24.4333 4.59169 1.17378e-18)
(24.0911 4.5215 -1.43046e-18)
(23.6527 4.43168 -1.22167e-18)
(23.0844 4.31557 1.44622e-18)
(22.3265 4.15933 1.08776e-19)
(21.2461 3.93499 2.50241e-19)
(19.4828 3.55603 -4.49728e-19)
(16.0804 2.80956 1.9676e-19)
(24.6959 4.43647 1.76023e-19)
(24.735 4.44834 9.0247e-20)
(24.7726 4.46334 -1.81415e-19)
(24.81 4.47804 0)
(24.8472 4.49254 -9.2283e-20)
(24.884 4.50687 0)
(24.9206 4.52096 -9.36794e-20)
(24.9568 4.53481 -9.4446e-20)
(24.9927 4.54843 0)
(25.0283 4.56186 0)
(25.0636 4.57513 0)
(25.0984 4.58823 -9.94271e-20)
(25.1327 4.60115 -4.05049e-19)
(25.1664 4.61383 4.12209e-19)
(25.1994 4.62623 -1.4523e-22)
(25.2316 4.6383 4.33307e-19)
(25.263 4.65001 -6.66936e-19)
(25.2933 4.66132 3.4296e-19)
(25.3224 4.67217 -1.94665e-22)
(25.35 4.68253 -1.03012e-22)
(25.3758 4.69232 5.0873e-19)
(25.3994 4.70147 -5.27762e-19)
(25.4203 4.70986 0)
(25.4377 4.71733 5.04847e-19)
(25.4509 4.72366 7.71227e-20)
(25.4589 4.72862 8.10087e-20)
(25.4602 4.73189 -1.33471e-18)
(25.4531 4.73309 7.91508e-19)
(25.4354 4.73172 -9.30592e-20)
(25.404 4.72713 9.88011e-20)
(25.355 4.71849 1.04712e-19)
(25.2833 4.70478 -7.811e-19)
(25.1829 4.68474 8.29405e-19)
(25.046 4.65692 -1.26773e-19)
(24.8632 4.61952 2.71282e-19)
(24.6225 4.57019 0)
(24.3081 4.50583 1.57615e-19)
(23.8975 4.42192 1.20155e-18)
(23.3564 4.31174 -2.4488e-18)
(22.6242 4.16174 8.39194e-19)
(21.5652 3.94096 -2.39108e-19)
(19.8122 3.56954 2.82163e-19)
(16.4717 2.84606 3.61855e-19)
(24.7079 4.40284 2.73321e-19)
(24.7441 4.41388 9.24319e-20)
(24.7793 4.42741 -2.77745e-19)
(24.8144 4.44067 0)
(24.8494 4.45387 0)
(24.8842 4.46701 3.78711e-19)
(24.9186 4.47998 -3.8035e-19)
(24.9529 4.49269 4.80575e-19)
(24.9872 4.50519 -3.87201e-19)
(25.0212 4.51754 -3.92713e-19)
(25.0552 4.52979 7.94797e-19)
(25.0889 4.54197 -7.06344e-19)
(25.1224 4.55409 5.12958e-19)