/*--------------------------------*- C++ -*----------------------------------*\
| =========                 |                                                 |
| \\      /  F ield         | OpenFOAM: The Open Source CFD Toolbox           |
|  \\    /   O peration     | Version:  2.3.0                                 |
|   \\  /    A nd           | Web:      www.OpenFOAM.org                      |
|    \\/     M anipulation  |                                                 |
\*---------------------------------------------------------------------------*/
FoamFile
{
    version     2.0;
    format      ascii;
    class       volScalarField;
    location    "8000";
    object      nuTilda;
}
// * * * * * * * * * * * * * * * * * * * * * * * * * * * * * * * * * * * * * //

dimensions      [0 2 -1 0 0 0 0];

internalField   nonuniform List<scalar> 
14201
(
0.0608727
0.0576163
0.0544158
0.051288
0.0482415
0.0452855
0.04243
0.0396874
0.0370725
0.0346033
0.0322999
0.0301766
0.028249
0.0265373
0.0250482
0.0237086
0.0224047
0.0211055
0.0198068
0.0184945
0.0171357
0.0156824
0.0141183
0.0127109
0.0641951
0.0614735
0.0588326
0.0562681
0.0537819
0.0513784
0.0490625
0.0468394
0.0447144
0.0426935
0.0407825
0.0389877
0.0373166
0.0357792
0.0343839
0.033138
0.0320472
0.0311151
0.03035
0.029756
0.0293374
0.0290952
0.0290288
0.0291363
0.0671641
0.0648975
0.0627036
0.06058
0.0585274
0.0565484
0.0546469
0.0528266
0.0510918
0.0494467
0.047896
0.0464449
0.0450985
0.0438634
0.0427454
0.0417515
0.040888
0.04016
0.0395728
0.0391298
0.0388319
0.0386783
0.0386655
0.0387859
0.0698396
0.0679364
0.0661016
0.0643286
0.0626163
0.0609659
0.0593804
0.0578626
0.0564165
0.0550454
0.0537528
0.0525437
0.0514223
0.0503934
0.0494625
0.0486345
0.0479155
0.04731
0.0468225
0.0464563
0.0462126
0.0460917
0.0460909
0.0462057
0.0722152
0.0706195
0.0690763
0.0675827
0.0661379
0.0647428
0.0633995
0.0621109
0.0608803
0.0597109
0.058606
0.05757
0.0566069
0.0557213
0.0549183
0.0542025
0.0535788
0.0530529
0.0526287
0.0523097
0.0520979
0.0519946
0.0519993
0.0521087
0.0743359
0.0729862
0.0716774
0.0704063
0.0691728
0.0679773
0.0668217
0.0657087
0.0646419
0.063624
0.0626588
0.0617504
0.060903
0.0601209
0.0594094
0.058773
0.0582167
0.0577458
0.0573651
0.0570779
0.056887
0.0567947
0.0568011
0.0569047
0.0762162
0.0750709
0.0739515
0.0728589
0.0717935
0.0707558
0.0697472
0.0687707
0.06783
0.0669287
0.06607
0.0652581
0.0644971
0.0637924
0.0631489
0.0625716
0.0620652
0.0616348
0.0612854
0.0610211
0.0608453
0.0607606
0.0607679
0.0608664
0.0778944
0.0769092
0.0759425
0.0749936
0.0740631
0.0731518
0.0722605
0.0713911
0.0705484
0.0697384
0.0689634
0.0682267
0.0675324
0.0668855
0.0662944
0.0657626
0.0652949
0.0648956
0.0645692
0.0643226
0.0641586
0.0640799
0.0640883
0.0641825
0.0793789
0.0785305
0.0776885
0.0768558
0.0760344
0.0752253
0.0744296
0.0736469
0.0728799
0.0721415
0.0714354
0.0707568
0.0701211
0.0695129
0.0689633
0.0684667
0.0680297
0.0676586
0.0673469
0.0671156
0.0669604
0.0668868
0.0668976
0.0669911
0.0807121
0.0799701
0.0792242
0.0784811
0.0777442
0.0770153
0.0762972
0.0755936
0.0748915
0.0742044
0.0735617
0.0729144
0.0723536
0.071757
0.0712417
0.070773
0.0703551
0.0700241
0.0697128
0.0695004
0.0693501
0.0692793
0.0692914
0.0693968
0.0136451
0.0160531
0.0175692
0.0189981
0.02055
0.0222755
0.0241722
0.0262242
0.0284136
0.0307245
0.0331446
0.0356637
0.0382742
0.040969
0.0437415
0.0465851
0.0494936
0.0524605
0.0554788
0.0585414
0.061641
0.06477
0.0679222
0.071103
0.0293978
0.0298252
0.0304447
0.0312612
0.0322711
0.0334662
0.034835
0.0363638
0.038038
0.0398429
0.0417653
0.0437929
0.0459148
0.0481211
0.0504034
0.0527548
0.0551682
0.0576372
0.0601566
0.0627208
0.0653242
0.0679612
0.0706265
0.0733293
0.0390266
0.0393952
0.0399111
0.040577
0.0413921
0.0423525
0.0434518
0.0446819
0.0460338
0.0474974
0.0490631
0.050722
0.0524651
0.0542842
0.0561729
0.0581248
0.0601339
0.0621953
0.0643044
0.0664569
0.0686483
0.0708746
0.0731325
0.0754359
0.0464288
0.0467642
0.0472224
0.047805
0.0485112
0.0493368
0.0502768
0.0513253
0.0524742
0.0537159
0.0550429
0.0564476
0.0579226
0.0594615
0.0610587
0.0627088
0.0644077
0.0661512
0.0679358
0.0697583
0.0716156
0.0735044
0.0754224
0.0773849
0.0523182
0.0526301
0.0530506
0.0535796
0.0542156
0.0549541
0.0557895
0.0567163
0.0577271
0.0588153
0.0599742
0.0611966
0.0624764
0.0638083
0.0651868
0.0666079
0.0680682
0.0695644
0.0710937
0.0726539
0.0742426
0.0758574
0.077496
0.0791652
0.0571026
0.0573965
0.0577896
0.0582804
0.0588664
0.0595431
0.0603044
0.0611442
0.0620562
0.0630334
0.0640691
0.0651569
0.0662912
0.0674671
0.0686794
0.0699247
0.0712
0.0725032
0.0738317
0.0751838
0.0765572
0.0779506
0.0793625
0.0807946
0.0610543
0.0613332
0.0617048
0.062167
0.0627156
0.0633463
0.0640524
0.0648276
0.0656656
0.0665592
0.0675013
0.0684864
0.0695092
0.0705646
0.0716477
0.0727553
0.0738854
0.0750365
0.076206
0.0773917
0.0785919
0.0798054
0.0810313
0.082269
0.0643609
0.0646262
0.0649802
0.0654203
0.0659408
0.0665358
0.0671991
0.0679249
0.0687061
0.0695344
0.070403
0.0713076
0.0722433
0.0732037
0.0741837
0.0751809
0.0761956
0.0772261
0.0782681
0.0793198
0.0803795
0.0814462
0.0825197
0.0836019
0.0671566
0.0674084
0.0677477
0.0681716
0.0686703
0.0692365
0.0698649
0.0705531
0.0712902
0.0720653
0.0728735
0.0737143
0.0745822
0.0754663
0.0763607
0.077267
0.0781896
0.0791248
0.0800629
0.0810064
0.0819511
0.0828968
0.0838457
0.0848023
0.0695369
0.069776
0.0701028
0.0705158
0.0709931
0.0715323
0.0721315
0.0727921
0.0734903
0.0742155
0.0749733
0.0757663
0.0765838
0.0774015
0.0782215
0.0790559
0.0799079
0.0807695
0.0816214
0.0824808
0.083327
0.0841749
0.0850256
0.0858859
0.058084
0.0529589
0.0478234
0.0428025
0.0380478
0.0336824
0.0297403
0.0261995
0.0230245
0.0201798
0.0176331
0.0153553
0.0133203
0.0115054
0.00989058
0.00845853
0.0071951
0.00609032
0.00514354
0.00436267
0.00380384
0.00327217
0.00267705
0.00193689
0.0585752
0.0539544
0.0493307
0.0447811
0.040407
0.0363109
0.0325525
0.0291378
0.026046
0.0232505
0.0207252
0.0184466
0.0163943
0.0145509
0.0129035
0.0114451
0.0101799
0.0091168
0.00828292
0.00751247
0.0067152
0.00584161
0.00483294
0.00360362
0.0591287
0.0550106
0.0508837
0.0468005
0.0428221
0.0390167
0.0354474
0.0321517
0.0291347
0.026382
0.0238732
0.02159
0.0195173
0.0176446
0.01597
0.0145033
0.0132554
0.0122506
0.0113004
0.010322
0.0092636
0.00807667
0.00670752
0.00509
0.0597464
0.0560668
0.0523809
0.0487188
0.0451141
0.0416065
0.0382408
0.0350629
0.0321074
0.0293829
0.0268788
0.0245809
0.0224797
0.0205726
0.0188692
0.0173901
0.0161553
0.0150464
0.0139298
0.0127503
0.0114602
0.0100107
0.00834732
0.0064118
0.0603671
0.0570758
0.0537725
0.0504749
0.0472014
0.0439735
0.0408182
0.0377711
0.0348773
0.0321747
0.0296687
0.0273513
0.0252176
0.0232718
0.0215316
0.0200141
0.0187432
0.0175068
0.0162343
0.014876
0.0133845
0.0117091
0.00979435
0.00758111
0.0609723
0.0580151
0.0550373
0.052049
0.0490592
0.0460785
0.0431223
0.0402139
0.0373935
0.0347157
0.0322098
0.0298748
0.0277115
0.02573
0.0239557
0.0224026
0.0210435
0.0196867
0.018274
0.0167575
0.0150887
0.0132153
0.0110782
0.00861514
0.0615414
0.0588718
0.0561707
0.0534434
0.0506935
0.047926
0.0451482
0.0423749
0.039637
0.0369921
0.0344921
0.0321455
0.029959
0.0279489
0.0261459
0.0245731
0.0231089
0.0216343
0.0200925
0.0184339
0.0166074
0.0145569
0.0122198
0.00953029
0.0620741
0.059644
0.0571774
0.0546707
0.0521237
0.0495382
0.0469173
0.0442691
0.0416162
0.0390116
0.0365232
0.0341716
0.0319682
0.0299347
0.0281011
0.0264951
0.0249462
0.0233701
0.0217145
0.0199302
0.0179635
0.0157556
0.013239
0.0103432
0.0625287
0.0603271
0.058066
0.0557477
0.0533725
0.0509419
0.0484585
0.0459259
0.0433575
0.0407962
0.0383212
0.0359682
0.033756
0.0317072
0.0298472
0.0282018
0.0265809
0.0249167
0.0231606
0.0212649
0.0191743
0.0168287
0.0141565
0.0110758
0.0629539
0.0609383
0.0588513
0.0566933
0.0544619
0.0521606
0.0497966
0.0473761
0.0449023
0.0423793
0.0399079
0.0375519
0.035339
0.0332894
0.0314173
0.0297284
0.0280414
0.0262973
0.0244496
0.0224547
0.0202487
0.0177812
0.0150006
0.011818
0.00104969
0.000816065
0.00108894
0.00138744
0.001675
0.0019555
0.00223698
0.00253108
0.00285645
0.00324269
0.00373298
0.00435533
0.00508823
0.00592581
0.00687017
0.00792698
0.00910384
0.0104081
0.011847
0.0134296
0.015166
0.0170659
0.0191386
0.0213955
0.00214395
0.00128555
0.00137766
0.00167012
0.00196666
0.00226274
0.00257192
0.00291346
0.00331071
0.00378897
0.00437198
0.00506661
0.00585097
0.00672402
0.00768883
0.00875066
0.00991526
0.011188
0.0125753
0.014085
0.0157255
0.017505
0.0194327
0.021521
0.00323451
0.00182118
0.00164809
0.00192513
0.00223987
0.002568
0.00292671
0.00333706
0.00381763
0.00438164
0.00504146
0.00579311
0.00662002
0.00752223
0.00850291
0.00956599
0.0107152
0.011955
0.0132909
0.014729
0.0162761
0.0179395
0.0197274
0.0216494
0.00421363
0.00235356
0.0018992
0.00215497
0.00249774
0.00287156
0.00329288
0.00377812
0.00433655
0.00497276
0.00569803
0.00649603
0.00735759
0.00828354
0.00927591
0.010337
0.0114694
0.0126767
0.0139632
0.0153339
0.0167945
0.0183505
0.0200091
0.0217777
0.00507399
0.00284745
0.00213269
0.00236697
0.00274641
0.00317481
0.00366306
0.00422007
0.00484741
0.00554616
0.00632413
0.00716112
0.00805211
0.00899745
0.00999803
0.011055
0.0121702
0.0133466
0.0145872
0.0158957
0.0172766
0.0187346
0.0202751
0.0219042
0.00582932
0.00329167
0.00234947
0.00256664
0.00298871
0.00347507
0.00402849
0.00465049
0.00533763
0.00609155
0.00691287
0.00778323
0.00869934
0.00966085
0.0106673
0.011719
0.0128175
0.0139647
0.0151627
0.0164143
0.0177226
0.0190913
0.0205244
0.0220254
0.00649261
0.00368567
0.00255017
0.00275661
0.00322436
0.00376839
0.00438213
0.00506104
0.00579944
0.00660328
0.00746155
0.0083612
0.009299
0.0102738
0.0112844
0.0123306
0.0134132
0.0145332
0.0156921
0.0168918
0.0181342
0.0194215
0.0207564
0.0221406
0.00707514
0.00403323
0.00273628
0.00293801
0.00345229
0.004051
0.00471914
0.00544813
0.00623274
0.0070795
0.00797014
0.00889542
0.0098522
0.0108379
0.0118514
0.0128921
0.0139597
0.0150548
0.0161779
0.0173302
0.0185125
0.0197261
0.020972
0.0222514
0.00759046
0.0043359
0.00290631
0.00311083
0.00366961
0.00431736
0.00503528
0.00580998
0.00663691
0.00752028
0.00843986
0.00938811
0.010361
0.0113554
0.0123707
0.0134062
0.0144604
0.0155323
0.0166229
0.0177332
0.0188616
0.0200072
0.0211727
0.0223647
0.00815149
0.00465643
0.00307596
0.00327166
0.00387472
0.00458606
0.00534478
0.00615372
0.00701676
0.00792975
0.00887227
0.00983694
0.0108165
0.0118161
0.0128421
0.0138832
0.0149234
0.0159649
0.0170318
0.0181157
0.019194
0.0202662
0.021347
0.0224491
0.000590712
0.00202644
0.00414128
0.00647642
0.0087841
0.0110097
0.0131439
0.0151868
0.0171433
0.0190327
0.0209007
0.0228033
0.0247707
0.0267852
0.0288369
0.0312537
0.0340041
0.0370013
0.0401797
0.0434959
0.0469215
0.0504353
0.0540203
0.0576542
0.000445522
0.00133089
0.00309528
0.00498484
0.00680037
0.00860124
0.0104215
0.0122624
0.0141179
0.0159829
0.0178582
0.0197546
0.0216874
0.0236669
0.0257182
0.0279611
0.0304273
0.0330449
0.0361085
0.0395036
0.043112
0.0468585
0.0506949
0.0545723
0.000284148
0.000881849
0.00207431
0.00369152
0.00573406
0.00776068
0.00966692
0.011483
0.01324
0.0149622
0.0166713
0.018389
0.0201381
0.0219453
0.0238451
0.0258889
0.0281237
0.0305651
0.0333072
0.0362937
0.039771
0.0435731
0.047559
0.0516325
0.000305955
0.000756067
0.00176825
0.00313981
0.00491438
0.00699002
0.00906405
0.011055
0.0129507
0.0147509
0.0164634
0.0181074
0.0197136
0.0213237
0.0229894
0.0247688
0.0267241
0.028911
0.0313776
0.0341293
0.037218
0.0407386
0.044683
0.0488694
0.000282981
0.000674649
0.0015804
0.00280301
0.00437796
0.00632976
0.00847468
0.0106032
0.0126548
0.0146138
0.0164683
0.01821
0.0198436
0.0213932
0.0229059
0.0244502
0.0261107
0.0279763
0.0301217
0.0325942
0.0354182
0.0386212
0.0422215
0.0463174
0.00028235
0.00062912
0.00147017
0.00259962
0.00405053
0.00585698
0.00797197
0.0101767
0.0123489
0.0144477
0.0164536
0.0183468
0.02011
0.0217373
0.0232451
0.0246807
0.0261258
0.0276891
0.0294855
0.0316123
0.0341281
0.0370542
0.0403714
0.0441199
0.000276393
0.000593764
0.00138712
0.00245079
0.0038139
0.00550891
0.00754822
0.00978472
0.0120486
0.0142645
0.016402
0.0184393
0.020352
0.0221175
0.0237238
0.0251831
0.0265452
0.0279053
0.0293956
0.0311583
0.0333096
0.0359112
0.0389578
0.0423938
0.000274673
0.000570787
0.00132851
0.00234385
0.00364238
0.00525454
0.00720905
0.00943636
0.0117614
0.0140742
0.0163268
0.0184925
0.0205457
0.0224577
0.0242021
0.0257644
0.0271579
0.0284405
0.0297257
0.0311721
0.0329462
0.0351737
0.0379014
0.0410972
0.00027246
0.00055217
0.00128153
0.00225931
0.00350759
0.00505497
0.00693417
0.00912753
0.0114887
0.0138811
0.0162351
0.018516
0.0206967
0.0227472
0.0246354
0.0263323
0.0278244
0.0291315
0.0303275
0.031552
0.0329919
0.0348317
0.0371917
0.0400999
0.000271074
0.000537537
0.0012445
0.00219236
0.00340065
0.00489638
0.00671259
0.00885923
0.0112336
0.013688
0.0161309
0.0185158
0.0208127
0.0229913
0.0250173
0.026855
0.0284753
0.0298696
0.0310714
0.0321802
0.0333689
0.0348528
0.0368233
0.0393864
0.000269734
0.000525327
0.0012137
0.00213698
0.0033125
0.00476583
0.00652934
0.00862628
0.0109963
0.0134967
0.0160168
0.0184963
0.0208997
0.0231964
0.0253516
0.0273266
0.0290838
0.0305966
0.0318668
0.032951
0.033985
0.0351806
0.0367768
0.0389603
0.000268612
0.00051509
0.00118794
0.00209053
0.00323857
0.00465643
0.00637544
0.00842494
0.0107775
0.0133088
0.0158947
0.0184599
0.0209617
0.0233678
0.0256435
0.0277491
0.0296427
0.0312864
0.0326605
0.0337856
0.0347531
0.0357454
0.0370157
0.0388178
0.000267571
0.000506283
0.00116579
0.00205064
0.00317513
0.00456275
0.0062436
0.00824973
0.0105769
0.0131257
0.0157663
0.0184089
0.0210018
0.0235096
0.0258978
0.0281267
0.0301521
0.0319298
0.0334254
0.0346329
0.035603
0.036476
0.0374896
0.0389347
0.000266545
0.000498524
0.0011463
0.00201576
0.00311972
0.00448097
0.00612884
0.00809593
0.0103933
0.0129481
0.0156328
0.0183447
0.021022
0.023625
0.0261187
0.0284637
0.030615
0.0325247
0.034149
0.035463
0.0364846
0.0373101
0.0381424
0.0392768
0.000265513
0.000491645
0.00112902
0.00198483
0.00307071
0.00440872
0.00602741
0.00795958
0.0102254
0.0127771
0.0154955
0.0182687
0.021024
0.0237163
0.026309
0.0287634
0.0310344
0.033072
0.0348266
0.0362599
0.0373648
0.0381984
0.0389203
0.0398048
0.000264436
0.000485454
0.00111346
0.00195706
0.00302682
0.00434411
0.00593682
0.00783746
0.0100718
0.0126132
0.0153558
0.0181824
0.0210095
0.0237853
0.0264714
0.0290291
0.0314135
0.033574
0.0354573
0.0370156
0.0382234
0.0391056
0.0397778
0.0404775
0.000263373
0.000479845
0.00109946
0.00193194
0.00298718
0.00428585
0.00585515
0.00772715
0.00993122
0.0124571
0.0152155
0.0180873
0.02098
0.0238343
0.0266084
0.0292636
0.0317557
0.0340337
0.0360421
0.0377271
0.0390492
0.0400078
0.0406792
0.0412572
0.000262328
0.000474795
0.00108673
0.00190917
0.00295109
0.00423294
0.00578097
0.00762703
0.00980233
0.0123092
0.015076
0.0179856
0.0209378
0.0238653
0.0267226
0.0294701
0.0320642
0.0344542
0.0365835
0.038394
0.0398364
0.0408903
0.0415986
0.0421131
0.000261264
0.00047016
0.0010751
0.00188841
0.00291823
0.00418457
0.00571339
0.00753571
0.0096841
0.0121699
0.0149388
0.0178794
0.0208851
0.0238809
0.0268167
0.0296517
0.0323426
0.0348393
0.0370847
0.0390181
0.0405831
0.0417444
0.0425178
0.0430156
0.000260202
0.000465936
0.00106452
0.00186951
0.00288832
0.00414056
0.00565176
0.0074525
0.00957575
0.0120397
0.0148057
0.0177708
0.0208244
0.0238839
0.026894
0.0298119
0.0325947
0.035193
0.0375498
0.0396026
0.0412901
0.0425659
0.0434235
0.0439385
0.000259141
0.000462117
0.00105492
0.00185232
0.00286114
0.00410054
0.00559567
0.00737663
0.00947651
0.0119186
0.014678
0.0176621
0.0207581
0.0238769
0.0269573
0.0299542
0.0328246
0.0355197
0.037983
0.0401512
0.0419596
0.0433533
0.0443083
0.0448702
0.000258076
0.000458628
0.00104624
0.00183666
0.00283638
0.00406411
0.00554449
0.00730728
0.00938567
0.0118064
0.0145564
0.0175545
0.0206885
0.0238624
0.0270096
0.0300819
0.0330358
0.0358233
0.0383884
0.0406677
0.0425943
0.0441065
0.0451663
0.0457894
0.000256999
0.000455429
0.00103826
0.00182233
0.00281361
0.00403068
0.0054976
0.00724372
0.00930225
0.0117024
0.0144411
0.0174492
0.0206165
0.023842
0.0270528
0.0301974
0.0332313
0.0361071
0.0387697
0.0411558
0.0431967
0.044826
0.045993
0.0466855
0.000255896
0.000452475
0.00103093
0.00180914
0.00279268
0.00399981
0.00545438
0.00718521
0.00922529
0.0116057
0.0143315
0.0173461
0.0205428
0.0238163
0.0270878
0.0303017
0.0334126
0.0363732
0.0391291
0.0416174
0.0437684
0.0455114
0.0467854
0.0475562
0.000254755
0.000449704
0.00102406
0.00179683
0.00277316
0.00397107
0.00541413
0.00713075
0.00915361
0.0115151
0.0142271
0.0172448
0.020467
0.0237852
0.0271146
0.0303954
0.0335803
0.0366223
0.0394677
0.0420538
0.0443103
0.0461635
0.0475451
0.0484125
0.000253563
0.000447064
0.00101756
0.00178519
0.00275477
0.00394401
0.00537626
0.00707952
0.00908615
0.0114294
0.0141269
0.0171447
0.0203887
0.0237481
0.0271326
0.0304778
0.0337342
0.0368545
0.0397856
0.0424654
0.0448231
0.0467828
0.0482704
0.0492297
0.000252306
0.000444541
0.0010114
0.00177408
0.0027372
0.00391825
0.0053402
0.00703074
0.009022
0.0113478
0.0140299
0.017045
0.020307
0.0237043
0.0271411
0.0305482
0.0338735
0.0370694
0.040083
0.0428528
0.0453079
0.0473705
0.0489619
0.0500141
0.000250988
0.000442087
0.00100543
0.00176335
0.00272022
0.00389338
0.00530546
0.00698386
0.00896042
0.0112692
0.0139355
0.0169454
0.0202215
0.023653
0.0271392
0.0306057
0.0339977
0.0372664
0.0403595
0.043216
0.045765
0.0479276
0.0496213
0.0507713
0.0002496
0.000439684
0.000999591
0.00175288
0.00270369
0.00386918
0.00527175
0.00693843
0.00890075
0.011193
0.013843
0.0168453
0.020132
0.0235938
0.0271262
0.0306496
0.0341058
0.0374449
0.0406149
0.0435552
0.046195
0.0484548
0.0502499
0.0515009
0.000248142
0.000437303
0.000993864
0.00174263
0.00268755
0.00384555
0.00523883
0.00689415
0.00884267
0.0111187
0.0137522
0.0167449
0.0200385
0.023527
0.0271022
0.0306798
0.0341977
0.0376049
0.0408491
0.0438703
0.0465982
0.0489529
0.0508485
0.0522023
0.000246631
0.000434985
0.000988306
0.00173263
0.00267177
0.00382247
0.00520668
0.00685091
0.00878601
0.0110462
0.0136631
0.0166445
0.0199416
0.0234529
0.0270676
0.0306965
0.0342737
0.0377464
0.0410623
0.0441618
0.0469752
0.0494226
0.0514171
0.0528727
0.000245064
0.000432712
0.000982872
0.00172286
0.00265638
0.00379999
0.00517537
0.00680879
0.00873081
0.0109756
0.0135759
0.0165445
0.0198421
0.0233726
0.0270234
0.0307006
0.0343346
0.0378705
0.0412556
0.0444309
0.0473273
0.0498652
0.0519571
0.0535158
0.000243451
0.000430498
0.000977607
0.00171341
0.00264146
0.00377817
0.005145
0.00676796
0.00867732
0.0109071
0.0134908
0.0164458
0.0197414
0.0232874
0.0269709
0.0306936
0.0343819
0.0379785
0.0414304
0.044679
0.0476558
0.0502816
0.0524686
0.0541271
0.000241803
0.000428348
0.000972512
0.00170425
0.002627
0.00375704
0.00511563
0.00672848
0.0086256
0.0108408
0.0134084
0.0163491
0.0196405
0.023199
0.0269121
0.0306774
0.0344173
0.0380722
0.0415884
0.0449076
0.047962
0.0506727
0.0529515
0.0547062
0.000240118
0.000426265
0.000967595
0.0016954
0.00261305
0.00373665
0.00508728
0.00669039
0.00857574
0.0107769
0.0133287
0.0162549
0.0195403
0.0231088
0.0268484
0.0306538
0.034443
0.038154
0.0417322
0.0451196
0.048249
0.051042
0.0534101
0.0552585
0.000238393
0.000424225
0.000962809
0.0016868
0.00259951
0.00371688
0.00505982
0.00665356
0.00852756
0.0107152
0.0132517
0.0161632
0.0194414
0.0230175
0.0267813
0.0306244
0.034461
0.0382262
0.0418644
0.0453179
0.0485202
0.0513936
0.0538497
0.0557928
0.000236628
0.000422224
0.000958133
0.0016784
0.00258629
0.00369762
0.00503311
0.00661777
0.0084808
0.0106554
0.0131769
0.0160738
0.0193437
0.0229253
0.0267111
0.0305899
0.034472
0.0382898
0.0419864
0.0455043
0.0487777
0.0517296
0.0542721
0.0563083
0.000234816
0.000420239
0.000953518
0.00167012
0.00257329
0.00367869
0.00500689
0.00658269
0.00843506
0.010597
0.0131038
0.015986
0.0192465
0.0228317
0.0266372
0.0305498
0.0344759
0.0383448
0.0420983
0.0456788
0.0490214
0.0520499
0.0546768
0.0568062
0.000232955
0.000418261
0.000948937
0.0016619
0.00256039
0.00365993
0.00498094
0.00654801
0.00838988
0.0105393
0.0130317
0.0158989
0.019149
0.0227356
0.0265585
0.0305028
0.0344712
0.0383896
0.0421983
0.0458396
0.049249
0.0523508
0.0550576
0.0572718
0.000231043
0.00041628
0.000944363
0.0016537
0.00254752
0.00364125
0.00495512
0.00651354
0.00834501
0.010482
0.0129601
0.0158121
0.0190506
0.0226367
0.0264745
0.0304481
0.0344567
0.0384228
0.042285
0.0459849
0.0494585
0.0526305
0.0554129
0.0577057
0.000229083
0.000414292
0.000939785
0.0016455
0.00253467
0.0036226
0.00492936
0.00647918
0.00830031
0.010425
0.0128887
0.0157254
0.0189513
0.0225346
0.0263847
0.0303852
0.0344318
0.0384436
0.0423571
0.0461136
0.0496489
0.0528882
0.0557435
0.0581131
0.000227076
0.000412296
0.000935204
0.0016373
0.00252182
0.00360396
0.00490364
0.00644491
0.00825578
0.0103683
0.0128178
0.015639
0.0188513
0.02243
0.0262898
0.0303147
0.034397
0.0384525
0.0424156
0.0462266
0.0498219
0.0531274
0.0560566
0.0585135
0.00022502
0.000410283
0.0009306
0.00162906
0.00250894
0.00358531
0.00487793
0.00641069
0.00821137
0.0103118
0.0127471
0.0155528
0.018751
0.0223233
0.0261904
0.0302373
0.0343533
0.0384507
0.0424616
0.0463256
0.0499794
0.0533496
0.0563504
0.0588834
0.000222916
0.000408252
0.000925971
0.0016208
0.00249603
0.00356662
0.00485221
0.00637648
0.00816703
0.0102554
0.0126767
0.0154667
0.0186502
0.0222147
0.0260871
0.0301536
0.0343013
0.038439
0.0424963
0.046412
0.0501228
0.0535561
0.0566268
0.0592369
0.000220768
0.000406197
0.000921299
0.00161247
0.00248303
0.00354785
0.0048264
0.00634221
0.00812265
0.0101991
0.0126064
0.0153806
0.0185489
0.0221041
0.0259796
0.0300636
0.034241
0.0384172
0.0425192
0.0464847
0.0502504
0.0537439
0.0568801
0.0595595
0.000218579
0.000404121
0.000916584
0.00160407
0.00246994
0.00352896
0.00480047
0.00630781
0.00807817
0.0101426
0.012536
0.0152945
0.018447
0.0219917
0.0258683
0.0299676
0.0341726
0.0383856
0.0425308
0.0465447
0.0503638
0.0539161
0.0571172
0.0598694
0.00021635
0.000402019
0.00091182
0.00159559
0.00245673
0.00350992
0.00477435
0.00627321
0.00803348
0.010086
0.0124655
0.0152082
0.0183446
0.0218775
0.0257532
0.0298657
0.0340965
0.0383447
0.0425318
0.0465929
0.0504645
0.0540752
0.0573412
0.0601645
0.000214082
0.000399894
0.000907006
0.00158702
0.00244341
0.00349072
0.00474804
0.00623838
0.00798853
0.0100292
0.0123946
0.0151215
0.0182415
0.0217615
0.0256344
0.029758
0.0340128
0.0382946
0.0425225
0.0466299
0.0505533
0.054222
0.0575539
0.0604539
0.00021178
0.000397746
0.000902149
0.00157839
0.00242998
0.00347138
0.00472154
0.00620331
0.00794331
0.00997196
0.0123234
0.0150344
0.0181375
0.0216436
0.0255119
0.0296443
0.0339209
0.0382347
0.0425018
0.0466541
0.0506277
0.0543524
0.0577471
0.0607169
0.000209467
0.000395608
0.000897293
0.00156974
0.00241653
0.00345199
0.00469498
0.00616817
0.00789799
0.00991466
0.0122521
0.014947
0.0180331
0.0215243
0.025386
0.029525
0.0338213
0.0381651
0.0424697
0.0466653
0.0506873
0.0544661
0.0579209
0.0609589
0.000207114
0.000393473
0.000892456
0.00156112
0.0024031
0.00343265
0.00466847
0.00613309
0.00785276
0.00985749
0.012181
0.0148599
0.0179286
0.0214041
0.0252577
0.0294011
0.0337148
0.0380868
0.0424272
0.0466645
0.0507335
0.0545644
0.0580771
0.0611772
0.000204741
0.000391326
0.000887637
0.00155255
0.00238976
0.00341343
0.00464213
0.00609826
0.00780785
0.00980073
0.0121104
0.0147734
0.0178247
0.021284
0.0251281
0.0292738
0.0336029
0.0380012
0.0423758
0.0466535
0.0507684
0.0546511
0.0582224
0.0613899
0.000202374
0.000389225
0.000882876
0.00154408
0.00237659
0.00339444
0.00461613
0.00606386
0.00776353
0.00974468
0.0120408
0.014688
0.0177221
0.0211648
0.0249983
0.0291446
0.0334871
0.0379099
0.0423175
0.0466344
0.0507942
0.0547282
0.0583584
0.0615957
0.000199994
0.000387152
0.000878176
0.00153577
0.00236365
0.00337579
0.00459056
0.00603005
0.0077199
0.00968962
0.0119722
0.0146041
0.0176211
0.0210471
0.024869
0.0290144
0.0333686
0.037814
0.0422529
0.0466076
0.0508108
0.0547939
0.0584797
0.0617782
0.000197607
0.000385116
0.000873624
0.00152759
0.00235097
0.00335752
0.00456551
0.00599685
0.00767714
0.00963555
0.011905
0.0145217
0.0175219
0.0209312
0.0247408
0.0288839
0.0332482
0.0377147
0.0421832
0.0465741
0.050819
0.0548495
0.0585884
0.0619457
0.000195217
0.000383109
0.000869104
0.00151955
0.00233841
0.00333954
0.00454085
0.00596429
0.00763515
0.00958259
0.0118392
0.014441
0.0174246
0.0208173
0.0246143
0.028754
0.0331267
0.0376128
0.0421094
0.0465351
0.0508204
0.0548967
0.0586873
0.0621026
0.000192817
0.000381128
0.000864655
0.00151164
0.00232609
0.00332175
0.00451662
0.00593224
0.00759398
0.00953059
0.0117747
0.014362
0.0173294
0.0207056
0.0244896
0.0286248
0.0330048
0.0375091
0.0420327
0.046492
0.0508167
0.0549381
0.0587801
0.062254
0.000190391
0.000379156
0.00086023
0.0015038
0.00231391
0.00330424
0.00449267
0.0059007
0.00755341
0.00947943
0.0117111
0.0142844
0.0172359
0.0205957
0.0243663
0.0284964
0.0328824
0.0374038
0.0419535
0.0464456
0.0508088
0.0549747
0.058868
0.0624026
0.000187972
0.000377186
0.00085583
0.00149602
0.00230187
0.00328692
0.00446899
0.00586948
0.00751322
0.00942885
0.0116484
0.0142076
0.0171434
0.0204869
0.0242438
0.0283679
0.0327591
0.0372964
0.0418711
0.0463951
0.050796
0.0550053
0.0589483
0.0625398
0.000185555
0.00037527
0.000851507
0.00148827
0.00228986
0.00326968
0.00444539
0.00583835
0.00747329
0.00937851
0.0115861
0.0141313
0.0170515
0.0203785
0.0241213
0.0282385
0.0326335
0.0371858
0.0417842
0.0463393
0.0507767
0.055028
0.0590188
0.0626638
0.000183107
0.000373336
0.000847161
0.00148055
0.00227783
0.00325243
0.00442188
0.0058073
0.00743344
0.00932835
0.011524
0.0140553
0.0169599
0.0202704
0.0239984
0.0281076
0.032505
0.0370707
0.0416918
0.0462764
0.0507492
0.055041
0.0590775
0.062773
0.000180648
0.000371426
0.000842865
0.00147292
0.00226596
0.00323533
0.00439851
0.00577653
0.00739389
0.0092785
0.0114621
0.0139798
0.0168687
0.0201625
0.0238752
0.0279752
0.0323735
0.036951
0.0415932
0.0462058
0.0507124
0.0550431
0.0591239
0.0628702
0.000178165
0.000369535
0.000838599
0.00146536
0.00225422
0.00321845
0.00437544
0.00574611
0.00735477
0.00922919
0.0114009
0.0139049
0.0167783
0.0200553
0.0237524
0.0278421
0.0322398
0.0368275
0.0414892
0.0461285
0.0506675
0.0550357
0.05916
0.0629583
0.000175694
0.000367661
0.000834412
0.00145791
0.00224272
0.00320187
0.00435276
0.00571618
0.0073162
0.00918063
0.0113406
0.0138311
0.0166891
0.0199495
0.0236306
0.0277093
0.0321053
0.0367015
0.0413811
0.0460457
0.0506156
0.0550199
0.0591858
0.0630314
0.000173229
0.000365859
0.000830356
0.00145064
0.00223137
0.0031856
0.00433047
0.0056867
0.00727834
0.0091329
0.0112815
0.0137587
0.0166017
0.0198457
0.0235109
0.027578
0.031971
0.0365747
0.0412707
0.0459592
0.0505586
0.0549975
0.0592027
0.0630923
0.00017073
0.000364036
0.000826266
0.00144339
0.00222009
0.00316943
0.00430844
0.00565764
0.00724107
0.009086
0.0112234
0.0136877
0.0165159
0.0197438
0.0233933
0.0274487
0.031838
0.0364478
0.0411591
0.04587
0.0504978
0.0549699
0.0592126
0.0631428
0.00016821
0.000362213
0.000822177
0.00143617
0.0022089
0.00315337
0.00428654
0.00562889
0.0072042
0.00903962
0.011166
0.0136176
0.0164314
0.0196435
0.0232773
0.0273207
0.0317056
0.0363209
0.0410465
0.0457789
0.0504339
0.0549381
0.0592181
0.0631909
0.000165647
0.000360357
0.000818019
0.00142886
0.00219762
0.00313723
0.00426461
0.0056001
0.00716729
0.00899333
0.0111087
0.0135478
0.0163474
0.0195438
0.0231618
0.0271931
0.0315732
0.0361928
0.0409321
0.0456853
0.0503669
0.0549027
0.0592193
0.0632345
0.000163081
0.000358479
0.000813827
0.0014214
0.0021862
0.00312091
0.00424242
0.00557094
0.00713001
0.00894655
0.0110511
0.0134775
0.0162628
0.0194434
0.0230457
0.027064
0.0314386
0.0360619
0.0408139
0.0455872
0.0502946
0.0548613
0.0592139
0.063271
0.000160481
0.000356595
0.000809558
0.00141386
0.00217449
0.00310427
0.00421977
0.00554123
0.00709202
0.00889906
0.0109925
0.0134062
0.016177
0.0193415
0.0229275
0.0269323
0.0313002
0.0359263
0.04069
0.0454828
0.0502153
0.0548122
0.0591998
0.0632969
0.000157829
0.000354639
0.000805189
0.00140615
0.00216257
0.0030872
0.00419664
0.00551089
0.00705336
0.00885059
0.0109328
0.0133334
0.0160894
0.0192376
0.0228067
0.0267969
0.0311569
0.0357844
0.0405588
0.0453698
0.0501268
0.0547528
0.0591743
0.0633107
0.000155171
0.000352695
0.000800788
0.00139838
0.00215056
0.00307
0.00417325
0.00548025
0.00701417
0.00880146
0.0108721
0.0132596
0.0160005
0.0191319
0.0226834
0.0266581
0.0310087
0.0356364
0.0404204
0.0452488
0.0500293
0.054684
0.0591392
0.0633157
0.000152506
0.000350778
0.000796427
0.00139068
0.00213863
0.00305288
0.00414994
0.00544961
0.00697488
0.00875219
0.0108112
0.0131854
0.015911
0.0190254
0.0225588
0.0265171
0.0308571
0.0354831
0.0402753
0.0451201
0.0499233
0.0546057
0.059093
0.0633047
0.000149859
0.000348933
0.000792231
0.00138316
0.00212701
0.00303618
0.00412705
0.00541944
0.0069362
0.00870351
0.0107511
0.0131119
0.0158225
0.0189197
0.022435
0.0263762
0.0307047
0.0353278
0.0401267
0.0449869
0.0498119
0.054522
0.0590427
0.0632958
0.000147217
0.000347183
0.000788227
0.00137601
0.00211582
0.00302013
0.00410505
0.00539031
0.00689877
0.00865646
0.0106928
0.0130407
0.0157363
0.0188169
0.0223143
0.0262385
0.0305545
0.0351738
0.0399782
0.0448525
0.0496989
0.0544363
0.0589903
0.0632845
0.000144594
0.000345551
0.000784513
0.00136935
0.00210538
0.00300499
0.00408436
0.00536292
0.00686346
0.00861182
0.0106374
0.0129729
0.0156543
0.0187189
0.022199
0.0261066
0.0304102
0.0350248
0.0398337
0.0447208
0.0495874
0.0543511
0.0589375
0.0632696
0.000141995
0.000344065
0.000781086
0.00136322
0.00209577
0.00299105
0.00406518
0.00533752
0.00683065
0.00857032
0.0105857
0.0129096
0.0155777
0.0186273
0.0220912
0.0259831
0.0302745
0.0348841
0.0396967
0.0445957
0.0494812
0.05427
0.0588873
0.0632565
0.000139429
0.000342692
0.000777961
0.00135759
0.002087
0.00297832
0.00404763
0.00531421
0.00680046
0.00853215
0.0105382
0.0128512
0.015507
0.0185428
0.0219918
0.0258691
0.0301495
0.0347541
0.0395697
0.0444797
0.0493828
0.0541952
0.0588419
0.0632462
0.000136871
0.00034145
0.000775107
0.0013524