/*--------------------------------*- C++ -*----------------------------------*\
| =========                 |                                                 |
| \\      /  F ield         | OpenFOAM: The Open Source CFD Toolbox           |
|  \\    /   O peration     | Version:  2.3.0                                 |
|   \\  /    A nd           | Web:      www.OpenFOAM.org                      |
|    \\/     M anipulation  |                                                 |
\*---------------------------------------------------------------------------*/
FoamFile
{
    version     2.0;
    format      ascii;
    class       surfaceScalarField;
    location    "100";
    object      phi;
}
// * * * * * * * * * * * * * * * * * * * * * * * * * * * * * * * * * * * * * //

dimensions      [0 3 -1 0 0 0 0];

internalField   nonuniform List<scalar> 
15537
(
-0.00304362
-0.0203668
0.0222079
0.00120519
-0.00446541
-0.017162
0.0185837
-0.00554315
-0.0144844
0.0155621
-0.00633435
-0.0122486
0.0130398
-0.00687912
-0.0103825
0.0109273
-0.00720622
-0.00882433
0.00915146
-0.00733802
-0.00752211
0.00765401
-0.00729421
-0.00643304
0.0063893
-0.00709561
-0.0055208
0.00532241
-0.00676212
-0.00475691
0.00442353
-0.00631441
-0.00411684
0.00366943
-0.00577153
-0.00358106
0.00303836
-0.00515102
-0.00313269
0.00251252
-0.0044696
-0.00275749
0.00207628
-0.0024438
-0.0037222
0.00169677
-0.00277076
-0.0187315
0.00113548
-0.0039989
-0.0159339
-0.00488646
-0.0135968
-0.00549054
-0.0116445
-0.00585902
-0.010014
-0.00603083
-0.0086525
-0.00603616
-0.00751679
-0.00589966
-0.00656953
-0.00564076
-0.00577972
-0.00527599
-0.00512168
-0.00481965
-0.00457319
-0.00428424
-0.00411647
-0.00368097
-0.00373595
-0.00301958
-0.00341887
-0.00315482
-0.00230855
-0.00252405
-0.0172589
0.00105145
-0.00362312
-0.0148348
-0.00440782
-0.0128121
-0.00492782
-0.0111245
-0.00522481
-0.00971697
-0.00533428
-0.00854305
-0.00528685
-0.0075642
-0.00510837
-0.00674801
-0.00482026
-0.00606781
-0.00444145
-0.00550049
-0.00398686
-0.00502778
-0.00346972
-0.0046336
-0.00290053
-0.00430513
-0.0022884
-0.004031
-0.00380246
-0.00164076
-0.00226884
-0.0159403
0.000950224
-0.0032458
-0.0138579
-0.00393692
-0.012121
-0.00438869
-0.0106727
-0.00464053
-0.00946513
-0.00472527
-0.0084583
-0.00467047
-0.007619
-0.00449933
-0.00691915
-0.00423092
-0.00633623
-0.00388176
-0.00584964
-0.00346547
-0.00544406
-0.00299323
-0.00510585
-0.00247477
-0.00482359
-0.0019177
-0.00458807
-0.00439141
-0.00132874
-0.00203914
-0.0147541
0.000852987
-0.00291457
-0.0129824
-0.00353057
-0.011505
-0.00393018
-0.0102731
-0.00414889
-0.00924641
-0.00421687
-0.00839032
-0.00415941
-0.00767645
-0.00399712
-0.00708143
-0.00374836
-0.00658498
-0.00342707
-0.00617093
-0.00304566
-0.00582546
-0.0026144
-0.00553711
-0.00214187
-0.00529611
-0.00163483
-0.00509509
-0.00492678
-0.00109946
-0.00183125
-0.0136854
0.000762499
-0.00261863
-0.0121951
-0.0031713
-0.0109523
-0.00352783
-0.00991659
-0.00372139
-0.00905285
-0.00377899
-0.00833272
-0.00372337
-0.00773207
-0.00357357
-0.00723123
-0.00334546
-0.00681308
-0.00305213
-0.00646425
-0.00270466
-0.00617293
-0.00231218
-0.00592958
-0.00188224
-0.00572605
-0.00142141
-0.00555592
-0.00541352
-0.000934665
-0.00164619
-0.0127199
0.000680687
-0.00235651
-0.0114847
-0.00285408
-0.0104547
-0.0031745
-0.00959617
-0.00334737
-0.00887997
-0.00339739
-0.00828269
-0.00334488
-0.00778458
-0.00320758
-0.00736852
-0.00299914
-0.00702151
-0.00273175
-0.00673164
-0.00241544
-0.00648923
-0.00205846
-0.00628656
-0.0016674
-0.0061171
-0.00124834
-0.00597497
-0.00585595
-0.0008059
-0.00148127
-0.0118466
0.000607978
-0.00212338
-0.0108426
-0.00257278
-0.0100053
-0.00286195
-0.009307
-0.00301726
-0.00872467
-0.00306123
-0.00823871
-0.00301256
-0.00783325
-0.00288677
-0.00749431
-0.00269682
-0.00721146
-0.00245346
-0.00697499
-0.00216553
-0.00677716
-0.00184089
-0.00661121
-0.00148548
-0.00647251
-0.0011045
-0.00635595
-0.0062582
-0.000702256
-0.00133437
-0.0110557
0.000543448
-0.0019159
-0.0102611
-0.00232268
-0.00959855
-0.0025837
-0.00904599
-0.00272369
-0.00858467
-0.00276271
-0.00819969
-0.00271807
-0.00787789
-0.00260298
-0.0076094
-0.00243012
-0.00738432
-0.00220864
-0.00719647
-0.00194713
-0.00703866
-0.00165162
-0.00690672
-0.00132849
-0.00679564
-0.000982159
-0.00670228
-0.00662377
-0.000616582
-0.00120362
-0.0103386
0.000486596
-0.00173033
-0.00973438
-0.00209863
-0.00923024
-0.00233502
-0.0088096
-0.00246162
-0.00845807
-0.00249663
-0.00816468
-0.00245527
-0.00791924
-0.00235092
-0.00771375
-0.00219337
-0.00754187
-0.00199207
-0.00739777
-0.0017539
-0.00727683
-0.00148541
-0.00717521
-0.00119175
-0.0070893
-0.000876813
-0.00701721
-0.00695614
-0.000544442
-0.00108668
-0.00968829
0.000436325
-0.00156422
-0.00925684
-0.00189814
-0.00889632
-0.00211243
-0.00859531
-0.00222684
-0.00834366
-0.00225838
-0.00813315
-0.00222066
-0.00795696
-0.00212517
-0.00780924
-0.00198183
-0.00768521
-0.00179857
-0.00758103
-0.00158217
-0.00749323
-0.00133836
-0.00741901
-0.00107111
-0.00735656
-0.000784917
-0.0073034
-0.00725831
-0.000482743
-0.000981912
-0.00909824
0.000391864
-0.00141518
-0.00882357
-0.00171803
-0.00859347
-0.00191218
-0.00840116
-0.00201571
-0.00824014
-0.00204409
-0.00810476
-0.00200965
-0.00799141
-0.00192308
-0.0078958
-0.00179266
-0.00781563
-0.00162614
-0.00774755
-0.00142931
-0.00769006
-0.00120722
-0.00764111
-0.000964468
-0.00759931
-0.000704181
-0.00756369
-0.00753296
-0.000429536
-0.000887308
-0.00856283
0.000351886
-0.00128087
-0.00843001
-0.00155551
-0.00831882
-0.00173183
-0.00822484
-0.00182607
-0.0081459
-0.00185144
-0.00807939
-0.00182
-0.00802284
-0.00174096
-0.00797485
-0.00162256
-0.00793403
-0.00147104
-0.00789907
-0.00129191
-0.00786919
-0.00109034
-0.00784268
-0.000869554
-0.00782009
-0.000632945
-0.0078003
-0.00778268
-0.000383223
-0.000802687
0.000315872
-0.00807602
-0.00115995
-0.00807275
-0.00140936
-0.00806941
-0.00156944
-0.00806476
-0.00165444
-0.00806091
-0.00167782
-0.00805601
-0.00164908
-0.00805158
-0.00157719
-0.00804673
-0.00146949
-0.00804173
-0.00133186
-0.0080367
-0.00116899
-0.00803206
-0.000985381
-0.00802628
-0.000784671
-0.0080208
-0.000569642
-0.00801532
-0.000342751
-0.00800957
-0.00284104
-0.002424
0.00154304
-0.00201735
-0.00269169
0.00186831
-0.00123597
-0.00301577
0.00223463
-0.000497028
-0.00340755
0.00266888
0.00019456
-0.00388119
0.00318984
0.000829322
-0.00445347
0.0038189
0.00139226
-0.00514456
0.00458179
0.00186161
-0.00597908
0.00550983
0.00220695
-0.00698529
0.00664002
0.00238875
-0.00819756
0.00801583
0.00235921
-0.00965697
0.00968652
0.00206295
-0.0114121
0.0117085
0.00144034
-0.0135236
0.0141462
0.000426712
-0.0160637
0.0170774
-0.0191212
0.0205959
-0.00104783
-0.00158616
-0.00314638
-0.000887226
-0.00339061
-0.000219046
-0.00368392
0.000409265
-0.00403584
0.000986481
-0.00445838
0.00149873
-0.00496569
0.00192892
-0.00557472
0.00225573
-0.00630585
0.00245497
-0.0071845
0.00249764
-0.00824018
0.00235064
-0.00950996
0.00197595
-0.0110374
0.00132816
-0.0128758
0.000352985
-0.0150885
-0.0177518
-0.00101645
-0.000992093
-0.00379503
-0.000375193
-0.00400749
0.000203652
-0.00426275
0.000737238
-0.00456941
0.00121659
-0.0049377
0.00163121
-0.00538028
0.00196817
-0.00591165
0.00221217
-0.00654983
0.00234414
-0.00731643
0.00234082
-0.00823684
0.00217377
-0.00934288
0.00180769
-0.0106713
0.00119954
-0.0122676
0.000297485
-0.0141864
-0.0164925
-0.000961803
-0.000738773
-0.00438499
-0.000178547
-0.00456771
0.000346286
-0.00478757
0.000828886
-0.005052
0.00126086
-0.00536966
0.0016322
-0.00575162
0.00193082
-0.00621024
0.00214195
-0.00676095
0.00224825
-0.00742271
0.00222839
-0.00821696
0.00205627
-0.00917074
0.00170121
-0.0103162
0.0011256
-0.011692
0.000283666
-0.0133444
-0.0153299
-0.000878928
-0.000563792
-0.00492066
-5.56529e-05
-0.00507584
0.000419656
-0.00526287
0.000855585
-0.00548792
0.00124468
-0.00575874
0.00157728
-0.00608421
0.00184263
-0.00647558
0.00202767
-0.00694598
0.00211559
-0.00751061
0.00208766
-0.00818902
0.00192069
-0.00900375
0.00158608
-0.00998159
0.00105039
-0.0111563
0.000272541
-0.0125666
-0.0142603
-0.000796981
-0.000447723
-0.00540759
1.40114e-05
-0.00553757
0.000445593
-0.00569445
0.000841236
-0.00588356
0.00119361
-0.00611111
0.00149446
-0.00638505
0.00173365
-0.00671477
0.00189841
-0.00711073
0.0019746
-0.00758679
0.00194436
-0.00815877
0.00178626
-0.00884565
0.00147521
-0.00967053
0.000979983
-0.0106611
0.000263534
-0.0118501
-0.0132782
-0.000718567
-0.000363343
-0.00585015
5.62838e-05
-0.0059572
0.000448373
-0.00608653
0.000807446
-0.00624263
0.0011272
-0.00643086
0.00139971
-0.00665755
0.0016155
-0.00693055
0.00176382
-0.00725905
0.00183064
-0.00765359
0.00180033
-0.00812846
0.00165314
-0.00869845
0.00136584
-0.00938322
0.000910493
-0.0102057
0.00025377
-0.0111934
-0.0123792
-0.000645195
-0.000299991
-0.00625241
8.13667e-05
-0.00633855
0.000437651
-0.00644281
0.000763868
-0.00656884
0.00105417
-0.00672116
0.00130147
-0.00690485
0.00149683
-0.0071259
0.00163046
-0.00739268
0.00169026
-0.00771339
0.0016607
-0.00809889
0.0015247
-0.00856245
0.00126086
-0.00911938
0.000843728
-0.00978857
0.000242514
-0.0105922
-0.011557
-0.000579723
-0.00025088
-0.00661811
9.57368e-05
-0.00668517
0.000419491
-0.00676656
0.00071596
-0.00686531
0.000979559
-0.00698476
0.00120384
-0.00712913
0.00138141
-0.00730346
0.0015022
-0.00751346
0.00155543
-0.00776662
0.00152751
-0.00807097
0.00140248
-0.0084374
0.00116094
-0.00887783
0.000779402
-0.00940703
0.000230215
-0.010043
-0.0108064
-0.000520354
-0.000211967
-0.00695058
0.00010307
-0.0070002
0.000397327
-0.00706082
0.000666658
-0.00713464
0.000906249
-0.00722435
0.00111008
-0.00733296
0.00127084
-0.00746422
0.00138043
-0.00762305
0.00142803
-0.00781422
0.00140213
-0.00804506
0.00128759
-0.00832286
0.00106658
-0.00865682
0.000718161
-0.0090586
0.000217
-0.00954183
-0.0101218
-0.000467618
-0.000180608
-0.00725272
0.000105735
-0.00728654
0.000373239
-0.00732832
0.000618117
-0.00737951
0.000835685
-0.00744191
0.00102076
-0.00751803
0.0011668
-0.00761027
0.00126601
-0.00772225
0.00130931
-0.00785752
0.00128508
-0.00802083
0.00118009
-0.00821787
0.000978395
-0.00845512
0.000660662
-0.00874087
0.000203539
-0.0090847
-0.00949776
-0.000420492
-0.000154864
-0.00752739
0.000105424
-0.00754683
0.000348528
-0.00757143
0.000571048
-0.00760203
0.000768827
-0.00763969
0.00093706
-0.00768626
0.00106961
-0.00774281
0.00115956
-0.0078122
0.0011985
-0.00789646
0.00117608
-0.00799841
0.00108016
-0.00812194
0.000896313
-0.00827128
0.000606785
-0.00845134
0.000190145
-0.00866806
-0.00892939
-0.000378224
-0.000133499
-0.00777711
0.000103043
-0.00778337
0.000323964
-0.00779235
0.000526252
-0.00780432
0.000706161
-0.0078196
0.000858749
-0.00783884
0.00097921
-0.00786327
0.00106083
-0.00789382
0.00109594
-0.00793157
0.00107535
-0.00797783
0.000988058
-0.00803465
0.000820281
-0.0081035
0.000556401
-0.00818745
0.000177116
-0.00828877
-0.00841152
-0.00034075
-0.000115582
-0.00800428
9.92664e-05
-0.00799822
0.000300095
-0.00799317
0.000483996
-0.00798822
0.000647269
-0.00798287
0.000785975
-0.00797755
0.000895456
-0.00797275
0.000969673
-0.00796803
0.0010016
-0.00796349
0.000982762
-0.00795899
0.000902938
-0.00795482
0.00075018
-0.00795074
0.000509869
-0.00794714
0.000164538
-0.00794344
-0.000306461
-0.00794052
0.00157896
0.0196119
-0.021261
7.00947e-05
0.00277538
0.0164364
-0.0176328
0.00359005
0.0137779
-0.0145927
0.00408302
0.011547
-0.01204
0.00430632
0.00967348
-0.00989686
0.00430791
0.00810132
-0.008103
0.0041312
0.00678449
-0.00660787
0.00381476
0.00568352
-0.0053672
0.00339224
0.00476403
-0.00434161
0.0028924
0.00399554
-0.00349586
0.00234011
0.00335066
-0.00279849
0.00175755
0.00280365
-0.00222128
0.00116514
0.00233013
-0.00173787
0.000573391
0.00191321
-0.00132174
0.00158524
-4.7849e-05
-0.000964177
0.00143128
0.0181152
6.54646e-05
0.00251896
0.0153487
0.00326392
0.013033
0.00372057
0.0110903
0.00393601
0.009458
0.00395198
0.00808532
0.00380514
0.00693129
0.00352839
0.00596024
0.0031504
0.00514198
0.00269633
0.00444958
0.00218872
0.00385824
0.0016478
0.00334453
0.0010914
0.00288652
0.000527969
0.00247658
0.0021675
-5.42811e-05
0.00130233
0.0167529
5.9912e-05
0.00229385
0.0143572
0.00297528
0.0123515
0.00339633
0.0106693
0.00359907
0.00925527
0.00362035
0.00806405
0.00349279
0.00705886
0.00324514
0.00620791
0.00290286
0.00548428
0.00248854
0.00486392
0.00202217
0.00432463
0.00152232
0.0038444
0.00100498
0.00340388
0.000479674
0.00300189
0.00270521
-5.80094e-05
0.0011836
0.0155152
5.41735e-05
0.00208554
0.0134552
0.00270606
0.011731
0.00309094
0.0102844
0.00327864
0.00906759
0.00330204
0.00804068
0.00319043
0.0071705
0.00296893
0.00642945
0.00265992
0.00579332
0.00228321
0.00524066
0.00185691
0.00475095
0.00139758
0.00430376
0.000920225
0.00388125
0.0004351
0.00348703
0.00319935
-5.90432e-05
0.00107437
0.0143912
4.96227e-05
0.00189375
0.0126359
0.00245858
0.0111662
0.00281032
0.00993268
0.00298365
0.00889429
0.00300859
0.00801577
0.00291066
0.00726846
0.00271225
0.00662789
0.00243306
0.00607252
0.00209075
0.00558299
0.00170144
0.00514027
0.00128027
0.00472495
0.000841335
0.00432018
0.0003952
0.00393318
0.0036531
-5.855e-05
0.00097516
0.0133697
4.63995e-05
0.00172039
0.0118907
0.00223451
0.0106521
0.00255544
0.00961179
0.0027153
0.00873446
0.00274046
0.00799064
0.00265396
0.007355
0.00247574
0.00680614
0.00222321
0.00632508
0.00191214
0.0058941
0.00155691
0.00549552
0.00117147
0.00511043
0.000768757
0.00472292
0.000359258
0.00434273
0.00406934
-5.69606e-05
0.000885245
0.0124414
4.31235e-05
0.00156248
0.0112135
0.00203056
0.0101841
0.00232369
0.00931868
0.00247049
0.0085877
0.00249523
0.00796593
0.00241865
0.00743161
0.00225818
0.00696663
0.0020297
0.00655359
0.00174704
0.00617679
0.00142328
0.00581931
0.00107083
0.00546291
0.000701956
0.00509183
0.000326781
0.00471796
0.0044507
-5.45483e-05
0.000803983
0.0115983
3.90768e-05
0.00141972
0.0105977
0.00184541
0.00975842
0.00211265
0.00905146
0.00224739
0.00845298
0.00227144
0.00794189
0.00220314
0.00749993
0.00205877
0.00711102
0.00185188
0.0067605
0.0015952
0.00643349
0.00130019
0.00611433
0.000978315
0.00578481
0.000640761
0.0054294
0.000297013
0.00506174
0.00479978
-5.2044e-05
0.00072974
0.0108313
3.73206e-05
0.00128962
0.0100379
0.0016773
0.00937075
0.00192073
0.00880804
0.00204409
0.00832963
0.00206724
0.00791875
0.00200649
0.00756068
0.00187627
0.00724124
0.00168909
0.00694769
0.00145591
0.00666667
0.00118731
0.00638293
0.000893497
0.00607864
0.000584762
0.00573815
0.00027028
0.00537624
0.00511936
-4.92944e-05
0.000662499
0.0101347
3.4124e-05
0.00117162
0.00952877
0.00152428
0.0090181
0.00174643
0.00858589
0.00185924
0.00821682
0.00188096
0.00789703
0.00182697
0.00761467
0.0017095
0.0073587
0.00154006
0.00711712
0.00132853
0.00687819
0.00108416
0.0066273
0.000816212
0.00634659
0.000534099
0.00602026
0.00024616
0.00566418
0.0054119
-4.63863e-05
0.000601626
0.00950154
3.15405e-05
0.00106457
0.00906583
0.00138534
0.00869734
0.00158756
0.00838367
0.00169097
0.00811341
0.00171143
0.00787657
0.00166308
0.00766302
0.00155725
0.00746452
0.0014039
0.00727047
0.00121209
0.00707
0.000990135
0.00684925
0.000745992
0.00659072
0.000487847
0.00627839
0.000224152
0.00592787
0.00568028
-4.42361e-05
0.000546327
0.00892584
2.93785e-05
0.000967348
0.00864482
0.00125902
0.00840567
0.00144306
0.00819964
0.00153748
0.00801898
0.00155687
0.00785718
0.00151355
0.00770635
0.00141806
0.00756002
0.00127923
0.0074093
0.00110539
0.00724384
0.000904381
0.00705025
0.000682856
0.00681224
0.000448119
0.00651313
0.000206011
0.00616996
0.00592704
-4.07675e-05
0.000496274
0.00840275
2.68193e-05
0.000878944
0.00826215
0.00114432
0.0081403
0.00131203
0.00803193
0.00139791
0.00793312
0.00141609
0.00783902
0.00137721
0.00774524
0.00129098
0.00764624
0.00116518
0.00753511
0.00100769
0.00740136
0.000826269
0.00723168
0.000626633
0.00701188
0.000409208
0.00673053
0.000187241
0.0063919
0.00615586
-4.16131e-05
0.000450775
2.48061e-05
0.00792717
0.000798792
0.00791414
0.00104024
0.00789886
0.00119265
0.00787953
0.0012711
0.00785468
0.00128765
0.00782248
0.00125293
0.00777997
0.00117555
0.00772363
0.00106107
0.00764962
0.000916293
0.00754616
0.000754355
0.00739363
0.000577326
0.00718889
0.00038627
0.00692156
0.000179644
0.00659848
-3.832e-05
0.0063738
-0.000667825
0.00164597
-0.00102621
-0.00129274
0.00204198
-0.00141713
-0.00192757
0.00249791
-0.00186317
-0.00255191
0.0030029
-0.00237857
-0.00314194
0.00358264
-0.00299265
-0.00367295
0.0042633
-0.00373228
-0.00411711
0.0050697
-0.00462554
-0.00444362
0.00602748
-0.00570096
-0.00461659
0.00716381
-0.00699083
-0.00459768
0.00850942
-0.0085283
-0.00434652
0.0101002
-0.0103513
-0.00382089
0.0119812
-0.0125068
-0.00297344
0.0142116
-0.015059
-0.00174823
0.0168665
-0.0180917
0.0200343
-0.0217064
-7.62025e-05
-0.000644357
0.002236
-0.00123863
0.00263629
-0.00183425
0.00309352
-0.00241371
0.0035824
-0.00295471
0.00412364
-0.00343467
0.00474329
-0.00382911
0.00546416
-0.00411115
0.00630955
-0.00425147
0.00730416
-0.00421803
0.008476
-0.00397699
0.00985919
-0.00349095
0.0114952
-0.00271683
0.0134375
-0.00160126
0.0157509
0.0185132
-8.01187e-05
-0.000607009
0.00278498
-0.00116166
0.00319095
-0.00171498
0.00364682
-0.00224941
0.00411685
-0.00274503
0.00461926
-0.00318097
0.00517925
-0.00353576
0.00581897
-0.00378569
0.0065595
-0.00390547
0.00742397
-0.00386756
0.0084381
-0.00364177
0.00963342
-0.00319463
0.0110481
-0.00248652
0.0127294
-0.00146907
0.0147335
0.0171274
-8.32929e-05
-0.000565727
0.00329166
-0.00107913
0.00370435
-0.00158943
0.00415712
-0.00207963
0.00460705
-0.00253125
0.00507088
-0.00292585
0.00557385
-0.00324439
0.00613752
-0.0034663
0.00678142
-0.0035699
0.0075276
-0.00353117
0.00839938
-0.00332325
0.00942552
-0.00291548
0.0106403
-0.00227087
0.0120848
-0.0013453
0.0138079
0.015867
-8.48668e-05
-0.000524603
0.00375773
-0.000997582
0.00417733
-0.00146666
0.00462621
-0.0019153
0.00505569
-0.00232651
0.0054821
-0.00268351
0.00593086
-0.00296953
0.00642355
-0.00316753
0.00697942
-0.00325759
0.00761767
-0.00321925
0.00836104
-0.0030285
0.00923478
-0.00265687
0.0102687
-0.002071
0.0114989
-0.00122968
0.0129666
0.0147208
-8.35316e-05
-0.000484895
0.0041857
-0.000919373
0.00461182
-0.00134964
0.00505651
-0.00175957
0.00546563
-0.0021335
0.00585605
-0.00245681
0.00625417
-0.00271474
0.0066815
-0.00289141
0.00715609
-0.00297081
0.00769708
-0.00293393
0.00832417
-0.00275904
0.0090599
-0.00242078
0.00993045
-0.00188759
0.0109657
-0.00112261
0.0122016
0.013679
-8.07642e-05
-0.00044713
0.00457832
-0.000845819
0.00501053
-0.00123981
0.00545052
-0.00161373
0.00583956
-0.00195368
0.00619601
-0.00224644
0.00654694
-0.00247868
0.00691374
-0.00263727
0.00731468
-0.00270752
0.00776733
-0.0026724
0.00828905
-0.00251258
0.00890007
-0.00220456
0.00962243
-0.0017199
0.0104811
-0.00102444
0.0115061
0.0127316
-7.70739e-05
-0.000411735
0.00493804
-0.000777053
0.00537585
-0.0011372
0.0058107
-0.00147836
0.00618072
-0.0017872
0.00650486
-0.00205209
0.00681183
-0.00226176
0.00712342
-0.00240426
0.00745718
-0.00246655
0.00782962
-0.00243373
0.00825623
-0.00228771
0.00875405
-0.0020072
0.00934191
-0.00156635
0.0100402
-0.000934081
0.0108738
0.0118705
-7.29835e-05
-0.000378936
0.0052677
-0.000713198
0.00571012
-0.00104233
0.00613984
-0.00135301
0.0064914
-0.00163347
0.00678532
-0.00187346
0.00705182
-0.00206251
0.00731247
-0.00219096
0.00758562
-0.00224623
0.00788488
-0.00221547
0.00822547
-0.00208222
0.0086208
-0.00182693
0.00908662
-0.00142616
0.00963941
-0.00085125
0.0102989
0.0110876
-6.83697e-05
-0.000348171
0.00556949
-0.000654538
0.00601648
-0.000955131
0.00644043
-0.00123808
0.00677435
-0.00149283
0.00704008
-0.00170982
0.0072688
-0.00188064
0.0074833
-0.00199564
0.00770062
-0.00204524
0.00793448
-0.00201643
0.00819666
-0.00189474
0.00849911
-0.00166251
0.00885438
-0.00129802
0.00927493
-0.000775552
0.00977645
0.010376
-6.3897e-05
-0.000320795
0.00584604
-0.00060089
0.00629657
-0.0008754
0.00671494
-0.00113256
0.00703151
-0.00136337
0.00727089
-0.00155965
0.00746508
-0.00171375
0.0076374
-0.00181765
0.00780451
-0.00186168
0.00797851
-0.00183489
0.00816988
-0.00172407
0.0083883
-0.00151255
0.00864286
-0.00118119
0.00894359
-0.000706348
0.0093016
0.0097289
-5.92896e-05
-0.000294702
0.00609995
-0.000551535
0.0065534
-0.000802227
0.00696563
-0.00103658
0.00726586
-0.00124577
0.00748008
-0.00142284
0.00764215
-0.0015616
0.00777617
-0.00165456
0.00789747
-0.00169387
0.00801783
-0.0016691
0.00814513
-0.0015681
0.00828731
-0.00137597
0.00845074
-0.00107466
0.00864227
-0.000642942
0.00886989
0.00914079
-5.4822e-05
-0.000274146
0.00633249
-0.000508515
0.00678776
-0.000736701
0.00719381
-0.000948693
0.00747786
-0.00113772
0.0076691
-0.00129659
0.00780104
-0.0014214
0.00790098
-0.0015055
0.00798158
-0.00154078
0.00805312
-0.00151833
0.0081227
-0.00142613
0.00819513
-0.00125116
0.00827578
-0.000977534
0.00836866
-0.000584899
0.00847726
0.00860646
-5.05698e-05
-0.000250162
0.0065443
-0.000466233
0.00700383
-0.000675487
0.00740307
-0.000869147
0.00767152
-0.00103933
0.0078393
-0.00118255
0.00794426
-0.00129395
0.0080124
-0.00136939
0.00805703
-0.00140119
0.00808494
-0.00138041
0.00810193
-0.0012969
0.00811164
-0.00113802
0.0081169
-0.00088902
0.00811967
-0.00053248
0.00812072
-4.6386e-05
0.00812037
0.000252325
0.00144636
0.000362692
0.00196756
0.000460092
0.002415
0.000560602
0.00293868
0.000665601
0.00356401
0.000776105
0.00431361
0.000885773
0.00521228
0.000989644
0.00628574
0.00107756
0.0075657
0.00114156
0.00908753
0.00117413
0.0108945
0.00117343
0.0130404
0.00114303
0.0155924
0.00109135
0.0186353
0.0222711
0.00102804
0.000129313
0.00131736
0.000149267
0.0019474
0.000187873
0.00237678
0.000244146
0.00288249
0.000312999
0.00349549
0.00039053
0.00423625
0.000473956
0.00512906
0.000559794
0.0062001
0.000643784
0.00748177
0.000721535
0.00900991
0.000787914
0.0108281
0.000838531
0.0129897
0.00086989
0.0155609
0.000880727
0.0186244
0.0222813
0.000870459
0.000210909
0.00110653
0.000245329
0.00191299
0.000266217
0.00235579
0.000292239
0.00285645
0.000324647
0.00346303
0.000364039
0.00419686
0.000410482
0.00508261
0.000462916
0.00614769
0.00051897
0.00742573
0.000575264
0.00895364
0.00062796
0.0107754
0.000673572
0.0129441
0.00070972
0.0155248
0.000735195
0.0185988
0.0222661
0.000750353
9.79838e-05
0.00100888
0.000147525
0.00186369
0.000169699
0.00233355
0.000187999
0.00283829
0.000209658
0.00344125
0.000237725
0.00416893
0.000272945
0.00504726
0.000315911
0.00610483
0.000366105
0.00737545
0.000421115
0.00889867
0.000477404
0.0107191
0.000530812
0.0128907
0.000577383
0.0154782
0.000614441
0.0185617
0.0222408
0.000639631
-5.91694e-05
0.00106804
2.02803e-05
0.00178417
6.16817e-05
0.00229218
8.59645e-05
0.00281404
0.000108302
0.00341893
0.000134383
0.00414292
0.00016611
0.00501551
0.000204642
0.0060664
0.000249803
0.00733025
0.00030098
0.00884757
0.000355995
0.0106641
0.0004119
0.0128348
0.000465072
0.015425
0.000512353
0.0185144
0.0221996
0.000553546
-7.85781e-05
0.00114663
-9.91503e-06
0.00171562
3.87921e-05
0.0022435
6.74982e-05
0.0027854
8.86528e-05
0.00339777
0.000109664
0.00412197
0.000134527
0.00499064
0.000164489
0.00603649
0.000200255
0.00729448
0.000241776
0.0088061
0.000288008
0.0106178
0.000337218
0.0127856
0.00038692
0.0153753
0.000434302
0.018467
0.0221569
0.000476939
-3.5504e-05
0.00118223
2.62488e-06
0.00167767
4.46277e-05
0.00220151
7.41219e-05
0.00275601
9.4352e-05
0.00337751
0.000111874
0.00410451
0.000130595
0.00497189
0.000153024
0.00601412
0.00018022
0.00726727
0.000212712
0.00877366
0.000250054
0.0105805
0.000291273
0.0127444
0.000334691
0.0153319
0.000378213
0.0184234
0.0221154
0.000419751
-5.06643e-06
0.00118742
1.60556e-05
0.00165669
4.77744e-05
0.00216983
7.50432e-05
0.00272883
9.47942e-05
0.00335776
0.00011076
0.00408861
0.000126372
0.00495626
0.000144252
0.00599629
0.000165835
0.00724568
0.000192062
0.00874748
0.000222949
0.0105496
0.000257949
0.0127094
0.000295928
0.0152939
0.000335267
0.0183841
0.0220767
0.000373975
8.5255e-06
0.001179
2.38843e-05
0.00164142
4.80539e-05
0.00214567
7.21483e-05
0.00270479
9.14055e-05
0.0033385
0.000106796
0.00407327
0.000120913
0.00494214
0.000136177
0.00598107
0.000154248
0.00722762
0.000176142
0.00872562
0.000202236
0.0105236
0.0002324
0.0126792
0.000265924
0.0152604
0.000301737
0.0183483
0.02204
0.000338397
1.22454e-05
0.00116685
2.68745e-05
0.00162689
4.69207e-05
0.00212566
6.84458e-05
0.00268334
8.69717e-05
0.00331998
0.000102114
0.00405818
0.000115526
0.00492873
0.000129368
0.00596727
0.000145109
0.00721188
0.000163958
0.0087068
0.000186471
0.0105011
0.000212768
0.012653
0.00024249
0.0152307
0.000274867
0.0183159
0.0220061
0.000308829
1.21589e-05
0.0011548
2.68076e-05
0.00161235
4.47444e-05
0.00210774
6.43723e-05
0.00266379
8.20714e-05
0.00330227
9.6952e-05
0.00404336
0.00011002
0.00491565
0.000122954
0.00595439
0.000137136
0.0071977
0.000153834
0.00869013
0.000173673
0.0104812
0.000196926
0.0126297
0.000223449
0.0152042
0.00025266
0.0182867
0.0219751
0.00028367
1.11948e-05
0.00114376
2.55173e-05
0.00159819
4.2261e-05
0.00209104
6.04829e-05
0.00264568
7.74195e-05
0.00328534
9.20635e-05
0.0040288
0.000104672
0.00490303
0.000116963
0.00594215
0.000129862
0.00718479
0.000145143
0.00867488
0.000162908
0.0104635
0.000183743
0.0126089
0.000207605
0.0151803
0.000234155
0.0182602
0.0219465
0.000262643
1.02992e-05
0.00113361
2.39503e-05
0.00158472
3.9709e-05
0.00207529
5.68164e-05
0.00262868
7.3086e-05
0.00326904
8.73738e-05
0.00401459
9.97789e-05
0.00489059
0.000111591
0.00593039
0.000123828
0.00717254
0.000137655
0.00866108
0.000153775
0.0104473
0.000172649
0.01259
0.000194342
0.0151586
0.000218584
0.0182359
0.0219203
0.000244844
9.55e-06
0.00112424
2.23678e-05
0.00157211
3.72287e-05
0.00206048
5.34083e-05
0.00261263
6.91797e-05
0.00325327
8.32686e-05
0.00400059
9.54511e-05
0.0048784
0.00010687
0.00591903
0.000118449
0.00716095
0.00013129
0.00864827
0.000146109
0.0104325
0.000163438
0.0125727
0.00018347
0.0151386
0.000206185
0.0182132
0.0218949
0.000231553
8.83964e-06
0.00111554
2.07763e-05
0.00156033
3.47508e-05
0.00204652
5.01361e-05
0.00259734
6.54609e-05
0.00323791
7.93789e-05
0.00398674
9.13924e-05
0.00486634
0.000102527
0.00590795
0.000113603
0.00714985
0.000125668
0.00863622
0.000139431
0.0104187
0.000155459
0.0125566
0.000174031
0.01512
0.000195186
0.018192
0.0218713
0.000218709
8.17993e-06
0.00110748
1.92957e-05
0.00154936
3.24678e-05
0.00203338
4.71817e-05
0.00258273
6.20887e-05
0.00322301
7.58107e-05
0.00397309
8.77049e-05
0.00485444
9.85688e-05
0.00589712
0.000109212
0.00713918
0.000120598
0.00862484
0.000133434
0.0104059
0.000148297
0.0125418
0.000165484
0.0151028
0.000185078
0.0181724
0.0218495
0.000206855
7.58268e-06
0.00109992
1.79218e-05
0.00153906
3.03569e-05
0.00202091
4.43455e-05
0.00256876
5.87792e-05
0.00320852
7.23066e-05
0.00395957
8.41184e-05
0.00484257
9.47994e-05
0.00588644
0.00010511
0.00712884
0.000115952
0.00861399
0.000128021
0.0103938
0.000141889
0.0125279
0.000157888
0.0150867
0.000176127
0.0181541
0.0218292
0.000196439
7.0336e-06
0.00109285
1.67057e-05
0.0015294
2.84986e-05
0.00200912
4.1848e-05
0.00255543
5.58035e-05
0.00319457
6.91104e-05
0.00394626
8.09271e-05
0.00483075
9.14346e-05
0.00587592
0.000101459
0.0071188
0.000111819
0.00860362
0.000123227
0.0103824
0.000136251
0.0125148
0.000151244
0.0150717
0.000168377
0.018137
0.0218099
0.000187668
6.55476e-06
0.00108614
1.55545e-05
0.00152026
2.66649e-05
0.00199792
3.9345e-05
0.00254265
5.28197e-05
0.00318103
6.59575e-05
0.00393304
7.77594e-05
0.0048189
8.81911e-05
0.00586544
9.80286e-05
0.00710893
0.000108033
0.00859358
0.000118917
0.0103715
0.000131238
0.0125025
0.000145389
0.0150575
0.00016159
0.0181208
0.0217917
0.000179823
6.08329e-06
0.00107986
1.45208e-05
0.00151166
2.50666e-05
0.00198732
3.71616e-05
0.00253045
5.02213e-05
0.00316796
6.31715e-05
0.00392001
7.49758e-05
0.0048071
8.53199e-05
0.00585503
9.4983e-05
0.00709926
0.000104651
0.00858388
0.000115054
0.010361
0.000126739
0.0124908
0.000140082
0.0150442
0.000155298
0.0181055
0.0217745
0.000172497
5.6538e-06
0.00107389
1.35143e-05
0.0015035
2.35039e-05
0.00197721
3.50269e-05
0.00251871
4.77173e-05
0.00315521
6.04283e-05
0.00390715
7.22245e-05
0.00479527
8.25505e-05
0.00584461
9.21186e-05
0.00708967
0.000101548
0.0085744
0.000111574
0.010351
0.000122731
0.0124796
0.000135417
0.0150314
0.000149918
0.018091
0.0217581
0.000166272
5.29401e-06
0.00106827
1.27008e-05
0.00149578
2.22277e-05
0.0019676
3.3287e-05
0.00250745
4.56182e-05
0.00314286
5.80825e-05
0.00389453
6.98391e-05
0.00478352
8.0144e-05
0.0058342
8.96201e-05
0.00708019
9.88269e-05
0.00856513
0.000108526
0.0103413
0.000119226
0.0124688
0.000131365
0.0150192
0.000145282
0.018077
0.0217416
0.00016171
4.98166e-06
0.0010629
1.19594e-05
0.00148842
2.1045e-05
0.00195838
3.16317e-05
0.0024966
4.35913e-05
0.00313085
5.57826e-05
0.00388214
6.75121e-05
0.00477177
7.78476e-05
0.00582373
8.72868e-05
0.00707073
9.63385e-05
0.008556
0.000105766
0.0103318
0.000116084
0.0124585
0.000127734
0.0150075
0.00014107
0.0180636
0.0217264
0.000156274
4.71525e-06
0.00105779
1.13714e-05
0.0014814
2.00424e-05
0.00194959
3.02486e-05
0.00248615
4.18383e-05
0.00311921
5.3767e-05
0.00387003
6.54394e-05
0.00476008
7.58054e-05
0.00581324
8.52019e-05
0.00706131
9.41061e-05
0.00854702
0.000103285
0.0103226
0.000113236
0.0124485
0.000124441
0.0149963
0.000137272
0.0180508
0.0217116
0.000152126
4.51317e-06
0.0010529
1.08499e-05
0.0014747
1.91772e-05
0.00194114
2.8957e-05
0.00247612
4.02117e-05
0.00310792
5.18874e-05
0.00385816
6.35036e-05
0.00474845
7.39092e-05
0.00580269
8.32958e-05
0.00705191
9.20868e-05
0.00853814
0.000101052
0.0103136
0.000110701
0.0124388
0.000121535
0.0149854
0.000133988
0.0180383
0.0216972
0.000148328
4.36081e-06
0.00104822
1.0487e-05
0.00146829
1.8457e-05
0.00193304
2.79293e-05
0.00246644
3.87987e-05
0.00309697
5.02644e-05
0.00384653
6.1767e-05
0.0047369
7.22066e-05
0.00579213
8.15661e-05
0.00704251
9.02646e-05
0.00852936
9.90233e-05
0.0103048
0.000108376
0.0124294
0.000118814
0.0149749
0.000130722
0.0180264
0.0216838
0.000144151
4.23552e-06
0.00104377
1.01754e-05
0.00146216
1.78573e-05
0.00192529
2.70369e-05
0.00245713
3.76141e-05
0.00308638