/*--------------------------------*- C++ -*----------------------------------*\
| =========                 |                                                 |
| \\      /  F ield         | OpenFOAM: The Open Source CFD Toolbox           |
|  \\    /   O peration     | Version:  2.3.0                                 |
|   \\  /    A nd           | Web:      www.OpenFOAM.org                      |
|    \\/     M anipulation  |                                                 |
\*---------------------------------------------------------------------------*/
FoamFile
{
    version     2.0;
    format      ascii;
    class       volScalarField;
    location    "5000";
    object      nut;
}
// * * * * * * * * * * * * * * * * * * * * * * * * * * * * * * * * * * * * * //

dimensions      [0 2 -1 0 0 0 0];

internalField   nonuniform List<scalar> 
38227
(
0.0731635
0.0715615
0.069956
0.0683454
0.0667297
0.0651095
0.0634857
0.0618591
0.0602302
0.0585996
0.0569682
0.0553366
0.0537057
0.0520761
0.0504479
0.0488221
0.047199
0.0455793
0.0439635
0.0423519
0.0407448
0.0391426
0.0375457
0.0359541
0.0343686
0.0327899
0.0312178
0.0296534
0.0280972
0.02655
0.0250135
0.023489
0.0219785
0.0204853
0.0190142
0.0175712
0.0161661
0.014811
0.0135218
0.0123126
0.0111734
0.00997194
0.00794623
0.0741493
0.0727209
0.0712939
0.0698632
0.068428
0.0669884
0.065545
0.0640983
0.0626484
0.0611958
0.0597408
0.0582838
0.0568253
0.0553654
0.0539043
0.0524425
0.0509804
0.0495183
0.0480568
0.0465961
0.0451363
0.0436785
0.0422229
0.0407696
0.0393202
0.0378755
0.036436
0.0350037
0.0335803
0.0321682
0.0307706
0.0293914
0.0280359
0.0267103
0.025423
0.0241855
0.0230114
0.0219162
0.0209198
0.0200442
0.019312
0.0187417
0.0183447
0.0750594
0.0737871
0.0725165
0.0712411
0.0699609
0.0686757
0.0673861
0.0660924
0.0647947
0.0634929
0.0621872
0.0608782
0.0595656
0.0582496
0.0569303
0.055608
0.0542832
0.0529556
0.0516261
0.0502951
0.0489626
0.0476298
0.0462972
0.0449655
0.0436362
0.0423103
0.0409887
0.0396744
0.0383694
0.0370767
0.0358004
0.0345454
0.0333174
0.0321231
0.0309714
0.0298733
0.0288407
0.0278869
0.0270257
0.026273
0.0256425
0.0251441
0.0247864
0.0758927
0.074767
0.0736331
0.0724923
0.0713452
0.0701924
0.0690341
0.0678704
0.0667015
0.0655274
0.064348
0.0631634
0.0619738
0.0607788
0.0595785
0.0583734
0.0571634
0.0559486
0.0547296
0.0535069
0.0522805
0.0510515
0.049821
0.0485899
0.0473597
0.0461317
0.0449072
0.0436886
0.0424788
0.0412811
0.0400999
0.0389396
0.0378062
0.0367068
0.0356499
0.0346446
0.0337021
0.032834
0.0320508
0.0313651
0.0307877
0.0303258
0.0299859
0.0766859
0.0756721
0.074653
0.0736272
0.0725946
0.071555
0.0705086
0.0694556
0.0683961
0.0673301
0.0662574
0.0651778
0.0640916
0.0629984
0.0618981
0.060791
0.0596771
0.0585563
0.0574293
0.0562966
0.055158
0.0540149
0.0528686
0.0517201
0.050571
0.0494229
0.0482774
0.0471365
0.0460029
0.0448807
0.0437736
0.0426864
0.041625
0.0405958
0.0396074
0.0386675
0.0377862
0.0369742
0.0362408
0.0355972
0.0350515
0.0346115
0.0342817
0.0774148
0.0765009
0.0755814
0.0746551
0.073721
0.0727783
0.0718273
0.0708688
0.0699026
0.0689284
0.0679459
0.066955
0.0659558
0.0649481
0.0639321
0.0629073
0.0618737
0.0608316
0.0597816
0.0587239
0.0576583
0.056586
0.0555088
0.0544281
0.0533451
0.0522621
0.0511812
0.0501038
0.0490323
0.0479703
0.0469217
0.0458922
0.0448869
0.0439115
0.0429745
0.0420827
0.041246
0.0404738
0.0397751
0.03916
0.0386358
0.0382101
0.037887
0.0780827
0.0772562
0.0764241
0.0755844
0.0747358
0.0738765
0.0730071
0.0721291
0.0712425
0.0703467
0.0694405
0.0685246
0.0675991
0.0666636
0.0657183
0.0647633
0.0637978
0.0628211
0.0618356
0.0608413
0.0598372
0.0588237
0.0578031
0.0567779
0.0557494
0.0547197
0.0536916
0.052667
0.0516474
0.0506343
0.0496324
0.0486492
0.0476889
0.0467564
0.0458593
0.0450048
0.0442022
0.0434593
0.0427865
0.0421914
0.0416825
0.0412668
0.0409491
0.0786896
0.0779431
0.0771872
0.076423
0.0756505
0.0748633
0.0740633
0.0732532
0.0724346
0.0716061
0.0707653
0.0699126
0.06905
0.0681759
0.0672895
0.0663935
0.0654881
0.0645655
0.0636332
0.0626928
0.0617423
0.0607791
0.0598045
0.0588245
0.0578406
0.0568541
0.0558689
0.0548881
0.053914
0.0529429
0.0519773
0.0510305
0.050109
0.0492114
0.0483456
0.0475211
0.0467462
0.0460256
0.0453726
0.044792
0.0442936
0.0438863
0.0435742
0.0792547
0.0785743
0.0778805
0.0771765
0.0764739
0.0757512
0.0750098
0.0742547
0.0734918
0.0727208
0.0719381
0.0711366
0.0703264
0.0695057
0.0686701
0.0678161
0.0669706
0.0660941
0.0652055
0.064308
0.063405
0.0624891
0.0615508
0.0606066
0.0596591
0.0587059
0.0577522
0.0568019
0.0558666
0.05494
0.0540029
0.0530801
0.0521912
0.0513278
0.0504877
0.0496886
0.0489389
0.0482349
0.0476015
0.0470333
0.0465445
0.046143
0.0458388
0.00722639
0.0084216
0.00940619
0.010193
0.0109845
0.0118313
0.0127366
0.0136932
0.0146947
0.0157337
0.0168073
0.0179134
0.0190492
0.0202105
0.0213952
0.0226014
0.0238275
0.0250726
0.0263364
0.0276163
0.0289134
0.0302267
0.0315553
0.0328991
0.034257
0.0356291
0.0370143
0.0384126
0.0398234
0.0412459
0.0426797
0.0441244
0.0455792
0.0470437
0.0485173
0.0499994
0.0514894
0.0529865
0.0544902
0.0560002
0.0575165
0.0590393
0.0605687
0.0181262
0.0180763
0.0181888
0.0184523
0.0188531
0.0193765
0.0200057
0.0207235
0.0215157
0.0223711
0.0232791
0.024232
0.0252224
0.0262448
0.0272954
0.0283699
0.0294666
0.0305823
0.0317146
0.0328637
0.0340274
0.0352047
0.0363949
0.0375966
0.03881
0.040034
0.0412678
0.0425117
0.0437646
0.0450261
0.0462962
0.0475742
0.0488596
0.0501524
0.0514519
0.0527578
0.05407
0.0553878
0.0567109
0.0580395
0.0593738
0.0607154
0.0620706
0.0245659
0.0244773
0.0245236
0.0246996
0.0249977
0.0254079
0.0259173
0.0265143
0.0271867
0.0279243
0.0287177
0.0295585
0.0304389
0.0313545
0.0322983
0.0332678
0.0342588
0.0352689
0.0362956
0.0373371
0.0383917
0.039458
0.0405346
0.0416207
0.0427159
0.0438189
0.0449296
0.046047
0.0471707
0.0483008
0.0494363
0.0505772
0.0517233
0.0528742
0.0540299
0.0551898
0.0563539
0.057522
0.0586939
0.0598695
0.0610491
0.0622326
0.0634206
0.0297651
0.0296622
0.0296782
0.0298102
0.0300518
0.030396
0.0308325
0.0313518
0.0319443
0.0326004
0.0333112
0.0340694
0.0348679
0.0357002
0.0365616
0.0374478
0.0383554
0.0392805
0.0402212
0.0411758
0.0421414
0.0431171
0.0441012
0.045093
0.046091
0.047095
0.0481039
0.049117
0.0501345
0.0511554
0.0521796
0.0532069
0.054237
0.05527
0.0563054
0.057343
0.0583828
0.0594246
0.0604685
0.0615143
0.0625621
0.0636112
0.0646593
0.0340615
0.03395
0.033948
0.0340525
0.0342589
0.0345604
0.0349489
0.0354162
0.0359531
0.0365511
0.0372029
0.0379002
0.0386365
0.0394059
0.0402033
0.0410244
0.0418649
0.0427228
0.0435951
0.0444792
0.0453731
0.0462751
0.0471838
0.048098
0.0490165
0.0499386
0.0508637
0.0517911
0.0527201
0.0536506
0.0545824
0.0555152
0.0564489
0.0573829
0.0583175
0.0592523
0.0601871
0.0611219
0.062057
0.0629925
0.0639284
0.0648645
0.0658011
0.037668
0.0375512
0.0375373
0.0376235
0.0378051
0.0380767
0.0384313
0.0388608
0.0393575
0.0399139
0.0405214
0.0411728
0.0418615
0.0425815
0.0433282
0.0440968
0.0448847
0.0456884
0.0465052
0.0473325
0.0481678
0.0490094
0.0498558
0.0507063
0.0515594
0.0524142
0.0532696
0.0541255
0.0549812
0.0558367
0.0566914
0.0575454
0.058398
0.0592493
0.0600991
0.060947
0.0617929
0.0626366
0.063479
0.0643205
0.0651609
0.0659998
0.0668382
0.040731
0.0406111
0.0405889
0.0406612
0.0408247
0.0410742
0.0414028
0.0418044
0.0422715
0.0427962
0.0433703
0.0439861
0.0446365
0.0453168
0.0460222
0.0467487
0.0474941
0.0482544
0.0490263
0.0498069
0.0505936
0.0513849
0.0521805
0.0529789
0.0537775
0.0545751
0.0553727
0.0561692
0.056964
0.0577564
0.0585469
0.0593347
0.0601192
0.0609005
0.0616786
0.062453
0.0632228
0.0639885
0.0647521
0.0655138
0.0662724
0.0670264
0.0677768
0.0433581
0.0432357
0.0432077
0.0432675
0.043417
0.0436483
0.0439569
0.0443375
0.0447829
0.045284
0.0458327
0.0464178
0.0470367
0.0476846
0.0483556
0.0490473
0.0497602
0.0504854
0.0512202
0.0519608
0.0527058
0.0534555
0.0542103
0.0549655
0.0557169
0.0564662
0.0572162
0.0579633
0.0587062
0.0594456
0.060183
0.0609148
0.0616408
0.0623641
0.0630805
0.0637932
0.0644964
0.0651948
0.0658923
0.0665868
0.0672756
0.0679552
0.068628
0.0456287
0.0455032
0.0454746
0.0455172
0.0456589
0.0458723
0.0461653
0.046532
0.0469626
0.0474455
0.0479743
0.048526
0.0491203
0.0497386
0.0503796
0.0510435
0.0517387
0.0524285
0.0531324
0.0538353
0.0545443
0.0552599
0.0559828
0.0566971
0.0574061
0.0581162
0.0588327
0.0595343
0.0602343
0.0609302
0.0616253
0.0623057
0.0629829
0.0636629
0.0643213
0.0649854
0.0656249
0.0662692
0.0669156
0.0675546
0.0681853
0.0687985
0.0694004
0.0167837
0.0158187
0.0148932
0.0140071
0.0131599
0.0123506
0.0115786
0.0108434
0.0101444
0.00948096
0.00885287
0.00826004
0.00770313
0.00718381
0.00670526
0.00627317
0.00589596
0.00556758
0.00527592
0.00501206
0.00477022
0.00454636
0.00433735
0.00414052
0.00395347
0.00377393
0.00359975
0.00342893
0.00325955
0.00308981
0.00291799
0.0027425
0.00256182
0.00237455
0.00217938
0.00197506
0.00176057
0.00153506
0.00129799
0.00104962
0.000792411
0.000535251
0.000269995
0.0167052
0.0158097
0.0149506
0.0141254
0.0133331
0.0125729
0.0118446
0.0111474
0.0104808
0.00984461
0.00923832
0.00866189
0.00811558
0.00760042
0.00711832
0.00667308
0.00627097
0.00591636
0.00560189
0.00531881
0.00506065
0.00482273
0.00460147
0.00439389
0.00419756
0.00401018
0.0038296
0.00365377
0.00348066
0.0033083
0.00313476
0.00295818
0.00277668
0.00258853
0.002392
0.0021855
0.00196765
0.00173726
0.0014937
0.00123725
0.000970084
0.000695604
0.000403546
0.0166312
0.0158076
0.0150124
0.0142455
0.0135058
0.0127929
0.0121063
0.0114456
0.0108105
0.0102005
0.00961552
0.00905546
0.00852036
0.0080109
0.00752828
0.00707489
0.006655
0.00627498
0.00593652
0.00563199
0.0053547
0.00509985
0.0048636
0.00464283
0.00443487
0.00423734
0.00404803
0.00386488
0.00368578
0.00350866
0.00333142
0.00315196
0.00296816
0.0027779
0.00257905
0.0023696
0.00214768
0.00191171
0.00166071
0.00139487
0.00111558
0.000822078
0.000520068
0.016569
0.0158075
0.0150707
0.0143571
0.0136657
0.0129961
0.012348
0.011721
0.0111151
0.0105297
0.00996499
0.00942073
0.00889705
0.00839441
0.00791364
0.00745636
0.00702548
0.00662606
0.00626444
0.00593828
0.00564103
0.00536784
0.00511497
0.00487931
0.00465808
0.0044488
0.00424922
0.00405714
0.00387044
0.00368698
0.00350456
0.00332088
0.0031336
0.00294027
0.00273842
0.0025256
0.00229948
0.00205804
0.00179998
0.00152513
0.00123394
0.000922947
0.000630091
0.0165113
0.015808
0.0151242
0.014459
0.0138116
0.0131814
0.0125684
0.0119723
0.0113931
0.0108306
0.0102848
0.00975559
0.00924317
0.00874786
0.00827041
0.00781188
0.00737448
0.00696187
0.00658019
0.00623351
0.00591673
0.00562497
0.00535479
0.00510323
0.00486762
0.00464551
0.00443452
0.00423243
0.00403705
0.00384617
0.00365751
0.00346864
0.00327703
0.00307997
0.0028747
0.00265833
0.00242812
0.00218163
0.00191719
0.00163426
0.00133231
0.00100723
0.00073967
0.0164579
0.0158084
0.015173
0.0145517
0.0139442
0.0133499
0.0127689
0.0122012
0.0116465
0.011105
0.0105766
0.0100615
0.00955988
0.00907207
0.00859863
0.00814054
0.00769935
0.0072779
0.00688103
0.00651549
0.00618026
0.00587059
0.00558316
0.00531536
0.00506478
0.00482912
0.00460601
0.00439317
0.00418839
0.00398938
0.00379377
0.00359904
0.00340253
0.00320132
0.00299234
0.00277237
0.00253826
0.00228718
0.00201708
0.00172706
0.00141572
0.00108086
0.000850445
0.0164101
0.0158087
0.0152172
0.0146359
0.0140646
0.0135031
0.0129513
0.0124092
0.011877
0.0113548
0.0108427
0.0103409
0.00984943
0.00936875
0.00889967
0.00844285
0.00799971
0.00757226
0.00716439
0.00678242
0.00643027
0.00610385
0.00579983
0.00551604
0.00525044
0.00500094
0.00476532
0.00454133
0.00432673
0.00411913
0.00391615
0.00371516
0.00351338
0.00330772
0.00309487
0.00287128
0.00263346
0.00237825
0.00210336
0.00180716
0.00148763
0.00114689
0.000962774
0.0163656
0.0158089
0.0152572
0.0147121
0.0141736
0.013642
0.0131173
0.0125992
0.0120876
0.0115832
0.0110865
0.0105975
0.0101159
0.00964162
0.00917618
0.00872096
0.00827685
0.00784534
0.00742936
0.00703401
0.00666602
0.00632422
0.00600482
0.00570548
0.00542481
0.00516144
0.00491319
0.00467771
0.00445289
0.00423661
0.00402622
0.00381885
0.00361156
0.00340137
0.00318466
0.00295766
0.00271653
0.00245748
0.00217774
0.00187681
0.00155228
0.00121007
0.00107205
0.0163327
0.0158109
0.0152916
0.0147797
0.0142705
0.0137663
0.0132682
0.0127743
0.0122823
0.0117941
0.0113129
0.0108405
0.0103739
0.00990589
0.00944026
0.00898443
0.00854052
0.00810694
0.00768626
0.00728228
0.00689794
0.00654073
0.00620951
0.00589815
0.00560127
0.00532256
0.005062
0.00481559
0.00457803
0.0043492
0.00412965
0.00391593
0.00370299
0.00348664
0.00326509
0.00303352
0.00278824
0.00252824
0.002248
0.00193617
0.00159509
0.00125398
0.00119754
0.000180038
0.00036918
0.000585305
0.000844004
0.00114224
0.00147859
0.00186578
0.00229441
0.00275981
0.00326157
0.00379997
0.00437502
0.00498735
0.00563733
0.0063256
0.00705289
0.00782016
0.00862802
0.0094777
0.0103701
0.011306
0.0122867
0.0133133
0.0143869
0.0155085
0.0166792
0.0179002
0.0191722
0.0204965
0.0218733
0.0233031
0.0247857
0.0263199
0.0279038
0.0295336
0.0312034
0.0329048
0.0346266
0.0363552
0.038076
0.0397754
0.0414424
0.0430708
0.000348651
0.000588476
0.000881446
0.00121871
0.00159359
0.00200503
0.00245429
0.00294189
0.00347397
0.00404716
0.00465719
0.00530291
0.00598407
0.00670042
0.00745209
0.00823938
0.00906264
0.00992222
0.0108185
0.0117522
0.012724
0.0137344
0.0147839
0.0158736
0.0170038
0.0181754
0.0193891
0.0206452
0.0219443
0.0232864
0.0246716
0.0260989
0.027567
0.0290731
0.030613
0.0321808
0.0337682
0.0353656
0.0369619
0.0385462
0.0401088
0.0416411
0.0431354
0.000527972
0.000837636
0.00120878
0.00162459
0.00207799
0.0025661
0.00308762
0.00364344
0.00423612
0.00486744
0.00553878
0.00624774
0.00699137
0.0077684
0.00857812
0.00942003
0.0102942
0.0112005
0.012139
0.0131099
0.0141134
0.0151497
0.0162192
0.0173222
0.018459
0.01963
0.0208354
0.0220753
0.0233498
0.0246584
0.0260005
0.0273747
0.0287787
0.0302091
0.0316612
0.033129
0.0346052
0.036082
0.0375512
0.039005
0.0404367
0.0418403
0.0432109
0.000717948
0.00110136
0.00154717
0.00203742
0.0025649
0.00312588
0.0037185
0.00434262
0.0049989
0.00568883
0.00641379
0.00717428
0.00796956
0.00879791
0.00965743
0.0105469
0.0114654
0.0124123
0.0133875
0.0143905
0.0154213
0.0164799
0.0175661
0.0186801
0.0198219
0.0209914
0.0221883
0.0234124
0.0246631
0.0259394
0.02724
0.0285627
0.0299046
0.0312618
0.0326298
0.0340029
0.0353755
0.0367416
0.0380951
0.0394309
0.0407439
0.0420302
0.0432855
0.000913718
0.0013687
0.0018845
0.00244412
0.0030404
0.00366931
0.0043285
0.00501724
0.00573537
0.00648338
0.00726202
0.00807192
0.00891315
0.00978517
0.0106866
0.0116162
0.0125726
0.0135547
0.0145616
0.0155927
0.0166474
0.0177254
0.0188262
0.0199495
0.0210948
0.0222617
0.0234493
0.0246571
0.0258835
0.0271272
0.0283862
0.0296578
0.0309389
0.0322257
0.0335141
0.0347995
0.0360773
0.0373432
0.038593
0.0398228
0.0410296
0.0422102
0.0433624
0.00110998
0.00163235
0.00221333
0.00283722
0.00349715
0.00418878
0.00490962
0.00565841
0.00643455
0.00723789
0.0080687
0.00892714
0.00981322
0.0107266
0.0116666
0.012632
0.0136217
0.0146344
0.0156689
0.0167244
0.0177997
0.0188943
0.020007
0.021137
0.0222836
0.0234457
0.024622
0.0258112
0.0270115
0.0282212
0.0294377
0.0306586
0.031881
0.0331014
0.0343161
0.0355214
0.0367138
0.0378901
0.0390472
0.0401828
0.0412946
0.0423808
0.0434397
0.00130385
0.0018882
0.00252912
0.00321239
0.003931
0.00468065
0.00545847
0.00626291
0.00709312
0.00794851
0.0088288
0.00973378
0.0106633
0.0116169
0.0125938
0.0135928
0.014613
0.0156534
0.0167125
0.0177895
0.0188822
0.0199899
0.0211111
0.0222447
0.0233892
0.0245435
0.0257055
0.0268734
0.0280456
0.0292198
0.0303934
0.031565
0.0327321
0.0338916
0.0350398
0.0361733
0.0372896
0.038386
0.039461
0.0405128
0.0415402
0.0425422
0.0435181
0.00148691
0.00213096
0.00282991
0.00356964
0.0043437
0.00514718
0.00597742
0.00683344
0.00771449
0.00861938
0.00954597
0.010494
0.0114654
0.0124574
0.0134688
0.0144986
0.0155466
0.0166122
0.017693
0.0187881
0.019894
0.0210108
0.0221369
0.0232702
0.0244094
0.025553
0.0266981
0.0278431
0.0289863
0.0301231
0.0312522
0.032377
0.0334948
0.0346006
0.0356902
0.0367604
0.0378094
0.0388353
0.0398371
0.0408143
0.0417668
0.0426942
0.043596
0.00170664
0.00241274
0.00315984
0.00394482
0.00476833
0.00561118
0.00648323
0.00738465
0.00831522
0.00927001
0.0102341
0.0112172
0.0122339
0.0132582
0.014299
0.0153526
0.0164251
0.0175138
0.0186118
0.0197199
0.0208294
0.0219527
0.0230812
0.0242098
0.0253418
0.0264736
0.0276
0.0287242
0.0298401
0.03093
0.032008
0.0330951
0.0341727
0.0352337
0.0362737
0.037289
0.0382794
0.039242
0.0401778
0.0410881
0.0419738
0.0428344
0.0436698
0.000607991
0.00223092
0.00390332
0.00558847
0.00727759
0.00896739
0.0106542
0.0123371
0.0140157
0.0156914
0.0173653
0.0190376
0.0207094
0.0223826
0.0240581
0.0257362
0.0274179
0.0291039
0.0307942
0.0324892
0.0341895
0.0358951
0.0376056
0.0393208
0.0410412
0.0427663
0.0444954
0.0462283
0.0479646
0.0497033
0.0514442
0.0531867
0.0549297
0.0566725
0.0584144
0.0601544
0.0618918
0.0636253
0.0653546
0.0670784
0.0687961
0.0705072
0.0722153
2.11754e-05
0.00100789
0.00224436
0.00362834
0.00511089
0.00665676
0.0082462
0.00986707
0.0115106
0.0131721
0.0148479
0.0165352
0.0182324
0.0199389
0.0216534
0.0233756
0.0251052
0.0268423
0.028586
0.0303359
0.0320928
0.0338558
0.0356242
0.037398
0.0391771
0.0409606
0.042748
0.0445394
0.0463334
0.0481296
0.0499275
0.051726
0.0535244
0.0553221
0.0571179
0.0589112
0.0607007
0.0624858
0.0642653
0.0660383
0.0678041
0.0695614
0.0713109
0.000238913
0.000861053
0.00185285
0.00300052
0.0042635
0.00561476
0.00703713
0.00851688
0.0100441
0.0116119
0.0132143
0.0148456
0.0165024
0.0181814
0.0198801
0.0215963
0.0233282
0.0250742
0.0268326
0.0286028
0.0303838
0.0321742
0.0339734
0.0357802
0.037594
0.0394142
0.0412399
0.0430701
0.044904
0.0467409
0.0485795
0.0504192
0.052259
0.054098
0.0559352
0.0577694
0.0595999
0.0614253
0.0632448
0.0650573
0.0668618
0.0686573
0.0704452
0.000280126
0.000783881
0.00164016
0.00264073
0.00375562
0.00496485
0.0062545
0.00761324
0.00903226
0.0105046
0.0120241
0.0135852
0.015183
0.0168141
0.0184749
0.0201623
0.0218734
0.0236058
0.0253577
0.0271274
0.0289125
0.030712
0.0325243
0.0343479
0.0361818
0.0380245
0.0398751
0.0417321
0.0435945
0.0454611
0.0473311
0.0492031
0.0510761
0.0529489
0.0548203
0.0566893
0.0585543
0.0604147
0.062269
0.0641164
0.0659555
0.0677856
0.0696097
0.000279916
0.00069492
0.00146053
0.00236201
0.00337483
0.0044821
0.00567233
0.0069362
0.00826578
0.00965522
0.0110987
0.0125912
0.0141283
0.015706
0.0173211
0.0189698
0.0206492
0.0223569
0.0240902
0.0258465
0.0276239
0.0294205
0.031234
0.0330632
0.0349061
0.036761
0.0386268
0.0405015
0.042384
0.0442726
0.0461663
0.0480635
0.0499632
0.0518637
0.0537638
0.055662
0.0575572
0.0594481
0.0613331
0.0632115
0.0650814
0.0669418
0.0687947
0.000279595
0.000624652
0.00132227
0.00214954
0.00308417
0.00411171
0.00522216
0.00640748
0.00766133
0.0089782
0.0103531
0.0117818
0.0132604
0.0147847
0.016352
0.0179583
0.0196015
0.0212781
0.0229857
0.0247213
0.0264834
0.0282689
0.0300756
0.0319021
0.0337461
0.0356058
0.0374791
0.0393644
0.0412601
0.0431646
0.0450758
0.0469927
0.0489135
0.0508365
0.0527602
0.0546834
0.0566046
0.0585218
0.060434
0.0623396
0.0642368
0.0661244
0.0680033
0.000277696
0.000571978
0.0012164
0.00198435
0.0028559
0.00381815
0.00486209
0.00598094
0.00716946
0.00842271
0.00973623
0.0111066
0.01253
0.0140035
0.0155235
0.0170874
0.0186921
0.0203349
0.0220129
0.023724
0.0254654
0.0272345
0.029029
0.0308471
0.0326865
0.0345449
0.0364201
0.0383101
0.0402138
0.0421284
0.0440523
0.0459837
0.047921
0.0498621
0.0518054
0.0537498
0.0556927
0.057633
0.0595689
0.0614985
0.0634203
0.0653322
0.0672345
0.000275418
0.000530408
0.00113136
0.00185005
0.0026692
0.00357683
0.00456462
0.00562678
0.00675871
0.0079558
0.00921467
0.0105322
0.0119051
0.0133305
0.0148056
0.0163276
0.0178938
0.0195017
0.0211488
0.0228325
0.0245502
0.0262997
0.0280783
0.0298838
0.0317139
0.0335667
0.0354393
0.03733
0.0392367
0.041157
0.0430889
0.0450309
0.0469806
0.0489362
0.0508957
0.0528573
0.054819
0.0567792
0.0587356
0.0606866
0.0626302
0.0645642
0.0664882
0.000273411
0.000496412
0.00106081
0.00173783
0.00251279
0.00337375
0.00431341
0.0053264
0.00640851
0.00755602
0.00876616
0.0100358
0.0113622
0.0127429
0.0141754
0.0156575
0.0171862
0.0187595
0.020375
0.02203
0.0237226
0.0254502
0.0272102
0.029
0.030818
0.0326616
0.0345282
0.0364156
0.0383218
0.0402442
0.0421808
0.0441296
0.0460885
0.0480551
0.0500273
0.0520031
0.0539807
0.0559577
0.0579323
0.0599023
0.0618654
0.0638195
0.065764
0.000271571
0.000467986
0.00100125
0.00164267
0.00237963
0.00320021
0.0040978
0.00506755
0.00610557
0.0072091
0.00837512
0.00960128
0.0108852
0.0122244
0.0136171
0.015061
0.0165536
0.0180931
0.019677
0.0213035
0.0229701
0.0246744
0.0264139
0.0281865
0.0299897
0.0318215
0.0336793
0.0355608
0.0374635
0.039385
0.0413232
0.043276
0.0452408
0.0472154
0.0491974
0.0511849
0.0531755
0.0551671
0.0571576
0.0591441
0.061125
0.0630977
0.0650616
0.0002699
0.000444007
0.000950341
0.00156079
0.00226447
0.00304958
0.00391021
0.00484171
0.00584069
0.00690457
0.00803078
0.00921734
0.010462
0.0117628
0.013118
0.0145258
0.0159841
0.0174909
0.019044
0.0206421
0.0222822
0.0239624
0.0256806
0.0274343
0.0292214
0.0310397
0.0328866
0.0347596
0.0366565
0.0385748
0.040512
0.0424661
0.0444342
0.0464144
0.0484038
0.0504005
0.0524019
0.0544057
0.0564095
0.058411
0.060408
0.0623983
0.0643825
0.000268406
0.000423219
0.000905984
0.00148912
0.00216356
0.00291742
0.00374511
0.00464235
0.00560621
0.00663418
0.00772429
0.00887449
0.010083
0.0113484
0.0126687
0.0140423
0.015468
0.0169432
0.0184667
0.0200365
0.0216504
0.0233065
0.0250026
0.0267368
0.0285068
0.03031
0.0321442
0.0340071
0.0358964
0.0378092
0.0397436
0.0416966
0.0436661
0.0456494
0.0476441
0.0496477
0.0516577
0.0536718
0.0556872
0.0577017
0.0597129
0.0617185
0.0637193
0.000267
0.000405209
0.000867102
0.001426
0.00207424
0.00280021
0.0035983
0.00446466
0.00539676
0.00639221
0.00744912
0.00856591
0.00974128
0.0109736
0.0122612
0.013603
0.0149973
0.0164427
0.0179374
0.0194798
0.0210678
0.0226999
0.024374
0.026088
0.0278398
0.0296272
0.0314477
0.033299
0.0351789
0.0370848
0.0390141
0.0409646
0.0429332
0.044918
0.046916
0.0489246
0.0509414
0.0529638
0.054989
0.0570146
0.0590382
0.0610571
0.0630698
0.00026581
0.000389414
0.000832801
0.00137014
0.00199444
0.00269526
0.00346666
0.00430504
0.00520809
0.00617372
0.00720035
0.00828656
0.009431
0.0106325
0.0118897
0.0132012
0.0145661
0.0159828
0.0174497
0.0189656
0.0205287
0.022137
0.0237891
0.0254827
0.0272159
0.0289866
0.0307925
0.0326312
0.0345006
0.036398
0.0383211
0.0402671
0.0422337
0.0442181
0.0462176
0.0482296
0.0502514
0.0522806
0.0543139
0.0563491
0.0583835
0.0604142
0.0624397
0.000264635
0.000375302
0.000802131
0.00132007
0.00192266
0.0026006
0.00334771
0.00416066
0.00503723
0.00597557
0.00697422
0.00803201
0.0091478
0.0103205
0.0115491
0.0128322
0.0141691
0.0155585
0.0169989
0.0184891
0.0200276
0.0216129
0.023243
0.0249162
0.0266307
0.0283843
0.0301749
0.0320004
0.0338582
0.0357462
0.0376617
0.0396021
0.041565
0.0435475
0.0455471
0.0475609
0.0495864
0.0516206
0.0536608
0.0557041
0.0577479
0.059789
0.061826
0.00026349
0.000362784
0.000774527
0.00127484
0.00185761
0.00251459
0.00323942
0.00402903
0.00488123
0.00579446
0.00676724
0.00779863
0.00888773
0.0100336
0.0112352
0.0124915
0.013802
0.0151654
0.0165803
0.0180457
0.0195606
0.0211231
0.0227317
0.0243848
0.0260804
0.0278167
0.0295919
0.0314032
0.0332489
0.0351264
0.0370334
0.0389672
0.0409251
0.0429045
0.0449028
0.0469172
0.0489449
0.050983
0.0530286
0.0550791
0.0571315
0.0591833
0.0612342
0.000262607
0.000352638
0.000749555
0.00123364
0.00179824
0.00243605
0.00314046
0.00390847
0.00473819
0.00562812
0.00657699
0.00758383
0.00864796
0.00976858
0.0109448
0.012176
0.0134612
0.0147998
0.0161904
0.0176322
0.0191239
0.0206644
0.0222519
0.023885
0.0255618
0.0272809
0.02904
0.0308372
0.0326701
0.0345366
0.0364341
0.0383603
0.0403123
0.0422876
0.0442836
0.0462974
0.0483261
0.0503668
0.0524169
0.0544733
0.0565335
0.0585953
0.0606585
0.000262377
0.00034717
0.000726926
0.00119605
0.00174381
0.00236393
0.00304952
0.00379762
0.0046064
0.00547469
0.00640117
0.00738506
0.00842583
0.00952266
0.0106751
0.0118824
0.0131439
0.0144588
0.0158261
0.0172451
0.0187147
0.0202335
0.0218005
0.0234139
0.0250722
0.0267739
0.028517
0.0302996
0.0321193
0.0339742
0.0358617
0.0377795
0.0397248
0.0416951
0.0436878
0.0456999
0.0477285
0.049771
0.0518243
0.0538855
0.0559522
0.0580218
0.0600923
0.000262977
0.000346325
0.000706386
0.00116156
0.00169379
0.00229737
0.00296557
0.0036952
0.00448459
0.00533255
0.00623805
0.00720055
0.00821937
0.00929396
0.0104238
0.0116085
0.0128474
0.0141397
0.0154847
0.0168818
0.0183298
0.0198279
0.0213748
0.0229688
0.024609
0.0262934
0.0280204
0.0297881
0.0315947
0.0334374
0.0353144
0.0372231
0.039161
0.0411256
0.0431141
0.0451235
0.0471513
0.0491943
0.0512498
0.0533146
0.0553865
0.0574625
0.0595413
0.000264106
0.000347734
0.000687728
0.00112992
0.00164787
0.00223585
0.00288771
0.00360019
0.00437145
0.00520041
0.00608638
0.00702867
0.00802693
0.00908043
0.0101889
0.011352
0.0125694
0.0138402
0.0151639
0.0165398
0.0179673
0.0194452
0.0209724
0.0225477
0.0241699
0.0258372
0.0275483
0.0293013
0.031094
0.0329245
0.0347905
0.0366897
0.0386197
0.0405778
0.0425612
0.0445672
0.046593
0.0486358
0.0506923
0.0527597
0.0548348
0.0569147
0.0589952
0.000265392
0.000349597
0.000670692
0.00110083
0.00160544
0.00217871
0.00281529
0.00351164
0.00426597
0.00507722
0.00594473
0.00686806
0.00784674
0.00888046
0.00996878
0.0111115
0.0123083
0.0135585
0.0148618
0.0162175
0.0176249
0.0190833
0.0205914
0.0221482
0.0237527
0.0254033
0.0270986
0.0288365
0.0306156
0.0324335
0.0342883
0.0361777
0.0380993
0.0400502
0.042028
0.0440299
0.0460531
0.0480944
0.0501509
0.0522194
0.0542966
0.0563784
0.0584606
0.000266624
0.000351261
0.000655012
0.00107373
0.00156583
0.00212538
0.00274766
0.00342887
0.00416723
0.00496174
0.00581197
0.00671738
0.00767776
0.00869256
0.00976173
0.0108851
0.0120622
0.0132928
0.0145765
0.0159127
0.017301
0.0187403
0.0202299
0.0217689
0.0233561
0.0249902
0.0266696
0.0283928
0.0301581
0.0319634
0.0338068
0.0356859
0.0375985
0.0395419
0.0415135
0.0435105
0.0455302
0.0475695
0.0496253
0.0516942
0.0537726
0.0558557
0.0579371
0.000267651
0.000352418
0.000640568
0.00104851
0.00152889
0.00207549
0.00268431
0.0033513
0.00407463
0.00485356
0.0056873
0.00657578
0.00751866
0.00851558
0.00956657
0.0106714
0.0118298
0.0130417
0.0143065
0.015624
0.0169936
0.0184147
0.0198865
0.0214079
0.0229781
0.0245959
0.0262598
0.0279685
0.0297199
0.0315125
0.0333442
0.0352128
0.0371161
0.0390516
0.0410164
0.0430081
0.0450239
0.0470607
0.0491153
0.0511845
0.0532655
0.0553554
0.0574571
0.000268528
0.000353348
0.000627181
0.00102504
0.00149427
0.00202867
0.00262485
0.00327836
0.00398759
0.00475168
0.00556999
0.0064424
0.00736869
0.00834857
0.00938213
0.0104693
0.0116098
0.0128037
0.0140505
0.0153499
0.0167016
0.0181051
0.0195594
0.0210639
0.0226176
0.0242194
0.0258679
0.0275619
0.0292997
0.0310795
0.0328995
0.0347575
0.0366513
0.0385785
0.0405362
0.0425223
0.0445335
0.0465673
0.0486203
0.0506899
0.052773
0.0548677
0.0569748
0.000269374
0.000353902
0.000614706
0.00100305
0.00146191
0.00198486
0.00256893
0.00320972
0.00390551
0.00465556
0.00545918
0.00631632
0.0072269
0.00819059
0.00920764
0.0102779
0.0114014
0.012578
0.0138074
0.0150895
0.0164239
0.0178101
0.0192475
0.0207354
0.022273
0.023859
0.0254926
0.0271722
0.0288964
0.0306636
0.0324718
0.0343189
0.0362029
0.0381214
0.040072
0.0420518
0.0440582
0.0460886
0.0481398
0.0502091
0.0522936
0.0543911
0.0565015
0.000270043
0.000354153
0.000603137
0.000982393
0.00143139
0.0019436
0.00251608
0.00314482
0.00382803
0.00456466
0.00535429
0.00619702
0.00709252
0.00804082
0.00904215
0.0100962
0.0112033
0.0123633
0.0135761
0.0148415
0.0161591
0.0175286
0.0189496
0.0204215
0.0219432
0.023514
0.0251328
0.0267982
0.028509
0.0302635
0.0320598
0.0338961
0.0357702
0.03768
0.0396228
0.0415961
0.0435975
0.0456239
0.0476727
0.049741
0.0518256
0.0539244
0.0560356
0.000270594
0.000354217
0.000592777
0.000963079
0.00140273
0.00190482
0.00246626
0.0030836
0.00375466
0.00447852
0.00525497
0.00608387
0.00696493
0.00789863
0.00888481
0.00992344
0.0110149
0.0121589
0.0133556
0.0146048
0.0159063
0.0172597
0.0186648
0.0201211
0.0216274
0.0231831
0.0247875
0.026439
0.0281364
0.0298782
0.0316627
0.033488
0.0353522
0.037253
0.0391879
0.0411546
0.0431504
0.0451726
0.0472183
0.0492846
0.0513684
0.0534668
0.0555765
0.000271103
0.000354417
0.000584748
0.000944998
0.0013758
0.00186818
0.00241901
0.00302539
0.00368499
0.00439682
0.0051606
0.00597623
0.00684378
0.00776341
0.008735
0.00975892
0.0108351
0.0119639
0.0131451
0.0143787
0.0156645
0.0170025
0.0183922
0.019833
0.0213243
0.0228656
0.0244555
0.0260933
0.0277775
0.0295069
0.0312795
0.033094
0.0349481
0.0368398
0.0387666
0.0407264
0.0427163
0.0447338
0.046776
0.0488396
0.0509219
0.0530189
0.0551276
0.000271648
0.000355194
0.000580313
0.00092828
0.00135034
0.00183336
0.00237412
0.00297009
0.00361874
0.00431912
0.00507082
0.00587389
0.00672843
0.0076344
0.00859223
0.00960186
0.0106636
0.0117776
0.0129439
0.0141625
0.0154333
0.0167562
0.0181308
0.0195568
0.0210335
0.0225602
0.0241362
0.0257605
0.0274318
0.0291486
0.0309098
0.0327132
0.0345572
0.0364396
0.0383583
0.0403108
0.0422946
0.044307
0.046345
0.0484058
0.0504861
0.0525821
0.0546905
0.000272305
0.000356733
0.00057911
0.000912935
0.00132625
0.00180032
0.0023314
0.00291747
0.00355568
0.00424505
0.00498525
0.00577625
0.0066182
0.0075113
0.00845579
0.00945179
0.0104996
0.0115994
0.0127513
0.0139554
0.0152116
0.0165198
0.0178799
0.0192914
0.0207539
0.0222665
0.023829
0.0254398
0.0270983
0.0288031
0.0305524
0.0323448
0.0341787
0.0360519
0.0379623
0.0399074
0.0418847
0.0438917
0.0459254
0.0479831
0.0500612
0.0521568
0.0542681
0.00027308
0.000358862
0.000579631
0.000898671
0.0013034
0.00176888
0.00229078
0.00286734
0.00349553
0.00417442
0.00490356
0.00568303
0.00651304
0.00739381
0.00832543