/*--------------------------------*- C++ -*----------------------------------*\
| =========                 |                                                 |
| \\      /  F ield         | OpenFOAM: The Open Source CFD Toolbox           |
|  \\    /   O peration     | Version:  2.3.0                                 |
|   \\  /    A nd           | Web:      www.OpenFOAM.org                      |
|    \\/     M anipulation  |                                                 |
\*---------------------------------------------------------------------------*/
FoamFile
{
    version     2.0;
    format      ascii;
    class       volVectorField;
    location    "5000";
    object      U;
}
// * * * * * * * * * * * * * * * * * * * * * * * * * * * * * * * * * * * * * //

dimensions      [0 1 -1 0 0 0 0];

internalField   nonuniform List<vector> 
38227
(
(16.9166 0.219106 -7.29678e-22)
(16.8204 0.165081 1.47839e-21)
(16.7207 0.116577 1.36786e-20)
(16.6197 0.0650646 -4.04549e-21)
(16.5172 0.0108216 2.05391e-21)
(16.4128 -0.0460477 4.89966e-22)
(16.3065 -0.105622 -2.54048e-21)
(16.1983 -0.167998 1.18495e-20)
(16.0879 -0.233272 0)
(15.9754 -0.301595 0)
(15.8605 -0.373129 3.90036e-20)
(15.7432 -0.448052 0)
(15.6233 -0.526585 0)
(15.5005 -0.608951 -5.08282e-20)
(15.3748 -0.695429 -4.10834e-21)
(15.246 -0.786352 1.74015e-19)
(15.1136 -0.8821 -1.71069e-19)
(14.9775 -0.983088 0)
(14.8374 -1.08993 0)
(14.6928 -1.2032 -2.35029e-20)
(14.5434 -1.32368 0)
(14.3886 -1.45221 -1.14065e-19)
(14.2279 -1.58987 1.18272e-19)
(14.0607 -1.73784 -1.3274e-19)
(13.8862 -1.89764 7.5013e-20)
(13.704 -2.07108 1.55113e-19)
(13.5129 -2.25995 -1.08728e-19)
(13.3124 -2.46685 1.45558e-19)
(13.1018 -2.69438 -1.5071e-19)
(12.8802 -2.94579 2.89689e-20)
(12.6472 -3.22508 8.77192e-20)
(12.4025 -3.53699 -1.03653e-19)
(12.1461 -3.88671 0)
(11.8788 -4.28088 5.58097e-20)
(11.6023 -4.72756 -6.42569e-20)
(11.3197 -5.23612 -5.4431e-20)
(11.0365 -5.81698 0)
(10.7616 -6.48351 0)
(10.5103 -7.25072 -3.51509e-20)
(10.3101 -8.13609 1.23546e-20)
(10.2181 -9.17085 -1.12369e-19)
(10.3533 -10.3793 1.82089e-19)
(11.0449 -11.882 1.8269e-19)
(16.9723 0.114234 -7.02132e-22)
(16.8906 0.0620716 -9.0485e-22)
(16.8061 0.0137441 -2.36901e-21)
(16.7208 -0.0381626 -1.17587e-20)
(16.6344 -0.0929059 0)
(16.5468 -0.150247 -6.00632e-21)
(16.458 -0.210196 -5.01168e-21)
(16.3681 -0.272921 -6.86492e-21)
(16.2769 -0.33853 0)
(16.1844 -0.407173 0)
(16.0907 -0.479072 1.66699e-20)
(15.9956 -0.554405 -1.82085e-20)
(15.8991 -0.633393 -4.09029e-20)
(15.8011 -0.716273 4.08183e-20)
(15.7016 -0.803289 0)
(15.6005 -0.894752 0)
(15.4978 -0.990999 1.44421e-20)
(15.3934 -1.0924 -1.28586e-20)
(15.2874 -1.19937 -8.00079e-20)
(15.1797 -1.31241 -1.92292e-20)
(15.0702 -1.43203 8.87139e-20)
(14.9593 -1.55895 3.8467e-20)
(14.8468 -1.69393 -2.27885e-20)
(14.733 -1.83783 8.15624e-20)
(14.6182 -1.99171 -1.00194e-19)
(14.5027 -2.15685 -5.2152e-20)
(14.387 -2.33455 1.23765e-19)
(14.2718 -2.52649 5.49852e-21)
(14.1582 -2.73469 -1.66679e-19)
(14.0474 -2.96132 1.52742e-20)
(13.9413 -3.20898 -1.61377e-20)
(13.8424 -3.48042 4.91658e-21)
(13.7539 -3.77887 -4.49397e-20)
(13.6799 -4.10766 1.82935e-20)
(13.6261 -4.47045 3.69905e-20)
(13.5998 -4.87083 1.22677e-20)
(13.6105 -5.31209 -3.22445e-20)
(13.6703 -5.79672 -4.62507e-20)
(13.7948 -6.32555 1.00033e-19)
(14.0048 -6.89603 -1.01752e-20)
(14.3273 -7.49992 -9.39352e-21)
(14.7974 -8.11476 0)
(15.4432 -8.69152 4.2188e-21)
(17.0255 0.0374399 2.84074e-21)
(16.9563 -0.0218185 9.0568e-22)
(16.8832 -0.0726744 4.89956e-22)
(16.8093 -0.125678 0)
(16.7343 -0.180919 2.30037e-21)
(16.6585 -0.238497 1.10575e-20)
(16.5817 -0.298518 3.69063e-21)
(16.5042 -0.361169 0)
(16.4259 -0.426651 9.83635e-21)
(16.3468 -0.495109 -2.99675e-20)
(16.2669 -0.566772 -1.4546e-21)
(16.1862 -0.641891 1.35483e-20)
(16.1046 -0.720666 2.87468e-21)
(16.0222 -0.803363 -3.06097e-20)
(15.9389 -0.890274 1.55228e-20)
(15.8549 -0.981723 0)
(15.77 -1.07808 0)
(15.6842 -1.17974 5.82725e-20)
(15.5977 -1.28712 5.91496e-21)
(15.5105 -1.40077 -3.46567e-20)
(15.4227 -1.52115 -1.59772e-20)
(15.3345 -1.64893 -3.04068e-20)
(15.2461 -1.78481 6.3803e-20)
(15.1579 -1.92957 4.24155e-20)
(15.0702 -2.0841 -8.61838e-20)
(14.9836 -2.24945 -3.68133e-20)
(14.8987 -2.42665 3.88594e-20)
(14.8165 -2.6169 -8.7408e-22)
(14.7381 -2.82153 7.25777e-20)
(14.6652 -3.04181 -1.49002e-20)
(14.5996 -3.27929 1.56925e-20)
(14.544 -3.53524 4.09662e-20)
(14.5015 -3.81112 -3.76326e-20)
(14.4758 -4.10796 -7.90156e-21)
(14.4717 -4.42641 3.14048e-21)
(14.4953 -4.76632 -1.032e-20)
(14.5532 -5.12649 1.16366e-20)
(14.6534 -5.50385 -2.00009e-20)
(14.8046 -5.89317 0)
(15.0164 -6.28547 0)
(15.2979 -6.66706 9.25583e-21)
(15.656 -7.01793 0)
(16.092 -7.30995 -8.26004e-21)
(17.0838 -0.044497 -3.46875e-21)
(17.0221 -0.097009 -2.74687e-21)
(16.958 -0.145919 -4.89302e-22)
(16.8936 -0.197459 3.18357e-22)
(16.8287 -0.251245 -1.9027e-21)
(16.7632 -0.307264 -3.68099e-21)
(16.6972 -0.365576 -5.04534e-21)
(16.6307 -0.426289 0)
(16.5638 -0.489622 -7.09951e-21)
(16.4965 -0.555763 1.60047e-20)
(16.4289 -0.624881 0)
(16.3609 -0.69721 1.15396e-20)
(16.2925 -0.772997 0)
(16.2239 -0.852427 -1.54673e-20)
(16.1549 -0.935785 1.07967e-20)
(16.0858 -1.02337 0)
(16.0167 -1.1155 -7.14751e-21)
(15.9475 -1.21253 0)
(15.8784 -1.31486 1.06619e-20)
(15.8096 -1.42292 0)
(15.7412 -1.53715 4.56264e-20)
(15.6736 -1.65801 5.08566e-21)
(15.6071 -1.78609 -4.99713e-20)
(15.5422 -1.922 5.57803e-20)
(15.4794 -2.06643 -4.1217e-20)
(15.4195 -2.22017 -6.23069e-20)
(15.3632 -2.384 4.69821e-20)
(15.3114 -2.5587 0)
(15.2655 -2.74518 0)
(15.227 -2.94421 0)
(15.1979 -3.1566 0)
(15.1804 -3.38305 -1.67623e-20)
(15.1771 -3.62399 -9.80083e-21)
(15.1914 -3.87957 1.00739e-20)
(15.227 -4.14929 0)
(15.288 -4.43208 1.79207e-21)
(15.3794 -4.72563 -6.31856e-22)
(15.5059 -5.02639 1.13963e-20)
(15.6722 -5.32933 -8.64397e-21)
(15.8827 -5.62698 4.3206e-21)
(16.1398 -5.90975 8.23882e-22)
(16.443 -6.16595 -6.42408e-21)
(16.7875 -6.38176 -6.00226e-20)
(17.1361 -0.108961 3.73675e-21)
(17.0824 -0.159661 3.04978e-21)
(17.0267 -0.207263 9.32235e-23)
(16.9705 -0.256996 -7.00741e-22)
(16.914 -0.308781 -1.58595e-23)
(16.857 -0.362727 -7.74093e-23)
(16.7995 -0.41884 1.70526e-22)
(16.7418 -0.477179 -1.77707e-21)
(16.6838 -0.537957 -1.21857e-21)
(16.6256 -0.601376 9.62414e-21)
(16.5673 -0.66763 -6.79157e-22)
(16.5088 -0.736891 5.9071e-21)
(16.4502 -0.809411 0)
(16.3916 -0.88542 -1.07954e-20)
(16.3329 -0.965112 -4.40521e-21)
(16.2743 -1.04878 0)
(16.216 -1.13673 -5.78159e-21)
(16.1579 -1.22928 2.7112e-20)
(16.1005 -1.32679 -7.78327e-21)
(16.0437 -1.42969 0)
(15.9876 -1.53839 1.75289e-20)
(15.9326 -1.6532 1.13772e-20)
(15.8792 -1.77458 -1.05218e-20)
(15.8279 -1.90301 -2.12452e-20)
(15.7792 -2.03905 -1.04699e-20)
(15.734 -2.18335 -1.07299e-20)
(15.6929 -2.33651 5.95578e-20)
(15.6569 -2.49915 -2.57442e-20)
(15.627 -2.67179 2.67724e-20)
(15.6048 -2.85487 -2.75167e-20)
(15.5921 -3.04882 1.64504e-21)
(15.5909 -3.25391 2.67286e-21)
(15.6035 -3.47017 -1.15036e-20)
(15.6324 -3.69723 0)
(15.6808 -3.93406 0)
(15.7519 -4.17929 8.17493e-21)
(15.8489 -4.43031 0)
(15.9755 -4.68349 -3.47091e-21)
(16.1347 -4.93434 -3.11524e-21)
(16.3285 -5.1767 -7.58102e-21)
(16.5576 -5.40359 2.67007e-20)
(16.8201 -5.60666 -5.34264e-21)
(17.1116 -5.77762 4.05711e-20)
(17.1859 -0.170453 -8.92584e-22)
(17.1385 -0.214912 -4.94752e-21)
(17.0896 -0.25952 -3.17361e-21)
(17.0405 -0.306615 -3.46441e-21)
(16.991 -0.355834 2.56425e-21)
(16.9413 -0.407291 -7.78358e-23)
(16.8909 -0.460912 0)
(16.8404 -0.516553 -7.72596e-22)
(16.7897 -0.574496 3.73847e-21)
(16.739 -0.634886 -3.72749e-21)
(16.6883 -0.697954 -3.24283e-21)
(16.6375 -0.763854 -5.90649e-21)
(16.5868 -0.832791 3.86918e-21)
(16.5362 -0.905058 8.9844e-22)
(16.4858 -0.980804 -2.62415e-21)
(16.4356 -1.06023 -5.30597e-21)
(16.3858 -1.14367 1.86605e-20)
(16.3367 -1.23143 -2.4943e-20)
(16.2883 -1.32374 9.19552e-21)
(16.2411 -1.42109 -5.28167e-21)
(16.195 -1.52398 0)
(16.15 -1.63259 0)
(16.1067 -1.74718 -8.68252e-21)
(16.0657 -1.86812 -7.07657e-21)
(16.0278 -1.99588 -7.65349e-21)
(15.9937 -2.13093 -3.94573e-22)
(15.9642 -2.27388 1.06371e-20)
(15.94 -2.42515 0)
(15.922 -2.58523 8.82448e-21)
(15.9116 -2.75423 -1.31873e-21)
(15.9104 -2.93228 3.25372e-20)
(15.9205 -3.11933 -1.03302e-20)
(15.9438 -3.31553 1.27393e-21)
(15.9821 -3.5202 2.33416e-21)
(16.0382 -3.73187 5.90414e-21)
(16.1146 -3.94948 -3.79719e-21)
(16.2135 -4.17034 0)
(16.3376 -4.39091 3.44751e-21)
(16.4894 -4.6071 -3.05799e-21)
(16.6701 -4.81431 6.80566e-21)
(16.8791 -5.00732 3.42663e-20)
(17.1144 -5.17975 -3.64193e-20)
(17.3717 -5.32588 0)
(17.231 -0.214462 5.72958e-21)
(17.1898 -0.259727 0)
(17.1468 -0.302763 2.23128e-21)
(17.1036 -0.34761 -3.43323e-21)
(17.0602 -0.394231 -2.5561e-21)
(17.0168 -0.44318 1.20584e-22)
(16.9722 -0.494438 -1.20013e-22)
(16.9275 -0.547426 0)
(16.8826 -0.602562 0)
(16.8379 -0.659978 -2.00592e-21)
(16.7932 -0.719957 0)
(16.7485 -0.782615 3.91107e-21)
(16.704 -0.848079 -8.0662e-22)
(16.6598 -0.916753 0)
(16.6156 -0.98883 0)
(16.5718 -1.06426 -1.18623e-21)
(16.5286 -1.14345 0)
(16.4861 -1.2269 4.40598e-21)
(16.4443 -1.31449 -1.34474e-20)
(16.4043 -1.40656 1.40284e-20)
(16.3656 -1.5041 4.22268e-21)
(16.3281 -1.60724 0)
(16.292 -1.71597 -1.17342e-20)
(16.2582 -1.83049 1.18981e-20)
(16.2275 -1.95115 1.27856e-20)
(16.2008 -2.07835 5.87037e-21)
(16.1789 -2.21261 -4.99176e-21)
(16.1625 -2.35429 7.38367e-21)
(16.1524 -2.50383 -1.52133e-20)
(16.1495 -2.66159 -2.24904e-20)
(16.1551 -2.8271 7.49053e-21)
(16.1717 -2.99971 3.27372e-21)
(16.2015 -3.18019 3.06405e-21)
(16.2445 -3.36796 1.49037e-21)
(16.3039 -3.56077 -5.85381e-21)
(16.3821 -3.75789 -4.29122e-21)
(16.48 -3.95755 0)
(16.5991 -4.1553 -3.07297e-21)
(16.743 -4.34711 9.15049e-21)
(16.9126 -4.53009 -6.72818e-21)
(17.1065 -4.70074 -1.06839e-20)
(17.3225 -4.85337 -1.67945e-20)
(17.5562 -4.98308 -4.54692e-20)
(17.2738 -0.258942 0)
(17.2372 -0.299804 -3.09592e-21)
(17.1991 -0.339919 1.7356e-21)
(17.1606 -0.382153 6.02133e-21)
(17.1218 -0.425814 0)
(17.0844 -0.471986 0)
(17.0448 -0.52121 0)
(17.0048 -0.571778 4.50476e-22)
(16.9646 -0.624341 -4.47227e-22)
(16.9246 -0.678868 2.09601e-22)
(16.8847 -0.735905 3.00822e-22)
(16.8449 -0.795644 -8.45239e-22)
(16.8052 -0.857798 -7.22118e-22)
(16.7662 -0.923032 3.84958e-22)
(16.727 -0.991909 -8.97332e-22)
(16.6879 -1.06374 -6.36771e-21)
(16.6494 -1.13864 1.02625e-20)
(16.6128 -1.21817 -4.75879e-21)
(16.5757 -1.30195 -6.00315e-21)
(16.541 -1.3891 1.03163e-20)
(16.5084 -1.48152 -1.10429e-20)
(16.4769 -1.57962 7.98421e-21)
(16.4468 -1.68334 -8.1496e-21)
(16.4184 -1.79238 -9.79104e-21)
(16.393 -1.90703 3.71349e-21)
(16.3715 -2.02772 -9.44576e-22)
(16.355 -2.15481 6.09431e-21)
(16.3439 -2.2884 -4.22714e-21)
(16.3393 -2.42865 1.15958e-20)
(16.3414 -2.57676 9.23086e-22)
(16.3512 -2.73284 0)
(16.3712 -2.89339 0)
(16.4065 -3.06131 2.81095e-21)
(16.4513 -3.23611 -1.81295e-21)
(16.5114 -3.41479 0)
(16.5907 -3.59478 0)
(16.6874 -3.78038 2.68531e-21)
(16.8 -3.96094 6.96913e-22)
(16.9364 -4.13564 -8.55402e-21)
(17.0981 -4.29909 1.16569e-20)
(17.2814 -4.45518 -1.17367e-20)
(17.4825 -4.59422 3.41387e-20)
(17.699 -4.71189 2.12708e-20)
(17.3082 -0.291457 4.72106e-22)
(17.2774 -0.33257 3.75141e-21)
(17.245 -0.371169 3.80189e-21)
(17.2121 -0.411658 3.44404e-21)
(17.1769 -0.451762 0)
(17.145 -0.494349 0)
(17.1096 -0.54219 1.90871e-21)
(17.0745 -0.590748 5.02341e-22)
(17.039 -0.641297 0)
(17.0034 -0.693104 -1.08419e-21)
(16.9676 -0.74687 -1.11297e-22)
(16.932 -0.804117 7.2935e-22)
(16.8961 -0.863308 -2.28212e-22)
(16.8621 -0.924877 5.68579e-22)
(16.8272 -0.990897 8.97721e-22)
(16.7927 -1.06092 0)
(16.757 -1.13058 -1.15969e-21)
(16.7252 -1.20536 0)
(16.6911 -1.28695 -4.64306e-22)
(16.6603 -1.37048 7.64436e-21)
(16.6328 -1.4584 -2.01045e-21)
(16.6058 -1.55127 5.24394e-22)
(16.5802 -1.65062 -4.91327e-21)
(16.5563 -1.7551 -2.49464e-21)
(16.5352 -1.8648 -3.40072e-21)
(16.5183 -1.98037 -3.13986e-21)
(16.5068 -2.10242 2.78062e-21)
(16.4998 -2.23052 -1.72611e-21)
(16.5001 -2.36368 3.20299e-21)
(16.506 -2.50117 0)
(16.5175 -2.65098 -1.63337e-21)
(16.535 -2.80095 -1.60956e-21)
(16.5761 -2.96228 -3.39747e-21)
(16.6201 -3.1258 2.05796e-21)
(16.6769 -3.29601 -9.70387e-24)
(16.7558 -3.45717 -2.68988e-21)
(16.8523 -3.63811 -5.54964e-21)
(16.9537 -3.80267 -3.63918e-22)
(17.0815 -3.96885 4.79507e-21)
(17.2375 -4.10968 -4.82118e-21)
(17.4167 -4.25878 1.57033e-20)
(17.6037 -4.38926 2.1094e-21)
(17.8004 -4.4969 -6.4532e-20)
(13.6177 -12.5049 -1.02642e-18)
(15.739 -12.1837 7.73233e-19)
(17.3741 -11.6934 0)
(18.6573 -11.2466 7.32986e-20)
(19.6358 -10.7969 -4.7138e-20)
(20.3626 -10.331 4.36641e-20)
(20.899 -9.86513 4.03897e-20)
(21.2941 -9.40895 -8.63475e-19)
(21.5833 -8.96658 1.64652e-18)
(21.7932 -8.53949 -8.74058e-19)
(21.9445 -8.12985 -7.87047e-19)
(22.0531 -7.73934 7.55322e-19)
(22.131 -7.36894 6.76984e-19)
(22.1873 -7.01845 6.63221e-19)
(22.2285 -6.68765 -1.36727e-18)
(22.2591 -6.37599 0)
(22.2822 -6.08261 1.3433e-18)
(22.2998 -5.80645 -1.27366e-18)
(22.3134 -5.54649 -1.26118e-18)
(22.324 -5.30141 -6.3178e-20)
(22.3318 -5.07001 1.12355e-18)
(22.3372 -4.85114 9.58164e-19)
(22.3405 -4.64365 -2.14738e-18)
(22.3416 -4.4465 2.16432e-18)
(22.3407 -4.25868 -7.44037e-20)
(22.3376 -4.07932 -1.01625e-18)
(22.3325 -3.90765 1.28735e-19)
(22.3254 -3.743 -1.18722e-19)
(22.3162 -3.58478 1.25042e-19)
(22.305 -3.43245 -8.42267e-19)
(22.2918 -3.28558 9.59594e-19)
(22.2767 -3.14377 -8.24233e-19)
(22.2597 -3.00669 8.28811e-19)
(22.241 -2.87408 2.35437e-19)
(22.2206 -2.74568 -4.68278e-19)
(22.1986 -2.6213 7.00022e-19)
(22.1751 -2.50076 -4.71202e-19)
(22.1503 -2.38391 -2.30147e-19)
(22.1243 -2.27061 -4.65529e-19)
(22.0971 -2.16078 4.21957e-21)
(22.0689 -2.05434 4.65679e-19)
(22.0398 -1.95156 2.26933e-19)
(22.009 -1.85267 -4.48352e-19)
(16.2485 -9.11302 -2.81942e-21)
(17.021 -9.33032 0)
(17.7143 -9.3447 -4.00065e-19)
(18.3355 -9.21584 3.95123e-19)
(18.8858 -8.99389 0)
(19.3641 -8.71357 -3.32817e-20)
(19.7755 -8.40053 -6.36814e-19)
(20.1278 -8.07292 -4.16733e-20)
(20.4287 -7.74283 1.24448e-18)
(20.6852 -7.41826 -6.30865e-19)
(20.9038 -7.10425 -6.76881e-19)
(21.0902 -6.80363 1.24719e-18)
(21.2494 -6.5178 6.51214e-21)
(21.3856 -6.24706 -1.15419e-18)
(21.5023 -5.99091 1.12605e-18)
(21.6023 -5.74874 -4.99869e-19)
(21.6878 -5.51943 -7.4796e-21)
(21.7609 -5.30198 0)
(21.8234 -5.09538 6.35462e-21)
(21.8763 -4.89858 5.82025e-19)
(21.9209 -4.71069 -6.31068e-19)
(21.9582 -4.53091 6.46023e-20)
(21.9891 -4.35847 -5.86678e-20)
(22.0143 -4.19278 -4.35548e-21)
(22.0345 -4.03328 0)
(22.0501 -3.87948 0)
(22.0617 -3.73103 0)
(22.0695 -3.58757 1.18247e-19)
(22.074 -3.44878 1.11101e-19)
(22.0755 -3.3144 -5.84214e-21)
(22.0742 -3.18421 -4.51154e-19)
(22.0703 -3.05797 2.24546e-21)
(22.0641 -2.93549 4.53329e-19)
(22.0557 -2.8166 -1.1572e-19)
(22.0454 -2.70114 0)
(22.0332 -2.58899 0)
(22.0194 -2.48003 -1.12492e-19)
(22.0041 -2.37411 3.46074e-19)
(21.9874 -2.27116 0)
(21.9694 -2.17105 0)
(21.9502 -2.07371 6.85543e-19)
(21.9303 -1.97898 -1.1463e-18)
(21.9113 -1.88734 2.32865e-19)
(16.598 -7.51445 -1.11207e-20)
(17.1383 -7.6233 0)
(17.6751 -7.64479 -2.13155e-20)
(18.1852 -7.59576 -2.05485e-19)
(18.6564 -7.49185 2.01182e-19)
(19.0826 -7.34626 3.20066e-20)
(19.462 -7.17102 -2.87104e-20)
(19.7965 -6.97595 -5.24367e-19)
(20.0889 -6.76881 5.39337e-19)
(20.3433 -6.55551 -5.318e-19)
(20.5639 -6.34042 1.08279e-18)
(20.7548 -6.12665 -5.15469e-19)
(20.92 -5.91641 0)
(21.0629 -5.71102 -5.17961e-19)
(21.1866 -5.51142 4.42089e-19)
(21.2937 -5.31798 -1.2673e-19)
(21.3865 -5.13091 -6.49562e-20)
(21.467 -4.95021 -5.46211e-19)
(21.5368 -4.77581 4.80996e-19)
(21.5973 -4.60747 0)
(21.6497 -4.44496 5.82398e-19)
(21.6952 -4.28806 1.37681e-21)
(21.7345 -4.1365 -3.94257e-19)
(21.7683 -3.99005 -5.77725e-20)
(21.7973 -3.84847 0)
(21.8218 -3.71155 4.9455e-19)
(21.8423 -3.57905 -4.38199e-19)
(21.8591 -3.45075 0)
(21.8724 -3.32644 -4.68392e-21)
(21.8826 -3.2059 -6.5059e-19)
(21.8899 -3.08895 3.28123e-19)
(21.8946 -2.9754 -1.06686e-19)
(21.8967 -2.86507 0)
(21.8966 -2.75783 1.07582e-19)
(21.8944 -2.65355 0)
(21.8902 -2.55211 0)
(21.8842 -2.45341 1.12811e-19)
(21.8766 -2.3573 -4.49202e-19)
(21.8674 -2.26371 4.50414e-19)
(21.8567 -2.17254 1.11369e-19)
(21.8448 -2.08377 -2.2838e-19)
(21.8315 -1.99715 4.50998e-19)
(21.8179 -1.91411 -4.38024e-19)
(17.1634 -6.54603 -2.92601e-20)
(17.5575 -6.65256 -1.51903e-20)
(17.9546 -6.70089 1.22684e-19)
(18.3413 -6.69592 -1.73924e-19)
(18.7086 -6.64528 1.92774e-19)
(19.0505 -6.55721 -2.09541e-19)
(19.3642 -6.44014 4.54674e-19)
(19.6486 -6.30149 -2.45618e-19)
(19.9045 -6.14761 -1.81545e-19)
(20.1332 -5.98377 2.30625e-19)
(20.3369 -5.81413 0)
(20.5176 -5.64184 4.29753e-19)
(20.6777 -5.46934 -9.60354e-19)
(20.8194 -5.29834 9.56127e-19)
(20.9446 -5.13003 -3.51191e-19)
(21.0552 -4.96522 3.6142e-21)
(21.1529 -4.80441 0)
(21.2393 -4.64796 1.15009e-19)
(21.3156 -4.496 5.83291e-20)
(21.383 -4.34855 0)
(21.4425 -4.20562 -2.77661e-21)
(21.495 -4.06712 3.85384e-19)
(21.5413 -3.93295 -4.85602e-19)
(21.5819 -3.80299 0)
(21.6174 -3.6771 0)
(21.6482 -3.55511 -5.41216e-20)
(21.6746 -3.43683 0)
(21.6971 -3.3221 -5.15973e-20)
(21.7159 -3.21072 -1.0692e-19)
(21.7314 -3.10253 2.0998e-19)
(21.744 -2.99737 -3.12987e-19)
(21.7539 -2.8951 1.07699e-19)
(21.7612 -2.79559 5.27668e-19)
(21.7663 -2.69873 -3.12742e-21)
(21.7694 -2.60443 0)
(21.7704 -2.5126 0)
(21.7697 -2.42313 0)
(21.7673 -2.3359 1.07649e-19)
(21.7635 -2.25083 -4.40308e-19)
(21.7582 -2.16785 3.30811e-19)
(21.7516 -2.08697 -4.44253e-19)
(21.7436 -2.00794 -1.69195e-21)
(21.7344 -1.93272 2.22414e-19)
(17.4253 -5.91016 -2.94743e-20)
(17.7535 -6.00086 -4.29161e-20)
(18.0869 -6.04873 0)
(18.416 -6.05593 -1.67199e-19)
(18.7332 -6.0267 3.68006e-19)
(19.0333 -5.96634 -1.33438e-19)
(19.3128 -5.8807 2.57019e-19)
(19.5701 -5.77518 -2.53869e-19)
(19.8049 -5.65479 -5.60453e-20)
(20.0177 -5.52385 0)
(20.2094 -5.38578 -2.28841e-19)
(20.3814 -5.24348 3.36187e-19)
(20.5353 -5.0991 0)
(20.6725 -4.9543 1.73709e-19)
(20.7948 -4.81033 -2.81064e-19)
(20.9037 -4.66804 5.758e-20)
(21.0008 -4.52819 2.2364e-19)
(21.0872 -4.39117 -2.74914e-19)
(21.1643 -4.25732 0)
(21.2331 -4.12683 0)
(21.2944 -3.9998 -1.0705e-19)
(21.3491 -3.87629 -3.70506e-19)
(21.3978 -3.7563 4.71954e-19)
(21.4409 -3.63981 0)
(21.479 -3.52673 -5.09127e-20)
(21.5125 -3.41694 5.06715e-20)
(21.5417 -3.3103 -5.05025e-20)
(21.567 -3.20668 5.20145e-20)
(21.589 -3.10596 -4.59578e-19)
(21.6077 -3.00801 3.55635e-19)
(21.6236 -2.91271 0)
(21.6369 -2.81996 -1.01556e-19)
(21.6479 -2.72964 1.01926e-19)
(21.6567 -2.64169 -5.21511e-19)
(21.6635 -2.55604 2.09657e-19)
(21.6683 -2.47264 -1.04402e-19)
(21.6714 -2.39133 0)
(21.6729 -2.31198 -3.207e-19)
(21.673 -2.23455 2.16615e-19)
(21.6718 -2.15898 0)
(21.6692 -2.08519 -1.08413e-19)
(21.6652 -2.01276 0)
(21.6605 -1.94284 1.08434e-19)
(17.6457 -5.4409 -2.84561e-20)
(17.931 -5.52256 1.10489e-19)
(18.2209 -5.56979 7.21176e-20)
(18.5084 -5.58367 -7.09927e-20)
(18.7876 -5.56703 -4.2626e-20)
(19.0541 -5.52349 -4.61211e-20)
(19.3049 -5.45736 -9.61972e-20)
(19.5381 -5.37301 3.071e-19)
(19.7531 -5.27446 -2.01185e-19)
(19.9499 -5.16527 2.16806e-19)
(20.1288 -5.04863 -2.10986e-19)
(20.2906 -4.92692 -5.56439e-20)
(20.4363 -4.80208 0)
(20.5673 -4.67575 1.09589e-19)
(20.6849 -4.54906 5.36096e-20)
(20.7907 -4.42303 -5.33633e-20)
(20.8857 -4.29844 -2.17345e-19)
(20.9712 -4.17587 2.12458e-19)
(21.0481 -4.0557 -2.1347e-19)
(21.1172 -3.93818 1.57454e-19)
(21.1793 -3.82349 5.30426e-20)
(21.2351 -3.71172 0)
(21.2851 -3.60302 -2.05964e-19)
(21.3295 -3.49738 2.53575e-19)
(21.3689 -3.3947 -1.01741e-19)
(21.4038 -3.29483 1.50178e-19)
(21.4346 -3.19772 5.09942e-20)
(21.4617 -3.10327 4.95523e-20)
(21.4855 -3.01146 1.00376e-19)
(21.5063 -2.92212 -5.08483e-20)
(21.5244 -2.83517 0)
(21.5399 -2.75051 5.22959e-20)
(21.5533 -2.66806 0)
(21.5646 -2.5878 0)
(21.5739 -2.50966 1.01884e-19)
(21.5814 -2.43363 1.04872e-19)
(21.5871 -2.35949 0)
(21.5914 -2.28713 1.98301e-21)
(21.5944 -2.21656 -2.12925e-19)
(21.5961 -2.14773 2.14889e-19)
(21.5962 -2.08049 1.08873e-19)
(21.595 -2.0144 1.07489e-19)
(21.5925 -1.95015 -1.57716e-21)
(17.8034 -5.08604 2.0928e-20)
(18.0602 -5.16045 5.38314e-22)
(18.3211 -5.20571 7.14284e-20)
(18.5805 -5.2225 -7.0375e-20)
(18.8334 -5.21286 0)
(19.0762 -5.17944 0)
(19.3063 -5.12567 -1.4496e-19)
(19.5221 -5.05508 1.38334e-19)
(19.7223 -4.97107 0)
(19.9071 -4.87691 5.0612e-20)
(20.0754 -4.77551 0)
(20.2282 -4.66849 0)
(20.3665 -4.55792 0)
(20.4917 -4.44519 -1.0646e-19)
(20.6047 -4.33133 -1.58344e-21)
(20.7075 -4.21741 2.67395e-19)
(20.8003 -4.10457 -2.08704e-19)
(20.8844 -3.99331 0)
(20.9604 -3.88406 0)
(21.0289 -3.77697 2.59564e-19)
(21.0906 -3.67219 -2.03562e-19)
(21.1464 -3.56997 5.01508e-20)
(21.1963 -3.47052 -4.98164e-20)
(21.2408 -3.37378 -5.07676e-20)
(21.2802 -3.27951 -9.97794e-20)
(21.3156 -3.18767 0)
(21.3471 -3.09835 0)
(21.3753 -3.01154 -2.479e-19)
(21.4001 -2.9272 1.47299e-19)
(21.4221 -2.84505 0)
(21.4415 -2.76515 0)
(21.4585 -2.68731 2.49355e-19)
(21.4735 -2.61151 -1.99915e-19)
(21.4865 -2.5378 0)
(21.4977 -2.46608 -1.02359e-19)
(21.5068 -2.39647 1.01421e-19)
(21.5144 -2.3286 2.06405e-19)
(21.521 -2.26242 -4.14978e-19)
(21.5261 -2.19801 -1.04085e-19)
(21.5299 -2.13526 2.12039e-19)
(21.5319 -2.07392 1.06603e-19)
(21.5329 -2.01361 -2.15137e-19)
(21.5331 -1.9548 -1.04103e-19)
(17.9267 -4.80615 0)
(18.1632 -4.87481 -9.1567e-20)
(18.4031 -4.91862 1.31948e-19)
(18.6422 -4.93703 -6.91041e-20)
(18.8756 -4.93232 -4.37017e-20)
(19.1004 -4.90551 8.16168e-20)
(19.3147 -4.85968 4.46394e-20)
(19.5168 -4.79849 -9.6603e-20)
(19.7051 -4.72478 9.43992e-20)
(19.8799 -4.64195 -9.94886e-20)
(20.0381 -4.55225 0)
(20.1828 -4.45601 -2.08084e-19)
(20.3143 -4.35612 2.0306e-19)
(20.4342 -4.25331 -1.57221e-19)
(20.5432 -4.14856 -5.72094e-20)
(20.6438 -4.04372 -5.54145e-20)
(20.7343 -3.94056 2.04189e-19)
(20.8169 -3.83854 2.0654e-19)
(20.8916 -3.73826 -2.52983e-19)
(20.9589 -3.63957 -2.53818e-19)
(21.0198 -3.54272 2.49934e-19)
(21.0749 -3.44827 -2.51048e-19)
(21.1241 -3.35635 2.47844e-19)
(21.1679 -3.2666 1.98123e-19)
(21.2071 -3.17887 5.08483e-20)
(21.2429 -3.09354 -4.40234e-19)
(21.2747 -3.01075 -8.76513e-22)
(21.3037 -2.9303 1.94587e-19)
(21.3289 -2.8523 4.84335e-20)
(21.3518 -2.77623 0)
(21.3719 -2.70231 0)
(21.3897 -2.63011 0)
(21.4061 -2.55994 4.89773e-20)
(21.4199 -2.49166 -4.93045e-20)
(21.4327 -2.4254 2.00274e-19)
(21.4428 -2.36146 -3.53793e-19)
(21.4519 -2.29919 -5.06437e-20)
(21.4602 -2.23853 1.03632e-19)
(21.4668 -2.17963 1.04568e-19)
(21.4718 -2.12228 -5.19883e-20)
(21.4749 -2.06613 0)
(21.4773 -2.01086 5.26388e-20)
(21.4788 -1.95662 1.03052e-19)
(18.012 -4.58519 5.03566e-20)
(18.2344 -4.64858 -2.66158e-20)
(18.4588 -4.69188 6.74739e-20)
(18.6856 -4.70926 -1.40388e-19)
(18.9071 -4.70758 -4.56863e-20)
(19.1217 -4.68286 3.47951e-20)
(19.3249 -4.64184 4.06008e-20)
(19.5163 -4.58787 1.40015e-19)
(19.6948 -4.52232 -1.41513e-19)
(19.8627 -4.44875 2.4103e-19)
(20.0113 -4.36745 -1.46883e-19)
(20.1524 -4.2776 9.7481e-20)
(20.2788 -4.18567 4.98336e-20)
(20.3959 -4.08914 0)
(20.5012 -3.99093 5.10239e-20)
(20.6002 -3.89441 1.02225e-19)
(20.6864 -3.80036 0)
(20.7693 -3.7057 0)
(20.842 -3.61304 9.97378e-20)
(20.908 -3.52092 9.99441e-20)
(20.9678 -3.43021 7.79284e-22)
(21.0226 -3.34215 -4.96629e-20)
(21.0707 -3.25598 -5.02243e-20)
(21.114 -3.17153 9.89228e-20)
(21.1522 -3.0892 4.92938e-20)
(21.1882 -3.01008 9.23594e-22)
(21.2186 -2.93258 -4.87592e-20)
(21.2485 -2.85772 -9.8726e-20)
(21.2724 -2.78558 4.36389e-23)
(21.2957 -2.71477 4.81432e-20)
(21.3152 -2.64583 -9.73409e-20)
(21.3335 -2.5783 4.98971e-20)
(21.3503 -2.51321 2.22171e-22)
(21.3635 -2.44884 -5.05617e-20)
(21.3786 -2.38758 -4.98299e-20)
(21.3888 -2.32889 1.5205e-19)
(21.3997 -2.27182 -1.03164e-19)
(21.4086 -2.21609 -5.19813e-20)
(21.4151 -2.16199 -5.25312e-20)
(21.4205 -2.10943 2.60456e-19)
(21.4233 -2.05782 -1.04427e-19)
(21.4264 -2.00694 -2.10582e-19)
(21.4275 -1.9566 1.44131e-19)
(20.4258 -2.01998 0)
(20.4127 -2.04553 -3.06103e-19)
(20.3983 -2.07414 3.10607e-19)
(20.3832 -2.10177 3.09121e-19)
(20.367 -2.12913 -3.06836e-19)
(20.3494 -2.15609 4.07768e-19)
(20.3302 -2.18261 6.10537e-19)
(20.3089 -2.20866 -2.14762e-21)
(20.2851 -2.23418 -6.11915e-19)
(20.2583 -2.25913 -1.01467e-19)
(20.2278 -2.28345 -1.01835e-19)
(20.1928 -2.30706 -7.15071e-19)
(20.1523 -2.32991 -9.86367e-20)
(20.1053 -2.35191 9.39126e-19)
(20.0504 -2.37295 -1.05196e-19)
(19.9863 -2.39293 0)
(19.9115 -2.41171 0)
(19.8246 -2.42917 0)
(19.7242 -2.44512 0)
(19.609 -2.45941 5.69086e-20)
(19.4776 -2.47185 -5.79619e-20)
(19.3288 -2.48228 5.91702e-20)
(19.1614 -2.49048 6.05625e-20)
(18.9742 -2.49627 6.1217e-20)
(18.7664 -2.49937 0)
(18.5371 -2.49962 -6.61189e-20)
(18.2856 -2.49687 -1.04598e-18)
(18.0111 -2.49077 1.23652e-18)
(17.713 -2.48122 0)
(17.3905 -2.46794 5.174e-19)
(17.0425 -2.45067 -6.72e-19)
(16.6677 -2.42916 -6.21939e-19)
(16.2644 -2.40308 7.14857e-19)
(15.8302 -2.37177 1.78003e-21)
(15.3617 -2.33483 -4.19338e-19)
(14.8539 -2.29124 9.21254e-19)
(14.2995 -2.23965 -4.47395e-19)
(13.6876 -2.17817 -3.4311e-20)
(13.0001 -2.1033 -8.48311e-20)
(12.205 -2.00978 2.05372e-19)
(11.2359 -1.8862 -1.03519e-18)
(9.9388 -1.68546 1.60126e-18)
(7.97113 -1.37613 -1.28631e-19)
(20.3978 -1.99914 2.00272e-19)
(20.3853 -2.02213 1.06678e-19)
(20.3716 -2.04765 -3.20811e-19)
(20.3572 -2.07229 0)
(20.342 -2.09663 2.80023e-22)
(20.3257 -2.12065 -4.23954e-19)
(20.3081 -2.14429 0)
(20.2889 -2.16756 0)
(20.2679 -2.19041 0)
(20.2445 -2.2128 1.05462e-19)
(20.2184 -2.23472 1.05756e-19)
(20.1889 -2.25609 7.40777e-19)
(20.1554 -2.27688 -9.6419e-19)
(20.1171 -2.29701 -1.07895e-19)
(20.0728 -2.31642 6.36703e-23)
(20.0214 -2.335 0)
(19.9618 -2.35264 7.83347e-19)
(19.8924 -2.36922 -9.13941e-19)
(19.8121 -2.38456 -1.15668e-19)
(19.7193 -2.39852 0)
(19.6126 -2.4109 0)
(19.4906 -2.42152 9.80357e-19)
(19.3516 -2.43017 -1.00981e-18)
(19.1942 -2.43663 -6.35564e-20)
(19.017 -2.44062 -6.64577e-20)
(18.8185 -2.4419 0)
(18.5973 -2.44023 -1.13304e-18)
(18.3521 -2.43529 1.70157e-18)
(18.0813 -2.42677 -4.44785e-21)
(17.7836 -2.41435 -6.65886e-21)
(17.4573 -2.39767 -5.24011e-21)
(17.1004 -2.37627 -8.54354e-19)
(16.7106 -2.34971 -7.6071e-19)
(16.2848 -2.31721 4.6469e-19)
(15.8189 -2.27806 3.90045e-19)
(15.3074 -2.23115 0)
(14.7423 -2.17494 0)
(14.1113 -2.10739 -7.46352e-20)
(13.3945 -2.02513 8.63554e-20)
(12.5554 -1.92275 0)
(11.5216 -1.79086 -9.95879e-19)
(10.1644 -1.59643 2.64533e-18)
(8.48461 -1.30337 -1.61593e-18)
(20.3733 -1.98024 -2.08921e-19)
(20.3614 -2.00067 -1.64248e-19)
(20.3484 -2.02336 -5.38318e-20)
(20.3349 -2.0453 0)
(20.3206 -2.06701 2.19327e-19)
(20.3054 -2.08845 0)
(20.2891 -2.10962 1.08052e-19)
(20.2716 -2.13048 0)
(20.2524 -2.15103 0)
(20.2315 -2.17125 0)
(20.2082 -2.19112 0)
(20.1823 -2.21059 -1.08744e-19)
(20.1532 -2.22961 6.58227e-19)
(20.1202 -2.24815 -3.34262e-19)
(20.0824 -2.26612 2.24294e-19)
(20.039 -2.28345 1.13343e-19)
(19.9889 -2.30002 6.487e-22)
(19.9307 -2.31571 0)
(19.8634 -2.33038 1.19648e-19)
(19.7854 -2.34384 -6.05829e-20)
(19.6954 -2.35592 0)
(19.5918 -2.36642 -1.01328e-18)
(19.4729 -2.3751 1.56269e-18)
(19.3372 -2.38174 -3.06455e-21)
(19.1827 -2.38604 -4.82653e-19)
(19.0078 -2.38773 -5.65538e-19)
(18.8106 -2.3865 5.8887e-19)
(18.5892 -2.382 0)
(18.3416 -2.37387 7.88056e-20)
(18.0659 -2.36173 8.29415e-20)
(17.7598 -2.34512 6.9448e-19)
(17.4208 -2.32351 -6.46605e-19)
(17.046 -2.29631 -3.88991e-19)
(16.6317 -2.26277 5.22621e-19)
(16.1732 -2.22201 -1.1167e-19)
(15.6645 -2.17286 -2.43245e-19)
(15.0964 -2.11374 2.6978e-19)
(14.4556 -2.04251 0)
(13.7196 -1.9559 0)
(12.8482 -1.84798 0)
(11.7666 -1.70784 4.82095e-19)
(10.376 -1.51307 -7.76771e-19)
(8.89683 -1.22806 -1.31024e-18)
(20.3517 -1.96243 -2.15708e-19)
(20.3404 -1.98071 2.27339e-19)
(20.3281 -2.00099 1.39586e-21)
(20.3153 -2.02057 2.25581e-19)
(20.3018 -2.03994 -1.12577e-19)
(20.2875 -2.0591 0)
(20.2722 -2.07803 -1.11636e-19)
(20.2558 -2.09672 -3.32293e-19)
(20.2381 -2.11517 2.22236e-19)
(20.2187 -2.13336 5.53518e-19)
(20.1975 -2.15126 -4.46072e-19)
(20.1739 -2.16885 1.1212e-19)
(20.1477 -2.18609 -5.78057e-22)
(20.1181 -2.20294 -5.87024e-22)
(20.0846 -2.21934 -2.29921e-19)
(20.0464 -2.23524 -1.16807e-19)
(20.0026 -2.25054 1.1861e-19)
(19.952 -2.26513 0)
(19.8934 -2.27889 0)
(19.8257 -2.29167 -5.58721e-19)
(19.7474 -2.30329 4.46509e-19)
(19.657 -2.31356 5.18028e-19)
(19.5529 -2.32224 -5.99923e-19)
(19.4332 -2.32908 0)
(19.296 -2.3338 0)
(19.1392 -2.33611 0)
(18.9609 -2.33563 7.45082e-20)
(18.7586 -2.33201 7.72077e-20)
(18.5301 -2.32483 6.40448e-19)
(18.2727 -2.31364 -6.73768e-19)
(17.9839 -2.29795 2.62717e-19)
(17.6604 -2.27716 -2.79236e-19)
(17.2988 -2.25063 9.77515e-20)
(16.895 -2.21755 -5.20763e-19)
(16.4436 -2.17692 5.62106e-19)
(15.9377 -2.12752 0)
(15.3676 -2.06772 0)
(14.7182 -1.99524 -7.33267e-20)
(13.965 -1.90668 8.34229e-20)
(13.0638 -1.79581 0)
(11.94 -1.64982 0)
(10.5217 -1.45348 0)
(9.18966 -1.18056 -5.0044e-19)
(20.3327 -1.94616 -1.1145e-19)
(20.3221 -1.96248 1.16813e-19)
(20.3105 -1.98061 2.49018e-19)
(20.2985 -1.99813 -1.3101e-19)
(20.2858 -2.01551 -1.15144e-19)
(20.2724 -2.03271 1.14956e-19)
(20.2581 -2.04975 0)
(20.2429 -2.06661 2.27755e-19)
(20.2265 -2.08329 0)
(20.2087 -2.09976 4.53602e-19)
(20.1892 -2.11603 -4.57257e-19)
(20.1679 -2.13207 4.57338e-19)
(20.1442 -2.14783 -1.03869e-18)
(20.1177 -2.16329 3.50182e-19)
(20.0879 -2.17839 1.17963e-19)
(20.0542 -2.19309 -1.1917e-19)
(20.0156 -2.20733 3.62265e-19)
(19.9712 -2.22101 -4.94163e-19)
(19.92 -2.23403 0)
(19.8607 -2.24626 2.55881e-19)
(19.792 -2.25752 6.53655e-20)
(19.7125 -2.26764 -6.66385e-20)
(19.6204 -2.27639 6.83737e-20)
(19.5139 -2.28351 0)
(19.3911 -2.28873 0)
(19.2497 -2.29173 5.90097e-19)
(19.0873 -2.29214 -7.65811e-19)
(18.9014 -2.28955 -7.91533e-20)
(18.6893 -2.2835 1.62678e-19)
(18.448 -2.2735 -4.27892e-19)
(18.1743 -2.25902 8.9356e-20)
(17.8645 -2.23945 -9.37823e-20)
(17.5148 -2.21408 2.94468e-19)
(17.1203 -2.18205 -4.20479e-19)
(16.6752 -2.14232 -1.11832e-19)
(16.1717 -2.09361 0)
(15.5993 -2.03425 2.61859e-19)
(14.9417 -1.96189 -5.38411e-22)
(14.1723 -1.87296 0)
(13.2438 -1.76094 0)
(12.0819 -1.61106 0)
(10.6391 -1.41277 -2.70135e-19)
(9.41795 -1.15275 2.12719e-18)
(20.3162 -1.93151 3.3235e-22)
(20.3062 -1.94592 1.20019e-19)