/*--------------------------------*- C++ -*----------------------------------*\
| =========                 |                                                 |
| \\      /  F ield         | OpenFOAM: The Open Source CFD Toolbox           |
|  \\    /   O peration     | Version:  2.3.0                                 |
|   \\  /    A nd           | Web:      www.OpenFOAM.org                      |
|    \\/     M anipulation  |                                                 |
\*---------------------------------------------------------------------------*/
FoamFile
{
    version     2.0;
    format      ascii;
    class       volScalarField;
    location    "10000";
    object      nut;
}
// * * * * * * * * * * * * * * * * * * * * * * * * * * * * * * * * * * * * * //

dimensions      [0 2 -1 0 0 0 0];

internalField   nonuniform List<scalar> 
123144
(
0.0309489
0.0296799
0.0284401
0.0272295
0.026048
0.0248953
0.0237717
0.0226781
0.021616
0.0205863
0.0195906
0.018632
0.0177138
0.0168363
0.0159951
0.0151807
0.0143899
0.0136244
0.0128862
0.0121778
0.0115002
0.0108535
0.0102363
0.00964553
0.00907724
0.00852665
0.00799206
0.00747199
0.00696567
0.00647302
0.00599266
0.00552429
0.00506677
0.00462151
0.00418902
0.00377249
0.00337675
0.00300749
0.00267265
0.00238072
0.00213762
0.00195191
0.00187544
0.0320442
0.0309099
0.0298012
0.0287159
0.0276542
0.0266149
0.0255987
0.0246053
0.0236353
0.0226888
0.0217656
0.0208664
0.0199914
0.0191408
0.0183147
0.017511
0.0167296
0.0159705
0.0152347
0.0145239
0.0138393
0.0131829
0.0125584
0.0119678
0.0114087
0.0108721
0.0103526
0.00984841
0.00936085
0.00889155
0.00844248
0.00801466
0.00760803
0.00722464
0.00686521
0.00653175
0.00622717
0.00595591
0.00572506
0.00554862
0.0054473
0.00545093
0.0055561
0.0330503
0.0320394
0.0310449
0.0300689
0.0291108
0.0281709
0.0272492
0.0263451
0.0254593
0.0245917
0.0237417
0.0229101
0.0220962
0.0213008
0.0205235
0.0197637
0.0190226
0.0182993
0.0175945
0.0169081
0.0162409
0.0155934
0.0149658
0.0143593
0.0137749
0.0132109
0.0126683
0.0121476
0.011648
0.0111728
0.0107237
0.0103028
0.00991196
0.00955371
0.00923215
0.00895023
0.00871229
0.0085222
0.00838454
0.00830465
0.00828586
0.00833139
0.00844164
0.0339865
0.0330774
0.032182
0.0313001
0.0304322
0.0295788
0.0287392
0.0279133
0.0271013
0.026303
0.0255184
0.0247481
0.0239915
0.0232493
0.022521
0.0218067
0.021107
0.0204215
0.0197518
0.0190973
0.0184584
0.0178357
0.0172295
0.0166407
0.0160697
0.0155173
0.0149848
0.0144737
0.0139846
0.0135197
0.0130806
0.0126702
0.0122913
0.011946
0.0116377
0.0113702
0.0111465
0.01097
0.0108447
0.0107742
0.0107603
0.010805
0.0109069
0.0348478
0.0340285
0.033219
0.0324194
0.0316299
0.0308513
0.0300828
0.0293246
0.0285764
0.0278388
0.0271115
0.0263946
0.0256883
0.0249929
0.0243085
0.0236351
0.0229722
0.0223209
0.0216822
0.021056
0.0204432
0.0198443
0.0192594
0.0186903
0.018136
0.0175978
0.0170778
0.0165773
0.0160983
0.0156417
0.0152105
0.0148066
0.0144334
0.0140945
0.013792
0.0135286
0.0133083
0.0131347
0.0130105
0.0129385
0.0129215
0.0129598
0.0130529
0.0356397
0.0348981
0.0341632
0.0334353
0.0327145
0.0320007
0.0312939
0.0305941
0.0299018
0.0292168
0.0285389
0.0278679
0.0272054
0.0265508
0.0259043
0.0252664
0.0246359
0.0240146
0.0234025
0.0228006
0.0222096
0.0216305
0.0210645
0.0205122
0.0199734
0.0194486
0.0189396
0.0184486
0.0179772
0.0175272
0.0171009
0.0167017
0.0163319
0.0159953
0.0156945
0.0154323
0.0152118
0.015037
0.0149106
0.0148351
0.0148131
0.0148451
0.0149312
0.036365
0.0356921
0.0350225
0.0343566
0.0336953
0.0330383
0.0323855
0.0317369
0.0310929
0.0304531
0.0298177
0.0291868
0.028562
0.0279422
0.0273286
0.0267219
0.02612
0.0255244
0.0249351
0.0243536
0.0237809
0.023218
0.0226671
0.0221288
0.0216034
0.0210905
0.0205921
0.0201098
0.0196451
0.0191999
0.0187769
0.0183794
0.0180112
0.0176748
0.0173736
0.0171112
0.0168899
0.0167126
0.0165829
0.0165035
0.0164765
0.0165031
0.0165826
0.0370278
0.0364162
0.0358044
0.0351919
0.0345816
0.0339749
0.0333699
0.0327648
0.0321626
0.0315625
0.0309641
0.0303679
0.0297758
0.0291853
0.0285977
0.0280196
0.0274443
0.0268696
0.0263013
0.0257391
0.0251813
0.0246299
0.024091
0.0235643
0.0230503
0.0225485
0.0220585
0.0215833
0.0211275
0.0206853
0.0202644
0.0198662
0.0194984
0.0191628
0.0188595
0.0185956
0.0183732
0.0181929
0.01806
0.0179769
0.0179449
0.0179658
0.0180403
0.0376366
0.0370775
0.0365182
0.03595
0.0353822
0.0348192
0.034257
0.0336877
0.0331213
0.0325557
0.0319895
0.031422
0.030857
0.030297
0.0297245
0.0291694
0.0286227
0.0280657
0.0275162
0.0269722
0.0264314
0.0258849
0.0253535
0.0248346
0.02433
0.0238391
0.0233608
0.0228817
0.0224438
0.0220051
0.021592
0.0211863
0.0208181
0.0204873
0.0201762
0.0199106
0.0196893
0.0195048
0.0193673
0.0192813
0.019247
0.0192611
0.0193314
0.0022233
0.00288437
0.00336423
0.0038634
0.00439869
0.00496566
0.00555731
0.0061707
0.00680027
0.00744455
0.00810231
0.00877156
0.0094531
0.0101443
0.0108478
0.0115614
0.0122844
0.0130193
0.0137644
0.0145204
0.0152867
0.0160646
0.016854
0.0176547
0.0184672
0.0192915
0.020128
0.0209768
0.0218386
0.0227127
0.0235998
0.0245002
0.0254138
0.0263409
0.0272814
0.0282356
0.0292036
0.0301855
0.031181
0.0321902
0.0332129
0.0342485
0.0352975
0.00575353
0.00603127
0.00637259
0.00677102
0.00722162
0.00771702
0.00824968
0.00881288
0.00940225
0.010014
0.0106433
0.0112888
0.0119469
0.012617
0.0132976
0.0139876
0.0146883
0.0153965
0.0161137
0.0168397
0.0175737
0.0183163
0.0190673
0.0198266
0.0205944
0.0213709
0.0221563
0.0229511
0.0237546
0.0245679
0.0253905
0.0262231
0.0270655
0.027918
0.0287807
0.029654
0.030538
0.0314327
0.0323381
0.0332543
0.0341812
0.0351187
0.0360666
0.00861374
0.00884785
0.00914241
0.00949329
0.00989529
0.0103416
0.0108278
0.0113482
0.0118974
0.0124705
0.0130656
0.0136773
0.0143037
0.0149434
0.0155943
0.0162557
0.0169256
0.0176034
0.0182895
0.0189818
0.0196812
0.0203873
0.0210996
0.0218176
0.0225426
0.0232736
0.0240113
0.0247551
0.0255059
0.0262631
0.0270274
0.0277983
0.0285766
0.0293624
0.0301557
0.0309568
0.0317658
0.0325827
0.0334078
0.0342412
0.0350831
0.0359335
0.0367916
0.0110653
0.0112807
0.0115519
0.0118761
0.0122487
0.012666
0.0131228
0.0136137
0.0141339
0.0146794
0.0152468
0.0158316
0.0164322
0.0170463
0.0176717
0.0183066
0.0189495
0.0196003
0.020257
0.0209197
0.0215877
0.0222607
0.022938
0.02362
0.0243063
0.024997
0.0256916
0.0263909
0.0270943
0.0278021
0.0285141
0.0292312
0.029953
0.0306796
0.0314115
0.0321488
0.0328916
0.0336397
0.0343937
0.0351538
0.03592
0.0366929
0.0374714
0.0132018
0.0134044
0.0136596
0.0139666
0.0143212
0.0147191
0.0151546
0.0156244
0.0161234
0.0166483
0.017194
0.0177578
0.0183373
0.0189301
0.0195332
0.0201456
0.020766
0.0213922
0.0220242
0.022661
0.0233013
0.0239455
0.0245924
0.0252422
0.0258949
0.02655
0.0272075
0.0278674
0.0285296
0.0291938
0.0298606
0.0305301
0.0312021
0.0318771
0.0325553
0.0332364
0.0339207
0.0346084
0.0352996
0.0359947
0.0366937
0.0373969
0.0381032
0.0150712
0.0152642
0.0155088
0.0158034
0.0161453
0.0165289
0.0169492
0.0174031
0.0178862
0.0183942
0.0189238
0.019471
0.0200336
0.0206085
0.0211936
0.0217875
0.0223883
0.0229942
0.0236051
0.0242193
0.0248362
0.0254551
0.0260759
0.0266978
0.0273213
0.0279458
0.0285711
0.0291968
0.029823
0.0304495
0.0310766
0.0317045
0.0323335
0.0329636
0.0335946
0.0342263
0.0348594
0.035494
0.0361299
0.0367674
0.0374065
0.0380471
0.0386871
0.0167156
0.0169014
0.0171376
0.0174228
0.0177541
0.0181271
0.0185369
0.0189788
0.0194488
0.0199437
0.0204602
0.0209941
0.0215425
0.0221029
0.0226731
0.0232513
0.0238355
0.0244245
0.0250172
0.0256124
0.0262087
0.0268062
0.0274038
0.028002
0.0286007
0.029199
0.0297965
0.0303929
0.0309871
0.0315803
0.0321727
0.032765
0.033357
0.0339478
0.0345373
0.0351258
0.0357141
0.0363019
0.036889
0.037476
0.0380625
0.0386487
0.039235
0.0181685
0.0183482
0.0185767
0.0188543
0.0191777
0.0195431
0.019945
0.020376
0.0208358
0.0213201
0.0218257
0.0223487
0.0228863
0.0234337
0.0239919
0.0245566
0.0251263
0.0257012
0.0262795
0.026858
0.0274369
0.028015
0.0285922
0.0291699
0.0297488
0.0303238
0.0308987
0.0314686
0.032034
0.0325975
0.0331604
0.0337227
0.0342825
0.0348388
0.0353914
0.0359418
0.036491
0.037038
0.0375818
0.0381245
0.0386647
0.0392034
0.0397413
0.0194578
0.0196342
0.019852
0.0201226
0.0204406
0.0208017
0.0212004
0.0216165
0.0220678
0.0225431
0.0230418
0.0235555
0.0240842
0.0246157
0.0251679
0.0257196
0.0262766
0.0268402
0.0274085
0.0279699
0.0285346
0.0290939
0.0296527
0.0302148
0.030781
0.0313314
0.0318898
0.0324319
0.0329709
0.0335099
0.0340491
0.0345878
0.0351191
0.0356429
0.0361625
0.0366802
0.0371973
0.0377086
0.0382129
0.038718
0.0392166
0.0397128
0.0402039
0.0258756
0.0246826
0.0235015
0.0223343
0.0211838
0.0200526
0.0189438
0.0178606
0.0168063
0.015784
0.0147968
0.0138472
0.0129372
0.0120682
0.0112407
0.0104548
0.00970958
0.00900387
0.00833617
0.00770489
0.00710825
0.00654459
0.0060123
0.00550986
0.00503575
0.00458864
0.00416722
0.00377035
0.00339684
0.0030458
0.00271622
0.00240731
0.00211836
0.00184882
0.00159826
0.00136626
0.00115266
0.000957377
0.0007806
0.000626771
0.000512259
0.00039338
0.000223367
0.0259306
0.0248356
0.0237496
0.0226745
0.0216121
0.0205644
0.0195335
0.0185217
0.0175316
0.0165654
0.0156258
0.0147151
0.0138352
0.012988
0.0121745
0.0113953
0.0106506
0.00993983
0.00926248
0.0086175
0.00800384
0.00742024
0.0068656
0.00633869
0.00583844
0.00536377
0.00491373
0.00448734
0.00408386
0.00370254
0.00334269
0.0030038
0.00268545
0.00238743
0.00210961
0.0018524
0.00161729
0.00140915
0.0012382
0.00107525
0.000904383
0.00070337
0.000424418
0.0259921
0.0249891
0.0239927
0.0230042
0.0220248
0.021056
0.0200992
0.0191562
0.0182286
0.0173183
0.0164274
0.0155577
0.014711
0.0138889
0.0130928
0.0123238
0.0115826
0.0108696
0.0101849
0.00952821
0.00889914
0.00829718
0.00772158
0.00717169
0.00664676
0.00614612
0.00566905
0.0052149
0.0047831
0.00437311
0.00398457
0.00361722
0.00327098
0.0029461
0.00264353
0.00236575
0.0021184
0.00191016
0.00170673
0.00149299
0.00125179
0.000952942
0.000567982
0.0260569
0.0251375
0.0242225
0.0233127
0.0224088
0.0215119
0.0206229
0.0197431
0.0188739
0.0180165
0.0171727
0.016344
0.0155316
0.014737
0.0139614
0.013206
0.0124719
0.01176
0.0110707
0.0104048
0.00976237
0.00914356
0.00854834
0.00797659
0.00742809
0.00690255
0.00639952
0.00591872
0.00545974
0.00502234
0.00460632
0.00421184
0.00383935
0.00349021
0.00316746
0.00287676
0.00262581
0.00238292
0.00213243
0.00185989
0.00154515
0.00115157
0.000675498
0.0261227
0.0252791
0.0244376
0.0235988
0.0227631
0.021931
0.0211032
0.0202807
0.0194646
0.0186561
0.0178565
0.0170669
0.0162886
0.0155224
0.0147694
0.0140306
0.0133069
0.0125994
0.0119091
0.0112371
0.0105839
0.00995031
0.00933694
0.00874438
0.00817308
0.00762328
0.00709504
0.00658835
0.00610308
0.0056392
0.00519686
0.0047766
0.00437971
0.00400898
0.0036706
0.00337191
0.00309257
0.00280988
0.00251078
0.00217972
0.00179343
0.00131259
0.000759334
0.0261875
0.0254128
0.0246377
0.0238627
0.0230881
0.0223142
0.0215412
0.02077
0.0200014
0.0192369
0.0184777
0.0177247
0.0169789
0.0162409
0.0155114
0.0147907
0.0140799
0.0133799
0.012692
0.0120172
0.0113563
0.0107105
0.010081
0.00946907
0.00887609
0.00830302
0.00775048
0.00721886
0.00670844
0.00621936
0.00575208
0.00530776
0.00488862
0.00449892
0.00414354
0.00382896
0.00351666
0.00319372
0.00284711
0.00245987
0.00200583
0.00144561
0.000827388
0.0262532
0.0255388
0.0248228
0.0241048
0.0233851
0.0226633
0.0219393
0.0212135
0.0204868
0.019761
0.019038
0.0183187
0.0176033
0.0168923
0.0161863
0.0154846
0.0147878
0.0140973
0.0134144
0.0127398
0.0120742
0.011419
0.0107755
0.010146
0.00953289
0.00893818
0.00836287
0.00780784
0.00727375
0.00676102
0.00627049
0.00580408
0.00536519
0.00496018
0.00459514
0.00425082
0.00390363
0.00354071
0.00314805
0.00270722
0.00218951
0.00155714
0.000884668
0.0263129
0.0256557
0.0249928
0.0243257
0.0236556
0.0229808
0.0223007
0.0216152
0.0209247
0.0202313
0.0195394
0.0188513
0.018165
0.0174796
0.016797
0.0161145
0.0154314
0.0147508
0.0140748
0.0134042
0.0127366
0.0120742
0.0114182
0.0107716
0.0101396
0.00952649
0.00893111
0.0083544
0.00779837
0.00726401
0.00675198
0.00626527
0.00580896
0.00538881
0.00501042
0.00463801
0.00425712
0.00385576
0.00341931
0.00292781
0.00235027
0.00165216
0.000935397
0.026369
0.0257646
0.025149
0.0245255
0.0239011
0.0232692
0.0226288
0.0219805
0.0213217
0.0206522
0.0199829
0.019324
0.0186679
0.0180078
0.0173479
0.0166871
0.0160142
0.0153417
0.0146713
0.0140114
0.0133473
0.0126797
0.0120115
0.0113451
0.01069
0.010066
0.00945603
0.00885936
0.00828247
0.00772965
0.00719786
0.00669191
0.00621978
0.00578906
0.00539098
0.00499393
0.00458065
0.00414223
0.0036652
0.00312759
0.00249514
0.00173175
0.000973311
0.000103543
0.000191046
0.000269418
0.000353779
0.000451135
0.000568893
0.000711796
0.000870833
0.00104449
0.00123228
0.0014341
0.00165
0.00188022
0.00212492
0.0023845
0.00265917
0.00294931
0.00325523
0.00357725
0.00391583
0.00427135
0.00464416
0.00503462
0.00544319
0.00587023
0.00631608
0.00678117
0.00726573
0.00777003
0.00829429
0.00883864
0.0094031
0.00998753
0.0105917
0.0112152
0.0118573
0.0125171
0.0131934
0.0138845
0.0145884
0.0153022
0.0160227
0.0167458
0.00021559
0.000264369
0.000358079
0.000471065
0.000604169
0.000758058
0.000933811
0.00112584
0.00133213
0.00155226
0.00178602
0.00203333
0.00229418
0.00256859
0.00285665
0.00315842
0.00347411
0.00380386
0.00414782
0.00450617
0.00487912
0.00526693
0.00566979
0.006088
0.00652168
0.00697107
0.00743638
0.00791772
0.00841518
0.00892875
0.00945847
0.0100042
0.0105656
0.0111425
0.0117341
0.0123399
0.0129589
0.0135898
0.0142311
0.0148809
0.0155369
0.0161958
0.0168535
0.000302924
0.00034192
0.000461629
0.000607901
0.000775832
0.000963065
0.00117119
0.00139489
0.00163247
0.00188345
0.00214753
0.00242444
0.00271394
0.00301595
0.00333036
0.00365708
0.00399611
0.00434746
0.00471109
0.00508706
0.00547544
0.00587625
0.0062896
0.00671552
0.00715409
0.00760538
0.00806938
0.00854609
0.0090354
0.00953723
0.0100514
0.0105776
0.0111156
0.0116648
0.0122248
0.0127946
0.0133734
0.0139601
0.0145532
0.0151509
0.0157512
0.0163519
0.016951
0.00037551
0.000424719
0.000574903
0.0007538
0.000953487
0.00117149
0.00140998
0.00166318
0.00192985
0.00220934
0.00250119
0.00280507
0.00312058
0.00344745
0.00378545
0.00413434
0.00449402
0.00486424
0.00524496
0.005636
0.00603732
0.00644884
0.00687049
0.00730219
0.00774385
0.0081954
0.00865673
0.00912764
0.00960802
0.0100976
0.010596
0.011103
0.0116182
0.0121409
0.0126706
0.0132065
0.0137478
0.0142933
0.0148417
0.0153915
0.0159409
0.0164875
0.0170283
0.000441071
0.000512078
0.000693004
0.000901862
0.0011303
0.00137692
0.00164325
0.00192367
0.00221701
0.00252258
0.00283977
0.00316807
0.00350702
0.00385616
0.0042152
0.00458376
0.00496154
0.00534824
0.00574364
0.00614753
0.00655967
0.00697994
0.00740804
0.00784389
0.0082872
0.00873783
0.00919552
0.00966
0.010131
0.0106082
0.0110911
0.0115795
0.0120729
0.0125706
0.0130721
0.0135765
0.014083
0.0145907
0.0150984
0.0156046
0.0161079
0.0166065
0.0170989
0.000503653
0.000601837
0.000811523
0.00104735
0.00130168
0.00157538
0.00186721
0.0021726
0.00249033
0.00281965
0.00315978
0.00351014
0.00387018
0.00423934
0.0046171
0.00500308
0.00539678
0.00579787
0.00620597
0.00662079
0.00704199
0.00746935
0.00790251
0.00834119
0.00878512
0.00923394
0.00968734
0.010145
0.0106065
0.0110714
0.0115394
0.01201
0.0124828
0.0129571
0.0134323
0.0139076
0.0143822
0.0148554
0.0153261
0.0157932
0.0162551
0.0167105
0.0171571
0.000565022
0.000692059
0.000927761
0.00118761
0.00146559
0.00176445
0.00207962
0.00240778
0.00274775
0.00309865
0.00345967
0.00383002
0.00420906
0.00459615
0.00499069
0.00539209
0.00579988
0.00621354
0.00663271
0.00705691
0.00748574
0.00791884
0.00835581
0.00879635
0.0092401
0.00968658
0.0101353
0.0105859
0.0110379
0.0114908
0.0119443
0.012398
0.0128516
0.0133042
0.013755
0.0142034
0.0146488
0.0150908
0.0155283
0.0159602
0.0163854
0.0168027
0.0172116
0.000624797
0.000778924
0.00103777
0.00132051
0.00162121
0.00194274
0.00227891
0.00262804
0.00298893
0.00336003
0.00374008
0.00412836
0.00452462
0.00492807
0.0053378
0.00575301
0.00617309
0.00659774
0.00702651
0.0074587
0.0078938
0.00833139
0.00877111
0.00921293
0.00965623
0.0100999
0.0105436
0.010987
0.0114293
0.01187
0.0123092
0.012747
0.0131832
0.0136161
0.0140441
0.0144671
0.0148859
0.0152999
0.0157082
0.0161089
0.0165011
0.0168844
0.017258
0.000685191
0.000870258
0.00115588
0.00145456
0.00177255
0.00210886
0.00246823
0.00284478
0.00323003
0.00361743
0.00401101
0.00441149
0.00482452
0.00524308
0.00566656
0.006093
0.00652251
0.00695633
0.00739338
0.0078318
0.00827144
0.00871152
0.00915281
0.00959652
0.0100399
0.0104797
0.0109175
0.0113535
0.0117852
0.0122121
0.0126369
0.0130601
0.0134826
0.0138984
0.0143028
0.0147003
0.0150957
0.0154854
0.0158693
0.0162424
0.0166045
0.0169571
0.0172987
1.57913e-05
0.000257
0.00061572
0.000987219
0.00135331
0.00171809
0.0020861
0.00246197
0.0028492
0.00325252
0.00367163
0.00410558
0.0045543
0.00501771
0.00549601
0.00598999
0.00649973
0.00702647
0.00757077
0.00813435
0.00871985
0.00932932
0.00996563
0.0106324
0.011331
0.0120616
0.0128219
0.0136084
0.0144157
0.0152415
0.0161004
0.0170169
0.0179879
0.0190063
0.0200668
0.0211687
0.0223087
0.0234853
0.0246965
0.0259419
0.0272207
0.0285335
0.0298861
3.05696e-06
0.000152871
0.000384051
0.000676694
0.00104569
0.00144246
0.00183602
0.00222803
0.00261473
0.00299471
0.00337283
0.00375403
0.00414289
0.00454264
0.00495612
0.0053859
0.00583409
0.00630256
0.00679352
0.0073081
0.00784893
0.00841812
0.00901802
0.00965098
0.0103195
0.011024
0.0117637
0.0125357
0.0133379
0.0141677
0.0150294
0.0159324
0.0168775
0.0178615
0.0188953
0.0199885
0.0211323
0.0223215
0.0235521
0.0248213
0.0261266
0.0274681
0.0288414
9.05288e-07
0.000107126
0.000261682
0.000479291
0.00075531
0.00109148
0.00148878
0.0019446
0.00239623
0.00283261
0.00325583
0.00366782
0.0040705
0.00446731
0.00486192
0.00525827
0.00566071
0.00607353
0.00650154
0.00694901
0.00742072
0.0079209
0.00845331
0.00902206
0.00963
0.0102795
0.0109713
0.0117047
0.0124784
0.01329
0.0141398
0.0150301
0.0159614
0.0169331
0.0179476
0.019007
0.0201126
0.0212802
0.0225045
0.0237778
0.0250952
0.0264523
0.0278462
1.64085e-06
9.65605e-05
0.000243853
0.000441158
0.000686518
0.000983777
0.00133612
0.0017476
0.00220538
0.00266877
0.00312512
0.00357188
0.00400933
0.00443777
0.00485751
0.0052696
0.00567571
0.00607865
0.00648251
0.00689192
0.00731286
0.00775168
0.00821496
0.00870926
0.00924077
0.00981455
0.0104345
0.0111032
0.0118209
0.0125872
0.0134013
0.0142628
0.0151709
0.0161248
0.0171242
0.0181678
0.0192544
0.0203879
0.0215724
0.0228228
0.0241317
0.0254908
0.0268913
1.53341e-06
0.000102976
0.000231263
0.000418039
0.000649392
0.00092843
0.00125693
0.00163795
0.00207393
0.00254609
0.0030238
0.00349606
0.00396029
0.00441566
0.00486219
0.00529958
0.00572793
0.00614789
0.00656057
0.00696812
0.00737444
0.00778444
0.00820471
0.00864291
0.00910704
0.00960575
0.0101464
0.0107354
0.0113773
0.012075
0.0128296
0.0136408
0.0145078
0.0154291
0.0164029
0.0174262
0.0184968
0.0196135
0.0207764
0.0219889
0.0232604
0.0245997
0.025997
1.83747e-06
0.000103779
0.000229447
0.000413056
0.00063899
0.000909725
0.0012268
0.00159313
0.00201177
0.0024765
0.00296097
0.00344849
0.00393197
0.00440871
0.0048776
0.00533793
0.00578915
0.00623101
0.00666308
0.0070859
0.00750055
0.00790946
0.00831678
0.00872807
0.00915094
0.00959416
0.0100676
0.0105806
0.0111421
0.0117595
0.0124377
0.0131794
0.0139859
0.0148564
0.0157884
0.0167791
0.0178252
0.0189231
0.0200695
0.021263
0.0225056
0.023804
0.025174
2.02393e-06
0.000106771
0.000229943
0.000412439
0.000636466
0.000903548
0.00121503
0.00157344
0.00198153
0.00243838
0.00292616
0.00342516
0.00392467
0.0044198
0.00490827
0.00538885
0.0058608
0.00632335
0.00677577
0.00721764
0.00764873
0.00806971
0.00848227
0.00888948
0.00929635
0.00970982
0.0101387
0.0105936
0.0110854
0.0116251
0.0122222
0.0128838
0.0136152
0.014418
0.0152923
0.0162351
0.0172433
0.0183116
0.0194357
0.020612
0.021837
0.023111
0.0244373
2.28414e-06
0.000109406
0.000232767
0.000416004
0.00064024
0.000906373
0.00121552
0.00157016
0.00197276
0.00242436
0.00291332
0.00342077
0.00393366
0.00444514
0.00495155
0.00545088
0.00594219
0.00642441
0.00689655
0.00735763
0.00780707
0.00824446
0.00867017
0.0090854
0.0094927
0.00989654
0.0103034
0.0107221
0.0111635
0.0116397
0.0121629
0.012745
0.013395
0.0141199
0.0149221
0.0158024
0.0167581
0.0177841
0.0188759
0.0200276
0.021234
0.022491
0.0237976
2.52475e-06
0.000112271
0.000236405
0.000421006
0.000646488
0.000913092
0.0012218
0.00157483
0.00197479
0.00242327
0.00291313
0.00342782
0.00395298
0.00447997
0.00500372
0.00552145
0.00603152
0.00653274
0.00702391
0.00750408
0.00797205
0.00842718
0.00886899
0.00929752
0.00971382
0.0101203
0.010521
0.0109222
0.011333
0.0117642
0.0122291
0.0127411
0.0133135
0.0139572
0.0146802
0.0154865
0.0163766
0.0173477
0.018395
0.019512
0.0206925
0.0219312
0.0232257
2.78079e-06
0.000115043
0.000240579
0.000427051
0.000654401
0.000922316
0.00123169
0.00158463
0.00198368
0.00243067
0.0029217
0.00344265
0.003979
0.00452074
0.00506148
0.00559724
0.00612573
0.00664578
0.00715589
0.00765487
0.0081416
0.00861489
0.00907393
0.00951818
0.00994761
0.0103633
0.0107674
0.0111642
0.01156
0.0119638
0.0123873
0.0128443
0.0133495
0.0139174
0.0145602
0.0152871
0.0161024
0.0170071
0.017998
0.0190693
0.0202147
0.0214272
0.022703
3.02036e-06
0.000117582
0.000244951
0.000433575
0.000663034
0.000932719
0.00124334
0.001597
0.00199612
0.00244287
0.00293502
0.00346163
0.00400848
0.00456436
0.00512155
0.00567509
0.00622222
0.0067611
0.00729014
0.00780812
0.00831363
0.00880537
0.00928229
0.00974341
0.0101881
0.0106165
0.0110297
0.01143
0.0118219
0.0122118
0.0126095
0.013027
0.0134791
0.0139816
0.01455
0.0151976
0.0159342
0.0167644
0.0176888
0.018704
0.0198038
0.0209815
0.0222314
3.24694e-06
0.00011992
0.000249245
0.000439954
0.000671715
0.000943437
0.00125585
0.00161088
0.00201089
0.00245792
0.00295138
0.00348298
0.00403929
0.00460852
0.00518176
0.0057531
0.00631884
0.00687662
0.00742485
0.00796178
0.00848623
0.00899668
0.00949196
0.00997064
0.0104319
0.0108751
0.0113006
0.0117094
0.0121043
0.0124901
0.0128738
0.0132658
0.0136791
0.0141292
0.0146332
0.0152074
0.0158655
0.0166178
0.0174688
0.0184188
0.0194633
0.0205958
0.0218087
3.46606e-06
0.000122103
0.000253436
0.000446411
0.000680615
0.000954486
0.00126877
0.00162539
0.00202669
0.00247467
0.00296961
0.00350544
0.00407044
0.00465207
0.00524077
0.00582955
0.00641377
0.00699065
0.00755797
0.00811426
0.00865776
0.00918725
0.0097011
0.0101979
0.0106765
0.0111359
0.0115756
0.0119961
0.0123988
0.0127868
0.0131655
0.0135427
0.0139297
0.0143405
0.0147919
0.0153017
0.015887
0.0165619
0.0173361
0.018214
0.0191946
0.0202716
0.0214348
3.66641e-06
0.000124011
0.000257483
0.000452684
0.00068913
0.000965127
0.00128152
0.00164008
0.00204292
0.00249207
0.00298848
0.00352821
0.0041008
0.00469413
0.00529749
0.00590317
0.00650587
0.00710173
0.00768839
0.00826397
0.00882691
0.00937553
0.00990829
0.0104237
0.0109202
0.0113966
0.011852
0.0122862
0.0126997
0.0130945
0.0134742
0.013845
0.0142157
0.0145988
0.0150095
0.0154657
0.0159862
0.0165882
0.017286
0.0180888
0.0189992
0.0200155
0.0211325
3.84439e-06
0.000125751
0.000261368
0.000458723
0.000697523
0.000975747
0.00129422
0.00165479
0.00205914
0.00250966
0.00300775
0.00355073
0.00413014
0.00473406
0.00535137
0.00597344
0.00659415
0.00720896
0.00781495
0.00841009
0.00899241
0.00956044
0.0101124
0.0106465
0.0111614
0.0116555
0.0121276
0.0125769
0.0130034
0.013408
0.0137932
0.0141636
0.014526
0.0148908
0.0152716
0.0156851
0.0161503
0.0166867
0.0173118
0.0180389
0.0188761
0.0198249
0.0208815
4.00697e-06
0.000127311
0.000265075
0.00046448
0.000705473
0.000985766
0.00130653
0.00166894
0.00207517
0.00252731
0.00302693
0.00357286
0.0041581
0.00477176
0.00540209
0.00603991
0.00667823
0.00731171
0.00793701
0.00855158
0.00915359
0.0097411
0.0103123
0.0108656
0.0113991
0.0119113
0.0124008
0.0128662
0.0133072
0.0137239
0.0141179
0.0144921
0.0148522
0.0152064
0.0155664
0.0159472
0.0163673
0.0168465
0.0174047
0.0180593
0.0188224
0.0197003
0.0206927
4.15068e-06
0.000128732
0.000268559
0.00046991
0.000713019
0.000995569
0.00131829
0.00168291
0.00209097
0.00254463
0.00304592
0.00359432
0.00418476
0.00480697
0.00544946
0.00610237
0.00675767
0.00740949
0.00805395
0.00868812
0.00930968
0.0099167
0.0105073
0.0110798
0.0116323
0.0121631
0.0126703
0.0131528
0.0136093
0.0140397
0.0144447
0.0148262
0.0151885
0.015538
0.0158846
0.0162415
0.0166258
0.0170569
0.0175559
0.0181426
0.0188335
0.0196396
0.0205653
4.25768e-06
0.000130032
0.000271909
0.000475124
0.000720402
0.00100489
0.00132981
0.00169635
0.00210615
0.00256155
0.00306437
0.00361513
0.0042099
0.00483971
0.00549335
0.00616045
0.00683226
0.00750222
0.00816568
0.00881911
0.00946023
0.0100868
0.0106969
0.0112887
0.0118604
0.0124098
0.0129354
0.0134352
0.0139082
0.0143535
0.0147713
0.0151625
0.0155304
0.0158799
0.0162192
0.0165596
0.0169165
0.0173082
0.0177561
0.0182814
0.0189039
0.0196384
0.0204942
4.34423e-06
0.000131158
0.000275138
0.000480235
0.000727303
0.00101389
0.00134077
0.00170913
0.00212087
0.00257798
0.00308241
0.0036352
0.00423367
0.00487016
0.00553402
0.00621443
0.00690208
0.00758955
0.00827153
0.00894427
0.00960477
0.0102509
0.0108806
0.0114918
0.0120825
0.012651
0.013195
0.0137128
0.0142029
0.014664
0.0150957
0.0154987
0.0158747
0.0162279
0.0165646
0.0168946
0.0172314
0.0175919
0.0179967
0.0184678
0.0190269
0.0196924
0.0204769
4.37433e-06
0.000132138
0.000278136
0.000484946
0.000733947
0.00102242
0.00135118
0.0017215
0.00213508
0.00259389
0.0031
0.00365455
0.00425604
0.00489851
0.0055715
0.00626433
0.00696693
0.00767147
0.00837176
0.00906331
0.00974327
0.0104089
0.011058
0.0116885
0.0122986
0.012886
0.0134487
0.0139848
0.0144923
0.0149699
0.0154167
0.0158328
0.0162191
0.0165787
0.0169167
0.0172413
0.0175641
0.0179005
0.01827
0.0186941
0.0191959
0.0197964
0.0205114
4.35616e-06
0.000133044
0.000281113
0.000489534
0.000740217
0.00103054
0.00136116
0.00173323
0.00214865
0.00260916
0.00311674
0.00367297
0.0042773
0.00492475
0.00560605
0.00631029
0.00702722
0.00774801
0.00846604
0.00917645
0.00987549
0.0105605
0.0112289
0.0118788
0.0125081
0.0131146
0.0136961
0.0142506
0.014776
0.0152706
0.0157333
0.0161634
0.0165617
0.0169299
0.0172723
0.0175954
0.0179094
0.018228
0.018569
0.0189535
0.0194045
0.0199449
0.0205938
4.28029e-06
0.000133887
0.000283944
0.00049397
0.000746333
0.0010383
0.00137055
0.00174446
0.00216159
0.00262362
0.00313279
0.00369064
0.00429736
0.00494914
0.00563774
0.00635265
0.00708291
0.00781929
0.00855476
0.00928334
0.0100013
0.0107054
0.0113931
0.0120624
0.0127109
0.0133364
0.0139368
0.0145098
0.0150532
0.0155653
0.0160444
0.0164896
0.016901
0.0172797
0.0176288
0.0179539
0.0182633
0.0185694
0.0188881
0.0192396
0.0196465
0.0201324
0.0207191
4.19677e-06
0.000134522
0.00028647
0.000498103
0.000752028
0.00104559
0.00137964
0.00175539
0.00217407
0.00263764
0.00314828
0.0037076
0.00431636
0.0049717
0.00566688
0.00639132
0.00713398
0.00788549
0.00863759
0.00938422
0.0101208
0.0108438
0.0115507
0.0122391
0.0129067
0.0135513
0.0141706
0.0147621
0.0153238
0.0158535
0.0163495
0.0168105
0.0172359
0.0176264
0.0179843
0.018314
0.0186225
0.0189205
0.0192225
0.019547
0.0199162
0.0203537
0.0208829
4.17092e-06
0.000135017
0.000289005
0.000502086
0.000757411
0.00105259
0.00138827
0.0017656
0.00218577
0.00265087
0.00316283
0.00372365
0.00433415
0.00499275
0.00569336
0.00642632
0.0071809
0.00794674
0.00871505
0.00947911
0.0102339
0.0109756
0.0117015
0.0124089
0.0130956
0.0137591
0.0143972
0.0150073
0.0155873
0.0161349
0.0166481
0.0171252
0.0175656
0.0179691
0.0183373
0.0186737
0.0189843
0.0192781
0.019568
0.0198713
0.0202088
0.0206043
0.0210827
4.20125e-06
0.000135377
0.000291264
0.000505772
0.000762526
0.0010591
0.00139633
0.00177511
0.00219688
0.00266344
0.00317676
0.00373895
0.00435102
0.00501222
0.00571759
0.00645829
0.0072239
0.00800305
0.0087869
0.00956787
0.0103405
0.011101
0.0118456
0.0125719
0.0132774
0.0139597
0.0146165
0.0152453
0.0158436
0.0164092
0.0169397
0.0174335
0.0178894
0.0183068
0.0186866
0.0190316
0.0193466
0.0196393
0.0199214
0.0202083
0.02052
0.0208795
0.0213126
4.26116e-06
0.000135737
0.000293567
0.000509355
0.000767427
0.00106537
0.00140402
0.00178427
0.00220762
0.00267554
0.00319023
0.00375357
0.00436701
0.00503039
0.00573981
0.00648751
0.00726284
0.0080548
0.00885345
0.00965084
0.0104412
0.0112197
0.0119828
0.0127278
0.013452
0.0141531
0.0148285
0.0154758
0.0160926
0.0166761
0.0172243
0.017735
0.0182068
0.0186388
0.0190313
0.0193863
0.0197077
0.0200022
0.0202799
0.020555
0.0208457
0.0211747
0.0215675
4.32092e-06
0.000135905
0.000295587
0.000512737
0.000772077
0.00107137
0.00141133
0.00179304
0.00221767
0.002687
0.00320282
0.00376731
0.00438204
0.00504727
0.00576023
0.00651392
0.00729831
0.00810222
0.00891498
0.00972846
0.0105357
0.011332
0.0121135
0.0128769
0.0136196
0.0143392
0.0150332
0.015699
0.0163339
0.0169356
0.0175014
0.0180293
0.0185174
0.0189646
0.0193706
0.0197369
0.0200664
0.020365
0.0206413
0.0209082
0.0211826
0.0214854
0.0218403
4.38753e-06
0.000135981
0.000297584
0.000515898
0.000776414
0.001077
0.00141829
0.00180123
0.00222718
0.00269764
0.00321459
0.00378025
0.0043961
0.00506297
0.00577877
0.00653775
0.00733025
0.00814513
0.00897157
0.00980026
0.0106243
0.0114381
0.0122375
0.0130191
0.0137802
0.0145182
0.0152306
0.0159147
0.0165679
0.0171875
0.0177711
0.0183163
0.0188209
0.0192837
0.0197039
0.0200824
0.0204216
0.0207261
0.0210037
0.0212657
0.0215278
0.0218102
0.022138
4.44449e-06
0.000135904
0.000299371
0.000518791
0.000780432
0.00108222
0.00142473
0.00180895
0.00223607
0.00270775
0.00322585
0.0037923
0.00440916
0.00507733
0.00579573
0.00655931
0.00735901
0.00818412
0.00902328
0.0098668
0.010707
0.011538
0.012355
0.0131546
0.0139339
0.0146901
0.0154207
0.0161229
0.0167943
0.0174319
0.0180332
0.0185957
0.0191171
0.0195958
0.0200308
0.0204224
0.0207723
0.0210844
0.0213653
0.0216252
0.0218782
0.0221426
0.0224387
4.48548e-06
0.000135771
0.000300973
0.000521494
0.000784146
0.00108707
0.00143078
0.00181609
0.0022444
0.0027171