/*--------------------------------*- C++ -*----------------------------------*\
| =========                 |                                                 |
| \\      /  F ield         | OpenFOAM: The Open Source CFD Toolbox           |
|  \\    /   O peration     | Version:  2.3.0                                 |
|   \\  /    A nd           | Web:      www.OpenFOAM.org                      |
|    \\/     M anipulation  |                                                 |
\*---------------------------------------------------------------------------*/
FoamFile
{
    version     2.0;
    format      ascii;
    class       volScalarField;
    location    "10000";
    object      nuTilda;
}
// * * * * * * * * * * * * * * * * * * * * * * * * * * * * * * * * * * * * * //

dimensions      [0 2 -1 0 0 0 0];

internalField   nonuniform List<scalar> 
123144
(
0.0309489
0.0296799
0.0284401
0.0272295
0.026048
0.0248953
0.0237717
0.0226781
0.021616
0.0205863
0.0195906
0.018632
0.0177138
0.0168363
0.0159951
0.0151807
0.0143899
0.0136245
0.0128862
0.0121778
0.0115002
0.0108535
0.0102363
0.00964555
0.00907725
0.00852667
0.00799208
0.00747201
0.0069657
0.00647306
0.0059927
0.00552433
0.00506683
0.00462157
0.0041891
0.00377259
0.00337687
0.00300764
0.00267285
0.00238097
0.00213792
0.00195228
0.00187583
0.0320442
0.0309099
0.0298012
0.0287159
0.0276542
0.0266149
0.0255987
0.0246053
0.0236353
0.0226888
0.0217656
0.0208664
0.0199914
0.0191408
0.0183147
0.017511
0.0167296
0.0159705
0.0152347
0.0145239
0.0138393
0.0131829
0.0125584
0.0119678
0.0114087
0.0108721
0.0103526
0.00984843
0.00936086
0.00889157
0.0084425
0.00801468
0.00760805
0.00722466
0.00686524
0.00653178
0.0062272
0.00595595
0.0057251
0.00554867
0.00544735
0.00545098
0.00555615
0.0330504
0.0320394
0.0310449
0.0300689
0.0291108
0.0281709
0.0272492
0.0263451
0.0254593
0.0245917
0.0237417
0.0229101
0.0220962
0.0213008
0.0205235
0.0197637
0.0190226
0.0182993
0.0175945
0.0169081
0.0162409
0.0155934
0.0149658
0.0143593
0.0137749
0.0132109
0.0126683
0.0121476
0.011648
0.0111728
0.0107237
0.0103028
0.00991198
0.00955373
0.00923216
0.00895025
0.00871231
0.00852222
0.00838456
0.00830467
0.00828588
0.00833141
0.00844166
0.0339865
0.0330774
0.032182
0.0313001
0.0304322
0.0295788
0.0287392
0.0279133
0.0271013
0.026303
0.0255185
0.0247481
0.0239915
0.0232493
0.022521
0.0218067
0.021107
0.0204215
0.0197518
0.0190973
0.0184584
0.0178357
0.0172295
0.0166407
0.0160697
0.0155173
0.0149849
0.0144737
0.0139846
0.0135197
0.0130806
0.0126702
0.0122913
0.011946
0.0116377
0.0113702
0.0111465
0.01097
0.0108447
0.0107743
0.0107603
0.010805
0.0109069
0.0348478
0.0340285
0.033219
0.0324194
0.0316299
0.0308513
0.0300828
0.0293246
0.0285764
0.0278388
0.0271115
0.0263946
0.0256883
0.0249929
0.0243085
0.0236351
0.0229722
0.0223209
0.0216822
0.021056
0.0204432
0.0198443
0.0192594
0.0186903
0.018136
0.0175979
0.0170778
0.0165773
0.0160983
0.0156417
0.0152105
0.0148067
0.0144334
0.0140945
0.013792
0.0135286
0.0133083
0.0131347
0.0130105
0.0129385
0.0129215
0.0129599
0.0130529
0.0356397
0.0348981
0.0341632
0.0334353
0.0327145
0.0320007
0.0312939
0.0305941
0.0299018
0.0292169
0.0285389
0.0278679
0.0272054
0.0265508
0.0259043
0.0252664
0.0246359
0.0240146
0.0234025
0.0228006
0.0222096
0.0216305
0.0210645
0.0205122
0.0199734
0.0194486
0.0189396
0.0184486
0.0179772
0.0175272
0.0171009
0.0167017
0.0163319
0.0159953
0.0156945
0.0154323
0.0152118
0.015037
0.0149106
0.0148351
0.0148131
0.0148452
0.0149312
0.036365
0.0356921
0.0350225
0.0343566
0.0336953
0.0330383
0.0323855
0.0317369
0.0310929
0.0304531
0.0298177
0.0291868
0.028562
0.0279422
0.0273286
0.026722
0.02612
0.0255244
0.0249351
0.0243536
0.0237809
0.023218
0.0226671
0.0221288
0.0216034
0.0210905
0.0205921
0.0201098
0.0196451
0.0191999
0.0187769
0.0183794
0.0180112
0.0176748
0.0173736
0.0171112
0.0168899
0.0167126
0.016583
0.0165035
0.0164766
0.0165031
0.0165826
0.0370278
0.0364162
0.0358044
0.0351919
0.0345816
0.0339749
0.0333699
0.0327648
0.0321626
0.0315625
0.0309641
0.0303679
0.0297758
0.0291853
0.0285977
0.0280196
0.0274443
0.0268696
0.0263013
0.0257391
0.0251813
0.0246299
0.024091
0.0235643
0.0230503
0.0225485
0.0220586
0.0215833
0.0211275
0.0206853
0.0202644
0.0198662
0.0194984
0.0191628
0.0188595
0.0185956
0.0183732
0.0181929
0.0180601
0.0179769
0.0179449
0.0179658
0.0180404
0.0376366
0.0370775
0.0365182
0.03595
0.0353822
0.0348192
0.034257
0.0336877
0.0331213
0.0325557
0.0319895
0.031422
0.030857
0.030297
0.0297245
0.0291694
0.0286227
0.0280657
0.0275162
0.0269722
0.0264314
0.025885
0.0253535
0.0248346
0.02433
0.0238391
0.0233608
0.0228817
0.0224438
0.0220051
0.021592
0.0211863
0.0208181
0.0204873
0.0201763
0.0199107
0.0196893
0.0195048
0.0193673
0.0192813
0.019247
0.0192611
0.0193314
0.00222358
0.00288454
0.00336435
0.0038635
0.00439876
0.00496571
0.00555735
0.00617073
0.0068003
0.00744458
0.00810233
0.00877158
0.00945312
0.0101443
0.0108478
0.0115614
0.0122844
0.0130193
0.0137644
0.0145204
0.0152867
0.0160646
0.016854
0.0176547
0.0184672
0.0192915
0.020128
0.0209768
0.0218387
0.0227127
0.0235998
0.0245002
0.0254138
0.0263409
0.0272814
0.0282356
0.0292036
0.0301855
0.031181
0.0321902
0.0332129
0.0342485
0.0352975
0.00575357
0.0060313
0.00637263
0.00677105
0.00722165
0.00771705
0.0082497
0.0088129
0.00940227
0.010014
0.0106434
0.0112889
0.0119469
0.012617
0.0132976
0.0139876
0.0146883
0.0153965
0.0161137
0.0168397
0.0175737
0.0183163
0.0190673
0.0198266
0.0205944
0.0213709
0.0221563
0.0229511
0.0237546
0.0245679
0.0253905
0.0262231
0.0270655
0.027918
0.0287807
0.029654
0.030538
0.0314327
0.0323381
0.0332543
0.0341812
0.0351187
0.0360666
0.00861376
0.00884787
0.00914242
0.00949331
0.0098953
0.0103416
0.0108278
0.0113482
0.0118974
0.0124705
0.0130656
0.0136773
0.0143037
0.0149434
0.0155943
0.0162557
0.0169256
0.0176035
0.0182895
0.0189818
0.0196812
0.0203873
0.0210996
0.0218176
0.0225426
0.0232736
0.0240113
0.0247551
0.0255059
0.0262631
0.0270274
0.0277983
0.0285766
0.0293624
0.0301557
0.0309568
0.0317658
0.0325827
0.0334078
0.0342412
0.0350831
0.0359335
0.0367916
0.0110653
0.0112807
0.0115519
0.0118761
0.0122487
0.012666
0.0131228
0.0136137
0.014134
0.0146794
0.0152468
0.0158316
0.0164322
0.0170463
0.0176717
0.0183066
0.0189495
0.0196003
0.020257
0.0209197
0.0215877
0.0222607
0.022938
0.02362
0.0243063
0.024997
0.0256916
0.0263909
0.0270943
0.0278021
0.0285141
0.0292312
0.029953
0.0306796
0.0314115
0.0321488
0.0328916
0.0336397
0.0343937
0.0351538
0.03592
0.0366929
0.0374714
0.0132018
0.0134044
0.0136596
0.0139666
0.0143212
0.0147191
0.0151546
0.0156244
0.0161234
0.0166483
0.017194
0.0177578
0.0183373
0.0189301
0.0195332
0.0201456
0.020766
0.0213922
0.0220242
0.022661
0.0233013
0.0239455
0.0245924
0.0252422
0.0258949
0.02655
0.0272075
0.0278674
0.0285296
0.0291938
0.0298606
0.0305301
0.0312021
0.0318771
0.0325553
0.0332364
0.0339207
0.0346084
0.0352996
0.0359947
0.0366937
0.0373969
0.0381032
0.0150712
0.0152642
0.0155088
0.0158034
0.0161453
0.0165289
0.0169492
0.0174031
0.0178863
0.0183942
0.0189238
0.019471
0.0200336
0.0206085
0.0211936
0.0217875
0.0223883
0.0229942
0.0236051
0.0242193
0.0248362
0.0254551
0.0260759
0.0266978
0.0273213
0.0279458
0.0285711
0.0291968
0.0298231
0.0304495
0.0310766
0.0317045
0.0323335
0.0329636
0.0335946
0.0342263
0.0348594
0.035494
0.0361299
0.0367674
0.0374065
0.0380471
0.0386871
0.0167156
0.0169014
0.0171376
0.0174228
0.0177541
0.0181271
0.0185369
0.0189788
0.0194488
0.0199437
0.0204602
0.0209941
0.0215425
0.0221029
0.0226731
0.0232513
0.0238355
0.0244245
0.0250172
0.0256124
0.0262087
0.0268062
0.0274038
0.028002
0.0286007
0.029199
0.0297965
0.0303929
0.0309871
0.0315803
0.0321727
0.032765
0.033357
0.0339478
0.0345373
0.0351258
0.0357141
0.0363019
0.036889
0.037476
0.0380625
0.0386487
0.039235
0.0181685
0.0183482
0.0185767
0.0188543
0.0191777
0.0195431
0.019945
0.020376
0.0208358
0.0213201
0.0218257
0.0223487
0.0228863
0.0234337
0.0239919
0.0245566
0.0251263
0.0257012
0.0262795
0.026858
0.027437
0.028015
0.0285922
0.0291699
0.0297488
0.0303238
0.0308987
0.0314686
0.032034
0.0325975
0.0331604
0.0337227
0.0342825
0.0348388
0.0353914
0.0359418
0.036491
0.037038
0.0375818
0.0381245
0.0386647
0.0392034
0.0397413
0.0194578
0.0196342
0.019852
0.0201226
0.0204406
0.0208017
0.0212004
0.0216165
0.0220678
0.0225431
0.0230418
0.0235555
0.0240842
0.0246157
0.0251679
0.0257196
0.0262766
0.0268402
0.0274085
0.0279699
0.0285346
0.0290939
0.0296527
0.0302148
0.030781
0.0313314
0.0318898
0.0324319
0.0329709
0.0335099
0.0340491
0.0345878
0.0351191
0.0356429
0.0361625
0.0366802
0.0371973
0.0377086
0.0382129
0.038718
0.0392166
0.0397128
0.0402039
0.0258756
0.0246826
0.0235015
0.0223343
0.0211838
0.0200526
0.0189438
0.0178606
0.0168063
0.015784
0.0147968
0.0138472
0.0129372
0.0120682
0.0112407
0.0104548
0.00970959
0.00900389
0.00833619
0.00770491
0.00710827
0.00654462
0.00601234
0.0055099
0.00503581
0.00458871
0.0041673
0.00377044
0.00339696
0.00304595
0.0027164
0.00240755
0.00211867
0.00184922
0.0015988
0.001367
0.00115369
0.000958875
0.000782845
0.000630226
0.000517363
0.000401751
0.000244466
0.0259306
0.0248356
0.0237496
0.0226745
0.0216121
0.0205644
0.0195335
0.0185217
0.0175316
0.0165654
0.0156258
0.0147151
0.0138352
0.012988
0.0121745
0.0113953
0.0106506
0.00993985
0.00926249
0.00861752
0.00800386
0.00742027
0.00686563
0.00633873
0.00583848
0.00536382
0.00491379
0.00448741
0.00408394
0.00370264
0.00334281
0.00300395
0.00268564
0.00238767
0.00210992
0.00185281
0.00161781
0.00140984
0.0012391
0.00107644
0.000906061
0.000706126
0.000431697
0.0259921
0.0249891
0.0239927
0.0230042
0.0220248
0.021056
0.0200992
0.0191562
0.0182286
0.0173183
0.0164274
0.0155577
0.014711
0.0138889
0.0130928
0.0123238
0.0115826
0.0108696
0.0101849
0.00952822
0.00889916
0.0082972
0.0077216
0.00717171
0.0066468
0.00614615
0.00566909
0.00521495
0.00478316
0.00437318
0.00398466
0.00361732
0.00327111
0.00294626
0.00264373
0.002366
0.00211871
0.00191054
0.0017072
0.00149361
0.00125267
0.000954454
0.000572166
0.0260569
0.0251375
0.0242225
0.0233127
0.0224088
0.0215119
0.0206229
0.0197431
0.0188739
0.0180165
0.0171727
0.016344
0.0155316
0.014737
0.0139614
0.013206
0.0124719
0.01176
0.0110707
0.0104048
0.00976238
0.00914358
0.00854836
0.00797661
0.00742812
0.00690258
0.00639956
0.00591876
0.00545979
0.0050224
0.00460638
0.00421192
0.00383944
0.00349032
0.0031676
0.00287692
0.00262601
0.00238316
0.00213273
0.00186029
0.00154572
0.00115261
0.000678483
0.0261227
0.0252791
0.0244376
0.0235988
0.0227631
0.021931
0.0211032
0.0202807
0.0194646
0.0186561
0.0178565
0.0170669
0.0162886
0.0155224
0.0147694
0.0140306
0.0133069
0.0125994
0.0119092
0.0112371
0.0105839
0.00995033
0.00933695
0.0087444
0.0081731
0.0076233
0.00709506
0.00658838
0.00610312
0.00563924
0.00519691
0.00477666
0.00437978
0.00400906
0.00367071
0.00337203
0.00309272
0.00281005
0.002511
0.00218001
0.00179386
0.00131339
0.000761704
0.0261875
0.0254128
0.0246377
0.0238627
0.0230881
0.0223142
0.0215412
0.02077
0.0200014
0.0192369
0.0184777
0.0177248
0.0169789
0.0162409
0.0155114
0.0147908
0.0140799
0.0133799
0.012692
0.0120172
0.0113563
0.0107105
0.010081
0.00946908
0.00887611
0.00830304
0.0077505
0.00721888
0.00670848
0.0062194
0.00575212
0.00530781
0.00488868
0.00449899
0.00414362
0.00382906
0.00351677
0.00319385
0.00284728
0.0024601
0.00200617
0.00144627
0.000829389
0.0262532
0.0255388
0.0248228
0.0241048
0.0233851
0.0226633
0.0219393
0.0212135
0.0204868
0.019761
0.019038
0.0183187
0.0176033
0.0168923
0.0161863
0.0154846
0.0147878
0.0140973
0.0134144
0.0127398
0.0120742
0.011419
0.0107755
0.010146
0.00953291
0.0089382
0.00836289
0.00780786
0.00727378
0.00676106
0.00627053
0.00580412
0.00536523
0.00496023
0.0045952
0.0042509
0.00390372
0.00354082
0.00314819
0.00270741
0.0021898
0.00155771
0.00088642
0.0263129
0.0256557
0.0249928
0.0243257
0.0236556
0.0229808
0.0223007
0.0216152
0.0209247
0.0202313
0.0195394
0.0188513
0.018165
0.0174796
0.016797
0.0161145
0.0154314
0.0147508
0.0140748
0.0134042
0.0127366
0.0120742
0.0114182
0.0107717
0.0101396
0.00952651
0.00893113
0.00835442
0.0077984
0.00726404
0.00675201
0.00626531
0.005809
0.00538886
0.00501048
0.00463807
0.0042572
0.00385585
0.00341943
0.00292798
0.00235051
0.00165266
0.000936966
0.026369
0.0257646
0.025149
0.0245255
0.0239011
0.0232692
0.0226288
0.0219805
0.0213217
0.0206522
0.0199829
0.019324
0.0186679
0.0180078
0.0173479
0.0166871
0.0160142
0.0153418
0.0146713
0.0140114
0.0133474
0.0126797
0.0120115
0.0113451
0.01069
0.010066
0.00945605
0.00885938
0.00828249
0.00772967
0.00719789
0.00669194
0.00621981
0.0057891
0.00539102
0.00499399
0.00458071
0.00414231
0.00366531
0.00312773
0.00249536
0.00173221
0.000974761
0.000147797
0.000216885
0.000285407
0.000363908
0.00045763
0.000573064
0.000714489
0.000872641
0.00104575
0.00123319
0.00143477
0.0016505
0.00188061
0.00212523
0.00238474
0.00265937
0.00294947
0.00325536
0.00357736
0.00391592
0.00427143
0.00464422
0.00503467
0.00544324
0.00587027
0.00631611
0.0067812
0.00726576
0.00777006
0.00829431
0.00883866
0.00940311
0.00998754
0.0105917
0.0112152
0.0118573
0.0125171
0.0131934
0.0138845
0.0145884
0.0153022
0.0160228
0.0167458
0.000237731
0.000280838
0.000367994
0.000477052
0.00060788
0.000760436
0.000935385
0.00112693
0.00133291
0.00155283
0.00178645
0.00203366
0.00229444
0.0025688
0.00285682
0.00315856
0.00347422
0.00380396
0.0041479
0.00450624
0.00487918
0.00526698
0.00566984
0.00608803
0.00652171
0.0069711
0.00743641
0.00791774
0.0084152
0.00892877
0.00945848
0.0100042
0.0105656
0.0111425
0.0117341
0.0123399
0.0129589
0.0135898
0.0142311
0.0148809
0.0155369
0.0161958
0.0168536
0.000316151
0.000352675
0.000467849
0.000611568
0.000778104
0.000964546
0.00117219
0.00139559
0.00163299
0.00188384
0.00214783
0.00242467
0.00271413
0.00301611
0.00333048
0.00365718
0.0039962
0.00434753
0.00471115
0.00508712
0.00547549
0.00587629
0.00628964
0.00671555
0.00715412
0.00760541
0.0080694
0.0085461
0.00903542
0.00953725
0.0100514
0.0105776
0.0111156
0.0116648
0.0122248
0.0127946
0.0133734
0.0139601
0.0145532
0.0151509
0.0157513
0.0163519
0.016951
0.000384617
0.000431988
0.00057899
0.000756205
0.000954998
0.00117249
0.00141067
0.00166368
0.00193022
0.00220962
0.00250141
0.00280524
0.00312072
0.00344756
0.00378554
0.00413442
0.00449409
0.0048643
0.00524501
0.00563604
0.00603736
0.00644887
0.00687052
0.00730221
0.00774388
0.00819542
0.00865675
0.00912766
0.00960804
0.0100976
0.010596
0.011103
0.0116182
0.0121409
0.0126706
0.0132066
0.0137478
0.0142933
0.0148417
0.0153915
0.0159409
0.0164875
0.0170283
0.000447846
0.000517186
0.000695842
0.000903549
0.00113138
0.00137765
0.00164376
0.00192404
0.00221729
0.0025228
0.00283994
0.00316821
0.00350714
0.00385625
0.00421528
0.00458382
0.0049616
0.00534829
0.00574368
0.00614756
0.0065597
0.00697996
0.00740806
0.00784391
0.00828722
0.00873785
0.00919553
0.00966001
0.010131
0.0106082
0.0110912
0.0115796
0.0120729
0.0125706
0.0130721
0.0135765
0.014083
0.0145907
0.0150984
0.0156046
0.0161079
0.0166065
0.0170989
0.000508925
0.000605576
0.000813602
0.0010486
0.0013025
0.00157593
0.00186761
0.00217289
0.00249055
0.00281982
0.00315992
0.00351025
0.00387027
0.00423941
0.00461717
0.00500313
0.00539683
0.00579792
0.006206
0.00662083
0.00704202
0.00746937
0.00790254
0.00834121
0.00878514
0.00923396
0.00968736
0.010145
0.0106065
0.0110715
0.0115394
0.0120101
0.0124828
0.0129571
0.0134323
0.0139076
0.0143822
0.0148554
0.0153261
0.0157932
0.0162551
0.0167105
0.0171571
0.000569248
0.000694904
0.000929355
0.00118859
0.00146623
0.00176489
0.00207994
0.00240802
0.00274793
0.0030988
0.00345978
0.00383011
0.00420913
0.00459622
0.00499074
0.00539214
0.00579992
0.00621358
0.00663274
0.00705694
0.00748576
0.00791886
0.00835583
0.00879636
0.00924011
0.00968659
0.0101353
0.0105859
0.0110379
0.0114908
0.0119443
0.012398
0.0128516
0.0133042
0.0137551
0.0142034
0.0146489
0.0150908
0.0155283
0.0159603
0.0163854
0.0168027
0.0172116
0.000628273
0.000781179
0.00103904
0.0013213
0.00162173
0.0019431
0.00227918
0.00262824
0.00298908
0.00336015
0.00374018
0.00412844
0.00452469
0.00492813
0.00533785
0.00575305
0.00617312
0.00659777
0.00702654
0.00745872
0.00789382
0.0083314
0.00877112
0.00921295
0.00965625
0.0101
0.0105436
0.010987
0.0114293
0.01187
0.0123092
0.012747
0.0131832
0.0136161
0.0140441
0.0144671
0.0148859
0.0152999
0.0157082
0.0161089
0.0165011
0.0168844
0.017258
0.000688093
0.000872069
0.00115691
0.00145521
0.00177299
0.00210917
0.00246846
0.00284495
0.00323017
0.00361754
0.00401109
0.00441156
0.00482458
0.00524313
0.00566661
0.00609304
0.00652254
0.00695636
0.0073934
0.00783182
0.00827146
0.00871154
0.00915283
0.00959654
0.0100399
0.0104797
0.0109175
0.0113535
0.0117852
0.0122121
0.0126369
0.0130601
0.0134826
0.0138984
0.0143029
0.0147003
0.0150957
0.0154854
0.0158693
0.0162424
0.0166045
0.0169571
0.0172987
7.23903e-05
0.000274182
0.000619296
0.000988628
0.00135407
0.00171856
0.00208642
0.0024622
0.00284937
0.00325265
0.00367173
0.00410566
0.00455436
0.00501777
0.00549606
0.00599003
0.00649976
0.0070265
0.0075708
0.00813437
0.00871986
0.00932934
0.00996565
0.0106324
0.011331
0.0120616
0.0128219
0.0136084
0.0144157
0.0152415
0.0161004
0.0170169
0.0179879
0.0190063
0.0200668
0.0211687
0.0223087
0.0234853
0.0246965
0.0259419
0.0272207
0.0285335
0.0298861
4.35638e-05
0.000185546
0.000392785
0.000679668
0.00104695
0.00144313
0.00183643
0.00222831
0.00261494
0.00299487
0.00337295
0.00375413
0.00414297
0.00454271
0.00495618
0.00538595
0.00583413
0.00630259
0.00679355
0.00730813
0.00784895
0.00841814
0.00901803
0.00965099
0.0103195
0.011024
0.0117637
0.0125358
0.0133379
0.0141677
0.0150294
0.0159324
0.0168775
0.0178615
0.0188953
0.0199885
0.0211323
0.0223215
0.0235521
0.0248213
0.0261266
0.0274681
0.0288414
3.21809e-05
0.000150201
0.000278389
0.000485084
0.000757705
0.00109264
0.00148941
0.00194496
0.00239647
0.00283278
0.00325596
0.00366793
0.00407058
0.00446738
0.00486198
0.00525832
0.00566075
0.00607357
0.00650157
0.00694904
0.00742074
0.00792092
0.00845333
0.00902208
0.00963002
0.0102795
0.0109714
0.0117047
0.0124784
0.01329
0.0141399
0.0150301
0.0159614
0.0169331
0.0179476
0.019007
0.0201126
0.0212802
0.0225045
0.0237778
0.0250952
0.0264523
0.0278462
3.22286e-05
0.000141522
0.000262387
0.000447926
0.000689409
0.000985196
0.00133689
0.00174805
0.00220566
0.00266897
0.00312526
0.00357198
0.00400942
0.00443784
0.00485757
0.00526965
0.00567576
0.00607869
0.00648255
0.00689195
0.00731288
0.0077517
0.00821498
0.00870928
0.00924079
0.00981456
0.0104346
0.0111032
0.0118209
0.0125872
0.0134013
0.0142628
0.0151709
0.0161248
0.0171242
0.0181678
0.0192544
0.0203879
0.0215724
0.0228229
0.0241317
0.0254908
0.0268913
3.21594e-05
0.000146431
0.000251271
0.000425519
0.000652615
0.000930022
0.0012578
0.00163846
0.00207426
0.0025463
0.00302395
0.00349617
0.00396038
0.00441573
0.00486225
0.00529963
0.00572798
0.00614793
0.0065606
0.00696815
0.00737446
0.00778446
0.00820473
0.00864293
0.00910706
0.00960576
0.0101464
0.0107354
0.0113773
0.012075
0.0128296
0.0136408
0.0145078
0.0154291
0.0164029
0.0174262
0.0184968
0.0196135
0.0207764
0.0219889
0.0232604
0.0245997
0.025997
3.27901e-05
0.000146909
0.00024967
0.000420704
0.000642317
0.000911383
0.00122771
0.00159368
0.00201211
0.00247673
0.00296113
0.00344861
0.00393206
0.00440878
0.00487766
0.00533798
0.0057892
0.00623105
0.00666311
0.00708593
0.00750058
0.00790949
0.0083168
0.00872809
0.00915095
0.00959418
0.0100676
0.0105806
0.0111421
0.0117595
0.0124377
0.0131794
0.0139859
0.0148564
0.0157884
0.0167791
0.0178252
0.0189231
0.0200695
0.021263
0.0225056
0.023804
0.025174
3.33298e-05
0.000149122
0.000250099
0.000420107
0.000639818
0.000905229
0.00121596
0.001574
0.00198188
0.00243861
0.00292632
0.00342528
0.00392476
0.00441987
0.00490833
0.0053889
0.00586084
0.00632338
0.0067758
0.00721767
0.00764876
0.00806973
0.00848229
0.0088895
0.00929636
0.00970983
0.0101387
0.0105936
0.0110854
0.0116251
0.0122222
0.0128838
0.0136152
0.014418
0.0152923
0.0162351
0.0172433
0.0183116
0.0194357
0.020612
0.021837
0.023111
0.0244373
3.40586e-05
0.00015106
0.000252574
0.000423551
0.000643554
0.000908044
0.00121646
0.00157072
0.00197312
0.0024246
0.00291348
0.00342089
0.00393375
0.00444521
0.00495161
0.00545093
0.00594223
0.00642445
0.00689658
0.00735766
0.00780709
0.00824448
0.00867018
0.00908541
0.00949272
0.00989655
0.0103034
0.0107221
0.0111635
0.0116397
0.0121629
0.012745
0.013395
0.0141199
0.0149221
0.0158024
0.0167581
0.0177841
0.0188759
0.0200276
0.021234
0.022491
0.0237976
3.47499e-05
0.000153196
0.000255773
0.000428389
0.00064974
0.000914738
0.00122272
0.00157539
0.00197514
0.00242351
0.00291329
0.00342793
0.00395307
0.00448004
0.00500377
0.00552149
0.00603156
0.00653278
0.00702394
0.00750411
0.00797207
0.0084272
0.008869
0.00929754
0.00971383
0.0101203
0.010521
0.0109223
0.011333
0.0117642
0.0122291
0.0127411
0.0133135
0.0139572
0.0146802
0.0154865
0.0163766
0.0173477
0.018395
0.019512
0.0206925
0.0219312
0.0232257
3.54979e-05
0.000155274
0.00025946
0.00043424
0.000657576
0.00092393
0.0012326
0.00158518
0.00198403
0.0024309
0.00292187
0.00344277
0.00397909
0.0045208
0.00506153
0.00559728
0.00612577
0.00664581
0.00715592
0.00765489
0.00814162
0.00861491
0.00907394
0.0095182
0.00994763
0.0103633
0.0107675
0.0111642
0.01156
0.0119639
0.0123874
0.0128443
0.0133495
0.0139174
0.0145602
0.0152871
0.0161024
0.0170071
0.017998
0.0190693
0.0202147
0.0214272
0.022703
3.61995e-05
0.000157188
0.000263338
0.000440565
0.000666129
0.000934297
0.00124423
0.00159754
0.00199646
0.0024431
0.00293518
0.00346174
0.00400857
0.00456443
0.0051216
0.00567513
0.00622225
0.00676113
0.00729017
0.00780814
0.00831365
0.00880539
0.0092823
0.00974343
0.0101881
0.0106166
0.0110297
0.0114301
0.0118219
0.0122119
0.0126095
0.013027
0.0134791
0.0139816
0.01455
0.0151976
0.0159342
0.0167644
0.0176888
0.018704
0.0198038
0.0209815
0.0222314
3.68687e-05
0.000158963
0.000267163
0.000446756
0.000674732
0.00094498
0.00125672
0.00161141
0.00201123
0.00245814
0.00295154
0.00348309
0.00403938
0.00460859
0.00518181
0.00575314
0.00631887
0.00687665
0.00742487
0.0079618
0.00848625
0.0089967
0.00949197
0.00997065
0.0104319
0.0108751
0.0113006
0.0117094
0.0121043
0.0124901
0.0128738
0.0132658
0.0136791
0.0141292
0.0146332
0.0152074
0.0158655
0.0166178
0.0174688
0.0184188
0.0194633
0.0205958
0.0218087
3.75535e-05
0.000160631
0.000270911
0.00045303
0.000683555
0.000955994
0.00126962
0.00162591
0.00202702
0.0024749
0.00296976
0.00350555
0.00407052
0.00465213
0.00524082
0.00582959
0.0064138
0.00699067
0.007558
0.00811428
0.00865778
0.00918726
0.00970111
0.0101979
0.0106765
0.0111359
0.0115757
0.0119961
0.0123988
0.0127868
0.0131655
0.0135427
0.0139297
0.0143405
0.0147919
0.0153017
0.015887
0.0165619
0.0173361
0.018214
0.0191946
0.0202716
0.0214348
3.82199e-05
0.0001621
0.000274544
0.000459132
0.000691999
0.000966602
0.00128236
0.00164059
0.00204325
0.00249229
0.00298864
0.00352832
0.00410088
0.00469419
0.00529754
0.00590321
0.0065059
0.00710175
0.00768842
0.00826399
0.00882692
0.00937555
0.00990831
0.0104237
0.0109202
0.0113966
0.011852
0.0122862
0.0126997
0.0130945
0.0134742
0.013845
0.0142158
0.0145988
0.0150095
0.0154657
0.0159862
0.0165882
0.017286
0.0180888
0.0189992
0.0200155
0.0211325
3.88745e-05
0.000163453
0.000278044
0.000465012
0.000700325
0.000977189
0.00129504
0.0016553
0.00205946
0.00250988
0.0030079
0.00355084
0.00413022
0.00473412
0.00535142
0.00597348
0.00659418
0.00720899
0.00781497
0.00841011
0.00899243
0.00956046
0.0101124
0.0106466
0.0111615
0.0116556
0.0121276
0.0125769
0.0130034
0.013408
0.0137933
0.0141636
0.014526
0.0148908
0.0152716
0.0156851
0.0161503
0.0166867
0.0173118
0.0180389
0.0188761
0.0198249
0.0208815
3.95651e-05
0.00016468
0.000281393
0.000470623
0.000708213
0.00098718
0.00130734
0.00166943
0.00207549
0.00252752
0.00302708
0.00357297
0.00415818
0.00477182
0.00540214
0.00603994
0.00667826
0.00731173
0.00793703
0.0085516
0.00915361
0.00974111
0.0103123
0.0108656
0.0113991
0.0119113
0.0124008
0.0128662
0.0133072
0.0137239
0.0141179
0.0144921
0.0148522
0.0152064
0.0155664
0.0159472
0.0163673
0.0168465
0.0174047
0.0180593
0.0188224
0.0197003
0.0206927
4.02901e-05
0.000165812
0.000284552
0.000475921
0.000715702
0.000996955
0.00131908
0.0016834
0.00209129
0.00254484
0.00304606
0.00359442
0.00418484
0.00480703
0.0054495
0.00610241
0.0067577
0.00740951
0.00805397
0.00868813
0.0093097
0.00991671
0.0105073
0.0110798
0.0116323
0.0121631
0.0126703
0.0131528
0.0136093
0.0140397
0.0144447
0.0148262
0.0151885
0.015538
0.0158846
0.0162415
0.0166258
0.0170569
0.0175559
0.0181426
0.0188335
0.0196396
0.0205653
4.10469e-05
0.00016687
0.000287597
0.00048101
0.000723031
0.00100625
0.00133058
0.00169683
0.00210646
0.00256176
0.00306452
0.00361523
0.00420998
0.00483977
0.0054934
0.00616049
0.00683229
0.00750225
0.0081657
0.00881912
0.00946024
0.0100868
0.0106969
0.0112888
0.0118604
0.0124098
0.0129354
0.0134352
0.0139083
0.0143535
0.0147713
0.0151625
0.0155304
0.0158799
0.0162192
0.0165596
0.0169165
0.0173082
0.0177561
0.0182814
0.018904
0.0196384
0.0204942
4.19295e-05
0.000167815
0.000290541
0.000486003
0.000729883
0.00101522
0.00134153
0.0017096
0.00212118
0.00257819
0.00308255
0.0036353
0.00423375
0.00487022
0.00553406
0.00621447
0.00690211
0.00758957
0.00827155
0.00894429
0.00960479
0.0102509
0.0108806
0.0114918
0.0120826
0.012651
0.013195
0.0137128
0.0142029
0.014664
0.0150957
0.0154987
0.0158747
0.0162279
0.0165646
0.0168946
0.0172314
0.0175919
0.0179967
0.0184678
0.0190269
0.0196924
0.0204769
4.29732e-05
0.000168684
0.000293283
0.000490609
0.000736482
0.00102374
0.00135194
0.00172196
0.00213538
0.00259409
0.00310014
0.00365465
0.00425612
0.00489856
0.00557155
0.00626436
0.00696696
0.00767149
0.00837178
0.00906333
0.00974329
0.0104089
0.011058
0.0116885
0.0122986
0.012886
0.0134488
0.0139848
0.0144923
0.0149699
0.0154167
0.0158328
0.0162191
0.0165787
0.0169167
0.0172413
0.0175641
0.0179005
0.01827
0.0186941
0.0191959
0.0197964
0.0205114
4.4341e-05
0.000169548
0.000296014
0.000495097
0.00074271
0.00103184
0.0013619
0.00173369
0.00214895
0.00260936
0.00311688
0.00367307
0.00427738
0.0049248
0.0056061
0.00631033
0.00702725
0.00774803
0.00846606
0.00917647
0.00987551
0.0105605
0.0112289
0.0118788
0.0125081
0.0131146
0.0136961
0.0142506
0.014776
0.0152706
0.0157333
0.0161635
0.0165617
0.0169299
0.0172723
0.0175954
0.0179094
0.018228
0.018569
0.0189535
0.0194045
0.0199449
0.0205938
4.60121e-05
0.000170414
0.000298621
0.000499439
0.000748786
0.00103958
0.00137129
0.00174492
0.00216188
0.00262382
0.00313293
0.00369074
0.00429743
0.0049492
0.00563778
0.00635268
0.00708294
0.00781931
0.00855478
0.00928336
0.0100014
0.0107055
0.0113931
0.0120624
0.0127109
0.0133364
0.0139368
0.0145098
0.0150532
0.0155653
0.0160444
0.0164896
0.016901
0.0172797
0.0176288
0.0179539
0.0182633
0.0185694
0.0188881
0.0192396
0.0196465
0.0201324
0.0207191
4.7688e-05
0.000171117
0.000300951
0.000503487
0.000754444
0.00104685
0.00138036
0.00175584
0.00217437
0.00263784
0.00314842
0.0037077
0.00431644
0.00497176
0.00566692
0.00639135
0.007134
0.00788551
0.00863761
0.00938424
0.0101208
0.0108438
0.0115507
0.0122391
0.0129067
0.0135513
0.0141706
0.0147621
0.0153238
0.0158535
0.0163495
0.0168105
0.0172359
0.0176264
0.0179843
0.018314
0.0186225
0.0189205
0.0192225
0.019547
0.0199162
0.0203537
0.0208829
4.89571e-05
0.000171649
0.00030329
0.000507389
0.000759794
0.00105383
0.00138899
0.00176605
0.00218606
0.00265107
0.00316297
0.00372375
0.00433423
0.00499281
0.0056934
0.00642635
0.00718092
0.00794676
0.00871507
0.00947912
0.0102339
0.0109756
0.0117015
0.012409
0.0130956
0.0137591
0.0143972
0.0150073
0.0155873
0.0161349
0.0166481
0.0171252
0.0175656
0.0179691
0.0183373
0.0186737
0.0189843
0.0192781
0.019568
0.0198713
0.0202088
0.0206043
0.0210827
4.97372e-05
0.000172004
0.000305373
0.000511002
0.000764877
0.00106033
0.00139704
0.00177555
0.00219717
0.00266363
0.0031769
0.00373905
0.00435109
0.00501228
0.00571763
0.00645832
0.00722393
0.00800307
0.00878692
0.00956788
0.0103406
0.011101
0.0118456
0.0125719
0.0132774
0.0139597
0.0146165
0.0152453
0.0158436
0.0164092
0.0169397
0.0174335
0.0178894
0.0183068
0.0186866
0.0190316
0.0193466
0.0196393
0.0199214
0.0202084
0.02052
0.0208795
0.0213127
5.02034e-05
0.000172316
0.000307497
0.000514515
0.000769749
0.00106658
0.00140472
0.00178471
0.0022079
0.00267574
0.00319036
0.00375367
0.00436708
0.00503045
0.00573985
0.00648755
0.00726287
0.00805483
0.00885346
0.00965085
0.0104413
0.0112197
0.0119828
0.0127278
0.013452
0.0141531
0.0148285
0.0154758
0.0160926
0.0166761
0.0172243
0.017735
0.0182068
0.0186388
0.0190313
0.0193863
0.0197078
0.0200022
0.0202799
0.020555
0.0208457
0.0211747
0.0215675
5.04881e-05
0.000172457
0.000309362
0.000517832
0.000774372
0.00107257
0.00141202
0.00179347
0.00221795
0.00268719
0.00320295
0.0037674
0.00438211
0.00504732
0.00576027
0.00651395
0.00729834
0.00810225
0.008915
0.00972847
0.0105357
0.011332
0.0121135
0.0128769
0.0136196
0.0143392
0.0150332
0.015699
0.0163339
0.0169356
0.0175014
0.0180293
0.0185174
0.0189646
0.0193706
0.0197369
0.0200664
0.020365
0.0206413
0.0209082
0.0211826
0.0214854
0.0218403
5.07256e-05
0.00017252
0.000311207
0.000520933
0.000778683
0.00107819
0.00141898
0.00180166
0.00222746
0.00269783
0.00321472
0.00378034
0.00439617
0.00506302
0.00577881
0.00653778
0.00733028
0.00814515
0.00897159
0.00980028
0.0106243
0.0114381
0.0122375
0.0130191
0.0137802
0.0145183
0.0152306
0.0159147
0.0165679
0.0171875
0.0177711
0.0183163
0.0188209
0.0192837
0.0197039
0.0200824
0.0204216
0.0207261
0.0210037
0.0212657
0.0215278
0.0218102
0.022138
5.09096e-05
0.00017246
0.00031286
0.000523773
0.000782678
0.0010834
0.00142541
0.00180937
0.00223634
0.00270794
0.00322598
0.00379239
0.00440923
0.00507738
0.00579578
0.00655934
0.00735904
0.00818414
0.0090233
0.00986682
0.0107071
0.011538
0.012355
0.0131546
0.0139339
0.0146902
0.0154207
0.0161229
0.0167943
0.0174319
0.0180332
0.0185957
0.0191171
0.0195958
0.0200308
0.0204224
0.0207723
0.0210844
0.0213653
0.0216252
0.0218782
0.0221426
0.0224387
5.10371e-05
0.000172358
0.000314343
0.000526426
0.000786371
0.00108823
0.00143145
0.00181651
0.00224467
0.00271729
0.00323632