/*--------------------------------*- C++ -*----------------------------------*\
| =========                 |                                                 |
| \\      /  F ield         | OpenFOAM: The Open Source CFD Toolbox           |
|  \\    /   O peration     | Version:  2.3.0                                 |
|   \\  /    A nd           | Web:      www.OpenFOAM.org                      |
|    \\/     M anipulation  |                                                 |
\*---------------------------------------------------------------------------*/
FoamFile
{
    version     2.0;
    format      ascii;
    class       volVectorField;
    location    "10000";
    object      U;
}
// * * * * * * * * * * * * * * * * * * * * * * * * * * * * * * * * * * * * * //

dimensions      [0 1 -1 0 0 0 0];

internalField   nonuniform List<vector> 
123144
(
(22.7472 24.6643 4.91043e-21)
(22.4772 25.0479 -2.02597e-21)
(22.1875 25.4425 1.29029e-20)
(21.8847 25.8391 1.42026e-20)
(21.5687 26.2358 -2.30465e-21)
(21.239 26.6324 -1.40762e-20)
(20.8956 27.0282 0)
(20.5377 27.4229 0)
(20.1649 27.8157 0)
(19.7767 28.2063 8.6686e-21)
(19.3727 28.5938 -9.98892e-21)
(18.9517 28.9768 1.13341e-20)
(18.5133 29.3544 0)
(18.0564 29.7248 5.05677e-20)
(17.5798 30.0859 -3.0791e-20)
(17.083 30.4363 -1.55648e-20)
(16.5651 30.7727 -9.3968e-21)
(16.0248 31.0921 1.02528e-20)
(15.4615 31.3906 -1.11511e-20)
(14.8744 31.6639 -2.18408e-20)
(14.2627 31.9069 0)
(13.6249 32.1134 0)
(12.9595 32.2765 2.04774e-19)
(12.2651 32.3891 -2.03678e-19)
(11.5389 32.4452 -7.94469e-21)
(10.777 32.437 1.19911e-19)
(9.97549 32.3574 4.88719e-21)
(9.12821 32.2014 4.94469e-21)
(8.22808 31.9632 -2.98779e-19)
(7.26456 31.6439 3.2419e-19)
(6.22539 31.2405 -1.60762e-19)
(5.09507 30.7539 0)
(3.85345 30.1913 0)
(2.47853 29.5591 4.24251e-20)
(0.944582 28.8632 -6.04673e-20)
(-0.772613 28.1082 1.01542e-21)
(-2.69495 27.3088 -2.68059e-20)
(-4.83759 26.4779 7.21809e-20)
(-7.20034 25.5987 -7.73842e-20)
(-9.76058 24.6414 9.91578e-22)
(-12.5242 23.7795 -1.91693e-21)
(-15.5699 23.3745 -4.0226e-21)
(-18.6128 22.7306 0)
(22.3336 24.4463 -2.60122e-21)
(22.0627 24.7935 1.55726e-21)
(21.7837 25.1446 -4.459e-21)
(21.495 25.4948 5.71638e-21)
(21.1956 25.8439 2.22468e-21)
(20.8846 26.192 6.21168e-21)
(20.5617 26.5392 1.65259e-21)
(20.2263 26.8853 -5.31818e-21)
(19.878 27.23 2.31196e-21)
(19.5162 27.5735 -9.09156e-21)
(19.1407 27.9156 9.88426e-21)
(18.7507 28.2554 -1.01969e-20)
(18.3452 28.5931 0)
(17.9231 28.9275 5.25004e-21)
(17.483 29.2583 0)
(17.0239 29.5853 2.18316e-20)
(16.5442 29.9072 -1.04958e-20)
(16.0425 30.2237 -1.31151e-20)
(15.517 30.5338 3.5764e-20)
(14.9658 30.8367 1.3167e-21)
(14.3872 31.1316 5.21986e-21)
(13.7789 31.4172 -2.92262e-20)
(13.1384 31.6916 -4.68029e-20)
(12.4637 31.9537 3.61422e-20)
(11.7527 32.2015 -8.49926e-21)
(11.0029 32.4322 -3.31444e-20)
(10.2115 32.6431 3.43612e-20)
(9.37701 32.8303 -3.5457e-20)
(8.49763 32.9904 3.46871e-20)
(7.57185 33.1168 0)
(6.59905 33.2027 1.88248e-21)
(5.57916 33.241 -1.39633e-20)
(4.51282 33.2199 0)
(3.40119 33.1294 1.37875e-20)
(2.24716 32.9499 -2.40577e-21)
(1.05565 32.6652 2.50744e-21)
(-0.165368 32.2537 0)
(-1.40616 31.6889 0)
(-2.65297 30.9446 0)
(-3.8794 29.9914 -7.03317e-22)
(-5.04352 28.8129 1.22124e-19)
(-6.09345 27.4042 -1.16111e-19)
(-6.96981 25.7297 0)
(21.9527 24.2431 1.46312e-21)
(21.6988 24.5474 -2.43822e-21)
(21.4324 24.8548 9.65807e-21)
(21.1558 25.1611 -5.19959e-21)
(20.8687 25.4662 -7.65648e-21)
(20.5709 25.7695 -5.16908e-21)
(20.2619 26.0712 2.46341e-21)
(19.9411 26.3712 1.13617e-20)
(19.6079 26.6692 -9.50224e-21)
(19.262 26.9654 -2.96203e-21)
(18.903 27.2598 1.06403e-21)
(18.5304 27.5521 -6.5289e-21)
(18.1435 27.8419 2.19916e-21)
(17.7413 28.1283 1.65594e-21)
(17.3227 28.4114 9.82816e-22)
(16.8865 28.6902 4.20675e-22)
(16.4313 28.9639 -1.71065e-21)
(15.956 29.2322 3.02084e-21)
(15.4593 29.4939 -1.62828e-21)
(14.9398 29.7482 -4.72458e-21)
(14.3959 29.9938 9.14398e-22)
(13.8258 30.2288 -5.3584e-21)
(13.2276 30.4521 5.49724e-21)
(12.5988 30.6605 4.58901e-21)
(11.9373 30.8517 -4.58605e-21)
(11.2408 31.0236 3.9733e-21)
(10.5061 31.1709 2.3399e-21)
(9.73152 31.2906 3.68645e-23)
(8.91423 31.3783 3.39714e-21)
(8.05268 31.4276 1.90525e-21)
(7.14552 31.4324 -1.39478e-20)
(6.19193 31.3852 6.20185e-21)
(5.19319 31.2795 0)
(4.15149 31.1054 -5.9473e-22)
(3.07244 30.8523 -9.96249e-21)
(1.96454 30.5103 0)
(0.841976 30.068 -1.52574e-20)
(-0.277829 29.5144 0)
(-1.36913 28.8404 3.65437e-20)
(-2.39841 28.0393 -3.73411e-20)
(-3.32537 27.1105 -9.66008e-20)
(-4.10456 26.0604 5.99049e-20)
(-4.69205 24.9111 -3.9358e-20)
(21.6363 24.041 3.525e-22)
(21.3909 24.3108 1.24218e-20)
(21.1376 24.5821 -2.31588e-20)
(20.8755 24.8524 -1.24219e-20)
(20.6042 25.1213 9.04337e-21)
(20.3233 25.3885 3.65225e-21)
(20.0326 25.6539 -2.15615e-20)
(19.7312 25.9175 7.04507e-21)
(19.4187 26.1789 -1.7116e-20)
(19.0943 26.4386 1.9822e-20)
(18.7578 26.6962 0)
(18.4088 26.9517 0)
(18.0471 27.2053 1.5215e-20)
(17.6718 27.4557 -1.53222e-20)
(17.2822 27.7029 -1.90332e-21)
(16.8768 27.9456 -1.78522e-21)
(16.4542 28.1835 7.0586e-21)
(16.0133 28.4159 0)
(15.553 28.6416 -4.10373e-21)
(15.0723 28.8604 5.96404e-21)
(14.5699 29.0707 0)
(14.0447 29.2715 1.92934e-20)
(13.4953 29.4611 -1.25701e-20)
(12.9203 29.6371 0)
(12.3184 29.7978 0)
(11.688 29.9402 7.90274e-21)
(11.0279 30.0607 0)
(10.337 30.1557 0)
(9.61457 30.2209 0)
(8.86021 30.2513 7.67621e-21)
(8.07447 30.2412 3.57291e-20)
(7.25825 30.1832 -3.25455e-20)
(6.41402 30.0697 -2.1748e-20)
(5.54509 29.8934 4.34364e-20)
(4.65663 29.6446 -1.32477e-20)
(3.75676 29.3148 0)
(2.85577 28.8961 2.50399e-20)
(1.96711 28.3821 -3.70209e-20)
(1.1081 27.7679 7.95864e-20)
(0.299919 27.0536 -2.55842e-20)
(-0.43508 26.2458 3.43656e-20)
(-1.07279 25.3578 1.52675e-19)
(-1.59227 24.4125 -2.9363e-19)
(21.3554 23.8476 -1.59696e-20)
(21.1246 24.0874 0)
(20.8858 24.3275 3.03819e-20)
(20.6385 24.5663 1.30699e-20)
(20.3825 24.804 0)
(20.1178 25.0404 0)
(19.8442 25.2752 1.18591e-20)
(19.5609 25.5081 -6.73189e-21)
(19.267 25.7389 1.23254e-20)
(18.9618 25.9674 -1.85202e-20)
(18.6449 26.1936 5.48231e-21)
(18.3157 26.4178 -1.28827e-20)
(17.974 26.64 5.31529e-21)
(17.62 26.86 1.29591e-20)
(17.2532 27.077 -1.3073e-20)
(16.8723 27.2898 0)
(16.476 27.4978 -5.33345e-21)
(16.0624 27.6998 2.82862e-20)
(15.6304 27.8951 -2.42827e-21)
(15.1797 28.0831 -6.67131e-20)
(14.7086 28.2624 3.14884e-20)
(14.2164 28.4322 -1.02004e-20)
(13.7019 28.5905 -7.14955e-21)
(13.1639 28.7349 -1.16839e-20)
(12.6016 28.8643 -2.18468e-20)
(12.0133 28.9755 2.68344e-20)
(11.3981 29.0653 -2.64644e-20)
(10.7552 29.1301 2.73345e-20)
(10.0841 29.166 0)
(9.38494 29.1693 2.9394e-20)
(8.65832 29.1349 -6.03637e-21)
(7.90663 29.0578 -3.42929e-20)
(7.1324 28.9312 4.11787e-20)
(6.33998 28.7479 -4.30993e-20)
(5.53493 28.5022 7.09268e-21)
(4.72429 28.1878 8.99511e-21)
(3.91832 27.7984 -3.1523e-20)
(3.12881 27.3296 3.47812e-20)
(2.37049 26.7809 2.89065e-20)
(1.65953 26.1534 -2.9888e-20)
(1.01358 25.4531 -3.35383e-20)
(0.448008 24.6924 -8.08997e-20)
(-0.0239712 23.8879 2.97289e-20)
(21.1115 23.6662 -1.98871e-20)
(20.8956 23.8793 0)
(20.6715 24.0924 -1.68556e-20)
(20.439 24.304 8.6896e-21)
(20.1978 24.515 1.12341e-21)
(19.9488 24.7257 0)
(19.6919 24.9354 0)
(19.4262 25.1434 -9.49274e-21)
(19.1506 25.3493 1.80228e-20)
(18.8646 25.5529 -8.56749e-21)
(18.5672 25.7542 -1.90429e-21)
(18.2576 25.9532 0)
(17.9353 26.1495 7.59266e-21)
(17.6007 26.3444 0)
(17.254 26.5375 0)
(16.8957 26.7278 0)
(16.5243 26.9134 -2.94034e-20)
(16.1363 27.0924 1.9192e-20)
(15.731 27.2656 1.99733e-20)
(15.3084 27.4317 -2.13932e-20)
(14.8668 27.5891 2.18296e-20)
(14.4053 27.7371 3.40517e-20)
(13.9232 27.8742 -2.44938e-20)
(13.4202 27.9986 3.89834e-20)
(12.8953 28.1083 1.39895e-21)
(12.3475 28.201 -6.11121e-20)
(11.7758 28.2736 0)
(11.1797 28.3225 -3.83047e-20)
(10.5592 28.3438 5.96423e-20)
(9.91397 28.3335 -4.35899e-20)
(9.24393 28.288 1.55884e-20)
(8.55277 28.2037 1.25597e-20)
(7.84342 28.0749 -3.08614e-20)
(7.12057 27.8955 -1.6639e-20)
(6.38824 27.6599 0)
(5.65339 27.3639 0)
(4.92466 27.0023 0)
(4.21199 26.5713 0)
(3.52588 26.0708 2.20574e-21)
(2.88024 25.5033 0)
(2.28874 24.8735 -7.45925e-20)
(1.76249 24.192 1.18164e-19)
(1.31197 23.4729 -1.22673e-19)
(20.9 23.4981 3.03717e-20)
(20.699 23.6867 1.64914e-20)
(20.4888 23.8763 -1.05337e-20)
(20.2705 24.0648 -3.89087e-21)
(20.043 24.2527 -3.24158e-21)
(19.808 24.4415 2.58441e-21)
(19.5661 24.63 1.60863e-20)
(19.3165 24.8171 4.34601e-21)
(19.0572 25.0026 -9.42378e-21)
(18.7886 25.1864 0)
(18.5096 25.368 9.43184e-21)
(18.2185 25.5468 1.11517e-20)
(17.9143 25.7219 0)
(17.5967 25.8948 0)
(17.266 26.0666 0)
(16.924 26.2385 -3.43314e-20)
(16.574 26.4072 1.00081e-20)
(16.2087 26.568 -4.73396e-22)
(15.8249 26.7235 1.31165e-20)
(15.4257 26.8731 1.2199e-20)
(15.0091 27.0134 -5.39725e-20)
(14.5727 27.144 2.79906e-20)
(14.1156 27.2643 0)
(13.6392 27.373 0)
(13.1427 27.4678 1.84003e-20)
(12.6255 27.5465 -2.07808e-20)
(12.0864 27.6056 -1.95395e-21)
(11.5244 27.6431 4.21218e-20)
(10.9419 27.6558 2.12326e-20)
(10.3388 27.637 -2.50061e-20)
(9.70944 27.5833 -5.6233e-20)
(9.05997 27.4944 0)
(8.39387 27.3652 -3.28801e-21)
(7.71819 27.191 -1.95743e-20)
(7.03549 26.965 2.01879e-20)
(6.35047 26.6847 0)
(5.67443 26.3473 -5.24305e-20)
(5.01454 25.9468 -2.90854e-20)
(4.37758 25.484 -6.31822e-20)
(3.7767 24.9626 -6.96082e-20)
(3.224 24.3848 7.07934e-20)
(2.72596 23.7591 7.98614e-20)
(2.29106 23.0993 -8.51914e-20)
(20.7173 23.3395 -1.16584e-20)
(20.5296 23.5075 -1.17956e-20)
(20.3318 23.6775 1.23373e-20)
(20.1278 23.8472 0)
(19.9131 24.0153 -1.45222e-21)
(19.6903 24.1848 -4.34125e-21)
(19.4617 24.3555 6.95259e-21)
(19.227 24.5259 -1.21162e-20)
(18.9821 24.6939 -2.3681e-20)
(18.7286 24.8616 2.37413e-20)
(18.4658 25.0275 -1.17427e-20)
(18.192 25.1913 6.78319e-22)
(17.9057 25.3512 0)
(17.6053 25.5062 2.45147e-20)
(17.2912 25.6579 -1.16234e-20)
(16.9578 25.8111 -1.37177e-20)
(16.6241 25.968 2.59536e-20)
(16.2815 26.1165 0)
(15.9146 26.2559 0)
(15.534 26.3933 1.38024e-20)
(15.1397 26.5221 0)
(14.7274 26.6396 0)
(14.2915 26.7458 -3.48671e-20)
(13.8369 26.8424 7.28333e-20)
(13.3626 26.9257 -5.63294e-20)
(12.8701 26.9948 -2.12115e-20)
(12.359 27.0449 2.18257e-20)
(11.8239 27.0737 -2.45914e-20)
(11.2681 27.082 4.99648e-20)
(10.707 27.0632 2.7481e-20)
(10.1139 27.0028 -2.58199e-21)
(9.49995 26.9105 3.46643e-20)
(8.86505 26.7817 3.5159e-20)
(8.2252 26.6135 4.11463e-20)
(7.58263 26.395 0)
(6.93214 26.1265 0)
(6.29268 25.8101 1.04584e-19)
(5.67333 25.4346 -7.30106e-20)
(5.06985 24.9998 7.66605e-20)
(4.49956 24.5154 6.81569e-20)
(3.977 23.9787 0)
(3.49959 23.3935 -7.7754e-20)
(3.07612 22.7756 8.29084e-20)
(20.5476 23.1798 0)
(20.3766 23.3389 1.24848e-20)
(20.1912 23.4934 -1.55507e-20)
(20.0044 23.6499 -1.01763e-20)
(19.8046 23.8014 0)
(19.5947 23.9545 0)
(19.3774 24.1098 -1.22239e-20)
(19.1588 24.2688 5.84833e-21)
(18.929 24.4215 3.19016e-20)
(18.6897 24.5761 -1.22488e-20)
(18.4414 24.729 0)
(18.1839 24.8816 -1.29031e-20)
(17.9182 25.0347 -1.22661e-22)
(17.6317 25.1799 3.95205e-20)
(17.3394 25.3142 -4.05704e-20)
(17.0137 25.4437 1.42592e-20)
(16.6891 25.5894 0)
(16.3719 25.7339 0)
(16.0194 25.8556 0)
(15.6521 25.9839 0)
(15.2737 26.1059 1.7371e-20)
(14.8875 26.217 0)
(14.4743 26.3106 -1.87728e-20)
(14.0427 26.3978 1.9368e-20)
(13.5891 26.4718 2.12269e-20)
(13.1157 26.5344 -2.17093e-20)
(12.6249 26.5787 0)
(12.1203 26.6018 2.58842e-20)
(11.5663 26.6008 -7.99637e-20)
(11.0304 26.5916 1.30644e-20)
(10.4545 26.5211 1.39124e-20)
(9.87602 26.4239 -3.40522e-20)
(9.26994 26.2913 1.95754e-20)
(8.65195 26.132 -6.01279e-20)
(8.05191 25.9235 0)
(7.43681 25.6596 0)
(6.82979 25.3636 -5.94059e-20)
(6.26143 25.0124 4.93768e-20)
(5.69157 24.5998 4.7266e-20)
(5.14807 24.1492 -9.90503e-20)
(4.6526 23.6486 3.6879e-20)
(4.1757 23.0929 4.24113e-20)
(3.75243 22.5025 -8.18127e-20)
(-20.2541 19.8771 1.81941e-21)
(-18.1806 18.2076 -3.33219e-19)
(-16.2365 16.7139 3.0438e-19)
(-14.529 15.6242 4.2858e-20)
(-12.9969 14.7813 0)
(-11.6157 14.1111 3.58432e-20)
(-10.3664 13.5656 -3.59076e-20)
(-9.23118 13.1217 1.05855e-18)
(-8.1992 12.7501 -1.07893e-18)
(-7.25867 12.4381 0)
(-6.39721 12.1712 0)
(-5.60646 11.9389 0)
(-4.87773 11.737 -1.11243e-18)
(-4.20424 11.5542 -7.30985e-20)
(-3.57891 11.3914 9.16077e-19)
(-2.99744 11.2424 9.56263e-19)
(-2.45503 11.1039 -8.6726e-19)
(-1.94575 10.9764 0)
(-1.46673 10.8574 0)
(-1.0143 10.7459 0)
(-0.585551 10.6398 0)
(-0.177474 10.5389 0)
(0.211934 10.4424 0)
(0.584237 10.3493 -8.35683e-19)
(0.941369 10.2586 -1.1829e-21)
(1.28459 10.1701 7.21766e-19)
(1.61515 10.0834 9.10295e-20)
(1.93412 9.99792 0)
(2.24264 9.91378 0)
(2.54114 9.83024 -7.87697e-19)
(2.83054 9.74727 6.07877e-19)
(3.11155 9.6648 -6.95893e-19)
(3.38462 9.58253 5.21483e-19)
(3.65025 9.50052 0)
(3.90894 9.41838 1.72964e-19)
(4.16104 9.33599 1.74512e-19)
(4.40684 9.25355 0)
(4.64666 9.17094 8.59897e-19)
(4.88073 9.08776 -1.19473e-18)
(5.10928 9.0042 1.68959e-18)
(5.33245 8.92043 -6.36722e-22)
(5.55088 8.83597 -1.30384e-18)
(5.76878 8.74361 3.1605e-19)
(-7.58988 23.8377 -1.44459e-20)
(-7.75753 22.0539 -4.99013e-19)
(-7.61824 20.5387 4.34719e-19)
(-7.29742 19.243 5.15221e-19)
(-6.86418 18.1355 -5.6529e-19)
(-6.36762 17.1864 1.09293e-18)
(-5.84057 16.3725 -1.12152e-18)
(-5.30189 15.6727 3.24261e-20)
(-4.76475 15.0689 -6.40516e-20)
(-4.23639 14.5468 6.28482e-20)
(-3.72272 14.0919 9.68183e-19)
(-3.22635 13.6935 -9.88944e-19)
(-2.74951 13.3411 5.91202e-20)
(-2.29284 13.0283 5.74375e-20)
(-1.85533 12.7483 9.07131e-19)
(-1.43608 12.4952 -9.28432e-19)
(-1.03358 12.2658 8.51377e-19)
(-0.647864 12.0549 -8.24448e-19)
(-0.277177 11.8607 0)
(0.0796237 11.6801 0)
(0.422909 11.5111 0)
(0.753943 11.3523 0)
(1.07332 11.202 -9.05039e-20)
(1.38183 11.0591 -5.42847e-19)
(1.68009 10.9226 7.11039e-19)
(1.96885 10.7918 0)
(2.24871 10.6661 6.94631e-19)
(2.52026 10.545 -6.88851e-19)
(2.78385 10.4275 -6.84418e-19)
(3.0402 10.3135 6.82054e-19)
(3.28949 10.2026 -1.69282e-19)
(3.53235 10.0945 8.41805e-20)
(3.76905 9.98876 1.69737e-19)
(3.99993 9.88522 0)
(4.22539 9.78349 3.39363e-19)
(4.44573 9.68339 -1.69253e-19)
(4.66109 9.58481 -6.78196e-19)
(4.87172 9.48734 -6.76194e-19)
(5.07777 9.39101 1.17819e-18)
(5.27949 9.29558 -5.02335e-19)
(5.47699 9.20101 0)
(5.6703 9.10713 3.25904e-19)
(5.85928 9.01283 0)
(-5.0588 23.7087 4.38322e-20)
(-5.20327 22.5138 2.47926e-20)
(-5.18133 21.3677 -2.46625e-20)
(-5.03189 20.2993 2.83774e-20)
(-4.78871 19.3203 2.95023e-20)
(-4.47935 18.4323 -4.05789e-19)
(-4.12274 17.6347 9.81346e-19)
(-3.73542 16.9215 -5.13535e-19)
(-3.33103 16.2847 6.05921e-20)
(-2.91983 15.7154 -5.97304e-20)
(-2.50773 15.2071 5.86116e-20)
(-2.10123 14.7502 -8.92245e-19)
(-1.7029 14.3385 8.60088e-19)
(-1.31442 13.9668 0)
(-0.937153 13.6293 8.31304e-19)
(-0.571591 13.3221 -8.03521e-19)
(-0.218489 13.0402 0)
(0.122345 12.7804 -4.8018e-20)
(0.451451 12.5406 -6.61521e-19)
(0.768666 12.3171 8.27627e-19)
(1.0748 12.1087 0)
(1.37046 11.9135 -8.83936e-20)
(1.65591 11.7297 1.47838e-21)
(1.93174 11.5558 -8.70475e-20)
(2.19882 11.3912 6.80147e-19)
(2.45743 11.2346 -6.71231e-19)
(2.70822 11.0854 0)
(2.95154 10.9424 6.61458e-19)
(3.18803 10.8055 -1.31504e-18)
(3.41794 10.6735 7.37419e-19)
(3.64176 10.5463 8.17837e-19)
(3.85977 10.4232 -5.27185e-22)
(4.0725 10.3039 -5.7226e-19)
(4.28032 10.1881 -1.6298e-19)
(4.48336 10.0752 1.64704e-19)
(4.68179 9.96494 8.21424e-19)
(4.87585 9.85709 -6.57195e-19)
(5.06567 9.7513 1.63671e-19)
(5.25141 9.64753 0)
(5.43329 9.54555 -1.63575e-19)
(5.61153 9.4452 0)
(5.78623 9.34614 0)
(5.95637 9.25152 -3.08019e-19)
(-1.98048 23.4373 1.31367e-19)
(-2.23827 22.4582 -4.83624e-20)
(-2.37712 21.4994 4.94684e-20)
(-2.41138 20.5812 0)
(-2.35848 19.7162 0)
(-2.23448 18.9117 -5.16378e-19)
(-2.05503 18.1701 3.92787e-19)
(-1.83412 17.4906 5.67323e-20)
(-1.58348 16.8704 0)
(-1.31246 16.3056 -4.54264e-19)
(-1.02797 15.7917 -7.60684e-21)
(-0.736667 15.3231 4.85525e-19)
(-0.441856 14.8959 -4.81035e-19)
(-0.146933 14.5055 -4.22779e-19)
(0.145551 14.1477 -7.61465e-21)
(0.43369 13.8189 7.90063e-19)
(0.716409 13.5155 -7.77174e-19)
(0.993172 13.2351 1.5603e-18)
(1.26319 12.9744 -1.66352e-18)
(1.52644 12.7316 1.35662e-18)
(1.78265 12.5046 9.08498e-20)
(2.03196 12.2918 8.96909e-20)
(2.27434 12.0913 -1.2825e-18)
(2.51006 11.9022 7.5644e-19)
(2.73951 11.7233 -6.65134e-19)
(2.96286 11.5535 6.56308e-19)
(3.18033 11.3917 -6.51078e-19)
(3.39234 11.2374 6.44849e-19)
(3.59898 11.0898 0)
(3.80046 10.9481 5.59879e-19)
(3.99706 10.8118 -7.96487e-19)
(4.1893 10.6808 -7.98771e-20)
(4.37736 10.5543 6.36491e-19)
(4.56144 10.4316 -4.77576e-19)
(4.7417 10.3126 0)
(4.91815 10.1968 -3.19963e-19)
(5.0909 10.0839 3.20459e-19)
(5.25997 9.97359 -1.6082e-19)
(5.42557 9.8659 3.20187e-19)
(5.58785 9.76075 -3.18972e-19)
(5.74702 9.6578 0)
(5.90302 9.55686 -3.12833e-19)
(6.05315 9.46488 4.55873e-19)
(-0.393877 23.0575 -1.19518e-20)
(-0.664125 22.2169 3.57998e-20)
(-0.839795 21.3825 1.9324e-19)
(-0.927507 20.5707 0)
(-0.938543 19.7937 0)
(-0.884912 19.0598 0)
(-0.779091 18.3723 5.00543e-19)
(-0.63107 17.7333 -8.79102e-19)
(-0.450862 17.1418 4.32583e-19)
(-0.246519 16.5971 0)
(-0.0253779 16.095 0)
(0.207158 15.6332 4.23642e-19)
(0.447254 15.208 -7.22656e-19)
(0.69123 14.8165 3.01455e-19)
(0.935973 14.4549 3.9792e-19)
(1.18002 14.1207 -3.85256e-19)
(1.42192 13.8112 9.42301e-20)
(1.6601 13.5232 0)
(1.89424 13.2551 4.54164e-19)
(2.12377 13.0045 -4.41891e-19)
(2.34786 12.7695 -8.74571e-20)
(2.56688 12.5489 -3.41911e-19)
(2.7803 12.341 3.34976e-19)
(2.98844 12.1449 -8.30512e-20)
(3.19163 11.9595 0)
(3.38991 11.7834 0)
(3.5833 11.6159 -7.94357e-20)
(3.77209 11.4561 7.87816e-20)
(3.9562 11.3033 3.14507e-19)
(4.13581 11.157 -2.34093e-19)
(4.31129 11.0168 1.55982e-19)
(4.48318 10.8822 -3.89231e-19)
(4.65163 10.7524 2.33197e-19)
(4.81671 10.6268 0)
(4.97835 10.5051 -7.78096e-20)
(5.13646 10.3869 0)
(5.29111 10.2718 0)
(5.44241 10.1599 3.13802e-19)
(5.5905 10.0509 -6.27243e-19)
(5.73553 9.94485 3.12868e-19)
(5.87773 9.84123 1.55148e-19)
(6.01706 9.73989 -1.53619e-19)
(6.14943 9.64837 -1.48286e-19)
(0.943751 22.7293 4.52939e-20)
(0.658845 21.974 0)
(0.454082 21.22 4.97841e-20)
(0.325318 20.4805 0)
(0.265857 19.7666 0)
(0.26585 19.0857 4.88317e-19)
(0.316147 18.4418 -4.25177e-19)
(0.408011 17.8373 0)
(0.533065 17.2732 4.35235e-19)
(0.683596 16.7484 -8.53313e-19)
(0.853904 16.2618 3.12576e-19)
(1.03838 15.8106 -1.55241e-19)
(1.233 15.3926 -5.10359e-20)
(1.43374 15.0049 -3.00908e-19)
(1.63791 14.6457 2.91114e-19)
(1.84407 14.3122 3.83413e-19)
(2.05037 14.002 -9.08606e-20)
(2.2552 13.7125 -4.5513e-19)
(2.45797 13.4423 8.90552e-20)
(2.65773 13.1889 -2.63245e-19)
(2.8536 12.9512 3.42576e-19)
(3.04546 12.7275 -3.37727e-19)
(3.23335 12.517 3.30691e-19)
(3.41722 12.3183 0)
(3.59757 12.1305 8.01118e-20)
(3.77406 11.952 7.91523e-20)
(3.94655 11.7823 1.57172e-19)
(4.11502 11.6202 -7.81422e-20)
(4.27935 11.4655 -3.09571e-19)
(4.43969 11.3177 3.84154e-19)
(4.59674 11.1765 -7.68905e-20)
(4.75116 11.0411 4.64468e-22)
(4.90297 10.9106 7.62111e-20)
(5.05164 10.7843 0)
(5.19699 10.662 3.83218e-19)
(5.33905 10.5432 7.6708e-20)
(5.47776 10.428 -3.0736e-19)
(5.61343 10.3162 0)
(5.74611 10.2076 0)
(5.87596 10.1021 2.30302e-19)
(6.00338 9.99966 -3.06295e-19)
(6.12936 9.90012 1.52076e-19)
(6.25405 9.80638 2.64574e-22)
(1.92642 22.4173 -1.34479e-19)
(1.63726 21.7232 9.4468e-20)
(1.41856 21.027 -3.46787e-19)
(1.26743 20.3414 4.03453e-19)
(1.17911 19.6757 -9.61628e-20)
(1.14661 19.037 -2.58645e-19)
(1.16373 18.4298 0)
(1.2201 17.8555 0)
(1.30895 17.3161 0)
(1.42354 16.8113 0)
(1.55926 16.3406 -3.12436e-19)
(1.71062 15.9018 5.05626e-19)
(1.87285 15.4925 0)
(2.04209 15.1118 0)
(2.21666 14.7583 9.63638e-20)
(2.39504 14.429 -9.37574e-20)
(2.5751 14.1215 9.17731e-20)
(2.75511 13.8342 9.04146e-20)
(2.93409 13.5649 -5.56627e-22)
(3.11096 13.312 8.62443e-20)
(3.28452 13.0742 3.39913e-19)
(3.45516 12.8509 -3.32177e-19)
(3.6229 12.6408 3.27826e-19)
(3.78798 12.4427 -6.44119e-19)
(3.9508 12.255 2.37434e-19)
(4.10985 12.0763 -7.86448e-20)
(4.26539 11.9062 -7.77708e-20)
(4.41727 11.7439 2.30973e-19)
(4.5649 11.589 -3.04631e-19)
(4.70921 11.442 2.27372e-19)
(4.85136 11.3019 4.2261e-22)
(4.99207 11.1676 -2.25424e-19)
(5.13039 11.0375 3.0052e-19)
(5.2651 10.9117 -6.01463e-19)
(5.39644 10.7902 3.00942e-19)
(5.52482 10.6723 -7.55788e-20)
(5.64983 10.5581 2.26402e-19)
(5.77198 10.4476 -1.51247e-19)
(5.89117 10.3405 0)
(6.00752 10.2367 -7.5779e-20)
(6.12122 10.1367 -7.51826e-20)
(6.23338 10.0412 1.49786e-19)
(6.34483 9.94911 7.44721e-20)
(2.71224 22.1389 8.76728e-20)
(2.42306 21.491 9.68938e-20)
(2.19592 20.8383 1.03431e-19)
(2.0296 20.1928 -1.93592e-19)
(1.92146 19.5642 2.04513e-19)
(1.86563 18.9595 -9.90855e-20)
(1.86091 18.3809 0)
(1.89003 17.8326 3.11576e-19)
(1.95286 17.3147 -3.05937e-19)
(2.0402 16.8274 0)
(2.14991 16.3711 0)
(2.2758 15.9437 0)
(2.41279 15.5419 9.92327e-20)
(2.55616 15.1706 -1.91047e-19)
(2.70823 14.8241 2.83354e-19)
(2.86526 14.4999 8.57149e-22)
(3.02429 14.1966 9.092e-20)
(3.18448 13.9125 -1.7669e-19)
(3.34414 13.645 -8.71392e-20)
(3.50194 13.3942 -8.54443e-20)
(3.65655 13.1579 0)
(3.80968 12.9371 0)
(3.96137 12.7296 0)
(4.11147 12.5336 0)
(4.26043 12.3458 0)
(4.40377 12.1676 -2.32837e-19)
(4.54549 11.9984 3.0565e-19)
(4.68388 11.8373 7.59639e-20)
(4.81706 11.6843 -7.49487e-20)
(4.94808 11.5395 -2.24572e-19)
(5.07876 11.402 5.20139e-19)
(5.20906 11.2691 -1.48169e-19)
(5.3358 11.1395 -7.41909e-20)
(5.45816 11.015 0)
(5.57772 10.8956 0)
(5.69485 10.7797 7.40086e-20)
(5.80779 10.6668 -7.44617e-20)
(5.91829 10.5582 0)
(6.02591 10.4534 0)
(6.13057 10.3511 0)
(6.23207 10.2533 -2.22875e-23)
(6.33237 10.1596 7.39362e-20)
(6.43336 10.0686 0)
(3.37887 21.9004 0)
(3.0896 21.2859 0)
(2.84063 20.6652 0)
(2.65769 20.0485 -1.35252e-21)
(2.53505 19.4474 4.02018e-19)
(2.46352 18.8709 -2.98043e-19)
(2.44568 18.3101 0)
(2.43958 17.7878 -1.01807e-19)
(2.48566 17.2876 1.01435e-19)
(2.55332 16.8151 0)
(2.64727 16.3699 -1.97048e-19)
(2.753 15.9547 -9.56908e-20)
(2.86957 15.5583 4.70458e-19)
(2.98776 15.2044 -1.88132e-19)
(3.12839 14.8609 -9.19329e-20)
(3.26865 14.5424 -9.10368e-20)
(3.41061 14.2436 -1.78689e-19)
(3.5555 13.9625 1.72804e-19)
(3.69986 13.696 0)
(3.84104 13.4509 -1.68271e-19)
(3.98039 13.2162 1.64962e-19)
(4.11952 13.0016 0)
(4.25828 12.7969 0)
(4.39734 12.6011 0)
(4.53698 12.4099 0)
(4.66615 12.2375 -1.50277e-19)
(4.80094 12.0714 0)
(4.92473 11.9141 0)
(5.04325 11.762 7.50193e-20)
(5.16328 11.6197 7.45145e-20)
(5.28531 11.4839 -2.95273e-19)
(5.40791 11.3507 0)
(5.52413 11.2223 0)
(5.63458 11.1015 -7.32052e-20)
(5.74332 10.9852 -1.47144e-19)
(5.8502 10.87 -1.51722e-22)
(5.95102 10.7569 0)
(6.0518 10.6515 0)
(6.149 10.5503 0)
(6.24336 10.4482 0)
(6.33442 10.3526 -1.05826e-22)
(6.42765 10.2581 1.33696e-22)
(6.53035 10.1527 0)
(10.1809 -2.45979 1.49313e-22)
(9.85724 -2.44226 -4.81745e-20)
(9.5441 -2.4247 1.01462e-21)
(9.24038 -2.40836 5.01155e-20)
(8.94583 -2.3925 0)
(8.66012 -2.37704 2.71833e-23)
(8.38293 -2.36192 -5.39823e-20)
(8.1139 -2.34708 -5.47433e-20)
(7.85267 -2.33246 5.64358e-20)
(7.59887 -2.318 -5.62792e-20)
(7.35218 -2.30369 8.68357e-20)
(7.11228 -2.28951 0)
(6.87892 -2.27545 4.86658e-22)
(6.6519 -2.26152 -2.55265e-19)
(6.43102 -2.24772 2.97081e-19)
(6.21617 -2.23403 2.73446e-19)
(6.0072 -2.22045 -2.49734e-19)
(5.80399 -2.20697 3.32499e-19)
(5.60643 -2.19357 -3.10762e-19)
(5.41442 -2.18026 -4.05309e-20)
(5.22784 -2.16702 -2.09733e-20)
(5.0466 -2.15386 3.83155e-19)
(4.87058 -2.14079 -4.88303e-20)
(4.6997 -2.12782 -3.82762e-19)
(4.53382 -2.11498 -2.71414e-20)
(4.37287 -2.10231 -2.03154e-19)
(4.21674 -2.08986 2.50832e-19)
(4.06533 -2.07772 3.03881e-19)
(3.91854 -2.06593 -2.94167e-19)
(3.77631 -2.05461 3.19612e-19)
(3.63852 -2.04384 -3.5162e-19)
(3.50512 -2.03368 4.09957e-19)
(3.37607 -2.02416 -4.02883e-19)
(3.25145 -2.01519 0)
(3.1315 -2.00642 0)
(3.01696 -1.99696 -1.13873e-19)
(2.91006 -1.98478 4.91581e-20)
(2.81718 -1.96551 -6.2277e-21)
(2.75757 -1.93045 5.8428e-20)
(2.79326 -1.86296 5.08824e-19)
(3.1368 -1.73277 -7.24338e-19)
(4.52757 -1.55991 1.65874e-18)
(10.0843 -1.45666 -1.67249e-18)
(10.1266 -2.47463 -4.67794e-20)
(9.83078 -2.46038 0)
(9.54424 -2.44595 -3.76548e-20)
(9.26561 -2.43247 -1.28159e-20)
(8.99449 -2.41955 5.22721e-20)
(8.7305 -2.40707 5.28924e-20)
(8.47336 -2.39497 -1.07654e-19)
(8.22279 -2.38317 -5.47903e-20)
(7.97847 -2.37157 -5.50104e-20)
(7.74008 -2.36011 1.13037e-19)
(7.50729 -2.34871 8.60775e-20)
(7.2798 -2.33738 -2.35726e-19)
(7.05731 -2.32613 6.02975e-20)
(6.83962 -2.315 -1.55544e-19)
(6.62655 -2.30401 2.56718e-19)
(6.41795 -2.29317 -1.33052e-19)
(6.21371 -2.28249 -6.9393e-20)
(6.01368 -2.27198 0)
(5.81778 -2.26164 0)
(5.62592 -2.25148 3.94642e-20)
(5.438 -2.24152 -1.65351e-19)
(5.25391 -2.23175 -2.14261e-20)
(5.0736 -2.22218 2.08606e-19)
(4.89695 -2.21281 2.21469e-19)
(4.72388 -2.20363 -2.10622e-19)
(4.5543 -2.19466 -2.81327e-19)
(4.38817 -2.18588 2.42394e-19)
(4.2254 -2.17728 -3.26201e-20)
(4.066 -2.1688 0)
(3.91004 -2.16034 0)
(3.75766 -2.15168 2.10799e-19)
(3.60927 -2.14244 -3.23469e-19)
(3.46572 -2.13197 2.04283e-19)
(3.32869 -2.11913 0)
(3.20165 -2.10186 0)
(3.09183 -2.07665 3.49261e-20)
(3.01502 -2.03738 0)
(3.00655 -1.97343 4.39022e-20)
(3.14633 -1.8682 -1.48898e-19)
(3.6173 -1.70342 -4.56368e-19)
(4.85749 -1.48823 5.64148e-20)
(7.95085 -1.36651 6.00945e-19)
(15.4934 -1.66556 0)
(10.0735 -2.48578 -1.45517e-19)
(9.79985 -2.47247 -1.08505e-22)
(9.53341 -2.45905 -6.36001e-20)
(9.27337 -2.44637 1.93438e-20)
(9.0194 -2.43425 -3.2519e-20)
(8.77117 -2.42264 -2.65574e-20)
(8.52846 -2.41152 5.35008e-20)
(8.29108 -2.40079 5.42553e-20)
(8.05879 -2.39037 0)
(7.83135 -2.38014 0)
(7.60846 -2.37001 0)
(7.38979 -2.35994 -2.95291e-20)
(7.17504 -2.34994 -9.03384e-20)
(6.96396 -2.3401 1.54676e-19)
(6.75639 -2.33049 -3.20833e-20)
(6.55223 -2.32115 -3.31859e-20)
(6.35138 -2.31209 3.39842e-20)
(6.15373 -2.3033 1.06528e-19)
(5.95917 -2.29478 -1.49111e-19)
(5.76761 -2.28654 -1.55831e-19)
(5.57899 -2.27858 1.64306e-19)
(5.39327 -2.27089 1.72884e-19)
(5.21038 -2.26341 -1.83543e-19)
(5.03028 -2.25609 1.70324e-19)
(4.85292 -2.24885 -2.08292e-19)
(4.67827 -2.2416 -3.77473e-22)
(4.50637 -2.23422 2.68294e-19)
(4.33731 -2.22653 -2.57543e-19)
(4.17134 -2.21826 0)
(4.00891 -2.20901 -3.80119e-20)
(3.85086 -2.19812 -4.08749e-20)
(3.6987 -2.1846 -2.69957e-19)
(3.55518 -2.16687 2.4782e-19)
(3.42532 -2.14241 1.08868e-19)
(3.31852 -2.10719 -1.206e-19)
(3.25274 -2.05491 -6.72528e-20)
(3.26271 -1.9758 0)
(3.41527 -1.85659 4.05737e-20)
(3.84014 -1.6822 -9.23859e-20)
(4.79872 -1.44586 0)
(6.82331 -1.19267 0)
(11.021 -1.09602 0)
(18.7702 -1.58302 0)
(10.0256 -2.49416 4.94415e-20)
(9.77247 -2.48161 -2.50959e-22)
(9.52479 -2.46911 5.73698e-20)
(9.28215 -2.45723 5.21001e-20)
(9.04427 -2.44587 -6.58394e-21)
(8.81086 -2.43503 2.67327e-20)
(8.5818 -2.42474 -8.09056e-20)
(8.35694 -2.41495 5.46872e-20)
(8.13616 -2.40556 -5.53295e-20)
(7.91929 -2.39643 5.63764e-20)
(7.70612 -2.38737 -1.14519e-19)
(7.49629 -2.37825 2.63301e-19)
(7.28934 -2.36903 -1.5015e-19)
(7.08496 -2.35983 0)
(6.88294 -2.35081 3.1551e-20)
(6.68324 -2.34208 3.26064e-20)
(6.48582 -2.33366 -3.416e-20)
(6.2906 -2.32551 3.51831e-20)
(6.09747 -2.31759 0)
(5.90632 -2.30991 3.88909e-20)
(5.71714 -2.3025 0)
(5.5299 -2.29535 -1.71397e-19)
(5.34469 -2.2884 3.63344e-19)
(5.16157 -2.28148 2.37456e-20)
(4.9806 -2.2744 -3.85769e-19)
(4.80185 -2.26693 2.79255e-20)
(4.62546 -2.25883 -2.87216e-20)
(4.45183 -2.24975 2.86565e-19)
(4.28159 -2.23916 -3.45459e-20)
(4.11581 -2.22629 3.70242e-20)
(3.95626 -2.20999 0)
(3.80597 -2.18859 4.39655e-20)
(3.67015 -2.15956 -1.93694e-19)
(3.55789 -2.11915 1.60045e-19)
(3.48537 -2.06176 5.84867e-20)
(3.48136 -1.97926 -9.43504e-22)
(3.59664 -1.86108 -7.06666e-20)
(3.92095 -1.69515 -3.91371e-20)
(4.61804 -1.47199 2.17726e-19)
(5.99017 -1.20117 0)
(8.59084 -0.953018 3.33221e-19)
(13.4256 -0.918621 2.3136e-19)
(20.9791 -1.48402 1.8401e-20)
(9.98294 -2.50067 -2.53203e-20)
(9.7485 -2.48867 -2.54082e-20)
(9.518 -2.47693 2.58518e-20)
(9.29128 -2.46577 -4.87947e-20)
(9.06817 -2.45499 -2.98118e-20)
(8.84822 -2.44462 -2.66182e-20)
(8.63142 -2.43484 2.69161e-20)
(8.41774 -2.4256 0)
(8.20712 -2.41688 -2.78211e-20)
(7.99958 -2.40856 5.62047e-20)
(7.79504 -2.40037 -1.46415e-22)
(7.59324 -2.39198 -5.84975e-20)
(7.39355 -2.3832 8.94603e-20)
(7.19544 -2.37411 6.11129e-20)
(6.99851 -2.36499 -1.2647e-19)
(6.8028 -2.35617 -1.30328e-19)
(6.60844 -2.34774 1.69095e-19)
(6.41551 -2.33958 -1.40522e-19)
(6.22391 -2.33155 2.93695e-19)
(6.03342 -2.32361 -1.53634e-19)
(5.84393 -2.31582 -4.06072e-20)
(5.6555 -2.30828 1.70314e-19)
(5.46836 -2.30095 -2.26049e-19)
(5.28286 -2.29364 -2.38394e-20)
(5.09924 -2.28592 -1.01999e-19)
(4.91769 -2.27737 1.36767e-19)
(4.73844 -2.26756 0)
(4.56218 -2.25604 -3.13456e-20)
(4.39009 -2.24206 -6.78854e-20)
(4.22399 -2.22449 1.1054e-19)
(4.06671 -2.20169 0)
(3.92294 -2.17132 0)
(3.80043 -2.13005 4.74122e-20)
(3.71224 -2.07312 -5.18857e-20)
(3.68052 -1.99394 5.75095e-20)
(3.74271 -1.88403 6.20827e-20)
(3.96133 -1.73354 0)
(4.44308 -1.53282 7.61849e-20)
(5.37262 -1.27898 -1.68665e-19)
(7.07069 -0.99539 0)
(10.0867 -0.768356 2.39908e-21)
(15.2749 -0.800951 0)
(22.5494 -1.40446 0)
(9.94429 -2.50348 -5.03324e-20)
(9.72692 -2.49306 5.12215e-20)
(9.51204 -2.4823 -2.58559e-20)
(9.29975 -2.47202 0)
(9.09023 -2.46183 3.97827e-20)
(8.88252 -2.45171 4.01614e-20)
(8.67681 -2.44219 -2.7095e-20)
(8.47315 -2.4332 -2.73475e-20)
(8.27146 -2.4248 -5.02109e-24)
(8.072 -2.41702 5.63517e-20)
(7.87496 -2.40963 0)
(7.68045 -2.40208 0)
(7.48768 -2.39382 0)
(7.29583 -2.38471 3.07185e-20)
(7.10384 -2.37505 0)
(6.91171 -2.36559 6.49541e-20)
(6.71991 -2.35668 -6.74464e-20)
(6.52892 -2.34822 -3.51791e-20)
(6.339 -2.33979 0)
(6.14951 -2.33109 -3.80822e-20)
(5.96014 -2.32227 1.20281e-19)
(5.7708 -2.31351 -1.26922e-19)
(5.58182 -2.30505 4.48458e-20)
(5.39421 -2.29681 9.53258e-20)
(5.20856 -2.28811 0)
(5.02535 -2.27813 -2.69685e-20)
(4.8445 -2.26609 -1.16058e-19)
(4.66682 -2.25159 1.25108e-19)
(4.49426 -2.23384 -3.35339e-20)
(4.3295 -2.21135 -3.65325e-22)
(4.17657 -2.18203 7.90378e-20)
(4.04176 -2.143 -1.49472e-22)
(3.93532 -2.09028 -9.3914e-20)
(3.87387 -2.01835 5.14878e-20)
(3.88429 -1.92008 -5.55355e-20)
(4.01025 -1.78742 0)