/*--------------------------------*- C++ -*----------------------------------*\
| =========                 |                                                 |
| \\      /  F ield         | OpenFOAM: The Open Source CFD Toolbox           |
|  \\    /   O peration     | Version:  2.3.0                                 |
|   \\  /    A nd           | Web:      www.OpenFOAM.org                      |
|    \\/     M anipulation  |                                                 |
\*---------------------------------------------------------------------------*/
FoamFile
{
    version     2.0;
    format      ascii;
    class       volScalarField;
    location    "450";
    object      nuTilda;
}
// * * * * * * * * * * * * * * * * * * * * * * * * * * * * * * * * * * * * * //

dimensions      [0 2 -1 0 0 0 0];

internalField   nonuniform List<scalar> 
28256
(
0.0142912
0.012621
0.0111789
0.00994897
0.00890999
0.0080434
0.00732953
0.00675393
0.00630197
0.00595278
0.005689
0.00548873
0.00533241
0.00520005
0.00507677
0.00494558
0.00479975
0.00462988
0.00444069
0.00421602
0.015112
0.0136
0.0123256
0.011266
0.0104011
0.00971039
0.00917298
0.00877355
0.00849019
0.0083041
0.00819587
0.00814699
0.00814172
0.00816524
0.00820694
0.00825413
0.00830791
0.00835584
0.00839858
0.00843409
0.0160076
0.0146648
0.0135626
0.0126767
0.0119828
0.0114577
0.0110799
0.0108266
0.0106734
0.0105997
0.0105872
0.0106186
0.0106766
0.0107526
0.0108359
0.0109185
0.0109955
0.0110677
0.0111242
0.0111635
0.0169589
0.0157901
0.0148565
0.014133
0.0135945
0.0132142
0.0129671
0.0128282
0.0127716
0.0127798
0.0128353
0.0129201
0.0130216
0.0131323
0.013242
0.0133493
0.0134463
0.0135283
0.0135948
0.0136448
0.0179564
0.0169541
0.0161766
0.0155999
0.015195
0.0149333
0.0147891
0.0147363
0.014753
0.0148199
0.014921
0.0150435
0.0151759
0.0153106
0.0154413
0.0155638
0.0156722
0.015766
0.0158425
0.0158966
0.0189854
0.0181375
0.0175009
0.0170505
0.0167557
0.0165886
0.0165221
0.0165338
0.0166024
0.0167095
0.0168425
0.0169911
0.0171439
0.017294
0.0174375
0.0175703
0.0176882
0.0177917
0.0178726
0.0179339
0.0200334
0.0193246
0.0188106
0.0184645
0.0182574
0.0181622
0.0181538
0.0182103
0.0183134
0.0184471
0.0186016
0.0187644
0.0189294
0.0190895
0.0192411
0.0193812
0.0195063
0.0196128
0.0196996
0.0197646
0.0210918
0.020502
0.0200899
0.0198286
0.0196896
0.0196473
0.0196789
0.0197647
0.0198882
0.0200379
0.0202023
0.0203726
0.0205432
0.0207077
0.0208636
0.0210062
0.0211331
0.0212429
0.0213333
0.0214
0.0221534
0.0216612
0.0213323
0.0211371
0.0210472
0.0210412
0.0210983
0.0212005
0.0213345
0.02149
0.0216565
0.021828
0.0219978
0.0221618
0.0223167
0.0224585
0.0225861
0.0226965
0.0227866
0.0228558
0.0232017
0.0227945
0.0225314
0.0223845
0.0223293
0.0223456
0.0224155
0.0225244
0.0226603
0.0228134
0.0229762
0.0231425
0.0233069
0.0234659
0.023616
0.0237544
0.0238791
0.023987
0.0240766
0.0241453
0.0242272
0.023893
0.0236814
0.02357
0.0235372
0.0235645
0.0236382
0.0237454
0.0238757
0.0240204
0.0241737
0.0243303
0.0244853
0.0246352
0.024777
0.0249091
0.0250275
0.0251315
0.0252182
0.0252861
0.0252237
0.0249525
0.0247814
0.0246952
0.0246746
0.0247052
0.0247752
0.024874
0.0249922
0.0251238
0.0252635
0.0254067
0.0255481
0.0256854
0.0258171
0.025939
0.0260498
0.0261475
0.0262295
0.0262946
0.0262014
0.0259748
0.0258338
0.0257629
0.0257469
0.0257741
0.0258345
0.0259198
0.0260225
0.0261372
0.0262596
0.0263854
0.0265104
0.0266333
0.0267512
0.0268614
0.0269621
0.0270512
0.0271271
0.0271876
0.0271534
0.0269613
0.0268401
0.0267764
0.0267593
0.0267782
0.0268255
0.0268939
0.0269779
0.0270727
0.027175
0.0272812
0.0273885
0.0274947
0.0275966
0.0276929
0.0277814
0.0278603
0.0279284
0.0279837
0.0280739
0.0279108
0.0278034
0.0277422
0.027719
0.0277262
0.027757
0.0278061
0.0278697
0.0279433
0.0280244
0.0281096
0.0281971
0.0282843
0.0283691
0.0284498
0.0285245
0.0285924
0.0286511
0.0286994
0.0289695
0.0288267
0.0287271
0.0286645
0.0286324
0.0286255
0.0286383
0.0286674
0.0287091
0.0287609
0.0288198
0.0288828
0.0289493
0.0290168
0.0290834
0.0291475
0.0292082
0.0292632
0.0293116
0.0293522
0.0298432
0.0297119
0.0296153
0.0295482
0.0295059
0.0294841
0.0294787
0.0294871
0.0295071
0.0295364
0.0295723
0.0296134
0.0296587
0.0297062
0.029754
0.0298012
0.0298465
0.0298883
0.0299259
0.0299576
0.0306881
0.0305668
0.0304715
0.0303988
0.0303452
0.0303082
0.030285
0.0302739
0.0302726
0.0302797
0.0302935
0.0303131
0.0303372
0.0303648
0.030394
0.030424
0.0304537
0.0304823
0.0305081
0.0305307
0.0315038
0.0313921
0.031298
0.0312193
0.0311554
0.0311042
0.0310646
0.0310349
0.0310139
0.031
0.0309928
0.0309912
0.0309949
0.0310032
0.0310145
0.0310277
0.0310425
0.0310572
0.0310715
0.0310845
0.0323005
0.0321918
0.0320968
0.0320133
0.0319405
0.0318773
0.0318229
0.0317773
0.0317385
0.0317058
0.0316777
0.0316554
0.0316395
0.0316294
0.0316248
0.0316224
0.031622
0.0316231
0.0316259
0.0316293
0.00418723
0.00437017
0.00455532
0.00472774
0.00489747
0.0050607
0.00522365
0.00539373
0.00557828
0.00579171
0.00604926
0.00636763
0.0067615
0.00724417
0.0078256
0.00851289
0.00931129
0.0102256
0.0112618
0.0124286
0.00844942
0.00844927
0.00844531
0.00843829
0.0084236
0.00841654
0.00841255
0.00842139
0.00844805
0.00850489
0.00860279
0.00875553
0.00897749
0.00928284
0.00968408
0.0101916
0.0108134
0.0115559
0.012426
0.0134312
0.0111861
0.0111964
0.0111872
0.0111691
0.0111472
0.0111153
0.011083
0.0110493
0.0110247
0.0110162
0.0110319
0.0110858
0.0111897
0.0113584
0.011608
0.0119516
0.0124021
0.0129708
0.0136683
0.014506
0.0136735
0.013681
0.0136758
0.0136579
0.0136271
0.0135817
0.0135301
0.0134716
0.0134138
0.0133603
0.0133213
0.0133049
0.0133205
0.013386
0.0135128
0.0137182
0.0140177
0.0144265
0.014959
0.0156307
0.0159306
0.0159443
0.0159391
0.0159198
0.0158795
0.0158291
0.0157648
0.0156892
0.0156068
0.0155248
0.015446
0.0153772
0.0153323
0.0153178
0.01535
0.015445
0.0156188
0.0158884
0.0162716
0.0167869
0.0179722
0.0179869
0.0179845
0.0179613
0.0179222
0.0178652
0.0177927
0.0177059
0.0176086
0.0175059
0.0173979
0.0172953
0.0172034
0.0171319
0.0170938
0.0171029
0.0171757
0.0173296
0.0175834
0.0179594
0.0198053
0.0198245
0.0198216
0.0198011
0.0197593
0.0197001
0.0196227
0.0195283
0.019423
0.0193062
0.0191816
0.0190543
0.0189313
0.0188188
0.0187293
0.0186745
0.0186691
0.0187294
0.0188761
0.0191313
0.021445
0.0214656
0.0214659
0.0214458
0.0214059
0.0213446
0.0212657
0.0211703
0.0210603
0.0209364
0.0208017
0.02066
0.0205156
0.0203766
0.0202521
0.0201516
0.0200876
0.0200759
0.0201364
0.0202895
0.0229019
0.0229253
0.0229289
0.0229114
0.0228722
0.0228133
0.0227359
0.0226424
0.0225312
0.022405
0.0222655
0.0221176
0.0219631
0.0218087
0.0216613
0.0215298
0.0214244
0.0213599
0.0213528
0.0214227
0.0241927
0.0242189
0.0242245
0.0242095
0.0241738
0.0241189
0.0240457
0.0239545
0.0238464
0.023721
0.0235841
0.0234354
0.0232784
0.0231176
0.0229579
0.0228071
0.0226755
0.0225733
0.0225172
0.0225242
0.0253338
0.0253606
0.0253684
0.0253569
0.0253263
0.0252766
0.0252076
0.025122
0.025019
0.0249003
0.0247678
0.0246236
0.0244696
0.0243086
0.0241457
0.0239874
0.0238401
0.0237152
0.0236252
0.0235852
0.0263408
0.0263689
0.0263786
0.0263706
0.0263437
0.0262994
0.0262377
0.0261594
0.0260647
0.0259545
0.0258303
0.0256942
0.0255465
0.0253915
0.0252326
0.0250736
0.024922
0.0247854
0.0246737
0.024602
0.0272322
0.0272597
0.0272712
0.0272655
0.0272439
0.0272058
0.0271516
0.0270818
0.0269965
0.0268963
0.0267834
0.0266579
0.0265213
0.0263764
0.0262254
0.0260732
0.0259234
0.0257835
0.0256621
0.0255713
0.0280247
0.0280515
0.0280633
0.0280612
0.028044
0.0280118
0.0279651
0.0279045
0.0278291
0.0277409
0.0276404
0.0275279
0.0274044
0.0272722
0.0271336
0.0269916
0.02685
0.026714
0.0265911
0.0264914
0.0287364
0.0287608
0.0287731
0.0287731
0.0287596
0.0287333
0.0286942
0.0286428
0.0285783
0.0285021
0.0284143
0.0283151
0.0282069
0.0280896
0.027966
0.0278378
0.027708
0.0275812
0.0274625
0.0273603
0.0293836
0.0294052
0.0294165
0.0294172
0.0294077
0.0293863
0.0293548
0.0293116
0.0292574
0.0291928
0.029118
0.0290336
0.0289401
0.0288393
0.0287318
0.0286186
0.0285037
0.0283888
0.0282779
0.028176
0.029983
0.0300003
0.0300096
0.0300109
0.0300031
0.0299868
0.0299609
0.0299254
0.0298803
0.0298271
0.0297649
0.0296941
0.0296158
0.0295309
0.0294395
0.0293437
0.0292443
0.0291435
0.0290441
0.0289479
0.0305488
0.0305613
0.0305683
0.0305687
0.0305623
0.0305485
0.030527
0.0304975
0.0304608
0.030417
0.0303657
0.0303081
0.0302439
0.0301741
0.0300991
0.03002
0.0299376
0.0298532
0.0297684
0.029684
0.0310949
0.0311024
0.0311061
0.0311053
0.0310987
0.0310859
0.0310661
0.0310407
0.0310099
0.0309732
0.0309314
0.0308848
0.0308337
0.0307778
0.0307183
0.0306557
0.0305904
0.0305227
0.0304535
0.030384
0.0316329
0.0316342
0.0316348
0.0316334
0.0316261
0.0316119
0.031589
0.0315646
0.0315363
0.0315047
0.0314711
0.0314347
0.0313926
0.0313494
0.0313054
0.0312571
0.0312076
0.0311551
0.0311011
0.0310474
0.0021692
0.00168492
0.0013107
0.00103176
0.000841795
0.000703099
0.000595709
0.000508713
0.000436066
0.000374225
0.000320946
0.000274651
0.000234213
0.00019884
0.00016796
0.000141126
0.000117802
9.73943e-05
7.97523e-05
6.63585e-05
0.00216031
0.00169247
0.00133017
0.001061
0.000873023
0.000734076
0.000626529
0.000539863
0.000467833
0.000406662
0.000353924
0.000307944
0.000267597
0.000232306
0.000201709
0.000175255
0.000151931
0.000130689
0.000111922
9.87399e-05
0.0021538
0.00170422
0.0013549
0.00109681
0.000909922
0.000770089
0.000661715
0.000574619
0.000502348
0.000440951
0.000388249
0.000343272
0.000305579
0.000274429
0.000248363
0.000225413
0.000203815
0.000183299
0.000166457
0.000156547
0.00214925
0.00171829
0.00138233
0.00113495
0.000949515
0.000808609
0.000698836
0.000610693
0.000538331
0.000478152
0.000426224
0.000377069
0.000326203
0.000273202
0.000220226
0.000169103
0.000120265
7.39408e-05
3.88925e-05
3.28789e-05
0.00214474
0.00173396
0.00141229
0.00117397
0.000990602
0.000848825
0.000737804
0.000648784
0.000571739
0.000496317
0.000424626
0.000378424
0.000383919
0.000440882
0.000525232
0.000613262
0.000690222
0.00074808
0.00078198
0.000788603
0.00214422
0.00175131
0.00144514
0.00121367
0.00103263
0.000890482
0.000775061
0.00067511
0.000611854
0.000651875
0.000824438
0.00108247
0.00136818
0.00164338
0.00188716
0.00208905
0.0022509
0.00236968
0.00244272
0.00246665
0.00214189
0.00176975
0.00147945
0.00125402
0.00107513
0.00093133
0.000843771
0.000913222
0.00120305
0.00163683
0.00211068
0.00256196
0.00296329
0.00330548
0.00359444
0.00382958
0.00401187
0.00414254
0.00422173
0.00424929
0.00214289
0.00178936
0.00151441
0.00129676
0.00113677
0.00111655
0.00138198
0.00190945
0.00254138
0.00316269
0.00372491
0.00421435
0.00463874
0.00499918
0.00529919
0.00554151
0.00572901
0.00586292
0.00594427
0.005973
0.00214636
0.00181182
0.0015575
0.00139659
0.00146995
0.00191844
0.0026304
0.00340705
0.00413947
0.00479287
0.00536592
0.00586597
0.00629608
0.00666087
0.00696414
0.00720904
0.00739837
0.00753358
0.00761519
0.00764336
0.00215006
0.00185423
0.00170164
0.00186491
0.00245919
0.00331089
0.00420214
0.00503091
0.00576995
0.00642614
0.00700174
0.00750206
0.00793242
0.00829751
0.0086011
0.00884651
0.00903562
0.00917036
0.00925085
0.00927732
0.00218845
0.00204053
0.0022771
0.00298131
0.0039412
0.00492961
0.00584732
0.0066727
0.00740843
0.00805843
0.0086286
0.00912447
0.00955135
0.00991386
0.0102154
0.0104588
0.0106461
0.0107783
0.010856
0.0108793
0.00239834
0.00269739
0.00348444
0.00453064
0.00560385
0.00660444
0.00751234
0.00832507
0.00904703
0.00968451
0.0102442
0.0107317
0.011152
0.011509
0.0118059
0.012045
0.0122282
0.0123561
0.0124295
0.0124479
0.00310783
0.00397644
0.00509563
0.00624335
0.00732232
0.0083052
0.00918884
0.009978
0.0106794
0.0112997
0.0118451
0.0123209
0.0127313
0.0130798
0.0133692
0.0136017
0.0137783
0.0139002
0.0139672
0.0139798
0.00447471
0.00566007
0.00687415
0.00802001
0.00906828
0.0100151
0.0108648
0.0116243
0.0123004
0.0128995
0.0134271
0.0138878
0.0142852
0.0146224
0.0149016
0.0151246
0.0152925
0.0154061
0.0154654
0.0154703
0.0062795
0.00752662
0.00872095
0.00982137
0.0108206
0.0117219
0.012532
0.0132574
0.0139048
0.0144795
0.0149861
0.0154287
0.0158101
0.016133
0.0163992
0.0166102
0.0167672
0.0168702
0.0169196
0.0169153
0.0082248
0.0094474
0.0105833
0.0116215
0.0125636
0.0134151
0.0141822
0.0148713
0.0154873
0.0160349
0.0165181
0.0169398
0.0173026
0.0176085
0.0178591
0.0180558
0.0181991
0.0182894
0.018327
0.0183115
0.0101997
0.0113629
0.0124287
0.0134005
0.0142835
0.015084
0.0158076
0.016459
0.0170425
0.0175618
0.0180195
0.0184184
0.0187603
0.0190469
0.0192795
0.0194591
0.0195865
0.0196618
0.0196853
0.0196565
0.0121525
0.0132419
0.0142346
0.0151402
0.0159659
0.016717
0.0173982
0.0180133
0.018565
0.0190559
0.0194881
0.019863
0.0201824
0.0204476
0.0206598
0.0208201
0.020929
0.020987
0.0209937
0.0209494
0.0140514
0.0150613
0.0159804
0.0168219
0.0175938
0.0182999
0.0189427
0.0195254
0.0200489
0.0205145
0.0209228
0.0212747
0.0215712
0.021813
0.022002
0.0221401
0.0222281
0.0222663
0.0222542
0.022191
0.0158895
0.0168047
0.0176436
0.0184195
0.0191445
0.0198145
0.0204235
0.0209835
0.0214863
0.021935
0.0223255
0.0226586
0.0229351
0.023151
0.0233103
0.0234207
0.0234845
0.0235029
0.0234722
0.0233844
5.86772e-05
5.73581e-05
6.36603e-05
7.64112e-05
9.46952e-05
0.000119374
0.00015233
0.000195496
0.000250779
0.000320939
0.000410163
0.000526048
0.000680665
0.000883613
0.00115104
0.00150476
0.00197329
0.00259239
0.00340384
0.00444962
9.05125e-05
8.87791e-05
9.71923e-05
0.00011549
0.000141772
0.000175571
0.000217885
0.000270313
0.000335031
0.000415201
0.000515403
0.000642448
0.000806321
0.00102161
0.00130308
0.00167037
0.0021494
0.00277154
0.0035719
0.00458457
0.000152075
0.000153599
0.000163722
0.000184079
0.000214574
0.000254952
0.000305683
0.000368016
0.00044394
0.000536512
0.000650259
0.000791336
0.000968505
0.00119494
0.0014889
0.00186703
0.00235136
0.00296863
0.00374785
0.00471536
5.63582e-05
9.62536e-05
0.00014585
0.0002025
0.000265047
0.000332503
0.000405043
0.000484788
0.000575702
0.000682771
0.00081133
0.00096759
0.00115945
0.00139809
0.00170038
0.00208511
0.00256932
0.00317497
0.00392587
0.00484273
0.00076738
0.000722391
0.000663064
0.000601473
0.000552664
0.000534183
0.000559183
0.000627316
0.000728061
0.000852247
0.00099819
0.00117022
0.00137613
0.00162603
0.00193398
0.00231963
0.00279812
0.00338647
0.00410378
0.00496634
0.00244052
0.002366
0.00224712
0.00208969
0.00190206
0.00169752
0.00149553
0.00132441
0.00121804
0.00120259
0.00127867
0.00142652
0.0016284
0.00188
0.00218801
0.00256778
0.0030345
0.00360024
0.00427962
0.00508512
0.00422465
0.00414722
0.00401881
0.00384147
0.00361745
0.00335173
0.00305166
0.00273033
0.00241261
0.00213832
0.00195812
0.00191044
0.0019978
0.00219358
0.0024738
0.00283317
0.00327844
0.00381497
0.00445163
0.00519519
0.00594842
0.00587025
0.00573996
0.00555742
0.00532424
0.00504094
0.00471001
0.00433663
0.00393123
0.00351567
0.00312828
0.00282487
0.00266371
0.00267472
0.00284371
0.00313891
0.00353937
0.00403398
0.00462103
0.00530063
0.00761759
0.00753783
0.0074042
0.0072181
0.00697898
0.0066879
0.00634511
0.00595243
0.00551432
0.00504072
0.00455165
0.00408337
0.00369319
0.00344988
0.00340088
0.00354511
0.00384734
0.00427111
0.00479437
0.00540529
0.00924908
0.00916588
0.00902876
0.00883785
0.0085936
0.00829603
0.00794524
0.00754188
0.00708772
0.00658784
0.00605244
0.00550189
0.00497286
0.00452404
0.00422749
0.00413792
0.00426049
0.00455847
0.00498785
0.00551627
0.0108473
0.0107604
0.0106185
0.0104226
0.0101731
0.00986943
0.00951215
0.00910105
0.00863696
0.00812238
0.00756312
0.00697024
0.006366
0.00578871
0.00529801
0.00496585
0.00484736
0.0049489
0.00523271
0.00564879
0.0124113
0.0123192
0.0121723
0.0119713
0.0117162
0.0114071
0.0110441
0.0106268
0.0101557
0.00963219
0.00905894
0.00844298
0.00779697
0.00714498
0.00652708
0.00600342
0.00564402
0.00550058
0.00557701
0.00583276
0.0139371
0.0138391
0.0136867
0.0134799
0.0132193
0.0129049
0.0125366
0.0121145
0.0116384
0.0111089
0.0105277
0.0098985
0.00922927
0.00853416
0.00783911
0.00718546
0.00663258
0.00624693
0.00607447
0.0061149
0.0154204
0.0153157
0.0151565
0.0149437
0.0146774
0.0143576
0.0139846
0.0135583
0.0130784
0.012545
0.0119592
0.0113235
0.0106418
0.00992315
0.00918319
0.00844849
0.00776106
0.00717796
0.00676012
0.00654806
0.0168569
0.016744
0.0165776
0.0163577
0.0160852
0.0157599
0.0153821
0.0149518
0.0144686
0.0139329
0.0133451
0.0127065
0.0120196
0.0112896
0.0105258
0.00974468
0.00897292
0.00825079
0.00763141
0.00717201
0.0182427
0.0181205
0.0179452
0.0177176
0.0174378
0.0171062
0.0167229
0.0162882
0.0158021
0.0152644
0.0146758
0.0140369
0.0133493
0.012616
0.0118426
0.0110386
0.0102197
0.00941149
0.00865029
0.00798684
0.0195754
0.0194418
0.0192562
0.019019
0.0187305
0.0183909
0.018001
0.0175607
0.0170704
0.0165304
0.015941
0.0153031
0.0146175
0.0138863
0.0131127
0.0123018
0.0114627
0.0106096
0.00976366
0.00896013
0.0208536
0.0207064
0.0205082
0.0202593
0.0199596
0.0196098
0.0192101
0.0187613
0.0182644
0.0177199
0.0171287
0.0164915
0.0158093
0.0150834
0.0143158
0.0135093
0.0126683
0.0117997
0.0109138
0.0100308
0.0220772
0.0219138
0.0217008
0.0214381
0.0211246
0.0207595
0.0203442
0.0198809
0.0193721
0.0188193
0.0182236
0.017586
0.016907
0.0161879
0.0154303
0.0146359
0.013806
0.0129439
0.0120548
0.01115
0.0232457
0.0230624
0.0228349
0.0225621
0.0222327
0.0218403
0.0213959
0.0209038
0.020375
0.019808
0.019205
0.0185662
0.0178883
0.0171751
0.0164302
0.0156557
0.0148505
0.0140119
0.0131412
0.0122557
4.84104e-05
0.000164296
0.000307071
0.000474152
0.00067115
0.000899106
0.00116708
0.00147992
0.00184663
0.00227532
0.00277848
0.00336746
0.00405681
0.00486185
0.00579567
0.00687353
0.00811282
0.00953201
0.0111535
0.0129954
2.36842e-07
9.58022e-07
2.13989e-06
6.85793e-06
1.25049e-05
0.000210977
0.000369123
0.000578655
0.000844969
0.00117917
0.00159369
0.0021027
0.00272145
0.00346661
0.00435587
0.00540743
0.00664
0.00807395
0.00972928
0.011622
4.20975e-08
1.44015e-07
4.84209e-06
2.05017e-05
0.0001111
0.000200887
0.000317795
0.000473739
0.000677902
0.000941436
0.00127754
0.00170143
0.00223035
0.00288375
0.0036827
0.00464969
0.00580805
0.00718201
0.00879647
0.0106762
8.62062e-06
2.46739e-05
4.48211e-05
7.77714e-05
0.000132652
0.000204749
0.000304012
0.000437053
0.000612263
0.000839838
0.0011324
0.00150491
0.00197495
0.00256267
0.0032907
0.00418384
0.00526863
0.00657272
0.00812398
0.00994778
9.76568e-06
2.91366e-05
5.09096e-05
7.98902e-05
0.000126077
0.000191688
0.000281232
0.000401004
0.000558996
0.000764727
0.00102984
0.00136858
0.00179805
0.0023382
0.00301193
0.00384498
0.0048656
0.006104
0.00759139
0.009358
9.66839e-06
2.89361e-05
5.00162e-05
7.62778e-05
0.000116247
0.000175982
0.000257747
0.000367193
0.000511741
0.00070069
0.000944783
0.00125748
0.0016552
0.00215739
0.00278668
0.00356904
0.0045335
0.00571168
0.00713683
0.00884107
9.54509e-06
2.86662e-05
4.94259e-05
7.43077e-05
0.000108133
0.000162263
0.000237267
0.000337968
0.000471254
0.00064586
0.000872318
0.00116321
0.00153422
0.00200418
0.00259527
0.00333335
0.00424768
0.00537067
0.00673695
0.00838068
9.43004e-06
2.85181e-05
4.93019e-05
7.36493e-05
0.000104261
0.000151508
0.000220273
0.000313393
0.000437016
0.000599325
0.000810559
0.0010827
0.00143068
0.00187274
0.00243066
0.00313009
0.00400066
0.00507627
0.00639551
0.00800391
9.34425e-06
2.84713e-05
4.94368e-05
7.3758e-05
0.000102952
0.000143236
0.000206292
0.000292802
0.00040809
0.000559788
0.000757616
0.00101342
0.00134129
0.00175878
0.00228712
0.0029514
0.00378079
0.00480836
0.0060698
0.00759858
9.24803e-06
2.8337e-05
4.93962e-05
7.36183e-05
0.000101782
0.000137561
0.000194787
0.000275379
0.000383359
0.000525769
0.000711846
0.000953145
0.00126312
0.00165864
0.00216019
0.00279215
0.00358306
0.00456541
0.00577481
0.00724909
9.16851e-06
2.82726e-05
4.94852e-05
7.39046e-05
0.000101816
0.000135715
0.000185785
0.000260649
0.000362089
0.000496311
0.000672002
0.0009002
0.00119419
0.00156998
0.00204738
0.00265023
0.00340674
0.00434971
0.00551706
0.00695408
9.09828e-06
2.8183e-05
4.95374e-05
7.41234e-05
0.000101851
0.000134411
0.000178436
0.000247984
0.000343572
0.000470488
0.000636901
0.000853365
0.00113302
0.00149112
0.00194681
0.00252339
0.00324854
0.00415466
0.00527859
0.00665977
9.02775e-06
2.8086e-05
4.94917e-05
7.41775e-05
0.000101779
0.000133473
0.000173929
0.000237385
0.000327415
0.000447738
0.000605875
0.000811875
0.00107844
0.00142056
0.00185665
0.00240939
0.00310601
0.00397864
0.00506477
0.00640855
8.96543e-06
2.79895e-05
4.95079e-05
7.43981e-05
0.000102116
0.000133495
0.000172201
0.000228771
0.000313317
0.000427585
0.000578222
0.000774764
0.00102939
0.00135702
0.00177529
0.0023062
0.00297631
0.00381714
0.00486475
0.00615857
8.90391e-06
2.78988e-05
4.94705e-05
7.45381e-05
0.000102354
0.000133471
0.000170784
0.000221563
0.000300904
0.000409618
0.000553438
0.000741392
0.000985197
0.00129953
0.00170151
0.00221243
0.00285835
0.00367036
0.00468511
0.00594602
8.83657e-06
2.77564e-05
4.93503e-05
7.45177e-05
0.000102405
0.000133334
0.000169692
0.000216842
0.000290224
0.000393575
0.000531116
0.000711223
0.000945181
0.0012472
0.00163419
0.00212676
0.00275028
0.00353532
0.00451776
0.0057387
8.77543e-06
2.76387e-05
4.92573e-05
7.45534e-05
0.0001026
0.000133547
0.000169467
0.000214672
0.000281294
0.000379265
0.000510931
0.000683802
0.00090867
0.00119923
0.00157233
0.00204773
0.00265007
0.00340889
0.00435855
0.00553719
8.71615e-06
2.75171e-05
4.91529e-05
7.45944e-05
0.000102819
0.000133821
0.000169411
0.000213084
0.000273627
0.000366398
0.000492552
0.000658716
0.000875131
0.00115505
0.00151498
0.00197415
0.00255626
0.00328976
0.00420786
0.0053475
8.65194e-06
2.7376e-05
4.9005e-05
7.4522e-05
0.00010285
0.000133869
0.000169148
0.000211575
0.000267676
0.000354888
0.000475732
0.000635597
0.000844129
0.00111413
0.00146154
0.00190539
0.0024685
0.00317869
0.0040691
0.00517892
8.59496e-06
2.72412e-05
4.88425e-05
7.44068e-05
0.000102845
0.000133933
0.00016908
0.000210801
0.000264318
0.000344902
0.000460337
0.000614211
0.000815323
0.00107594
0.00141155
0.00184096
0.00238621
0.00307447
0.00393795
0.00501336
8.53199e-06
2.70891e-05
4.86655e-05
7.43017e-05
0.000102889
0.000134104
0.000169242
0.000210523
0.000262243
0.000336144
0.000446151
0.00059426
0.000788355
0.00104018
0.00136477
0.00178073
0.0023096
0.00297833
0.00381979
0.00487474
8.46826e-06
2.69413e-05
4.84827e-05
7.41858e-05
0.000102905
0.000134232
0.000169349
0.000210181
0.000260286
0.000328439
0.000433049
0.000575623
0.000763109
0.00100668
0.00132102
0.00172439
0.00223819
0.00288887
0.00370897
0.00473727
8.4084e-06
2.67762e-05
4.82275e-05
7.39797e-05
0.000102791
0.000134213
0.000169311
0.000209789
0.000258656
0.000322754
0.000421269
0.000558388
0.000739627
0.000975536
0.00128032
0.00167184
0.00217147
0.00280495
0.00360375
0.00460492
8.32867e-06
2.65412e-05
4.79986e-05
7.37031e-05
0.000102595
0.000134142
0.000169292
0.00020962
0.000257792
0.000319444
0.000411045
0.000542655
0.000717971
0.000946675
0.0012425
0.00162286
0.00210907
0.00272589
0.00350382
0.00447861
8.27065e-06
2.64279e-05
4.77233e-05
7.34069e-05
0.00010241
0.000134067
0.000169331
0.000209641
0.000257347
0.000317171
0.00040214
0.000528331
0.000698006
0.00091996
0.00120736
0.00157719
0.0020504
0.00265101
0.00340828
0.00435629
8.22357e-06
2.62546e-05
4.74878e-05
7.31221e-05
0.000102156
0.000133929
0.000169294
0.000209568
0.000256815
0.000315021
0.000394342
0.000515251
0.000679546
0.000895099
0.00117456
0.00153438
0.00199497
0.00258002
0.00331783
0.00424186
8.17644e-06
2.60952e-05
4.71724e-05
7.27345e-05
0.000101796
0.000133628
0.000169048
0.000209263
0.000256108
0.000313013
0.000388154
0.00050339
0.000662445
0.000871933
0.00114387
0.00149428
0.00194312
0.00251422
0.00323613
0.00414556
8.11704e-06
2.59189e-05
4.69213e-05
7.23312e-05
0.000101382
0.000133228
0.000168681
0.000208864
0.000255463
0.000311509
0.00038391
0.00049281
0.000646609
0.00085031
0.00111519
0.0014568
0.00189473
0.00245296
0.00315963
0.00404971
8.0732e-06
2.57659e-05
4.66181e-05
7.19517e-05
0.00010095
0.000132835
0.000168338
0.000208557
0.000255026
0.000310499
0.000380954
0.000483417
0.000631998
0.000830156
0.00108838
0.0014218
0.00184958
0.00239558
0.00308729
0.00395822
8.01303e-06
2.55938e-05
4.63184e-05
7.15384e-05
0.000100525
0.000132431
0.000167982
0.000208246
0.000254626
0.000309619
0.00037839
0.000474921
0.000618448
0.000811351
0.00106332
0.00138896
0.00180715
0.00234119
0.00301782
0.00386869
7.96207e-06
2.54302e-05
4.60418e-05
7.11645e-05
0.000100105
0.000132008
0.000167588
0.000207845
0.000254111
0.000308622
0.00037584
0.000467272
0.000605865
0.000793781
0.00103982
0.00135814
0.00176726
0.00229017
0.00295396
0.00379225
7.93069e-06
2.53019e-05
4.58283e-05
7.0845e-05
9.96984e-05
0.000131588
0.000167148
0.000207377
0.000253503
0.000307541
0.00037343
0.000460827
0.000594247
0.000777317
0.00101775
0.0013292
0.00172975
0.00224204
0.00289308
0.00371446
7.89977e-06
2.51816e-05
4.55888e-05
7.04764e-05
9.92669e-05
0.000131103
0.00016665
0.000206845
0.000252853
0.000306517
0.000371412
0.00045591
0.000583683
0.000761911
0.000996967
0.0013019
0.00169445
0.00219683
0.00283638
0.00364527
7.83811e-06
2.49925e-05
4.53418e-05
7.00889e-05
9.87886e-05
0.000130612
0.000166134
0.000206308
0.000252241
0.000305657
0.000369859
0.00045223
0.000574095
0.00074754
0.000977483
0.00127622
0.00166114
0.00215424
0.00278257
0.0035775
7.79888e-06
2.49019e-05
4.51171e-05
6.97475e-05
9.83922e-05
0.000130176
0.000165681
0.000205841
0.000251725
0.000304984
0.00036864
0.000449275
0.000565383
0.000734095
0.000959133
0.00125201
0.00162971
0.00211393
0.00273133
0.00351272
7.76484e-06
2.47662e-05
4.49123e-05
6.94288e-05
9.8015e-05
0.000129761
0.000165256
0.000205404
0.000251266
0.000304376
0.000367516
0.000446569
0.000557388
0.000721519
0.000941806
0.00122914
0.00160006
0.00207587
0.00268298
0.0034526
7.73154e-06
2.46732e-05
4.46975e-05
6.91246e-05
9.76415e-05
0.000129339
0.000164826
0.000204985
0.00025082
0.000303757
0.000366377
0.000443946
0.000550065
0.000709744
0.000925502
0.0012075
0.00157187
0.00203955
0.00263631
0.00339238
7.70397e-06
2.45555e-05
4.45124e-05
6.88315e-05
9.72758e-05
0.000128928
0.000164401
0.000204545
0.000250303
0.000303054
0.000365185
0.000441414
0.00054354
0.000698664
0.000910027
0.00118698
0.00154514
0.00200507
0.00259246
0.00333875
7.66221e-06
2.44373e-05
4.42803e-05
6.85097e-05
9.68905e-05
0.000128499
0.000163944
0.000204057
0.000249744
0.00030232
0.000364
0.000439121
0.000538092
0.0006884
0.000895474
0.00116756
0.00151977
0.00197252
0.00255147
0.00328861
7.6261e-06
2.43219e-05
4.4102e-05
6.82219e-05
9.6537e-05
0.000128087
0.00016348
0.000203556
0.000249193
0.000301627
0.000362955
0.00043721
0.00053373
0.000678883
0.000881666
0.00114907
0.00149566
0.0019415
0.00251175
0.0032369
7.60383e-06
2.42355e-05
4.39176e-05
6.797e-05
9.61962e-05
0.000127692
0.000163034
0.000203082
0.000248689
0.000301023
0.000362102
0.000435701
0.00053029
0.000670177
0.000868706
0.00113161
0.00147293
0.00191246
0.00247582
0.00319624
7.57571e-06
2.41377e-05
4.37563e-05
6.77027e-05
9.58667e-05
0.000127329
0.00016264
0.000202655
0.00024824
0.000300525
0.000361414
0.000434455
0.000527401
0.000662133
0.000856494
0.00111515
0.00145156
0.00188542
0.00244254
0.00315573
7.56499e-06
2.40714e-05
4.36151e-05
6.74641e-05
9.55746e-05
0.000126997
0.000162277
0.000202277
0.000247845
0.000300092
0.000360823
0.000433367
0.000524828
0.000654714
0.000845064
0.00109965
0.00143138
0.00185965
0.00240957
0.00311145
7.55022e-06
2.40058e-05
4.34622e-05
6.72482e-05
9.53029e-05
0.000126678
0.000161949
0.00020194
0.000247492
0.000299685
0.000360262
0.000432331
0.000522403
0.000647828
0.000834291
0.00108506
0.00141246
0.00183568
0.00238001
0.00307802
7.52723e-06
2.39211e-05
4.33147e-05
6.70359e-05
9.50239e-05
0.000126389
0.000161639
0.000201612
0.000247148
0.000299303
0.00035972
0.000431311
0.000520097
0.00064155
0.000824216
0.00107123
0.00139424
0.00181166
0.00234684
0.00302447
7.50828e-06
2.38383e-05
4.31936e-05
6.68449e-05
9.47777e-05
0.000126098
0.00016132
0.000201277
0.000246801
0.000298897
0.000359143
0.000430296
0.000517909
0.000635862
0.000814682
0.00105801
0.00137673
0.00178888
0.00231833
0.00299716
7.4789e-06
2.37581e-05
4.30637e-05
6.66557e-05
9.45182e-05
0.000125797
0.000160996
0.000200937
0.000246441
0.000298477
0.000358561
0.000429308
0.000515893
0.000630915
0.000805714
0.00104539
0.00135988
0.0017667
0.00228885
0.00295307
7.4479e-06
2.36691e-05
4.29338e-05
6.64435e-05
9.42556e-05
0.0001255
0.000160672
0.000200596
0.000246075
0.000298061
0.000358018
0.000428423
0.00051415
0.000626741
0.000797274
0.00103325
0.00134349
0.0017448
0.00225932
0.00291348
7.43203e-06
2.36311e-05
4.28431e-05
6.62801e-05
9.40492e-05
0.000125251
0.000160384
0.000200277
0.000245725
0.000297673
0.000357518
0.000427647
0.000512693
0.000623312
0.000789372
0.00102161
0.00132773
0.00172409
0.0022335
0.00288707
7.42217e-06
2.35948e-05
4.27684e-05
6.61497e-05
9.38602e-05
0.000125028
0.000160125
0.000199996
0.000245437
0.000297363
0.000357134
0.000427054
0.000511517
0.000620448
0.000781936
0.00101044
0.00131262
0.00170441
0.00220832
0.00285295
7.41018e-06
2.3561e-05
4.26902e-05
6.60173e-05
9.36922e-05
0.000124816
0.000159896
0.000199759
0.000245195
0.00029711
0.000356825
0.000426572
0.000510544
0.000617988
0.000774962
0.000999835
0.0012983
0.00168586
0.00218518
0.0028262
7.40048e-06
2.35137e-05
4.26046e-05
6.58938e-05
9.35196e-05
0.000124615
0.000159682
0.000199532
0.000244971
0.000296892
0.000356563
0.000426161
0.000509699
0.000615807
0.000768463
0.000989814
0.00128473
0.00166821
0.00216247
0.00279517
7.3811e-06
2.34625e-05
4.25214e-05
6.57708e-05
9.33586e-05
0.000124416
0.00015946
0.000199317
0.000244782
0.000296717
0.000356368
0.000425835
0.000508938
0.00061377
0.000762343
0.000980269
0.00127169
0.00165099
0.00213947
0.00276309
7.37197e-06
2.34259e-05
4.24623e-05
6.56635e-05
9.32165e-05
0.000124261
0.000159289
0.000199139
0.000244606
0.000296559
0.000356195
0.000425531
0.000508225
0.000611857
0.000756617
0.000971206
0.00125925
0.00163452
0.00211804
0.00273699
7.36802e-06
2.34072e-05
4.24115e-05
6.55724e-05
9.30946e-05
0.000124117
0.00015914
0.000198991
0.000244457
0.000296409