/*--------------------------------*- C++ -*----------------------------------*\
| =========                 |                                                 |
| \\      /  F ield         | OpenFOAM: The Open Source CFD Toolbox           |
|  \\    /   O peration     | Version:  2.3.0                                 |
|   \\  /    A nd           | Web:      www.OpenFOAM.org                      |
|    \\/     M anipulation  |                                                 |
\*---------------------------------------------------------------------------*/
FoamFile
{
    version     2.0;
    format      ascii;
    class       volScalarField;
    location    "450";
    object      p;
}
// * * * * * * * * * * * * * * * * * * * * * * * * * * * * * * * * * * * * * //

dimensions      [0 2 -2 0 0 0 0];

internalField   nonuniform List<scalar> 
28256
(
0.0794609
13.25
23.4722
32.0268
38.2909
41.5077
41.5718
38.943
34.0601
27.7153
20.6626
13.1884
5.74127
-1.82313
-9.32057
-17.1184
-24.6607
-32.062
-36.2889
-41.2675
-5.01323
4.47617
11.5718
17.483
22.1335
25.4507
27.531
28.4694
28.212
26.765
24.0919
20.2427
15.3442
9.56795
3.17477
-3.63578
-10.6985
-17.9206
-24.788
-31.8353
-10.4019
-3.7869
0.497373
3.36489
4.65093
4.25012
2.32254
-0.918793
-5.09836
-9.87275
-14.8824
-19.8844
-24.6708
-29.2236
-33.2375
-37.0542
-40.13
-43.0552
-45.4489
-47.5474
-16.2455
-11.3151
-8.82122
-7.52707
-7.30417
-8.04948
-9.56539
-11.646
-14.0896
-16.7991
-19.6251
-22.4428
-25.1891
-27.9061
-30.2281
-32.4367
-34.4014
-36.1031
-37.3609
-38.6322
-21.9298
-18.2228
-17.0693
-16.976
-17.7493
-19.2632
-21.3458
-23.7945
-26.4039
-29.0597
-31.6203
-33.9725
-36.0258
-37.8311
-39.4102
-40.6078
-41.4866
-42.2413
-42.6079
-42.9146
-26.7808
-24.3207
-23.9611
-24.473
-25.5358
-27.0054
-28.7233
-30.5719
-32.389
-34.1002
-35.7022
-37.0799
-38.2702
-39.169
-39.9417
-40.4527
-40.7242
-40.876
-40.7652
-40.6496
-31.1943
-29.5697
-29.7519
-30.5943
-31.8037
-33.2563
-34.8153
-36.398
-37.8864
-39.2338
-40.4113
-41.3596
-42.101
-42.5941
-42.9096
-42.987
-42.9542
-42.7099
-42.2965
-41.8047
-34.3254
-33.9518
-34.4755
-35.4246
-36.5793
-37.8393
-39.0858
-40.2723
-41.3063
-42.2185
-42.8736
-43.4029
-43.6859
-43.7982
-43.7594
-43.5198
-43.1569
-42.6887
-42.0701
-41.3815
-37.4632
-37.682
-38.3496
-39.2716
-40.3067
-41.3747
-42.3719
-43.2647
-44.0102
-44.6103
-44.9906
-45.2284
-45.2572
-45.1503
-44.864
-44.4596
-43.9034
-43.2976
-42.5516
-41.7634
-40.1832
-40.7335
-41.4162
-42.2547
-43.1297
-43.9791
-44.729
-45.3509
-45.8261
-46.1355
-46.2931
-46.2799
-46.0946
-45.8226
-45.3417
-44.8443
-44.1722
-43.4391
-42.6422
-41.8019
-42.61
-43.174
-43.8251
-44.5543
-45.2584
-45.9027
-46.4435
-46.853
-47.1117
-47.234
-47.2
-47.0475
-46.7075
-46.3241
-45.7708
-45.1418
-44.4559
-43.6833
-42.8256
-41.9762
-44.5694
-45.114
-45.6958
-46.2879
-46.8226
-47.2813
-47.6316
-47.8543
-47.9368
-47.9074
-47.7363
-47.4589
-47.0313
-46.549
-45.9823
-45.2763
-44.5626
-43.7787
-42.9569
-42.0778
-46.1261
-46.6414
-47.123
-47.5658
-47.9462
-48.2287
-48.4282
-48.4913
-48.4497
-48.2869
-48.0444
-47.6586
-47.1943
-46.6593
-46.045
-45.3629
-44.6414
-43.8497
-43.0624
-42.2131
-47.4816
-47.8982
-48.2163
-48.5
-48.7293
-48.8548
-48.9155
-48.8509
-48.7159
-48.4468
-48.1398
-47.6967
-47.2214
-46.641
-46.0336
-45.3509
-44.6453
-43.9059
-43.1277
-42.331
-48.408
-48.7683
-48.9663
-49.1199
-49.2206
-49.2269
-49.1664
-49.0134
-48.7851
-48.4719
-48.0953
-47.6287
-47.1545
-46.5502
-45.9641
-45.3008
-44.62
-43.9103
-43.1924
-42.4395
-49.2183
-49.4026
-49.4878
-49.5126
-49.4974
-49.4035
-49.2386
-49.0264
-48.7225
-48.3843
-47.964
-47.4858
-47.0075
-46.4291
-45.8435
-45.2265
-44.5805
-43.9082
-43.2331
-42.541
-49.8102
-49.8587
-49.821
-49.7371
-49.6152
-49.4401
-49.2013
-48.9231
-48.5856
-48.2076
-47.7754
-47.3026
-46.8159
-46.2694
-45.6899
-45.1294
-44.4998
-43.8859
-43.2535
-42.6127
-50.0649
-50.0935
-49.9702
-49.8054
-49.6124
-49.3714
-49.0951
-48.7649
-48.414
-48.0095
-47.5899
-47.1246
-46.657
-46.1459
-45.5944
-45.0546
-44.4937
-43.9059
-43.3237
-42.7334
-50.3238
-50.1984
-49.9802
-49.7157
-49.4528
-49.1488
-48.825
-48.4445
-48.046
-47.611
-47.1866
-46.726
-46.2751
-45.7822
-45.265
-44.7333
-44.2295
-43.6928
-43.1826
-42.6245
-50.6555
-50.5672
-50.3035
-50.0258
-49.7226
-49.4866
-49.2231
-48.8898
-48.5334
-48.1013
-47.642
-47.2638
-46.9138
-46.5253
-46.0568
-45.4921
-44.8822
-44.3873
-43.9501
-43.4469
-69.6767
-91.2354
-102.717
-111.294
-119.026
-125.89
-131.744
-136.235
-139.546
-141.598
-142.381
-141.876
-140.056
-136.837
-132.091
-125.786
-118.024
-109.155
-99.5593
-90.9978
-38.8745
-46.1516
-53.4725
-61.5513
-70.0152
-78.2946
-86.5933
-94.2805
-101.255
-107.044
-111.477
-114.293
-115.382
-114.771
-112.554
-108.902
-104.015
-98.1198
-91.369
-85.3077
-49.3932
-51.6834
-54.1296
-56.7823
-60.0697
-63.6346
-67.6256
-71.7816
-76.0685
-80.1833
-84.1672
-87.6421
-90.4377
-92.3631
-93.1235
-92.6475
-90.8668
-87.8411
-83.6762
-79.4541
-39.8811
-41.1428
-42.8068
-44.8736
-47.3621
-50.3298
-53.4895
-57.0213
-60.8667
-64.6868
-68.4809
-72.0541
-75.2289
-77.7694
-79.5456
-80.3863
-80.1808
-78.911
-76.6033
-73.8754
-43.0743
-43.3654
-44.0219
-44.8644
-45.998
-47.527
-49.3027
-51.341
-53.7316
-56.2556
-58.9474
-61.686
-64.3176
-66.7493
-68.7935
-70.2678
-71.0392
-70.9858
-70.0635
-68.4072
-40.504
-40.3744
-40.6148
-41.0002
-41.672
-42.6897
-43.9827
-45.4557
-47.3344
-49.3177
-51.5136
-53.8826
-56.2112
-58.4749
-60.5562
-62.2864
-63.5442
-64.2
-64.2222
-63.4917
-41.3367
-40.878
-40.6945
-40.6926
-40.9005
-41.2834
-42.0274
-42.8993
-44.0823
-45.4262
-46.9519
-48.7074
-50.5321
-52.4371
-54.2828
-55.9661
-57.41
-58.4598
-59.0571
-58.9545
-40.7437
-40.0996
-39.7125
-39.4146
-39.4103
-39.5313
-39.87
-40.432
-41.1768
-42.198
-43.3413
-44.7218
-46.2021
-47.7963
-49.4182
-50.9857
-52.4147
-53.648
-54.5816
-54.8906
-40.9883
-40.2564
-39.6925
-39.2111
-38.931
-38.8416
-38.9095
-39.1682
-39.5493
-40.1871
-41.0015
-41.9408
-43.0708
-44.3377
-45.682
-47.0747
-48.4209
-49.6638
-50.7521
-51.2536
-40.9384
-40.1469
-39.519
-38.9511
-38.5238
-38.2324
-38.1117
-38.1802
-38.3431
-38.7048
-39.2544
-39.9383
-40.7779
-41.7618
-42.8476
-44.0279
-45.2195
-46.4071
-47.5306
-48.0986
-41.1246
-40.2942
-39.5817
-38.9452
-38.4465
-38.0509
-37.7729
-37.6689
-37.6338
-37.8019
-38.0972
-38.5457
-39.1246
-39.8747
-40.714
-41.6816
-42.7013
-43.7673
-44.8237
-45.3348
-41.245
-40.4136
-39.7079
-39.0215
-38.4886
-38.0081
-37.6312
-37.3984
-37.2497
-37.2408
-37.373
-37.6311
-38.0039
-38.5344
-39.164
-39.9133
-40.7497
-41.667
-42.6022
-42.9707
-41.4108
-40.5963
-39.8969
-39.2055
-38.6185
-38.1168
-37.6899
-37.3563
-37.118
-36.9967
-36.9736
-37.0588
-37.2715
-37.6091
-38.0654
-38.6231
-39.2922
-40.0474
-40.854
-41.0903
-41.566
-40.7881
-40.098
-39.445
-38.8368
-38.3055
-37.8656
-37.4656
-37.1495
-36.952
-36.8238
-36.7851
-36.8802
-37.0381
-37.3456
-37.7214
-38.2127
-38.8137
-39.4787
-39.555
-41.7228
-40.9829
-40.3307
-39.6879
-39.1138
-38.5483
-38.1152
-37.6712
-37.3259
-37.0515
-36.8499
-36.7261
-36.6867
-36.7419
-36.882
-37.1273
-37.4748
-37.8999
-38.3904
-38.2353
-41.8709
-41.1762
-40.5669
-39.9489
-39.3884
-38.8512
-38.3866
-37.9435
-37.5766
-37.2719
-36.9841
-36.8204
-36.684
-36.6562
-36.6636
-36.7798
-36.9825
-37.2749
-37.5843
-37.3008
-41.995
-41.3485
-40.7648
-40.1997
-39.648
-39.1499
-38.6748
-38.2349
-37.8518
-37.5356
-37.2165
-36.9901
-36.8006
-36.6826
-36.6049
-36.6129
-36.6633
-36.8092
-36.9598
-36.7055
-42.146
-41.557
-41.0018
-40.4443
-39.9364
-39.434
-38.9736
-38.5458
-38.1557
-37.8096
-37.503
-37.2206
-37.0077
-36.8103
-36.6741
-36.5883
-36.5338
-36.5358
-36.5498
-36.2973
-42.0749
-41.5278
-41.0213
-40.5028
-40.0344
-39.5421
-39.1173
-38.7192
-38.3646
-38.0216
-37.7575
-37.4499
-37.2109
-36.9967
-36.7998
-36.6567
-36.5352
-36.4436
-36.3734
-36.2544
-42.8799
-42.323
-41.8897
-41.4483
-40.7862
-40.2452
-39.5323
-39.2031
-38.8637
-38.5819
-38.1904
-37.8761
-37.496
-37.1766
-37.0797
-36.8437
-36.6529
-36.484
-36.3869
-36.545
-145.344
-144.712
-143.97
-143.023
-141.842
-140.418
-138.783
-137.01
-135.192
-133.429
-131.803
-130.376
-129.182
-128.24
-127.563
-127.165
-127.024
-127.013
-126.969
-126.852
-144.34
-143.522
-142.711
-141.847
-140.951
-140.044
-139.155
-138.322
-137.565
-136.894
-136.298
-135.772
-135.306
-134.908
-134.592
-134.375
-134.245
-134.138
-133.977
-133.714
-143.489
-142.578
-141.816
-141.13
-140.549
-140.063
-139.642
-139.258
-138.875
-138.475
-138.049
-137.61
-137.16
-136.706
-136.239
-135.754
-135.261
-134.809
-134.507
-134.296
-142.68
-141.644
-140.819
-140.087
-139.483
-139.005
-138.644
-138.403
-138.274
-138.249
-138.292
-138.399
-138.588
-138.887
-139.212
-139.389
-139.253
-138.832
-138.275
-137.63
-141.885
-140.727
-139.789
-138.936
-138.229
-137.686
-137.32
-137.13
-137.103
-137.277
-137.717
-138.457
-139.451
-140.686
-142.213
-144.109
-146.208
-147.743
-147.363
-144.82
-141.142
-139.909
-138.863
-137.894
-137.06
-136.364
-135.805
-135.425
-135.337
-135.635
-136.372
-137.603
-139.358
-141.558
-143.975
-146.25
-147.926
-148.513
-147.691
-145.697
-140.539
-139.221
-138.071
-136.977
-135.98
-135.099
-134.441
-134.169
-134.413
-135.227
-136.568
-138.296
-140.185
-141.982
-143.455
-144.444
-144.882
-144.778
-144.223
-143.328
-140.007
-138.669
-137.428
-136.235
-135.166
-134.369
-134.043
-134.321
-135.187
-136.486
-137.992
-139.496
-140.839
-141.925
-142.699
-143.15
-143.301
-143.186
-142.847
-142.322
-139.651
-138.26
-136.988
-135.82
-134.948
-134.577
-134.818
-135.597
-136.71
-137.952
-139.164
-140.254
-141.163
-141.862
-142.344
-142.62
-142.704
-142.616
-142.378
-142.007
-139.479
-138.058
-136.867
-135.944
-135.509
-135.65
-136.268
-137.172
-138.189
-139.203
-140.141
-140.951
-141.612
-142.114
-142.459
-142.654
-142.711
-142.642
-142.458
-142.173
-139.392
-138.124
-137.201
-136.699
-136.718
-137.166
-137.88
-138.717
-139.58
-140.4
-141.139
-141.77
-142.282
-142.67
-142.937
-143.088
-143.131
-143.073
-142.923
-142.688
-139.632
-138.582
-138.048
-137.955
-138.25
-138.799
-139.483
-140.22
-140.949
-141.629
-142.233
-142.745
-143.159
-143.475
-143.692
-143.816
-143.85
-143.799
-143.67
-143.467
-140.164
-139.482
-139.312
-139.478
-139.886
-140.442
-141.072
-141.717
-142.339
-142.912
-143.42
-143.853
-144.204
-144.473
-144.659
-144.765
-144.794
-144.75
-144.636
-144.454
-141.021
-140.719
-140.803
-141.1
-141.545
-142.078
-142.648
-143.219
-143.764
-144.263
-144.705
-145.082
-145.39
-145.626
-145.792
-145.888
-145.915
-145.875
-145.773
-145.609
-142.17
-142.161
-142.386
-142.744
-143.195
-143.696
-144.216
-144.728
-145.212
-145.657
-146.052
-146.391
-146.67
-146.887
-147.041
-147.132
-147.162
-147.132
-147.043
-146.896
-143.575
-143.705
-144.007
-144.39
-144.829
-145.302
-145.783
-146.253
-146.699
-147.107
-147.471
-147.786
-148.047
-148.252
-148.399
-148.49
-148.525
-148.504
-148.428
-148.299
-145.297
-145.372
-145.678
-146.044
-146.45
-146.882
-147.32
-147.749
-148.155
-148.531
-148.87
-149.168
-149.42
-149.624
-149.776
-149.877
-149.927
-149.924
-149.87
-149.766
-146.616
-146.944
-147.31
-147.693
-148.095
-148.518
-148.952
-149.38
-149.785
-150.153
-150.479
-150.761
-150.995
-151.184
-151.327
-151.423
-151.474
-151.481
-151.442
-151.36
-148.369
-148.484
-148.794
-149.098
-149.395
-149.736
-150.09
-150.443
-150.788
-151.121
-151.452
-151.792
-152.092
-152.345
-152.548
-152.712
-152.825
-152.88
-152.879
-152.845
-150.604
-150.882
-151.536
-151.884
-151.841
-152.341
-153.139
-154.016
-154.489
-154.685
-154.545
-154.589
-154.705
-154.79
-154.767
-154.743
-154.723
-154.689
-154.754
-154.857
-126.639
-126.294
-125.802
-125.178
-124.461
-123.691
-122.877
-122.011
-121.073
-120.045
-118.919
-117.692
-116.364
-114.938
-113.432
-111.878
-110.319
-108.787
-107.379
-106.573
-133.333
-132.852
-132.301
-131.654
-130.883
-129.973
-128.932
-127.763
-126.475
-125.074
-123.575
-121.992
-120.347
-118.66
-116.952
-115.25
-113.582
-111.963
-110.441
-109.51
-134.02
-133.576
-132.982
-132.322
-131.63
-130.888
-130.072
-129.159
-128.14
-127.003
-125.745
-124.369
-122.888
-121.323
-119.704
-118.067
-116.45
-114.875
-113.384
-112.391
-136.932
-136.151
-135.302
-134.415
-133.52
-132.613
-131.674
-130.681
-129.624
-128.499
-127.307
-126.045
-124.715
-123.324
-121.883
-120.413
-118.946
-117.505
-116.136
-115.19
-141.548
-138.761
-136.806
-135.421
-134.287
-133.251
-132.271
-131.327
-130.391
-129.43
-128.414
-127.332
-126.185
-124.979
-123.727
-122.448
-121.164
-119.894
-118.69
-117.876
-143.18
-140.643
-138.379
-136.484
-134.932
-133.659
-132.589
-131.646
-130.775
-129.937
-129.102
-128.24
-127.325
-126.347
-125.315
-124.245
-123.162
-122.085
-121.063
-120.351
-142.204
-140.913
-139.513
-138.07
-136.646
-135.291
-134.034
-132.889
-131.85
-130.904
-130.031
-129.208
-128.404
-127.589
-126.746
-125.876
-124.995
-124.119
-123.293
-122.717
-141.65
-140.845
-139.922
-138.905
-137.816
-136.683
-135.535
-134.398
-133.297
-132.255
-131.285
-130.396
-129.583
-128.829
-128.109
-127.403
-126.708
-126.03
-125.406
-124.975
-141.525
-140.937
-140.253
-139.478
-138.627
-137.708
-136.736
-135.729
-134.704
-133.685
-132.696
-131.764
-130.911
-130.15
-129.48
-128.883
-128.34
-127.844
-127.414
-127.134
-141.797
-141.334
-140.784
-140.154
-139.45
-138.678
-137.846
-136.965
-136.045
-135.104
-134.162
-133.243
-132.379
-131.6
-130.931
-130.381
-129.94
-129.59
-129.329
-129.186
-142.375
-141.986
-141.52
-140.982
-140.374
-139.703
-138.974
-138.193
-137.369
-136.513
-135.642
-134.776
-133.94
-133.169
-132.499
-131.96
-131.566
-131.313
-131.187
-131.177
-143.195
-142.854
-142.443
-141.966
-141.427
-140.828
-140.175
-139.474
-138.73
-137.954
-137.157
-136.358
-135.575
-134.84
-134.186
-133.655
-133.278
-133.076
-133.042
-133.155
-144.21
-143.902
-143.531
-143.1
-142.611
-142.069
-141.477
-140.839
-140.164
-139.458
-138.732
-138
-137.281
-136.598
-135.981
-135.468
-135.1
-134.912
-134.913
-135.084
-145.386
-145.105
-144.766
-144.371
-143.925
-143.429
-142.888
-142.306
-141.69
-141.048
-140.388
-139.723
-139.069
-138.445
-137.877
-137.397
-137.045
-136.86
-136.866
-137.082
-146.693
-146.437
-146.127
-145.767
-145.358
-144.905
-144.41
-143.88
-143.32
-142.738
-142.14
-141.541
-140.953
-140.393
-139.883
-139.451
-139.13
-138.958
-138.968
-139.217
-148.118
-147.887
-147.607
-147.28
-146.909
-146.498
-146.05
-145.571
-145.065
-144.54
-144.005
-143.468
-142.943
-142.445
-141.991
-141.604
-141.309
-141.133
-141.097
-141.256
-149.613
-149.412
-149.166
-148.877
-148.547
-148.179
-147.777
-147.349
-146.899
-146.434
-145.962
-145.492
-145.035
-144.606
-144.217
-143.888
-143.641
-143.497
-143.479
-143.684
-151.232
-151.057
-150.841
-150.591
-150.304
-149.986
-149.64
-149.277
-148.899
-148.506
-148.103
-147.701
-147.31
-146.945
-146.615
-146.335
-146.114
-145.967
-145.918
-146.079
-152.759
-152.624
-152.479
-152.321
-152.112
-151.826
-151.492
-151.151
-150.811
-150.475
-150.128
-149.797
-149.481
-149.197
-148.954
-148.77
-148.615
-148.508
-148.515
-148.744
-154.994
-154.694
-154.408
-154.183
-153.797
-153.578
-153.29
-153.345
-153.436
-153.382
-153.181
-152.904
-152.608
-152.402
-152.329
-152.317
-152.045
-151.725
-151.797
-151.915
367.997
363.864
357.378
349.567
340.888
331.084
319.247
305.168
288.678
269.767
248.244
224.216
197.819
169.475
140.121
110.794
82.6592
56.8543
33.7591
12.6301
2.21829
3.02787
4.43608
6.24785
8.28579
10.0361
11.6004
13.5037
15.6945
18.0922
20.6243
23.2137
25.6671
27.6683
28.7462
28.3251
25.8628
21.0101
13.6313
3.50733
42.4169
42.4332
42.5008
42.6294
42.7911
42.8431
42.7847
42.5748
42.0967
41.2347
39.8694
37.8827
35.1678
31.6572
27.3321
22.228
16.4134
9.9621
2.87821
-5.10845
11.3116
11.325
11.388
11.496
11.5719
11.5381
11.4417
11.2994
11.0856
10.7675
10.3031
9.62976
8.66508
7.29967
5.39811
2.81773
-0.565578
-4.80883
-9.8748
-15.8147
-29.0274
-28.985
-28.8505
-28.5654
-28.1766
-27.7071
-27.1631
-26.5468
-25.8702
-25.1523
-24.4186
-23.7062
-23.0634
-22.5596
-22.2881
-22.3727
-22.9656
-24.2187
-26.2051
-29.0626
-51.9554
-51.8921
-51.7373
-51.4453
-51.0127
-50.481
-49.857
-49.1344
-48.3151
-47.4071
-46.427
-45.3954
-44.3453
-43.321
-42.387
-41.6243
-41.1394
-41.0422
-41.358
-42.1742
-71.6315
-71.5729
-71.4287
-71.1368
-70.697
-70.1414
-69.4751
-68.6891
-67.7752
-66.7311
-65.5596
-64.2676
-62.8702
-61.3961
-59.8916
-58.4206
-57.0752
-55.9586
-55.1066
-54.4767
-88.018
-87.9636
-87.8311
-87.562
-87.14
-86.5885
-85.9213
-85.1243
-84.186
-83.0969
-81.8499
-80.4423
-78.8746
-77.1582
-75.3178
-73.3964
-71.4633
-69.6054
-67.9073
-66.616
-100.995
-100.944
-100.829
-100.587
-100.197
-99.6774
-99.0361
-98.2658
-97.3501
-96.2761
-95.0334
-93.61
-91.9997
-90.2011
-88.2227
-86.0882
-83.8422
-81.552
-79.2859
-77.0982
-111.442
-111.4
-111.295
-111.082
-110.73
-110.249
-109.649
-108.921
-108.051
-107.022
-105.818
-104.425
-102.831
-101.024
-99.0015
-96.7714
-94.3551
-91.8006
-89.1958
-86.6069
-120.059
-120.018
-119.929
-119.739
-119.421
-118.981
-118.423
-117.742
-116.923
-115.947
-114.798
-113.459
-111.911
-110.14
-108.134
-105.889
-103.412
-100.726
-97.9197
-95.3132
-127.053
-127.019
-126.939
-126.772
-126.489
-126.091
-125.58
-124.952
-124.19
-123.277
-122.196
-120.927
-119.45
-117.745
-115.795
-113.585
-111.109
-108.377
-105.448
-102.437
-132.87
-132.839
-132.769
-132.62
-132.367
-132.005
-131.538
-130.957
-130.25
-129.399
-128.386
-127.192
-125.795
-124.174
-122.31
-120.184
-117.785
-115.115
-112.259
-109.638
-137.598
-137.573
-137.51
-137.379
-137.152
-136.825
-136.398
-135.865
-135.213
-134.424
-133.48
-132.36
-131.044
-129.507
-127.727
-125.679
-123.343
-120.702
-117.779
-114.792
-141.528
-141.505
-141.45
-141.333
-141.129
-140.832
-140.443
-139.953
-139.35
-138.617
-137.736
-136.688
-135.451
-134.002
-132.315
-130.366
-128.132
-125.595
-122.765
-119.869
-144.727
-144.708
-144.66
-144.555
-144.372
-144.104
-143.749
-143.301
-142.745
-142.068
-141.251
-140.275
-139.119
-137.76
-136.172
-134.331
-132.211
-129.791
-127.07
-124.223
-147.332
-147.315
-147.273
-147.179
-147.013
-146.769
-146.445
-146.032
-145.519
-144.892
-144.132
-143.221
-142.138
-140.861
-139.364
-137.621
-135.604
-133.289
-130.661
-127.829
-149.38
-149.366
-149.329
-149.245
-149.096
-148.874
-148.579
-148.201
-147.73
-147.151
-146.446
-145.598
-144.587
-143.391
-141.984
-140.34
-138.43
-136.226
-133.713
-130.972
-150.994
-150.981
-150.949
-150.874
-150.739
-150.538
-150.268
-149.922
-149.487
-148.951
-148.297
-147.509
-146.566
-145.448
-144.13
-142.586
-140.789
-138.712
-136.333
-133.729
-152.17
-152.16
-152.132
-152.065
-151.943
-151.76
-151.514
-151.197
-150.798
-150.304
-149.7
-148.968
-148.091
-147.049
-145.816
-144.367
-142.673
-140.705
-138.442
-135.929
-152.983
-152.975
-152.95
-152.891
-152.78
-152.614
-152.389
-152.099
-151.733
-151.279
-150.722
-150.045
-149.233
-148.265
-147.119
-145.771
-144.19
-142.348
-140.225
-137.925
-153.361
-153.355
-153.335
-153.284
-153.187
-153.04
-152.84
-152.582
-152.255
-151.847
-151.344
-150.731
-149.992
-149.108
-148.058
-146.818
-145.362
-143.66
-141.684
-139.534
-153.33
-153.327
-153.311
-153.268
-153.186
-153.06
-152.887
-152.663
-152.379
-152.022
-151.58
-151.038
-150.38
-149.588
-148.641
-147.516
-146.187
-144.625
-142.792
-140.735
-153.137
-153.134
-153.121
-153.085
-153.014
-152.905
-152.754
-152.559
-152.308
-151.994
-151.603
-151.121
-150.534
-149.825
-148.974
-147.957
-146.748
-145.318
-143.63
-141.693
-152.885
-152.883
-152.872
-152.841
-152.779
-152.683
-152.55
-152.377
-152.156
-151.876
-151.528
-151.098
-150.572
-149.933
-149.165
-148.244
-147.146
-145.843
-144.302
-142.512
-152.548
-152.547
-152.537
-152.511
-152.458
-152.374
-152.258
-152.106
-151.911
-151.665
-151.357
-150.974
-150.503
-149.93
-149.238
-148.405
-147.408
-146.219
-144.81
-143.172
-152.266
-152.265
-152.256
-152.232
-152.184
-152.108
-152.003
-151.865
-151.689
-151.464
-151.184
-150.835
-150.406
-149.883
-149.251
-148.49
-147.578
-146.489
-145.197
-143.712
-151.946
-151.945
-151.938
-151.917
-151.874
-151.807
-151.713
-151.589
-151.43
-151.228
-150.974
-150.657
-150.266
-149.787
-149.207
-148.506
-147.662
-146.65
-145.437
-144.014
-151.666
-151.665
-151.658
-151.639
-151.6
-151.538
-151.451
-151.338
-151.192
-151.007
-150.773
-150.482
-150.123
-149.682
-149.146
-148.497
-147.716
-146.776
-145.646
-144.301
-151.387
-151.386
-151.38
-151.363
-151.328
-151.272
-151.194
-151.091
-150.959
-150.79
-150.576
-150.31
-149.981
-149.575
-149.081
-148.483
-147.76
-146.891
-145.849
-144.611
-151.165
-151.164
-151.158
-151.142
-151.109
-151.057
-150.985
-150.889
-150.766
-150.609
-150.411
-150.165
-149.858
-149.482
-149.023
-148.468
-147.798
-146.993
-146.03
-144.9
-150.938
-150.937
-150.931
-150.917
-150.887
-150.839
-150.773
-150.685
-150.572
-150.427
-150.245
-150.017
-149.733
-149.383
-148.955
-148.437
-147.81
-147.055
-146.148
-145.083
-150.738
-150.737
-150.732
-150.718
-150.691
-150.647
-150.586
-150.504
-150.399
-150.265
-150.096
-149.883
-149.618
-149.291
-148.892
-148.407
-147.82
-147.112
-146.262
-145.28
-150.573
-150.572
-150.567
-150.554
-150.528
-150.487
-150.43
-150.353
-150.255
-150.13
-149.97
-149.771
-149.522
-149.216
-148.84
-148.383
-147.831
-147.163
-146.357
-145.417
-150.429
-150.428
-150.424
-150.412
-150.388
-150.349
-150.295
-150.224
-150.132
-150.014
-149.865
-149.677
-149.444
-149.155
-148.801
-148.37
-147.847
-147.215
-146.45
-145.548
-150.303
-150.302
-150.298
-150.287
-150.265
-150.229
-150.179
-150.112
-150.026
-149.916
-149.776
-149.6
-149.381
-149.11
-148.776
-148.37
-147.876
-147.28
-146.559
-145.7
-150.226
-150.225
-150.221
-150.21
-150.189
-150.154
-150.106
-150.043
-149.961
-149.856
-149.723
-149.556
-149.348
-149.09
-148.773
-148.386
-147.917
-147.35
-146.666
-145.851
-150.15
-150.149
-150.145
-150.136
-150.116
-150.084
-150.039
-149.98
-149.903
-149.805
-149.681
-149.524
-149.327
-149.084
-148.784
-148.417
-147.971
-147.432
-146.783
-146.024
-150.122
-150.121
-150.117
-150.107
-150.088
-150.058
-150.015
-149.958
-149.884
-149.79
-149.671
-149.521
-149.333
-149.1
-148.813
-148.462
-148.036
-147.519
-146.895
-146.164
-150.106
-150.105
-150.102
-150.093
-150.075
-150.046
-150.005
-149.951
-149.882
-149.792
-149.679
-149.536
-149.357
-149.134
-148.859
-148.523
-148.113
-147.616
-147.012
-146.304
-150.123
-150.122
-150.119
-150.11
-150.093
-150.065
-150.026
-149.975
-149.908
-149.823
-149.714
-149.577
-149.406
-149.193
-148.931
-148.61
-148.22
-147.747
-147.177
-146.523
-150.156
-150.155
-150.152
-150.144
-150.127
-150.101
-150.064
-150.015
-149.951
-149.87
-149.767
-149.636
-149.473
-149.269
-149.018
-148.711
-148.336
-147.882
-147.331
-146.688
-150.214
-150.213
-150.21
-150.202
-150.186
-150.161
-150.126
-150.079
-150.018
-149.941
-149.841
-149.716
-149.558
-149.362
-149.12
-148.822
-148.459
-148.017
-147.477
-146.835
-150.307
-150.306
-150.303
-150.295
-150.28
-150.256
-150.222
-150.176
-150.117
-150.042
-149.946
-149.825
-149.673
-149.485
-149.252
-148.965
-148.615
-148.19
-147.674
-147.057
-150.42
-150.419
-150.416
-150.409
-150.394
-150.371
-150.338
-150.294
-150.238
-150.165
-150.073
-149.957
-149.81
-149.629
-149.404
-149.127
-148.789
-148.379
-147.88
-147.255
-150.546
-150.545
-150.542
-150.535
-150.521
-150.499
-150.468
-150.427
-150.373
-150.304
-150.217
-150.106
-149.966
-149.792
-149.576
-149.311
-148.988
-148.597
-148.129
-147.575
-150.713
-150.712
-150.709
-150.702
-150.689
-150.667
-150.636
-150.595
-150.543
-150.475
-150.389
-150.28
-150.144
-149.973
-149.762
-149.501
-149.183
-148.796
-148.323
-147.719
-150.909
-150.908
-150.905
-150.898
-150.884
-150.863
-150.833
-150.793
-150.741
-150.675
-150.59
-150.483
-150.348
-150.179
-149.971
-149.714
-149.4
-149.018
-148.553
-147.966
-151.102
-151.101
-151.098
-151.092
-151.079
-151.059
-151.031
-150.993
-150.944
-150.881
-150.8
-150.698
-150.569
-150.406
-150.205
-149.957
-149.653
-149.284
-148.837
-148.272
-151.35
-151.349
-151.347
-151.34
-151.327
-151.307
-151.279
-151.241
-151.192
-151.13
-151.049
-150.948
-150.821
-150.661
-150.464
-150.221
-149.923
-149.56
-149.12
-148.552
-151.605
-151.604
-151.602
-151.596
-151.583
-151.564
-151.537
-151.501
-151.454
-151.394
-151.317
-151.218
-151.094
-150.938
-150.745
-150.506
-150.213
-149.856
-149.423
-148.864
-151.889
-151.888
-151.885
-151.879
-151.868
-151.849
-151.823
-151.788
-151.743
-151.684
-151.609
-151.513
-151.392
-151.239
-151.05
-150.816
-150.528
-150.177
-149.752
-149.201
-152.225
-152.224
-152.222
-152.216
-152.204
-152.185
-152.159
-152.124
-152.078
-152.02
-151.944
-151.849
-151.728
-151.576
-151.388
-151.156
-150.87
-150.521
-150.098
-149.556
-152.58
-152.579
-152.577
-152.571
-152.56
-152.542
-152.516
-152.482
-152.437
-152.38
-152.306
-152.212
-152.092
-151.942
-151.756
-151.525
-151.24
-150.891
-150.466
-149.923
-152.972
-152.971
-152.968
-152.962
-152.951
-152.933
-152.909
-152.875
-152.831
-152.774
-152.701
-152.608
-152.489
-152.341
-152.155
-151.924
-151.64
-151.29
-150.863
-150.296
-153.403
-153.402
-153.4
-153.394
-153.384
-153.366
-153.341
-153.308
-153.265
-153.208
-153.135
-153.043
-152.925
-152.776
-152.591
-152.361
-152.077
-151.729
-151.305
-150.735
-153.885
-153.884
-153.882
-153.876
-153.865
-153.847
-153.822
-153.789
-153.745
-153.688
-153.615
-153.522
-153.403
-153.254
-153.067
-152.835
-152.549
-152.198
-151.776
-151.209
-154.405
-154.404
-154.401
-154.396
-154.385
-154.367
-154.343
-154.309
-154.266
-154.209
-154.135
-154.04
-153.92
-153.768
-153.578
-153.343
-153.052
-152.694
-152.263
-151.71
-154.96
-154.96
-154.958
-154.952
-154.941
-154.924
-154.9
-154.867
-154.823
-154.765
-154.691
-154.596
-154.474
-154.32
-154.125
-153.883
-153.582
-153.211
-152.759
-152.172
-155.601
-155.601
-155.598
-155.592
-155.581
-155.563
-155.537
-155.503
-155.457
-155.397
-155.319
-155.219
-155.091
-154.929
-154.725
-154.47
-154.155
-153.766
-153.29
-152.68
-156.285
-156.285
-156.282
-156.277
-156.266
-156.248
-156.222
-156.187
-156.14
-156.078
-155.998
-155.894
-155.761
-155.591
-155.377
-155.109
-154.777
-154.367
-153.867
-153.225
-157.089
-157.088
-157.086
-157.079
-157.067
-157.046
-157.017
-156.978
-156.926
-156.858
-156.77
-156.656
-156.51
-156.326
-156.093
-155.804
-155.447
-155.009
-154.478
-153.799
-157.945
-157.945
-157.942
-157.936
-157.922
-157.9
-157.869
-157.827
-157.77
-157.695
-157.598
-157.474
-157.314
-157.112
-156.858
-156.542
-156.153
-155.677
-155.102
-154.377
-158.873
-158.872
-158.869
-158.861
-158.845
-158.821
-158.785
-158.737
-158.674
-158.59
-158.482
-158.343
-158.166
-157.941
-157.659
-157.31
-156.88
-156.356
-155.726
-154.943
-159.859
-159.859
-159.855
-159.847
-159.829
-159.801
-159.761
-159.706
-159.634
-159.539
-159.416
-159.259
-159.058
-158.805
-158.488
-158.097
-157.618
-157.036
-156.341
-155.492
-160.895
-160.895
-160.891
-160.881
-160.861
-160.828
-160.781
-160.718
-160.634
-160.525
-160.384
-160.204
-159.975
-159.687
-159.327
-158.884
-158.344
-157.693
-156.921
-155.986
-161.97
-161.969
-161.965
-161.953
-161.928
-161.89
-161.834
-161.76
-161.662
-161.534
-161.37
-161.16
-160.894
-160.56
-160.146
-159.637
-159.022
-158.285
-157.419
-156.373
-163.057
-163.057
-163.051
-163.037
-163.007
-162.96
-162.893
-162.804
-162.686
-162.533
-162.338
-162.089
-161.776
-161.384
-160.901
-160.312
-159.605
-158.768
-157.798
-156.645
-164.139
-164.138
-164.132
-164.113
-164.077
-164.017
-163.934
-163.823
-163.678
-163.49
-163.251
-162.95
-162.572
-162.105
-161.532
-160.842
-160.023
-159.068
-157.98
-156.718
-165.102
-165.1
-165.091
-165.067
-165.018
-164.941
-164.834
-164.692
-164.508
-164.273
-163.977
-163.605
-163.145
-162.582
-161.902
-161.094
-160.151
-159.072
-157.875
-156.536
-165.872
-165.869
-165.857
-165.824
-165.758
-165.654
-165.511
-165.324
-165.084
-164.78
-164.4
-163.932
-163.359
-162.67
-161.854
-160.904
-159.822
-158.618
-157.32
-155.923
-165.859
-165.854
-165.837
-165.789
-165.696
-165.552
-165.356
-165.104
-164.788
-164.397
-163.919
-163.342
-162.653
-161.845
-160.914
-159.86
-158.694
-157.436
-156.128
-154.787
-165.071
-165.064
-165.038
-164.972
-164.841
-164.637
-164.365
-164.024
-163.605
-163.096
-162.487
-161.769
-160.937
-159.995
-158.949
-157.817
-156.624
-155.401
-154.197
-153.051
-159.473
-159.467
-159.442
-159.369
-159.219
-158.985
-158.681
-158.314
-157.889
-157.408
-156.869
-156.277
-155.636
-154.955
-154.24
-153.498
-152.739
-151.977
-151.238
-150.58
-151.753
-151.744
-151.709
-151.624
-151.494
-151.333
-151.152
-150.952
-150.727
-150.472
-150.183
-149.862
-149.514
-149.151
-148.788
-148.444
-148.138
-147.888
-147.7
-147.618
-443.305
-437.514
-429.153
-420.865
-411.901
-401.017
-387.908
-372.524
-354.805
-334.652
-312.152
-287.576
-261.388
-234.289
-207.153
-180.969
-156.668
-134.987
-116.291
-101.16
-109.104
-109.307
-109.502
-109.711
-109.906
-110.168
-110.655
-111.477
-112.601
-114.026
-115.723
-117.578
-119.348
-120.636
-120.976
-119.923
-117.076
-112.172
-105.262
-97.3988
-149.617
-149.619
-149.628
-149.643
-149.666
-149.617
-149.359
-148.791
-147.791
-146.225
-143.971
-140.938
-137.067
-132.369
-126.943
-120.953
-114.527
-107.726
-100.548
-93.4255
-108.275
-108.276
-108.27
-108.241
-108.159
-108.012
-107.842
-107.66
-107.467
-107.248
-106.989
-106.654
-106.173
-105.44
-104.306
-102.595
-100.122
-96.7584
-92.4439
-87.6693
-104.179
-104.178
-104.177
-104.179
-104.18
-104.17
-104.12
-104.003
-103.782
-103.406
-102.803
-101.897
-100.621
-98.9396
-96.8482
-94.3716
-91.5363
-88.3515
-84.7525
-80.8287
-88.1614
-88.1518
-88.1412
-88.1251
-88.0991
-88.0564
-87.9927
-87.9094
-87.802
-87.6588
-87.4611
-87.1779
-86.7592
-86.1329
-85.2128
-83.9188
-82.188
-79.9933
-77.3276
-74.3286
-80.3836
-80.3727
-80.3606
-80.349
-80.339
-80.33
-80.3135
-80.2751
-80.2018
-80.0799
-79.8871
-79.5925
-79.1529
-78.516
-77.6249
-76.4315
-74.9015
-73.027
-70.8234
-68.1686
-70.7169
-70.703
-70.6869
-70.6677
-70.6487
-70.6289
-70.6046
-70.5684
-70.5181
-70.4475
-70.3492
-70.2088
-70.0027
-69.6936
-69.2259
-68.5345
-67.557
-66.2571
-64.6524
-62.8089
-63.7352
-63.721
-63.7046
-63.6863
-63.6699
-63.6574
-63.6462
-63.6273
-63.5922
-63.5375
-63.4554
-63.3352
-63.1591
-62.9009
-62.5221
-61.976
-61.2131
-60.2017
-58.9504
-57.3467
-56.8385
-56.8235
-56.8054
-56.7859
-56.7667
-56.7515
-56.7395
-56.7235
-56.6987
-56.6636
-56.6147
-56.5468
-56.4496
-56.3058