/*--------------------------------*- C++ -*----------------------------------*\
| =========                 |                                                 |
| \\      /  F ield         | OpenFOAM: The Open Source CFD Toolbox           |
|  \\    /   O peration     | Version:  2.3.0                                 |
|   \\  /    A nd           | Web:      www.OpenFOAM.org                      |
|    \\/     M anipulation  |                                                 |
\*---------------------------------------------------------------------------*/
FoamFile
{
    version     2.0;
    format      ascii;
    class       surfaceScalarField;
    location    "450";
    object      phi;
}
// * * * * * * * * * * * * * * * * * * * * * * * * * * * * * * * * * * * * * //

dimensions      [0 3 -1 0 0 0 0];

internalField   nonuniform List<scalar> 
56247
(
2.7066e-05
-0.000132678
0.000137139
-3.15457e-05
2.42721e-05
-0.000106932
0.000109726
2.29885e-05
-8.61275e-05
8.7411e-05
2.30452e-05
-6.94605e-05
6.94038e-05
2.42266e-05
-5.61717e-05
5.49902e-05
2.62823e-05
-4.56538e-05
4.35982e-05
2.89568e-05
-3.73349e-05
3.46605e-05
3.20263e-05
-3.07655e-05
2.7696e-05
3.52588e-05
-2.55289e-05
2.22963e-05
3.85275e-05
-2.13635e-05
1.8095e-05
4.1723e-05
-1.80173e-05
1.48218e-05
4.48089e-05
-1.53227e-05
1.22368e-05
4.7745e-05
-1.31299e-05
1.01939e-05
5.05563e-05
-1.1354e-05
8.54268e-06
5.32229e-05
-9.86701e-06
7.20049e-06
5.57847e-05
-8.63204e-06
6.07024e-06
5.82787e-05
-7.63371e-06
5.13995e-06
6.07536e-05
-6.79167e-06
4.31675e-06
6.3166e-05
-6.03053e-06
3.61838e-06
-5.44308e-06
6.5715e-05
2.89407e-06
2.93296e-05
-0.000128584
-3.34232e-05
2.70003e-05
-0.000104603
2.61435e-05
-8.52708e-05
2.64273e-05
-6.97443e-05
2.76038e-05
-5.73482e-05
2.94097e-05
-4.74597e-05
3.1659e-05
-3.95842e-05
3.41758e-05
-3.32823e-05
3.68676e-05
-2.82207e-05
3.96288e-05
-2.41247e-05
4.23849e-05
-2.07733e-05
4.51043e-05
-1.80422e-05
4.77298e-05
-1.57553e-05
5.02646e-05
-1.38888e-05
5.26819e-05
-1.22842e-05
5.50431e-05
-1.09933e-05
5.72613e-05
-9.8519e-06
5.94381e-05
-8.96847e-06
6.15692e-05
-8.16161e-06
-7.49529e-06
6.36214e-05
3.10212e-05
-0.000124729
-3.48767e-05
2.89004e-05
-0.000102483
2.81108e-05
-8.44813e-05
2.83718e-05
-7.00054e-05
2.93846e-05
-5.8361e-05
3.09279e-05
-4.90031e-05
3.28043e-05
-4.14605e-05
3.48684e-05
-3.53464e-05
3.70019e-05
-3.03541e-05
3.91616e-05
-2.62845e-05
4.13181e-05
-2.29298e-05
4.34134e-05
-2.01375e-05
4.54852e-05
-1.7827e-05
4.75273e-05
-1.59309e-05
4.9539e-05
-1.42959e-05
5.15319e-05
-1.29862e-05
5.35519e-05
-1.18719e-05
5.55181e-05
-1.09347e-05
5.74983e-05
-1.01418e-05
-9.50993e-06
5.95129e-05
3.22904e-05
-0.000121029
-3.59898e-05
3.01312e-05
-0.000100323
2.92028e-05
-8.35529e-05
2.91751e-05
-6.99777e-05
2.98136e-05
-5.89996e-05
3.09062e-05
-5.00957e-05
3.23003e-05
-4.28546e-05
3.3885e-05
-3.69311e-05
3.56033e-05
-3.20724e-05
3.73946e-05
-2.80757e-05
3.92297e-05
-2.47649e-05
4.11085e-05
-2.20163e-05
4.30054e-05
-1.97239e-05
4.4906e-05
-1.78315e-05
4.68687e-05
-1.62586e-05
4.88162e-05
-1.49337e-05
5.07692e-05
-1.38249e-05
5.27597e-05
-1.29251e-05
5.4775e-05
-1.21571e-05
-1.1525e-05
5.679e-05
3.31865e-05
-0.000117303
-3.69124e-05
3.09164e-05
-9.80532e-05
2.97599e-05
-8.23965e-05
2.94507e-05
-6.96686e-05
2.97578e-05
-5.93067e-05
3.05051e-05
-5.08431e-05
3.15613e-05
-4.39107e-05
3.28442e-05
-3.8214e-05
3.42835e-05
-3.35117e-05
3.58289e-05
-2.96211e-05
3.74659e-05
-2.6402e-05
3.91794e-05
-2.37298e-05
4.09604e-05
-2.15048e-05
4.27753e-05
-1.96464e-05
4.4634e-05
-1.81173e-05
4.65371e-05
-1.68369e-05
4.84814e-05
-1.57692e-05
5.04553e-05
-1.48991e-05
5.24506e-05
-1.41523e-05
-1.35579e-05
5.44835e-05
3.38063e-05
-0.000113458
-3.76517e-05
3.13407e-05
-9.55877e-05
2.99366e-05
-8.09925e-05
2.93442e-05
-6.90761e-05
2.93495e-05
-5.93121e-05
2.98036e-05
-5.12972e-05
3.05926e-05
-4.46997e-05
3.16329e-05
-3.92543e-05
3.28724e-05
-3.47512e-05
3.42696e-05
-3.10182e-05
3.57923e-05
-2.79247e-05
3.74125e-05
-2.53499e-05
3.91207e-05
-2.3213e-05
4.09076e-05
-2.14334e-05
4.27489e-05
-1.99586e-05
4.46445e-05
-1.87324e-05
4.65929e-05
-1.77176e-05
4.85671e-05
-1.68732e-05
5.0586e-05
-1.61712e-05
-1.55975e-05
5.26256e-05
3.41943e-05
-0.000109497
-3.81549e-05
3.15251e-05
-9.29185e-05
2.98944e-05
-7.93617e-05
2.90454e-05
-6.82271e-05
2.88021e-05
-5.90688e-05
2.90223e-05
-5.15174e-05
2.96107e-05
-4.52881e-05
3.04847e-05
-4.01283e-05
3.15895e-05
-3.5856e-05
3.28778e-05
-3.23065e-05
3.43155e-05
-2.93624e-05
3.58805e-05
-2.69149e-05
3.75481e-05
-2.48806e-05
3.93068e-05
-2.3192e-05
4.11364e-05
-2.17881e-05
4.30266e-05
-2.06226e-05
4.49655e-05
-1.96565e-05
4.69506e-05
-1.88583e-05
4.89763e-05
-1.81969e-05
-1.76492e-05
5.10279e-05
3.44158e-05
-0.000105333
-3.85806e-05
3.15525e-05
-9.00553e-05
2.9683e-05
-7.74923e-05
2.86029e-05
-6.71469e-05
2.81539e-05
-5.86198e-05
2.81963e-05
-5.15598e-05
2.86275e-05
-4.57193e-05
2.93769e-05
-4.08777e-05
3.03781e-05
-3.68571e-05
3.15861e-05
-3.35146e-05
3.29701e-05
-3.07465e-05
3.44933e-05
-2.84381e-05
3.61373e-05
-2.65245e-05
3.78756e-05
-2.49304e-05
3.9697e-05
-2.36095e-05
4.15894e-05
-2.2515e-05
4.35361e-05
-2.16032e-05
4.55276e-05
-2.08498e-05
4.75593e-05
-2.02286e-05
-1.97171e-05
4.96272e-05
3.44653e-05
-0.000100997
-3.88009e-05
3.14163e-05
-8.70062e-05
2.93546e-05
-7.54306e-05
2.81102e-05
-6.59025e-05
2.74901e-05
-5.79997e-05
2.7375e-05
-5.14447e-05
2.76827e-05
-4.60269e-05
2.8328e-05
-4.1523e-05
2.92508e-05
-3.778e-05
3.04068e-05
-3.46705e-05
3.17425e-05
-3.20822e-05
3.32385e-05
-2.99342e-05
3.48626e-05
-2.81486e-05
3.65919e-05
-2.66597e-05
3.84109e-05
-2.54285e-05
4.02963e-05
-2.44005e-05
4.22465e-05
-2.35534e-05
4.42484e-05
-2.28517e-05
4.62905e-05
-2.22707e-05
-2.17923e-05
4.83657e-05
3.44526e-05
-9.65047e-05
-3.89449e-05
3.1211e-05
-8.37647e-05
2.89896e-05
-7.32091e-05
2.7558e-05
-6.44709e-05
2.67971e-05
-5.72389e-05
2.65845e-05
-5.12321e-05
2.67909e-05
-4.62334e-05
2.73539e-05
-4.20859e-05
2.82117e-05
-3.86378e-05
2.93147e-05
-3.57736e-05
3.06194e-05
-3.33869e-05
3.20866e-05
-3.14013e-05
3.36956e-05
-2.97575e-05
3.54127e-05
-2.83768e-05
3.72301e-05
-2.7246e-05
3.91199e-05
-2.62902e-05
4.10748e-05
-2.55082e-05
4.30782e-05
-2.48551e-05
4.51288e-05
-2.43214e-05
-2.38743e-05
4.72107e-05
3.43475e-05
-9.18634e-05
-3.89888e-05
3.09441e-05
-8.03612e-05
2.85736e-05
-7.08387e-05
2.70193e-05
-6.29166e-05
2.61394e-05
-5.63589e-05
2.58021e-05
-5.08948e-05
2.59267e-05
-4.6358e-05
2.64231e-05
-4.25823e-05
2.72415e-05
-3.94562e-05
2.83032e-05
-3.68353e-05
2.95799e-05
-3.46635e-05
3.10245e-05
-3.2846e-05
3.26201e-05
-3.13532e-05
3.43392e-05
-3.00958e-05
3.61357e-05
-2.90426e-05
3.80349e-05
-2.81894e-05
3.99874e-05
-2.74608e-05
4.19954e-05
-2.68631e-05
4.40461e-05
-2.6372e-05
-2.59676e-05
4.61394e-05
3.41766e-05
-8.70844e-05
-3.89556e-05
3.06548e-05
-7.68394e-05
2.81196e-05
-6.83034e-05
2.64516e-05
-6.12487e-05
2.54729e-05
-5.53802e-05
2.50662e-05
-5.04881e-05
2.5121e-05
-4.64127e-05
2.55741e-05
-4.30354e-05
2.6335e-05
-4.02171e-05
2.73641e-05
-3.78644e-05
2.86045e-05
-3.59039e-05
3.00397e-05
-3.42811e-05
3.16227e-05
-3.29361e-05
3.33228e-05
-3.1796e-05
3.51308e-05
-3.08505e-05
3.70108e-05
-3.00694e-05
3.89678e-05
-2.94177e-05
4.09856e-05
-2.8881e-05
4.30399e-05
-2.84263e-05
-2.80654e-05
4.51376e-05
3.39632e-05
-8.21824e-05
-3.88652e-05
3.03024e-05
-7.31786e-05
2.76941e-05
-6.56951e-05
2.5928e-05
-5.94826e-05
2.48468e-05
-5.4299e-05
2.43698e-05
-5.00112e-05
2.43652e-05
-4.64081e-05
2.47578e-05
-4.34281e-05
2.54803e-05
-4.09396e-05
2.64923e-05
-3.88764e-05
2.7719e-05
-3.71307e-05
2.91423e-05
-3.57044e-05
3.06961e-05
-3.449e-05
3.23862e-05
-3.3486e-05
3.419e-05
-3.26544e-05
3.60783e-05
-3.19577e-05
3.80296e-05
-3.1369e-05
4.00401e-05
-3.08915e-05
4.21045e-05
-3.04907e-05
-3.01572e-05
4.41963e-05
3.3718e-05
-7.71683e-05
-3.8732e-05
2.99543e-05
-6.94149e-05
2.72542e-05
-6.2995e-05
2.54067e-05
-5.7635e-05
2.42711e-05
-5.31634e-05
2.37155e-05
-4.94556e-05
2.36615e-05
-4.63541e-05
2.40274e-05
-4.3794e-05
2.47142e-05
-4.16263e-05
2.56859e-05
-3.98481e-05
2.68894e-05
-3.83342e-05
2.82794e-05
-3.70944e-05
2.98211e-05
-3.60317e-05
3.15163e-05
-3.51812e-05
3.32995e-05
-3.44375e-05
3.51799e-05
-3.38381e-05
3.71469e-05
-3.3336e-05
3.91531e-05
-3.28977e-05
4.12075e-05
-3.25451e-05
-3.22598e-05
4.33101e-05
3.34619e-05
-7.20566e-05
-3.85736e-05
2.96072e-05
-6.55602e-05
2.68063e-05
-6.01941e-05
2.4889e-05
-5.57177e-05
2.36932e-05
-5.19677e-05
2.31045e-05
-4.88668e-05
2.30241e-05
-4.62736e-05
2.33179e-05
-4.40878e-05
2.39905e-05
-4.22988e-05
2.49178e-05
-4.07754e-05
2.61054e-05
-3.95218e-05
2.74936e-05
-3.84826e-05
2.90347e-05
-3.75728e-05
3.07042e-05
-3.68507e-05
3.24941e-05
-3.62275e-05
3.43705e-05
-3.57146e-05
3.63013e-05
-3.52668e-05
3.83219e-05
-3.49183e-05
4.03868e-05
-3.461e-05
-3.43493e-05
4.24763e-05
3.31723e-05
-6.68397e-05
-3.83891e-05
2.92869e-05
-6.16748e-05
2.64168e-05
-5.73239e-05
2.44395e-05
-5.37404e-05
2.31916e-05
-5.07197e-05
2.25379e-05
-4.82131e-05
2.23997e-05
-4.61355e-05
2.26992e-05
-4.43873e-05
2.33273e-05
-4.29269e-05
2.42461e-05
-4.16943e-05
2.54124e-05
-4.06881e-05
2.67681e-05
-3.98383e-05
2.82961e-05
-3.91008e-05
2.99554e-05
-3.85101e-05
3.17356e-05
-3.80076e-05
3.35887e-05
-3.75678e-05
3.55464e-05
-3.72244e-05
3.75449e-05
-3.69168e-05
3.95929e-05
-3.66581e-05
-3.64501e-05
4.16936e-05
3.29268e-05
-6.15725e-05
-3.81941e-05
2.89315e-05
-5.76795e-05
2.60272e-05
-5.44196e-05
2.39771e-05
-5.16903e-05
2.26849e-05
-4.94275e-05
2.20121e-05
-4.75402e-05
2.18441e-05
-4.59675e-05
2.20925e-05
-4.46357e-05
2.26951e-05
-4.35295e-05
2.36137e-05
-4.26129e-05
2.4762e-05
-4.18364e-05
2.61007e-05
-4.1177e-05
2.76155e-05
-4.06156e-05
2.92605e-05
-4.0155e-05
3.10358e-05
-3.97829e-05
3.2894e-05
-3.94259e-05
3.48276e-05
-3.91581e-05
3.68235e-05
-3.89127e-05
3.88805e-05
-3.87151e-05
-3.85316e-05
4.0962e-05
3.26615e-05
-5.62454e-05
-3.79885e-05
2.86118e-05
-5.36298e-05
2.56361e-05
-5.14439e-05
2.35888e-05
-4.9643e-05
2.226e-05
-4.80988e-05
2.15563e-05
-4.68365e-05
2.13316e-05
-4.57427e-05
2.15784e-05
-4.48826e-05
2.21576e-05
-4.41087e-05
2.30358e-05
-4.34911e-05
2.4147e-05
-4.29476e-05
2.54917e-05
-4.25217e-05
2.69915e-05
-4.21154e-05
2.86239e-05
-4.17875e-05
3.03668e-05
-4.15257e-05
3.22415e-05
-4.13006e-05
3.41466e-05
-4.10632e-05
3.61518e-05
-4.09179e-05
3.81863e-05
-4.07497e-05
-4.06269e-05
4.02816e-05
3.24001e-05
-5.08727e-05
-3.77729e-05
2.83062e-05
-4.95359e-05
2.53143e-05
-4.8452e-05
2.31847e-05
-4.75134e-05
2.1825e-05
-4.67391e-05
2.10921e-05
-4.61036e-05
2.08904e-05
-4.5541e-05
2.10681e-05
-4.50602e-05
2.16483e-05
-4.46889e-05
2.25104e-05
-4.43532e-05
2.36254e-05
-4.40625e-05
2.49338e-05
-4.38301e-05
2.64228e-05
-4.36043e-05
2.80672e-05
-4.3432e-05
2.9796e-05
-4.32545e-05
3.16179e-05
-4.31226e-05
3.35585e-05
-4.30037e-05
3.55364e-05
-4.28958e-05
3.75652e-05
-4.27784e-05
-4.27154e-05
3.96537e-05
3.21491e-05
-3.75576e-05
-4.54642e-05
2.80438e-05
-4.54306e-05
2.49946e-05
-4.54028e-05
2.28603e-05
-4.53791e-05
2.14727e-05
-4.53515e-05
2.06938e-05
-4.53247e-05
2.0447e-05
-4.52942e-05
2.06487e-05
-4.52619e-05
2.11905e-05
-4.52307e-05
2.20349e-05
-4.51976e-05
2.31338e-05
-4.51614e-05
2.44286e-05
-4.51249e-05
2.5908e-05
-4.50837e-05
2.75146e-05
-4.50386e-05
2.92578e-05
-4.49977e-05
3.10894e-05
-4.49542e-05
3.30007e-05
-4.4915e-05
3.49738e-05
-4.48689e-05
3.70161e-05
-4.48207e-05
3.90789e-05
-4.47782e-05
6.77062e-05
-5.55619e-06
3.56515e-06
6.9493e-05
-6.46188e-06
4.67503e-06
7.11341e-05
-7.51208e-06
5.87114e-06
7.2684e-05
-8.8685e-06
7.31861e-06
7.40724e-05
-1.04831e-05
9.0948e-06
7.5296e-05
-1.24978e-05
1.12742e-05
7.63122e-05
-1.49635e-05
1.39473e-05
7.70505e-05
-1.79571e-05
1.72188e-05
7.74647e-05
-2.16238e-05
2.12096e-05
7.74881e-05
-2.60785e-05
2.60551e-05
7.70606e-05
-3.14803e-05
3.19077e-05
7.61146e-05
-3.79943e-05
3.89403e-05
7.46024e-05
-4.58325e-05
4.73446e-05
7.2487e-05
-5.52289e-05
5.73444e-05
6.97459e-05
-6.64535e-05
6.91946e-05
6.63459e-05
-7.98159e-05
8.3216e-05
6.22203e-05
-9.56676e-05
9.97932e-05
5.72532e-05
-0.000114428
0.000119395
5.12656e-05
-0.000136597
0.000142585
-0.000162794
0.000169999
4.40604e-05
6.56352e-05
-7.56996e-06
6.76175e-05
-8.44419e-06
6.95298e-05
-9.42432e-06
7.13035e-05
-1.06423e-05
7.29973e-05
-1.21769e-05
7.44831e-05
-1.39836e-05
7.57667e-05
-1.62471e-05
7.67711e-05
-1.89614e-05
7.74605e-05
-2.23133e-05
7.77535e-05
-2.63715e-05
7.76085e-05
-3.13353e-05
7.69617e-05
-3.73475e-05
7.57584e-05
-4.46292e-05
7.39316e-05
-5.34022e-05
7.14176e-05
-6.39395e-05
6.81357e-05
-7.6534e-05
6.39962e-05
-9.15281e-05
5.8896e-05
-0.000109328
5.26922e-05
-0.000130393
-0.000155353
4.52509e-05
6.15194e-05
-9.57639e-06
6.34364e-05
-1.03613e-05
6.53556e-05
-1.13435e-05
6.72323e-05
-1.25189e-05
6.89901e-05
-1.39346e-05
7.0657e-05
-1.56506e-05
7.21407e-05
-1.77307e-05
7.34474e-05
-2.02681e-05
7.45086e-05
-2.33745e-05
7.52475e-05
-2.71104e-05
7.55977e-05
-3.16855e-05
7.5476e-05
-3.72258e-05
7.47814e-05
-4.39346e-05
7.34406e-05
-5.20614e-05
7.13426e-05
-6.18415e-05
6.83994e-05
-7.35908e-05
6.45175e-05
-8.76462e-05
5.95797e-05
-0.00010439
5.3464e-05
-0.000124278
-0.000147872
4.59832e-05
5.87984e-05
-1.15848e-05
6.07848e-05
-1.23476e-05
6.27196e-05
-1.32783e-05
6.45846e-05
-1.4384e-05
6.63531e-05
-1.57031e-05
6.80405e-05
-1.7338e-05
6.95936e-05
-1.92839e-05
7.09688e-05
-2.16433e-05
7.21155e-05
-2.45212e-05
7.3006e-05
-2.80009e-05
7.3542e-05
-3.22215e-05
7.365e-05
-3.73339e-05
7.32575e-05
-4.3542e-05
7.22352e-05
-5.10392e-05
7.0493e-05
-6.00993e-05
6.79065e-05
-7.10043e-05
6.4346e-05
-8.40857e-05
5.96847e-05
-9.97287e-05
5.37748e-05
-0.000118368
-0.000140545
4.64483e-05
5.65107e-05
-1.3612e-05
5.84882e-05
-1.43251e-05
6.04199e-05
-1.521e-05
6.22797e-05
-1.62438e-05
6.40834e-05
-1.75068e-05
6.577e-05
-1.90245e-05
6.73411e-05
-2.0855e-05
6.87547e-05
-2.30569e-05
6.99706e-05
-2.57371e-05
7.09368e-05
-2.89671e-05
7.15884e-05
-3.28731e-05
7.18669e-05
-3.76124e-05
7.16564e-05
-4.33315e-05
7.08776e-05
-5.02604e-05
6.9398e-05
-5.86196e-05
6.7094e-05
-6.87003e-05
6.38232e-05
-8.0815e-05
5.94379e-05
-9.53433e-05
5.3775e-05
-0.000112705
-0.000133401
4.66302e-05
5.46596e-05
-1.5646e-05
5.66589e-05
-1.63244e-05
5.85945e-05
-1.71455e-05
6.04785e-05
-1.81278e-05
6.22755e-05
-1.93039e-05
6.39721e-05
-2.07211e-05
6.5552e-05
-2.24349e-05
6.69797e-05
-2.44846e-05
6.82173e-05
-2.69747e-05
6.92179e-05
-2.99678e-05
6.99292e-05
-3.35844e-05
7.02756e-05
-3.79587e-05
7.01828e-05
-4.32387e-05
6.9543e-05
-4.96206e-05
6.82455e-05
-5.73221e-05
6.61526e-05
-6.66074e-05
6.31149e-05
-7.77772e-05
5.89769e-05
-9.12053e-05
5.35436e-05
-0.000107272
-0.000126477
4.66197e-05
5.30766e-05
-1.76947e-05
5.50796e-05
-1.83274e-05
5.70275e-05
-1.90934e-05
5.8906e-05
-2.00063e-05
6.07096e-05
-2.11075e-05
6.24113e-05
-2.24227e-05
6.39882e-05
-2.40119e-05
6.54225e-05
-2.59189e-05
6.66693e-05
-2.82214e-05
6.7692e-05
-3.09905e-05
6.84344e-05
-3.43268e-05
6.88324e-05
-3.83567e-05
6.88093e-05
-4.32157e-05
6.8266e-05
-4.90774e-05
6.70923e-05
-5.61484e-05
6.51575e-05
-6.46727e-05
6.23146e-05
-7.49343e-05
5.83791e-05
-8.72698e-05
5.31633e-05
-0.000102056
-0.000119771
4.64572e-05
5.16859e-05
-1.97533e-05
5.36994e-05
-2.0341e-05
5.56527e-05
-2.10467e-05
5.754e-05
-2.18935e-05
5.93437e-05
-2.29113e-05
6.10495e-05
-2.41285e-05
6.26298e-05
-2.55922e-05
6.40651e-05
-2.73542e-05
6.53152e-05
-2.94715e-05
6.63435e-05
-3.20189e-05
6.71033e-05
-3.50867e-05
6.75295e-05
-3.87829e-05
6.7547e-05
-4.32332e-05
6.707e-05
-4.86003e-05
6.59845e-05
-5.50629e-05
6.41578e-05
-6.28461e-05
6.14549e-05
-7.22313e-05
5.76863e-05
-8.35012e-05
5.26716e-05
-9.70414e-05
-0.000113274
4.61747e-05
5.04338e-05
-2.18214e-05
5.24538e-05
-2.23611e-05
5.44131e-05
-2.30059e-05
5.63034e-05
-2.37838e-05
5.81088e-05
-2.47167e-05
5.98147e-05
-2.58344e-05
6.13977e-05
-2.71752e-05
6.28298e-05
-2.87864e-05
6.40833e-05
-3.07249e-05
6.51201e-05
-3.30556e-05
6.5885e-05
-3.58516e-05
6.63247e-05
-3.92226e-05
6.63706e-05
-4.32791e-05
6.59318e-05
-4.81615e-05
6.49111e-05
-5.40423e-05
6.31843e-05
-6.11193e-05
6.05847e-05
-6.96317e-05
5.69669e-05
-7.98834e-05
5.21065e-05
-9.21809e-05
-0.000106955
4.57878e-05
4.92855e-05
-2.38962e-05
5.13129e-05
-2.43885e-05
5.32786e-05
-2.49716e-05
5.51734e-05
-2.56787e-05
5.69782e-05
-2.65215e-05
5.86817e-05
-2.75379e-05
6.02662e-05
-2.87597e-05
6.16985e-05
-3.02187e-05
6.29553e-05
-3.19818e-05
6.3988e-05
-3.40883e-05
6.47626e-05
-3.66262e-05
6.52139e-05
-3.9674e-05
6.52779e-05
-4.33431e-05
6.48697e-05
-4.77532e-05
6.38964e-05
-5.3069e-05
6.22207e-05
-5.94436e-05
5.97255e-05
-6.71365e-05
5.62124e-05
-7.63704e-05
5.14906e-05
-8.74592e-05
-0.000100799
4.53348e-05
4.8225e-05
-2.59817e-05
5.02521e-05
-2.64155e-05
5.22193e-05
-2.69389e-05
5.41123e-05
-2.75716e-05
5.59215e-05
-2.83306e-05
5.76295e-05
-2.9246e-05
5.92113e-05
-3.03415e-05
6.06432e-05
-3.16506e-05
6.18946e-05
-3.32331e-05
6.29317e-05
-3.51254e-05
6.37049e-05
-3.73994e-05
6.41619e-05
-4.0131e-05
6.4244e-05
-4.34253e-05
6.38616e-05
-4.73708e-05
6.29104e-05
-5.21178e-05
6.13017e-05
-5.78349e-05
5.88621e-05
-6.4697e-05
5.54359e-05
-7.29442e-05
5.08543e-05
-8.28776e-05
-9.47741e-05
4.48292e-05
4.72177e-05
-2.80617e-05
4.9258e-05
-2.84558e-05
5.12247e-05
-2.89057e-05
5.3132e-05
-2.94789e-05
5.49423e-05
-3.0141e-05
5.66428e-05
-3.09464e-05
5.82209e-05
-3.19196e-05
5.96524e-05
-3.30821e-05
6.08994e-05
-3.44802e-05
6.19393e-05
-3.61653e-05
6.27159e-05
-3.81761e-05
6.31865e-05
-4.06016e-05
6.32712e-05
-4.35099e-05
6.29014e-05
-4.7001e-05
6.19896e-05
-5.1206e-05
6.04015e-05
-5.62468e-05
5.80233e-05
-6.23187e-05
5.46889e-05
-6.96098e-05
5.01829e-05
-7.83716e-05
-8.88825e-05
4.42912e-05
4.62904e-05
-3.01559e-05
4.83213e-05
-3.04867e-05
5.03017e-05
-3.0886e-05
5.21869e-05
-3.13641e-05
5.40001e-05
-3.19542e-05
5.5709e-05
-3.26553e-05
5.72853e-05
-3.34959e-05
5.87145e-05
-3.45113e-05
5.99742e-05
-3.57399e-05
6.10019e-05
-3.71929e-05
6.17776e-05
-3.89518e-05
6.22433e-05
-4.10673e-05
6.23367e-05
-4.36033e-05
6.19915e-05
-4.66558e-05
6.109e-05
-5.03046e-05
5.95559e-05
-5.47127e-05
5.72243e-05
-5.99871e-05
5.39395e-05
-6.6325e-05
4.95169e-05
-7.39489e-05
-8.31011e-05
4.37355e-05
4.53915e-05
-3.22372e-05
4.7437e-05
-3.25323e-05
4.94055e-05
-3.28545e-05
5.13038e-05
-3.32624e-05
5.31133e-05
-3.37637e-05
5.48231e-05
-3.43652e-05
5.63978e-05
-3.50706e-05
5.78307e-05
-3.59442e-05
5.90774e-05
-3.69867e-05
6.01131e-05
-3.82286e-05
6.08919e-05
-3.97306e-05
6.13728e-05
-4.15482e-05
6.147e-05
-4.37005e-05
6.11295e-05
-4.63153e-05
6.0255e-05
-4.94301e-05
5.87207e-05
-5.31784e-05
5.64282e-05
-5.76947e-05
5.32102e-05
-6.3107e-05
4.88561e-05
-6.95948e-05
-7.74076e-05
4.31626e-05
4.45726e-05
-3.43335e-05
4.66024e-05
-3.45621e-05
4.85714e-05
-3.48234e-05
5.04815e-05
-3.51726e-05
5.22781e-05
-3.55602e-05
5.39884e-05
-3.60756e-05
5.55616e-05
-3.66437e-05
5.69923e-05
-3.73749e-05
5.82356e-05
-3.82299e-05
5.92761e-05
-3.92691e-05
6.007e-05
-4.05245e-05
6.05258e-05
-4.2004e-05
6.06437e-05
-4.38184e-05
6.02937e-05
-4.59653e-05
5.9436e-05
-4.85724e-05
5.79518e-05
-5.16941e-05
5.56733e-05
-5.54162e-05
5.24811e-05
-5.99148e-05
4.8198e-05
-6.53117e-05
-7.17881e-05
4.25785e-05
4.37708e-05
-3.64106e-05
4.58163e-05
-3.66076e-05
4.77975e-05
-3.68046e-05
4.96766e-05
-3.70517e-05
5.15035e-05
-3.73872e-05
5.31802e-05
-3.77523e-05
5.47697e-05
-3.82332e-05
5.62003e-05
-3.88056e-05
5.74598e-05
-3.94894e-05
5.84838e-05
-4.02931e-05
5.9264e-05
-4.13048e-05
5.97519e-05
-4.24919e-05
5.98609e-05
-4.39274e-05
5.95313e-05
-4.56357e-05
5.86862e-05
-4.77273e-05
5.71898e-05
-5.01978e-05
5.49659e-05
-5.31922e-05
5.18095e-05
-5.67585e-05
4.75583e-05
-6.10605e-05
-6.62314e-05
4.20016e-05
4.30548e-05
-3.85034e-05
4.5077e-05
-3.86299e-05
4.7044e-05
-3.87716e-05
4.89535e-05
-3.89612e-05
5.07431e-05
-3.91768e-05
5.24526e-05
-3.94619e-05
5.40241e-05
-3.98046e-05
5.54545e-05
-4.0236e-05
5.66986e-05
-4.07335e-05
5.77377e-05
-4.13323e-05
5.85187e-05
-4.20858e-05
5.89939e-05
-4.29671e-05
5.91039e-05
-4.40375e-05
5.8801e-05
-4.53327e-05
5.7947e-05
-4.68734e-05
5.6477e-05
-4.87278e-05
5.42593e-05
-5.09745e-05
5.11456e-05
-5.36448e-05
4.69276e-05
-5.68425e-05
-6.07268e-05
4.14231e-05
4.23716e-05
-4.05933e-05
4.4391e-05
-4.06492e-05
4.63501e-05
-4.07307e-05
4.82403e-05
-4.08514e-05
5.00483e-05
-4.09848e-05
5.17556e-05
-4.11691e-05
5.33439e-05
-4.1393e-05
5.47535e-05
-4.16456e-05
5.59962e-05
-4.19761e-05
5.70561e-05
-4.23922e-05
5.78193e-05
-4.2849e-05
5.83136e-05
-4.34613e-05
5.84281e-05
-4.4152e-05
5.81104e-05
-4.5015e-05
5.72827e-05
-4.60456e-05
5.58259e-05
-4.72711e-05
5.36041e-05
-4.87526e-05
5.04927e-05
-5.05335e-05
4.63248e-05
-5.26746e-05
-5.5257e-05
4.0855e-05
4.17171e-05
-4.26567e-05
4.37539e-05
-4.26861e-05
4.57086e-05
-4.26854e-05
4.7597e-05
-4.27398e-05
4.94004e-05
-4.27881e-05
5.11048e-05
-4.28736e-05
5.26754e-05
-4.29635e-05
5.41036e-05
-4.30737e-05
5.53443e-05
-4.32169e-05
5.63851e-05
-4.3433e-05
5.71861e-05
-4.36501e-05
5.76429e-05
-4.39181e-05
5.77785e-05
-4.42876e-05
5.74668e-05
-4.47034e-05
5.66255e-05
-4.52042e-05
5.51781e-05
-4.58237e-05
5.29869e-05
-4.65614e-05
4.99144e-05
-4.74609e-05
4.57704e-05
-4.85306e-05
-4.98007e-05
4.03141e-05
4.11597e-05
-4.47375e-05
4.31701e-05
-4.46965e-05
4.51436e-05
-4.46588e-05
4.70231e-05
-4.46193e-05
4.88222e-05
-4.45873e-05
5.05041e-05
-4.45555e-05
5.20709e-05
-4.45304e-05
5.3498e-05
-4.45008e-05
5.47561e-05
-4.4475e-05
5.5772e-05
-4.44489e-05
5.65551e-05
-4.44331e-05
5.7052e-05
-4.4415e-05
5.71673e-05
-4.44029e-05
5.68618e-05
-4.43979e-05
5.6045e-05
-4.43875e-05
5.46039e-05
-4.43826e-05
5.2425e-05
-4.43824e-05
4.93463e-05
-4.43823e-05
4.52047e-05
-4.43889e-05
3.97992e-05
-4.43953e-05
1.27728e-06
0.000192783
-0.000200246
6.18552e-06
7.07069e-06
0.000160181
-0.000165975
1.13388e-05
0.000132865
-0.000137133
1.43091e-05
0.000109888
-0.000112858
1.61783e-05
9.06253e-05
-9.24946e-05
1.71427e-05
7.44573e-05
-7.54219e-05
1.72886e-05
6.10634e-05
-6.12093e-05
1.68635e-05
4.99172e-05
-4.94921e-05
1.59466e-05
4.07683e-05
-3.98515e-05
1.46964e-05
3.32068e-05
-3.19564e-05
1.32004e-05
2.70239e-05
-2.5528e-05
1.15567e-05
2.19343e-05
-2.02901e-05
9.8167e-06
1.77527e-05
-1.60127e-05
8.04642e-06
1.42628e-05
-1.24917e-05
6.29702e-06
1.13504e-05
-9.60101e-06
4.56255e-06
8.84643e-06
-7.111e-06
2.84848e-06
6.66674e-06
-4.9527e-06
1.11249e-06
4.85564e-06
-3.11817e-06
-6.82752e-07
3.62583e-06
-1.83054e-06
3.21232e-06
-2.60124e-06
-1.29231e-06
1.18376e-06
0.000185342
6.25754e-06
6.87698e-06
0.000154488
1.10892e-05
0.000128652
1.40317e-05
0.000106945
1.58847e-05
8.87722e-05
1.67833e-05
7.35585e-05
1.69671e-05
6.08795e-05
1.65292e-05
5.0355e-05
1.56457e-05
4.16518e-05
1.43839e-05
3.44686e-05
1.29033e-05
2.85043e-05
1.12238e-05
2.3614e-05
9.45527e-06
1.9521e-05
7.64968e-06
1.60685e-05
5.84306e-06
1.31567e-05
4.05129e-06
1.06383e-05
2.21432e-06
8.50329e-06
2.04764e-07
6.86551e-06
-2.00163e-06
5.83157e-06
5.5583e-06
-4.34711e-06
1.0469e-06
0.000177944
6.35128e-06
6.70048e-06
0.000148835
1.09082e-05
0.000124445
1.3819e-05
0.000104034
1.56592e-05
8.69318e-05
1.66012e-05
7.26162e-05
1.6807e-05
6.06737e-05
1.63784e-05
5.07832e-05
1.54633e-05
4.25669e-05
1.42033e-05
3.5728e-05
1.26191e-05
3.00888e-05
1.08598e-05
2.53728e-05
8.97664e-06
2.14043e-05
6.98206e-06
1.8063e-05
4.96613e-06
1.51723e-05
2.95246e-06
1.26523e-05
9.3871e-07
1.05162e-05
-1.07935e-06
8.88418e-06
-3.34721e-06
8.09841e-06
8.1186e-06
-5.90674e-06
8.92742e-07
0.000170581
6.46991e-06
6.53364e-06
0.000143194
1.06739e-05
0.000120304
1.3604e-05
0.000101104
1.54836e-05
8.50521e-05
1.6463e-05
7.16365e-05
1.66823e-05
6.04544e-05
1.63479e-05
5.11168e-05
1.5537e-05
4.33782e-05
1.43197e-05
3.69443e-05
1.28488e-05
3.15603e-05
1.11356e-05
2.7085e-05
9.28859e-06
2.32518e-05
7.32101e-06
2.00301e-05
5.22546e-06
1.72679e-05
2.91939e-06
1.49588e-05
3.9554e-07
1.30385e-05
-2.32858e-06
1.16098e-05
-5.22895e-06
1.09957e-05
1.09878e-05
-8.09624e-06
7.14998e-07
0.000163258
6.60758e-06
6.29451e-06
0.000137614
1.04343e-05
0.000116165
1.33611e-05
9.8177e-05
1.52426e-05
8.31707e-05
1.62772e-05
7.06016e-05
1.66243e-05
6.01074e-05
1.63765e-05
5.13641e-05
1.56747e-05
4.408e-05
1.46401e-05
3.79784e-05
1.33436e-05
3.28571e-05
1.18408e-05
2.85875e-05
1.0113e-05
2.49804e-05
8.12175e-06
2.20214e-05
5.79586e-06
1.95942e-05
3.08173e-06
1.76734e-05
-7.56408e-08
1.61957e-05
-3.61348e-06
1.51481e-05
-7.10281e-06
1.44844e-05
1.40825e-05
-1.01969e-05
5.13175e-07
0.000155989
6.75543e-06
6.0513e-06
0.000132076
1.01853e-05
0.000112031
1.30781e-05
9.52841e-05
1.49674e-05
8.12813e-05
1.6027e-05
6.95418e-05
1.63939e-05
5.97403e-05
1.62397e-05
5.15182e-05
1.56691e-05
4.46504e-05
1.47567e-05
3.8891e-05
1.35331e-05
3.40808e-05
1.19752e-05
3.01454e-05
1.00701e-05
2.68857e-05
7.78641e-06
2.43051e-05
5.13596e-06
2.2245e-05
2.20936e-06
2.05999e-05
-9.47574e-07
1.93529e-05
-4.17809e-06
1.83786e-05
-7.31875e-06
1.76252e-05
1.70474e-05
-1.02837e-05
2.6028e-07
0.000148783
6.94603e-06
5.80164e-06
0.000126534
9.85331e-06
0.000107979
1.27401e-05
9.23972e-05
1.46319e-05
7.93894e-05
1.56684e-05
6.85052e-05
1.60942e-05
5.93145e-05
1.59849e-05
5.16274e-05
1.54336e-05
4.52017e-05
1.44698e-05
3.98547e-05
1.3081e-05
3.54698e-05
1.1301e-05
3.19252e-05
9.15973e-06
2.90271e-05
6.73041e-06
2.67343e-05
4.10312e-06
2.48724e-05
1.31455e-06
2.33884e-05
-1.52987e-06
2.21973e-05
-4.39075e-06
2.12395e-05
-7.22638e-06
2.04608e-05
1.98318e-05
-1.00107e-05
2.78679e-08
0.000141614
7.14138e-06
5.47821e-06
0.000121084
9.53182e-06
0.000103925
1.23602e-05
8.95688e-05
1.42195e-05
7.753e-05
1.53327e-05
6.73919e-05
1.57613e-05
5.88859e-05
1.5664e-05
5.17247e-05
1.50284e-05
4.58374e-05
1.38902e-05
4.09928e-05
1.2301e-05
3.70591e-05
1.04142e-05
3.38121e-05
8.21223e-06
3.12292e-05
5.83359e-06
2.91129e-05
3.31254e-06
2.73935e-05
7.12709e-07
2.59882e-05
-1.94964e-06
2.48597e-05
-4.62698e-06
2.39168e-05
-7.33583e-06
2.31697e-05
2.25535e-05
-1.00575e-05
-2.40771e-07
0.000134496
7.35813e-06
5.15993e-06
0.000115683
9.15062e-06
9.99344e-05
1.199e-05
8.67293e-05
1.38771e-05
7.5643e-05
1.49935e-05
6.62755e-05
1.54251e-05
5.84544e-05
1.5192e-05
5.19577e-05
1.43939e-05
4.66356e-05
1.31384e-05
4.22482e-05
1.1525e-05
3.86726e-05
9.59196e-06
3.57451e-05
7.452e-06
3.33692e-05
5.14923e-06
3.14156e-05
2.72037e-06
2.98224e-05
2.15537e-07
2.8493e-05
-2.36011e-06
2.74354e-05
-4.9841e-06
2.65408e-05
-7.63726e-06
2.58228e-05
2.52172e-05
-1.0301e-05
-5.27839e-07
0.000127413
7.61139e-06
4.85921e-06
0.000110296
8.83878e-06
9.59549e-05
1.16765e-05
8.38916e-05
1.3595e-05
7.37246e-05
1.46375e-05
6.52331e-05
1.49651e-05
5.81269e-05
1.4622e-05
5.23009e-05
1.37641e-05
4.74935e-05
1.24492e-05
4.35632e-05
1.08159e-05
4.0306e-05
8.93296e-06
3.7628e-05
6.84068e-06
3.54615e-05
4.59398e-06
3.36624e-05
2.24191e-06
3.21745e-05
-2.30559e-07
3.09655e-05
-2.74087e-06
2.99457e-05
-5.32855e-06
2.91285e-05
-7.9543e-06
2.84486e-05
2.78822e-05
-1.06193e-05
-8.10611e-07
0.000120379
7.84445e-06
4.54048e-06
0.000104945
8.53529e-06
9.19601e-05
1.13973e-05
8.10296e-05
1.32425e-05
7.18793e-05
1.42395e-05
6.42362e-05
1.44355e-05
5.79309e-05
1.40311e-05
5.27053e-05
1.31454e-05
4.83792e-05
1.1873e-05
4.48357e-05
1.02605e-05
4.19185e-05
8.38981e-06
3.94988e-05
6.33584e-06
3.75154e-05
4.12794e-06
3.58703e-05
1.79174e-06
3.45107e-05
-6.29135e-07
3.33864e-05
-3.13349e-06
3.245e-05
-5.70121e-06
3.16963e-05
-8.29221e-06
3.10396e-05
3.05385e-05
-1.09485e-05
-1.07152e-06
0.000113349
8.10173e-06
4.29101e-06
9.95826e-05
8.30836e-06
8.79427e-05
1.11035e-05
7.82345e-05
1.28732e-05
7.01096e-05
1.37751e-05
6.33343e-05
1.39641e-05
5.77419e-05
1.35362e-05
5.31332e-05
1.26287e-05
4.92867e-05
1.1351e-05
4.61134e-05
9.76368e-06
4.35059e-05
7.94315e-06
4.13193e-05
5.91907e-06
3.95395e-05
3.73901e-06
3.80504e-05
1.42718e-06
3.68225e-05
-9.73208e-07
3.57868e-05
-3.46155e-06
3.49384e-05
-5.99697e-06
3.42317e-05
-8.6212e-06
3.36638e-05
3.31706e-05
-1.12532e-05
-1.31972e-06
0.000106333
8.33579e-06
4.0924e-06
9.41705e-05
8.03014e-06
8.4005e-05
1.07859e-05
7.54788e-05
1.25165e-05
6.8379e-05
1.33533e-05
6.24975e-05
1.35002e-05
5.7595e-05
1.30929e-05
5.35404e-05
1.22196e-05
5.016e-05
1.09628e-05
4.73702e-05
9.39999e-06
4.50687e-05
7.58355e-06
4.31357e-05
5.58324e-06
4.15399e-05
3.42424e-06
4.02094e-05
1.15102e-06
3.90957e-05
-1.25611e-06
3.81939e-05
-3.73393e-06
3.74162e-05
-6.28276e-06
3.67805e-05
-8.86169e-06
3.62428e-05
3.58221e-05
-1.15132e-05
-1.49002e-06
9.92845e-05
8.53813e-06
3.85149e-06
8.8829e-05
7.76211e-06
8.00944e-05
1.04664e-05
7.27745e-05
1.21378e-05
6.67076e-05
1.29787e-05
6.16566e-05
1.31464e-05
5.74274e-05
1.27285e-05
5.39584e-05
1.18522e-05
5.10364e-05
1.06176e-05
4.86047e-05
9.07787e-06
4.66085e-05
7.30458e-06
4.4909e-05
5.32389e-06
4.35206e-05
3.18165e-06
4.23516e-05
9.01104e-07
4.13763e-05
-1.47465e-06
4.05697e-05
-3.92397e-06
3.98655e-05
-6.46833e-06
3.93249e-05
-9.06601e-06
3.88405e-05
3.84742e-05
-1.17181e-05
-1.67195e-06
9.22522e-05
8.7043e-06
3.6305e-06
8.35265e-05
7.52044e-06
7.62045e-05
1.017e-05
7.0125e-05
1.18252e-05
6.50524e-05
1.26871e-05
6.07947e-05
1.28207e-05
5.72938e-05
1.24418e-05
5.43372e-05
1.1608e-05
5.18702e-05
1.03735e-05
4.98392e-05
8.87643e-06
4.81055e-05
7.10084e-06
4.66846e-05
5.13683e-06
4.54846e-05
3.00848e-06
4.448e-05
7.38825e-07
4.3646e-05
-1.60734e-06
4.29159e-05
-4.09339e-06
4.23516e-05
-6.63474e-06
4.18662e-05
-9.2316e-06
4.14373e-05
4.11065e-05
-1.18639e-05
-1.85312e-06
8.52481e-05
8.85716e-06
3.43787e-06
7.82355e-05
7.25537e-06
7.2387e-05
9.91343e-06
6.74669e-05
1.15901e-05
6.33757e-05
1.24167e-05
5.99681e-05
1.26105e-05
5.71e-05
1.22294e-05
5.47184e-05
1.13948e-05
5.27049e-05
1.02245e-05
5.10095e-05
8.70321e-06
4.96268e-05
6.96619e-06
4.84216e-05
5.01668e-06
4.74341e-05
2.9002e-06
4.65964e-05
6.61237e-07
4.58849e-05
-1.72072e-06
4.52978e-05
-4.18124e-06
4.48121e-05
-6.69904e-06
4.4384e-05
-9.29571e-06
4.4034e-05
4.37615e-05
-1.19507e-05
-2.03398e-06
7.82604e-05
9.02171e-06
3.21537e-06
7.29862e-05
7.06837e-06
6.8534e-05
9.70439e-06
6.48309e-05
1.13681e-05
6.1712e-05
1.22327e-05
5.91034e-05
1.24236e-05
5.69091e-05
1.20853e-05
5.50567e-05
1.12931e-05
5.34971e-05
1.00985e-05
5.22041e-05
8.63833e-06
5.10869e-05
6.89491e-06
5.0165e-05
4.95833e-06
4.93707e-05
2.85234e-06
4.87024e-05
6.00041e-07
4.81372e-05
-1.75465e-06
4.76525e-05
-4.21147e-06
4.72689e-05
-6.72731e-06
4.68998e-05