/*--------------------------------*- C++ -*----------------------------------*\
| =========                 |                                                 |
| \\      /  F ield         | OpenFOAM: The Open Source CFD Toolbox           |
|  \\    /   O peration     | Version:  2.3.0                                 |
|   \\  /    A nd           | Web:      www.OpenFOAM.org                      |
|    \\/     M anipulation  |                                                 |
\*---------------------------------------------------------------------------*/
FoamFile
{
    version     2.0;
    format      ascii;
    class       volVectorField;
    location    "450";
    object      U;
}
// * * * * * * * * * * * * * * * * * * * * * * * * * * * * * * * * * * * * * //

dimensions      [0 1 -1 0 0 0 0];

internalField   nonuniform List<vector> 
28256
(
(17.0653 2.50483 -3.87913e-20)
(16.5395 2.17404 -1.51591e-19)
(16.0466 1.73651 2.45418e-19)
(15.5923 1.22983 -1.26368e-19)
(15.2044 0.656892 3.19295e-19)
(14.9069 0.0309268 0)
(14.7098 -0.620866 2.33688e-19)
(14.616 -1.27064 -2.7679e-19)
(14.6232 -1.8926 0)
(14.7181 -2.46197 0)
(14.8929 -2.96361 5.10841e-20)
(15.1364 -3.3889 0)
(15.4398 -3.736 0)
(15.7916 -4.00783 3.88784e-22)
(16.1823 -4.21108 7.67198e-21)
(16.5968 -4.35002 -5.80061e-20)
(17.0291 -4.43346 4.86544e-20)
(17.4685 -4.46582 6.93001e-20)
(17.9248 -4.46672 8.60577e-21)
(18.3874 -4.4516 -6.69553e-20)
(17.3233 2.21324 2.66811e-20)
(16.9421 1.81501 -3.23011e-20)
(16.6239 1.34298 -1.63661e-19)
(16.375 0.833645 1.43766e-19)
(16.2127 0.304468 -2.97045e-20)
(16.1451 -0.224682 0)
(16.1703 -0.735656 0)
(16.2802 -1.2152 1.4547e-19)
(16.4603 -1.65535 -2.27879e-19)
(16.6943 -2.04989 1.02648e-19)
(16.9663 -2.39498 0)
(17.2613 -2.688 6.83932e-23)
(17.5668 -2.92862 -3.2494e-20)
(17.8717 -3.11842 4.41134e-20)
(18.1684 -3.26126 -1.26731e-20)
(18.4496 -3.36347 1.42578e-20)
(18.7137 -3.42856 1.27221e-20)
(18.9555 -3.46376 -2.07195e-20)
(19.176 -3.47421 -3.63605e-20)
(19.3764 -3.46429 3.40109e-20)
(17.5873 2.00211 1.7646e-20)
(17.323 1.59306 -2.37314e-20)
(17.1256 1.13194 3.43637e-20)
(16.9963 0.652851 3.9217e-20)
(16.9401 0.17218 -5.24298e-20)
(16.9549 -0.292111 3.76022e-21)
(17.0332 -0.723696 0)
(17.1636 -1.11067 6.76959e-21)
(17.3329 -1.44612 0)
(17.5289 -1.72737 6.62739e-20)
(17.7408 -1.95548 -6.87324e-20)
(17.9592 -2.13456 6.13546e-20)
(18.1765 -2.27184 1.01816e-20)
(18.3874 -2.37171 -5.05065e-20)
(18.5887 -2.44171 -4.26291e-21)
(18.7781 -2.48703 0)
(18.9547 -2.5129 -1.10522e-21)
(19.1191 -2.52166 5.68923e-20)
(19.2711 -2.51898 -5.22504e-20)
(19.4122 -2.50736 -6.82621e-22)
(17.8489 1.86083 0)
(17.6735 1.47778 0)
(17.5634 1.05986 -5.34949e-20)
(17.5123 0.644237 2.78298e-20)
(17.5198 0.246298 -2.69184e-20)
(17.5795 -0.121758 2.32567e-20)
(17.6816 -0.450939 0)
(17.8151 -0.737283 -8.86058e-21)
(17.9686 -0.981194 -4.44131e-20)
(18.1334 -1.18368 4.91106e-20)
(18.3018 -1.34804 0)
(18.4683 -1.47954 1.86091e-21)
(18.6293 -1.58318 0)
(18.7827 -1.66179 4.57644e-22)
(18.9271 -1.72075 3.1171e-21)
(19.063 -1.76237 3.26145e-21)
(19.1902 -1.79033 0)
(19.3091 -1.80725 0)
(19.4211 -1.81508 -1.41689e-21)
(19.527 -1.81498 0)
(18.0993 1.78754 0)
(17.9865 1.43515 4.93902e-20)
(17.9334 1.06654 -1.15251e-19)
(17.927 0.711873 6.51152e-20)
(17.9626 0.38111 6.82888e-20)
(18.0325 0.0816731 -3.5565e-20)
(18.1281 -0.181569 -6.63009e-20)
(18.2407 -0.407891 2.1171e-19)
(18.3633 -0.598287 -1.26802e-19)
(18.4901 -0.755719 -1.81824e-20)
(18.6167 -0.883785 0)
(18.7405 -0.986294 -6.72728e-21)
(18.8596 -1.06778 0)
(18.9734 -1.13155 5.66809e-22)
(19.0813 -1.18029 -5.8692e-20)
(19.1834 -1.2163 5.12566e-20)
(19.2805 -1.24284 3.24942e-21)
(19.3727 -1.26038 1.53919e-21)
(19.4608 -1.27041 1.39625e-21)
(19.5456 -1.27475 0)
(18.3258 1.74625 -1.35679e-19)
(18.2608 1.4415 -6.44349e-20)
(18.2442 1.12598 1.26298e-19)
(18.2626 0.829233 -6.00125e-20)
(18.3099 0.558228 1.34182e-20)
(18.3794 0.316993 -4.10127e-20)
(18.4642 0.106697 0)
(18.5581 -0.0730933 2.06087e-20)
(18.6564 -0.224853 5.5827e-20)
(18.7556 -0.352076 1.99828e-20)
(18.8532 -0.457288 -6.28944e-21)
(18.948 -0.543366 -6.42294e-20)
(19.0389 -0.613878 -7.11944e-20)
(19.1259 -0.671523 -4.87677e-21)
(19.209 -0.717802 1.08172e-19)
(19.2885 -0.754193 -1.05988e-19)
(19.3646 -0.782653 -3.42819e-21)
(19.438 -0.803287 4.61821e-20)
(19.5092 -0.818519 0)
(19.5785 -0.827852 0)
(18.5311 1.75479 2.0149e-19)
(18.4973 1.48474 -2.39216e-19)
(18.502 1.21681 8.54528e-20)
(18.5319 0.969158 0)
(18.5808 0.745612 0)
(18.6433 0.54782 9.05939e-20)
(18.7143 0.37556 4.13943e-20)
(18.7898 0.227415 -7.75963e-20)
(18.8669 0.101163 9.91389e-20)
(18.9434 -0.00608421 -5.50044e-20)
(19.0184 -0.0959573 -8.04281e-22)
(19.0909 -0.171822 0)
(19.1607 -0.235277 7.76499e-21)
(19.228 -0.288573 6.18237e-20)
(19.2928 -0.332799 -5.82263e-20)
(19.3554 -0.369096 5.51176e-20)
(19.4162 -0.39849 -3.45591e-21)
(19.4753 -0.421863 -4.99911e-20)
(19.5334 -0.439827 -5.012e-20)
(19.5907 -0.452815 4.58864e-20)
(18.7074 1.7812 0)
(18.6977 1.54948 4.13017e-19)
(18.7143 1.32528 -1.66679e-19)
(18.7483 1.11988 0)
(18.7946 0.935458 9.14854e-20)
(18.8487 0.77242 -3.41673e-20)
(18.9073 0.629804 -2.2177e-19)
(18.9677 0.506034 1.243e-19)
(19.0283 0.398813 0)
(19.088 0.306815 -1.85213e-20)
(19.1461 0.227638 8.82847e-21)
(19.2024 0.159359 -6.90974e-20)
(19.2568 0.100905 6.48674e-20)
(19.3094 0.0503708 0)
(19.3605 0.00738071 3.60993e-21)
(19.4103 -0.0293699 -4.8121e-20)
(19.4591 -0.0605757 5.27649e-20)
(19.5071 -0.0862822 0)
(19.5547 -0.107015 5.0336e-20)
(19.6021 -0.123717 -4.62709e-20)
(18.8603 1.83272 0)
(18.8656 1.63117 -1.67166e-19)
(18.8882 1.44377 0)
(18.9221 1.2733 0)
(18.9633 1.12008 9.59423e-20)
(19.0087 0.984222 -1.3585e-19)
(19.0562 0.86456 8.73196e-20)
(19.1042 0.75928 4.21953e-20)
(19.1516 0.666865 -6.08571e-20)
(19.198 0.586185 7.65133e-20)
(19.2429 0.515203 -1.85082e-20)
(19.2865 0.453063 -8.74834e-21)
(19.3288 0.398297 0)
(19.37 0.350111 6.20549e-20)
(19.4102 0.307943 -5.93229e-20)
(19.4497 0.270885 4.89491e-20)
(19.4887 0.238847 -9.70166e-20)
(19.5275 0.211382 5.15495e-20)
(19.5663 0.188004 -5.15666e-20)
(19.6053 0.16874 5.05331e-20)
(18.9926 1.88899 0)
(19.0062 1.721 0)
(19.0302 1.56565 9.46422e-20)
(19.0614 1.42415 -9.3335e-20)
(19.0968 1.29676 -1.84256e-19)
(19.1344 1.183 1.36707e-19)
(19.1725 1.08165 0)
(19.2104 0.9915 -1.05297e-19)
(19.2475 0.911278 1.40854e-19)
(19.2834 0.839725 3.80877e-22)
(19.3183 0.775815 -5.45613e-20)
(19.352 0.71868 8.51886e-21)
(19.3848 0.667254 -7.35469e-20)
(19.4169 0.621197 6.26e-20)
(19.4484 0.579856 5.91139e-20)
(19.4795 0.54285 -7.41631e-22)
(19.5104 0.510171 -7.63566e-21)
(19.5414 0.481157 -5.24821e-20)
(19.5726 0.455898 3.11845e-21)
(19.6043 0.434148 3.02488e-21)
(19.1047 1.95479 -8.55117e-20)
(19.1217 1.8154 9.49618e-20)
(19.1449 1.68686 0)
(19.1724 1.56966 9.60327e-20)
(19.2021 1.46357 0)
(19.2326 1.36776 1.61503e-21)
(19.2629 1.28158 0)
(19.2926 1.20397 0)
(19.3214 1.13379 1.99473e-20)
(19.3491 1.07004 7.54378e-20)
(19.3758 1.01215 -7.19407e-20)
(19.4017 0.959558 0)
(19.4268 0.911392 8.12766e-21)
(19.4514 0.867314 7.01783e-20)
(19.4757 0.827079 -5.27968e-20)
(19.4998 0.790548 -4.98259e-20)
(19.5239 0.757227 4.87463e-20)
(19.5481 0.72744 6.64271e-21)
(19.5728 0.700712 -5.05221e-20)
(19.598 0.67719 4.9866e-20)
(19.1968 2.02617 -2.49878e-21)
(19.2153 1.91112 -9.34407e-20)
(19.2366 1.80517 0)
(19.2602 1.70835 -9.11353e-20)
(19.2846 1.6199 9.12127e-20)
(19.309 1.53928 -1.30827e-19)
(19.3329 1.46584 -4.26626e-20)
(19.3559 1.3988 0)
(19.3779 1.33706 -1.92538e-20)
(19.399 1.28027 -1.86495e-20)
(19.4192 1.22791 0)
(19.4387 1.17966 -6.77519e-20)
(19.4576 1.13452 1.14198e-19)
(19.4761 1.09244 -7.08649e-20)
(19.4942 1.05384 -6.74102e-20)
(19.5124 1.0179 1.08818e-19)
(19.5306 0.984689 -1.0482e-19)
(19.5491 0.954373 4.77234e-20)
(19.5679 0.926699 5.81629e-20)
(19.5874 0.901803 -5.73726e-20)
(19.2744 2.1014 -9.12383e-20)
(19.2909 2.00623 1.82596e-19)
(19.3093 1.91924 4.76865e-20)
(19.3288 1.8392 -2.27884e-19)
(19.3484 1.76553 4.35776e-20)
(19.3676 1.69765 4.30592e-20)
(19.3861 1.63497 -8.30488e-20)
(19.4036 1.57697 7.91046e-20)
(19.4201 1.52285 0)
(19.4358 1.4723 1.81721e-20)
(19.4507 1.425 0)
(19.4649 1.38066 -8.4211e-20)
(19.4786 1.33852 1.46537e-19)
(19.4919 1.29902 -6.3176e-20)
(19.505 1.26196 -7.54037e-20)
(19.518 1.22703 5.91416e-20)
(19.5311 1.19438 7.1046e-21)
(19.5445 1.1639 -5.45033e-20)
(19.5583 1.13574 4.7176e-20)
(19.5727 1.1098 0)
(19.3363 2.17764 0)
(19.3508 2.09922 -1.50705e-21)
(19.3661 2.02786 -9.08337e-20)
(19.3817 1.96164 8.75424e-20)
(19.397 1.90035 -4.34553e-20)
(19.4117 1.84323 4.16831e-20)
(19.4256 1.78987 5.9916e-20)
(19.4385 1.73974 0)
(19.4506 1.69239 9.28668e-20)
(19.4618 1.64746 -8.98617e-20)
(19.4722 1.60482 0)
(19.482 1.56421 -4.99096e-20)
(19.4913 1.52546 6.51543e-20)
(19.5002 1.48864 0)
(19.509 1.45331 1.52467e-20)
(19.5176 1.41977 5.87066e-20)
(19.5264 1.38784 6.25943e-21)
(19.5353 1.35766 -5.64442e-20)
(19.5447 1.32944 4.70799e-20)
(19.5545 1.30311 -5.34794e-20)
(19.3857 2.25067 1.8349e-19)
(19.398 2.18751 -1.34394e-19)
(19.4099 2.12958 4.28696e-20)
(19.4217 2.07524 4.24764e-20)
(19.4332 2.02438 0)
(19.4439 1.97649 0)
(19.4539 1.9311 6.37822e-23)
(19.463 1.88784 0)
(19.4712 1.84661 -1.8158e-20)
(19.4786 1.8069 1.7598e-20)
(19.4853 1.76884 -8.50094e-20)
(19.4914 1.73193 6.55337e-22)
(19.497 1.69643 6.49805e-20)
(19.5022 1.66217 -1.56972e-20)
(19.5071 1.62897 -6.088e-20)
(19.512 1.59701 1.04634e-19)
(19.5169 1.56617 -9.1818e-22)
(19.522 1.53682 -5.72757e-20)
(19.5275 1.50887 6.93331e-21)
(19.5334 1.48243 0)
(19.4249 2.32206 4.64058e-20)
(19.4337 2.27128 4.28725e-20)
(19.4423 2.2243 -8.50295e-20)
(19.4508 2.17993 0)
(19.4589 2.13788 7.99902e-20)
(19.4662 2.09785 -7.76728e-20)
(19.4729 2.05937 5.62552e-20)
(19.4786 2.02233 -3.85498e-22)
(19.4836 1.98645 -7.12833e-20)
(19.4878 1.95164 0)
(19.4913 1.91782 8.40349e-20)
(19.4943 1.88447 -1.48091e-19)
(19.4967 1.8521 7.23031e-22)
(19.4986 1.82056 7.90276e-20)
(19.5004 1.7896 -6.11422e-20)
(19.502 1.75943 7.56928e-20)
(19.5036 1.73027 4.37557e-20)
(19.5053 1.70188 -5.81581e-20)
(19.5074 1.67459 5.60023e-20)
(19.5098 1.64858 -5.57219e-20)
(19.4539 2.38987 3.74696e-22)
(19.4597 2.34958 1.24264e-19)
(19.4654 2.31185 4.05932e-20)
(19.4709 2.2758 -7.913e-20)
(19.476 2.24125 0)
(19.4804 2.20796 1.11987e-19)
(19.4841 2.17555 -7.3023e-20)
(19.487 2.14391 0)
(19.4892 2.11294 -1.73125e-20)
(19.4907 2.08253 -5.06672e-20)
(19.4915 2.05246 1.33144e-19)
(19.4917 2.02266 -1.30464e-19)
(19.4913 1.99342 4.84017e-20)
(19.4905 1.96461 0)
(19.4894 1.93598 -4.59305e-20)
(19.4882 1.90786 4.59097e-20)
(19.4869 1.88033 0)
(19.4858 1.85329 0)
(19.4849 1.8271 1.43588e-20)
(19.4844 1.80173 0)
(19.4735 2.45398 -8.49275e-20)
(19.4774 2.42213 -1.33903e-22)
(19.4806 2.39221 -7.74102e-20)
(19.4835 2.36316 0)
(19.4859 2.33488 7.36908e-20)
(19.4877 2.30726 -1.26488e-19)
(19.4889 2.28013 8.79957e-20)
(19.4895 2.2534 -1.77241e-20)
(19.4894 2.22683 -6.81433e-20)
(19.4886 2.20039 -1.6734e-20)
(19.487 2.17393 -1.63607e-20)
(19.4848 2.14752 -6.42701e-20)
(19.4821 2.12118 3.25357e-20)
(19.4789 2.09511 7.23495e-22)
(19.4755 2.06897 6.69103e-22)
(19.4719 2.04293 1.60176e-20)
(19.4681 2.01715 7.75568e-22)
(19.4644 1.99179 5.95518e-20)
(19.461 1.96676 -1.16208e-23)
(19.4579 1.94248 -5.68924e-20)
(19.487 2.51485 1.63279e-19)
(19.4881 2.48958 3.74618e-20)
(19.4887 2.46576 3.67567e-20)
(19.4893 2.44232 0)
(19.4895 2.41924 0)
(19.489 2.39633 8.64601e-20)
(19.4879 2.37367 -1.5366e-19)
(19.4863 2.35111 1.7399e-20)
(19.4841 2.32852 8.31672e-20)
(19.4814 2.30564 -1.64417e-20)
(19.4779 2.28256 -8.40593e-24)
(19.4736 2.25913 1.60504e-20)
(19.4688 2.23556 -1.58756e-20)
(19.4635 2.21204 1.57646e-20)
(19.4579 2.18836 -6.13978e-20)
(19.4523 2.16453 1.22019e-19)
(19.4466 2.14069 -7.58206e-20)
(19.4409 2.11682 0)
(19.4352 2.09327 -1.4706e-20)
(19.4298 2.07024 1.46046e-20)
(19.4966 2.57196 1.07937e-19)
(19.4944 2.55189 -2.43764e-22)
(19.4928 2.53306 -6.86171e-20)
(19.492 2.51448 0)
(19.4904 2.49607 6.6351e-20)
(19.488 2.47693 -6.61071e-20)
(19.4854 2.45815 -8.12091e-20)
(19.4822 2.43923 6.48166e-20)
(19.4787 2.42033 4.79292e-20)
(19.4744 2.40095 -6.32774e-20)
(19.4693 2.38118 7.84976e-20)
(19.4633 2.36052 -1.41206e-19)
(19.4568 2.33956 -1.48556e-20)
(19.4499 2.31853 4.68482e-20)
(19.4425 2.29747 -3.025e-20)
(19.4352 2.27627 6.01676e-20)
(19.4276 2.25402 -9.01906e-20)
(19.4198 2.23141 5.95732e-20)
(19.412 2.20916 0)
(19.405 2.18742 -1.43101e-20)
(18.8385 -4.36263 0)
(19.245 -4.18733 -1.37381e-21)
(19.6552 -3.95248 -4.39983e-19)
(20.0666 -3.67342 4.87867e-19)
(20.4795 -3.36112 -6.28512e-19)
(20.8825 -3.01156 6.90699e-19)
(21.2671 -2.62914 0)
(21.6229 -2.21825 9.32305e-19)
(21.9381 -1.78266 2.09152e-20)
(22.2012 -1.33047 -8.89319e-20)
(22.4015 -0.869225 -6.9391e-20)
(22.5323 -0.407464 -1.50094e-18)
(22.5904 0.0464663 -1.57539e-19)
(22.5789 0.481656 1.35356e-18)
(22.5058 0.886343 -1.34825e-18)
(22.3831 1.24897 -1.19019e-18)
(22.2236 1.56027 2.18072e-18)
(22.0379 1.81738 -1.95267e-18)
(21.8357 2.01962 -8.03509e-19)
(21.6012 2.20748 1.21108e-18)
(19.5646 -3.43868 4.9725e-20)
(19.7568 -3.39515 -5.34183e-20)
(19.9634 -3.32771 -7.91359e-20)
(20.1846 -3.23315 8.97919e-20)
(20.4167 -3.10734 1.64388e-21)
(20.6569 -2.94425 0)
(20.9011 -2.74177 0)
(21.1433 -2.49584 3.07986e-20)
(21.3775 -2.20564 0)
(21.5953 -1.87209 6.70105e-19)
(21.7891 -1.49967 -7.22973e-19)
(21.9511 -1.09517 1.16743e-19)
(22.0745 -0.668956 2.23285e-19)
(22.1533 -0.23382 0)
(22.1826 0.196357 -2.09904e-19)
(22.1594 0.607697 4.53791e-19)
(22.0837 0.987906 -8.24529e-19)
(21.9589 1.32785 6.16488e-20)
(21.7938 1.61854 8.98969e-19)
(21.5868 1.88775 1.15014e-18)
(19.5478 -2.4877 0)
(19.6881 -2.45737 0)
(19.8386 -2.41622 -1.06513e-21)
(20.0006 -2.36027 0)
(20.1736 -2.28596 1.92698e-19)
(20.3575 -2.19189 6.62385e-21)
(20.5505 -2.07323 -5.00717e-19)
(20.7506 -1.92751 2.75606e-19)
(20.9531 -1.75103 -3.36328e-19)
(21.1531 -1.54131 -2.04775e-20)
(21.3445 -1.29752 4.63074e-19)
(21.5182 -1.01967 0)
(21.6664 -0.710533 -6.77499e-19)
(21.7806 -0.375384 -9.53158e-21)
(21.8528 -0.022278 9.93187e-19)
(21.8783 0.338361 -2.96408e-19)
(21.8542 0.694729 1.27011e-18)
(21.7807 1.0348 -2.36161e-20)
(21.6615 1.34609 -1.31721e-18)
(21.5007 1.63892 -6.48021e-19)
(19.6298 -1.80814 4.36708e-20)
(19.7362 -1.79481 -4.56077e-20)
(19.8498 -1.77229 -5.24604e-20)
(19.9707 -1.73929 5.6253e-20)
(20.0997 -1.69422 -2.33834e-21)
(20.2367 -1.63548 1.5742e-19)
(20.381 -1.5593 -1.71137e-19)
(20.5327 -1.46403 6.1369e-21)
(20.6889 -1.34587 -1.70444e-20)
(20.8474 -1.20226 -2.90535e-19)
(21.0045 -1.03076 3.41173e-19)
(21.1554 -0.829713 0)
(21.2946 -0.598791 4.79873e-19)
(21.4142 -0.339743 -9.52701e-20)
(21.5073 -0.0562116 -1.27009e-19)
(21.5661 0.245392 -5.13136e-19)
(21.5841 0.556665 -7.50771e-19)
(21.5572 0.867564 9.74958e-19)
(21.4844 1.16705 -2.45609e-19)
(21.368 1.45358 1.91862e-19)
(19.6289 -1.27302 0)
(19.7156 -1.26571 1.45057e-21)
(19.8074 -1.25186 0)
(19.9047 -1.22955 -5.93983e-20)
(20.0086 -1.19954 6.34519e-20)
(20.1185 -1.15833 4.31821e-21)
(20.2345 -1.10518 4.44529e-21)
(20.357 -1.03812 -1.79143e-19)
(20.4847 -0.954759 1.77277e-19)
(20.6156 -0.852233 -2.25239e-19)
(20.7484 -0.728694 2.45692e-19)
(20.8797 -0.581912 0)
(21.0046 -0.410019 -4.09155e-19)
(21.1187 -0.212664 8.46736e-20)
(21.215 0.00945883 3.81594e-19)
(21.2865 0.253438 -4.1115e-19)
(21.3266 0.514483 1.05466e-18)
(21.3295 0.785718 -6.05636e-19)
(21.2916 1.05906 -4.04569e-19)
(21.2147 1.32927 3.28764e-19)
(19.6474 -0.83188 4.35312e-20)
(19.7189 -0.831446 -4.61893e-20)
(19.7946 -0.824943 -4.99354e-20)
(19.8744 -0.812419 5.24843e-20)
(19.959 -0.792527 -1.10776e-19)
(20.0485 -0.764653 1.13842e-19)
(20.1425 -0.727219 -8.07965e-21)
(20.2415 -0.679054 1.43384e-19)
(20.3449 -0.618326 1.69167e-20)
(20.4513 -0.542683 -1.84397e-19)
(20.5606 -0.450927 -2.05142e-19)
(20.6699 -0.340397 2.48844e-19)
(20.7764 -0.209384 6.45092e-20)
(20.8769 -0.0566814 2.21346e-19)
(20.9663 0.118369 9.83251e-21)
(21.039 0.315077 -6.63619e-19)
(21.0886 0.531081 3.42372e-19)
(21.1094 0.762261 1.83081e-19)
(21.0961 1.00341 1.55795e-19)
(21.0466 1.2482 -1.62612e-19)
(19.6482 -0.461293 -4.47332e-20)
(19.708 -0.465141 4.29001e-20)
(19.7712 -0.46453 5.2574e-20)
(19.8377 -0.457972 -9.72601e-20)
(19.9078 -0.445771 5.09031e-20)
(19.9817 -0.426711 0)
(20.0596 -0.400129 3.73124e-21)
(20.1413 -0.364986 -1.35806e-19)
(20.2263 -0.319503 1.36651e-19)
(20.3141 -0.262617 9.97834e-21)
(20.4046 -0.192795 2.04382e-20)
(20.496 -0.108255 -2.40688e-19)
(20.5864 -0.00707318 1.79292e-19)
(20.6735 0.11206 6.19196e-20)
(20.7533 0.250544 -3.21586e-19)
(20.8216 0.408669 4.85767e-19)
(20.8735 0.585767 -4.27033e-19)
(20.9034 0.780027 -2.99959e-19)
(20.9057 0.988223 1.33312e-19)
(20.8774 1.20466 -1.36106e-19)
(19.6501 -0.135739 4.47002e-20)
(19.7 -0.14411 -3.98001e-20)
(19.7527 -0.14804 -2.90116e-21)
(19.8082 -0.14718 0)
(19.8666 -0.141099 0)
(19.9279 -0.129522 1.02348e-19)
(19.9923 -0.111433 -1.07142e-19)
(20.0595 -0.0860132 1.23223e-19)
(20.1294 -0.0522838 -1.22557e-19)
(20.2018 -0.0093372 0)
(20.2762 0.0441989 -1.69343e-19)
(20.3518 0.109684 1.61144e-20)
(20.4272 0.188609 1.55414e-19)
(20.5007 0.282457 0)
(20.5694 0.392626 5.70114e-20)
(20.6303 0.519977 2.99778e-19)
(20.6797 0.664748 -2.35293e-19)
(20.713 0.826323 -2.61239e-19)
(20.7247 1.00345 3.801e-19)
(20.7126 1.19073 -5.62661e-22)
(19.645 0.153308 -2.88388e-21)
(19.6865 0.141431 -5.72997e-21)
(19.7302 0.133765 5.16877e-20)
(19.7761 0.130283 -8.79799e-20)
(19.8246 0.13102 4.81436e-20)
(19.8755 0.136807 0)
(19.9287 0.148206 6.37768e-21)
(19.984 0.166109 -1.08914e-19)
(20.0416 0.190724 2.30382e-19)
(20.1013 0.223006 -1.07256e-19)
(20.1626 0.264001 0)
(20.2248 0.314975 0)
(20.2874 0.376824 -1.206e-19)
(20.3487 0.451058 2.12191e-19)
(20.4071 0.538897 0)
(20.4601 0.641423 -2.55911e-19)
(20.5048 0.759414 3.27676e-19)
(20.5378 0.892914 1.10187e-19)
(20.5544 1.04209 -2.41837e-19)
(20.5528 1.20195 0)
(19.6368 0.41601 8.8267e-21)
(19.6709 0.40119 8.74162e-21)
(19.7067 0.389979 -5.84212e-21)
(19.7445 0.38256 -5.25759e-20)
(19.7842 0.379052 4.7821e-20)
(19.826 0.380033 9.68457e-20)
(19.8696 0.385909 -1.12529e-19)
(19.915 0.397247 -1.10509e-19)
(19.9622 0.414555 1.08626e-19)
(20.0112 0.438074 -1.30564e-19)
(20.0612 0.46928 1.06709e-19)
(20.112 0.508633 -1.49321e-19)
(20.1632 0.557122 1.22507e-19)
(20.2137 0.615853 -2.05865e-21)
(20.2624 0.685886 4.07227e-20)
(20.3075 0.768305 2.29109e-19)
(20.3466 0.864083 -1.89887e-19)
(20.3773 0.97368 -4.0896e-19)
(20.3956 1.09796 2.03547e-19)
(20.4006 1.23235 3.01199e-19)
(19.624 0.656874 3.57073e-20)
(19.6514 0.639426 -6.00378e-20)
(19.6803 0.625239 5.29332e-20)
(19.7109 0.614525 -9.4784e-20)
(19.743 0.607483 5.39292e-20)
(19.7768 0.60445 9.62511e-20)
(19.8122 0.605506 -9.26855e-20)
(19.8491 0.611514 1.01304e-19)
(19.8874 0.622596 -1.04875e-19)
(19.9271 0.639261 -1.09968e-19)
(19.9677 0.662264 2.31159e-19)
(20.009 0.692256 -1.2113e-19)
(20.0506 0.729912 1.31833e-19)
(20.0919 0.776029 -3.31295e-20)
(20.1319 0.831625 -1.87829e-19)
(20.1694 0.897619 1.63903e-19)
(20.2028 0.974906 -1.70863e-19)
(20.2301 1.06422 9.41752e-20)
(20.2481 1.16673 -9.80359e-20)
(20.257 1.27774 -1.9769e-19)
(19.6077 0.879537 -4.2742e-20)
(19.6291 0.86011 4.91362e-20)
(19.6519 0.843492 -6.02791e-21)
(19.676 0.830057 -4.77566e-20)
(19.7015 0.819709 4.85398e-20)
(19.7283 0.813084 9.63922e-20)
(19.7565 0.810264 -7.96015e-22)
(19.786 0.811711 -9.38452e-20)
(19.8165 0.817654 -1.1511e-19)
(19.8483 0.828456 1.18998e-19)
(19.8808 0.844666 2.76149e-20)
(19.9139 0.866919 -1.01637e-19)
(19.9474 0.895493 1.21667e-19)
(19.9807 0.931275 -1.30984e-19)
(20.0131 0.975007 1.71601e-19)
(20.0438 1.02734 1.13052e-19)
(20.0716 1.08919 -1.55829e-19)
(20.0951 1.16125 8.17563e-20)
(20.1119 1.24483 0)
(20.1226 1.33484 -8.91298e-20)
(19.5878 1.0864 4.38483e-20)
(19.604 1.06524 -4.41601e-20)
(19.6212 1.04674 6.1899e-21)
(19.6397 1.03086 0)
(19.6593 1.01798 -6.08574e-21)
(19.6801 1.00835 9.7097e-20)
(19.702 1.00215 -8.64419e-20)
(19.725 0.999745 9.89836e-20)
(19.749 1.00126 -7.61241e-20)
(19.7739 1.00701 -1.16509e-19)
(19.7995 1.01763 9.33559e-20)
(19.8256 1.03325 9.73666e-20)
(19.8521 1.05433 -1.15623e-19)
(19.8786 1.08147 0)
(19.9045 1.11517 1.29321e-19)
(19.9292 1.15617 -2.39344e-19)
(19.9521 1.20499 1.44189e-19)
(19.9718 1.26235 -4.05825e-20)
(19.9867 1.32948 8.07827e-20)
(19.9984 1.4011 -1.59196e-19)
(19.5651 1.27879 -4.4939e-20)
(19.5765 1.25658 4.51428e-20)
(19.589 1.2364 5.63999e-20)
(19.6023 1.21889 -9.9895e-20)
(19.6168 1.20393 -4.85296e-20)
(19.6323 1.19166 1.97911e-19)
(19.6488 1.18254 -1.11905e-19)
(19.6662 1.17687 -1.24686e-20)
(19.6845 1.1745 3.50335e-23)
(19.7036 1.17605 1.14764e-19)
(19.7232 1.18179 -1.04655e-19)
(19.7435 1.19183 6.08767e-23)
(19.764 1.20654 1.11869e-19)
(19.7846 1.22636 -1.37597e-20)
(19.805 1.25173 -1.52395e-19)
(19.8246 1.28315 1.29282e-19)
(19.8429 1.32106 -1.3463e-19)
(19.8591 1.36599 -1.45154e-19)
(19.8718 1.41914 2.23811e-19)
(19.8833 1.47496 -1.48998e-19)
(19.5399 1.45783 1.33123e-20)
(19.5472 1.4348 -6.58067e-21)
(19.5554 1.41368 -6.40327e-20)
(19.5644 1.3948 5.14045e-20)
(19.5743 1.37807 1.26857e-20)
(19.5853 1.3638 1.25917e-20)
(19.5971 1.35224 1.25597e-20)
(19.6096 1.34378 1.24742e-20)
(19.6231 1.33822 -1.12755e-19)
(19.6371 1.33614 -1.20226e-20)
(19.6518 1.33763 1.16376e-19)
(19.667 1.3428 1.31786e-20)
(19.6825 1.35218 0)
(19.6981 1.36581 7.26425e-23)
(19.7136 1.38419 1.16676e-19)
(19.7288 1.40752 -1.21244e-19)
(19.743 1.43628 -3.17079e-20)
(19.7559 1.47085 -1.68698e-19)
(19.7663 1.51216 3.4663e-20)
(19.777 1.55412 2.10929e-19)
(19.5128 1.62395 -6.73871e-20)
(19.5165 1.6007 7.87171e-22)
(19.521 1.57892 3.99341e-20)
(19.5262 1.55898 0)
(19.5323 1.54113 -1.15112e-19)
(19.5393 1.52519 9.00101e-20)
(19.547 1.51187 -1.26213e-20)
(19.5556 1.50094 1.00544e-19)
(19.5648 1.49266 -1.01593e-19)
(19.5747 1.48743 -1.0115e-19)
(19.5851 1.4853 1.92004e-19)
(19.5959 1.48646 -2.07776e-19)
(19.6071 1.49114 1.19296e-19)
(19.6185 1.49963 1.3592e-20)
(19.6298 1.5121 -2.79775e-20)
(19.6412 1.5286 1.45451e-19)
(19.6519 1.54973 -1.20353e-19)
(19.6617 1.57556 0)
(19.6699 1.60679 -3.24202e-20)
(19.6786 1.63723 6.59592e-20)
(19.4843 1.77759 5.49738e-20)
(19.4849 1.75439 -4.13564e-20)
(19.4863 1.73236 -7.16771e-23)
(19.4883 1.71201 1.33062e-20)
(19.4912 1.69316 -1.04131e-19)
(19.4948 1.6763 1.04309e-19)
(19.4991 1.66141 0)
(19.5042 1.64856 1.28152e-20)
(19.5099 1.63795 -1.27616e-20)
(19.5161 1.63016 -1.13987e-19)
(19.5228 1.62504 1.02388e-19)
(19.53 1.62269 1.02521e-19)
(19.5375 1.62348 -2.3411e-19)
(19.5453 1.62756 1.19356e-19)
(19.5531 1.63491 1.35496e-19)
(19.561 1.6459 -2.78562e-20)
(19.5686 1.66062 -8.62332e-20)
(19.5757 1.67925 1.4975e-19)
(19.5818 1.70241 -6.21129e-20)
(19.5885 1.72617 -1.32113e-19)
(19.4553 1.91895 1.12864e-19)
(19.4533 1.89619 -1.11191e-19)
(19.4519 1.87449 2.80981e-20)
(19.4512 1.85394 4.09047e-20)
(19.4513 1.83474 -9.25782e-20)
(19.4521 1.8171 1.44634e-20)
(19.4537 1.80101 1.17906e-19)
(19.4558 1.78663 1.02833e-19)
(19.4585 1.77435 -1.92232e-19)
(19.4616 1.76432 1.02445e-19)
(19.4651 1.75659 1.27858e-20)
(19.4691 1.75147 -1.0181e-19)
(19.4735 1.74894 1.15935e-19)
(19.4781 1.74923 5.54004e-23)
(19.483 1.75233 0)
(19.4879 1.7585 -1.07616e-19)
(19.4926 1.7678 1.10446e-19)
(19.4972 1.78033 -1.41439e-22)
(19.5011 1.79647 -5.83903e-20)
(19.5053 1.81381 6.30489e-20)
(19.4251 2.04764 -5.66655e-20)
(19.421 2.02566 1.48941e-20)
(19.4174 2.00442 -1.31637e-20)
(19.4145 1.98418 5.49711e-20)
(19.4125 1.96509 1.42422e-22)
(19.4111 1.94712 9.25464e-20)
(19.4105 1.93032 -1.18827e-19)
(19.4102 1.91494 1.10029e-22)
(19.4102 1.90138 0)
(19.4106 1.8896 -8.91609e-20)
(19.4116 1.87993 -1.19268e-20)
(19.4129 1.8725 1.01954e-19)
(19.4147 1.86742 0)
(19.4168 1.86455 8.90976e-20)
(19.4191 1.86404 -1.92867e-19)
(19.4216 1.86616 1.04297e-19)
(19.424 1.87084 1.18957e-19)
(19.4263 1.87814 -2.72903e-20)
(19.4284 1.8881 -5.554e-20)
(19.4303 1.90022 -5.97753e-20)
(19.3984 2.16611 0)
(19.3927 2.14519 -2.76809e-20)
(19.3873 2.12442 0)
(19.382 2.10485 0)
(19.3781 2.08618 -1.31131e-20)
(19.3742 2.06811 0)
(19.3715 2.05117 -1.26685e-20)
(19.3687 2.03453 -1.26794e-20)
(19.3663 2.02031 0)
(19.3641 2.00747 9.97357e-20)
(19.3627 1.99603 -9.06676e-22)
(19.3613 1.98669 -1.9664e-19)
(19.3608 1.97978 1.98131e-19)
(19.3612 1.9739 -9.78304e-20)
(19.3612 1.9703 -1.2034e-20)
(19.3621 1.96944 1.20794e-20)
(19.3622 1.97004 -1.23159e-20)
(19.3627 1.97307 1.25497e-20)
(19.3634 1.97775 5.09797e-20)
(19.363 1.98573 -5.52734e-20)
(23.3795 1.20034 2.94952e-19)
(23.2464 1.11277 -3.68216e-19)
(23.0483 1.02028 -8.69978e-19)
(22.7666 0.928127 1.02599e-18)
(22.3897 0.838459 0)
(21.9192 0.754514 0)
(21.3656 0.678456 0)
(20.7414 0.61065 0)
(20.0577 0.550337 0)
(19.3214 0.495632 -2.09829e-18)
(18.5344 0.444367 2.3569e-18)
(17.6913 0.394294 0)
(16.7764 0.343109 0)
(15.7539 0.287544 0)
(14.5522 0.22367 0)
(13.0508 0.151865 0)
(11.1261 0.0894018 0)
(8.86808 0.0785986 0)
(6.95359 0.175893 0)
(6.69608 0.400709 0)
(23.3315 1.2155 0)
(23.1933 1.13603 0)
(22.9982 1.0527 -8.47758e-19)
(22.7308 0.972082 1.00065e-18)
(22.3826 0.895775 0)
(21.9556 0.826202 1.31069e-18)
(21.4582 0.764237 -2.97385e-18)
(20.9003 0.709427 1.67468e-18)
(20.2898 0.660634 -1.85966e-18)
(19.6307 0.616513 4.14773e-18)
(18.9225 0.575482 -4.60304e-18)
(18.1582 0.535499 2.55824e-18)
(17.3191 0.493469 0)
(16.3692 0.445161 0)
(15.2486 0.387611 0)
(13.8949 0.327126 -2.08299e-18)
(12.324 0.290919 2.47423e-18)
(10.7683 0.326817 0)
(9.79763 0.482064 8.88602e-19)
(10.1672 0.739199 -9.04589e-19)
(23.2875 1.23497 2.90019e-19)
(23.1472 1.16355 -3.64925e-19)
(22.9589 1.08592 0)
(22.7094 1.01099 1.0006e-18)
(22.3922 0.939861 -1.15397e-18)
(22.0084 0.875357 0)
(21.5637 0.819133 0)
(21.065 0.771997 0)
(20.5171 0.733819 0)
(19.9216 0.703626 0)
(19.2739 0.679676 0)
(18.5618 0.659883 0)
(17.7624 0.6417 0)
(16.8417 0.622223 0)
(15.7655 0.601256 -1.62622e-18)
(14.5451 0.587502 3.62781e-18)
(13.3031 0.603436 -2.06186e-18)
(12.3147 0.678721 0)
(11.9874 0.839487 -5.98213e-19)
(12.6257 1.06805 5.73664e-19)
(23.2447 1.25807 2.97345e-19)
(23.1024 1.19495 -7.42185e-19)
(22.9182 1.12163 -4.31604e-19)
(22.6805 1.05031 1.00719e-18)
(22.3848 0.981248 -1.14244e-18)
(22.0317 0.917044 1.29202e-18)
(21.626 0.85904 0)
(21.1729 0.807813 0)
(20.6755 0.763365 -1.76325e-18)
(20.135 0.725805 1.93795e-18)
(19.5504 0.694316 0)
(18.9154 0.666878 0)
(18.2108 0.641558 0)
(17.4028 0.620296 0)
(16.4538 0.611883 0)
(15.3487 0.630828 -2.37512e-18)
(14.1294 0.697245 3.39145e-18)
(13.0499 0.857137 2.28866e-18)
(13.1212 1.18348 -2.33005e-18)
(14.4094 1.5232 0)
(23.203 1.28823 0)
(23.0591 1.23141 0)
(22.8769 1.16275 0)
(22.6473 1.09481 0)
(22.3671 1.02641 1.1331e-18)
(22.0367 0.959051 -2.53957e-18)
(21.6593 0.893477 2.78065e-21)
(21.24 0.830273 3.10312e-18)
(20.7855 0.769333 -1.70543e-18)
(20.2985 0.710219 1.87991e-18)
(19.7685 0.650697 -2.05566e-18)
(19.1699 0.588046 -2.20559e-18)
(18.4834 0.526741 -1.77531e-20)
(17.7301 0.488567 2.0871e-18)
(16.9745 0.509925 0)
(16.307 0.628608 -8.7745e-19)
(15.8325 0.868334 7.96305e-19)
(15.6628 1.21802 -3.63753e-19)
(15.8787 1.60879 1.6539e-19)
(16.3739 1.93428 1.52451e-19)
(23.1641 1.32155 0)
(23.0193 1.27273 3.84659e-19)
(22.8384 1.21004 -4.45798e-19)
(22.6151 1.14647 0)
(22.3462 1.08027 0)
(22.0318 1.01265 0)
(21.6763 0.944027 0)
(21.2837 0.87393 0)
(20.8474 0.798816 0)
(20.3534 0.714188 0)
(19.807 0.628013 0)
(19.2402 0.564006 0)
(18.6988 0.548963 0)
(18.2288 0.60298 9.0304e-19)
(17.8652 0.734418 -7.84297e-19)
(17.6269 0.937891 0)
(17.5169 1.19473 0)
(17.5214 1.47458 1.49264e-19)
(17.6119 1.74106 -1.38423e-19)
(17.7557 1.96536 0)
(23.1295 1.36546 0)
(22.984 1.3198 0)
(22.8043 1.26422 -8.94416e-19)
(22.5861 1.20715 1.01182e-18)
(22.3272 1.14663 0)
(22.028 1.0828 0)
(21.6848 1.01309 0)
(21.2856 0.931199 -1.26325e-18)
(20.8314 0.839368 1.12815e-18)
(20.3526 0.757525 0)
(19.8912 0.710774 0)
(19.4809 0.71635 -6.88682e-19)
(19.1428 0.779427 5.92101e-19)
(18.8847 0.894664 0)
(18.7053 1.05002 2.40978e-19)
(18.5964 1.23013 -2.19907e-19)
(18.5458 1.41971 -2.04566e-19)
(18.54 1.60565 2.86252e-19)
(18.566 1.77841 -9.00934e-20)
(18.6136 1.93281 0)
(23.0989 1.4097 3.30855e-19)
(22.9537 1.3719 -3.73494e-21)
(22.7763 1.325 -1.36017e-18)
(22.5646 1.27573 2.01399e-18)
(22.3153 1.22095 -1.09181e-18)
(22.0183 1.15602 -1.10526e-18)
(21.6618 1.07489 4.45352e-23)
(21.2584 0.986366 -3.85174e-21)
(20.8447 0.914194 1.47643e-18)
(20.4565 0.879401 -6.20063e-19)
(20.1167 0.890903 5.40074e-19)
(19.8357 0.946899 -4.70213e-19)
(19.615 1.03937 4.25112e-19)
(19.4501 1.15774 -3.83793e-19)
(19.334 1.29169 0)
(19.2581 1.43227 1.65813e-19)
(19.2143 1.57275 -3.11464e-19)
(19.1952 1.70842 1.47412e-19)
(19.1945 1.8365 0)
(19.2074 1.95559 0)
(23.0747 1.45577 3.47682e-19)
(22.93 1.42827 -4.13498e-19)
(22.7568 1.3898 0)
(22.5502 1.3463 9.71665e-19)
(22.2971 1.28985 -9.68224e-19)
(21.9869 1.2155 8.70493e-19)
(21.635 1.13483 2.86649e-21)
(21.2752 1.07102 -1.24076e-18)
(20.9372 1.04096 5.26409e-19)
(20.6384 1.04966 -4.618e-19)
(20.3863 1.09369 -3.35579e-21)
(20.1813 1.16584 3.652e-19)
(20.0199 1.25794 3.3554e-19)
(19.8964 1.36271 -3.08733e-19)
(19.8051 1.47409 0)
(19.74 1.58751 0)
(19.6962 1.6998 -1.29852e-19)
(19.6691 1.80884 1.24115e-19)
(19.6552 1.91332 0)
(19.6516 2.0126 0)
(23.0563 1.50879 3.56929e-19)
(22.9139 1.48775 -4.1818e-19)
(22.743 1.45419 -8.80078e-19)
(22.5301 1.40894 1.72167e-18)
(22.2651 1.34521 -7.66458e-19)
(21.9611 1.27441 6.50501e-19)
(21.6468 1.21743 3.08561e-21)
(21.3471 1.18855 -9.42653e-19)
(21.0771 1.19156 8.24756e-19)
(20.8435 1.22367 -3.65668e-19)
(20.6474 1.27914 3.32453e-19)
(20.4866 1.35179 1.57506e-21)
(20.3572 1.43603 1.14812e-21)
(20.2548 1.52731 -2.62818e-19)
(20.1753 1.62209 0)
(20.1148 1.7178 0)
(20.0699 1.81261 0)
(20.0379 1.90535 0)
(20.0164 1.99523 0)
(20.0034 2.08182 0)
(23.0436 1.55863 0)
(22.9021 1.54501 0)
(22.7246 1.51052 -7.80383e-19)
(22.5009 1.45955 6.94152e-19)
(22.2404 1.39972 0)
(21.9659 1.34921 0)
(21.6987 1.32076 0)
(21.4524 1.31826 -3.81688e-19)
(21.2339 1.34002 6.79418e-19)
(21.0452 1.3819 -3.06719e-19)
(20.8851 1.43923 0)
(20.7515 1.50761 -2.62232e-19)
(20.641 1.58341 2.4499e-19)
(20.5507 1.66374 0)
(20.4777 1.74638 0)
(20.4194 1.82971 0)