/*--------------------------------*- C++ -*----------------------------------*\
| =========                 |                                                 |
| \\      /  F ield         | OpenFOAM: The Open Source CFD Toolbox           |
|  \\    /   O peration     | Version:  2.3.0                                 |
|   \\  /    A nd           | Web:      www.OpenFOAM.org                      |
|    \\/     M anipulation  |                                                 |
\*---------------------------------------------------------------------------*/
FoamFile
{
    version     2.0;
    format      ascii;
    class       surfaceScalarField;
    location    "7000";
    object      phi;
}
// * * * * * * * * * * * * * * * * * * * * * * * * * * * * * * * * * * * * * //

dimensions      [0 3 -1 0 0 0 0];

internalField   nonuniform List<scalar> 
13341
(
-0.00449007
-0.0253323
0.0278489
0.00197347
-0.00639053
-0.0214694
0.0233699
-0.00779936
-0.0182335
0.0196423
-0.0088114
-0.015525
0.016537
-0.00949027
-0.0132584
0.0139373
-0.00987267
-0.0113593
0.0117417
-0.00997886
-0.00976269
0.00986888
-0.00982483
-0.00841313
0.0082591
-0.00943191
-0.00726575
0.00687282
-0.00883383
-0.00628512
0.00568705
-0.00808187
-0.00544135
0.00468938
-0.00470757
-0.00713663
0.00376233
-0.00410406
-0.0231051
0.00187682
-0.00573099
-0.0198425
-0.00685549
-0.017109
-0.00756286
-0.0148176
-0.00792557
-0.0128957
-0.00800164
-0.0112832
-0.00783416
-0.00993017
-0.00745247
-0.00879482
-0.00687611
-0.0078421
-0.00611889
-0.00704235
-0.00518914
-0.0063711
-0.00580923
-0.00408747
-0.00373367
-0.0211138
0.00174242
-0.00517458
-0.0184016
-0.00615128
-0.0161323
-0.00673548
-0.0142334
-0.00698743
-0.0126437
-0.00695869
-0.011312
-0.00669294
-0.0101959
-0.00622764
-0.00926012
-0.00559452
-0.00847523
-0.00482058
-0.00781628
-0.00392766
-0.00726402
-0.00680119
-0.0029357
-0.00335797
-0.0193353
0.00157949
-0.00462936
-0.0171302
-0.00547562
-0.015286
-0.00596618
-0.0137428
-0.00615798
-0.0124519
-0.00609917
-0.0113708
-0.00583051
-0.0104646
-0.00538549
-0.00970514
-0.00479282
-0.0090679
-0.00407647
-0.00853263
-0.003257
-0.00808348
-0.00770627
-0.00235192
-0.00301732
-0.0177454
0.00142734
-0.00414779
-0.0159997
-0.00489294
-0.0145409
-0.00531515
-0.0133206
-0.00546784
-0.0122992
-0.00539518
-0.0114434
-0.00513403
-0.0107257
-0.00471604
-0.0101231
-0.00416756
-0.00961638
-0.00351002
-0.00919017
-0.00276247
-0.00883103
-0.0085289
-0.00193985
-0.00270805
-0.016316
0.00127866
-0.00371922
-0.0149885
-0.00438108
-0.013879
-0.00475153
-0.0129502
-0.00487897
-0.0121718
-0.00480331
-0.0115191
-0.00455848
-0.0109706
-0.00417304
-0.0105086
-0.00367028
-0.0101191
-0.00307021
-0.00979023
-0.00238919
-0.00951205
-0.00927646
-0.00164164
-0.00243295
-0.0150297
0.00114665
-0.00334049
-0.014081
-0.00393263
-0.0132869
-0.00426112
-0.0126217
-0.00436985
-0.0120631
-0.00429575
-0.0115932
-0.00406917
-0.0111971
-0.00371549
-0.0108622
-0.00325635
-0.0105783
-0.00270967
-0.0103369
-0.0020903
-0.0101314
-0.00995622
-0.00141054
-0.00218655
-0.0138682
0.00102505
-0.00300459
-0.013263
-0.0035366
-0.0127549
-0.00383017
-0.0123281
-0.003925
-0.0119683
-0.00385443
-0.0116638
-0.00364596
-0.0114056
-0.00332258
-0.0111856
-0.00290413
-0.0109967
-0.00240629
-0.0108348
-0.00184284
-0.0106949
-0.010574
-0.00122504
-0.00196877
-0.0128195
0.000920059
-0.0027068
-0.0125249
-0.00318582
-0.0122758
-0.0034493
-0.0120646
-0.00353276
-0.0118848
-0.0034667
-0.0117298
-0.00327591
-0.0115964
-0.00298113
-0.0114804
-0.00259976
-0.0113781
-0.00214684
-0.0112877
-0.00163436
-0.0112073
-0.0111357
-0.0010727
-0.00177457
0.000824535
-0.0118694
-0.00244105
-0.0118584
-0.00287406
-0.0118428
-0.0031117
-0.011827
-0.00318578
-0.0118107
-0.00312444
-0.0117912
-0.00294968
-0.0117711
-0.00268094
-0.0117492
-0.00233417
-0.0117249
-0.00192195
-0.0116999
-0.0014559
-0.0116734
-0.000945097
-0.0116465
-0.00546708
-0.00458889
0.00291934
-0.00395552
-0.00507024
0.00355868
-0.00254136
-0.00569077
0.0042766
-0.00123399
-0.00646561
0.00515824
-7.13555e-05
-0.00741714
0.0062545
0.000888619
-0.00857501
0.00761503
0.00157644
-0.00997781
0.00928999
0.00191863
-0.0116746
0.0113324
0.00183935
-0.0137243
0.0138035
0.00126146
-0.0161988
0.0167767
0.000102323
-0.0191852
0.0203444
-0.0227867
0.0246216
-0.00173258
-0.00291841
-0.00575795
-0.00178436
-0.0062043
-0.000729075
-0.00674605
0.000209026
-0.00740371
0.000993558
-0.00820167
0.00158791
-0.00916936
0.00195156
-0.0103415
0.00203787
-0.0117609
0.00179198
-0.0134784
0.00114758
-0.0155544
2.35572e-05
-0.0180612
-0.0210843
-0.0016789
-0.00193251
-0.00676114
-0.000999932
-0.00713688
-0.000153439
-0.00759254
0.000587453
-0.0081446
0.00119909
-0.00881331
0.0016526
-0.00962287
0.00191224
-0.0106011
0.00193465
-0.0117833
0.00166675
-0.0132105
0.00104483
-0.0149325
-7.71632e-06
-0.0170087
-0.0195109
-0.00158103
-0.00144025
-0.00767281
-0.000599165
-0.00797796
0.000156697
-0.00834841
0.00080984
-0.00879774
0.00133893
-0.00934241
0.00171795
-0.0100019
0.00191562
-0.0107988
0.00189418
-0.0117619
0.00160765
-0.0129239
0.00100065
-0.0143255
6.56812e-06
-0.0160146
-0.0180495
-0.00145489
-0.00111468
-0.00849798
-0.000356703
-0.00873594
0.000320852
-0.00902596
0.000902284
-0.00937917
0.00136808
-0.0098082
0.00169486
-0.0103287
0.00185487
-0.0109588
0.00181367
-0.0117207
0.00153027
-0.0126405
0.000954931
-0.0137501
2.74462e-05
-0.0150871
-0.0166976
-0.00132448
-0.000892274
-0.00924734
-0.000205282
-0.00942293
0.000407298
-0.00963854
0.000930635
-0.00990251
0.00134712
-0.0102247
0.00163564
-0.0106172
0.00177033
-0.0110935
0.00172016
-0.0116705
0.001448
-0.0123684
0.000909029
-0.0132112
4.89021e-05
-0.014227
-0.0154514
-0.00119727
-0.000729602
-0.00992828
-0.000106237
-0.0100463
0.000448675
-0.0101935
0.000921509
-0.0103753
0.00129623
-0.0105994
0.0015535
-0.0108745
0.00166968
-0.0112097
0.00161652
-0.0116174
0.00136035
-0.0121122
0.000859867
-0.0127107
6.62904e-05
-0.0134334
-0.0143057
-0.0010794
-0.000606496
-0.0105468
-4.03639e-05
-0.0106124
0.000462877
-0.0106967
0.000891171
-0.0108036
0.00122978
-0.010938
0.00146041
-0.0111051
0.00156211
-0.0113114
0.00150923
-0.0115645
0.00127044
-0.0118734
0.000808731
-0.012249
7.94085e-05
-0.0127041
-0.0132554
-0.000970849
-0.000510454
-0.0111091
3.71803e-06
-0.0111266
0.000460822
-0.0111538
0.000848903
-0.0111917
0.00115503
-0.0112441
0.00136291
-0.011313
0.00145336
-0.0114018
0.00140211
-0.0115132
0.00118155
-0.0116529
0.000757158
-0.0118246
8.83811e-05
-0.0120353
-0.0122936
-0.000873436
-0.000433892
-0.0116203
3.35822e-05
-0.0115941
0.000448764
-0.011569
0.000801211
-0.0115442
0.00107744
-0.0115204
0.00126571
-0.0115012
0.00134597
-0.0114821
0.00129761
-0.0114649
0.00109426
-0.0114495
0.000705402
-0.0114357
9.39105e-05
-0.0114238
-0.0114149
-0.000784803
0.00202979
0.0239468
-0.0261018
0.00012517
0.00351225
0.0201082
-0.0215906
0.00443018
0.0168861
-0.0178041
0.00487662
0.0141772
-0.0146236
0.00493558
0.0118996
-0.0119585
0.00468269
0.0099857
-0.00973281
0.00418606
0.00837692
-0.00788029
0.00350565
0.00702168
-0.00634127
0.00269525
0.00587164
-0.00506123
0.00180556
0.00487698
-0.00398729
0.000883171
0.00398027
-0.00305788
0.00321926
-7.86671e-05
-0.00225742
0.0018368
0.02199
0.000120003
0.0031861
0.0187589
0.00402698
0.0160453
0.00444374
0.0137604
0.00451041
0.0118329
0.00429293
0.0102032
0.00384956
0.0088203
0.0032326
0.00763864
0.00248957
0.00661466
0.00166565
0.0057009
0.000802687
0.00484323
0.00411011
-8.81696e-05
0.00166733
0.0202108
0.000111911
0.00289702
0.0175292
0.00366716
0.0152751
0.00405349
0.0133741
0.00412194
0.0117644
0.00393055
0.0103946
0.00353079
0.00922006
0.00296886
0.00820056
0.00228752
0.007296
0.0015279
0.00646053
0.000728468
0.00564266
0.0049343
-9.57142e-05
0.00151305
0.0185937
0.000104018
0.00263218
0.0164101
0.00333482
0.0145725
0.00369048
0.0130184
0.0037577
0.0116972
0.00358832
0.0105639
0.00322795
0.00958043
0.00271747
0.00871105
0.00209485
0.00791862
0.00139751
0.00715786
0.000660885
0.00637929
0.00569327
-9.80848e-05
0.00137218
0.0171248
9.67045e-05
0.00238979
0.0153924
0.003031
0.0139313
0.00335711
0.0126923
0.00342252
0.0116318
0.00327247
0.010714
0.00294736
0.00990554
0.0024837
0.00917471
0.00191556
0.00848675
0.00127642
0.00779701
0.000599951
0.00705575
0.00639074
-9.75194e-05
0.00124427
0.0157897
9.08146e-05
0.00217013
0.0144666
0.00275442
0.013347
0.00305423
0.0123925
0.0031166
0.0115694
0.00298313
0.0108475
0.00268974
0.0101989
0.00226862
0.00959583
0.00175036
0.00900502
0.00116579
0.00838158
0.00054553
0.00767601
0.00703067
-9.44071e-05
0.0011287
0.0145767
8.43075e-05
0.00197093
0.0136244
0.00250352
0.0128144
0.00277808
0.012118
0.00283754
0.01151
0.00271876
0.0109662
0.00245362
0.0104641
0.00207116
0.0099783
0.00159889
0.00947729
0.00106427
0.0089162
0.000495311
0.00824496
0.00761753
-9.15438e-05
0.00102391
0.0134745
7.83107e-05
0.00178999
0.0128583
0.00227521
0.0123292
0.00252609
0.0118671
0.00258238
0.0114537
0.00247684
0.0110718
0.00223768
0.0107032
0.00189067
0.0103253
0.00146072
0.00990724
0.000973831
0.00940309
0.000455723
0.00876307
0.00815775
-8.4502e-05
0.000928863
0.0124726
7.30787e-05
0.00162563
0.0121615
0.00206782
0.011887
0.00229747
0.0116374
0.00234999
0.0114012
0.00225705
0.0111647
0.00203993
0.0109203
0.00172401
0.0106412
0.00133229
0.010299
0.000887175
0.00984821
0.000411911
0.00923834
0.00865486
-8.51914e-05
0.000842539
0.0115623
6.7789e-05
0.00147616
0.0115279
0.00187812
0.011485
0.00208691
0.0114286
0.00213598
0.0113521
0.00205608
0.0112446
0.00186206
0.0111144
0.00157501
0.0109283
0.00121836
0.0106556
0.000817301
0.0102493
0.000406298
0.00964934
-6.45799e-05
0.00912573
-0.00106187
0.00348506
-0.00250185
-0.00208175
0.00441997
-0.00340009
-0.00306895
0.00541223
-0.00442503
-0.00395645
0.00648591
-0.0055984
-0.00468267
0.00770198
-0.00697576
-0.0051866
0.00910059
-0.00859666
-0.00540979
0.0107205
-0.0104974
-0.0052947
0.0126071
-0.0127222
-0.00478337
0.0148242
-0.0153355
-0.00380817
0.0174511
-0.0184263
-0.00228563
0.0205797
-0.0221023
0.0243181
-0.0264905
-0.000113242
-0.00101539
0.00441227
-0.00197021
0.0053748
-0.00288166
0.00632367
-0.00368809
0.00729233
-0.00433647
0.00835037
-0.00477695
0.00954107
-0.00496145
0.010905
-0.0048437
0.0124894
-0.00437111
0.0143516
-0.00348052
0.0165605
-0.0020942
0.0191934
0.0223413
-0.000117388
-0.00095881
0.00527537
-0.00184283
0.00625882
-0.0026795
0.00716034
-0.00341282
0.00802565
-0.00399625
0.0089338
-0.00438735
0.00993217
-0.00454612
0.0110638
-0.00443138
0.0123746
-0.00399618
0.0139164
-0.00318257
0.0157469
-0.00191902
0.0179299
0.0205413
-0.000118986
-0.000897487
0.00607477
-0.00171123
0.00707256
-0.00247595
0.00792507
-0.0031405
0.0086902
-0.00366469
0.00945799
-0.00401332
0.0102808
-0.00415214
0.0112026
-0.00404476
0.0122672
-0.0036473
0.0135189
-0.00290601
0.0150056
-0.00175624
0.0167801
0.0189034
-0.00011832
-0.000834299
0.00681155
-0.00158156
0.00781982
-0.00227862
0.00862213
-0.00288079
0.00929236
-0.00335248
0.00992968
-0.00366416
0.0105925
-0.0037869
0.0113254
-0.00368699
0.0121673
-0.00332462
0.0131566
-0.00265062
0.0143316
-0.00160509
0.0157346
0.0174134
-0.000115123
-0.000772715
0.00748986
-0.00145743
0.00850453
-0.00209268
0.00925737
-0.00263773
0.00983742
-0.00306283
0.0103548
-0.00334265
0.0108723
-0.00345144
0.0114342
-0.00335931
0.0120752
-0.00302916
0.0128264
-0.00241596
0.0137184
-0.00146509
0.0147837
0.0160589
-0.00011056
-0.000714183
0.0081125
-0.0013405
0.00913085
-0.00191867
0.00983555
-0.00241192
0.0103307
-0.00279529
0.0107381
-0.00304714
0.0111242
-0.00314411
0.0115311
-0.0030591
0.0119902
-0.00275853
0.0125258
-0.00220099
0.0131608
-0.00133654
0.0139192
0.0148274
-0.000105111
-0.000660179
0.00868818
-0.00123367
0.00970434
-0.00175877
0.0103606
-0.00220467
0.0107766
-0.00254971
0.0110832
-0.00277564
0.0113501
-0.00286248
0.011618
-0.00278455
0.0119123
-0.00251109
0.0122524
-0.00200438
0.0126541
-0.00121859
0.0131334
0.0137075
-9.86378e-05
-0.000612273
0.00921526
-0.00113318
0.0102253
-0.00160929
0.0108368
-0.00201202
0.0111793
-0.00232312
0.0113943
-0.00252714
0.0115541
-0.00260478
0.0116956
-0.00253361
0.0118411
-0.00228493
0.0120037
-0.00182433
0.0121935
-0.00111014
0.0124192
0.0126895
-9.21929e-05
-0.000571745
0.00972242
-0.00104767
0.0107012
-0.0014762
0.0112653
-0.00183776
0.0115409
-0.00211655
0.0116731
-0.0022992
0.0117367
-0.0023693
0.0117657
-0.00230457
0.0117764
-0.0020788
0.0117779
-0.00166036
0.0117751
-0.00101105
0.0117699
-8.63674e-05
0.0117648
0.000800783
0.00296154
0.00121311
0.00427704
0.00153809
0.00536207
0.00181732
0.0065936
0.00204163
0.0080348
0.00219284
0.00971767
0.00225911
0.0116754
0.00224227
0.0139541
0.0021586
0.0166207
0.00203284
0.0197681
0.00188913
0.0235136
0.0279924
0.00174558
8.38183e-05
0.00287761
0.000243387
0.00411749
0.000438909
0.00516658
0.000661026
0.00637152
0.000893737
0.00780211
0.00111689
0.00949453
0.00131072
0.0114816
0.00145802
0.0138068
0.00154914
0.0165295
0.0015842
0.019733
0.0015727
0.0235251
0.0280411
0.001524
0.000165826
0.00271108
0.000312216
0.0039711
0.000439603
0.00503936
0.000569268
0.00624196
0.000707868
0.00766359
0.000851687
0.00935075
0.000990385
0.0113429
0.00111361
0.0136836
0.00121153
0.0164316
0.00127871
0.0196658
0.00131414
0.0234896
0.0280352
0.00132008
6.58123e-05
0.00264495
0.000198029
0.00383888
0.000303551
0.0049339
0.000405787
0.00613977
0.00051588
0.00755352
0.000635408
0.00923123
0.000758498
0.0112199
0.000875156
0.0135669
0.00097698
0.0163298
0.00105779
0.019585
0.00111501
0.0234324
0.0280002
0.00115004
-7.59292e-07
0.00264615
9.07793e-05
0.00374731
0.00017185
0.00485273
0.000251256
0.00606029
0.000340039
0.0074647
0.000440791
0.00913046
0.000551624
0.011109
0.000665516
0.013453
0.000773719
0.0162216
0.00086851
0.0194902
0.000944349
0.0233566
0.0279442
0.00100032
-7.55805e-07
0.00264716
6.07112e-05
0.00368584
0.000124618
0.00478876
0.000188033
0.00599683
0.000257417
0.00739528
0.000337181
0.00905068
0.000427688
0.0110185
0.000525753
0.013355
0.000625317
0.016122
0.000719614
0.0193959
0.000802838
0.0232734
0.0278757
0.00087137
1.00142e-05
0.00263731
5.35265e-05
0.00364234
0.000106327
0.00473593
0.000159886
0.00594324
0.000217162
0.00733798
0.000282324
0.0089855
0.000356417
0.0109444
0.000438826
0.0132726
0.000525382
0.0160355
0.000611236
0.0193101
0.000691928
0.0231927
0.0278042
0.000763408
1.39016e-05
0.00262352
4.67464e-05
0.0036095
9.02272e-05
0.00469242
0.00013647
0.00589698
0.000185218
0.00728922
0.000240371
0.00893034
0.000303779
0.010881
0.000374531
0.0132018
0.000450948
0.0159591
0.000529491
0.0192315
0.000606625
0.0231155
0.0277297
0.000681165
1.42386e-05
0.00260935
4.09802e-05
0.00358277
7.7701e-05
0.00465569
0.00011741
0.00585726
0.000160139
0.00724648
0.000207604
0.00888287
0.000262299
0.0108263
0.000324384
0.0131397
0.000392551
0.0158909
0.000464534
0.0191595
0.000537003
0.0230431
0.0276591
0.000607604
1.38629e-05
0.00259553
3.72044e-05
0.00355944
6.88646e-05
0.00462402
0.000104064
0.00582205
0.000141693
0.00720885
0.000183822
0.00884074
0.000231446
0.0107787
0.000286258
0.0130849
0.000347004
0.0158301
0.00041182
0.0190947
0.00047882
0.0229761
0.0275932
0.000544703
1.33707e-05
0.00258219
3.44903e-05
0.00353833
6.25888e-05
0.00459592
9.42627e-05
0.00579037
0.000128112
0.00717499
0.00016549
0.00880336
0.000208025
0.0107361
0.000256574
0.0130364
0.000310947
0.0157758
0.000370021
0.0190357
0.000431996
0.0229141
0.027531
0.000494128
1.26342e-05
0.00256957
3.21034e-05
0.00351886
5.74882e-05
0.00457053
8.6444e-05
0.00576141
0.000117134
0.0071443
0.000150917
0.00876957
0.000189438
0.0106976
0.000232884
0.0129929
0.000281979
0.0157267
0.000335809
0.0189818
0.000392894
0.022857
0.0274734
0.000450509
1.1973e-05
0.0025576
2.99874e-05
0.00350085
5.31137e-05
0.0045474
7.96321e-05
0.00573489
0.000108329
0.0071156
0.000139078
0.00873882
0.000173905
0.0106628
0.000213593
0.0129532
0.000258436
0.0156818
0.00030827
0.018932
0.000362045
0.0228032
0.0274152
0.000420246
1.13227e-05
0.00254629
2.81389e-05
0.00348404
4.9461e-05
0.00452608
7.41365e-05
0.00571022
0.000100687
0.00708905
0.000129478
0.00871003
0.000161241
0.010631
0.000197785
0.0129167
0.000238939
0.0156407
0.000284557
0.0188864
0.000334518
0.0227533
0.027362
0.000387764
1.07164e-05
0.00253557
2.65014e-05
0.00346825
4.63476e-05
0.00450623
6.94618e-05
0.0056871
9.43707e-05
0.00706414
0.000120985
0.00868342
0.000150513
0.0106015
0.000183958
0.0128832
0.000221809
0.0156028
0.000264046
0.0188441
0.000310252
0.0227071
0.0273124
0.000359806
1.01848e-05
0.00252539
2.50367e-05
0.0034534
4.36629e-05
0.00448761
6.55873e-05
0.00566518
8.88929e-05
0.00704084
0.000113843
0.00865847
0.000141498
0.0105738
0.00017224
0.0128525
0.000207238
0.0155678
0.000246585
0.0188048
0.000289376
0.0226643
0.0272663
0.000335521
9.70923e-06
0.00251568
2.37452e-05
0.00343937
4.13355e-05
0.00447002
6.18382e-05
0.00564467
8.43168e-05
0.00701836
0.000107675
0.00863511
0.000133364
0.0105481
0.000162179
0.0128237
0.000194715
0.0155353
0.000231141
0.0187684
0.000271491
0.0226239
0.0272233
0.000314468
9.29006e-06
0.00250639
2.26389e-05
0.00342602
3.92648e-05
0.00445339
5.87417e-05
0.0056252
7.99304e-05
0.00699717
0.000102508
0.00861253
0.00012649
0.0105242
0.000153664
0.0127965
0.000184054
0.0155049
0.000217881
0.0187345
0.000255476
0.0225863
0.0271826
0.000296158
8.92698e-06
0.00249747
2.16148e-05
0.00341333
3.74454e-05
0.00443756
5.59523e-05
0.00560669
7.62171e-05
0.0069769
9.75981e-05
0.00859115
0.000120685
0.0105011
0.000145852
0.0127713
0.00017436
0.0154764
0.000206294
0.0187026
0.000241633
0.022551
0.027144
0.000280271
8.56307e-06
0.0024889
2.07077e-05
0.00340119
3.57611e-05
0.00442251
5.34215e-05
0.00558903
7.29e-05
0.00695743
9.34166e-05
0.00857063
0.000115191
0.0104793
0.00013917
0.0127474
0.000166031
0.0154495
0.000196322
0.0186723
0.000229479
0.0225178
0.0271075
0.000265996
8.25257e-06
0.00248065
1.98628e-05
0.00338958
3.4276e-05
0.00440809
5.11886e-05
0.00557212
7.01205e-05
0.00693849
8.9688e-05
0.00855107
0.000110501
0.0104585
0.000133256
0.0127246
0.00015867
0.0154241
0.000187124
0.0186439
0.000218929
0.022486
0.0270729
0.000253496
7.93932e-06
0.00247271
1.90823e-05
0.00337843
3.29074e-05
0.00439427
4.91612e-05
0.00555586
6.72453e-05
0.00692041
8.65254e-05
0.00853179
0.000106305
0.0104387
0.000128204
0.0127027
0.000152328
0.0154
0.000179087
0.0186171
0.000209047
0.0224561
0.0270397
0.000242253
7.65808e-06
0.00246505
1.83608e-05
0.00336773
3.16779e-05
0.00438095
4.73418e-05
0.0055402
6.48185e-05
0.00690293
8.32994e-05
0.00851331
0.000102745
0.0104193
0.000123287
0.0126822
0.000146271
0.015377
0.000171921
0.0185915
0.00020044
0.0224276
0.0270082
0.00023196
7.41096e-06
0.00245764
1.77441e-05
0.0033574
3.055e-05
0.00436815
4.56681e-05
0.00552508
6.27881e-05
0.00688581
8.05343e-05
0.00849556
9.91491e-05
0.0104006
0.000119068
0.0126622
0.000141025
0.0153551
0.000165723
0.0185668
0.000192998
0.0224003
0.0269781
0.00022307
7.17204e-06
0.00245047
1.71436e-05
0.00334743
2.95425e-05
0.00435575
4.41713e-05
0.00551045
6.05453e-05
0.00686944
7.81893e-05
0.00847791
9.60553e-05
0.0103828
0.000115237
0.0126431
0.000136486
0.0153338
0.0001597
0.0185435
0.000185769
0.0223742
0.0269492
0.000214679
6.96481e-06
0.00244351
1.65998e-05
0.00333779
2.8599e-05
0.00434375
4.27627e-05
0.00549629
5.86509e-05
0.00685355
7.56371e-05
0.00846093
9.321e-05
0.0103652
0.000111939
0.0126243
0.000131954
0.0153138
0.000154387
0.0185211
0.000179379
0.0223492
0.0269212
0.000207377
6.74353e-06
0.00243676
1.60987e-05
0.00332844
2.7686e-05
0.00433216
4.14534e-05
0.00548252
5.6942e-05
0.00683806
7.34559e-05
0.00844441
9.08057e-05
0.0103478
0.000108546
0.0126066
0.000127976
0.0152944
0.000149557
0.0184995
0.000173551
0.0223252
0.0268944
0.000200329
6.57369e-06
0.00243019
1.56289e-05
0.00331938
2.68971e-05
0.00432089
4.0162e-05
0.00546925
5.52533e-05
0.00682297
7.14367e-05
0.00842823
8.81743e-05
0.0103311
0.000105517
0.0125893
0.000124366
0.0152755
0.000145309
0.0184786
0.000168326
0.0223022
0.0268688
0.000193972
6.38163e-06
0.00242381
1.51634e-05
0.0033106
2.61044e-05
0.00430995
3.90567e-05
0.0054563
5.3657e-05
0.00680837
6.97219e-05
0.00841217
8.58396e-05
0.010315
0.000103028
0.0125721
0.00012119
0.0152573
0.000140906
0.0184589
0.000163154
0.02228
0.026844
0.000187959
6.23841e-06
0.00241757
1.47743e-05
0.00330206
2.53779e-05
0.00429935
3.79726e-05
0.00544371
5.22875e-05
0.00679406
6.76935e-05
0.00839676
8.37873e-05
0.0102989
0.000100275
0.0125556
0.000117864
0.0152398
0.000137146
0.0184396
0.000158519
0.0222586
0.02682
0.000182507
6.00036e-06
0.00241157
1.4301e-05
0.00329376
2.46896e-05
0.00428896
3.69701e-05
0.00543143
5.09198e-05
0.00678011
6.60906e-05
0.00838159
8.20034e-05
0.010283
9.79022e-05
0.0125397
0.000114903
0.0152228
0.000133784
0.0184207
0.000154133
0.0222382
0.0267977
0.000176426
5.88869e-06
0.00240568
1.39461e-05
0.00328571
2.39676e-05
0.00427894
3.60144e-05
0.00541938
4.96756e-05
0.00676645
6.45268e-05
0.00836674
7.996e-05
0.0102676
9.57104e-05
0.0125239
0.000112306
0.0152062
0.000130331
0.0184027
0.000150421
0.0222181
0.0267759
0.000172181
5.74017e-06
0.00239994
1.36203e-05
0.00327782
2.34361e-05
0.00426912
3.50688e-05
0.00540775
4.846e-05
0.00675305
6.32769e-05
0.00835192
7.82628e-05
0.0102526
9.38623e-05
0.0125083
0.000110143
0.0151899
0.000127527
0.0183853
0.000146911
0.0221988
0.0267539
0.000168974
5.60932e-06
0.00239433
1.32819e-05
0.00327015
2.28724e-05
0.00425953
3.43314e-05
0.00539629
4.74346e-05
0.00673995
6.1724e-05
0.00833763
7.68017e-05
0.0102375
9.18668e-05
0.0124933
0.000107711
0.015174
0.00012475
0.0183683
0.000143582
0.0221799
0.0267331
0.000164289
5.51952e-06
0.00238881
1.29895e-05
0.00326268
2.23754e-05
0.00425015
3.35773e-05
0.00538509
4.63943e-05
0.00672713
6.04108e-05
0.00832362
7.5157e-05
0.0102227
9.01122e-05
0.0124783
0.000105618
0.0151585
0.000122494
0.0183514
0.000140833
0.0221616
0.0267125
0.00016153
5.32258e-06
0.00238349
1.26614e-05
0.00325534
2.18096e-05
0.004241
3.28359e-05
0.00537406
4.54371e-05
0.00671453
5.92642e-05
0.00830979
7.37203e-05
0.0102083
8.84573e-05
0.0124636
0.000103592
0.0151434
0.000119928
0.018335
0.000137761
0.0221438
0.0266934
0.000156855
5.26192e-06
0.00237823
1.24247e-05
0.00324818
2.13991e-05
0.00423202
3.21479e-05
0.00536331
4.44896e-05
0.00670219
5.80634e-05
0.00829621
7.23461e-05
0.010194
8.70786e-05
0.0124488
0.000101986
0.0151285
0.000117649
0.0183194
0.000134998
0.0221264
0.0266739
0.000154419
5.14381e-06
0.00237308
1.21369e-05
0.00324119
2.09409e-05
0.00422322
3.14071e-05
0.00535284
4.3514e-05
0.00669008
5.69674e-05
0.00828276
7.11846e-05
0.0101798
8.5352e-05
0.0124347
0.000100092
0.0151137
0.000115627
0.0183038
0.000132714
0.0221093
0.0266547
0.000151975
5.06086e-06
0.00236802
1.19245e-05
0.00323432
2.051e-05
0.00421463
3.08463e-05
0.00534251
4.27487e-05
0.00667818
5.59073e-05
0.0082696
6.98156e-05
0.0101659
8.40001e-05
0.0124205
9.84271e-05
0.0150993
0.000113862
0.0182884
0.000130348
0.0220928
0.026637
0.000147999
4.95976e-06
0.00236306
1.16239e-05
0.00322766
2.01091e-05
0.00420615
3.02321e-05
0.00533239
4.19268e-05
0.00666649
5.48055e-05
0.00825672
6.86207e-05
0.0101521
8.28303e-05
0.0124063
9.69667e-05
0.0150852
0.000111757
0.0182736
0.000127952
0.0220766
0.0266187
0.000146291
4.82969e-06
0.00235823
1.14412e-05
0.00322105
1.96582e-05
0.00419793
2.96462e-05
0.0053224
4.11237e-05
0.00665501
5.39132e-05
0.00824393
6.74802e-05
0.0101385
8.13373e-05
0.0123924
9.53376e-05
0.0150712
0.000110002
0.018259
0.000125865
0.0220608
0.026601
0.000143516
4.78113e-06
0.00235345
1.12332e-05
0.0032146
1.93174e-05
0.00418985
2.90322e-05
0.00531268
4.03935e-05
0.00664365
5.29857e-05
0.00823134
6.65828e-05
0.0101249
8.00344e-05
0.012379
9.39044e-05
0.0150573
0.000108289
0.0182446
0.000123713
0.0220454
0.0265841
0.000140689
4.55333e-06
0.0023489
1.0919e-05
0.00320823
1.8894e-05
0.00418187
2.84851e-05
0.00530309
3.95858e-05
0.00663255
5.20624e-05
0.00821887
6.52759e-05
0.0101117
7.89135e-05
0.0123653
9.25495e-05
0.0150437
0.00010682
0.0182303
0.000122035
0.0220301
0.0265678
0.000138289
4.63278e-06
0.00234427
1.07893e-05
0.00320207
1.86087e-05
0.00417405
2.80381e-05
0.00529366
3.89841e-05
0.0066216
5.12029e-05
0.00820665
6.43675e-05
0.0100985
7.8011e-05
0.0123517
9.15033e-05
0.0150302
0.000105226
0.0182166
0.000120082
0.0220153
0.0265517
0.000136218
4.5494e-06
0.00233972
1.058e-05
0.00319604
1.82368e-05
0.0041664
2.75936e-05
0.00528431
3.83996e-05
0.0066108
5.05111e-05
0.00819454
6.36616e-05
0.0100854
7.68112e-05
0.0123385
9.0136e-05
0.0150169
0.000103993
0.0182027
0.000118776
0.0220005
0.0265353
0.000135101
4.29463e-06
0.00233542
1.03629e-05
0.00318998
1.79364e-05
0.00415882
2.70782e-05
0.00527516
3.77682e-05
0.00660011
4.97334e-05
0.00818257
6.25857e-05
0.0100725
7.58342e-05
0.0123253
8.91136e-05
0.0150036
0.000102916
0.0181889
0.00011719
0.0219862
0.0265198
0.000132705
4.31995e-06
0.0023311
1.02334e-05
0.00318406
1.76856e-05
0.00415137
2.66367e-05
0.00526621
3.71532e-05
0.00658959
4.90475e-05
0.00817068
6.17428e-05
0.0100598
7.48351e-05
0.0123122
8.80851e-05
0.0149903
0.000101553
0.0181755
0.000116002
0.0219718
0.0265039
0.000131979
4.29182e-06
0.00232681
1.01041e-05
0.00317825
1.74094e-05
0.00414406
2.63084e-05
0.00525731
3.66858e-05
0.00657921
4.83738e-05
0.00815899
6.09336e-05
0.0100473
7.41947e-05
0.0122989
8.72881e-05
0.0149772
0.000100348
0.0181624
0.000114457
0.0219577
0.0264889
0.000129372
4.39628e-06
0.00232241
9.97684e-06
0.00317267
1.71759e-05
0.00413687
2.59081e-05
0.00524858
3.61621e-05
0.00656896
4.76349e-05
0.00814752
6.02139e-05
0.0100347
7.31285e-05
0.012286
8.61337e-05
0.0149642
9.93165e-05
0.0181492
0.00011322
0.0219438
0.026473
0.000129168
3.98851e-06
0.00231843
9.6425e-06
0.00316701
1.68068e-05
0.0041297
2.55072e-05
0.00523988
3.56216e-05
0.00655884
4.70593e-05
0.00813608
5.94303e-05
0.0100223
7.22941e-05
0.0122732
8.51818e-05
0.0149513
9.85613e-05
0.0181358
0.000112401
0.0219299
0.026458
0.000127412
4.06988e-06
0.00231436
9.75274e-06
0.00316133
1.66263e-05
0.00412283
2.5155e-05
0.00523135
3.51438e-05
0.00654885
4.64382e-05
0.00812478
5.8712e-05
0.01001
7.14718e-05
0.0122604
8.43357e-05
0.0149385
9.7296e-05
0.0181229
0.000110866
0.0219164
0.0264438
0.000125081
4.04301e-06
0.00231031
9.46795e-06
0.00315591
1.64148e-05
0.00411588
2.47348e-05
0.00522303
3.46134e-05
0.00653898
4.58221e-05
0.00811357
5.79381e-05
0.00999792
7.08011e-05
0.0122475
8.36338e-05
0.0149256
9.61728e-05
0.0181103
0.000109531
0.021903
0.026429
0.000124279
4.15515e-06
0.00230616
9.3551e-06
0.00315071
1.61984e-05
0.00410904
2.44822e-05
0.00521475
3.4208e-05
0.00652925
4.52777e-05
0.00810251
5.73253e-05
0.00998588
6.99514e-05
0.0122349
8.26857e-05
0.0149129
9.54736e-05
0.0180975
0.000108872
0.0218896
0.0264142
0.000123658
3.80791e-06
0.00230235
9.09376e-06
0.00314542
1.59093e-05
0.00410222
2.41237e-05
0.00520653
3.37717e-05
0.0065196
4.46681e-05
0.00809161
5.67133e-05
0.00997383
6.92529e-05
0.0122224
8.1846e-05
0.0149003
9.47138e-05
0.0180847
0.000107613
0.0218767
0.026402
0.000119879
3.81282e-06
0.00229854
9.24668e-06
0.00313999
1.57086e-05
0.00409576
2.38355e-05
0.00519841
3.33903e-05
0.00651005
4.4237e-05
0.00808076
5.61459e-05
0.00996192
6.88209e-05
0.0122097
8.14435e-05
0.0148877
9.38114e-05
0.0180723
0.00010677
0.0218637
0.0263871
0.000121649
3.85459e-06
0.00229468
8.99837e-06
0.00313484
1.55522e-05
0.00408921
2.35456e-05
0.00519041
3.30331e-05
0.00650056
4.38206e-05
0.00806997
5.56492e-05
0.00995009
6.80719e-05
0.0121973
8.08082e-05
0.014875
9.35419e-05
0.0180596
0.000106772
0.0218505
0.0263725
0.000121339
3.93697e-06
0.00229074
8.88431e-06
0.0031299
1.55257e-05
0.00408257
2.33299e-05
0.00518261
3.26335e-05
0.00649126
4.33861e-05
0.00805922
5.511e-05
0.00993837
6.75891e-05
0.0121848
8.02105e-05
0.0148623
9.2739e-05
0.018047
0.000105693
0.0218376
0.0263595
0.000118722
3.65784e-06
0.00228709
8.73188e-06
0.00312482
1.51472e-05
0.00407615
2.30241e-05
0.00517473
3.23231e-05
0.00648196
4.28729e-05
0.00804867
5.46521e-05
0.00992659
6.70126e-05
0.0121724
7.96059e-05
0.0148497
9.2383e-05
0.0180343
0.000105422
0.0218245
0.0263448
0.000120103
3.65013e-06
0.00228344
8.76968e-06
0.0031197
1.49406e-05
0.00406998
2.27995e-05
0.00516687
3.19695e-05
0.00647279
4.25081e-05
0.00803813
5.41357e-05
0.00991496
6.66498e-05
0.0121599
7.91523e-05
0.0148372
9.15484e-05
0.0180219
0.000104348
0.0218117
0.0263319
0.000117219
3.80672e-06
0.00227963
8.57976e-06
0.00311493
1.48401e-05
0.00406372
2.25218e-05
0.00515919
3.16253e-05
0.00646368
4.21351e-05
0.00802762
5.36359e-05
0.00990346
6.5858e-05
0.0121477
7.84461e-05
0.0148247
9.08558e-05
0.0180095
0.000103609
0.021799
0.0263174
0.000118132
3.50127e-06
0.00227613
8.40713e-06
0.00311002
1.47848e-05
0.00405734
2.23018e-05
0.00515168
3.1308e-05
0.00645468
4.16936e-05
0.00801724
5.32021e-05
0.00989195
6.54614e-05
0.0121354
7.79496e-05
0.0148122
9.06589e-05
0.0179968
0.000103245
0.0217864
0.0263038
0.000116879
3.58931e-06
0.00227254
8.39553e-06
0.00310522
1.45283e-05
0.00405121
2.20531e-05
0.00514415
3.10561e-05
0.00644567
4.13394e-05
0.00800695
5.27968e-05
0.00988049
6.49865e-05
0.0121232
7.7457e-05
0.0147997
8.99458e-05
0.0179843
0.000102833
0.0217735
0.0262906
0.000115963
3.56908e-06
0.00226897
8.42129e-06
0.00310037
1.43913e-05
0.00404524
2.18518e-05
0.00513669
3.07657e-05
0.00643676
4.09526e-05
0.00799677
5.23684e-05
0.00986908
6.45483e-05
0.0121111
7.71213e-05
0.0147871
8.94819e-05
0.0179719
0.000102196
0.0217608
0.0262771
0.000115732
3.61965e-06
0.00226535
8.24385e-06
0.00309574
1.41986e-05
0.00403928
2.18164e-05
0.00512907
3.05024e-05
0.00642807
4.06652e-05
0.00798661
5.19798e-05
0.00985776
6.40842e-05
0.012099
7.65442e-05
0.0147747
8.90475e-05
0.0179594
0.00010173
0.0217481
0.0262639
0.000114944
3.36732e-06
0.00226198
8.08352e-06
0.00309103
1.42218e-05
0.00403315
2.13943e-05
0.0051219
3.01783e-05
0.00641929
4.02824e-05
0.0079765
5.15642e-05
0.00984648
6.36553e-05
0.0120869
7.60965e-05
0.0147622
8.88004e-05
0.0179467
0.000101358
0.0217355
0.0262508
0.000114404
3.41562e-06
0.00225857
8.19387e-06
0.00308625
1.39435e-05
0.0040274
2.11479e-05
0.0051147
2.98693e-05
0.00641057
3.99593e-05
0.00796641
5.10894e-05
0.00983535
6.31647e-05
0.0120748
7.56909e-05
0.0147497
8.82192e-05
0.0179342
0.000101078
0.0217227