/*--------------------------------*- C++ -*----------------------------------*\
| =========                 |                                                 |
| \\      /  F ield         | OpenFOAM: The Open Source CFD Toolbox           |
|  \\    /   O peration     | Version:  2.3.0                                 |
|   \\  /    A nd           | Web:      www.OpenFOAM.org                      |
|    \\/     M anipulation  |                                                 |
\*---------------------------------------------------------------------------*/
FoamFile
{
    version     2.0;
    format      ascii;
    class       volVectorField;
    location    "7000";
    object      U;
}
// * * * * * * * * * * * * * * * * * * * * * * * * * * * * * * * * * * * * * //

dimensions      [0 1 -1 0 0 0 0];

internalField   nonuniform List<vector> 
6728
(
(21.1401 0.777543 1.29132e-20)
(21.2455 0.941834 3.70624e-20)
(21.3623 1.16321 -5.40733e-20)
(21.4952 1.43436 1.24759e-19)
(21.6391 1.75831 -2.66449e-19)
(21.7744 2.12741 2.83087e-19)
(21.8667 2.5273 -1.43445e-19)
(21.8708 2.93943 -7.38382e-21)
(21.7386 3.34673 -4.87835e-20)
(21.4272 3.74789 3.93055e-20)
(20.8961 4.15041 0)
(20.0998 4.46503 4.48921e-20)
(20.9704 0.839702 8.6277e-21)
(21.0028 0.967362 5.57801e-21)
(21.0148 1.11975 5.29574e-21)
(21.0037 1.28507 -1.44503e-21)
(20.9683 1.46643 1.81272e-21)
(20.9093 1.66341 0)
(20.8268 1.87087 2.14349e-21)
(20.7203 2.07838 -2.45781e-22)
(20.5892 2.2716 -9.13966e-20)
(20.4339 2.43403 -4.72806e-20)
(20.2552 2.54653 1.30817e-19)
(20.0552 2.58676 -6.04579e-20)
(20.8379 0.865254 3.18565e-20)
(20.8438 0.979458 -3.83863e-20)
(20.8366 1.10627 -5.21616e-21)
(20.8143 1.23387 0)
(20.7741 1.35905 -6.35636e-21)
(20.7139 1.47833 0)
(20.6327 1.58848 1.20583e-19)
(20.5311 1.68626 -2.63077e-19)
(20.4112 1.76841 1.44964e-19)
(20.2765 1.83175 5.70661e-21)
(20.1318 1.87343 1.03471e-19)
(19.9841 1.8912 -1.02641e-19)
(20.7229 0.855344 -5.48698e-20)
(20.7081 0.947702 4.64811e-20)
(20.6814 1.04448 0)
(20.6431 1.13912 0)
(20.5932 1.22988 -1.82789e-21)
(20.532 1.31464 -1.36407e-19)
(20.4605 1.39117 2.87797e-19)
(20.3796 1.45727 -1.51277e-19)
(20.2911 1.51092 -1.94114e-19)
(20.1969 1.55041 1.75834e-19)
(20.0997 1.57464 1.14881e-19)
(20.0026 1.58318 -1.15176e-19)
(20.6345 0.838279 1.31215e-20)
(20.6126 0.911366 0)
(20.5821 0.985955 -1.1941e-19)
(20.5435 1.0574 1.27876e-19)
(20.4966 1.12423 8.09998e-21)
(20.4417 1.18525 -1.00681e-20)
(20.3793 1.23928 1.08503e-20)
(20.3104 1.28519 0)
(20.2363 1.32197 0)
(20.1585 1.34881 1.18819e-19)
(20.079 1.36521 -4.46692e-20)
(19.9997 1.37112 -6.12859e-20)
(20.565 0.812001 0)
(20.5389 0.871768 -6.86075e-20)
(20.5074 0.930706 6.04964e-20)
(20.4702 0.98662 0)
(20.4272 1.03849 1.02669e-20)
(20.3784 1.08557 2.10547e-20)
(20.3244 1.12706 -1.09672e-20)
(20.2655 1.16218 -1.0162e-19)
(20.2028 1.19025 -7.14661e-21)
(20.1373 1.2107 1.03572e-19)
(20.0704 1.22316 6.3717e-20)
(20.0034 1.22756 -5.61525e-20)
(20.5086 0.78696 -3.58115e-20)
(20.4829 0.834954 2.66274e-20)
(20.4525 0.882248 -7.88936e-20)
(20.4181 0.927199 7.89508e-20)
(20.3792 0.968832 -2.12573e-20)
(20.3357 1.0067 8.22093e-20)
(20.2879 1.0401 -1.06257e-19)
(20.2362 1.06839 0)
(20.181 1.09109 0)
(20.1233 1.10772 7.3673e-21)
(20.0642 1.11791 -7.92791e-21)
(20.0048 1.12152 -8.51972e-21)
(20.4643 0.759573 0)
(20.4392 0.800643 -7.12503e-20)
(20.4104 0.839811 1.54163e-19)
(20.3788 0.877166 -8.39751e-20)
(20.3433 0.911708 -8.11843e-20)
(20.3041 0.94338 1.04784e-19)
(20.2613 0.97143 -9.093e-20)
(20.215 0.995216 8.09287e-21)
(20.1655 1.01438 1.25828e-19)
(20.1135 1.02849 6.25325e-20)
(20.06 1.03719 3.16875e-21)
(20.0059 1.04031 -6.76688e-20)
(20.4272 0.738374 0)
(20.4049 0.771162 -1.07035e-20)
(20.378 0.803185 1.05355e-20)
(20.3494 0.834868 0)
(20.3172 0.864163 -1.17247e-20)
(20.2812 0.891545 -1.11727e-19)
(20.2427 0.915946 1.00603e-19)
(20.2004 0.936658 -1.35099e-20)
(20.155 0.953491 -2.88422e-20)
(20.1071 0.965758 -1.53488e-20)
(20.0578 0.973311 1.62707e-20)
(20.0078 0.976158 -1.72115e-20)
(20.3974 0.716847 1.09032e-20)
(20.3773 0.745478 -4.78383e-22)
(20.3524 0.771877 0)
(20.3278 0.799788 -1.17916e-20)
(20.2988 0.824724 2.40591e-20)
(20.2656 0.849291 5.06185e-20)
(20.2312 0.87055 -9.08981e-20)
(20.1917 0.888625 5.40214e-20)
(20.1494 0.904303 -3.0233e-20)
(20.1044 0.915111 9.14404e-20)
(20.0581 0.92177 -1.63136e-20)
(20.011 0.92462 -1.60882e-22)
(18.9402 4.34253 -5.20342e-20)
(18.3477 3.97534 6.80223e-21)
(18.0526 3.55075 0)
(17.9461 3.1267 9.28604e-21)
(17.9601 2.7018 1.8562e-20)
(18.0504 2.28658 7.91795e-19)
(18.1822 1.89801 -6.8519e-19)
(18.3301 1.55111 -6.92686e-19)
(18.4766 1.25504 6.61636e-19)
(18.6127 1.01194 0)
(18.7358 0.818047 0)
(18.8447 0.644035 -1.20094e-19)
(19.8406 2.55249 5.9641e-20)
(19.6384 2.44916 -1.93222e-19)
(19.4569 2.29252 1.97155e-19)
(19.3001 2.10823 -5.06814e-19)
(19.1696 1.91221 -3.98343e-20)
(19.0667 1.71495 5.51215e-19)
(18.992 1.52327 3.38344e-20)
(18.9459 1.34162 -4.81317e-21)
(18.9275 1.17225 -5.45089e-19)
(18.9343 1.01538 1.13159e-18)
(18.9622 0.870735 -5.41293e-19)
(19.0037 0.728683 2.3496e-19)
(19.8388 1.88573 -1.62999e-20)
(19.6985 1.8567 1.70229e-20)
(19.567 1.80356 5.90272e-21)
(19.4492 1.72904 -1.14338e-20)
(19.3481 1.63627 -4.03975e-19)
(19.2655 1.52866 4.24071e-19)
(19.2023 1.40973 -5.00024e-19)
(19.1581 1.28319 4.66876e-19)
(19.1319 1.15302 0)
(19.1213 1.02306 5.91646e-20)
(19.1242 0.896884 -1.20491e-19)
(19.1374 0.772274 -3.61028e-21)
(19.9068 1.57687 0)
(19.8113 1.55589 0)
(19.7173 1.52002 0)
(19.6275 1.47021 5.08678e-22)
(19.5444 1.40786 2.05642e-19)
(19.4698 1.33474 -1.95198e-19)
(19.405 1.25284 -4.23472e-19)
(19.3511 1.1642 3.97004e-19)
(19.3089 1.07093 0)
(19.2786 0.974913 -5.7775e-20)
(19.26 0.877953 -5.42581e-20)
(19.2521 0.778957 5.11162e-20)
(19.9214 1.36701 1.74882e-20)
(19.8435 1.35287 -1.83907e-20)
(19.7668 1.32836 -9.30005e-20)
(19.6931 1.29385 2.58833e-19)
(19.6239 1.24999 -3.68847e-19)
(19.5607 1.19774 3.9495e-19)
(19.5043 1.13818 -1.89589e-19)
(19.4556 1.07251 2.43823e-20)
(19.415 1.00196 -1.81381e-19)
(19.3827 0.927703 2.31315e-19)
(19.3586 0.851028 5.37779e-20)
(19.3423 0.771736 -1.0013e-19)
(19.937 1.2241 -8.92438e-21)
(19.8709 1.21281 4.87987e-20)
(19.8058 1.19356 5.36258e-20)
(19.7429 1.16661 -5.08647e-20)
(19.6834 1.13248 -1.77721e-19)
(19.6281 1.09184 -7.0543e-21)
(19.5779 1.04547 1.81854e-19)
(19.5332 0.994219 -8.65079e-22)
(19.4944 0.93893 -2.47578e-20)
(19.4618 0.880353 -4.95077e-20)
(19.4354 0.819411 -2.57757e-20)
(19.4152 0.756082 9.64483e-20)
(19.9458 1.11857 9.09819e-21)
(19.8872 1.10908 2.98812e-20)
(19.8297 1.09309 -1.94332e-20)
(19.7741 1.07085 -2.10498e-20)
(19.7215 1.04287 0)
(19.6724 1.00967 -1.78416e-19)
(19.6274 0.971897 1.76467e-19)
(19.5869 0.930242 -2.32302e-20)
(19.5512 0.885347 0)
(19.5203 0.837773 -4.82725e-20)
(19.4942 0.788379 7.12821e-20)
(19.4733 0.736886 -2.30919e-20)
(19.9523 1.03768 -3.22046e-20)
(19.8991 1.02936 -2.50791e-20)
(19.8471 1.01548 1.92196e-20)
(19.7969 0.996315 -2.04849e-20)
(19.7492 0.972505 -8.55213e-20)
(19.705 0.94435 -8.99363e-20)
(19.6643 0.912361 1.7242e-19)
(19.6273 0.877293 1.79973e-19)
(19.5943 0.839664 -1.79378e-19)
(19.5653 0.799974 6.97115e-20)
(19.5403 0.759217 -9.32585e-20)
(19.52 0.716471 4.60158e-20)
(19.9584 0.973726 1.8264e-20)
(19.9089 0.966265 1.90565e-20)
(19.8609 0.9538 0)
(19.8143 0.936711 -6.19459e-20)
(19.7701 0.91619 -2.54551e-21)
(19.73 0.891766 1.67627e-19)
(19.6924 0.863661 -1.70776e-19)
(19.6584 0.833197 1.07466e-19)
(19.6279 0.800751 -8.92432e-20)
(19.6009 0.766821 2.08721e-20)
(19.5774 0.732744 9.12017e-20)
(19.5587 0.696488 -2.28858e-20)
(19.9651 0.921627 4.58941e-21)
(19.9177 0.914804 -4.24977e-20)
(19.8729 0.903202 0)
(19.8285 0.887217 2.02832e-20)
(19.7871 0.869921 1.99511e-20)
(19.7499 0.848704 -1.14133e-22)
(19.7143 0.823011 0)
(19.6828 0.7962 6.51933e-20)
(19.6548 0.767562 -6.5338e-20)
(19.6295 0.737965 -3.22289e-22)
(19.6077 0.709027 -2.2795e-20)
(19.5916 0.676419 4.41251e-20)
(19.8507 -0.609233 -3.65597e-19)
(19.7099 -0.613426 2.08683e-19)
(19.5144 -0.619198 4.17743e-19)
(19.2513 -0.62231 -2.72302e-20)
(18.9145 -0.623199 -1.79385e-18)
(18.5012 -0.621635 2.13057e-18)
(18.0075 -0.617512 -8.04606e-19)
(17.4232 -0.610815 9.52129e-19)
(16.723 -0.600536 -1.13068e-18)
(15.8448 -0.591004 -7.2167e-19)
(14.6364 -0.516044 8.5691e-19)
(13.2179 -0.551688 -5.48408e-19)
(19.8452 -0.602976 9.87436e-20)
(19.7201 -0.606426 3.34945e-19)
(19.5507 -0.611154 -9.87868e-19)
(19.326 -0.614333 5.81273e-19)
(19.0384 -0.616029 -5.8331e-22)
(18.6815 -0.615991 -6.80195e-19)
(18.2473 -0.613611 7.69837e-19)
(17.7213 -0.608615 9.15691e-19)
(17.0736 -0.597761 -1.06569e-18)
(16.2387 -0.592397 0)
(15.0901 -0.534553 0)
(13.8611 -0.509847 0)
(19.8414 -0.599846 0)
(19.7302 -0.604348 5.89484e-20)
(19.5823 -0.609618 6.41574e-19)
(19.3878 -0.613414 -5.60881e-19)
(19.1378 -0.615369 -6.53142e-19)
(18.8237 -0.615148 7.22306e-19)
(18.4345 -0.612127 -7.6021e-19)
(17.9525 -0.606601 8.36376e-19)
(17.3442 -0.594349 0)
(16.5422 -0.585581 3.02208e-19)
(15.435 -0.540653 -3.81847e-19)
(14.2976 -0.484392 -4.99897e-19)
(19.8364 -0.597066 -5.69327e-20)
(19.7355 -0.601655 4.48933e-22)
(19.6031 -0.606537 -6.69749e-20)
(19.4303 -0.609973 -3.66311e-20)
(19.2081 -0.611605 0)
(18.9263 -0.611175 -4.31899e-20)
(18.5715 -0.608027 -3.62125e-19)
(18.1234 -0.602699 4.33487e-19)
(17.5454 -0.591201 -4.97863e-19)
(16.7679 -0.579598 5.49431e-19)
(15.6884 -0.541891 -4.54664e-20)
(14.6005 -0.472329 2.2839e-19)
(19.8314 -0.593642 6.04767e-20)
(19.7393 -0.597868 -1.96636e-19)
(19.6199 -0.602165 -2.81686e-19)
(19.4652 -0.605274 3.395e-19)
(19.2659 -0.606865 3.67488e-19)
(19.0105 -0.606638 -7.53721e-19)
(18.684 -0.603812 7.54269e-19)
(18.2638 -0.598776 -4.59415e-19)
(17.7106 -0.588369 -2.45039e-19)
(16.9528 -0.575105 3.19302e-19)
(15.8935 -0.540859 4.26779e-20)
(14.8364 -0.46646 2.10797e-19)
(19.827 -0.58968 1.28517e-19)
(19.7431 -0.59412 -6.89626e-20)
(19.6352 -0.598159 0)
(19.4959 -0.601185 0)
(19.3158 -0.602923 1.4651e-22)
(19.0825 -0.603006 8.96003e-20)
(18.7798 -0.600606 0)
(18.3833 -0.595878 -4.446e-23)
(17.8514 -0.586469 -2.99483e-20)
(17.1105 -0.572545 3.42523e-20)
(16.067 -0.540108 -6.58491e-23)
(15.0296 -0.464211 -4.14618e-23)
(19.8234 -0.586582 3.42266e-20)
(19.7467 -0.590918 3.62451e-20)
(19.6485 -0.594734 0)
(19.5218 -0.597859 4.00086e-20)
(19.3569 -0.599994 -4.22617e-20)
(19.1415 -0.60072 -4.06856e-19)
(18.8582 -0.598975 4.38016e-19)
(18.4813 -0.594461 2.64871e-20)
(17.9676 -0.585604 8.79418e-20)
(17.2415 -0.571261 2.78577e-23)
(16.2114 -0.538573 -7.72441e-20)
(15.1928 -0.461007 2.73628e-19)
(19.8199 -0.583343 -7.24371e-20)
(19.7491 -0.587792 -3.77273e-20)
(19.6591 -0.591399 0)
(19.5428 -0.594386 -4.08404e-20)
(19.3912 -0.59683 -3.01464e-19)
(19.1913 -0.59833 3.18993e-19)
(18.927 -0.597645 -2.43414e-19)
(18.5684 -0.59404 4.72771e-19)
(18.0708 -0.586249 -2.87264e-19)
(17.3578 -0.573014 -3.20395e-20)
(16.3388 -0.543711 1.84566e-20)
(15.3234 -0.466544 -2.14504e-20)
(19.818 -0.580236 7.64877e-20)
(19.7524 -0.58479 0)
(19.6692 -0.588494 -2.02346e-19)
(19.561 -0.592042 2.0912e-19)
(19.4164 -0.595101 -4.35704e-20)
(19.2257 -0.598994 -1.37412e-19)
(18.971 -0.600089 1.94103e-19)
(18.6266 -0.59522 -2.58842e-19)
(18.1424 -0.586458 2.24525e-19)
(17.4385 -0.573062 6.25045e-20)
(16.4279 -0.540693 0)
(15.4657 -0.458109 1.30541e-21)
(19.8103 -0.577282 2.63618e-22)
(19.7499 -0.581815 4.1409e-20)
(19.6734 -0.585053 -1.25522e-19)
(19.5747 -0.586481 8.55762e-20)
(19.45 -0.588116 0)
(19.2694 -0.594042 0)
(19.0552 -0.598964 -1.93809e-19)
(18.7241 -0.596206 1.56715e-19)
(18.2524 -0.587817 0)
(17.5616 -0.577946 -1.21241e-19)
(16.5561 -0.574856 1.69118e-20)
(15.5162 -0.50637 1.32924e-19)
(14.4294 -0.317966 6.34061e-19)
(16.274 -0.504518 0)
(17.599 -0.514967 1.05918e-20)
(18.499 -0.564727 2.25202e-18)
(19.1526 -0.596145 -1.89762e-18)
(19.617 -0.619007 2.49863e-20)
(19.9205 -0.633605 -1.42934e-18)
(20.0908 -0.640517 2.52179e-18)
(20.1671 -0.641144 -1.11924e-18)
(20.1874 -0.637865 0)
(20.1775 -0.631787 0)
(20.1533 -0.623837 0)
(14.9321 -0.360387 1.73179e-20)
(16.7612 -0.483334 0)
(18.0299 -0.50287 0)
(18.8523 -0.553802 -1.00959e-18)
(19.415 -0.58033 8.76102e-19)
(19.7893 -0.601901 -2.48132e-20)
(20.0175 -0.615962 0)
(20.1373 -0.623287 0)
(20.1864 -0.624882 1.14656e-18)
(20.1951 -0.622781 -9.7117e-19)
(20.1821 -0.618323 4.77836e-19)
(20.1589 -0.611188 -3.22604e-19)
(15.3104 -0.384813 5.00059e-19)
(17.1277 -0.469163 7.17079e-19)
(18.3476 -0.499559 -5.76611e-19)
(19.1048 -0.543972 9.8459e-19)
(19.595 -0.564961 -8.82368e-19)
(19.9018 -0.583236 0)
(20.0778 -0.595043 7.4178e-19)
(20.1647 -0.602274 -6.71024e-19)
(20.197 -0.605488 3.65603e-20)
(20.1989 -0.605899 5.41631e-19)
(20.1847 -0.604267 -4.96433e-19)
(20.1627 -0.599646 -2.31255e-19)
(15.5928 -0.393972 -1.87703e-19)
(17.4013 -0.459033 6.77802e-19)
(18.5797 -0.496714 -5.94226e-19)
(19.2821 -0.535562 0)
(19.7138 -0.554636 2.66592e-20)
(19.9695 -0.571009 -7.78097e-19)
(20.1089 -0.581159 6.61092e-19)
(20.175 -0.587728 -6.12648e-19)
(20.1982 -0.591173 5.62675e-19)
(20.1976 -0.592514 1.0803e-22)
(20.1843 -0.59233 -6.54939e-20)
(20.1643 -0.589819 -6.15416e-20)
(15.8237 -0.397667 -2.98025e-19)
(17.6235 -0.453539 -6.4148e-19)
(18.7646 -0.494771 6.07883e-19)
(19.4191 -0.529405 9.54667e-19)
(19.8023 -0.547644 -8.53038e-19)
(20.0177 -0.562502 7.81586e-19)
(20.1297 -0.57155 4.09661e-21)
(20.1805 -0.577559 3.82535e-21)
(20.1969 -0.5809 -6.19253e-19)
(20.1947 -0.58251 2.1956e-19)
(20.1824 -0.582882 -2.0514e-19)
(20.1645 -0.581687 -6.52402e-20)
(16.0172 -0.399288 9.22284e-20)
(17.8079 -0.449707 3.78322e-20)
(18.915 -0.492078 -3.25916e-20)
(19.5276 -0.523768 -4.66725e-19)
(19.8701 -0.541503 4.22028e-19)
(20.0537 -0.555176 -4.87866e-20)
(20.1449 -0.563547 -6.80628e-19)
(20.1842 -0.569212 1.39729e-18)
(20.1955 -0.572549 -3.56219e-19)
(20.1919 -0.574399 -3.38997e-19)
(20.1803 -0.57515 2.8821e-19)
(20.1642 -0.574859 -3.428e-19)
(16.1873 -0.398811 1.30497e-19)
(17.9661 -0.446425 -2.87186e-19)
(19.0392 -0.48865 0)
(19.6132 -0.518257 -5.70727e-20)
(19.9208 -0.535674 0)
(20.079 -0.548601 4.88334e-19)
(20.1546 -0.556722 -4.09763e-19)
(20.1856 -0.562272 1.26012e-22)
(20.1934 -0.565675 4.08346e-20)
(20.1889 -0.567718 3.52075e-19)
(20.178 -0.568723 -2.99381e-19)
(20.1636 -0.568973 7.23889e-20)
(16.3165 -0.398109 0)
(18.0883 -0.438503 2.41295e-19)
(19.135 -0.48047 6.35239e-20)
(19.677 -0.510211 2.82282e-19)
(19.9571 -0.528829 -4.66628e-19)
(20.0959 -0.542466 -4.39803e-19)
(20.1599 -0.551059 3.67397e-19)
(20.1851 -0.556755 -8.75096e-20)
(20.1906 -0.560256 0)
(20.1858 -0.5624 4.03265e-20)
(20.1757 -0.563563 3.90989e-20)
(20.1628 -0.564312 0)
(16.4885 -0.391848 -1.51633e-19)
(18.2266 -0.433353 -2.66103e-19)
(19.2281 -0.475943 1.77735e-19)
(19.7337 -0.505357 5.52128e-20)
(19.985 -0.524745 1.03438e-19)
(20.1069 -0.538432 3.91403e-19)
(20.1625 -0.547202 -3.23909e-19)
(20.1836 -0.552888 4.42953e-20)
(20.1875 -0.55628 -2.99588e-19)
(20.1826 -0.558337 4.56045e-19)
(20.1732 -0.559484 -2.02786e-19)
(20.1615 -0.560318 -4.028e-20)
(16.4777 -0.386787 7.16398e-20)
(18.2358 -0.40165 0)
(19.2555 -0.451594 2.91955e-19)
(19.75 -0.490084 -2.14237e-19)
(19.9964 -0.515775 -1.03435e-19)
(20.1128 -0.534496 4.91832e-20)
(20.163 -0.544718 3.28199e-19)
(20.1818 -0.550152 -5.40411e-19)
(20.1849 -0.553164 1.30726e-19)
(20.1803 -0.554939 0)
(20.1717 -0.555995 -1.6692e-19)
(20.1621 -0.556951 2.91628e-19)
(20.1799 1.00093 -3.01103e-18)
(22.1504 0.0467901 0)
(22.443 0.21131 -1.75731e-20)
(22.6312 0.471087 4.41527e-20)
(22.7016 0.672308 3.27638e-20)
(22.6387 0.81269 0)
(22.4629 0.89503 -2.1041e-19)
(22.2159 0.916218 1.84377e-19)
(21.9456 0.881817 -1.0826e-19)
(21.6915 0.807365 4.63974e-20)
(21.4747 0.70901 -3.51909e-21)
(21.2983 0.623827 1.71235e-20)
(16.7644 -0.487267 1.60924e-18)
(19.8109 -0.644517 -1.81678e-20)
(20.7315 -0.462454 1.75934e-20)
(21.2951 -0.314183 -4.19143e-19)
(21.6992 -0.158202 -6.79817e-21)
(21.9535 0.00459052 2.39956e-19)
(22.0565 0.159169 -1.10373e-19)
(22.0266 0.287695 1.79128e-20)
(21.9017 0.378223 2.9919e-20)
(21.7273 0.426901 1.97973e-20)
(21.5414 0.434571 4.31203e-20)
(21.3685 0.417399 -1.67872e-20)
(15.0549 -0.56869 -6.9891e-19)
(18.7131 -0.477457 2.13014e-20)
(19.7801 -0.392709 2.88724e-19)
(20.4403 -0.331581 -2.00704e-19)
(20.945 -0.249314 -1.53874e-19)
(21.3222 -0.153594 1.2641e-21)
(21.5673 -0.0531166 2.19559e-19)
(21.6834 0.0430573 -1.84547e-19)
(21.6898 0.12621 1.44671e-19)
(21.618 0.190029 4.31724e-20)
(21.5014 0.230061 -6.40183e-20)
(21.3703 0.244427 1.0091e-20)
(14.9375 -0.455745 1.6818e-18)
(18.312 -0.54065 -4.92068e-19)
(19.5102 -0.484699 0)
(20.1941 -0.437637 -2.12522e-19)
(20.6909 -0.37486 3.33589e-19)
(21.067 -0.300376 -2.64985e-19)
(21.3306 -0.217046 8.52163e-21)
(21.4838 -0.130933 5.56868e-21)
(21.538 -0.0498541 3.91405e-21)
(21.5152 0.0196939 8.90829e-21)
(21.4416 0.0741021 3.26642e-20)
(21.3428 0.106707 1.70146e-20)
(15.0221 -0.465932 1.45282e-18)
(17.876 -0.611698 -4.17358e-19)
(19.2307 -0.566286 0)
(19.9732 -0.536586 -2.18587e-19)
(20.4831 -0.491999 3.38225e-19)
(20.866 -0.433868 -1.30293e-19)
(21.1445 -0.362776 0)
(21.3232 -0.283029 -3.36772e-21)
(21.4095 -0.20147 -2.92698e-20)
(21.4201 -0.125335 -1.74947e-20)
(21.377 -0.0591928 -2.31286e-20)
(21.3025 -0.0113746 -1.1223e-20)
(14.9819 -0.503977 0)
(17.4799 -0.607664 -3.0747e-19)
(18.9145 -0.582641 2.10092e-19)
(19.7161 -0.56951 -3.72778e-21)
(20.2514 -0.539424 -1.58711e-20)
(20.6497 -0.497272 -9.50582e-20)
(20.9468 -0.442742 7.8353e-20)
(21.1514 -0.377712 -6.11137e-20)
(21.2697 -0.306277 4.77967e-20)
(21.3135 -0.234206 -1.10286e-20)
(21.3008 -0.166065 3.01097e-20)
(21.2508 -0.110555 1.6383e-20)
(14.9227 -0.518113 3.43587e-19)
(17.2258 -0.587013 -2.07426e-19)
(18.6704 -0.5852 5.95357e-21)
(19.5111 -0.580632 -8.8797e-21)
(20.0669 -0.558602 -7.77336e-20)
(20.4745 -0.527074 7.21701e-20)
(20.7808 -0.485057 0)
(21.0002 -0.433128 -2.28316e-20)
(21.1395 -0.373523 0)
(21.2082 -0.310243 -3.26807e-20)
(21.2208 -0.246651 4.81894e-21)
(21.1936 -0.192115 6.91265e-22)
(14.8618 -0.519447 0)
(17.0632 -0.57548 0)
(18.4906 -0.590696 1.18818e-19)
(19.355 -0.590459 -1.78594e-19)
(19.9274 -0.574325 6.44934e-20)
(20.3416 -0.550076 -5.29935e-20)
(20.6523 -0.516348 -6.63053e-21)
(20.879 -0.473349 1.95229e-20)
(21.0303 -0.422467 2.63554e-20)
(21.115 -0.3666 -5.08024e-21)
(21.1454 -0.307594 3.80096e-21)
(21.1346 -0.254541 1.19028e-20)
(14.787 -0.516604 -3.6202e-19)
(16.932 -0.570354 1.15724e-19)
(18.3394 -0.594668 0)
(19.2191 -0.597582 0)
(19.8068 -0.586624 -5.08584e-20)
(20.2283 -0.567974 3.90236e-20)
(20.5434 -0.540509 9.21192e-21)
(20.7757 -0.504389 -2.6503e-21)
(20.9357 -0.460433 -1.54564e-20)
(21.032 -0.41082 1.29334e-20)
(21.0754 -0.356468 0)
(21.0773 -0.305149 -5.30565e-21)
(14.7058 -0.512793 1.07294e-19)
(16.8147 -0.567228 -6.89459e-20)
(18.2056 -0.595672 -5.13875e-20)
(19.096 -0.601402 7.63192e-20)
(19.6974 -0.594685 -2.73097e-20)
(20.1265 -0.580297 -2.02069e-20)
(20.4463 -0.557773 3.48828e-20)
(20.6835 -0.527327 -3.26211e-20)
(20.8505 -0.489366 1.00754e-20)
(20.9562 -0.445511 4.20439e-21)
(21.0104 -0.396416 -2.72049e-21)
(21.0235 -0.34759 -6.4904e-22)
(14.6278 -0.509276 2.49298e-22)
(16.7099 -0.56477 0)
(18.0882 -0.595237 1.12408e-21)
(18.9864 -0.603561 -1.46744e-20)
(19.5996 -0.600198 1.18485e-20)
(20.0361 -0.589064 -1.71781e-21)
(20.3602 -0.57041 0)
(20.6015 -0.544494 -1.00992e-21)
(20.7741 -0.511488 2.57951e-21)
(20.8871 -0.472558 0)
(20.9503 -0.428464 0)
(20.9736 -0.382128 0)
(14.5548 -0.506267 1.1375e-20)
(16.6149 -0.56273 9.71006e-22)
(17.984 -0.594475 9.95276e-22)
(18.8879 -0.605075 -5.15315e-21)
(19.5118 -0.604366 7.30307e-22)
(19.9555 -0.595803 9.63767e-22)
(20.2838 -0.580265 6.99013e-21)
(20.5286 -0.557973 -8.10571e-22)
(20.7056 -0.529019 -2.95958e-22)
(20.8247 -0.49424 3.94557e-21)
(20.8951 -0.45457 0)
(20.9272 -0.413134 0)
(14.4856 -0.503583 0)
(16.5272 -0.560852 -7.3903e-22)
(17.8896 -0.593583 -3.08715e-20)
(18.7978 -0.606091 2.14879e-20)
(19.4312 -0.607492 1.87873e-20)
(19.8822 -0.601038 -6.2668e-22)
(20.2147 -0.588066 -1.56826e-20)
(20.4629 -0.568721 -1.82386e-21)
(20.6437 -0.54308 -4.03173e-21)
(20.7676 -0.511678 7.18923e-21)
(20.844 -0.475011 1.54477e-21)
(20.8826 -0.435232 -1.95159e-20)
(14.4199 -0.501149 -1.06241e-19)
(16.4454 -0.559039 6.91119e-20)
(17.8027 -0.592587 0)
(18.7141 -0.606669 5.06954e-21)
(19.3562 -0.609778 0)
(19.8146 -0.605117 -3.99837e-21)
(20.1515 -0.594295 0)
(20.4028 -0.577419 9.65196e-21)
(20.5869 -0.554603 -1.75628e-20)
(20.715 -0.52624 1.45916e-20)
(20.796 -0.492672 0)
(20.8391 -0.455408 1.06875e-20)
(14.3577 -0.498914 0)
(16.3687 -0.557278 0)
(17.7221 -0.591531 7.28158e-20)
(18.6358 -0.60693 -6.38564e-20)
(19.2861 -0.611476 0)
(19.7519 -0.608393 -1.18356e-21)
(20.0932 -0.599406 3.14515e-20)
(20.3476 -0.584657 -5.83931e-20)
(20.5347 -0.564308 9.65235e-21)
(20.6663 -0.538683 0)
(20.7515 -0.508122 -1.79998e-20)
(20.7991 -0.473554 2.89336e-20)
(14.2988 -0.49685 0)
(16.2968 -0.555577 0)
(17.6467 -0.590442 3.11654e-21)
(18.5624 -0.606963 4.03999e-21)
(19.2202 -0.612757 -3.93762e-21)
(19.6934 -0.611076 4.62869e-20)
(20.0392 -0.603655 5.27702e-22)
(20.2967 -0.590742 -7.42614e-20)
(20.4866 -0.572526 3.99976e-20)
(20.6214 -0.549262 -3.70802e-20)
(20.7104 -0.521303 2.01233e-20)
(20.7624 -0.489407 0)
(14.2427 -0.494905 2.20004e-19)
(16.2289 -0.553904 -1.43949e-19)
(17.5758 -0.589306 1.05554e-19)
(18.4932 -0.606808 7.99173e-20)
(19.1578 -0.613702 -1.34016e-19)
(19.6383 -0.613266 1.11488e-19)
(19.9889 -0.607179 -4.61475e-20)
(20.2495 -0.595855 8.96971e-21)
(20.4421 -0.579486 0)
(20.5798 -0.558275 1.29408e-20)
(20.6721 -0.532554 0)
(20.7281 -0.503303 -2.11472e-20)
(14.1891 -0.493055 4.16791e-21)
(16.1645 -0.552263 5.45443e-21)
(17.5087 -0.588145 1.25131e-19)
(18.4278 -0.606517 -9.89083e-20)
(19.0986 -0.614387 7.95901e-20)
(19.5862 -0.615044 -1.13444e-19)
(19.9417 -0.610105 -1.44762e-20)
(20.2054 -0.600171 4.41158e-20)
(20.4006 -0.585416 1.95823e-20)
(20.541 -0.566018 0)
(20.6363 -0.542226 0)
(20.6958 -0.515368 0)
(14.1377 -0.491289 -5.68892e-19)
(16.1032 -0.550669 1.73501e-19)
(17.4451 -0.586984 -2.80237e-19)
(18.3657 -0.606128 2.34328e-19)
(19.042 -0.614873 -5.582e-21)
(19.5364 -0.616487 -1.5439e-19)
(19.8971 -0.61255 -4.62446e-20)
(20.164 -0.603839 3.60696e-20)
(20.3617 -0.590497 2.15324e-20)
(20.5046 -0.572708 -3.5317e-20)
(20.6028 -0.550597 2.92098e-20)
(20.6653 -0.525872 2.59892e-20)
(14.0883 -0.489596 3.05453e-19)
(16.0448 -0.549127 -5.35169e-22)
(17.3846 -0.585831 -1.54388e-19)
(18.3066 -0.60566 3.65298e-19)
(18.9877 -0.61519 -2.89409e-19)
(19.4888 -0.617646 6.99098e-20)
(19.8548 -0.614602 -1.32696e-19)
(20.125 -0.60697 1.0816e-19)
(20.3252 -0.594868 2.37345e-20)
(20.4705 -0.578506 1.98736e-20)
(20.5712 -0.557868 3.25988e-20)
(20.6365 -0.535018 -5.30099e-20)
(14.0409 -0.487974 5.06707e-21)
(15.989 -0.547637 1.37937e-20)
(17.3268 -0.58469 0)
(18.2501 -0.605119 5.97292e-22)
(18.9354 -0.615357 -1.07292e-19)
(19.4431 -0.618567 8.68446e-20)
(19.8145 -0.616334 0)
(20.0881 -0.609655 1.43774e-20)
(20.2908 -0.598649 2.59592e-20)
(20.4383 -0.583558 -8.2795e-20)
(20.5413 -0.56423 -3.51419e-20)
(20.6091 -0.543028 -1.16e-21)
(13.9952 -0.486419 -5.82892e-21)
(15.9354 -0.546192 -2.4472e-19)
(17.2714 -0.583556 1.85873e-19)
(18.1959 -0.604514 -1.77426e-20)
(18.8851 -0.615393 1.1554e-19)
(19.3989 -0.619289 -9.52764e-20)
(19.7758 -0.617801 0)
(20.053 -0.611972 -4.79301e-20)
(20.2581 -0.601945 2.71236e-20)
(20.4078 -0.588001 1.33827e-19)
(20.5131 -0.569874 5.2665e-22)
(20.5831 -0.550173 3.13041e-20)
(13.9511 -0.484929 1.20813e-20)
(15.884 -0.544786 -2.53005e-19)
(17.2182 -0.582429 6.50379e-21)
(18.1437 -0.603855 1.89293e-20)
(18.8364 -0.615324 0)
(19.3562 -0.619849 -1.02013e-19)
(19.7387 -0.619048 -2.16059e-20)
(20.0195 -0.613975 5.19125e-20)
(20.2271 -0.604825 1.54164e-21)
(20.3788 -0.591909 1.25564e-21)
(20.4862 -0.574857 0)
(20.5583 -0.5564 1.60882e-21)
(13.9086 -0.483484 -4.141e-19)
(15.8345 -0.543399 -2.67936e-19)
(17.167 -0.581296 4.00893e-19)
(18.0934 -0.603142 -3.30921e-19)
(18.7894 -0.615163 2.61464e-19)
(19.3149 -0.620274 -1.08032e-19)
(19.7028 -0.620107 2.15398e-20)
(19.9873 -0.615705 -1.8687e-20)
(20.1975 -0.607343 -2.95214e-20)
(20.3513 -0.595343 -5.03388e-20)
(20.4606 -0.579251 4.2183e-20)
(20.5347 -0.561916 -6.88073e-20)
(13.8674 -0.482093 -4.29192e-19)
(15.7867 -0.542056 0)
(17.1175 -0.580179 -6.53599e-21)
(18.0448 -0.602406 1.08049e-20)
(18.7439 -0.61494 1.3791e-19)
(19.2746 -0.620596 2.85137e-20)
(19.6681 -0.621011 -9.32961e-20)
(19.9565 -0.617213 -8.57361e-22)
(20.1691 -0.609571 3.14231e-20)
(20.3249 -0.598409 -2.69721e-20)
(20.4361 -0.583214 -8.94459e-20)
(20.512 -0.566994 3.4809e-20)
(13.8275 -0.480747 -7.16515e-21)
(15.7406 -0.540735 9.41623e-21)
(17.0697 -0.579067 -2.10193e-19)
(17.9977 -0.601649 2.97839e-22)
(18.6998 -0.614668 2.98386e-19)
(19.2355 -0.620835 -1.33587e-19)
(19.6343 -0.621784 -7.32361e-20)
(19.9267 -0.618536 1.81904e-19)
(20.1419 -0.611557 -1.01373e-19)
(20.2997 -0.601161 5.55597e-20)
(20.4127 -0.586779 4.53789e-20)
(20.4902 -0.571614 3.74378e-20)
(13.7887 -0.479431 -4.69283e-19)
(15.6959 -0.539438 -1.93671e-20)
(17.0234 -0.577965 4.61575e-19)
(17.9521 -0.60088 -1.96428e-19)
(18.657 -0.614351 3.5442e-22)
(19.1973 -0.620998 1.24611e-19)
(19.6014 -0.622441 -1.2786e-19)
(19.8979 -0.619703 -2.1586e-20)
(20.1158 -0.613332 -3.57308e-20)
(20.2755 -0.603639 0)
(20.3902 -0.589991 4.91787e-20)
(20.4693 -0.575662 8.07208e-20)
(13.7511 -0.478163 -2.64132e-22)
(15.6526 -0.538198 9.83919e-21)
(16.9785 -0.5769 2.43973e-19)
(17.9078 -0.600121 -1.92558e-19)
(18.6154 -0.614008 -1.96425e-20)
(19.16 -0.621102 0)
(19.5693 -0.623 0)
(19.87 -0.620738 8.78181e-20)
(20.0906 -0.614926 -3.71223e-20)
(20.2523 -0.60588 -3.08296e-20)
(20.3686 -0.592932 -4.94775e-20)
(20.4492 -0.579346 9.61943e-22)
(13.7145 -0.476926 1.58299e-20)
(15.6106 -0.536989 -3.32323e-19)
(16.935 -0.575853 2.52657e-22)
(17.8649 -0.599359 -1.87196e-19)
(18.5749 -0.613632 1.62729e-19)
(19.1235 -0.621147 1.51914e-19)
(19.538 -0.623473 -1.11334e-19)
(19.8428 -0.621662 1.1472e-19)
(20.0662 -0.616371 -7.5983e-20)
(20.2299 -0.607928 3.10158e-20)
(20.3479 -0.59566 5.23745e-20)
(20.4298 -0.58272 3.95173e-22)
(13.679 -0.475714 5.06383e-19)
(15.5698 -0.535766 -3.43687e-19)
(16.8927 -0.57479 -1.63264e-20)
(17.8231 -0.598572 1.94048e-19)
(18.5354 -0.613204 -3.27247e-19)
(19.0878 -0.621124 1.22306e-19)
(19.5073 -0.623859 -2.92914e-20)
(19.8164 -0.622481 1.19689e-19)
(20.0427 -0.617673 2.04066e-22)
(20.2083 -0.609784 -6.5197e-20)
(20.3279 -0.598168 5.42185e-20)
(20.4112 -0.585696 -4.43855e-20)
(13.6444 -0.474564 -5.30875e-19)
(15.5302 -0.534615 0)
(16.8516 -0.573782 2.86548e-19)
(17.7824 -0.597804 -2.26774e-19)
(18.4969 -0.61276 1.7436e-19)
(19.0529 -0.621054 -1.44128e-19)
(19.4772 -0.624177 1.48981e-19)
(19.7907 -0.623208 -1.47962e-19)
(20.0199 -0.618846 8.16833e-20)
(20.1875 -0.611474 -6.741e-20)
(20.3086 -0.600528 0)
(20.3934 -0.589024 9.29506e-20)
(13.6107 -0.473425 -5.55182e-19)
(15.4917 -0.533489 7.30348e-19)
(16.8116 -0.572783 -5.63887e-19)
(17.7428 -0.597031 -4.80855e-22)
(18.4592 -0.612288 -1.2309e-22)
(19.0187 -0.620937 1.6742e-19)
(19.4477 -0.624425 -3.12057e-20)
(19.7656 -0.623842 1.01322e-19)
(19.9977 -0.619885 1.75371e-22)
(20.1674 -0.612974 2.11839e-22)
(20.2901 -0.602508 -5.74877e-20)
(20.3766 -0.59199 8.21546e-22)
(13.5779 -0.472311 1.14121e-18)
(15.4542 -0.532364 -7.50719e-19)
(16.7726 -0.571772 2.67316e-19)
(17.704 -0.596231 -2.12021e-19)
(18.4224 -0.611768 -1.16203e-22)
(18.9851 -0.620758 1.34037e-19)
(19.4187 -0.624592 3.13513e-20)
(19.7409 -0.624361 2.59252e-20)
(19.9761 -0.62076 8.68259e-20)
(20.1479 -0.614254 -1.07188e-19)
(20.2721 -0.604093 1.18547e-19)
(20.3599 -0.593772 4.85681e-20)
(13.5458 -0.471226 -1.17108e-18)
(15.4176 -0.531274 -9.32351e-23)
(16.7345 -0.570783 3.10977e-19)
(17.6662 -0.59543 -2.3195e-19)
(18.3863 -0.611228 2.01566e-19)
(18.9522 -0.620545 0)
(19.3902 -0.624707 0)
(19.7167 -0.624812 8.07594e-20)
(19.955 -0.621546 1.50974e-22)
(20.1288 -0.615467 -1.10121e-19)
(20.2546 -0.605816 0)
(20.3436 -0.596114 1.08468e-21)
(13.5145 -0.470162 -6.09547e-19)
(15.3819 -0.530169 3.94737e-19)
(16.6973 -0.569778 1.89626e-20)
(17.6291 -0.594612 0)
(18.3509 -0.610666 1.57906e-19)
(18.9199 -0.620301 1.0897e-22)
(19.362 -0.624781 -1.67745e-19)
(19.6929 -0.625208 -5.9124e-22)
(19.9344 -0.622255 0)
(20.1102 -0.616546 3.82525e-20)
(20.2376 -0.607259 0)
(20.3276 -0.597435 -5.08235e-20)
(13.4839 -0.469132 1.91872e-20)
(15.347 -0.529104 0)
(16.6609 -0.568803 -9.30827e-21)
(17.5928 -0.593805 2.43376e-19)
(18.3163 -0.6101 -3.86081e-19)
(18.8882 -0.620035 -1.06449e-22)
(19.3344 -0.624823 2.05865e-19)
(19.6695 -0.625552 1.13229e-19)
(19.9141 -0.622893 1.3427e-22)
(20.0922 -0.617534 -3.82638e-20)
(20.221 -0.608756 1.77676e-22)
(20.3123 -0.599801 3.36218e-22)
(13.4538 -0.468115 -1.25537e-18)
(15.313 -0.528076 -8.74085e-23)
(16.6253 -0.567854 6.08685e-19)
(17.5573 -0.593017 -4.97561e-19)
(18.2823 -0.60954 1.24951e-20)
(18.8571 -0.619759 3.37744e-19)
(19.307 -0.624839 -1.39784e-19)
(19.6463 -0.625853 1.454e-19)
(19.8943 -0.623481 -9.62208e-20)
(20.0745 -0.618452 3.94809e-20)
(20.2049 -0.609979 1.42639e-22)
(20.2977 -0.601944 -1.06966e-19)
(13.4244 -0.467118 -6.51021e-19)
(15.2796 -0.527064 -4.21883e-19)
(16.5905 -0.566912 -2.95367e-22)
(17.5225 -0.592228 5.08178e-19)
(18.249 -0.608969 -2.21005e-19)
(18.8264 -0.619457 -1.72591e-19)
(19.2801 -0.624813 1.08015e-19)
(19.6235 -0.626093 8.91758e-20)
(19.8749 -0.623981 -9.84602e-20)
(20.0573 -0.619248 1.21739e-19)
(20.1892 -0.610934 1.29254e-22)
(20.2832 -0.603067 -1.08984e-19)
(13.3957 -0.46613 -6.541e-19)
(15.2469 -0.52604 1.35652e-20)
(16.5563 -0.565963 1.01386e-20)
(17.4884 -0.591428 5.18618e-19)
(18.2162 -0.608382 -4.11154e-19)
(18.7963 -0.619133 0)
(19.2534 -0.624757 -1.83734e-19)
(19.601 -0.626301 1.51944e-19)
(19.8557 -0.624455 0)
(20.0403 -0.620061 0)
(20.1738 -0.612134 0)
(20.2689 -0.604668 1.11654e-19)
(13.3676 -0.465192 -6.66783e-19)
(15.215 -0.525055 -1.36743e-20)
(16.5229 -0.565048 -1.07031e-22)
(17.455 -0.59065 4.95256e-19)
(18.1841 -0.607805 1.37279e-20)
(18.7666 -0.618798 -1.56904e-19)
(19.2272 -0.624683 -1.50336e-19)
(19.5787 -0.626484 2.80082e-19)
(19.8368 -0.624894 -1.02788e-19)