/*--------------------------------*- C++ -*----------------------------------*\
| =========                 |                                                 |
| \\      /  F ield         | OpenFOAM: The Open Source CFD Toolbox           |
|  \\    /   O peration     | Version:  2.3.0                                 |
|   \\  /    A nd           | Web:      www.OpenFOAM.org                      |
|    \\/     M anipulation  |                                                 |
\*---------------------------------------------------------------------------*/
FoamFile
{
    version     2.0;
    format      ascii;
    class       volScalarField;
    location    "2000";
    object      p;
}
// * * * * * * * * * * * * * * * * * * * * * * * * * * * * * * * * * * * * * //

dimensions      [0 2 -2 0 0 0 0];

internalField   nonuniform List<scalar> 
38111
(
-0.000433715
-3.83817
-7.26597
-10.7558
-14.3187
-17.9597
-21.6779
-25.4712
-29.3395
-33.2828
-37.3063
-41.3982
-45.5663
-49.8052
-54.1089
-58.4749
-62.889
-67.3569
-71.8517
-76.3639
-80.8872
-85.4054
-89.9042
-94.3815
-98.8222
-103.212
-107.514
-111.753
-115.874
-119.886
-123.653
-127.16
-130.235
-132.681
-134.124
-134.121
-132.396
-128.179
-119.508
-104.663
-89.1196
-81.7068
-49.7618
6.76399
3.62242
0.878611
-1.84884
-4.59147
-7.35348
-10.1295
-12.9144
-15.7003
-18.4878
-21.2719
-24.0393
-26.8001
-29.534
-32.2539
-34.9423
-37.5954
-40.2147
-42.7877
-45.2954
-47.7346
-50.0784
-52.3094
-54.3849
-56.253
-57.874
-59.1325
-59.9633
-60.2375
-59.8118
-58.4445
-55.9928
-52.1648
-46.6857
-39.2039
-29.2759
-16.4812
-0.222321
20.1051
45.2255
75.5149
112.096
155.097
12.898
10.4179
8.29751
6.21405
4.1345
2.05659
-0.0109697
-2.06838
-4.10401
-6.11497
-8.09371
-10.0346
-11.9263
-13.7577
-15.528
-17.2134
-18.8057
-20.2843
-21.6354
-22.8459
-23.883
-24.7324
-25.3672
-25.7449
-25.8464
-25.6386
-25.0335
-24.003
-22.4709
-20.3386
-17.5006
-13.8513
-9.22473
-3.45599
3.62651
12.2168
22.5191
34.7393
48.9357
65.252
83.587
104.112
126.482
18.3384
16.4428
14.8101
13.2178
11.6395
10.0795
8.5411
7.03392
5.5577
4.13024
2.74811
1.42308
0.16888
-1.01536
-2.11524
-3.11497
-4.01063
-4.77664
-5.4039
-5.87077
-6.14735
-6.20454
-6.02743
-5.56201
-4.76283
-3.60785
-1.9917
0.113413
2.79156
6.1393
10.2418
15.1947
21.1265
28.165
36.4003
45.9635
56.9413
69.4009
83.2964
98.5586
114.942
132.08
149.431
23.4478
21.9002
20.5963
19.37
18.1683
17.0047
15.8613
14.7607
13.6917
12.6785
11.7185
10.8299
10.0131
9.27119
8.63313
8.09913
7.68221
7.4049
7.27187
7.32577
7.5547
8.01422
8.71099
9.67505
10.9654
12.5915
14.6284
17.1249
20.1381
23.7347
27.9825
32.9532
38.7587
45.4533
53.1244
61.8503
71.6545
82.5718
94.5326
107.454
121.146
135.32
149.599
27.7398
26.6976
25.6831
24.7519
23.8407
22.9889
22.1476
21.3507
20.5858
19.8697
19.2147
18.6552
18.157
17.7242
17.4114
17.182
17.0855
17.119
17.3085
17.6803
18.237
19.0167
20.0411
21.3243
22.9237
24.8619
27.1788
29.9591
33.2244
37.0482
41.4786
46.5462
52.3719
58.9681
66.4341
74.7702
84.0075
94.1192
105.047
116.671
128.877
141.361
153.879
31.8024
30.948
30.1406
29.449
28.7677
28.1896
27.5862
27.0302
26.4805
25.9685
25.5024
25.1689
24.9235
24.7339
24.7026
24.7108
24.8322
25.0871
25.4841
26.0775
26.8791
27.8777
29.0864
30.5602
32.3141
34.4299
36.8712
39.7555
43.0948
46.9486
51.3779
56.3623
62.0232
68.3822
75.4765
83.3223
91.9662
101.346
111.414
121.954
133.004
144.272
155.614
35.5785
34.8072
34.0852
33.5213
32.9739
32.6749
32.2748
31.9527
31.5744
31.2235
30.8695
30.6853
30.5399
30.3932
30.658
30.8931
31.1896
31.6371
32.1161
32.8153
33.7577
34.9763
36.4032
38.0075
39.7189
41.9371
44.427
47.3722
50.8284
54.7452
59.1376
63.9609
69.4786
75.6588
82.5207
90.0615
98.3031
107.059
116.464
126.272
136.612
147.082
157.543
38.8791
38.3881
37.7786
37.6302
36.6032
36.4207
36.1165
36.0448
35.8576
35.7367
35.4945
35.6003
36.1577
34.9282
35.1065
35.3786
35.695
36.3436
36.7552
37.3152
38.1234
39.3411
41.1743
43.2225
44.5786
46.6219
48.9355
51.7438
55.3076
59.569
64.1202
68.6639
74.0497
80.2083
87.1727
94.9421
103.268
111.768
120.643
129.55
141.376
151.578
161.123
85.9659
156.304
194.828
220.13
239.018
253.555
264.707
273.26
279.831
284.8
288.585
291.399
293.447
294.888
295.835
296.368
296.582
296.511
296.222
295.746
295.121
294.376
293.53
292.616
291.639
290.623
289.573
288.504
287.417
286.325
285.227
284.129
283.032
281.94
280.851
279.767
278.689
277.615
276.544
275.477
274.411
273.359
272.409
194.441
220.821
240.328
255.471
267.314
276.402
283.243
288.279
291.879
294.35
295.937
296.835
297.205
297.18
296.853
296.303
295.591
294.763
293.855
292.895
291.904
290.893
289.867
288.838
287.803
286.772
285.742
284.717
283.698
282.684
281.677
280.677
279.683
278.697
277.718
276.747
275.785
274.83
273.883
272.944
272.012
271.1
270.344
148.994
169.922
188.581
204.754
218.555
230.182
239.899
247.942
254.57
259.996
264.413
267.993
270.869
273.173
274.99
276.405
277.486
278.284
278.844
279.204
279.394
279.44
279.365
279.189
278.925
278.589
278.189
277.736
277.241
276.706
276.139
275.547
274.932
274.298
273.646
272.979
272.3
271.609
270.907
270.195
269.47
268.749
268.162
166.26
181.985
196.315
209.07
220.231
229.861
238.087
245.029
250.854
255.701
259.709
262.996
265.677
267.848
269.589
270.962
272.033
272.849
273.447
273.869
274.136
274.277
274.308
274.25
274.113
273.916
273.662
273.364
273.027
272.653
272.252
271.828
271.379
270.913
270.427
269.924
269.407
268.876
268.332
267.776
267.208
266.648
266.223
163.597
176.992
189.498
200.921
211.165
220.229
228.151
235.006
240.896
245.929
250.207
253.809
256.847
259.389
261.507
263.264
264.707
265.881
266.829
267.579
268.158
268.597
268.911
269.121
269.24
269.287
269.265
269.187
269.058
268.883
268.669
268.425
268.149
267.849
267.52
267.167
266.796
266.403
265.994
265.57
265.132
264.7
264.403
166.133
177.916
188.993
199.228
208.515
216.826
224.184
230.632
236.248
241.121
245.306
248.875
251.92
254.514
256.7
258.548
260.09
261.368
262.427
263.293
263.984
264.537
264.968
265.297
265.535
265.707
265.812
265.863
265.852
265.793
265.695
265.569
265.414
265.231
265.011
264.763
264.501
264.21
263.904
263.585
263.25
262.925
262.764
166.747
177.464
187.611
197.053
205.739
213.539
220.52
226.665
232.089
236.881
240.994
244.541
247.603
250.254
252.523
254.466
256.098
257.473
258.628
259.588
260.372
261.018
261.556
261.987
262.343
262.639
262.86
263.008
263.079
263.108
263.111
263.102
263.051
262.966
262.815
262.643
262.483
262.266
262.039
261.796
261.533
261.303
261.297
167.818
177.763
187.262
196.135
204.277
211.541
218.184
224.109
229.376
234.115
238.004
241.459
244.498
247.185
249.485
251.453
253.066
254.449
255.638
256.624
257.45
258.144
258.763
259.263
259.737
260.148
260.412
260.588
260.697
260.817
260.946
261.065
261.064
261.042
260.89
260.796
260.77
260.574
260.381
260.17
259.946
259.801
259.949
170.643
180.149
189.221
197.623
204.882
211.237
217.347
222.999
228.359
233.343
236.635
239.924
242.837
245.496
247.653
249.482
250.797
252.08
253.232
254.187
255.03
255.714
256.363
256.859
257.405
257.723
258.142
258.404
258.594
258.848
259.01
259.081
259.107
259.111
259.042
259.095
259.127
258.871
258.738
258.687
258.587
258.551
258.718
129.88
129.928
129.896
129.873
129.845
129.805
129.753
129.688
129.61
129.518
129.412
129.293
129.158
129.01
128.847
128.67
128.479
128.275
128.057
127.827
127.585
127.332
127.068
126.795
126.514
126.225
125.929
125.628
125.322
125.014
124.703
124.391
124.081
123.773
123.469
123.171
122.882
122.609
122.363
122.171
122.083
122.247
123.107
130.637
130.387
130.21
130.037
129.858
129.676
129.49
129.3
129.106
128.911
128.713
128.515
128.317
128.12
127.926
127.733
127.545
127.359
127.176
126.997
126.82
126.647
126.476
126.308
126.141
125.975
125.81
125.646
125.482
125.318
125.154
124.992
124.831
124.673
124.522
124.381
124.26
124.17
124.136
124.232
124.649
125.668
127.169
131.215
130.976
130.825
130.669
130.512
130.358
130.207
130.059
129.914
129.769
129.625
129.482
129.338
129.193
129.047
128.9
128.752
128.603
128.451
128.297
128.141
127.983
127.822
127.658
127.492
127.323
127.153
126.98
126.805
126.629
126.453
126.278
126.107
125.941
125.788
125.654
125.553
125.503
125.549
125.802
126.484
127.805
129.77
131.662
131.586
131.488
131.374
131.255
131.134
131.013
130.891
130.769
130.645
130.52
130.391
130.26
130.125
129.988
129.849
129.71
129.568
129.424
129.278
129.129
128.979
128.826
128.671
128.513
128.353
128.191
128.026
127.859
127.69
127.522
127.356
127.195
127.044
126.91
126.805
126.743
126.75
126.892
127.293
128.137
129.507
131.421
132.311
132.139
132.051
131.953
131.846
131.737
131.627
131.516
131.406
131.294
131.183
131.068
130.95
130.827
130.701
130.574
130.446
130.318
130.188
130.055
129.919
129.781
129.641
129.498
129.351
129.201
129.049
128.894
128.736
128.576
128.415
128.258
128.108
127.973
127.862
127.787
127.764
127.827
128.053
128.567
129.524
130.941
132.794
132.676
132.602
132.54
132.462
132.368
132.268
132.171
132.068
131.974
131.874
131.782
131.683
131.584
131.472
131.356
131.237
131.117
130.999
130.881
130.76
130.632
130.503
130.375
130.244
130.105
129.964
129.82
129.673
129.524
129.37
129.213
129.058
128.911
128.781
128.683
128.633
128.647
128.765
129.06
129.656
130.682
132.147
134.005
133.109
133.023
132.987
132.932
132.85
132.757
132.668
132.566
132.485
132.383
132.315
132.229
132.16
132.059
131.952
131.84
131.73
131.627
131.53
131.424
131.294
131.166
131.046
130.934
130.799
130.659
130.521
130.383
130.246
130.098
129.942
129.787
129.639
129.504
129.403
129.364
129.395
129.544
129.856
130.444
131.454
132.921
134.839
133.47
133.451
133.423
133.373
133.283
133.168
133.115
133.001
132.969
132.824
132.779
132.665
132.65
132.551
132.427
132.288
132.136
132.012
131.932
131.905
131.803
131.648
131.497
131.447
131.341
131.201
131.062
130.934
130.832
130.714
130.564
130.4
130.243
130.082
129.95
129.943
130.024
130.296
130.708
131.331
132.437
134.039
136.029
133.471
133.684
133.906
134.046
133.861
133.56
133.441
133.301
133.418
133.286
133.419
133.226
133.472
133.532
133.534
133.519
133.417
133.104
132.779
132.763
132.87
132.735
132.309
132.264
132.216
132.09
131.894
131.676
131.565
131.515
131.454
131.358
131.268
131.072
130.711
130.538
130.406
130.5
130.615
130.44
130.891
132.486
135.419
127.627
131.093
134.411
137.297
139.925
142.309
144.487
146.491
148.348
150.082
151.712
153.255
154.724
156.132
157.488
158.804
160.084
161.335
162.56
163.763
164.948
166.116
167.268
168.406
169.531
170.642
171.741
172.827
173.901
174.963
176.012
177.05
178.075
179.088
180.088
181.075
182.05
183.011
183.959
184.892
185.81
186.711
187.565
129.852
131.654
133.884
136.143
138.46
140.729
142.926
145.036
147.05
148.971
150.803
152.551
154.223
155.825
157.362
158.84
160.262
161.635
162.96
164.242
165.484
166.688
167.858
168.995
170.103
171.181
172.235
173.263
174.27
175.255
176.221
177.169
178.099
179.013
179.914
180.8
181.672
182.533
183.382
184.22
185.051
185.864
186.666
132.305
134.225
136.312
138.319
140.36
142.373
144.351
146.278
148.145
149.948
151.683
153.351
154.953
156.492
157.972
159.395
160.766
162.087
163.363
164.595
165.787
166.943
168.063
169.153
170.212
171.243
172.249
173.231
174.191
175.129
176.046
176.946
177.828
178.692
179.541
180.374
181.193
181.998
182.79
183.572
184.348
185.096
185.773
133.681
135.625
137.638
139.591
141.564
143.498
145.389
147.226
149.003
150.718
152.368
153.956
155.482
156.95
158.362
159.723
161.033
162.298
163.521
164.703
165.848
166.959
168.037
169.084
170.103
171.096
172.065
173.01
173.933
174.836
175.719
176.584
177.431
178.261
179.076
179.875
180.659
181.43
182.187
182.93
183.664
184.377
185.017
134.898
136.772
138.662
140.546
142.453
144.326
146.161
147.944
149.669
151.334
152.937
154.48
155.965
157.395
158.77
160.095
161.373
162.606
163.798
164.949
166.063
167.141
168.185
169.199
170.183
171.141
172.073
172.982
173.867
174.731
175.574
176.397
177.203
177.993
178.764
179.52
180.261
180.99
181.705
182.406
183.093
183.775
184.491
136.09
137.945
139.766
141.594
143.429
145.232
147.002
148.723
150.392
152.004
153.56
155.061
156.505
157.897
159.237
160.529
161.775
162.978
164.14
165.262
166.342
167.386
168.397
169.377
170.329
171.254
172.152
173.024
173.873
174.7
175.505
176.291
177.058
177.808
178.538
179.252
179.952
180.639
181.313
181.972
182.614
183.251
183.953
137.034
138.961
140.791
142.597
144.378
146.116
147.818
149.477
151.09
152.65
154.157
155.613
157.018
158.372
159.675
160.932
162.148
163.324
164.463
165.554
166.6
167.61
168.589
169.543
170.466
171.363
172.231
173.068
173.886
174.682
175.454
176.207
176.942
177.656
178.349
179.025
179.69
180.343
180.982
181.599
182.197
182.791
183.469
138.265
140.135
141.856
143.565
145.247
146.902
148.533
150.138
151.705
153.218
154.688
156.108
157.486
158.809
160.082
161.315
162.51
163.676
164.811
165.867
166.87
167.841
168.794
169.737
170.631
171.511
172.34
173.141
173.937
174.706
175.443
176.162
176.871
177.551
178.201
178.839
179.47
180.093
180.699
181.274
181.828
182.386
183.046
138.654
140.884
142.636
144.357
146.001
147.58
149.143
150.711
152.251
153.713
155.154
156.526
157.896
159.169
160.404
161.613
162.793
163.958
165.094
166.031
166.984
167.96
168.909
169.892
170.714
171.593
172.364
173.136
173.952
174.681
175.38
176.082
176.791
177.424
178.025
178.643
179.267
179.891
180.484
181.008
181.529
182.081
182.743
-539.999
-515.836
-489.417
-467.093
-442.95
-416.426
-389.43
-362.922
-337.228
-312.647
-289.424
-267.746
-247.724
-229.344
-212.535
-197.284
-183.453
-170.893
-159.415
-148.867
-139.117
-130.052
-121.572
-113.588
-106.037
-98.8559
-91.9839
-85.3839
-79.0289
-72.8957
-66.9579
-61.2021
-55.6199
-50.1974
-44.928
-39.805
-34.8223
-29.9771
-25.266
-20.6888
-16.234
-11.9014
-7.06459
-418.754
-417.275
-413.477
-409.352
-405.497
-400.255
-392.694
-382.831
-370.866
-357.036
-341.648
-325.047
-307.67
-289.911
-272.159
-254.75
-237.934
-221.895
-206.724
-192.47
-179.126
-166.64
-154.955
-144.001
-133.722
-124.057
-114.942
-106.323
-98.1542
-90.3917
-82.9979
-75.9381
-69.1852
-62.7175
-56.5103
-50.5451
-44.8084
-39.2859
-33.9625
-28.8329
-23.8806
-19.115
-13.9156
-429.968
-429.563
-429.377
-428.043
-424.947
-420.423
-414.675
-407.354
-398.271
-387.383
-374.768
-360.582
-345.097
-328.582
-311.42
-293.941
-276.479
-259.31
-242.673
-226.686
-211.463
-197.024
-183.404
-170.551
-158.434
-147.01
-136.238
-126.06
-116.439
-107.322
-98.6786
-90.462
-82.6436
-75.1953
-68.086
-61.2934
-54.799
-48.5805
-42.6181
-36.9055
-31.4203
-26.1793
-20.5765
-405.159
-404.915
-404.358
-403.498
-402.209
-400.297
-397.636
-394.167
-389.657
-383.85
-376.514
-367.52
-356.866
-344.587
-330.919
-316.127
-300.537
-284.489
-268.324
-252.288
-236.624
-221.452
-206.894
-192.982
-179.734
-167.153
-155.225
-143.906
-133.18
-123.004
-113.35
-104.174
-95.4542
-87.1512
-79.2405
-71.6993
-64.5016
-57.6243
-51.047
-44.7593
-38.7339
-32.9852
-26.8596
-394.068
-394.008
-393.996
-393.842
-393.379
-392.409
-390.756
-388.313
-384.978
-380.622
-375.111
-368.328
-360.184
-350.611
-339.648
-327.383
-314.001
-299.74
-284.895
-269.737
-254.526
-239.484
-224.777
-210.522
-196.777
-183.594
-170.986
-158.95
-147.48
-136.563
-126.168
-116.274
-106.857
-97.8839
-89.3309
-81.1787
-73.3995
-65.9707
-58.8723
-52.0898
-45.5954
-39.4022
-32.7739
-377.01
-376.975
-376.945
-376.824
-376.533
-375.968
-375.001
-373.535
-371.461
-368.651
-364.961
-360.256
-354.409
-347.317
-338.925
-329.234
-318.298
-306.261
-293.318
-279.707
-265.665
-251.444
-237.249
-223.254
-209.574
-196.3
-183.475
-171.126
-159.274
-147.926
-137.069
-126.696
-116.791
-107.331
-98.2977
-89.673
-81.4365
-73.5642
-66.0415
-58.8491
-51.9593
-45.3721
-38.2487
-361.583
-361.597
-361.69
-361.753
-361.708
-361.467
-360.916
-359.947
-358.477
-356.413
-353.651
-350.084
-345.598
-340.092
-333.485
-325.727
-316.809
-306.776
-295.728
-283.829
-271.266
-258.249
-244.993
-231.684
-218.478
-205.5
-192.835
-180.521
-168.608
-157.112
-146.051
-135.426
-125.235
-115.468
-106.114
-97.1598
-88.5875
-80.3838
-72.5335
-65.021
-57.8256
-50.9767
-43.5989
-345.134
-345.176
-345.305
-345.426
-345.477
-345.399
-345.103
-344.494
-343.497
-342.037
-340.027
-337.376
-333.98
-329.743
-324.572
-318.398
-311.175
-302.9
-293.614
-283.401
-272.4
-260.769
-248.691
-236.353
-223.912
-211.518
-199.28
-187.276
-175.563
-164.168
-153.128
-142.456
-132.169
-122.263
-112.739
-103.592
-94.809
-86.3843
-78.3035
-70.5659
-63.1491
-56.0958
-48.4459
-329.051
-329.114
-329.286
-329.473
-329.617
-329.674
-329.572
-329.221
-328.544
-327.481
-325.965
-323.922
-321.27
-317.925
-313.803
-308.827
-302.943
-296.11
-288.333
-279.645
-270.127
-259.89
-249.08
-237.849
-226.355
-214.743
-203.134
-191.637
-180.317
-169.223
-158.391
-147.849
-137.628
-127.736
-118.18
-108.965
-100.086
-91.5402
-83.3211
-75.4281
-67.8385
-60.6056
-52.663
-313.041
-313.122
-313.318
-313.542
-313.741
-313.883
-313.912
-313.75
-313.324
-312.575
-311.446
-309.878
-307.806
-305.156
-301.856
-297.829
-293.017
-287.365
-280.863
-273.502
-265.328
-256.41
-246.853
-236.771
-226.309
-215.596
-204.753
-193.898
-183.111
-172.459
-161.985
-151.72
-141.698
-131.949
-122.48
-113.309
-104.437
-95.864
-87.5933
-79.6266
-71.9502
-64.6438
-56.7161
-297.455
-297.549
-297.767
-298.02
-298.265
-298.471
-298.597
-298.577
-298.34
-297.829
-296.995
-295.786
-294.153
-292.035
-289.365
-286.079
-282.119
-277.428
-271.979
-265.746
-258.752
-251.021
-242.635
-233.673
-224.252
-214.484
-204.483
-194.36
-184.202
-174.091
-164.077
-154.201
-144.492
-134.987
-125.707
-116.676
-107.898
-99.3844
-91.1363
-83.1626
-75.4493
-68.0768
-60.0837
-282.338
-282.438
-282.666
-282.939
-283.213
-283.464
-283.658
-283.743
-283.652
-283.331
-282.731
-281.813
-280.529
-278.831
-276.664
-273.97
-270.696
-266.789
-262.212
-256.933
-250.949
-244.275
-236.95
-229.038
-220.623
-211.793
-202.66
-193.311
-183.844
-174.337
-164.855
-155.44
-146.129
-136.953
-127.946
-119.13
-110.525
-102.141
-93.9816
-86.0618
-78.3608
-70.9316
-62.731
-267.794
-267.897
-268.133
-268.42
-268.715
-268.998
-269.242
-269.406
-269.428
-269.254
-268.842
-268.154
-267.151
-265.79
-264.027
-261.81
-259.092
-255.823
-251.967
-247.489
-242.368
-236.61
-230.229
-223.274
-215.795
-207.871
-199.589
-191.028
-182.275
-173.411
-164.503
-155.599
-146.741
-137.961
-129.286
-120.753
-112.381
-104.19
-96.1876
-88.3925
-80.8043
-73.506
-65.4827
-253.859
-253.969
-254.212
-254.506
-254.813
-255.118
-255.399
-255.619
-255.727
-255.674
-255.416
-254.916
-254.14
-253.056
-251.621
-249.794
-247.532
-244.791
-241.531
-237.721
-233.337
-228.37
-222.821
-216.717
-210.097
-203.016
-195.547
-187.755
-179.719
-171.512
-163.198
-154.834
-146.463
-138.119
-129.827
-121.624
-113.535
-105.585
-97.7892
-90.1666
-82.7201
-75.56
-67.9484
-240.589
-240.704
-240.949
-241.245
-241.56
-241.879
-242.183
-242.444
-242.62
-242.663
-242.527
-242.179
-241.59
-240.729
-239.563
-238.055
-236.17
-233.867
-231.105
-227.858
-224.098
-219.808
-214.984
-209.635
-203.79
-197.484
-190.775
-183.716
-176.378
-168.818
-161.107
-153.293
-145.426
-137.539
-129.664
-121.824
-114.056
-106.383
-98.823
-91.3993
-84.104
-77.0199
-69.4091
-227.993
-228.108
-228.351
-228.646
-228.964
-229.29
-229.611
-229.902
-230.129
-230.244
-230.206
-229.984
-229.55
-228.877
-227.936
-226.695
-225.123
-223.183
-220.84
-218.067
-214.834
-211.123
-206.926
-202.24
-197.084
-191.481
-185.471
-179.1
-172.425
-165.494
-158.376
-151.109
-143.751
-136.334
-128.889
-121.438
-114.015
-106.648
-99.3549
-92.1594
-85.0639
-78.1209
-70.35
-216.069
-216.185
-216.424
-216.717
-217.034
-217.365
-217.696
-218.007
-218.27
-218.442
-218.483
-218.364
-218.059
-217.54
-216.786
-215.768
-214.455
-212.818
-210.827
-208.455
-205.674
-202.462
-198.808
-194.703
-190.154
-185.181
-179.806
-174.069
-168.015
-161.685
-155.135
-148.409
-141.552
-134.603
-127.594
-120.546
-113.486
-106.445
-99.4472
-92.5181
-85.6683
-78.988
-71.5171
-204.808
-204.924
-205.161
-205.449
-205.764
-206.095
-206.43
-206.753
-207.041
-207.257
-207.362
-207.328
-207.128
-206.74
-206.142
-205.31
-204.218
-202.839
-201.146
-199.113
-196.714
-193.929
-190.74
-187.141
-183.13
-178.716
-173.916
-168.759
-163.279
-157.513
-151.504
-145.296
-138.929
-132.44
-125.863
-119.219
-112.532
-105.832
-99.1456
-92.5054
-85.9256
-79.5228
-72.5373
-194.199
-194.315
-194.548
-194.83
-195.14
-195.468
-195.804
-196.135
-196.44
-196.688
-196.843
-196.877
-196.764
-196.485
-196.017
-195.341
-194.435
-193.273
-191.832
-190.087
-188.016
-185.597
-182.813
-179.654
-176.114
-172.196
-167.912
-163.28
-158.326
-153.083
-147.584
-141.868
-135.971
-129.927
-123.771
-117.527
-111.211
-104.852
-98.4764
-92.1135
-85.7764
-79.5576
-72.6327
-184.217
-184.333
-184.561
-184.837
-185.139
-185.461
-185.796
-186.129
-186.444
-186.715
-186.91
-187
-186.96
-186.769
-186.411
-185.868
-185.119
-184.142
-182.915
-181.416
-179.625
-177.522
-175.089
-172.312
-169.185
-165.705
-161.879
-157.717
-153.243
-148.481
-143.456
-138.204
-132.754
-127.139
-121.39
-115.531
-109.582
-103.562
-97.4972
-91.4142
-85.3269
-79.323
-72.7282
-174.838
-174.953
-175.175
-175.443
-175.739
-176.054
-176.383
-176.715
-177.035
-177.322
-177.546
-177.68
-177.7
-177.585
-177.321
-176.889
-176.272
-175.452
-174.408
-173.121
-171.571
-169.738
-167.606
-165.161
-162.395
-159.302
-155.885
-152.149
-148.11
-143.785
-139.199
-134.377
-129.348
-124.139
-118.78
-113.293
-107.7
-102.015
-96.262
-90.4673
-84.6474
-78.8896
-72.5693
-166.028
-166.145
-166.361
-166.62
-166.907
-167.215
-167.538
-167.867
-168.189
-168.487
-168.732
-168.9
-168.968
-168.916
-168.729
-168.392
-167.887
-167.2
-166.314
-165.209
-163.867
-162.268
-160.398
-158.243
-155.791
-153.039
-149.982
-146.624
-142.976
-139.051
-134.867
-130.445
-125.808
-120.984
-115.994
-110.863
-105.612
-100.254
-94.8073
-89.2965
-83.7388
-78.2166
-72.1094
-157.762
-157.883
-158.092
-158.342
-158.619
-158.918
-159.233
-159.556
-159.878
-160.181
-160.443
-160.637
-160.743
-160.743
-160.622
-160.365
-159.957
-159.385
-158.632
-157.68
-156.515
-155.119
-153.476
-151.575
-149.401
-146.948
-144.212
-141.192
-137.895
-134.331
-130.514
-126.459
-122.188
-117.721
-113.081
-108.289
-103.363
-98.3194
-93.1715
-87.9409
-82.6465
-77.3668
-71.5588
-150.012
-150.134
-150.335
-150.576
-150.844
-151.133
-151.44
-151.757
-152.075
-152.379
-152.65
-152.865
-153.002
-153.044
-152.978
-152.788
-152.463
-151.989
-151.351
-150.533
-149.522
-148.301
-146.857
-145.174
-143.241
-141.05
-138.597
-135.878
-132.898
-129.659
-126.176
-122.458
-118.525
-114.392
-110.08
-105.607
-100.991
-96.2467
-91.3875
-86.4304
-81.3944
-76.357
-70.855
-142.748
-142.868
-143.063
-143.295
-143.552
-143.833
-144.131
-144.439
-144.751
-145.055
-145.331
-145.561
-145.722
-145.799
-145.779
-145.647
-145.391
-145
-144.46
-143.757
-142.879
-141.81
-140.536
-139.045
-137.324
-135.367
-133.164
-130.713
-128.013
-125.069
-121.887
-118.477
-114.854
-111.031
-107.024
-102.851
-98.5278
-94.0681
-89.4827
-84.7867
-79.9919
-75.1634
-69.8794
-135.942
-136.058
-136.246
-136.469
-136.717
-136.987
-137.275
-137.575
-137.88
-138.179
-138.458
-138.698
-138.879
-138.984
-138.999
-138.914
-138.718
-138.398
-137.944
-137.34
-136.577
-135.64
-134.515
-133.191
-131.657
-129.902
-127.92
-125.707
-123.259
-120.579
-117.672
-114.543
-111.204
-107.666
-103.943
-100.052
-96.0028
-91.8129
-87.4899
-83.0451
-78.4891
-73.8787
-68.8369
-129.561
-129.674
-129.854
-130.068
-130.307
-130.567
-130.845
-131.136
-131.432
-131.726
-132.005
-132.251
-132.445
-132.573
-132.62
-132.576
-132.429
-132.169
-131.787
-131.269
-130.606
-129.782
-128.787
-127.61
-126.239
-124.665
-122.879
-120.877
-118.654
-116.21
-113.549
-110.675
-107.597
-104.322
-100.862
-97.2326
-93.4418
-89.5064
-85.4332
-81.2344
-76.9172
-72.5428
-67.768
-123.58
-123.687
-123.86
-124.065
-124.295
-124.545
-124.813
-125.093
-125.381
-125.669
-125.945
-126.193
-126.398
-126.542
-126.615
-126.604
-126.5
-126.292
-125.971
-125.528
-124.951
-124.226
-123.344
-122.296
-121.068
-119.651
-118.039
-116.224
-114.202
-111.972
-109.534
-106.892
-104.05
-101.016
-97.8009
-94.4137
-90.8651
-87.1677
-83.3303
-79.3621
-75.2689
-71.1045
-66.5397
-117.969
-118.071
-118.237
-118.434
-118.654
-118.894
-119.152
-119.423
-119.701
-119.981
-120.252
-120.502
-120.713
-120.87
-120.963
-120.98
-120.911
-120.748
-120.481
-120.102
-119.598
-118.961
-118.179
-117.241
-116.14
-114.864
-113.404
-111.755
-109.912
-107.873
-105.636
-103.203
-100.578
-97.7653
-94.7739
-91.6122
-88.2889
-84.8149
-81.1989
-77.4492
-73.5704
-69.6122
-65.2711
-112.703
-112.802
-112.961
-113.15
-113.36
-113.591
-113.838
-114.099
-114.367
-114.639
-114.905
-115.153
-115.367
-115.534
-115.643
-115.683
-115.644
-115.519
-115.299
-114.973
-114.534
-113.972
-113.277
-112.438
-111.447
-110.293
-108.97
-107.47
-105.788
-103.919
-101.861
-99.6185
-97.1898
-94.5801
-91.7949
-88.8419
-85.7274
-82.462
-79.0529
-75.5082
-71.8301
-68.0624
-63.9105
-107.761
-107.854
-108.007
-108.188
-108.389
-108.61
-108.848
-109.099
-109.358
-109.621
-109.879
-110.123
-110.339
-110.514
-110.634
-110.692
-110.679
-110.585
-110.403
-110.125
-109.743
-109.247
-108.627
-107.874
-106.98
-105.936
-104.733
-103.365
-101.825
-100.11
-98.2173
-96.1456
-93.8954
-91.4696
-88.8739
-86.113
-83.193
-80.1217
-76.9069
-73.5559
-70.0697
-66.4928
-62.5282
-103.118
-103.207
-103.354
-103.527
-103.719
-103.931
-104.159
-104.399
-104.648
-104.902
-105.153
-105.392
-105.608
-105.786
-105.917
-105.99
-105.997
-105.931
-105.783
-105.547
-105.212
-104.772
-104.219
-103.542
-102.734
-101.786
-100.69
-99.439
-98.0266
-96.449
-94.7026
-92.7857
-90.6981
-88.4411
-86.0186
-83.4345
-80.6943
-77.8043
-74.7706
-71.601
-68.2963
-64.8975
-61.0979
-98.7536
-98.8391
-98.98
-99.1455
-99.3293
-99.5315
-99.7493
-99.9793
-100.219
-100.463
-100.707
-100.94
-101.153
-101.334
-101.471
-101.556
-101.58
-101.536
-101.417
-101.216
-100.924
-100.534
-100.038
-99.4285
-98.6963
-97.8331
-96.8315
-95.6851
-94.3871
-92.9329
-91.3188
-89.5421
-87.6019
-85.4989
-83.2356
-80.8143
-78.2397
-75.5175
-72.6525
-69.6523
-66.5154
-63.2816
-59.6253
-94.6492
-94.7307
-94.8654
-95.0239
-95.1999
-95.393
-95.6013
-95.8219
-96.0514
-96.286
-96.5209
-96.7483
-96.9581
-97.1389
-97.2814
-97.3758
-97.4131
-97.3875
-97.293
-97.1215
-96.8664
-96.5209
-96.0763
-95.5247
-94.8585
-94.071
-93.1547
-92.1009
-90.9043
-89.5604
-88.0646
-86.4145
-84.6086
-82.6455
-80.5274
-78.256
-75.8353
-73.269
-70.5622
-67.7239
-64.7546
-61.7009
-58.2783
-90.7869
-90.8639
-90.9927
-91.1444
-91.3124
-91.4969
-91.6956
-91.9066
-92.1264
-92.352
-92.5783
-92.7988
-93.0041
-93.1838
-93.3279
-93.4285
-93.4781
-93.4691
-93.3948
-93.2494
-93.026
-92.7174
-92.3167
-91.8169
-91.2106
-90.4902
-89.6483
-88.6777
-87.573
-86.3286
-84.9402
-83.4045
-81.7195
-79.8836
-77.8983
-75.7637
-73.4842
-71.0618
-68.5009
-65.8088
-62.9866
-60.0746
-56.8243
-87.1489
-87.2213
-87.3449
-87.49
-87.6503
-87.826
-88.0161
-88.2177
-88.4281
-88.6447
-88.8624
-89.0753
-89.2752
-89.4531
-89.5992
-89.7049
-89.7627
-89.7656
-89.7088
-89.5857
-89.3894
-89.1144
-88.753
-88.2982
-87.7438
-87.0822
-86.3061
-85.4095
-84.387
-83.2319
-81.9395
-80.507
-78.9318
-77.212
-75.3483
-73.3397
-71.1896
-68.8986
-66.4718
-63.9125
-61.221
-58.4256
-55.312
-83.7199
-83.7877
-83.9064
-84.0451
-84.1978
-84.3655
-84.547
-84.7392
-84.9404
-85.1476
-85.3568
-85.562
-85.7559
-85.9302
-86.0755
-86.184
-86.249
-86.2632
-86.221
-86.1164
-85.9441
-85.6975
-85.3699
-84.955
-84.4465
-83.8378
-83.1213
-82.2909
-81.3407
-80.2657
-79.0607
-77.7223
-76.247
-74.6329
-72.8794
-70.9861
-68.9553
-66.7872
-64.4848
-62.0503
-59.4857
-56.8129
-53.8414
-80.485
-80.5485
-80.663
-80.7954
-80.9408
-81.1007
-81.2735
-81.4572
-81.6493
-81.8471
-82.0474
-82.2448
-82.4329
-82.6034
-82.7477
-82.8583
-82.9281
-82.9507
-82.9202
-82.8318
-82.6799
-82.458
-82.1604
-81.781
-81.3134
-80.751
-80.0871
-79.3157
-78.4314
-77.4282
-76.3017
-75.0472
-73.662
-72.1445
-70.4923
-68.7048
-66.7835
-64.7276
-62.5419
-60.2281
-57.7874
-55.2451
-52.4354
-77.4311
-77.4901
-77.6002
-77.7267
-77.8651
-78.0171
-78.1821
-78.3574
-78.5405
-78.7295
-78.9209
-79.1103
-79.2916
-79.4572
-79.5996
-79.7107
-79.7835
-79.8123
-79.7921
-79.7175
-79.5829
-79.3827
-79.1113
-78.7631
-78.331
-77.8095
-77.1931
-76.4751
-75.6495
-74.7112
-73.6552
-72.4778
-71.1749
-69.7449
-68.1851
-66.4946
-64.6747
-62.7243
-60.6455
-58.4403
-56.1102
-53.676
-50.9756
-74.5439
-74.6001
-74.7055
-74.8258
-74.9575
-75.1024
-75.2596
-75.4266
-75.6015
-75.782
-75.9651
-76.1464
-76.3209
-76.4813
-76.6204
-76.7311
-76.8064
-76.8407
-76.8289
-76.7652
-76.6454
-76.4642
-76.2155
-75.8941
-75.4947
-75.0103
-74.435
-73.7634
-72.9904
-72.1109
-71.1188
-70.0106
-68.7828
-67.4326
-65.9574
-64.3561
-62.6286
-60.7743
-58.7951
-56.6926
-54.4661
-52.1375
-49.5433
-71.8139
-71.8686
-71.9687
-72.0828
-72.208
-72.3461
-72.4957
-72.6549
-72.8213
-72.9934
-73.1682
-73.3417
-73.5092
-73.6641
-73.7998
-73.909
-73.9851
-74.0232
-74.0175
-73.9636
-73.8564
-73.6909
-73.4623
-73.1647
-72.7931
-72.3413
-71.8041
-71.1762
-70.4506
-69.6228
-68.6887
-67.6435
-66.4834
-65.2055
-63.8077
-62.2886
-60.6463
-58.8821
-56.9943
-54.9855
-52.8562
-50.6267
-48.1176
-69.2309
-69.2839
-69.3786
-69.4868
-69.6058
-69.737
-69.8794
-70.0306
-70.1891
-70.3529
-70.5194
-70.685
-70.8455
-70.9948
-71.1257
-71.2327
-71.3093
-71.3499
-71.3496
-71.3036
-71.2076
-71.0561
-70.8442
-70.5678
-70.2207
-69.7976
-69.2935
-68.7025
-68.0202
-67.2406
-66.3583
-65.3698
-64.2718
-63.0606
-61.7333
-60.2893
-58.7257
-57.0428
-55.2406
-53.3216
-51.2834
-49.1461
-46.7178
-66.7837
-66.8351
-66.9249
-67.0276
-67.1407
-67.2655
-67.4009
-67.5446
-67.6952
-67.851
-68.0095
-68.1674
-68.3206
-68.4635
-68.59
-68.6942
-68.7704
-68.8125
-68.8161
-68.7768
-68.6894
-68.5499
-68.3536
-68.0955
-67.7708
-67.3736
-66.8991
-66.3421
-65.6969
-64.9595
-64.125
-63.1889
-62.1469
-60.9958
-59.7331
-58.3577
-56.8673
-55.2616
-53.5403
-51.7049
-49.757
-47.7242
-45.4322
-64.464
-64.5137
-64.5988
-64.6958
-64.8033
-64.9218
-65.0503
-65.1868
-65.33
-65.4781
-65.6284
-65.7788
-65.9251
-66.0617
-66.1834
-66.2843
-66.3586
-66.4015
-66.4078
-66.3731
-66.2932
-66.1639
-65.9806
-65.7384
-65.4323
-65.0581
-64.6105
-64.0848
-63.475
-62.7759
-61.9834
-61.0941
-60.1035
-59.0078
-57.8046
-56.4919
-55.0678
-53.5317
-51.8832
-50.1236