/*--------------------------------*- C++ -*----------------------------------*\
| =========                 |                                                 |
| \\      /  F ield         | OpenFOAM: The Open Source CFD Toolbox           |
|  \\    /   O peration     | Version:  2.3.0                                 |
|   \\  /    A nd           | Web:      www.OpenFOAM.org                      |
|    \\/     M anipulation  |                                                 |
\*---------------------------------------------------------------------------*/
FoamFile
{
    version     2.0;
    format      ascii;
    class       surfaceScalarField;
    location    "2000";
    object      phi;
}
// * * * * * * * * * * * * * * * * * * * * * * * * * * * * * * * * * * * * * //

dimensions      [0 3 -1 0 0 0 0];

internalField   nonuniform List<scalar> 
75882
(
-0.00283117
-0.00793736
0.00871997
0.00204859
-0.00356655
-0.00767121
0.00840659
-0.00425458
-0.0074165
0.00810452
-0.00489896
-0.00716917
0.00781355
-0.00550051
-0.00692966
0.00753122
-0.00606112
-0.00669825
0.00725886
-0.00658169
-0.00647554
0.00699611
-0.00706338
-0.00625817
0.00673986
-0.00750765
-0.00604856
0.00649283
-0.00791693
-0.00584514
0.00625442
-0.00828993
-0.0056498
0.0060228
-0.00863013
-0.00545809
0.00579829
-0.00893881
-0.00527406
0.00558275
-0.00921649
-0.00509513
0.00537281
-0.00946393
-0.00492128
0.00516872
-0.00968388
-0.00475363
0.00497359
-0.00987788
-0.00458897
0.00478296
-0.0100456
-0.00443145
0.00459915
-0.0101883
-0.00427662
0.00441932
-0.010311
-0.00412528
0.00424801
-0.0104134
-0.00397918
0.00408158
-0.0104971
-0.00383652
0.00392022
-0.0105637
-0.00369645
0.00376306
-0.0106128
-0.00356102
0.00361015
-0.0106473
-0.003428
0.00346246
-0.0106682
-0.00329691
0.00331783
-0.0106794
-0.00316607
0.0031772
-0.0106733
-0.00303945
0.00303343
-0.0106576
-0.00291155
0.00289584
-0.0106219
-0.00278782
0.00275208
-0.0105725
-0.0026564
0.00260702
-0.0105
-0.00252971
0.00245726
-0.0104063
-0.00239739
0.00230371
-0.0102853
-0.00226119
0.00214019
-0.0101343
-0.00212136
0.00197034
-0.00995524
-0.00197245
0.00179338
-0.00973945
-0.00181776
0.00160198
-0.00948916
-0.00165306
0.00140278
-0.00920711
-0.00147754
0.0011955
-0.00889356
-0.00128975
0.000976221
-0.00855044
-0.00109194
0.000748817
-0.00818511
-0.000887831
0.000522526
-0.000676343
-0.0079238
0.000415028
-0.00258717
-0.00723957
0.00188938
-0.0032387
-0.00701967
-0.00384998
-0.00680522
-0.00442067
-0.00659849
-0.00495144
-0.0063989
-0.00544374
-0.00620595
-0.00590013
-0.00601915
-0.00631945
-0.00583884
-0.00670488
-0.00566314
-0.00705542
-0.0054946
-0.00737533
-0.00532989
-0.00766389
-0.00516954
-0.00792171
-0.00501624
-0.00815219
-0.00486465
-0.00835301
-0.00472046
-0.00852875
-0.00457789
-0.008678
-0.00443972
-0.00880456
-0.00430488
-0.00890624
-0.00417494
-0.00898571
-0.00404581
-0.00904395
-0.00392094
-0.00908215
-0.00379832
-0.00909949
-0.00367911
-0.00910046
-0.00356005
-0.00908606
-0.00344239
-0.0090542
-0.00332877
-0.00900795
-0.00321232
-0.00894953
-0.00309787
-0.00887672
-0.00298436
-0.00879585
-0.00286869
-0.00870078
-0.00275146
-0.00859658
-0.00263392
-0.0084802
-0.00251376
-0.00835067
-0.00239072
-0.00820785
-0.00226417
-0.00804665
-0.00213365
-0.00786334
-0.00200107
-0.00765568
-0.00186071
-0.00740938
-0.00172383
-0.0071197
-0.00157942
-0.00676955
-0.00144209
-0.00635312
-0.00130425
-0.00117539
-0.00585407
-0.00235309
-0.00661689
0.0017304
-0.00293689
-0.00643587
-0.00348116
-0.00626095
-0.0039874
-0.00609224
-0.00445707
-0.00592923
-0.00489139
-0.00577162
-0.00529222
-0.00561832
-0.00565983
-0.00547124
-0.00599547
-0.00532749
-0.00630196
-0.00518811
-0.00657818
-0.00505367
-0.006824
-0.00492372
-0.0070453
-0.00479494
-0.00723798
-0.00467196
-0.00740649
-0.00455196
-0.00754977
-0.00443461
-0.00766961
-0.00431988
-0.00776702
-0.00420747
-0.00784468
-0.00409728
-0.00789872
-0.00399177
-0.00793409
-0.00388558
-0.00795065
-0.00378176
-0.00795026
-0.0036795
-0.00793239
-0.00357792
-0.00789618
-0.0034786
-0.00784514
-0.00337982
-0.00777824
-0.00327921
-0.00769624
-0.00317987
-0.00760111
-0.00307949
-0.00749187
-0.00297794
-0.00736868
-0.00287465
-0.00723134
-0.00277126
-0.00708177
-0.00266333
-0.00691999
-0.0025525
-0.00674353
-0.00244062
-0.00655168
-0.00232549
-0.00634714
-0.00220561
-0.00612296
-0.00208489
-0.00588228
-0.00196451
-0.00562131
-0.00184039
-0.0053433
-0.0017201
-0.00504086
-0.00160669
-0.00149842
-0.00471783
-0.00214183
-0.00605983
0.00158477
-0.00266129
-0.00591641
-0.00314657
-0.00577568
-0.0035969
-0.00564191
-0.004014
-0.00551212
-0.00439895
-0.00538668
-0.00475152
-0.00526575
-0.00507654
-0.00514622
-0.00537091
-0.00503312
-0.00563809
-0.00492093
-0.00587733
-0.00481443
-0.00609226
-0.00470879
-0.00628077
-0.00460644
-0.00644566
-0.00450707
-0.00658743
-0.00441019
-0.00670807
-0.00431396
-0.00680638
-0.00422158
-0.00688385
-0.00413
-0.00694039
-0.00404073
-0.00698037
-0.00395179
-0.00700121
-0.00386474
-0.00700553
-0.00377744
-0.00699181
-0.00369322
-0.00696172
-0.00360801
-0.00691921
-0.0035211
-0.0068604
-0.00343863
-0.00678841
-0.0033512
-0.0067027
-0.00326558
-0.00660347
-0.00317872
-0.00649272
-0.00308869
-0.00636895
-0.00299841
-0.00623472
-0.00290549
-0.00608756
-0.00281049
-0.0059295
-0.00271056
-0.0057584
-0.00261173
-0.00557601
-0.00250788
-0.00537777
-0.00240385
-0.00516864
-0.00229402
-0.00494629
-0.00218686
-0.0047066
-0.00208009
-0.00445274
-0.00197396
-0.00418746
-0.00187196
-0.00177861
-0.00390727
-0.0019431
-0.00555886
0.00144213
-0.00240923
-0.00545027
-0.0028416
-0.00534331
-0.00324414
-0.00523938
-0.00361429
-0.00514197
-0.00395679
-0.00504417
-0.00427058
-0.00495196
-0.00455628
-0.00486052
-0.00481721
-0.00477219
-0.00505164
-0.00468649
-0.0052625
-0.00460357
-0.00544942
-0.00452186
-0.00561385
-0.00444202
-0.00575529
-0.00436563
-0.00587697
-0.00428851
-0.00597725
-0.00421368
-0.00605912
-0.00413971
-0.00612213
-0.00406699
-0.00616706
-0.0039958
-0.00619593
-0.00392293
-0.0062069
-0.00385377
-0.00620153
-0.00378281
-0.00618366
-0.00371109
-0.00614975
-0.00364192
-0.00610137
-0.00356948
-0.00604224
-0.00349776
-0.00596703
-0.00342641
-0.00588164
-0.00335097
-0.00578531
-0.00327504
-0.00567538
-0.00319862
-0.00555517
-0.00311862
-0.00542349
-0.00303716
-0.00528376
-0.00295022
-0.00512947
-0.00286486
-0.00496731
-0.00277389
-0.00479532
-0.00267986
-0.00461417
-0.002585
-0.00441958
-0.00248862
-0.00421529
-0.00239114
-0.00400314
-0.00229224
-0.00378003
-0.00219707
-0.00354664
-0.00210535
-0.0020191
-0.00330615
-0.00176347
-0.00511094
0.00131555
-0.00218046
-0.00503329
-0.00256882
-0.00495494
-0.00292586
-0.00488234
-0.00325781
-0.00481001
-0.00356253
-0.00473946
-0.00384147
-0.00467302
-0.00409501
-0.00460698
-0.00432601
-0.0045412
-0.00453331
-0.00447919
-0.00471861
-0.00441827
-0.00488359
-0.00435689
-0.00502609
-0.00429951
-0.0051507
-0.00424102
-0.0052564
-0.00418281
-0.00534228
-0.00412779
-0.00541145
-0.00407055
-0.00546249
-0.00401594
-0.00549925
-0.00395905
-0.00551809
-0.00390408
-0.00552372
-0.00384814
-0.00551519
-0.00379134
-0.00549232
-0.00373396
-0.00545714
-0.00367711
-0.00540931
-0.0036173
-0.0053489
-0.00355818
-0.00527777
-0.00349754
-0.00519495
-0.00343378
-0.00510061
-0.00336939
-0.00499814
-0.00330109
-0.0048851
-0.00323167
-0.00476162
-0.00316064
-0.00462806
-0.00308377
-0.00448757
-0.00300535
-0.0043389
-0.00292255
-0.00417879
-0.00283998
-0.00401025
-0.00275354
-0.00383413
-0.00266474
-0.00365022
-0.00257505
-0.00345554
-0.00248693
-0.00325535
-0.00239725
-0.00304728
-0.00231342
-0.00223253
-0.00283385
-0.00159802
-0.00470911
0.00119619
-0.00197382
-0.00465749
-0.00231965
-0.00460911
-0.00264158
-0.00456041
-0.00293809
-0.00451351
-0.00320904
-0.00446851
-0.00345816
-0.0044239
-0.00368487
-0.00438026
-0.00388895
-0.00433713
-0.00407372
-0.00429442
-0.00423842
-0.00425357
-0.00438261
-0.00421269
-0.00450938
-0.00417275
-0.00461843
-0.00413197
-0.00470851
-0.00409273
-0.00478424
-0.00405206
-0.00484243
-0.00401235
-0.00488635
-0.00397203
-0.00491522
-0.00393018
-0.00493082
-0.00388847
-0.00493266
-0.00384631
-0.00492118
-0.00380282
-0.00489658
-0.00375856
-0.00486083
-0.00371285
-0.00481304
-0.0036651
-0.00475572
-0.0036155
-0.00468765
-0.00356561
-0.00461027
-0.00351117
-0.00452388
-0.00345577
-0.00442549
-0.00339949
-0.00431899
-0.00333817
-0.00420595
-0.00327368
-0.00408243
-0.00320729
-0.00395305
-0.00313473
-0.00381208
-0.00306351
-0.00366691
-0.00298515
-0.00351365
-0.00290679
-0.00335325
-0.00282514
-0.0031851
-0.0027432
-0.00301254
-0.00265949
-0.00283112
-0.00257867
-0.00264608
-0.00249846
-0.00242326
-0.00245536
-0.00145051
-0.00434616
0.00108757
-0.00178494
-0.00432307
-0.0020976
-0.00429645
-0.00238471
-0.0042733
-0.00265044
-0.00424778
-0.00289432
-0.00422463
-0.00311693
-0.00420128
-0.00331935
-0.00417785
-0.00350134
-0.00415514
-0.0036642
-0.00413156
-0.00381145
-0.00410632
-0.00394009
-0.00408405
-0.0040512
-0.00406163
-0.00414773
-0.00403544
-0.00422835
-0.00401212
-0.00429359
-0.00398682
-0.00434432
-0.00396162
-0.00438141
-0.00393494
-0.00440511
-0.00390648
-0.00441554
-0.00387804
-0.00441344
-0.00384841
-0.00440143
-0.00381483
-0.00437671
-0.00378328
-0.00434168
-0.00374789
-0.00429706
-0.00370972
-0.0042418
-0.00367075
-0.00417962
-0.00362779
-0.00410684
-0.00358395
-0.00402433
-0.00353828
-0.0039357
-0.00348811
-0.00383745
-0.00343642
-0.00373093
-0.0033802
-0.00361906
-0.00331916
-0.00349792
-0.00325587
-0.0033716
-0.00318983
-0.00323819
-0.00311856
-0.00309847
-0.00304652
-0.0029518
-0.00297181
-0.00280093
-0.00289407
-0.00264408
-0.00281634
-0.00248192
-0.00274084
-0.00231387
-0.0026665
-0.00259315
-0.00214398
-0.0013127
0.000986682
-0.00402014
-0.00161513
-0.00402064
-0.00189535
-0.00401624
-0.00215468
-0.00401396
-0.00239247
-0.00400999
-0.00261124
-0.00400587
-0.00280993
-0.00400259
-0.0029912
-0.00399658
-0.00315534
-0.003991
-0.00330141
-0.0039855
-0.0034309
-0.00397682
-0.00354679
-0.00396816
-0.00364497
-0.00396346
-0.00372988
-0.00395054
-0.00380105
-0.00394094
-0.00385872
-0.00392914
-0.00390436
-0.00391598
-0.00393573
-0.00390356
-0.00395565
-0.00388657
-0.00396325
-0.00387043
-0.0039615
-0.00385016
-0.00394736
-0.00382898
-0.00392483
-0.00380581
-0.00389215
-0.00378056
-0.00384832
-0.00375356
-0.00379763
-0.00372144
-0.00373777
-0.00368765
-0.00366918
-0.00365254
-0.003595
-0.00361246
-0.00351149
-0.00357162
-0.00342148
-0.00352643
-0.0033252
-0.00347648
-0.00322049
-0.00342387
-0.00311096
-0.0033654
-0.00299579
-0.003305
-0.00287276
-0.00324159
-0.00274615
-0.00317313
-0.00261321
-0.00310475
-0.00247509
-0.00303218
-0.00233508
-0.00295635
-0.00218611
-0.00288982
-0.00203579
-0.00281681
-0.00188064
-0.0027483
-0.00678781
-0.000544326
-0.000591665
-0.00599077
-0.000534906
-0.000262141
-0.00534178
-0.000551843
-9.71407e-05
-0.00478353
-0.00057978
2.1524e-05
-0.00429167
-0.000614414
0.000122552
-0.00385054
-0.000653133
0.000212006
-0.00344742
-0.000699046
0.000295928
-0.00307515
-0.000748044
0.000375767
-0.00273152
-0.000797495
0.00045387
-0.00240757
-0.00085267
0.000528715
-0.00210462
-0.000907361
0.000604414
-0.00181973
-0.000963968
0.000679073
-0.00155038
-0.00102394
0.000754603
-0.00129647
-0.00108464
0.000830728
-0.00105729
-0.00114757
0.000908383
-0.000831649
-0.00121129
0.00098565
-0.00062155
-0.00127668
0.00106658
-0.000423507
-0.0013456
0.00114755
-0.000240031
-0.00141463
0.00123116
-6.94259e-05
-0.00148738
0.00131678
8.7227e-05
-0.00156223
0.00140558
0.000229069
-0.00163874
0.00149689
0.0003572
-0.00171831
0.00159018
0.000469269
-0.00180072
0.00168865
0.00056762
-0.00188663
0.00178828
0.000649025
-0.00197483
0.00189343
0.000715005
-0.00206761
0.00200163
0.000762931
-0.00216239
0.00211446
0.00079478
-0.00226272
0.00223087
0.000806583
-0.00236479
0.00235299
0.000800161
-0.00247336
0.00247978
0.000773351
-0.00258408
0.0026109
0.000725929
-0.00270095
0.00274837
0.000655719
-0.00282103
0.00289124
0.000563004
-0.00294699
0.00303971
0.00044598
-0.0030777
0.00319473
0.000303866
-0.00321408
0.0033562
0.000135177
-0.00335493
0.00352362
-6.10486e-05
-0.00350209
0.00369831
-0.000285911
-0.00365535
0.00388021
-0.000541444
-0.00381415
0.00406969
-0.000827764
-0.00398096
0.00426728
-0.00415335
0.00447339
-0.0011478
-0.00531313
-0.00108527
-0.00480989
-0.00103815
-0.0043506
-0.00101113
-0.00392854
-0.00100184
-0.0035397
-0.00100325
-0.00317697
-0.00101587
-0.00284106
-0.00103495
-0.00252747
-0.00106164
-0.00223168
-0.00109328
-0.00195532
-0.00112903
-0.00169441
-0.00116827
-0.00144782
-0.00121056
-0.00121538
-0.00125638
-0.000996636
-0.00130338
-0.000791607
-0.00135259
-0.000597327
-0.00140557
-0.000415322
-0.00145868
-0.000246276
-0.00151464
-8.75835e-05
-0.00157333
5.80496e-05
-0.00163302
0.000190686
-0.00169487
0.000311474
-0.00175953
0.000420301
-0.00182714
0.0005151
-0.00189552
0.000596271
-0.0019678
0.000663332
-0.0020419
0.000715108
-0.00211939
0.000752364
-0.00219964
0.000772497
-0.00228285
0.000777471
-0.00236976
0.000763324
-0.00245921
0.000732554
-0.00255332
0.000681819
-0.00265022
0.000611578
-0.00275079
0.000520318
-0.00285573
0.000407679
-0.00296507
0.00027162
-0.00307802
0.000112394
-0.00319571
-7.17173e-05
-0.00331798
-0.000281747
-0.00344532
-0.000518376
-0.00357753
-0.000784267
-0.00371507
-0.00385899
-0.00107863
-0.00437784
-0.00142526
-0.00403394
-0.00138205
-0.00369612
-0.00134894
-0.00336964
-0.00132832
-0.00305507
-0.00131781
-0.00275364
-0.0013173
-0.00246695
-0.00132164
-0.00219364
-0.00133494
-0.00193441
-0.00135251
-0.00168863
-0.00137481
-0.00145479
-0.00140211
-0.00123367
-0.00143168
-0.00102375
-0.00146631
-0.000825666
-0.00150146
-0.000638311
-0.00153995
-0.000463279
-0.00158061
-0.000298804
-0.00162316
-0.00014575
-0.0016677
-4.09225e-06
-0.00171498
0.000126801
-0.00176391
0.000245949
-0.00181402
0.000353206
-0.00186678
0.000447542
-0.00192148
0.000530197
-0.00197817
0.000600068
-0.00203767
0.000656763
-0.00209859
0.000699846
-0.00216247
0.000728844
-0.00222864
0.000742548
-0.00229655
0.00074111
-0.00236832
0.000724559
-0.00244266
0.000690327
-0.00251908
0.000639595
-0.00259949
0.000570461
-0.00268166
0.00048278
-0.00276805
0.000374536
-0.00285682
0.000246555
-0.00295004
9.7078e-05
-0.00304623
-7.51059e-05
-0.00314579
-0.000270688
-0.00324974
-0.000490498
-0.00335772
-0.000735236
-0.00347033
-0.00358691
-0.00100731
-0.00362324
-0.00170929
-0.00334025
-0.00166503
-0.00306133
-0.00162786
-0.00279037
-0.00159929
-0.00252749
-0.00158069
-0.00227495
-0.00156983
-0.0020319
-0.00156469
-0.00179971
-0.00156714
-0.00157727
-0.00157494
-0.00136451
-0.00158758
-0.00116344
-0.00160318
-0.000970805
-0.00162431
-0.00078958
-0.00164754
-0.000616499
-0.00167454
-0.000454707
-0.00170174
-0.000302109
-0.0017332
-0.000158771
-0.00176649
-2.55398e-05
-0.00180093
9.72157e-05
-0.00183774
0.00020888
-0.00187557
0.000311572
-0.00191671
0.000402681
-0.00195789
0.00048356
-0.00200236
0.00055313
-0.00204774
0.000611096
-0.00209564
0.000657085
-0.00214458
0.000690717
-0.0021961
0.000711541
-0.00224946
0.000719075
-0.00230409
0.000712796
-0.00236204
0.000692152
-0.00242201
0.000655944
-0.00248287
0.000604299
-0.00254784
0.000536496
-0.00261385
0.000451613
-0.00268317
0.000349348
-0.00275456
0.000227627
-0.00282832
8.67187e-05
-0.00290532
-7.39345e-05
-0.00298514
-0.000255831
-0.00306784
-0.000459906
-0.00315364
-0.0006863
-0.00324394
-0.00333637
-0.00093684
-0.00306165
-0.00195379
-0.00282193
-0.00190476
-0.00258576
-0.00186403
-0.00235428
-0.00183076
-0.00212863
-0.00180635
-0.00191099
-0.00178747
-0.00170063
-0.00177505
-0.00149895
-0.00176881
-0.00130487
-0.00176902
-0.0011188
-0.00177365
-0.00094164
-0.00178035
-0.000772443
-0.00179351
-0.00061219
-0.00180779
-0.000462185
-0.00182455
-0.000318147
-0.00184578
-0.000184123
-0.00186723
-5.91783e-05
-0.00189144
5.81506e-05
-0.00191826
0.000165365
-0.00194495
0.000263899
-0.00197411
0.000352779
-0.00200559
0.000432582
-0.0020377
0.000501522
-0.0020713
0.000560906
-0.00210713
0.000609653
-0.00214439
0.000647457
-0.00218238
0.000673914
-0.00222256
0.000688638
-0.00226419
0.000691829
-0.00230728
0.00068166
-0.00235188
0.000658569
-0.00239892
0.000622363
-0.00244667
0.00057134
-0.00249682
0.000505504
-0.00254802
0.000423978
-0.00260164
0.000326247
-0.00265682
0.000211834
-0.00271391
8.02197e-05
-0.00277371
-6.99489e-05
-0.00283497
-0.000238991
-0.0028988
-0.000427435
-0.0029652
-0.000637299
-0.00303407
-0.00310549
-0.000868177
-0.00262075
-0.00216689
-0.00241037
-0.00211514
-0.00220198
-0.00207241
-0.00199917
-0.00203357
-0.00180285
-0.00200267
-0.00161203
-0.00197829
-0.00142728
-0.0019598
-0.001249
-0.00194709
-0.00107844
-0.00193958
-0.000915448
-0.00193664
-0.000758279
-0.00193751
-0.000610127
-0.00194166
-0.000468109
-0.00194981
-0.000333995
-0.00195866
-0.000208098
-0.00197168
-8.95549e-05
-0.00198577
2.07339e-05
-0.00200173
0.000122637
-0.00202016
0.000217747
-0.00204006
0.000303368
-0.00205973
0.000380994
-0.00208322
0.00044964
-0.00210634
0.000509877
-0.00213153
0.000559892
-0.00215714
0.000600947
-0.00218544
0.000631966
-0.0022134
0.000653292
-0.00224388
0.000663106
-0.002274
0.000662472
-0.00230664
0.000650232
-0.00233964
0.000625222
-0.00237391
0.000588644
-0.00241009
0.000538424
-0.0024466
0.000475464
-0.00248506
0.000398204
-0.00252438
0.000306483
-0.0025651
0.000199168
-0.00260659
7.6063e-05
-0.0026506
-6.35834e-05
-0.00269532
-0.000220532
-0.00274185
-0.000395243
-0.00279048
-0.000588483
-0.00284083
-0.00289265
-0.000801324
-0.00226565
-0.00235659
-0.0020759
-0.00230489
-0.00189376
-0.00225455
-0.00171284
-0.00221449
-0.00153885
-0.00217666
-0.00136895
-0.00214819
-0.00120662
-0.00212212
-0.00104875
-0.00210496
-0.000897538
-0.00209079
-0.000751949
-0.00208223
-0.000613653
-0.00207581
-0.000481411
-0.0020739
-0.000356504
-0.00207471
-0.000237052
-0.00207811
-0.00012494
-0.00208379
-2.0201e-05
-0.00209051
7.77858e-05
-0.00209971
0.00016808
-0.00211046
0.00025066
-0.00212264
0.000326999
-0.00213607
0.000394514
-0.00215073
0.00045463
-0.00216646
0.000506349
-0.00218325
0.000550874
-0.00220167
0.000584994
-0.00221956
0.000611355
-0.00223976
0.000627362
-0.00225989
0.000634042
-0.00228068
0.000630488
-0.00230309
0.000616432
-0.00232558
0.000591505
-0.00234899
0.000555118
-0.0023737
0.000507586
-0.00239906
0.000447664
-0.00242514
0.000374064
-0.00245078
0.000287291
-0.00247833
0.000187435
-0.00250674
7.2615e-05
-0.00253578
-5.70699e-05
-0.00256564
-0.000202183
-0.00259674
-0.000363929
-0.00262874
-0.000542323
-0.00266244
-0.002697
-0.000737981
-0.00197106
-0.00252951
-0.00180409
-0.00247187
-0.00163889
-0.00241975
-0.00147989
-0.00237349
-0.00132347
-0.00233308
-0.00117309
-0.00229858
-0.00102656
-0.00226865
-0.000887069
-0.00224446
-0.000751373
-0.00222649
-0.000621617
-0.00221198
-0.000497324
-0.0022001
-0.000378962
-0.00219226
-0.000267156
-0.00218652
-0.000161964
-0.00218331
-6.34142e-05
-0.00218234
3.10094e-05
-0.00218493
0.000117521
-0.00218623
0.000197911
-0.00219085
0.000271263
-0.002196
0.000338273
-0.00220308
0.000397995
-0.00221045
0.000451003
-0.00221946
0.000497022
-0.00222927
0.000533452
-0.0022381
0.000564043
-0.00225015
0.000585343
-0.00226106
0.000597587
-0.00227213
0.000602185
-0.00228528
0.000596553
-0.00229746
0.000581506
-0.00231053
0.000557034
-0.00232451
0.000522283
-0.00233895
0.000476335
-0.00235312
0.00041906
-0.00236786
0.000349908
-0.00238163
0.000269467
-0.00239789
0.000176108
-0.00241338
6.92612e-05
-0.00242894
-5.09934e-05
-0.00244538
-0.000185269
-0.00246246
-0.000333634
-0.00248037
-0.000498081
-0.00249799
-0.00251671
-0.000678363
-0.00172826
-0.00268188
-0.00157846
-0.00262168
-0.00143087
-0.00256733
-0.00128726
-0.0025171
-0.00114561
-0.00247473
-0.00101108
-0.00243311
-0.000881387
-0.00239833
-0.000755222
-0.00237062
-0.000635924
-0.00234578
-0.000518304
-0.00232961
-0.000407434
-0.00231097
-0.000302232
-0.00229747
-0.000201928
-0.00228682
-0.000107304
-0.00227793
-1.71816e-05
-0.00227246
6.51823e-05
-0.0022673
0.000142827
-0.00226387
0.000214912
-0.00226293
0.000280591
-0.00226168
0.000339764
-0.00226225
0.000394077
-0.00226476
0.000440534
-0.00226592
0.000480398
-0.00226914
0.000513543
-0.00227124
0.000538727
-0.00227534
0.000556708
-0.00227904
0.000566468
-0.00228189
0.00056832
-0.00228713
0.000561749
-0.00229089
0.000546916
-0.0022957
0.000523582
-0.00230118
0.000489555
-0.00230493
0.00044625
-0.00230981
0.000391859
-0.00231347
0.000327051
-0.00231682
0.000252115
-0.00232295
0.000165298
-0.00232656
6.66336e-05
-0.00233027
-4.4643e-05
-0.00233411
-0.000168488
-0.00233862
-0.000305382
-0.00234348
-0.000456266
-0.00234711
-0.000621367
-0.00235161
-0.000256355
0.00363445
-0.00398302
0.000604926
5.05874e-05
0.00341747
-0.00372441
0.000320257
0.00321224
-0.00348191
0.000555305
0.00301887
-0.00325392
0.000758412
0.00283647
-0.00303958
0.000932349
0.00266518
-0.00283912
0.00107972
0.00250375
-0.00265113
0.00120252
0.00235175
-0.00247455
0.00130317
0.00220849
-0.00230915
0.00138389
0.0020736
-0.00215432
0.0014462
0.00194689
-0.0020092
0.00149236
0.00182728
-0.00187344
0.00152314
0.00171534
-0.00174612
0.00154113
0.00160932
-0.00162731
0.00154658
0.00151017
-0.00151563
0.00154181
0.00141629
-0.00141152
0.00152785
0.00132788
-0.00131392
0.0015053
0.00124534
-0.00122279
0.00147557
0.00116709
-0.00113736
0.00143947
0.00109373
-0.00105763
0.00139819
0.00102416
-0.000982882
0.00135211
0.000959226
-0.00091314
0.0013024
0.000897536
-0.000847828
0.00124937
0.000839456
-0.000786429
0.00119386
0.000785018
-0.000729509
0.00113641
0.000733219
-0.000675762
0.00107758
0.000684538
-0.000625714
0.00101813
0.000638119
-0.000578669
0.000958054
0.00059453
-0.000534452
0.000898175
0.000553062
-0.000493184
0.00083887
0.000513711
-0.000454405
0.000780599
0.000476246
-0.000417976
0.000723884
0.000440425
-0.00038371
0.000669095
0.000406347
-0.000351558
0.000616338
0.000373921
-0.000321164
0.00056592
0.000343007
-0.00029259
0.00051829
0.000313412
-0.000265782
0.000471838
0.000286344
-0.000239892
0.0004248
0.000263326
-0.000216289
0.000368286
0.000250428
-0.000193916
0.000280229
0.000265592
-0.000177535
9.87607e-05
0.000360875
-0.000179408
0.000687629
-0.000359975
-0.000228893
-0.000228081
0.00332374
0.000538788
4.83076e-05
0.00314108
0.00029185
0.0029687
0.000505441
0.00280528
0.000690613
0.0026513
0.000850323
0.00250548
0.000986527
0.00236755
0.0011008
0.00223748
0.00119557
0.00211372
0.00127166
0.00199751
0.00133149
0.00188706
0.00137619
0.00178258
0.00140751
0.00168402
0.00142607
0.00159076
0.00143414
0.00150211
0.00143181
0.00141862
0.00142047
0.00133923
0.00140157
0.00126424
0.00137557
0.00119309
0.00134385
0.00112545
0.00130623
0.00106178
0.00126461
0.00100085
0.00121867
0.00094347
0.00116979
0.000888334
0.00111831
0.000836496
0.00106486
0.000786678
0.00101002
0.000739375
0.000954036
0.000694103
0.000897482
0.000651083
0.00084099
0.000609554
0.000785073
0.000569628
0.000729479
0.00053184
0.000675208
0.000494696
0.00062202
0.000459535
0.000570185
0.000425756
0.000519641
0.00039355
0.000469172
0.000363881
0.000415789
0.000339727
0.000353422
0.000325692
0.000267635
0.000336215
0.000130827
0.000402399
-0.000103142
0.000594844
0.00103864
-0.000454157
-0.000203996
0.00304388
0.000483851
4.47565e-05
0.00289233
0.0002648
0.00274865
0.000457703
0.00261237
0.000626354
0.00248265
0.00077184
0.00235999
0.000896262
0.00224312
0.00100165
0.0021321
0.00108849
0.00202688
0.00115944
0.00192657
0.00121541
0.00183109
0.00125756
0.00174044
0.00128734
0.00165424
0.00130571
0.00157239
0.00131397
0.00149385
0.00131317
0.00141942
0.001304
0.00134839
0.00128765
0.00128059
0.00126464
0.0012161
0.00123572
0.00115437
0.00120223
0.00109527
0.00116402
0.00103905
0.00112253
0.000984954
0.00107769
0.000933174
0.00103054
0.000883646
0.000981162
0.000836061
0.000930452
0.000790084
0.0008786
0.000745955
0.00082618
0.000703503
0.000773511
0.000662223
0.000720967
0.000622172
0.000668859
0.000583948
0.000617295
0.00054626
0.000566342
0.000510488
0.000515868
0.000476229
0.000464682
0.000444736
0.000411155
0.000417408
0.000351093
0.000399789
0.000276308
0.000400477
0.000171763
0.00044076
1.5851e-05
0.000558311
-0.000218538
0.000829232
0.00133314
-0.000513038
-0.000183653
0.00279186
0.000435675
4.06435e-05
0.00266803
0.000239219
0.00255008
0.000414377
0.00243722
0.000567347
0.00232968
0.000700102
0.00222723
0.000813771
0.00212945
0.0009101
0.00203577
0.000990391
0.00194659
0.00105606
0.00186089
0.00110812
0.00177903
0.00114785
0.00170071
0.00117612
0.00162596
0.00119465
0.00155387
0.00120304
0.00148545
0.00120324
0.00141922
0.00119575
0.00135588
0.00118131
0.00129504
0.0011608
0.00123661
0.00113517
0.00118
0.00110448
0.00112596
0.0010699
0.00107364
0.0010317
0.00102316
0.000990395
0.000974475
0.000947015
0.000927025
0.000901524
0.000881552
0.000854595
0.000837013
0.000806394
0.000794156
0.000757697
0.0007522
0.000708682
0.000711237
0.0006593
0.000671554
0.000610404
0.000632844
0.000561204
0.000595459
0.000512394
0.000559298
0.000463239
0.000525384
0.000412278
0.000495697
0.000357014
0.000472672
0.00029332
0.000463482
0.00021228
0.000481517
0.000102678
0.000550361
-5.33403e-05
0.000714329
-0.000272806
0.0010487
0.00159512
-0.000534782
-0.000165096
0.00256628
0.000390683
3.67596e-05
0.00246617
0.0002164
0.00237044
0.000374926
0.00227869
0.000513849
0.00219076
0.00063484
0.00210624
0.00073875
0.00202554
0.000827446
0.00194707
0.000901329
0.0018727
0.000962164
0.00180006
0.00101047
0.00173072
0.00104765
0.00166354
0.00107445
0.00159916
0.00109185
0.00153646
0.00110064
0.00147667
0.00110155
0.0014183
0.00109509
0.00136235
0.00108251
0.00130761
0.00106443
0.00125469
0.00104072
0.00120371
0.00101294
0.00115373
0.000981367
0.00110522
0.000946329
0.00105819
0.000908816
0.00101199
0.000868474
0.000967367
0.000826642
0.000923384
0.000783032
0.000880623
0.000738568
0.00083862
0.0006934
0.000797368
0.000647698
0.000756939
0.000601752
0.000717499
0.000555791
0.000678805
0.000509531
0.000641719
0.000462936
0.000605893
0.000415053
0.000573268
0.000364969
0.000545781
0.000310251
0.000527389
0.000245548
0.000528185
0.000164012
0.000563052
5.52327e-05
0.00065914
-9.50749e-05
0.000864637
-0.000296963
0.00125058
0.00183335
-0.000535194
-0.000149817
0.00236232
0.00035377
3.28622e-05
0.0022835
0.000195443
0.00220786
0.000339363
0.00213477
0.000465937
0.00206418
0.000575873
0.00199631
0.000671006
0.00193041
0.000751665
0.00186641
0.000819922
0.00180445
0.000875642
0.00174434
0.000920662
0.0016857
0.000955031
0.00162917
0.000980638
0.00157355
0.000997023
0.00152008
0.00100577
0.00146793
0.00100691
0.00141716
0.00100186
0.0013674
0.000990435
0.00131904
0.000973955
0.00127117
0.000953158
0.00122451
0.000927769
0.00117912
0.000898779
0.00113421
0.000866636
0.00109034
0.000831685
0.00104694
0.000794976
0.00100408
0.000755936
0.000962424
0.000715939
0.00092062
0.000674957
0.000879602
0.000633198
0.000839127
0.000590998
0.000799139
0.000548555
0.000759942
0.000505449
0.00072191
0.000462488
0.00068468
0.000418046
0.000650335
0.000372165
0.000619148
0.000323942
0.000594004
0.000269663
0.000581669
0.000206236
0.000591611
0.000126933
0.000642355
2.14805e-05
0.000764593
-0.000119237
0.00100535
-0.000305262
0.00143661
0.00205216
-0.00052407
-0.000135559
0.00217843
0.000319452
2.90515e-05
0.00211888
0.000176366
0.00206054
0.000307095
0.00200404
0.000421903
0.00194938
0.00052233
0.00189588
0.000609433
0.00184331
0.000683555
0.00179229
0.000745828
0.00174217
0.000797112
0.00169305
0.000838178
0.00164464
0.00087041
0.00159693
0.00089396
0.00155
0.000909707
0.00150433
0.000918237
0.0014594
0.000920003
0.00141539
0.000915606
0.0013718
0.00090585
0.00132879
0.000890898
0.00128612
0.000871529
0.00124388
0.000848588
0.00120206
0.000822065
0.00116073
0.00079261
0.00111979
0.000760709
0.00107884
0.000726753
0.00103803
0.000691141
0.000998036
0.000653903
0.000957858
0.000615759
0.000917747
0.000577285
0.0008776
0.000538343
0.000838082
0.000499264
0.000799021
0.000459992
0.000761182
0.000419957
0.000724714
0.000378795
0.000691497
0.000335636
0.000662307
0.000289011
0.000640629
0.000237347
0.000633332
0.000177039
0.000651919
0.000101149
0.000718244
9.75049e-07
0.000864766
-0.00013276
0.00113909
-0.000305372
0.00160922
0.00225373
-0.000506942
-0.000122711
0.00201333
0.000287809
2.63129e-05
0.00196986
0.000159063
0.00192779
0.000277647
0.00188546
0.000382298
0.00184472
0.000473997
0.00180418
0.000553075
0.00176423
0.000620818
0.00172455
0.000678193
0.0016848
0.000725155
0.00164609
0.000763407
0.00160638
0.000792581
0.00156776
0.000814252
0.00152833
0.000829301
0.00148928
0.000837542
0.00145115
0.000839673
0.00141326
0.000835841
0.00137563
0.000826691
0.00133794
0.000812812
0.0013
0.000795824
0.00126087
0.000775144
0.00122275
0.000750955
0.00118492
0.00072346
0.00114729
0.000694293
0.00110801
0.000663129
0.0010692
0.000630339
0.00103083
0.000596327
0.00099187
0.000560854
0.00095322
0.000525394
0.00091306
0.000489701
0.000873775
0.000453708
0.000835014
0.00041768
0.00079721
0.000380787
0.000761607
0.000343034
0.00072925
0.000302102
0.000703239
0.000258031
0.0006847
0.000208555
0.000682808
0.000151581
0.000708893
8.11746e-05
0.000788651
-1.27387e-05
0.00095868
-0.00013911
0.00126546
-0.00029873
0.00176884
0.00243598
-0.00048098
-0.000111302
0.000260634
0.001864
2.30775e-05
0.00183548
0.000144028
0.00180684
0.000251652
0.00177783
0.000346986
0.00174939
0.000429856
0.00172131
0.000502568
0.00169152
0.000563724
0.00166339
0.000616807
0.00163172
0.000659971
0.00160293
0.000695424
0.00157093
0.000722111
0.00154107
0.000742766
0.00150768
0.000756896
0.00147515
0.000765124
0.00144293
0.000767893
0.00141049
0.000765288
0.00137824
0.0007572
0.00134603
0.000744116
0.00131308
0.000727862
0.00127712
0.000708847
0.00124176
0.000687239
0.00120653
0.000661811
0.00117271
0.000634806
0.00113501
0.00060633
0.00109767
0.000576277
0.00106088
0.000544584
0.00102356
0.000511833
0.00098597
0.000478271
0.000946623
0.000445514
0.000906532
0.000413032
0.000867495
0.000380041
0.000830202
0.000347309
0.000794339
0.000313305
0.000763253
0.000274937
0.000741608
0.00023374
0.000725897
0.000186284
0.000730264
0.000132554
0.000762623
7.08284e-05
0.000850376
-1.94504e-05
0.00104896
-0.000142678
0.00138869
-0.000297911
0.00192407
-0.000464295
0.00260236
-0.000638167