/*--------------------------------*- C++ -*----------------------------------*\
| =========                 |                                                 |
| \\      /  F ield         | OpenFOAM: The Open Source CFD Toolbox           |
|  \\    /   O peration     | Version:  2.3.0                                 |
|   \\  /    A nd           | Web:      www.OpenFOAM.org                      |
|    \\/     M anipulation  |                                                 |
\*---------------------------------------------------------------------------*/
FoamFile
{
    version     2.0;
    format      ascii;
    class       volVectorField;
    location    "2000";
    object      U;
}
// * * * * * * * * * * * * * * * * * * * * * * * * * * * * * * * * * * * * * //

dimensions      [0 1 -1 0 0 0 0];

internalField   nonuniform List<vector> 
38111
(
(25.3247 9.16127 -2.41572e-21)
(25.3577 9.40359 -9.29211e-22)
(25.384 9.66733 -8.30225e-21)
(25.4066 9.93675 -2.37064e-20)
(25.4249 10.2134 1.16929e-20)
(25.4384 10.4975 -5.6844e-21)
(25.4468 10.7892 4.30149e-20)
(25.4495 11.089 -3.63486e-20)
(25.446 11.397 6.69782e-21)
(25.4357 11.7138 -1.25056e-19)
(25.4181 12.0397 1.24114e-19)
(25.3927 12.3753 0)
(25.3589 12.7211 -1.50467e-19)
(25.3163 13.0778 3.24264e-19)
(25.264 13.4462 -1.71221e-19)
(25.2016 13.8271 -1.56608e-20)
(25.1282 14.2216 0)
(25.0431 14.6307 -2.33411e-19)
(24.9453 15.0557 2.47472e-19)
(24.8336 15.4979 1.35102e-20)
(24.7071 15.959 2.31391e-20)
(24.5645 16.4405 3.09844e-19)
(24.404 16.9439 -3.31707e-19)
(24.2239 17.4708 0)
(24.0217 18.0224 6.55105e-21)
(23.7945 18.5993 0)
(23.5379 19.201 4.58564e-19)
(23.2465 19.8259 -5.04978e-19)
(22.9124 20.4712 1.20999e-20)
(22.5262 21.1312 5.854e-19)
(22.0743 21.7983 -5.52042e-19)
(21.5413 22.4617 0)
(20.9089 23.1085 -3.12839e-20)
(20.1539 23.7218 1.46431e-20)
(19.2479 24.2825 -3.69171e-19)
(18.1571 24.7685 7.59515e-19)
(16.8422 25.1556 -3.751e-19)
(15.259 25.4178 -2.22836e-19)
(13.3572 25.5048 7.85288e-20)
(11.0866 25.3523 6.76451e-20)
(8.40972 24.9902 0)
(5.31267 24.5618 2.03418e-20)
(1.91912 23.6567 7.70008e-21)
(25.0578 9.19101 -2.10763e-21)
(25.07 9.41355 2.7009e-22)
(25.0773 9.65256 -3.11193e-21)
(25.081 9.89617 -2.88653e-21)
(25.0803 10.1454 0)
(25.0747 10.4004 -1.06291e-20)
(25.0639 10.6614 1.62181e-20)
(25.0474 10.9288 8.61502e-21)
(25.0247 11.2026 1.00171e-20)
(24.9953 11.483 0)
(24.9586 11.7704 8.06224e-20)
(24.9139 12.0648 -7.2725e-20)
(24.8607 12.3668 -1.14714e-19)
(24.7982 12.6765 2.20261e-19)
(24.7258 12.9943 -1.17513e-19)
(24.6428 13.3206 -5.61411e-21)
(24.5481 13.6556 1.369e-19)
(24.4407 13.9997 -1.49447e-19)
(24.3195 14.3532 0)
(24.1829 14.7167 -1.35444e-20)
(24.0294 15.0904 8.05034e-21)
(23.8571 15.475 1.55237e-20)
(23.6639 15.871 0)
(23.4474 16.279 0)
(23.2046 16.6995 9.43852e-21)
(22.9327 17.1332 0)
(22.6277 17.5803 -2.41594e-19)
(22.2853 18.0405 8.97668e-21)
(21.9014 18.5137 5.10742e-19)
(21.4704 18.9979 -1.38307e-19)
(20.986 19.4898 -2.73054e-19)
(20.4416 19.9844 1.44177e-19)
(19.8306 20.475 1.41567e-20)
(19.1456 20.9508 -1.44185e-20)
(18.3801 21.3978 9.24838e-20)
(17.5289 21.7967 -5.82579e-20)
(16.5901 22.1234 -3.31564e-20)
(15.5655 22.3469 0)
(14.4631 22.4288 1.1482e-20)
(13.3032 22.323 0)
(12.1219 21.9814 0)
(10.9526 21.347 -1.1349e-19)
(9.80373 20.3544 1.1037e-19)
(24.8185 9.20516 -2.08747e-21)
(24.8176 9.40785 -9.52777e-21)
(24.8118 9.6242 3.52764e-21)
(24.8024 9.84451 -3.68768e-21)
(24.7887 10.0693 7.87473e-21)
(24.7701 10.2988 6.52205e-23)
(24.7461 10.533 1.9696e-21)
(24.7164 10.7724 -3.21085e-21)
(24.6806 11.0169 0)
(24.6383 11.2668 0)
(24.5889 11.5221 0)
(24.5316 11.783 -7.4212e-21)
(24.4658 12.0497 -4.55775e-20)
(24.3908 12.3225 4.07492e-20)
(24.306 12.6016 5.97268e-20)
(24.2108 12.8873 -5.44336e-20)
(24.1043 13.1798 -7.18505e-20)
(23.9856 13.4793 1.47384e-19)
(23.8538 13.7857 -1.55536e-19)
(23.7078 14.0994 1.65899e-19)
(23.5461 14.4201 -9.08482e-20)
(23.3672 14.7478 -9.36929e-20)
(23.1694 15.0824 9.53158e-20)
(22.9507 15.4232 -1.00062e-19)
(22.7085 15.7698 -3.46168e-21)
(22.4401 16.1214 1.04451e-19)
(22.1423 16.4769 -3.6897e-21)
(21.8115 16.8344 -1.53223e-21)
(21.444 17.1923 6.87877e-21)
(21.0356 17.5476 -4.38569e-20)
(20.5816 17.8962 8.10143e-20)
(20.0775 18.2335 -1.53928e-20)
(19.5185 18.553 -4.46704e-20)
(18.9002 18.8463 1.63668e-20)
(18.2192 19.1034 1.06801e-20)
(17.4733 19.3123 -4.53613e-21)
(16.6629 19.4586 -7.225e-21)
(15.7922 19.5258 4.07592e-20)
(14.8705 19.4973 -3.86054e-20)
(13.9142 19.3566 0)
(12.9499 19.0894 -3.76472e-20)
(12.0138 18.6851 3.83525e-20)
(11.1576 18.1368 2.86809e-20)
(24.6048 9.20449 0)
(24.594 9.38918 1.63094e-20)
(24.5782 9.58495 -1.56767e-20)
(24.5592 9.78439 1.40924e-20)
(24.5364 9.98758 -1.1976e-20)
(24.509 10.1945 -9.55259e-21)
(24.4764 10.4054 1.46611e-20)
(24.4383 10.6206 -1.83988e-20)
(24.3945 10.8402 -6.64659e-21)
(24.3447 11.0642 6.86213e-21)
(24.2883 11.2927 -3.76613e-21)
(24.2246 11.5258 3.74232e-21)
(24.1529 11.7635 -7.70698e-22)
(24.0724 12.006 7.68768e-22)
(23.9825 12.2534 -2.68396e-21)
(23.8823 12.5059 2.19632e-21)
(23.7712 12.7638 -5.42389e-21)
(23.6484 13.027 1.44206e-20)
(23.513 13.2956 -9.57508e-21)
(23.364 13.5697 -2.38923e-22)
(23.2001 13.8491 -3.41112e-21)
(23.0199 14.1336 2.91329e-22)
(22.8223 14.4229 0)
(22.6056 14.7166 0)
(22.368 15.0139 -4.67044e-21)
(22.1076 15.3139 8.59795e-21)
(21.8217 15.615 -3.68121e-21)
(21.5077 15.9156 5.99552e-21)
(21.163 16.2136 3.44433e-22)
(20.7848 16.5062 3.13772e-21)
(20.3704 16.7899 3.01453e-20)
(19.9175 17.0602 -3.0926e-20)
(19.4235 17.3115 3.11163e-20)
(18.8866 17.5364 9.95684e-21)
(18.3061 17.727 -4.34941e-20)
(17.6827 17.8741 -6.73068e-20)
(17.0191 17.9665 8.108e-20)
(16.321 17.9924 -6.61916e-20)
(15.5978 17.9407 2.34872e-20)
(14.8627 17.8009 4.06668e-20)
(14.1334 17.5648 1.9309e-20)
(13.4315 17.2302 8.92604e-20)
(12.7823 16.8022 -1.44636e-19)
(24.4162 9.19092 -1.08093e-21)
(24.3963 9.3611 -1.01848e-22)
(24.3733 9.53899 2.30515e-20)
(24.3478 9.72004 0)
(24.319 9.90423 0)
(24.2861 10.0915 2.24076e-20)
(24.2481 10.282 -1.56187e-20)
(24.2048 10.4762 9.37745e-22)
(24.156 10.6743 -6.32633e-21)
(24.1016 10.8765 5.79262e-21)
(24.0413 11.0826 -3.58782e-21)
(23.9745 11.2925 0)
(23.9001 11.5062 0)
(23.8177 11.7241 0)
(23.7265 11.946 7.99708e-22)
(23.6253 12.172 1.43314e-20)
(23.5138 12.4023 -6.32311e-22)
(23.3911 12.637 -3.75893e-22)
(23.2566 12.8761 -2.39424e-20)
(23.1093 13.1194 1.39252e-20)
(22.9481 13.3666 1.16681e-20)
(22.7717 13.6176 -1.53173e-20)
(22.5786 13.8719 3.59017e-21)
(22.368 14.1293 -2.06603e-20)
(22.1384 14.3888 2.55065e-20)
(21.8882 14.6493 0)
(21.6154 14.9094 -3.40603e-20)
(21.3175 15.1669 2.59511e-20)
(20.9922 15.4199 5.95359e-21)
(20.6372 15.6657 -2.22534e-21)
(20.2505 15.9013 0)
(19.8308 16.1228 3.20118e-20)
(19.3765 16.3252 -5.3119e-20)
(18.8871 16.5025 0)
(18.3626 16.6484 0)
(17.8044 16.755 8.41889e-20)
(17.2159 16.8144 -8.24333e-20)
(16.6026 16.8184 0)
(15.9732 16.7593 0)
(15.3388 16.6307 1.6386e-20)
(14.7139 16.4283 -1.9328e-20)
(14.1145 16.1521 -5.80843e-20)
(13.5577 15.8076 5.8971e-20)
(24.2466 9.17495 -2.0778e-21)
(24.2207 9.32897 -1.39447e-20)
(24.193 9.49034 -1.63001e-20)
(24.1634 9.65472 6.2419e-21)
(24.1307 9.82219 0)
(24.0947 9.99234 2.18736e-20)
(24.0538 10.1652 -2.16318e-20)
(24.0076 10.3413 4.32606e-21)
(23.9558 10.521 -1.4959e-21)
(23.8988 10.7046 -4.02644e-20)
(23.8367 10.892 3.98091e-20)
(23.7687 11.0826 -3.39146e-20)
(23.6936 11.2766 2.88228e-20)
(23.6111 11.4744 0)
(23.5208 11.6757 0)
(23.4211 11.8802 4.86662e-21)
(23.3112 12.0885 -4.89583e-21)
(23.1906 12.3003 0)
(23.0587 12.516 -2.94923e-21)
(22.9148 12.7351 0)
(22.7581 12.9575 3.17294e-21)
(22.5871 13.1828 3.83129e-20)
(22.4004 13.4104 -4.26454e-20)
(22.1967 13.6401 0)
(21.9753 13.8714 4.52062e-20)
(21.7356 14.1031 -9.82291e-20)
(21.476 14.3339 -1.43325e-20)
(21.1948 14.5617 7.05435e-20)
(20.8893 14.7839 3.27765e-21)
(20.5574 14.9981 0)
(20.1972 15.2016 -5.35367e-20)
(19.808 15.3916 6.768e-20)
(19.3897 15.5635 7.39903e-21)
(18.9419 15.7121 -8.34895e-20)
(18.4653 15.8318 1.82927e-19)
(17.9615 15.9163 -9.98076e-20)
(17.4336 15.959 5.0611e-20)
(16.8865 15.9536 -6.66305e-20)
(16.3275 15.8946 4.15839e-20)
(15.7662 15.7775 -2.2056e-20)
(15.2143 15.5994 5.14259e-20)
(14.6831 15.3607 -2.9196e-20)
(14.1854 15.0663 0)
(24.0917 9.15327 2.53374e-21)
(24.0651 9.29398 5.90628e-21)
(24.0347 9.44066 5.57165e-21)
(24.0025 9.59036 -7.4237e-21)
(23.967 9.74302 2.1688e-20)
(23.9296 9.89855 5.8644e-21)
(23.8874 10.0561 -3.41906e-20)
(23.84 10.2168 -7.08202e-21)
(23.7868 10.3807 1.25248e-20)
(23.7284 10.5484 -2.42046e-20)
(23.6654 10.72 2.40544e-20)
(23.5978 10.8948 6.53259e-21)
(23.5233 11.0721 -1.43023e-21)
(23.4408 11.2534 -6.42924e-21)
(23.3525 11.4383 -6.46877e-21)
(23.2553 11.6255 -4.93039e-21)
(23.1485 11.816 4.96209e-21)
(23.0314 12.0096 0)
(22.9026 12.2062 0)
(22.7626 12.4062 4.40232e-20)
(22.6107 12.6089 -5.18737e-20)
(22.4456 12.814 -7.85782e-21)
(22.2662 13.0211 0)
(22.0702 13.229 0)
(21.8559 13.4379 0)
(21.6247 13.6474 -5.67947e-20)
(21.3754 13.8557 4.82285e-20)
(21.1074 14.0611 4.68744e-20)
(20.8186 14.2608 -5.92494e-20)
(20.5063 14.4522 -5.86705e-20)
(20.1674 14.6322 6.03462e-20)
(19.801 14.7991 -7.47503e-20)
(19.409 14.9495 -2.92265e-20)
(18.9916 15.0782 8.7259e-20)
(18.5497 15.1805 0)
(18.0848 15.2513 0)
(17.6 15.2847 -7.04111e-20)
(17.0984 15.2751 1.12073e-19)
(16.5872 15.2182 -8.23104e-20)
(16.0744 15.1115 -4.86905e-20)
(15.5727 14.9525 -5.39359e-20)
(15.0872 14.7406 -2.02316e-21)
(14.6292 14.4809 0)
(23.9551 9.12939 1.31174e-20)
(23.9276 9.25818 1.38286e-20)
(23.8956 9.39159 -5.65655e-22)
(23.863 9.52828 8.18833e-21)
(23.8246 9.66718 -2.41739e-20)
(23.7868 9.81079 3.19367e-20)
(23.7439 9.95493 -8.47291e-21)
(23.6967 10.1029 7.12657e-21)
(23.6431 10.2533 -1.50264e-20)
(23.5841 10.4076 0)
(23.5201 10.5659 7.84546e-21)
(23.454 10.7275 -6.58686e-21)
(23.3835 10.8905 6.52902e-21)
(23.2996 11.0567 6.49101e-21)
(23.2132 11.2292 1.42758e-20)
(23.1188 11.4026 3.70992e-20)
(23.015 11.579 -2.94389e-20)
(22.9026 11.7584 -3.0474e-20)
(22.7777 11.9393 3.91185e-20)
(22.6417 12.1235 7.23007e-21)
(22.4943 12.3102 0)
(22.334 12.4993 7.9426e-21)
(22.1611 12.6908 9.94615e-21)
(21.9747 12.8825 -5.11226e-20)
(21.7678 13.0728 9.1462e-21)
(21.5444 13.2646 4.2734e-20)
(21.303 13.4552 -5.10318e-20)
(21.045 13.6435 5.22655e-20)
(20.7693 13.8265 7.71522e-20)
(20.474 14.0014 -6.32503e-20)
(20.1556 14.1641 0)
(19.8077 14.3132 0)
(19.4367 14.4487 2.14119e-20)
(19.0429 14.5634 5.28288e-20)
(18.6278 14.6534 -5.42825e-20)
(18.1918 14.7151 3.26394e-20)
(17.7406 14.7429 0)
(17.274 14.7316 0)
(16.7992 14.6781 0)
(16.3177 14.581 4.8141e-20)
(15.8561 14.4373 -5.49372e-20)
(15.4032 14.243 5.84964e-20)
(14.9739 14.0078 0)
(23.8276 9.10047 0)
(23.8047 9.22272 3.16383e-21)
(23.7704 9.34453 1.13521e-20)
(23.7404 9.46999 4.64429e-21)
(23.6997 9.59342 3.08743e-22)
(23.6636 9.72968 -8.74297e-21)
(23.6209 9.86107 9.41395e-21)
(23.5745 9.99934 0)
(23.5211 10.1385 8.19859e-21)
(23.4622 10.2819 9.08527e-21)
(23.396 10.4291 2.55732e-20)
(23.3266 10.5792 -3.29562e-20)
(23.2655 10.7328 9.44347e-21)
(23.1826 10.8813 0)
(23.099 11.045 -1.69413e-20)
(23.0101 11.2091 -8.01618e-21)
(22.9084 11.3729 0)
(22.8022 11.5439 9.63189e-21)
(22.6828 11.7124 -8.57638e-21)
(22.5523 11.8844 1.0194e-20)
(22.4116 12.0578 3.94148e-20)
(22.2572 12.2316 -8.14617e-20)
(22.0839 12.4087 2.04054e-20)
(21.9083 12.5933 5.72147e-20)
(21.7108 12.7672 -4.59385e-20)
(21.4973 12.9446 -4.06821e-20)
(21.2637 13.1209 -2.91152e-21)
(21.0144 13.2951 7.48038e-20)
(20.7475 13.4638 -8.40595e-20)
(20.461 13.6255 6.99532e-20)
(20.1642 13.7787 0)
(19.8322 13.9109 -4.54743e-20)
(19.4774 14.0357 7.19105e-20)
(19.1005 14.1402 0)
(18.7051 14.2189 6.28557e-20)
(18.2825 14.2724 -6.33109e-20)
(17.8542 14.2978 0)
(17.4103 14.2859 4.19299e-20)
(16.9716 14.2351 0)
(16.5002 14.148 0)
(16.059 14.0177 -5.37932e-22)
(15.6213 13.8315 0)
(15.2158 13.6151 0)
(-0.926729 20.9382 0)
(-0.142729 18.5267 7.95091e-19)
(0.7704 16.7108 -1.70286e-18)
(1.61988 15.2909 9.07806e-19)
(2.40057 14.1438 0)
(3.1323 13.2011 0)
(3.81902 12.4124 -2.09601e-18)
(4.45976 11.7443 -5.80215e-20)
(5.0554 11.1718 1.99645e-18)
(5.60821 10.6779 -3.71795e-20)
(6.11933 10.2459 -3.54438e-20)
(6.59204 9.86502 -1.91869e-18)
(7.02908 9.52574 1.91569e-18)
(7.43328 9.22051 1.18532e-19)
(7.80766 8.94352 0)
(8.15516 8.69065 -1.59342e-18)
(8.47837 8.45768 5.02526e-18)
(8.77998 8.24197 -6.45545e-18)
(9.06203 8.04083 3.09941e-18)
(9.32676 7.85237 3.02725e-18)
(9.57586 7.67467 -2.91552e-18)
(9.81109 7.50638 9.4789e-20)
(10.034 7.34654 -1.80574e-19)
(10.2459 7.19381 0)
(10.4479 7.04759 -8.77619e-20)
(10.6412 6.90692 2.68722e-18)
(10.8265 6.77124 -2.57343e-18)
(11.0047 6.63992 2.70152e-18)
(11.1765 6.51258 -2.52797e-18)
(11.3423 6.38866 -2.4217e-18)
(11.5026 6.26781 5.16155e-18)
(11.6579 6.14972 -1.45959e-18)
(11.8083 6.03408 -1.29187e-18)
(11.9541 5.92058 -2.91059e-21)
(12.0956 5.80907 1.61002e-19)
(12.2328 5.69931 -3.25758e-19)
(12.3658 5.59116 0)
(12.4949 5.48461 -1.63441e-18)
(12.6202 5.37962 2.94771e-18)
(12.742 5.27616 -1.13817e-18)
(12.8605 5.17428 -6.3556e-19)
(12.9761 5.07414 3.13582e-19)
(13.0904 4.97285 -2.98929e-19)
(8.7314 19.0613 3.6923e-19)
(8.04688 17.7263 -1.2138e-18)
(7.66839 16.5277 -6.38191e-20)
(7.49885 15.4681 9.14159e-19)
(7.46659 14.5317 -9.96666e-19)
(7.52696 13.7032 9.83758e-19)
(7.64936 12.9701 -5.79379e-20)
(7.81289 12.3211 0)
(8.00277 11.7455 -5.76394e-20)
(8.20827 11.2334 0)
(8.42212 10.7761 0)
(8.63918 10.366 -1.8975e-18)
(8.85559 9.99602 1.73636e-18)
(9.06894 9.66058 -1.06269e-19)
(9.27787 9.35472 5.07992e-20)
(9.48139 9.07424 -5.13403e-20)
(9.67889 8.81566 -1.54774e-18)
(9.87024 8.57592 1.55925e-18)
(10.0554 8.35256 0)
(10.2344 8.14339 4.65396e-20)
(10.4075 7.94663 1.43754e-18)
(10.5752 7.76081 -1.40653e-18)
(10.7375 7.58459 -1.2825e-18)
(10.8948 7.41695 1.34545e-18)
(11.0474 7.25695 -8.11362e-20)
(11.1956 7.10382 1.61834e-19)
(11.3397 6.95681 -1.36187e-18)
(11.4799 6.81536 2.46667e-18)
(11.6164 6.67885 -2.60994e-18)
(11.7494 6.54688 3.14749e-21)
(11.8789 6.41892 1.1826e-18)
(12.0052 6.29466 0)
(12.1283 6.17367 -1.56298e-19)
(12.2483 6.05572 -1.42343e-18)
(12.3652 5.94048 1.11517e-18)
(12.479 5.82772 1.43902e-18)
(12.5898 5.71729 -1.64414e-19)
(12.6977 5.60911 1.58207e-19)
(12.8029 5.50309 -1.3006e-18)
(12.9055 5.39915 -1.61983e-19)
(13.0057 5.2973 7.93309e-19)
(13.1038 5.19783 -3.11855e-19)
(13.2002 5.09784 -1.48587e-19)
(10.4442 17.4635 2.6847e-19)
(9.9122 16.7127 -5.78444e-19)
(9.537 15.9355 2.67609e-19)
(9.29144 15.1697 7.32126e-19)
(9.14947 14.4372 9.11423e-20)
(9.08888 13.7492 -7.66418e-19)
(9.09132 13.111 8.26474e-19)
(9.14165 12.5235 7.52969e-20)
(9.22724 11.9851 -7.59397e-19)
(9.33852 11.493 1.61039e-18)
(9.46766 11.0434 -1.6209e-18)
(9.60866 10.6323 5.30915e-20)
(9.75703 10.2557 -1.5454e-18)
(9.9093 9.91003 3.1277e-18)
(10.0632 9.59176 -1.57899e-18)
(10.2168 9.29767 1.50782e-18)
(10.3687 9.02514 -1.5659e-18)
(10.5183 8.77166 8.95494e-20)
(10.6649 8.53503 0)
(10.808 8.31345 0)
(10.9477 8.10533 1.27034e-18)
(11.0839 7.90922 -1.32722e-18)
(11.2166 7.72385 -1.30128e-18)
(11.346 7.54819 8.02438e-20)
(11.4723 7.38122 2.60248e-18)
(11.5955 7.22209 -1.32604e-18)
(11.7159 7.07001 7.81597e-20)
(11.8336 6.92428 -1.22497e-18)
(11.9485 6.78428 7.79324e-20)
(12.0609 6.64945 1.14195e-18)
(12.1708 6.5193 1.52359e-19)
(12.2782 6.39336 0)
(12.3832 6.27124 7.83007e-20)
(12.4858 6.15257 1.22933e-18)
(12.5859 6.03703 1.50888e-19)
(12.6835 5.92437 -2.65013e-18)
(12.7787 5.81446 1.41654e-18)
(12.8715 5.70712 -6.32205e-19)
(12.9621 5.60225 7.94353e-19)
(13.0507 5.49973 6.3203e-19)
(13.1375 5.39942 -7.83789e-19)
(13.2227 5.30126 4.60931e-19)
(13.3071 5.20142 -1.48312e-19)
(12.2086 16.2962 0)
(11.7241 15.7346 -3.19629e-19)
(11.3319 15.1422 3.62882e-19)
(11.0283 14.5416 0)
(10.8043 13.95 -4.65703e-20)
(10.6491 13.3787 4.73144e-20)
(10.5518 12.835 -7.04661e-19)
(10.5024 12.3227 1.54966e-18)
(10.4913 11.8436 -7.45719e-19)
(10.5107 11.3975 5.05642e-20)
(10.5538 10.9832 -4.8832e-20)
(10.6149 10.5992 0)
(10.6893 10.243 4.76634e-20)
(10.7736 9.91272 1.23914e-21)
(10.8651 9.60594 -4.61154e-20)
(10.9616 9.32053 0)
(11.0613 9.05446 4.55408e-20)
(11.1629 8.80584 -8.93763e-20)
(11.2655 8.57298 0)
(11.3683 8.35436 -1.35342e-18)
(11.4709 8.14863 1.32102e-18)
(11.573 7.95455 -1.21421e-18)
(11.6744 7.77101 1.27008e-18)
(11.7748 7.597 2.34249e-18)
(11.8742 7.4316 -1.30969e-18)
(11.9725 7.27401 -1.1431e-18)
(12.0696 7.12344 1.1316e-18)
(12.1654 6.97922 -1.12523e-18)
(12.2598 6.8408 -1.49163e-19)
(12.3526 6.70762 -1.1163e-18)
(12.4439 6.57923 1.11716e-18)
(12.5337 6.45519 0)
(12.6219 6.33504 -1.04744e-18)
(12.7083 6.21842 1.28057e-18)
(12.7928 6.10503 -1.52458e-19)
(12.8754 5.99473 7.64098e-19)
(12.9561 5.88735 -1.19795e-21)
(13.035 5.78271 -6.21492e-19)
(13.1123 5.68072 6.21802e-19)
(13.1881 5.58127 -6.22993e-19)
(13.2628 5.48423 0)
(13.3364 5.38954 -1.52714e-19)
(13.4095 5.29403 0)
(13.0569 15.4047 0)
(12.6199 14.9557 0)
(12.2508 14.4753 -4.01813e-20)
(11.9497 13.9795 4.2472e-20)
(11.7123 13.4816 0)
(11.5325 12.9919 -4.71044e-20)
(11.4033 12.5179 7.64875e-19)
(11.3176 12.0642 -7.54198e-19)
(11.2681 11.6339 7.29109e-19)
(11.2486 11.2281 -7.14727e-19)
(11.2531 10.8467 4.87828e-20)
(11.2766 10.4894 9.40108e-20)
(11.3149 10.1553 6.13869e-19)
(11.365 9.843 -5.97813e-19)
(11.4242 9.55112 -4.39793e-20)
(11.4903 9.27798 8.87079e-20)
(11.5613 9.02209 0)
(11.6359 8.78207 6.06246e-19)
(11.7132 8.55658 -6.73878e-19)
(11.7924 8.34439 -1.32059e-18)
(11.8727 8.14432 2.58235e-18)
(11.9539 7.95533 -1.34525e-18)
(12.0356 7.77639 -1.24482e-18)
(12.1175 7.60663 2.52777e-18)
(12.1994 7.44519 -1.05777e-18)
(12.281 7.2913 -7.53588e-20)
(12.3622 7.14423 1.07362e-21)
(12.4427 7.00337 -1.01982e-21)
(12.5222 6.86825 1.46644e-19)
(12.6007 6.73839 -7.36344e-20)
(12.6782 6.61336 0)
(12.7548 6.49268 7.28844e-20)
(12.8301 6.37583 -1.47186e-19)
(12.9039 6.2625 -1.4798e-19)
(12.9761 6.15244 0)
(13.0465 6.04565 -5.99987e-19)
(13.1154 5.9419 6.81125e-19)
(13.183 5.84094 -1.51949e-19)
(13.2492 5.74276 -1.27303e-21)
(13.3143 5.64722 -1.52674e-19)
(13.3786 5.55416 -3.04209e-19)
(13.4422 5.46352 4.51314e-19)
(13.5056 5.37224 2.95785e-19)
(13.7308 14.7233 3.49087e-20)
(13.3257 14.3406 0)
(12.9742 13.929 4.01061e-20)
(12.6774 13.5002 3.02982e-19)
(12.4338 13.0647 -2.56284e-19)
(12.2391 12.6318 -8.98008e-20)
(12.0892 12.2083 -4.21607e-19)
(11.9789 11.7991 3.69297e-19)
(11.9028 11.4074 -6.68186e-19)
(11.8558 11.0344 6.98917e-19)
(11.832 10.6808 0)
(11.8271 10.3471 6.55601e-19)
(11.8377 10.0332 1.01236e-19)
(11.8613 9.73823 -1.54588e-18)
(11.8951 9.46119 8.92829e-19)
(11.9369 9.20086 -8.89443e-20)
(11.9849 8.95606 0)
(12.0377 8.7258 1.69805e-19)
(12.0944 8.50902 -6.6462e-19)
(12.1542 8.30459 7.28634e-19)
(12.2165 8.11154 0)
(12.2806 7.92893 -1.17218e-18)
(12.3464 7.75584 1.15045e-18)
(12.4132 7.59146 -6.04965e-19)
(12.4808 7.43508 5.2153e-19)
(12.5489 7.28591 7.33538e-20)
(12.617 7.14325 7.36108e-20)
(12.6847 7.00666 4.36027e-19)
(12.7518 6.87579 -6.51592e-19)
(12.8184 6.75022 5.05554e-19)
(12.8846 6.62947 -6.49189e-19)
(12.9503 6.51288 5.05445e-19)
(13.015 6.39996 7.25188e-20)
(13.0783 6.29049 -5.10178e-19)
(13.1398 6.18441 0)
(13.1999 6.08186 7.36314e-20)
(13.2591 5.98232 -6.7097e-19)
(13.317 5.88551 7.5274e-19)
(13.3738 5.79162 -1.5184e-19)
(13.4299 5.70043 1.51812e-19)
(13.4853 5.61174 7.49669e-20)
(13.5404 5.52556 -1.49551e-19)
(13.5954 5.4388 -2.96353e-19)
(14.207 14.1785 -3.47015e-20)
(13.8264 13.8408 0)
(13.491 13.4762 3.23583e-19)
(13.2023 13.0943 -3.23042e-19)
(12.9592 12.703 -8.64976e-20)
(12.7584 12.3109 -2.70337e-19)
(12.5981 11.9252 -1.07379e-20)
(12.4744 11.5504 3.60408e-19)
(12.3834 11.1894 -9.27332e-20)
(12.3208 10.843 0)
(12.2789 10.5119 7.39581e-19)
(12.2553 10.1981 -7.23859e-19)
(12.2474 9.90171 7.25954e-19)
(12.253 9.6224 7.016e-21)
(12.2694 9.35897 -7.89685e-19)
(12.2943 9.11059 0)
(12.3259 8.87637 0)
(12.3631 8.6557 5.01577e-19)
(12.4051 8.44761 -1.38632e-18)
(12.4511 8.25109 -3.17021e-21)
(12.5004 8.06517 6.2642e-19)
(12.5524 7.88902 -1.5412e-19)
(12.6066 7.72177 7.58475e-19)
(12.6623 7.56288 -6.7146e-19)
(12.7193 7.41169 0)
(12.7772 7.26716 -6.57576e-19)
(12.835 7.129 6.50705e-19)
(12.8924 6.99707 7.22548e-20)
(12.9497 6.87089 -6.43668e-19)
(13.0071 6.75002 1.14242e-18)
(13.0647 6.63379 -4.98852e-19)
(13.122 6.52125 0)
(13.1779 6.41239 0)
(13.2323 6.30691 -5.75815e-19)
(13.2847 6.20515 5.79696e-19)
(13.3364 6.10738 -6.56779e-19)
(13.388 6.01206 5.88668e-19)
(13.4376 5.91948 7.39298e-20)
(13.4865 5.83008 -7.44071e-20)
(13.5351 5.74337 -7.44807e-20)
(13.5832 5.65908 1.48721e-19)
(13.6312 5.57734 -2.95566e-19)
(13.6793 5.49441 1.476e-19)
(14.5756 13.7349 0)
(14.2137 13.4295 -7.39029e-20)
(13.8915 13.0988 -1.58589e-19)
(13.6107 12.7512 2.39578e-19)
(13.3708 12.3916 8.40164e-20)
(13.1663 12.0296 0)
(12.9994 11.6733 3.56108e-19)
(12.8665 11.3261 -2.62409e-19)
(12.7668 10.9889 3.62043e-19)
(12.6954 10.6652 -6.2825e-19)
(12.6399 10.3514 3.55369e-19)
(12.6027 10.0541 -3.58506e-19)
(12.5811 9.77243 3.51097e-19)
(12.5736 9.50701 0)
(12.5771 9.25538 0)
(12.5893 9.01795 6.82929e-19)
(12.6081 8.79322 -6.66098e-19)
(12.6338 8.58165 8.62649e-22)
(12.665 8.38185 8.06726e-20)
(12.7008 8.19272 4.73224e-19)
(12.7405 8.01344 -6.17375e-19)
(12.7833 7.84283 -5.32347e-19)
(12.8287 7.6808 1.12229e-18)
(12.8753 7.52706 -4.42323e-19)
(12.9241 7.38067 -7.25992e-20)
(12.9736 7.24 5.0612e-19)
(13.0228 7.10688 -6.44357e-19)
(13.0719 6.98005 0)
(13.1214 6.85865 -5.65765e-19)
(13.1718 6.74223 5.65066e-19)
(13.2225 6.63013 -7.02542e-20)
(13.2727 6.52088 5.65017e-19)
(13.321 6.41656 -1.13334e-18)
(13.3679 6.31487 5.69257e-19)
(13.4124 6.21806 0)
(13.4576 6.1254 -7.18191e-20)
(13.5032 6.03333 0)
(13.5454 5.94534 -7.34801e-20)
(13.588 5.86048 7.39583e-20)
(13.6308 5.77833 7.40751e-20)
(13.673 5.6981 7.38649e-20)
(13.7152 5.62036 0)
(13.7577 5.54042 0)
(14.8365 13.3664 -7.11343e-20)
(14.4887 13.0852 1.4468e-19)
(14.1747 12.7788 7.61561e-20)
(13.9018 12.4616 -8.09655e-20)
(13.6754 12.1261 -1.67174e-19)
(13.4728 11.7856 -1.75565e-19)
(13.3041 11.451 -1.82404e-19)
(13.1622 11.1289 3.40402e-19)
(13.0561 10.8107 3.59847e-19)
(12.981 10.5118 -3.62905e-19)
(12.9176 10.2079 0)
(12.8729 9.92431 3.57565e-19)
(12.842 9.65369 -8.3113e-20)
(12.8263 9.4025 -3.45901e-19)
(12.822 9.16038 -2.58387e-19)
(12.8267 8.9347 -8.59759e-20)
(12.8386 8.71687 2.4961e-19)
(12.8574 8.51383 8.24139e-20)
(12.8816 8.32102 3.22483e-19)
(12.9104 8.13759 -5.51155e-19)
(12.9441 7.96297 2.30216e-19)
(12.9806 7.79505 7.47876e-20)
(13.0196 7.63771 0)
(13.0586 7.48844 -1.46224e-19)
(13.1021 7.346 6.3516e-22)
(13.1445 7.2091 1.42104e-19)
(13.1851 7.08362 0)
(13.2276 6.96063 7.21693e-20)
(13.2712 6.84244 7.21167e-20)
(13.3163 6.7288 -2.82382e-19)
(13.3618 6.62057 2.74389e-19)
(13.4066 6.51404 0)
(13.4474 6.41705 0)
(13.4884 6.31711 0)
(13.5247 6.22657 0)
(13.5661 6.13794 -1.41537e-19)
(13.6075 6.04681 2.88237e-19)
(13.6412 5.96624 0)
(13.68 5.88549 0)
(13.7181 5.80811 -1.48711e-19)
(13.7547 5.73018 2.23607e-19)
(13.7923 5.6553 0)
(13.8314 5.57789 0)
(11.7072 -3.14034 -2.68555e-18)
(11.3737 -3.10546 0)
(11.044 -3.07094 -5.91359e-19)
(10.72 -3.03551 0)
(10.402 -3.00011 -6.01531e-19)
(10.09 -2.96483 -4.52564e-19)
(9.78397 -2.92972 -1.46481e-19)
(9.48393 -2.89482 -5.24952e-21)
(9.18984 -2.86011 0)
(8.90166 -2.82561 3.06363e-19)
(8.61936 -2.79132 -6.14541e-19)
(8.34286 -2.75721 1.13058e-21)
(8.07211 -2.72329 6.30465e-19)
(7.80697 -2.68951 -7.71911e-22)
(7.5474 -2.65591 -9.7368e-19)
(7.29324 -2.62243 -6.65338e-19)
(7.04439 -2.5891 3.40251e-19)
(6.80072 -2.55588 -6.93679e-19)
(6.56205 -2.52277 1.4295e-18)
(6.3282 -2.48972 -7.39317e-19)
(6.09898 -2.45673 0)
(5.87414 -2.42376 0)
(5.65342 -2.39078 2.05904e-19)
(5.43656 -2.35778 0)
(5.22321 -2.32469 9.29543e-19)
(5.01303 -2.2915 -9.87722e-19)
(4.80564 -2.25815 -4.39527e-21)
(4.60063 -2.2246 4.25455e-19)
(4.39757 -2.19082 7.68738e-19)
(4.19598 -2.15673 -1.01e-18)
(3.99537 -2.12227 3.41367e-22)
(3.79525 -2.08739 2.56789e-21)
(3.59508 -2.052 9.96643e-22)
(3.39428 -2.01597 2.55985e-19)
(3.19228 -1.97908 8.65814e-19)
(2.98851 -1.94085 -1.32471e-18)
(2.78295 -1.90028 0)
(2.57737 -1.8557 0)
(2.38027 -1.80356 -2.5998e-19)
(2.22758 -1.73958 -3.08584e-19)
(2.26618 -1.66811 0)
(3.05752 -1.68471 0)
(6.78156 -2.28575 1.46843e-17)
(11.6157 -3.13369 1.12402e-18)
(11.3103 -3.09881 5.98592e-19)
(11.0081 -3.0666 -6.11535e-19)
(10.7105 -3.03519 -3.06428e-19)
(10.4176 -3.00417 1.53808e-18)
(10.1293 -2.97333 6.15523e-19)
(9.8458 -2.94262 -6.35579e-19)
(9.56689 -2.91201 6.36657e-19)
(9.29254 -2.88149 -1.55608e-19)
(9.02272 -2.85105 -4.65802e-19)
(8.75733 -2.82065 1.40794e-21)
(8.49631 -2.79026 6.28974e-19)
(8.23955 -2.75986 0)
(7.98697 -2.7294 6.41026e-19)
(7.7384 -2.69887 -9.75622e-19)
(7.49375 -2.66826 6.62967e-19)
(7.25289 -2.63757 3.39804e-19)
(7.01564 -2.60678 -6.93579e-19)
(6.78189 -2.57588 1.07334e-18)
(6.55143 -2.54484 0)
(6.3241 -2.51365 0)
(6.09965 -2.48229 -9.94794e-19)
(5.87787 -2.45072 1.04113e-18)
(5.65848 -2.41894 6.5333e-19)
(5.44115 -2.38686 -6.90604e-19)
(5.22556 -2.35445 9.78915e-19)
(5.01133 -2.32163 -7.82141e-19)
(4.79805 -2.28831 1.55952e-21)
(4.58524 -2.25436 0)
(4.37243 -2.21962 3.28255e-19)
(4.15915 -2.18389 5.35729e-19)
(3.94495 -2.14686 1.22034e-20)
(3.72947 -2.10817 -2.28733e-19)
(3.51265 -2.06719 -7.21212e-19)
(3.295 -2.02305 -2.69289e-19)
(3.07859 -1.97441 1.21792e-18)
(2.86942 -1.91915 0)
(2.6839 -1.85432 3.20303e-18)
(2.56777 -1.77651 9.3768e-22)
(2.64376 -1.69179 -4.28978e-18)
(3.22059 -1.65426 0)
(5.05713 -1.89434 5.73125e-18)
(9.86481 -2.93537 -4.96789e-18)
(11.5347 -3.11917 2.23983e-21)
(11.2499 -3.08833 6.11488e-19)
(10.9687 -3.05769 -3.11918e-19)
(10.6914 -3.02805 -3.12372e-19)
(10.4178 -2.99877 -7.79751e-19)
(10.1478 -2.9696 -1.57212e-19)
(9.88127 -2.94049 3.13838e-19)
(9.61818 -2.91142 0)
(9.35845 -2.8824 6.27644e-19)
(9.10199 -2.85342 -3.15958e-19)
(8.8488 -2.82448 8.7551e-22)
(8.59883 -2.79555 -6.37748e-19)
(8.35199 -2.76659 3.22189e-19)
(8.1082 -2.73755 0)
(7.86734 -2.70841 3.30884e-19)
(7.62928 -2.67916 -1.63842e-21)
(7.3939 -2.6498 -3.45742e-19)
(7.16105 -2.62031 0)
(6.93065 -2.5907 -3.61264e-19)
(6.70252 -2.56094 0)
(6.47648 -2.53099 1.94872e-19)
(6.25236 -2.50083 2.00843e-19)
(6.02991 -2.47039 -2.09703e-19)
(5.80893 -2.43965 -2.21819e-19)
(5.58912 -2.40851 4.67842e-19)
(5.3702 -2.37688 -7.36831e-19)
(5.15182 -2.34465 1.04628e-18)
(4.93366 -2.31167 -8.36863e-19)
(4.71534 -2.27769 -1.50395e-21)
(4.49655 -2.24248 -9.69766e-19)
(4.27704 -2.20565 -3.48813e-19)
(4.05671 -2.16667 0)
(3.83598 -2.1249 4.21241e-19)
(3.61608 -2.07931 2.32864e-19)
(3.40001 -2.02856 5.1612e-19)
(3.19469 -1.97074 5.82601e-19)
(3.01597 -1.90334 -6.54357e-19)
(2.90069 -1.82384 2.43975e-23)
(2.93231 -1.73422 4.26867e-19)
(3.28733 -1.6558 6.35849e-18)
(4.3311 -1.67551 -4.52199e-18)
(6.78435 -2.03896 -5.37248e-18)
(11.6035 -3.21041 4.04003e-18)
(11.4587 -3.10209 7.90735e-22)
(11.1943 -3.07432 -6.24296e-19)
(10.9324 -3.04631 -3.16901e-19)
(10.6733 -3.01869 3.17769e-19)
(10.4171 -2.99119 0)
(10.1637 -2.9637 3.1695e-19)
(9.91281 -2.93619 -6.25726e-19)
(9.66437 -2.90865 -4.97035e-20)
(9.41825 -2.88112 -1.1863e-19)
(9.17436 -2.85363 1.58907e-19)
(8.93268 -2.82619 -1.608e-19)
(8.69321 -2.7988 4.87285e-19)
(8.45589 -2.77138 0)
(8.22065 -2.74384 3.32538e-19)
(7.98736 -2.71609 0)
(7.75581 -2.68811 0)
(7.52588 -2.65993 -1.03613e-21)
(7.29743 -2.63154 3.59443e-19)
(7.07036 -2.60294 0)
(6.84455 -2.57412 -1.91243e-19)
(6.61986 -2.54499 -3.93274e-19)
(6.39606 -2.51552 4.10659e-19)
(6.17301 -2.48568 -4.27972e-19)
(5.95049 -2.45541 4.48848e-19)
(5.7283 -2.42462 -2.01382e-22)
(5.50619 -2.39315 -6.26352e-22)
(5.28391 -2.36088 -5.28486e-19)
(5.06126 -2.32761 0)
(4.83804 -2.29302 -2.2645e-21)
(4.61421 -2.25672 4.85081e-19)
(4.3899 -2.21817 -2.63143e-19)
(4.16556 -2.1766 9.4918e-20)
(3.9426 -2.13112 -4.12895e-19)
(3.72384 -2.08039 -2.26342e-19)
(3.51534 -2.02282 -2.51128e-19)
(3.32933 -1.95637 2.72012e-21)
(3.19208 -1.8789 -1.27321e-18)
(3.15802 -1.79015 1.44333e-18)
(3.33441 -1.69892 -2.03565e-18)
(3.92255 -1.64073 1.3834e-18)
(5.2915 -1.72142 0)
(8.08394 -2.18036 1.54648e-18)
(12.7633 -3.37992 9.05549e-19)
(11.3898 -3.08991 3.11465e-19)
(11.1444 -3.06261 -3.179e-19)
(10.9005 -3.0358 0)
(10.6584 -3.00995 0)
(10.4185 -2.9843 1.61236e-19)
(10.1804 -2.95852 -1.61325e-19)
(9.94394 -2.93256 3.11702e-19)
(9.70897 -2.90643 1.00908e-20)
(9.47525 -2.88016 -8.08048e-20)
(9.24275 -2.85385 -2.44178e-19)
(9.01135 -2.82754 3.27239e-19)
(8.78114 -2.80135 -1.63811e-19)
(8.55215 -2.77517 -1.66319e-19)
(8.32447 -2.74889 1.73054e-21)
(8.09788 -2.72227 0)
(7.87214 -2.69526 -3.48554e-19)
(7.64705 -2.66785 3.56556e-19)
(7.42241 -2.64013 -3.65257e-19)
(7.19817 -2.61216 7.52921e-19)
(6.97433 -2.58394 1.93392e-19)
(6.75074 -2.55533 -2.00289e-19)
(6.52719 -2.52623 0)
(6.30347 -2.49664 4.35064e-19)
(6.07945 -2.46656 -4.55828e-19)
(5.8551 -2.43585 7.16855e-19)
(5.63013 -2.40431 -7.57205e-19)
(5.40442 -2.37181 2.67335e-19)
(5.17785 -2.33813 0)
(4.95052 -2.30296 6.06338e-19)
(4.72277 -2.26576 -1.61581e-19)
(4.4952 -2.22577 -1.77543e-19)
(4.26899 -2.18201 -5.92415e-21)
(4.0465 -2.13324 -9.68036e-20)
(3.83227 -2.07793 1.13443e-19)
(3.63511 -2.01431 -5.00116e-19)
(3.47221 -1.94057 5.60039e-19)
(3.37863 -1.85563 -6.24548e-19)
(3.42128 -1.76238 1.40629e-18)
(3.72059 -1.67539 -1.5682e-18)
(4.48831 -1.63989 0)
(6.0819 -1.77096 -1.91728e-18)
(9.0641 -2.30076 9.25418e-19)
(13.6086 -3.49894 -4.15715e-18)
(11.3314 -3.07432 3.10385e-19)
(11.1007 -3.0493 -3.22899e-19)
(10.8722 -3.02486 1.64027e-19)
(10.6452 -3.00101 -3.27512e-19)
(10.4198 -2.97729 1.63497e-19)
(10.1957 -2.95318 0)
(9.97232 -2.92866 0)
(9.74964 -2.90376 -3.27638e-19)
(9.52709 -2.8785 -8.1889e-20)
(9.30496 -2.85308 5.75089e-19)
(9.08261 -2.82747 -4.95887e-19)
(8.86055 -2.8021 0)
(8.63861 -2.77688 -5.06848e-19)
(8.41748 -2.7518 -5.12895e-19)
(8.19681 -2.72625 -3.4736e-19)
(7.97634 -2.70011 3.54408e-19)
(7.75563 -2.67327 0)
(7.53438 -2.64589 -3.71178e-19)
(7.31247 -2.6182 -1.90408e-19)
(7.09012 -2.59036 0)
(6.86758 -2.56215 0)
(6.64436 -2.53323 2.1255e-19)
(6.42004 -2.50362 0)
(6.19453 -2.47351 -2.31781e-19)
(5.96819 -2.44282 2.43276e-19)
(5.74076 -2.41111 2.55379e-19)
(5.51195 -2.37821 6.1265e-22)