/*--------------------------------*- C++ -*----------------------------------*\
| =========                 |                                                 |
| \\      /  F ield         | OpenFOAM: The Open Source CFD Toolbox           |
|  \\    /   O peration     | Version:  2.3.0                                 |
|   \\  /    A nd           | Web:      www.OpenFOAM.org                      |
|    \\/     M anipulation  |                                                 |
\*---------------------------------------------------------------------------*/
FoamFile
{
    version     2.0;
    format      ascii;
    class       volScalarField;
    location    "500";
    object      p;
}
// * * * * * * * * * * * * * * * * * * * * * * * * * * * * * * * * * * * * * //

dimensions      [0 2 -2 0 0 0 0];

internalField   nonuniform List<scalar> 
7991
(
-0.000335588
0.0130732
0.0608161
0.154987
0.296985
0.480478
0.695495
0.932386
1.18458
1.44947
1.7267
2.01977
2.35817
2.86303
3.50662
0.2353
0.253158
0.27248
0.295673
0.328904
0.379073
0.452469
0.553358
0.683293
0.841322
1.02451
1.22878
1.44982
1.68464
1.93151
0.468668
0.545721
0.640924
0.752028
0.877005
1.01171
1.15165
1.29291
1.43248
1.56818
1.69853
1.8225
1.93922
2.04807
2.14924
0.615116
0.68506
0.763519
0.845932
0.932387
1.0224
1.1153
1.21029
1.3065
1.40299
1.49885
1.59324
1.68538
1.77464
1.8609
0.731867
0.801777
0.881285
0.963548
1.04778
1.13284
1.21768
1.30144
1.38345
1.46324
1.54048
1.61491
1.68634
1.75465
1.81988
0.811333
0.872226
0.940749
1.01019
1.07994
1.14954
1.21863
1.28692
1.35415
1.42012
1.48464
1.54756
1.60871
1.66795
1.72524
0.866437
0.922049
0.983545
1.04553
1.10733
1.16864
1.22929
1.28911
1.34797
1.40573
1.4623
1.51756
1.5714
1.6237
1.67438
0.901862
0.955778
1.01028
1.06482
1.11907
1.17289
1.22622
1.27901
1.33117
1.38264
1.43331
1.4831
1.53188
1.57952
1.62592
0.932128
0.981217
1.02923
1.07762
1.12601
1.17422
1.22218
1.26986
1.3172
1.3641
1.4105
1.45627
1.5013
1.54544
1.58856
0.949361
0.997752
1.04125
1.08493
1.12871
1.1725
1.21625
1.25994
1.30351
1.34689
1.39
1.43272
1.4749
1.5164
1.55704
0.966166
1.01021
1.04963
1.08931
1.12929
1.1695
1.20986
1.25035
1.29099
1.33156
1.37205
1.41232
1.45225
1.49168
1.53043
0.978838
1.01823
1.05452
1.09102
1.12835
1.16572
1.203
1.24066
1.27901
1.31731
1.35558
1.39375
1.43188
1.46959
1.50687
0.989628
1.02605
1.05961
1.09318
1.12811
1.16314
1.19824
1.23408
1.27034
1.30643
1.34323
1.38064
1.41799
1.45513
1.49082
1.00708
1.03578
1.07139
1.10151
1.1268
1.16002
1.19849
1.2336
1.26694
1.29995
1.33637
1.37459
1.40944
1.44736
1.48519
4.2985
4.41942
4.30703
4.31359
4.35376
4.37824
4.37954
4.36126
4.32462
4.26729
4.1844
4.07014
3.92073
3.73821
3.54082
2.19612
2.4757
2.74184
2.99001
3.21399
3.40572
3.55747
3.66339
3.72034
3.72837
3.69106
3.61504
3.50901
3.38247
3.2489
2.24498
2.3381
2.42942
2.51925
2.60675
2.69075
2.76985
2.84244
2.90648
2.95941
2.99797
3.01837
3.01711
2.99334
2.95456
1.94571
2.03121
2.11785
2.20492
2.29119
2.37512
2.45495
2.52871
2.59432
2.64962
2.69259
2.72138
2.73476
2.73318
2.72085
1.88294
1.94536
2.00774
2.06992
2.13145
2.19178
2.25026
2.30615
2.3585
2.40623
2.44797
2.4821
2.50698
2.52192
2.52801
1.78116
1.83671
1.89217
1.94729
2.00172
2.05502
2.10671
2.15624
2.20297
2.24616
2.28498
2.3184
2.34541
2.36612
2.38515
1.7238
1.7726
1.82099
1.86878
1.91572
1.96153
2.00592
2.04853
2.08901
2.1269
2.16167
2.19265
2.21914
2.24093
2.25842
1.67127
1.71599
1.76016
1.80359
1.84608
1.88739
1.9273
1.96556
2.00191
2.03607
2.06768
2.09636
2.12163
2.14319
2.162
1.63075
1.67223
1.71305
1.75302
1.79196
1.82969
1.866
1.90073
1.9337
1.96471
1.99356
2.01998
2.04358
2.06402
2.08451
1.5968
1.63582
1.67409
1.71143
1.74771
1.78271
1.81629
1.84832
1.87865
1.90717
1.93373
1.95818
1.98026
1.99963
2.01827
1.56831
1.60536
1.64161
1.67678
1.711
1.7439
1.77534
1.80526
1.83348
1.86
1.88468
1.90744
1.92813
1.94639
1.9633
1.5434
1.57893
1.61371
1.64697
1.67975
1.71126
1.74111
1.76948
1.79599
1.821
1.84427
1.86574
1.88495
1.90188
1.91656
1.5257
1.55857
1.59172
1.62371
1.65552
1.68515
1.71235
1.73904
1.76385
1.78736
1.80943
1.82984
1.84783
1.86411
1.87857
1.51631
1.54493
1.57497
1.60559
1.63921
1.66324
1.68697
1.71219
1.73511
1.75654
1.77628
1.79169
1.80996
1.82853
1.8422
-0.82869
-0.821841
-0.760081
-0.636195
-0.462985
-0.26579
-0.0752148
0.0816575
0.188928
0.24224
0.246216
0.20681
0.128632
0.00199671
-0.000568671
-0.788325
-0.82543
-0.87017
-0.932705
-1.01982
-1.127
-1.2429
-1.35499
-1.45278
-1.53057
-1.58738
-1.62758
-1.65297
-1.68667
-1.68728
-0.789604
-0.8671
-0.962145
-1.06902
-1.17772
-1.27586
-1.35513
-1.41334
-1.45269
-1.47792
-1.49458
-1.50977
-1.52358
-1.5376
-1.53977
-0.733247
-0.778969
-0.820072
-0.852798
-0.876259
-0.891108
-0.89948
-0.904023
-0.906884
-0.909816
-0.914272
-0.923178
-0.936294
-0.947678
-0.950202
-0.649611
-0.668192
-0.681275
-0.690301
-0.697244
-0.703246
-0.708589
-0.713144
-0.716809
-0.720038
-0.72381
-0.730298
-0.740522
-0.748564
-0.748402
-0.585414
-0.60062
-0.614877
-0.628837
-0.641956
-0.653651
-0.66339
-0.671018
-0.676779
-0.681512
-0.686527
-0.69372
-0.704187
-0.712338
-0.711355
-0.541722
-0.551284
-0.563501
-0.575765
-0.586956
-0.596991
-0.605956
-0.614023
-0.621449
-0.628748
-0.636827
-0.646949
-0.659663
-0.66954
-0.66875
-0.494142
-0.498608
-0.505799
-0.513651
-0.521726
-0.530457
-0.540002
-0.550347
-0.561386
-0.573138
-0.585961
-0.600512
-0.616712
-0.629126
-0.628981
-0.452069
-0.448063
-0.451401
-0.45642
-0.463241
-0.472516
-0.484424
-0.498871
-0.515534
-0.534044
-0.554373
-0.576391
-0.598801
-0.615626
-0.616994
-0.403079
-0.400668
-0.401609
-0.404004
-0.408975
-0.417747
-0.43105
-0.449268
-0.471952
-0.498537
-0.528853
-0.562942
-0.598138
-0.625931
-0.633254
-0.369707
-0.359299
-0.355843
-0.353959
-0.355246
-0.36182
-0.375733
-0.398514
-0.429413
-0.466101
-0.510416
-0.562916
-0.617513
-0.659696
-0.67481
-0.329744
-0.318869
-0.311185
-0.303449
-0.296851
-0.295177
-0.301139
-0.323366
-0.359214
-0.399719
-0.445785
-0.518839
-0.622415
-0.708503
-0.749865
-0.302423
-0.283799
-0.275412
-0.262263
-0.24975
-0.243844
-0.246284
-0.276041
-0.339565
-0.390446
-0.455561
-0.545032
-0.705304
-0.802721
-0.839393
-0.263692
-0.236676
-0.231491
-0.213113
-0.170761
-0.132292
-0.0606878
-0.0665928
-0.155082
-0.17498
-0.112977
-0.143861
-0.609104
-0.898841
-0.928226
0.00606042
0.0165285
0.150828
0.236354
0.283763
0.288144
0.243317
0.144678
-0.00291525
-0.182429
-0.365523
-0.521435
-0.624131
-0.661899
-0.643206
-1.68393
-1.67859
-1.63985
-1.60951
-1.563
-1.49824
-1.41069
-1.30137
-1.17622
-1.04606
-0.923957
-0.821862
-0.743434
-0.681328
-0.623985
-1.53621
-1.52755
-1.50729
-1.48769
-1.46592
-1.44161
-1.40741
-1.35771
-1.28776
-1.19556
-1.08379
-0.961293
-0.8403
-0.730597
-0.636203
-0.946938
-0.937958
-0.920402
-0.901474
-0.886209
-0.874588
-0.863561
-0.851679
-0.837164
-0.817866
-0.79117
-0.754906
-0.708326
-0.65248
-0.590455
-0.745317
-0.739177
-0.725122
-0.709216
-0.696613
-0.686012
-0.675165
-0.663109
-0.649413
-0.634168
-0.617442
-0.598807
-0.577021
-0.550226
-0.516955
-0.708373
-0.70312
-0.688994
-0.67285
-0.659584
-0.647824
-0.635634
-0.621726
-0.605293
-0.586067
-0.564185
-0.540119
-0.514441
-0.487768
-0.459919
-0.665864
-0.66048
-0.644664
-0.62628
-0.610099
-0.595314
-0.580642
-0.565194
-0.548481
-0.530204
-0.510158
-0.48826
-0.464608
-0.440204
-0.417706
-0.6264
-0.620769
-0.602725
-0.581011
-0.56044
-0.540886
-0.521704
-0.502568
-0.483469
-0.464472
-0.44559
-0.426757
-0.407729
-0.388799
-0.37237
-0.61448
-0.607513
-0.585179
-0.557446
-0.52967
-0.502754
-0.476806
-0.451941
-0.428513
-0.406748
-0.38679
-0.368669
-0.352068
-0.336753
-0.32483
-0.632924
-0.622521
-0.590375
-0.55025
-0.510156
-0.472286
-0.437283
-0.405746
-0.377528
-0.352898
-0.33204
-0.314721
-0.300355
-0.288286
-0.279987
-0.674012
-0.653594
-0.601734
-0.543897
-0.48903
-0.437543
-0.392857
-0.354118
-0.321325
-0.295068
-0.274959
-0.260528
-0.250065
-0.242629
-0.23967
-0.780494
-0.741301
-0.635035
-0.541059
-0.461855
-0.391995
-0.337379
-0.297672
-0.261175
-0.233693
-0.216546
-0.20634
-0.20133
-0.19955
-0.200438
-0.892121
-0.789304
-0.563681
-0.488571
-0.423957
-0.3238
-0.277908
-0.230586
-0.180724
-0.160764
-0.14857
-0.150032
-0.151098
-0.157665
-0.164842
-1.38728
-1.19106
-0.575716
-0.523596
-0.37671
-0.217396
-0.175131
-0.190013
-0.126171
-0.102009
-0.104278
-0.106157
-0.113817
-0.12813
-0.146501
-8.80437
-8.1555
-7.56665
-6.94163
-6.2628
-5.52188
-4.73832
-3.93882
-3.15654
-2.4285
-1.78958
-1.26441
-0.860696
-0.568286
-0.371334
-0.256101
-1.17445
-1.32053
-1.36208
-1.43721
-1.52159
-1.58295
-1.60826
-1.58771
-1.51238
-1.3794
-1.19648
-0.982229
-0.761426
-0.566104
-0.81265
-1.18415
-1.02679
-0.995366
-1.02506
-1.05151
-1.06368
-1.06617
-1.05893
-1.03848
-0.999845
-0.937469
-0.847353
-0.730204
-0.603028
-2.16863
-2.1727
-1.91965
-1.85179
-1.79375
-1.71322
-1.6165
-1.50973
-1.39357
-1.26941
-1.14027
-1.00958
-0.879539
-0.74997
-0.627401
-2.07398
-1.78685
-1.62772
-1.60754
-1.56496
-1.50738
-1.44278
-1.37134
-1.2907
-1.19995
-1.09919
-0.989572
-0.873442
-0.753369
-0.637356
-1.16126
-0.865601
-0.875566
-0.898065
-0.897685
-0.899105
-0.90248
-0.902518
-0.895654
-0.879622
-0.852127
-0.811024
-0.755028
-0.683872
-0.602806
-0.608816
-0.518132
-0.570532
-0.575601
-0.580891
-0.596152
-0.615807
-0.634869
-0.650879
-0.661631
-0.664574
-0.657033
-0.636523
-0.600723
-0.550049
-0.558219
-0.553506
-0.570436
-0.558463
-0.557727
-0.562368
-0.569661
-0.577677
-0.585051
-0.590079
-0.590883
-0.585454
-0.571701
-0.547319
-0.509739
-0.581839
-0.588582
-0.584208
-0.573704
-0.570125
-0.566791
-0.56527
-0.564982
-0.564763
-0.563276
-0.559217
-0.551162
-0.537552
-0.516781
-0.486123
-0.583017
-0.584018
-0.574682
-0.566679
-0.560779
-0.554394
-0.549683
-0.546136
-0.542804
-0.538707
-0.532867
-0.524174
-0.511358
-0.493166
-0.466722
-0.578809
-0.57548
-0.565758
-0.556881
-0.549087
-0.541959
-0.535835
-0.530408
-0.525115
-0.519259
-0.512077
-0.502696
-0.490081
-0.473193
-0.449451
-0.570571
-0.565676
-0.556199
-0.546339
-0.538275
-0.531462
-0.524762
-0.5184
-0.512055
-0.505158
-0.49706
-0.487067
-0.474368
-0.458185
-0.436586
-0.556025
-0.551077
-0.542184
-0.532598
-0.525349
-0.519133
-0.51243
-0.505951
-0.499438
-0.492371
-0.484173
-0.474246
-0.46192
-0.44659
-0.426696
-0.539508
-0.535079
-0.526946
-0.518192
-0.511622
-0.505706
-0.499235
-0.492984
-0.486658
-0.479794
-0.471877
-0.462355
-0.450606
-0.436053
-0.417199
-0.525802
-0.52187
-0.514312
-0.506063
-0.499275
-0.493124
-0.486967
-0.480976
-0.474852
-0.468214
-0.460605
-0.451504
-0.440317
-0.42648
-0.408641
-0.515084
-0.511394
-0.504109
-0.495909
-0.488472
-0.482037
-0.476257
-0.470447
-0.464473
-0.458039
-0.45073
-0.442069
-0.431522
-0.4186
-0.402141
-0.505014
-0.501417
-0.494311
-0.486144
-0.478486
-0.472182
-0.466765
-0.461061
-0.455218
-0.448985
-0.44197
-0.433736
-0.4238
-0.411734
-0.396416
-0.494252
-0.49079
-0.48398
-0.476105
-0.468785
-0.462934
-0.457835
-0.452256
-0.446597
-0.440599
-0.433887
-0.426051
-0.416631
-0.40521
-0.390716
-0.483442
-0.480223
-0.473841
-0.466471
-0.45972
-0.454266
-0.449338
-0.443937
-0.438513
-0.432781
-0.426391
-0.418957
-0.410037
-0.399228
-0.385527
-0.473964
-0.471029
-0.465087
-0.458221
-0.451892
-0.446411
-0.4414
-0.436247
-0.431092
-0.425642
-0.419584
-0.412562
-0.404155
-0.393984
-0.38116
-0.466494
-0.463785
-0.458176
-0.451638
-0.445428
-0.439567
-0.434354
-0.429488
-0.424548
-0.41933
-0.413564
-0.406914
-0.398981
-0.389406
-0.377423
-0.46033
-0.457751
-0.452357
-0.445981
-0.439743
-0.433583
-0.428328
-0.423727
-0.41891
-0.413854
-0.408314
-0.401964
-0.394421
-0.385324
-0.374008
-0.454567
-0.452071
-0.446847
-0.440596
-0.434389
-0.428238
-0.423156
-0.418765
-0.414023
-0.409101
-0.40375
-0.397653
-0.390444
-0.381747
-0.370908
-0.448828
-0.44642
-0.441389
-0.435324
-0.429292
-0.423398
-0.418597
-0.414367
-0.409708
-0.404927
-0.39976
-0.393906
-0.387017
-0.378724
-0.368133
-0.443249
-0.440966
-0.436172
-0.430379
-0.424639
-0.419101
-0.414533
-0.410395
-0.405858
-0.401249
-0.39629
-0.390702
-0.384163
-0.376382
-0.366513
-0.438425
-0.436289
-0.431751
-0.426266
-0.420836
-0.415585
-0.411019
-0.406833
-0.402462
-0.398038
-0.393286
-0.387953
-0.381726
-0.374339
-0.364876
-0.434655
-0.432661
-0.428355
-0.423148
-0.417957
-0.412837
-0.408051
-0.403738
-0.399577
-0.395325
-0.390763
-0.385662
-0.379716
-0.372679
-0.363747
-0.431972
-0.430084
-0.42596
-0.420953
-0.415887
-0.410763
-0.40572
-0.40132
-0.397354
-0.393212
-0.388791
-0.383877
-0.378161
-0.371398
-0.362747
-0.429909
-0.428094
-0.424107
-0.419236
-0.41423
-0.409083
-0.403928
-0.399572
-0.395769
-0.391693
-0.387387
-0.382627
-0.377115
-0.370619
-0.36239
-0.428265
-0.426502
-0.422631
-0.417865
-0.412912
-0.407785
-0.402677
-0.398447
-0.394753
-0.390714
-0.386495
-0.381856
-0.376503
-0.370204
-0.362175
-0.426714
-0.425003
-0.421252
-0.416607
-0.411752
-0.406735
-0.401803
-0.397753
-0.394154
-0.390173
-0.386057
-0.381555
-0.376397
-0.370394
-0.363248
-0.425437
-0.423789
-0.42017
-0.41567
-0.41096
-0.406109
-0.401395
-0.397481
-0.393925
-0.390009
-0.385991
-0.381614
-0.376622
-0.370785
-0.363994
-0.424438
-0.422866
-0.419391
-0.415068
-0.410543
-0.405897
-0.401391
-0.397515
-0.393942
-0.390125
-0.386212
-0.381947
-0.377085
-0.371319
-0.364914
-0.424128
-0.422636
-0.419305
-0.415161
-0.410821
-0.406349
-0.401966
-0.397968
-0.394302
-0.390608
-0.386794
-0.382633
-0.377895
-0.372181
-0.365564
-0.424452
-0.423033
-0.419835
-0.415859
-0.411682
-0.407343
-0.403009
-0.398835
-0.39509
-0.391551
-0.387831
-0.383771
-0.37916
-0.373596
-0.366818
-0.425594
-0.424236
-0.42115
-0.417307
-0.413243
-0.408967
-0.404618
-0.400287
-0.396515
-0.393118
-0.389481
-0.385553
-0.381144
-0.375972
-0.370076
-0.42723
-0.425918
-0.422924
-0.419188
-0.415206
-0.410971
-0.406611
-0.402231
-0.398509
-0.395225
-0.391633
-0.38778
-0.383437
-0.378287
-0.372144
-0.42948
-0.428203
-0.425287
-0.421631
-0.417705
-0.413486
-0.409124
-0.404756
-0.401105
-0.397874
-0.394287
-0.390468
-0.386154
-0.381031
-0.375463
-0.432008
-0.430761
-0.42792
-0.424343
-0.420481
-0.416315
-0.41201
-0.407749
-0.404212
-0.40104
-0.397486
-0.393736
-0.389531
-0.384531
-0.379402
-0.435125
-0.433911
-0.431144
-0.427643
-0.423848
-0.419739
-0.415507
-0.411354
-0.407894
-0.404726
-0.401177
-0.397446
-0.39327
-0.388221
-0.382663
-0.438544
-0.437362
-0.434673
-0.431259
-0.427554
-0.423542
-0.419423
-0.415403
-0.41199
-0.408802
-0.405268
-0.401546
-0.397386
-0.392392
-0.386662
-0.442662
-0.441518
-0.438908
-0.435585
-0.431974
-0.428054
-0.424034
-0.420094
-0.416622
-0.41335
-0.40985
-0.40617
-0.402102
-0.397382
-0.392505
-0.44728
-0.44617
-0.443636
-0.440402
-0.43689
-0.433063
-0.429132
-0.425232
-0.42162
-0.418224
-0.414754
-0.411058
-0.406935
-0.402063
-0.396824
-0.452517
-0.451443
-0.448982
-0.445835
-0.442411
-0.438658
-0.43477
-0.430842
-0.427024
-0.423476
-0.420013
-0.416252
-0.412053
-0.407035
-0.402116
-0.458375
-0.457328
-0.454927
-0.451845
-0.448485
-0.444764
-0.440874
-0.436865
-0.43285
-0.429178
-0.425712
-0.421877
-0.417621
-0.412445
-0.406948
-0.464468
-0.463447
-0.461104
-0.458093
-0.454794
-0.451119
-0.447228
-0.44317
-0.439039
-0.435323
-0.431866
-0.427981
-0.4237
-0.418499
-0.412706
-0.471187
-0.470187
-0.467891
-0.464924
-0.461655
-0.457969
-0.454037
-0.449892
-0.445676
-0.44193
-0.438463
-0.434532
-0.430239
-0.425074
-0.418829
-0.47749
-0.476516
-0.474274
-0.471383
-0.468179
-0.46457
-0.460685
-0.456601
-0.452456
-0.448817
-0.445437
-0.441592
-0.437469
-0.432717
-0.427273
-0.484466
-0.483521
-0.481331
-0.478493
-0.475326
-0.471734
-0.467851
-0.463763
-0.459658
-0.456072
-0.45272
-0.448899
-0.444803
-0.440058
-0.433863
-0.490653
-0.489743
-0.487618
-0.484883
-0.481817
-0.478371
-0.474626
-0.470731
-0.466833
-0.463447
-0.460231
-0.456567
-0.452668
-0.448381
-0.444225
-0.497749
-0.496886
-0.494829
-0.492182
-0.48919
-0.485829
-0.482163
-0.478369
-0.474592
-0.471289
-0.468115
-0.464507
-0.46061
-0.455997
-0.450232
-0.504469
-0.503651
-0.501673
-0.499152
-0.496296
-0.493133
-0.489671
-0.486137
-0.482605
-0.479471
-0.476391
-0.472889
-0.468993
-0.464239
-0.458465
-0.512688
-0.511921
-0.510019
-0.507606
-0.504854
-0.501827
-0.498499
-0.495133
-0.491759
-0.488702
-0.485717
-0.482443
-0.478812
-0.474462
-0.46949
-0.521654
-0.52093
-0.519101
-0.516802
-0.514184
-0.51134
-0.508213
-0.505091
-0.50194
-0.499006
-0.496182
-0.493206
-0.489852
-0.485787
-0.481187
-0.532345
-0.531668
-0.529915
-0.527732
-0.525237
-0.522557
-0.519586
-0.516634
-0.513607
-0.510696
-0.507925
-0.505087
-0.501712
-0.497378
-0.492137
-0.545568
-0.544912
-0.543209
-0.541074
-0.538645
-0.536015
-0.533107
-0.53019
-0.52718
-0.524206
-0.521453
-0.518741
-0.515466
-0.51132
-0.50822
-0.560727
-0.560084
-0.558422
-0.556345
-0.553985
-0.551433
-0.548591
-0.545717
-0.5427
-0.539657
-0.536854
-0.534099
-0.530651
-0.525912
-0.520897
-0.579589
-0.578944
-0.577301
-0.575204
-0.572824
-0.570163
-0.567205
-0.56411
-0.560859
-0.557514
-0.554445
-0.551383
-0.54755
-0.542403
-0.53744
-0.600146
-0.599484
-0.597853
-0.595759
-0.593391
-0.590714
-0.58772
-0.584515
-0.5811
-0.577511
-0.574138
-0.570647
-0.566225
-0.56029
-0.553555
-0.624896
-0.624211
-0.622566
-0.620389
-0.617916
-0.614999
-0.61174
-0.608118
-0.604271
-0.600159
-0.596242
-0.59207
-0.586822
-0.579938
-0.57209
-0.650467
-0.649759
-0.648117
-0.645923
-0.643435
-0.640462
-0.637122
-0.633332
-0.629258
-0.624815
-0.620461
-0.61568
-0.609685
-0.601961
-0.59357
-0.679062
-0.678349
-0.676713
-0.674492
-0.671946
-0.668828
-0.665301
-0.661205
-0.656777
-0.651881
-0.646976
-0.641475
-0.634605
-0.62575
-0.615762
-0.708984
-0.708263
-0.70664
-0.704416
-0.701855
-0.698688
-0.695082
-0.690835
-0.68619
-0.680963
-0.675562
-0.669354
-0.661604
-0.651629
-0.640415
-0.74099
-0.740288
-0.738696
-0.736516
-0.733967
-0.730801
-0.727139
-0.722786
-0.717939
-0.712399
-0.706468
-0.699501
-0.690785
-0.679544
-0.666428
-0.775728
-0.775056
-0.773511
-0.771381
-0.768859
-0.765701
-0.762
-0.757549
-0.752504
-0.746624
-0.74008
-0.732224
-0.722353
-0.709568
-0.694453
-0.813301
-0.81267
-0.811187
-0.809158
-0.806711
-0.803668
-0.800009
-0.795584
-0.790397
-0.784199
-0.776947
-0.768034
-0.756715
-0.741905
-0.724297
-0.85719
-0.856605
-0.855178
-0.853202
-0.85076
-0.84768
-0.843895
-0.839242
-0.833642
-0.826792
-0.818443
-0.80802
-0.794707
-0.777127
-0.756516
-0.906866
-0.906326
-0.904965
-0.903083
-0.900694
-0.897677
-0.893831
-0.889025
-0.882972
-0.875321
-0.865551
-0.85312
-0.837116
-0.815837
-0.791322
-0.969624
-0.969127
-0.967819
-0.965949
-0.96346
-0.960203
-0.955886
-0.950313
-0.943047
-0.933623
-0.921285
-0.905486
-0.885247
-0.8586
-0.828296
-1.04249
-1.04202
-1.04073
-1.03884
-1.03623
-1.03272
-1.02787
-1.0214
-1.01261
-1.00084
-0.98502
-0.964506
-0.93823
-0.904067
-0.865116
-1.15044
-1.14999
-1.14874
-1.14665
-1.14341
-1.13866
-1.13175
-1.12209
-1.10871
-1.09069
-1.06681
-1.03654
-0.999181
-0.953122
-0.902131
-1.25173
-1.25125
-1.24975
-1.24732
-1.24365
-1.23818
-1.23
-1.21816
-1.20122
-1.17775
-1.14612
-1.10575
-1.05635
-0.997266
-0.931883
-1.53495
-1.53479
-1.53295
-1.52841
-1.51939
-1.50453
-1.48198
-1.44996
-1.40673
-1.35151
-1.28464
-1.20863
-1.12695
-1.04238
-0.959835
-1.52027
-1.51885
-1.51943
-1.51359
-1.50344
-1.48846
-1.46703
-1.43707
-1.39651
-1.3439
-1.27901
-1.20405
-1.12255
-1.03782
-0.954509
-3.00957
-3.0864
-3.0264
-2.94413
-2.84061
-2.70579
-2.53294
-2.3228
-2.083
-1.82843
-1.57947
-1.35789
-1.17831
-1.04085
-0.937785
15.6758
15.0162
14.1793
13.3661
12.4931
11.5304
10.4982
9.43047
8.36456
7.34202
6.40394
5.58262
4.89346
4.33211
3.89253
6.74359
5.90982
5.94834
6.06375
6.11003
6.11067
6.08246
6.01305
5.88561
5.68843
5.41839
5.08385
4.70512
4.3094
3.93663
4.60646
4.2942
4.51255
4.57723
4.58419
4.59083
4.59897
4.59655
4.57686
4.53469
4.46316
4.35394
4.2001
3.9995
3.76964
3.99375
3.98862
4.20814
4.22908
4.23662
4.25154
4.26249
4.25941
4.2383
4.19599
4.12984
4.03813
3.91944
3.7713
3.60004
3.36477
3.64588
3.78326
3.78623
3.80815
3.83647
3.86127
3.87873
3.88596
3.87772
3.84816
3.79237
3.70744
3.59196
3.4512
3.44894
3.74946
3.73739
3.71627
3.71631
3.71173
3.70102
3.68691
3.66943
3.64622
3.61368
3.56729
3.50211
3.41325
3.30026
3.60812
3.70359
3.64946
3.64393
3.63725
3.61845
3.5921
3.56144
3.52669
3.4872
3.44189
3.38893
3.32554
3.24766
3.15092
3.38858
3.39565
3.37767
3.38891
3.38745
3.3785
3.36428
3.34541
3.32148
3.29188
3.25562
3.2113
3.15717
3.09114
3.00914
3.10409
3.09883
3.10333
3.11367
3.11571
3.11611
3.1129
3.10568
3.09425
3.07808
3.05609
3.02671
2.98811
2.93896
2.879
2.8789
2.87853
2.88778
2.89492
2.89917
2.90335
2.90447
2.90234
2.8969
2.88778
2.87409
2.8545
2.82732
2.79092
2.74563
2.69447
2.6978
2.70702
2.71453
2.72074
2.72607
2.72907
2.72962
2.72754
2.72243
2.71357
2.69986
2.67977
2.65154
2.61598
2.53405
2.53887
2.54803
2.55712
2.56425
2.56967
2.57375
2.57606
2.57629
2.57409
2.56885
2.55961
2.54503
2.5233
2.49585
2.39643
2.40151
2.41045
2.41992
2.42674
2.43186
2.43647
2.4397
2.44128
2.44094
2.43824
2.43242
2.42237
2.40651
2.38695
2.27758
2.28229
2.29061
2.2994
2.30544
2.31025
2.31502
2.31861
2.32085
2.32155
2.32038
2.31672
2.30967
2.29765
2.28194
2.17045
2.17458
2.18218
2.19019
2.19596
2.20084
2.20559
2.2093
2.21188
2.2132
2.21296
2.21065
2.20549
2.19602
2.18296
2.07041
2.07414
2.0813
2.08904
2.0954
2.10074
2.10537
2.10916
2.11204
2.11387
2.11441
2.11325
2.1098
2.10301
2.0944
1.97728
1.98087
1.98786
1.99568
2.0027
2.00834
2.01279
2.01673
2.0199
2.02217
2.02336
2.02315
2.02103
2.01606
2.01015
1.89206
1.89558
1.90241
1.9102
1.91732
1.9228
1.92707
1.93113
1.9345
1.93706
1.93869
1.9391
1.93784
1.9339
1.92898
1.81441
1.81778
1.8243
1.83177
1.8385
1.84358
1.84767
1.85178
1.85523
1.85796
1.85988
1.86076
1.86024
1.85742
1.85414
1.74262
1.74574
1.75184
1.7588
1.76501
1.7698
1.77386
1.77794
1.7814
1.78422
1.78636
1.78763
1.78774
1.7859
1.78405
1.67464
1.67748
1.68316
1.68967
1.69554
1.70049
1.70475
1.70873
1.71214
1.71503
1.71732
1.71888
1.7195
1.71845
1.71765
1.60938
1.61201
1.6174
1.62364
1.62948
1.63488
1.63941
1.64324
1.64664
1.64958
1.65199
1.65377
1.65478
1.65431
1.65409
1.54709
1.54961
1.55482
1.56095
1.56686
1.57259
1.57722
1.5809
1.58434
1.58735
1.58988
1.59184
1.59311
1.59307
1.59309
1.48826
1.49071
1.49579
1.50182
1.50774
1.51348
1.51798
1.52156
1.52506
1.52813
1.53075
1.53286
1.53434
1.53471
1.53543
1.43292
1.43529
1.44019
1.44606
1.45183
1.45735
1.46162
1.46512
1.46866
1.47178
1.47448
1.47673
1.47844
1.47916
1.48141
1.38061
1.38286
1.38754
1.39316
1.39866
1.40385
1.40793
1.41139
1.41493
1.41804
1.4208
1.42317
1.42511
1.42614
1.42898
1.3304
1.33251
1.33694
1.34227
1.34747
1.35239
1.35647
1.36002
1.36349
1.36656
1.36931
1.37172
1.37374
1.37484
1.37778
1.28166
1.28363
1.28783
1.29288
1.29785
1.30265
1.30697
1.31069
1.31404
1.31706
1.3198
1.32223
1.32436
1.32567
1.32908
1.23409
1.23594
1.23997
1.24483
1.24968
1.2545
1.25912
1.26298
1.26621
1.26922
1.27198
1.27446
1.27674
1.27825
1.28182
1.18793
1.18972
1.19361
1.19834
1.20314
1.20802
1.2128
1.21668
1.2198
1.22283
1.22559
1.22811
1.23044
1.23207
1.23535
1.14319
1.14493
1.14872
1.15336
1.15813
1.16302
1.16781
1.1716
1.17465
1.1777
1.18046
1.18295
1.18523
1.18668
1.1887
1.10011
1.10181
1.10549
1.11002
1.11473
1.11954
1.1242
1.12785
1.13084
1.1339
1.13667
1.1392
1.14156
1.14329
1.14442
1.05848
1.06012
1.06368
1.06809
1.07267
1.07735
1.08181
1.08533
1.08831
1.0914
1.09421
1.09682
1.09936
1.10158
1.10282
1.01803
1.0196
1.02302
1.02727
1.03169
1.03618
1.04044
1.04389
1.0469
1.04996
1.05276
1.05538
1.05794
1.06039
1.06045
0.978295
0.979779
0.983062
0.987135
0.991368
0.995669
0.999778
1.0033
1.00639
1.00936
1.01208
1.01463
1.01705
1.01959
1.0195
0.939015
0.940424
0.943573
0.947478
0.951544
0.955705
0.959753
0.963466
0.966668
0.969534
0.972213
0.974748
0.977139
0.97982
0.981015
0.900204
0.901547
0.904579
0.908338
0.912275
0.91635
0.920406
0.92431
0.92759
0.93035
0.933015
0.935549
0.937935
0.940558
0.941449
0.861662
0.862957
0.865897
0.869554
0.873414
0.877471
0.881577
0.88562
0.888924
0.891617
0.894288
0.896809
0.899161
0.901653
0.90238
0.823755
0.825013
0.827875
0.831445
0.835247
0.839285
0.843411
0.847479
0.850741
0.853392
0.856101
0.858662
0.861109
0.863777
0.864351
0.786234
0.787464
0.790259
0.793764
0.797528
0.80156
0.805689
0.809733
0.81295
0.815614
0.818392
0.821028
0.823593
0.826564
0.827138
0.749382
0.750583
0.753308
0.756741
0.760446
0.764428
0.768501
0.772447
0.775586
0.778257
0.781081
0.783767
0.786382
0.789486
0.790423
0.712827
0.713998
0.716653
0.720016
0.723657
0.727581
0.731583
0.73543
0.738527
0.741234
0.744098
0.746829
0.749475
0.752575
0.753635
0.676807
0.67794
0.680517
0.683788
0.687336
0.691159
0.695049
0.698778
0.701866
0.704627
0.707509
0.710284
0.713018
0.71624
0.717078
0.640977
0.642069
0.644566
0.64774
0.651186
0.654901
0.658685
0.662332
0.665504
0.66837
0.671256
0.674084
0.67693
0.680422
0.681638
0.605221
0.606272
0.608691
0.611768
0.615109
0.618721
0.622415
0.626026
0.629346
0.632325
0.635168
0.638003
0.640847
0.6444
0.646037
0.56957
0.570581
0.572923
0.575897
0.579132
0.582637
0.586256
0.58985
0.593315
0.596362
0.599121
0.601926
0.604697
0.608053
0.609779
0.53369
0.534667
0.536943
0.539836
0.542993
0.546437
0.550033
0.553667
0.557274
0.560379
0.563095
0.565937
0.568759
0.572155
0.574023
0.497855
0.498803
0.501019
0.503835
0.506921
0.510308
0.513889
0.517549
0.521235
0.524357
0.527067
0.529989
0.532946
0.536587
0.538921
0.461631
0.462556
0.464722
0.467484
0.470527
0.473894
0.47749
0.481195
0.484927
0.488058
0.490793
0.493801
0.496874
0.500706
0.50327
0.425264
0.426167
0.428284
0.430987
0.433981
0.43731
0.440891
0.444589
0.448295
0.45139
0.454137
0.457204
0.460367
0.46461
0.468722
0.388327
0.389212
0.391284
0.393941
0.3969
0.400206
0.403774
0.407458
0.411117
0.414167
0.416915
0.419988
0.423062
0.426856
0.433142
0.35105
0.351914
0.35394
0.356543
0.359453
0.362713
0.366239
0.369871
0.373454
0.37646
0.379225
0.382352
0.385539
0.389046
0.396433
0.313181
0.314023
0.316001
0.31855
0.321411
0.324623
0.328101
0.33168
0.335197
0.338197
0.341012
0.344189
0.347523
0.350794
0.357806
0.274707
0.275525
0.277452
0.279942
0.282742
0.285892
0.289306
0.292821
0.296282
0.299329
0.302251
0.305521
0.309136
0.31281
0.320676
0.235356
0.23615
0.238025
0.240453
0.243191
0.246274
0.249623
0.25308
0.256508
0.259654
0.262705
0.266027
0.269771
0.273469
0.281213
0.194992
0.195759
0.197582
0.199943
0.202612
0.205623
0.208902
0.212305
0.215722
0.219007
0.222192
0.225549
0.229417
0.233233
0.240383
0.153444
0.154184
0.155954
0.158248
0.160846
0.163784
0.167002
0.170374
0.17382
0.177288
0.180644
0.184102
0.188214
0.192495
0.200007
0.1104
0.111116
0.112839
0.115076
0.117617
0.120507
0.123696
0.127083
0.130614
0.134302
0.137873
0.141535
0.14603
0.151007
0.159323
0.0657677
0.0664601
0.0681369
0.0703139
0.0727992
0.0756384
0.0788049
0.0822189
0.0858472
0.0897335
0.0935102
0.0974088
0.102295
0.107896
0.116902
0.0190074
0.0196798
0.0213154
0.0234466
0.025892
0.0287105
0.0318852
0.0353621
0.0391133
0.0431928
0.0471796
0.0513588
0.056672
0.0629294
0.0730968
-0.0299527
-0.0292996
-0.0277052
-0.0256228
-0.0232184
-0.020427
-0.0172456
-0.0137115
-0.00984232
-0.00558838
-0.00137398
0.00314879
0.00896626
0.0158971
0.0275274
-0.0818347
-0.0811952
-0.0796326
-0.0775757
-0.0751841
-0.0723739
-0.06914
-0.0654948
-0.0614605
-0.0569863
-0.0524741
-0.0475007
-0.0410461
-0.0333497
-0.0199595
-0.136572
-0.135949
-0.134422
-0.132403
-0.130034
-0.127225
-0.123952
-0.120213
-0.116015
-0.111306
-0.106429
-0.100887
-0.0936173
-0.0850073
-0.0696913
-0.195126
-0.194517
-0.193024
-0.191029
-0.188665
-0.185823
-0.182472
-0.178585
-0.174159
-0.169119
-0.163734
-0.157428
-0.149059
-0.139159
-0.122056
-0.258016
-0.257423
-0.255965
-0.253998
-0.251638
-0.248762
-0.245319
-0.241257
-0.23654
-0.231057
-0.224965
-0.217604
-0.207708
-0.195733
-0.175618
-0.326498
-0.32592
-0.324494
-0.322543
-0.320164
-0.317216
-0.313626
-0.309304
-0.304177
-0.298072
-0.291013
-0.282266
-0.270471
-0.256021
-0.232818
-0.401953
-0.401392
-0.400003
-0.398067
-0.395658
-0.392611
-0.38882
-0.384144
-0.378448
-0.371471
-0.363071
-0.352454
-0.338175
-0.320504
-0.293347
-0.48593
-0.485387
-0.484028
-0.482095
-0.479627
-0.476428
-0.472342
-0.467162
-0.460657
-0.452441
-0.442153
-0.428934
-0.411236
-0.389132
-0.356497
-0.582997
-0.582469
-0.581142
-0.57918
-0.57657
-0.573058
-0.568414
-0.562319
-0.554402
-0.544102
-0.530797
-0.513582
-0.490849
-0.462491
-0.422613
-0.691989
-0.691475
-0.690146
-0.688114
-0.685314
-0.681418
-0.67608
-0.668827
-0.65907
-0.645986
-0.6286
-0.605902
-0.5762
-0.539166
-0.487001
-0.836764
-0.83626
-0.834962
-0.832704
-0.829227
-0.824024
-0.816505
-0.805905
-0.791307
-0.771592
-0.745557
-0.712383
-0.670845
-0.621751
-0.556312
-0.977196
-0.976681
-0.975141
-0.972546
-0.968611
-0.962618
-0.953692
-0.940679
-0.922152
-0.896445
-0.861883
-0.817673
-0.763031
-0.700434
-0.622787
-1.30238
-1.30212
-1.30018
-1.29539
-1.28594
-1.27032
-1.24664
-1.2129
-1.1673
-1.10883
-1.03772
-0.9564
-0.867615
-0.776974
-0.681979
-1.33757
-1.33627
-1.3369
-1.33083
-1.32012
-1.30407
-1.2809
-1.24827
-1.20393
-1.14618
-1.07467
-0.991617
-0.899834
-0.804553
-0.709231
-2.88453
-2.96098
-2.90043
-2.81727
-2.71181
-2.57363
-2.39577
-2.1789
-1.93083
-1.66687
-1.40786
-1.17639
-0.985975
-0.835926
-0.717284
0.331806
1.22813
-0.370076
-0.0641493
0.10318
-0.53636
0.12874
1.93371
0.55223
0.331237
0.122246
1.24692
0.481963
-0.0975264
0.0194407
1.47592
-0.15396
-2.17364
-0.298991
0.270459
1.18447
0.504906
1.54862
0.826922
0.760682
2.35967
1.85956
0.00565307
1.1768
-0.159241
-6.70508
0.363362
-0.549283
-0.258288
1.72499
1.4301
0.463237
-0.874936
0.914156
1.9315
0.884394
-0.342278
0.716622
1.02566
0.751849
0.22011
0.737183
0.608164
-0.386382
1.78048
1.00153
0.156363
0.017806
2.70119
0.879053
3.4965
0.677849
-0.766484
0.693357
0.744524
1.68806
-1.15779
0.282206
-0.234087
1.47998
1.38048
0.142722
4.75519
0.416587
1.99677
1.19911
0.532813
0.330602
-0.355484
1.02304
0.363942
0.471895
1.0522
-0.321747
1.76318
1.41586
0.683401
0.700185
-0.1922
3.47887
0.100263
0.858869
0.461334
-0.336007
2.17304
0.464654
0.488303
-0.121718
1.07736
0.0721376
1.00169
0.519732
1.5275
0.0786754
0.688822
1.90751
1.20822
1.1462
0.418603
-0.30393
-0.14537
0.918516
0.223099
0.548121
0.678028