/*--------------------------------*- C++ -*----------------------------------*\
| =========                 |                                                 |
| \\      /  F ield         | OpenFOAM: The Open Source CFD Toolbox           |
|  \\    /   O peration     | Version:  2.3.0                                 |
|   \\  /    A nd           | Web:      www.OpenFOAM.org                      |
|    \\/     M anipulation  |                                                 |
\*---------------------------------------------------------------------------*/
FoamFile
{
    version     2.0;
    format      ascii;
    class       volVectorField;
    location    "500";
    object      U;
}
// * * * * * * * * * * * * * * * * * * * * * * * * * * * * * * * * * * * * * //

dimensions      [0 1 -1 0 0 0 0];

internalField   nonuniform List<vector> 
7991
(
(20.079 0.143877 -4.12647e-23)
(20.0815 0.157508 -4.42023e-22)
(20.0847 0.173457 1.93202e-21)
(20.0888 0.192313 -1.45121e-21)
(20.0936 0.213648 -1.02601e-20)
(20.0983 0.236573 2.53168e-20)
(20.1019 0.260009 -1.4781e-20)
(20.1032 0.282927 0)
(20.1011 0.304476 0)
(20.095 0.324013 -1.6788e-20)
(20.0844 0.341102 1.55524e-20)
(20.0691 0.355467 -1.97219e-20)
(20.0492 0.366851 1.81387e-20)
(20.0243 0.372394 0)
(19.9953 0.374959 0)
(20.065 0.141959 0)
(20.0625 0.150581 0)
(20.0588 0.158881 0)
(20.0536 0.167202 -3.7739e-21)
(20.0472 0.17572 7.84143e-21)
(20.0399 0.184504 7.03803e-22)
(20.0318 0.193461 -9.87287e-21)
(20.0233 0.202353 5.0831e-21)
(20.0145 0.210856 -7.18907e-21)
(20.0055 0.218632 -1.48844e-21)
(19.9964 0.225387 1.66787e-20)
(19.9872 0.230896 -1.34405e-20)
(19.9781 0.235008 4.63169e-21)
(19.9691 0.237613 0)
(19.9608 0.238603 1.10816e-35)
(20.0554 0.140251 0)
(20.0524 0.147495 0)
(20.0489 0.154479 8.23251e-21)
(20.045 0.161014 -8.0577e-21)
(20.0406 0.166925 -1.05482e-20)
(20.0355 0.172062 -1.46031e-21)
(20.03 0.176358 -1.41927e-21)
(20.024 0.179802 1.17285e-20)
(20.0178 0.182422 0)
(20.0113 0.184265 0)
(20.0047 0.185383 0)
(19.9982 0.185829 0)
(19.9918 0.18566 0)
(19.9857 0.184937 0)
(19.9797 0.18371 0)
(20.0475 0.135723 0)
(20.0436 0.140612 -4.23492e-21)
(20.0394 0.145164 4.18601e-21)
(20.0348 0.149224 0)
(20.03 0.152808 -1.06499e-20)
(20.025 0.155896 1.02308e-20)
(20.02 0.158478 -1.16405e-20)
(20.015 0.160553 2.31536e-20)
(20.0101 0.16213 -5.30968e-21)
(20.0053 0.163228 -5.91876e-21)
(20.0006 0.163872 0)
(19.9961 0.16409 0)
(19.9917 0.163916 0)
(19.9876 0.163384 -1.70524e-21)
(19.9837 0.162524 1.66985e-21)
(20.0422 0.131508 0)
(20.0386 0.135006 0)
(20.0348 0.138284 5.27393e-21)
(20.031 0.141082 4.63089e-22)
(20.027 0.14344 -5.44801e-21)
(20.023 0.145366 -6.15086e-21)
(20.019 0.146875 5.93683e-21)
(20.015 0.147993 0)
(20.011 0.148746 0)
(20.0071 0.14916 0)
(20.0034 0.149262 0)
(19.9997 0.149077 0)
(19.9962 0.148629 -3.62828e-21)
(19.9927 0.147942 3.55294e-21)
(19.9895 0.147034 -6.70837e-36)
(20.0383 0.12736 0)
(20.0349 0.129798 -2.61953e-21)
(20.0315 0.132118 2.58389e-21)
(20.028 0.134047 0)
(20.0245 0.135639 0)
(20.021 0.136912 6.26888e-21)
(20.0176 0.137884 -1.25569e-20)
(20.0142 0.138574 -3.3917e-22)
(20.0108 0.138998 -3.25612e-22)
(20.0076 0.139175 -3.12373e-22)
(20.0044 0.139119 6.84349e-21)
(20.0014 0.138846 0)
(19.9984 0.13837 0)
(19.9955 0.137704 -1.91626e-21)
(19.9927 0.136862 1.90594e-21)
(20.0354 0.123714 0)
(20.0324 0.125418 0)
(20.0294 0.127091 0)
(20.0264 0.12847 0)
(20.0234 0.12959 0)
(20.0204 0.130463 0)
(20.0174 0.131106 0)
(20.0145 0.13153 0)
(20.0116 0.131749 0)
(20.0088 0.131773 0)
(20.0061 0.131612 0)
(20.0034 0.131274 0)
(20.0007 0.130768 0)
(19.9982 0.130104 0)
(19.9957 0.129289 0)
(20.0334 0.12029 -1.36066e-21)
(20.0308 0.121619 1.34712e-21)
(20.0281 0.12285 0)
(20.0254 0.123866 0)
(20.0227 0.12468 0)
(20.0201 0.125301 0)
(20.0175 0.125741 -6.79367e-21)
(20.0149 0.126007 6.72206e-21)
(20.0123 0.126108 0)
(20.0098 0.126049 0)
(20.0073 0.125835 -3.83928e-21)
(20.0049 0.12547 3.82943e-21)
(20.0025 0.124959 0)
(20.0002 0.124307 0)
(19.9979 0.12352 3.84696e-36)
(20.032 0.117162 1.39987e-21)
(20.0296 0.118337 -1.39341e-21)
(20.0272 0.119286 0)
(20.0248 0.120064 0)
(20.0224 0.120673 0)
(20.02 0.121127 -3.35541e-21)
(20.0177 0.121432 6.79488e-21)
(20.0153 0.121595 -7.02309e-21)
(20.013 0.12162 -1.29705e-22)
(20.0107 0.121508 3.69137e-21)
(20.0085 0.121262 3.94786e-21)
(20.0062 0.120882 -3.95406e-21)
(20.0041 0.12037 2.10603e-21)
(20.0019 0.119729 -1.02574e-21)
(19.9998 0.118964 -1.09131e-21)
(20.0308 0.114643 0)
(20.0287 0.115587 0)
(20.0265 0.116302 0)
(20.0244 0.116897 3.19224e-21)
(20.0223 0.117359 -3.17101e-21)
(20.0201 0.117694 0)
(20.018 0.117905 0)
(20.0158 0.117997 3.63766e-21)
(20.0137 0.11797 -3.64041e-21)
(20.0116 0.117824 -3.89543e-21)
(20.0095 0.117559 5.92505e-21)
(20.0074 0.117173 -2.02466e-21)
(20.0053 0.116664 0)
(20.0033 0.116034 1.11305e-21)
(20.0014 0.115285 -1.11977e-21)
(20.03 0.112366 -7.30232e-22)
(20.028 0.11319 2.24159e-21)
(20.0261 0.113755 -1.50607e-21)
(20.0242 0.114223 3.22666e-21)
(20.0222 0.114582 -3.21406e-21)
(20.0203 0.114832 3.43948e-21)
(20.0183 0.114976 -3.43904e-21)
(20.0163 0.115017 0)
(20.0143 0.114952 0)
(20.0123 0.114781 -1.97242e-21)
(20.0103 0.114506 1.98326e-21)
(20.0084 0.114119 0)
(20.0064 0.113617 0)
(20.0046 0.112997 0)
(20.0027 0.112261 0)
(20.0293 0.110447 0)
(20.0276 0.111121 0)
(20.0258 0.111574 -1.57645e-21)
(20.0241 0.111947 3.19449e-21)
(20.0223 0.112233 -1.62069e-21)
(20.0205 0.112421 0)
(20.0186 0.112514 0)
(20.0167 0.112518 0)
(20.0149 0.112425 1.91371e-21)
(20.013 0.112234 -1.92469e-21)
(20.0111 0.111952 -2.0512e-21)
(20.0092 0.11157 2.06516e-21)
(20.0074 0.111077 0)
(20.0056 0.110465 0)
(20.0039 0.109734 0)
(20.0288 0.108847 0)
(20.0272 0.109327 0)
(20.0257 0.109692 1.58651e-21)
(20.024 0.109983 -1.58097e-21)
(20.0224 0.110222 -1.68005e-21)
(20.0207 0.110378 3.41322e-21)
(20.0189 0.110432 -1.73638e-21)
(20.0171 0.110408 1.84865e-21)
(20.0154 0.110287 -1.8581e-21)
(20.0135 0.110077 0)
(20.0117 0.109793 2.04628e-21)
(20.0099 0.109419 -2.06016e-21)
(20.0082 0.108937 1.09391e-21)
(20.0065 0.108334 -1.10104e-21)
(20.0048 0.107593 0)
(20.0283 0.107302 0)
(20.0269 0.107724 0)
(20.0255 0.108063 0)
(20.0239 0.108266 -1.68015e-21)
(20.0224 0.10848 3.38e-21)
(20.0208 0.108641 -1.62687e-21)
(20.0192 0.108655 0)
(20.0174 0.108611 0)
(20.0157 0.108472 0)
(20.014 0.108232 0)
(20.0122 0.107939 0)
(20.0104 0.107572 1.043e-21)
(20.0088 0.107103 -1.04545e-21)
(20.0072 0.106537 -2.72785e-22)
(20.0056 0.105778 2.79954e-22)
(19.951 0.340847 0)
(19.9076 0.325912 0)
(19.8715 0.307357 3.59589e-20)
(19.8427 0.291196 -3.9141e-20)
(19.822 0.273864 4.30873e-20)
(19.8096 0.254744 -4.65538e-20)
(19.8052 0.233842 0)
(19.8082 0.211421 0)
(19.8171 0.187919 -1.08125e-19)
(19.8303 0.164038 2.20608e-19)
(19.8459 0.140741 -1.1098e-19)
(19.8621 0.119124 -5.25238e-20)
(19.8777 0.100149 1.01442e-19)
(19.892 0.0844196 -2.52858e-20)
(19.9051 0.0708849 -2.18343e-20)
(19.9529 0.238036 -1.11158e-35)
(19.9455 0.235455 0)
(19.9386 0.230415 9.91337e-21)
(19.932 0.223057 -3.39452e-20)
(19.926 0.213481 5.19474e-20)
(19.9207 0.201905 1.51513e-21)
(19.9162 0.188679 -3.28548e-20)
(19.9126 0.17429 3.73677e-20)
(19.9099 0.159324 -7.98717e-20)
(19.9082 0.14439 1.46581e-22)
(19.9078 0.130026 8.71067e-20)
(19.9086 0.11659 -4.44111e-20)
(19.9111 0.104209 0)
(19.9153 0.0928514 0)
(19.921 0.0815848 0)
(19.974 0.182039 0)
(19.9681 0.179837 0)
(19.9622 0.176983 0)
(19.9563 0.173455 0)
(19.9505 0.169217 0)
(19.945 0.164239 0)
(19.94 0.158501 0)
(19.9355 0.151995 2.76518e-20)
(19.932 0.144723 5.97907e-22)
(19.9294 0.136706 4.94516e-22)
(19.9279 0.127997 -3.33462e-20)
(19.9276 0.118707 -3.49753e-20)
(19.9286 0.109026 3.57328e-20)
(19.9306 0.0992332 0)
(19.9337 0.089036 0)
(19.9799 0.16135 1.82846e-21)
(19.9761 0.159802 -1.87129e-21)
(19.9723 0.157801 0)
(19.9684 0.155312 0)
(19.9647 0.152296 0)
(19.961 0.148718 -1.05798e-20)
(19.9575 0.14455 -1.17646e-20)
(19.9543 0.139776 4.84593e-20)
(19.9513 0.134394 -2.57169e-20)
(19.9487 0.128423 2.80339e-20)
(19.9466 0.121903 -2.9188e-20)
(19.9451 0.114904 0)
(19.9443 0.107513 1.58407e-20)
(19.9443 0.0998349 -1.6025e-20)
(19.9452 0.0915579 0)
(19.9863 0.145913 6.72118e-36)
(19.9831 0.144542 4.09442e-21)
(19.9799 0.142877 -4.18163e-21)
(19.9768 0.140899 0)
(19.9736 0.138581 0)
(19.9705 0.135902 0)
(19.9675 0.132836 0)
(19.9647 0.129361 0)
(19.962 0.125456 1.20658e-20)
(19.9597 0.121106 -1.25029e-20)
(19.9576 0.116303 -1.33859e-20)
(19.956 0.11105 -1.66376e-22)
(19.9548 0.105369 1.42964e-20)
(19.9542 0.0992961 0)
(19.9542 0.0925765 0)
(19.99 0.135844 2.03483e-21)
(19.9874 0.134625 -2.04956e-21)
(19.9847 0.133176 0)
(19.982 0.131486 0)
(19.9794 0.129539 9.58516e-21)
(19.9769 0.127319 2.52486e-22)
(19.9744 0.12481 2.48662e-22)
(19.972 0.121997 2.42204e-22)
(19.9698 0.118863 -2.27559e-20)
(19.9677 0.115393 1.18097e-20)
(19.9658 0.111576 0)
(19.9642 0.107405 0)
(19.9629 0.102886 6.72975e-21)
(19.962 0.0980347 -6.82277e-21)
(19.9614 0.0926969 0)
(19.9933 0.128323 0)
(19.9909 0.127191 0)
(19.9885 0.125873 0)
(19.9862 0.124362 0)
(19.9839 0.122651 0)
(19.9816 0.120729 0)
(19.9795 0.118588 0)
(19.9774 0.116215 0)
(19.9754 0.1136 0)
(19.9735 0.11073 0)
(19.9719 0.107592 0)
(19.9703 0.104176 0)
(19.9691 0.10047 0)
(19.968 0.0964654 0)
(19.9673 0.0920092 0)
(19.9957 0.1226 -3.85294e-36)
(19.9936 0.121533 0)
(19.9914 0.120309 0)
(19.9893 0.118924 4.80553e-21)
(19.9872 0.117375 -4.81801e-21)
(19.9852 0.115655 0)
(19.9833 0.11376 0)
(19.9814 0.111684 1.06729e-20)
(19.9797 0.109419 -1.07871e-20)
(19.978 0.106958 0)
(19.9765 0.104293 0)
(19.9751 0.101413 0)
(19.9739 0.0983082 0)
(19.9729 0.0949762 3.1282e-21)
(19.972 0.0913473 -3.11768e-21)
(19.9978 0.118075 -1.15162e-21)
(19.9957 0.117057 -1.20505e-21)
(19.9938 0.115902 2.34638e-21)
(19.9918 0.114609 -4.90241e-21)
(19.9899 0.113178 4.8948e-21)
(19.9881 0.111604 5.10093e-21)
(19.9863 0.109887 9.81108e-23)
(19.9846 0.108024 -1.05368e-20)
(19.983 0.106012 1.07749e-20)
(19.9815 0.103849 -5.47183e-21)
(19.9801 0.101527 0)
(19.9789 0.0990402 0)
(19.9777 0.0963814 0)
(19.9767 0.0935512 -3.027e-21)
(19.9759 0.0905088 2.97847e-21)
(19.9994 0.114421 -1.1792e-21)
(19.9975 0.11344 1.17369e-21)
(19.9957 0.112339 0)
(19.9939 0.111118 -2.48733e-21)
(19.9921 0.109777 7.53159e-21)
(19.9904 0.108313 -5.0373e-21)
(19.9888 0.106728 -5.21664e-21)
(19.9872 0.105023 5.21278e-21)
(19.9857 0.1032 0)
(19.9844 0.101258 0)
(19.9831 0.0991946 -5.58739e-21)
(19.9819 0.0970046 5.6249e-21)
(19.9809 0.0946831 0)
(19.9799 0.0922313 0)
(19.9791 0.0896165 0)
(20.0009 0.111414 0)
(19.999 0.110463 0)
(19.9973 0.109405 0)
(19.9955 0.108243 0)
(19.9939 0.106974 2.54023e-21)
(19.9923 0.105594 -2.52636e-21)
(19.9908 0.10411 0)
(19.9893 0.102526 0)
(19.988 0.100848 -5.35014e-21)
(19.9867 0.099077 5.3509e-21)
(19.9855 0.0972124 -5.50522e-21)
(19.9844 0.0952522 5.52688e-21)
(19.9835 0.0931935 -2.83855e-21)
(19.9826 0.0910391 4.29537e-21)
(19.9818 0.0887737 -1.44444e-21)
(20.0021 0.108901 0)
(20.0003 0.107977 0)
(19.9986 0.106957 0)
(19.997 0.105845 2.50428e-21)
(19.9954 0.104634 -2.48735e-21)
(19.9939 0.103318 -2.56474e-21)
(19.9925 0.101911 2.55011e-21)
(19.9911 0.100421 0)
(19.9898 0.0988568 0)
(19.9886 0.0972229 0)
(19.9875 0.0955145 -2.71472e-21)
(19.9865 0.0937362 5.47118e-21)
(19.9856 0.0918859 -2.76135e-21)
(19.9848 0.0899599 0)
(19.9841 0.0879504 0)
(20.0031 0.106774 0)
(20.0014 0.105877 -1.20963e-21)
(19.9998 0.104892 1.20182e-21)
(19.9982 0.103826 -2.48517e-21)
(19.9967 0.102652 2.4684e-21)
(19.9953 0.101386 0)
(19.9939 0.10004 -2.56569e-21)
(19.9926 0.098623 2.55267e-21)
(19.9914 0.097154 -2.61638e-21)
(19.9903 0.0956309 5.25409e-21)
(19.9892 0.0940423 -2.6425e-21)
(19.9883 0.0924185 -2.70602e-21)
(19.9875 0.0907468 2.7155e-21)
(19.9867 0.0890114 0)
(19.986 0.0872416 0)
(20.0039 0.10499 3.01574e-22)
(20.0022 0.104115 -2.98751e-22)
(20.0007 0.103141 -1.21782e-21)
(19.9991 0.102125 1.16925e-21)
(19.9977 0.100978 0)
(19.9964 0.0997656 0)
(19.9951 0.0984536 0)
(19.9939 0.097073 0)
(19.9927 0.0956886 0)
(19.9917 0.094251 -2.6154e-21)
(19.9907 0.0927319 5.37853e-21)
(19.9899 0.0912403 -2.69144e-21)
(19.9891 0.0897297 0)
(19.9884 0.0881393 0)
(19.9877 0.0865468 0)
(20.0666 0.0100344 -8.96093e-21)
(20.026 0.00738182 1.00366e-20)
(19.953 0.00413931 0)
(19.8306 0.000266814 0)
(19.6408 -0.00453428 0)
(19.3741 -0.0102039 0)
(19.0298 -0.0166939 -7.96077e-22)
(18.6117 -0.024036 8.84078e-22)
(18.1233 -0.0321727 0)
(17.5637 -0.0409878 0)
(16.9218 -0.0507403 -1.48013e-20)
(16.1663 -0.0615627 1.75093e-20)
(15.2273 -0.0752642 -2.90901e-21)
(13.9896 -0.0652904 3.80402e-21)
(12.6267 -0.0789747 -2.65452e-23)
(20.0645 0.00797502 0)
(20.029 0.00580975 -2.18796e-20)
(19.9684 0.00283607 2.41278e-20)
(19.8699 -0.00139555 0)
(19.7196 -0.00729773 0)
(19.5073 -0.0146522 0)
(19.2283 -0.0230132 0)
(18.8811 -0.0319251 6.35292e-20)
(18.4643 -0.0409895 -7.03926e-20)
(17.9724 -0.0499575 8.74354e-20)
(17.3908 -0.0591148 3.05288e-21)
(16.6851 -0.0686095 -1.19136e-19)
(15.7922 -0.080484 7.42109e-20)
(14.6623 -0.0763104 -4.60227e-20)
(13.5863 -0.0484069 -6.04259e-20)
(20.0631 0.00390078 0)
(20.0319 0.000242363 0)
(19.9805 -0.00441139 3.02189e-20)
(19.899 -0.010116 -3.29311e-20)
(19.7759 -0.0167577 -4.32165e-20)
(19.6014 -0.0238785 -3.35854e-21)
(19.3683 -0.0310871 -2.8259e-21)
(19.0718 -0.0381832 6.29865e-20)
(18.7066 -0.0451345 0)
(18.2636 -0.0520544 0)
(17.7249 -0.0594654 0)
(17.0541 -0.0674837 0)
(16.1943 -0.076116 0)
(15.1274 -0.0725283 0)
(14.1651 -0.034576 0)
(20.0599 0.000636146 0)
(20.0308 -0.00334222 -1.14087e-20)
(19.9846 -0.0079355 1.23686e-20)
(19.9136 -0.0131298 0)
(19.8088 -0.0188441 -3.18904e-20)
(19.661 -0.024842 3.44659e-20)
(19.4619 -0.030941 -3.80708e-20)
(19.2041 -0.037065 8.29337e-20)
(18.8792 -0.0432432 -2.26508e-20)
(18.4749 -0.0496195 -2.51616e-20)
(17.9702 -0.056678 0)
(17.327 -0.0645562 0)
(16.4918 -0.0717697 0)
(15.4612 -0.0675861 -1.17081e-20)
(14.5479 -0.0288358 1.42216e-20)
(20.0559 -0.00103593 0)
(20.0287 -0.00464341 0)
(19.9871 -0.00867998 1.10198e-20)
(19.925 -0.0132047 1.36362e-22)
(19.8351 -0.018208 1.19084e-22)
(19.7087 -0.0235565 -2.79782e-20)
(19.537 -0.0291079 1.51344e-20)
(19.3106 -0.0347794 -1.65809e-20)
(19.0186 -0.0405919 -8.65875e-23)
(18.6464 -0.0466991 1.98902e-20)
(18.1703 -0.053539 0)
(17.5507 -0.0613059 0)
(16.7354 -0.067887 -1.48614e-20)
(15.7274 -0.0632105 1.75973e-20)
(14.838 -0.0257204 0)
(20.0527 -0.00227578 0)
(20.0276 -0.00545171 0)
(19.9902 -0.00911554 1.03767e-20)
(19.9358 -0.0132213 -2.23712e-20)
(19.8578 -0.0177347 2.43642e-20)
(19.7484 -0.0225743 2.16205e-22)
(19.5982 -0.027646 -2.88632e-20)
(19.397 -0.0328972 1.56418e-20)
(19.1321 -0.0383675 -1.72383e-20)
(18.7867 -0.0442298 3.77475e-20)
(18.335 -0.0508813 -2.08772e-20)
(17.736 -0.0585182 0)
(16.9374 -0.0648133 0)
(15.9446 -0.0598831 0)
(15.0674 -0.0236903 0)
(20.05 -0.00302512 0)
(20.0267 -0.00596148 0)
(19.9929 -0.00940925 0)
(19.9446 -0.0131935 0)
(19.8759 -0.0173093 0)
(19.7795 -0.0217428 0)
(19.6464 -0.0264533 0)
(19.4654 -0.0314156 0)
(19.2228 -0.0366741 0)
(18.9 -0.0423995 0)
(18.4695 -0.0489474 0)
(17.8886 -0.0564779 0)
(17.1043 -0.0626101 0)
(16.1223 -0.0575327 0)
(15.2514 -0.0222683 0)
(20.0476 -0.00366022 0)
(20.0257 -0.00621147 4.26437e-21)
(19.9949 -0.00942831 -4.49078e-21)
(19.9513 -0.0129681 9.7561e-21)
(19.8899 -0.0168266 1.67076e-22)
(19.804 -0.0210253 -2.23695e-20)
(19.6845 -0.0255492 -2.22588e-22)
(19.5201 -0.0303833 -2.55374e-22)
(19.2961 -0.0355641 2.15272e-20)
(18.9927 -0.0412458 1.699e-22)
(18.5808 -0.0477472 -8.72743e-21)
(18.016 -0.0551881 1.00929e-20)
(17.2442 -0.0611896 -1.70911e-20)
(16.2704 -0.0559804 6.61532e-21)
(15.4024 -0.0213028 0)
(20.045 -0.00351517 1.88846e-21)
(20.0246 -0.00605642 -1.98494e-21)
(19.9963 -0.00920689 0)
(19.9566 -0.0126265 0)
(19.9012 -0.0163804 0)
(19.8236 -0.0205129 -5.12871e-21)
(19.7151 -0.0250179 1.10045e-20)
(19.5644 -0.029879 -1.20397e-20)
(19.3562 -0.0351162 -2.26158e-22)
(19.0695 -0.0408603 7.25024e-21)
(18.6739 -0.047379 0)
(18.1237 -0.0547122 0)
(17.3633 -0.0604934 5.51709e-21)
(16.3962 -0.0550275 -3.07958e-21)
(15.5297 -0.0205767 -3.59339e-21)
(20.0428 -0.00358607 0)
(20.0236 -0.00587245 0)
(19.9973 -0.00885932 0)
(19.9609 -0.0121885 4.02999e-21)
(19.9103 -0.0159189 -4.21462e-21)
(19.8394 -0.0200969 0)
(19.74 -0.0247212 0)
(19.6007 -0.0297609 5.58997e-21)
(19.4059 -0.0352073 -5.94063e-21)
(19.1339 -0.0411551 -7.0783e-21)
(18.7531 -0.0478503 1.16636e-20)
(18.2164 -0.0552847 -4.39945e-21)
(17.4664 -0.06099 0)
(16.5051 -0.0551766 3.14775e-21)
(15.6388 -0.0205696 -3.53581e-21)
(20.0407 -0.00293358 0)
(20.0226 -0.00535396 0)
(19.998 -0.00830006 0)
(19.9642 -0.0115896 3.59495e-21)
(19.9173 -0.0153754 4.18787e-23)
(19.8518 -0.0197393 -8.02305e-21)
(19.7596 -0.0246785 4.26891e-21)
(19.6296 -0.0301166 0)
(19.4461 -0.0359717 0)
(19.1867 -0.0423832 -3.35075e-21)
(18.8186 -0.0495245 3.58728e-21)
(18.294 -0.0570361 0)
(17.5545 -0.0623548 0)
(16.5996 -0.0558453 0)
(15.734 -0.0203456 0)
(20.0389 -0.00255067 0)
(20.0217 -0.00471173 1.53788e-21)
(19.9986 -0.00750168 -3.11994e-21)
(19.9669 -0.0106624 1.58911e-21)
(19.9232 -0.0144075 0)
(19.8621 -0.0188834 0)
(19.7762 -0.0242346 3.64082e-21)
(19.6545 -0.0302959 -3.82034e-21)
(19.4814 -0.0366655 0)
(19.2334 -0.0433819 -2.88569e-21)
(18.8783 -0.0513678 -4.33378e-22)
(18.3658 -0.0606875 1.54115e-21)
(17.6356 -0.0669906 2.43428e-21)
(16.6845 -0.0596605 -1.72591e-21)
(15.8181 -0.0233375 1.9137e-21)
(20.037 -0.00164217 0)
(20.0204 -0.0039008 0)
(19.9986 -0.00659355 0)
(19.9687 -0.00960548 0)
(19.9269 -0.0134302 0)
(19.8684 -0.018247 1.3787e-21)
(19.7855 -0.0243204 -1.43519e-21)
(19.6694 -0.0316141 0)
(19.5042 -0.0387494 0)
(19.2645 -0.0462438 0)
(18.9134 -0.0553103 0)
(18.4085 -0.0654155 -2.4079e-21)
(17.6957 -0.0716798 2.61279e-21)
(16.7579 -0.062233 0)
(15.8928 -0.0228111 0)
(20.0358 -0.000550947 0)
(20.0204 -0.00274947 0)
(20.0003 -0.00533358 0)
(19.9717 -0.00771047 -1.03595e-21)
(19.9331 -0.0109082 1.90753e-21)
(19.8801 -0.0148342 -8.65898e-22)
(19.8049 -0.021075 0)
(19.6958 -0.0303192 0)
(19.5442 -0.0380086 0)
(19.315 -0.0432445 0)
(18.9919 -0.052757 0)
(18.4955 -0.0740636 0)
(17.7823 -0.0850143 0)
(16.8321 -0.0719949 -1.03092e-21)
(15.9601 -0.0408641 1.13552e-21)
(12.6847 0.0860046 -4.62265e-22)
(14.0893 0.0699939 5.23003e-21)
(15.3402 0.0796155 -3.76271e-21)
(16.2845 0.0659587 2.00404e-20)
(17.0429 0.0553653 -1.69476e-20)
(17.6859 0.0458589 0)
(18.2443 0.0373254 0)
(18.7285 0.0295379 6.93036e-21)
(19.1389 0.0226461 -6.2412e-21)
(19.4717 0.0167258 0)
(19.7237 0.0117432 0)
(19.8968 0.00780974 0)
(20.0035 0.00485586 0)
(20.0632 0.00268601 7.92641e-21)
(20.0929 0.000884654 -7.13109e-21)
(13.633 0.0581575 -6.00578e-20)
(14.7607 0.0838956 -4.54133e-20)
(15.9086 0.0875694 7.3518e-20)
(16.8071 0.0757199 -1.17284e-19)
(17.5143 0.0664972 3.49587e-21)
(18.0952 0.0576005 8.57085e-20)
(18.5838 0.0488874 -6.79136e-20)
(18.9946 0.0401018 6.12983e-20)
(19.3326 0.0315305 0)
(19.5995 0.023594 0)
(19.7975 0.0167676 0)
(19.9327 0.0115418 0)
(20.0173 0.00806463 2.02393e-20)
(20.0661 0.00592338 -1.83561e-20)
(20.0916 0.00438339 0)
(14.2091 0.04644 0)
(15.2259 0.0826087 0)
(16.3131 0.0855312 0)
(17.1785 0.0768815 0)
(17.8494 0.0691491 0)
(18.3856 0.0620246 0)
(18.8236 0.0553678 0)
(19.1812 0.0486694 6.01125e-20)
(19.4676 0.0418395 -3.33019e-21)
(19.6883 0.0349274 -3.85566e-21)
(19.8491 0.0281654 -4.00687e-20)
(19.9586 0.0219926 -2.91547e-20)
(20.0277 0.0168539 2.67467e-20)
(20.0685 0.0128443 0)
(20.0906 0.00973469 0)
(14.5917 0.0423571 1.4086e-20)
(15.5607 0.0795949 -1.15769e-20)
(16.6128 0.0830539 0)
(17.453 0.0758078 0)
(18.095 0.0682114 0)
(18.5956 0.0614443 -2.40318e-20)
(18.9933 0.0553232 -2.1204e-20)
(19.3095 0.0493724 7.7985e-20)
(19.5564 0.0434695 -3.55866e-20)
(19.7431 0.0376051 3.13165e-20)
(19.8781 0.0318882 -2.89667e-20)
(19.9705 0.0265349 0)
(20.0304 0.0217791 1.05027e-20)
(20.067 0.017682 -9.68863e-21)
(20.0877 0.0141805 0)
(14.8822 0.0405687 0)
(15.8283 0.0767055 1.72241e-20)
(16.858 0.0806554 -1.45579e-20)
(17.6776 0.0740405 0)
(18.2948 0.066552 0)
(18.7653 0.0600055 1.88051e-20)
(19.1297 0.0541462 -2.87205e-22)
(19.4118 0.0485438 -1.54883e-20)
(19.627 0.0430689 1.37319e-20)
(19.7866 0.0377264 -2.5164e-20)
(19.9009 0.0326283 3.24648e-22)
(19.9796 0.0279343 3.45143e-22)
(20.0316 0.0237683 9.42302e-21)
(20.0645 0.0201213 0)
(20.0841 0.0169288 0)
(15.1123 0.0396267 0)
(16.0468 0.0745653 0)
(17.0613 0.0787922 0)
(17.8634 0.0724733 0)
(18.4587 0.0651193 -1.98982e-20)
(18.9035 0.0587663 3.57885e-20)
(19.24 0.05315 -1.62529e-20)
(19.4944 0.0478826 1.43519e-20)
(19.6841 0.0428185 -2.62646e-20)
(19.8225 0.0379444 4.13928e-22)
(19.9206 0.0333342 2.13485e-20)
(19.9883 0.0290874 -1.91585e-20)
(20.0335 0.0252701 8.77679e-21)
(20.0629 0.0218948 0)
(20.081 0.0190172 0)
(15.297 0.0391351 0)
(16.2258 0.0732033 0)
(17.2292 0.0775991 0)
(18.0162 0.0714549 0)
(18.5923 0.064217 0)
(19.0148 0.0579773 0)
(19.3277 0.0525043 0)
(19.5592 0.0474535 0)
(19.7286 0.0426827 0)
(19.8503 0.0381709 0)
(19.9361 0.033955 0)
(19.9952 0.0300739 0)
(20.0352 0.0265299 0)
(20.0615 0.0233131 0)
(20.0784 0.0205765 0)
(15.4487 0.038868 0)
(16.3751 0.0724253 6.46312e-21)
(17.3699 0.0770059 -1.65993e-20)
(18.1435 0.0710325 9.77759e-21)
(18.7024 0.0639103 -8.26589e-21)
(19.1053 0.057735 2.66857e-22)
(19.3981 0.0523205 1.98914e-20)
(19.6106 0.0473631 -4.54968e-22)
(19.7635 0.0427352 -4.24654e-22)
(19.8719 0.0384167 -1.95265e-20)
(19.9478 0.0344249 3.73285e-22)
(20.0003 0.0307662 8.19861e-21)
(20.036 0.0274085 -3.55301e-21)
(20.06 0.024318 3.37301e-21)
(20.0757 0.0216777 0)
(15.5768 0.0388637 -3.55178e-21)
(16.5022 0.0721758 -2.97931e-21)
(17.4899 0.0770067 5.39243e-21)
(18.2512 0.0712559 0)
(18.7946 0.0642676 0)
(19.1802 0.0581169 6.74616e-21)
(19.4556 0.0526803 -3.25575e-22)
(19.6521 0.0477006 -1.08728e-20)
(19.7913 0.043076 9.70341e-21)
(19.8891 0.0387985 -4.46378e-21)
(19.9571 0.0348732 0)
(20.0042 0.0312935 0)
(20.0365 0.0280199 0)
(20.0584 0.0250042 -1.45511e-21)
(20.0731 0.0224248 1.3988e-21)
(15.6861 0.0388473 -3.51475e-21)
(16.6115 0.0726149 3.12175e-21)
(17.5929 0.0780089 0)
(18.3431 0.0724988 -4.25531e-21)
(18.8723 0.0654983 1.11743e-20)
(19.2424 0.0592036 -6.74698e-21)
(19.5027 0.0535766 -5.42017e-21)
(19.6856 0.0484247 5.10028e-21)
(19.8136 0.0436751 0)
(19.9027 0.0392987 0)
(19.9644 0.0353076 -3.34402e-21)
(20.0071 0.0316976 3.19772e-21)
(20.0365 0.0284317 0)
(20.0568 0.025466 0)
(20.0706 0.0229958 0)
(15.7835 0.0397784 0)
(16.709 0.0740959 0)
(17.6835 0.0799307 0)
(18.4223 0.0745066 0)
(18.9379 0.0674751 3.39144e-21)
(19.2942 0.060938 -3.16886e-21)
(19.5413 0.0549706 0)
(19.7129 0.0494893 0)
(19.8315 0.0444088 3.55726e-21)
(19.9134 0.0397819 -6.5252e-21)
(19.97 0.0356078 1.81938e-22)
(20.0092 0.0318876 2.70715e-21)
(20.0364 0.0285878 0)
(20.0553 0.0256349 0)
(20.0684 0.0231822 0)
(15.8654 0.0390303 1.99079e-21)
(16.79 0.0773776 -1.79138e-21)
(17.7582 0.0848345 2.49616e-21)
(18.4888 0.0788317 1.61594e-21)
(18.9937 0.0707289 -5.3991e-22)
(19.3372 0.063295 -2.90451e-21)
(19.5732 0.0565015 0)
(19.7346 0.0504832 -3.40829e-21)
(19.8452 0.0451879 3.24816e-21)
(19.9214 0.0401866 0)
(19.9739 0.0357077 0)
(20.0104 0.0318243 1.05107e-21)
(20.0358 0.0284557 -2.02064e-21)
(20.0537 0.0255525 9.75144e-22)
(20.0662 0.0232147 0)
(15.9596 0.0444062 0)
(16.8823 0.0856759 0)
(17.8331 0.0903815 2.18805e-21)
(18.5495 0.0809382 -2.0175e-21)
(19.0397 0.0736468 0)
(19.3722 0.0659649 0)
(19.5977 0.0581975 0)
(19.7531 0.052183 0)
(19.8573 0.0458537 -9.97105e-22)
(19.928 0.0401426 9.57897e-22)
(19.9774 0.0353316 0)
(20.0114 0.031292 0)
(20.0355 0.0279704 0)
(20.0525 0.0251218 0)
(20.0645 0.0229534 0)
(15.9985 0.0292019 1.59375e-21)
(16.9101 0.0971361 -1.44045e-21)
(17.85 0.104735 0)
(18.5891 0.0884808 0)
(19.0851 0.079364 0)
(19.3993 0.0683106 0)
(19.6247 0.0583844 0)
(19.7664 0.051654 0)
(19.8598 0.0469747 0)
(19.9314 0.0400521 -5.86236e-22)
(19.9768 0.0348474 1.14571e-21)
(20.0115 0.0305636 -5.6339e-22)
(20.0338 0.0271765 0)
(20.0507 0.0244921 0)
(20.062 0.0228927 0)
(19.3988 0.139991 0)
(19.9621 0.0879458 0)
(20.0656 0.102001 0)
(20.1188 0.111556 0)
(20.1487 0.121153 0)
(20.1648 0.129868 0)
(20.1711 0.138054 0)
(20.17 0.145371 0)
(20.1632 0.151266 0)
(20.1522 0.155072 0)
(20.1389 0.156201 0)
(20.1251 0.154387 0)
(20.1124 0.149866 0)
(20.1018 0.143401 0)
(20.0935 0.135145 0)
(17.5772 -0.261761 0)
(19.9013 0.196329 0)
(19.9562 0.109276 0)
(20.001 0.100092 0)
(20.041 0.103472 0)
(20.073 0.108481 0)
(20.0971 0.113164 0)
(20.1141 0.117625 0)
(20.1245 0.121727 0)
(20.129 0.125202 0)
(20.1283 0.127768 0)
(20.1238 0.129145 0)
(20.1168 0.129082 0)
(20.1088 0.127552 0)
(20.1009 0.123708 0)
(15.6914 -0.145231 -1.24945e-37)
(19.8861 0.217283 0)
(19.9819 0.107373 0)
(19.9963 0.108705 0)
(20.025 0.111473 0)
(20.0529 0.1125 0)
(20.0764 0.113271 0)
(20.0944 0.114431 0)
(20.1072 0.115739 0)
(20.115 0.116914 0)
(20.1183 0.117743 0)
(20.1178 0.11808 0)
(20.1145 0.11782 0)
(20.1094 0.117008 0)
(20.1034 0.114731 0)
(14.1677 -0.058556 0)
(19.7472 0.146165 0)
(20.0169 0.0697284 0)
(20.0267 0.0868246 0)
(20.0426 0.0897694 0)
(20.0625 0.09076 0)
(20.0811 0.0921562 0)
(20.0963 0.0943264 0)
(20.1073 0.0969096 0)
(20.1141 0.0996501 0)
(20.1171 0.102288 0)
(20.1168 0.104543 0)
(20.114 0.106159 0)
(20.1097 0.107098 0)
(20.1045 0.106621 0)
(14.0822 0.0388771 0)
(19.1293 0.0244575 0)
(19.87 0.0355365 0)
(19.9956 0.0620083 0)
(20.0296 0.0660461 0)
(20.0505 0.0686737 0)
(20.0687 0.0717167 0)
(20.0842 0.0753355 0)
(20.0964 0.0793068 0)
(20.105 0.0834918 0)
(20.11 0.0876826 0)
(20.1118 0.0916127 0)
(20.1109 0.0949878 0)
(20.1081 0.0976627 0)
(20.1041 0.0989665 0)
(14.7182 0.0719723 0)
(18.339 -0.0395314 0)
(19.5643 0.0331108 0)
(19.8965 0.055347 0)
(19.9888 0.0606526 0)
(20.0251 0.06422 0)
(20.0475 0.0672837 0)
(20.0651 0.0703511 0)
(20.0795 0.0736472 0)
(20.0906 0.077211 0)
(20.0984 0.0809226 0)
(20.103 0.0845946 0)
(20.1047 0.0879978 0)
(20.1043 0.0909842 0)
(20.1021 0.0930277 0)
(15.0759 0.0320854 4.74e-36)
(17.8263 -0.0253763 0)
(19.2429 0.0398734 0)
(19.7637 0.0552658 0)
(19.9372 0.0635859 0)
(20.0014 0.068151 0)
(20.0324 0.0708194 0)
(20.0526 0.0728102 0)
(20.0681 0.0748037 0)
(20.0802 0.0770225 0)
(20.0893 0.0794658 0)
(20.0955 0.0820402 0)
(20.099 0.0845946 0)
(20.1002 0.0870032 0)
(20.0995 0.0889649 0)
(15.1216 0.00748887 0)
(17.5312 0.00123783 0)
(18.9705 0.0394476 0)
(19.6206 0.0537733 0)
(19.8773 0.0650169 0)
(19.9775 0.0705962 0)
(20.0218 0.0734008 0)
(20.0461 0.074998 0)
(20.0626 0.0762801 0)
(20.075 0.0776194 0)
(20.0844 0.0791383 0)
(20.091 0.0808309 0)
(20.0952 0.0826125 0)
(20.0972 0.0843685 0)
(20.0975 0.0859755 0)
(14.9893 0.00275921 -9.28071e-36)
(17.3314 0.0153588 0)
(18.7489 0.0363782 0)
(19.4795 0.0516935 0)
(19.8089 0.0639589 0)
(19.9482 0.0703258 0)
(20.0097 0.0736982 0)
(20.0405 0.075475 0)
(20.059 0.0765948 0)
(20.0719 0.0775553 0)
(20.0814 0.0785876 0)
(20.0882 0.0797595 0)
(20.0926 0.0810461 0)
(20.0951 0.0823563 0)
(20.096 0.0837278 0)
(14.8043 0.00379638 -9.41726e-36)
(17.1499 0.0191611 0)
(18.5604 0.0340204 0)
(19.3459 0.0494837 0)
(19.7357 0.0615854 0)
(19.9129 0.0686423 0)
(19.994 0.0727087 0)
(20.0335 0.074901 0)
(20.0553 0.0761426 0)
(20.0693 0.0770125 0)
(20.079 0.0778229 0)
(20.086 0.0787031 0)
(20.0907 0.0796784 0)
(20.0934 0.0806853 0)
(20.0947 0.0818062 0)
(14.6206 0.0046701 0)
(16.9703 0.0186375 0)
(18.3916 0.0321077 0)
(19.2193 0.0468953 0)
(19.6601 0.0586681 0)
(19.8736 0.0663714 0)
(19.9752 0.071046 0)
(20.0249 0.0736971 0)
(20.0511 0.0751888 0)
(20.0667 0.0761265 0)
(20.077 0.0768733 0)
(20.0842 0.0776069 0)
(20.0891 0.0783922 0)
(20.0921 0.0791919 0)
(20.0935 0.0800866 0)
(14.4529 0.00473069 9.41948e-36)
(16.7963 0.0170059 0)
(18.2346 0.0301077 0)
(19.0971 0.0440628 0)
(19.583 0.0557102 0)
(19.8313 0.0639288 0)
(19.9538 0.0690695 0)
(20.0146 0.0721453 0)
(20.0461 0.0739249 0)
(20.064 0.0750023 0)
(20.0752 0.0757708 0)
(20.0827 0.0764473 0)
(20.0878 0.0771287 0)
(20.0909 0.0778043 0)
(20.0926 0.0785591 0)
(14.3019 0.0044165 0)
(16.6322 0.015432 0)
(18.0857 0.0280812 0)
(18.9778 0.0413434 0)
(19.5046 0.0529752 0)
(19.7867 0.0615362 0)
(19.9301 0.0670346 0)
(20.0027 0.0704829 0)
(20.0403 0.0725425 0)
(20.0609 0.073782 0)
(20.0733 0.0746106 0)
(20.0813 0.0752764 0)
(20.0866 0.0759053 0)
(20.09 0.0765134 0)
(20.0919 0.0772056 0)
(14.164 0.00403596 1.81159e-35)
(16.479 0.0141956 0)
(17.9435 0.0262244 0)
(18.8612 0.0389106 0)
(19.4256 0.0505024 0)
(19.7402 0.0592663 0)
(19.9045 0.0650671 0)
(19.9894 0.0688371 0)
(20.0336 0.0711528 0)
(20.0575 0.0725554 0)
(20.0713 0.0734591 0)
(20.08 0.0741345 0)
(20.0856 0.0747321 0)
(20.0891 0.0752899 0)
(20.0911 0.0759029 0)
(14.036 0.00371054 -1.77938e-35)
(16.3358 0.0132249 0)
(17.808 0.0245616 0)
(18.7481 0.0366906 0)
(19.3464 0.0481839 0)
(19.6921 0.0570838 0)
(19.8775 0.0631946 0)
(19.9749 0.0672435 0)
(20.0262 0.0697893 0)
(20.0537 0.0713496 0)
(20.0692 0.072335 0)
(20.0786 0.0730303 0)
(20.0845 0.0736058 0)
(20.0883 0.074118 0)
(20.0905 0.0746573 0)
(13.9161 0.00345672 0)
(16.2017 0.012358 0)
(17.6795 0.0230055 0)
(18.639 0.0345703 0)
(19.2669 0.0459105 0)
(19.6424 0.0549573 0)
(19.849 0.0614035 0)
(19.9594 0.0656994 0)
(20.018 0.0684573 0)
(20.0494 0.0701714 0)
(20.0669 0.0712449 0)
(20.0772 0.0719716 0)
(20.0836 0.0725391 0)
(20.0876 0.073023 0)
(20.0899 0.0735325 0)
(13.8043 0.00324277 0)
(16.0763 0.0115121 0)
(17.5581 0.0215161 0)
(18.534 0.0325435 0)
(19.1872 0.043689 0)
(19.591 0.0529059 0)
(19.8191 0.0596719 0)
(19.9428 0.0641952 0)
(20.0092 0.0671564 0)
(20.0448 0.0690232 0)
(20.0645 0.0701912 0)
(20.0758 0.0709605 0)
(20.0826 0.0715335 0)
(20.0869 0.0720016 0)
(20.0894 0.0724869 0)
(13.7003 0.00303851 1.70668e-35)
(15.959 0.0107111 0)
(17.4432 0.0201317 0)
(18.4325 0.030675 0)
(19.1076 0.0416002 0)
(19.5382 0.0509621 0)
(19.7879 0.0579965 0)
(19.9252 0.0627355 0)
(19.9997 0.0658933 0)
(20.0399 0.0679095 0)
(20.0618 0.0691744 0)
(20.0743 0.0699925 0)
(20.0817 0.0705775 0)
(20.0862 0.0710351 0)
(20.0889 0.0714926 0)
(13.6035 0.0028385 -1.67895e-35)
(15.8492 0.0100113 0)
(17.334 0.0189051 0)
(18.3341 0.0290124 0)
(19.0286 0.0396895 0)
(19.4843 0.0491362 0)
(19.7554 0.0563783 0)
(19.9067 0.0613284 0)
(19.9895 0.0646747 0)
(20.0345 0.0668349 0)
(20.059 0.0681963 0)