/*--------------------------------*- C++ -*----------------------------------*\
| =========                 |                                                 |
| \\      /  F ield         | OpenFOAM: The Open Source CFD Toolbox           |
|  \\    /   O peration     | Version:  2.3.0                                 |
|   \\  /    A nd           | Web:      www.OpenFOAM.org                      |
|    \\/     M anipulation  |                                                 |
\*---------------------------------------------------------------------------*/
FoamFile
{
    version     2.0;
    format      ascii;
    class       surfaceScalarField;
    location    "3000";
    object      phi;
}
// * * * * * * * * * * * * * * * * * * * * * * * * * * * * * * * * * * * * * //

dimensions      [0 3 -1 0 0 0 0];

internalField   nonuniform List<scalar> 
29324
(
-0.0102364
-0.0119014
0.0132032
0.00893796
-0.011363
-0.0108772
0.0120039
-0.0123346
-0.00993899
0.0109106
-0.0131654
-0.00907957
0.00991036
-0.0138712
-0.00829199
0.00899778
-0.0144651
-0.00756972
0.00816362
-0.01496
-0.00690575
0.00740065
-0.0153617
-0.00629786
0.00669955
-0.0156768
-0.00573882
0.006054
-0.0159043
-0.00522472
0.00545213
-0.0160476
-0.00474921
0.0048925
-0.0161038
-0.00430993
0.00436622
-0.0160725
-0.00390269
0.00387139
-0.015957
-0.0035219
0.00340635
-0.0157583
-0.00316618
0.0029675
-0.0154815
-0.00283472
0.00255787
-0.0151379
-0.00252128
0.00217768
-0.0147349
-0.0022268
0.00182381
-0.0142828
-0.00195074
0.00149868
-0.0137955
-0.00168907
0.00120177
-0.0132783
-0.00144531
0.000928045
-0.012747
-0.00121464
0.000683381
-0.0122271
-0.00100502
0.000485134
-0.000813044
-0.0118336
0.000419507
-0.00916035
-0.0107679
0.00802688
-0.0101326
-0.00990499
-0.0109555
-0.00911609
-0.0116468
-0.00838828
-0.0122158
-0.00772292
-0.0126754
-0.00711012
-0.0130335
-0.00654768
-0.0133045
-0.00602685
-0.0134935
-0.00554983
-0.0136114
-0.00510687
-0.0136619
-0.00469863
-0.0136528
-0.0043191
-0.0135871
-0.00396833
-0.0134672
-0.00364186
-0.013296
-0.00333733
-0.0130752
-0.00305553
-0.0128044
-0.00279209
-0.012484
-0.0025472
-0.0121119
-0.00232284
-0.0116869
-0.00211408
-0.0112093
-0.00192291
-0.0106721
-0.00175181
-0.0100778
-0.00159934
-0.0014647
-0.00942617
-0.00819369
-0.00977535
0.00720111
-0.00903943
-0.00905924
-0.00975397
-0.00840155
-0.010343
-0.00779926
-0.0108242
-0.00724169
-0.0112025
-0.00673183
-0.0114893
-0.00626085
-0.0116916
-0.00582463
-0.0118173
-0.00542409
-0.0118732
-0.00505097
-0.0118643
-0.00470752
-0.0117968
-0.00438661
-0.0116752
-0.00408994
-0.0115056
-0.00381147
-0.0112889
-0.00355404
-0.0110319
-0.00331244
-0.0107375
-0.00308655
-0.0104078
-0.00287684
-0.010048
-0.00268267
-0.00965892
-0.00250316
-0.00924493
-0.0023369
-0.00880878
-0.00218794
-0.00835574
-0.00205239
-0.00193527
-0.00788516
-0.00733474
-0.0089041
0.00646349
-0.0080753
-0.00831867
-0.00869445
-0.0077824
-0.00920664
-0.00728707
-0.00961795
-0.00683038
-0.00993941
-0.00641037
-0.0101775
-0.00602278
-0.0103406
-0.0056615
-0.0104357
-0.00532899
-0.0104669
-0.00501983
-0.0104429
-0.00473146
-0.0103669
-0.00446267
-0.0102451
-0.00421173
-0.010079
-0.0039775
-0.00987469
-0.00375839
-0.00963501
-0.00355212
-0.00936115
-0.0033604
-0.0090583
-0.00317969
-0.00872906
-0.00301191
-0.00837569
-0.00285653
-0.00800045
-0.00271214
-0.00760723
-0.00258117
-0.00719712
-0.0024625
-0.00235751
-0.00677488
-0.0065711
-0.00813101
0.00579801
-0.00722356
-0.00766621
-0.0077708
-0.00723517
-0.0082169
-0.00684097
-0.00857508
-0.0064722
-0.0088513
-0.00613415
-0.00905354
-0.00582054
-0.00918804
-0.005527
-0.00926117
-0.00525585
-0.00927975
-0.00500126
-0.00924751
-0.00476371
-0.00916826
-0.00454192
-0.00904804
-0.00433195
-0.00888956
-0.00413598
-0.00869646
-0.00395149
-0.00847268
-0.0037759
-0.00822193
-0.00361115
-0.00794512
-0.0034565
-0.00764622
-0.00331082
-0.0073271
-0.00317565
-0.00699129
-0.00304794
-0.00663953
-0.00293293
-0.00627539
-0.00282664
-0.00273084
-0.00590206
-0.00588951
-0.00744585
0.00520434
-0.00647104
-0.00708467
-0.00695215
-0.00675406
-0.00734936
-0.00644376
-0.00766327
-0.0061583
-0.0079061
-0.00589131
-0.00808194
-0.00564471
-0.00819721
-0.00541172
-0.00825865
-0.00519442
-0.00826917
-0.00499074
-0.00823442
-0.00479845
-0.00815925
-0.0046171
-0.00804662
-0.00444458
-0.00789988
-0.00428272
-0.00772404
-0.00412733
-0.0075197
-0.00398025
-0.00728952
-0.00384132
-0.00703855
-0.00370747
-0.00676644
-0.00358293
-0.00647839
-0.0034637
-0.00617302
-0.0033533
-0.00585656
-0.0032494
-0.00552788
-0.00315531
-0.00306912
-0.00518959
-0.00528634
-0.0068335
0.004674
-0.00580434
-0.00656668
-0.00623554
-0.00632286
-0.00658697
-0.00609232
-0.00686606
-0.0058792
-0.00707951
-0.00567786
-0.0072351
-0.00548912
-0.00733716
-0.00530966
-0.0073871
-0.00514447
-0.0073942
-0.00498364
-0.00736117
-0.00483148
-0.00729051
-0.00468776
-0.00718597
-0.00454912
-0.00705158
-0.00441711
-0.00688963
-0.00428929
-0.00670325
-0.00416662
-0.00649614
-0.00404843
-0.006267
-0.00393661
-0.00602164
-0.00382829
-0.00575958
-0.00372576
-0.00548495
-0.00362793
-0.00519673
-0.00353762
-0.00489868
-0.00345337
-0.00337531
-0.0045925
-0.00475314
-0.00628217
0.00420181
-0.00521346
-0.00610636
-0.00560041
-0.0059359
-0.00591276
-0.00577997
-0.00616359
-0.00562837
-0.00635589
-0.00548556
-0.0064922
-0.00535282
-0.00658086
-0.00522099
-0.00662664
-0.00509869
-0.00663083
-0.00497945
-0.00659811
-0.00486421
-0.00653337
-0.0047525
-0.00643838
-0.00464411
-0.00631695
-0.00453854
-0.00616938
-0.00443685
-0.00600066
-0.00433534
-0.00581059
-0.00423851
-0.0056037
-0.0041435
-0.00538042
-0.00405157
-0.0051434
-0.00396278
-0.00489308
-0.00387825
-0.00463236
-0.00379833
-0.00436289
-0.00372284
-0.00365418
-0.00408402
-0.00427413
-0.00579361
0.00378557
-0.00469162
-0.00568887
-0.00503504
-0.00559248
-0.00531956
-0.00549545
-0.00554215
-0.00540579
-0.00571249
-0.00531522
-0.00583745
-0.00522786
-0.00591504
-0.00514341
-0.00595679
-0.00505695
-0.0059596
-0.00497663
-0.00593027
-0.00489353
-0.00587062
-0.00481215
-0.00578365
-0.00473108
-0.00567161
-0.00465058
-0.00553869
-0.00456977
-0.00538416
-0.00448987
-0.00521251
-0.00441016
-0.00502562
-0.0043304
-0.00482211
-0.00425509
-0.00460706
-0.00417783
-0.00437954
-0.00410578
-0.00414358
-0.00403428
-0.00389764
-0.00396878
-0.00390716
-0.00364466
-0.00384978
-0.00535048
0.00340665
-0.00422351
-0.00531514
-0.00453608
-0.00527991
-0.00478874
-0.00524279
-0.00499127
-0.00520326
-0.00514567
-0.00516083
-0.00525613
-0.00511739
-0.00532805
-0.00507149
-0.00536146
-0.00502354
-0.00536756
-0.00497053
-0.00533921
-0.00492189
-0.00528468
-0.00486668
-0.00520513
-0.00481062
-0.00510379
-0.00475192
-0.00498349
-0.00469007
-0.00484334
-0.00463002
-0.00468649
-0.004567
-0.00451757
-0.00449932
-0.00433213
-0.00444053
-0.00413547
-0.00437449
-0.00393002
-0.00431123
-0.0037149
-0.0042494
-0.00349331
-0.00419038
-0.00326296
-0.00413751
-0.0106157
-0.000717039
-0.000500816
-0.00966494
-0.000735755
-0.000215039
-0.00882404
-0.000789763
-5.11483e-05
-0.008054
-0.000862555
9.25125e-05
-0.00733833
-0.000953945
0.000238268
-0.00666606
-0.00106296
0.000390688
-0.00603432
-0.00118837
0.000556627
-0.00544072
-0.00133231
0.000738703
-0.00488441
-0.00149485
0.000938551
-0.0043693
-0.00167563
0.00116051
-0.00389606
-0.00187794
0.00140469
-0.00346889
-0.00210219
0.00167503
-0.00309275
-0.00234918
0.00197304
-0.00277139
-0.00262222
0.00230086
-0.00250902
-0.00292355
0.00266119
-0.00231196
-0.00325491
0.00305784
-0.00218449
-0.00362052
0.00349305
-0.00213219
-0.0040234
0.0039711
-0.00216156
-0.00446848
0.00449785
-0.00228053
-0.0049587
0.00507766
-0.00249758
-0.00549971
0.00571675
-0.00282262
-0.00609679
0.00642183
-0.00326776
-0.00675528
0.00720042
-0.00748401
0.00806071
-0.00384446
-0.00874147
-0.00140175
-0.00806683
-0.00141039
-0.00742217
-0.00143443
-0.00680852
-0.00147621
-0.00622629
-0.00153618
-0.00567682
-0.00161243
-0.00516125
-0.00170394
-0.00467939
-0.00181417
-0.0042325
-0.00194175
-0.00382074
-0.00208739
-0.0034478
-0.00225088
-0.00311393
-0.00243606
-0.00282144
-0.00264168
-0.00257307
-0.00287059
-0.00237288
-0.00312374
-0.00222357
-0.00340421
-0.00213163
-0.00371246
-0.00210104
-0.004054
-0.00214068
-0.00442883
-0.00225731
-0.00484208
-0.00245939
-0.00529763
-0.00275766
-0.00579851
-0.00316279
-0.00635015
-0.00695983
-0.00368697
-0.00740444
-0.00188248
-0.00692457
-0.00189025
-0.0064471
-0.0019119
-0.00597907
-0.00194424
-0.00552315
-0.0019921
-0.00508356
-0.00205201
-0.00466088
-0.00212661
-0.00425914
-0.00221591
-0.00388005
-0.00232085
-0.00352661
-0.00244082
-0.00320116
-0.00257632
-0.00290709
-0.00273013
-0.00264808
-0.00290069
-0.0024281
-0.00309057
-0.00224982
-0.00330202
-0.00211921
-0.00353482
-0.00204045
-0.00379123
-0.00201942
-0.00407503
-0.00206202
-0.00438623
-0.00217497
-0.00472913
-0.00236565
-0.00510695
-0.00264275
-0.00552141
-0.00301523
-0.00597767
-0.00648107
-0.00349399
-0.00635086
-0.0023065
-0.00593152
-0.00230959
-0.00552049
-0.00232293
-0.00512007
-0.00234465
-0.00473269
-0.00237948
-0.00435954
-0.00242517
-0.00400292
-0.00248323
-0.00366483
-0.002554
-0.00334717
-0.0026385
-0.00305366
-0.00273433
-0.00278423
-0.00284575
-0.00254317
-0.00297119
-0.00233303
-0.00311083
-0.00215647
-0.00326714
-0.00201856
-0.00343993
-0.00192168
-0.00363169
-0.00187008
-0.00384283
-0.00186992
-0.00407519
-0.00192512
-0.00433102
-0.002043
-0.00461125
-0.00223019
-0.00491977
-0.00249324
-0.00525835
-0.00284136
-0.00562955
-0.00603833
-0.0032841
-0.00552707
-0.00268149
-0.00515952
-0.00267714
-0.00480179
-0.00268066
-0.00445338
-0.00269306
-0.00411776
-0.0027151
-0.00379481
-0.00274811
-0.00348649
-0.00279155
-0.00319416
-0.00284633
-0.00292187
-0.00291079
-0.00266917
-0.00298704
-0.00243987
-0.00307504
-0.00223607
-0.00317499
-0.00206029
-0.00328661
-0.0019146
-0.00341283
-0.00180325
-0.00355127
-0.00172957
-0.00370537
-0.00169719
-0.00387522
-0.00171048
-0.0040619
-0.00177531
-0.0042662
-0.0018953
-0.00449126
-0.00207766
-0.00473741
-0.00232882
-0.00500719
-0.00265552
-0.00530285
-0.0056276
-0.00306625
-0.00485119
-0.00301989
-0.00452199
-0.00300634
-0.00420214
-0.00300051
-0.00389242
-0.00300277
-0.00359452
-0.00301301
-0.00330937
-0.00303325
-0.00303797
-0.00306295
-0.00278339
-0.00310091
-0.00254555
-0.00314863
-0.00232698
-0.00320561
-0.00212928
-0.00327274
-0.00195552
-0.00334876
-0.00180684
-0.00343529
-0.00168732
-0.00353235
-0.0015984
-0.00364019
-0.00154307
-0.0037607
-0.00152617
-0.00389211
-0.00155106
-0.00403701
-0.00162133
-0.00419593
-0.00174292
-0.00436968
-0.00191993
-0.0045604
-0.00215847
-0.00476865
-0.00246487
-0.00499645
-0.00524551
-0.00284695
-0.00428668
-0.0033257
-0.0039892
-0.00330382
-0.00370173
-0.00328798
-0.00342536
-0.00327914
-0.00315894
-0.00327943
-0.00290461
-0.00328758
-0.00266356
-0.003304
-0.00243764
-0.00332683
-0.00222771
-0.00335856
-0.00203586
-0.00339746
-0.00186381
-0.00344479
-0.00171374
-0.00349882
-0.00158782
-0.00356121
-0.00148718
-0.00363299
-0.00141485
-0.00371251
-0.00137451
-0.00380105
-0.00136789
-0.00389873
-0.00139972
-0.00400519
-0.00147353
-0.00412211
-0.00159325
-0.00424996
-0.00176363
-0.00439002
-0.00198961
-0.00454267
-0.00227717
-0.00470889
-0.00489143
-0.00263126
-0.00380647
-0.00360325
-0.00353705
-0.00357325
-0.00327726
-0.00354776
-0.00302721
-0.00352919
-0.00278847
-0.00351817
-0.00256073
-0.00351533
-0.00234493
-0.0035198
-0.00214322
-0.00352854
-0.0019565
-0.00354529
-0.0017872
-0.00356676
-0.00163638
-0.0035956
-0.00150549
-0.00362972
-0.00139626
-0.00367045
-0.0013113
-0.00371795
-0.00125233
-0.00377148
-0.00122179
-0.00383159
-0.00122382
-0.00389669
-0.00126053
-0.00396848
-0.00133536
-0.00404729
-0.00145214
-0.00413318
-0.00161458
-0.00422757
-0.00182767
-0.00432959
-0.00209652
-0.00444004
-0.00456142
-0.00242653
-0.00339211
-0.0038558
-0.00314809
-0.00381726
-0.00291258
-0.00378327
-0.00268771
-0.00375406
-0.00247197
-0.0037339
-0.00226694
-0.00372036
-0.00207244
-0.0037143
-0.00189076
-0.00371023
-0.00172433
-0.00371171
-0.00157432
-0.00371677
-0.00144076
-0.00372917
-0.00132604
-0.00374443
-0.00123143
-0.00376506
-0.00115871
-0.00379066
-0.00110972
-0.00382048
-0.00108778
-0.00385352
-0.00109428
-0.0038902
-0.00113349
-0.00392927
-0.00120764
-0.00397314
-0.00132029
-0.00402054
-0.00147436
-0.00407349
-0.0016741
-0.00412985
-0.00192433
-0.00418981
-0.00425626
-0.00222949
-0.00303326
-0.0040855
-0.00281088
-0.00403964
-0.00259721
-0.00399694
-0.00239438
-0.00395689
-0.00220051
-0.00392777
-0.0020159
-0.00390498
-0.00183939
-0.00389081
-0.00167582
-0.0038738
-0.00152548
-0.00386205
-0.00139125
-0.003851
-0.00127313
-0.00384729
-0.0011722
-0.00384536
-0.00108937
-0.00384789
-0.00102561
-0.00385442
-0.000984708
-0.00386138
-0.000968237
-0.00387
-0.000979208
-0.00387923
-0.00101994
-0.00388854
-0.00109234
-0.00390074
-0.00119891
-0.00391396
-0.00134371
-0.00392869
-0.00152964
-0.00394391
-0.0017633
-0.00395616
-0.00204444
-0.00397512
0.00198163
-0.00146697
0.00158045
-0.00209511
0.00187492
-0.00141502
0.00152173
0.0017813
-0.00133021
0.00142383
0.00170463
-0.0012227
0.00129937
0.00164761
-0.00110164
0.00115866
0.00161046
-0.000973238
0.00101039
0.00159168
-0.000842584
0.000861362
0.00158807
-0.000712655
0.000716264
0.0015968
-0.000587295
0.000578566
0.00161303
-0.000467431
0.000451192
0.00163283
-0.000354263
0.000334457
0.00165173
-0.000248723
0.000229821
0.0016651
-0.000150186
0.000136811
0.00166877
-5.87965e-05
5.51146e-05
0.00165728
2.69555e-05
-1.54645e-05
0.00162518
0.000108498
-7.64092e-05
0.00156653
0.000186902
-0.000128251
0.00147285
0.000265979
-0.000172307
0.00133495
0.000349053
-0.00021115
0.00113882
0.000443047
-0.000246919
0.000864451
0.000556859
-0.000282495
0.00048093
0.000706808
-0.000323289
-6.22488e-05
0.000920015
-0.000376843
0.00124977
-0.000868744
-0.000443278
0.00180531
-0.00136347
-0.00190881
0.0017035
-0.00131321
0.00161135
-0.00123806
0.0015341
-0.00114544
0.00147333
-0.00104088
0.00142923
-0.000929138
0.00140045
-0.000813809
0.00138527
-0.000697478
0.00137991
-0.000581931
0.0013816
-0.000469131
0.00138571
-0.000358374
0.00138848
-0.000251497
0.00138445
-0.000146163
0.00136901
-4.33595e-05
0.00133652
5.94406e-05
0.00128085
0.000164163
0.00119498
0.000272766
0.00107124
0.000389717
0.000900065
0.000520231
0.000670605
0.000672505
0.000370376
0.000857088
-1.13811e-05
0.00108857
-0.000476925
0.00138556
0.00176301
-0.000990156
0.00163027
-0.0012574
-0.00173634
0.00152992
-0.00121287
0.00143935
-0.0011475
0.0013616
-0.00106769
0.00129852
-0.000977807
0.00124949
-0.000880104
0.00121323
-0.000777552
0.00118774
-0.00067199
0.00117085
-0.000565045
0.00115853
-0.00045682
0.00114818
-0.000348025
0.00113473
-0.000238048
0.00111545
-0.000126878
0.00108468
-1.25958e-05
0.0010382
0.000105917
0.000970875
0.00023149
0.000876248
0.000367393
0.000748007
0.000517958
0.000579189
0.00068905
0.000362536
0.000889159
9.20379e-05
0.00112759
-0.000236448
0.00141705
-0.000616933
0.00176605
0.00217897
-0.00103289
0.00145944
-0.00115411
-0.00156273
0.00136091
-0.00111433
0.00127212
-0.00105871
0.00119485
-0.00099042
0.00112954
-0.000912499
0.00107697
-0.000827534
0.0010356
-0.000736182
0.00100393
-0.000640325
0.000978961
-0.000540076
0.000958962
-0.000436824
0.000940504
-0.000329569
0.000920544
-0.00021809
0.000894996
-0.000101331
0.000860343
2.20548e-05
0.00081202
0.000154239
0.000745595
0.000297913
0.000655963
0.000457025
0.000538096
0.000635823
0.000385756
0.00084139
0.00019407
0.00108084
-4.23243e-05
0.00136398
-0.000325513
0.00170024
-0.000656238
0.00209677
0.00255665
-0.00103392
0.00129681
-0.00105537
-0.00139555
0.00120286
-0.00102039
0.00111736
-0.000973218
0.00104235
-0.000915407
0.000979045
-0.000849198
0.000925906
-0.000774396
0.000883068
-0.000693345
0.000848687
-0.000605946
0.000821338
-0.000512729
0.00079791
-0.000413398
0.000776575
-0.000308235
0.000753987
-0.000195504
0.000727261
-7.46058e-05
0.000692636
5.6678e-05
0.000646401
0.000200473
0.000584515
0.000359798
0.000503081
0.000538458
0.000396929
0.000741973
0.000261492
0.000976826
9.21303e-05
0.0012502
-0.000115535
0.00157165
-0.000366085
0.00195079
-0.000663553
0.00239424
0.00289904
-0.00100595
0.00114816
-0.000959878
-0.00124365
0.00105936
-0.000931591
0.000979131
-0.000892987
0.000908313
-0.00084459
0.000847093
-0.000787979
0.0007964
-0.000723704
0.000754514
-0.00065146
0.000720337
-0.000571771
0.000692178
-0.000484572
0.000668452
-0.000389673
0.000646366
-0.00028615
0.000623993
-0.000173132
0.000598024
-4.86384e-05
0.000565368
8.93327e-05
0.000522819
0.000243021
0.00046664
0.000415976
0.00039279
0.000612307
0.000297545
0.000837217
0.000177287
0.00109708
2.61738e-05
0.00140132
-0.000159573
0.00175739
-0.000384983
0.0021762
-0.000652581
0.00266184
0.00321514
-0.000968675
0.00101353
-0.000871643
-0.00110177
0.00093139
-0.000849448
0.000856583
-0.00081818
0.000791145
-0.000779153
0.000734401
-0.000731236
0.000686681
-0.000675985
0.000647194
-0.000611974
0.000614726
-0.000539304
0.000587802
-0.000457649
0.000564337
-0.000366209
0.000542829
-0.000264643
0.000521347
-0.000151651
0.000497301
-2.45927e-05
0.000467732
0.0001189
0.000428999
0.000281753
0.000377842
0.000467132
0.000311457
0.000678691
0.000225827
0.000922846
0.00011661
0.0012063
-1.86811e-05
0.00153661
-0.000186116
0.00192483
-0.000389148
0.00237923
-0.000634837
0.00290753
0.00350254
-0.000922238
0.000894006
-0.000789899
-0.000975751
0.00081868
-0.000774123
0.000750571
-0.000750071
0.000690344
-0.000718926
0.000638245
-0.000679137
0.000593983
-0.000631723
0.000557627
-0.000575618
0.000527261
-0.00050894
0.000501876
-0.000432265
0.000479837
-0.00034417
0.000459543
-0.000244351
0.000439372
-0.000131481
0.000417432
-2.65323e-06
0.000390851
0.00014548
0.000356211
0.000316393
0.000310259
0.000513083
0.000249579
0.00073937
0.000171657
0.00100077
7.32729e-05
0.00130468
-4.85167e-05
0.0016584
-0.000199639
0.00207595
-0.000384587
0.00256418
-0.000607696
0.00313063
0.00376841
-0.000873574
0.000789092
-0.000715184
-0.000863809
0.000720377
-0.000705407
0.000658758
-0.000688453
0.000603778
-0.000663946
0.000556065
-0.000631425
0.000516066
-0.000591724
0.000482238
-0.00054179
0.0004547
-0.000481403
0.000431478
-0.000409044
0.000411018
-0.00032371
0.000391787
-0.000225121
0.000373035
-0.00011273
0.000352946
1.74352e-05
0.00032954
0.000168886
0.00029873
0.000347202
0.000257324
0.000554489
0.000202869
0.000793824
0.000132354
0.00107128
4.26348e-05
0.0013944
-6.59702e-05
0.001767
-0.00020324
0.00221322
-0.000371297
0.00273223
-0.000577148
0.00333648
0.00401053
-0.000819262
0.000696883
-0.000764096
-0.000647971
0.000634697
-0.000643222
0.000578857
-0.000632614
0.000529586
-0.000614675
0.000486632
-0.000588472
0.000449553
-0.000554645
0.00041918
-0.000511418
0.00039371
-0.000455933
0.00037241
-0.000387744
0.0003536
-0.000304901
0.000334961
-0.000206482
0.000318186
-9.59557e-05
0.000300474
3.51466e-05
0.000279734
0.000189625
0.00025221
0.000374725
0.000214017
0.000592681
0.00016365
0.000844191
0.000100671
0.00113426
2.33772e-05
0.0014717
-7.12046e-05
0.00186158
-0.0001947
0.00233671
-0.000349869
0.0028874
-0.000539856
0.00352647
-0.000760816
0.00423148
-0.0012306
0.00184729
-0.00148544
-0.00178422
0.00244601
-0.00189239
-0.0024076
0.00282809
-0.00220472
-0.00302987
0.00310935
-0.00248707
-0.00362516
0.00337633
-0.00278105
-0.00418585
0.00364518
-0.00308448
-0.00470436
0.00392378
-0.00340527
-0.00517241
0.00421589
-0.00374784
-0.00558351
0.0045229
-0.0041118
-0.00593153
0.00484842
-0.0045004
-0.00621422
0.00519656
-0.00491388
-0.0064244
0.00556638
-0.0053562
-0.00655756
0.00596773
-0.00583457
-0.00660978
0.00640044
-0.00634822
-0.00657321
0.00686454
-0.00690112
-0.0064427
0.0073673
-0.00749781
-0.00621478
0.00791476
-0.00814268
-0.0058782
0.00850232
-0.0088389
-0.005425
0.00914467
-0.00959787
-0.00485277
0.00983982
-0.0104121
-0.00414602
0.0105911
-0.0112978
-0.00329506
0.0114064
-0.0122574
-0.00228945
0.0122921
-0.0132977
0.0132521
-0.0144196
-0.00112196
-0.00142257
0.00227971
-0.00190264
0.00292608
-0.00246943
0.00339489
-0.00303607
0.00367599
-0.00357021
0.00391047
-0.0040675
0.00414246
-0.00452277
0.00437905
-0.00492854
0.00462167
-0.00528394
0.00487829
-0.00558204
0.00514652
-0.00582141
0.00543593
-0.00599854
0.00574351
-0.00610513
0.00607432
-0.00613748
0.0064328
-0.00609485
0.00682191
-0.00596878
0.00724123
-0.00575127
0.00769725
-0.00544143
0.00819247
-0.00502482
0.00872806
-0.00449635
0.00931135
-0.00384578
0.0099405
-0.00306641
0.010627
-0.00214656
0.0113723
0.012183
-0.00107747
-0.00146724
0.00271405
-0.0019094
0.00336825
-0.0024104
0.00389588
-0.00292125
0.00418685
-0.0034048
0.00439402
-0.00385095
0.00458861
-0.00425646
0.00478456
-0.00461864
0.00498385
-0.00493075
0.0051904
-0.00519583
0.0054116
-0.00540324
0.00564334
-0.00555432
0.00589459
-0.00564686
0.00616686
-0.00567375
0.00645969
-0.00562798
0.00677615
-0.00550895
0.0071222
-0.00530814
0.00749643
-0.00501993
0.00790426
-0.00463632
0.00834445
-0.00415161
0.00882664
-0.00356026
0.00934915
-0.00284838
0.00991515
-0.00200826
0.0105321
0.011202
-0.0010272
-0.00144247
0.00312259
-0.0018617
0.00378748
-0.00231332
0.0043475
-0.00277533
0.00464886
-0.0032093
0.00482799
-0.00361011
0.00498941
-0.00397274
0.00514718
-0.00429231
0.00530342
-0.00457189
0.00546998
-0.00480556
0.00564527
-0.00499001
0.0058278
-0.00512551
0.00603008
-0.00520412
0.00624547
-0.0052235
0.00647907
-0.00518086
0.0067335
-0.00506907
0.00701041
-0.00488513
0.00731249
-0.00462042
0.00763954
-0.00427146
0.0079955
-0.00382794
0.00838312
-0.00328444
0.00880565
-0.00263483
0.00926554
-0.00186763
0.00976494
0.0103095
-0.000975168
-0.00138798
0.00350462
-0.00178269
0.00418219
-0.00219194
0.00475674
-0.00260644
0.00506336
-0.00299946
0.00522101
-0.00335671
0.00534667
-0.0036804
0.00547087
-0.00397125
0.00559427
-0.00421906
0.00571779
-0.00442642
0.00585263
-0.00459414
0.00599552
-0.00471131
0.00614725
-0.00478119
0.00631535
-0.00479766
0.00649553
-0.00475855
0.00669439
-0.00465557
0.00690743
-0.00448522
0.00714214
-0.00424297
0.00739729
-0.00392571
0.00767824
-0.00352212
0.00797953
-0.0030271
0.00831063
-0.00243482
0.00867325
-0.0017345
0.00906462
0.00949571
-0.000920687
-0.00131943
0.00385538
-0.00168608
0.00454884
-0.00206046
0.00513111
-0.00243504
0.00543794
-0.002786
0.00557197
-0.00310806
0.00566872
-0.00339951
0.00576232
-0.00365694
0.0058517
-0.00388068
0.00594152
-0.0040675
0.00603945
-0.00421556
0.00614357
-0.00432292
0.0062546
-0.00438561
0.00637804
-0.00439941
0.00650934
-0.00436039
0.00665537
-0.00426714
0.00681417
-0.0041127
0.0069877
-0.0038938
0.00717838
-0.00360139
0.00738583
-0.00323425
0.00761239
-0.00278427
0.00786066
-0.0022446
0.00813358
-0.00160823
0.00842825
0.00874907
-0.000861588
-0.00124557
0.00417871
-0.00158264
0.00488591
-0.00192196
0.00547043
-0.00226166
0.00577764
-0.00257736
0.00588766
-0.00286755
0.00595891
-0.00312854
0.00602332
-0.00336033
0.00608348
-0.00356217
0.00614336
-0.00373165
0.00620892
-0.00386481
0.00627673
-0.0039607
0.00635049
-0.00401421
0.00643155
-0.0040261
0.00652123
-0.00399234
0.0066216
-0.00390636
0.0067282
-0.00376399
0.00684533
-0.00356374
0.00697813
-0.00329929
0.00712137
-0.00296672
0.00727982
-0.002557
0.00745094
-0.00206495
0.00764152
-0.00148363
0.00784694
0.0080729
-0.000807465
-0.00116831
0.00447344
-0.00147616
0.00519376
-0.00178667
0.00578094
-0.0020883
0.00607926
-0.00237343
0.00617279
-0.00263591
0.0062214
-0.00287145
0.00625885
-0.0030816
0.00629363
-0.00326374
0.0063255
-0.00341445
0.00635963
-0.00353403
0.00639631
-0.00362034
0.0064368
-0.00367201
0.00648323
-0.00368222
0.00653143
-0.00364914
0.00658852
-0.0035706
0.00664966
-0.00344317
0.00671789
-0.00326198
0.00679695
-0.00302095
0.00688034
-0.00271598
0.00697485
-0.00234285
0.00707781
-0.0018955
0.00719417
-0.00136985
0.00732129
0.00745689
-0.000753843
-0.00109489
0.00474907
-0.00137736
0.00547622
-0.00165527
0.00605886
-0.00192992
0.00635391
-0.00218382
0.00642669
-0.00241858
0.00645616
-0.00263249
0.00647276
-0.00282047
0.00648161
-0.00298611
0.00649114
-0.00312264
0.00649616
-0.0032334
0.00650706
-0.00331104
0.00651444
-0.00335385
0.00652603
-0.00336437
0.00654195
-0.00333211
0.00655626
-0.00326145
0.00657899
-0.00314604
0.00660248
-0.0029789
0.00662981
-0.00276164
0.00666307
-0.00248648
0.00669969
-0.00214779
0.00673911
-0.00174125
0.00678763
-0.00125855
0.00683859
0.00689903
-0.000700689
-0.00101241
0.00500066
-0.00126202
0.00572583
-0.00151206
0.0063089
-0.00176246
0.0066043
-0.00200215
0.00666638
-0.0022175
0.00667152
-0.00241003
0.00666528
-0.00258157
0.00665315
-0.0027286
0.00663817
-0.00285361
0.00662117
-0.00295063
0.00660408
-0.00302211
0.00658592
-0.00306079
0.00656472
-0.00306827
0.00654942
-0.00304402
0.00653202
-0.00297806
0.00651303
-0.00287291
0.00649733
-0.00272271
0.00647962
-0.00252449
0.00646486
-0.0022728
0.00644799
-0.00196612
0.00643244
-0.00159587
0.00641738
-0.00115968
0.00640241
-0.000650449
0.0063898
0.00124599
-0.000826421
0.00229339
-0.000562271
0.00331095
-0.000334141
0.00433342
-9.44229e-05
0.00535072
0.000184499
0.00633783
0.000511568
0.00727004
0.000891626
0.00812119
0.00132654
0.00886902
0.00181006
0.00949772
0.00233881
0.00999637
0.00290771
0.010359
0.00350879
0.0105875
0.0041377
0.0106905
0.00478948
0.0106827
0.00545993
0.0105848
0.00615196
0.0104182
0.00686607
0.0102056
0.00761333
0.00996699
0.0084022
0.00971692
0.00924786
0.00946744
0.0101598
0.00921987
0.0111582
0.00897623
0.0122475
0.0134372
0.00874226
-0.00014652
-0.000679979
3.58983e-05
-0.000744716
0.00041933
-0.000717607
0.000958761
-0.000633864
0.00163052
-0.000487276
0.00241729
-0.000275211
0.00330149
7.42261e-06
0.00425976
0.000368263
0.00525511
0.000814709
0.00624496
0.00134896
0.00718456
0.00196811
0.00803148
0.00266188
0.00874985
0.00341932
0.00931538
0.00422396
0.00971559
0.00505971
0.00995316
0.0059144
0.010044
0.00677518
0.0100133
0.00764407
0.00989146
0.00852404
0.00970928
0.00943004
0.0094903
0.0103788
0.00925883
0.0113896
0.00902075
0.0124856
0.0136735
0.0087844
-2.6744e-05
-0.000653196
-4.48928e-05
-0.000726557
-1.86655e-05
-0.000743811
7.40931e-05
-0.000726618
0.000261585
-0.00067475
0.000569936
-0.000583559
0.00102002
-0.000442652
0.00162505
-0.000236755
0.00238335
5.64144e-05
0.00327531
0.000457013
0.00426375
0.000979673
0.0052971
0.00162854
0.00631628
0.00240014
0.0072605
0.00327974
0.0080756
0.00424461
0.00872198
0.00526802
0.0091792
0.00631797
0.00944926
0.00737401
0.00955324
0.00842006
0.00952541
0.00945788
0.00940431
0.0104999
0.00922488
0.0115691
0.00901683
0.0126937
0.013899
0.00879136
-2.87765e-05
-0.000624405
-2.67082e-05
-0.000728623
1.15988e-06
-0.000771666
5.95367e-05
-0.000784996
0.000156669
-0.000771869
0.000303289
-0.00073018
0.000514096
-0.000653447
0.000808502
-0.000531159
0.00121179
-0.000346861
0.00174777
-7.89675e-05
0.0024316
0.000295848
0.00325774
0.000802405
0.00419853
0.00145936
0.00520318
0.0022751
0.00620534
0.00324245
0.00713268
0.00434069
0.00791968
0.00553098
0.00852166
0.00677202
0.00891997
0.00802174
0.00912544
0.00925241
0.00917052
0.0104548
0.00909807
0.0116415
0.00895097
0.0128408
0.0140871
0.00876283
-3.64264e-06
-0.000620747
-2.138e-06
-0.000730125
9.6879e-06
-0.000783481
3.58978e-05
-0.000811206
8.25714e-05
-0.000818532
0.000156604
-0.000804214
0.000266944
-0.000763777
0.000426219
-0.000690435
0.00065236
-0.000572993
0.000967817
-0.000394424
0.00139777
-0.000134094
0.00196453
0.000235643
0.00267901
0.000744885
0.00353234
0.00142177
0.00449006
0.00228474
0.00549346
0.00333728
0.00646532
0.00455912
0.00732659
0.00591076
0.0080136
0.00733473
0.00849131
0.00877471
0.00876042
0.0101857
0.00885066
0.0115513
0.00880853
0.0128829
0.0142212
0.00867449
-1.09068e-05
-0.000609829
-1.07004e-05
-0.000730333
-7.29172e-07
-0.000793441
2.03362e-05
-0.000832275
5.52565e-05
-0.000853442
0.000107968
-0.000856928
0.000183551
-0.000839351
0.000288989
-0.000795876
0.000434884
-0.00071888
0.000635913
-0.000595454
0.000910405
-0.00040858
0.00128125
-0.000135198
0.00177338
0.000252758
0.00240648
0.000788667
0.00318465
0.00150657
0.00408764
0.00243429
0.00506478
0.00358199
0.00604189
0.00493364
0.00693067
0.00644595
0.00765476
0.00805062
0.0081681
0.00967238
0.00846442
0.0112549
0.00857339
0.0127739
0.0142526
0.00854197
-4.09486e-06
-0.000605723
-2.62476e-06
-0.000731803
4.87794e-06
-0.000800934
1.97358e-05
-0.000847135
4.37872e-05
-0.000877483
8.01013e-05
-0.000893245
0.000132295
-0.000891536
0.000204981
-0.000868565
0.000304897
-0.000818789
0.000441979
-0.000732538
0.000629754
-0.000596349
0.000885478
-0.000390923
0.00123041
-9.21685e-05
0.00168827
0.000330802
0.00228019
0.00091466
0.00301587
0.00169861
0.00388276
0.0027151
0.00483686
0.00397955
0.00580418
0.00547862
0.00669421
0.0071606
0.00742241
0.00894417
0.00793675
0.0107406
0.0082308
0.0124799
0.0141454
0.00833804
-4.78619e-06
-0.000600919
-3.99663e-06
-0.000732592
2.39617e-06
-0.000807312
1.45385e-05
-0.000859279
3.39839e-05
-0.000896917
6.2653e-05
-0.000921917
0.000103017
-0.000931889
0.000158359
-0.000923911
0.000233074
-0.000893496
0.000333872
-0.000833339
0.000470305
-0.000732778
0.000655212
-0.000575833
0.000904941
-0.000341894
0.00123985
-4.11313e-06
0.00168323
0.000471291
0.00225667
0.00112517
0.00297173
0.00200004
0.00381869
0.00313259
0.0047558
0.00454152
0.00570819
0.0062082
0.00658123
0.00807114
0.00728766
0.0100342
0.00777544
0.0119921
0.0138738
0.00804705
-3.29149e-06
-0.000597628
-2.19074e-06
-0.000733694
3.18881e-06
-0.000812691
1.3176e-05
-0.000869268
2.88388e-05
-0.000912577
5.14566e-05
-0.000944538
8.32061e-05
-0.000963636
0.000126498
-0.000967206
0.000184587
-0.000951583
0.000261945
-0.000910701
0.000365615
-0.000836445
0.000505127
-0.000715347
0.000693181
-0.000529946
0.000945982
-0.000256916
0.00128354
0.00013373
0.00172859
0.000680125
0.00230206
0.00142657
0.00301506
0.0024196
0.00385702
0.00369956
0.00478403
0.00528119
0.00571731
0.00713786
0.00655885
0.00919262
0.00722118
0.0113298
0.0134343
0.00766065
-3.05693e-06
-0.000594564
-2.09508e-06
-0.000734655
2.57402e-06
-0.000817355
1.11198e-05
-0.000877814
2.42754e-05
-0.000925728
4.31613e-05
-0.000963425
6.93065e-05
-0.000989777
0.000104636
-0.00100254
0.000151605
-0.000998549
0.000213601
-0.0009727
0.000295571
-0.000918413
0.000404741
-0.00082452