/*--------------------------------*- C++ -*----------------------------------*\
| =========                 |                                                 |
| \\      /  F ield         | OpenFOAM: The Open Source CFD Toolbox           |
|  \\    /   O peration     | Version:  2.3.0                                 |
|   \\  /    A nd           | Web:      www.OpenFOAM.org                      |
|    \\/     M anipulation  |                                                 |
\*---------------------------------------------------------------------------*/
FoamFile
{
    version     2.0;
    format      ascii;
    class       volScalarField;
    location    "3000";
    object      p;
}
// * * * * * * * * * * * * * * * * * * * * * * * * * * * * * * * * * * * * * //

dimensions      [0 2 -2 0 0 0 0];

internalField   nonuniform List<scalar> 
39563
(
0.015304
-0.611884
-1.19165
-1.80854
-2.42873
-3.05527
-3.68579
-4.32336
-4.96746
-5.61723
-6.27443
-6.93582
-7.59851
-8.26224
-8.9255
-9.57839
-10.223
-10.8469
-11.4519
-12.0283
-12.5691
-13.0595
-13.5086
-13.8991
-14.2198
-14.4511
-14.5869
-14.6005
-14.4772
-14.1719
-13.6545
-12.8639
-11.7305
-10.1575
-8.03529
-5.19361
-1.55015
3.10714
9.90318
19.8427
29.1022
31.5041
46.3674
4.877
4.44679
4.20189
3.97073
3.77456
3.60845
3.47031
3.36185
3.28518
3.23886
3.22314
3.24169
3.29429
3.37803
3.49558
3.65256
3.84066
4.06899
4.33732
4.65472
5.02486
5.45824
5.97328
6.59344
7.33855
8.24881
9.36124
10.7414
12.4414
14.5478
17.1413
20.3705
24.3559
29.2614
35.2967
42.6544
51.5877
62.3649
75.352
90.9252
109.233
130.685
155.505
8.94347
8.75121
8.70659
8.67881
8.68369
8.71751
8.78203
8.87874
9.00689
9.17261
9.3807
9.63319
9.93242
10.2817
10.6943
11.1725
11.7189
12.3524
13.0754
13.8937
14.8203
15.8733
17.0621
18.3956
19.9064
21.6062
23.5301
25.7115
28.1751
30.9736
34.163
37.8103
41.9667
46.7291
52.1925
58.4351
65.5835
73.6992
82.8603
93.0992
104.402
116.86
130.328
12.3186
12.5162
12.6828
12.845
13.0355
13.2575
13.5164
13.8138
14.1544
14.5394
14.9763
15.4669
16.0117
16.6163
17.2846
18.0245
18.8402
19.7464
20.7459
21.8509
23.0728
24.4287
25.9331
27.6024
29.472
31.5555
33.9008
36.5306
39.4948
42.8293
46.5865
50.8229
55.6027
60.9814
67.0131
73.7657
81.2706
89.5542
98.6102
108.364
118.685
129.377
140.124
15.8569
15.9504
16.2038
16.4729
16.7694
17.1057
17.4781
17.8884
18.3449
18.8458
19.4055
20.0221
20.7027
21.4405
22.2537
23.1426
24.1145
25.1802
26.3506
27.6294
29.0301
30.5672
32.2515
34.0972
36.1281
38.3652
40.8427
43.5791
46.6132
49.9722
53.6994
57.838
62.4176
67.4912
73.1004
79.2763
86.0331
93.3843
101.293
109.696
118.495
127.517
136.547
18.7646
18.9346
19.2859
19.6428
20.0226
20.4392
20.8942
21.3922
21.9269
22.5128
23.1559
23.8607
24.6343
25.4546
26.3557
27.3304
28.3933
29.5541
30.8248
32.2055
33.7133
35.3504
37.1339
39.0839
41.2113
43.5467
46.1141
48.9439
52.0484
55.4744
59.237
63.3726
67.9106
72.8853
78.3316
84.2424
90.6434
97.5173
104.824
112.493
120.443
128.524
136.554
21.3859
21.602
22.0014
22.4275
22.8583
23.3314
23.8424
24.4015
24.9897
25.6442
26.3404
27.1376
28.0158
28.9019
29.852
30.8818
31.9985
33.2211
34.5587
36.0186
37.5943
39.316
41.1468
43.1507
45.2965
47.621
50.2021
53.0885
56.1768
59.5729
63.2941
67.3184
71.7078
76.4991
81.7338
87.349
93.3662
99.7966
106.571
113.643
120.941
128.383
135.732
23.8275
24.0599
24.4425
24.8927
25.3234
25.8351
26.3832
26.9797
27.5592
28.2142
28.8747
29.6445
30.634
31.6329
32.6474
33.6942
34.8292
36.0655
37.4036
38.9259
40.5293
42.3416
44.2134
46.2717
48.4696
50.72
53.1801
56.1062
59.1839
62.5317
66.2515
70.185
74.4281
79.0155
84.0609
89.4716
95.1947
101.296
107.664
114.315
121.092
128.025
134.917
26.3815
26.5476
26.7768
27.1373
27.4268
27.8818
28.4177
29.0348
29.4518
29.8974
30.1853
30.4126
31.1764
32.1277
33.1188
34.0715
35.0216
36.0859
37.1482
38.6082
40.0773
41.8704
43.6103
45.4612
47.8828
50.6622
52.4269
55.3234
58.3856
61.5157
65.3433
69.4436
73.722
78.0568
82.8828
88.2619
93.9405
100.022
106.38
113.027
119.603
126.384
132.912
123.056
163.343
185.201
199.376
209.742
217.535
223.394
227.759
230.941
233.199
234.72
235.659
236.13
236.224
236.006
235.536
234.85
233.992
232.994
231.881
230.667
229.376
228.026
226.625
225.185
223.715
222.223
220.716
219.196
217.669
216.139
214.607
213.072
211.535
209.998
208.46
206.924
205.385
203.848
202.324
200.819
199.161
196.867
178.541
194.445
206.316
215.444
222.478
227.781
231.653
234.356
236.119
237.13
237.546
237.495
237.08
236.384
235.477
234.406
233.216
231.94
230.6
229.216
227.799
226.363
224.912
223.453
221.99
220.524
219.058
217.591
216.125
214.661
213.197
211.736
210.277
208.823
207.373
205.927
204.485
203.045
201.608
200.173
198.73
197.122
194.948
143.92
156.602
167.919
177.718
186.039
193.006
198.758
203.451
207.232
210.234
212.577
214.367
215.697
216.635
217.251
217.594
217.71
217.633
217.392
217.015
216.519
215.925
215.245
214.492
213.675
212.804
211.886
210.929
209.938
208.917
207.871
206.804
205.716
204.612
203.492
202.359
201.212
200.054
198.886
197.708
196.518
195.383
194.689
150.54
160.283
169.139
177.014
183.874
189.754
194.715
198.847
202.236
204.975
207.151
208.843
210.123
211.051
211.681
212.061
212.231
212.22
212.06
211.774
211.38
210.897
210.334
209.708
209.026
208.297
207.527
206.724
205.89
205.031
204.151
203.25
202.332
201.398
200.45
199.489
198.515
197.531
196.537
195.53
194.5
193.528
193.123
145.363
153.78
161.611
168.751
175.127
180.729
185.578
189.725
193.224
196.148
198.555
200.517
202.085
203.317
204.255
204.945
205.421
205.709
205.841
205.837
205.715
205.493
205.182
204.795
204.342
203.833
203.275
202.676
202.041
201.375
200.68
199.959
199.216
198.451
197.668
196.868
196.051
195.222
194.382
193.526
192.653
191.792
191.083
144.381
151.866
158.896
165.359
171.207
176.401
180.952
184.892
188.265
191.123
193.516
195.497
197.117
198.421
199.446
200.236
200.818
201.22
201.47
201.585
201.581
201.479
201.288
201.021
200.687
200.298
199.864
199.392
198.883
198.342
197.768
197.172
196.551
195.906
195.245
194.566
193.872
193.167
192.452
191.723
190.987
190.232
189.457
142.876
149.719
156.206
162.192
167.691
172.59
176.916
180.699
183.972
186.776
189.164
191.159
192.829
194.197
195.294
196.171
196.848
197.355
197.704
197.92
198.023
198.029
197.94
197.768
197.53
197.243
196.923
196.566
196.159
195.715
195.231
194.739
194.216
193.67
193.115
192.534
191.944
191.341
190.726
190.103
189.494
188.869
188.365
141.607
147.975
154.095
159.716
164.992
169.717
173.862
177.502
180.666
183.403
185.787
187.772
189.477
190.866
191.991
192.937
193.688
194.248
194.645
194.933
195.121
195.187
195.136
195.016
194.851
194.662
194.45
194.16
193.795
193.421
193.023
192.651
192.212
191.749
191.285
190.764
190.234
189.681
189.139
188.602
188.118
187.576
186.799
139.487
145.759
151.938
157.374
162.654
167.403
171.389
174.952
178.019
180.686
183.07
184.972
186.602
187.897
189.005
190.016
190.715
191.224
191.664
192.042
192.204
192.211
192.181
192.178
192.136
192.052
191.836
191.543
191.305
191.16
190.912
190.708
190.305
189.873
189.509
188.978
188.401
187.967
187.622
187.266
187.005
186.663
185.861
5.47273
5.2573
5.08363
4.89486
4.68987
4.47199
4.2444
4.009
3.76761
3.52274
3.27617
3.03014
2.78719
2.54956
2.31933
2.09939
1.89129
1.69774
1.52064
1.36143
1.22165
1.10238
1.0045
0.928533
0.874219
0.841098
0.828247
0.835633
0.860724
0.901959
0.958067
1.02724
1.11117
1.21114
1.33134
1.48104
1.67894
1.95935
2.36286
2.9169
3.66459
4.97738
8.30401
6.15086
5.86274
5.61706
5.37698
5.14256
4.91611
4.69908
4.49177
4.2946
4.10764
3.93063
3.76317
3.60459
3.45385
3.31002
3.17212
3.03932
2.91048
2.78463
2.66126
2.54008
2.42113
2.30448
2.1898
2.07897
1.97335
1.87387
1.78179
1.70069
1.6344
1.58767
1.56668
1.57999
1.64269
1.7725
1.994
2.33758
2.85941
3.66167
4.91481
6.90364
10.0026
14.3575
6.85274
6.58841
6.35225
6.11688
5.88203
5.64781
5.41469
5.18287
4.9528
4.72417
4.49729
4.27213
4.04931
3.82915
3.61216
3.39855
3.18886
2.98399
2.78456
2.59119
2.4045
2.22509
2.05439
1.89344
1.74353
1.60613
1.48525
1.38409
1.307
1.26016
1.25258
1.29583
1.40311
1.59421
1.89281
2.33761
2.9776
3.8813
5.15666
6.96625
9.52173
12.9826
17.2852
7.50705
7.2595
7.02961
6.79888
6.56755
6.33569
6.10382
5.872
5.64164
5.41319
5.18663
4.96165
4.7389
4.51863
4.30097
4.08605
3.87382
3.66488
3.45936
3.25798
3.062
2.872
2.68912
2.5152
2.35414
2.20743
2.07961
1.97502
1.90181
1.86929
1.88938
1.97495
2.14271
2.41397
2.81797
3.39288
4.19229
5.28904
6.78038
8.77983
11.4025
14.6783
18.5028
8.13078
7.87913
7.66189
7.44163
7.21908
6.99275
6.76277
6.531
6.29862
6.06655
5.83458
5.60238
5.3711
5.14098
4.91277
4.68651
4.46208
4.24075
4.02312
3.81085
3.60393
3.40462
3.21508
3.03693
2.87388
2.7282
2.60707
2.51479
2.45997
2.45377
2.50793
2.63779
2.86209
3.20141
3.68445
4.35326
5.25746
6.4652
8.06045
10.1377
12.756
15.8886
19.4187
8.65134
8.45863
8.25405
8.04292
7.83201
7.61534
7.39255
7.16494
6.93595
6.70731
6.47941
6.24834
6.0163
5.78502
5.55632
5.32997
5.10384
4.87994
4.65907
4.44478
4.23715
4.03588
3.84419
3.66707
3.50964
3.37219
3.26329
3.18721
3.14718
3.15933
3.23815
3.39486
3.65787
4.04019
4.57614
5.30657
6.28004
7.54957
9.19453
11.286
13.8894
16.9403
20.3295
9.15856
8.99664
8.79964
8.59801
8.40457
8.19916
7.98265
7.75839
7.53353
7.31065
7.09411
6.86999
6.64074
6.40999
6.18257
5.96044
5.73671
5.51318
5.29047
5.07597
4.87343
4.67442
4.47697
4.29465
4.14289
4.01539
3.92199
3.87292
3.83226
3.84169
3.93031
4.08885
4.38945
4.80243
5.36855
6.11814
7.12153
8.37919
9.99188
12.0453
14.6382
17.5828
20.8368
9.57302
9.47216
9.30718
9.1206
8.95955
8.77521
8.56551
8.32945
8.08598
7.84466
7.63408
7.41734
7.19281
6.96227
6.73434
6.52272
6.31461
6.10342
5.88371
5.66938
5.48469
5.32205
5.14926
4.9618
4.81731
4.69627
4.61376
4.68313
4.69975
4.70123
4.82247
4.95332
5.30281
5.76936
6.40164
7.19306
8.29845
9.5821
11.1654
13.122
15.9261
18.8257
21.9735
9.46461
9.55874
9.54813
9.4343
9.44697
9.45752
9.42676
9.29814
9.09446
8.80753
8.56476
8.30834
8.02898
7.7273
7.39052
7.13337
6.85662
6.55915
6.21981
5.84869
5.52148
5.24753
5.01797
4.65781
4.39172
4.19684
3.70963
3.66224
3.69799
3.53256
3.59809
3.48414
3.65019
4.01012
4.56602
5.0931
5.92595
6.92665
7.7806
9.66344
13.3509
16.4211
19.2644
16.0745
19.5836
22.0821
24.242
26.1978
27.9542
29.5367
30.9716
32.2815
33.4882
34.6089
35.6595
36.6518
37.5972
38.5057
39.3865
40.246
41.0923
41.9302
42.7648
43.599
44.4343
45.2729
46.1151
46.9611
47.8106
48.6634
49.5196
50.3778
51.2382
52.0999
52.9622
53.8248
54.6875
55.5495
56.4105
57.2701
58.1283
58.9845
59.8392
60.6877
61.5234
62.4618
19.7649
21.9817
23.2602
24.5471
25.8985
27.2664
28.6237
29.953
31.2452
32.4983
33.7118
34.8877
36.0282
37.1366
38.2147
39.2654
40.2906
41.2927
42.2722
43.2305
44.1689
45.0888
45.9911
46.8771
47.7483
48.6055
49.4498
50.2824
51.1041
51.9167
52.7207
53.5175
54.3074
55.0919
55.8716
56.6471
57.4187
58.187
58.9526
59.7161
60.4728
61.2216
61.9964
21.8874
24.7945
26.0678
27.0817
28.1229
29.2129
30.3368
31.4766
32.6192
33.756
34.8794
35.9858
37.0707
38.133
39.1718
40.1867
41.1775
42.1446
43.0887
44.0112
44.9134
45.7959
46.66
47.5072
48.3388
49.1554
49.9592
50.7504
51.5302
52.2999
53.0599
53.8115
54.5551
55.2915
56.021
56.7445
57.4621
58.1743
58.8817
59.5851
60.282
60.9783
61.7235
22.5526
25.846
27.3626
28.4329
29.4866
30.5638
31.6577
32.7566
33.8513
34.9349
36.0018
37.0489
38.0738
39.0756
40.0531
41.0078
41.9399
42.85
43.7393
44.6094
45.4613
46.2966
47.116
47.9204
48.7114
49.4894
50.255
51.0098
51.7543
52.4891
53.2148
53.9323
54.6422
55.3446
56.04
56.7284
57.4105
58.0862
58.7567
59.4228
60.0838
60.7401
61.4242
23.1357
26.4444
28.1405
29.252
30.3258
31.4082
32.4976
33.5839
34.6594
35.7199
36.7612
37.7809
38.778
39.7525
40.7035
41.6323
42.5394
43.4257
44.2924
45.1401
45.9694
46.7814
47.5773
48.3578
49.1233
49.8743
50.612
51.3376
52.0512
52.7535
53.4457
54.1288
54.8036
55.4697
56.1276
56.7772
57.4196
58.0544
58.6832
59.3071
59.9267
60.5362
61.1066
23.8467
27.0792
28.9413
30.0884
31.1626
32.2282
33.2961
34.3573
35.4065
36.4403
37.4563
38.4529
39.4284
40.3821
41.3144
42.225
43.1146
43.9847
44.8342
45.6643
46.4756
47.2688
48.0447
48.8031
49.5448
50.2705
50.982
51.6798
52.3647
53.0374
53.6988
54.3499
54.9927
55.6252
56.2488
56.861
57.4646
58.0592
58.6474
59.2302
59.8089
60.3779
60.8814
24.254
27.5353
29.6264
30.8596
31.9621
33.0224
34.0676
35.0988
36.1156
37.1192
38.1087
39.0825
40.0371
40.9714
41.8844
42.7766
43.65
44.5047
45.3372
46.1483
46.9412
47.7164
48.4724
49.2094
49.9268
50.6278
51.3158
51.9898
52.6494
53.2955
53.9297
54.5541
55.1718
55.7745
56.3685
56.9458
57.5153
58.0735
58.6259
59.175
59.7154
60.2487
60.7077
25.2646
28.5079
30.5885
31.7553
32.7856
33.7765
34.7645
35.7487
36.7255
37.7014
38.6742
39.6343
40.574
41.4963
42.3952
43.2729
44.1354
44.9825
45.8016
46.5978
47.3763
48.1395
48.8781
49.5977
50.2917
50.9734
51.6452
52.2963
52.9294
53.548
54.1544
54.7543
55.3556
55.9253
56.4945
57.0314
57.5725
58.0906
58.6109
59.1301
59.6312
60.1287
60.5524
22.9881
27.7479
30.902
32.2803
33.3534
34.3671
35.3338
36.2913
37.243
38.2036
39.1638
40.1166
41.0369
41.9514
42.827
43.6881
44.5514
45.4084
46.1992
46.9698
47.7352
48.5014
49.2093
49.9157
50.5729
51.2326
51.8871
52.5085
53.1167
53.7208
54.3178
54.9117
55.5262
56.0344
56.6124
57.0961
57.6232
58.0942
58.6002
59.1286
59.5982
60.0747
60.4766
-171.613
-161.854
-152.05
-143.843
-134.728
-124.61
-114.439
-104.757
-95.5836
-86.967
-78.9846
-71.6406
-64.9671
-58.9132
-53.4809
-48.6005
-44.2634
-40.4111
-37.0076
-33.994
-31.3195
-28.9431
-26.8358
-24.9472
-23.243
-21.6945
-20.2682
-18.9498
-17.7184
-16.5609
-15.4641
-14.418
-13.4142
-12.4456
-11.5081
-10.5968
-9.70803
-8.84009
-7.98925
-7.1575
-6.33966
-5.56044
-4.75577
-115.582
-115.258
-113.813
-111.82
-110.031
-108.562
-107.014
-105.026
-102.471
-99.4369
-96.0145
-92.2445
-88.2226
-83.9885
-79.6403
-75.2095
-70.7941
-66.4332
-62.1953
-58.1166
-54.2375
-50.5705
-47.1277
-43.9144
-40.9219
-38.1344
-35.5434
-33.1305
-30.8796
-28.7714
-26.7907
-24.926
-23.1664
-21.4995
-19.9164
-18.4097
-16.9716
-15.5954
-14.2756
-13.008
-11.7877
-10.6301
-9.48693
-122.216
-121.991
-122.006
-121.882
-121.323
-120.176
-118.526
-116.565
-114.397
-111.97
-109.202
-106.08
-102.651
-98.9409
-95.0182
-90.8983
-86.6646
-82.343
-78.0031
-73.6846
-69.4444
-65.3161
-61.3394
-57.5352
-53.9218
-50.5021
-47.2753
-44.2384
-41.3802
-38.6908
-36.1583
-33.768
-31.509
-29.3691
-27.3388
-25.4091
-23.5718
-21.8188
-20.1441
-18.542
-17.0058
-15.5434
-14.1575
-115.307
-115.21
-115.016
-114.733
-114.361
-113.878
-113.254
-112.464
-111.465
-110.279
-108.955
-107.438
-105.662
-103.579
-101.19
-98.466
-95.4433
-92.1257
-88.5716
-84.8173
-80.9291
-76.9563
-72.9621
-69.0015
-65.1183
-61.3524
-57.7235
-54.253
-50.9471
-47.805
-44.8239
-41.9977
-39.3202
-36.7799
-34.3666
-32.0717
-29.887
-27.8041
-25.8165
-23.9186
-22.1048
-20.3787
-18.8676
-114.88
-114.832
-114.81
-114.747
-114.627
-114.432
-114.136
-113.705
-113.114
-112.342
-111.371
-110.204
-108.859
-107.305
-105.523
-103.494
-101.209
-98.6573
-95.8445
-92.7703
-89.4685
-85.9642
-82.3034
-78.537
-74.7167
-70.8981
-67.1174
-63.4217
-59.834
-56.3728
-53.0517
-49.8734
-46.8401
-43.9465
-41.1891
-38.5603
-36.0527
-33.6582
-31.37
-29.1803
-27.0788
-25.0499
-23.1797
-112.954
-112.912
-112.863
-112.78
-112.66
-112.498
-112.283
-112.003
-111.642
-111.185
-110.619
-109.923
-109.079
-108.076
-106.9
-105.523
-103.922
-102.078
-99.9856
-97.6302
-95.0148
-92.141
-89.033
-85.7195
-82.2391
-78.6435
-74.9732
-71.2891
-67.629
-64.0267
-60.514
-57.1083
-53.8245
-50.6651
-47.6344
-44.7301
-41.9493
-39.2858
-36.7341
-34.2863
-31.9364
-29.6714
-27.658
-112.029
-112.001
-111.979
-111.937
-111.871
-111.776
-111.643
-111.464
-111.227
-110.917
-110.526
-110.038
-109.439
-108.71
-107.841
-106.816
-105.614
-104.219
-102.609
-100.77
-98.6954
-96.3725
-93.8007
-90.9889
-87.9541
-84.7299
-81.3428
-77.8483
-74.2884
-70.7056
-67.1444
-63.634
-60.2037
-56.8669
-53.6389
-50.5237
-47.5243
-44.6392
-41.8669
-39.2022
-36.6445
-34.1791
-32.0326
-111.008
-110.984
-110.961
-110.922
-110.865
-110.787
-110.682
-110.546
-110.371
-110.148
-109.869
-109.523
-109.1
-108.584
-107.962
-107.219
-106.336
-105.298
-104.08
-102.668
-101.044
-99.1908
-97.1023
-94.7714
-92.1983
-89.3982
-86.381
-83.1911
-79.8591
-76.4249
-72.9389
-69.4385
-65.9633
-62.5362
-59.1846
-55.9217
-52.7582
-49.6983
-46.7451
-43.897
-41.1573
-38.5057
-36.1884
-110.205
-110.187
-110.171
-110.143
-110.101
-110.044
-109.967
-109.866
-109.735
-109.568
-109.359
-109.099
-108.78
-108.391
-107.919
-107.351
-106.674
-105.873
-104.93
-103.822
-102.536
-101.053
-99.3551
-97.4322
-95.2753
-92.8867
-90.2629
-87.427
-84.3989
-81.2093
-77.9008
-74.5102
-71.0836
-67.6518
-64.2519
-60.9054
-57.632
-54.4436
-51.3487
-48.3502
-45.4547
-42.6366
-40.1649
-109.447
-109.432
-109.418
-109.393
-109.358
-109.311
-109.249
-109.167
-109.064
-108.933
-108.769
-108.567
-108.319
-108.018
-107.654
-107.217
-106.692
-106.066
-105.327
-104.455
-103.434
-102.241
-100.864
-99.2844
-97.4878
-95.4672
-93.2095
-90.7293
-88.0312
-85.1307
-82.0627
-78.8582
-75.5612
-72.2022
-68.8248
-65.4584
-62.131
-58.8619
-55.6661
-52.5522
-49.5318
-46.5766
-43.999
-108.763
-108.752
-108.74
-108.72
-108.691
-108.653
-108.603
-108.537
-108.454
-108.348
-108.218
-108.056
-107.859
-107.619
-107.329
-106.979
-106.56
-106.061
-105.468
-104.766
-103.94
-102.974
-101.847
-100.542
-99.0428
-97.3382
-95.4114
-93.262
-90.8868
-88.2935
-85.5021
-82.5324
-79.4187
-76.1974
-72.9043
-69.5777
-66.2497
-62.9463
-59.6907
-56.4974
-53.3844
-50.3234
-47.6523
-108.121
-108.111
-108.1
-108.082
-108.058
-108.025
-107.983
-107.928
-107.859
-107.772
-107.664
-107.532
-107.37
-107.174
-106.938
-106.654
-106.314
-105.908
-105.425
-104.853
-104.179
-103.385
-102.456
-101.374
-100.122
-98.6835
-97.0389
-95.1846
-93.1104
-90.8109
-88.2977
-85.583
-82.6913
-79.6519
-76.495
-73.2602
-69.9824
-66.6921
-63.4175
-60.1797
-57.0008
-53.8567
-51.0887
-107.507
-107.501
-107.492
-107.478
-107.457
-107.43
-107.394
-107.348
-107.29
-107.217
-107.127
-107.017
-106.882
-106.719
-106.523
-106.288
-106.006
-105.671
-105.271
-104.796
-104.235
-103.576
-102.801
-101.894
-100.84
-99.6214
-98.2192
-96.6216
-94.8144
-92.7902
-90.5504
-88.0963
-85.4424
-82.611
-79.6259
-76.5232
-73.3368
-70.0992
-66.8443
-63.5978
-60.3874
-57.1929
-54.3526
-106.926
-106.92
-106.912
-106.899
-106.881
-106.857
-106.826
-106.786
-106.737
-106.675
-106.598
-106.504
-106.39
-106.252
-106.087
-105.889
-105.652
-105.369
-105.033
-104.635
-104.165
-103.61
-102.957
-102.192
-101.298
-100.26
-99.0571
-97.6787
-96.1074
-94.3282
-92.3369
-90.131
-87.7161
-85.1054
-82.3154
-79.376
-76.3175
-73.1716
-69.9722
-66.7507
-63.5333
-60.3079
-56.9982
-106.359
-106.356
-106.349
-106.338
-106.322
-106.302
-106.275
-106.241
-106.198
-106.144
-106.078
-105.998
-105.9
-105.783
-105.641
-105.471
-105.269
-105.029
-104.743
-104.404
-104.003
-103.53
-102.973
-102.32
-101.556
-100.666
-99.6314
-98.4382
-97.0682
-95.5099
-93.7466
-91.7737
-89.5898
-87.2005
-84.6141
-81.8544
-78.9468
-75.9192
-72.8062
-69.6415
-66.4562
-63.2874
-60.0579
-105.811
-105.808
-105.803
-105.793
-105.779
-105.761
-105.737
-105.707
-105.67
-105.623
-105.566
-105.496
-105.411
-105.309
-105.186
-105.04
-104.866
-104.658
-104.412
-104.121
-103.777
-103.37
-102.891
-102.329
-101.67
-100.9
-100.003
-98.966
-97.7676
-96.3961
-94.8343
-93.0737
-91.1053
-88.9294
-86.549
-83.9795
-81.2396
-78.354
-75.3529
-72.2683
-69.1332
-65.9701
-63.0641
-105.274
-105.272
-105.267
-105.259
-105.247
-105.231
-105.21
-105.184
-105.151
-105.11
-105.06
-104.998
-104.924
-104.835
-104.728
-104.6
-104.448
-104.267
-104.053
-103.799
-103.499
-103.146
-102.73
-102.241
-101.668
-100.998
-100.217
-99.3102
-98.2601
-97.0538
-95.6699
-94.0984
-92.3288
-90.3548
-88.1729
-85.7928
-83.2271
-80.4944
-77.6205
-74.6344
-71.572
-68.4182
-65.7045
-104.749
-104.747
-104.742
-104.735
-104.724
-104.71
-104.691
-104.668
-104.639
-104.603
-104.558
-104.504
-104.438
-104.359
-104.265
-104.152
-104.019
-103.86
-103.672
-103.45
-103.188
-102.878
-102.513
-102.085
-101.584
-100.996
-100.31
-99.5119
-98.5855
-97.5164
-96.2868
-94.8841
-93.2936
-91.5061
-89.5137
-87.3198
-84.9305
-82.3624
-79.6295
-76.7605
-73.792
-70.6732
-68.2595
-104.23
-104.229
-104.225
-104.219
-104.209
-104.196
-104.18
-104.159
-104.133
-104.101
-104.061
-104.013
-103.955
-103.885
-103.801
-103.701
-103.582
-103.442
-103.275
-103.078
-102.846
-102.572
-102.251
-101.872
-101.429
-100.911
-100.306
-99.6001
-98.7797
-97.8317
-96.7376
-95.4826
-94.0521
-92.4346
-90.6187
-88.6028
-86.3842
-83.9781
-81.393
-78.6515
-75.7899
-72.7234
-70.3155
-103.721
-103.72
-103.716
-103.71
-103.701
-103.689
-103.674
-103.655
-103.632
-103.603
-103.568
-103.524
-103.472
-103.409
-103.334
-103.245
-103.139
-103.013
-102.865
-102.689
-102.483
-102.24
-101.954
-101.618
-101.225
-100.763
-100.225
-99.5971
-98.8672
-98.0209
-97.0422
-95.9148
-94.6272
-93.1636
-91.5095
-89.6604
-87.6119
-85.3707
-82.9376
-80.3324
-77.5895
-74.615
-72.2484
-103.213
-103.212
-103.21
-103.204
-103.197
-103.186
-103.173
-103.156
-103.135
-103.109
-103.077
-103.038
-102.991
-102.935
-102.867
-102.787
-102.692
-102.579
-102.446
-102.288
-102.103
-101.885
-101.629
-101.329
-100.977
-100.565
-100.085
-99.5229
-98.8691
-98.1103
-97.2335
-96.2213
-95.0592
-93.7324
-92.2263
-90.5331
-88.6405
-86.5547
-84.275
-81.815
-79.2056
-76.3622
-74.0945
-102.715
-102.714
-102.711
-102.705
-102.698
-102.689
-102.676
-102.661
-102.642
-102.618
-102.589
-102.554
-102.511
-102.46
-102.399
-102.326
-102.24
-102.138
-102.018
-101.876
-101.709
-101.513
-101.282
-101.013
-100.696
-100.325
-99.8922
-99.388
-98.8007
-98.1185
-97.3276
-96.412
-95.3603
-94.1567
-92.7844
-91.2347
-89.4923
-87.5604
-85.4299
-83.1116
-80.6331
-77.9102
-75.6759
-102.215
-102.214
-102.212
-102.208
-102.202
-102.194
-102.183
-102.169
-102.151
-102.13
-102.103
-102.071
-102.033
-101.986
-101.931
-101.865
-101.786
-101.694
-101.585
-101.456
-101.304
-101.127
-100.918
-100.673
-100.387
-100.053
-99.6627
-99.2066
-98.6757
-98.0588
-97.3441
-96.5169
-95.5636
-94.4689
-93.2148
-91.7941
-90.1884
-88.3969
-86.4099
-84.2327
-81.8872
-79.2951
-77.2015
-101.725
-101.724
-101.722
-101.717
-101.711
-101.703
-101.693
-101.68
-101.664
-101.645
-101.62
-101.591
-101.556
-101.513
-101.462
-101.402
-101.33
-101.246
-101.146
-101.029
-100.891
-100.729
-100.54
-100.318
-100.058
-99.7529
-99.398
-98.9848
-98.5031
-97.9434
-97.2943
-96.5411
-95.6726
-94.6744
-93.5302
-92.2278
-90.7508
-89.0937
-87.245
-85.2063
-82.999
-80.5513
-78.844
-101.234
-101.234
-101.232
-101.228
-101.223
-101.215
-101.206
-101.194
-101.18
-101.161
-101.139
-101.112
-101.08
-101.041
-100.994
-100.938
-100.873
-100.795
-100.704
-100.596
-100.47
-100.322
-100.148
-99.945
-99.7078
-99.4313
-99.1083
-98.731
-98.2924
-97.7826
-97.1911
-96.5054
-95.7138
-94.8014
-93.7524
-92.5554
-91.1928
-89.6571
-87.9347
-86.0213
-83.9328
-81.5709
-79.9141
-100.748
-100.748
-100.746
-100.742
-100.737
-100.731
-100.722
-100.711
-100.697
-100.68
-100.66
-100.635
-100.605
-100.569
-100.526
-100.475
-100.414
-100.343
-100.259
-100.16
-100.044
-99.9083
-99.7492
-99.5633
-99.3458
-99.0912
-98.7946
-98.45
-98.0487
-97.5822
-97.0413
-96.4134
-95.688
-94.8521
-93.8904
-92.7898
-91.5322
-90.1103
-88.5063
-86.7092
-84.7302
-82.4446
-80.7662
-100.264
-100.264
-100.263
-100.259
-100.255
-100.249
-100.241
-100.23
-100.218
-100.202
-100.183
-100.16
-100.132
-100.099
-100.059
-100.011
-99.9555
-99.8897
-99.8119
-99.7203
-99.6131
-99.4877
-99.3408
-99.169
-98.9688
-98.7357
-98.4642
-98.147
-97.7785
-97.3505
-96.8541
-96.2787
-95.6133
-94.8451
-93.9588
-92.9449
-91.7832
-90.4639
-88.9701
-87.2886
-85.4234
-83.2592
-81.6243
-99.7846
-99.7839
-99.7826
-99.7796
-99.7754
-99.7696
-99.7621
-99.7525
-99.7406
-99.7261
-99.7082
-99.6866
-99.6606
-99.6294
-99.5922
-99.5482
-99.4962
-99.4349
-99.3629
-99.2785
-99.1796
-99.0633
-98.9275
-98.7692
-98.5844
-98.3684
-98.117
-97.825
-97.4857
-97.0916
-96.6343
-96.1036
-95.4909
-94.784
-93.9683
-93.0326
-91.9591
-90.7389
-89.3524
-87.7861
-86.0479
-84.0403
-82.7379
-99.3071
-99.3068
-99.3057
-99.3031
-99.2991
-99.2937
-99.2867
-99.2778
-99.2667
-99.2529
-99.2363
-99.2161
-99.1918
-99.1627
-99.1281
-99.0869
-99.0384
-98.9814
-98.9142
-98.8352
-98.7427
-98.6349
-98.5088
-98.3614
-98.1899
-97.9904
-97.7586
-97.4881
-97.1741
-96.8099
-96.3883
-95.8997
-95.3341
-94.6808
-93.9268
-93.062
-92.0675
-90.9334
-89.6429
-88.1784
-86.5382
-84.6187
-83.2708
-98.8353
-98.8343
-98.8329
-98.8301
-98.8262
-98.821
-98.8142
-98.8056
-98.7951
-98.7822
-98.7664
-98.7473
-98.7245
-98.6971
-98.6644
-98.6259
-98.5805
-98.527
-98.4642
-98.3909
-98.305
-98.2042
-98.0867
-97.95
-97.7906
-97.6047
-97.3886
-97.138
-96.8472
-96.5099
-96.1187
-95.665
-95.1416
-94.5375
-93.8404
-93.0397
-92.119
-91.0682
-89.8688
-88.5017
-86.9667
-85.1415
-83.9171
-98.3613
-98.3614
-98.3607
-98.3585
-98.3551
-98.3505
-98.3443
-98.3364
-98.3266
-98.3143
-98.2995
-98.2816
-98.26
-98.2343
-98.2037
-98.1676
-98.1249
-98.0746
-98.0156
-97.9466
-97.8658
-97.7718
-97.6621
-97.5338
-97.385
-97.2123
-97.0116
-96.7781
-96.5073
-96.1936
-95.8308
-95.4112
-94.9256
-94.3648
-93.7174
-92.9738
-92.1194
-91.1423
-90.0269
-88.7524
-87.3234
-85.6311
-84.3324
-97.8973
-97.8965
-97.8954
-97.8929
-97.8894
-97.8847
-97.8786
-97.8709
-97.8614
-97.8498
-97.8356
-97.8185
-97.7981
-97.7737
-97.7446
-97.7103
-97.6701
-97.623
-97.5678
-97.5031
-97.4274
-97.3389
-97.2359
-97.1164
-96.9771
-96.8148
-96.6269
-96.4093
-96.157
-95.8648
-95.5269
-95.1353
-94.6831
-94.1626
-93.5628
-92.8729
-92.0801
-91.1731
-90.143
-88.9708
-87.6769
-86.2066
-86.0056
-97.4318
-97.4314
-97.4306
-97.4284
-97.4252
-97.4209
-97.4153
-97.408
-97.3991
-97.388
-97.3746
-97.3585
-97.339
-97.3159
-97.2885
-97.2561
-97.218
-97.1731
-97.1206
-97.0593
-96.9879
-96.9049
-96.8082
-96.6955
-96.565
-96.4138
-96.2381
-96.0339
-95.7979
-95.525
-95.209
-94.8447
-94.4242
-93.9382
-93.378
-92.7342
-91.9965
-91.153
-90.1922
-89.0957
-87.8827
-86.4598
-85.9115
-96.9722
-96.9717
-96.9708
-96.9687
-96.9656
-96.9614
-96.9558
-96.9488
-96.9402
-96.9296
-96.9167
-96.9012
-96.8828
-96.8607
-96.8346
-96.8039
-96.7678
-96.7256
-96.6765
-96.6189
-96.5516
-96.4731
-96.382
-96.276
-96.1529
-96.0098
-95.8445
-95.6536
-95.4324
-95.1767
-94.8817
-94.5406
-94.1464
-93.6932
-93.1719
-92.5715
-91.8819
-91.0911
-90.1892
-89.1554
-87.9919
-86.5666
-85.9062
-96.5145
-96.5143
-96.5135
-96.5116
-96.5087
-96.5047
-96.4996
-96.493
-96.4848
-96.4746
-96.4624
-96.4477
-96.43
-96.409
-96.3842
-96.3547
-96.3203
-96.28
-96.2328
-96.1779
-96.1141
-96.0399
-95.9538
-95.8538
-95.738
-95.6041
-95.449
-95.2689
-95.0612
-94.8213
-94.5437
-94.2244
-93.8562
-93.4312
-92.942
-92.3799
-91.7351
-90.9959
-90.1509
-89.1823
-88.0868
-86.7645
-86.1427
-96.062
-96.0615
-96.0608
-96.0589
-96.0561
-96.0522
-96.0471
-96.0407
-96.0327
-96.023
-96.0112
-95.997
-95.9801
-95.96
-95.9363
-95.9084
-95.8757
-95.8376
-95.7932
-95.7413
-95.6808
-95.6106
-95.5291
-95.4343
-95.3248
-95.1977
-95.0507
-94.8816
-94.686
-94.4603
-94.2003
-93.9
-93.5537
-93.1559
-92.6982
-92.1712
-91.5662
-90.8722
-90.0774
-89.1637
-88.1254
-86.8755
-85.7367
-95.612
-95.6118
-95.6112
-95.6094
-95.6067
-95.603
-95.5982
-95.5921
-95.5845
-95.5752
-95.5639
-95.5503
-95.5341
-95.5149
-95.4922
-95.4655
-95.4342
-95.3974
-95.3547
-95.3052
-95.2477
-95.1809
-95.1036
-95.0139
-94.9101
-94.7904
-94.6523
-94.4921
-94.3074
-94.0945
-93.849
-93.5669
-93.242
-92.8673
-92.4366
-91.9422
-91.3746
-90.7243
-89.9804
-89.1284
-88.16
-87.0076
-86.1837
-95.167
-95.1664
-95.1657
-95.1639
-95.1612
-95.1577
-95.1529
-95.147
-95.1396
-95.1306
-95.1197
-95.1066
-95.0911
-95.0726
-95.0508
-95.0251
-94.9953
-94.9605
-94.9201
-94.8729
-94.8181
-94.7544
-94.6809
-94.596
-94.4978
-94.3839
-94.2524
-94.1013
-93.9271
-93.7263
-93.495
-93.2282
-92.9214
-92.5696
-92.1649
-91.6995
-91.1659
-90.5535
-89.8523
-89.0464
-88.1428
-87.1017
-85.946
-94.7233
-94.7233
-94.723
-94.7215
-94.7191
-94.7158
-94.7114
-94.7058
-94.6987
-94.69
-94.6795
-94.6669
-94.6519
-94.6342
-94.6134
-94.5889
-94.5602
-94.5265
-94.4876
-94.4425
-94.3904
-94.33
-94.2601
-94.1789
-94.0851
-93.9774
-93.8533
-93.7097
-93.5443
-93.3541
-93.1353
-92.8843
-92.5952
-92.2623
-91.8803
-91.4423
-90.9405
-90.3674
-89.7163
-88.9757
-88.1543
-87.301
-87.4749
-94.2885
-94.2878
-94.2866
-94.2847
-94.282
-94.2785
-94.274
-94.2683
-94.2614
-94.253
-94.2428
-94.2306
-94.2162
-94.199
-94.1788
-94.1551
-94.1276
-94.0957
-94.0586
-94.0155
-93.9655
-93.9077
-93.8408
-93.7637
-93.6749
-93.5721
-93.4536
-93.3176
-93.1611
-92.9811
-92.774
-92.5354
-92.2613
-91.9475
-91.5872
-91.1732
-90.6985
-90.154
-89.5315
-88.8161
-87.9941
-87.0108
-86.341
-93.8494
-93.8496
-93.8495
-93.8483
-93.8462
-93.8432
-93.8392
-93.8339
-93.8273
-93.8192
-93.8094
-93.7977
-93.7837
-93.7673
-93.748
-93.7253
-93.6988
-93.6678
-93.632
-93.5906
-93.5429
-93.4877
-93.4239
-93.3502
-93.2652
-93.1677
-93.0553
-92.9256
-92.7767
-92.6054
-92.4085
-92.1828
-91.924
-91.626
-91.2833
-90.8902
-90.4392
-89.9213
-89.3259
-88.6354
-87.8307
-86.8506
-85.9766
-93.4225
-93.422
-93.4211
-93.4194
-93.417
-93.4137
-93.4094
-93.4041
-93.3976
-93.3897
-93.3801
-93.3687
-93.3552
-93.3392
-93.3203
-93.2984
-93.2729
-93.2434
-93.2092
-93.1695
-93.1235
-93.0706
-93.0096
-92.9391
-92.858
-92.7644
-92.6569
-92.5336
-92.3918
-92.229
-92.0423
-91.8276
-91.5808
-91.298
-90.9738
-90.6014
-90.1734
-89.682
-89.1181
-88.4685
-87.7197
-86.8455
-86.2314
-92.9932
-92.993
-92.9926
-92.9913
-92.9892
-92.9861
-92.9822
-92.9772
-92.9709
-92.9632
-92.954
-92.943
-92.9298
-92.9144
-92.8963
-92.8752
-92.8505
-92.8218
-92.7885
-92.7502
-92.7062
-92.6554
-92.5967
-92.5293
-92.4517
-92.3626
-92.2601
-92.1422
-92.007
-91.8517
-91.6733
-91.4688
-91.2345
-90.9655
-90.6565
-90.3021
-89.8957
-89.429
-88.8928
-88.2747
-87.5662
-86.7616
-86.1375
-92.5714
-92.5711
-92.5704
-92.5689
-92.5666
-92.5635
-92.5595
-92.5545
-92.5484
-92.5408
-92.5317
-92.5209
-92.5082
-92.4931
-92.4756
-92.455
-92.4312
-92.4035
-92.3717
-92.3349
-92.2924
-92.2434
-92.1872
-92.1225
-92.048
-91.9624
-91.8641
-91.7514
-91.622
-91.4735
-91.3036
-91.1087
-90.885
-90.6286
-90.3347
-89.9972
-89.6098
-89.1653
-88.6558
-88.0696
-87.3983
-86.6328
-86.0365
-92.1506
-92.1504
-92.1499
-92.1485