/*--------------------------------*- C++ -*----------------------------------*\
| =========                 |                                                 |
| \\      /  F ield         | OpenFOAM: The Open Source CFD Toolbox           |
|  \\    /   O peration     | Version:  2.3.0                                 |
|   \\  /    A nd           | Web:      www.OpenFOAM.org                      |
|    \\/     M anipulation  |                                                 |
\*---------------------------------------------------------------------------*/
FoamFile
{
    version     2.0;
    format      ascii;
    class       volScalarField;
    location    "5000";
    object      nuTilda;
}
// * * * * * * * * * * * * * * * * * * * * * * * * * * * * * * * * * * * * * //

dimensions      [0 2 -1 0 0 0 0];

internalField   nonuniform List<scalar> 
37496
(
0.0708584
0.0692163
0.0675715
0.065924
0.0642736
0.0626212
0.0609672
0.0593123
0.0576571
0.0560024
0.0543489
0.0526972
0.0510482
0.0494028
0.0477617
0.0461252
0.0444948
0.042871
0.0412546
0.0396464
0.0380471
0.0364579
0.0348798
0.0333132
0.0317593
0.0302196
0.0286956
0.0271889
0.0257014
0.0242358
0.0227969
0.0213902
0.0200227
0.0187049
0.0174486
0.0162672
0.0151788
0.0141981
0.0132905
0.012313
0.0111054
0.00956283
0.0079316
0.0720263
0.0705734
0.0691193
0.0676636
0.0662066
0.064748
0.0632884
0.0618276
0.0603665
0.0589052
0.057444
0.0559834
0.0545239
0.0530663
0.0516106
0.0501575
0.0487076
0.0472616
0.0458201
0.0443841
0.0429543
0.0415317
0.0401176
0.0387127
0.0373185
0.0359369
0.0345696
0.0332185
0.0318864
0.0305764
0.0292929
0.0280416
0.0268284
0.025661
0.0245499
0.0235071
0.0225468
0.0216854
0.0209414
0.0203298
0.0198651
0.0195637
0.0194411
0.0731084
0.071816
0.0705239
0.0692312
0.067937
0.0666411
0.0653435
0.0640445
0.0627442
0.0614424
0.0601394
0.0588358
0.0575314
0.0562269
0.0549222
0.0536182
0.0523147
0.0510125
0.0497124
0.0484152
0.0471217
0.0458328
0.0445499
0.0432744
0.0420081
0.0407523
0.03951
0.0382837
0.0370763
0.0358919
0.034735
0.0336115
0.0325282
0.0314933
0.0305157
0.0296062
0.0287769
0.0280412
0.0274124
0.0269035
0.0265257
0.0262884
0.0261961
0.0741039
0.0729505
0.0717988
0.0706453
0.0694899
0.0683319
0.0671714
0.0660084
0.0648428
0.0636743
0.0625032
0.0613294
0.0601534
0.0589754
0.0577955
0.0566142
0.0554312
0.0542472
0.0530627
0.0518789
0.0506966
0.0495163
0.0483396
0.0471684
0.0460041
0.0448489
0.0437051
0.0425761
0.0414648
0.0403759
0.0393139
0.0382841
0.0372934
0.0363493
0.0354614
0.0346382
0.0338903
0.0332294
0.0326663
0.0322114
0.0318737
0.0316601
0.0315735
0.0750067
0.0739831
0.0729539
0.0719206
0.0708836
0.0698431
0.0687988
0.0677507
0.0666985
0.065642
0.0645811
0.0635157
0.0624463
0.0613732
0.0602965
0.0592164
0.0581328
0.0570462
0.055957
0.0548659
0.053774
0.0526825
0.0515925
0.0505059
0.0494237
0.0483482
0.0472828
0.04623
0.0451933
0.0441774
0.0431871
0.0422274
0.0413048
0.0404265
0.0396009
0.0388366
0.0381429
0.0375303
0.0370081
0.0365856
0.036271
0.0360697
0.035984
0.0758447
0.0749256
0.0740007
0.0730699
0.0721343
0.0711936
0.070248
0.0692974
0.0683412
0.0673793
0.0664112
0.0654366
0.0644561
0.0634702
0.0624792
0.061483
0.0604817
0.0594757
0.0584654
0.0574507
0.056433
0.055414
0.0543952
0.0533778
0.0523628
0.051352
0.0503489
0.0493571
0.0483795
0.0474206
0.0464857
0.0455795
0.0447085
0.0438796
0.0431002
0.0423784
0.0417228
0.0411436
0.0406489
0.0402473
0.0399466
0.0397518
0.0396654
0.0766116
0.075783
0.0749479
0.0741056
0.0732563
0.0724009
0.0715394
0.0706715
0.0697966
0.068915
0.0680262
0.0671286
0.066222
0.0653083
0.0643889
0.063463
0.0625299
0.0615908
0.0606465
0.059696
0.0587399
0.0577801
0.056819
0.0558588
0.0549005
0.0539437
0.0529909
0.0520482
0.0511181
0.0502047
0.049314
0.0484501
0.0476179
0.0468268
0.0460831
0.0453941
0.0447669
0.0442112
0.0437357
0.0433488
0.0430576
0.0428665
0.0427792
0.0773116
0.0765612
0.0758041
0.0750387
0.074263
0.073481
0.0726908
0.0718939
0.0710877
0.070273
0.0694525
0.0686222
0.0677783
0.0669229
0.0660631
0.0651975
0.064322
0.0634373
0.0625483
0.061653
0.0607494
0.0598386
0.058924
0.0580084
0.0570993
0.0561913
0.0552784
0.0543761
0.0534858
0.0526086
0.0517523
0.0509254
0.0501202
0.049359
0.0486441
0.0479821
0.0473783
0.0468391
0.0463772
0.046001
0.0457162
0.0455274
0.0454387
0.0779549
0.0772663
0.0765735
0.0758787
0.0751665
0.074451
0.0737165
0.0729785
0.0722318
0.0714683
0.0707032
0.0699334
0.0691509
0.0683408
0.0675265
0.0667106
0.0658892
0.0650459
0.0642003
0.0633531
0.0624986
0.0616286
0.0607576
0.059869
0.0589934
0.0581401
0.0572619
0.0563948
0.0555395
0.0546967
0.0538505
0.0530715
0.0522814
0.0515438
0.0508505
0.0502133
0.0496358
0.0491078
0.0486558
0.0482877
0.0480072
0.0478186
0.0477272
0.00852032
0.0105414
0.0117014
0.0127962
0.0139526
0.0151809
0.016465
0.01779
0.0191434
0.0205172
0.0219065
0.0233061
0.0247141
0.0261295
0.0275492
0.0289742
0.0304028
0.031835
0.0332705
0.0347091
0.0361507
0.0375951
0.0390426
0.0404922
0.0419448
0.0434001
0.0448577
0.0463179
0.0477801
0.0492447
0.0507111
0.0521792
0.0536489
0.0551199
0.056592
0.0580649
0.0595386
0.0610125
0.0624865
0.06396
0.0654324
0.0669026
0.0683702
0.0195075
0.0197701
0.020218
0.0208343
0.0215972
0.0224812
0.0234631
0.0245212
0.0256398
0.0268047
0.0280043
0.0292315
0.0304795
0.031742
0.0330171
0.0343003
0.0355903
0.0368853
0.0381838
0.0394847
0.0407878
0.0420923
0.0433976
0.0447041
0.0460112
0.0473186
0.0486264
0.0499346
0.0512428
0.0525511
0.0538596
0.0551679
0.0564759
0.057784
0.0590921
0.0604
0.0617079
0.0630158
0.0643234
0.0656306
0.0669375
0.0682437
0.0695516
0.0262476
0.0264441
0.0267879
0.0272707
0.0278793
0.0285981
0.0294108
0.0303027
0.0312599
0.0322694
0.0333205
0.0344054
0.0355161
0.0366476
0.0377943
0.0389524
0.0401192
0.0412923
0.0424696
0.0436498
0.0448319
0.0460147
0.0471983
0.0483813
0.0495636
0.050745
0.0519255
0.0531045
0.054282
0.055458
0.0566326
0.0578055
0.0589771
0.0601472
0.0613161
0.0624839
0.0636507
0.0648169
0.0659822
0.0671469
0.0683108
0.0694741
0.0706382
0.0316125
0.0317771
0.0320682
0.0324799
0.0330029
0.0336255
0.034336
0.0351227
0.0359727
0.036875
0.0378206
0.0388013
0.0398098
0.0408396
0.0418862
0.0429454
0.0440136
0.0450883
0.0461672
0.0472485
0.048331
0.049414
0.0504962
0.051577
0.052656
0.053733
0.0548072
0.0558783
0.0569464
0.0580117
0.0590741
0.0601336
0.0611901
0.0622438
0.0632948
0.0643438
0.0653908
0.066436
0.0674796
0.0685217
0.0695622
0.0706009
0.0716377
0.0360136
0.0361585
0.0364166
0.0367837
0.0372526
0.0378134
0.0384565
0.0391708
0.0399458
0.0407718
0.0416402
0.0425429
0.0434729
0.0444244
0.0453928
0.0463735
0.047363
0.0483584
0.0493571
0.0503575
0.0513587
0.0523592
0.0533582
0.0543552
0.0553491
0.0563392
0.0573249
0.0583061
0.059283
0.0602559
0.0612247
0.0621887
0.0631482
0.0641034
0.0650549
0.0660031
0.0669482
0.0678903
0.0688294
0.0697662
0.0707006
0.0716322
0.0725622
0.0396882
0.0398188
0.0400545
0.0403913
0.0408227
0.0413403
0.0419346
0.0425966
0.0433165
0.0440856
0.0448955
0.0457386
0.0466082
0.0474985
0.0484052
0.0493233
0.050249
0.0511798
0.0521132
0.0530476
0.0539819
0.054915
0.0558464
0.0567746
0.0576978
0.0586152
0.0595268
0.0604329
0.0613339
0.06223
0.0631203
0.0640039
0.0648811
0.0657531
0.0666204
0.0674833
0.0683416
0.0691953
0.070045
0.0708912
0.0717341
0.0725729
0.0734073
0.0427961
0.0429166
0.0431375
0.043452
0.0438552
0.0443399
0.0448976
0.0455197
0.0461981
0.0469233
0.0476875
0.0484836
0.0493056
0.0501478
0.0510052
0.0518727
0.0527459
0.0536228
0.0545022
0.0553821
0.0562614
0.05714
0.0580164
0.0588878
0.0597513
0.0606067
0.0614557
0.0622992
0.0631375
0.0639698
0.0647941
0.0656088
0.0664158
0.0672172
0.0680132
0.068804
0.0695883
0.0703659
0.0711385
0.0719072
0.0726716
0.0734302
0.0741825
0.0454509
0.0455643
0.0457773
0.0460728
0.0464544
0.0469128
0.0474409
0.0480307
0.0486781
0.0493683
0.0500955
0.0508541
0.0516389
0.0524423
0.0532594
0.0540849
0.0549134
0.0557443
0.0565795
0.0574137
0.0582479
0.0590824
0.0599161
0.0607391
0.0615491
0.062351
0.0631473
0.0639394
0.064727
0.0655071
0.0662744
0.0670275
0.0677742
0.0685171
0.0692536
0.0699836
0.0707037
0.0714147
0.0721212
0.072824
0.0735215
0.0742111
0.0748905
0.047736
0.0478404
0.0480548
0.048326
0.0486922
0.0491286
0.0496284
0.0501859
0.0508145
0.0514756
0.052169
0.0528967
0.0536528
0.0544215
0.0552055
0.0559951
0.0567825
0.0575759
0.0583781
0.0591712
0.059972
0.0607728
0.0615736
0.0623463
0.0631066
0.0638651
0.0646199
0.0653727
0.0661208
0.0668577
0.0675709
0.0682664
0.0689682
0.0696658
0.0703503
0.0710301
0.0716912
0.072346
0.0730001
0.07365
0.0742938
0.0749267
0.0755428
0.0248729
0.0240809
0.0232969
0.0225206
0.0217523
0.0209925
0.0202414
0.0194996
0.0187674
0.0180451
0.0173329
0.0166309
0.0159393
0.0152582
0.0145876
0.0139273
0.0132775
0.0126378
0.0120082
0.0113886
0.0107787
0.0101783
0.00958731
0.0090054
0.00843241
0.00786816
0.00731262
0.00676576
0.00622767
0.00569876
0.00517957
0.00467098
0.0041743
0.00369141
0.00322463
0.00277675
0.002351
0.00195023
0.00157631
0.00122611
0.000879107
0.000629647
0.000416021
0.0248423
0.0241045
0.023377
0.0226572
0.0219446
0.0212388
0.02054
0.0198484
0.0191642
0.0184874
0.0178183
0.0171568
0.016503
0.0158569
0.0152185
0.0145877
0.0139644
0.0133484
0.0127396
0.0121379
0.0115431
0.010955
0.0103733
0.00979803
0.00922898
0.00866601
0.00810924
0.00755867
0.00701451
0.00647725
0.00594764
0.00542652
0.00491533
0.0044156
0.00392939
0.00345898
0.00300605
0.00257164
0.00215381
0.00174694
0.00136799
0.00103887
0.000706955
0.0248111
0.0241313
0.023459
0.0227931
0.0221327
0.0214777
0.0208278
0.0201831
0.0195433
0.0189088
0.0182794
0.0176551
0.017036
0.0164219
0.0158128
0.0152087
0.0146092
0.0140145
0.0134243
0.0128385
0.0122569
0.0116794
0.0111058
0.0105361
0.00997016
0.00940795
0.00884964
0.00829523
0.00774506
0.00719968
0.00665975
0.00612619
0.00560019
0.005083
0.00457611
0.00408076
0.003597
0.00312262
0.0026502
0.00216698
0.00176368
0.00137037
0.000929045
0.0247743
0.024154
0.0235344
0.022918
0.0223051
0.0216957
0.0210896
0.0204865
0.0198865
0.0192895
0.0186953
0.018104
0.0175155
0.0169296
0.0163464
0.0157656
0.0151872
0.014611
0.014037
0.013465
0.0128948
0.0123263
0.0117596
0.0111945
0.0106309
0.0100689
0.00950861
0.00895019
0.00839403
0.00784058
0.00729048
0.00674459
0.00620378
0.00566914
0.00514143
0.00462088
0.00410603
0.00359294
0.0030761
0.00257007
0.00210793
0.001638
0.00110446
0.0247444
0.024174
0.0236023
0.0230311
0.0224611
0.0218926
0.0213254
0.0207595
0.0201946
0.0196308
0.0190677
0.0185055
0.0179439
0.0173829
0.0168223
0.016262
0.015702
0.015142
0.014582
0.0140219
0.0134615
0.0129008
0.0123398
0.0117783
0.0112163
0.010654
0.0100915
0.00952892
0.00896676
0.00840531
0.00784524
0.00728726
0.00673212
0.00618051
0.00563249
0.00508721
0.0045415
0.00398889
0.00342085
0.00289958
0.00239627
0.00185685
0.00124658
0.024718
0.024192
0.0236633
0.0231331
0.0226019
0.0220701
0.0215378
0.0210048
0.0204712
0.0199367
0.0194013
0.0188646
0.0183268
0.0177876
0.017247
0.0167049
0.016161
0.0156153
0.0150675
0.0145177
0.0139657
0.0134117
0.0128554
0.0122968
0.0117359
0.0111729
0.0106079
0.0100412
0.00947304
0.00890381
0.00833416
0.00776467
0.00719589
0.00662808
0.00606069
0.00549179
0.00491665
0.0043267
0.0037123
0.00317112
0.0026348
0.00203654
0.00136281
0.0246937
0.0242081
0.0237182
0.0232249
0.0227289
0.0222302
0.0217291
0.0212254
0.0207195
0.0202113
0.0197003
0.0191864
0.0186695
0.0181496
0.0176267
0.0171007
0.0165714
0.0160384
0.0155017
0.0149609
0.0144162
0.0138677
0.0133155
0.0127593
0.0121992
0.0116353
0.011068
0.0104972
0.00992331
0.00934675
0.00876808
0.00818774
0.00760605
0.00702295
0.0064373
0.0058465
0.00524471
0.004623
0.00397549
0.00340583
0.0028358
0.00218533
0.00145876
0.0246722
0.0242226
0.0237673
0.0233074
0.0228432
0.0223747
0.0219016
0.0214239
0.0209422
0.0204573
0.019969
0.0194755
0.0189768
0.0184737
0.0179665
0.0174551
0.0169392
0.0164186
0.0158924
0.01536
0.0148217
0.0142778
0.0137291
0.0131757
0.0126161
0.0120513
0.0114822
0.010908
0.010329
0.0097455
0.00915839
0.00856797
0.00797422
0.00737658
0.006774
0.00616285
0.0055372
0.00489038
0.00423026
0.00362132
0.00301166
0.00230822
0.00153452
0.0246546
0.0242361
0.0238109
0.0233806
0.0229453
0.0225053
0.0220585
0.0216032
0.0211409
0.0206755
0.0202103
0.0197375
0.019254
0.0187642
0.0182703
0.0177723
0.0172691
0.016762
0.016248
0.015725
0.0151933
0.0146523
0.0141048
0.0135578
0.0130005
0.0124327
0.0118632
0.0112877
0.0107055
0.0101158
0.00952106
0.00892234
0.00831782
0.00770652
0.00708786
0.00645793
0.00580936
0.00514042
0.00446967
0.00383327
0.00319029
0.00244587
0.00162337
0.000382541
0.000486415
0.000677072
0.000858956
0.00103316
0.00120112
0.00136452
0.00152576
0.00168833
0.00185749
0.00204086
0.00224739
0.00248304
0.00274886
0.00304391
0.00336588
0.00371328
0.00408525
0.00448159
0.00490242
0.00534795
0.00581858
0.00631506
0.00683769
0.00738728
0.00796414
0.00856899
0.00920222
0.00986462
0.0105568
0.0112798
0.0120344
0.0128214
0.0136418
0.0144964
0.0153863
0.0163125
0.0172758
0.0182773
0.019318
0.0203989
0.0215214
0.0226888
0.000533664
0.000639049
0.000834802
0.00102665
0.00121062
0.00138871
0.00156454
0.00174314
0.00193071
0.0021344
0.00236132
0.00261795
0.00290705
0.00322336
0.00356389
0.00392723
0.00431238
0.00471897
0.00514693
0.00559617
0.0060671
0.00656008
0.00707535
0.0076132
0.00817372
0.00875747
0.00936499
0.0099966
0.0106529
0.0113345
0.0120422
0.0127765
0.0135381
0.0143279
0.0151465
0.0159949
0.016874
0.0177845
0.0187271
0.0197028
0.0207128
0.0217589
0.0228448
0.000676526
0.000777493
0.000979852
0.00118202
0.00137745
0.0015699
0.00176543
0.00197117
0.00219413
0.00244019
0.00271384
0.00301893
0.00335483
0.00371409
0.00409416
0.00449397
0.00491292
0.00535061
0.00580697
0.00628202
0.00677578
0.00728837
0.0078201
0.00837076
0.00894043
0.00952951
0.0101384
0.0107674
0.0114169
0.0120874
0.0127794
0.0134935
0.0142301
0.01499
0.0157737
0.0165817
0.0174149
0.0182739
0.0191595
0.0200725
0.021014
0.0219853
0.0229883
0.000801556
0.000899332
0.0011093
0.00132248
0.00153189
0.00174343
0.00196501
0.00220417
0.00246653
0.00275541
0.00307289
0.00342211
0.00379787
0.00419387
0.00460817
0.00503985
0.00548833
0.00595338
0.00643484
0.0069323
0.00744575
0.00797531
0.00852054
0.0090816
0.00965842
0.0102512
0.0108602
0.0114858
0.0121281
0.0127875
0.0134644
0.0141591
0.014872
0.0156037
0.0163546
0.0171251
0.0179157
0.0187272
0.0195601
0.020415
0.0212928
0.022194
0.0231193
0.000908588
0.00100632
0.00122509
0.00145064
0.0016769
0.00191161
0.00216325
0.00243811
0.00273945
0.00306819
0.00342548
0.00381374
0.00422404
0.00465212
0.00509648
0.00555623
0.00603087
0.00651988
0.00702318
0.00754024
0.00807067
0.00861424
0.0091711
0.00974058
0.0103231
0.0109186
0.0115269
0.0121486
0.0127836
0.0134321
0.0140946
0.014771
0.0154619
0.0161674
0.016888
0.0176239
0.0183755
0.0191435
0.0199279
0.0207296
0.021549
0.0223866
0.0232445
0.00100019
0.00110101
0.00132973
0.0015692
0.00181485
0.00207542
0.00235867
0.00266874
0.00300646
0.00337137
0.00376517
0.00418697
0.00462752
0.00508402
0.00555507
0.00603978
0.00653758
0.00704791
0.00757041
0.0081045
0.00864961
0.00920551
0.00977191
0.0103486
0.0109355
0.0115327
0.01214
0.0127577
0.0133856
0.0140238
0.0146727
0.0153322
0.0160025
0.016684
0.0173768
0.0180809
0.0187967
0.0195247
0.0202649
0.0210176
0.0217832
0.0225609
0.0233495
0.00107882
0.00118512
0.00142495
0.00167995
0.00194689
0.00223455
0.00254905
0.00289223
0.003263
0.00366038
0.00408755
0.00453853
0.00500602
0.00548778
0.00598268
0.00648975
0.00700831
0.00753769
0.00807726
0.00862615
0.00918411
0.00975061
0.0103255
0.0109083
0.0114989
0.0120973
0.0127031
0.0133166
0.0139378
0.0145664
0.0152027
0.0158465
0.016498
0.0171572
0.0178243
0.0184992
0.0191821
0.0198734
0.0205728
0.0212807
0.0219967
0.02272
0.0234498
0.0011478
0.00126345
0.00151461
0.00178544
0.00207365
0.00238774
0.00273197
0.00310554
0.00350597
0.0039329
0.00438968
0.0048666
0.00535847
0.0058633
0.00637971
0.00690711
0.00744449
0.00799098
0.00854576
0.00910822
0.00967809
0.0102546
0.0108367
0.0114249
0.0120188
0.0126176
0.0132211
0.0138301
0.0144451
0.015065
0.0156892
0.0163181
0.0169523
0.0175912
0.0182344
0.0188821
0.0195344
0.0201915
0.0208537
0.0215208
0.0221919
0.0228657
0.0235428
0.00120425
0.00132016
0.00158564
0.00187548
0.0021905
0.00253541
0.00290794
0.00330867
0.0037373
0.00419349
0.00467756
0.00518017
0.00569627
0.00622158
0.00675652
0.00730376
0.00786006
0.00842147
0.00898965
0.00956502
0.0101495
0.010735
0.0113197
0.0119136
0.0125094
0.0131036
0.013701
0.0143052
0.0149167
0.015529
0.016139
0.0167526
0.0173718
0.0179927
0.018612
0.0192327
0.0198556
0.0204804
0.0211087
0.0217399
0.0223722
0.0229995
0.0236298
0.000574389
0.00217706
0.00412344
0.00597358
0.00763686
0.00912852
0.0104968
0.0117801
0.0129985
0.0141679
0.015362
0.0166958
0.0181415
0.0196609
0.0212285
0.0228291
0.0244542
0.0260995
0.0277616
0.0294385
0.031128
0.0328289
0.0345406
0.0362623
0.0379921
0.0397301
0.0414754
0.0432271
0.0449844
0.0467462
0.0485122
0.0502813
0.0520528
0.0538259
0.0555995
0.0573729
0.0591456
0.0609164
0.0626846
0.0644492
0.0662097
0.0679653
0.0697142
0.00042819
0.00201802
0.0036258
0.00502463
0.00634512
0.00761726
0.00884659
0.010036
0.0111916
0.0123278
0.0134753
0.014669
0.0159076
0.0171724
0.01852
0.0200215
0.0216251
0.0232912
0.0249987
0.0267346
0.0284918
0.0302657
0.0320535
0.0338523
0.0356604
0.0374768
0.0393003
0.0411293
0.0429629
0.0448004
0.0466407
0.0484829
0.0503264
0.0521697
0.0540123
0.0558535
0.0576921
0.0595273
0.0613584
0.0631843
0.0650043
0.0668174
0.0686225
0.000309506
0.00147842
0.0031644
0.00486149
0.00628599
0.00752302
0.00864487
0.00969965
0.0107207
0.0117331
0.0127572
0.0138085
0.0148953
0.0160225
0.0172046
0.0184527
0.0197772
0.0212785
0.0229064
0.0246141
0.0263732
0.0281674
0.0299869
0.0318253
0.0336783
0.0355434
0.0374176
0.0392988
0.0411863
0.0430782
0.0449729
0.0468697
0.0487673
0.0506645
0.0525607
0.0544546
0.0563453
0.0582319
0.0601133
0.0619885
0.0638568
0.0657162
0.0675641
0.000301309
0.00135192
0.00289791
0.0046713
0.00626572
0.00763351
0.0088218
0.00987963
0.0108514
0.0117758
0.0126852
0.0136045
0.0145527
0.0155435
0.0165855
0.0176836
0.0188466
0.0200949
0.0214592
0.023009
0.0246832
0.0264362
0.0282416
0.030083
0.0319505
0.0338379
0.0357399
0.0376537
0.0395768
0.0415064
0.0434409
0.0453788
0.0473185
0.0492588
0.0511982
0.0531358
0.0550703
0.0570004
0.0589251
0.0608436
0.0627544
0.0646571
0.0665528
0.00026634
0.00123224
0.00263215
0.00432215
0.00604125
0.00757595
0.00890855
0.010071
0.0110998
0.0120319
0.0129034
0.0137481
0.0145953
0.0154688
0.0163853
0.017356
0.018389
0.0194899
0.0206703
0.021956
0.0234276
0.0250597
0.0267959
0.0286006
0.0304519
0.0323367
0.0342459
0.0361739
0.0381163
0.0400695
0.0420308
0.0439981
0.0459694
0.047943
0.0499171
0.0518903
0.053861
0.0558281
0.0577904
0.0597461
0.0616945
0.0636345
0.0655648
0.00024949
0.00116169
0.00247662
0.00407812
0.00581055
0.00743841
0.00888638
0.0101595
0.0112809
0.0122773
0.0131781
0.0140146
0.0148184
0.015619
0.0164415
0.0173057
0.0182251
0.0192084
0.0202629
0.0213979
0.0226402
0.024052
0.0256491
0.0273694
0.0291706
0.0310273
0.0329234
0.0348486
0.0367956
0.0387591
0.0407357
0.042722
0.0447151
0.046713
0.0487136
0.0507151
0.0527155
0.0547134
0.0567072
0.0586952
0.0606761
0.0626479
0.0646078
0.000231601
0.00109541
0.00233241
0.00384184
0.00553987
0.00722715
0.00877038
0.0101446
0.0113613
0.0124401
0.0134033
0.0142759
0.0150855
0.0158613
0.0166314
0.017421
0.0182506
0.0191352
0.0200854
0.0211088
0.0222152
0.0234285
0.0248095
0.026388
0.0280996
0.0299003
0.0317623
0.033668
0.0356058
0.0375681
0.0395494
0.0415448
0.0435511
0.0455655
0.0475852
0.049608
0.0516318
0.0536547
0.0556747
0.0576899
0.0596985
0.0616982
0.063686
0.00021932
0.0010424
0.00221751
0.00365176
0.00529075
0.00699041
0.00859744
0.0100537
0.0113555
0.0125156
0.0135505
0.0144795
0.0153251
0.0161122
0.0168675
0.0176176
0.0183868
0.0191956
0.0200594
0.0209894
0.0219939
0.0230833
0.0242827
0.0256593
0.0272359
0.0289491
0.0307543
0.0326234
0.0345388
0.0364887
0.0384646
0.0404606
0.0424725
0.044496
0.046528
0.0485661
0.0506076
0.0526499
0.0546911
0.056729
0.0587613
0.0607857
0.0627991
0.00020836
0.000994428
0.00211434
0.00348103
0.00505462
0.00673873
0.00838445
0.00990589
0.0112816
0.0125162
0.0136218
0.0146136
0.0155093
0.0163293
0.0170969
0.017837
0.0185744
0.0193323
0.0201303
0.0209837
0.0219037
0.0228994
0.0239828
0.025184
0.0265788
0.0281688
0.0298924
0.0317074
0.0335868
0.0355133
0.0374751
0.0394641
0.0414739
0.0435002
0.0455387
0.0475864
0.0496402
0.0516972
0.0537551
0.0558115
0.0578637
0.0599092
0.0619458
0.000198621
0.000952124
0.00202333
0.00333066
0.00484102
0.00648953
0.00814948
0.00971822
0.0111553
0.012456
0.0136276
0.0146817
0.0156323
0.0164962
0.0172928
0.0180439
0.0187729
0.0195032
0.0202565
0.0210513
0.0219025
0.022821
0.0238168
0.0249048
0.0261238
0.0275559
0.0291714
0.0309132
0.0327427
0.0346353
0.0365745
0.0385488
0.0405506
0.0425736
0.0446132
0.0466655
0.0487269
0.0507942
0.0528647
0.0549357
0.0570043
0.0590681
0.061125
0.000189805
0.000913825
0.0019412
0.00319516
0.00464642
0.00624949
0.00790452
0.00950355
0.0109901
0.0123479
0.0135792
0.0146921
0.0156979
0.01661
0.0174445
0.0182201
0.0189577
0.0196794
0.0204072
0.0211613
0.0219591
0.0228145
0.0237387
0.0247429
0.0258474
0.0271058
0.0285866
0.0302354
0.0320006
0.0338485
0.0357565
0.0377095
0.0396972
0.0417119
0.0437478
0.0458002
0.047865
0.0499387
0.052018
0.0541001
0.0561819
0.0582607
0.0603342
0.000181674
0.000878896
0.00186652
0.00307213
0.00446888
0.0060232
0.00765852
0.00927257
0.0107964
0.0122028
0.0134869
0.014654
0.0157126
0.0166735
0.0175502
0.0183582
0.0191157
0.019843
0.020561
0.0212903
0.0220498
0.0228556
0.0237211
0.0246577
0.0256793
0.0268143
0.0281355
0.0296696
0.0313553
0.0331474
0.0350158
0.0369409
0.0389091
0.0409108
0.0429387
0.0449872
0.0470518
0.0491282
0.0512131
0.0533031
0.0553952
0.0574864
0.059574
0.000174232
0.000846951
0.0017982
0.00295972
0.00430636
0.00581152
0.0074177
0.00903343
0.0105833
0.0120291
0.0133596
0.0145757
0.0156836
0.016692
0.0176119
0.0184564
0.0192411
0.0199839
0.0207042
0.021422
0.0221567
0.0229257
0.0237443
0.0246251
0.0255805
0.0266287
0.0278116
0.0292118
0.0308022
0.0325269
0.0343476
0.0362384
0.0381819
0.040166
0.042182
0.0442232
0.046284
0.0483602
0.0504477
0.0525431
0.0546428
0.0567448
0.0588476
0.000167398
0.000817604
0.00173548
0.00285655
0.00415687
0.00561476
0.00718596
0.00879277
0.0103578
0.0118348
0.0132048
0.0144648
0.0156179
0.0166712
0.0176337
0.0185163
0.0193323
0.0200972
0.0208288
0.0215457
0.0222669
0.0230106
0.0237931
0.0246286
0.0255297
0.0265111
0.0275986
0.0288566
0.0303371
0.0319832
0.0337477
0.0355976
0.0375114
0.0394739
0.0414745
0.0435049
0.0455593
0.0476324
0.0497199
0.0518179
0.0539235
0.0560343
0.0581492
0.000161097
0.000790476
0.00167747
0.00276118
0.00401884
0.0054316
0.00696525
0.00855486
0.0101259
0.0116257
0.013029
0.0143273
0.0155217
0.016617
0.0176204
0.018541
0.0193901
0.0201815
0.0209305
0.0216545
0.0223716
0.0230998
0.0238561
0.0246557
0.0255123
0.0264393
0.0274556
0.0286005
0.0299567
0.0315127
0.0332119
0.0350147
0.0368938
0.0388307
0.0408125
0.0428296
0.0448748
0.0469423
0.0490274
0.0511261
0.0532352
0.0553523
0.0574772
0.000155289
0.000765261
0.00162367
0.00267288
0.00389092
0.00526119
0.00675639
0.00832298
0.00989187
0.0114073
0.0128372
0.014169
0.0154004
0.0165344
0.0175764
0.018534
0.019417
0.0202369
0.0210076
0.0217446
0.0224649
0.0231858
0.0239245
0.024697
0.0255175
0.0263998
0.0273596
0.0284238
0.0296557
0.031111
0.0327369
0.0344861
0.0363258
0.0382333
0.0401933
0.0421942
0.0442279
0.0462877
0.0483682
0.0504654
0.0525754
0.0546952
0.0568211
0.000151088
0.000741807
0.00157376
0.00259096
0.00377222
0.00510244
0.00655941
0.00809908
0.00965954
0.0111834
0.0126342
0.0139945
0.0152588
0.0164279
0.017506
0.0184993
0.0194157
0.0202652
0.0210601
0.0218142
0.0225432
0.0232636
0.0239922
0.0247451
0.0255372
0.0263827
0.0272962
0.0282981
0.0294305
0.0307756
0.0323196
0.0340089
0.0358043
0.0376789
0.039614
0.0415964
0.0436162
0.0456662
0.0477403
0.049834
0.0519428
0.054063
0.0561898
0.000147301
0.00071982
0.0015271
0.00251439
0.0036613
0.00495394
0.00637362
0.00788433
0.00943099
0.0109573
0.0124235
0.0138074
0.0151007
0.0163018
0.0174133
0.0184402
0.019389
0.0202684
0.0210889
0.021863
0.0226049
0.02333
0.0240546
0.0247945
0.0255651
0.0263808
0.027256
0.0282081
0.0292675
0.0305018
0.0319568
0.0335802
0.0353266
0.0371646
0.0390721
0.0410335
0.0430376
0.0450759
0.047142
0.0492302
0.0513362
0.0534556
0.0555839
0.000143713
0.00069929
0.00148343
0.00244286
0.00355764
0.004815
0.00619887
0.00767933
0.00920835
0.0107321
0.0122082
0.0136114
0.0149297
0.0161596
0.0173018
0.0183601
0.0193399
0.0202488
0.0210955
0.0218913
0.0226491
0.0233831
0.0241085
0.0248411
0.0255962
0.0263884
0.0272321
0.0281432
0.0291454
0.0302866
0.0316459
0.0331973
0.0348902
0.0366881
0.0385651
0.0405034
0.0424897
0.0445148
0.046571
0.0486524
0.050754
0.0528711
0.0549998
0.000140362
0.000679993
0.00144261
0.0023758
0.00346059
0.00468484
0.00603432
0.00748424
0.00899269
0.0105094
0.0119911
0.0134092
0.0147489
0.0160042
0.0171745
0.0182621
0.0192714
0.0202086
0.0210816
0.0219003
0.0226759
0.0234218
0.0241522
0.0248822
0.0256269
0.0264011
0.0272191
0.0280963
0.0290523
0.0301232
0.0313838
0.0328578
0.0344928
0.036247
0.038091
0.0400039
0.0419709
0.0439809
0.0460258
0.048099
0.0501948
0.0523081
0.054434
0.000137184
0.000662005
0.00140428
0.00231286
0.00336952
0.00456253
0.00587941
0.00729895
0.00878493
0.0102911
0.0117741
0.0132032
0.0145606
0.0158384
0.0170341
0.0181487
0.0191858
0.0201503
0.0210493
0.021891
0.0226859
0.0234459
0.0241844
0.0249157
0.0256545
0.0264155
0.0272131
0.0280621
0.0289803
0.029996
0.0311671
0.0325593
0.0341322
0.0358395
0.0376478
0.0395333
0.0414791
0.0434727
0.0455052
0.0475687
0.0496576
0.0517657
0.053888
0.000134209
0.000645166
0.00136829
0.00225379
0.0032839
0.00444743
0.00573333
0.00712301
0.00858539
0.0100781
0.0115589
0.0129952
0.0143673
0.0156645
0.0168829
0.0180225
0.0190855
0.0200762
0.0210001
0.0218649
0.0226799
0.0234557
0.0242047
0.0249404
0.0256771
0.0264291
0.0272108
0.0280366
0.0289233
0.0298942
0.0309933
0.0322998
0.0338064
0.0354636
0.0372337
0.0390899
0.0410128
0.0429889
0.0450074
0.0470604
0.0491411
0.0512438
0.0533629
0.000131417
0.000629261
0.00133442
0.00219829
0.00320328
0.00433904
0.00559531
0.0069561
0.00839413
0.0098712
0.0113466
0.0127871
0.0141706
0.0154845
0.0167233
0.0178856
0.0189727
0.0199879
0.0209361
0.0218237
0.0226589
0.0234515
0.0242129
0.0249556
0.0256932
0.0264399
0.0272095
0.0280168
0.0288772
0.0298114
0.0308542
0.0320764
0.0335137
0.0351177
0.0368471
0.038672
0.0405706
0.0425276
0.0445313
0.0465728
0.0486451
0.0507429
0.052862
0.000128727
0.000614259
0.00130249
0.00214578
0.00312721
0.0042367
0.00546489
0.00679766
0.00821117
0.00967092
0.0111385
0.0125801
0.0139721
0.0153001
0.0165568
0.0177397
0.0188492
0.0198875
0.0208588
0.0217686
0.0226241
0.0234342
0.0242092
0.0249609
0.0257022
0.0264465
0.0272077
0.0280001
0.0288388
0.0297423
0.0307397
0.0318871
0.0332519
0.0348
0.0364865
0.0382781
0.0401511
0.0420879
0.0440757
0.046105
0.0481682
0.0502598
0.0523761
0.000126186
0.000600129
0.0012723
0.00209617
0.00305532
0.00413997
0.00534142
0.00664718
0.00803623
0.00947755
0.010935
0.0123753
0.013773
0.0151127
0.0163851
0.0175866
0.0187166
0.0197766
0.0207698
0.0217011
0.0225767
0.0234045
0.0241942
0.0249564
0.0257033
0.0264479
0.0272037
0.0279847
0.0288054
0.0296834
0.030643
0.0317295
0.0330198
0.0345092
0.0361505
0.0379073
0.039753
0.0416684
0.0436396
0.0456558
0.0477095
0.0497948
0.0519087
0.000123798
0.00058678
0.0012437
0.00204924
0.00298725
0.0040484
0.00522445
0.00650418
0.00786892
0.00929113
0.0107369
0.0121733
0.0135747
0.0149235
0.0162095
0.0174277
0.0185766
0.0196567
0.0206707
0.0216225
0.0225178
0.0233635
0.0241683
0.0249421
0.0256964
0.0264436
0.0271966
0.027969
0.0287753
0.0296317
0.0305602
0.0315977
0.0328152
0.0342438
0.0358379
0.0375581
0.0393752
0.0412683
0.0432217
0.0452243
0.0472673
0.0493439
0.0514483
0.000121674
0.000574155
0.00121668
0.00200483
0.00292279
0.00396155
0.00511343
0.00636813
0.00770928
0.0091118
0.0105443
0.011975
0.0133778
0.0147337
0.0160313
0.0172643
0.0184303
0.0195291
0.0205626
0.0215342
0.0224485
0.0233119
0.0241322
0.0249185
0.0256815
0.026433
0.0271853
0.0279519
0.0287467
0.0295853
0.0304876
0.0314847
0.0326364
0.0340024
0.0355473
0.0372293
0.0390167
0.0408862
0.0428212
0.0448091
0.0468405
0.0489077
0.0510042
0.00012026
0.000562237
0.00119116
0.00196276
0.00286174
0.00387925
0.00500804
0.00623879
0.00755676
0.0089394
0.0103577
0.0117811
0.0131832
0.0145442
0.0158513
0.0170974
0.0182789
0.0193951
0.0204469
0.0214372
0.0223699
0.0232507
0.0240866
0.0248859
0.0256587
0.0264159
0.0271696
0.0279326
0.0287185
0.0295424
0.0304224
0.0313858
0.0324817
0.0337836
0.0352778
0.03692
0.0386763
0.0405215
0.0424371
0.0444096
0.0464286
0.0484862
0.0505752
0.000120438
0.000550832
0.00116692
0.00192282
0.00280367
0.00380099
0.00490779
0.00611556
0.00741097
0.00877372
0.0101771
0.0115917
0.0129913
0.0143555
0.0156706
0.0169281
0.0181236
0.0192556
0.0203247
0.0213326
0.022283
0.0231808
0.0240321
0.0248449
0.0256282
0.0263924
0.027149
0.0279104
0.0286897
0.0295015
0.0303629
0.031298
0.0323481
0.0335864
0.0350281
0.0366294
0.0383534
0.040173
0.0420685
0.0440249
0.0460311
0.0480786
0.0501616
0.000122744
0.000539936
0.00114383
0.00188478
0.00274844
0.00372649
0.00481234
0.00599808
0.00727163
0.00861463
0.0100023
0.011407
0.0128027
0.0141686
0.0154898
0.016757
0.0179651
0.0191118
0.0201967
0.0212214
0.0221887
0.0231029
0.0239697
0.024796
0.0255904
0.0263625
0.0271234
0.0278848
0.0286596
0.0294617
0.0303075
0.0312187
0.0322309
0.0334092
0.0347974
0.0363561
0.0380467
0.0398401
0.0417146
0.0436543
0.045647
0.0476838
0.0497574
0.000126695
0.000529565
0.00112201
0.00184866
0.00269595
0.00365561
0.00472138
0.00588599
0.00713832
0.00846164
0.00983341
0.0112272
0.0126177
0.0139836
0.0153096
0.0165851
0.0178044
0.0189643
0.0200641
0.0211045
0.0220879
0.023018
0.0238998
0.0247397
0.0255456
0.0263264
0.0270926
0.0278555
0.0286275
0.0294221
0.0302549
0.0311459
0.0321258
0.033251
0.0345844
0.0360997