/*--------------------------------*- C++ -*----------------------------------*\
| =========                 |                                                 |
| \\      /  F ield         | OpenFOAM: The Open Source CFD Toolbox           |
|  \\    /   O peration     | Version:  2.3.0                                 |
|   \\  /    A nd           | Web:      www.OpenFOAM.org                      |
|    \\/     M anipulation  |                                                 |
\*---------------------------------------------------------------------------*/
FoamFile
{
    version     2.0;
    format      ascii;
    class       volScalarField;
    location    "10000";
    object      nut;
}
// * * * * * * * * * * * * * * * * * * * * * * * * * * * * * * * * * * * * * //

dimensions      [0 2 -1 0 0 0 0];

internalField   nonuniform List<scalar> 
124031
(
0.0225064
0.0214831
0.0205087
0.019578
0.0186846
0.0178199
0.0169826
0.016175
0.015398
0.0146518
0.0139341
0.0132424
0.0125751
0.0119324
0.0113145
0.0107207
0.01015
0.00960131
0.00907428
0.00856739
0.00808039
0.00761181
0.00716156
0.00672818
0.0063114
0.00591044
0.00552349
0.00515089
0.00479064
0.00444119
0.00410192
0.00377066
0.00344753
0.00313279
0.00282901
0.00253884
0.00226976
0.00202576
0.00181423
0.00163536
0.00149494
0.00140072
0.00138428
0.0236078
0.0226863
0.0217936
0.0209292
0.0200907
0.0192772
0.0184883
0.0177257
0.0169905
0.0162855
0.0156088
0.0149552
0.0143204
0.0137045
0.0131078
0.0125308
0.0119741
0.0114367
0.0109179
0.0104169
0.00993258
0.00946435
0.00901199
0.00857452
0.00815287
0.00774684
0.00735726
0.00698496
0.00663087
0.00629564
0.00598059
0.00568713
0.00541619
0.00516797
0.00494194
0.00473611
0.00455148
0.00438815
0.00424935
0.00414192
0.00407557
0.00406912
0.00417017
0.024659
0.0238269
0.0230163
0.0222264
0.021457
0.0207067
0.019976
0.0192646
0.0185727
0.0179013
0.0172493
0.0166159
0.0160003
0.0154023
0.0148215
0.0142583
0.0137134
0.0131875
0.0126807
0.0121908
0.0117166
0.0112569
0.0108106
0.0103779
0.00995891
0.00955374
0.00916321
0.00878701
0.0084256
0.00808006
0.00775221
0.00744536
0.00716429
0.00691617
0.00670673
0.00653601
0.00640319
0.00631054
0.00625989
0.00625559
0.00630085
0.0063995
0.006552
0.0256409
0.0248891
0.0241539
0.0234355
0.0227321
0.0220442
0.0213712
0.0207129
0.0200695
0.0194418
0.0188291
0.0182308
0.0176471
0.017078
0.0165234
0.0159831
0.0154566
0.0149443
0.0144467
0.0139634
0.0134934
0.0130372
0.0125946
0.0121659
0.0117526
0.0113549
0.010974
0.01061
0.0102649
0.00994025
0.00963707
0.00935854
0.0091061
0.00888377
0.00869365
0.0085389
0.00842224
0.00834562
0.0083113
0.00832197
0.00837923
0.0084855
0.00863909
0.0265473
0.0258676
0.0252011
0.0245466
0.023904
0.0232729
0.022653
0.0220445
0.021447
0.020861
0.020287
0.0197247
0.0191734
0.0186339
0.0181067
0.0175915
0.0170881
0.0165966
0.016117
0.0156493
0.015194
0.0147501
0.0143187
0.0139009
0.0134972
0.0131084
0.0127362
0.012381
0.0120448
0.0117296
0.0114361
0.0111667
0.0109229
0.010708
0.0105248
0.0103754
0.0102629
0.0101892
0.0101576
0.0101698
0.0102276
0.0103325
0.0104831
0.0273787
0.026764
0.0261584
0.0255616
0.0249732
0.024393
0.0238207
0.0232565
0.0227002
0.0221523
0.0216131
0.021083
0.0205618
0.0200496
0.0195467
0.0190544
0.0185722
0.0180998
0.0176381
0.0171868
0.0167458
0.0163159
0.0158963
0.0154883
0.0150932
0.0147116
0.0143455
0.0139965
0.013666
0.0133549
0.0130659
0.0128007
0.0125604
0.0123478
0.012166
0.0120176
0.0119052
0.0118312
0.0117989
0.0118099
0.0118657
0.0119673
0.0121145
0.0281413
0.0275834
0.0270316
0.0264857
0.0259453
0.02541
0.0248793
0.0243547
0.0238354
0.0233217
0.0228133
0.0223116
0.0218172
0.0213291
0.0208475
0.0203742
0.0199103
0.0194552
0.0190084
0.0185709
0.0181432
0.0177259
0.017318
0.0169193
0.0165315
0.0161557
0.0157947
0.0154502
0.0151228
0.014814
0.014527
0.0142635
0.0140245
0.0138125
0.0136304
0.0134815
0.0133676
0.0132918
0.0132575
0.0132662
0.0133193
0.0134174
0.0135619
0.0288409
0.0283314
0.0278265
0.027325
0.0268269
0.0263316
0.0258369
0.0253485
0.0248607
0.0243781
0.0238975
0.0234196
0.0229492
0.0224837
0.0220208
0.021562
0.0211126
0.0206725
0.0202392
0.0198121
0.0193956
0.0189885
0.0185913
0.0182028
0.017822
0.0174507
0.0170942
0.0167521
0.0164268
0.0161203
0.0158346
0.0155715
0.0153328
0.0151202
0.014937
0.0147863
0.0146708
0.0145932
0.014556
0.0145615
0.0146115
0.0147073
0.0148499
0.0294868
0.0290143
0.0285483
0.0280843
0.0276239
0.0271669
0.0266991
0.0262486
0.0257827
0.0253289
0.024876
0.0244153
0.0239638
0.0235194
0.0230784
0.0226302
0.0221893
0.0217583
0.0213414
0.0209193
0.0205112
0.0201102
0.0197211
0.0193435
0.0189743
0.0186049
0.0182531
0.0179126
0.0175889
0.017284
0.0169995
0.0167366
0.0164983
0.0162859
0.0161011
0.0159493
0.0158323
0.0157545
0.0157153
0.0157167
0.0157641
0.0158575
0.0159976
0.00164384
0.00217988
0.00259529
0.00303412
0.00350616
0.00400734
0.00453312
0.00507962
0.00564279
0.00622223
0.00681505
0.00742102
0.00803984
0.00867079
0.00931419
0.00996957
0.0106371
0.0113165
0.0120092
0.0127144
0.0134324
0.0141635
0.0149073
0.0156649
0.0164363
0.0172211
0.0180202
0.0188337
0.0196617
0.0205045
0.0213624
0.0222354
0.0231241
0.0240283
0.0249484
0.0258845
0.0268367
0.0278048
0.0287892
0.0297896
0.0308058
0.0318375
0.0328851
0.00438244
0.00466928
0.00500551
0.00538763
0.00581162
0.00627323
0.00676702
0.00728811
0.00783333
0.00839841
0.00898101
0.0095789
0.0101915
0.0108161
0.0114523
0.0120994
0.0127571
0.0134251
0.0141028
0.01479
0.0154868
0.0161934
0.0169102
0.0176368
0.0183737
0.019121
0.0198788
0.0206472
0.0214264
0.0222168
0.0230188
0.0238324
0.0246576
0.0254947
0.0263439
0.0272056
0.0280798
0.0289665
0.029866
0.0307785
0.0317035
0.0326416
0.0335917
0.0067555
0.00701093
0.00731656
0.0076681
0.00806253
0.0084956
0.00896244
0.0094593
0.0099813
0.0105261
0.0110891
0.0116696
0.0122645
0.0128722
0.0134909
0.0141203
0.0147592
0.015407
0.0160629
0.0167266
0.0173982
0.0180779
0.018765
0.0194598
0.020162
0.0208723
0.0215899
0.0223156
0.0230491
0.0237911
0.0245414
0.0253001
0.0260674
0.0268437
0.027629
0.0284235
0.0292277
0.0300414
0.0308648
0.0316984
0.0325422
0.0333962
0.03426
0.00883758
0.00908319
0.00937661
0.00971342
0.0100913
0.0105074
0.0109572
0.0114363
0.011942
0.01247
0.0130176
0.0135819
0.0141609
0.0147524
0.0153549
0.0159674
0.0165882
0.0172166
0.017852
0.0184938
0.0191417
0.0197959
0.0204559
0.0211213
0.0217922
0.022468
0.0231496
0.0238366
0.0245292
0.0252274
0.0259315
0.0266413
0.0273572
0.0280791
0.0288075
0.0295422
0.0302838
0.0310324
0.031788
0.0325511
0.033322
0.0341009
0.0348926
0.0106779
0.0109182
0.011204
0.011532
0.0119003
0.0123058
0.0127441
0.0132121
0.013705
0.0142209
0.0147563
0.015308
0.0158737
0.0164515
0.0170398
0.0176374
0.0182419
0.018853
0.0194705
0.020093
0.0207197
0.0213512
0.021987
0.0226262
0.0232687
0.0239146
0.0245639
0.0252169
0.0258732
0.0265329
0.0271959
0.0278624
0.0285325
0.0292064
0.0298845
0.0305664
0.0312525
0.0319431
0.0326385
0.0333386
0.034044
0.0347546
0.0354727
0.012307
0.0125439
0.0128247
0.0131476
0.01351
0.0139084
0.0143391
0.014798
0.0152821
0.0157885
0.0163141
0.0168561
0.0174114
0.0179782
0.0185545
0.0191386
0.0197296
0.020326
0.0209274
0.0215328
0.0221415
0.0227531
0.0233672
0.0239834
0.0246012
0.025221
0.0258423
0.0264653
0.0270898
0.0277156
0.0283426
0.0289709
0.0296009
0.0302325
0.0308661
0.0315014
0.0321384
0.0327776
0.0334196
0.0340639
0.0347109
0.0353609
0.0360148
0.0137525
0.0139871
0.0142648
0.0145847
0.0149437
0.0153371
0.0157612
0.0162133
0.0166909
0.0171899
0.0177078
0.0182419
0.0187891
0.0193469
0.0199126
0.0204857
0.0210649
0.0216485
0.0222362
0.0228272
0.0234199
0.0240138
0.0246093
0.0252051
0.0258016
0.0263985
0.0269953
0.0275925
0.0281892
0.0287853
0.0293802
0.0299751
0.0305701
0.0311647
0.0317592
0.0323535
0.0329471
0.0335407
0.0341351
0.0347301
0.0353254
0.0359215
0.0365186
0.0150385
0.0152709
0.0155468
0.0158654
0.0162223
0.0166122
0.0170304
0.0174766
0.0179482
0.0184421
0.0189551
0.0194834
0.0200224
0.0205725
0.0211301
0.0216931
0.0222614
0.0228347
0.0234117
0.02399
0.0245684
0.0251469
0.0257254
0.026304
0.0268827
0.0274595
0.0280347
0.0286098
0.0291823
0.0297521
0.0303179
0.0308837
0.0314484
0.0320109
0.032571
0.0331291
0.0336836
0.0342369
0.03479
0.035341
0.03589
0.0364376
0.0369835
0.0161857
0.0164164
0.0166888
0.0170068
0.017365
0.0177545
0.0181627
0.0186049
0.019072
0.0195623
0.0200708
0.0205952
0.0211246
0.0216723
0.0222201
0.022773
0.0233322
0.023897
0.0244673
0.0250336
0.0255983
0.0261622
0.0267263
0.0272913
0.0278561
0.0284131
0.0289697
0.0295285
0.0300777
0.0306241
0.0311608
0.0317055
0.0322435
0.032778
0.0333085
0.0338343
0.0343514
0.0348704
0.0353893
0.0359005
0.0364089
0.0369122
0.03741
0.0342198
0.0328463
0.0314964
0.0301696
0.0288667
0.0275885
0.0263357
0.0251091
0.0239098
0.0227386
0.0215958
0.0204815
0.0193965
0.018341
0.0173149
0.0163185
0.0153516
0.0144144
0.0135067
0.0126283
0.0117792
0.0109593
0.0101683
0.00940601
0.00867225
0.00796683
0.00728953
0.00664019
0.00601863
0.00542482
0.00485878
0.00432044
0.00381004
0.00332797
0.00287454
0.00245056
0.00205692
0.00169498
0.00136586
0.0010747
0.000846809
0.000617622
0.000340354
0.0349818
0.0337306
0.0324952
0.0312761
0.0300744
0.0288905
0.0277251
0.0265791
0.0254537
0.0243488
0.0232647
0.0222017
0.0211606
0.020141
0.0191436
0.0181686
0.0172159
0.0162857
0.0153782
0.0144934
0.0136316
0.0127928
0.0119769
0.0111843
0.0104153
0.00966966
0.00894802
0.00825022
0.00757687
0.00692829
0.00630491
0.0057075
0.00513685
0.00459409
0.00408065
0.00359807
0.00314875
0.00274251
0.00238106
0.00201625
0.00163571
0.00121738
0.000716987
0.0357417
0.0345994
0.0334679
0.0323474
0.0312391
0.0301427
0.0290593
0.0279899
0.0269344
0.0258939
0.0248682
0.0238577
0.0228628
0.0218832
0.0209197
0.019973
0.0190421
0.0181274
0.0172298
0.0163491
0.0154861
0.0146408
0.0138128
0.0130036
0.0122131
0.0114419
0.0106906
0.0099599
0.00925047
0.00856312
0.00789902
0.00725958
0.00664644
0.00606135
0.00550854
0.00499825
0.00451387
0.00402883
0.00353239
0.00301134
0.00244827
0.00181663
0.00108698
0.0364904
0.0354461
0.0344088
0.0333788
0.0323557
0.03134
0.030333
0.0293342
0.0283443
0.0273644
0.0263942
0.0254341
0.0244848
0.0235457
0.0226178
0.0217013
0.0207954
0.0199005
0.0190175
0.0181466
0.0172886
0.0164433
0.0156111
0.0147934
0.0139909
0.0132039
0.0124339
0.0116818
0.0109485
0.0102354
0.00954445
0.00887805
0.0082411
0.00763524
0.00704734
0.00646333
0.00587301
0.0052656
0.00462918
0.0039503
0.00321046
0.00238153
0.00144576
0.037221
0.0362653
0.0353133
0.0343646
0.0334197
0.0324785
0.0315411
0.030607
0.0296781
0.028754
0.0278353
0.026923
0.0260171
0.025118
0.0242257
0.0233397
0.0224598
0.0215871
0.0207216
0.0198641
0.0190148
0.0181739
0.0173427
0.0165223
0.0157139
0.0149183
0.0141369
0.0133716
0.0126239
0.0118959
0.0111898
0.0105043
0.00983228
0.00916714
0.00850033
0.00782266
0.00712587
0.00639947
0.00563135
0.00480713
0.00390734
0.00290404
0.00178787
0.0379276
0.0370517
0.036176
0.0353013
0.0344279
0.0335546
0.0326804
0.0318063
0.0309321
0.0300589
0.029188
0.0283197
0.0274551
0.0265942
0.0257365
0.0248804
0.0240269
0.0231771
0.0223305
0.0214883
0.0206502
0.0198173
0.0189904
0.0181712
0.0173607
0.0165606
0.0157731
0.0149999
0.0142411
0.013495
0.0127592
0.01203
0.0113019
0.0105684
0.00982208
0.0090556
0.00826037
0.00742482
0.00653724
0.00558221
0.00454
0.00338324
0.00210945
0.0386049
0.0378008
0.0369939
0.0361849
0.0353763
0.0345653
0.0337501
0.0329299
0.0321057
0.0312788
0.0304503
0.029622
0.0287958
0.0279708
0.0271459
0.0263191
0.0254915
0.0246641
0.0238373
0.0230114
0.0221864
0.0213629
0.0205415
0.019724
0.0189118
0.018107
0.0173109
0.0165233
0.0157423
0.0149659
0.0141909
0.0134137
0.012629
0.0118318
0.011014
0.0101678
0.00928297
0.00834928
0.00735398
0.0062822
0.00511292
0.00382064
0.00240834
0.0392494
0.0385095
0.0377622
0.0370106
0.0362621
0.0355096
0.0347476
0.0339773
0.0331983
0.032412
0.03162
0.030827
0.0300354
0.0292437
0.0284517
0.0276544
0.0268498
0.026043
0.025235
0.0244273
0.0236142
0.0227971
0.0219787
0.0211595
0.0203416
0.0195268
0.0187157
0.0179073
0.0171014
0.0162936
0.0154796
0.0146554
0.0138189
0.0129654
0.0120859
0.0111695
0.010205
0.00918289
0.00809163
0.00691487
0.00563211
0.00421813
0.00268378
0.0398626
0.0391751
0.0384796
0.037771
0.0370806
0.0363855
0.0356725
0.0349471
0.0342091
0.0334571
0.0326954
0.0319306
0.0311714
0.0304113
0.0296521
0.0288872
0.0280987
0.0273089
0.0265141
0.0257262
0.0249288
0.0241127
0.0232902
0.0224636
0.0216342
0.0208074
0.0199804
0.01915
0.0183195
0.0174853
0.0166347
0.0157675
0.0148819
0.0139784
0.0130483
0.012075
0.0110383
0.00993488
0.00875833
0.00748861
0.00610431
0.00458139
0.0029274
0.00011955
0.000189248
0.000270654
0.000364095
0.000476642
0.000614017
0.000772895
0.000947643
0.00113747
0.00134214
0.00156163
0.00179601
0.00204549
0.00231031
0.00259068
0.00288688
0.00319919
0.00352799
0.00387363
0.00423647
0.00461681
0.00501501
0.00543147
0.00586643
0.00632024
0.00679325
0.00728556
0.00779747
0.00832908
0.00888042
0.00945141
0.0100419
0.0106515
0.0112797
0.0119259
0.0125889
0.0132676
0.0139601
0.0146646
0.0153782
0.0160979
0.0168196
0.0175391
0.000287566
0.000271392
0.000374738
0.000503824
0.000655249
0.000827694
0.0010218
0.00123149
0.00145605
0.00169516
0.00194861
0.00221629
0.00249811
0.0027941
0.00310431
0.00342877
0.00376764
0.00412106
0.00448914
0.00487207
0.00527
0.00568308
0.00611148
0.00655537
0.00701485
0.00749006
0.00798106
0.00848783
0.00901036
0.00954854
0.0101022
0.0106709
0.0112543
0.0118518
0.0124625
0.0130855
0.0137195
0.014363
0.0150139
0.0156701
0.0163285
0.0169857
0.0176369
0.000458422
0.000365349
0.000498385
0.000664523
0.000852085
0.00105916
0.0012872
0.00153048
0.00178824
0.00206005
0.00234548
0.00264425
0.00295617
0.00328097
0.00361859
0.00396892
0.00433185
0.00470735
0.00509542
0.00549603
0.00590918
0.00633486
0.00677304
0.00722373
0.00768689
0.00816249
0.00865042
0.00915053
0.00966266
0.0101866
0.0107219
0.0112682
0.011825
0.0123916
0.0129672
0.0135509
0.0141413
0.0147371
0.0153366
0.0159377
0.016538
0.0171347
0.0177245
0.000634839
0.000470081
0.000632708
0.000832966
0.00105306
0.00129363
0.00155339
0.00182793
0.00211642
0.00241828
0.00273294
0.00305995
0.00339894
0.00374961
0.00411158
0.0044847
0.00486872
0.00526335
0.00566854
0.00608405
0.00650975
0.0069455
0.00739113
0.00784647
0.00831138
0.00878567
0.00926911
0.00976146
0.0102624
0.0107716
0.0112886
0.0118129
0.012344
0.0128811
0.0134235
0.0139702
0.0145201
0.0150719
0.0156242
0.0161752
0.016723
0.0172653
0.0177987
0.000814819
0.000582555
0.000770642
0.00100154
0.00125159
0.00152359
0.00181266
0.00211601
0.00243264
0.00276189
0.00310305
0.00345551
0.00381879
0.00419246
0.00457605
0.00496918
0.00537153
0.00578273
0.00620246
0.00663047
0.00706644
0.00751015
0.00796126
0.00841955
0.0088847
0.00935645
0.00983445
0.0103184
0.0108078
0.0113023
0.0118014
0.0123047
0.0128114
0.0133209
0.0138323
0.0143449
0.0148577
0.0153694
0.015879
0.016385
0.0168861
0.0173809
0.0178696
0.000994362
0.000699031
0.000907518
0.00116638
0.00144463
0.0017449
0.00206087
0.00239052
0.00273285
0.00308696
0.00345206
0.00382746
0.00421252
0.00460667
0.00500939
0.00542017
0.00583852
0.00626404
0.0066962
0.00713464
0.00757901
0.00802892
0.00848401
0.00894389
0.00940815
0.00987644
0.0103484
0.0108236
0.0113015
0.0117818
0.0122638
0.0127471
0.0132309
0.0137147
0.0141977
0.014679
0.0151579
0.0156333
0.0161044
0.0165699
0.0170288
0.0174794
0.0179194
0.0011697
0.000816445
0.00104086
0.00132499
0.00162945
0.00195511
0.00229572
0.0026494
0.00301503
0.00339168
0.00377841
0.00417447
0.00457907
0.00499156
0.0054113
0.00583769
0.00627009
0.00670799
0.00715077
0.00759794
0.00804912
0.00850387
0.00896166
0.00942203
0.00988444
0.0103486
0.0108142
0.0112806
0.0117473
0.0122138
0.0126797
0.0131443
0.0136071
0.0140672
0.0145241
0.0149767
0.0154246
0.0158672
0.0163036
0.0167327
0.0171536
0.0175647
0.0179639
0.00133918
0.000930819
0.00116553
0.00147322
0.00180329
0.00215284
0.00251611
0.00289166
0.00327862
0.00367602
0.0040826
0.00449731
0.00491949
0.00534852
0.00578375
0.00622423
0.00666897
0.00711747
0.00756913
0.00802333
0.00847983
0.00893828
0.00939777
0.00985738
0.0103169
0.0107763
0.0112355
0.0116935
0.0121493
0.0126028
0.0130536
0.0135012
0.0139448
0.0143833
0.014816
0.015242
0.0156616
0.0160744
0.0164796
0.0168763
0.0172633
0.0176398
0.0180046
0.00147673
0.00104368
0.00130525
0.0016348
0.00198446
0.0023483
0.00272658
0.00312037
0.00352908
0.00394729
0.0043719
0.00480183
0.00523947
0.00568368
0.00613405
0.00658762
0.00704197
0.00749885
0.00795698
0.00841535
0.00887576
0.00933772
0.00979735
0.0102537
0.0107089
0.0111625
0.011617
0.0120667
0.0125116
0.0129527
0.0133899
0.0138229
0.0142496
0.0146682
0.0150787
0.0154779
0.0158719
0.0162579
0.0166353
0.0170032
0.0173602
0.0177063
0.0180436
2.96332e-06
0.000129498
0.00036665
0.00065862
0.000960351
0.00125462
0.0015454
0.00183217
0.00211522
0.00239859
0.00268531
0.00297745
0.00327727
0.00358599
0.00390475
0.00423435
0.00457573
0.00493053
0.00529936
0.00568438
0.0060869
0.00650794
0.00694913
0.00741112
0.0078958
0.00840383
0.00893667
0.00949486
0.0100795
0.0106921
0.0113332
0.0120031
0.0127021
0.013431
0.0141906
0.0149822
0.0158064
0.0166625
0.0175484
0.0184646
0.0194142
0.0204073
0.0214649
4.53989e-07
4.70222e-05
0.000197845
0.000377842
0.000594211
0.000856075
0.00116564
0.00148203
0.00180049
0.00212055
0.00243942
0.00275557
0.00306831
0.00337829
0.00368776
0.00399906
0.00431474
0.00463695
0.00496806
0.00531042
0.00566663
0.0060392
0.00643038
0.00684271
0.00727828
0.00773909
0.00822711
0.00874373
0.00929107
0.00987002
0.0104819
0.011127
0.0118062
0.0125194
0.0132677
0.0140512
0.0148695
0.0157229
0.01661
0.0175302
0.0184856
0.0194824
0.0205346
1.37163e-07
2.47548e-05
0.000133925
0.000276876
0.000441264
0.000638018
0.000872133
0.00114432
0.00145641
0.00181052
0.00217132
0.0025276
0.00287787
0.00322258
0.00356228
0.00389773
0.00422959
0.00455936
0.00488885
0.0052202
0.00555587
0.0058988
0.00625219
0.00661952
0.00700434
0.00741027
0.00784083
0.0082995
0.00878908
0.00931262
0.00987209
0.0104693
0.0111055
0.0117813
0.0124976
0.0132543
0.0140513
0.0148883
0.0157637
0.0166772
0.0176296
0.018623
0.0196589
1.5404e-07
1.88698e-05
0.000115213
0.000242322
0.000385427
0.00055341
0.000752526
0.000984915
0.00125282
0.00155839
0.00190374
0.0022787
0.00265776
0.00303368
0.00340495
0.00377118
0.00413254
0.00448943
0.00484216
0.00519134
0.00553809
0.00588389
0.00623094
0.00658206
0.00694066
0.0073107
0.00769662
0.00810316
0.00853513
0.008997
0.00949332
0.0100278
0.0106037
0.0112232
0.0118881
0.0125992
0.013357
0.014161
0.0150103
0.0159039
0.0168414
0.0178233
0.0188489
1.2652e-07
1.87526e-05
0.000105225
0.000218382
0.00034973
0.00050176
0.000680115
0.000888326
0.00112795
0.00140093
0.00170921
0.0020549
0.00243812
0.00283564
0.00323295
0.00362618
0.00401466
0.00439833
0.00477722
0.00515133
0.00552079
0.005886
0.00624765
0.00660701
0.00696598
0.00732722
0.0076942
0.0080714
0.00846369
0.00887677
0.00931665
0.00978903
0.0102995
0.0108529
0.0114532
0.0121032
0.012805
0.0135594
0.0143661
0.0152244
0.0161333
0.0170922
0.0180975
1.26594e-07
1.75604e-05
9.91185e-05
0.000203771
0.000327193
0.000468709
0.000633512
0.000825654
0.00104645
0.00129772
0.00158151
0.00189985
0.00225526
0.00264789
0.00305875
0.00347249
0.0038837
0.00429112
0.00469401
0.00509222
0.0054856
0.00587392
0.00625711
0.00663549
0.00700954
0.00738046
0.00775007
0.00812126
0.00849768
0.00888423
0.00928662
0.00971146
0.0101657
0.0106562
0.0111896
0.0117715
0.0124066
0.0130977
0.0138469
0.0146546
0.0155205
0.0164437
0.0174244
1.23853e-07
1.79126e-05
9.73419e-05
0.000193264
0.000310656
0.000444865
0.000600374
0.000780778
0.000988145
0.00122397
0.0014899
0.00178804
0.00212062
0.00248989
0.00289539
0.00331978
0.00374841
0.0041757
0.00459954
0.00501941
0.00543486
0.00584545
0.00625087
0.00665071
0.00704499
0.00743373
0.00781762
0.00819783
0.00857658
0.00895691
0.00934322
0.009741
0.010157
0.0105989
0.0110745
0.011592
0.0121585
0.0127803
0.0134619
0.0142067
0.0150158
0.0158896
0.0168275
1.243e-07
1.78687e-05
9.5366e-05
0.000186169
0.000298644
0.000427288
0.000575716
0.000747381
0.000944771
0.0011689
0.0014214
0.00170425
0.00201953
0.00236939
0.00275621
0.0031773
0.00361515
0.00405753
0.00449918
0.00493796
0.0053731
0.00580408
0.00623027
0.00665128
0.00706642
0.0074754
0.00787805
0.00827468
0.00866594
0.00905349
0.00943995
0.00982913
0.0102263
0.010638
0.0110723
0.0115377
0.0120435
0.0125984
0.0132102
0.0138853
0.0146277
0.0154405
0.0163268
1.25614e-07
1.81867e-05
9.47468e-05
0.000181757
0.000289596
0.000413765
0.000556771
0.000721688
0.00091124
0.0011263
0.00136839
0.00163927
0.00194088
0.00227544
0.0026453
0.00305221
0.00348962
0.00394119
0.00439678
0.00485175
0.00530437
0.00575361
0.00619886
0.0066394
0.00707454
0.00750372
0.00792629
0.00834184
0.00875035
0.00915229
0.00954887
0.00994227
0.0103358
0.0107346
0.011145
0.0115752
0.0120343
0.0125325
0.0130799
0.0136856
0.0143573
0.0151015
0.0159235
1.27994e-07
1.85357e-05
9.45417e-05
0.000179149
0.000282694
0.000403247
0.000541948
0.000701631
0.000884771
0.00109257
0.0013263
0.00158754
0.00187826
0.0022004
0.00255637
0.00294832
0.00337655
0.0038304
0.00429543
0.00476368
0.00523147
0.00569709
0.00615954
0.00661801
0.00707179
0.00752009
0.00796207
0.00839702
0.00882438
0.00924387
0.00965578
0.0100609
0.0104612
0.0108597
0.0112613
0.0116722
0.0121008
0.0125568
0.0130509
0.0135945
0.0141981
0.0148717
0.0156235
1.30669e-07
1.89571e-05
9.47304e-05
0.000177636
0.000277301
0.000394803
0.000530046
0.000685437
0.000863387
0.00106531
0.00129222
0.00154563
0.00182733
0.00213935
0.00248381
0.00286298
0.00327879
0.00372824
0.00419787
0.00467598
0.00515671
0.00563671
0.00611477
0.00658952
0.00706048
0.00752663
0.00798704
0.00844079
0.00888705
0.00932515
0.00975452
0.0101754
0.0105883
0.010995
0.0113986
0.0118033
0.0122159
0.0126446
0.0130998
0.0135931
0.0141371
0.0147442
0.0154273
1.34017e-07
1.9407e-05
9.50417e-05
0.00017666
0.000272997
0.000387987
0.000520371
0.000672252
0.000845967
0.001043
0.00126422
0.00151116
0.00178543
0.00208894
0.00242387
0.00279222
0.00319638
0.00363709
0.00410619
0.00459071
0.00508167
0.00557442
0.00606626
0.00655606
0.00704278
0.00752536
0.00800303
0.00847462
0.0089392
0.00939567
0.0098434
0.0102816
0.0107104
0.0111302
0.0115427
0.0119507
0.0123588
0.0127737
0.0132039
0.0136607
0.0141566
0.0147057
0.0153245
1.37641e-07
1.9864e-05
9.54324e-05
0.000176041
0.000269568
0.000382464
0.000512444
0.000661428
0.00083156
0.00102451
0.00124109
0.00148257
0.00175057
0.00204698
0.00237372
0.00273296
0.00312692
0.00355758
0.00402221
0.00450933
0.00500799
0.00551133
0.00601566
0.00651916
0.00702022
0.0075182
0.00801182
0.00850015
0.00898211
0.00945652
0.00992223
0.0103784
0.0108244
0.01126
0.0116857
0.0121031
0.0125151
0.0129264
0.013344
0.013777
0.0142377
0.0147397
0.0152999
1.41382e-07
2.03254e-05
9.58558e-05
0.000175635
0.000266816
0.00037792
0.000505923
0.000652454
0.000819624
0.00100916
0.00122173
0.00145857
0.00172134
0.00201164
0.00233142
0.00268284
0.00306803
0.0034893
0.00394677
0.00443324
0.0049367
0.00544873
0.00596405
0.00647982
0.00699439
0.00750641
0.00801503
0.00851909
0.00901738
0.00950876
0.00999199
0.0104659
0.0109295
0.0113821
0.0118233
0.0122539
0.0126752
0.0130905
0.0135049
0.0139257
0.014363
0.0148297
0.0153414
1.45106e-07
2.07937e-05
9.63461e-05
0.000175416
0.000264659
0.000374264
0.000500562
0.00064505
0.000809668
0.000996306
0.00120547
0.00143847
0.00169667
0.00198172
0.00229561
0.00264022
0.00301785
0.00343067
0.00388024
0.00436319
0.00486906
0.00538765
0.00591233
0.00643932
0.00696611
0.00749146
0.00801396
0.00853266
0.0090464
0.0095539
0.0100539
0.010545
0.0110261
0.0114959
0.0119539
0.0123996
0.0128339
0.0132583
0.0136764
0.0140937
0.0145182
0.014961
0.0154359
1.49066e-07
2.12738e-05
9.68579e-05
0.000175345
0.000262988
0.000371265
0.000496175
0.000638945
0.000801437
0.000985527
0.00119183
0.00142142
0.0016757
0.00195633
0.00226506
0.00260386
0.00297488
0.00338034
0.00382221
0.00429991
0.00480577
0.00532884
0.00586141
0.00639834
0.00693649
0.00747405
0.00800967
0.00854218
0.00907045
0.00959319
0.0101091
0.0106167
0.0111147
0.0116017
0.0120767
0.0125388
0.012988
0.0134249
0.0138516
0.0142719
0.014692
0.0151207
0.0155697
1.53362e-07
2.17551e-05
9.739e-05
0.000175392
0.000261688
0.000368829
0.000492538
0.000633831
0.000794526
0.000976461
0.00118025
0.00140699
0.0016579
0.00193466
0.00223892
0.00257267
0.00293795
0.00333692
0.00377181
0.00424343
0.00474717
0.00527304
0.00581189
0.00635754
0.0069061
0.00745516
0.0080031
0.00854865
0.00909062
0.00962782
0.0101587
0.0106822
0.0111965
0.0117004
0.0121922
0.0126712
0.0131362
0.0135876
0.014026
0.0144542
0.0148763
0.015299
0.0157323
1.57678e-07
2.22304e-05
9.79161e-05
0.000175511
0.000260706
0.000366801
0.000489471
0.000629536
0.000788732
0.000968747
0.00117043
0.00139462
0.00164268
0.00191606
0.00221651
0.0025458
0.00290605
0.00329937
0.00372796
0.00419346
0.00469378
0.00522056
0.00576429
0.00631742
0.00687555
0.00743524
0.00799485
0.00855279
0.00910786
0.00965864
0.0102041
0.0107425
0.0112726
0.0117926
0.0123011
0.0127967
0.0132783
0.0137452
0.0141975
0.0146366
0.0150653
0.0154887
0.0159145
1.618e-07
2.26715e-05
9.84159e-05
0.000175677
0.000259935
0.000365145
0.000486913
0.000625927
0.000783782
0.000962219
0.00116206
0.00138409
0.0016296
0.00190012
0.00219718
0.00252261
0.00287847
0.00326676
0.00368972
0.00414947
0.00464551
0.00517182
0.00571884
0.00627856
0.00684504
0.00741486
0.00798546
0.00855521
0.00912261
0.00968667
0.0102458
0.0107986
0.0113437
0.0118795
0.0124041
0.0129162
0.0134143
0.0138974
0.0143648
0.0148169
0.0152557
0.0156845
0.0161091
1.66118e-07
2.31481e-05
9.89618e-05
0.000175905
0.000259384
0.000363771
0.00048479
0.000622863
0.000779595
0.000956623
0.00115482
0.00137498
0.00161835
0.00188625
0.00218036
0.00250248
0.00285441
0.00323832
0.00365638
0.00411075
0.00460218
0.0051268
0.005676
0.00624092
0.00681519
0.0073943
0.00797529
0.00855619
0.00913569
0.00971219
0.0102845
0.0108512
0.0114109
0.0119616
0.012502
0.0130301
0.0135446
0.0140439
0.0145271
0.0149937
0.0154448
0.0158824
0.0163109
1.70546e-07
2.36023e-05
9.94654e-05
0.000176144
0.000259005
0.000362649
0.000482983
0.000620278
0.000775993
0.000951795
0.00114859
0.00136715
0.00160855
0.00187426
0.00216578
0.00248486
0.00283342
0.00321343
0.00362707
0.00407656
0.00456338
0.00508545
0.00563559
0.00620494
0.00678592
0.0073736
0.00796449
0.00855624
0.00914716
0.00973581
0.0103209
0.0109009
0.0114745
0.0120398
0.0125953
0.0131392
0.0136697
0.0141853
0.0146844
0.0151663
0.0156312
0.0160799
0.0165152
1.74991e-07
2.40186e-05
9.99248e-05
0.000176416
0.000258704
0.000361696
0.000481427
0.000618025
0.000772861
0.000947581
0.00114319
0.00136026
0.00159998
0.00186371
0.00215293
0.00246938
0.00281492
0.00319144
0.00360113
0.00404634
0.0045286
0.00504764
0.00559778
0.00617031
0.00675726
0.00735285
0.00795314
0.00855528
0.00915725
0.00975764
0.010355
0.010948
0.011535
0.0121145
0.0126848
0.0132439
0.0137901
0.0143217
0.0148369
0.0153343
0.0158135
0.0162745
0.0167184
1.79243e-07
2.44504e-05
0.000100403
0.000176691
0.000258523
0.000360916
0.000480123
0.000616062
0.000770171
0.000943927
0.0011384
0.00135421
0.00159244
0.00185438
0.00214156
0.00245564
0.00279844
0.00317188
0.00357807
0.00401922
0.00449744
0.00501311
0.00556235
0.00613717
0.00672923
0.00733214
0.00794125
0.00855326
0.00916598
0.00977776
0.0103872
0.0109926
0.0115928
0.0121859
0.0127705
0.0133445
0.013906
0.0144534
0.0149844
0.0154975
0.0159914
0.0164653
0.0169191
1.83378e-07
2.48184e-05
0.000100809
0.000176947
0.000258382
0.000360213
0.000478942
0.000614382
0.000767719
0.00094065
0.00113414
0.00134877
0.00158564
0.00184601
0.00213134
0.00244332
0.00278366
0.00315426
0.00355732
0.00399491
0.00446921
0.00498143
0.00552912
0.00610526
0.0067017
0.00731119
0.0079286
0.00855016
0.00917328
0.00979615
0.0104172
0.0110349
0.0116477
0.0122543
0.0128527
0.0134412
0.0140178
0.0145804
0.0151271
0.0156557
0.0161647
0.0166523
0.0171172
1.87354e-07
2.51942e-05
0.00010121
0.000177198
0.000258295
0.000359623
0.000477933
0.00061281
0.000765575
0.00093771
0.00113027
0.00134391
0.00157952
0.00183842
0.00212214
0.00243216
0.00277029
0.00313839
0.0035385
0.00397275
0.00444356
0.00495221
0.00549772
0.0060746
0.00667455
0.00728997
0.00791512
0.00854577
0.00917894
0.00981263
0.010445
0.0110746
0.0116999
0.0123194
0.0129315
0.013534
0.0141253
0.014703
0.015265
0.0158092
0.0163336
0.0168359
0.0173135
1.91387e-07
2.55523e-05
0.000101599
0.000177461
0.000258247
0.000359121
0.000477032
0.000611447
0.000763634
0.000935023
0.00112681
0.00133946
0.00157392
0.00183154
0.00211367
0.00242197
0.00275805
0.00312377
0.00352124
0.00395249
0.00441985
0.00492507
0.00546825
0.00604502
0.00664765
0.00726831
0.00790067
0.00853982
0.00918277
0.00982678
0.0104703
0.0111115
0.011749
0.0123813
0.0130065
0.0136229
0.0142284
0.0148209
0.0153983
0.0159581
0.0164979
0.0170157
0.0175084
1.95404e-07
2.5903e-05
0.000101967
0.000177712
0.000258216
0.000358671
0.000476175
0.000610202
0.00076183
0.00093253
0.00112356
0.00133528
0.00156873
0.00182511
0.00210584
0.0024125
0.00274665
0.00311024
0.0035052
0.0039337
0.00439792
0.00489988
0.00544035
0.00601635
0.00662083
0.00724607
0.00788487
0.00853234
0.00918442
0.00983875
0.0104929
0.0111456
0.0117949
0.0124396
0.0130776
0.0137073
0.0143269
0.0149339
0.0155261
0.0161013
0.0166567
0.0171904
0.0177002
1.99122e-07
2.62301e-05
0.000102314
0.000177948
0.000258197
0.000358225
0.00047541
0.000609021
0.00076014
0.000930233
0.00112052
0.00133145
0.00156387
0.00181911
0.00209856
0.00240361
0.00273596
0.00309757
0.00349023
0.00391611
0.00437735
0.00487619
0.00541383
0.00598848
0.00659421
0.00722303
0.00786792
0.00852296
0.00918406
0.00984804
0.0105128
0.0111764
0.0118374
0.012494
0.0131446
0.0137875
0.0144205
0.0150415
0.0156482
0.0162381
0.0168088
0.0173575
0.017882
2.03021e-07
2.65327e-05
0.000102626
0.000178153
0.000258185
0.000357828
0.000474667
0.00060787
0.000758559
0.000928045
0.00111767
0.00132778
0.0015593
0.00181349
0.00209161
0.00239523
0.00272599
0.00308565
0.00347612
0.00389953
0.00435799
0.00485382
0.00538853
0.00596135
0.00656743
0.00719948
0.00784957