/*--------------------------------*- C++ -*----------------------------------*\
| =========                 |                                                 |
| \\      /  F ield         | OpenFOAM: The Open Source CFD Toolbox           |
|  \\    /   O peration     | Version:  2.3.0                                 |
|   \\  /    A nd           | Web:      www.OpenFOAM.org                      |
|    \\/     M anipulation  |                                                 |
\*---------------------------------------------------------------------------*/
FoamFile
{
    version     2.0;
    format      ascii;
    class       volScalarField;
    location    "10000";
    object      nuTilda;
}
// * * * * * * * * * * * * * * * * * * * * * * * * * * * * * * * * * * * * * //

dimensions      [0 2 -1 0 0 0 0];

internalField   nonuniform List<scalar> 
124031
(
0.0225064
0.0214831
0.0205087
0.019578
0.0186846
0.0178199
0.0169826
0.016175
0.015398
0.0146518
0.0139341
0.0132424
0.0125751
0.0119324
0.0113145
0.0107207
0.01015
0.00960132
0.00907429
0.00856741
0.00808041
0.00761183
0.00716159
0.00672821
0.00631143
0.00591048
0.00552354
0.00515094
0.0047907
0.00444126
0.004102
0.00377076
0.00344765
0.00313293
0.00282918
0.00253905
0.00227003
0.0020261
0.00181465
0.00163588
0.00149556
0.00140143
0.001385
0.0236078
0.0226863
0.0217936
0.0209292
0.0200907
0.0192772
0.0184883
0.0177257
0.0169905
0.0162855
0.0156088
0.0149552
0.0143204
0.0137045
0.0131078
0.0125308
0.0119741
0.0114367
0.0109179
0.0104169
0.0099326
0.00946437
0.00901201
0.00857454
0.00815289
0.00774686
0.00735728
0.00698499
0.00663091
0.00629568
0.00598063
0.00568718
0.00541623
0.00516803
0.004942
0.00473617
0.00455155
0.00438823
0.00424943
0.004142
0.00407566
0.00406921
0.00417025
0.024659
0.0238269
0.0230163
0.0222265
0.021457
0.0207067
0.019976
0.0192646
0.0185727
0.0179013
0.0172493
0.0166159
0.0160003
0.0154023
0.0148215
0.0142583
0.0137134
0.0131875
0.0126807
0.0121908
0.0117166
0.0112569
0.0108106
0.0103779
0.00995892
0.00955376
0.00916323
0.00878702
0.00842562
0.00808009
0.00775223
0.00744539
0.00716432
0.0069162
0.00670676
0.00653604
0.00640322
0.00631057
0.00625993
0.00625563
0.00630089
0.00639953
0.00655203
0.0256409
0.0248891
0.0241539
0.0234355
0.0227321
0.0220442
0.0213712
0.0207129
0.0200695
0.0194418
0.0188291
0.0182308
0.0176471
0.017078
0.0165234
0.0159831
0.0154567
0.0149443
0.0144467
0.0139634
0.0134934
0.0130372
0.0125946
0.0121659
0.0117526
0.0113549
0.010974
0.01061
0.0102649
0.00994027
0.00963709
0.00935856
0.00910611
0.00888379
0.00869367
0.00853892
0.00842226
0.00834564
0.00831132
0.00832199
0.00837925
0.00848552
0.0086391
0.0265473
0.0258676
0.0252011
0.0245466
0.023904
0.0232729
0.022653
0.0220445
0.021447
0.020861
0.0202871
0.0197247
0.0191734
0.0186339
0.0181067
0.0175915
0.0170881
0.0165966
0.016117
0.0156493
0.015194
0.0147501
0.0143187
0.0139009
0.0134972
0.0131084
0.0127362
0.012381
0.0120448
0.0117296
0.0114361
0.0111667
0.0109229
0.0107081
0.0105248
0.0103754
0.0102629
0.0101892
0.0101576
0.0101698
0.0102276
0.0103325
0.0104831
0.0273787
0.026764
0.0261584
0.0255616
0.0249732
0.024393
0.0238207
0.0232566
0.0227002
0.0221523
0.0216131
0.021083
0.0205618
0.0200496
0.0195467
0.0190544
0.0185722
0.0180998
0.0176381
0.0171868
0.0167459
0.016316
0.0158963
0.0154883
0.0150932
0.0147116
0.0143455
0.0139965
0.013666
0.0133549
0.0130659
0.0128007
0.0125604
0.0123478
0.012166
0.0120176
0.0119052
0.0118312
0.0117989
0.0118099
0.0118657
0.0119673
0.0121145
0.0281413
0.0275834
0.0270316
0.0264857
0.0259453
0.02541
0.0248794
0.0243547
0.0238354
0.0233217
0.0228133
0.0223116
0.0218173
0.0213292
0.0208475
0.0203742
0.0199103
0.0194552
0.0190084
0.0185709
0.0181432
0.0177259
0.017318
0.0169193
0.0165315
0.0161557
0.0157947
0.0154502
0.0151228
0.014814
0.014527
0.0142635
0.0140245
0.0138125
0.0136305
0.0134815
0.0133676
0.0132918
0.0132575
0.0132662
0.0133194
0.0134174
0.0135619
0.0288409
0.0283314
0.0278265
0.027325
0.0268269
0.0263316
0.0258369
0.0253485
0.0248607
0.0243781
0.0238975
0.0234196
0.0229492
0.0224837
0.0220208
0.021562
0.0211126
0.0206725
0.0202392
0.0198121
0.0193956
0.0189885
0.0185913
0.0182028
0.017822
0.0174508
0.0170942
0.0167521
0.0164268
0.0161203
0.0158346
0.0155715
0.0153329
0.0151202
0.014937
0.0147863
0.0146708
0.0145932
0.014556
0.0145615
0.0146116
0.0147074
0.0148499
0.0294868
0.0290143
0.0285483
0.0280843
0.0276239
0.0271669
0.0266991
0.0262486
0.0257827
0.0253289
0.024876
0.0244153
0.0239638
0.0235194
0.0230785
0.0226302
0.0221893
0.0217583
0.0213414
0.0209193
0.0205112
0.0201102
0.0197211
0.0193435
0.0189743
0.0186049
0.0182531
0.0179126
0.0175889
0.017284
0.0169995
0.0167366
0.0164983
0.0162859
0.0161011
0.0159494
0.0158323
0.0157545
0.0157153
0.0157168
0.0157642
0.0158575
0.0159976
0.00164435
0.00218017
0.00259549
0.00303427
0.00350627
0.00400742
0.00453319
0.00507967
0.00564284
0.00622226
0.00681508
0.00742104
0.00803986
0.0086708
0.00931421
0.00996958
0.0106371
0.0113165
0.0120092
0.0127144
0.0134324
0.0141635
0.0149073
0.0156649
0.0164363
0.0172211
0.0180203
0.0188337
0.0196617
0.0205045
0.0213624
0.0222354
0.0231241
0.0240283
0.0249484
0.0258845
0.0268367
0.0278048
0.0287892
0.0297896
0.0308058
0.0318375
0.0328851
0.00438251
0.00466934
0.00500557
0.00538767
0.00581166
0.00627326
0.00676705
0.00728814
0.00783335
0.00839843
0.00898103
0.00957892
0.0101915
0.0108161
0.0114523
0.0120994
0.0127571
0.0134252
0.0141028
0.01479
0.0154868
0.0161934
0.0169102
0.0176368
0.0183737
0.019121
0.0198788
0.0206472
0.0214264
0.0222168
0.0230188
0.0238324
0.0246576
0.0254947
0.0263439
0.0272056
0.0280798
0.0289665
0.029866
0.0307785
0.0317035
0.0326416
0.0335917
0.00675553
0.00701096
0.00731659
0.00766813
0.00806255
0.00849562
0.00896246
0.00945932
0.00998132
0.0105261
0.0110891
0.0116696
0.0122645
0.0128722
0.0134909
0.0141203
0.0147592
0.015407
0.0160629
0.0167266
0.0173982
0.0180779
0.018765
0.0194598
0.020162
0.0208723
0.0215899
0.0223156
0.0230491
0.0237911
0.0245414
0.0253001
0.0260674
0.0268437
0.027629
0.0284235
0.0292277
0.0300414
0.0308648
0.0316984
0.0325422
0.0333962
0.03426
0.00883759
0.00908321
0.00937662
0.00971343
0.0100913
0.0105074
0.0109572
0.0114363
0.011942
0.01247
0.0130177
0.0135819
0.0141609
0.0147524
0.0153549
0.0159674
0.0165882
0.0172166
0.017852
0.0184938
0.0191417
0.0197959
0.0204559
0.0211213
0.0217922
0.022468
0.0231496
0.0238366
0.0245292
0.0252274
0.0259315
0.0266413
0.0273572
0.0280791
0.0288075
0.0295422
0.0302838
0.0310324
0.031788
0.0325511
0.033322
0.0341009
0.0348926
0.0106779
0.0109182
0.011204
0.011532
0.0119003
0.0123058
0.0127441
0.0132121
0.013705
0.0142209
0.0147563
0.0153081
0.0158737
0.0164515
0.0170398
0.0176374
0.0182419
0.018853
0.0194705
0.020093
0.0207197
0.0213512
0.021987
0.0226262
0.0232687
0.0239146
0.0245639
0.0252169
0.0258732
0.0265329
0.0271959
0.0278624
0.0285325
0.0292064
0.0298845
0.0305664
0.0312525
0.0319431
0.0326385
0.0333386
0.034044
0.0347546
0.0354727
0.012307
0.0125439
0.0128247
0.0131476
0.01351
0.0139084
0.0143391
0.014798
0.0152821
0.0157885
0.0163142
0.0168561
0.0174114
0.0179782
0.0185545
0.0191386
0.0197296
0.020326
0.0209274
0.0215329
0.0221415
0.0227531
0.0233672
0.0239834
0.0246012
0.025221
0.0258423
0.0264653
0.0270898
0.0277156
0.0283426
0.0289709
0.0296009
0.0302325
0.0308661
0.0315014
0.0321384
0.0327776
0.0334196
0.034064
0.0347109
0.0353609
0.0360148
0.0137525
0.0139871
0.0142648
0.0145847
0.0149437
0.0153371
0.0157612
0.0162133
0.0166909
0.0171899
0.0177078
0.0182419
0.0187891
0.0193469
0.0199126
0.0204857
0.0210649
0.0216485
0.0222362
0.0228272
0.0234199
0.0240139
0.0246093
0.0252051
0.0258016
0.0263985
0.0269953
0.0275925
0.0281892
0.0287853
0.0293802
0.0299751
0.0305701
0.0311647
0.0317592
0.0323535
0.0329471
0.0335407
0.0341351
0.0347301
0.0353254
0.0359215
0.0365186
0.0150385
0.0152709
0.0155469
0.0158654
0.0162223
0.0166122
0.0170304
0.0174766
0.0179482
0.0184421
0.0189551
0.0194834
0.0200224
0.0205725
0.0211301
0.0216931
0.0222614
0.0228347
0.0234117
0.02399
0.0245684
0.0251469
0.0257254
0.026304
0.0268827
0.0274595
0.0280347
0.0286098
0.0291823
0.0297521
0.0303179
0.0308837
0.0314484
0.0320109
0.032571
0.0331291
0.0336836
0.0342369
0.03479
0.035341
0.03589
0.0364376
0.0369835
0.0161857
0.0164164
0.0166888
0.0170068
0.017365
0.0177545
0.0181627
0.0186049
0.019072
0.0195623
0.0200708
0.0205952
0.0211246
0.0216723
0.0222201
0.0227731
0.0233322
0.023897
0.0244673
0.0250336
0.0255983
0.0261622
0.0267263
0.0272913
0.0278561
0.0284131
0.0289697
0.0295285
0.0300777
0.0306241
0.0311608
0.0317055
0.0322435
0.032778
0.0333085
0.0338343
0.0343514
0.0348704
0.0353893
0.0359005
0.0364089
0.0369122
0.03741
0.0342198
0.0328463
0.0314964
0.0301696
0.0288667
0.0275885
0.0263357
0.0251091
0.0239098
0.0227386
0.0215958
0.0204815
0.0193965
0.018341
0.0173149
0.0163185
0.0153516
0.0144144
0.0135067
0.0126283
0.0117792
0.0109593
0.0101683
0.00940602
0.00867226
0.00796685
0.00728955
0.00664022
0.00601867
0.00542486
0.00485884
0.00432052
0.00381014
0.00332809
0.0028747
0.00245079
0.00205725
0.00169546
0.0013666
0.00107589
0.00084872
0.000621178
0.000351196
0.0349818
0.0337306
0.0324952
0.0312761
0.0300744
0.0288905
0.0277251
0.0265791
0.0254537
0.0243488
0.0232647
0.0222018
0.0211606
0.020141
0.0191436
0.0181686
0.0172159
0.0162857
0.0153782
0.0144934
0.0136316
0.0127928
0.0119769
0.0111843
0.0104153
0.00966967
0.00894803
0.00825024
0.0075769
0.00692832
0.00630495
0.00570754
0.0051369
0.00459415
0.00408073
0.00359818
0.00314889
0.0027427
0.0023813
0.00201659
0.00163622
0.00121831
0.000719641
0.0357417
0.0345994
0.0334679
0.0323474
0.0312391
0.0301427
0.0290593
0.0279899
0.0269344
0.0258939
0.0248682
0.0238577
0.0228628
0.0218832
0.0209197
0.019973
0.0190421
0.0181274
0.0172298
0.0163491
0.0154861
0.0146408
0.0138128
0.0130036
0.0122131
0.0114419
0.0106906
0.00995992
0.00925049
0.00856314
0.00789904
0.00725961
0.00664648
0.00606139
0.00550859
0.00499831
0.00451393
0.00402891
0.0035325
0.00301149
0.0024485
0.00181705
0.00108814
0.0364904
0.0354461
0.0344088
0.0333788
0.0323557
0.03134
0.030333
0.0293342
0.0283444
0.0273644
0.0263942
0.0254341
0.0244848
0.0235457
0.0226178
0.0217013
0.0207954
0.0199005
0.0190175
0.0181466
0.0172886
0.0164433
0.0156111
0.0147934
0.013991
0.0132039
0.0124339
0.0116818
0.0109485
0.0102354
0.00954447
0.00887807
0.00824112
0.00763526
0.00704737
0.00646336
0.00587305
0.00526565
0.00462925
0.00395039
0.0032106
0.00238177
0.00144642
0.037221
0.0362653
0.0353133
0.0343646
0.0334197
0.0324785
0.0315411
0.030607
0.0296781
0.028754
0.0278353
0.026923
0.0260171
0.025118
0.0242257
0.0233397
0.0224598
0.0215871
0.0207216
0.0198641
0.0190148
0.0181739
0.0173427
0.0165223
0.0157139
0.0149183
0.0141369
0.0133716
0.012624
0.011896
0.0111898
0.0105043
0.00983229
0.00916716
0.00850035
0.00782268
0.0071259
0.0063995
0.0056314
0.00480719
0.00390743
0.0029042
0.0017883
0.0379276
0.0370517
0.036176
0.0353013
0.0344279
0.0335546
0.0326804
0.0318063
0.0309322
0.0300589
0.029188
0.0283197
0.0274551
0.0265942
0.0257365
0.0248804
0.0240269
0.0231771
0.0223305
0.0214883
0.0206502
0.0198173
0.0189904
0.0181712
0.0173607
0.0165606
0.0157731
0.0149999
0.0142411
0.013495
0.0127592
0.01203
0.0113019
0.0105684
0.0098221
0.00905561
0.00826039
0.00742484
0.00653727
0.00558226
0.00454007
0.00338336
0.00210976
0.0386049
0.0378008
0.0369939
0.0361849
0.0353763
0.0345653
0.0337501
0.0329299
0.0321057
0.0312788
0.0304503
0.029622
0.0287958
0.0279708
0.0271459
0.0263191
0.0254915
0.0246641
0.0238373
0.0230114
0.0221864
0.0213629
0.0205415
0.019724
0.0189118
0.018107
0.0173109
0.0165233
0.0157423
0.0149659
0.0141909
0.0134137
0.012629
0.0118319
0.011014
0.0101678
0.00928298
0.0083493
0.00735401
0.00628224
0.00511298
0.00382073
0.00240857
0.0392494
0.0385095
0.0377622
0.0370106
0.0362621
0.0355096
0.0347476
0.0339773
0.0331983
0.032412
0.03162
0.030827
0.0300354
0.0292437
0.0284517
0.0276544
0.0268498
0.026043
0.025235
0.0244273
0.0236142
0.0227971
0.0219787
0.0211595
0.0203416
0.0195268
0.0187157
0.0179073
0.0171014
0.0162936
0.0154796
0.0146554
0.0138189
0.0129654
0.0120859
0.0111695
0.010205
0.00918291
0.00809165
0.0069149
0.00563215
0.0042182
0.00268397
0.0398626
0.0391751
0.0384796
0.037771
0.0370806
0.0363855
0.0356725
0.0349471
0.0342091
0.0334571
0.0326954
0.0319306
0.0311714
0.0304113
0.0296521
0.0288872
0.0280987
0.0273089
0.0265141
0.0257262
0.0249288
0.0241127
0.0232902
0.0224636
0.0216342
0.0208074
0.0199804
0.01915
0.0183195
0.0174853
0.0166347
0.0157675
0.0148819
0.0139784
0.0130483
0.012075
0.0110383
0.0099349
0.00875835
0.00748863
0.00610434
0.00458145
0.00292756
0.000159898
0.000215383
0.00028653
0.00037372
0.000482497
0.000617613
0.000775185
0.000949172
0.00113853
0.0013429
0.0015622
0.00179644
0.00204582
0.00231057
0.00259089
0.00288705
0.00319932
0.0035281
0.00387372
0.00423655
0.00461687
0.00501506
0.00543151
0.00586647
0.00632028
0.00679328
0.00728559
0.00779749
0.0083291
0.00888044
0.00945142
0.0100419
0.0106515
0.0112797
0.0119259
0.0125889
0.0132676
0.0139602
0.0146646
0.0153783
0.0160979
0.0168196
0.0175391
0.000301975
0.000287199
0.000383878
0.000509093
0.000658416
0.000829694
0.00102312
0.0012324
0.0014567
0.00169564
0.00194897
0.00221657
0.00249833
0.00279428
0.00310445
0.00342888
0.00376773
0.00412114
0.00448921
0.00487212
0.00527005
0.00568312
0.00611152
0.00655541
0.00701488
0.00749009
0.00798108
0.00848785
0.00901038
0.00954855
0.0101022
0.0106709
0.0112543
0.0118518
0.0124625
0.0130855
0.0137195
0.014363
0.015014
0.0156701
0.0163285
0.0169857
0.0176369
0.000464724
0.000374915
0.000503764
0.000667604
0.000853972
0.00106038
0.00128803
0.00153107
0.00178867
0.00206038
0.00234573
0.00264445
0.00295632
0.0032811
0.00361869
0.00396901
0.00433192
0.00470741
0.00509547
0.00549608
0.00590921
0.0063349
0.00677307
0.00722376
0.00768691
0.00816251
0.00865044
0.00915055
0.00966268
0.0101866
0.0107219
0.0112682
0.011825
0.0123916
0.0129672
0.0135509
0.0141413
0.0147371
0.0153366
0.0159377
0.016538
0.0171347
0.0177245
0.000638208
0.000476091
0.0006361
0.000834941
0.0010543
0.00129445
0.00155396
0.00182834
0.00211673
0.00241852
0.00273313
0.00306009
0.00339906
0.00374971
0.00411167
0.00448477
0.00486878
0.0052634
0.00566858
0.00608409
0.00650978
0.00694553
0.00739115
0.00784649
0.0083114
0.00878568
0.00926912
0.00976147
0.0102624
0.0107716
0.0112886
0.0118129
0.012344
0.0128811
0.0134235
0.0139702
0.0145201
0.015072
0.0156242
0.0161753
0.016723
0.0172653
0.0177987
0.000816882
0.000586539
0.000772945
0.00100291
0.00125247
0.00152418
0.00181308
0.00211632
0.00243287
0.00276207
0.00310319
0.00345562
0.00381888
0.00419254
0.00457612
0.00496923
0.00537158
0.00578277
0.00620249
0.0066305
0.00706647
0.00751017
0.00796128
0.00841957
0.00888472
0.00935646
0.00983446
0.0103184
0.0108078
0.0113023
0.0118015
0.0123047
0.0128114
0.0133209
0.0138323
0.014345
0.0148577
0.0153695
0.015879
0.016385
0.0168861
0.0173809
0.0178696
0.000995752
0.000701821
0.000909184
0.00116739
0.00144529
0.00174536
0.0020612
0.00239076
0.00273304
0.0030871
0.00345218
0.00382755
0.0042126
0.00460674
0.00500945
0.00542021
0.00583856
0.00626407
0.00669623
0.00713467
0.00757904
0.00802894
0.00848403
0.00894391
0.00940817
0.00987646
0.0103484
0.0108236
0.0113015
0.0117818
0.0122638
0.0127471
0.0132309
0.0137147
0.0141977
0.014679
0.0151579
0.0156333
0.0161044
0.0165699
0.0170288
0.0174794
0.0179194
0.0011707
0.000818499
0.00104213
0.00132578
0.00162997
0.00195547
0.00229599
0.0026496
0.00301518
0.0033918
0.00377851
0.00417455
0.00457913
0.00499161
0.00541135
0.00583773
0.00627012
0.00670802
0.0071508
0.00759797
0.00804914
0.00850389
0.00896168
0.00942204
0.00988445
0.0103486
0.0108142
0.0112806
0.0117473
0.0122138
0.0126797
0.0131444
0.0136071
0.0140673
0.0145241
0.0149767
0.0154246
0.0158672
0.0163036
0.0167328
0.0171536
0.0175647
0.0179639
0.00133995
0.000932403
0.00116654
0.00147385
0.00180371
0.00215313
0.00251632
0.00289183
0.00327875
0.00367612
0.00408268
0.00449738
0.00491955
0.00534857
0.00578379
0.00622427
0.00666901
0.0071175
0.00756916
0.00802335
0.00847985
0.0089383
0.00939778
0.00985739
0.010317
0.0107763
0.0112355
0.0116935
0.0121493
0.0126028
0.0130536
0.0135012
0.0139448
0.0143833
0.014816
0.015242
0.0156616
0.0160744
0.0164796
0.0168763
0.0172633
0.0176398
0.0180046
0.00147736
0.00104495
0.00130606
0.00163532
0.00198481
0.00234855
0.00272677
0.00312051
0.00352919
0.00394738
0.00437197
0.00480189
0.00523952
0.00568372
0.00613409
0.00658765
0.007042
0.00749888
0.007957
0.00841537
0.00887577
0.00933773
0.00979736
0.0102537
0.0107089
0.0111625
0.011617
0.0120667
0.0125116
0.0129527
0.0133899
0.0138229
0.0142496
0.0146682
0.0150787
0.0154779
0.0158719
0.0162579
0.0166353
0.0170032
0.0173602
0.0177063
0.0180436
4.6324e-05
0.000167622
0.000376162
0.000661756
0.00096184
0.00125549
0.00154598
0.00183258
0.00211553
0.00239883
0.0026855
0.0029776
0.00327739
0.00358609
0.00390484
0.00423443
0.00457579
0.00493059
0.00529941
0.00568442
0.00608694
0.00650797
0.00694916
0.00741115
0.00789582
0.00840384
0.00893669
0.00949487
0.0100795
0.0106922
0.0113332
0.0120031
0.0127021
0.013431
0.0141906
0.0149822
0.0158064
0.0166625
0.0175484
0.0184646
0.0194142
0.0204073
0.021465
3.63566e-05
0.000105456
0.000222705
0.000386854
0.000598045
0.000857945
0.00116666
0.00148266
0.00180092
0.00212086
0.00243965
0.00275575
0.00306846
0.00337841
0.00368787
0.00399915
0.00431481
0.00463702
0.00496812
0.00531046
0.00566667
0.00603924
0.00643042
0.00684274
0.0072783
0.00773912
0.00822714
0.00874375
0.00929109
0.00987004
0.0104819
0.011127
0.0118062
0.0125194
0.0132677
0.0140512
0.0148695
0.0157229
0.01661
0.0175302
0.0184856
0.0194824
0.0205346
2.64431e-05
8.4481e-05
0.000171063
0.000292202
0.000448034
0.000641355
0.000873936
0.00114538
0.00145706
0.00181094
0.00217162
0.00252782
0.00287803
0.00322271
0.00356239
0.00389782
0.00422967
0.00455942
0.00488891
0.00522025
0.00555591
0.00589884
0.00625223
0.00661955
0.00700437
0.0074103
0.00784086
0.00829952
0.0087891
0.00931264
0.00987211
0.0104693
0.0111055
0.0117814
0.0124976
0.0132543
0.0140513
0.0148883
0.0157637
0.0166772
0.0176296
0.0186231
0.0196589
2.8173e-05
7.78105e-05
0.000156764
0.00026112
0.000394116
0.000557809
0.00075494
0.000986332
0.00125369
0.00155896
0.00190412
0.00227896
0.00265795
0.00303383
0.00340507
0.00377128
0.00413263
0.0044895
0.00484222
0.00519139
0.00553814
0.00588393
0.00623098
0.00658209
0.00694069
0.00731073
0.00769664
0.00810318
0.00853515
0.00899702
0.00949333
0.0100278
0.0106037
0.0112232
0.0118881
0.0125992
0.013357
0.014161
0.0150103
0.0159039
0.0168415
0.0178233
0.0188489
2.69418e-05
7.77256e-05
0.000149266
0.000240162
0.000360069
0.00050707
0.00068306
0.000890065
0.00112903
0.00140163
0.00170969
0.00205523
0.00243835
0.00283581
0.00323308
0.00362629
0.00401475
0.0043984
0.00477728
0.00515138
0.00552083
0.00588604
0.00624769
0.00660704
0.00696601
0.00732724
0.00769422
0.00807142
0.00846371
0.00887679
0.00931667
0.00978904
0.0102995
0.0108529
0.0114532
0.0121032
0.012805
0.0135594
0.0143661
0.0152244
0.0161333
0.0170922
0.0180975
2.70074e-05
7.62406e-05
0.000144687
0.000227637
0.000338803
0.000474753
0.000636896
0.000827663
0.00104771
0.00129854
0.00158206
0.00190023
0.00225554
0.00264809
0.0030589
0.00347261
0.00388379
0.00429119
0.00469407
0.00509228
0.00548565
0.00587396
0.00625715
0.00663552
0.00700957
0.00738049
0.00775009
0.00812128
0.0084977
0.00888425
0.00928664
0.00971148
0.0101657
0.0106562
0.0111896
0.0117715
0.0124066
0.0130977
0.0138469
0.0146546
0.0155205
0.0164437
0.0174244
2.69039e-05
7.66996e-05
0.000143354
0.000218767
0.000323339
0.000451533
0.000604131
0.000783022
0.000989552
0.00122489
0.00149052
0.00178848
0.00212093
0.00249012
0.00289555
0.0033199
0.00374851
0.00417578
0.00459961
0.00501947
0.00543491
0.00584549
0.00625091
0.00665074
0.00704501
0.00743376
0.00781764
0.00819785
0.0085766
0.00895693
0.00934324
0.00974101
0.010157
0.0105989
0.0110745
0.011592
0.0121585
0.0127803
0.0134619
0.0142068
0.0150158
0.0158896
0.0168275
2.69663e-05
7.66477e-05
0.00014187
0.000212845
0.00031219
0.000434477
0.000579792
0.000749827
0.000946309
0.00116991
0.00142208
0.00170472
0.00201987
0.00236963
0.00275639
0.00317743
0.00361526
0.00405761
0.00449925
0.00493801
0.00537315
0.00580412
0.0062303
0.00665131
0.00706644
0.00747543
0.00787807
0.0082747
0.00866596
0.00905351
0.00943997
0.00982914
0.0102263
0.010638
0.0110723
0.0115377
0.0120435
0.0125984
0.0132102
0.0138853
0.0146277
0.0154405
0.0163268
2.70665e-05
7.70527e-05
0.000141404
0.000209193
0.000303844
0.000421395
0.00056112
0.000724308
0.000912892
0.00112738
0.00136913
0.00163978
0.00194124
0.00227571
0.0026455
0.00305236
0.00348973
0.00394128
0.00439685
0.00485181
0.00530441
0.00575366
0.0061989
0.00663943
0.00707456
0.00750374
0.00792631
0.00834186
0.00875037
0.00915231
0.00954888
0.00994228
0.0103358
0.0107346
0.011145
0.0115752
0.0120343
0.0125325
0.0130799
0.0136856
0.0143573
0.0151015
0.0159236
2.7228e-05
7.74948e-05
0.000141249
0.000207045
0.00029751
0.000411247
0.000546528
0.000704401
0.000886523
0.00109372
0.00132709
0.00158809
0.00187866
0.00220069
0.00255658
0.00294848
0.00337668
0.0038305
0.00429551
0.00476375
0.00523152
0.00569713
0.00615958
0.00661804
0.00707181
0.00752012
0.00796209
0.00839704
0.0088244
0.00924389
0.00965579
0.0100609
0.0104612
0.0108597
0.0112613
0.0116722
0.0121008
0.0125568
0.0130509
0.0135945
0.0141981
0.0148717
0.0156235
2.74e-05
7.80229e-05
0.000141389
0.000205802
0.000292581
0.000403119
0.000534826
0.000688336
0.000865226
0.00106652
0.00129304
0.00154621
0.00182774
0.00213965
0.00248403
0.00286315
0.00327891
0.00372834
0.00419795
0.00467604
0.00515676
0.00563675
0.0061148
0.00658955
0.00706051
0.00752666
0.00798706
0.0084408
0.00888707
0.00932516
0.00975454
0.0101754
0.0105883
0.0109951
0.0113986
0.0118033
0.0122159
0.0126446
0.0130998
0.0135931
0.0141371
0.0147442
0.0154273
2.76076e-05
7.85804e-05
0.000141621
0.000205001
0.000288661
0.000396571
0.000525324
0.000675265
0.000847882
0.00104426
0.00126508
0.00151177
0.00178586
0.00208925
0.0024241
0.0027924
0.00319652
0.00363719
0.00410627
0.00459077
0.00508172
0.00557446
0.0060663
0.00655609
0.00704281
0.00752539
0.00800305
0.00847464
0.00893922
0.00939568
0.00984342
0.0102816
0.0107104
0.0111302
0.0115427
0.0119507
0.0123588
0.0127737
0.0132039
0.0136607
0.0141566
0.0147057
0.0153245
2.78268e-05
7.91413e-05
0.000141914
0.000204494
0.000285548
0.000391274
0.000517545
0.000664538
0.000833541
0.00102582
0.00124198
0.0014832
0.00175102
0.00204731
0.00237397
0.00273314
0.00312706
0.00355769
0.00402229
0.0045094
0.00500805
0.00551137
0.0060157
0.00651919
0.00702025
0.00751822
0.00801184
0.00850017
0.00898213
0.00945653
0.00992224
0.0103784
0.0108244
0.0112601
0.0116857
0.0121031
0.0125151
0.0129264
0.013344
0.013777
0.0142377
0.0147397
0.0152999
2.80495e-05
7.97009e-05
0.000142231
0.000204162
0.000283054
0.000386923
0.00051115
0.000655648
0.000821663
0.00101051
0.00122265
0.00145922
0.00172181
0.00201198
0.00233167
0.00268303
0.00306818
0.00348941
0.00394686
0.00443331
0.00493676
0.00544878
0.00596409
0.00647986
0.00699442
0.00750643
0.00801505
0.00851911
0.0090174
0.00950878
0.009992
0.010466
0.0109295
0.0113821
0.0118234
0.0122539
0.0126752
0.0130905
0.0135049
0.0139257
0.014363
0.0148297
0.0153414
2.8265e-05
8.02617e-05
0.000142598
0.000203982
0.000281104
0.000383426
0.000505897
0.000648316
0.000811757
0.00099769
0.00120642
0.00143913
0.00169715
0.00198207
0.00229587
0.00264041
0.003018
0.00343079
0.00388034
0.00436327
0.00486912
0.0053877
0.00591237
0.00643935
0.00696614
0.00749149
0.00801398
0.00853268
0.00904642
0.00955391
0.0100539
0.010545
0.0110261
0.0114959
0.0119539
0.0123996
0.0128339
0.0132583
0.0136764
0.0140937
0.0145182
0.014961
0.0154359
2.84865e-05
8.08293e-05
0.000142981
0.000203923
0.000279594
0.00038056
0.000501599
0.000642272
0.000803569
0.000986942
0.0011928
0.0014221
0.0016762
0.00195669
0.00226533
0.00260407
0.00297503
0.00338046
0.00382231
0.00429998
0.00480583
0.00532888
0.00586145
0.00639837
0.00693652
0.00747408
0.00800969
0.0085422
0.00907046
0.0095932
0.0101091
0.0106167
0.0111147
0.0116017
0.0120768
0.0125389
0.012988
0.0134249
0.0138516
0.0142719
0.014692
0.0151207
0.0155697
2.87211e-05
8.13935e-05
0.00014338
0.000203962
0.000278422
0.000378234
0.000498039
0.000637211
0.000796694
0.000977902
0.00118123
0.00140768
0.0016584
0.00193503
0.00223919
0.00257288
0.00293811
0.00333705
0.0037719
0.00424351
0.00474723
0.00527309
0.00581193
0.00635758
0.00690613
0.00745519
0.00800312
0.00854866
0.00909064
0.00962784
0.0101587
0.0106822
0.0111965
0.0117004
0.0121922
0.0126712
0.0131362
0.0135876
0.014026
0.0144542
0.0148763
0.015299
0.0157323
2.89495e-05
8.19437e-05
0.000143774
0.000204059
0.000277537
0.0003763
0.000495038
0.000632962
0.000790932
0.000970211
0.00117143
0.00139533
0.00164319
0.00191644
0.00221679
0.00254601
0.00290622
0.0032995
0.00372806
0.00419354
0.00469385
0.00522061
0.00576433
0.00631745
0.00687557
0.00743527
0.00799488
0.00855281
0.00910787
0.00965865
0.0102041
0.0107425
0.0112726
0.0117926
0.0123012
0.0127967
0.0132783
0.0137452
0.0141975
0.0146366
0.0150653
0.0154887
0.0159145
2.91667e-05
8.24499e-05
0.000144148
0.000204194
0.000276843
0.000374721
0.000492536
0.000629391
0.000786009
0.000963702
0.00116308
0.00138481
0.00163012
0.0019005
0.00219747
0.00252283
0.00287864
0.00326689
0.00368982
0.00414955
0.00464558
0.00517187
0.00571888
0.00627859
0.00684507
0.00741488
0.00798548
0.00855522
0.00912263
0.00968669
0.0102458
0.0107987
0.0113437
0.0118795
0.0124041
0.0129162
0.0134143
0.0138974
0.0143648
0.0148169
0.0152557
0.0156845
0.0161091
2.93866e-05
8.29907e-05
0.000144558
0.000204381
0.000276347
0.000373411
0.00049046
0.00062636
0.000781846
0.000958124
0.00115585
0.00137571
0.00161887
0.00188664
0.00218065
0.0025027
0.00285458
0.00323845
0.00365649
0.00411083
0.00460224
0.00512685
0.00567604
0.00624096
0.00681522
0.00739433
0.00797532
0.00855621
0.00913571
0.0097122
0.0102845
0.0108512
0.0114109
0.0119616
0.012502
0.0130302
0.0135446
0.0140439
0.0145271
0.0149937
0.0154448
0.0158824
0.0163109
2.96051e-05
8.35003e-05
0.000144935
0.000204576
0.000276006
0.000372343
0.000488693
0.000623804
0.000778264
0.000953311
0.00114963
0.00136789
0.00160908
0.00187465
0.00216608
0.00248508
0.0028336
0.00321356
0.00362718
0.00407664
0.00456344
0.00508551
0.00563564
0.00620498
0.00678595
0.00737362
0.00796451
0.00855626
0.00914717
0.00973582
0.0103209
0.0109009
0.0114745
0.0120398
0.0125953
0.0131392
0.0136697
0.0141853
0.0146844
0.0151663
0.0156312
0.0160799
0.0165152
2.98217e-05
8.39653e-05
0.00014528
0.000204799
0.000275735
0.000371435
0.000487172
0.000621576
0.00077515
0.00094911
0.00114424
0.001361
0.00160052
0.00186411
0.00215323
0.0024696
0.0028151
0.00319158
0.00360123
0.00404642
0.00452867
0.0050477
0.00559782
0.00617035
0.00675729
0.00735288
0.00795317
0.0085553
0.00915727
0.00975766
0.010355
0.010948
0.011535
0.0121145
0.0126848
0.0132439
0.0137901
0.0143218
0.0148369
0.0153343
0.0158135
0.0162745
0.0167184
3.00247e-05
8.44415e-05
0.000145638
0.000205024
0.000275573
0.000370692
0.000485898
0.000619635
0.000772477
0.000945468
0.00113946
0.00135496
0.00159298
0.00185478
0.00214186
0.00245587
0.00279862
0.00317202
0.00357817
0.0040193
0.00449751
0.00501317
0.00556239
0.00613721
0.00672926
0.00733217
0.00794127
0.00855328
0.00916599
0.00977778
0.0103872
0.0109926
0.0115928
0.012186
0.0127705
0.0133445
0.013906
0.0144534
0.0149844
0.0154975
0.0159914
0.0164653
0.0169191
3.02177e-05
8.48458e-05
0.000145943
0.000205234
0.000275446
0.000370023
0.000484744
0.000617975
0.000770039
0.000942202
0.00113521
0.00134952
0.00158618
0.00184642
0.00213164
0.00244355
0.00278384
0.0031544
0.00355742
0.003995
0.00446928
0.00498149
0.00552917
0.0061053
0.00670173
0.00731122
0.00792863
0.00855018
0.0091733
0.00979617
0.0104172
0.0110349
0.0116478
0.0122543
0.0128527
0.0134413
0.0140178
0.0145804
0.0151271
0.0156557
0.0161647
0.0166523
0.0171172
3.04009e-05
8.52539e-05
0.000146243
0.00020544
0.000275368
0.000369463
0.000483758
0.00061642
0.000767908
0.000939272
0.00113135
0.00134467
0.00158007
0.00183883
0.00212245
0.00243239
0.00277047
0.00313853
0.00353861
0.00397284
0.00444363
0.00495227
0.00549776
0.00607464
0.00667458
0.00729
0.00791514
0.00854579
0.00917896
0.00981264
0.010445
0.0110746
0.0117
0.0123194
0.0129315
0.013534
0.0141253
0.014703
0.015265
0.0158092
0.0163336
0.0168359
0.0173135
3.05822e-05
8.56413e-05
0.000146535
0.000205655
0.000275325
0.000368985
0.000482878
0.000615072
0.000765979
0.000936593
0.0011279
0.00134023
0.00157448
0.00183195
0.00211398
0.00242221
0.00275823
0.00312391
0.00352135
0.00395258
0.00441992
0.00492513
0.00546829
0.00604506
0.00664769
0.00726833
0.0079007
0.00853984
0.00918278
0.00982679
0.0104703
0.0111115
0.011749
0.0123813
0.0130065
0.0136229
0.0142284
0.0148209
0.0153984
0.0159581
0.0164979
0.0170157
0.0175084
3.07605e-05
8.6018e-05
0.000146811
0.000205862
0.000275297
0.000368557
0.000482041
0.000613842
0.000764186
0.000934108
0.00112465
0.00133606
0.00156929
0.00182553
0.00210615
0.00241274
0.00274683
0.00311038
0.00350531
0.00393379
0.00439799
0.00489993
0.00544039
0.00601638
0.00662086
0.0072461
0.0078849
0.00853236
0.00918443
0.00983877
0.0104929
0.0111456
0.0117949
0.0124396
0.0130776
0.0137073
0.0143269
0.0149339
0.0155261
0.0161013
0.0166567
0.0171904
0.0177002
3.09197e-05
8.63658e-05
0.000147072
0.000206055
0.00027528
0.000368133
0.000481293
0.000612675
0.000762506
0.00093182
0.00112161
0.00133222
0.00156444
0.00181953
0.00209888
0.00240385
0.00273614
0.00309772
0.00349035
0.0039162
0.00437742
0.00487624
0.00541387
0.00598852
0.00659424
0.00722305
0.00786794
0.00852298
0.00918408
0.00984806
0.0105129
0.0111765
0.0118374
0.012494
0.0131446
0.0137875
0.0144205
0.0150415
0.0156482
0.0162381
0.0168088
0.0173575
0.017882
3.1088e-05
8.66879e-05
0.000147305
0.000206223
0.000275269
0.000367755
0.000480568
0.000611538
0.000760935
0.000929639
0.00111877
0.00132856
0.00155986
0.00181391
0.00209193
0.00239547
0.00272617
0.00308579
0.00347624
0.00389962
0.00435806
0.00485388
0.00538858
0.00596139
0.00656746
0.00719951
0.0078496
0.00851172
0.0091812