/*--------------------------------*- C++ -*----------------------------------*\
| =========                 |                                                 |
| \\      /  F ield         | OpenFOAM: The Open Source CFD Toolbox           |
|  \\    /   O peration     | Version:  2.3.0                                 |
|   \\  /    A nd           | Web:      www.OpenFOAM.org                      |
|    \\/     M anipulation  |                                                 |
\*---------------------------------------------------------------------------*/
FoamFile
{
    version     2.0;
    format      ascii;
    class       volScalarField;
    location    "10000";
    object      p;
}
// * * * * * * * * * * * * * * * * * * * * * * * * * * * * * * * * * * * * * //

dimensions      [0 2 -2 0 0 0 0];

internalField   nonuniform List<scalar> 
124031
(
-6.48177e-06
-2.72257
-5.3566
-8.05391
-10.7905
-13.5866
-16.4414
-19.3765
-22.3865
-25.476
-28.638
-31.8828
-35.2007
-38.5832
-42.0134
-45.4791
-48.9806
-52.5303
-56.0585
-59.5905
-63.0323
-66.5001
-69.802
-73.1304
-76.3909
-79.3886
-82.4583
-85.2197
-87.8688
-90.4613
-92.5489
-94.446
-95.7481
-96.5366
-96.3646
-95.5435
-93.1367
-88.8843
-81.4794
-70.5565
-63.2824
-70.9844
-65.2206
10.9648
9.11331
7.50223
5.93092
4.41385
2.91555
1.46997
0.0280685
-1.36115
-2.7396
-4.075
-5.39899
-6.67996
-7.93044
-9.16039
-10.3525
-11.4882
-12.5766
-13.612
-14.5632
-15.4122
-16.1263
-16.6548
-17.0106
-17.0762
-16.8109
-16.2117
-15.1547
-13.4984
-11.1942
-8.10135
-4.05671
1.11735
7.62467
15.9359
26.1207
38.8561
54.3162
73.676
97.5809
125.854
157.11
190.595
20.0672
18.928
17.9239
16.8897
15.8684
14.8625
13.894
12.9194
12.0025
11.097
10.2244
9.38297
8.60638
7.87935
7.22987
6.66081
6.18583
5.8377
5.63246
5.56151
5.67427
5.98199
6.49051
7.27007
8.34817
9.77528
11.6133
13.9239
16.7764
20.2482
24.479
29.5651
35.668
42.9266
51.5648
61.7893
73.8243
87.8772
104.17
122.525
142.573
164.021
186.234
28.5526
27.837
27.3283
26.7959
26.302
25.8486
25.4455
25.0712
24.7738
24.5372
24.3535
24.2386
24.1958
24.2486
24.4053
24.6682
25.0606
25.6035
26.31
27.2109
28.3163
29.6527
31.2531
33.1644
35.3975
38.0516
41.1438
44.7337
48.9299
53.7688
59.3793
65.8066
73.1858
81.6015
91.1381
101.888
113.898
127.226
141.834
157.543
174.114
191.202
208.39
36.1214
35.7012
35.5486
35.355
35.1959
35.0727
35.0206
35.0025
35.0349
35.1417
35.3221
35.5534
35.8704
36.2898
36.81
37.4506
38.2121
39.16
40.2668
41.5792
43.094
44.8431
46.856
49.1706
51.7978
54.8267
58.2483
62.1607
66.6372
71.6955
77.4555
83.9516
91.2864
99.5351
108.726
118.934
130.148
142.394
155.609
169.642
184.327
199.368
214.456
43.1238
42.7377
42.8167
42.8808
42.9818
43.1234
43.3451
43.5935
43.931
44.3157
44.7977
45.3225
45.9415
46.6555
47.4889
48.4511
49.5334
50.7946
52.2516
53.8872
55.7639
57.8749
60.2473
62.9265
65.9049
69.2414
72.9881
77.2316
81.9515
87.2289
93.1555
99.7571
107.101
115.257
124.264
134.061
144.656
156.089
168.286
181.097
194.397
207.958
221.555
49.334
48.9747
49.2331
49.4799
49.7577
50.0737
50.4817
50.9381
51.5308
52.085
52.7905
53.5464
54.3479
55.241
56.2554
57.3876
58.6719
60.1602
61.8639
63.722
65.8037
68.1846
70.7472
73.6138
76.7357
80.1507
83.9874
88.3424
93.1511
98.4542
104.381
110.95
118.224
126.223
135.051
144.449
154.42
165.162
176.589
188.514
200.83
213.408
226.037
55.1618
54.6768
54.8956
55.2841
55.6638
56.0902
56.6261
57.2183
58.0453
58.7069
59.6168
60.5342
61.452
62.5482
63.7645
64.9527
66.1494
67.6864
69.5852
71.7585
73.9046
76.5931
79.4128
82.5407
85.9207
89.4476
93.2108
97.5495
102.417
107.644
113.448
119.834
127.027
134.905
143.758
153.091
162.545
172.529
183.341
194.521
206.023
217.795
229.726
61.2018
60.5288
60.0328
60.1233
60.2645
60.7872
62.1523
61.9761
62.887
63.2876
64.3355
65.3996
66.0107
67.0016
68.5947
70.0067
70.5884
71.1197
72.322
75.0222
75.4708
77.685
80.0846
82.7304
86.4649
91.1308
94.2567
98.6547
103.722
108.86
114.294
120.026
126.393
132.793
142.683
152.91
162.923
172.943
184.429
196.233
207.75
218.905
230.267
40.6345
120.971
173.929
214.371
246.39
272.072
292.781
309.62
323.451
334.781
344.245
352.135
358.791
364.383
369.111
373.142
376.559
379.509
381.994
384.104
385.928
387.463
388.784
389.897
390.819
391.604
392.259
392.785
393.201
393.527
393.769
393.931
394.023
394.044
394.002
393.897
393.746
393.542
393.281
392.981
392.59
392.26
392.458
222.768
247.834
269.883
289.203
305.86
320.058
332.057
342.199
350.698
357.853
363.857
368.875
373.096
376.637
379.612
382.126
384.241
386.012
387.504
388.746
389.774
390.625
391.313
391.867
392.309
392.641
392.884
393.046
393.132
393.149
393.111
393.008
392.857
392.663
392.427
392.151
391.849
391.513
391.149
390.768
390.353
389.925
389.746
207.672
227.943
246.798
263.97
279.381
293.084
305.186
315.8
325.112
333.249
340.382
346.592
352.037
356.804
360.995
364.671
367.906
370.756
373.275
375.493
377.447
379.159
380.661
381.97
383.114
384.096
384.943
385.665
386.275
386.776
387.179
387.502
387.741
387.909
388.012
388.048
388.033
387.963
387.853
387.688
387.49
387.232
387.038
225.32
241.73
257.281
271.746
285.003
297
307.759
317.353
325.848
333.357
339.972
345.787
350.897
355.379
359.317
362.763
365.789
368.447
370.787
372.839
374.648
376.229
377.618
378.832
379.894
380.822
381.63
382.326
382.925
383.436
383.864
384.219
384.507
384.729
384.904
385.024
385.093
385.123
385.118
385.066
384.993
385.108
385.922
229.33
243.798
257.608
270.593
282.626
293.641
303.648
312.647
320.727
327.937
334.358
340.066
345.138
349.642
353.64
357.18
360.329
363.132
365.623
367.829
369.803
371.551
373.101
374.473
375.697
376.778
377.737
378.577
379.314
379.952
380.505
380.975
381.377
381.712
381.991
382.217
382.389
382.515
382.6
382.635
382.605
382.707
383.628
234.966
248.036
260.564
272.406
283.461
293.671
302.996
311.457
319.095
325.95
332.105
337.608
342.524
346.906
350.81
354.295
357.395
360.16
362.628
364.83
366.8
368.554
370.116
371.503
372.758
373.864
374.855
375.727
376.507
377.192
377.794
378.314
378.767
379.157
379.502
379.785
380.017
380.202
380.352
380.465
380.506
380.596
381.214
238.465
250.601
262.252
273.284
283.641
293.312
302.137
310.188
317.451
324.025
329.98
335.324
340.091
344.363
348.2
351.625
354.684
357.421
359.89
362.112
364.099
365.875
367.444
368.864
370.153
371.285
372.311
373.216
374.072
374.819
375.442
375.976
376.464
376.893
377.318
377.659
377.922
378.144
378.346
378.526
378.671
378.775
379.028
241.405
252.86
263.827
274.156
283.96
293.29
301.734
309.423
316.346
322.698
328.569
333.801
338.374
342.565
346.324
349.645
352.657
355.371
357.869
360.098
362.056
363.766
365.306
366.773
368.073
369.174
370.245
371.235
372.193
372.887
373.388
373.915
374.45
374.926
375.488
375.808
376.021
376.262
376.55
376.774
377.012
377.114
376.909
241.665
253.779
264.834
274.596
283.978
293.256
301.52
308.926
315.517
321.642
327.288
331.901
336.688
340.857
344.345
347.486
350.506
353.269
355.697
357.72
359.563
361.196
362.827
364.414
365.644
366.784
368.145
369.126
369.973
369.762
370.851
371.749
372.509
373.128
373.794
373.423
374.074
374.691
375.113
375.431
375.837
375.848
375.212
-102.347
-102.506
-102.747
-102.937
-103.089
-103.208
-103.294
-103.347
-103.368
-103.356
-103.312
-103.237
-103.134
-103.001
-102.839
-102.646
-102.425
-102.175
-101.898
-101.598
-101.275
-100.933
-100.574
-100.203
-99.8213
-99.434
-99.0439
-98.6546
-98.269
-97.8905
-97.5222
-97.1658
-96.8234
-96.4955
-96.1805
-95.8729
-95.5586
-95.2052
-94.7468
-94.0889
-93.0606
-91.0646
-86.7099
-102.738
-102.771
-102.81
-102.809
-102.771
-102.705
-102.616
-102.503
-102.371
-102.223
-102.063
-101.894
-101.722
-101.547
-101.37
-101.194
-101.018
-100.844
-100.672
-100.502
-100.332
-100.164
-99.9976
-99.8307
-99.6627
-99.4931
-99.321
-99.1449
-98.9637
-98.7747
-98.5747
-98.3595
-98.1221
-97.8509
-97.5274
-97.1204
-96.5835
-95.8542
-94.7969
-93.0675
-89.9641
-84.7359
-77.5887
-103.297
-103.345
-103.447
-103.535
-103.603
-103.656
-103.695
-103.718
-103.727
-103.72
-103.699
-103.664
-103.618
-103.559
-103.492
-103.412
-103.32
-103.217
-103.101
-102.972
-102.832
-102.677
-102.509
-102.329
-102.134
-101.928
-101.706
-101.467
-101.209
-100.926
-100.61
-100.253
-99.8358
-99.3356
-98.7192
-97.9381
-96.9062
-95.475
-93.3914
-90.1941
-85.1711
-77.6969
-67.9623
-103.664
-103.729
-103.859
-103.972
-104.061
-104.139
-104.204
-104.251
-104.281
-104.292
-104.285
-104.263
-104.231
-104.194
-104.152
-104.103
-104.042
-103.971
-103.891
-103.8
-103.697
-103.579
-103.444
-103.29
-103.113
-102.913
-102.687
-102.43
-102.133
-101.789
-101.382
-100.896
-100.304
-99.5731
-98.6511
-97.4606
-95.8838
-93.725
-90.6799
-86.2912
-80.0509
-71.694
-61.8643
-104.005
-104.023
-104.171
-104.31
-104.414
-104.519
-104.616
-104.7
-104.77
-104.821
-104.846
-104.846
-104.828
-104.808
-104.791
-104.768
-104.736
-104.688
-104.624
-104.549
-104.458
-104.355
-104.224
-104.064
-103.867
-103.635
-103.365
-103.051
-102.677
-102.233
-101.703
-101.059
-100.269
-99.2899
-98.0508
-96.4617
-94.3842
-91.5982
-87.7915
-82.583
-75.6309
-66.9488
-57.4754
-104.265
-104.218
-104.381
-104.536
-104.62
-104.738
-104.859
-104.966
-105.063
-105.147
-105.201
-105.209
-105.177
-105.137
-105.127
-105.117
-105.1
-105.059
-104.988
-104.914
-104.823
-104.73
-104.614
-104.453
-104.239
-103.971
-103.65
-103.274
-102.826
-102.279
-101.63
-100.843
-99.8804
-98.6851
-97.1604
-95.2096
-92.7162
-89.4588
-85.1169
-79.3796
-72.0242
-63.2495
-54.077
-104.414
-104.315
-104.495
-104.686
-104.693
-104.814
-104.975
-105.113
-105.244
-105.373
-105.484
-105.499
-105.43
-105.315
-105.304
-105.348
-105.386
-105.386
-105.286
-105.185
-105.081
-104.99
-104.913
-104.747
-104.492
-104.151
-103.761
-103.328
-102.831
-102.2
-101.452
-100.552
-99.4507
-98.1001
-96.3775
-94.1026
-91.2662
-87.6792
-82.9218
-76.7501
-69.0551
-60.229
-51.2544
-104.518
-104.344
-104.625
-105.083
-104.77
-104.672
-104.829
-104.979
-105.129
-105.303
-105.563
-105.688
-105.61
-105.158
-104.856
-104.801
-104.859
-105.015
-104.958
-104.775
-104.55
-104.388
-104.502
-104.547
-104.393
-103.993
-103.475
-102.936
-102.326
-101.518
-100.634
-99.6425
-98.4196
-96.9695
-95.1416
-92.3582
-89.132
-85.5833
-80.9056
-74.5968
-66.7784
-58.1566
-49.4785
-103.487
-103.536
-104.405
-107.79
-107.43
-106.891
-106.943
-106.99
-106.998
-107.012
-107.79
-108.653
-109.987
-109.259
-109.211
-108.31
-108.07
-108.368
-108.422
-108.481
-107.051
-106.009
-105.828
-106.003
-106.559
-106.639
-106.316
-105.74
-105.713
-104.989
-104.034
-103.11
-102.164
-101.198
-100.449
-96.0915
-90.787
-86.1605
-81.4154
-73.9298
-64.1572
-55.019
-45.5401
-73.294
-61.5473
-51.9137
-43.2402
-35.5338
-28.6408
-22.4289
-16.7744
-11.5809
-6.76981
-2.28297
1.9269
5.89775
9.65677
13.2295
16.6331
19.8842
22.9957
25.9763
28.8357
31.5796
34.2134
36.7411
39.1673
41.4927
43.7204
45.8492
47.8822
49.818
51.655
53.3932
55.0311
56.5656
57.9962
59.3182
60.5298
61.6277
62.6074
63.4641
64.1953
64.8172
65.2982
65.3594
-67.3967
-60.1266
-53.0312
-45.6568
-38.5328
-31.754
-25.3919
-19.4562
-13.9342
-8.79826
-4.01676
0.442252
4.60759
8.50848
12.169
15.6093
18.8487
21.9021
24.7843
27.5073
30.0824
32.5162
34.8179
36.9943
39.0492
40.9901
42.8187
44.5394
46.1546
47.6663
49.0767
50.3854
51.5928
52.6991
53.7033
54.6036
55.3982
56.085
56.6591
57.1174
57.4573
57.6491
57.6604
-57.7905
-51.1077
-45.0581
-39.107
-33.3822
-27.8623
-22.5958
-17.5968
-12.8716
-8.41591
-4.22095
-0.272513
3.44372
6.94342
10.2411
13.35
16.2846
19.0557
21.6744
24.15
26.4908
28.7044
30.7964
32.7731
34.6369
36.3943
38.0463
39.5964
41.0454
42.3959
43.648
44.8007
45.8556
46.8109
47.6658
48.4192
49.0686
49.6128
50.0482
50.3755
50.5877
50.6449
50.5642
-52.8509
-46.8769
-41.638
-36.4994
-31.5158
-26.6911
-22.0623
-17.6362
-13.4196
-9.41222
-5.61127
-2.01161
1.39576
4.61917
7.66711
10.5496
13.2749
15.8504
18.285
20.586
22.7587
24.8106
26.7443
28.5663
30.2787
31.8861
33.391
34.7962
36.1025
37.3135
38.4278
39.4465
40.3712
41.1989
41.9306
42.566
43.104
43.5432
43.8823
44.1218
44.2524
44.2084
44.0633
-49.3605
-44.1117
-39.6167
-35.0744
-30.5899
-26.1986
-21.9455
-17.8519
-13.9323
-10.1933
-6.63862
-3.26534
-0.068966
2.95625
5.81559
8.51649
11.0656
13.4692
15.7357
17.8708
19.8799
21.7697
23.5415
25.2021
26.7531
28.1993
29.5457
30.795
31.9458
33.0033
33.9673
34.8387
35.6176
36.305
36.9005
37.4062
37.8219
38.1482
38.3855
38.5344
38.5944
38.608
38.743
-46.4713
-41.6847
-37.6763
-33.5664
-29.4923
-25.4743
-21.5582
-17.7695
-14.1293
-10.6496
-7.33715
-4.19114
-1.20827
1.61603
4.28343
6.79797
9.16477
11.3933
13.4893
15.459
17.31
19.0423
20.6569
22.1626
23.5583
24.8575
26.0611
27.1671
28.1778
29.0965
29.9259
30.6651
31.316
31.8778
32.3495
32.7398
33.0468
33.2709
33.4081
33.4587
33.4078
33.2561
32.9594
-44.0438
-39.7039
-36.1096
-32.3575
-28.6249
-24.921
-21.2902
-17.7693
-14.3788
-11.1365
-8.04972
-5.11172
-2.32327
0.320267
2.81168
5.15356
7.35352
9.42502
11.3714
13.1978
14.9152
16.5093
17.9835
19.3509
20.6057
21.7776
22.8588
23.8341
24.7161
25.5127
26.2274
26.8486
27.3874
27.839
28.1973
28.4857
28.6986
28.8362
28.8907
28.8698
28.747
28.4995
28.0003
-42.6589
-38.6197
-35.1837
-31.6224
-28.103
-24.638
-21.2103
-17.9015
-14.6983
-11.6478
-8.75426
-5.98434
-3.35864
-0.846538
1.50252
3.69158
5.74212
7.68432
9.5003
11.1989
12.8167
14.2789
15.5962
16.8195
17.9215
19.0001
19.978
20.8268
21.5893
22.2826
22.9063
23.413
23.8265
24.1413
24.4098
24.6273
24.7535
24.8242
24.8081
24.7357
24.5407
24.2144
23.6723
-39.3497
-36.9729
-34.32
-31.0904
-27.7849
-24.5889
-21.2477
-18.1215
-15.0632
-12.2368
-9.56232
-6.92144
-4.44138
-2.00846
0.137215
2.12078
4.0213
5.84207
7.5184
9.12975
10.7215
11.9611
13.0981
14.2746
15.2465
16.422
17.3036
17.9691
18.6311
19.2389
19.7803
20.1
20.447
20.7666
20.9317
21.1043
21.1527
21.1569
21.0763
20.972
20.7786
20.7543
20.5085
-158.547
-161.126
-163.924
-165.225
-165.046
-163.784
-161.827
-159.469
-156.517
-152.894
-148.633
-144.053
-139.167
-134.171
-128.797
-123.423
-118.015
-112.515
-107.171
-101.778
-96.4811
-91.3406
-86.2915
-81.3787
-76.6047
-72.0095
-67.5058
-63.2122
-59.0037
-54.9582
-51.0252
-47.2234
-43.5067
-39.9119
-36.4036
-32.9991
-29.6876
-26.4604
-23.3191
-20.269
-17.3254
-14.5797
-12.0041
-146.142
-145.814
-145.263
-144.628
-144.047
-143.545
-143.113
-142.728
-142.357
-141.933
-141.414
-140.771
-140.059
-139.292
-138.367
-137.171
-135.563
-133.502
-130.974
-127.964
-124.513
-120.64
-116.433
-111.85
-107.031
-102.019
-96.8354
-91.6026
-86.3072
-81.0434
-75.8079
-70.6942
-65.6533
-60.7569
-55.9685
-51.345
-46.8557
-42.5058
-38.2986
-34.2204
-30.2586
-26.3919
-22.2261
-151.032
-151.025
-151.035
-151.062
-151.076
-151.068
-151.025
-150.922
-150.722
-150.38
-149.871
-149.185
-148.304
-147.217
-145.944
-144.495
-142.932
-141.229
-139.358
-137.216
-134.768
-132.001
-128.9
-125.442
-121.636
-117.499
-113.03
-108.324
-103.343
-98.2456
-92.9577
-87.6621
-82.3157
-77.0187
-71.7379
-66.5751
-61.4929
-56.537
-51.7203
-47.0234
-42.4709
-38.0713
-34.0509
-149.136
-149.098
-149
-148.863
-148.708
-148.546
-148.377
-148.205
-148.029
-147.842
-147.632
-147.385
-147.085
-146.72
-146.262
-145.688
-144.963
-144.051
-142.953
-141.693
-140.213
-138.458
-136.397
-134
-131.241
-128.115
-124.562
-120.706
-116.414
-111.881
-106.994
-101.922
-96.6521
-91.3139
-85.8574
-80.4388
-75.0154
-69.6626
-64.4057
-59.2481
-54.2104
-49.2575
-44.6815
-149.775
-149.769
-149.747
-149.708
-149.654
-149.586
-149.504
-149.407
-149.291
-149.154
-148.992
-148.796
-148.557
-148.264
-147.911
-147.488
-146.978
-146.368
-145.631
-144.744
-143.701
-142.484
-141.057
-139.382
-137.422
-135.15
-132.494
-129.516
-126.114
-122.338
-118.176
-113.678
-108.828
-103.777
-98.4701
-93.0622
-87.5323
-81.9967
-76.4459
-70.9655
-65.5587
-60.1841
-55.9658
-149.6
-149.59
-149.557
-149.504
-149.437
-149.358
-149.27
-149.171
-149.064
-148.946
-148.817
-148.675
-148.514
-148.33
-148.113
-147.857
-147.548
-147.175
-146.725
-146.172
-145.499
-144.689
-143.705
-142.549
-141.169
-139.538
-137.59
-135.367
-132.744
-129.761
-126.382
-122.627
-118.434
-113.924
-109.065
-103.945
-98.5903
-93.1181
-87.5186
-81.8845
-76.2794
-70.5956
-66.1604
-149.821
-149.815
-149.794
-149.758
-149.709
-149.651
-149.584
-149.508
-149.423
-149.327
-149.221
-149.103
-148.97
-148.82
-148.647
-148.448
-148.214
-147.939
-147.612
-147.219
-146.744
-146.173
-145.477
-144.641
-143.643
-142.451
-141.021
-139.343
-137.347
-135.031
-132.343
-129.281
-125.801
-121.938
-117.658
-113.042
-108.074
-102.872
-97.4422
-91.8389
-86.2075
-80.3856
-76.2284
-149.959
-149.952
-149.929
-149.894
-149.847
-149.792
-149.73
-149.66
-149.583
-149.498
-149.405
-149.305
-149.194
-149.072
-148.934
-148.78
-148.603
-148.398
-148.158
-147.874
-147.533
-147.123
-146.626
-146.021
-145.292
-144.413
-143.353
-142.088
-140.573
-138.784
-136.681
-134.216
-131.384
-128.149
-124.507
-120.464
-116.013
-111.242
-106.124
-100.769
-95.2366
-89.3995
-85.1786
-150.169
-150.163
-150.143
-150.112
-150.072
-150.024
-149.969
-149.907
-149.839
-149.764
-149.683
-149.594
-149.497
-149.391
-149.273
-149.143
-148.996
-148.829
-148.638
-148.416
-148.153
-147.841
-147.466
-147.016
-146.466
-145.805
-144.999
-144.04
-142.873
-141.486
-139.835
-137.878
-135.586
-132.928
-129.882
-126.419
-122.529
-118.271
-113.589
-108.598
-103.325
-97.6145
-93.6009
-150.384
-150.378
-150.358
-150.329
-150.291
-150.246
-150.195
-150.138
-150.075
-150.007
-149.932
-149.852
-149.765
-149.672
-149.569
-149.456
-149.33
-149.19
-149.033
-148.853
-148.644
-148.399
-148.106
-147.758
-147.334
-146.827
-146.208
-145.463
-144.558
-143.473
-142.176
-140.615
-138.76
-136.606
-134.062
-131.153
-127.811
-124.076
-119.911
-115.365
-110.482
-105.085
-101.826
-150.621
-150.615
-150.596
-150.568
-150.532
-150.49
-150.443
-150.39
-150.331
-150.268
-150.2
-150.126
-150.047
-149.961
-149.869
-149.768
-149.657
-149.534
-149.398
-149.244
-149.071
-148.869
-148.633
-148.354
-148.018
-147.617
-147.131
-146.543
-145.827
-144.969
-143.936
-142.685
-141.193
-139.426
-137.335
-134.887
-132.07
-128.838
-125.197
-121.114
-116.68
-111.657
-109.403
-150.865
-150.859
-150.84
-150.813
-150.779
-150.739
-150.694
-150.643
-150.589
-150.529
-150.465
-150.396
-150.322
-150.243
-150.158
-150.066
-149.966
-149.856
-149.736
-149.601
-149.451
-149.28
-149.083
-148.853
-148.58
-148.254
-147.863
-147.391
-146.818
-146.128
-145.294
-144.286
-143.075
-141.626
-139.908
-137.861
-135.485
-132.703
-129.542
-125.927
-121.932
-117.227
-114.804
-151.118
-151.112
-151.093
-151.066
-151.033
-150.995
-150.951
-150.904
-150.851
-150.795
-150.734
-150.669
-150.6
-150.526
-150.446
-150.361
-150.268
-150.168
-150.058
-149.938
-149.805
-149.656
-149.486
-149.291
-149.062
-148.791
-148.47
-148.082
-147.615
-147.05
-146.372
-145.547
-144.556
-143.362
-141.938
-140.233
-138.227
-135.868
-133.142
-129.993
-126.481
-122.282
-120.594
-151.375
-151.368
-151.35
-151.323
-151.292
-151.254
-151.212
-151.166
-151.116
-151.062
-151.004
-150.941
-150.875
-150.805
-150.73
-150.65
-150.564
-150.471
-150.369
-150.259
-150.138
-150.005
-149.855
-149.685
-149.488
-149.258
-148.987
-148.663
-148.277
-147.81
-147.248
-146.568
-145.748
-144.76
-143.57
-142.148
-140.459
-138.468
-136.124
-133.389
-130.304
-126.581
-124.748
-151.637
-151.63
-151.611
-151.585
-151.553
-151.517
-151.476
-151.431
-151.382
-151.33
-151.274
-151.214
-151.15
-151.083
-151.011
-150.935
-150.854
-150.766
-150.671
-150.569
-150.457
-150.336
-150.201
-150.05
-149.878
-149.679
-149.446
-149.171
-148.843
-148.451
-147.979
-147.411
-146.725
-145.899
-144.904
-143.707
-142.277
-140.576
-138.56
-136.199
-133.482
-130.176
-128.674
-151.897
-151.89
-151.871
-151.845
-151.814
-151.778
-151.738
-151.694
-151.647
-151.596
-151.542
-151.484
-151.423
-151.358
-151.289
-151.217
-151.139
-151.056
-150.967
-150.871
-150.767
-150.654
-150.53
-150.394
-150.24
-150.064
-149.86
-149.622
-149.342
-149.007
-148.608
-148.127
-147.548
-146.849
-146.012
-144.996
-143.79
-142.339
-140.63
-138.596
-136.242
-133.393
-133.056
-152.155
-152.148
-152.13
-152.104
-152.074
-152.039
-152
-151.957
-151.911
-151.861
-151.809
-151.753
-151.693
-151.631
-151.565
-151.495
-151.42
-151.341
-151.256
-151.165
-151.067
-150.962
-150.847
-150.722
-150.581
-150.424
-150.244
-150.035
-149.79
-149.502
-149.158
-148.747
-148.254
-147.659
-146.947
-146.085
-145.054
-143.818
-142.346
-140.568
-138.513
-135.966
-135.503
-152.416
-152.409
-152.389
-152.363
-152.333
-152.299
-152.26
-152.218
-152.173
-152.124
-152.073
-152.018
-151.96
-151.9
-151.836
-151.768
-151.697
-151.621
-151.54
-151.453
-151.361
-151.261
-151.154
-151.037
-150.909
-150.766
-150.604
-150.418
-150.202
-149.949
-149.651
-149.296
-148.871
-148.362
-147.749
-147.015
-146.127
-145.065
-143.797
-142.273
-140.48
-138.231
-137.618
-152.671
-152.664
-152.644
-152.618
-152.588
-152.554
-152.516
-152.475
-152.431
-152.383
-152.333
-152.28
-152.224
-152.165
-152.103
-152.037
-151.968
-151.895
-151.818
-151.735
-151.647
-151.553
-151.451
-151.342
-151.224
-151.092
-150.945
-150.779
-150.587
-150.364
-150.103
-149.793
-149.424
-148.983
-148.455
-147.822
-147.057
-146.144
-145.046
-143.734
-142.196
-140.306
-139.966
-152.919
-152.913
-152.893
-152.868
-152.838
-152.805
-152.768
-152.727
-152.684
-152.637
-152.588
-152.536
-152.481
-152.424
-152.364
-152.301
-152.234
-152.164
-152.09
-152.011
-151.927
-151.837
-151.741
-151.638
-151.527
-151.406
-151.271
-151.12
-150.948
-150.749
-150.518
-150.245
-149.924
-149.54
-149.082
-148.532
-147.875
-147.092
-146.144
-144.997
-143.63
-141.964
-141.572
-153.167
-153.16
-153.14
-153.114
-153.085
-153.051
-153.014
-152.974
-152.932
-152.886
-152.838
-152.787
-152.734
-152.678
-152.62
-152.558
-152.494
-152.427
-152.355
-152.279
-152.199
-152.114
-152.023
-151.926
-151.822
-151.709
-151.585
-151.447
-151.29
-151.112
-150.906
-150.666
-150.382
-150.045
-149.645
-149.162
-148.584
-147.891
-147.061
-146.059
-144.848
-143.34
-142.871
-153.405
-153.398
-153.378
-153.352
-153.323
-153.29
-153.254
-153.215
-153.173
-153.128
-153.081
-153.031
-152.979
-152.925
-152.868
-152.809
-152.746
-152.681
-152.613
-152.54
-152.463
-152.382
-152.295
-152.203
-152.105
-151.999
-151.885
-151.758
-151.616
-151.455
-151.27
-151.056
-150.804
-150.507
-150.155
-149.733
-149.233
-148.627
-147.892
-147.008
-145.936
-144.605
-144.163
-153.635
-153.628
-153.608
-153.583
-153.554
-153.522
-153.486
-153.447
-153.406
-153.362
-153.316
-153.268
-153.217
-153.164
-153.109
-153.051
-152.991
-152.928
-152.862
-152.792
-152.719
-152.641
-152.558
-152.471
-152.378
-152.28
-152.172
-152.055
-151.925
-151.778
-151.611
-151.419
-151.195
-150.931
-150.619
-150.246
-149.798
-149.268
-148.625
-147.837
-146.884
-145.703
-145.229
-153.862
-153.854
-153.834
-153.808
-153.779
-153.747
-153.711
-153.673
-153.632
-153.589
-153.543
-153.496
-153.446
-153.394
-153.34
-153.284
-153.226
-153.165
-153.101
-153.034
-152.963
-152.889
-152.81
-152.728
-152.64
-152.547
-152.446
-152.337
-152.217
-152.083
-151.932
-151.758
-151.556
-151.321
-151.043
-150.712
-150.319
-149.843
-149.273
-148.591
-147.748
-146.707
-146.181
-154.075
-154.068
-154.047
-154.022
-153.993
-153.961
-153.926
-153.888
-153.848
-153.805
-153.76
-153.714
-153.665
-153.614
-153.562
-153.507
-153.45
-153.391
-153.33
-153.265
-153.198
-153.126
-153.051
-152.972
-152.888
-152.8
-152.706
-152.604
-152.493
-152.369
-152.231
-152.072
-151.891
-151.678
-151.427
-151.13
-150.772
-150.352
-149.843
-149.222
-148.478
-147.572
-146.763
-154.278
-154.271
-154.251
-154.225
-154.197
-154.166
-154.131
-154.093
-154.054
-154.012
-153.968
-153.922
-153.874
-153.824
-153.773
-153.719
-153.664
-153.607
-153.547
-153.484
-153.419
-153.35
-153.278
-153.203
-153.123
-153.039
-152.95
-152.855
-152.751
-152.636
-152.508
-152.363
-152.196
-152.003
-151.776
-151.508
-151.19
-150.803
-150.338
-149.787
-149.119
-148.337
-148.215
-154.472
-154.465
-154.444
-154.419
-154.391
-154.36
-154.325
-154.288
-154.249
-154.207
-154.164
-154.118
-154.071
-154.023
-153.972
-153.92
-153.866
-153.81
-153.752
-153.691
-153.628
-153.562
-153.493
-153.42
-153.343
-153.263
-153.178
-153.088
-152.989
-152.882
-152.763
-152.628
-152.474
-152.296
-152.088
-151.84
-151.543
-151.193
-150.771
-150.246
-149.619
-148.901
-148
-154.656
-154.648
-154.628
-154.602
-154.574
-154.543
-154.509
-154.472
-154.433
-154.392
-154.349
-154.304
-154.257
-154.209
-154.16
-154.108
-154.055
-154
-153.943
-153.884
-153.823
-153.759
-153.692
-153.622
-153.548
-153.471
-153.389
-153.303
-153.21
-153.108
-152.996
-152.869
-152.725
-152.559
-152.364
-152.134
-151.86
-151.521
-151.108
-150.606
-149.976
-149.182
-147.859
-154.827
-154.819
-154.799
-154.774
-154.746
-154.715
-154.68
-154.644
-154.605
-154.564
-154.521
-154.477
-154.431
-154.383
-154.334
-154.284
-154.232
-154.178
-154.122
-154.064
-154.005
-153.942
-153.877
-153.809
-153.737
-153.663
-153.584
-153.501
-153.411
-153.314
-153.207
-153.088
-152.952
-152.795
-152.612
-152.395
-152.138
-151.826
-151.444
-150.963
-150.363
-149.605
-148.38
-154.989
-154.981
-154.96
-154.934
-154.906
-154.875
-154.841
-154.804
-154.765
-154.725
-154.682
-154.638
-154.593
-154.545
-154.497
-154.447
-154.395
-154.342
-154.287
-154.23
-154.172
-154.11
-154.047
-153.98
-153.911
-153.838
-153.762
-153.681
-153.594
-153.5
-153.398
-153.283
-153.153
-153.005
-152.831
-152.625
-152.379
-152.081
-151.725
-151.289
-150.754
-150.122
-149.268
-155.133
-155.125
-155.105
-155.08
-155.052
-155.021
-154.987
-154.951
-154.913
-154.872
-154.83
-154.787
-154.741
-154.694
-154.646
-154.597
-154.546
-154.493
-154.439
-154.383
-154.325
-154.265
-154.202
-154.137
-154.069
-153.997
-153.923
-153.844
-153.76
-153.669
-153.57
-153.459
-153.335
-153.193
-153.028
-152.834
-152.607
-152.332
-151.994
-151.589
-151.099
-150.49
-149.613
-155.27
-155.262
-155.242
-155.217
-155.189
-155.158
-155.124
-155.087
-155.049
-155.009
-154.967
-154.923
-154.878
-154.831
-154.783
-154.734
-154.683
-154.631
-154.577
-154.522
-154.464
-154.405
-154.343
-154.279
-154.212
-154.142
-154.068
-153.991
-153.908
-153.82
-153.723
-153.617
-153.497
-153.36
-153.203
-153.019
-152.799
-152.535
-152.229
-151.857
-151.403
-150.854
-150.045
-155.393
-155.386
-155.365
-155.34
-155.312
-155.281
-155.247
-155.211
-155.173
-155.132
-155.09
-155.047
-155.002
-154.955
-154.907
-154.858
-154.808
-154.756
-154.702
-154.647
-154.59
-154.531
-154.471
-154.407
-154.34
-154.271
-154.199
-154.122
-154.042
-153.955
-153.861
-153.757
-153.641
-153.51
-153.358
-153.181
-152.976
-152.735
-152.44
-152.085
-151.67
-151.175
-150.372
-155.505
-155.498
-155.477
-155.452
-155.424
-155.393
-155.359
-155.323
-155.284
-155.244
-155.202
-155.159
-155.114
-155.067
-155.019
-154.97
-154.92
-154.868
-154.815
-154.76
-154.703
-154.644
-154.584
-154.52
-154.455
-154.387
-154.315
-154.239
-154.16
-154.074
-153.982
-153.881
-153.768
-153.642
-153.497
-153.331
-153.136
-152.903
-152.632
-152.313
-151.927
-151.473
-150.771
-155.606
-155.598
-155.578
-155.552
-155.524
-155.493
-155.459
-155.423
-155.384
-155.344
-155.302
-155.259
-155.213
-155.167
-155.119
-155.07
-155.02
-154.968
-154.914
-154.86
-154.803
-154.745
-154.685
-154.622
-154.557
-154.489
-154.418
-154.343
-154.264
-154.18
-154.089
-153.99
-153.88
-153.757
-153.618
-153.457
-153.269
-153.051
-152.792
-152.482
-152.122
-151.677
-150.973
-155.694
-155.686
-155.666
-155.641
-155.613
-155.582
-155.548
-155.511
-155.473
-155.433
-155.391
-155.347
-155.302
-155.255
-155.207
-155.158
-155.108
-155.056
-155.002
-154.947
-154.891
-154.833
-154.772
-154.71
-154.645
-154.577
-154.507
-154.433
-154.355
-154.271
-154.182
-154.085
-153.978
-153.859
-153.724
-153.571
-153.394
-153.182
-152.937
-152.65
-152.295
-151.847
-151.159
-155.772
-155.764
-155.744
-155.719
-155.691
-155.659
-155.625
-155.589
-155.55
-155.51
-155.468
-155.424
-155.379
-155.332
-155.284
-155.235
-155.184
-155.132
-155.079
-155.024
-154.967
-154.909
-154.849
-154.787
-154.722
-154.655
-154.584
-154.51
-154.433
-154.351
-154.263
-154.168
-154.063
-153.947
-153.816
-153.665
-153.495
-153.3
-153.065
-152.79
-152.476
-152.085
-151.473
-155.84
-155.832
-155.811
-155.786
-155.758
-155.726
-155.692
-155.656
-155.617
-155.576
-155.534
-155.49
-155.445
-155.398
-155.35
-155.3
-155.249
-155.197
-155.144
-155.089
-155.032
-154.974
-154.914
-154.851
-154.787
-154.72
-154.65
-154.577
-154.5
-154.418
-154.331
-154.237
-154.135
-154.021
-153.894
-153.751
-153.585
-153.394
-153.174
-152.912
-152.6
-152.233
-151.436
-155.896
-155.888
-155.868
-155.842
-155.814
-155.783
-155.748
-155.712
-155.673
-155.632
-155.59
-155.546
-155.5
-155.453
-155.404
-155.355
-155.304
-155.251
-155.198
-155.143
-155.086
-155.028
-154.968
-154.906
-154.841
-154.774
-154.704
-154.631
-154.554
-154.474
-154.388
-154.295
-154.194
-154.084
-153.961
-153.823
-153.665
-153.481
-153.27
-153.026
-152.743
-152.414
-151.736
-155.943
-155.935
-155.914
-155.888
-155.86
-155.829
-155.794
-155.757
-155.718
-155.677
-155.635
-155.591
-155.545
-155.498
-155.449
-155.399
-155.348
-155.296
-155.242
-155.186
-155.129
-155.071
-155.011
-154.948
-154.884
-154.817
-154.748
-154.675
-154.599
-154.519
-154.434
-154.343
-154.244
-154.136
-154.016
-153.883
-153.732
-153.558
-153.355
-153.125
-152.86
-152.553
-152.114
-155.976
-155.968
-155.948
-155.923
-155.895
-155.864
-155.829
-155.793
-155.754
-155.713
-155.67
-155.626
-155.58
-155.532
-155.484
-155.434
-155.382
-155.329
-155.275
-155.22
-155.163
-155.104
-155.044
-154.982
-154.917
-154.85
-154.781
-154.708
-154.633
-154.553
-154.468
-154.379
-154.282
-154.176
-154.058
-153.926
-153.778
-153.616
-153.431
-153.211
-152.956
-152.661
-152.239
-156.005
-155.997
-155.976
-155.951
-155.922
-155.891
-155.856
-155.819
-155.78
-155.739
-155.696
-155.651
-155.605
-155.558
-155.509
-155.458
-155.407
-155.354
-155.299
-155.243
-155.186
-155.128
-155.067
-155.005
-154.94
-154.873
-154.804
-154.732
-154.656
-154.577
-154.494
-154.405
-154.309
-154.205
-154.091
-153.966
-153.825
-153.66
-153.473
-153.266
-153.024
-152.713
-151.938
-156.023
-156.014
-155.993
-155.968
-155.94
-155.908
-155.873
-155.836
-155.797
-155.756
-155.713
-155.668
-155.622
-155.574
-155.524
-155.474
-155.422
-155.369
-155.314
-155.258
-155.201
-155.141
-155.08
-155.018
-154.954
-154.887
-154.817
-154.745
-154.67
-154.591
-154.508
-154.42