/*--------------------------------*- C++ -*----------------------------------*\
| =========                 |                                                 |
| \\      /  F ield         | OpenFOAM: The Open Source CFD Toolbox           |
|  \\    /   O peration     | Version:  2.3.0                                 |
|   \\  /    A nd           | Web:      www.OpenFOAM.org                      |
|    \\/     M anipulation  |                                                 |
\*---------------------------------------------------------------------------*/
FoamFile
{
    version     2.0;
    format      ascii;
    class       volVectorField;
    location    "10000";
    object      U;
}
// * * * * * * * * * * * * * * * * * * * * * * * * * * * * * * * * * * * * * //

dimensions      [0 1 -1 0 0 0 0];

internalField   nonuniform List<vector> 
124031
(
(17.5857 21.6158 -7.99899e-22)
(17.3291 21.859 1.48892e-21)
(17.0614 22.0928 2.23665e-21)
(16.7859 22.3206 -7.27902e-22)
(16.5023 22.5422 6.40968e-21)
(16.2095 22.757 1.44067e-20)
(15.9072 22.9637 -1.08837e-20)
(15.5945 23.1611 1.66113e-21)
(15.2711 23.3476 -2.97711e-20)
(14.9363 23.5212 3.06405e-20)
(14.5895 23.6802 5.00284e-20)
(14.2302 23.8222 -4.56538e-20)
(13.8577 23.945 5.63248e-20)
(13.4713 24.0462 -5.49597e-20)
(13.0706 24.1234 2.53724e-21)
(12.6551 24.174 0)
(12.2245 24.1949 0)
(11.7785 24.1831 3.29724e-21)
(11.3166 24.1369 1.07367e-20)
(10.8385 24.053 1.13961e-19)
(10.3437 23.9299 1.05175e-20)
(9.83169 23.7644 6.35348e-21)
(9.3019 23.5562 -1.30042e-19)
(8.75348 23.3028 -1.51162e-19)
(8.18557 23.0065 3.2788e-19)
(7.59641 22.6677 -1.78286e-19)
(6.9835 22.2852 1.93889e-19)
(6.34488 21.8713 -4.1459e-19)
(5.67541 21.4243 2.22116e-19)
(4.96955 20.9529 2.48711e-19)
(4.22069 20.4699 -2.69471e-19)
(3.41783 19.9751 2.29774e-21)
(2.54974 19.4892 3.96384e-21)
(1.6006 19.023 0)
(0.552633 18.5941 2.29586e-21)
(-0.615816 18.2075 1.93089e-19)
(-1.92646 17.8884 -2.06555e-19)
(-3.41371 17.6491 9.92104e-20)
(-5.10936 17.4803 -1.03624e-19)
(-7.05686 17.3499 0)
(-9.27291 17.4262 -4.57883e-21)
(-11.7439 17.9974 0)
(-14.3033 18.427 1.47729e-20)
(17.3337 21.492 -4.78798e-21)
(17.0912 21.7097 -2.48749e-21)
(16.8452 21.9246 -2.54383e-21)
(16.5928 22.1362 1.96317e-21)
(16.3333 22.3453 -2.60154e-21)
(16.0664 22.552 1.0528e-21)
(15.7917 22.7557 3.01335e-21)
(15.5089 22.9565 -5.39865e-22)
(15.2177 23.1538 -1.0079e-21)
(14.9176 23.3471 -1.22824e-21)
(14.6081 23.5359 -1.43805e-21)
(14.2887 23.7197 0)
(13.9585 23.8978 -1.10259e-20)
(13.6167 24.0695 8.89841e-21)
(13.2623 24.2344 2.35687e-21)
(12.8946 24.3921 1.67618e-20)
(12.5124 24.5422 -1.69557e-20)
(12.1151 24.684 -3.44908e-21)
(11.7013 24.8174 -3.44924e-21)
(11.2702 24.9423 2.33406e-20)
(10.8203 25.0585 -2.53845e-20)
(10.3505 25.1661 2.87623e-20)
(9.85928 25.265 -6.20558e-20)
(9.34533 25.355 3.12945e-20)
(8.80699 25.4368 3.22845e-20)
(8.24204 25.5097 -3.36213e-20)
(7.64886 25.5743 3.22145e-20)
(7.02512 25.6317 -3.3418e-20)
(6.36833 25.6816 0)
(5.67542 25.722 3.66977e-22)
(4.94287 25.7513 0)
(4.16737 25.7668 -8.1929e-22)
(3.34528 25.7639 1.84741e-21)
(2.47361 25.7367 0)
(1.54909 25.6763 -3.09885e-20)
(0.570535 25.5655 3.03732e-20)
(-0.461559 25.3937 0)
(-1.54135 25.1313 0)
(-2.65377 24.7515 -3.81855e-20)
(-3.75653 24.2065 2.8833e-20)
(-4.77873 23.4734 0)
(-5.64613 22.539 0)
(-6.32024 21.3657 0)
(17.1102 21.3585 -8.34455e-22)
(16.8799 21.5457 8.83124e-22)
(16.646 21.7348 6.91529e-21)
(16.406 21.9227 -9.00225e-21)
(16.1594 22.1097 0)
(15.9057 22.2956 -8.34092e-21)
(15.6446 22.4797 8.77055e-21)
(15.3756 22.6626 -7.74647e-21)
(15.0983 22.8436 1.76398e-20)
(14.8123 23.0228 -1.42752e-20)
(14.5176 23.2002 7.67016e-21)
(14.2136 23.3755 -4.95326e-21)
(13.8996 23.5481 6.68656e-21)
(13.5748 23.7179 0)
(13.2386 23.8844 -1.03449e-20)
(12.8899 24.0474 1.06112e-20)
(12.5278 24.2064 -2.12253e-22)
(12.1513 24.3611 2.84571e-22)
(11.7592 24.511 0)
(11.3509 24.656 -2.03949e-22)
(10.9249 24.7954 -8.9811e-21)
(10.48 24.9284 9.89727e-21)
(10.0147 25.0547 1.17478e-20)
(9.52742 25.1729 -1.35036e-20)
(9.01626 25.2819 8.59195e-21)
(8.47941 25.3801 -8.63874e-21)
(7.91499 25.466 0)
(7.32095 25.5375 0)
(6.69524 25.592 0)
(6.03647 25.6263 -3.49124e-22)
(5.34265 25.6363 0)
(4.61349 25.6167 -9.81806e-22)
(3.84868 25.5612 0)
(3.05007 25.4622 0)
(2.22102 25.3101 0)
(1.36824 25.0935 -4.58778e-20)
(0.501727 24.7996 1.0348e-19)
(-0.363197 24.4149 -5.76812e-20)
(-1.20708 23.9253 -3.72123e-20)
(-2.0002 23.3229 4.68941e-20)
(-2.70802 22.605 -1.41947e-20)
(-3.29767 21.7775 2.23804e-20)
(-3.7481 20.8662 0)
(16.9229 21.2121 -5.60462e-21)
(16.7035 21.3776 5.5063e-21)
(16.4824 21.5452 0)
(16.2567 21.7118 1.12704e-21)
(16.0253 21.878 0)
(15.7879 22.0435 -1.34655e-20)
(15.5437 22.208 -8.7124e-21)
(15.2925 22.3715 1.33618e-20)
(15.0336 22.5337 1.73309e-20)
(14.7667 22.6946 -1.89841e-20)
(14.4916 22.8543 -1.98543e-20)
(14.208 23.0127 1.30652e-20)
(13.9155 23.1695 -2.71626e-21)
(13.6134 23.3243 1.75783e-20)
(13.3011 23.4765 -3.28533e-20)
(12.9776 23.6259 2.10311e-20)
(12.6419 23.7718 0)
(12.2928 23.9138 -3.11348e-21)
(11.9294 24.0512 0)
(11.5505 24.1838 1.71758e-21)
(11.1556 24.311 -8.85004e-22)
(10.7436 24.432 2.71637e-20)
(10.3137 24.546 -2.58547e-20)
(9.86455 24.6515 -2.87693e-20)
(9.39539 24.7468 6.3731e-20)
(8.90477 24.83 -3.39768e-20)
(8.39157 24.8985 2.98436e-21)
(7.85468 24.95 3.31386e-21)
(7.29285 24.9808 0)
(6.70568 24.9874 0)
(6.09256 24.9651 0)
(5.45422 24.9091 5.30339e-21)
(4.79167 24.8137 -4.51691e-20)
(4.10767 24.672 3.97961e-20)
(3.4064 24.4775 5.99599e-20)
(2.6943 24.2222 -6.17226e-20)
(1.98057 23.899 0)
(1.2766 23.5013 0)
(0.597129 23.0246 2.56338e-20)
(-0.0395733 22.4689 -2.58337e-20)
(-0.614718 21.8401 -1.45499e-20)
(-1.11038 21.1503 2.73455e-20)
(-1.51425 20.4188 -9.24947e-20)
(16.7552 21.0666 4.07129e-21)
(16.5511 21.212 -7.31472e-21)
(16.3431 21.3607 -3.39275e-21)
(16.1306 21.508 -3.38671e-21)
(15.9128 21.6551 6.10173e-21)
(15.6894 21.8018 2.65909e-21)
(15.4599 21.9477 8.71411e-21)
(15.2237 22.0927 -1.29261e-20)
(14.9804 22.2366 -3.44394e-21)
(14.7291 22.3792 0)
(14.4695 22.5206 6.1457e-21)
(14.2016 22.6608 2.64527e-21)
(13.9253 22.8001 -9.54915e-22)
(13.6402 22.9377 0)
(13.3456 23.0731 2.38971e-20)
(13.0411 23.206 -2.9837e-20)
(12.7258 23.3356 0)
(12.3982 23.461 -3.08993e-20)
(12.0573 23.5815 3.02398e-20)
(11.7017 23.6966 -1.68597e-21)
(11.3306 23.8056 0)
(10.9435 23.9081 -4.52697e-21)
(10.5392 24.0031 2.80062e-21)
(10.1173 24.0891 4.31419e-20)
(9.6774 24.1651 -4.43343e-20)
(9.21856 24.2289 0)
(8.74031 24.2778 -5.51979e-20)
(8.24172 24.3096 -7.2651e-21)
(7.72186 24.3204 -1.06347e-22)
(7.18088 24.3068 7.08983e-20)
(6.61861 24.265 -5.66559e-21)
(6.03592 24.1901 -5.13782e-21)
(5.4341 24.0778 -6.08539e-20)
(4.81596 23.9223 1.14989e-19)
(4.1864 23.7192 -7.1228e-20)
(3.55138 23.464 0)
(2.91995 23.152 -4.31225e-20)
(2.30183 22.7797 5.62211e-20)
(1.70877 22.3448 -2.68434e-20)
(1.15361 21.8492 1.14275e-20)
(0.649548 21.2977 3.09865e-20)
(0.208837 20.6997 5.24597e-20)
(-0.160493 20.0679 2.22734e-20)
(16.6114 20.9253 3.7222e-21)
(16.4207 21.0532 1.53529e-21)
(16.2256 21.186 5.19805e-21)
(16.0261 21.3168 3.97424e-21)
(15.8215 21.4472 0)
(15.6117 21.5775 1.08109e-20)
(15.3962 21.7073 -1.54791e-20)
(15.1746 21.8366 2.24605e-20)
(14.9464 21.9648 -1.16057e-20)
(14.7105 22.0918 0)
(14.4666 22.2175 -3.47503e-21)
(14.2141 22.3418 -4.29949e-21)
(13.9531 22.4652 3.58701e-21)
(13.6836 22.5874 3.75594e-20)
(13.4052 22.7079 -2.87795e-20)
(13.1176 22.8262 -3.99368e-20)
(12.8206 22.942 3.56212e-20)
(12.5135 23.054 4.22369e-20)
(12.1942 23.1606 -3.87304e-20)
(11.8613 23.2615 -5.6508e-21)
(11.5136 23.3561 0)
(11.1507 23.4434 4.66522e-20)
(10.7713 23.5229 -1.04954e-19)
(10.3748 23.5933 -2.37917e-21)
(9.96118 23.6538 1.17845e-19)
(9.53057 23.7031 -6.41972e-20)
(9.08315 23.7386 -3.77037e-21)
(8.6184 23.7571 0)
(8.13555 23.7558 -4.56717e-20)
(7.63482 23.7321 9.35828e-20)
(7.11714 23.6817 -4.76035e-20)
(6.58319 23.6 0)
(6.03368 23.483 6.85161e-21)
(5.47035 23.3255 6.70585e-20)
(4.89637 23.1232 -2.37174e-20)
(4.31682 22.8742 -3.87778e-20)
(3.74097 22.5769 5.78112e-20)
(3.17863 22.2284 -8.45871e-20)
(2.63953 21.827 -2.00366e-21)
(2.13299 21.3747 3.50595e-20)
(1.66943 20.876 4.06579e-22)
(1.25822 20.3377 1.03584e-20)
(0.906065 19.7693 -5.41755e-20)
(16.4855 20.7924 -4.49914e-21)
(16.3083 20.9046 0)
(16.1256 21.0233 4.19414e-21)
(15.9389 21.1398 -8.13625e-21)
(15.7466 21.2557 -8.49116e-21)
(15.5492 21.3716 1.69869e-20)
(15.3464 21.4874 4.00209e-21)
(15.1373 21.6033 -8.63189e-21)
(14.923 21.7183 -1.2925e-20)
(14.7007 21.8322 2.23412e-20)
(14.4714 21.9451 0)
(14.2328 22.0559 -1.42325e-20)
(13.9851 22.1658 -2.92213e-22)
(13.7294 22.2748 1.45944e-20)
(13.4649 22.382 -4.56977e-21)
(13.1907 22.4873 4.71734e-21)
(12.9071 22.591 5.6319e-21)
(12.6154 22.692 5.85222e-21)
(12.3142 22.7882 4.66596e-20)
(12.0006 22.8781 -4.19447e-20)
(11.6719 22.9616 0)
(11.3299 23.0377 3.12579e-21)
(10.9717 23.1051 3.25143e-20)
(10.5967 23.1633 -2.99475e-20)
(10.2046 23.211 -3.80961e-21)
(9.79535 23.2482 -5.50772e-22)
(9.37044 23.2732 -5.00072e-21)
(8.93141 23.2822 0)
(8.47564 23.2718 3.99258e-20)
(8.00316 23.2412 -2.96426e-21)
(7.51671 23.1868 -4.52358e-20)
(7.01777 23.1041 -5.24236e-20)
(6.50774 22.9889 1.19389e-19)
(5.98719 22.8361 -3.22437e-20)
(5.45794 22.6392 2.59923e-21)
(4.91878 22.3968 -4.09269e-20)
(4.38057 22.1134 -1.12241e-20)
(3.85612 21.786 0)
(3.35438 21.4111 0)
(2.88051 20.9908 0)
(2.44451 20.5302 0)
(2.05397 20.0342 1.738e-20)
(1.71504 19.5099 3.64919e-20)
(16.3735 20.6667 4.4246e-21)
(16.2112 20.7666 2.30598e-21)
(16.04 20.8732 -2.31217e-21)
(15.8659 20.9779 0)
(15.6852 21.0812 0)
(15.4992 21.1845 5.00697e-21)
(15.3089 21.2876 -9.48301e-21)
(15.1095 21.3915 4.5613e-21)
(14.9079 21.4961 -2.42614e-20)
(14.6969 21.5987 2.01269e-20)
(14.4811 21.7019 2.02833e-20)
(14.2563 21.8018 -2.03916e-20)
(14.02 21.9004 -2.11737e-20)
(13.7761 21.999 2.13222e-20)
(13.5245 22.0955 0)
(13.2633 22.189 0)
(12.9906 22.2808 -2.9421e-20)
(12.7094 22.372 1.84077e-20)
(12.4216 22.4605 0)
(12.1262 22.5426 -6.87904e-21)
(11.8109 22.6166 0)
(11.4862 22.6856 2.29314e-20)
(11.1456 22.7449 -3.91185e-20)
(10.7888 22.7954 -8.45381e-21)
(10.4153 22.8341 3.68074e-20)
(10.0244 22.8604 -3.32232e-20)
(9.61497 22.876 4.91806e-21)
(9.19749 22.8791 -5.11803e-20)
(8.76549 22.8615 5.26784e-20)
(8.31412 22.8234 0)
(7.84981 22.7647 0)
(7.37507 22.6812 -7.39477e-21)
(6.89224 22.569 8.08173e-21)
(6.40122 22.4255 4.65451e-20)
(5.91358 22.2414 -7.99232e-20)
(5.40714 22.0056 3.13885e-20)
(4.89393 21.7324 1.25562e-20)
(4.3972 21.4237 -3.77504e-20)
(3.92634 21.07 1.39155e-20)
(3.47793 20.6734 -1.50035e-20)
(3.06256 20.2405 1.6062e-20)
(2.68814 19.7751 2.0974e-22)
(2.35937 19.2829 1.0304e-21)
(16.2574 20.5414 -4.87126e-21)
(16.1196 20.6392 0)
(15.964 20.7354 0)
(15.8063 20.8311 5.16588e-21)
(15.6395 20.9242 -1.05403e-20)
(15.4622 21.0179 0)
(15.2847 21.1082 1.06189e-20)
(15.0912 21.199 -2.7135e-20)
(14.9053 21.2974 5.05073e-21)
(14.7049 21.3887 -5.21127e-21)
(14.5008 21.4857 1.60961e-20)
(14.2922 21.5784 -4.38593e-20)
(14.0694 21.6665 2.2381e-20)
(13.837 21.7573 -6.10767e-21)
(13.5938 21.847 0)
(13.3465 21.9331 -6.47258e-21)
(13.0895 22.0132 0)
(12.8262 22.0937 0)
(12.5468 22.1734 1.97945e-20)
(12.2782 22.2554 7.36315e-21)
(11.9821 22.3181 -6.59462e-20)
(11.6805 22.3826 3.74277e-20)
(11.363 22.4354 4.0396e-20)
(11.0312 22.4829 -6.81044e-20)
(10.6746 22.5213 -1.13168e-20)
(10.3023 22.5424 3.76581e-20)
(9.89936 22.5453 -4.30514e-20)
(9.49797 22.5457 9.58568e-20)
(9.0942 22.5237 -4.73421e-20)
(8.66263 22.4782 0)
(8.21938 22.4146 0)
(7.76951 22.3274 3.12373e-20)
(7.32427 22.2102 -8.43889e-20)
(6.84945 22.071 3.41915e-20)
(6.41513 21.9138 -2.07739e-20)
(5.93359 21.689 1.04754e-20)
(5.41442 21.4258 1.14877e-20)
(4.92162 21.1344 -1.34175e-20)
(4.46827 20.7973 -1.34029e-20)
(4.01638 20.4169 -2.31232e-20)
(3.60509 20.0015 -4.52239e-20)
(3.24711 19.5541 -1.30705e-20)
(2.92368 19.0862 -1.85974e-20)
(-16.035 16.831 -9.91228e-21)
(-14.6106 15.5638 0)
(-13.2319 14.3716 9.17787e-21)
(-11.9768 13.5008 -1.44731e-20)
(-10.8281 12.8144 0)
(-9.77831 12.2608 -4.59053e-19)
(-8.81765 11.8067 -4.74151e-19)
(-7.93764 11.4298 1.77796e-18)
(-7.13111 11.1087 3.41965e-20)
(-6.38923 10.8365 -1.71389e-18)
(-5.70628 10.5984 8.52256e-19)
(-5.07532 10.3891 -8.0497e-19)
(-4.4901 10.2028 7.7992e-19)
(-3.9455 10.0345 7.79568e-19)
(-3.4369 9.88207 -7.33387e-19)
(-2.96041 9.74161 4.62993e-20)
(-2.51236 9.61133 -7.20667e-19)
(-2.08965 9.48903 7.16525e-19)
(-1.6888 9.37448 0)
(-1.30792 9.26645 -6.42183e-19)
(-0.945022 9.16332 3.71377e-20)
(-0.598271 9.06467 5.91347e-19)
(-0.266293 8.96944 0)
(0.0528164 8.87769 5.69665e-19)
(0.360262 8.78925 -6.1289e-19)
(0.656904 8.70309 0)
(0.944039 8.61884 0)
(1.22246 8.53617 -3.47683e-20)
(1.49279 8.45514 0)
(1.75569 8.37526 3.47839e-20)
(2.01176 8.29622 -5.44334e-19)
(2.26137 8.21788 5.07954e-19)
(2.50511 8.14027 -5.75002e-19)
(2.74328 8.06302 5.73969e-19)
(2.97624 7.98628 -6.79636e-20)
(3.20428 7.90996 0)
(3.42773 7.83384 0)
(3.64686 7.75763 -6.62704e-20)
(3.8619 7.68169 0)
(4.07314 7.6056 1.95506e-19)
(4.28064 7.52956 6.42113e-20)
(4.48422 7.45324 -5.65043e-19)
(4.68528 7.36442 5.94162e-20)
(-6.71803 19.9803 3.30988e-21)
(-6.80016 18.6271 2.03318e-19)
(-6.65651 17.4505 -6.31306e-19)
(-6.38197 16.4247 -2.82339e-20)
(-6.0269 15.5329 4.20709e-19)
(-5.62475 14.7591 -4.58481e-19)
(-5.19855 14.0881 -2.8183e-20)
(-4.76261 13.5055 -2.53714e-20)
(-4.32665 12.9983 -4.48315e-19)
(-3.89745 12.5544 8.39149e-19)
(-3.47908 12.1635 -8.6744e-19)
(-3.07399 11.8185 7.9372e-19)
(-2.6821 11.512 1.18762e-20)
(-2.30506 11.237 2.27963e-20)
(-1.9423 10.9892 -7.28703e-19)
(-1.59345 10.764 7.01349e-19)
(-1.25778 10.5582 0)
(-0.934522 10.369 6.423e-19)
(-0.623007 10.1936 -6.61612e-19)
(-0.322696 10.0302 -6.07251e-19)
(-0.0326329 9.87714 5.89828e-19)
(0.248064 9.73303 1.85266e-20)
(0.520131 9.59674 -1.79401e-20)
(0.783969 9.4671 1.93238e-22)
(1.04031 9.34328 -4.92089e-19)
(1.28954 9.22473 3.37782e-20)
(1.5322 9.11058 5.12493e-19)
(1.76861 9.00028 -5.07171e-19)
(1.99921 8.89349 -7.11997e-23)
(2.2243 8.78993 5.32801e-19)
(2.44434 8.68917 2.89564e-22)
(2.65952 8.59101 3.27877e-20)
(2.87009 8.49499 0)
(3.07641 8.40109 3.29715e-20)
(3.27872 8.30898 0)
(3.47728 8.21872 5.25326e-19)
(3.67231 8.12988 -5.24869e-19)
(3.86402 8.04235 4.72957e-22)
(4.05262 7.95627 0)
(4.23836 7.87125 6.46249e-20)
(4.42128 7.78748 -6.34038e-20)
(4.60131 7.70506 1.87872e-19)
(4.77819 7.62175 -5.94035e-20)
(-4.05043 19.9164 -1.48016e-19)
(-4.20536 18.9708 1.56122e-19)
(-4.23503 18.0629 0)
(-4.16296 17.2114 3.58165e-22)
(-4.0111 16.4267 1.23184e-20)
(-3.79988 15.7113 0)
(-3.54618 15.0636 -3.92959e-19)
(-3.26298 14.4801 3.91654e-19)
(-2.96179 13.9547 0)
(-2.64949 13.4822 -3.8094e-19)
(-2.33317 13.0556 3.89962e-19)
(-2.01594 12.6712 -7.06728e-19)
(-1.70161 12.3227 1.38957e-18)
(-1.39243 12.0058 -1.34315e-20)
(-1.08993 11.7162 -6.6593e-19)
(-0.794604 11.4508 -2.08432e-20)
(-0.507096 11.2065 0)
(-0.227639 10.9806 6.19843e-19)
(0.0436323 10.7704 -1.18529e-18)
(0.306923 10.5742 5.6768e-19)
(0.562612 10.3904 -5.76194e-19)
(0.811092 10.218 5.61613e-19)
(1.0525 10.0551 1.74921e-20)
(1.28727 9.90099 2.82555e-22)
(1.51567 9.75437 -6.71116e-20)
(1.7382 9.61484 4.95369e-19)
(1.95498 9.48126 -5.21392e-19)
(2.16645 9.35332 5.18157e-19)
(2.3729 9.23024 -1.02796e-18)
(2.57469 9.11181 5.10885e-19)
(2.77197 8.99746 -4.77532e-19)
(2.96501 8.88669 4.76053e-19)
(3.15404 8.77935 -4.76255e-19)
(3.33938 8.67506 5.39119e-19)
(3.52124 8.57358 0)
(3.69979 8.47465 0)
(3.87527 8.37809 3.16072e-20)
(4.04781 8.28375 3.20786e-20)
(4.21763 8.19134 0)
(4.38488 8.10087 0)
(4.54978 8.01219 4.28022e-22)
(4.71251 7.92509 1.22464e-19)
(4.87302 7.83892 -1.19218e-19)
(-1.82026 19.6647 4.6253e-20)
(-2.02842 18.9025 -2.09448e-20)
(-2.14433 18.15 1.80128e-19)
(-2.17968 17.423 -1.65649e-19)
(-2.14591 16.7327 -1.6691e-19)
(-2.05496 16.0856 2.08322e-19)
(-1.91921 15.4849 0)
(-1.74953 14.9302 0)
(-1.55415 14.4208 0)
(-1.34082 13.9536 -2.28437e-20)
(-1.11522 13.5258 0)
(-0.882151 13.1339 -2.14908e-22)
(-0.645042 12.7745 3.69281e-19)
(-0.406597 12.4442 -3.13533e-19)
(-0.168834 12.1401 0)
(0.0670344 11.8595 0)
(0.299638 11.5995 0)
(0.528296 11.3578 1.87475e-20)
(0.752667 11.1327 0)
(0.972451 10.922 1.7858e-20)
(1.18763 10.7245 1.74561e-20)
(1.39827 10.5388 1.70903e-20)
(1.60429 10.3638 -1.67653e-20)
(1.80573 10.198 3.31235e-20)
(2.0027 10.0407 3.27873e-20)
(2.19531 9.89079 5.16049e-19)
(2.38383 9.7479 -4.45289e-19)
(2.56841 9.61122 -5.04993e-19)
(2.74915 9.48021 5.31465e-19)
(2.92623 9.35427 4.67082e-19)
(3.09978 9.23301 -4.95476e-19)
(3.26996 9.116 0)
(3.43696 9.00294 -2.55186e-22)
(3.60096 8.89349 -3.09783e-20)
(3.76225 8.78733 0)
(3.92083 8.6841 0)
(4.07685 8.5837 -2.25836e-22)
(4.23044 8.48594 3.09968e-20)
(4.38179 8.39053 0)
(4.53098 8.29758 -1.53201e-19)
(4.67811 8.20697 1.82718e-19)
(4.82359 8.11854 5.99154e-20)
(4.97066 8.0191 -5.7718e-20)
(-0.455194 19.4152 -1.35922e-19)
(-0.674728 18.7518 -4.7911e-20)
(-0.821375 18.0897 1.66456e-19)
(-0.901079 17.4417 0)
(-0.920546 16.8175 -2.26334e-20)
(-0.888312 16.2236 1.62668e-19)
(-0.813749 15.6637 5.73127e-21)
(-0.704748 15.1404 -1.79852e-19)
(-0.56941 14.6531 0)
(-0.413029 14.2015 3.82613e-19)
(-0.241011 13.7837 -3.46832e-19)
(-0.0580491 13.3973 3.23786e-19)
(0.132216 13.0399 -3.32605e-19)
(0.327159 12.7089 -3.69765e-19)
(0.524655 12.4023 -3.39622e-21)
(0.723051 12.1177 3.09018e-19)
(0.920551 11.8527 0)
(1.11653 11.6056 -3.69505e-20)
(1.3106 11.3748 0)
(1.50196 11.1583 -1.8936e-22)
(1.69007 10.9549 2.75624e-19)
(1.87521 10.7634 -1.57407e-20)
(2.05701 10.5827 -2.47053e-19)
(2.23522 10.4115 -1.63255e-20)
(2.40991 10.2489 0)
(2.58116 10.0942 0)
(2.74904 9.94669 -3.13115e-20)
(2.91373 9.80584 0)
(3.0752 9.67092 -3.07351e-20)
(3.23347 9.54139 3.05422e-20)
(3.38856 9.41677 0)
(3.54067 9.29697 0)
(3.69007 9.18133 -2.71553e-19)
(3.83694 9.06973 4.82036e-19)
(3.98151 8.96164 -2.71118e-19)
(4.1236 8.85669 -3.00652e-20)
(4.2633 8.75477 -2.71804e-19)
(4.40085 8.65575 2.4139e-19)
(4.5365 8.55947 3.00393e-20)
(4.67032 8.46547 6.00812e-20)
(4.80227 8.37368 -2.97524e-20)
(4.9325 8.2838 -8.86948e-20)
(5.06347 8.18337 5.63092e-20)
(0.616544 19.1808 0)
(0.389899 18.5809 -2.01756e-20)
(0.224608 17.979 -2.11909e-20)
(0.117943 17.3859 1.55418e-19)
(0.0652801 16.8099 -1.73425e-19)
(0.0598438 16.2563 2.03718e-19)
(0.0938243 15.73 -1.76345e-19)
(0.160375 15.233 0)
(0.253697 14.767 0)
(0.369066 14.3319 -3.73789e-19)
(0.50162 13.9264 -6.01969e-21)
(0.64704 13.5488 6.7212e-19)
(0.801691 13.1974 -3.46816e-19)
(0.962945 12.8705 4.01191e-20)
(1.12841 12.5659 -3.14823e-19)
(1.29628 12.2818 5.9187e-19)
(1.46538 12.0168 -2.78085e-19)
(1.63452 11.769 1.43856e-22)
(1.80313 11.5369 -2.66984e-19)
(1.97048 11.3189 -1.72139e-21)
(2.13592 11.1138 2.53418e-19)
(2.29925 10.9204 -1.6531e-20)
(2.46009 10.7377 0)
(2.61839 10.5646 -2.88266e-19)
(2.77396 10.4002 2.51458e-19)
(2.92682 10.2439 0)
(3.07696 10.0949 -2.4555e-19)
(3.22444 9.95271 2.42363e-19)
(3.36932 9.81658 0)
(3.51117 9.68587 2.39165e-19)
(3.65012 9.56043 -2.37531e-19)
(3.78652 9.44006 2.07491e-19)
(3.92078 9.32419 -2.36268e-19)
(4.0529 9.21238 0)
(4.18315 9.10414 2.96179e-20)
(4.31091 8.99912 -1.77404e-19)
(4.43631 8.89731 2.36569e-19)
(4.55982 8.79887 0)
(4.68189 8.70327 -1.47893e-19)
(4.80244 8.61003 2.06199e-19)
(4.92147 8.51911 2.94072e-20)
(5.03904 8.43035 -8.70612e-20)
(5.15687 8.33693 0)
(1.43063 18.966 1.93263e-20)
(1.20216 18.4104 -2.01189e-20)
(1.02701 17.8513 -6.39388e-20)
(0.904514 17.2984 1.04376e-19)
(0.832259 16.7589 0)
(0.803787 16.2363 1.55072e-19)
(0.810434 15.7358 -1.72172e-19)
(0.848137 15.261 0)
(0.912455 14.8139 1.52869e-19)
(0.999053 14.3942 3.40221e-21)
(1.10402 14.001 -1.87091e-19)
(1.22262 13.6329 2.05147e-20)
(1.35145 13.2893 -1.41868e-19)
(1.48817 12.968 1.36779e-19)
(1.62975 12.6672 0)
(1.77478 12.3863 1.23312e-22)
(1.92241 12.1237 -1.83865e-20)
(2.07119 11.8777 -2.69231e-19)
(2.22041 11.6467 2.78424e-19)
(2.36936 11.4295 -1.71348e-20)
(2.51708 11.2248 -2.68002e-19)
(2.66317 11.0314 2.77568e-19)
(2.80766 10.849 0)
(2.9503 10.6759 3.16585e-20)
(3.09065 10.5116 2.79716e-19)
(3.22865 10.3554 3.12239e-20)
(3.36466 10.2068 -2.11156e-19)
(3.49838 10.065 0)
(3.6297 9.92896 0)
(3.7576 9.79835 2.64657e-19)
(3.8829 9.67365 -2.33609e-19)
(4.00639 9.55431 -2.03795e-19)
(4.12833 9.43953 -2.83119e-22)
(4.24829 9.32878 2.60796e-19)
(4.36666 9.22144 0)
(4.48189 9.1171 -5.80084e-20)
(4.59484 9.01678 -1.16093e-19)
(4.70633 8.92005 1.16104e-19)
(4.81671 8.82625 -8.71861e-20)
(4.92558 8.735 -4.97081e-23)
(5.03281 8.64623 1.44169e-19)
(5.13789 8.56039 2.85564e-20)
(5.24089 8.47857 -2.76905e-20)
(2.07893 18.7725 -7.43487e-20)
(1.8532 18.2492 -6.05664e-20)
(1.6732 17.7223 1.81672e-19)
(1.53991 17.2005 -8.10392e-20)
(1.4552 16.6895 0)
(1.41232 16.1897 1.50641e-19)
(1.39864 15.7105 -1.6736e-19)
(1.4148 15.2545 -2.11412e-20)
(1.45676 14.8233 2.10279e-20)
(1.52225 14.4178 -1.46605e-19)
(1.60702 14.0362 1.61995e-19)
(1.70419 13.6762 -2.01114e-20)
(1.81342 13.3417 1.58412e-19)
(1.93165 13.0257 -3.08154e-19)
(2.05467 12.729 1.49854e-19)
(2.1813 12.4522 1.84561e-20)
(2.31193 12.1932 -1.79266e-20)
(2.44482 11.95 -1.75214e-20)
(2.5784 11.7208 -1.55134e-19)
(2.71213 11.5057 1.67563e-19)
(2.84581 11.3025 2.96698e-19)
(2.97819 11.1106 -2.89429e-19)
(3.10942 10.9295 -2.852e-19)
(3.23957 10.7575 4.66507e-19)
(3.36734 10.5938 -2.75008e-19)
(3.49306 10.4394 -3.02289e-20)
(3.61776 10.2924 -2.98469e-20)
(3.73959 10.1511 2.93514e-20)
(3.85937 10.0157 0)
(3.97457 9.88598 -2.90157e-20)
(4.08957 9.76408 1.15108e-19)
(4.20295 9.64664 -2.28999e-19)
(4.31501 9.53349 1.42553e-19)
(4.42477 9.42443 -5.70104e-20)
(4.53322 9.31825 0)
(4.63664 9.2149 2.85759e-20)
(4.73921 9.11731 1.14151e-19)
(4.84088 9.02332 -1.99856e-19)
(4.9414 8.93158 -2.86801e-20)
(5.04004 8.84256 1.70994e-19)
(5.13678 8.75592 -1.13666e-19)
(5.23009 8.67179 2.81629e-20)
(5.32002 8.59667 2.72337e-20)
(2.62918 18.6052 -1.91722e-20)
(2.40358 18.1037 3.70106e-20)
(2.20715 17.6026 -1.01363e-19)
(2.06266 17.1023 8.02816e-20)
(1.97584 16.6141 -4.11591e-20)
(1.92544 16.1272 -2.08012e-20)
(1.88403 15.6713 0)
(1.88408 15.2294 -2.07283e-20)
(1.90963 14.8112 -4.10069e-20)
(1.96069 14.4165 -1.62154e-19)
(2.03073 14.0464 1.33035e-19)
(2.11167 13.6933 0)
(2.20635 13.3745 1.55955e-19)
(2.31365 13.0575 -1.87052e-19)
(2.42121 12.7659 1.50083e-19)
(2.53313 12.4944 -3.54976e-20)
(2.65118 12.2394 -3.06979e-19)
(2.7714 11.9984 1.57713e-19)
(2.89279 11.7701 0)
(3.01548 11.5608 -6.66969e-20)
(3.13887 11.3599 -3.27916e-20)
(3.25922 11.1692 -1.28317e-19)
(3.37913 10.9896 3.09185e-20)
(3.49914 10.8189 1.22565e-19)
(3.61533 10.6557 0)
(3.72971 10.5052 0)
(3.84503 10.3588 -2.92404e-20)
(3.95648 10.2161 -5.76402e-20)
(4.0689 10.084 0)
(4.1736 9.9578 8.55548e-20)
(4.27941 9.84159 3.09394e-22)
(4.38171 9.72237 2.52171e-22)
(4.48505 9.61071 -1.41833e-19)
(4.58486 9.50312 2.82207e-20)
(4.68652 9.39848 -2.72782e-20)
(4.77902 9.29672 -1.12227e-19)
(4.87207 9.20441 -1.96608e-22)
(4.96323 9.11232 8.6209e-20)
(5.05491 9.02132 -8.5223e-20)
(5.14389 8.93519 5.6888e-20)
(5.231 8.8501 2.83869e-20)
(5.31408 8.76653 0)
(5.39636 8.69267 4.50754e-23)
(-3.92129 -3.10513 -6.24014e-20)
(-3.70618 -3.13267 -1.33184e-19)
(-3.48718 -3.15976 -2.06054e-19)
(-3.26533 -3.1855 1.7638e-19)
(-3.04145 -3.21018 -7.20445e-20)
(-2.81606 -3.23374 -5.39046e-20)
(-2.58966 -3.25612 1.96574e-20)
(-2.36272 -3.27726 0)
(-2.13566 -3.29714 -1.9156e-20)
(-1.90883 -3.31574 5.73572e-20)
(-1.68251 -3.33306 0)
(-1.45688 -3.34907 2.54081e-22)
(-1.23219 -3.36363 -4.0705e-20)
(-1.0087 -3.37661 -8.12375e-20)
(-0.78653 -3.38798 -4.34695e-20)
(-0.565976 -3.39757 2.15559e-19)
(-0.347134 -3.4054 -1.31513e-19)
(-0.130241 -3.41137 2.26276e-20)
(0.0845625 -3.41545 0)
(0.297161 -3.41764 9.65653e-20)
(0.50741 -3.41793 -7.70168e-20)
(0.715191 -3.41633 0)
(0.920471 -3.41287 0)
(1.12317 -3.40759 2.90597e-20)
(1.32325 -3.40051 0)
(1.52067 -3.39169 3.26554e-20)
(1.71541 -3.38114 -1.80278e-20)
(1.90747 -3.36894 3.74136e-20)
(2.09684 -3.35509 1.94899e-20)
(2.28347 -3.33961 0)
(2.46738 -3.32251 -2.38975e-20)
(2.64859 -3.30369 6.50804e-22)
(2.82716 -3.283 -7.77227e-22)
(3.00319 -3.2601 3.14125e-20)
(3.17712 -3.23428 0)
(3.34999 -3.20426 -2.0162e-20)
(3.52456 -3.16764 0)
(3.70835 -3.1205 5.52707e-20)
(3.92185 -3.05723 6.51378e-20)
(4.22548 -2.97083 -6.20774e-19)
(4.8086 -2.86497 1.24425e-20)
(6.29213 -2.85653 9.42842e-19)
(11.1549 -3.53734 0)
(-3.86153 -3.10204 2.99112e-22)
(-3.66125 -3.12652 6.67643e-20)
(-3.45903 -3.15103 -2.43453e-22)
(-3.25452 -3.1748 2.1922e-22)
(-3.04806 -3.19793 -7.08656e-20)
(-2.83993 -3.2204 -1.78561e-20)
(-2.63047 -3.24209 -1.80776e-20)
(-2.42001 -3.26297 -3.67016e-20)
(-2.20892 -3.28302 0)
(-1.9974 -3.30231 -1.85842e-20)
(-1.78564 -3.3209 1.88169e-20)
(-1.57367 -3.33882 -1.11065e-22)
(-1.3615 -3.35605 0)
(-1.14917 -3.37248 3.9456e-20)
(-0.936824 -3.388 -4.74217e-22)
(-0.724522 -3.40251 -8.17804e-20)
(-0.512432 -3.41591 0)
(-0.300545 -3.4281 2.12696e-20)
(-0.0890296 -3.43898 -8.84309e-20)
(0.122079 -3.44847 6.87993e-20)
(0.332707 -3.45648 0)
(0.542778 -3.46293 -4.95165e-20)
(0.752304 -3.46776 2.56483e-20)
(0.961311 -3.47088 3.07255e-22)
(1.16984 -3.47221 5.75323e-20)
(1.37799 -3.47162 2.92582e-22)
(1.58589 -3.46896 -3.25877e-20)
(1.7938 -3.46402 5.0551e-22)
(2.00197 -3.45652 -3.72851e-20)
(2.21082 -3.44608 4.03211e-20)
(2.42103 -3.43216 -2.24268e-20)
(2.63365 -3.41404 2.4053e-20)
(2.85037 -3.39066 2.63324e-20)
(3.07409 -3.36049 -5.73956e-20)
(3.30998 -3.32136 6.3783e-20)
(3.56764 -3.27035 -1.77007e-19)
(3.86523 -3.20363 1.59063e-19)
(4.23856 -3.11669 -2.65795e-19)
(4.76045 -3.0079 2.01542e-19)
(5.58709 -2.89073 4.51692e-19)
(7.06859 -2.84006 -1.13671e-18)
(10.0096 -3.11946 1.29356e-18)
(16.2781 -4.40249 -1.04077e-18)
(-3.7976 -3.08941 9.46224e-23)
(-3.60958 -3.11253 2.04166e-22)
(-3.41925 -3.13614 -1.61474e-22)
(-3.22654 -3.15924 -1.36498e-19)
(-3.03176 -3.18196 1.38304e-19)
(-2.83498 -3.20431 1.75169e-20)
(-2.63639 -3.2261 -5.29009e-20)
(-2.43636 -3.24721 3.55211e-20)
(-2.23514 -3.26759 0)
(-2.03303 -3.28727 0)
(-1.83014 -3.30636 -5.53759e-20)
(-1.62654 -3.32496 5.56762e-20)
(-1.42207 -3.34309 -1.28874e-22)
(-1.21665 -3.3607 -2.3373e-23)
(-1.01023 -3.37761 -3.93193e-22)
(-0.802854 -3.39366 3.99444e-20)
(-0.59456 -3.40876 -8.18045e-20)
(-0.385308 -3.42279 8.4068e-20)
(-0.175085 -3.4356 -5.15422e-23)
(0.0361339 -3.44705 -4.48276e-20)
(0.248352 -3.45695 0)
(0.461605 -3.46516 -2.43014e-20)
(0.675977 -3.47155 7.54778e-20)
(0.891651 -3.47596 -1.05886e-19)
(1.10888 -3.4782 2.80269e-20)
(1.32806 -3.47804 -2.91301e-20)
(1.54975 -3.4751 0)
(1.77466 -3.46893 -3.28961e-20)
(2.00376 -3.45893 0)
(2.23843 -3.4443 0)
(2.48067 -3.42403 4.06136e-20)
(2.73352 -3.39674 -2.1947e-20)
(3.00159 -3.36067 4.82586e-20)
(3.29224 -3.31357 -2.61506e-20)
(3.61735 -3.25259 0)
(3.99627 -3.17453 -9.23726e-20)
(4.46203 -3.0767 3.53919e-20)
(5.07332 -2.95876 1.87276e-19)
(5.93799 -2.8291 -2.03861e-19)
(7.25655 -2.72383 5.48865e-19)
(9.40282 -2.75341 -3.65032e-19)
(13.092 -3.20751 -4.30441e-21)
(19.1973 -4.6323 2.99501e-19)
(-3.73489 -3.06837 -3.21374e-20)
(-3.55844 -3.08917 0)
(-3.37965 -3.1107 -3.30383e-20)
(-3.19853 -3.13172 6.69662e-20)
(-3.01527 -3.15255 1.71109e-20)
(-2.82972 -3.17325 -1.71376e-20)
(-2.64192 -3.19352 -3.46658e-20)
(-2.45206 -3.21318 -3.49548e-20)
(-2.26044 -3.23208 0)
(-2.0674 -3.25018 -5.33613e-20)
(-1.87317 -3.26763 5.3755e-20)
(-1.67772 -3.28466 -1.81703e-20)
(-1.48084 -3.30145 1.83421e-20)
(-1.28206 -3.318 3.7443e-20)
(-1.08126 -3.33407 0)
(-0.878278 -3.34939 0)
(-0.673113 -3.36386 1.99724e-20)
(-0.465745 -3.37733 0)
(-0.255954 -3.38968 -2.11277e-20)
(-0.0435547 -3.40067 0)
(0.171634 -3.41 -2.24453e-20)
(0.389762 -3.41738 4.6752e-20)
(0.610942 -3.42254 -4.89215e-20)
(0.835443 -3.42521 1.02358e-19)
(1.06381 -3.42517 -5.36809e-20)
(1.29676 -3.42212 -2.834e-20)
(1.53537 -3.41551 3.00241e-20)
(1.78102 -3.40463 3.1899e-20)
(2.03546 -3.38865 1.68785e-20)
(2.30124 -3.36648 -9.06612e-21)
(2.5818 -3.33672 -7.25587e-21)
(2.88222 -3.29769 -4.39497e-20)
(3.20987 -3.24734 -4.42341e-20)
(3.57575 -3.18345 0)
(3.9968 -3.10368 -1.49657e-22)
(4.50008 -3.0061 -5.5621e-20)
(5.12983 -2.89049 -1.48543e-19)
(5.95924 -2.76203 -6.08264e-20)
(7.11052 -2.63999 1.45231e-19)
(8.78982 -2.57756 0)
(11.3426 -2.70172 0)
(15.3078 -3.28489 -4.15668e-20)
(21.0207 -4.72637 2.7493e-19)
(-3.67253 -3.04163 3.1709e-20)
(-3.5067 -3.05991 0)
(-3.33826 -3.0793 3.25225e-20)
(-3.16729 -3.09796 -8.23777e-20)
(-2.9944 -3.11647 -1.65938e-20)
(-2.81881 -3.13527 3.36104e-20)
(-2.64033 -3.15386 6.34675e-20)
(-2.45903 -3.17194 7.03829e-20)
(-2.27527 -3.18921 -6.45637e-21)
(-2.08932 -3.2055 4.33424e-20)
(-1.9017 -3.2208 3.51679e-20)
(-1.71268 -3.23543 1.77725e-20)
(-1.52187 -3.2499 -3.60523e-20)
(-1.32864 -3.2644 1.83173e-20)
(-1.13217 -3.27866 0)
(-0.932407 -3.29226 0)
(-0.729263 -3.30487 -3.89252e-20)
(-0.522817 -3.31634 1.99414e-20)
(-0.312807 -3.3267 2.04875e-20)
(-0.0986412 -3.33575 -1.0632e-19)
(0.120064 -3.34313 -2.18954e-20)
(0.343796 -3.3483 6.85943e-20)
(0.57263 -3.3507 -2.3815e-20)
(0.806775 -3.34995 7.47188e-20)
(1.04691 -3.34584 -5.21704e-20)
(1.29413 -3.33814 0)
(1.55001 -3.32634 2.89667e-20)
(1.81672 -3.30954 -1.52267e-20)
(2.09688 -3.28669 -1.62061e-20)
(2.39379 -3.25665 4.28778e-20)
(2.71245 -3.21787 -9.13845e-21)
(3.05938 -3.16858 3.87525e-20)
(3.44416 -3.10691 0)
(3.88068 -3.03083 0)
(4.38989 -2.93888 4.73654e-20)
(5.00432 -2.83099 5.03349e-20)
(5.7753 -2.70986 0)
(6.78221 -2.58571 1.37161e-21)
(8.15001 -2.48617 0)
(10.0742 -2.47453 0)
(12.8567 -2.68373 -1.28965e-19)
(16.8851 -3.3573 2.06637e-19)
(22.2287 -4.7827 0)
(-3.61182 -3.01134 3.08568e-23)
(-3.45531 -3.02702 3.14801e-20)
(-3.296 -3.04427 -3.1924e-20)
(-3.13391 -3.06028 1.61336e-20)
(-2.97062 -3.07599 4.89768e-20)
(-2.8043 -3.0927 -3.28799e-20)
(-2.63424 -3.1095 5.56089e-23)
(-2.46074 -3.12588 -3.23239e-20)
(-2.2838 -3.14162 -3.47802e-20)
(-2.10373 -3.15625 8.5056e-21)
(-1.92125 -3.16942 -7.72973e-20)
(-1.73722 -3.18127 0)
(-1.55161 -3.19265 1.76323e-20)
(-1.36342 -3.20438 -1.79208e-20)
(-1.17088 -3.21645 0)
(-0.973502 -3.22803 1.86054e-20)
(-0.77143 -3.23843 -1.90755e-20)
(-0.564994 -3.24729 5.86267e-20)
(-0.354295 -3.25484 0)