/*--------------------------------*- C++ -*----------------------------------*\
| =========                 |                                                 |
| \\      /  F ield         | OpenFOAM: The Open Source CFD Toolbox           |
|  \\    /   O peration     | Version:  2.3.0                                 |
|   \\  /    A nd           | Web:      www.OpenFOAM.org                      |
|    \\/     M anipulation  |                                                 |
\*---------------------------------------------------------------------------*/
FoamFile
{
    version     2.0;
    format      ascii;
    class       volScalarField;
    location    "300";
    object      nuTilda;
}
// * * * * * * * * * * * * * * * * * * * * * * * * * * * * * * * * * * * * * //

dimensions      [0 2 -1 0 0 0 0];

internalField   nonuniform List<scalar> 
7826
(
0.0668654
0.0618179
0.0570905
0.0527491
0.0488505
0.0454372
0.0425317
0.0401273
0.0381811
0.0366134
0.0353155
0.0341692
0.0330586
0.0318826
0.0305857
0.0728501
0.0692859
0.0661045
0.0633365
0.0609913
0.0590571
0.0575054
0.0562958
0.0553812
0.0547129
0.0542438
0.0539336
0.0537469
0.0536561
0.0536396
0.078194
0.0756523
0.0734575
0.0715984
0.0700543
0.0687964
0.0677911
0.0670026
0.0663969
0.065943
0.0656131
0.0653844
0.0652378
0.0651575
0.0651318
0.0827426
0.0809068
0.0793426
0.0780302
0.0769445
0.0760582
0.075344
0.0747761
0.0743311
0.0739894
0.073734
0.0735509
0.0734286
0.0733576
0.0733306
0.0865663
0.0851989
0.08404
0.0830674
0.0822586
0.0815919
0.0810472
0.0806069
0.0802551
0.0799787
0.0797674
0.0796119
0.079505
0.0794408
0.0794144
0.089755
0.0887089
0.0878201
0.0870692
0.0864386
0.0859121
0.0854753
0.0851161
0.084824
0.0845903
0.0844078
0.084271
0.0841749
0.0841157
0.0840901
0.0924207
0.0915998
0.0908972
0.0902977
0.0897878
0.089356
0.0889922
0.0886884
0.0884373
0.0882333
0.0880714
0.087948
0.08786
0.0878047
0.08778
0.0946601
0.0940015
0.0934318
0.0929394
0.0925149
0.0921502
0.0918386
0.0915744
0.0913531
0.0911707
0.0910242
0.0909111
0.0908293
0.0907771
0.0907531
0.0965528
0.0960151
0.0955427
0.0951286
0.0947664
0.0944511
0.094178
0.0939435
0.0937447
0.093579
0.0934444
0.0933393
0.0932624
0.0932126
0.0931891
0.0981675
0.0977184
0.0973183
0.0969628
0.0966477
0.0963695
0.0961257
0.0959142
0.0957329
0.0955805
0.0954555
0.0953568
0.0952839
0.0952361
0.095213
0.0995544
0.0991696
0.0988245
0.0985141
0.0982354
0.0979861
0.0977649
0.0975714
0.0974043
0.0972627
0.0971456
0.0970525
0.096983
0.0969368
0.0969139
0.100743
0.100412
0.100111
0.0998374
0.0995872
0.0993608
0.0991571
0.0989778
0.0988225
0.0986904
0.09858
0.0984916
0.098425
0.0983801
0.0983571
0.101768
0.101483
0.101218
0.100975
0.100747
0.10054
0.100349
0.10018
0.100035
0.0999124
0.0998072
0.099723
0.0996592
0.099615
0.0995914
0.102661
0.102412
0.102174
0.101962
0.101745
0.101561
0.101374
0.101216
0.101077
0.100967
0.100864
0.100784
0.100722
0.100678
0.100652
0.0306812
0.0321136
0.033291
0.0343559
0.0354494
0.0367131
0.0382796
0.0402563
0.0427129
0.0456795
0.0491508
0.0530981
0.0574779
0.0622364
0.0673139
0.0536328
0.0536372
0.0537188
0.0539011
0.054214
0.0546931
0.0553809
0.0563242
0.0575708
0.0591665
0.0611492
0.063545
0.0663612
0.0695862
0.0731891
0.0651348
0.0651669
0.0652542
0.0654096
0.0656492
0.0659918
0.0664609
0.0670846
0.0678939
0.0689231
0.0702073
0.0717801
0.0736698
0.0758958
0.0784679
0.0733344
0.0733693
0.0734489
0.0735806
0.0737743
0.0740412
0.0743956
0.0748549
0.0754388
0.0761708
0.0770767
0.0781837
0.0795191
0.0811081
0.0829729
0.0794181
0.0794524
0.0795251
0.0796408
0.0798058
0.0800274
0.0803146
0.0806786
0.0811321
0.0816912
0.0823737
0.0831994
0.0841898
0.0853669
0.0867504
0.0840935
0.0841262
0.0841929
0.0842967
0.0844418
0.0846331
0.0848764
0.0851789
0.0855494
0.0859987
0.0865387
0.0871839
0.0879501
0.088855
0.0899176
0.0877829
0.0878135
0.087875
0.0879697
0.0881002
0.0882698
0.0884824
0.0887426
0.0890566
0.0894313
0.0898752
0.0903982
0.0910117
0.0917283
0.0925626
0.0907554
0.090784
0.0908411
0.0909284
0.0910476
0.0912009
0.0913908
0.0916206
0.091894
0.0922158
0.0925917
0.0930284
0.093534
0.0941173
0.0947858
0.0931907
0.0932174
0.0932706
0.0933518
0.093462
0.0936027
0.0937753
0.0939821
0.0942253
0.0945081
0.094834
0.0952078
0.0956349
0.0961228
0.0966806
0.0952137
0.0952383
0.0952882
0.0953642
0.0954671
0.0955976
0.0957568
0.0959459
0.0961661
0.0964191
0.0967072
0.0970332
0.0974007
0.0978146
0.0982812
0.0969136
0.0969364
0.0969831
0.0970544
0.097151
0.0972734
0.0974221
0.0975973
0.0977995
0.0980294
0.098288
0.0985769
0.098898
0.0992545
0.0996512
0.0983561
0.0983768
0.0984205
0.0984872
0.0985785
0.0986947
0.0988352
0.0989994
0.099187
0.0993985
0.0996339
0.0998934
0.100178
0.100488
0.100826
0.0995908
0.0996081
0.0996498
0.0997113
0.0997985
0.09991
0.100044
0.100199
0.100375
0.100572
0.100789
0.101025
0.10128
0.101554
0.101847
0.100656
0.100665
0.10071
0.100763
0.100848
0.100957
0.101088
0.101233
0.101399
0.101585
0.101789
0.102005
0.102237
0.102482
0.102743
0.013663
0.0108334
0.00861802
0.00709727
0.0060031
0.00513911
0.00440974
0.00376764
0.00318765
0.00265607
0.00216601
0.0017155
0.0013054
0.000933765
0.000658568
0.0137197
0.0110918
0.00903407
0.00754886
0.00644503
0.00557939
0.00485914
0.00423072
0.00366385
0.00314121
0.00265331
0.00219576
0.00176579
0.00135932
0.00102581
0.0137864
0.0113751
0.00947973
0.00802493
0.006907
0.00602423
0.0052948
0.00466334
0.0040953
0.00356977
0.0030747
0.00260324
0.00214899
0.00170498
0.00133028
0.0138798
0.0116682
0.00990561
0.00848887
0.0073614
0.00645526
0.00570466
0.00505767
0.00447787
0.00394151
0.00343391
0.00294567
0.00246697
0.00198854
0.00157879
0.0140054
0.0119655
0.0103022
0.00892622
0.00779648
0.00686757
0.00609022
0.00541965
0.00482056
0.00426763
0.00374391
0.00323746
0.0027353
0.00222588
0.00178437
0.014116
0.0122468
0.0106693
0.00933319
0.00820681
0.00725877
0.00645352
0.00575511
0.00513169
0.00455798
0.0040155
0.00348995
0.00296548
0.00242796
0.00195728
0.0142371
0.0125046
0.0110064
0.0097093
0.00859014
0.00762707
0.00679536
0.00606768
0.00541701
0.00481966
0.00425646
0.0037113
0.00316551
0.00260228
0.0021048
0.0143813
0.0127447
0.0113154
0.0100554
0.00894584
0.00797157
0.00711591
0.00635933
0.00568027
0.00505755
0.00447239
0.00390726
0.0033411
0.00275422
0.0022321
0.0144917
0.012965
0.0115987
0.0103733
0.00927448
0.00829195
0.00741527
0.0066313
0.00592387
0.00527514
0.00466729
0.00408212
0.00349643
0.00288765
0.00234292
0.0146066
0.0131663
0.0118578
0.0106648
0.00957717
0.00858867
0.00769369
0.00688436
0.00614951
0.00547483
0.00484419
0.00423916
0.00363479
0.00300573
0.00244016
0.0147059
0.0133501
0.0120948
0.0109318
0.00985531
0.00886261
0.00795167
0.00711916
0.0063583
0.00565833
0.00500513
0.00438061
0.00375826
0.00311037
0.00252573
0.014792
0.0135164
0.0123109
0.0111761
0.0101107
0.00911507
0.00819056
0.00733731
0.00655231
0.00582825
0.00515339
0.00451004
0.00387105
0.00320518
0.00260234
0.0148765
0.013667
0.0125067
0.0113975
0.0103419
0.00934324
0.00840558
0.00753231
0.0067242
0.00597718
0.00528068
0.00461978
0.00396304
0.00328434
0.0026674
0.0149949
0.0138477
0.0127296
0.0116432
0.0106016
0.00960631
0.00866161
0.00777362
0.00694192
0.00616828
0.00545466
0.00476784
0.00410534
0.00338259
0.00274019
0.000668448
0.00091157
0.00124976
0.00161518
0.002003
0.00241086
0.00284241
0.00330986
0.0038397
0.00448886
0.00538449
0.00678178
0.00866667
0.0110625
0.0140455
0.00102827
0.00130484
0.00165036
0.0020163
0.00239862
0.00279822
0.00322315
0.00369302
0.00424664
0.00495488
0.00592893
0.007291
0.00909707
0.0113477
0.0141136
0.00132665
0.00162093
0.00198016
0.0023535
0.00274006
0.003145
0.00358219
0.00407933
0.0046831
0.00546047
0.00648635
0.00781934
0.0095464
0.0116583
0.0142186
0.00157029
0.00187829
0.00225179
0.00263612
0.00303401
0.00345568
0.00392078
0.00446229
0.00512604
0.00596393
0.00702049
0.00833126
0.00998437
0.0119695
0.0143366
0.00177198
0.00209268
0.00248028
0.00287828
0.00329352
0.00374115
0.00424509
0.00483893
0.00556123
0.00644709
0.00752233
0.00881399
0.010399
0.012269
0.0144617
0.00194179
0.00227479
0.00267655
0.00309066
0.00352825
0.00400865
0.00455746
0.0052049
0.00597957
0.00690291
0.00799017
0.00926332
0.0107859
0.0125515
0.0145877
0.00208689
0.00243191
0.00284808
0.00328042
0.00374422
0.0042616
0.00485736
0.00555587
0.00637589
0.0073289
0.00842392
0.00967834
0.0111437
0.0128132
0.0147028
0.00221232
0.00256912
0.00300005
0.00345228
0.00394493
0.00450126
0.00514334
0.00588872
0.00674765
0.00772467
0.00882437
0.0100597
0.0114726
0.0130564
0.0148316
0.0023218
0.0026901
0.00313603
0.00360939
0.00413225
0.00472779
0.005414
0.00620163
0.00709404
0.00809072
0.00919274
0.0104092
0.0117746
0.0132827
0.014951
0.00241801
0.00279753
0.00325863
0.00375379
0.00430733
0.00494112
0.00566847
0.00649387
0.00741518
0.00842809
0.00953076
0.0107291
0.0120518
0.0134912
0.015056
0.00250315
0.00289371
0.00337005
0.00388721
0.00447105
0.00514126
0.00590637
0.00676544
0.00771185
0.00873823
0.00984045
0.0110216
0.0123051
0.0136802
0.0151454
0.00257874
0.00297951
0.00347053
0.00400929
0.0046226
0.0053275
0.00612767
0.00701676
0.00798496
0.00902258
0.0101236
0.0112886
0.0125365
0.013855
0.0152485
0.00264633
0.00305927
0.00356713
0.00412906
0.00477078
0.0055068
0.00633393
0.00724877
0.00823626
0.00928466
0.0103841
0.0115334
0.0127478
0.0140122
0.0153132
0.00270729
0.00312158
0.00363208
0.00420138
0.00486533
0.00562434
0.00651316
0.0074605
0.00846813
0.00950812
0.010595
0.0117289
0.0129242
0.0141303
0.0153656
0.00129581
0.00391116
0.00679523
0.00990285
0.0132263
0.0167631
0.0205244
0.0245338
0.0288242
0.0334301
0.0383772
0.043673
0.0493018
0.0552239
0.0613785
1.90476e-05
0.000438977
0.00175372
0.00389389
0.00640183
0.00938671
0.0128536
0.0168005
0.0212233
0.0261158
0.0314664
0.0372532
0.0434383
0.0499621
0.0567421
0
0.000233592
0.0010856
0.00254442
0.0043694
0.00669102
0.00955194
0.0129835
0.0170069
0.0216309
0.026849
0.0326369
0.0389491
0.0457195
0.0528781
4.99189e-05
0.000233355
0.00109185
0.00215981
0.00360995
0.00551004
0.00791978
0.0108961
0.0144884
0.0187335
0.0236504
0.0292344
0.0354527
0.0422386
0.0494753
0.00012731
0.000571383
0.00105892
0.00195357
0.00319385
0.00483517
0.00694225
0.00958316
0.0128239
0.0167225
0.0213222
0.026643
0.0326742
0.0393676
0.0466395
0.000346196
0.000669882
0.00106703
0.00179306
0.0028916
0.00435794
0.00625275
0.00864678
0.0116136
0.015224
0.019538
0.0245965
0.0304111
0.0369534
0.0441437
0.000394112
0.000637558
0.00106482
0.00165902
0.00264949
0.00398486
0.00571954
0.00792362
0.0106733
0.0140457
0.0181122
0.022929
0.0285272
0.0349013
0.042005
0.000383609
0.000592379
0.00103267
0.00155281
0.00245189
0.00368269
0.00528949
0.00734059
0.00991255
0.0130856
0.0169379
0.0215372
0.0269301
0.0331315
0.040116
0.000375897
0.000568657
0.00100063
0.0014959
0.00229216
0.00343374
0.00493434
0.00685793
0.00928029
0.0122832
0.015949
0.0203534
0.0255559
0.0315888
0.0384513
0.00037093
0.00055825
0.000978269
0.00145882
0.00216153
0.00322561
0.00463581
0.00645054
0.00874448
0.0115997
0.0151013
0.0193308
0.0243575
0.0302277
0.0369533
0.000367148
0.000552532
0.000962134
0.00142559
0.00205386
0.00304909
0.00438108
0.00610151
0.00828345
0.0110089
0.0143646
0.0184362
0.0233001
0.0290127
0.0355932
0.000363761
0.000548066
0.000949905
0.00139801
0.00197724
0.00289906
0.00416116
0.00579868
0.00788177
0.0104919
0.0137168
0.0176448
0.0223581
0.0279204
0.0343614
0.000360687
0.000544472
0.000941637
0.00137966
0.00193093
0.00277202
0.0039695
0.00553309
0.00752809
0.0100349
0.0131415
0.0169384
0.0215113
0.0269298
0.0332288
0.000357936
0.000541731
0.000936515
0.0013679
0.001899
0.00266359
0.00380104
0.00529802
0.00721378
0.00962721
0.0126262
0.0163025
0.0207448
0.0260281
0.0321997
0.000355443
0.000539485
0.000932833
0.00135862
0.00187165
0.00257147
0.00365188
0.00508828
0.00693223
0.00926073
0.0121612
0.0157264
0.0200473
0.0252049
0.0312594
0.000353128
0.000537389
0.000929488
0.00135023
0.00184809
0.00250072
0.00351995
0.00489993
0.00667829
0.00892908
0.0117391
0.0152013
0.0194091
0.0244473
0.0303781
0.000350954
0.000535399
0.000926483
0.00134343
0.00183063
0.00245324
0.00340408
0.00473004
0.00644792
0.00862722
0.0113536
0.0147203
0.018822
0.0237454
0.0295525
0.000348928
0.000533617
0.000924158
0.00133873
0.00181876
0.00242038
0.00330227
0.00457619
0.00623785
0.00835102
0.0109998
0.0142773
0.0182784
0.023091
0.0287773
0.000347046
0.000532068
0.000922492
0.00133557
0.00180996
0.00239366
0.00321241
0.00443627
0.00604543
0.00809714
0.0106737
0.0138677
0.0177752
0.0224888
0.0280951
0.000345283
0.000530664
0.000921138
0.00133298
0.00180212
0.00236941
0.00313478
0.00430872
0.00586845
0.00786279
0.0103718
0.0134874
0.0173059
0.0219195
0.0273961
0.000343613
0.000529301
0.000919778
0.00133042
0.00179473
0.00234813
0.00307322
0.00419285
0.00570516
0.00764569
0.0100914
0.0131335
0.0168692
0.0213959
0.0268149
0.000342018
0.000527946
0.000918359
0.00132797
0.0017884
0.00233139
0.00302858
0.00408829
0.00555418
0.00744392
0.00983015
0.012803
0.0164598
0.0208968
0.0261877
0.000340495
0.000526637
0.000917022
0.00132597
0.00178369
0.0023192
0.0029959
0.00399409
0.00541434
0.00725588
0.00958599
0.0124934
0.0160752
0.0204287
0.025643
0.000339046
0.000525418
0.0009159
0.00132457
0.00178047
0.0023101
0.00296944
0.00390895
0.00528456
0.00708019
0.00935721
0.0122027
0.0157133
0.0199873
0.0251136
0.000337672
0.00052429
0.000914989
0.00132364
0.00177814
0.00230245
0.0029457
0.00383219
0.00516387
0.00691566
0.0091423
0.0119288
0.0153711
0.0195657
0.0245902
0.00033636
0.000523225
0.000914178
0.00132288
0.00177607
0.00229525
0.00292361
0.00376495
0.00505163
0.00676122
0.00893987
0.0116701
0.0150466
0.0191654
0.0241134
0.000335102
0.00052219
0.000913353
0.00132206
0.00177396
0.00228837
0.00290388
0.00370979
0.00494765
0.00661603
0.00874884
0.0114255
0.0147406
0.018795
0.0237056
0.000333891
0.000521144
0.000912448
0.00132114
0.0017719
0.00228228
0.0028876
0.00366729
0.00485186
0.00647941
0.00856829
0.011194
0.0144504
0.0184375
0.0232457
0.000332712
0.000520108
0.000911503
0.00132021
0.00177012
0.00227743
0.00287499
0.00363467
0.00476383
0.00635077
0.00839741
0.0109745
0.0141749
0.0181
0.0228567
0.000331578
0.00051912
0.000910587
0.00131941
0.00176883
0.0022739
0.00286532
0.00360816
0.00468285
0.00622955
0.0082355
0.0107661
0.0139133
0.0177797
0.0224738
0.000330494
0.000518174
0.000909761
0.00131882
0.00176805
0.00227143
0.00285749
0.00358486
0.00460819
0.00611521
0.00808186
0.0105681
0.0136645
0.0174743
0.0221053
0.000329446
0.000517252
0.00090901
0.00131841
0.00176762
0.00226955
0.00285054
0.00356318
0.0045397
0.00600728
0.00793599
0.0103797
0.0134275
0.0171817
0.0217451
0.000328426
0.000516383
0.000908318
0.00131809
0.00176734
0.00226788
0.00284388
0.00354269
0.00447835
0.00590547
0.00779729
0.0102
0.0132003
0.0168981
0.0213874
0.000327453
0.000515545
0.000907645
0.00131776
0.00176704
0.0022662
0.00283744
0.00352386
0.00442581
0.00580971
0.00766529
0.0100284
0.0129832
0.0166302
0.0210811
0.000326505
0.000514696
0.000906932
0.00131736
0.00176663
0.00226449
0.00283148
0.00350747
0.00438297
0.00572004
0.00753958
0.00986441
0.0127752
0.016371
0.0207513
0.000325573
0.000513867
0.000906179
0.00131688
0.00176615
0.00226291
0.00282637
0.00349397
0.00434885
0.00563637
0.00741982
0.00970744
0.0125755
0.0161214
0.0204442
0.000324678
0.000513052
0.000905407
0.00131635
0.00176569
0.00226164
0.00282233
0.00348324
0.00432117
0.00555836
0.00730568
0.00955694
0.0123833
0.0158801
0.0201453
0.000323803
0.000512232
0.000904628
0.00131584
0.00176537
0.0022608
0.00281937
0.00347468
0.00429758
0.00548549
0.00719682
0.00941262
0.0121991
0.0156523
0.0198886
0.000322943
0.000511436
0.000903866
0.00131539
0.00176522
0.00226041
0.00281728
0.00346757
0.00427633
0.00541732
0.00709293
0.00927419
0.0120222
0.0154321
0.0196113
0.000322112
0.000510689
0.000903162
0.00131503
0.00176525
0.00226036
0.00281576
0.00346126
0.00425641
0.00535365
0.00699372
0.0091413
0.0118522
0.0152209
0.0193609
0.000321313
0.000509948
0.000902495
0.00131474
0.00176541
0.00226051
0.00281453
0.0034553
0.00423734
0.00529489
0.00689904
0.00901382
0.0116894
0.0150214
0.0191361
0.000320523
0.000509233
0.000901854
0.00131448
0.00176562
0.00226074
0.00281338
0.0034495
0.00421921
0.00524195
0.00680882
0.00889152
0.0115331
0.014827
0.018884
0.000319756
0.000508546
0.000901231
0.00131422
0.00176581
0.00226093
0.0028122
0.00344388
0.00420246
0.00519598
0.00672313
0.00877415
0.0113825
0.014638
0.0186431
0.000319016
0.000507866
0.000900604
0.00131394
0.00176594
0.00226105
0.00281101
0.00343865
0.00418764
0.00515745
0.00664204
0.00866129
0.0112363
0.0144502
0.018389
0.000318288
0.00050717
0.000899944
0.00131359
0.00176598
0.0022611
0.00280992
0.00343408
0.00417506
0.00512571
0.00656548
0.00855267
0.0110948
0.0142708
0.0181814
0.000317565
0.000506494
0.000899266
0.0013132
0.00176597
0.00226113
0.00280905
0.00343032
0.00416473
0.00509935
0.00649322
0.00844804
0.0109576
0.0140949
0.0179492
0.00031687
0.000505833
0.000898584
0.00131278
0.00176594
0.00226124
0.00280848
0.00342746
0.00415634
0.0050768
0.00642495
0.00834715
0.0108243
0.0139239
0.0177349
0.000316184
0.000505161
0.000897889
0.00131235
0.00176592
0.00226147
0.0028083
0.00342543
0.00414941
0.0050567
0.00636027
0.00824976
0.0106949
0.0137573
0.0175254
0.000315505
0.000504516
0.00089721
0.00131194
0.00176596
0.00226185
0.00280848
0.00342405
0.00414351
0.0050381
0.00629894
0.00815577
0.0105696
0.0135981
0.0173404
0.000314852
0.000503892
0.00089656
0.00131157
0.00176608
0.00226241
0.00280894
0.00342315
0.00413822
0.00502037
0.00624083
0.00806505
0.0104481
0.0134431
0.0171439
0.000314209
0.000503264
0.000895921
0.00131123
0.00176626
0.00226307
0.00280962
0.00342252
0.00413321
0.00500321
0.00618615
0.00797758
0.0103309
0.0132957
0.016976
0.000313571
0.000502653
0.000895303
0.00131091
0.00176649
0.00226382
0.0028104
0.00342201
0.00412832
0.00498658
0.00613543
0.00789333
0.0102173
0.0131503
0.0167808
0.000312953
0.000502077
0.000894709
0.00131062
0.00176674
0.00226459
0.00281119
0.00342149
0.0041235
0.00497071
0.00608945
0.00781231
0.0101073
0.01301
0.0166136
0.000312354
0.000501492
0.000894119
0.00131034
0.00176698
0.00226532
0.00281194
0.00342093
0.00411881
0.00495592
0.00604892
0.00773464
0.0100009
0.0128747
0.0164507
0.000311755
0.000500917
0.000893526
0.00131002
0.00176718
0.002266
0.00281262
0.00342035
0.00411439
0.0049426
0.00601407
0.0076604
0.00989798
0.0127431
0.0162841
0.00031117
0.00050036
0.000892933
0.00130969
0.00176732
0.0022666
0.00281322
0.00341981
0.00411044
0.00493098
0.00598451
0.00758961
0.00979826
0.0126146
0.0161198
0.000310603
0.000499808
0.000892337
0.00130933
0.00176742
0.00226713
0.00281378
0.00341939
0.00410709
0.00492112
0.0059594
0.00752217
0.00970154
0.0124889
0.0159592
0.000310041
0.000499237
0.000891716
0.00130893
0.00176745
0.00226761
0.00281436
0.00341919
0.00410441
0.00491288
0.00593767
0.00745789
0.00960775
0.0123663
0.0158037
0.000309479
0.000498687
0.000891095
0.00130852
0.00176746
0.00226807
0.00281501
0.00341924
0.00410242
0.00490602
0.00591839
0.00739652
0.00951659
0.0122461
0.0156461
0.000308939
0.000498137
0.000890467
0.00130808
0.00176745
0.00226855
0.00281574
0.00341959
0.00410106
0.00490023
0.00590073
0.0073378
0.00942789
0.0121281
0.015495
0.000308397
0.000497593
0.00088984
0.00130765
0.00176745
0.00226906
0.0028166
0.00342023
0.00410022
0.00489522
0.00588416
0.00728159
0.00934178
0.0120147
0.015363
0.000307865
0.000497069
0.000889221
0.00130722
0.00176745
0.00226962
0.00281759
0.00342111
0.00409978
0.00489071
0.00586825
0.00722785
0.00925852
0.0119059
0.0152325
0.00030735
0.000496553
0.000888625
0.00130681
0.00176749
0.00227024
0.00281869
0.00342219
0.00409962
0.0048865
0.00585278
0.00717665
0.00917779
0.0117989
0.0150892
0.000306843
0.000496027
0.000888033
0.00130642
0.00176756
0.00227091
0.00281987
0.00342341
0.00409961
0.00488244
0.00583769
0.00712826
0.00909964
0.011695
0.0149621
0.000306338
0.000495513
0.000887454
0.00130603
0.00176765
0.00227161
0.00282112
0.0034247
0.00409967
0.00487845
0.00582302
0.0070831
0.00902394
0.0115937
0.0148333
0.000305852
0.000495027
0.000886896
0.00130567
0.00176775
0.00227234
0.00282238
0.003426
0.00409975
0.00487452
0.00580896
0.00704172
0.00895081
0.0114953
0.0147083
0.000305386
0.000494549
0.000886355
0.00130533
0.00176787
0.00227306
0.00282364
0.00342729
0.00409981
0.00487071
0.00579573
0.00700456
0.00888
0.0113976
0.0145735
0.000304924
0.000494051
0.000885803
0.00130497
0.00176797
0.00227377
0.00282487
0.00342855
0.00409987
0.0048671
0.00578359
0.00697185
0.00881182
0.0113037
0.0144639
0.000304465
0.000493578
0.000885272
0.00130463
0.00176807
0.00227447
0.00282608
0.00342979
0.00409999
0.00486384
0.00577277
0.00694348
0.00874622
0.0112116
0.0143389
0.000304051
0.000493094
0.000884719
0.00130425
0.00176813
0.00227511
0.00282724
0.003431
0.00410021
0.00486104
0.00576337
0.00691898
0.00868323
0.0111219
0.0142243
0.000303613
0.000492626
0.000884284
0.001304
0.0017683
0.00227585
0.00282848
0.00343235
0.00410066
0.00485887
0.00575547
0.00689782
0.00862291
0.0110347
0.0141126
0.000303358
0.000492071
0.000883585
0.00130349
0.00176833
0.00227657
0.00282984
0.00343392
0.00410159
0.00485754
0.00574908
0.00687937
0.00856547
0.0109505
0.0140043
0.000302677
0.00049173
0.000883545
0.00130307
0.00176781
0.00227626
0.00282985
0.00343409
0.00410125
0.00485537
0.00574265
0.00686207
0.00850896
0.0108672
0.0138921
0.000304333
0.000491953
0.000885754
0.00130928
0.00177735
0.00228821
0.00284331
0.00344807
0.00411458
0.0048664
0.00574853
0.00685571
0.00846629
0.0107946
0.0137947
0.000286575
0.000469904
0.00084128
0.00125064
0.00171128
0.00221957
0.0027753
0.00338248
0.00405183
0.00480552
0.00568678
0.00678627
0.00835722
0.0106739
0.0136762
0.00127113
0.00382935
0.00665616
0.00970317
0.012982
0.016505
0.0202938
0.0243753
0.0287756
0.0335134
0.0385945
0.0440081
0.0497281
0.0557137
0.061921
1.86844e-05
0.000425905
0.00169864
0.003821
0.0063054
0.00927844
0.0127532
0.0167373
0.0212309
0.0262244
0.0316948
0.0376039
0.0438972
0.0505056
0.057356
0
0.000245238
0.00113676
0.00259469
0.00442489
0.00675548
0.00963106
0.0130899
0.0171593
0.0218512
0.0271568
0.0330431
0.039451
0.0462981
0.05349
6.01396e-05
0.000281134
0.00113918
0.002233
0.00370551
0.00562888
0.00806531
0.0110754
0.0147129
0.0190181
0.0240105
0.0296814
0.0359893
0.0428586
0.0501861
0.000120761
0.000539577
0.00108096
0.00200347
0.00327307
0.00494418
0.00708497
0.00976631
0.0130572
0.0170183
0.0216932
0.0270998
0.0332213
0.0400004
0.0473391
0.000363614
0.000601066
0.00100054
0.00181134
0.0029473
0.00444762
0.00637944
0.00881719
0.0118372
0.0155118
0.0199022
0.0250474
0.0309545
0.0375879
0.044862
0.000411937
0.000565353
0.00092178
0.00165386
0.0026845
0.00405749
0.00583138
0.00808049
0.0108841
0.0143213
0.0184643
0.0233682
0.0290599
0.0355261
0.0427026
0.000404109
0.000535897
0.000884888
0.001526
0.00246919
0.00373947
0.00538727
0.007484
0.0101097
0.013347
0.0172749
0.0219597
0.0274427
0.0337236
0.0407297
0.0003966
0.00052626
0.00087206
0.00142325
0.00229353
0.00347531
0.0050184
0.00698819
0.0094639
0.0125298
0.0162693
0.0207567
0.0260456
0.032156
0.0390713
0.000391975
0.000524241
0.000861498
0.00133917
0.0021471
0.00325216
0.00470638
0.00656812
0.00891502
0.0118319
0.015405
0.0197146
0.0248249
0.0307724
0.037555
0.000388003
0.000522574
0.000849142
0.00126865
0.00202342
0.00306326
0.00443866
0.0062066
0.00844121
0.0112271
0.0146521
0.0188013
0.0237472
0.0295384
0.0361851
0.00038402
0.000519623
0.000835573
0.0012115
0.00191776
0.00290114
0.00420601
0.00589141
0.00802707
0.0106966
0.0139889
0.0179922
0.0227848
0.0284219
0.0349133
0.000380324
0.000517501
0.000828782
0.00118726
0.00182863
0.00275991
0.00400141
0.00561356
0.00766114
0.0102265
0.013399
0.0172691
0.0219203
0.0274183
0.0338056
0.0003772
0.000517397
0.00082978
0.00118271
0.00175378
0.00263605
0.00382101
0.00536647
0.0073349
0.00980628
0.0128701
0.0166184
0.0211392
0.0265062
0.032768
0.000374535
0.000518352
0.000833569
0.00118061
0.00168987
0.0025269
0.00366111
0.00514509
0.00704178
0.00942793
0.0123925
0.0160287
0.0204275
0.0256656
0.0317848
0.000372064
0.000519017
0.000836166
0.0011753
0.00163388
0.00242992
0.00351797
0.00494534
0.00677661
0.00908492
0.0119583
0.0154907
0.0197746
0.0248897
0.030886
0.000369606
0.000518738
0.000836179
0.00116667
0.00158588
0.00234297
0.00338862
0.00476381
0.00653522
0.00877212
0.0115615
0.0149975
0.0191747
0.0241791
0.0300849
0.000367169
0.000517896
0.000835318
0.00116038
0.001559
0.00226621
0.00327146
0.00459909
0.00631441
0.00848537
0.011197
0.0145435
0.0186214
0.0235216
0.0293216
0.000364884
0.0005173
0.000835965
0.00116011
0.00155134
0.00219966
0.0031653
0.00444902
0.00611157
0.00822134
0.0108608
0.014124
0.0181088
0.022909
0.0286018
0.000362829
0.000517299
0.000838593
0.001164
0.00155
0.00214169
0.00306886
0.00431147
0.00592445
0.00797723
0.0105495
0.0137348
0.0176317
0.0223355
0.0279237
0.000360976
0.000517654
0.000842124
0.00116872
0.00154794
0.00209013
0.00298081
0.00418472
0.00575112
0.00775071
0.0102601
0.0133722
0.017186
0.0217978
0.027289
0.000359238
0.000517941
0.000845269
0.00117211
0.00154317
0.0020434
0.00289993
0.00406743
0.00559018
0.00753979
0.00999029
0.0130335
0.0167686
0.0212931
0.026691
0.000357541
0.00051787
0.000847275
0.00117345
0.00153619
0.00200308
0.00282547
0.00395876
0.00544102
0.00734285
0.00973782
0.0127158
0.0163753
0.0208128
0.0261046
0.000355859
0.000517439
0.000848286
0.00117379
0.00153067
0.00197783
0.00275797
0.00385798
0.00530223
0.00715847
0.00950093
0.0124173
0.016006
0.0203677
0.0256073
0.00035422
0.000516885
0.000849098
0.00117491
0.00152962
0.00196806
0.00269792
0.00376449
0.00517256
0.00698537
0.00927809
0.012136
0.0156571
0.019941
0.0250688
0.000352666
0.000516461
0.000850413
0.0011777
0.0015326
0.00196567
0.00264458
0.00367768
0.00505105
0.00682246
0.00906797
0.0118703
0.0153267
0.0195358
0.0245846
0.000351218
0.000516268
0.000852398
0.00118183
0.00153748
0.00196457
0.00259652
0.00359685
0.00493685
0.00666867
0.00886932
0.0116187
0.0150128
0.01915
0.0241196
0.000349879
0.000516208
0.000854746
0.00118641
0.00154231
0.00196214
0.0025525
0.00352136
0.00482939
0.00652387
0.00868122
0.0113801
0.0147155
0.018789
0.0237119
0.000348603
0.000516152
0.000857
0.00119057
0.00154596
0.00195769
0.00251186
0.00345065
0.00472823
0.00638732
0.00850286
0.0111536
0.0144335
0.0184461
0.0232993
0.000347358
0.000515996
0.000858807
0.0011938
0.00154807
0.0019518
0.00247638
0.00338445
0.00463285
0.0062582
0.00833355
0.0109386
0.0141661
0.0181211
0.0229136
0.000346142
0.00051567
0.000860061
0.00119611
0.00154926
0.0019467
0.00245159
0.00332315
0.00454279
0.00613583
0.00817261
0.0107339
0.0139107
0.0178057
0.0225126
0.000344953
0.000515195
0.0008609
0.00119797
0.00155069
0.00194472
0.00243917
0.00326732
0.00445781
0.00601966
0.00801939
0.0105388
0.0136672
0.0175078
0.0221725
0.000343777
0.000514698
0.00086163
0.00119997
0.00155328
0.00194629
0.00243468
0.00321681
0.00437763
0.00590921
0.00787326
0.0103526
0.0134344
0.0172212
0.021815
0.000342654
0.00051426
0.000862517
0.00120247
0.00155719
0.0019503
0.00243325
0.00317083
0.00430191
0.00580409
0.00773392
0.0101745
0.013211
0.0169441
0.021473
0.000341596
0.000513901
0.000863662
0.00120552
0.00156202
0.00195531
0.002432
0.00312847
0.00423038
0.00570405
0.00760122
0.0100041
0.0129975
0.0166831
0.0211775
0.000340583
0.000513623
0.000864992
0.00120888
0.00156715
0.00196018
0.00242967
0.00308897
0.00416266
0.00560877
0.00747459
0.00984073
0.0127923
0.0164282
0.0208469
0.000339604
0.000513402
0.000866369
0.00121223
0.00157202
0.0019642
0.00242591
0.00305206
0.00409843
0.00551795
0.00735356
0.00968411
0.0125955
0.0161864
0.0205726
0.000338676
0.000513147
0.000867636
0.00121528
0.00157626
0.00196711
0.00242099
0.0030187
0.00403751
0.00543127
0.0072377
0.00953381
0.0124066
0.0159544
0.0202936
0.000337765
0.000512831
0.000868668
0.00121786
0.00157975
0.0019691
0.00241604
0.00299198
0.00398008
0.00534845
0.00712666
0.00938959
0.0122258
0.015735
0.0200441
0.000336861
0.000512464
0.000869432
0.00121997
0.00158262
0.00197082
0.00241274
0.00297473
0.00392658
0.00526937
0.00702021
0.00925116
0.0120522
0.0155218
0.0197729
0.000335987
0.000512025
0.000869982
0.00122175
0.00158527
0.00197302
0.00241216
0.00296594
0.00387726
0.00519392
0.00691809
0.00911814
0.0118853
0.0153158
0.01952
0.000335125
0.000511556
0.000870413
0.00122341
0.00158806
0.0019762
0.00241425
0.00296234
0.00383195
0.00512198
0.0068201
0.00899034
0.0117237
0.0151123
0.0192506
0.000334277
0.000511117
0.000870844
0.00122516
0.00159126
0.00198043
0.00241822
0.00296097
0.00379011
0.00505337
0.00672602
0.00886743
0.0115674
0.0149176
0.0190255
0.000333465
0.000510714
0.000871369
0.00122711
0.0015949
0.00198545
0.00242314
0.00295997
0.00375111
0.00498793
0.00663566
0.00874906
0.0114162
0.0147285
0.0187879
0.000332693
0.000510332
0.000871995
0.00122928
0.0015989
0.0019909
0.00242821
0.00295842
0.00371448
0.00492544
0.00654881
0.00863492
0.01127
0.0145455
0.0185633
0.000331936
0.000510004
0.000872702
0.00123157
0.00160303
0.00199639
0.00243289
0.00295592
0.00367988
0.00486565
0.00646523
0.00852467
0.0111282
0.0143673
0.0183403
0.000331212
0.000509704
0.000873437
0.00123387
0.0016071
0.00200158
0.00243688
0.00295243
0.0036474
0.00480838
0.00638472
0.00841817
0.0109912
0.0141974
0.0181431
0.00033052
0.000509389
0.000874138
0.00123607
0.00161093
0.00200628
0.00244006
0.00294826
0.00361807
0.00475358
0.00630709
0.00831509
0.0108578
0.0140268
0.0179052
0.000329838
0.000509061
0.000874737
0.00123806
0.00161439
0.00201042
0.00244259
0.00294415
0.00359396
0.00470135
0.00623219
0.00821531
0.0107289
0.0138679
0.0177464
0.000329163
0.000508731
0.00087522
0.00123981
0.00161746
0.00201407
0.00244485
0.00294117
0.00357691
0.00465202
0.00615994
0.0081187
0.0106037
0.0137095
0.0175205
0.000328515
0.000508357
0.000875585
0.00124132
0.00162021
0.00201745
0.00244733
0.00294016
0.00356673
0.00460583
0.00609029
0.00802507
0.0104819
0.013554
0.0173257
0.000327875
0.000507957
0.000875845
0.00124265
0.00162275
0.0020208
0.00245044
0.00294131
0.00356162
0.00456276
0.00602317
0.00793428
0.0103636
0.013404
0.0171455
0.000327238