/*--------------------------------*- C++ -*----------------------------------*\
| =========                 |                                                 |
| \\      /  F ield         | OpenFOAM: The Open Source CFD Toolbox           |
|  \\    /   O peration     | Version:  2.3.0                                 |
|   \\  /    A nd           | Web:      www.OpenFOAM.org                      |
|    \\/     M anipulation  |                                                 |
\*---------------------------------------------------------------------------*/
FoamFile
{
    version     2.0;
    format      ascii;
    class       volScalarField;
    location    "300";
    object      p;
}
// * * * * * * * * * * * * * * * * * * * * * * * * * * * * * * * * * * * * * //

dimensions      [0 2 -2 0 0 0 0];

internalField   nonuniform List<scalar> 
7826
(
-0.000443892
-0.776899
-1.29718
-1.50189
-1.41049
-1.08136
-0.576602
0.0599209
0.821053
1.73162
2.82687
4.1051
5.49086
7.20793
10.5673
2.20118
1.75267
1.35358
1.06548
0.95682
1.09747
1.54394
2.3254
3.44308
4.869
6.55769
8.45163
10.4902
12.6329
14.8524
4.50203
4.68153
5.01932
5.51542
6.14873
6.88726
7.69902
8.55743
9.44231
10.3384
11.2334
12.1191
12.9846
13.8255
14.6428
6.08148
6.35897
6.72316
7.17026
7.6979
8.29825
8.96034
9.67142
10.4178
11.1868
11.9651
12.7429
13.5092
14.2575
14.9841
7.36032
7.72536
8.15586
8.63826
9.16282
9.7179
10.2932
10.8804
11.4722
12.0636
12.6501
13.2285
13.7953
14.3488
14.8885
8.30508
8.6676
9.07337
9.50803
9.9676
10.4461
10.9384
11.4399
11.9461
12.454
12.9606
13.4631
13.9593
14.447
14.9254
9.04345
9.38743
9.76677
10.1625
10.5731
10.995
11.4251
11.8606
12.2992
12.7391
13.1783
13.6156
14.0489
14.4772
14.8992
9.62244
9.93201
10.2772
10.6323
10.9981
11.373
11.7549
12.1424
12.5339
12.928
13.3233
13.7188
14.1126
14.5038
14.8908
10.0865
10.359
10.6705
10.9902
11.3195
11.657
12.0014
12.3518
12.7071
13.0661
13.4279
13.7911
14.1545
14.5168
14.8767
10.4526
10.6957
10.9759
11.2658
11.5655
11.8728
12.1882
12.5098
12.8373
13.1697
13.5057
13.844
14.1841
14.5244
14.8637
10.7222
10.9563
11.2144
11.4805
11.7578
12.0407
12.3336
12.6322
12.9376
13.2489
13.5654
13.884
14.2059
14.5291
14.8522
10.9197
11.1584
11.4018
11.6482
11.9088
12.171
12.4465
12.7263
13.0147
13.3085
13.6112
13.9165
14.2279
14.5397
14.8499
11.1437
11.3484
11.5644
11.7933
12.0392
12.283
12.5446
12.8095
13.0877
13.3687
13.6526
13.9359
14.2262
14.5244
14.8255
11.3732
11.5325
11.7504
11.9308
12.1933
12.3814
12.6625
12.8983
13.1607
13.4289
13.7278
13.9214
14.164
14.4356
14.7268
17.3569
20.2837
21.8304
23.3856
24.9514
26.4176
27.7556
28.96
29.9992
30.8115
31.3234
31.4713
31.2269
30.628
29.823
17.0631
19.2412
21.2824
23.1683
24.864
26.3267
27.5166
28.4032
28.9751
29.2436
29.2413
29.02
28.6396
28.1612
27.6508
15.451
16.2744
17.1232
18.001
18.9006
19.8133
20.7292
21.6333
22.5058
23.3206
24.0447
24.6414
25.0788
25.3472
25.4781
15.698
16.4165
17.1485
17.8906
18.6351
19.3717
20.0908
20.7798
21.4273
22.0215
22.551
23.0058
23.3788
23.672
23.89
15.4214
15.9602
16.5109
17.0728
17.6434
18.2193
18.7968
19.3709
19.9355
20.4829
21.0029
21.4841
21.9145
22.2877
22.587
15.398
15.8734
16.3549
16.8416
17.3312
17.8213
18.309
18.7912
19.2646
19.7247
20.1669
20.5856
20.9742
21.3315
21.6601
15.3176
15.7378
16.1619
16.5889
17.0172
17.445
17.8705
18.2919
18.7072
19.1133
19.5078
19.8868
20.2461
20.5824
20.8855
15.2752
15.6601
16.047
16.4347
16.8213
17.2057
17.5863
17.9617
18.3306
18.6912
19.0418
19.3804
19.7041
20.0097
20.3017
15.2347
15.5926
15.9511
16.3088
16.6643
17.016
17.3632
17.7044
18.0385
18.3647
18.6814
18.9874
19.2797
19.5545
19.8318
15.2018
15.5393
15.8766
16.2119
16.5437
16.8706
17.192
17.5067
17.8137
18.1124
18.4019
18.6815
18.9496
19.2039
19.4733
15.1755
15.4967
15.8181
16.1357
16.4483
16.7549
17.0558
17.3492
17.6348
17.9113
18.179
18.4364
18.6835
18.9177
19.1647
15.1617
15.4686
15.7768
16.0782
16.3735
16.6622
16.9471
17.2229
17.4911
17.7495
18.0003
18.2387
18.4681
18.685
18.9061
15.1255
15.4208
15.7135
16.0126
16.3029
16.577
16.8487
17.1118
17.3678
17.61
17.8457
18.0651
18.2784
18.4781
18.6838
15.0613
15.3086
15.6342
15.9483
16.2399
16.4946
16.7514
17.007
17.2549
17.482
17.6996
17.9014
18.0961
18.2691
18.4321
11.6866
11.7936
11.9427
12.1413
12.3739
12.6164
12.8415
13.0278
13.1632
13.2451
13.2778
13.2662
13.2138
13.1147
13.14
11.8029
11.8369
11.8519
11.8448
11.8125
11.7597
11.6956
11.6311
11.575
11.5323
11.5036
11.4852
11.4768
11.4614
11.4778
11.8328
11.8185
11.7734
11.7159
11.6583
11.611
11.5792
11.5637
11.5617
11.5684
11.5786
11.5862
11.5926
11.6016
11.6235
11.9327
11.9466
11.9545
11.9683
11.9895
12.0163
12.0461
12.0762
12.1045
12.1294
12.1496
12.1624
12.1696
12.1809
12.2026
12.0561
12.0905
12.1199
12.1506
12.1814
12.2107
12.2384
12.2646
12.2892
12.3117
12.3311
12.3455
12.3553
12.3697
12.3936
12.1352
12.1728
12.195
12.2157
12.2362
12.2563
12.2768
12.2979
12.3191
12.3393
12.357
12.3708
12.3807
12.3955
12.4206
12.2047
12.232
12.25
12.2685
12.2871
12.3057
12.3244
12.343
12.3611
12.378
12.3925
12.4036
12.4119
12.4257
12.4513
12.2708
12.2932
12.3113
12.3295
12.3471
12.3636
12.379
12.3932
12.4063
12.4177
12.427
12.4337
12.4389
12.4509
12.4768
12.3109
12.3444
12.3646
12.3824
12.3979
12.411
12.4217
12.4301
12.4362
12.4398
12.4405
12.4389
12.4373
12.4454
12.471
12.3781
12.3955
12.4134
12.4297
12.4434
12.4542
12.4618
12.4656
12.4654
12.4607
12.4506
12.435
12.4194
12.4153
12.4357
12.4268
12.4446
12.4598
12.4738
12.4859
12.4951
12.4996
12.498
12.4902
12.4756
12.4495
12.4101
12.3645
12.3435
12.3599
12.4712
12.4911
12.5066
12.5216
12.5366
12.5502
12.5599
12.5626
12.5573
12.548
12.5268
12.46
12.3669
12.2734
12.2538
12.5135
12.5242
12.5341
12.5451
12.5571
12.5672
12.571
12.5592
12.5326
12.5151
12.4896
12.3853
12.1349
12.0458
12.0081
12.5907
12.6094
12.6179
12.632
12.6647
12.7087
12.7633
12.8088
12.7984
12.8437
13.0517
12.9651
12.6079
12.0453
11.7311
13.1975
13.2411
13.4064
13.523
13.6051
13.6466
13.6409
13.5836
13.4809
13.3532
13.2318
13.1491
13.1322
13.1882
13.3016
11.5069
11.5319
11.5905
11.6416
11.7144
11.8118
11.9392
12.0952
12.2731
12.4609
12.6437
12.8086
12.9548
13.0907
13.2243
11.6545
11.6889
11.7336
11.7768
11.8255
11.881
11.9513
12.0422
12.1585
12.3014
12.4668
12.6443
12.8227
12.9934
13.1518
12.2312
12.2659
12.3079
12.3508
12.3924
12.4337
12.4781
12.527
12.5821
12.6456
12.72
12.8074
12.9091
13.0242
13.1499
12.4211
12.4529
12.4913
12.5312
12.5699
12.6094
12.6523
12.6994
12.751
12.807
12.8676
12.9335
13.0067
13.0891
13.1829
12.448
12.4795
12.5189
12.56
12.6002
12.6416
12.686
12.7345
12.7878
12.846
12.9091
12.9771
13.0495
13.1261
13.2084
12.479
12.5118
12.5545
12.5998
12.6447
12.6905
12.7383
12.7886
12.8417
12.8977
12.9571
13.0202
13.087
13.1571
13.232
12.5048
12.5396
12.5866
12.6377
12.6897
12.7426
12.7967
12.8515
12.9068
12.9625
13.0189
13.0763
13.135
13.1952
13.2586
12.5003
12.5393
12.5941
12.6552
12.7184
12.7823
12.8457
12.9073
12.9667
13.0236
13.0786
13.1322
13.1848
13.237
13.2916
12.4646
12.5094
12.5768
12.6548
12.7366
12.8178
12.8947
12.9648
13.0278
13.0849
13.1373
13.1866
13.2336
13.2789
13.3256
12.3976
12.4617
12.5543
12.6601
12.7687
12.8718
12.9616
13.0372
13.0995
13.1525
13.1993
13.2421
13.282
13.3196
13.3564
12.2926
12.3697
12.4891
12.6345
12.7902
12.9317
13.0458
13.124
13.1802
13.2236
13.2617
13.2968
13.3289
13.3584
13.3849
12.1479
12.3169
12.5115
12.7264
12.9227
13.1012
13.1855
13.2417
13.27
13.2963
13.3238
13.3514
13.3744
13.3969
13.4181
11.9852
12.0592
12.2329
12.5044
12.8464
13.1278
13.3065
13.3434
13.3483
13.3508
13.3689
13.3946
13.4144
13.4316
13.4453
-91.0664
-85.4494
-79.365
-73.1981
-66.4757
-59.0485
-51.1056
-42.9221
-34.821
-27.1566
-20.2673
-14.4052
-9.67125
-5.98467
-3.06719
-14.6551
-15.8362
-16.6262
-17.2279
-17.7341
-18.1115
-18.2617
-18.0659
-17.4063
-16.1962
-14.4163
-12.1452
-9.56132
-6.8977
-4.25083
-8.76197
-9.30723
-9.36403
-9.44894
-9.60622
-9.74721
-9.82226
-9.80389
-9.66241
-9.35831
-8.8411
-8.05569
-6.96416
-5.58415
-3.94501
-12.7644
-12.7715
-12.4026
-12.1549
-11.9003
-11.565
-11.1323
-10.5906
-9.92582
-9.13066
-8.2093
-7.17261
-6.02845
-4.78087
-3.41255
-9.73526
-9.45208
-9.22474
-9.13696
-9.01717
-8.85089
-8.63566
-8.3561
-7.98759
-7.50374
-6.88134
-6.10667
-5.18093
-4.12315
-3.01877
-5.6238
-5.34307
-5.34736
-5.37332
-5.37344
-5.36301
-5.33828
-5.28389
-5.18153
-5.00958
-4.74178
-4.34942
-3.80659
-3.09207
-2.25418
-3.53337
-3.46776
-3.51941
-3.52365
-3.52257
-3.5216
-3.51287
-3.48454
-3.42487
-3.31979
-3.15202
-2.90105
-2.54401
-2.05137
-1.43431
-2.43699
-2.44289
-2.45711
-2.44124
-2.42994
-2.41674
-2.39589
-2.36018
-2.30107
-2.20751
-2.06613
-1.86158
-1.57731
-1.19046
-0.702606
-1.44361
-1.45335
-1.4476
-1.43292
-1.42112
-1.40665
-1.38635
-1.35607
-1.30933
-1.23736
-1.12905
-0.971019
-0.748431
-0.441676
-0.0476109
-0.554657
-0.556226
-0.545962
-0.53405
-0.52245
-0.508655
-0.489997
-0.464074
-0.426132
-0.369517
-0.28555
-0.16328
0.0104348
0.253893
0.58154
0.200505
0.203292
0.213065
0.223869
0.235274
0.248576
0.266239
0.289995
0.323571
0.372199
0.442755
0.544044
0.687
0.887169
1.16495
0.863071
0.866883
0.87566
0.885997
0.897152
0.909697
0.925463
0.946456
0.975698
1.01744
1.07738
1.16285
1.28292
1.44983
1.68374
1.45819
1.46194
1.47014
1.4802
1.49111
1.5027
1.51631
1.53447
1.55948
1.59482
1.64524
1.71691
1.81761
1.9574
2.1546
1.99461
1.99815
2.00591
2.01554
2.02584
2.03629
2.04814
2.06408
2.0857
2.11589
2.15862
2.21897
2.30333
2.41977
2.58565
2.48013
2.48344
2.49073
2.49973
2.50922
2.51877
2.5295
2.54375
2.56284
2.58928
2.62652
2.67903
2.75257
2.85446
3.00834
2.92238
2.92542
2.9322
2.94057
2.94938
2.95856
2.96871
2.98155
2.99861
3.02213
3.05518
3.10181
3.1674
3.25805
3.39656
3.32678
3.32961
3.33596
3.34383
3.35221
3.36131
3.37102
3.38252
3.39779
3.41871
3.44792
3.489
3.54674
3.6258
3.74552
3.69845
3.70112
3.70712
3.71462
3.72267
3.73154
3.74064
3.75096
3.7647
3.78331
3.80909
3.84513
3.89563
3.96446
4.06767
4.04238
4.04491
4.0506
4.05773
4.0654
4.0738
4.08222
4.09161
4.10409
4.12079
4.14376
4.1757
4.22032
4.28081
4.37264
4.36234
4.36473
4.3701
4.37685
4.38408
4.39193
4.39984
4.40862
4.42006
4.4352
4.45592
4.4847
4.52502
4.58005
4.66196
4.66069
4.66293
4.66799
4.67435
4.68117
4.68857
4.69625
4.70466
4.71509
4.72879
4.74741
4.77311
4.80883
4.85712
4.92733
4.93997
4.94206
4.94684
4.95285
4.95932
4.9664
4.97401
4.98208
4.99156
5.00399
5.02076
5.04377
5.07575
5.11975
5.17857
5.20252
5.20451
5.20905
5.21479
5.22102
5.22789
5.23541
5.24314
5.25186
5.26334
5.27871
5.29969
5.32864
5.36917
5.4318
5.4506
5.4525
5.45685
5.46237
5.46839
5.47506
5.48234
5.48966
5.49778
5.50849
5.52271
5.54205
5.56855
5.60491
5.66124
5.6856
5.68741
5.69157
5.69687
5.70267
5.70908
5.71603
5.72296
5.73062
5.74066
5.75386
5.77173
5.79617
5.82896
5.87921
5.90876
5.91048
5.91446
5.91951
5.92506
5.93116
5.93775
5.9444
5.95175
5.9612
5.97358
5.99035
6.01349
6.04472
6.09281
6.12033
6.12196
6.12576
6.1306
6.13591
6.14176
6.14809
6.15466
6.16186
6.17078
6.18246
6.19828
6.2202
6.24984
6.29428
6.32143
6.32297
6.32659
6.33121
6.33628
6.34187
6.34795
6.35446
6.36142
6.36966
6.38041
6.39485
6.41472
6.44124
6.4743
6.51279
6.51425
6.51771
6.52212
6.52698
6.53236
6.53826
6.54466
6.5513
6.55886
6.56874
6.58187
6.59979
6.62408
6.65376
6.69545
6.69686
6.70021
6.70445
6.70915
6.71439
6.72015
6.72642
6.73277
6.73984
6.74914
6.76144
6.77819
6.80153
6.82864
6.87008
6.87146
6.87471
6.87885
6.88346
6.8886
6.89425
6.90036
6.90646
6.91319
6.92204
6.93365
6.94928
6.97101
6.99614
7.03831
7.0396
7.04269
7.04665
7.05107
7.05601
7.06143
7.06727
7.07306
7.07945
7.0878
7.0987
7.11331
7.13344
7.15148
7.1991
7.20037
7.2034
7.20727
7.21158
7.2164
7.22167
7.22728
7.23289
7.23904
7.2469
7.25705
7.27053
7.28985
7.30297
7.35375
7.355
7.35793
7.36168
7.36588
7.37058
7.3757
7.38117
7.38677
7.39289
7.4005
7.41035
7.42341
7.44337
7.4634
7.50356
7.50471
7.50748
7.51105
7.51504
7.51952
7.52441
7.52968
7.53525
7.54125
7.54848
7.55788
7.57013
7.58833
7.60328
7.64658
7.64773
7.65047
7.65399
7.65792
7.66234
7.66718
7.67242
7.67804
7.68396
7.69083
7.69976
7.71129
7.72851
7.74628
7.78505
7.78617
7.78882
7.79222
7.79603
7.80034
7.80508
7.81024
7.81586
7.82166
7.82821
7.83682
7.84789
7.86413
7.88186
7.91942
7.92047
7.923
7.92626
7.92993
7.93409
7.93869
7.94371
7.9492
7.95476
7.96095
7.96916
7.97971
7.99471
8.01119
8.04895
8.04997
8.05246
8.05565
8.05923
8.0633
8.06782
8.07272
8.07801
8.08326
8.08901
8.09653
8.10605
8.11907
8.12608
8.17453
8.17554
8.17796
8.18107
8.18457
8.18856
8.19298
8.19774
8.20283
8.2078
8.21316
8.22007
8.2286
8.24099
8.24539
8.29693
8.2979
8.30025
8.30329
8.30672
8.31062
8.31494
8.31961
8.32458
8.32948
8.33482
8.34172
8.35035
8.36409
8.37209
8.41613
8.41707
8.41937
8.42233
8.42568
8.42951
8.43376
8.43834
8.44321
8.44811
8.45348
8.46034
8.46875
8.48224
8.49157
8.53207
8.53299
8.53523
8.53811
8.54138
8.54511
8.54927
8.55375
8.55851
8.56342
8.56879
8.57551
8.58369
8.59656
8.6101
8.64452
8.64543
8.64762
8.65044
8.65365
8.65732
8.66138
8.66578
8.67047
8.67541
8.68074
8.68722
8.69519
8.70728
8.72167
8.75438
8.75523
8.75733
8.76006
8.76315
8.76669
8.77063
8.77492
8.77952
8.78447
8.78974
8.79602
8.80389
8.81537
8.83607
8.86098
8.86183
8.8639
8.86657
8.8696
8.87306
8.87691
8.8811
8.88556
8.89038
8.89531
8.90084
8.90756
8.91553
8.92513
8.96505
8.96589
8.96792
8.97053
8.9735
8.9769
8.98068
8.9848
8.9892
8.99395
8.99868
9.00386
9.01035
9.01838
9.03408
9.06771
9.06849
9.07043
9.07294
9.0758
9.07909
9.08277
9.08682
9.0912
9.09595
9.10073
9.10606
9.11308
9.12175
9.13912
9.1674
9.16819
9.17012
9.17262
9.17547
9.17876
9.18245
9.18652
9.1909
9.19566
9.20041
9.20571
9.21277
9.22105
9.23764
9.26499
9.26577
9.26767
9.27012
9.27292
9.27616
9.2798
9.28379
9.28808
9.29267
9.29717
9.30204
9.30844
9.31556
9.32973
9.36103
9.36176
9.36357
9.36594
9.36864
9.37176
9.37528
9.37914
9.38329
9.38769
9.392
9.39669
9.40289
9.40971
9.42626
9.45484
9.45555
9.45734
9.45966
9.46231
9.46537
9.46883
9.47262
9.47665
9.48089
9.48505
9.4895
9.49525
9.50081
9.51017
9.54645
9.54718
9.54896
9.55127
9.55391
9.55696
9.56041
9.56418
9.5682
9.57243
9.57666
9.58123
9.58719
9.59379
9.60843
9.63685
9.63754
9.63926
9.64151
9.64409
9.64708
9.65046
9.65418
9.65818
9.66241
9.66681
9.67166
9.67804
9.68548
9.6986
9.7253
9.72597
9.72766
9.72986
9.73238
9.7353
9.73861
9.74224
9.74614
9.75027
9.75461
9.75926
9.76504
9.77158
9.7816
9.81174
9.81241
9.81407
9.81621
9.81868
9.82153
9.82477
9.82831
9.8321
9.83612
9.84039
9.84484
9.85016
9.85641
9.86729
9.89631
9.89698
9.89861
9.90074
9.90319
9.90602
9.90921
9.91273
9.9165
9.92051
9.92484
9.9293
9.93452
9.94072
9.95257
9.98009
9.98071
9.98227
9.98431
9.98665
9.98938
9.99247
9.9959
9.99961
10.0036
10.0079
10.0124
10.0175
10.0233
10.0347
10.0615
10.0621
10.0637
10.0657
10.0681
10.0708
10.0739
10.0773
10.0811
10.085
10.0894
10.0937
10.0987
10.1041
10.1138
10.1418
10.1424
10.144
10.1459
10.1482
10.1509
10.154
10.1573
10.1611
10.1651
10.1695
10.1739
10.1791
10.1851
10.1973
10.2205
10.2211
10.2226
10.2246
10.2268
10.2294
10.2325
10.2359
10.2396
10.2437
10.2483
10.2529
10.2586
10.2655
10.2789
10.2976
10.2981
10.2996
10.3015
10.3037
10.3063
10.3092
10.3126
10.3163
10.3204
10.3249
10.3294
10.3349
10.3411
10.3507
10.3716
10.3722
10.3737
10.3757
10.3779
10.3806
10.3836
10.387
10.3908
10.3949
10.3992
10.4036
10.4084
10.4138
10.4222
10.4455
10.446
10.4474
10.4493
10.4514
10.454
10.457
10.4603
10.4641
10.4682
10.4727
10.4774
10.483
10.4899
10.5045
10.5169
10.5174
10.5188
10.5207
10.5228
10.5254
10.5284
10.5318
10.5357
10.54
10.5448
10.5499
10.5562
10.5634
10.5759
10.5857
10.5862
10.5876
10.5894
10.5916
10.5942
10.5972
10.6007
10.6047
10.6093
10.6144
10.62
10.6267
10.6343
10.6475
10.6509
10.6515
10.6529
10.6547
10.6569
10.6595
10.6627
10.6664
10.6708
10.6758
10.6815
10.6881
10.696
10.705
10.7216
10.7134
10.7139
10.7152
10.717
10.7192
10.7219
10.7252
10.7291
10.7339
10.7397
10.7467
10.7551
10.7657
10.7781
10.8045
10.7679
10.7685
10.7698
10.7716
10.7739
10.7769
10.7806
10.7852
10.791
10.7981
10.807
10.818
10.8318
10.8468
10.869
10.8183
10.8188
10.8202
10.8221
10.8245
10.8277
10.8318
10.8372
10.844
10.8528
10.864
10.8781
10.8958
10.9155
10.9424
10.8428
10.8433
10.8446
10.8467
10.8496
10.8537
10.8595
10.8674
10.8779
10.8916
10.9091
10.9308
10.9568
10.9853
11.0168
10.8873
10.8879
10.8895
10.8919
10.8951
10.8996
10.906
10.915
10.9275
10.9444
10.9666
10.9945
11.0277
11.064
11.0998
10.7627
10.7627
10.7644
10.7685
10.7764
10.7893
10.8086
10.8356
10.8714
10.9162
10.9691
11.0276
11.0875
11.1441
11.1908
10.9713
10.9733
10.9731
10.9785
10.9871
10.9989
11.0147
11.0359
11.0636
11.0986
11.1409
11.1883
11.2371
11.283
11.3182
9.70005
9.62239
9.68092
9.76057
9.85757
9.98038
10.1349
10.3199
10.5285
10.7478
10.9602
11.1471
11.293
11.3928
11.4438
113.491
108.307
102.589
96.8651
90.7275
84.0036
76.8361
69.4483
62.1047
55.1086
48.7646
43.3096
38.8481
35.3407
32.7255
44.176
43.6965
44.4078
45.087
45.5702
45.8858
46.0051
45.8369
45.2758
44.2345
42.6787
40.6572
38.3104
35.8453
33.5797
37.2524
37.1748
37.5997
37.7846
37.9228
38.0441
38.1204
38.1154
38.001
37.7451
37.3028
36.6192
35.6465
34.3763
32.9699
39.293
39.2957
39.389
39.2515
39.0854
38.8739
38.5905
38.2126
37.7247
37.1167
36.3861
35.5359
34.5661
33.466
32.3017
36.1127
36.3706
36.4292
36.3787
36.3327
36.2635
36.1557
35.9936
35.7572
35.4206
34.958
34.3498
33.588
32.6725
31.6588
33.4397
33.7422
33.7214
33.7062
33.7026
33.6844
33.6457
33.5805
33.4776
33.3193
33.0828
32.7406
32.2657
31.6334
30.8614
32.2741
32.3765
32.3186
32.3109
32.2967
32.2635
32.2114
32.1377
32.0351
31.8936
31.7003
31.4381
31.0861
30.618
30.0181
31.1117
31.1232
31.1012
31.1075
31.0972
31.0728
31.0337
30.9762
30.894
30.7787
30.6196
30.4038
30.1159
29.7379
29.2423
29.9178
29.9168
29.9208
29.9292
29.9256
29.9152
29.8947
29.8606
29.808
29.7303
29.6181
29.4598
29.2418
28.9523
28.5791
28.9123
28.9147
28.9241
28.9296
28.9289
28.9245
28.9124
28.8896
28.8529
28.7973
28.7155
28.5981
28.4331
28.2098
27.9192
28.0736
28.0779
28.0862
28.0903
28.0911
28.0891
28.0806
28.0636
28.0352
27.9914
27.9265
27.8326
27.6995
27.5163
27.2787
27.3342
27.3386
27.3459
27.3508
27.353
27.3525
27.3467
27.3341
27.3122
27.2776
27.2253
27.1488
27.0392
26.8858
26.6886
26.6686
26.6731
26.6807
26.6874
26.691
26.6915
26.6879
26.6788
26.6622
26.635
26.5935
26.5321
26.4436
26.3187
26.1614
26.0707
26.0755
26.0835
26.0914
26.0956
26.0967
26.0947
26.0882
26.0753
26.0537
26.0201
25.9699
25.8969
25.7921
25.6561
25.5326
25.5373
25.545
25.5528
25.5569
25.5582
25.5573
25.5524
25.5421
25.5244
25.4962
25.4537
25.3914
25.3006
25.18
25.043
25.0473
25.0544
25.0615
25.0651
25.0667
25.0666
25.063
25.0547
25.04
25.0165
24.9808
24.9283
24.8528
24.7566
24.5924
24.5961
24.6026
24.609
24.6127
24.6148
24.6152
24.6126
24.606
24.5939
24.5743
24.5442
24.4997
24.4352
24.3549
24.1729
24.1762
24.1824
24.1888
24.1933
24.1961
24.1969
24.1951
24.1898
24.1797
24.1629
24.1368
24.0978
24.0399
23.9664
23.7814
23.7847
23.7909
23.7975
23.8029
23.8062
23.8073
23.8062
23.8021
23.7936
23.7792
23.7565
23.7225
23.6717
23.6079
23.4171
23.4203
23.4264
23.4332
23.4389
23.4424
23.4437
23.4433
23.4401
23.4331
23.4209
23.4015
23.3721
23.3279
23.2733
23.0774
23.0806
23.0865
23.093
23.0986
23.1019
23.1033
23.1035
23.1011
23.0954
23.085
23.0683
23.0429
23.0045
22.9583
22.7588
22.7618
22.7673
22.7735
22.7786
22.7817
22.7833
22.7838
22.782
22.7772
22.7683
22.7537
22.7314
22.6973
22.6561
22.4578
22.4604
22.4656
22.4713
22.4761
22.4792
22.481
22.4818
22.4804
22.4763
22.4685
22.4555
22.4355
22.4046
22.3663
22.1713
22.1737
22.1786
22.184
22.1887
22.1922
22.1945
22.1954
22.1944
22.1909
22.1841
22.1725
22.1545
22.1268
22.0929
21.8981
21.9004
21.9051
21.9104
21.9152
21.9194
21.9221
21.9231
21.9225
21.9197
21.9138
21.9037
21.8879
21.8634
21.8387
21.6377
21.64
21.6446
21.6499
21.6549
21.6594
21.6623
21.6635
21.6633
21.6612
21.6563
21.6476
21.6339
21.6121
21.5916
21.3892
21.3915
21.396
21.4013
21.4064
21.411
21.4139
21.4152
21.4155
21.4138
21.4096
21.402
21.3897
21.3695
21.3513
21.1522
21.1544
21.1588
21.164
21.1689
21.1733
21.1761
21.1775
21.178
21.1768
21.1732
21.1664
21.1556
21.1374
21.1224
20.9257
20.9278
20.9319
20.9368
20.9414
20.9455
20.9481
20.9495
20.9502
20.9493
20.9462
20.9403
20.9308
20.9144
20.9014
20.7065
20.7084
20.7124
20.7171
20.7216
20.7254
20.7281
20.7298
20.7306
20.7299
20.7273
20.722
20.7133
20.6982
20.6846
20.4944
20.4963
20.5001
20.5046
20.5088
20.5126
20.5156
20.5176
20.5185
20.518
20.5156
20.5107
20.5024
20.4874
20.4708
20.2896
20.2913
20.2949
20.2992
20.3033
20.3072
20.3105
20.3127
20.3136
20.3133
20.3113
20.3069
20.2996
20.2865
20.267
20.0916
20.0932
20.0966
20.1007
20.1048
20.1087
20.1123
20.1146
20.1156
20.1156
20.114
20.1104
20.1043
20.0937
20.0757
19.8983
19.8999
19.9034
19.9075
19.9117
19.9158
19.9196
19.9221
19.9232
19.9234
19.9222
19.919
19.9134
19.9041
19.8799
19.7111
19.7127
19.7161
19.7202
19.7243
19.7285
19.7323
19.7347
19.7359
19.7363
19.7351
19.732
19.7263
19.7179
19.6919
19.5309
19.5323
19.5355
19.5394
19.5434
19.5474
19.5509
19.5532
19.5543
19.5548
19.5539
19.5512
19.5461
19.5395
19.5218
19.3541
19.3556
19.3588
19.3627
19.3667
19.3706
19.374
19.3763
19.3776
19.3783
19.3777
19.3755
19.3708
19.3643
19.3454
19.1819
19.1834
19.1864
19.1902
19.1941
19.1979
19.2013
19.2037
19.2052
19.2061
19.2058
19.2041
19.2002
19.1945
19.1781
19.0148
19.0161
19.019
19.0225
19.0261
19.0297
19.0329
19.0354
19.037
19.038
19.0379
19.0366
19.0335
19.0294
19.0093
18.8496
18.8509
18.8537
18.8571
18.8607
18.8642
18.8675
18.8702
18.8721
18.8732
18.8734
18.8724
18.8699
18.8675
18.8532
18.6871
18.6883
18.691
18.6944
18.6979
18.7014
18.7047
18.7077
18.7098
18.7109
18.7112
18.7104
18.7077
18.705
18.6884
18.5283
18.5294
18.532
18.5351
18.5385
18.5419
18.5452
18.5483
18.5503
18.5513
18.5515
18.5506
18.5477
18.5443
18.5295
18.3709
18.372
18.3746
18.3778
18.3811
18.3846
18.388
18.3913
18.3934
18.3945
18.3949
18.3943
18.392
18.3893
18.376
18.2159
18.2171
18.2196
18.2228
18.2262
18.2297
18.2333
18.2366
18.2389
18.2403
18.2412
18.2412
18.24
18.2391
18.2307
18.0641
18.0652
18.0676
18.0707
18.074
18.0775
18.081
18.0843
18.0866
18.088
18.0891
18.0893
18.0884
18.0877
18.0758
17.9142
17.9152
17.9176
17.9205
17.9237
17.9272
17.9306
17.9337
17.9358
17.9372
17.9381
17.9382
17.9369
17.9359
17.9237
17.7649
17.766
17.7683
17.7713
17.7745
17.7779
17.7812
17.7843
17.7864
17.7878
17.7888
17.7889
17.7877
17.7869
17.7768
17.6178
17.6188
17.6211
17.624
17.6271
17.6304
17.6337
17.6367
17.6389
17.6405
17.6416
17.642
17.6411
17.6406
17.6358
17.473
17.4739
17.4761
17.4788
17.4817
17.4849
17.488
17.4909
17.4932
17.4949
17.4962
17.4968
17.4964
17.496
17.4938
17.3279
17.3288
17.331
17.3336
17.3366
17.3397
17.3428
17.3458
17.3484
17.3504
17.3519
17.353
17.3534
17.3535
17.3593
17.1833
17.1842
17.1862
17.1889
17.1917
17.1948
17.198
17.2011
17.2039
17.2062
17.2079
17.2093
17.2104
17.2102
17.2088
17.0399
17.0407
17.0426
17.0451
17.0478
17.0508
17.0538
17.0569
17.0599
17.0622
17.0638
17.0652
17.0664
17.0668
17.0635
16.8956
16.8964
16.8983
16.9008
16.9034
16.9064
16.9095
16.9126
16.9157
16.9181
16.9199
16.9215
16.9228
16.9244
16.9251
16.7509
16.7517
16.7536
16.756
16.7587
16.7617
16.7649
16.7681
16.7714
16.7739
16.7758
16.7777
16.7793
16.7807
16.7791
16.6069
16.6076
16.6094
16.6117
16.6143
16.6172
16.6203
16.6236
16.6268
16.6294
16.6313
16.6333
16.6349
16.6363
16.6304
16.4613
16.4621
16.4639
16.4662
16.4688
16.4718
16.475
16.4783
16.4817
16.4845
16.4869
16.4897
16.4926
16.497
16.4992
16.3146
16.3154
16.3171
16.3195
16.3221
16.3251
16.3284
16.3319
16.3354
16.3384
16.3413
16.3445
16.3482
16.3534
16.3463
16.1667
16.1674
16.1691
16.1714
16.174
16.177
16.1803
16.1838
16.1873
16.1905
16.1936
16.1971
16.2009
16.2074
16.2066
16.0174
16.0181
16.0197
16.0219
16.0243
16.0272
16.0304
16.0339
16.0374
16.0407
16.0441
16.0482
16.0526
16.0603
16.0602
15.8645
15.8651
15.8668
15.8689
15.8714
15.8743
15.8776
15.8811
15.8848
15.8884
15.8922
15.8968
15.9019
15.9105
15.9108
15.7087
15.7094
15.7109
15.713
15.7154
15.7182
15.7215
15.7251
15.7289
15.7328
15.7372
15.7425
15.7488
15.7592
15.762
15.5484
15.549
15.5506
15.5526
15.555
15.5579
15.5612
15.5649
15.5689
15.5734
15.5783
15.5844
15.5918
15.6039
15.6095
15.3839
15.3845
15.3859
15.3879
15.3902
15.393
15.3963
15.4
15.4043
15.4093
15.4149
15.422
15.4309
15.4455
15.4546
15.2127
15.2133
15.2147
15.2167
15.219
15.2218
15.2252
15.2291
15.2337
15.2392
15.2454
15.253
15.2624
15.2779
15.2825
15.0355
15.036
15.0373
15.0391
15.0414
15.0442
15.0476
15.0517
15.0566
15.0627
15.0697
15.0783
15.0887
15.1054
15.1257
14.8493
14.8498
14.8511
14.853
14.8553
14.8582
14.8619
14.8664
14.8721
14.8793
14.8879
14.8989
14.913
14.9336
14.9654
14.6526
14.6531
14.6544
14.6563
14.6587
14.6618
14.6659
14.6712
14.6779
14.6866
14.6974
14.7115
14.73
14.7549
14.7943
14.4434
14.4439
14.4451
14.447
14.4495
14.4529
14.4574
14.4635
14.4714
14.482
14.4954
14.5131
14.5366
14.5671
14.6156
14.2158
14.2162
14.2174
14.2192
14.2219
14.2257
14.2309
14.2382
14.2481
14.2615
14.2788
14.3018
14.3326
14.3715
14.4314
13.9674
13.9679
13.9691
13.9712
13.9742
13.9786
13.985
13.994
14.0066
14.0238
14.0468
14.0773
14.1182
14.1696
14.2479
13.6745
13.6749
13.6761
13.6785
13.6823
13.6884
13.6974
13.7106
13.7291
13.7546
13.7883
13.8323
13.889
13.9574
14.0611
13.3718
13.3722
13.3735
13.3762
13.3807
13.3879
13.3991
13.4158
13.44
13.4739
13.5193
13.5783
13.6531
13.7389
13.8563
12.8669
12.8673
12.8694
12.8747
12.8855
12.9035
12.9311
12.9709
13.0253
13.0961
13.1831
13.2852
13.4012
13.5228
13.6683
12.6146
12.6153
12.6144
12.6213
12.6342
12.6545
12.6847
12.7281
12.7877
12.8659
12.9631
13.0781
13.2095
13.3486
13.4946
10.8162
10.7421
10.8053
10.8925
11.0061
11.1577
11.3549
11.5975
11.8772
12.177
12.4742
12.7456
12.9813
13.1833
13.3587
11.8931
18.0651
13.665
10.7681
4.01586
16.0199
13.9071
18.4856
3.63861
10.7239
9.39532
20.4584
7.15679
18.1514
15.233
13.675
12.7863
12.5418
15.878
10.7826
14.1561
15.0464
14.8384
25.6078
15.4784
11.1733
12.6991
12.6438
19.9439
12.5299
10.0706
14.3411
13.5594
22.6705
13.3138
12.4698
7.54475
19.1919
4.65493
13.564
18.179
11.5195
17.6906
13.5866
15.2649
12.3017
26.0023
11.9199
13.3105
15.9409
19.3878
14.7086
14.7357
16.166
11.8075
13.7534
9.77198
11.9138
21.4215
17.2727
12.2554
21.3334
16.23
13.9832
15.8136
6.99717
15.0687
19.6696
9.92981
22.9908
12.3228
11.4889
30.1601
15.9133
10.6454
14.575
10.4017
12.9497
14.8718
24.8935
12.5751
9.21114
12.0221
13.5251
19.1243
8.99035
12.5036
9.04742
19.3493
13.4866
16.7927
13.3665
14.1787
18.5152
6.53638
13.6621
15.9988
15.6454
15.0442
15.1696
7.73057
24.5053
12.5068
9.64466
18.3923
9.41952
13.0413
12.7851
13.0076
21.3528
17.4107
13.225
18.0138
11.8724
15.302
10.6223
12.6415
18.7448
5.87754
13.5997
6.99424
13.7539
8.68183
17.9299
12.0601
12.3617
19.2626
16.8051
4.9194
10.9642
21.8173
12.7502
3.12272
13.4658
15.2654
18.3395
4.05096
16.3331
16.3964
15.5011
12.3542
13.2848
12.2841
11.3561
19.5978
15.4653
11.8878
13.2194
15.8644
18.0184
13.4567
10.9109
12.9447
19.7548
11.419
16.1513
12.9343
12.3889
16.0905
21.7057
12.5544
14.6091
12.639
4.34303
14.1372
14.293
13.878
1.43359
16.4943
12.8509
15.0881
11.7754
14.889
9.90809
13.4433
12.266
13.2236
12.4766
21.5162
10.179
8.49192
19.3688
20.0829
10.9656
11.7752
12.1724
12.8481
22.7404
12.8828
12.4266
20.6448
13.7934
5.7138
19.1928
13.5292
20.7598
10.4465
12.1417
10.0433
21.8074
11.3446
14.792
12.3658
14.2283
19.0677
17.1026
10.5999
23.3527
11.4583
14.651
12.2756
14.6158
21.3001
8.40829
18.3957
24.8437
20.9143
13.6845
17.8159
20.195
19.6446
15.7168
13.4891
13.6435
18.9579
6.47449
19.0007
12.3518
10.3358
13.2876
15.1273
6.83179
15.0755
14.7159
8.62508
15.7302
14.0307
17.777
14.1978
12.6639
11.9913
12.2462
13.6321
9.77507
11.3995
12.1712
6.84516
16.6141
7.47783
11.3878
21.9303
15.3068
11.3006
15.8836
12.12
17.9216
17.3314
16.5736
16.827
13.4742
9.29399
17.9918
6.25183
13.9066
11.2714
13.7821
11.5691
8.04208
16.5551
12.691
24.3136
11.5235
19.6721
8.17627
13.3954
8.94239
16.0693
18.6942
9.25769
14.8385
9.50354
13.3563
16.6279
13.3548
18.2106
13.274
10.0359
6.55865
18.0263
3.47705
8.70201
15.6261
19.9152
14.0166
21.7547
1.96375
9.83845
12.7354
14.9753
15.286
15.2562
13.0495
17.4946
15.3403
13.1057
7.53836
13.1856
9.80627
13.4718
16.4123
13.494
13.482
18.4226
12.1457
7.77446
14.6763
10.5159
26.3478
12.5299
9.78614
13.1685
17.9928
7.47728
12.9366
8.63651
13.9606
13.5553
13.2867
13.4006
5.84199
14.3554
10.2995
19.2094
16.5828
9.54619
13.2033
16.7371
15.2242
24.3733
11.42
19.3498
12.8832
17.9018
13.9733
15.0641
10.0303
15.1292
10.2382
24.0291
14.1195
4.86526
9.95492
23.4672
16.245
22.1373
16.1785
16.179
13.8314
16.4302
12.1589
14.0097
12.9787
13.0836
18.4398
14.5338
17.0219
13.4029
15.1856
13.2346
13.8989
8.48437
12.1041
14.237
14.0286
12.1576
12.9712
14.8417
20.1559
2.17426
10.6756
20.0435
9.73574
11.9891
14.6843
19.0142
17.2311
14.1855
16.8674
13.2864
10.6256
15.2856
14.9072
14.9962
7.97121
13.2696
5.92229
19.1546
16.2323
15.2231
11.652
14.552
6.64856
15.3714
23.347
14.125
7.21086
14.9322
13.6595
13.3434
16.985
9.3845
9.98129
17.7716
22.796
10.4249
14.8859
11.6798
13.388
14.7662
16.7731
11.9896
18.4834
11.9699
12.6457
9.06317
19.198
20.5835
13.8356
17.7244
16.8874
11.1483
15.6024
6.08022
18.0288
13.9725
17.103
11.0747
11.9221
5.46158
12.8187
16.209
12.5636
13.9949
11.9221
12.0061
9.24505
21.2756
12.306
9.01856
22.2422
16.4198
22.744
15.8699
14.6762
13.5774
16.4547
1.2159
17.5253
17.0671
7.94136
8.51253
9.20931
12.9717
12.4283
12.1799
9.11255
20.8786
12.6272
12.1408
11.1837
18.716
12.5871
8.68573
19.3596
12.4497
9.87148
13.6385
5.88738
26.1794
10.9093
14.9326
15.3582
16.0522
11.4649
10.5512
16.7485
19.5342
10.3379
15.3525
23.4684
17.1122
15.1444
13.0331
14.542
18.9455
11.7404
14.4404
21.5949
7.56087
9.49742
16.0436
19.2512
14.4749
20.4072
18.4208
9.96417
7.90394
11.8096
9.36745
8.47183
8.86583
14.99
13.3841
12.729
12.4253
15.2863
8.30655
22.0113
12.2445
21.0685
12.284
20.6192
12.3463
20.5425
8.89684
17.7072
9.63557
13.6047
13.8283
1.68141
12.2769
13.3746
12.8953
17.9585
15.6855
13.4179
12.9757
15.9964
19.881
15.6038
11.6494
21.1374
11.9781
18.0201
17.6731
14.9306
14.1891
12.8715
16.7619
38.8311
20.6712
14.8561
11.7826
10.1838
24.3474
13.1348
13.0466
13.7604
15.9852
15.3682
11.7738
11.8955
10.8937
12.2058
16.7873
22.2486
15.2161
15.1086
8.9284
8.97699
10.935
13.8372
13.4191