/*--------------------------------*- C++ -*----------------------------------*\
| =========                 |                                                 |
| \\      /  F ield         | OpenFOAM: The Open Source CFD Toolbox           |
|  \\    /   O peration     | Version:  2.3.0                                 |
|   \\  /    A nd           | Web:      www.OpenFOAM.org                      |
|    \\/     M anipulation  |                                                 |
\*---------------------------------------------------------------------------*/
FoamFile
{
    version     2.0;
    format      ascii;
    class       volScalarField;
    location    "3000";
    object      p;
}
// * * * * * * * * * * * * * * * * * * * * * * * * * * * * * * * * * * * * * //

dimensions      [0 2 -2 0 0 0 0];

internalField   nonuniform List<scalar> 
6890
(
1.33128e-05
-0.0849018
-0.150364
-0.160869
-0.100061
0.039955
0.261124
0.564178
0.952832
1.42798
2.00358
2.5794
0.340464
0.317947
0.299583
0.29952
0.330239
0.407504
0.548552
0.768815
1.07937
1.48776
2.00472
2.63109
0.655523
0.711352
0.794016
0.910869
1.06401
1.25244
1.47322
1.72203
1.99331
2.28039
2.57559
2.86882
0.88693
0.960747
1.052
1.1636
1.29706
1.45287
1.6304
1.82786
2.04213
2.26871
2.50194
2.73551
1.07119
1.15597
1.25475
1.36926
1.49899
1.64307
1.80008
1.96813
2.14472
2.32677
2.51069
2.69269
1.20876
1.29386
1.38753
1.49283
1.60909
1.73591
1.87228
2.01706
2.16844
2.3242
2.48171
2.63812
1.31429
1.39694
1.48456
1.58134
1.68642
1.80017
1.92128
2.0493
2.18281
2.31997
2.4589
2.59724
1.39849
1.47511
1.55522
1.64269
1.73705
1.83969
1.94896
2.06456
2.1853
2.30911
2.43501
2.5606
1.46373
1.53622
1.61079
1.69071
1.7794
1.87395
1.97454
2.08061
2.19061
2.30354
2.42049
2.53735
1.52148
1.58077
1.65283
1.73686
1.81747
1.91512
1.99962
2.09789
2.19896
2.30321
2.41391
2.52513
4.57172
5.97283
6.20861
6.3136
6.4054
6.43906
6.39798
6.28784
6.11474
5.88614
5.61571
5.34603
3.34332
4.05791
4.61705
5.0266
5.30798
5.47342
5.53563
5.51282
5.42558
5.29321
5.13208
4.96855
3.15966
3.45142
3.72873
3.98083
4.20058
4.38338
4.52556
4.62453
4.67895
4.68919
4.65863
4.60249
2.96722
3.19728
3.42075
3.62972
3.81745
3.97888
4.11065
4.21089
4.27914
4.3162
4.32454
4.31258
2.87165
3.04866
3.22166
3.38629
3.53852
3.67506
3.79339
3.89168
3.96869
4.02376
4.05711
4.0732
2.79221
2.94417
3.09232
3.23351
3.36492
3.4842
3.58957
3.67975
3.75399
3.81184
3.85295
3.88127
2.73372
2.86783
2.99815
3.12217
3.23793
3.34365
3.43819
3.52061
3.59061
3.64804
3.69145
3.72149
2.6845
2.80574
2.92359
3.03555
3.14037
3.23626
3.32283
3.39895
3.46509
3.52166
3.56625
3.60266
2.65302
2.76634
2.87548
2.97766
3.07403
3.16237
3.24118
3.30987
3.37118
3.42376
3.45918
3.49378
2.63783
2.74934
2.85314
2.94746
3.03695
3.11922
3.1888
3.2471
3.30173
3.34798
3.36472
3.39322
0.101557
0.0987511
0.14589
0.253095
0.407043
0.572771
0.71122
0.788174
0.785802
0.707927
0.459008
0.638507
0.133737
0.0977065
0.0589577
0.00792591
-0.0632601
-0.151888
-0.242682
-0.318512
-0.374982
-0.364312
-0.464257
-0.351078
0.139035
0.072534
-0.0132985
-0.116019
-0.226944
-0.332691
-0.420625
-0.480873
-0.532861
-0.526093
-0.585994
-0.542748
0.179894
0.134369
0.0869933
0.0417045
0.00101252
-0.0340026
-0.0649734
-0.0860258
-0.119583
-0.124478
-0.168271
-0.155393
0.23908
0.218959
0.198875
0.181062
0.164347
0.14812
0.129621
0.116791
0.0930371
0.0852671
0.0562684
0.0645211
0.291735
0.278531
0.262043
0.24473
0.225726
0.206048
0.183333
0.165032
0.139224
0.122191
0.0917528
0.0915375
0.333227
0.324676
0.311859
0.297864
0.280696
0.259311
0.231639
0.201811
0.164726
0.129682
0.0813011
0.0673057
0.37329
0.368992
0.364646
0.361881
0.354222
0.340851
0.314586
0.280888
0.239599
0.208811
0.140775
0.0414304
0.406343
0.410719
0.41434
0.419312
0.422541
0.399086
0.374592
0.292777
0.220192
0.165828
0.071947
-0.0818544
0.422052
0.430735
0.44458
0.484523
0.520039
0.545992
0.565505
0.498964
0.412331
0.616581
0.738193
-0.104976
0.660913
0.506294
0.784314
0.888901
0.917812
0.867346
0.757848
0.626499
0.515025
0.458573
0.464223
0.529371
-0.341606
-0.443163
-0.320444
-0.30609
-0.217657
-0.105638
0.0242539
0.152798
0.264349
0.357607
0.439283
0.527662
-0.531149
-0.555222
-0.469958
-0.451857
-0.36938
-0.275525
-0.15111
-0.00792457
0.140478
0.28098
0.404611
0.517191
-0.144854
-0.137488
-0.0690122
-0.0395996
0.0230677
0.0750522
0.139159
0.208637
0.285175
0.36757
0.452423
0.540821
0.0741025
0.0856524
0.137989
0.170304
0.223112
0.26645
0.317128
0.366515
0.417813
0.471358
0.527554
0.58976
0.0950716
0.108714
0.162491
0.209018
0.268798
0.320875
0.377102
0.430304
0.483389
0.535088
0.585406
0.636778
0.0715375
0.0988135
0.173625
0.246216
0.321046
0.382536
0.441223
0.493662
0.54345
0.590459
0.635169
0.678858
-0.0300339
0.0139883
0.157596
0.288976
0.391626
0.46318
0.522145
0.570596
0.613221
0.650816
0.686713
0.721088
-0.142492
0.0512476
0.286287
0.442668
0.527764
0.576322
0.619852
0.659079
0.686209
0.713178
0.739311
0.765682
-0.913742
-0.49617
0.138123
0.484705
0.585278
0.626453
0.674075
0.712584
0.739665
0.75682
0.781559
0.804637
-14.4941
-11.9602
-10.0429
-8.3182
-6.67367
-5.13933
-3.79861
-2.69578
-1.83743
-1.19833
-0.73219
-0.412913
-2.63595
-3.92015
-4.0533
-3.92261
-3.70874
-3.39998
-2.98624
-2.49485
-1.97199
-1.46601
-1.01215
-0.65532
-0.870431
-1.65887
-1.47213
-1.50902
-1.60375
-1.66473
-1.66148
-1.58789
-1.4399
-1.2247
-0.961068
-0.706087
-2.26541
-2.01554
-1.72783
-1.72216
-1.67934
-1.60016
-1.50081
-1.38521
-1.24756
-1.08321
-0.888004
-0.695787
-2.21939
-1.72939
-1.70425
-1.71886
-1.65152
-1.56332
-1.46001
-1.33724
-1.19383
-1.03245
-0.852045
-0.677953
-1.49328
-1.22287
-1.32834
-1.31756
-1.27982
-1.24655
-1.20147
-1.13521
-1.0446
-0.929405
-0.78796
-0.640936
-1.08973
-0.991626
-1.06909
-1.02864
-1.00926
-0.99476
-0.970393
-0.932066
-0.876631
-0.800613
-0.69897
-0.583716
-0.928494
-0.896601
-0.924444
-0.884103
-0.872643
-0.856697
-0.832754
-0.799719
-0.754975
-0.695388
-0.616015
-0.522164
-0.804865
-0.792006
-0.79559
-0.769001
-0.761059
-0.745357
-0.724758
-0.697125
-0.659678
-0.609934
-0.544083
-0.464598
-0.686826
-0.679441
-0.675595
-0.659553
-0.652072
-0.638808
-0.623126
-0.601791
-0.572306
-0.532439
-0.47903
-0.41668
-0.589394
-0.584133
-0.578704
-0.567652
-0.559465
-0.548126
-0.535276
-0.517813
-0.493855
-0.461329
-0.41677
-0.362
-0.511115
-0.507011
-0.501441
-0.492414
-0.483824
-0.473763
-0.462274
-0.446932
-0.426268
-0.398438
-0.360316
-0.31149
-0.446004
-0.442224
-0.435992
-0.427379
-0.418979
-0.409962
-0.399495
-0.385842
-0.367723
-0.343524
-0.31085
-0.269514
-0.391199
-0.386713
-0.378757
-0.369648
-0.361861
-0.353644
-0.344037
-0.331821
-0.315815
-0.294545
-0.265897
-0.229381
-0.343144
-0.337494
-0.327965
-0.318536
-0.311519
-0.303769
-0.294811
-0.283708
-0.269345
-0.250394
-0.224934
-0.192012
-0.298517
-0.292083
-0.282086
-0.273
-0.266689
-0.259237
-0.250871
-0.240703
-0.227702
-0.210712
-0.188114
-0.15856
-0.256242
-0.249743
-0.240196
-0.231847
-0.226103
-0.218962
-0.211222
-0.20192
-0.190126
-0.17482
-0.154646
-0.128455
-0.216717
-0.210715
-0.201985
-0.194439
-0.189144
-0.182353
-0.175223
-0.166712
-0.156011
-0.142213
-0.124169
-0.101657
-0.18052
-0.175261
-0.16734
-0.160514
-0.155562
-0.149095
-0.142475
-0.134608
-0.124786
-0.112137
-0.0954118
-0.0743153
-0.148044
-0.143512
-0.136236
-0.129902
-0.125117
-0.11892
-0.112707
-0.10536
-0.0962602
-0.0846014
-0.0691982
-0.0496785
-0.119587
-0.115605
-0.108708
-0.10237
-0.0974397
-0.0915246
-0.0856665
-0.0787762
-0.0703306
-0.0596156
-0.0456554
-0.0280328
-0.0949693
-0.0912487
-0.0844195
-0.0775041
-0.0721774
-0.0666076
-0.0610292
-0.054506
-0.0465927
-0.0366042
-0.0236167
-0.00799003
-0.0731871
-0.0694422
-0.06247
-0.054789
-0.0491251
-0.0439204
-0.0384984
-0.0322461
-0.0247564
-0.0153801
-0.00314594
0.0111787
-0.0530317
-0.0491045
-0.0419739
-0.0337648
-0.0280343
-0.0231389
-0.0177759
-0.0117331
-0.00457
0.00431913
0.0159732
0.0302347
-0.0337425
-0.0296442
-0.0224801
-0.0141195
-0.00856817
-0.00390533
0.00141544
0.00725406
0.014132
0.0225934
0.0335535
0.0473963
-0.0150761
-0.0109305
-0.00389186
0.00431276
0.00955207
0.0140326
0.0192745
0.0248917
0.0314898
0.0395633
0.0498717
0.0632277
0.00289891
0.00694159
0.0137335
0.0215954
0.0264812
0.0308012
0.0359238
0.0413137
0.0476352
0.0553526
0.0651129
0.0778346
0.0199709
0.0237954
0.0302791
0.0377139
0.0422674
0.0464455
0.0514234
0.0565849
0.0626158
0.0699419
0.0791183
0.0904857
0.0358875
0.0394352
0.0456002
0.0526009
0.0569186
0.0610122
0.0658369
0.0707828
0.0765356
0.0834828
0.0922087
0.102794
0.0504036
0.0536691
0.0595427
0.0661722
0.0704609
0.0745908
0.0792506
0.0840077
0.0895321
0.0961807
0.10463
0.115012
0.0633742
0.0663973
0.0720396
0.0784203
0.0829457
0.0872356
0.0916933
0.0962848
0.101608
0.107981
0.116061
0.126207
0.0748796
0.0777338
0.083228
0.0895048
0.0944391
0.0989175
0.103144
0.107606
0.112745
0.118862
0.126548
0.136363
0.0852022
0.0879711
0.0933967
0.0996823
0.10502
0.109609
0.113618
0.118001
0.122973
0.128858
0.136165
0.145328
0.0946772
0.0974273
0.102831
0.109174
0.114785
0.119373
0.123217
0.127564
0.132397
0.138096
0.145133
0.153978
0.103575
0.106338
0.111725
0.118112
0.123833
0.128331
0.132063
0.136395
0.141118
0.146682
0.153536
0.162248
0.11205
0.114823
0.120169
0.126549
0.132237
0.136592
0.140243
0.14455
0.149169
0.154609
0.161253
0.169793
0.120157
0.122914
0.128179
0.134488
0.140041
0.144226
0.147805
0.152067
0.15658
0.1619
0.168355
0.176534
0.127876
0.130579
0.135728
0.141906
0.147262
0.15127
0.154776
0.158971
0.163363
0.168532
0.174779
0.182298
0.135133
0.137751
0.142756
0.148759
0.153893
0.157743
0.161189
0.165308
0.169587
0.174611
0.180707
0.188137
0.141828
0.144335
0.149183
0.154985
0.1599
0.163648
0.167067
0.171102
0.175271
0.18015
0.186083
0.192895
0.147848
0.150233
0.154918
0.160512
0.165237
0.168984
0.172435
0.176373
0.180451
0.185218
0.191057
0.198566
0.153097
0.15536
0.159891
0.16529
0.169876
0.173744
0.17728
0.18109
0.185075
0.189722
0.195306
0.201949
0.15754
0.159693
0.164088
0.169325
0.173838
0.177918
0.181561
0.185223
0.189128
0.193669
0.199154
0.205719
0.16121
0.163276
0.16756
0.172684
0.177189
0.181509
0.185242
0.188774
0.192652
0.197145
0.202654
0.209224
0.164171
0.166174
0.170375
0.175432
0.179973
0.184496
0.188273
0.191698
0.19557
0.19999
0.205403
0.211752
0.166485
0.168449
0.172588
0.177612
0.182205
0.186864
0.190638
0.193994
0.197886
0.202282
0.2077
0.214575
0.168208
0.170149
0.174239
0.179247
0.183886
0.188606
0.192344
0.195661
0.199583
0.20398
0.209375
0.216056
0.169374
0.171301
0.175345
0.180336
0.184997
0.189714
0.19339
0.196679
0.200613
0.204984
0.210339
0.21686
0.169996
0.171909
0.175903
0.180866
0.185518
0.190182
0.193784
0.197057
0.201002
0.205364
0.210742
0.217313
0.170066
0.171958
0.175896
0.180813
0.185426
0.190006
0.193532
0.196797
0.200757
0.205129
0.210543
0.217112
0.169545
0.171408
0.175279
0.180131
0.184681
0.189155
0.192608
0.19587
0.199838
0.204206
0.209621
0.216068
0.16837
0.170195
0.17399
0.178759
0.183226
0.187588
0.190984
0.194257
0.198235
0.202619
0.208084
0.21466
0.166462
0.168239
0.171952
0.176624
0.180997
0.185249
0.188627
0.191938
0.195932
0.200355
0.2059
0.212512
0.163724
0.165446
0.169074
0.173639
0.177913
0.182068
0.185482
0.188862
0.192862
0.197317
0.202907
0.209363
0.160053
0.161717
0.165258
0.169712
0.173893
0.177977
0.181496
0.184987
0.189
0.193535
0.199286
0.205988
0.155348
0.156955
0.160411
0.164759
0.168862
0.172912
0.176601
0.180239
0.184285
0.188953
0.194922
0.201827
0.149503
0.151057
0.154434
0.158686
0.162736
0.16679
0.17069
0.174488
0.178585
0.183424
0.189631
0.196733
0.142405
0.143911
0.147218
0.151391
0.155415
0.159514
0.163639
0.167605
0.171807
0.176915
0.183552
0.191401
0.133922
0.135387
0.138634
0.142747
0.146773
0.150949
0.155291
0.159426
0.163782
0.169202
0.17626
0.184605
0.123893
0.125328
0.128524
0.132595
0.136647
0.14092
0.145461
0.149765
0.154324
0.16009
0.167569
0.176437
0.112129
0.11354
0.116695
0.120743
0.124841
0.12923
0.133962
0.138464
0.143309
0.149526
0.157592
0.167146
0.0983924
0.0997872
0.102909
0.106951
0.111114
0.115641
0.120579
0.125341
0.130601
0.137454
0.146431
0.157358
0.0823643
0.0837487
0.086845
0.0908954
0.0951422
0.0998313
0.105006
0.110109
0.115917
0.123579
0.133705
0.146219
0.0636191
0.0649966
0.0680721
0.0721448
0.0764933
0.081373
0.0868294
0.092368
0.0988647
0.1075
0.118965
0.133698
0.0415874
0.0429608
0.0460211
0.0501322
0.0546096
0.0597275
0.0655474
0.0716653
0.0790583
0.0889401
0.102001
0.120202
0.0155694
0.016942
0.0199962
0.0241693
0.0288202
0.0342556
0.0405721
0.0474806
0.0560574
0.0675574
0.0823695
0.103526
-0.0155276
-0.0141478
-0.0110837
-0.00680515
-0.00189657
0.00400241
0.0110507
0.0191024
0.0293243
0.0430478
0.0603206
0.084046
-0.0527985
-0.0513994
-0.0482951
-0.0438416
-0.0385443
-0.0319555
-0.0238087
-0.0140514
-0.0014092
0.0155997
0.0370642
0.066174
-0.0993351
-0.0978805
-0.0946757
-0.0898907
-0.0839039
-0.0761299
-0.0661381
-0.0536304
-0.0372707
-0.0155741
0.0113937
0.0461108
-0.155205
-0.153659
-0.150267
-0.144975
-0.138006
-0.128548
-0.11592
-0.0994944
-0.0778927
-0.0497417
-0.0154009
0.0289643
-0.235982
-0.234162
-0.230236
-0.223664
-0.21421
-0.20074
-0.182244
-0.157877
-0.126627
-0.0878318
-0.0430682
0.0106236
-0.317914
-0.315467
-0.311178
-0.30312
-0.291182
-0.273446
-0.248451
-0.215046
-0.172724
-0.121851
-0.0654998
-0.00203741
-0.523527
-0.522762
-0.513632
-0.498014
-0.471126
-0.431238
-0.377727
-0.311875
-0.2375
-0.159354
-0.082944
-0.00673111
-0.549725
-0.534054
-0.538051
-0.516432
-0.481689
-0.434313
-0.373801
-0.301994
-0.223644
-0.143946
-0.0677464
0.00716676
-1.43071
-1.65053
-1.54344
-1.39303
-1.21116
-0.991646
-0.749941
-0.513918
-0.313339
-0.161836
-0.0533169
0.0303472
21.6345
19.8524
17.6476
15.6313
13.7389
11.961
10.3619
8.99583
7.87807
6.98908
6.28558
5.75433
11.3595
9.96189
10.0391
10.0776
9.89073
9.51745
9.01183
8.40553
7.74246
7.07497
6.44461
5.91288
7.34978
6.87987
7.30625
7.40042
7.41574
7.39758
7.32956
7.18138
6.94273
6.62013
6.23168
5.84406
6.97693
7.15692
7.32832
7.21118
7.11924
7.02053
6.89459
6.73286
6.5334
6.29232
6.00425
5.71075
6.60607
6.93452
6.90254
6.81503
6.76879
6.69488
6.58667
6.44438
6.26849
6.05901
5.81253
5.55679
6.09929
6.28263
6.1992
6.1943
6.1942
6.16576
6.11514
6.03862
5.92967
5.78401
5.59675
5.38634
5.73147
5.79463
5.73823
5.76315
5.76198
5.74411
5.71521
5.66979
5.60104
5.50317
5.36854
5.20428
5.45118
5.4701
5.44842
5.47096
5.46312
5.44836
5.42512
5.38892
5.33558
5.26083
5.15774
5.02565
5.18742
5.19795
5.19512
5.20955
5.2032
5.19435
5.17731
5.14946
5.10771
5.04843
4.96596
4.85652
4.94689
4.95652
4.95963
4.96868
4.96633
4.962
4.95046
4.93062
4.89979
4.85472
4.79104
4.70908
4.74062
4.7489
4.75272
4.75924
4.75959
4.75724
4.74897
4.73435
4.71104
4.67622
4.62546
4.55617
4.56101
4.56741
4.5709
4.57645
4.5782
4.57678
4.5706
4.55921
4.54059
4.51237
4.47075
4.41012
4.39846
4.40328
4.40663
4.41189
4.4145
4.41393
4.40952
4.40068
4.3857
4.36258
4.32855
4.27913
4.24797
4.25206
4.25618
4.26182
4.26499
4.26524
4.26234
4.25565
4.24377
4.22487
4.19643
4.15555
4.10758
4.11212
4.11816
4.12476
4.12816
4.12909
4.12743
4.12251
4.11322
4.09803
4.07462
4.04102
3.97805
3.9837
3.99166
3.999
4.00233
4.00392
4.00326
3.99975
3.99251
3.98022
3.96075
3.93181
3.86027
3.86678
3.87559
3.88294
3.88614
3.88831
3.8884
3.88599
3.88034
3.87034
3.85419
3.82992
3.75323
3.75992
3.76858
3.77549
3.77858
3.78119
3.7818
3.78026
3.77599
3.76812
3.75539
3.73774
3.65484
3.6611
3.66912
3.67545
3.67847
3.68132
3.68224
3.68129
3.67794
3.67137
3.66014
3.64452
3.56304
3.56856
3.57586
3.58163
3.58458
3.58756
3.58866
3.58812
3.58542
3.57982
3.56978
3.55583
3.47632
3.48106
3.48776
3.49307
3.49599
3.49909
3.5004
3.50026
3.49821
3.49368
3.48534
3.4732
3.39347
3.39757
3.40385
3.40898
3.41208
3.41529
3.41682
3.41708
3.41565
3.41206
3.40498
3.396
3.31346
3.31716
3.32328
3.32879
3.33233
3.33559
3.33732
3.33797
3.33715
3.33456
3.32896
3.32098
3.23598
3.23956
3.2458
3.25211
3.25621
3.25939
3.26132
3.26228
3.26191
3.25998
3.25535
3.24603
3.16148
3.16519
3.17167
3.17877
3.18322
3.18628
3.18844
3.18967
3.18966
3.18822
3.18475
3.17619
3.09049
3.09441
3.10108
3.10864
3.11315
3.11613
3.11853
3.12
3.12031
3.11927
3.11664
3.10865
3.02313
3.02721
3.03391
3.04157
3.04594
3.04888
3.05148
3.05311
3.0537
3.05297
3.0509
3.04393
2.95915
2.96324
2.96981
2.9773
2.98144
2.98436
2.9871
2.98886
2.9897
2.98931
2.9877
2.98219
2.89806
2.90202
2.90835
2.91553
2.91942
2.92232
2.92514
2.92701
2.92811
2.92816
2.9272
2.92231
2.83932
2.84304
2.8491
2.85589
2.85953
2.86241
2.86529
2.86724
2.86852
2.86887
2.86841
2.8632
2.78238
2.78582
2.79158
2.79799
2.80146
2.80435
2.80724
2.80924
2.81063
2.81115
2.81118
2.80637
2.72674
2.72991
2.7354
2.74146
2.74494
2.74792
2.7508
2.75284
2.75431
2.75493
2.75521
2.75063
2.67204
2.67496
2.68024
2.68608
2.68981
2.69302
2.69585
2.69793
2.69953
2.70034
2.70102
2.69735
2.61812
2.62087
2.62602
2.63178
2.63596
2.63943
2.64218
2.64435
2.6461
2.64717
2.64838
2.64577
2.56503
2.56769
2.57278
2.57858
2.58322
2.58689
2.58954
2.59181
2.59368
2.5949
2.59633
2.59423
2.5129
2.51555
2.52063
2.52652
2.5315
2.53524
2.53782
2.54018
2.54211
2.54341
2.54488
2.54329
2.46188
2.46455
2.46964
2.4756
2.48076
2.48447
2.48701
2.48946
2.49142
2.49276
2.49411
2.49292
2.41203
2.41472
2.4198
2.4258
2.43099
2.43462
2.43715
2.4397
2.44173
2.4432
2.44454
2.44332
2.36333
2.36603
2.37105
2.37704
2.38215
2.38567
2.38823
2.39087
2.39301
2.39473
2.39647
2.39513
2.31566
2.31832
2.32326
2.32916
2.33413
2.33754
2.34013
2.34287
2.34514
2.34714
2.3495
2.34982
2.2688
2.27139
2.27621
2.28197
2.28675
2.29005
2.29264
2.29542
2.29775
2.29983
2.3023
2.30156
2.22253
2.22502
2.2297
2.23528
2.23986
2.24305
2.24563
2.24839
2.25068
2.25264
2.25486
2.25388
2.17667
2.17904
2.18356
2.18895
2.19335
2.1965
2.19912
2.20189
2.20424
2.20633
2.20888
2.20871
2.13102
2.13327
2.13765
2.14284
2.1471
2.15033
2.15307
2.15587
2.15833
2.16065
2.16359
2.16414
2.0854
2.08753
2.09177
2.09679
2.10096
2.10438
2.10728
2.11007
2.11262
2.11508
2.11829
2.11974
2.03965
2.04169
2.0458
2.05069
2.05482
2.0585
2.06155
2.06426
2.06685
2.06935
2.07252
2.07345
1.99373
1.99568
1.9997
2.0045
2.00865
2.01259
2.01575
2.01839
2.02102
2.02355
2.02677
2.0277
1.94765
1.94955
1.95349
1.95825
1.96246
1.96662
1.96985
1.97246
1.9752
1.97785
1.98134
1.98256
1.90141
1.90328
1.90718
1.91192
1.91621
1.92052
1.92379
1.92642
1.92928
1.93206
1.93579
1.93706
1.855
1.85686
1.86071
1.86545
1.86981
1.8742
1.87747
1.88014
1.88313
1.88601
1.88997
1.89143
1.80836
1.81021
1.81403
1.81877
1.82317
1.82758
1.83084
1.83357
1.83669
1.83973
1.84397
1.8458
1.76143
1.76327
1.76705
1.77177
1.77619
1.78058
1.78384
1.78664
1.78992
1.79313
1.7977
1.80014
1.7141
1.71592
1.71965
1.72435
1.72875
1.7331
1.73635
1.73924
1.74267
1.74609
1.75091
1.75379
1.66623
1.66802
1.6717
1.67635
1.68071
1.685
1.68825
1.69125
1.69485
1.69851
1.70366
1.70679
1.61763
1.6194
1.623
1.62758
1.6319
1.63613
1.6394
1.64253
1.64634
1.65033
1.65603
1.65958
1.5681
1.56982
1.57335
1.57786
1.58211
1.58628
1.58962
1.59291
1.59694
1.60128
1.60761
1.61136
1.51738
1.51904
1.5225
1.52692
1.5311
1.53523
1.53867
1.54216
1.54641
1.55109
1.5581
1.56208
1.46521
1.46681
1.47019
1.47451
1.47863
1.48274
1.48635
1.49006
1.49454
1.49952
1.50715
1.51181
1.4113
1.41286
1.41615
1.42038
1.42446
1.42858
1.43243
1.43642
1.44116
1.44653
1.45477
1.46094
1.35539
1.35689
1.36011
1.36426
1.36832
1.37251
1.37668
1.38102
1.38611
1.39205
1.40102
1.40897
1.29714
1.29859
1.30175
1.30584
1.30991
1.31423
1.31878
1.32353
1.32906
1.33577
1.34568
1.3552
1.23615
1.23756
1.24066
1.24471
1.24884
1.25334
1.25831
1.26351
1.26961
1.27725
1.28844
1.29979
1.17192
1.1733
1.17636
1.18041
1.18464
1.18937
1.19478
1.20052
1.2073
1.21603
1.22865
1.24246
1.10387
1.10523
1.10827
1.11233
1.11671
1.12174
1.12765
1.13403
1.14172
1.15176
1.16611
1.18363
1.03124
1.0326
1.03562
1.03974
1.04432
1.04974
1.05624
1.06345
1.07236
1.08413
1.10052
1.12385
0.953086
0.954445
0.957474
0.961703
0.966556
0.972469
0.979745
0.988073
0.998617
1.01272
1.03141
1.06192
0.867976
0.869354
0.872417
0.876813
0.882057
0.888651
0.896979
0.906867
0.919655
0.936983
0.958842
0.994178
0.774345
0.775762
0.778895
0.783549
0.789343
0.796885
0.806686
0.818773
0.834667
0.856407
0.88351
0.925293
0.66854
0.670037
0.673311
0.678404
0.685089
0.694138
0.706252
0.721728
0.742236
0.770059
0.804317
0.856286
0.549618
0.551239
0.554754
0.560499
0.568436
0.579606
0.594995
0.615261
0.642238
0.678308
0.721774
0.785256
0.401143
0.403068
0.407191
0.414434
0.425249
0.441059
0.463233
0.492674
0.530969
0.579948
0.636234
0.711263
0.244451
0.246898
0.251534
0.260606
0.274549
0.29566
0.325842
0.366327
0.418328
0.48277
0.554668
0.643102
-0.0446574
-0.0433767
-0.033447
-0.0160196
0.0142449
0.0595385
0.120924
0.197097
0.284841
0.380663
0.477314
0.583304
-0.172686
-0.156686
-0.159464
-0.134465
-0.0937488
-0.0372555
0.0359063
0.123679
0.2218
0.326102
0.429935
0.543931
-1.17102
-1.39046
-1.27844
-1.11816
-0.920724
-0.680556
-0.415134
-0.155084
0.0696335
0.248611
0.38762
0.514816
0.965187
0.978728
3.69521
1.15161
15.2603
1.5232
1.08035
-0.12101
3.88729
0.76961
-1.15756
0.472531
2.28407
0.877808
0.84197
1.33616
0.266649
2.85029
1.741
8.60704
1.90996
0.511779
1.46647
0.0131194
4.29713
0.214213
3.15985
0.902956
-0.468242
0.771101
1.33808
1.23223
3.75513
1.59351
0.418701
1.71917
0.641112
1.56348
1.14872
-1.08011
3.53588
1.74381
2.0834
-0.886791
1.05069
7.40027
2.02365
1.0234
1.23811
3.02035
3.30075
0.640125
1.56288
0.238283
2.41212
1.68889
2.26813
0.38563
1.63822
2.90299
0.634068
2.20896
0.955628
1.76328
14.8689
-2.05159
1.67722
2.5566
2.11404
0.898565
0.541995
3.14865
1.91253
1.50756
0.249862
2.27635
0.816153
-1.26959
0.800433
3.47681
0.0379609
0.168369
2.94673
3.65283
0.691044
2.84137
3.3834
1.02847
1.62791
2.45688
0.910345
0.633884
2.23015
0.956437
0.968788
0.47317
0.795297
1.51142
0.600814
2.04057
1.03133
-8.9889
0.175406
2.70209
1.59991
1.24124
0.295186
2.14982
2.13106
1.11434
2.31807
2.40091
1.081
2.07702
1.67987
0.384592
2.79605
0.245995
1.13728
1.58157
5.34175
3.59768
1.48632
1.42339
1.74218
0.221046
3.55493
0.817721
-4.24003
0.899282
1.78644
0.561956
1.77612
5.78527
0.513072
3.33206
2.36173
1.93316
1.8971
1.39735
0.0113717
4.0889
0.835915
0.264974
2.15596
3.15904
1.2886
3.21997
0.748286
2.06168
0.318246
1.96991
1.19944
7.56884
1.05869
1.49829
2.23347
2.33099
0.214199
2.27505
1.74681
2.0768
1.94951
1.48129
1.63806
0.985465
0.744389
0.527153
1.92282
-1.03775
0.863775
5.876
0.216385
1.67696
-8.54626
0.245075
3.01254
5.36165
2.77968
0.573049
1.98347
10.1621
2.83304
2.39382
0.870536
2.12355
2.12537
0.258209
0.226394
1.07044
-0.409943
4.87686
0.816599
1.02753
1.09721
1.49225
0.906681
1.54076
2.42617
2.11245
0.896862
2.10219
0.125523
3.2716
2.65018
3.7032
2.13086
0.459079
7.51686
2.59195
-0.0557811
3.7583
0.256238
3.40088
-1.77795
1.75065
0.436719
1.81082
6.85702
3.06989
2.00414
2.37778
3.50352
2.50818
3.87233
-5.78257
0.305468
1.1568
1.86313
0.241333
1.26481
-6.08797
1.53346
0.216227
1.41307
-0.221904
13.2195
0.931349
1.60558
0.176413
2.74398
2.71568
3.20256
1.93208
2.54935
1.12351
0.657875
3.53036
2.07121
2.30989
0.902669
0.370617
2.22197
0.18452
4.32919
1.5111
1.99904
0.756105
3.21548
0.150815
2.92056
0.0786133
3.10522
1.41096
2.00952
1.47041
0.8421
2.17792
0.399245
2.29672
0.756053
4.02595
2.28763
2.37235
2.1254
1.98089
1.98869
0.260845
2.36103
0.890279
2.764
2.13497
1.15671
2.42294
-0.320089
5.40495
1.50759
1.51918
3.03965
0.269983
1.98134
5.0036
1.70118
1.27303
0.606754
0.0391277
4.15298
0.347266
2.7563
1.41874
1.40748
-2.50083
0.517213
2.89868
1.85323
7.61403
2.56674
-15.6953
2.12107
3.15071
2.95952
0.174711
1.82967
0.328215
3.55267
0.243115
2.23578
1.95763
0.0735007
3.65054
-0.451327
2.15616
2.60223
0.272203
2.038
2.12664
0.798715
1.87147
2.05593
-3.61888
2.90659
0.773426
1.90389
1.94811
-6.60264
0.38295
0.43595
3.97847
1.17293
0.258478
2.03413
0.725566
2.2887
0.368423
3.75884
-0.0444897
0.885313
0.368757
1.7724
0.0994216
3.8942
0.218882
2.8525
0.12042
3.67922
0.191149
3.66985
1.24939
3.238
0.752278
1.13012
2.04503
2.10721
2.13314
2.1095
1.59973
3.39423
3.15068
1.23971
1.40405
1.51045
1.38938
5.3608
0.259571
3.6645
1.82599
8.49187
5.15623
1.93418
3.27776
2.38212
-0.462038
5.38638
2.48672
1.91904
1.22511
-0.546605
2.06909
-0.253936
0.224566
2.03726
-0.116786
4.58371
0.261004
1.62769
0.89848
2.32401
0.999393
0.231939
1.87449
2.65383
0.0673493
3.27825
2.27635
3.58066
2.16395
-0.0787165
4.07907
3.0748
1.54493
0.747098
3.30646
1.42657
0.893327
3.88137
1.7301
5.4703
3.06911
2.2051
1.5648
1.79698
2.56269
3.08001
2.87863
2.70603
1.83511
2.76062
1.61884
0.252843
1.67311
0.666555
0.123179
1.64596
1.07458
2.43963
-0.452821
5.03499
3.76689
1.70459
1.19856
1.05034
1.08691
0.255355
2.5046
1.01331
1.22686
1.83545
0.503111
3.26374
2.47647
0.301564
3.21428
0.244142
1.71248
2.6711
0.197041
1.17758
0.88229
0.520038
4.30741
1.70885
5.00584
1.82146
0.924312
2.70531
4.9708
0.376024
1.67076
3.59705
0.483442
0.315245
1.86414
0.753431
3.63121
0.243175
2.17239
0.370646
1.46407
2.16063
2.41907
1.27205
1.44492
0.907497
0.603701
2.30166
0.956202
2.92646
1.13963
1.1186
1.00578
5.26365
0.281201
0.811996
-17.0645
0.0845229
3.23609
9.171
1.88039
2.9749
0.497807
0.273184
2.10565
1.21012
0.720824
4.23104
-0.0739407
3.7084
0.268942
1.71346
0.900707
1.31663
2.30484
2.12005
0.349609
3.2544
1.96163
1.1881
4.57261
1.73149
0.668385
2.28853
4.0659
1.09064
3.54415
-0.149459
15.6858
2.22651
0.333239
1.62582
0.708608
0.147967
4.71113
0.386437
3.82346
0.935677
3.32562
0.226087
1.90261
2.14833
0.914973
1.04617
2.81505
0.450409
1.71859
2.82276
1.65875
3.35337
2.00799
0.166615
1.0963
2.43038
1.95996
0.492445
2.00403
0.95029
3.37706
0.128991
3.33448
10.8554
0.734882
2.8918
5.98384
1.26412
1.66236
0.867013
2.04945
2.05974
1.09648
1.84045
2.39284
0.776452
0.218437
2.93975
0.77857
3.21648
3.12248
2.7555
1.05198
1.69194
0.554257
3.56807
1.45712
2.12625
1.28521
1.54017
2.39759
7.62211
5.86075
1.00228
-0.0529942
2.84658
0.443709
2.2466
1.50144
1.81944
3.04327
1.97589
1.62097
0.644937
2.09103
0.223717
1.81091
-0.111566
4.46186
0.731632
3.0046
-10.6596
0.646264
2.79578
2.55433
0.791542
0.905554
2.39874
-1.52285
-5.52279
2.37792
0.954029
0.50459
2.27942
1.02594
1.90102
2.03114
10.8137
0.188948
1.42641
0.820603
2.01255
-0.974175
2.98777
0.443296
0.720286
0.914975
0.465061
1.57644
1.44624
1.28438
0.389266
2.26611
0.23587
4.70525
2.59705
2.2561
2.55473
-0.953685
1.84558
-0.157332
1.09227
0.671643
3.37251
2.04627
0.486264
2.44889
2.50542
1.73475
1.36466
0.173199
2.83808
0.241508
2.10926
-0.23848
1.16528
0.234079
2.14991
2.38223
0.241308
1.87559
1.21543
2.1493
-0.46456
1.97459
1.6995
1.16376
2.20834
0.469856
2.29708
1.98335
0.618508
1.44777
2.31645
1.35054
0.760986
2.95115
1.8822
2.18979
-2.07662
2.18497
0.983956
1.73263
0.421627
2.66869
-9.17164
2.48927
-3.54596
1.30468
2.24492
4.36128
3.67516
1.14418
1.08286
1.89515
1.84848
2.5226
0.936209
0.609098
3.31468
0.740393
0.0441476
3.36191
0.849059
3.62288
2.96623
0.0733327
0.886293
1.46254
1.02015
0.181046
2.61133
0.15821
2.76281
0.989383
2.36409
0.450425
3.63313
0.467851
2.99226
10.1022
1.52244
-0.030915
4.67213
0.545837
0.609239
0.704932
2.29478
1.43437
3.43358
0.278739
1.9142
0.589111
-0.31348
0.160322
4.00673
0.709653
3.16792
1.66229
-3.3914
-5.0088
1.79565
0.292776
0.839683
2.4434
1.55882
1.03849
0.893968
2.05408
1.93184
-0.106897
5.08361
0.179532
2.54533
1.29486
0.534983
0.126716
1.98323
0.628415
2.43958
2.0138
0.871189
1.61797
2.06002
3.66272
1.4207
1.95248
0.695609
-0.0532951
4.13805
0.856196
0.305139
2.06362
2.00853
0.267391
3.56665
2.14591
0.249803
3.22151
1.7992
0.312151
3.30478
1.80163
0.19351
2.59692
0.285182
1.98256
1.69716
0.126406
2.86946
1.28254
1.45157
1.84154
3.01713
1.77982
0.698012
0.268606
2.68605
0.423989
1.90931
0.968482
3.13491
0.494126
0.233316
1.54945
4.08651
1.52184
1.24941
0.868256
6.50174
0.862244
3.82506
1.07577
0.2693
2.44357
1.54226
0.0820256
4.00367
0.997483
0.561029
2.15033
1.03392
1.93572
2.87552
3.09158
2.70815
1.34027
-0.316594
4.78466
1.54083
2.20056
1.64162
2.81457
0.0122769
3.66765
2.44054
1.23345
3.478
0.0753238
-2.20236
0.328904
1.45583
1.35246
0.631682
1.23117
1.54154
0.653722
2.13917
1.64503
0.266669
1.57626
2.45095
0.0665093
3.81088
-0.0212993
3.7451
0.0539684
-12.3936
0.677108
0.868445
1.83565
2.44716
0.83991
0.669688
1.14152
0.239526
3.79624
0.235564
1.91727
1.77689
2.21321
0.792324
1.8294
3.08769
1.8797
0.830951
0.592987
3.06803
1.71576
-0.0472057
3.9725
0.848729
2.72605
-1.68158
0.370045
0.321074
2.32027
0.465903
1.69082
0.829351
0.202075
2.76953
3.45327
0.223416
2.74107
3.82977
1.1541
0.814022
0.769315
1.06253
2.44947
-0.5233
0.236157
2.85193
0.39121
1.45251
2.05697
1.23573
3.25246
1.02327
1.82394
0.994134
6.71082
-6.6679
0.722444
3.23367
0.976727
0.398633
3.44069
1.99016
2.21947
1.11604
2.81985
1.87641
0.213707
2.49701
-0.00797139
4.4333
-0.220114
4.21198
1.97052
1.87938
4.01851
1.37347
6.27872
2.52429
1.25265
3.12468
2.12215
3.07387
-0.346366
4.62248
1.68926
2.08523
0.328435
1.73824
2.4012
2.60098
0.648144
0.967731
6.54029
0.795485
2.16798
0.772927
4.72909
1.32092
0.210457
1.58457
0.3587
1.86209
0.393698
1.55162
0.750089
0.867174
1.2983
0.498067
4.05133
2.24516
0.526299
10.0507
0.589689
1.89227
3.39001
3.02218
0.823571
1.81241
0.427421
4.10537
1.66182
0.223819
2.65342
0.604451
0.824303
-0.0827637
4.63184
0.199764
2.36327
0.270508
3.47742
1.72474
4.24625
0.511838
1.32454
1.00251
1.28285
-1.18812
1.31603
1.61871
1.52582
1.84085
1.22863
1.88513
2.97396
0.25797
1.979
0.713277
0.833636
3.65675
2.56036
1.99086
0.69194
2.47941
2.22522
2.78967
0.253067
2.13127
-1.05126
3.77796
0.0584399
3.75155
1.15422
-2.73332
1.19035
4.49435
2.82322
0.796669
0.229182
1.69243
2.4075
1.54828
3.11186
1.87566
1.03269
0.127569
1.09639
0.159337
2.13821
3.35056
0.414284
2.22427
0.306716
2.19844
2.88211
2.19834
1.01628
1.80918
0.929497
3.5658
0.0920244
3.10628
2.36793
0.226078
1.94815
1.67196
4.23365
0.777766
0.160911
3.19962
0.0942721
3.03645
2.48683
0.957592
0.416926
-7.97975
1.89346
0.89635
1.91938
0.59852
3.78292
0.286386
2.76147
1.73901
1.12736
0.212514
-4.40708
1.54958
-0.323557
5.20233
0.397532
1.64712
0.24993
2.93082
2.34213
1.40799
1.0977
1.11846
0.356557
1.60419
0.919333
2.07278
-0.548623
6.29495
1.7337
2.06334
0.501597
2.16388
2.24763
2.58276