/*--------------------------------*- C++ -*----------------------------------*\
| =========                 |                                                 |
| \\      /  F ield         | OpenFOAM: The Open Source CFD Toolbox           |
|  \\    /   O peration     | Version:  2.3.0                                 |
|   \\  /    A nd           | Web:      www.OpenFOAM.org                      |
|    \\/     M anipulation  |                                                 |
\*---------------------------------------------------------------------------*/
FoamFile
{
    version     2.0;
    format      ascii;
    class       volScalarField;
    location    "2000";
    object      nut;
}
// * * * * * * * * * * * * * * * * * * * * * * * * * * * * * * * * * * * * * //

dimensions      [0 2 -1 0 0 0 0];

internalField   nonuniform List<scalar> 
38325
(
0.0725834
0.0709632
0.0693295
0.0676896
0.0660446
0.0643957
0.0627435
0.0610891
0.0594334
0.0577772
0.0561213
0.0544664
0.052813
0.0511621
0.049514
0.0478695
0.046229
0.044593
0.0429617
0.0413357
0.0397155
0.0381015
0.0364938
0.0348933
0.0333
0.0317144
0.030137
0.0285687
0.0270098
0.0254614
0.0239247
0.0224013
0.0208931
0.0194036
0.0179365
0.0164981
0.0150976
0.0137461
0.0124586
0.0112497
0.0101152
0.00894269
0.00704323
0.0735596
0.072109
0.0706552
0.0691956
0.0677309
0.0662622
0.06479
0.0633146
0.0618368
0.0603568
0.0588753
0.0573925
0.0559086
0.054424
0.0529393
0.0514547
0.0499704
0.0484868
0.0470042
0.0455226
0.0440427
0.042565
0.0410897
0.039618
0.0381503
0.0366868
0.0352297
0.0337802
0.0323392
0.0309099
0.0294952
0.0280987
0.0267254
0.025381
0.0240733
0.0228136
0.0216135
0.0204878
0.0194553
0.0185356
0.0177488
0.0171137
0.0166431
0.0744644
0.0731692
0.0718707
0.0705662
0.0692567
0.0679426
0.0666242
0.0653019
0.0639758
0.0626462
0.0613134
0.0599773
0.058638
0.0572959
0.0559512
0.0546039
0.0532541
0.0519023
0.0505488
0.0491934
0.047837
0.0464799
0.0451228
0.0437666
0.0424119
0.0410604
0.039714
0.0383738
0.0370423
0.035723
0.0344194
0.0331362
0.031879
0.030654
0.0294695
0.028336
0.0272645
0.0262678
0.0253599
0.0245537
0.023863
0.0233003
0.0228718
0.0753075
0.0741473
0.0729831
0.0718129
0.0706369
0.0694553
0.0682687
0.067077
0.0658803
0.0646787
0.063472
0.0622601
0.0610433
0.0598217
0.0585951
0.0573636
0.0561275
0.0548869
0.0536422
0.0523932
0.0511408
0.0498856
0.0486281
0.0473689
0.0461095
0.0448514
0.0435966
0.0423469
0.0411053
0.039875
0.0386598
0.0374649
0.0362952
0.035158
0.0340606
0.0330128
0.0320251
0.0311082
0.0302725
0.0295296
0.02889
0.0283632
0.0279526
0.0760878
0.0750459
0.0739987
0.0729446
0.0718835
0.070816
0.0697422
0.0686621
0.0675757
0.0664829
0.0653833
0.0642768
0.0631634
0.0620432
0.0609159
0.0597821
0.0586415
0.0574943
0.0563409
0.0551811
0.0540156
0.0528454
0.0516708
0.0504927
0.0493126
0.0481317
0.0469522
0.0457765
0.0446076
0.0434486
0.0423035
0.0411772
0.0400751
0.0390038
0.0379702
0.0369837
0.0360539
0.0351897
0.0344017
0.0336992
0.0330912
0.0325856
0.0321858
0.0768084
0.0758698
0.0749241
0.0739706
0.0730088
0.0720392
0.071062
0.0700772
0.0690848
0.0680847
0.0670764
0.0660592
0.065033
0.0639982
0.0629548
0.0619031
0.0608428
0.0597742
0.0586973
0.0576123
0.0565196
0.0554204
0.0543147
0.0532038
0.0520893
0.0509725
0.0498551
0.0487399
0.0476296
0.0465277
0.0454387
0.0443675
0.0433189
0.0422984
0.0413132
0.0403719
0.039484
0.0386582
0.0379042
0.0372303
0.0366444
0.0361532
0.0357609
0.0774681
0.076622
0.0757657
0.0748997
0.0740239
0.0731385
0.0722437
0.0713402
0.0704283
0.0695075
0.0685771
0.067636
0.0666841
0.0657215
0.0647491
0.0637665
0.0627738
0.0617712
0.060759
0.0597369
0.0587055
0.0576655
0.0566176
0.0555628
0.0545031
0.0534397
0.0523742
0.0513085
0.0502459
0.0491909
0.0481476
0.047121
0.0461157
0.0451368
0.0441891
0.0432815
0.0424252
0.041629
0.0409006
0.0402488
0.0396793
0.0391987
0.0388119
0.0780745
0.0773093
0.0765302
0.0757404
0.0749389
0.0741266
0.0733019
0.0724679
0.0716246
0.0707717
0.0699083
0.0690334
0.0681451
0.0672424
0.0663304
0.0654068
0.064471
0.063524
0.0625667
0.0615985
0.0606185
0.0596287
0.0586291
0.0576218
0.0566074
0.0555894
0.0545685
0.0535444
0.0525202
0.0515039
0.0504977
0.0495064
0.0485386
0.0475953
0.0466789
0.0457957
0.0449624
0.0441903
0.0434809
0.0428516
0.0422933
0.0418211
0.0414381
0.0786366
0.0779397
0.077226
0.0765029
0.0757632
0.0750162
0.0742497
0.0734733
0.0726872
0.0718912
0.0710849
0.0702673
0.0694392
0.0685829
0.0677217
0.0668483
0.0659614
0.0650605
0.0641478
0.0632276
0.0622913
0.0613467
0.0603854
0.0594197
0.0584415
0.0574606
0.0564781
0.0554947
0.0544981
0.0535137
0.0525404
0.0515767
0.0506422
0.0497283
0.0488419
0.0479798
0.0471628
0.0464149
0.045711
0.0451194
0.0445633
0.0441003
0.0437172
0.0062734
0.00724008
0.00823321
0.0090884
0.00986231
0.0106051
0.011338
0.0120713
0.0128136
0.0135833
0.0144017
0.0152768
0.0162039
0.0171745
0.0181832
0.0192234
0.0202931
0.0213919
0.0225201
0.0236757
0.0248571
0.0260611
0.0272879
0.0285353
0.0298034
0.0310918
0.0323995
0.0337262
0.0350712
0.0364343
0.0378148
0.0392126
0.0406264
0.0420559
0.0435004
0.0449592
0.0464317
0.0479174
0.0494158
0.0509266
0.0524493
0.0539837
0.0555282
0.0163422
0.0162049
0.0162254
0.0163887
0.0166829
0.0170905
0.0175971
0.0181887
0.0188529
0.0195798
0.0203602
0.0211889
0.0220576
0.0229625
0.0238982
0.0248618
0.0258504
0.0268629
0.0278971
0.0289512
0.0300248
0.0311166
0.0322247
0.0333501
0.0344911
0.0356474
0.0368187
0.0380043
0.0392041
0.0404174
0.0416443
0.0428836
0.0441352
0.0453985
0.0466735
0.0479593
0.0492558
0.0505629
0.0518804
0.0532085
0.054547
0.0558963
0.0572585
0.0225739
0.0224026
0.0223594
0.0224407
0.0226396
0.0229463
0.0233502
0.0238404
0.0244048
0.0250346
0.0257211
0.0264564
0.0272347
0.0280485
0.0288958
0.0297703
0.0306705
0.0315928
0.0325353
0.0334966
0.0344742
0.0354673
0.0364752
0.0374963
0.0385305
0.0395768
0.0406343
0.0417032
0.0427827
0.0438723
0.0449714
0.04608
0.0471973
0.0483231
0.049457
0.0505992
0.0517491
0.0529072
0.0540736
0.0552485
0.0564316
0.0576229
0.0588221
0.0276572
0.027475
0.0274073
0.027451
0.0276021
0.0278527
0.0281951
0.0286187
0.0291155
0.0296763
0.0302925
0.0309575
0.0316642
0.0324083
0.0331834
0.0339869
0.0348138
0.0356623
0.0365295
0.0374131
0.0383117
0.0392238
0.0401482
0.0410836
0.0420294
0.0429843
0.043948
0.0449202
0.0458997
0.0468865
0.0478797
0.0488789
0.0498841
0.0508946
0.0519105
0.0529318
0.0539586
0.0549913
0.0560303
0.0570757
0.058127
0.0591841
0.0602471
0.0318921
0.0317043
0.0316224
0.0316443
0.0317661
0.0319819
0.0322834
0.0326632
0.0331129
0.0336237
0.0341886
0.0348011
0.0354548
0.0361439
0.0368638
0.0376098
0.0383788
0.0391674
0.0399732
0.0407943
0.0416285
0.0424746
0.0433304
0.0441954
0.0450681
0.0459476
0.0468339
0.0477255
0.0486225
0.0495234
0.0504279
0.0513357
0.0522466
0.0531603
0.0540768
0.0549963
0.0559194
0.0568466
0.0577779
0.0587132
0.0596522
0.0605944
0.0615397
0.0354689
0.0352772
0.0351866
0.0351946
0.0352976
0.0354898
0.0357637
0.0361121
0.0365265
0.0370004
0.037527
0.0380995
0.0387119
0.0393585
0.0400339
0.0407341
0.0414558
0.0421961
0.0429525
0.0437226
0.0445043
0.0452959
0.0460955
0.046902
0.0477142
0.0485316
0.0493533
0.0501787
0.0510062
0.0518352
0.0526652
0.053496
0.0543277
0.0551597
0.0559921
0.0568257
0.0576615
0.0584995
0.0593397
0.0601816
0.0610243
0.0618678
0.0627125
0.0385211
0.038327
0.0382304
0.0382288
0.0383191
0.0384952
0.0387492
0.0390728
0.0394603
0.0399059
0.0404029
0.0409452
0.0415255
0.0421372
0.0427757
0.0434385
0.044122
0.0448236
0.0455397
0.0462679
0.0470064
0.047753
0.0485058
0.0492636
0.0500252
0.050791
0.0515599
0.0523296
0.0530986
0.0538665
0.0546333
0.0553993
0.0561637
0.0569263
0.0576876
0.0584487
0.0592108
0.0599739
0.0607371
0.0614991
0.0622589
0.0630169
0.0637751
0.0411479
0.0409519
0.0408509
0.0408426
0.0409244
0.04109
0.0413276
0.0416303
0.0419952
0.0424189
0.0428942
0.0434138
0.0439667
0.0445475
0.0451556
0.0457881
0.0464416
0.0471113
0.0477938
0.0484872
0.0491902
0.0498993
0.0506125
0.0513287
0.0520486
0.0527725
0.0534975
0.0542199
0.054938
0.0556534
0.0563672
0.0570788
0.0577859
0.0584888
0.0591896
0.0598901
0.0605909
0.0612911
0.0619892
0.062682
0.0633693
0.064053
0.0647356
0.0434257
0.0432274
0.0431219
0.0431066
0.0431826
0.043342
0.0435632
0.0438426
0.0441867
0.044597
0.0450566
0.0455581
0.0460795
0.0466325
0.0472161
0.0478249
0.0484542
0.0490967
0.0497488
0.0504139
0.0510875
0.051763
0.0524414
0.0531226
0.0538097
0.0545014
0.0551895
0.0558696
0.0565423
0.0572149
0.057886
0.0585519
0.0592088
0.0598618
0.0605147
0.0611685
0.0618213
0.0624699
0.0631128
0.0637435
0.0643684
0.0649901
0.0656097
0.0173488
0.0163553
0.0154065
0.014499
0.013631
0.0128016
0.0120098
0.0112546
0.0105351
0.00985099
0.00920151
0.00858592
0.0080041
0.00745633
0.00694364
0.00646832
0.00603424
0.00564879
0.00531552
0.00502308
0.00476094
0.00452185
0.004301
0.00409496
0.00390085
0.00371621
0.00353876
0.00336636
0.00319695
0.00302862
0.00285951
0.00268785
0.00251193
0.0023302
0.00214112
0.00194328
0.00173539
0.00151632
0.00128521
0.00104177
0.000788154
0.000539325
0.000341884
0.0172754
0.0163563
0.0154751
0.0146294
0.0138177
0.0130387
0.0122917
0.0115757
0.0108902
0.0102349
0.0096088
0.00901157
0.00844302
0.00790317
0.00739251
0.00691233
0.00646507
0.00605549
0.00568992
0.00536839
0.00508186
0.00482261
0.00458494
0.00436461
0.00415822
0.00396312
0.00377684
0.00359719
0.003422
0.00324924
0.00307687
0.00290287
0.00272524
0.00254208
0.00235146
0.00215156
0.00194074
0.00171749
0.00148083
0.00123102
0.000973289
0.000733781
0.000625346
0.0172145
0.0163646
0.0155479
0.0147615
0.0140035
0.0132728
0.0125686
0.0118904
0.0112375
0.0106098
0.0100065
0.00942728
0.00887212
0.00834085
0.00783372
0.0073515
0.00689573
0.00646942
0.00607753
0.00572621
0.00541291
0.00513007
0.00487185
0.00463369
0.00441198
0.0042036
0.00400593
0.00381654
0.0036332
0.00345373
0.00327596
0.00309768
0.00291668
0.00273067
0.00253739
0.00233456
0.00212004
0.00189195
0.00164913
0.00139303
0.00113507
0.000930354
0.000972774
0.0171582
0.016374
0.0156167
0.0148843
0.0141755
0.0134891
0.0128245
0.0121812
0.0115586
0.0109565
0.0103747
0.00981275
0.00927063
0.00874818
0.00824579
0.0077638
0.00730327
0.00686619
0.00645595
0.0060786
0.00573899
0.00543196
0.00515172
0.00489373
0.00465451
0.0044308
0.0042198
0.00401889
0.00382569
0.00363787
0.00345312
0.00326911
0.00308339
0.00289344
0.00269663
0.00249028
0.00227182
0.00203893
0.00179054
0.00153009
0.00127976
0.00114078
0.00135956
0.0171052
0.0163824
0.0156797
0.0149967
0.0143326
0.0136867
0.0130581
0.0124466
0.0118516
0.0112733
0.0107115
0.0101657
0.00963605
0.0091226
0.00862552
0.00814512
0.00768234
0.00723834
0.00681564
0.0064189
0.00605489
0.00572453
0.00542218
0.00514371
0.00488578
0.00464536
0.00441958
0.0042058
0.00400145
0.00380408
0.00361126
0.00342048
0.00322911
0.00303443
0.00283353
0.00262335
0.00240089
0.00216355
0.00191054
0.00164829
0.00141499
0.00136801
0.00175805
0.0170563
0.0163897
0.015737
0.0150991
0.0144758
0.0138665
0.0132706
0.012688
0.0121185
0.0115621
0.0110185
0.0104877
0.00997004
0.00946525
0.00897368
0.00849571
0.00803199
0.00758357
0.00715226
0.00674148
0.00635706
0.00600493
0.0056817
0.00538313
0.00510622
0.00484835
0.00460692
0.00437936
0.00416299
0.00395524
0.00375355
0.00355527
0.00335764
0.00315771
0.0029523
0.0027381
0.00251175
0.00227038
0.00201367
0.00175229
0.0015453
0.0016072
0.00215038
0.0170149
0.0163966
0.0157891
0.0151923
0.0146059
0.0140299
0.013464
0.0129079
0.0123616
0.011825
0.0112983
0.0107817
0.0102751
0.00977852
0.00929248
0.00881723
0.00835348
0.00790201
0.00746458
0.00704346
0.00664332
0.00627146
0.00592882
0.00561107
0.00531567
0.00504043
0.00478311
0.00454126
0.0043123
0.00409362
0.00388252
0.00367628
0.00347203
0.00326654
0.0030565
0.00283814
0.00260789
0.00236276
0.00210321
0.00184523
0.00167293
0.00185137
0.00252821
0.0169757
0.0164027
0.0158363
0.0152768
0.0147247
0.0141794
0.0136411
0.0131094
0.0125839
0.0120648
0.0115534
0.0110501
0.0105544
0.0100661
0.00958556
0.00911313
0.00864951
0.00819576
0.00775337
0.00732438
0.006912
0.00652278
0.00616218
0.00582681
0.0055139
0.00522158
0.00494819
0.00469174
0.00445001
0.00422037
0.00399973
0.00378504
0.00357338
0.003362
0.0031473
0.00292562
0.00269234
0.00244424
0.00218265
0.0019299
0.00179793
0.00209378
0.0028895
0.0169382
0.0164074
0.0158782
0.0153532
0.0148333
0.0143174
0.0138058
0.013299
0.0127924
0.0122866
0.0117869
0.0112964
0.0108139
0.010337
0.00986481
0.00939741
0.00893529
0.00847826
0.0080304
0.00759612
0.00717638
0.00677226
0.00639402
0.00604259
0.00571376
0.00540532
0.00511581
0.00484334
0.0045846
0.00434198
0.00411421
0.00389478
0.00367833
0.00345786
0.00323375
0.00299946
0.00276063
0.0025079
0.00224604
0.00200386
0.00192477
0.00234675
0.00324441
0.000384476
0.000599442
0.000876461
0.00122497
0.0016258
0.00207808
0.00258116
0.00313432
0.00373683
0.00438845
0.00508939
0.00583973
0.00664026
0.007492
0.00839571
0.00935306
0.010365
0.0114333
0.0125599
0.0137464
0.0149947
0.0163069
0.0176851
0.0191315
0.0206484
0.0222382
0.0239032
0.025646
0.0274692
0.0293749
0.0313659
0.0334445
0.0356127
0.0378722
0.0402237
0.0426663
0.045196
0.047804
0.0504739
0.0531812
0.0558966
0.0585913
0.0612416
0.000846353
0.00115988
0.00151047
0.00194234
0.00242801
0.0029635
0.00354928
0.00418554
0.00487217
0.00560871
0.00639485
0.00723044
0.0081154
0.00904984
0.0100343
0.0110691
0.0121552
0.0132933
0.0144842
0.0157295
0.0170302
0.0183874
0.0198027
0.0212779
0.0228145
0.024414
0.026078
0.0278085
0.0296071
0.0314756
0.0334156
0.0354288
0.0375164
0.0396792
0.0419168
0.0442272
0.0466049
0.0490395
0.0515149
0.0540102
0.0565023
0.0589695
0.0613907
0.00135233
0.00178496
0.0022372
0.00272743
0.00329526
0.00391613
0.00458641
0.00530599
0.00607495
0.00689301
0.00775969
0.00867458
0.00963725
0.0106474
0.0117048
0.0128094
0.0139613
0.0151608
0.0164084
0.0177043
0.0190495
0.0204444
0.0218902
0.0233876
0.0249375
0.026541
0.0281991
0.029913
0.0316839
0.0335127
0.0354008
0.0373487
0.0393573
0.041426
0.0435535
0.0457358
0.0479656
0.0502319
0.0525201
0.0548136
0.0570954
0.0593505
0.061565
0.00187214
0.00240944
0.00295044
0.00351223
0.00415868
0.00486195
0.00561407
0.00641396
0.00726154
0.00815649
0.00909839
0.0100867
0.0111205
0.0121992
0.0133222
0.014489
0.0156993
0.0169528
0.0182494
0.0195892
0.0209722
0.0223987
0.023869
0.0253835
0.0269424
0.0285464
0.0301959
0.0318916
0.0336339
0.0354236
0.0372612
0.039147
0.0410805
0.0430602
0.045083
0.047143
0.0492323
0.0513404
0.0534554
0.0555647
0.0576563
0.0597191
0.0617434
0.00238211
0.00301108
0.00363386
0.00426983
0.0049921
0.00577413
0.00660443
0.00748083
0.00840291
0.00937043
0.0103828
0.0114392
0.0125386
0.0136801
0.0148629
0.016086
0.0173486
0.0186501
0.0199903
0.0213685
0.0227845
0.0242382
0.0257293
0.0272577
0.0288232
0.0304256
0.0320649
0.0337415
0.0354555
0.0372072
0.0389965
0.0408228
0.0426846
0.044579
0.0465011
0.0484443
0.0504009
0.052362
0.0543186
0.0562614
0.0581817
0.060072
0.0619256
0.00287196
0.00358482
0.00428478
0.00499295
0.00578812
0.00664509
0.00754979
0.00849897
0.0094917
0.0105274
0.0116055
0.0127251
0.013885
0.0150841
0.0163211
0.0175949
0.0189045
0.0202491
0.0216282
0.0230407
0.0244862
0.025964
0.0274735
0.0290138
0.0305838
0.0321829
0.0338106
0.0354673
0.0371529
0.038867
0.0406091
0.0423774
0.0441696
0.0459813
0.0478066
0.0496386
0.0514709
0.053297
0.05511
0.056903
0.0586704
0.0604062
0.0621053
0.00333916
0.0041312
0.00490504
0.0056829
0.00654737
0.00747529
0.00845081
0.00946971
0.0105296
0.0116296
0.0127688
0.0139465
0.0151618
0.0164132
0.017699
0.0190181
0.0203693
0.0217523
0.023166
0.0246094
0.0260816
0.0275818
0.0291081
0.0306589
0.0322314
0.0338243
0.0354381
0.0370731
0.0387291
0.040405
0.0420997
0.0438107
0.0455349
0.047267
0.0489996
0.050727
0.052444
0.0541465
0.0558303
0.0574903
0.0591217
0.0607196
0.0622803
0.00378507
0.00465307
0.00549867
0.00634514
0.0072731
0.00826746
0.00931014
0.0103968
0.0115218
0.0126831
0.0138782
0.0151087
0.0163749
0.0176732
0.019002
0.0203593
0.0217467
0.0231636
0.0246081
0.0260796
0.0275771
0.0290989
0.030642
0.0322027
0.0337729
0.035355
0.0369508
0.0385617
0.0401858
0.0418223
0.0434689
0.0451222
0.0467807
0.0484369
0.0500832
0.0517135
0.0533233
0.054912
0.0564812
0.0580241
0.0595364
0.0610118
0.0624489
0.00421511
0.00515371
0.00606935
0.00698609
0.00796895
0.00902436
0.0101288
0.0112836
0.0124736
0.0136966
0.0149382
0.0162161
0.0175323
0.018871
0.0202361
0.0216208
0.0230404
0.0244879
0.0259583
0.0274561
0.0289781
0.0305232
0.0320857
0.0336588
0.0352115
0.0367781
0.0383502
0.0399362
0.0415239
0.0431206
0.0447175
0.046312
0.0479075
0.0494926
0.0510655
0.0526085
0.0541116
0.0555911
0.0570635
0.0585075
0.0599173
0.0612809
0.0626053
0.000486019
0.00190625
0.00345286
0.00504561
0.00666048
0.0082865
0.0099204
0.0115597
0.0132015
0.0148446
0.01649
0.0181381
0.0197897
0.0214461
0.023107
0.0247738
0.0264469
0.0281266
0.0298134
0.0315076
0.0332086
0.0349172
0.036633
0.0383555
0.0400849
0.0418207
0.0435621
0.045309
0.047061
0.048817
0.050577
0.0523399
0.0541046
0.0558708
0.0576371
0.0594028
0.0611669
0.0629281
0.0646857
0.0664383
0.0681848
0.0699248
0.0716519
9.96664e-05
0.000994596
0.00213609
0.00343569
0.0048361
0.00630479
0.00782279
0.00937904
0.0109649
0.0125741
0.0142031
0.0158488
0.01751
0.0191848
0.0208718
0.0225706
0.0242805
0.0260009
0.0277316
0.0294719
0.0312213
0.0329797
0.0347466
0.0365212
0.038303
0.0400915
0.0418861
0.0436864
0.0454917
0.0473009
0.0491136
0.0509286
0.0527453
0.0545628
0.0563797
0.0581955
0.0600085
0.0618181
0.0636232
0.0654219
0.0672135
0.0689958
0.0707615
0.00021328
0.000862657
0.00180471
0.00289433
0.00409543
0.00538419
0.00674482
0.00816573
0.00963786
0.011154
0.012708
0.0142955
0.0159123
0.0175554
0.0192219
0.0209093
0.0226161
0.0243405
0.0260806
0.0278354
0.0296038
0.0313848
0.0331773
0.0349801
0.0367921
0.0386128
0.0404415
0.042277
0.0441183
0.0459644
0.0478143
0.0496673
0.0515223
0.053378
0.0552336
0.0570874
0.0589387
0.0607862
0.0626285
0.0644642
0.0662923
0.0681115
0.0699205
0.000230774
0.000758666
0.00158232
0.00254087
0.00361015
0.00477223
0.00601399
0.00732518
0.00869812
0.010126
0.0116025
0.0131233
0.0146834
0.0162792
0.0179073
0.0195648
0.0212495
0.0229581
0.0246888
0.0264398
0.0282098
0.0299968
0.0317988
0.0336147
0.0354434
0.0372837
0.0391342
0.0409933
0.04286
0.0447332
0.0466117
0.0484943
0.0503795
0.0522664
0.0541535
0.0560396
0.0579235
0.0598035
0.0616781
0.0635463
0.0654063
0.0672565
0.0690948
0.000235767
0.000665494
0.0014042
0.00227139
0.00324714
0.00431605
0.00546696
0.00669076
0.0079812
0.00933154
0.0107369
0.0121929
0.0136948
0.0152393
0.0168229
0.0184425
0.0200954
0.0217783
0.0234893
0.0252262
0.0269865
0.0287683
0.0305697
0.032389
0.0342246
0.0360749
0.0379379
0.0398122
0.0416966
0.0435896
0.0454895
0.047395
0.0493044
0.0512168
0.0531304
0.0550439
0.0569555
0.0588639
0.0607674
0.0626644
0.0645533
0.0664325
0.0683034
0.00023819
0.000598555
0.00127366
0.00207127
0.00297389
0.0039682
0.00504414
0.00619477
0.00741366
0.00869554
0.0100362
0.0114314
0.0128775
0.0143709
0.0159083
0.017487
0.019104
0.0207562
0.0224417
0.0241576
0.0259014
0.0276712
0.0294647
0.0312801
0.0331154
0.0349683
0.0368371
0.0387204
0.0406163
0.0425228
0.0444385
0.0463614
0.0482902
0.0502232
0.0521588
0.0540952
0.0560309
0.0579641
0.0598932
0.0618162
0.0637318
0.065638
0.0675357
0.000238402
0.00054907
0.00117372
0.00191577
0.00275911
0.00369178
0.00470522
0.00579323
0.00695006
0.00817171
0.00945413
0.0107939
0.0121876
0.0136319
0.0151241
0.0166615
0.0182412
0.0198602
0.0215167
0.0232078
0.0249311
0.0266839
0.0284647
0.030271
0.0321004
0.0339507
0.0358205
0.0377073
0.0396092
0.0415245
0.0434512
0.0453872
0.0473309
0.0492805
0.0512342
0.0531901
0.0551464
0.0571014
0.0590531
0.0610001
0.0629403
0.0648725
0.0667983
0.000237768
0.000509575
0.00109282
0.00178928
0.00258332
0.00346424
0.00442461
0.00545872
0.00656195
0.00773058
0.00896107
0.0102503
0.0115954
0.0129939
0.0144428
0.0159397
0.017482
0.0190673
0.0206931
0.0223574
0.0240573
0.0257905
0.0275547
0.0293481
0.0311678
0.0330117
0.0348779
0.0367641
0.0386681
0.0405881
0.0425217
0.0444669
0.046422
0.0483847
0.050353
0.0523253
0.0542993
0.0562732
0.0582454
0.0602138
0.062177
0.0641328
0.0660819
0.000237013
0.000477163
0.00102551
0.00168373
0.00243606
0.00327293
0.0041875
0.00517477
0.00623089
0.00735238
0.00853622
0.00977955
0.0110803
0.0124358
0.0138438
0.015302
0.016808
0.0183596
0.0199546
0.0215908
0.023266
0.0249772
0.0267227
0.0285003
0.0303075
0.0321419
0.0340014
0.0358837
0.0377865
0.0397075
0.0416449
0.0435962
0.0455592
0.0475318
0.0495121
0.0514979
0.053487
0.0554775
0.0574677
0.0594559
0.0614402
0.0634198
0.0653968
0.000236404
0.000450417
0.00096944
0.00159417
0.00231066
0.00310932
0.00398393
0.00493027
0.00594445
0.00702384
0.00816554
0.00936731
0.010627
0.0119427
0.0133123
0.0147336
0.0162045
0.0177234
0.0192879
0.0208959
0.0225451
0.0242335
0.0259588
0.0277189
0.0295113
0.0313338
0.033184
0.0350598
0.0369585
0.0388781
0.0408163
0.0427706
0.0447389
0.046719
0.0487085
0.0507051
0.052707
0.0547118
0.0567179
0.0587233
0.0607268
0.0627281
0.0647236
0.0002357
0.000427592
0.000921459
0.00151692
0.00220202
0.00296718
0.00380665
0.00471647
0.00569341
0.00673489
0.00783837
0.00900211
0.0102243
0.0115031
0.0128365
0.0142228
0.0156605
0.0171477
0.0186823
0.0202622
0.0218856
0.0235504
0.0252547
0.0269959
0.0287721
0.0305809
0.0324201
0.034287
0.0361797
0.0380953
0.0400319
0.041987
0.0439582
0.0459432
0.0479394
0.0499449
0.0519572
0.0539741
0.0559935
0.0580135
0.0600323
0.0620479
0.0640528
0.000235009
0.000408062
0.000879836
0.00144933
0.00210674
0.00284231
0.00365048
0.00452765
0.00547091
0.00647804
0.00754689
0.00867593
0.00986351
0.0111078
0.0124076
0.0137611
0.015167
0.0166237
0.0181291
0.0196815
0.0212793
0.0229207
0.0246032
0.026325
0.0280838
0.0298776
0.0317041
0.0335609
0.0354453
0.0373552
0.0392886
0.0412423
0.0432144
0.0452021
0.0472031
0.0492152
0.0512357
0.0532624
0.0552929
0.057325
0.0593561
0.0613829
0.0633985
0.000234416
0.000390857
0.000843025
0.00138955
0.00202241
0.00273138
0.00351145
0.00435911
0.00527195
0.00624792
0.00728505
0.00838207
0.00953761
0.01075
0.0120183
0.013341
0.0147167
0.0161442
0.0176215
0.0191472
0.02072
0.0223377
0.0239985
0.0257003
0.0274412
0.029219
0.0310318
0.0328768
0.0347518
0.0366548
0.0385828
0.0405335
0.0425045
0.0444932
0.0464973
0.0485139
0.0505407
0.0525753
0.0546151
0.0566574
0.0586994
0.0607387
0.0627724
0.000233872
0.000375804
0.000810403
0.00133621
0.00194685
0.00263186
0.0033864
0.00420743
0.00509263
0.00604003
0.00704811
0.00811573
0.00924147
0.0104241
0.011663
0.0129565
0.0143037
0.0157032
0.0171535
0.0186536
0.0202015
0.021796
0.023435
0.0251169
0.0268395
0.028601
0.030399
0.0322313
0.0340961
0.0359903
0.0379116
0.039858
0.0418264
0.0438146
0.0458197
0.0478393
0.0498707
0.0519115
0.0539588
0.0560097
0.0580614
0.0601104
0.0621518
0.000233379
0.000362225
0.000781073
0.0012883
0.00187872
0.00254202
0.00327345
0.00407019
0.00492993
0.00585117
0.00683245
0.00787281
0.00897088
0.0101259
0.0113368
0.012603
0.0139231
0.0152958
0.0167205
0.0181955
0.0197197
0.0212912
0.0229089
0.0245707
0.0262749
0.0280196
0.0298024
0.0316215
0.0334745
0.035359
0.0372728
0.0392133
0.0411781
0.043164
0.045169
0.0471902
0.0492248
0.0512703
0.0533237
0.0553822
0.0574428
0.0595025
0.06156
0.000232837
0.000350118
0.00075479
0.00124522
0.00181682
0.00246031
0.00317058
0.00394488
0.0047813
0.0056783
0.00663483
0.0076498
0.00872227
0.00985127
0.0110363
0.0122765
0.0135707
0.0149184
0.0163183
0.0177693
0.0192702
0.0208197
0.0224161
0.0240581
0.0257438
0.0274713
0.0292386
0.0310438
0.0328848
0.0347588
0.0366639
0.0385977
0.0405573
0.04254
0.0445435
0.0465649
0.0486016
0.0506506
0.0527091
0.0547743
0.0568437
0.058915
0.0609898
0.00023241
0.000339269
0.000730995
0.00120607
0.00176041
0.00238553
0.00307631
0.00383012
0.0046449
0.00551954
0.00645294
0.00744437
0.0084927
0.00959737
0.010758
0.0119737
0.0132436
0.0145672
0.0159435
0.0173713
0.0188498
0.0203777
0.0219534
0.0235756
0.025243
0.0269533
0.0287049
0.0304961
0.0323242
0.0341873
0.036083
0.0380091
0.0399626
0.0419411
0.043942
0.0459626
0.048
0.0500513
0.0521138
0.0541849
0.0562616
0.0583422
0.0604272
0.000232114
0.000329824
0.00070935
0.00117037
0.00170864
0.00231685
0.00298964
0.00372434
0.0045192
0.0053731
0.00628497
0.00725415
0.00828004
0.00936188
0.0104994
0.0116918
0.0129387
0.0142394
0.0155931
0.0169987
0.0184555
0.0199622
0.0215178
0.0231209
0.0247699
0.0264631
0.0281991
0.0299756
0.0317907
0.0336422
0.0355279
0.0374455
0.0393923
0.0413656
0.043363
0.0453817
0.0474188
0.0494714
0.0515369
0.0536123
0.0556948
0.0577817
0.0598717
0.000232122
0.000323023
0.000689548
0.00113741
0.00166085
0.00225351
0.00290964
0.00362668
0.00440296
0.00523738
0.006129
0.0070775
0.00808224
0.00914257
0.0102582
0.0114287
0.0126537
0.0139325
0.0152645
0.0166488
0.0180844
0.0195708
0.0211069
0.022691
0.024322
0.0259984
0.0277184
0.0294802
0.0312822
0.0331217
0.0349969
0.0369056
0.0388448
0.0408121
0.0428052
0.0448212
0.0468571
0.0489101
0.0509773
0.0530558
0.0551426
0.0572342
0.0593285
0.000232698
0.000320591
0.000671422
0.00110702
0.00161661
0.0021947
0.00283528
0.00353578
0.00429466
0.00511082
0.0059837
0.0069128
0.00789747
0.00893747
0.0100325
0.0111823
0.0123863
0.0136443
0.0149554
0.0163191
0.0177348
0.0192016
0.0207183
0.0222839
0.0238973
0.0255569
0.0272612
0.0290085
0.0307968
0.0326241
0.0344885
0.0363875
0.0383187
0.0402797
0.0422678
0.0442801
0.0463138
0.0483662
0.0504342
0.0525148
0.0546048
0.0567006
0.0587989
0.000234011
0.000321403
0.000654832
0.00107887
0.00157555
0.00213998
0.00276605
0.00345111
0.00419362
0.0049928
0.00584806
0.00675875
0.00772455
0.00874536
0.00982091
0.0109509
0.0121349
0.0133729
0.0146641
0.0160082
0.0174045
0.018852
0.0203502
0.0218978
0.0234938
0.0251371
0.0268257
0.0285583
0.030333
0.032148
0.0340012
0.0358902
0.0378129
0.0397668
0.0417491
0.0437571
0.045788
0.0478389
0.049907
0.051989
0.0540818
0.0561825
0.0582895
0.000235689
0.000323432
0.000639583
0.00105278
0.00153764
0.00208904
0.00270142
0.00337199
0.00409919
0.00488228
0.00572079
0.00661418
0.00756225
0.00856492
0.00962183
0.010733
0.0118982
0.013117
0.014389
0.0157141
0.0170915
0.0185208
0.0200008
0.0215309
0.02311
0.0247369
0.0264101
0.0281281
0.0298892
0.0316917
0.0335335
0.0354124
0.0373262
0.0392724
0.0412483
0.0432516
0.0452789
0.0473279
0.0493953
0.0514779
0.0535731
0.0556778
0.0577915
0.000237403
0.000325558
0.000625592
0.00102863
0.0015023
0.00204135
0.00264093
0.00329777
0.00401049
0.00477848
0.00560127
0.00647827
0.0074095
0.00839476
0.00943406
0.0105273
0.0116744
0.0128749
0.0141286
0.0154355
0.0167948
0.0182061
0.0196687
0.0211816
0.022744
0.024355
0.0260129
0.0277165
0.029464
0.031254
0.0330843
0.0349529
0.0368573
0.0387954
0.0407648
0.0427625
0.044786
0.0468321
0.0488981
0.0509808
0.0530771
0.055184
0.0572987
0.000239001
0.000327324
0.00061258
0.00100605
0.00146917
0.00199658
0.00258399
0.00322795
0.00392712
0.00468079
0.00548848
0.00635006
0.00726521
0.0082341
0.00925662
0.0103328
0.0114624
0.0126454
0.0138818
0.015171
0.0165127
0.0179067
0.0193523
0.0208486
0.0223949
0.0239901
0.025633
0.0273223
0.0290564
0.0308335
0.0326522
0.0345102
0.0364051
0.0383351
0.0402974
0.0422892
0.044308
0.0463509
0.048415
0.0504969
0.0525939
0.0547026
0.0568203
0.000240438
0.000328717
0.000600547
0.000984991
0.00143806
0.00195439
0.00253027
0.00316213
0.00384847
0.00458849
0.00538201
0.00622883
0.00712884
0.00808205
0.00908859
0.0101484
0.0112614
0.0124276
0.013647
0.0149193
0.0162443
0.0176216
0.0190505
0.0205307
0.0220612
0.023641
0.0252692
0.0269443
0.0286648
0.0304295
0.0322366
0.0340837
0.035969
0.0378903
0.039845
0.0418308
0.0438445
0.0458838
0.0479454
0.0500263
0.0521235
0.0542337
0.0563553
0.000241716
0.000329805
0.000589311
0.000965117
0.00140874
0.0019146
0.00247958
0.00309991
0.00377403
0.00450116
0.00528131
0.00611421
0.00699965
0.00793791
0.00892919
0.00997329
0.0110703
0.0122204
0.0134236
0.0146795
0.0159884
0.0173494
0.0187622
0.0202266
0.0217416
0.0233064
0.0249201
0.0265811
0.0282886
0.0300407
0.0318359
0.0336724
0.0355478
0.0374602
0.0394073
0.0413865
0.0433949
0.04543
0.0474888
0.0495681
0.051665
0.0537766
0.0559009
0.000242787
0.000330421
0.000578663
0.000946321
0.001381
0.00187702
0.00243167
0.00304106
0.00370351
0.00441843
0.00518572
0.00600525
0.00687688
0.00780085
0.00877747
0.00980654
0.0108883
0.012023
0.0132105
0.0144509
0.0157439
0.0170892
0.0184866
0.0199356
0.0214355
0.0229856
0.0245849
0.0262324
0.0279266
0.0296662
0.0314498
0.0332753
0.0351409
0.0370444
0.0389836
0.0409557
0.0429584
0.0449891
0.0470445
0.0491218
0.0512181
0.0533302
0.0554563
0.000243749
0.000331043
0.000568831
0.000928694
0.00135486
0.00184162
0.00238626
0.00298513
0.0036366
0.00433996
0.00509504
0.00590181
0.00676022
0.00767057
0.00863306
0.00964777
0.0107149
0.0118347
0.0130071
0.0142323
0.01551
0.0168403
0.0182226
0.0196566
0.0211418
0.0226774
0.0242628
0.0258967
0.027578
0.0293053
0.0310771
0.0328918
0.0347474
0.0366418
0.0385728
0.0405379
0.0425346
0.0445604
0.0466121
0.0486868
0.0507816
0.0528935
0.0550193
0.00024467
0.000331345
0.000559799
0.00091209
0.00133018
0.00180808
0.00234311
0.002932
0.00357293
0.00426522
0.00500862
0.00580322
0.00664898
0.00754619
0.00849522
0.00949625
0.0105493
0.0116547
0.0128127
0.0140231
0.0152861
0.0166016
0.0179693
0.0193887
0.0208595
0.0223812
0.0239527
0.0255733
0.0272418
0.028957
0.0307171
0.0325211
0.0343665
0.0362517
0.0381744
0.0401322
0.0421227
0.0441432
0.0461907
0.0482624
0.0503552
0.0524656
0.0545893
0.000245433
0.000331654
0.00055224
0.000896464
0.00130686
0.00177629
0.00230206
0.00288138
0.00351224
0.00419392
0.00492618
0.00570916
0.00654277
0.00742747
0.00836359
0.00935135
0.0103908
0.0114824
0.0126264
0.0138228
0.0150715
0.0163727
0.0177261
0.0191314
0.0205882
0.022096
0.0236543
0.0252618
0.0269176
0.0286204
0.0303693
0.0321622
0.0339976
0.0358736
0.0377879
0.0397383
0.0417223
0.0437371
0.0457803
0.0478485
0.0499389
0.0520482
0.0541745
0.000246298
0.000332431
0.00054735
0.000881877
0.00128473
0.00174597
0.00226296
0.00283318
0.00345441
0.00412589
0.00484751
0.00561931
0.00644136
0.00731399
0.00823763
0.00921261
0.0102391
0.0113175