/*--------------------------------*- C++ -*----------------------------------*\
| =========                 |                                                 |
| \\      /  F ield         | OpenFOAM: The Open Source CFD Toolbox           |
|  \\    /   O peration     | Version:  2.3.0                                 |
|   \\  /    A nd           | Web:      www.OpenFOAM.org                      |
|    \\/     M anipulation  |                                                 |
\*---------------------------------------------------------------------------*/
FoamFile
{
    version     2.0;
    format      ascii;
    class       volScalarField;
    location    "2000";
    object      p;
}
// * * * * * * * * * * * * * * * * * * * * * * * * * * * * * * * * * * * * * //

dimensions      [0 2 -2 0 0 0 0];

internalField   nonuniform List<scalar> 
38325
(
-0.000479137
2.54611
4.55829
6.43635
8.31923
10.2111
12.1105
14.0171
15.9318
17.8539
19.7834
21.723
23.6709
25.6287
27.5939
29.5665
31.5427
33.5207
35.4974
37.4685
39.4249
41.356
43.256
45.1076
46.9066
48.632
50.2625
51.7779
53.1552
54.3445
55.3185
56.0173
56.368
56.2921
55.6494
54.2922
52.0493
48.6058
43.6198
36.74
27.5306
13.3325
-14.4727
-0.154044
1.34197
3.02501
4.75101
6.49383
8.24779
10.0145
11.795
13.5877
15.3958
17.2162
19.05
20.8963
22.7552
24.6265
26.5097
28.4052
30.3125
32.2318
34.1627
36.1057
38.0581
40.0193
41.9824
43.9385
45.8798
47.7891
49.6435
51.42
53.08
54.5747
55.8449
56.8148
57.3867
57.444
56.8339
55.3748
52.8504
48.9899
43.4811
35.9585
25.8482
12.0941
-1.37841
-0.240346
1.19604
2.67635
4.15028
5.62032
7.08866
8.55709
10.0211
11.4826
12.937
14.3847
15.824
17.2533
18.6696
20.0693
21.4501
22.8071
24.1347
25.428
26.6798
27.8803
29.0207
30.089
31.072
31.9529
32.7105
33.3224
33.7563
33.9773
33.9374
33.5845
32.8534
31.6655
29.934
27.5472
24.3921
20.34
15.2616
9.02949
1.5453
-7.23583
-17.1635
-2.6872
-1.68992
-0.433722
0.856115
2.13616
3.41302
4.68781
5.9629
7.23622
8.50673
9.77214
11.0329
12.286
13.5301
14.7635
15.9838
17.188
18.3712
19.5295
20.6574
21.7477
22.7926
23.7838
24.7085
25.5544
26.3031
26.9337
27.4251
27.7462
27.8644
27.7372
27.3177
26.5516
25.3741
23.7181
21.5007
18.6426
15.0611
10.6832
5.44872
-0.669457
-7.64803
-15.3717
-3.97232
-3.04929
-1.94807
-0.827557
0.282672
1.38629
2.48712
3.58385
4.67876
5.76737
6.84847
7.91979
8.97867
10.0235
11.0523
12.0618
13.0485
14.0077
14.9346
15.8229
16.6656
17.452
18.1741
18.8188
19.3752
19.8259
20.1512
20.331
20.338
20.1429
19.7089
18.9954
17.9557
16.5384
14.6899
12.3495
9.46127
5.97125
1.83792
-2.95741
-8.4142
-14.4712
-21.0167
-5.04395
-4.26871
-3.30977
-2.34199
-1.37606
-0.418078
0.542114
1.49676
2.45325
3.40368
4.34705
5.27996
6.20032
7.10804
7.999
8.87086
9.71888
10.541
11.3307
12.0816
12.7878
13.4401
14.0278
14.5363
14.9559
15.2709
15.46
15.5065
15.3897
15.0789
14.5418
13.7412
12.6394
11.1874
9.34436
7.06866
4.31591
1.04062
-2.7803
-7.14596
-12.0709
-17.4677
-23.2637
-6.51405
-5.46818
-4.59292
-3.73835
-2.87793
-2.03857
-1.19316
-0.355042
0.49252
1.33426
2.16894
2.99094
3.79123
4.57966
5.35484
6.11663
6.84666
7.55202
8.23114
8.86603
9.45577
9.99132
10.469
10.8597
11.1686
11.3758
11.4542
11.3848
11.1641
10.7632
10.1477
9.28554
8.14943
6.67939
4.8309
2.6092
-0.0259118
-3.1296
-6.70347
-10.73
-15.2909
-20.2255
-25.5244
-7.50454
-6.49657
-5.714
-4.96651
-4.20625
-3.47864
-2.74653
-2.0343
-1.28354
-0.527154
0.233833
1.00073
1.73197
2.40591
3.06463
3.7541
4.40308
5.01104
5.60511
6.16658
6.69292
7.1542
7.5552
7.84943
8.07414
8.21364
8.23899
8.09153
7.77882
7.31119
6.65784
5.76052
4.62161
3.22063
1.38452
-0.809425
-3.35875
-6.3151
-9.66094
-13.4098
-17.7723
-22.4031
-27.3958
-8.02426
-7.20556
-6.5492
-5.94518
-5.32307
-4.76188
-4.14374
-3.64351
-3.08785
-2.50533
-1.87548
-1.15771
-0.416406
0.231947
0.713416
1.32555
1.91835
2.44857
2.89561
3.33609
3.8339
4.30743
4.71807
4.95278
5.13455
5.20385
5.19747
5.05467
4.72589
4.18846
3.56007
2.71106
1.45499
0.231756
-1.63286
-3.78265
-6.30095
-9.23034
-12.7363
-16.1173
-20.8608
-25.2005
-29.9637
-74.7496
-89.487
-94.1924
-102.834
-111.316
-117.333
-121.726
-125.176
-127.941
-130.124
-131.867
-133.267
-134.392
-135.311
-136.043
-136.623
-137.065
-137.396
-137.627
-137.774
-137.847
-137.858
-137.807
-137.718
-137.585
-137.421
-137.235
-137.031
-136.812
-136.583
-136.347
-136.105
-135.864
-135.622
-135.379
-135.136
-134.893
-134.653
-134.411
-134.173
-133.936
-133.709
-133.58
-7.36916
-28.2482
-45.8862
-60.4945
-72.6985
-82.7668
-91.0398
-97.8199
-103.362
-107.881
-111.55
-114.527
-116.934
-118.882
-120.481
-121.777
-122.852
-123.752
-124.518
-125.181
-125.759
-126.28
-126.749
-127.179
-127.579
-127.946
-128.285
-128.603
-128.893
-129.159
-129.4
-129.617
-129.809
-129.976
-130.12
-130.238
-130.334
-130.411
-130.464
-130.5
-130.514
-130.505
-130.492
-27.8374
-38.4535
-48.3107
-57.26
-65.3596
-72.6029
-79.0289
-84.6765
-89.6371
-93.9795
-97.7858
-101.131
-104.072
-106.666
-108.964
-111.009
-112.83
-114.46
-115.916
-117.226
-118.404
-119.463
-120.416
-121.273
-122.045
-122.739
-123.365
-123.927
-124.431
-124.888
-125.297
-125.665
-125.997
-126.296
-126.565
-126.806
-127.02
-127.213
-127.382
-127.533
-127.664
-127.783
-127.89
-23.6742
-32.2329
-40.7251
-48.8935
-56.5814
-63.6763
-70.1513
-75.9883
-81.2228
-85.8891
-90.0376
-93.7218
-96.9851
-99.8847
-102.46
-104.754
-106.803
-108.637
-110.285
-111.767
-113.106
-114.322
-115.424
-116.436
-117.357
-118.202
-118.982
-119.697
-120.356
-120.963
-121.524
-122.04
-122.516
-122.951
-123.353
-123.72
-124.055
-124.361
-124.639
-124.893
-125.122
-125.341
-125.502
-27.907
-34.9741
-42.0294
-48.8982
-55.4616
-61.6204
-67.3367
-72.588
-77.3727
-81.7142
-85.6362
-89.1747
-92.3713
-95.2567
-97.8645
-100.22
-102.354
-104.292
-106.056
-107.665
-109.132
-110.479
-111.709
-112.845
-113.886
-114.845
-115.729
-116.546
-117.298
-117.994
-118.637
-119.23
-119.78
-120.288
-120.757
-121.19
-121.59
-121.956
-122.297
-122.613
-122.905
-123.191
-123.372
-29.3423
-35.5844
-41.8614
-48.0303
-54.0035
-59.6674
-65.0058
-69.9639
-74.5304
-78.7178
-82.5377
-86.0222
-89.1908
-92.0712
-94.6901
-97.081
-99.2524
-101.24
-103.053
-104.714
-106.232
-107.632
-108.918
-110.103
-111.195
-112.207
-113.139
-114.003
-114.807
-115.554
-116.241
-116.879
-117.476
-118.033
-118.548
-119.023
-119.469
-119.878
-120.262
-120.617
-120.94
-121.249
-121.356
-31.0602
-36.7371
-42.4534
-48.0559
-53.5168
-58.7141
-63.7139
-68.3741
-72.7144
-76.7327
-80.3957
-83.7487
-86.8183
-89.65
-92.2429
-94.62
-96.7836
-98.7894
-100.624
-102.303
-103.841
-105.27
-106.593
-107.813
-108.948
-109.985
-110.951
-111.844
-112.695
-113.48
-114.193
-114.86
-115.502
-116.1
-116.654
-117.166
-117.647
-118.084
-118.498
-118.881
-119.233
-119.568
-119.679
-32.5377
-37.7765
-43.0724
-48.2313
-53.3282
-58.2461
-63.0134
-67.445
-71.6439
-75.4897
-78.9676
-82.1862
-85.1982
-87.99
-90.5506
-92.9019
-95.0402
-97.0532
-98.8638
-100.524
-102.056
-103.506
-104.843
-106.077
-107.228
-108.263
-109.262
-110.189
-111.079
-111.854
-112.572
-113.268
-113.961
-114.574
-115.135
-115.639
-116.111
-116.534
-116.961
-117.364
-117.719
-118.034
-118.177
-34.675
-39.3991
-44.3777
-49.4838
-55.3866
-60.0165
-65.3381
-69.5896
-73.4748
-76.98
-79.9487
-83.5662
-86.6444
-89.2789
-91.6634
-93.9242
-95.9749
-97.9472
-99.5965
-101.194
-102.69
-104.124
-105.339
-106.45
-107.476
-108.427
-109.402
-110.257
-111.058
-111.645
-112.278
-112.944
-113.577
-113.983
-114.322
-114.599
-114.904
-115.228
-115.666
-116.089
-116.364
-116.508
-116.512
-91.7932
-91.5406
-91.3349
-91.1194
-90.8984
-90.6714
-90.4377
-90.1965
-89.9466
-89.687
-89.4162
-89.1326
-88.834
-88.5188
-88.1853
-87.8326
-87.4594
-87.0665
-86.655
-86.2268
-85.7851
-85.3336
-84.8768
-84.4203
-83.9691
-83.5291
-83.1059
-82.7044
-82.3301
-81.9873
-81.6792
-81.4085
-81.178
-80.988
-80.8383
-80.7285
-80.6564
-80.6186
-80.611
-80.6283
-80.6694
-80.7797
-81.0044
-91.1543
-90.9118
-90.7126
-90.5037
-90.2912
-90.0757
-89.8574
-89.6368
-89.4141
-89.1899
-88.9648
-88.7391
-88.5131
-88.2872
-88.0618
-87.837
-87.6122
-87.3871
-87.1609
-86.9328
-86.7018
-86.4667
-86.2265
-85.98
-85.7261
-85.4636
-85.1921
-84.9106
-84.6192
-84.3175
-84.0056
-83.684
-83.3531
-83.0131
-82.6652
-82.3105
-81.9507
-81.5885
-81.2289
-80.882
-80.5669
-80.3537
-80.3975
-90.5875
-90.36
-90.1671
-89.9654
-89.7601
-89.5522
-89.3417
-89.1292
-88.9145
-88.6985
-88.4813
-88.2631
-88.0445
-87.8257
-87.6071
-87.3882
-87.1692
-86.9502
-86.7302
-86.5084
-86.2842
-86.0573
-85.8262
-85.5901
-85.3478
-85.0986
-84.8415
-84.5756
-84.3
-84.0141
-83.7175
-83.4097
-83.0903
-82.7596
-82.4182
-82.0668
-81.7075
-81.3435
-80.9807
-80.6318
-80.3223
-80.1279
-80.2727
-90.079
-89.8664
-89.6779
-89.4806
-89.2788
-89.0734
-88.8644
-88.6517
-88.4351
-88.215
-87.9908
-87.7628
-87.531
-87.2949
-87.0548
-86.8102
-86.5616
-86.3089
-86.0521
-85.7911
-85.5258
-85.2564
-84.9834
-84.7068
-84.4263
-84.1421
-83.8543
-83.5628
-83.2681
-82.9704
-82.6701
-82.3674
-82.0622
-81.7549
-81.4457
-81.136
-80.828
-80.5251
-80.2342
-79.9689
-79.7609
-79.6959
-80.0564
-89.6353
-89.4337
-89.2501
-89.0585
-88.8624
-88.6626
-88.459
-88.2515
-88.0401
-87.8246
-87.605
-87.3813
-87.1535
-86.9209
-86.6838
-86.4413
-86.1937
-85.9407
-85.6821
-85.4179
-85.1481
-84.8726
-84.5917
-84.305
-84.0132
-83.7162
-83.414
-83.1071
-82.7963
-82.4831
-82.1687
-81.8546
-81.5423
-81.2325
-80.926
-80.6249
-80.331
-80.0484
-79.7854
-79.5591
-79.4066
-79.4267
-79.9245
-89.2488
-89.0552
-88.8776
-88.693
-88.5039
-88.3112
-88.1148
-87.9142
-87.7098
-87.5011
-87.2882
-87.0712
-86.85
-86.6244
-86.3941
-86.1582
-85.9168
-85.6692
-85.4152
-85.1548
-84.8883
-84.6145
-84.3335
-84.046
-83.7528
-83.4537
-83.1474
-82.8337
-82.5133
-82.1881
-81.862
-81.5401
-81.2247
-80.9147
-80.611
-80.313
-80.0245
-79.7487
-79.4977
-79.293
-79.1771
-79.2667
-79.8545
-88.9112
-88.7222
-88.5513
-88.3739
-88.1907
-88.0048
-87.8148
-87.6203
-87.4224
-87.2193
-87.0103
-86.7977
-86.5804
-86.3584
-86.1319
-85.899
-85.6598
-85.4145
-85.161
-84.8999
-84.6328
-84.3577
-84.0734
-83.781
-83.4833
-83.1803
-82.8703
-82.5514
-82.2227
-81.884
-81.5382
-81.1965
-80.8678
-80.5589
-80.2655
-79.9987
-79.7406
-79.4826
-79.2472
-79.0728
-79.0199
-79.2257
-79.8982
-88.6025
-88.424
-88.2628
-88.094
-87.9158
-87.7374
-87.5544
-87.365
-87.1737
-86.9776
-86.7715
-86.5632
-86.3501
-86.1324
-85.9114
-85.6827
-85.4465
-85.2056
-84.9532
-84.6907
-84.4266
-84.1547
-83.8679
-83.5683
-83.2666
-82.9644
-82.6594
-82.3428
-82.0071
-81.6509
-81.2812
-80.9273
-80.6019
-80.2827
-79.9787
-79.6574
-79.4214
-79.1417
-78.8807
-78.692
-78.644
-78.95
-79.7596
-88.342
-88.1662
-88.0113
-87.8517
-87.6705
-87.499
-87.3239
-87.1367
-86.9566
-86.772
-86.5622
-86.3553
-86.1422
-85.9228
-85.7059
-85.4828
-85.2447
-85.0149
-84.7695
-84.4901
-84.2188
-83.9565
-83.6764
-83.3515
-83.0255
-82.7072
-82.3953
-82.0924
-81.7944
-81.4451
-80.9702
-80.4737
-80.0555
-79.7936
-79.5529
-79.4677
-79.3826
-79.1231
-78.8143
-78.6141
-78.7182
-79.5957
-80.7638
-81.7033
-81.818
-81.7173
-81.5883
-81.463
-81.3435
-81.23
-81.1226
-81.0212
-80.9252
-80.8341
-80.7481
-80.6662
-80.5893
-80.5166
-80.4485
-80.3859
-80.3285
-80.2767
-80.2312
-80.1926
-80.1611
-80.1379
-80.1229
-80.1181
-80.1231
-80.1398
-80.1676
-80.2077
-80.2622
-80.3294
-80.4119
-80.5094
-80.6238
-80.7553
-80.9054
-81.0747
-81.2636
-81.4727
-81.7009
-81.949
-82.2181
-82.4578
-81.0564
-81.3944
-81.5149
-81.529
-81.5069
-81.4744
-81.4411
-81.4107
-81.3846
-81.3636
-81.3476
-81.3371
-81.3316
-81.3311
-81.3356
-81.3442
-81.3575
-81.3743
-81.3952
-81.419
-81.4456
-81.4757
-81.508
-81.5423
-81.5789
-81.616
-81.656
-81.6957
-81.7361
-81.779
-81.8206
-81.8651
-81.9102
-81.959
-82.0097
-82.0647
-82.1245
-82.1898
-82.2612
-82.3405
-82.4302
-82.5289
-82.6481
-80.8731
-81.2838
-81.4731
-81.5247
-81.5215
-81.4983
-81.4678
-81.436
-81.4056
-81.3778
-81.3534
-81.3325
-81.3153
-81.3019
-81.292
-81.286
-81.2839
-81.2855
-81.2914
-81.3011
-81.3144
-81.3332
-81.3552
-81.3815
-81.413
-81.448
-81.4892
-81.5324
-81.5793
-81.6312
-81.684
-81.7427
-81.8022
-81.8668
-81.9338
-82.0058
-82.0803
-82.1577
-82.2373
-82.3197
-82.4034
-82.4902
-82.5533
-80.7049
-81.1499
-81.3812
-81.4724
-81.4969
-81.4914
-81.4722
-81.4478
-81.4228
-81.3993
-81.3786
-81.361
-81.3468
-81.3362
-81.3298
-81.3266
-81.3271
-81.3314
-81.3386
-81.3495
-81.3639
-81.3821
-81.4039
-81.4297
-81.46
-81.493
-81.5289
-81.5652
-81.605
-81.6466
-81.6903
-81.7377
-81.7865
-81.8403
-81.8991
-81.9647
-82.0329
-82.1048
-82.1809
-82.2629
-82.3478
-82.4382
-82.5154
-80.5832
-81.0359
-81.2963
-81.4211
-81.4723
-81.4855
-81.4791
-81.4638
-81.4454
-81.4267
-81.4094
-81.3941
-81.3824
-81.3742
-81.3701
-81.3679
-81.3691
-81.3747
-81.3823
-81.394
-81.4091
-81.4274
-81.4521
-81.4811
-81.5132
-81.5471
-81.5812
-81.6153
-81.6515
-81.6881
-81.7268
-81.7668
-81.8093
-81.8571
-81.9137
-81.9751
-82.0364
-82.1002
-82.1701
-82.2493
-82.3262
-82.4064
-82.4705
-80.5061
-80.9627
-81.2435
-81.3918
-81.4617
-81.4884
-81.491
-81.4821
-81.4683
-81.4521
-81.4364
-81.421
-81.411
-81.4052
-81.4027
-81.4003
-81.4016
-81.409
-81.4171
-81.4286
-81.4426
-81.4622
-81.4926
-81.527
-81.5611
-81.5933
-81.6238
-81.6524
-81.6822
-81.7121
-81.746
-81.78
-81.8156
-81.8577
-81.9196
-81.9826
-82.0371
-82.0913
-82.1583
-82.2405
-82.3058
-82.3752
-82.4477
-80.5229
-80.9611
-81.2382
-81.388
-81.4582
-81.4852
-81.4859
-81.477
-81.4634
-81.4433
-81.4232
-81.4009
-81.3937
-81.3929
-81.39
-81.3839
-81.3837
-81.3938
-81.3988
-81.4024
-81.4092
-81.4304
-81.4777
-81.5263
-81.5652
-81.5936
-81.6207
-81.6425
-81.6715
-81.6979
-81.7361
-81.7651
-81.7871
-81.8329
-81.9252
-81.9998
-82.0405
-82.0809
-82.1506
-82.2494
-82.2969
-82.364
-82.439
-80.4017
-80.861
-81.1864
-81.3723
-81.4631
-81.5071
-81.5172
-81.5292
-81.5353
-81.5193
-81.5051
-81.4845
-81.5121
-81.5255
-81.5238
-81.5079
-81.5156
-81.5394
-81.5333
-81.5317
-81.5502
-81.6191
-81.7364
-81.7963
-81.8134
-81.8155
-81.8298
-81.8236
-81.8494
-81.8468
-81.8864
-81.8635
-81.85
-81.9267
-82.0844
-82.1094
-82.0412
-82.0256
-82.1227
-82.2798
-82.2611
-82.3194
-82.4457
-81.1256
-81.2831
-81.4411
-81.4899
-81.4544
-81.4165
-81.3654
-81.3468
-81.273
-81.1447
-81.0569
-80.9774
-80.9528
-80.9197
-80.8108
-80.7758
-80.7962
-80.8236
-80.7704
-80.746
-80.7491
-80.8438
-80.9178
-80.7178
-80.601
-80.5777
-80.5421
-80.5412
-80.5805
-80.6137
-80.6953
-80.6814
-80.6815
-81.0475
-81.3042
-81.1009
-80.9877
-81.3398
-81.8996
-82.4064
-82.2671
-82.3198
-82.7221
223.905
215.404
204.49
192.729
180.751
168.938
157.583
146.845
136.847
127.604
119.091
111.295
104.152
97.6134
91.6225
86.1017
81.007
76.2777
71.8624
67.7169
63.8075
60.0895
56.5472
53.1473
49.8674
46.6962
43.6186
40.6228
37.7023
34.8473
32.0527
29.319
26.6351
24.0044
21.4217
18.8847
16.3931
13.9424
11.5325
9.17144
6.8722
4.50836
1.66498
136.049
135.633
132.504
128.539
124.363
120.105
115.786
111.452
107.133
102.849
98.6231
94.4627
90.3755
86.3747
82.4604
78.6375
74.9121
71.2815
67.7462
64.3088
60.964
57.7059
54.5365
51.4511
48.4413
45.5057
42.6387
39.8326
37.0901
34.4017
31.762
29.1747
26.6286
24.1283
21.6661
19.2431
16.8564
14.5029
12.1826
9.89937
7.66948
5.43449
2.69489
122.548
123.059
122.497
121.468
119.934
117.92
115.474
112.661
109.547
106.187
102.638
98.9472
95.1601
91.3175
87.4535
83.5925
79.7612
75.9781
72.2543
68.6015
65.0281
61.5357
58.127
54.8029
51.5622
48.4016
45.3207
42.3135
39.3761
36.5111
33.7079
30.9667
28.2834
25.6556
23.0789
20.5527
18.0738
15.6384
13.2472
10.9003
8.60615
6.34592
4.0321
119.614
118.709
117.087
115.263
113.255
111.064
108.698
106.168
103.493
100.689
97.7676
94.7494
91.6475
88.4757
85.2553
81.993
78.7077
75.4107
72.1151
68.8265
65.5585
62.317
59.1096
55.9402
52.8153
49.7342
46.7019
43.722
40.7894
37.9094
35.0817
32.3021
29.5731
26.8913
24.2593
21.6706
19.1287
16.63
14.1718
11.7515
9.36617
7.03494
4.6629
105.426
104.853
104.048
103.063
101.897
100.552
99.0379
97.3561
95.5163
93.5238
91.3853
89.1131
86.7172
84.2069
81.6011
78.9033
76.1374
73.3082
70.4326
67.521
64.5839
61.6338
58.6799
55.7277
52.7859
49.8623
46.96
44.0839
41.2391
38.4243
35.6463
32.9049
30.2002
27.534
24.9069
22.3178
19.7673
17.2571
14.784
12.3479
9.94116
7.62501
5.67058
93.8722
93.6604
93.3508
92.8602
92.2039
91.3866
90.4065
89.268
87.9733
86.526
84.9327
83.1987
81.3328
79.3403
77.2343
75.0198
72.7115
70.3151
67.8429
65.308
62.7161
60.0795
57.4075
54.7099
51.993
49.2665
46.5375
43.8092
41.0917
38.3855
35.6973
33.0305
30.3859
27.7686
25.1779
22.6189
20.0888
17.5916
15.1279
12.6947
10.2851
7.95634
5.96432
85.6191
85.4753
85.2153
84.8064
84.2818
83.6404
82.8795
81.9981
80.9934
79.8664
78.6177
77.248
75.7599
74.1554
72.44
70.6168
68.6941
66.6751
64.5686
62.3823
60.124
57.8005
55.4206
52.9923
50.5262
48.0247
45.4994
42.9551
40.3991
37.8367
35.275
32.7168
30.1661
27.6297
25.1064
22.6036
20.1204
17.66
15.2252
12.8116
10.4107
8.07467
6.08691
78.0627
77.9582
77.7487
77.4246
77.0128
76.5106
75.9155
75.2245
74.435
73.5451
72.5528
71.4566
70.256
68.9514
67.5441
66.0346
64.4275
62.7241
60.9304
59.0495
57.0891
55.0532
52.948
50.7804
48.5596
46.2879
43.9749
41.6288
39.252
36.8532
34.4378
32.0125
29.579
27.1465
24.7143
22.2907
19.8765
17.4754
15.0914
12.7235
10.3674
8.07616
6.16618
70.9845
70.9344
70.7953
70.5653
70.2621
69.8837
69.4275
68.8905
68.2712
67.5659
66.7727
65.8882
64.9126
63.8437
62.6812
61.4249
60.076
58.6347
57.1048
55.4877
53.7871
52.0077
50.1521
48.2268
46.2371
44.1887
42.0851
39.9354
37.7439
35.5164
33.2586
30.9781
28.6767
26.363
24.039
21.7109
19.3825
17.0561
14.7372
12.4267
10.1208
7.8458
5.82456
64.6317
64.6108
64.5123
64.3394
64.1071
63.8126
63.4525
63.026
62.5291
61.9601
61.3153
60.5923
59.7893
58.904
57.9354
56.8818
55.7423
54.5178
53.2083
51.8148
50.339
48.7835
47.1508
45.4445
43.6676
41.8261
39.923
37.9639
35.954
33.8983
31.8011
29.6709
27.5093
25.3235
23.1176
20.8959
18.6643
16.4247
14.1811
11.9382
9.68982
7.36788
4.85484
58.8289
58.828
58.757
58.6246
58.4416
58.2066
57.9174
57.5717
57.167
56.7007
56.1693
55.5707
54.9026
54.1624
53.3477
52.457
51.4886
50.4424
49.3167
48.1119
46.8279
45.4664
44.0291
42.5173
40.9336
39.2813
37.5638
35.7848
33.9483
32.0594
30.1213
28.141
26.1207
24.0678
21.9859
19.8791
17.7532
15.6115
13.4585
11.3023
9.15772
6.97328
4.40394
53.4175
53.4386
53.394
53.2956
53.1548
52.9696
52.7375
52.4572
52.1261
51.7417
51.3012
50.8024
50.2429
49.6193
48.9297
48.1722
47.3449
46.4463
45.4746
44.429
43.3095
42.1159
40.8486
39.5084
38.097
36.6156
35.0682
33.4557
31.7824
30.0513
28.2667
26.4329
24.553
22.6326
20.6754
18.6869
16.6705
14.6321
12.5742
10.5042
8.44194
6.37027
3.91661
48.3982
48.4282
48.3982
48.3249
48.2159
48.0684
47.881
47.6514
47.3784
47.0596
46.6919
46.2732
45.8012
45.2726
44.6857
44.0381
43.3273
42.5519
41.7096
40.799
39.8197
38.7709
37.6517
36.4623
35.2038
33.876
32.4819
31.0228
29.5001
27.9174
26.2777
24.5835
22.8399
21.0496
19.217
17.3468
15.4419
13.5081
11.549
9.56998
7.58557
5.60152
3.46726
43.6672
43.7118
43.6992
43.6492
43.5669
43.4513
43.3004
43.1135
42.8887
42.6233
42.3152
41.9626
41.5625
41.1122
40.6105
40.0541
39.4412
38.7694
38.0365
37.2415
36.3822
35.4582
34.4678
33.411
32.2876
31.0977
29.8418
28.5211
27.1371
25.6921
24.1876
22.6267
21.0126
19.3476
17.6359
15.8816
14.0876
12.258
10.3962
8.50394
6.58582
4.66049
2.64977
39.2314
39.28
39.2764
39.2422
39.1806
39.0898
38.9686
38.8162
38.6301
38.4091
38.1504
37.8525
37.5121
37.1277
36.6966
36.2171
35.6867
35.1024
34.4632
33.7667
33.0113
32.1953
31.3174
30.3772
29.373
28.3057
27.1742
25.9791
24.7217
23.4031
22.0242
20.5882
19.0964
17.5519
15.957
14.3158
12.6309
10.907
9.14659
7.35386
5.53069
3.71559
2.05463
35.01
35.0677
35.0763
35.0581
35.0153
34.9473
34.8522
34.7289
34.5765
34.3926
34.176
33.9241
33.6348
33.3055
32.935
32.5207
32.0599
31.5512
30.9922
30.3807
29.715
28.9935
28.2139
27.376
26.4778
25.5192
24.499
23.4179
22.2756
21.0726
19.8103
18.49
17.1133
15.6818
14.1986
12.6662
11.0872
9.46619
7.80512
6.10756
4.37352
2.63575
1.08564
30.993
31.0587
31.0779
31.0736
31.0483
30.9999
30.9272
30.8301
30.7062
30.5548
30.3738
30.1617
29.9158
29.6342
29.3154
28.9571
28.5567
28.113
27.6234
27.0856
26.498
25.8588
25.1657
24.4178
23.6138
22.7521
21.8319
20.8535
19.8157
18.7189
17.5633
16.3509
15.0812
13.7567
12.3789
10.9503
9.47287
7.95037
6.3855
4.78117
3.13648
1.47145
0.00518956
27.1612
27.2367
27.2646
27.2736
27.2625
27.2308
27.1781
27.1029
27.0042
26.8806
26.7305
26.5522
26.3437
26.1031
25.8289
25.5189
25.1711
24.7837
24.3545
23.8811
23.3618
22.7946
22.1779
21.51
20.7894
20.0144
19.1841
18.2981
17.3549
16.3553
15.2978
14.1846
13.0148
11.7901
10.5116
9.18128
7.80103
6.37327
4.9002
3.38463
1.8236
0.22579
-1.22963
23.5343
23.6101
23.6408
23.6554
23.6535
23.6339
23.5957
23.538
23.4597
23.3591
23.2343
23.0849
22.9086
22.7033
22.4674
22.1993
21.897
21.5587
21.1822
20.7652
20.3058
19.8025
19.2535
18.6564
18.0101
17.313
16.5636
15.7609
14.9041
13.9925
13.0254
12.0037
10.9265
9.79493
8.60997
7.37252
6.08435
4.74685
3.36265
1.93276
0.454307
-1.07013
-2.50401
20.0276
20.1133
20.1518
20.1759
20.1848
20.1775
20.1537
20.1123
20.0522
19.9718
19.8703
19.7464
19.5979
19.4235
19.2216
18.9904
18.728
18.4328
18.1027
17.7352
17.3292
16.8825
16.3933
15.8595
15.2796
14.6524
13.976
13.2488
12.4702
11.6391
10.7549
9.81753
8.82632
7.7816
6.68417
5.53432
4.33357
3.08282
1.78441
0.439127
-0.955288
-2.39609
-3.78279
16.6498
16.7445
16.7903
16.8236
16.8425
16.8475
16.8372
16.8111
16.7676
16.7063
16.626
16.5248
16.4013
16.2544
16.0827
15.8843
15.6573
15.4003
15.1112
14.7881
14.4297
14.0333
13.5976
13.1205
12.6005
12.0362
11.4254
10.7669
10.0594
9.30196
8.49372
7.63378
6.72206
5.75827
4.74263
3.67539
2.55753
1.38961
0.173524
-1.09004
-2.40364
-3.76107
-5.06474
13.4118
13.5113
13.561
13.6005
13.6281
13.6429
13.6439
13.6307
13.6019
13.5569
13.4947
13.4136
13.3124
13.1901
13.0448
12.8753
12.6799
12.4569
12.2042
11.9207
11.6043
11.2533
10.8654
10.4393
9.97321
9.46561
8.91433
8.31808
7.67552
6.98561
6.24718
5.45895
4.62077
3.73199
2.79277
1.803
0.763603
-0.325117
-1.46131
-2.64352
-3.87166
-5.13877
-6.32842
10.2953
10.3969
10.449
10.4947
10.5293
10.552
10.563
10.5609
10.5445
10.5139
10.4679
10.4044
10.3231
10.2223
10.1008
9.95735
9.79019
9.59731
9.37754
9.12923
8.85067
8.54015
8.19572
7.81562
7.398
6.94173
6.44466
5.90514
5.32183
4.6936
4.01907
3.29717
2.52705
1.70803
0.840264
-0.07698
-1.04327
-2.05786
-3.11984
-4.22862
-5.38404
-6.5861
-7.75212
7.29044
7.39103
7.44471
7.49516
7.53549
7.56565
7.58491
7.5924
7.58753
7.56974
7.53764
7.49039
7.42635
7.34501
7.24483
7.12451
6.9823
6.81689
6.62705
6.41046
6.16584
5.89188
5.58649
5.24809
4.87483
4.465
4.01717
3.52959
3.00049
2.42872
1.81308
1.15236
0.445095
-0.30902
-1.11031
-1.95984
-2.85732
-3.8028
-4.79488
-5.83469
-6.92251
-8.05677
-9.15424
4.34945
4.45581
4.5174
4.57683
4.62555
4.66453
4.69348
4.71187
4.71876
4.71299
4.69459
4.66224
4.61479
4.55119
4.47061
4.37129
4.25195
4.11147
3.9482
3.76044
3.547
3.30622
3.0361
2.7355
2.40265
2.03548
1.63251
1.19223
0.712832
0.192999
-0.368261
-0.972649
-1.62148
-2.31531
-3.05495
-3.84086
-4.67379
-5.55334
-6.47862
-7.44989
-8.46689
-9.52635
-10.5218
1.54229
1.64405
1.70416
1.76454
1.81664
1.86059
1.89603
1.92233
1.93834
1.94307
1.93654
1.91752
1.8845
1.83677
1.77367
1.69353
1.59486
1.47676
1.33773
1.17615
0.991165
0.780498
0.542628
0.276429
-0.0198451
-0.347967
-0.709746
-1.10669
-1.54017
-2.01205
-2.52337
-3.07557
-3.6702
-4.30798
-4.99015
-5.71673
-6.48944
-7.30752
-8.17116
-9.08076
-10.0379
-11.0467
-12.0207
-1.20953
-1.10573
-1.04021
-0.973467
-0.914933
-0.864056
-0.821459
-0.787072
-0.762436
-0.747703
-0.743174
-0.750165
-0.769988
-0.803019
-0.850248
-0.913321
-0.993167
-1.09072
-1.20772
-1.34508
-1.50449
-1.68773
-1.89596
-2.13062
-2.39356
-2.68601
-3.00991
-3.36687
-3.7582
-4.1858
-4.65086
-5.15475
-5.69898
-6.28453
-6.91278
-7.58421
-8.30015
-9.06076
-9.8664
-10.7181
-11.6184
-12.5746
-13.5156
-3.88661
-3.77866
-3.70892
-3.63754
-3.57357
-3.51601
-3.46608
-3.42404
-3.39046
-3.36623
-3.35146
-3.34715
-3.35455
-3.3741
-3.40669
-3.45358
-3.51593
-3.59488
-3.69139
-3.80696
-3.943
-4.10068
-4.28161
-4.48737
-4.71947
-4.97928
-5.2683
-5.5884
-5.941
-6.32759
-6.74972
-7.20879
-7.70604
-8.24298
-8.82072
-9.44029
-10.1026
-10.8083
-11.5584
-12.353
-13.1935
-14.0852
-14.9973
-6.44787
-6.34788
-6.28162
-6.21093
-6.14579
-6.08549
-6.03155
-5.98422
-5.94409
-5.91187
-5.88855
-5.87449
-5.87092
-5.87836
-5.89774
-5.93
-5.97658
-6.03838
-6.11622
-6.21184
-6.32631
-6.46072
-6.61678
-6.79599
-6.99964
-7.22912
-7.4861
-7.77214
-8.08869
-8.43733
-8.81958
-9.23677
-9.69047
-10.1818
-10.7123
-11.2829
-11.8946
-12.5485
-13.2459
-13.9875
-14.7733
-15.6079
-16.5357
-9.00089
-8.89312
-8.81738
-8.73851
-8.66652
-8.59928
-8.53828
-8.48382
-8.43604
-8.39564
-8.36329
-8.33954
-8.32556
-8.3216
-8.32837
-8.34705
-8.37894
-8.42479
-8.48537
-8.56235
-8.65692
-8.76994
-8.90312
-9.05785
-9.23522
-9.43658
-9.66374
-9.91827
-10.2015
-10.515
-10.8601
-11.2382
-11.6512
-12.0998
-12.5857
-13.11
-13.6738
-14.2779
-14.9233
-15.6104
-16.3367
-17.0987
-17.9218
-11.4627
-11.354
-11.2771
-11.1955
-11.1197
-11.0483
-10.9817
-10.921
-10.8662
-10.8185
-10.7777
-10.7449
-10.7209
-10.7062
-10.7015
-10.7077
-10.7259
-10.7568
-10.8015
-10.8613
-10.9373
-11.0306
-11.1425
-11.2744
-11.4274
-11.6028
-11.8024
-12.0276
-12.2797
-12.5603
-12.8709
-13.2128
-13.5874
-13.9962
-14.4404
-14.9212
-15.4397
-15.9971
-16.5941
-17.2321
-17.9104
-18.6282
-19.4058
-13.8444
-13.7391
-13.6626
-13.5801
-13.5029
-13.429
-13.3588
-13.2937
-13.2338
-13.1799
-13.1322
-13.0916
-13.0588
-13.0344
-13.0192
-13.0139
-13.0194
-13.0367
-13.0668
-13.1108
-13.1698
-13.2447
-13.3369
-13.4474
-13.5776
-13.7291
-13.9032
-14.1011
-14.3242
-14.5741
-14.8523
-15.1602
-15.4992
-15.8706
-16.2756
-16.7155
-17.1913
-17.704
-18.2543
-18.8424
-19.4665
-20.1209
-20.7959
-16.1951
-16.0868
-16.0066
-15.9195
-15.8379
-15.7591
-15.6842
-15.6138
-15.5481
-15.4877
-15.4331
-15.385
-15.3438
-15.3101
-15.2848
-15.2687
-15.2627
-15.2675
-15.2838
-15.313
-15.356
-15.4138
-15.4876
-15.5784
-15.6877
-15.8167
-15.9667
-16.1392
-16.3355
-16.557
-16.805
-17.081
-17.3866
-17.7227
-18.0909
-18.4925
-18.9282
-19.3991
-19.9052
-20.4464
-21.0217
-21.633
-22.2192
-18.4976
-18.3857
-18.3015
-18.2102
-18.1237
-18.0399
-17.9599
-17.8839
-17.812
-17.7452
-17.6836
-17.628
-17.5788
-17.5364
-17.5017
-17.4754
-17.4582
-17.4508
-17.4545
-17.47
-17.498
-17.5397
-17.5963
-17.6689
-17.7586
-17.8667
-17.9944
-18.1432
-18.3142
-18.509
-18.7288
-18.9751
-19.2492
-19.5525
-19.8864
-20.2521
-20.6508
-21.0834
-21.5509
-22.0537
-22.5944
-23.1864
-23.7896
-20.732
-20.6197
-20.5349
-20.4416
-20.3524
-20.2653
-20.1812
-20.1007
-20.0237
-19.9514
-19.8839
-19.8215
-19.7648
-19.7143
-19.6708
-19.6352
-19.6077
-19.5893
-19.5811
-19.5836
-19.5977
-19.6243
-19.6649
-19.7203
-19.7917
-19.8803
-19.9872
-20.1137
-20.2611
-20.4308
-20.6242
-20.8425
-21.0872
-21.3597
-21.6613
-21.9934
-22.3571
-22.7538
-23.1846
-23.6506
-24.1543
-24.7094
-25.289
-22.9094
-22.7977
-22.7129
-22.6186
-22.5274
-22.4377
-22.3507
-22.2665
-22.1855
-22.1082
-22.0352
-21.9668
-21.9035
-21.8457
-21.7944
-21.7499
-21.713
-21.6843
-21.665
-21.6555
-21.6565
-21.6692
-21.6948
-21.7342
-21.7885
-21.8587
-21.9458
-22.0515
-22.1769
-22.3231
-22.4915
-22.6836
-22.9006
-23.144
-23.415
-23.7152
-24.0458
-24.408
-24.803
-25.2319
-25.6967
-26.2081
-26.7457
-25.0372
-24.927
-24.8428
-24.7478
-24.6554
-24.5637
-24.4739
-24.3866
-24.3017
-24.2198
-24.1418
-24.0679
-23.9983
-23.9337
-23.8749
-23.8222
-23.7765
-23.7382
-23.7083
-23.6873
-23.6764
-23.676
-23.6874
-23.7117
-23.7499
-23.8028
-23.8717
-23.9576
-24.0621
-24.1863
-24.3312
-24.4985
-24.6895
-24.9054
-25.1475
-25.4173
-25.7163
-26.0456
-26.4064
-26.8
-27.2285
-27.7025
-28.2026
-27.1391
-27.0276
-26.9407
-26.843
-26.7468
-26.6515
-26.5579
-26.4663
-26.3771
-26.2905
-26.2071
-26.1276
-26.0519
-25.9807
-25.9145
-25.8543
-25.7998
-25.7524
-25.7125
-25.681
-25.6585
-25.6459
-25.6441
-25.6542
-25.6771
-25.7139
-25.7654
-25.8328
-25.9176
-26.0209
-26.1438
-26.2877
-26.4539
-26.6438
-26.8586
-27.0997
-27.3684
-27.666
-27.9941
-28.3538
-28.7459
-29.1779
-29.6567
-29.2007
-29.0873
-28.9985
-28.8979
-28.7986
-28.6999
-28.6023
-28.5062
-28.4126
-28.3214
-28.2331
-28.1478
-28.0661
-27.9883
-27.9155
-27.8475
-27.7849
-27.7288
-27.6797
-27.6379
-27.6046
-27.5803
-27.5661
-27.563
-27.5714
-27.5927
-27.628
-27.678
-27.7442
-27.8278
-27.9299
-28.0516
-28.1943
-28.3594
-28.5483
-28.762
-29.0019
-29.2694
-29.5663
-29.894
-30.2528
-30.6491
-31.1291
-31.2002
-31.0899
-31.0032
-30.9026
-30.8025
-30.7022
-30.6022
-30.5033
-30.4062
-30.3113
-30.2184
-30.1283
-30.041
-29.9576
-29.8782
-29.8031
-29.733
-29.6688
-29.6108
-29.5597
-29.5161
-29.4807
-29.4547
-29.4388
-29.4338
-29.4405
-29.4603
-29.494
-29.5427
-29.6077
-29.69
-29.7907
-29.9112
-30.0528
-30.2168
-30.4042
-30.6165
-30.8547
-31.1205
-31.4147
-31.7357
-32.084
-32.5117
-33.1906
-33.0753
-32.9833
-32.8784
-32.7746
-32.6708
-32.5671
-32.4643
-32.3633
-32.264
-32.1667
-32.0715
-31.9791
-31.8901
-31.8044
-31.7227
-31.6456
-31.5737
-31.5073
-31.4471
-31.3938
-31.3481
-31.3109
-31.2831
-31.2653
-31.2583
-31.2634
-31.2816
-31.3137
-31.361
-31.4245
-31.5053
-31.6047
-31.724
-31.8643
-32.0268
-32.2127
-32.4233
-32.6596
-32.9226
-33.2117
-33.5288
-33.9137
-35.1088
-34.9979
-34.91
-34.8069
-34.7028
-34.5977
-34.4922
-34.387
-34.2828
-34.18
-34.0787
-33.9791
-33.882
-33.7876
-33.6962
-33.6083
-33.5243
-33.4448
-33.3704
-33.3018
-33.2392
-33.1838
-33.1359
-33.0968
-33.0668
-33.0469
-33.038
-33.0414
-33.0579
-33.0884
-33.1342
-33.1962
-33.2756
-33.3736
-33.4914
-33.6303
-33.7914
-33.9757
-34.1842
-34.4175
-34.674
-34.9551
-35.3049
-36.9987
-36.8905
-36.8022
-36.6985
-36.5936
-36.4873
-36.3802
-36.273
-36.1663
-36.0604
-35.9554
-35.8519
-35.7505
-35.6512
-35.5542
-35.4604
-35.3701
-35.2835
-35.2017
-35.1249
-35.0536
-34.9887
-34.9309
-34.8809
-34.8395
-34.8073
-34.7853
-34.7746
-34.7762
-34.7907
-34.8194
-34.8636
-34.924
-35.0019
-35.0986
-35.2152
-35.3527
-35.5122
-35.6946
-35.9
-36.1283
-36.3858
-36.6799
-38.9045
-38.7867
-38.6908
-38.5802
-38.4693
-38.3576
-38.2455
-38.1338
-38.0224
-37.9119
-37.8024
-37.6943
-37.5877
-37.4833
-37.3809
-37.2811
-37.1843
-37.0912
-37.0022
-36.9177
-36.8381
-36.7641
-36.6968
-36.6364
-36.584
-36.5402
-36.5058