/*--------------------------------*- C++ -*----------------------------------*\
| =========                 |                                                 |
| \\      /  F ield         | OpenFOAM: The Open Source CFD Toolbox           |
|  \\    /   O peration     | Version:  2.3.0                                 |
|   \\  /    A nd           | Web:      www.OpenFOAM.org                      |
|    \\/     M anipulation  |                                                 |
\*---------------------------------------------------------------------------*/
FoamFile
{
    version     2.0;
    format      ascii;
    class       volScalarField;
    location    "10000";
    object      nut;
}
// * * * * * * * * * * * * * * * * * * * * * * * * * * * * * * * * * * * * * //

dimensions      [0 2 -1 0 0 0 0];

internalField   nonuniform List<scalar> 
123311
(
0.0339922
0.0327062
0.0314445
0.0302067
0.0289928
0.0278037
0.0266383
0.0254968
0.0243797
0.0232876
0.0222206
0.0211795
0.0201648
0.0191771
0.018217
0.017287
0.0163883
0.0155234
0.0146964
0.0139095
0.0131592
0.0124358
0.0117317
0.0110446
0.0103761
0.00972896
0.00910406
0.00850378
0.00792878
0.0073786
0.00685253
0.00634946
0.0058671
0.0054031
0.00495662
0.00452524
0.0041075
0.00370388
0.00331491
0.00294586
0.00260574
0.00231295
0.00214475
0.034999
0.0338509
0.0327224
0.031613
0.0305242
0.0294554
0.0284056
0.0273751
0.0263645
0.0253732
0.0244017
0.0234502
0.0225188
0.0216075
0.0207163
0.0198465
0.0189968
0.0181682
0.0173612
0.0165769
0.0158152
0.0150742
0.0143532
0.0136526
0.0129719
0.0123123
0.0116746
0.0110604
0.0104707
0.00990773
0.00937259
0.00886719
0.00839398
0.00795448
0.00755294
0.0071926
0.00687788
0.00661359
0.00640383
0.00625707
0.00617773
0.00617137
0.00624317
0.0359374
0.0349081
0.0338933
0.0328951
0.0319136
0.0309478
0.0299974
0.0290623
0.028143
0.0272385
0.0263497
0.0254766
0.0246193
0.0237775
0.0229516
0.0221424
0.021349
0.0205722
0.0198113
0.0190677
0.0183416
0.0176326
0.0169415
0.0162684
0.0156142
0.0149797
0.0143659
0.0137749
0.0132075
0.0126645
0.0121492
0.0116644
0.0112123
0.0107952
0.0104167
0.0100806
0.00979133
0.00955284
0.00936993
0.00924598
0.00918477
0.00918994
0.00925989
0.0368087
0.035881
0.0349659
0.0340637
0.0331745
0.032298
0.0314335
0.0305809
0.0297405
0.028911
0.028093
0.0272869
0.0264932
0.0257118
0.0249424
0.0241858
0.0234418
0.0227113
0.0219937
0.0212893
0.0205988
0.0199224
0.0192611
0.0186158
0.017987
0.0173756
0.0167834
0.0162122
0.0156624
0.0151358
0.0146357
0.0141648
0.0137259
0.0133207
0.0129536
0.0126277
0.0123478
0.0121171
0.0119405
0.0118196
0.0117589
0.0117592
0.0118196
0.0376146
0.0367748
0.0359458
0.0351269
0.034318
0.033519
0.0327286
0.0319477
0.0311758
0.030411
0.029654
0.0289052
0.028166
0.0274359
0.0267151
0.0260036
0.0253021
0.0246113
0.0239306
0.0232604
0.0226015
0.021954
0.0213187
0.0206972
0.0200905
0.0194987
0.0189242
0.0183686
0.0178327
0.0173189
0.0168301
0.0163687
0.0159375
0.0155394
0.0151788
0.014858
0.0145819
0.014354
0.0141769
0.014055
0.0139907
0.0139839
0.0140359
0.038351
0.0375923
0.0368397
0.0360935
0.0353547
0.0346221
0.0338957
0.0331766
0.0324643
0.0317564
0.0310526
0.0303533
0.0296602
0.0289737
0.0282944
0.027622
0.0269567
0.0262991
0.025649
0.025008
0.0243763
0.0237537
0.0231411
0.0225399
0.0219509
0.0213755
0.0208155
0.0202722
0.0197477
0.0192439
0.0187635
0.0183087
0.0178828
0.0174889
0.0171315
0.0168128
0.0165376
0.0163094
0.0161309
0.0160059
0.015936
0.0159226
0.0159671
0.0390318
0.0383411
0.0376543
0.0369716
0.0362937
0.0356191
0.0349476
0.0342812
0.0336199
0.0329637
0.0323074
0.0316505
0.0309956
0.0303459
0.0297031
0.0290642
0.0284293
0.0277999
0.0271762
0.0265593
0.0259505
0.0253498
0.0247565
0.0241723
0.023598
0.023036
0.0224882
0.0219554
0.0214394
0.0209436
0.0204696
0.0200205
0.0195984
0.0192072
0.0188509
0.0185325
0.0182567
0.018027
0.017846
0.0177167
0.0176416
0.0176221
0.0176596
0.0396528
0.0390239
0.0383956
0.0377681
0.0371429
0.0365206
0.0358963
0.0352737
0.0346536
0.0340436
0.033434
0.0328144
0.0321908
0.0315696
0.0309587
0.03035
0.0297404
0.0291356
0.0285353
0.0279386
0.0273481
0.026766
0.0261905
0.0256213
0.0250599
0.0245087
0.0239701
0.0234476
0.0229375
0.0224478
0.0219787
0.0215348
0.021116
0.0207254
0.02037
0.0200512
0.0197738
0.019542
0.0193577
0.0192244
0.0191445
0.0191192
0.0191494
0.0402236
0.0396486
0.0390757
0.0384928
0.0379086
0.0373364
0.0367527
0.0361719
0.0355774
0.0349919
0.0344407
0.0338597
0.0332658
0.0326591
0.0320726
0.0314948
0.0309069
0.0303233
0.0297434
0.0291661
0.0285859
0.0280186
0.0274588
0.0269069
0.0263549
0.025816
0.0252756
0.0247713
0.0242647
0.0237818
0.0233146
0.0228745
0.0224635
0.022069
0.0217147
0.021396
0.021115
0.0208798
0.0206933
0.0205563
0.0204742
0.0204442
0.0204647
0.00250347
0.00321323
0.00370283
0.00420547
0.00474423
0.00531442
0.00591097
0.00652927
0.00716467
0.00781509
0.00847825
0.00915228
0.0098381
0.010534
0.01124
0.0119565
0.0126831
0.0134191
0.0141656
0.0149229
0.01569
0.0164686
0.0172572
0.0180569
0.0188684
0.0196912
0.0205257
0.0213715
0.0222299
0.0231007
0.0239836
0.0248797
0.0257883
0.0267101
0.0276449
0.028593
0.0295544
0.0305291
0.0315171
0.0325184
0.033533
0.0345601
0.0356002
0.00639906
0.0066386
0.00695077
0.00732799
0.00776185
0.00824362
0.00876663
0.00932201
0.00990499
0.010511
0.011136
0.0117769
0.0124319
0.0130991
0.0137776
0.0144654
0.0151624
0.0158688
0.0165833
0.0173055
0.0180364
0.0187754
0.0195226
0.0202782
0.0210413
0.0218131
0.0225938
0.0233832
0.0241817
0.024989
0.0258061
0.0266322
0.0274684
0.0283141
0.02917
0.0300359
0.0309122
0.0317989
0.032696
0.0336036
0.0345219
0.0354506
0.0363899
0.00939328
0.00959187
0.0098559
0.0101801
0.0105592
0.0109867
0.0114558
0.0119617
0.0124984
0.0130608
0.0136451
0.0142478
0.0148663
0.0154989
0.0161431
0.0167972
0.0174611
0.018132
0.0188114
0.0194978
0.020191
0.0208903
0.0215962
0.0223077
0.0230259
0.0237504
0.0244808
0.0252178
0.0259617
0.026712
0.0274686
0.0282326
0.0290034
0.0297815
0.0305669
0.0313597
0.0321602
0.0329687
0.033785
0.0346095
0.0354423
0.0362833
0.0371331
0.0119393
0.0121186
0.0123579
0.0126537
0.0130016
0.0133957
0.0138321
0.0143046
0.0148082
0.0153393
0.0158922
0.0164649
0.0170545
0.0176577
0.0182728
0.0188983
0.0195313
0.0201733
0.0208211
0.0214749
0.0221343
0.0227986
0.0234672
0.0241406
0.0248184
0.0255008
0.0261873
0.0268784
0.0275736
0.0282735
0.0289779
0.0296866
0.0304
0.0311183
0.0318417
0.03257
0.0333039
0.0340433
0.0347882
0.035539
0.0362959
0.0370592
0.0378299
0.0141457
0.014312
0.0145352
0.0148129
0.0151394
0.0155118
0.015925
0.0163737
0.016854
0.0173607
0.0178903
0.0184397
0.0190054
0.0195845
0.0201758
0.0207761
0.0213847
0.0219996
0.0226207
0.023247
0.0238768
0.0245104
0.0251471
0.0257872
0.02643
0.0270756
0.0277239
0.0283749
0.0290284
0.0296844
0.0303427
0.0310032
0.0316665
0.0323327
0.0330018
0.0336738
0.034349
0.0350275
0.0357094
0.036395
0.0370847
0.0377792
0.038481
0.0160687
0.0162248
0.0164363
0.0167002
0.0170124
0.0173698
0.0177667
0.0181981
0.0186601
0.0191488
0.01966
0.0201905
0.020737
0.0212969
0.0218685
0.0224486
0.0230356
0.0236288
0.0242272
0.0248294
0.0254346
0.0260417
0.026651
0.0272618
0.0278746
0.0284889
0.0291046
0.0297211
0.0303385
0.0309563
0.0315745
0.0321933
0.0328128
0.0334334
0.0340554
0.0346782
0.0353017
0.0359264
0.0365527
0.0371809
0.0378112
0.0384438
0.0390788
0.0177532
0.0179017
0.0181044
0.0183583
0.0186604
0.019006
0.0193907
0.0198092
0.020257
0.0207312
0.0212278
0.021743
0.0222742
0.0228185
0.0233737
0.0239371
0.0245064
0.025081
0.0256603
0.0262422
0.0268254
0.0274097
0.0279948
0.0285814
0.0291687
0.0297564
0.0303434
0.0309308
0.0315175
0.032102
0.0326849
0.0332669
0.0338485
0.0344298
0.0350107
0.0355904
0.0361684
0.0367458
0.0373232
0.0379009
0.0384785
0.0390568
0.0396358
0.0192365
0.0193791
0.0195747
0.0198212
0.0201148
0.0204518
0.0208274
0.0212348
0.0216713
0.0221334
0.0226182
0.0231212
0.0236397
0.0241713
0.0247139
0.0252626
0.0258164
0.0263755
0.0269395
0.0275037
0.0280672
0.0286309
0.0291956
0.0297613
0.0303281
0.0308924
0.0314555
0.0320181
0.0325785
0.0331329
0.0336843
0.0342345
0.0347837
0.035331
0.035877
0.0364182
0.0369559
0.0374916
0.0380258
0.0385591
0.0390901
0.0396202
0.0401503
0.0205473
0.0206849
0.0208745
0.0211149
0.0214022
0.0217338
0.0221039
0.0224984
0.0229249
0.0233779
0.023854
0.0243445
0.0248529
0.0253745
0.0259077
0.0264412
0.0269805
0.027527
0.0280823
0.0286273
0.0291723
0.0297181
0.0302658
0.0308156
0.0313678
0.0319091
0.0324524
0.0329949
0.0335326
0.0340553
0.0345802
0.0351049
0.0356269
0.036145
0.0366638
0.0371673
0.0376688
0.038168
0.0386654
0.0391615
0.03965
0.0401377
0.0406296
0.0211566
0.0202563
0.0193686
0.018494
0.0176336
0.0167885
0.0159596
0.0151479
0.0143541
0.0135793
0.0128241
0.0120892
0.0113753
0.0106829
0.0100125
0.00936457
0.00873956
0.00813759
0.00755892
0.00700373
0.00647196
0.00596359
0.0054785
0.0050164
0.00457712
0.00416027
0.00376552
0.00339249
0.00304076
0.00270993
0.00239964
0.00210956
0.00183947
0.00158909
0.00135829
0.00114704
0.000955057
0.000781544
0.000624495
0.000479094
0.000337074
0.000232393
0.000108872
0.0211518
0.0203231
0.0195041
0.0186959
0.0178991
0.0171145
0.0163429
0.0155848
0.0148408
0.0141118
0.0133981
0.0127003
0.012019
0.0113546
0.0107076
0.0100784
0.00946744
0.00887498
0.00830142
0.00774706
0.00721206
0.00669661
0.00620086
0.00572494
0.00526891
0.0048328
0.00441662
0.00402036
0.00364393
0.00328735
0.00295052
0.00263336
0.00233568
0.00205726
0.00179777
0.00155654
0.00133238
0.00112289
0.000923398
0.000733245
0.00057912
0.000434278
0.000254925
0.0211525
0.0203915
0.019638
0.0188926
0.0181559
0.0174284
0.0167107
0.0160032
0.0153064
0.0146208
0.0139468
0.0132848
0.0126353
0.0119987
0.0113753
0.0107658
0.0101703
0.00958934
0.00902335
0.0084727
0.0079377
0.00741882
0.0069163
0.0064305
0.00596175
0.00551026
0.00507632
0.00466019
0.004262
0.0038819
0.00351997
0.0031762
0.00285042
0.00254223
0.00225093
0.00197512
0.00171237
0.0014587
0.00121312
0.00100509
0.000810352
0.000603692
0.00035835
0.0211564
0.0204571
0.019763
0.0190746
0.0183923
0.0177165
0.0170477
0.016386
0.0157319
0.0150857
0.0144479
0.0138188
0.0131989
0.0125883
0.0119876
0.0113971
0.0108172
0.0102484
0.00969103
0.00914561
0.0086126
0.00809249
0.00758571
0.00709275
0.00661403
0.00614998
0.0057011
0.00526767
0.00485
0.0044484
0.004063
0.00369381
0.0033406
0.00300273
0.002679
0.0023672
0.00206379
0.0017652
0.0015018
0.0012585
0.00101708
0.000742897
0.000436507
0.0211624
0.020519
0.0198788
0.0192418
0.0186086
0.0179793
0.0173543
0.0167337
0.016118
0.0155073
0.014902
0.0143026
0.0137095
0.0131229
0.0125431
0.0119704
0.0114054
0.0108483
0.0102996
0.00975989
0.00922961
0.00870935
0.00819966
0.00770113
0.00721426
0.00673963
0.00627773
0.005829
0.00539387
0.00497267
0.00456561
0.00417267
0.00379342
0.00342692
0.00307147
0.00272405
0.0023807
0.00205006
0.0017624
0.00148422
0.00119628
0.000857591
0.000498545
0.0211695
0.0205771
0.0199855
0.019395
0.0188059
0.0182183
0.0176327
0.0170491
0.0164677
0.0158886
0.0153123
0.0147394
0.0141703
0.0136053
0.0130446
0.0124886
0.0119374
0.0113915
0.0108513
0.0103172
0.00978974
0.00926965
0.00875774
0.0082546
0.00776092
0.00727716
0.00680391
0.00634166
0.00589089
0.00545198
0.00502511
0.00461021
0.00420667
0.0038133
0.00342778
0.00304654
0.00266607
0.00231733
0.00199912
0.0016849
0.00135113
0.000952949
0.00054983
0.0211789
0.0206316
0.020084
0.0195352
0.0189856
0.0184355
0.0178852
0.017335
0.0167846
0.0162336
0.0156827
0.0151327
0.0145848
0.0140393
0.0134962
0.0129554
0.0124173
0.0118822
0.0113503
0.0108219
0.0102972
0.00977721
0.00926299
0.00875561
0.00825603
0.00776464
0.00728158
0.00680744
0.00634286
0.00588806
0.0054432
0.00500816
0.0045823
0.00416408
0.0037508
0.00333904
0.00293106
0.00256454
0.00221483
0.00186442
0.00148582
0.00103305
0.000593839
0.0211857
0.0206817
0.0201748
0.0196637
0.0191494
0.0186325
0.0181137
0.0175941
0.0170721
0.0165467
0.0160177
0.0154861
0.014956
0.0144282
0.0139016
0.0133748
0.0128491
0.0123247
0.0118015
0.0112798
0.0107581
0.0102377
0.0097202
0.0092074
0.00870229
0.00820544
0.00771441
0.00722987
0.00675316
0.00628451
0.00582339
0.00536987
0.00492347
0.00448266
0.00404415
0.00360346
0.00317304
0.00278655
0.00240954
0.00202537
0.00160389
0.00110161
0.00063345
0.0211914
0.0207274
0.0202596
0.0197828
0.0192989
0.018811
0.0183192
0.0178279
0.017334
0.0168326
0.0163245
0.0158041
0.0152855
0.014773
0.0142651
0.0137506
0.0132361
0.0127229
0.0122075
0.011697
0.0111804
0.0106593
0.0101371
0.00961416
0.00909938
0.00860229
0.00810709
0.00761291
0.0071252
0.00664594
0.00617056
0.00569964
0.00523388
0.00477256
0.00431387
0.00384858
0.00339891
0.00298952
0.00258705
0.00217236
0.00171065
0.0011578
0.000664367
8.82352e-05
0.000189691
0.00026696
0.000346457
0.00043473
0.000539723
0.00066765
0.000814437
0.000975832
0.00115098
0.00133961
0.00154177
0.00175765
0.00198744
0.00223153
0.00249025
0.00276388
0.00305285
0.00335751
0.00367828
0.00401554
0.0043697
0.00474118
0.00513048
0.00553798
0.00596412
0.00640931
0.00687393
0.00735833
0.00786279
0.00838753
0.00893268
0.00949827
0.0100842
0.0106901
0.0113155
0.0119597
0.0126215
0.0132995
0.0139918
0.0146958
0.0154083
0.0161253
0.000181953
0.000258445
0.00034667
0.000449347
0.000569472
0.000709201
0.0008685
0.00104686
0.00123925
0.00144506
0.00166399
0.00189598
0.00214103
0.00239925
0.00267068
0.00295556
0.00325396
0.00356612
0.00389222
0.00423249
0.00458715
0.00495643
0.00534064
0.00574004
0.00615489
0.00658548
0.00703198
0.00749465
0.00797363
0.00846905
0.00898094
0.00950927
0.0100539
0.0106146
0.0111909
0.0117823
0.0123879
0.0130065
0.013637
0.0142773
0.0149254
0.0155784
0.0162324
0.000255121
0.000327773
0.000436932
0.000568989
0.000721916
0.000893784
0.00108363
0.00129209
0.0015142
0.00174932
0.00199711
0.00225738
0.00252998
0.0028148
0.00311176
0.00342085
0.0037421
0.00407549
0.00442107
0.00477888
0.00514902
0.00553162
0.00592676
0.00633458
0.00675517
0.00718861
0.00763496
0.00809433
0.00856667
0.00905194
0.00955004
0.0100608
0.0105839
0.0111191
0.0116657
0.0122233
0.0127908
0.0133673
0.0139515
0.0145418
0.0151362
0.0157326
0.0163284
0.000316162
0.000399516
0.000534777
0.000696906
0.000880037
0.00108084
0.00130008
0.00153654
0.00178631
0.00204864
0.00232313
0.00260936
0.00290706
0.00321599
0.00353597
0.0038668
0.00420837
0.0045605
0.0049231
0.00529613
0.00567952
0.00607324
0.00647728
0.00689161
0.00731615
0.00775093
0.00819582
0.00865075
0.00911555
0.00959009
0.0100741
0.0105674
0.0110695
0.01158
0.0120983
0.0126238
0.0131557
0.0136929
0.0142343
0.0147786
0.0153239
0.0158685
0.0164099
0.000371725
0.000474033
0.000636647
0.000826922
0.00103713
0.00126442
0.00151149
0.00177393
0.0020492
0.00233656
0.00263543
0.00294533
0.00326579
0.00359649
0.00393712
0.00428734
0.00464685
0.00501544
0.00539287
0.005779
0.00617364
0.00657663
0.00698784
0.00740709
0.00783424
0.00826907
0.00871148
0.00916121
0.00961802
0.0100816
0.0105518
0.011028
0.0115099
0.011997
0.0124888
0.0129845
0.0134833
0.0139845
0.0144869
0.0149892
0.0154902
0.015988
0.0164805
0.000424824
0.000549988
0.000739002
0.000955018
0.00119006
0.0014423
0.00171449
0.00200086
0.00229957
0.00260982
0.00293093
0.00326229
0.00360336
0.0039537
0.00431282
0.0046803
0.00505576
0.00543883
0.00582926
0.00622672
0.00663093
0.00704164
0.00745858
0.00788147
0.00831007
0.00874408
0.00918322
0.00962723
0.0100758
0.0105285
0.0109851
0.0114451
0.0119078
0.012373
0.01284
0.0133082
0.0137768
0.014245
0.0147119
0.0151765
0.0156375
0.0160938
0.0165441
0.000477261
0.000626623
0.000840093
0.0010793
0.00133693
0.00161239
0.0019072
0.00221547
0.0025356
0.00286671
0.00320808
0.00355901
0.00391884
0.00428696
0.00466278
0.00504582
0.00543555
0.00583155
0.00623343
0.00664075
0.00705312
0.00747017
0.00789157
0.00831696
0.00874602
0.00917831
0.00961353
0.0100514
0.0104917
0.0109339
0.0113774
0.0118218
0.0122665
0.0127111
0.0131551
0.013598
0.0140391
0.0144776
0.0149125
0.015343
0.0157683
0.0161873
0.0165988
0.000527056
0.000698744
0.000933982
0.00119468
0.00147396
0.00177194
0.00208792
0.00241652
0.00275657
0.00310742
0.00346801
0.00383741
0.00421471
0.00459925
0.00499052
0.00538779
0.00579045
0.00619803
0.00660994
0.00702565
0.00744468
0.00786649
0.00829087
0.00871748
0.00914576
0.00957509
0.0100052
0.0104368
0.0108692
0.0113012
0.0117321
0.0121617
0.0125892
0.0130144
0.0134371
0.0138572
0.0142736
0.0146852
0.0150913
0.0154914
0.0158846
0.0162704
0.0166478
0.000582204
0.000783322
0.00104548
0.00132861
0.00162552
0.0019411
0.00227205
0.00261676
0.00297876
0.00335131
0.00373153
0.00411794
0.00450964
0.00490793
0.00531324
0.00572227
0.00613536
0.00655229
0.00697142
0.00739286
0.00781551
0.00823861
0.00866351
0.00908918
0.00951446
0.0099381
0.0103603
0.0107864
0.0112128
0.0116343
0.0120529
0.0124682
0.0128788
0.0132851
0.0136878
0.0140886
0.0144837
0.0148708
0.0152511
0.0156239
0.015988
0.0163442
0.0166945
3.47776e-05
0.000332922
0.000751807
0.00118246
0.00161116
0.00203978
0.00247299
0.00291593
0.00336742
0.00382902
0.00430134
0.0047862
0.00528492
0.00580208
0.006339
0.00689808
0.00748125
0.00808976
0.00872289
0.00938061
0.0100607
0.0107592
0.0114738
0.0122012
0.0129444
0.0137333
0.0145839
0.0154864
0.0164322
0.0174177
0.0184395
0.0194951
0.0205834
0.0217021
0.0228502
0.0240265
0.0252305
0.0264612
0.0277183
0.029002
0.0303118
0.0316475
0.0330097
5.96538e-06
0.000224406
0.000536313
0.000938913
0.00137689
0.0018023
0.00221538
0.0026162
0.00301245
0.00341116
0.00381787
0.00423629
0.00466993
0.00512236
0.00559662
0.00609561
0.00662228
0.00717854
0.00776575
0.00838365
0.0090314
0.00970654
0.0104062
0.0111284
0.0118743
0.0126538
0.0134748
0.0143342
0.0152282
0.0161773
0.0171863
0.0182442
0.0193448
0.020483
0.0216549
0.0228588
0.0240932
0.0253559
0.0266461
0.027963
0.0293057
0.0306739
0.0320652
1.61905e-06
0.000145438
0.000377288
0.000683706
0.00106463
0.0015223
0.00201078
0.00247971
0.00292693
0.00335627
0.00377133
0.00417767
0.00458108
0.00498734
0.00540262
0.00583303
0.00628443
0.00676244
0.0072717
0.00781526
0.00839523
0.00901136
0.00966351
0.0103503
0.0110714
0.011829
0.0126254
0.0134604
0.0143346
0.0152516
0.0162107
0.0172144
0.018284
0.01941
0.0205833
0.0217975
0.0230473
0.0243299
0.0256425
0.0269832
0.0283511
0.029745
0.0311639
2.10235e-06
0.000138428
0.000361671
0.000644811
0.000991707
0.00140796
0.00188726
0.00237982
0.00286257
0.00333046
0.00378287
0.00422094
0.00464589
0.00506004
0.00546696
0.00587181
0.00628082
0.00670116
0.00714055
0.00760617
0.00810439
0.00864037
0.00921731
0.00983732
0.0105014
0.0112104
0.0119651
0.0127651
0.0136107
0.0145004
0.0154331
0.0164083
0.0174287
0.0184976
0.019636
0.0208346
0.0220823
0.0233714
0.0246964
0.0260534
0.0274403
0.0288543
0.0302926
2.16206e-06
0.000144845
0.000353336
0.000628461
0.000963154
0.00136088
0.00182379
0.00232695
0.00283573
0.00333461
0.00381891
0.00428811
0.00474211
0.00518141
0.00560729
0.0060216
0.00642737
0.00682934
0.00723402
0.00764911
0.00808306
0.00854466
0.00904171
0.0095811
0.0101679
0.0108059
0.011497
0.012242
0.0130405
0.0138911
0.0147916
0.0157393
0.0167321
0.0177692
0.018855
0.0199986
0.0212152
0.0224912
0.0238145
0.0251779
0.0265761
0.0280054
0.0294617
2.43279e-06
0.000144058
0.000357152
0.000631854
0.000962886
0.00135405
0.00180808
0.002313
0.00283732
0.00336015
0.00387212
0.00436983
0.00485209
0.00531857
0.00576934
0.00620469
0.00662565
0.00703437
0.00743432
0.00783086
0.00823095
0.00864344
0.00907806
0.00954467
0.0100528
0.0106105
0.0112236
0.0118963
0.0126302
0.0134248
0.0142784
0.0151875
0.016149
0.0171589
0.0182152
0.019319
0.0204768
0.0217087
0.0230093
0.0243646
0.0257643
0.0272006
0.028669
2.65574e-06
0.000145435
0.000361799
0.000637362
0.000967698
0.00135606
0.00180545
0.00231107
0.00284859
0.00339381
0.0039327
0.0044587
0.00496919
0.00546316
0.00594005
0.00639953
0.00684175
0.00726741
0.00767812
0.00807665
0.00846757
0.00885739
0.00925468
0.00966951
0.0101133
0.010597
0.0111313
0.011724
0.0123811
0.0131056
0.0138973
0.0147543
0.0156727
0.0166474
0.0176745
0.0187502
0.0198741
0.0210516
0.0223
0.0236254
0.0250112
0.0264453
0.0279186
2.98081e-06
0.000145443
0.000368313
0.000646028
0.000977363
0.00136546
0.001813
0.00231882
0.00286595
0.00343029
0.00399401
0.00454755
0.00508632
0.00560809
0.00611204
0.00659722
0.00706336
0.00751032
0.00793859
0.00834955
0.0087457
0.00913131
0.00951262
0.00989798
0.0102979
0.0107243
0.0111901
0.0117068
0.0122848
0.0129314
0.0136504
0.0144421
0.0153045
0.016233
0.0172224
0.0182672
0.0193632
0.0205087
0.0217081
0.0229773
0.0243288
0.0257466
0.0272169
3.46216e-06
0.00014614
0.000374557
0.000654612
0.00098765
0.00137652
0.00182361
0.00232935
0.00288362
0.00346429
0.00405136
0.00463187
0.00519866
0.00574866
0.00628016
0.00679211
0.00728367
0.00775418
0.00820358
0.00863229
0.0090416
0.00943399
0.00981363
0.0101868
0.0105619
0.0109499
0.0113635
0.0118163
0.0123216
0.0128908
0.0135322
0.0142506
0.0150464
0.0159175
0.0168588
0.0178645
0.0189285
0.0200456
0.0212139
0.0224368
0.0237315
0.0251138
0.0265665
4.09103e-06
0.000147567
0.000380645
0.000663155
0.00099822
0.00138863
0.00183606
0.00234207
0.00290102
0.00349506
0.00410292
0.00470878
0.00530315
0.00588136
0.00644088
0.00698019
0.00749792
0.00799351
0.0084662
0.0089158
0.00934273
0.00974836
0.0101353
0.010508
0.0108728
0.0112387
0.011617
0.0120211
0.0124657
0.0129648
0.013531
0.014173
0.0148961
0.015701
0.0165847
0.0175419
0.0185663
0.0196508
0.0207905
0.0219826
0.0232319
0.0245587
0.0259788
4.62294e-06
0.000149815
0.000386446
0.000671318
0.00100865
0.00140064
0.00184904
0.00235536
0.00291744
0.00352174
0.00414762
0.00477708
0.00539825
0.00600444
0.00659201
0.00715871
0.0077034
0.00822479
0.00872206
0.0091945
0.00964186
0.0100648
0.0104647
0.0108446
0.0112092
0.0115654
0.0119226
0.0122931
0.012691
0.0131315
0.0136297
0.0141985
0.0148472
0.0155807
0.0163993
0.0172999
0.0182763
0.0193218
0.0204293
0.021593
0.0228113
0.024092
0.0254629
5.04771e-06
0.000152619
0.00039178
0.000679111
0.00101861
0.00141234
0.00186194
0.0023689
0.00293303
0.00354496
0.00418594
0.00483679
0.00548334
0.00611683
0.00673198
0.00732639
0.00789807
0.00844577
0.00896834
0.00946483
0.00993447
0.0103772
0.0107938
0.0111861
0.0115574
0.0119128
0.0122602
0.0126097
0.0129742
0.0133689
0.0138097
0.0143122
0.0148895
0.0155506
0.0163001
0.0171374
0.018059
0.0190584
0.0201274
0.0212598
0.0224499
0.0236979
0.0250142
5.39786e-06
0.000155256
0.000396775
0.000686206
0.0010277
0.00142325
0.00187412
0.00238203
0.00294761
0.00356476
0.00421818
0.00488804
0.00555828
0.00621779
0.0068603
0.00748198
0.00808078
0.00865495
0.0092033
0.00972445
0.0102175
0.0106819
0.0111176
0.0115258
0.0119085
0.0122697
0.0126153
0.0129539
0.0132968
0.0136577
0.0140526
0.0144983
0.0150104
0.0156017
0.0162811
0.0170518
0.017913
0.0188595
0.0198845
0.02098
0.0221394
0.0233577
0.0246374
5.69717e-06
0.000157735
0.000401216
0.000692596
0.00103617
0.00143335
0.00188567
0.00239462
0.00296091
0.00358161
0.00424479
0.00493109
0.00562295
0.00630746
0.00697642
0.00762518
0.00825083
0.00885148
0.00942566
0.00997183
0.0104889
0.010976
0.0114326
0.011859
0.0122566
0.0126281
0.0129781
0.0133136
0.013644
0.0139818
0.0143419
0.014741
0.0151964
0.0157236
0.0163349
0.017038
0.0178352
0.0187242
0.0196993
0.0207529
0.0218774
0.0230668
0.0243203
5.97116e-06
0.000160064
0.000405351
0.000698534
0.00104379
0.00144268
0.00189639
0.00240617
0.0029729
0.00359597
0.00426637
0.00496668
0.00567816
0.00638605
0.00708065
0.00775576
0.00840788
0.00903475
0.0096348
0.0102062
0.0107476
0.011258
0.0117365
0.0121828
0.0125976
0.0129828
0.0133418
0.01368
0.0140054
0.0143288
0.0146638
0.0150265
0.0154344
0.0159048
0.0164528
0.0170898
0.0178218
0.0186502
0.0195708
0.0205777
0.0216629
0.0228187
0.0240389
6.18966e-06
0.000162073
0.000409036
0.000703796
0.00105064
0.00145104
0.00190597
0.00241641
0.00298379
0.00360828
0.0042838
0.00499549
0.00572414
0.00645382
0.00717267
0.00787362
0.00855174
0.00920467
0.00983031
0.0104268
0.0109928
0.0115268
0.0120278
0.0124952
0.0129289
0.0133301
0.0137013
0.0140468
0.0143731
0.0146893
0.0150076
0.015343
0.0157125
0.0161341
0.016625
0.0171996
0.0178677
0.0186338
0.0194971
0.0204532
0.0214946
0.0226137
0.0238033
6.37951e-06
0.000163791
0.000412194
0.00070832
0.0010567
0.00145851
0.00191441
0.00242566
0.00299354
0.00361882
0.00429765
0.00501817
0.00576205
0.00651137
0.00725336
0.00797909
0.0086827
0.00936111
0.010012
0.0106335
0.0112239
0.0117818
0.0123058
0.0127948
0.0132486
0.0136676
0.0140535
0.0144096
0.0147412
0.015056
0.0153646
0.0156806
0.0160201
0.0164013
0.0168423
0.0173597
0.0179666
0.0186709
0.0194753
0.0203774
0.0213718
0.0224506
0.0236073
6.52159e-06
0.000165369
0.00041497
0.000712445
0.00106222
0.00146509
0.00192195
0.00243368
0.00300186
0.00362732
0.0043082
0.00503558
0.00579213
0.00655948
0.00732317
0.0080724
0.0088008
0.00950422
0.0101801
0.0108263
0.0114411
0.0120226
0.0125697
0.0130809
0.0135555
0.0139935
0.0143959
0.0147653
0.0151055
0.0154234
0.015728
0.0160314
0.0163487
0.0166972
0.0170956
0.017562
0.0181119
0.0187565
0.0195018
0.0203483
0.0212924
0.0223265
0.0234414
6.6419e-06
0.000166786
0.000417547
0.000716227
0.00106704
0.00147095
0.00192848
0.00244073
0.00300888
0.00363435
0.00431654
0.00504862
0.00581555
0.0065989
0.00738238
0.00815422
0.00890653
0.00963428
0.0103346
0.0110053
0.0116439
0.0122492
0.0128193
0.0133529
0.0138488
0.0143066
0.0147269
0.0151113
0.0154631
0.0157876
0.0160928
0.0163893
0.0166909
0.0170141
0.0173771
0.017799
0.0182969
0.0188851
0.0195725
0.0203629
0.0212543
0.0222414
0.0233162
6.71337e-06
0.000168084
0.000419905
0.000719406
0.00107113
0.00147582
0.001934
0.00244647
0.00301453
0.00363982
0.0043223
0.00505749
0.00583276
0.00662998
0.00743186
0.00822505
0.0090001
0.00975151
0.0104759
0.0111703
0.0118328
0.0124615
0.0130545
0.0136105
0.014128
0.0146062
0.0150453
0.0154462
0.0158115
0.0161456
0.016455
0.0167494
0.017041
0.0173452
0.0176797
0.0180635
0.0185152
0.019051
0.0196829
0.0204172
0.0212552
0.0221923
0.0232202
6.7358e-06
0.000169114
0.000421713
0.000721964
0.00107443
0.00147981
0.00193839
0.00245096
0.00301897
0.00364368
0.00432601
0.00506292
0.00584435
0.00665328
0.00747189
0.00828487
0.00908176
0.00985633
0.0106041
0.011322
0.0120078
0.0126595
0.0132754
0.0138536
0.0143928
0.0148918
0.0153503
0.0157688
0.0161493
0.0164951
0.0168119
0.0171079
0.0173943
0.0176851
0.0179972
0.0183494
0.0187606
0.0192489
0.0198283
0.0205084
0.0212926
0.022179
0.0231609
6.74165e-06
0.000170093
0.000423349
0.000724117
0.00107704
0.0014828
0.00194149
0.00245406
0.0030216
0.00364575
0.00432758
0.00506544
0.00585129
0.00666987
0.007503
0.00833433
0.00915235
0.00994915
0.0107196
0.0114605
0.0121692
0.0128436
0.013482
0.0140824
0.0146432
0.0151631
0.0156415
0.0160784
0.0164751
0.0168345
0.0171611
0.017462
0.0177472
0.0180295
0.0183248
0.018651
0.0190275
0.0194731
0.0200041
0.0206321
0.0213637
0.0221992
0.0231346
6.7142e-06
0.000170792
0.000424474
0.000725773
0.00107908
0.00148498
0.00194379
0.00245616
0.00302319
0.00364654
0.00432731
0.00506522
0.00585413
0.0066804
0.00752619
0.00837464
0.00921238
0.0100302
0.0108228
0.0115861
0.012317
0.013014
0.0136745
0.0142968
0.0148792
0.0154202
0.0159187
0.0163746
0.0167885
0.0171626
0.0175009
0.0178093
0.0180967
0.0183746
0.0186578
0.0189636
0.0193109
0.0197191
0.0202057
0.0207848
0.0214653
0.02225
0.0231357
6.65293e-06
0.000171333
0.000425563
0.000727097
0.00108053
0.00148653
0.00194521
0.00245723
0.00302371
0.00364599
0.00432549
0.00506267
0.00585322
0.00668537
0.00754233
0.00840599
0.00926199
0.0101003
0.0109142
0.011699
0.0124522
0.013171
0.0138533
0.0144973
0.015101
0.0156629
0.0161817
0.0166568
0.0170887
0.0174788
0.0178302
0.0181483
0.0184406
0.0187177
0.0189931
0.0192832
0.0196064
0.0199821
0.020429
0.0209627
0.0215946
0.02233
0.0231692
6.54967e-06
0.000171658
0.000426175
0.000727779
0.00108134
0.00148714
0.0019456
0.00245715
0.00302275
0.00364386
0.00432206
0.00505791
0.00584874
0.00668534
0.00755136
0.00842877
0.00930206
0.0101598
0.010994
0.0118003
0.0125747
0.0133149
0.0140187
0.014684
0.0153088
0.0158915
0.0164306
0.0169252
0.0173754
0.0177822
0.018148
0.0184774
0.018777
0.0190563
0.0193277
0.0196064
0.0199102
0.0202583
0.0206699
0.0211622
0.0217483
0.0224367
0.0232301
6.43349e-06
0.000171939
0.000426641
0.00072824
0.00108157
0.00148718
0.00194516
0.00245595
0.00302046
0.00364032
0.00431696
0.00505122
0.00584173
0.00668115
0.00755443
0.00844388
0.00933295
0.0102089
0.011063
0.0118896
0.0126848
0.0134462
0.0141709
0.0148573
0.0155029
0.0161062
0.0166655
0.0171798
0.0176486
0.0180726
0.0184538
0.0187959
0.0191048
0.0193887
0.0196592
0.0199303
0.020219
0.0205442
0.020925
0.0213797
0.0219235
0.0225667
0.0233148
6.28735e-06
0.000172001
0.000426813
0.000728296
0.00108142
0.00148657
0.00194379
0.00245367
0.00301713
0.00363543
0.00431023
0.0050426
0.00583215
0.00667291
0.00755212
0.00845196
0.00935534
0.0102484
0.0111213
0.0119676
0.0127833
0.0135649
0.0143105
0.0150173
0.0156836
0.0163072
0.0168865
0.0174204
0.0179082
0.0183499
0.0187472
0.0191031
0.0194228
0.0197136
0.0199858
0.0202527
0.0205301
0.0208364
0.0211908
0.0216121
0.0221167
0.0227168
0.0234188
6.12951e-06
0.000171942
0.000426721
0.000728039
0.00108061
0.00148512
0.00194163
0.00245046
0.00301261
0.00362922
0.00430213
0.00503245
0.00582038
0.00666145
0.00754465
0.0084534
0.00936981
0.0102787
0.0111694
0.012035
0.0128702
0.013672
0.0144375
0.0151646
0.015851
0.0164948
0.017094
0.0176475
0.0181542
0.0186139
0.0190279
0.0193985
0.0197303
0.0200297
0.020306
0.0205716
0.0208413
0.0211325
0.0214645
0.0218563
0.0223254
0.0228861
0.023549
5.9373e-06
0.000171754
0.000426539
0.000727378
0.00107943
0.00148328
0.00193881
0.00244625
0.00300689
0.00362197
0.00429258
0.00502068
0.0058064
0.00664685
0.00753277
0.00844875
0.00937652
0.0103001
0.011208
0.0120919
0.0129463
0.0137673
0.0145526
0.0152995
0.0160057
0.0166693
0.0172883
0.0178612
0.0183868
0.0188648
0.0192958
0.0196819
0.0200268
0.0203362
0.0206187
0.0208854
0.0211504
0.0214303
0.0217436
0.0221097
0.0225467
0.0230704
0.0236922
5.70598e-06
0.000171601
0.000426124
0.000726372
0.00107776
0.00148075
0.00193509
0.00244131
0.00300054
0.00361344
0.0042818
0.00500729
0.00579063
0.00662967
0.00751724
0.00843887
0.00937645
0.0103137
0.0112375