/*--------------------------------*- C++ -*----------------------------------*\
| =========                 |                                                 |
| \\      /  F ield         | OpenFOAM: The Open Source CFD Toolbox           |
|  \\    /   O peration     | Version:  2.3.0                                 |
|   \\  /    A nd           | Web:      www.OpenFOAM.org                      |
|    \\/     M anipulation  |                                                 |
\*---------------------------------------------------------------------------*/
FoamFile
{
    version     2.0;
    format      ascii;
    class       volScalarField;
    location    "10000";
    object      p;
}
// * * * * * * * * * * * * * * * * * * * * * * * * * * * * * * * * * * * * * //

dimensions      [0 2 -2 0 0 0 0];

internalField   nonuniform List<scalar> 
123311
(
-0.00018425
-5.66139
-11.6238
-17.7223
-23.8739
-30.0795
-36.3438
-42.6706
-49.0709
-55.5247
-62.0425
-68.6256
-75.2312
-81.934
-88.6525
-95.4016
-102.222
-109.077
-115.961
-122.847
-129.777
-136.744
-143.621
-150.518
-157.316
-163.99
-170.599
-177.06
-183.245
-189.027
-194.648
-199.485
-203.686
-206.811
-208.816
-208.722
-207.145
-202.874
-192.862
-176.345
-166.011
-179.325
-162.761
15.908
11.7165
7.33062
2.9367
-1.37484
-5.63245
-9.82492
-13.9206
-17.9417
-21.8841
-25.7093
-29.45
-33.06
-36.6118
-39.9748
-43.2524
-46.3909
-49.4216
-52.2637
-54.8983
-57.3582
-59.6048
-61.4934
-63.0231
-64.0205
-64.455
-64.0893
-62.8148
-60.4144
-56.6269
-51.2152
-43.845
-34.1779
-21.8907
-6.3982
12.7177
36.0163
63.9608
97.5591
137.328
182.744
233.134
287.897
30.1848
26.9854
23.68
20.3732
17.1325
13.9584
10.8223
7.80037
4.83831
1.97456
-0.781475
-3.432
-5.94834
-8.37437
-10.5853
-12.6949
-14.5414
-16.2754
-17.7486
-18.9579
-19.9316
-20.5746
-20.8883
-20.8164
-20.293
-19.2875
-17.6606
-15.3691
-12.3014
-8.34719
-3.30528
3.02367
10.7536
20.1622
31.4822
45.0196
61.0295
79.7501
101.486
126.217
154.079
185.312
219.658
42.7262
40.4407
38.043
35.6432
33.3081
31.0732
28.8903
26.8596
24.9054
23.0973
21.4083
19.8755
18.5474
17.3107
16.3617
15.5361
15.0052
14.7036
14.6679
14.9704
15.6048
16.629
18.0963
20.0944
22.6419
25.8344
29.8232
34.6523
40.3648
47.1907
55.2024
64.6287
75.4403
87.9635
102.147
118.293
136.313
156.419
178.341
201.974
227.002
252.86
278.912
54.8277
52.6589
50.7155
48.9031
47.2148
45.6222
44.0925
42.7106
41.3762
40.2103
39.1586
38.2566
37.5755
36.9888
36.6597
36.499
36.6171
36.9785
37.5791
38.5365
39.7794
41.4271
43.4633
46.0196
49.0209
52.6159
56.9024
61.8871
67.6922
74.4297
82.1677
91.0969
101.216
112.746
125.683
140.2
156.291
173.951
193.105
213.641
235.18
257.414
279.804
63.8629
63.0457
61.6752
60.4157
59.2446
58.1837
57.1874
56.2981
55.4176
54.7356
54.1864
53.782
53.6425
53.5694
53.7338
54.1471
54.7814
55.6116
56.7715
58.2781
60.0962
62.2883
64.9496
68.0541
71.6799
75.8467
80.6572
86.1801
92.4732
99.6219
107.714
116.853
127.064
138.538
151.155
165.111
180.4
196.875
214.521
233.139
252.49
272.337
292.228
72.5296
72.2427
71.2821
70.4609
69.6466
68.9901
68.4851
67.9696
67.456
67.0657
66.8638
66.5667
66.9362
67.1705
67.6819
68.5635
69.5564
70.6392
72.1066
73.924
76.1049
78.5408
81.5442
84.8588
88.7407
93.1178
98.0966
103.718
110.053
117.09
125.138
134.128
144.057
155.145
167.169
180.488
195.008
210.499
226.978
244.192
262.013
280.368
298.537
80.4334
80.3207
79.8101
79.286
78.5832
78.1484
78.2299
78.2687
78.2379
78.2147
78.4197
77.2916
78.3309
78.509
78.8021
80.2127
81.8149
83.1027
84.7222
86.8231
89.1474
91.7122
95.1144
98.7531
102.897
107.315
112.272
117.974
124.752
131.511
139.352
148.061
157.968
168.813
180.234
192.862
206.671
221.257
236.819
252.924
269.39
286.723
303.857
88.2476
88.5205
88.2137
87.6369
86.4845
85.9814
86.8485
87.0837
86.8807
84.9706
88.4304
85.037
87.7552
89.4976
86.6954
87.5717
90.7146
91.7393
92.9568
95.11
97.131
98.7278
102.283
106.366
111.154
115.56
120.136
124.765
134.675
141.468
148.666
156.563
166.82
178.372
189.004
200.239
212.589
225.891
240.393
254.899
267.674
286.566
304.682
23.938
153.086
234.547
294.265
340.314
376.635
405.209
427.805
445.943
460.543
472.431
482.133
490.011
496.458
501.802
506.175
509.755
512.725
515.124
517.044
518.581
519.759
520.67
521.351
521.813
522.103
522.232
522.251
522.162
521.968
521.703
521.361
520.956
520.495
519.987
519.426
518.831
518.2
517.534
516.825
516.086
515.399
515.072
337.328
371.813
399.802
423.201
442.664
458.735
471.891
482.634
491.283
498.145
503.581
507.887
511.291
513.991
516.104
517.761
519.041
520.005
520.711
521.216
521.546
521.73
521.797
521.747
521.614
521.408
521.129
520.791
520.39
519.947
519.455
518.93
518.369
517.78
517.167
516.531
515.878
515.209
514.528
513.827
513.106
512.393
511.859
254.543
287.528
317.728
344.785
368.615
389.441
407.523
423.091
436.471
447.97
457.813
466.251
473.468
479.639
484.922
489.457
493.321
496.654
499.473
501.882
503.918
505.635
507.075
508.276
509.258
510.048
510.672
511.157
511.503
511.74
511.881
511.93
511.898
511.798
511.633
511.412
511.137
510.82
510.464
510.065
509.623
509.161
508.761
304.307
328.348
350.649
370.993
389.242
405.486
419.777
432.278
443.142
452.537
460.663
467.675
473.681
478.874
483.327
487.154
490.458
493.289
495.72
497.81
499.593
501.115
502.417
503.513
504.438
505.202
505.839
506.352
506.762
507.08
507.315
507.473
507.564
507.598
507.576
507.513
507.404
507.253
507.073
506.862
506.627
506.467
506.951
301.806
323.068
343.196
361.856
378.947
394.414
408.219
420.519
431.385
440.933
449.308
456.665
463.049
468.682
473.572
477.849
481.603
484.878
487.737
490.218
492.394
494.269
495.913
497.312
498.53
499.57
500.464
501.22
501.862
502.398
502.84
503.196
503.476
503.688
503.842
503.943
503.99
503.991
503.955
503.881
503.767
503.731
504.305
311.65
330.47
348.389
365.096
380.532
394.6
407.313
418.73
428.888
437.904
445.846
452.889
459.044
464.511
469.289
473.498
477.22
480.486
483.349
485.855
488.056
489.975
491.654
493.115
494.394
495.516
496.47
497.323
498.051
498.695
499.243
499.689
500.069
500.384
500.646
500.856
501.011
501.112
501.183
501.213
501.204
501.199
501.587
316.268
333.53
349.996
365.49
379.874
393.057
405.104
415.962
425.661
434.33
442.036
448.891
454.943
460.326
465.103
469.322
473.086
476.385
479.294
481.89
484.143
486.116
487.844
489.36
490.722
491.92
492.943
493.916
494.76
495.506
496.109
496.615
497.078
497.473
497.841
498.144
498.383
498.546
498.695
498.806
498.911
498.968
499.28
320.402
336.513
351.918
366.441
379.972
392.344
403.88
414.366
423.629
431.954
439.48
446.109
452.078
457.345
462.083
466.3
470.104
473.354
476.301
478.902
481.122
483.049
484.766
486.337
487.793
489.016
490.077
491.203
492.136
492.843
493.41
493.944
494.491
494.961
495.464
495.811
496.052
496.205
496.454
496.653
496.852
496.999
497.56
321.827
338.045
353.254
367.025
379.744
391.404
402.928
413.394
422.371
430.471
437.802
444.131
449.951
455.061
459.655
463.812
467.733
470.758
473.504
476.005
478.081
480.016
481.839
483.56
485.03
486.172
487.173
488.277
488.644
489.863
490.625
491.276
492.046
492.685
493.246
493.603
493.83
494.065
494.655
494.975
495.22
495.4
496.441
115.203
115.339
115.502
115.641
115.769
115.884
115.986
116.071
116.139
116.188
116.217
116.226
116.213
116.179
116.123
116.044
115.943
115.819
115.672
115.504
115.314
115.104
114.874
114.626
114.36
114.077
113.78
113.47
113.148
112.815
112.473
112.125
111.771
111.415
111.059
110.707
110.364
110.037
109.739
109.504
109.412
109.744
110.724
115.794
115.655
115.521
115.38
115.237
115.093
114.948
114.802
114.656
114.51
114.365
114.221
114.08
113.944
113.813
113.687
113.567
113.452
113.343
113.239
113.138
113.042
112.95
112.861
112.774
112.69
112.608
112.526
112.446
112.367
112.289
112.212
112.136
112.064
111.998
111.939
111.896
111.88
111.918
112.096
112.671
114.131
116.159
116.481
116.328
116.194
116.069
115.955
115.851
115.756
115.671
115.593
115.521
115.451
115.384
115.319
115.255
115.192
115.13
115.068
115.005
114.94
114.873
114.804
114.731
114.655
114.574
114.491
114.405
114.316
114.225
114.133
114.04
113.947
113.855
113.765
113.68
113.603
113.54
113.505
113.525
113.648
114.017
115.003
117.033
120.418
117.125
117.029
116.941
116.859
116.787
116.723
116.662
116.607
116.558
116.512
116.466
116.417
116.366
116.314
116.264
116.215
116.167
116.12
116.072
116.025
115.975
115.924
115.869
115.81
115.747
115.681
115.614
115.544
115.471
115.397
115.322
115.248
115.176
115.109
115.054
115.022
115.037
115.132
115.386
116.011
117.4
119.685
123.282
117.684
117.613
117.537
117.462
117.402
117.35
117.294
117.243
117.207
117.174
117.145
117.11
117.069
117.02
116.977
116.939
116.903
116.869
116.836
116.806
116.78
116.754
116.724
116.686
116.642
116.593
116.544
116.495
116.443
116.39
116.336
116.284
116.236
116.196
116.176
116.193
116.277
116.469
116.876
117.752
119.469
122
125.599
118.127
118.101
118.04
117.966
117.919
117.891
117.839
117.785
117.763
117.745
117.745
117.736
117.715
117.664
117.624
117.599
117.566
117.545
117.513
117.488
117.474
117.471
117.471
117.458
117.432
117.392
117.353
117.317
117.278
117.236
117.193
117.154
117.121
117.102
117.108
117.166
117.312
117.594
118.144
119.233
121.18
123.901
127.507
118.571
118.562
118.519
118.425
118.388
118.415
118.365
118.28
118.279
118.27
118.316
118.343
118.356
118.264
118.203
118.212
118.185
118.211
118.179
118.153
118.145
118.163
118.208
118.213
118.193
118.134
118.095
118.087
118.073
118.046
118.012
117.985
117.963
117.955
117.977
118.051
118.236
118.584
119.24
120.487
122.639
125.574
129.222
118.901
118.933
118.89
118.701
118.617
118.759
118.755
118.516
118.514
118.422
118.514
118.642
118.913
118.804
118.501
118.494
118.342
118.432
118.403
118.325
118.27
118.28
118.468
118.642
118.775
118.634
118.475
118.461
118.475
118.462
118.434
118.433
118.443
118.467
118.532
118.634
118.918
119.408
120.174
121.523
123.853
126.869
130.293
120.596
120.836
121.074
120.691
120.126
120.585
120.791
120.453
120.458
120.026
119.815
119.261
120.37
121.049
120.702
120.949
120.483
120.803
120.778
120.743
120.284
119.643
119.613
119.524
120.332
120.635
120.345
120.207
120.311
120.382
120.26
120.165
120.13
120.055
120.034
119.777
119.742
120.11
120.701
121.615
124.593
129.032
132.955
117.995
126.341
133.452
139.904
145.688
150.896
155.607
159.907
163.872
167.558
171.009
174.26
177.339
180.268
183.064
185.74
188.307
190.774
193.146
195.431
197.631
199.75
201.79
203.754
205.64
207.452
209.188
210.849
212.431
213.935
215.36
216.703
217.962
219.134
220.216
221.206
222.1
222.894
223.582
224.166
224.659
224.983
224.912
121.38
126.196
131.193
136.56
141.839
146.937
151.779
156.345
160.632
164.653
168.421
171.957
175.28
178.407
181.354
184.136
186.764
189.25
191.604
193.834
195.946
197.947
199.841
201.635
203.331
204.933
206.442
207.864
209.197
210.445
211.609
212.688
213.681
214.591
215.415
216.152
216.8
217.355
217.815
218.18
218.452
218.561
218.454
126.026
130.594
135.234
139.878
144.372
148.736
152.924
156.923
160.721
164.32
167.722
170.934
173.966
176.829
179.533
182.087
184.501
186.783
188.942
190.984
192.916
194.743
196.47
198.101
199.639
201.088
202.45
203.726
204.919
206.029
207.058
208.004
208.868
209.649
210.347
210.959
211.484
211.919
212.26
212.509
212.663
212.69
212.554
128.249
132.417
136.743
140.967
145.067
149.035
152.839
156.477
159.943
163.237
166.363
169.326
172.132
174.788
177.3
179.677
181.925
184.05
186.059
187.958
189.751
191.444
193.039
194.542
195.953
197.277
198.515
199.672
200.746
201.742
202.657
203.493
204.251
204.928
205.526
206.043
206.478
206.827
207.09
207.264
207.351
207.339
207.166
130.04
133.779
137.683
141.519
145.308
148.996
152.554
155.968
159.231
162.339
165.292
168.093
170.744
173.252
175.623
177.862
179.976
181.968
183.846
185.614
187.278
188.841
190.306
191.677
192.957
194.149
195.258
196.286
197.234
198.104
198.896
199.612
200.252
200.814
201.302
201.714
202.049
202.305
202.48
202.574
202.588
202.519
202.347
131.693
135.161
138.764
142.308
145.828
149.261
152.587
155.789
158.856
161.781
164.562
167.198
169.691
172.048
174.274
176.371
178.344
180.199
181.942
183.579
185.112
186.545
187.88
189.121
190.272
191.338
192.325
193.234
194.067
194.824
195.504
196.111
196.645
197.103
197.494
197.815
198.062
198.232
198.327
198.347
198.288
198.144
197.856
133.177
136.374
139.733
143.032
146.313
149.513
152.625
155.63
158.51
161.256
163.866
166.34
168.677
170.888
172.979
174.941
176.78
178.505
180.125
181.644
183.061
184.38
185.6
186.724
187.766
188.722
189.605
190.417
191.15
191.807
192.392
192.907
193.351
193.717
194.028
194.276
194.443
194.539
194.565
194.528
194.413
194.194
193.778
133.98
137.079
140.346
143.497
146.621
149.644
152.596
155.452
158.198
160.805
163.287
165.635
167.843
169.944
171.938
173.78
175.501
177.118
178.642
180.068
181.381
182.593
183.691
184.689
185.615
186.444
187.22
187.947
188.583
189.138
189.631
190.052
190.397
190.648
190.892
191.078
191.171
191.203
191.167
191.088
190.913
190.623
190.154
135.581
138.091
141.144
143.991
146.868
149.641
152.438
155.17
157.77
160.174
162.489
164.663
166.695
168.684
170.568
172.225
173.816
175.308
176.729
178.04
179.211
180.303
181.257
182.145
182.996
183.755
184.589
185.343
185.864
186.343
186.781
187.135
187.416
187.603
187.972
188.185
188.178
188.153
188.049
187.927
187.756
187.703
187.449
-487.329
-488.13
-489.121
-486.01
-477.56
-465.351
-450.404
-433.377
-415.208
-396.038
-376.687
-357.361
-338.383
-319.593
-301.583
-284.268
-267.712
-252.016
-237.268
-223.345
-210.262
-197.967
-186.301
-175.256
-164.732
-154.664
-145.007
-135.721
-126.743
-118.009
-109.462
-101.112
-92.8976
-84.8145
-76.8541
-68.9973
-61.2331
-53.5698
-46.0079
-38.5249
-31.1172
-23.8154
-16.924
-419.838
-418.572
-415.876
-412.634
-409.662
-407.512
-406.163
-405.429
-404.877
-403.566
-400.781
-396.336
-390.054
-381.88
-372.003
-360.513
-347.663
-333.608
-318.847
-303.508
-287.857
-272.323
-256.861
-241.757
-227.063
-212.83
-199.108
-185.942
-173.273
-161.089
-149.373
-138.072
-127.136
-116.557
-106.305
-96.3475
-86.6571
-77.222
-68.0291
-59.0607
-50.2986
-41.7174
-34.001
-443.062
-442.71
-442.346
-442.094
-441.862
-441.405
-440.447
-438.8
-436.497
-433.692
-430.456
-426.702
-422.083
-416.289
-409.204
-400.668
-390.771
-379.311
-366.648
-352.823
-337.984
-322.559
-306.628
-290.509
-274.405
-258.439
-242.769
-227.545
-212.716
-198.391
-184.56
-171.199
-158.304
-145.867
-133.836
-122.198
-110.924
-99.9924
-89.3876
-79.0778
-69.0298
-59.1815
-50.3184
-437.942
-437.548
-436.845
-436.055
-435.278
-434.535
-433.826
-433.149
-432.451
-431.648
-430.571
-429.105
-427.245
-424.837
-421.61
-417.29
-411.687
-404.522
-395.814
-385.508
-373.632
-360.38
-345.935
-330.59
-314.621
-298.244
-281.718
-265.286
-249.046
-233.154
-217.68
-202.66
-188.12
-174.062
-160.457
-147.318
-134.604
-122.3
-110.396
-98.848
-87.6476
-76.7712
-67.3176
-444.591
-444.398
-444.14
-443.885
-443.632
-443.363
-443.057
-442.696
-442.247
-441.677
-440.919
-439.887
-438.476
-436.625
-434.227
-431.139
-427.211
-422.205
-415.949
-408.335
-399.155
-388.492
-376.293
-362.723
-347.963
-332.28
-315.918
-299.164
-282.271
-265.407
-248.76
-232.45
-216.536
-201.093
-186.104
-171.597
-157.562
-143.986
-130.863
-118.166
-105.89
-94.0049
-83.6982
-446.728
-446.532
-446.255
-445.971
-445.686
-445.389
-445.076
-444.748
-444.404
-444.028
-443.576
-443.001
-442.235
-441.19
-439.768
-437.874
-435.349
-432.03
-427.711
-422.309
-415.526
-407.313
-397.554
-386.244
-373.412
-359.283
-343.995
-327.837
-311.102
-294.009
-276.838
-259.746
-242.873
-226.376
-210.272
-194.63
-179.446
-164.759
-150.53
-136.765
-123.459
-110.544
-99.1846
-450.168
-450.014
-449.818
-449.637
-449.465
-449.286
-449.09
-448.874
-448.631
-448.352
-448.011
-447.573
-446.993
-446.205
-445.135
-443.707
-441.815
-439.343
-436.102
-431.989
-426.787
-420.347
-412.572
-403.272
-392.446
-380.088
-366.368
-351.377
-335.429
-318.721
-301.578
-284.199
-266.825
-249.63
-232.714
-216.184
-200.064
-184.43
-169.245
-154.531
-140.301
-126.463
-114.453
-452.176
-452.037
-451.856
-451.687
-451.525
-451.358
-451.178
-450.984
-450.773
-450.538
-450.265
-449.925
-449.489
-448.908
-448.131
-447.089
-445.682
-443.83
-441.403
-438.265
-434.264
-429.208
-422.973
-415.358
-406.352
-395.728
-383.704
-370.16
-355.39
-339.531
-322.895
-305.707
-288.246
-270.706
-253.286
-236.118
-219.278
-202.87
-186.888
-171.373
-156.331
-141.673
-129.096
-453.712
-453.59
-453.434
-453.293
-453.161
-453.027
-452.884
-452.73
-452.559
-452.366
-452.137
-451.858
-451.504
-451.031
-450.4
-449.55
-448.428
-446.945
-445.005
-442.484
-439.266
-435.18
-430.095
-423.829
-416.269
-407.23
-396.759
-384.732
-371.309
-356.593
-340.805
-324.178
-306.981
-289.471
-271.842
-254.309
-236.972
-219.982
-203.358
-187.17
-171.445
-156.036
-142.711
-454.33
-454.212
-454.063
-453.929
-453.806
-453.683
-453.554
-453.418
-453.269
-453.103
-452.911
-452.672
-452.37
-451.975
-451.455
-450.766
-449.852
-448.633
-447.047
-444.981
-442.353
-438.987
-434.768
-429.535
-423.164
-415.458
-406.354
-395.769
-383.733
-370.261
-355.513
-339.729
-323.077
-305.881
-288.33
-270.672
-253.081
-235.685
-218.602
-201.865
-185.581
-169.592
-155.706
-454.155
-454.045
-453.907
-453.783
-453.672
-453.564
-453.455
-453.341
-453.217
-453.078
-452.914
-452.715
-452.461
-452.126
-451.683
-451.09
-450.306
-449.279
-447.943
-446.21
-443.986
-441.141
-437.583
-433.14
-427.692
-421.063
-413.164
-403.84
-393.079
-380.848
-367.268
-352.451
-336.587
-319.936
-302.721
-285.178
-267.541
-249.938
-232.566
-215.451
-198.75
-182.344
-167.926
-453.122
-453.023
-452.9
-452.792
-452.695
-452.602
-452.51
-452.414
-452.311
-452.197
-452.061
-451.891
-451.673
-451.386
-451.006
-450.501
-449.837
-448.953
-447.794
-446.303
-444.396
-441.967
-438.913
-435.094
-430.384
-424.627
-417.698
-409.488
-399.889
-388.866
-376.412
-362.635
-347.681
-331.723
-315.036
-297.823
-280.316
-262.714
-245.195
-227.861
-210.828
-194.004
-177.643
-451.358
-451.257
-451.143
-451.045
-450.959
-450.88
-450.804
-450.726
-450.646
-450.555
-450.447
-450.311
-450.134
-449.893
-449.566
-449.122
-448.533
-447.76
-446.752
-445.456
-443.783
-441.659
-438.985
-435.651
-431.537
-426.495
-420.398
-413.123
-404.528
-394.588
-383.229
-370.499
-356.524
-341.389
-325.372
-308.627
-291.43
-274
-256.49
-239.084
-221.907
-204.974
-187.236
-448.819
-448.729
-448.628
-448.543
-448.472
-448.406
-448.346
-448.29
-448.231
-448.163
-448.082
-447.973
-447.824
-447.618
-447.339
-446.96
-446.452
-445.778
-444.892
-443.742
-442.271
-440.404
-438.041
-435.106
-431.456
-426.993
-421.582
-415.091
-407.381
-398.395
-388.051
-376.332
-363.326
-349.071
-333.812
-317.687
-300.944
-283.798
-266.476
-249.115
-231.925
-215.075
-197.826
-445.611
-445.521
-445.432
-445.36
-445.3
-445.25
-445.209
-445.171
-445.131
-445.088
-445.034
-444.958
-444.848
-444.682
-444.445
-444.113
-443.664
-443.06
-442.271
-441.247
-439.933
-438.262
-436.161
-433.542
-430.29
-426.318
-421.474
-415.653
-408.723
-400.598
-391.163
-380.389
-368.324
-354.972
-340.494
-325.079
-308.876
-292.146
-275.097
-257.881
-240.691
-223.708
-206.007
-441.749
-441.666
-441.588
-441.528
-441.48
-441.444
-441.417
-441.395
-441.374
-441.351
-441.319
-441.271
-441.191
-441.065
-440.874
-440.597
-440.209
-439.679
-438.984
-438.071
-436.896
-435.395
-433.501
-431.147
-428.222
-424.639
-420.269
-415.022
-408.754
-401.367
-392.745
-382.859
-371.674
-359.222
-345.57
-330.905
-315.326
-299.115
-282.424
-265.468
-248.394
-231.429
-213.6
-437.328
-437.241
-437.167
-437.113
-437.076
-437.052
-437.038
-437.034
-437.034
-437.035
-437.031
-437.011
-436.96
-436.864
-436.707
-436.472
-436.138
-435.674
-435.049
-434.228
-433.166
-431.819
-430.119
-427.987
-425.341
-422.111
-418.169
-413.399
-407.687
-400.965
-393.09
-383.994
-373.638
-362.028
-349.195
-335.291
-320.406
-304.769
-288.541
-271.949
-255.137
-238.385
-220.557
-432.315
-432.235
-432.168
-432.125
-432.1
-432.088
-432.091
-432.103
-432.12
-432.139
-432.154
-432.162
-432.147
-432.091
-431.982
-431.797
-431.509
-431.102
-430.549
-429.815
-428.86
-427.635
-426.083
-424.149
-421.746
-418.79
-415.186
-410.856
-405.665
-399.516
-392.288
-383.91
-374.331
-363.523
-351.495
-338.353
-324.19
-309.169
-293.486
-277.307
-260.821
-244.305
-226.24
-426.759
-426.694
-426.648
-426.621
-426.612
-426.619
-426.639
-426.671
-426.709
-426.752
-426.795
-426.827
-426.837
-426.813
-426.737
-426.59
-426.356
-426.01
-425.523
-424.872
-424.008
-422.897
-421.487
-419.719
-417.528
-414.843
-411.56
-407.588
-402.82
-397.168
-390.519
-382.797
-373.939
-363.868
-352.615
-340.231
-326.775
-312.415
-297.314
-281.63
-265.556
-249.401
-231.319
-420.791
-420.724
-420.688
-420.671
-420.673
-420.692
-420.727
-420.773
-420.827
-420.888
-420.954
-421.015
-421.06
-421.071
-421.033
-420.93
-420.74
-420.441
-420.012
-419.429
-418.65
-417.643
-416.362
-414.752
-412.741
-410.272
-407.25
-403.611
-399.245
-394.048
-387.94
-380.797
-372.566
-363.192
-352.671
-341.024
-328.291
-314.609
-300.109
-284.968
-269.331
-253.589
-236.046
-414.409
-414.346
-414.319
-414.312
-414.328
-414.362
-414.411
-414.474
-414.548
-414.628
-414.711
-414.791
-414.861
-414.903
-414.902
-414.842
-414.695
-414.452
-414.085
-413.568
-412.871
-411.959
-410.79
-409.316
-407.475
-405.205
-402.428
-399.072
-395.043
-390.245
-384.591
-377.984
-370.373
-361.654
-351.798
-340.843
-328.8
-315.785
-301.917
-287.337
-272.206
-256.865
-240.115
-407.691
-407.626
-407.6
-407.598
-407.62
-407.664
-407.723
-407.8
-407.889
-407.987
-408.091
-408.195
-408.29
-408.364
-408.399
-408.371
-408.265
-408.066
-407.754
-407.303
-406.68
-405.851
-404.782
-403.43
-401.739
-399.656
-397.104
-394.008
-390.291
-385.857
-380.632
-374.511
-367.411
-359.28
-350.085
-339.808
-328.448
-316.096
-302.851
-288.84
-274.21
-259.237
-242.938
-400.572
-400.521
-400.509
-400.525
-400.561
-400.618
-400.695
-400.787
-400.892
-401.008
-401.133
-401.26
-401.377
-401.474
-401.538
-401.554
-401.501
-401.356
-401.091
-400.699
-400.149
-399.405
-398.437
-397.198
-395.634
-393.706
-391.351
-388.494
-385.059
-380.956
-376.105
-370.417
-363.828
-356.252
-347.627
-337.964
-327.257
-315.551
-302.946
-289.52
-275.425
-260.901
-245.139
-393.243
-393.186
-393.182
-393.203
-393.247
-393.314
-393.401
-393.507
-393.627
-393.757
-393.895
-394.043
-394.19
-394.317
-394.413
-394.46
-394.435
-394.328
-394.122
-393.781
-393.286
-392.619
-391.74
-390.611
-389.192
-387.42
-385.236
-382.583
-379.394
-375.587
-371.08
-365.802
-359.66
-352.59
-344.55
-335.489
-325.401
-314.317
-302.317
-289.487
-275.949
-261.944
-246.893
-385.62
-385.575
-385.581
-385.612
-385.668
-385.744
-385.846
-385.966
-386.099
-386.244
-386.4
-386.563
-386.724
-386.876
-387.003
-387.088
-387.109
-387.049
-386.883
-386.604
-386.184
-385.587
-384.788
-383.748
-382.43
-380.8
-378.795
-376.336
-373.374
-369.849
-365.669
-360.753
-355.029
-348.433
-340.892
-332.371
-322.879
-312.407
-301.015
-288.777
-275.778
-262.238
-247.629
-377.822
-377.777
-377.788
-377.827
-377.889
-377.977
-378.088
-378.219
-378.366
-378.527
-378.701
-378.883
-379.066
-379.242
-379.392
-379.506
-379.565
-379.546
-379.428
-379.194
-378.823
-378.296
-377.582
-376.646
-375.441
-373.924
-372.06
-369.798
-367.061
-363.769
-359.861
-355.284
-349.943
-343.778
-336.734
-328.741
-319.803
-309.905
-299.096
-287.44
-274.982
-261.906
-247.486
-369.812
-369.781
-369.804
-369.856
-369.931
-370.031
-370.152
-370.292
-370.451
-370.626
-370.815
-371.012
-371.213
-371.41
-371.587
-371.73
-371.821
-371.843
-371.774
-371.592
-371.282
-370.816
-370.169
-369.31
-368.21
-366.831
-365.11
-362.994
-360.441
-357.394
-353.775
-349.511
-344.524
-338.754
-332.156
-324.658
-316.25
-306.905
-296.662
-285.568
-273.685
-261.175
-247.008
-361.74
-361.701
-361.722
-361.777
-361.852
-361.955
-362.084
-362.235
-362.407
-362.592
-362.791
-363.001
-363.22
-363.438
-363.642
-363.815
-363.94
-363.995
-363.963
-363.826
-363.565
-363.166
-362.597
-361.828
-360.816
-359.533
-357.942
-355.996
-353.635
-350.79
-347.406
-343.422
-338.764
-333.376
-327.191
-320.156
-312.25
-303.443
-293.753
-283.227
-271.94
-260.061
-246.219
-353.478
-353.451
-353.49
-353.554
-353.643
-353.759
-353.898
-354.057
-354.238
-354.441
-354.656
-354.883
-355.117
-355.348
-355.569
-355.77
-355.928
-356.019
-356.031
-355.944
-355.737
-355.387
-354.875
-354.179
-353.264
-352.095
-350.622
-348.812
-346.615
-343.972
-340.829
-337.119
-332.775
-327.727
-321.927
-315.319
-307.875
-299.576
-290.424
-280.441
-269.671
-258.343
-245.011
-345.196
-345.173
-345.212
-345.279
-345.372
-345.494
-345.64
-345.807
-346
-346.205
-346.427
-346.664
-346.914
-347.167
-347.408
-347.63
-347.811
-347.936
-347.986
-347.941
-347.781
-347.493
-347.052
-346.427
-345.594
-344.524
-343.177
-341.505
-339.465
-336.999
-334.055
-330.577
-326.515
-321.804
-316.381
-310.192
-303.187
-295.349
-286.682
-277.22
-266.967
-256.126
-243.285
-336.835
-336.814
-336.861
-336.939
-337.041
-337.172
-337.327
-337.505
-337.705
-337.925
-338.161
-338.412
-338.67
-338.936
-339.2
-339.447
-339.659
-339.817
-339.901
-339.894
-339.783
-339.546
-339.157
-338.599
-337.846
-336.861
-335.608
-334.064
-332.172
-329.884
-327.162
-323.929
-320.125
-315.699
-310.603
-304.783
-298.201
-290.837
-282.65
-273.691
-263.949
-253.616
-241.187
-328.485
-328.468
-328.513
-328.592
-328.698
-328.834
-328.995
-329.176
-329.382
-329.609
-329.851
-330.108
-330.383
-330.66
-330.937
-331.201
-331.436
-331.62
-331.741
-331.779
-331.71
-331.525
-331.202
-330.709
-330.03
-329.144
-328.006
-326.569
-324.812
-322.683
-320.125
-317.093
-313.543
-309.415
-304.643
-299.186
-292.992
-286.046
-278.31
-269.824
-260.577
-250.722
-238.022
-320.109
-320.092
-320.144
-320.232
-320.342
-320.482
-320.648
-320.841
-321.055
-321.288
-321.542
-321.813
-322.096
-322.39
-322.682
-322.965
-323.222
-323.437
-323.591
-323.664
-323.637
-323.493
-323.217
-322.791
-322.186
-321.365
-320.311
-319
-317.378
-315.394
-313.019
-310.201
-306.879
-303.006
-298.524
-293.402
-287.58
-281.032
-273.746
-265.738
-257.029
-247.825
-236.683
-311.711
-311.716
-311.777
-311.871
-311.993
-312.144
-312.32
-312.52
-312.74
-312.982
-313.242
-313.52
-313.817
-314.118
-314.422
-314.722
-315.001
-315.242
-315.422
-315.529
-315.544
-315.45
-315.225
-314.851
-314.313
-313.587
-312.63
-311.406
-309.894
-308.055
-305.849
-303.217
-300.108
-296.482
-292.285
-287.475
-282.001
-275.839
-268.962
-261.376
-253.133
-244.421
-233.4
-303.419
-303.423
-303.486
-303.582
-303.708
-303.861
-304.041
-304.245
-304.471
-304.718
-304.987
-305.276
-305.576
-305.888
-306.209
-306.524
-306.82
-307.082
-307.294
-307.432
-307.478
-307.426
-307.259
-306.948
-306.47
-305.8
-304.926
-303.817
-302.427
-300.718
-298.651
-296.186
-293.283
-289.892
-285.952
-281.431
-276.283
-270.476
-263.985
-256.791
-248.91
-240.479
-231.401
-295.174
-295.179
-295.245
-295.346
-295.474
-295.632
-295.814
-296.023
-296.252
-296.507
-296.784
-297.075
-297.382
-297.704
-298.035
-298.361
-298.676
-298.96
-299.195
-299.366
-299.453
-299.437
-299.306
-299.044
-298.63
-298.045
-297.25
-296.221
-294.931
-293.348
-291.434
-289.141
-286.424
-283.242
-279.551
-275.304
-270.452
-264.974
-258.845
-252.038
-244.553
-236.473
-228.062
-287.001
-287.01
-287.079
-287.183
-287.315
-287.474
-287.662
-287.873
-288.109
-288.369
-288.647
-288.949
-289.266
-289.595
-289.931
-290.268
-290.597
-290.902
-291.163
-291.362
-291.479
-291.507
-291.426
-291.213
-290.849
-290.315
-289.596
-288.666
-287.482
-286.012
-284.225
-282.085
-279.546
-276.57
-273.108
-269.119
-264.562
-259.401
-253.6
-247.153
-240.036
-232.2
-224.285
-278.916
-278.923
-278.997
-279.105
-279.241
-279.404
-279.593
-279.809
-280.05
-280.312
-280.597
-280.899
-281.218
-281.553
-281.901
-282.256
-282.601
-282.922
-283.199
-283.421
-283.572
-283.631
-283.588
-283.424
-283.118
-282.657
-282.009
-281.149
-280.056
-278.698
-277.04
-275.05
-272.68
-269.888
-266.64
-262.892
-258.598
-253.737
-248.274
-242.19
-235.458
-228.038
-221.292
-270.931
-270.943
-271.017
-271.13
-271.271
-271.436
-271.628
-271.846
-272.093
-272.362
-272.65
-272.959
-273.284
-273.626
-273.977
-274.332
-274.685
-275.022
-275.326
-275.574
-275.75
-275.846
-275.843
-275.721
-275.466
-275.055
-274.474
-273.702
-272.702
-271.449
-269.907
-268.044
-265.829
-263.222
-260.172
-256.646
-252.611
-248.036
-242.875
-237.12
-230.771
-223.776
-216.47
-263.058
-263.069
-263.148
-263.265
-263.405
-263.573
-263.766
-263.988
-264.236
-264.504
-264.796
-265.107
-265.437
-265.784
-266.146
-266.514
-266.879
-267.225
-267.543
-267.816
-268.024
-268.15
-268.178
-268.094
-267.888
-267.543
-267.025
-266.316
-265.398
-264.241
-262.817
-261.089
-259.018
-256.577
-253.724
-250.424
-246.625
-242.304
-237.438
-232.013
-226.014
-219.452
-213.954
-255.313
-255.327
-255.411
-255.527
-255.669
-255.839
-256.036
-256.261
-256.511
-256.781
-257.077
-257.392
-257.725
-258.073
-258.436
-258.811
-259.186
-259.548
-259.883
-260.174
-260.401
-260.554
-260.622
-260.583
-260.42
-260.116
-259.659
-259.028
-258.191
-257.123
-255.794
-254.182
-252.253
-249.966
-247.283
-244.174
-240.606
-236.544
-231.948
-226.802
-221.087
-214.748
-208.525
-247.694
-247.71
-247.795
-247.911
-248.056
-248.227
-248.424
-248.652
-248.903
-249.177
-249.473
-249.792
-250.128
-250.48
-250.847
-251.224
-251.604
-251.979
-252.329
-252.639
-252.894
-253.078
-253.175
-253.169
-253.047
-252.797
-252.394
-251.82
-251.058
-250.084
-248.862
-247.365
-245.564
-243.422
-240.91
-237.997
-234.631
-230.794
-226.456
-221.586
-216.163
-210.131
-204.304
-240.197
-240.222
-240.313
-240.434
-240.58
-240.752
-240.953
-241.181
-241.433
-241.709
-242.007
-242.328
-242.666
-243.023
-243.395
-243.778
-244.166
-244.546
-244.908
-245.232
-245.506
-245.712
-245.839
-245.873
-245.797
-245.593
-245.244
-244.734
-244.041
-243.138
-242.003
-240.613
-238.936
-236.938
-234.58
-231.838
-228.674
-225.056
-220.956
-216.346
-211.209
-205.491
-199.817
-232.886
-232.91
-232.995
-233.113
-233.258
-233.432
-233.634
-233.861
-234.114
-234.39
-234.69
-235.01
-235.348
-235.706
-236.08
-236.465
-236.858
-237.246
-237.617
-237.961
-238.256
-238.485
-238.64
-238.7
-238.654
-238.492
-238.194
-237.742
-237.114
-236.291
-235.247
-233.961
-232.398
-230.528
-228.319
-225.743
-222.766
-219.36
-215.495
-211.146
-206.279
-200.834
-195.689
-225.68