/*--------------------------------*- C++ -*----------------------------------*\
| =========                 |                                                 |
| \\      /  F ield         | OpenFOAM: The Open Source CFD Toolbox           |
|  \\    /   O peration     | Version:  2.3.0                                 |
|   \\  /    A nd           | Web:      www.OpenFOAM.org                      |
|    \\/     M anipulation  |                                                 |
\*---------------------------------------------------------------------------*/
FoamFile
{
    version     2.0;
    format      ascii;
    class       volVectorField;
    location    "10000";
    object      U;
}
// * * * * * * * * * * * * * * * * * * * * * * * * * * * * * * * * * * * * * //

dimensions      [0 1 -1 0 0 0 0];

internalField   nonuniform List<vector> 
123311
(
(24.1373 22.2643 -6.07651e-21)
(23.9355 22.6849 -2.17633e-21)
(23.7231 23.1008 -7.75675e-21)
(23.498 23.5195 1.421e-20)
(23.2597 23.9408 -3.0347e-21)
(23.0071 24.3646 -4.35511e-21)
(22.7401 24.7911 -5.67451e-21)
(22.4584 25.2201 0)
(22.1613 25.6513 1.60351e-20)
(21.8481 26.0843 0)
(21.5177 26.519 -8.87214e-21)
(21.1695 26.9548 2.18654e-20)
(20.8021 27.3914 4.0788e-20)
(20.4149 27.8288 2.96812e-20)
(20.007 28.2662 2.61621e-20)
(19.5768 28.703 3.63614e-21)
(19.1241 29.1388 -4.38542e-20)
(18.6474 29.5723 0)
(18.1456 30.0014 0)
(17.617 30.4235 -5.12706e-20)
(17.0604 30.8362 -2.73999e-20)
(16.4749 31.2353 1.50526e-19)
(15.8572 31.6156 -8.69882e-20)
(15.2058 31.9706 9.83974e-20)
(14.517 32.2933 -1.01714e-19)
(13.787 32.5751 1.14495e-19)
(13.0118 32.8055 -1.18893e-19)
(12.1847 32.975 0)
(11.2975 33.0731 0)
(10.34 33.0891 7.7544e-20)
(9.30078 33.0125 -1.77754e-19)
(8.16226 32.8402 -1.53073e-20)
(6.907 32.5584 4.66106e-20)
(5.51132 32.1659 5.11563e-20)
(3.95022 31.6595 8.6309e-22)
(2.19389 31.0409 -3.01967e-20)
(0.217279 30.3046 -5.39598e-21)
(-2.00221 29.4579 3.87607e-20)
(-4.47485 28.462 3.83386e-21)
(-7.18472 27.2879 0)
(-10.1248 26.1275 0)
(-13.2915 25.3224 3.01561e-19)
(-16.3427 24.255 -2.85122e-19)
(23.6882 22.1223 1.15724e-20)
(23.4886 22.4939 -7.6219e-21)
(23.2788 22.861 -1.91781e-21)
(23.0577 23.2297 1.80242e-21)
(22.8248 23.5993 3.04253e-21)
(22.5795 23.9703 4.37293e-21)
(22.3216 24.3427 5.67635e-21)
(22.0507 24.7165 -4.05523e-21)
(21.7663 25.0915 4.05116e-21)
(21.4682 25.4678 -6.04605e-21)
(21.1555 25.8446 -1.88751e-20)
(20.8272 26.2217 1.40711e-20)
(20.4824 26.5985 4.81067e-21)
(20.12 26.9752 0)
(19.7387 27.3507 -8.19921e-21)
(19.3372 27.7247 0)
(18.9144 28.0975 -3.5233e-20)
(18.4687 28.4683 2.5905e-20)
(17.9984 28.8369 2.94884e-20)
(17.5013 29.2019 -3.00851e-20)
(16.9753 29.5634 5.41864e-21)
(16.4184 29.9212 -2.1413e-20)
(15.8278 30.2735 7.41054e-20)
(15.2005 30.619 -3.86601e-20)
(14.5339 30.9559 4.11296e-20)
(13.8249 31.282 -4.92635e-20)
(13.0706 31.5941 -4.34462e-20)
(12.2682 31.8879 4.50439e-20)
(11.415 32.1586 -2.15669e-20)
(10.5091 32.3992 2.54634e-20)
(9.54911 32.602 1.46644e-20)
(8.53447 32.7561 1.44343e-20)
(7.46574 32.8499 6.06151e-21)
(6.34602 32.8669 -6.33648e-21)
(5.17997 32.791 -1.20685e-23)
(3.97534 32.5993 6.08661e-22)
(2.74359 32.2696 -9.67256e-21)
(1.49918 31.7745 2.28246e-20)
(0.263934 31.0825 1.06037e-20)
(-0.926424 30.1613 1.09281e-19)
(-2.0287 28.9977 -6.8671e-20)
(-3.02575 27.5778 0)
(-3.94873 25.8704 0)
(23.3057 21.9774 -4.60435e-21)
(23.1058 22.3012 -5.83576e-21)
(22.8987 22.6243 0)
(22.6818 22.9479 -4.2877e-21)
(22.4542 23.2719 1.19059e-21)
(22.2154 23.5961 0)
(21.9646 23.9206 0)
(21.7015 24.2452 0)
(21.4256 24.5701 8.53597e-22)
(21.137 24.8955 -8.52813e-22)
(20.835 25.2207 -2.7487e-21)
(20.519 25.5454 0)
(20.1879 25.8691 -1.1228e-21)
(19.8408 26.1918 -3.6553e-21)
(19.4766 26.5123 5.98388e-21)
(19.094 26.8303 -5.76654e-21)
(18.6921 27.1454 0)
(18.2695 27.4569 4.6738e-24)
(17.825 27.7644 0)
(17.3566 28.0661 1.65716e-22)
(16.8628 28.3613 -5.12489e-21)
(16.3418 28.6488 0)
(15.7912 28.9267 -7.8097e-23)
(15.2089 29.1933 0)
(14.5923 29.4456 0)
(13.9392 29.681 6.595e-21)
(13.2466 29.8957 -1.17331e-21)
(12.512 30.085 0)
(11.7329 30.2447 0)
(10.9068 30.3691 -1.02742e-21)
(10.0318 30.4504 -2.53742e-21)
(9.10699 30.4802 -5.44834e-21)
(8.13248 30.4509 0)
(7.10923 30.3523 2.8075e-21)
(6.04193 30.1742 -2.96254e-21)
(4.93698 29.9041 -3.33892e-21)
(3.80679 29.5315 -4.9305e-21)
(2.66641 29.0449 -1.39536e-20)
(1.54003 28.4363 -2.9673e-20)
(0.457309 27.7006 6.39007e-20)
(-0.542551 26.8395 6.80182e-20)
(-1.41234 25.8593 -9.14782e-20)
(-2.10475 24.7713 0)
(22.9713 21.8274 -1.03517e-20)
(22.7769 22.1122 -2.64884e-21)
(22.5757 22.3979 5.2865e-21)
(22.3664 22.684 4.67936e-21)
(22.1481 22.9704 -3.18773e-23)
(21.9199 23.2565 3.17919e-23)
(21.681 23.5423 3.51151e-21)
(21.4305 23.8275 -1.23599e-20)
(21.1681 24.1124 0)
(20.8941 24.3977 -8.04272e-21)
(20.6081 24.683 2.7322e-21)
(20.3097 24.9678 -3.70619e-21)
(19.9979 25.2513 0)
(19.6719 25.5335 0)
(19.3305 25.8136 0)
(18.9727 26.091 -2.72947e-22)
(18.5973 26.3653 7.73223e-21)
(18.2032 26.6355 -4.36238e-21)
(17.7895 26.9015 0)
(17.3546 27.1619 -3.88948e-21)
(16.8972 27.4156 -1.88404e-22)
(16.4157 27.6616 0)
(15.9085 27.8981 6.65356e-21)
(15.3739 28.1232 -1.78497e-20)
(14.8105 28.3351 -8.84699e-22)
(14.2168 28.5315 1.40079e-20)
(13.5913 28.7085 1.15394e-21)
(12.9326 28.8622 0)
(12.2399 28.9896 0)
(11.5121 29.0853 -1.85655e-21)
(10.7495 29.1426 1.12586e-20)
(9.95257 29.1543 -8.27534e-21)
(9.1233 29.1135 -8.25341e-21)
(8.26431 29.0121 8.55728e-21)
(7.38082 28.8408 1.23954e-20)
(6.47985 28.5904 0)
(5.57162 28.2515 -2.85698e-20)
(4.66905 27.8163 4.00155e-20)
(3.78917 27.2789 -5.84462e-20)
(2.95106 26.6389 -1.54687e-19)
(2.17784 25.8985 1.09828e-19)
(1.49191 25.0695 3.31132e-20)
(0.915141 24.1716 1.52769e-19)
(22.6762 21.6725 -9.82564e-22)
(22.491 21.9275 2.66267e-20)
(22.2985 22.1825 1.43476e-20)
(22.0986 22.437 1.39555e-20)
(21.8902 22.6915 0)
(21.6734 22.9457 -1.03564e-20)
(21.447 23.1994 4.54833e-21)
(21.2096 23.4516 1.4267e-20)
(20.9605 23.7029 6.09546e-21)
(20.7 23.9544 1.39911e-20)
(20.4282 24.2059 3.78457e-21)
(20.1451 24.4574 -5.97906e-21)
(19.8502 24.7075 0)
(19.5419 24.9564 -3.52177e-21)
(19.2201 25.2034 9.35129e-21)
(18.8831 25.4477 0)
(18.5296 25.6884 0)
(18.1586 25.925 -3.4676e-21)
(17.7697 26.1573 1.65264e-20)
(17.3614 26.384 -6.63636e-21)
(16.9326 26.6038 0)
(16.4818 26.8155 0)
(16.0075 27.0174 -8.4409e-21)
(15.5078 27.2072 1.33363e-20)
(14.9818 27.3832 0)
(14.4281 27.5436 -6.27364e-21)
(13.8455 27.6847 -1.93203e-20)
(13.2333 27.8032 4.1713e-20)
(12.5905 27.896 -2.24899e-20)
(11.9171 27.9582 1.57165e-20)
(11.2133 27.9847 1.77404e-20)
(10.4804 27.9697 -3.86292e-20)
(9.72045 27.9074 1.91827e-20)
(8.9368 27.7911 0)
(8.13496 27.6139 -4.18938e-20)
(7.32187 27.3693 -4.19977e-20)
(6.50689 27.0501 4.43645e-20)
(5.70193 26.6522 2.12446e-20)
(4.92072 26.1729 -1.96062e-20)
(4.18047 25.6117 5.3342e-20)
(3.4987 24.9735 -1.79937e-19)
(2.89113 24.2678 1.26678e-19)
(2.37324 23.5094 0)
(22.4111 21.5363 3.20896e-20)
(22.2417 21.7589 -1.47243e-20)
(22.0605 21.9836 -1.43229e-20)
(21.8708 22.2094 2.7189e-21)
(21.6728 22.436 0)
(21.4674 22.6639 2.11902e-20)
(21.2542 22.8915 -1.27849e-20)
(21.0307 23.1172 0)
(20.7961 23.3414 -6.07635e-21)
(20.5497 23.5647 8.20834e-22)
(20.2917 23.7882 -8.49304e-21)
(20.0227 24.0125 5.84939e-21)
(19.7442 24.2359 -2.10197e-20)
(19.4525 24.4579 -5.7505e-21)
(19.1486 24.6792 1.36763e-20)
(18.8321 24.8976 -1.38018e-20)
(18.4993 25.1121 0)
(18.1499 25.3233 -2.3089e-20)
(17.7841 25.5308 1.72838e-20)
(17.4003 25.7323 1.60865e-20)
(16.9974 25.9274 -1.64021e-20)
(16.575 26.1153 0)
(16.1314 26.2937 -1.06759e-20)
(15.6648 26.4603 0)
(15.1739 26.6137 -1.02336e-20)
(14.6577 26.7517 -1.41206e-21)
(14.116 26.8718 2.5371e-20)
(13.548 26.9706 0)
(12.9532 27.0443 0)
(12.3308 27.0893 2.88101e-21)
(11.683 27.1014 -5.74835e-20)
(11.0101 27.0751 2.97613e-20)
(10.3146 27.0056 1.20464e-20)
(9.5994 26.887 0)
(8.87001 26.714 2.93296e-20)
(8.13305 26.4819 6.17069e-20)
(7.39666 26.1839 -5.15356e-20)
(6.67006 25.8175 2.14889e-20)
(5.96547 25.382 2.88637e-20)
(5.29661 24.8777 -2.71468e-20)
(4.67703 24.3088 -6.4815e-20)
(4.11971 23.6819 1.73935e-19)
(3.63388 23.0078 -2.17774e-19)
(22.2026 21.3995 -2.63739e-20)
(22.031 21.5986 1.88325e-20)
(21.8579 21.7988 0)
(21.6777 21.9999 -1.66137e-20)
(21.4887 22.2022 9.36581e-21)
(21.2932 22.4073 -8.01652e-21)
(21.0921 22.6139 0)
(20.8823 22.819 0)
(20.6624 23.0225 7.30652e-22)
(20.4305 23.2221 1.66564e-20)
(20.1862 23.4206 7.52453e-21)
(19.9279 23.6224 -9.07885e-21)
(19.6655 23.825 1.59121e-20)
(19.3876 24.0235 0)
(19.0974 24.2235 0)
(18.7987 24.4223 2.72156e-20)
(18.4851 24.6159 -1.78756e-20)
(18.1539 24.8061 -1.79521e-21)
(17.8073 24.9935 -8.63714e-21)
(17.4441 25.1752 0)
(17.0621 25.3501 1.14884e-20)
(16.6615 25.5188 0)
(16.2429 25.6794 2.19248e-20)
(15.803 25.8284 -1.10288e-20)
(15.3405 25.9649 -1.22848e-20)
(14.8528 26.086 0)
(14.3416 26.1905 -1.62876e-20)
(13.8068 26.2751 3.4594e-20)
(13.2491 26.3359 -1.83545e-20)
(12.6643 26.3688 2.20914e-20)
(12.0565 26.3716 2.42742e-20)
(11.4265 26.3379 0)
(10.7772 26.264 -3.68876e-20)
(10.1102 26.1444 1.16262e-20)
(9.42923 25.9762 -4.20032e-21)
(8.74378 25.7556 -7.73975e-20)
(8.06035 25.4746 4.15936e-20)
(7.38543 25.132 0)
(6.7305 24.7289 0)
(6.10682 24.2668 5.92423e-20)
(5.52843 23.7503 -1.30065e-21)
(5.00873 23.181 6.66907e-20)
(4.54715 22.5661 7.34254e-20)
(22.0002 21.2628 9.91425e-21)
(21.8451 21.4472 -2.99172e-20)
(21.6835 21.628 5.08676e-21)
(21.5139 21.8088 5.01007e-21)
(21.3338 21.9892 1.01447e-21)
(21.1461 22.1729 1.27764e-20)
(20.9549 22.3619 -2.43667e-21)
(20.7557 22.5506 0)
(20.5494 22.7412 -8.49799e-21)
(20.3308 22.9247 9.68382e-21)
(20.1052 23.0975 -1.03652e-20)
(19.851 23.279 0)
(19.6071 23.4685 2.01557e-20)
(19.346 23.6457 -1.97061e-20)
(19.0633 23.8257 2.04337e-20)
(18.7787 24.0106 -2.02734e-20)
(18.4841 24.1893 0)
(18.1678 24.3611 -1.3695e-21)
(17.8371 24.5328 0)
(17.4926 24.6991 -1.23464e-20)
(17.1297 24.8574 1.4357e-21)
(16.7454 25.01 0)
(16.3466 25.1569 1.27909e-20)
(15.9283 25.2929 1.64806e-20)
(15.4916 25.4168 -3.15409e-20)
(15.0287 25.5251 -1.73912e-20)
(14.5433 25.619 2.00274e-22)
(14.0319 25.6937 -1.0549e-21)
(13.508 25.7488 -2.21112e-20)
(12.954 25.7722 -2.18523e-20)
(12.3804 25.7702 -3.69956e-20)
(11.7844 25.733 1.34227e-20)
(11.1719 25.6589 2.91599e-20)
(10.5454 25.5394 0)
(9.90016 25.3739 0)
(9.25385 25.1648 4.46689e-20)
(8.61329 24.8991 -5.41485e-21)
(7.97661 24.5744 0)
(7.35678 24.1948 5.43173e-20)
(6.7624 23.7617 -5.77892e-20)
(6.20646 23.2859 6.27576e-22)
(5.72223 22.7651 6.87079e-20)
(5.27934 22.192 7.36296e-20)
(21.8245 21.1394 0)
(21.6799 21.3061 5.92821e-21)
(21.5282 21.4668 1.11258e-20)
(21.3715 21.6343 -2.8554e-21)
(21.2042 21.7988 -1.3558e-20)
(21.0228 21.9585 -8.98977e-21)
(20.8396 22.1312 -1.31854e-21)
(20.6452 22.3001 0)
(20.4524 22.485 -1.05996e-20)
(20.2431 22.6791 0)
(20.0539 22.8198 9.38387e-21)
(19.7873 22.976 1.07028e-20)
(19.5576 23.1628 -9.86052e-21)
(19.322 23.3234 1.19264e-21)
(19.049 23.4803 5.46801e-22)
(18.7754 23.6537 -3.91496e-22)
(18.5018 23.8256 0)
(18.1992 23.98 -6.1742e-22)
(17.8808 24.1404 -2.24407e-22)
(17.5528 24.2961 2.4935e-20)
(17.2153 24.4442 -1.28548e-20)
(16.8473 24.5814 0)
(16.4674 24.7178 0)
(16.0601 24.8412 1.35739e-21)
(15.6481 24.9597 -9.29375e-22)
(15.2021 25.0546 3.47253e-20)
(14.7516 25.1466 -3.83272e-20)
(14.2524 25.2067 6.05094e-20)
(13.7482 25.2642 3.3714e-23)
(13.2094 25.275 0)
(12.6698 25.2716 0)
(12.1066 25.232 0)
(11.5153 25.1593 0)
(10.9234 25.0431 0)
(10.3011 24.8742 0)
(9.68608 24.6772 5.32577e-21)
(9.09876 24.4308 -5.46512e-21)
(8.50019 24.1225 -2.55779e-20)
(7.91615 23.762 3.88891e-22)
(7.35624 23.346 -2.90088e-20)
(6.81093 22.9056 -6.2605e-20)
(6.37098 22.4335 2.08672e-21)
(5.91912 21.8831 -1.43049e-19)
(-17.9384 21.0763 -1.20307e-19)
(-15.8638 19.1909 1.32651e-19)
(-13.9249 17.5851 -8.12535e-19)
(-12.2321 16.3846 -1.81817e-19)
(-10.7269 15.4469 8.62424e-19)
(-9.37785 14.6854 4.05451e-20)
(-8.16057 14.0595 -3.41714e-20)
(-7.05894 13.5433 3.83166e-20)
(-6.059 13.1079 -3.69017e-20)
(-5.15094 12.7392 9.38987e-19)
(-4.32397 12.4217 -9.57305e-19)
(-3.56848 12.1439 0)
(-2.87466 11.901 -9.24679e-19)
(-2.2356 11.6848 1.78024e-18)
(-1.6438 11.4921 -1.78079e-18)
(-1.09289 11.3194 -9.19183e-21)
(-0.57869 11.1635 8.10076e-19)
(-0.0970266 11.0195 -7.92286e-19)
(0.356257 10.8863 8.17839e-19)
(0.784092 10.7622 0)
(1.18883 10.6448 0)
(1.57318 10.5338 0)
(1.93875 10.4272 -9.05106e-20)
(2.28763 10.3244 8.6761e-19)
(2.62177 10.2251 -6.81525e-19)
(2.94225 10.1283 -5.89088e-19)
(3.2501 10.034 7.48738e-19)
(3.54644 9.94131 8.2345e-20)
(3.83252 9.85026 -8.17388e-20)
(4.10912 9.76059 -6.51358e-19)
(4.37676 9.67181 1.29759e-18)
(4.63637 9.5841 -4.83389e-19)
(4.88829 9.49701 1.63212e-19)
(5.13314 9.41056 -4.81447e-19)
(5.37131 9.32445 1.12452e-18)
(5.6032 9.23879 -4.82315e-19)
(5.82908 9.15326 -7.98985e-19)
(6.04933 9.06768 9.5738e-19)
(6.26415 8.98198 -6.31134e-19)
(6.47372 8.89618 1.249e-18)
(6.67813 8.81009 -1.22943e-18)
(6.87783 8.72349 6.02479e-19)
(7.07707 8.62912 2.89394e-19)
(-4.72202 23.9357 0)
(-5.02239 22.1194 0)
(-4.99982 20.5821 4.97904e-19)
(-4.7794 19.2754 -9.26596e-19)
(-4.43647 18.1613 5.68044e-19)
(-4.02151 17.2076 0)
(-3.56572 16.3901 9.13941e-20)
(-3.09187 15.687 0)
(-2.61422 15.0808 -5.97707e-20)
(-2.13989 14.555 9.51667e-22)
(-1.67482 14.0953 0)
(-1.22283 13.6912 8.77365e-19)
(-0.78539 13.3336 -8.96691e-19)
(-0.36361 13.0148 0)
(0.0423724 12.728 9.48334e-22)
(0.432232 12.4676 -5.04432e-20)
(0.806717 12.2299 4.81645e-20)
(1.16666 12.0114 -7.68677e-19)
(1.51221 11.809 -8.7121e-22)
(1.84413 11.6205 -8.98538e-20)
(2.16361 11.4444 7.10718e-19)
(2.47133 11.2784 0)
(2.76782 11.1213 7.66315e-19)
(3.05387 10.9721 -8.37209e-19)
(3.32982 10.8296 0)
(3.59666 10.6933 5.70518e-19)
(3.85509 10.5624 -8.05975e-19)
(4.10545 10.4365 -7.98484e-19)
(4.34834 10.3149 7.15108e-19)
(4.58417 10.1971 0)
(4.81353 10.0828 0)
(5.03662 9.97156 1.56119e-19)
(5.25403 9.86327 0)
(5.46596 9.75732 0)
(5.67278 9.65367 1.56184e-19)
(5.87472 9.55194 -1.57461e-19)
(6.07206 9.452 -4.69728e-19)
(6.26497 9.35353 1.0959e-18)
(6.45367 9.25623 -8.36146e-22)
(6.6383 9.16009 -1.23547e-18)
(6.81896 9.06497 1.06784e-18)
(6.99561 8.97058 -5.9928e-19)
(7.16863 8.87363 -5.76741e-19)
(-2.57419 23.6105 -2.9639e-19)
(-2.80787 22.4395 2.97823e-19)
(-2.85768 21.3078 -3.63905e-19)
(-2.76834 20.2466 3.08903e-19)
(-2.5761 19.2708 -4.61624e-19)
(-2.311 18.3842 3.46933e-19)
(-1.99615 17.5842 3.70423e-19)
(-1.64788 16.8669 -4.1458e-19)
(-1.28007 16.225 5.60086e-20)
(-0.902814 15.65 9.03578e-19)
(-0.52313 15.1341 -8.19772e-19)
(-0.146635 14.6705 8.74576e-19)
(0.223278 14.2526 -7.92868e-19)
(0.58442 13.8751 -4.88268e-20)
(0.934983 13.5317 4.9251e-20)
(1.27405 13.218 -7.49761e-19)
(1.60178 12.9305 6.80117e-19)
(1.91738 12.6651 8.88599e-20)
(2.22201 12.4196 0)
(2.51545 12.1913 -5.97544e-19)
(2.79821 11.9785 5.8502e-19)
(3.07064 11.7788 0)
(3.33339 11.5908 -1.50941e-21)
(3.58692 11.4131 1.39886e-21)
(3.8321 11.245 0)
(4.06924 11.0855 6.23265e-19)
(4.2988 10.9333 -5.38989e-19)
(4.52143 10.7881 7.72606e-20)
(4.73776 10.6491 -6.09426e-19)
(4.94795 10.5155 1.21446e-18)
(5.15246 10.3867 -6.05754e-19)
(5.35175 10.2627 -1.52289e-19)
(5.54605 10.1425 7.56009e-19)
(5.73567 10.0261 -6.06042e-19)
(5.9209 9.91279 4.54226e-19)
(6.10194 9.80243 -7.58999e-19)
(6.27894 9.69476 0)
(6.4521 9.58948 7.59751e-19)
(6.6216 9.48626 -1.05965e-18)
(6.78762 9.38499 1.5031e-19)
(6.95038 9.2856 -6.79112e-22)
(7.1102 9.1877 5.89168e-19)
(7.26891 9.08732 2.89768e-19)
(0.464559 23.2307 -1.53759e-19)
(0.144942 22.2745 0)
(-0.0518304 21.3307 3.81309e-19)
(-0.140366 20.4223 -8.25109e-19)
(-0.137951 19.5636 3.93468e-19)
(-0.0624966 18.7622 5.05434e-20)
(0.0713219 18.0216 -4.74985e-19)
(0.249313 17.3416 4.03153e-20)
(0.459884 16.7198 4.12146e-19)
(0.693715 16.1527 -4.17028e-19)
(0.942357 15.6355 7.64425e-19)
(1.20089 15.1643 5.57199e-21)
(1.46444 14.7345 -4.86564e-19)
(1.72932 14.3414 -7.22806e-19)
(1.99326 13.9811 1.59141e-18)
(2.25424 13.6498 -6.38873e-19)
(2.51062 13.3437 0)
(2.76233 13.0607 -8.76203e-20)
(3.00796 12.7976 0)
(3.24731 12.5523 8.295e-20)
(3.48043 12.3229 6.57521e-19)
(3.707 12.1077 -6.42658e-19)
(3.92714 11.9052 -7.94434e-20)
(4.14121 11.7143 7.82368e-20)
(4.34943 11.5337 0)
(4.55214 11.3626 -6.08063e-19)
(4.74946 11.1998 -6.8476e-22)
(4.94176 11.0449 1.11994e-18)
(5.12929 10.8969 4.26516e-22)
(5.31237 10.7552 -5.9086e-19)
(5.4912 10.6191 -7.33561e-20)
(5.66585 10.4882 0)
(5.83661 10.3619 -7.36893e-19)
(6.00366 10.24 7.37484e-19)
(6.16727 10.1219 -2.95311e-19)
(6.32746 10.007 -1.47327e-19)
(6.48441 9.89553 2.9605e-19)
(6.6381 9.78689 -2.96057e-19)
(6.78865 9.6809 2.96644e-19)
(6.93616 9.57755 -5.88849e-19)
(7.0807 9.47685 1.45836e-19)
(7.22212 9.37914 -2.88998e-19)
(7.36195 9.27892 2.82965e-19)
(1.9535 22.7169 3.96593e-20)
(1.63301 21.9061 -1.72605e-19)
(1.40977 21.0949 5.36676e-19)
(1.27615 20.3015 -7.41377e-19)
(1.22018 19.5382 3.27258e-19)
(1.23132 18.8138 -3.99733e-19)
(1.29761 18.1337 4.41631e-19)
(1.40745 17.4996 3.54526e-19)
(1.55173 16.9117 -3.9448e-19)
(1.7213 16.3686 0)
(1.90951 15.8682 -3.4551e-19)
(2.11122 15.4077 3.82898e-19)
(2.32149 14.9836 -3.79977e-19)
(2.53673 14.5928 2.7694e-19)
(2.75491 14.2321 -1.32753e-21)
(2.97298 13.8982 1.79084e-19)
(3.18978 13.5884 -2.60447e-19)
(3.40377 13.3001 0)
(3.61439 13.0314 8.30224e-20)
(3.82084 12.7803 -8.23373e-20)
(4.02243 12.5447 1.60566e-19)
(4.21918 12.3233 -3.15518e-19)
(4.41103 12.115 3.09243e-19)
(4.5983 11.9186 7.59254e-20)
(4.7809 11.733 0)
(4.95914 11.557 -7.40624e-20)
(5.13304 11.39 0)
(5.30302 11.2309 3.65801e-19)
(5.46915 11.0793 -5.80672e-19)
(5.6316 10.9342 7.16967e-20)
(5.79039 10.7951 2.88658e-19)
(5.9456 10.6615 0)
(6.09752 10.5329 7.16708e-20)
(6.24636 10.4091 2.16243e-19)
(6.39232 10.2893 0)
(6.53529 10.1732 0)
(6.67533 10.0604 0)
(6.81238 9.9508 0)
(6.9466 9.84412 4.34674e-19)
(7.07815 9.74019 -1.43958e-19)
(7.20722 9.63896 0)
(7.33402 9.54035 1.42111e-19)
(7.46283 9.43507 -1.34545e-19)
(3.22646 22.3028 4.08882e-20)
(2.89921 21.5802 8.84298e-20)
(2.6532 20.853 -1.72689e-19)
(2.48403 20.1354 -1.42271e-19)
(2.38429 19.4389 4.26013e-19)
(2.3462 18.7716 -1.89765e-19)
(2.36005 18.1383 0)
(2.4161 17.5418 -2.99465e-19)
(2.50604 16.9833 3.87085e-19)
(2.62306 16.4633 -9.6839e-20)
(2.76072 15.9805 9.5713e-20)
(2.91416 15.5331 9.43393e-20)
(3.07911 15.1186 -2.81286e-19)
(3.25197 14.7346 8.77452e-20)
(3.43059 14.3783 2.66352e-19)
(3.61172 14.0471 8.80748e-20)
(3.79362 13.7382 -1.71671e-19)
(3.97496 13.4499 0)
(4.15458 13.1804 -8.2602e-20)
(4.3316 12.9278 0)
(4.50539 12.6908 -6.6697e-22)
(4.67568 12.4678 -3.88397e-19)
(4.84253 12.258 6.86651e-19)
(5.00603 12.06 -3.75776e-19)
(5.16639 11.8729 0)
(5.32355 11.6956 7.35145e-20)
(5.47726 11.5275 0)
(5.62792 11.3676 0)
(5.77557 11.2151 0)
(5.92018 11.0693 -7.12363e-20)
(6.06161 10.9297 1.41456e-19)
(6.19998 10.7959 2.8245e-19)
(6.33562 10.6673 -2.8252e-19)
(6.46871 10.5437 -7.07907e-20)
(6.5995 10.4244 2.12234e-19)
(6.72763 10.3087 -3.5367e-19)
(6.85295 10.1963 0)
(6.97537 10.0872 0)
(7.09538 9.98141 0)
(7.21307 9.87865 0)
(7.32875 9.77886 -1.41036e-19)
(7.44259 9.68206 2.79334e-19)
(7.55686 9.58394 0)
(4.14971 21.9229 -7.84968e-20)
(3.82308 21.2632 -8.78899e-20)
(3.56799 20.5973 3.48544e-19)
(3.38121 19.9366 -8.63715e-20)
(3.2578 19.2914 1.887e-19)
(3.19058 18.669 6.06242e-21)
(3.17366 18.0744 -1.88026e-19)
(3.19705 17.5096 -1.91709e-19)
(3.25192 16.9772 0)
(3.33344 16.4791 9.5409e-20)
(3.43706 16.014 -4.73454e-19)
(3.55716 15.5811 2.75049e-19)
(3.69085 15.1784 0)
(3.83395 14.8037 -3.60365e-19)
(3.98442 14.4546 6.15532e-19)
(4.13898 14.1288 -3.43154e-19)
(4.29575 13.8241 8.4788e-20)
(4.45247 13.5387 -4.14257e-19)
(4.60849 13.2712 7.89042e-20)
(4.76287 13.0201 3.16972e-19)
(4.91488 12.7842 -7.8263e-20)
(5.06448 12.5625 -1.53653e-19)
(5.21189 12.3539 -1.51622e-19)
(5.35743 12.1573 5.93075e-19)
(5.50064 11.9709 -2.92092e-19)
(5.64095 11.7942 0)
(5.77811 11.6268 0)
(5.91348 11.4681 -7.05595e-20)
(6.04639 11.3164 -2.1125e-19)
(6.17625 11.1714 6.28695e-19)
(6.30322 11.0329 -3.48001e-19)
(6.42751 10.9004 0)
(6.54974 10.7734 -3.87399e-22)
(6.66987 10.6515 -2.77446e-19)
(6.78807 10.5337 3.47125e-19)
(6.90362 10.4194 6.97143e-20)
(7.01627 10.3085 0)
(7.12607 10.2011 1.39488e-19)
(7.23385 10.0973 3.64363e-23)
(7.33933 9.99658 6.95743e-20)
(7.44285 9.89932 -2.08207e-19)
(7.54423 9.80533 -6.90733e-20)
(7.64378 9.71341 -1.3497e-19)
(4.88725 21.5941 -7.81085e-20)
(4.56273 20.9818 2.49689e-19)
(4.3029 20.3608 -2.5572e-19)
(4.10504 19.7428 8.47805e-20)
(3.96517 19.1364 0)
(3.87803 18.5499 -1.86343e-19)
(3.84142 17.9865 2.75632e-19)
(3.84108 17.4469 9.34078e-20)
(3.86927 16.9359 9.2939e-20)
(3.9234 16.4572 -9.24097e-20)
(4.00145 16.0076 9.15279e-20)
(4.09573 15.5883 0)
(4.20529 15.1974 0)
(4.32565 14.8321 -8.74931e-20)
(4.45461 14.4902 8.64076e-20)
(4.58792 14.1707 -2.54079e-19)
(4.72475 13.871 1.65142e-19)
(4.86083 13.5895 8.15422e-20)
(4.99764 13.3248 -1.59466e-19)
(5.13336 13.0767 3.1366e-19)
(5.2673 12.8437 -3.06488e-19)
(5.40021 12.6249 -4.76309e-22)
(5.53241 12.4191 4.45681e-19)
(5.66361 12.2246 -3.64726e-19)
(5.79299 12.0392 0)
(5.91873 11.864 -7.09776e-20)
(6.042 11.6987 0)
(6.16509 11.5419 1.39494e-19)
(6.28539 11.391 -6.94262e-20)
(6.4032 11.249 -6.89951e-20)
(6.51814 11.1127 6.83058e-20)
(6.63084 10.9823 0)
(6.74215 10.8577 -1.36391e-19)
(6.85139 10.7383 6.84216e-20)
(6.9592 10.6224 -1.36444e-19)
(7.06388 10.5105 -1.3673e-19)
(7.16584 10.4018 -5.445e-23)
(7.26481 10.2967 1.37141e-19)
(7.36237 10.1954 0)
(7.45697 10.0968 -2.62772e-22)
(7.54983 10.0023 6.85658e-20)
(7.64037 9.91082 6.81739e-20)
(7.73011 9.81917 0)
(5.49833 21.3148 8.20697e-20)
(5.16673 20.7357 -1.62235e-19)
(4.90008 20.147 -8.41758e-20)
(4.69507 19.5605 -8.63879e-20)
(4.54592 18.9844 0)
(4.44463 18.4283 -2.69889e-19)
(4.39592 17.8882 -9.45407e-20)
(4.3716 17.3697 1.80783e-19)
(4.3767 16.8743 -1.84404e-19)
(4.41006 16.4149 9.17523e-20)
(4.47105 15.9768 -9.11548e-20)
(4.54284 15.5714 -8.98646e-20)
(4.63629 15.1922 0)
(4.74017 14.8363 2.59316e-19)
(4.85403 14.5004 -1.67547e-19)
(4.96894 14.1891 -8.48194e-20)
(5.09081 13.8938 1.66627e-19)
(5.20957 13.6171 -1.63346e-19)
(5.33408 13.3553 1.58011e-19)
(5.45324 13.1136 0)
(5.57267 12.8844 1.55543e-19)
(5.69252 12.6691 -2.28655e-19)
(5.81293 12.4656 -7.45429e-20)
(5.93341 12.2726 2.17078e-19)
(6.05176 12.0865 -7.07566e-20)
(6.16369 11.9152 7.07774e-20)
(6.27677 11.7519 0)
(6.39257 11.5976 1.3294e-19)
(6.50236 11.4492 2.19092e-22)
(6.60763 11.3143 -2.75692e-19)
(6.71186 11.1775 -1.96997e-22)
(6.81481 11.0484 1.37896e-19)
(6.91646 10.9258 -6.87008e-20)
(7.01584 10.8099 1.36875e-19)
(7.11592 10.6947 0)
(7.21001 10.588 0)
(7.30323 10.4809 0)
(7.39176 10.378 0)
(7.47999 10.2785 0)
(7.5637 10.1805 -1.38148e-19)
(7.64794 10.0898 -6.91968e-20)
(7.73094 10.0004 6.83917e-20)
(7.81951 9.90052 6.40027e-20)
(16.4143 -2.14979 -4.98234e-20)
(16.0789 -2.13948 2.6645e-20)
(15.7493 -2.13025 1.34497e-19)
(15.4249 -2.12154 8.64103e-22)
(15.1057 -2.11289 5.55324e-20)
(14.7916 -2.1043 6.2279e-22)
(14.4824 -2.09579 -6.65262e-22)
(14.1779 -2.08736 -1.17029e-19)
(13.878 -2.07901 8.98672e-20)
(13.5824 -2.07074 0)
(13.2909 -2.06253 0)
(13.0033 -2.05435 0)
(12.7193 -2.04618 4.70532e-22)
(12.4386 -2.03802 -2.00941e-19)
(12.161 -2.02984 3.08363e-19)
(11.8862 -2.02165 5.64779e-22)
(11.614 -2.01343 2.93519e-19)
(11.3441 -2.00516 -3.05544e-19)
(11.0763 -1.99682 3.87192e-20)
(10.8102 -1.98839 0)
(10.5456 -1.97984 2.1309e-20)
(10.2821 -1.97115 3.92824e-19)
(10.0195 -1.96229 -8.08513e-19)
(9.75735 -1.95324 3.92083e-19)
(9.4953 -1.94398 4.17956e-19)
(9.23287 -1.9345 -9.87691e-19)
(8.96964 -1.92478 3.28048e-20)
(8.70508 -1.91483 5.60652e-19)
(8.43855 -1.90462 0)
(8.16937 -1.89416 2.13188e-20)
(7.89675 -1.8834 0)
(7.61973 -1.87233 0)
(7.33718 -1.86088 -4.54364e-19)
(7.04757 -1.84893 5.44837e-19)
(6.74908 -1.83621 -3.64918e-20)
(6.43956 -1.82232 0)
(6.11612 -1.80634 9.58877e-20)
(5.77533 -1.78643 -1.68203e-19)
(5.41441 -1.75802 3.15513e-20)
(5.03859 -1.71101 3.26131e-19)
(4.71259 -1.61256 -4.14297e-19)
(4.94908 -1.464 -1.43245e-19)
(9.46852 -1.12458 2.1895e-18)
(16.3666 -2.14674 -1.03985e-19)
(16.0596 -2.13843 2.38472e-22)
(15.758 -2.13045 1.75542e-22)
(15.4609 -2.12285 0)
(15.168 -2.11537 -5.70638e-20)
(14.8791 -2.10797 -5.76737e-20)
(14.5939 -2.10062 -1.16093e-19)
(14.3122 -2.09333 1.75924e-19)
(14.0338 -2.08609 -8.90825e-20)
(13.7587 -2.0789 1.20479e-19)
(13.4865 -2.07171 -1.22544e-19)
(13.2169 -2.06448 0)
(12.9499 -2.05716 -1.59359e-19)
(12.6849 -2.04974 -1.6305e-19)
(12.4219 -2.0422 1.93593e-22)
(12.1604 -2.03455 2.41398e-19)
(11.9003 -2.02678 0)
(11.6411 -2.0189 0)
(11.3827 -2.01089 -3.08816e-19)
(11.1248 -2.00273 3.02982e-19)
(10.8669 -1.99441 2.13785e-20)
(10.6089 -1.98589 -2.25686e-20)
(10.3502 -1.97713 2.38777e-20)
(10.0905 -1.96809 -1.08799e-23)
(9.82926 -1.95873 -1.60978e-19)
(9.56608 -1.94901 2.60087e-19)
(9.30036 -1.93888 2.8018e-19)
(9.03147 -1.9283 -3.03587e-19)
(8.75867 -1.91717 0)
(8.48117 -1.90541 3.20863e-19)
(8.19801 -1.89289 -3.08325e-19)
(7.90811 -1.87939 0)
(7.61017 -1.86461 -1.89093e-19)
(7.30276 -1.84812 2.11995e-19)
(6.98433 -1.82915 -2.39047e-19)
(6.65359 -1.8064 2.71073e-19)
(6.31056 -1.77749 0)
(5.96028 -1.73759 5.11208e-20)
(5.62547 -1.67625 0)
(5.39424 -1.57234 0)
(5.60668 -1.39945 -8.20514e-19)
(7.46078 -1.25243 9.46175e-19)
(14.6406 -1.29293 0)
(16.3203 -2.14343 0)
(16.0365 -2.13525 -5.53514e-20)
(15.7568 -2.1271 -5.61702e-20)
(15.4805 -2.1191 -5.71977e-20)
(15.2074 -2.11117 1.15218e-19)
(14.9371 -2.1033 0)
(14.6695 -2.09545 5.85097e-20)
(14.4045 -2.08763 -2.97811e-20)
(14.1416 -2.07988 0)
(13.881 -2.07224 3.05378e-20)
(13.6223 -2.06465 0)
(13.3654 -2.05706 1.25659e-19)
(13.1102 -2.04939 -1.28329e-19)
(12.8562 -2.04159 0)
(12.6032 -2.03365 -3.35242e-20)
(12.3509 -2.0256 0)
(12.0991 -2.01745 0)
(11.8474 -2.0092 0)
(11.5955 -2.00083 3.8997e-20)
(11.3432 -1.99237 2.01378e-20)
(11.0901 -1.98379 -4.2514e-20)
(10.836 -1.97506 0)
(10.5804 -1.96612 1.42139e-19)
(10.3229 -1.95688 -3.52252e-19)
(10.063 -1.94727 1.88033e-19)
(9.8002 -1.93718 0)
(9.53384 -1.92655 -2.776e-19)
(9.2633 -1.91527 2.99982e-19)
(8.98781 -1.9032 0)
(8.70653 -1.89016 2.76126e-19)
(8.41852 -1.87592 -3.88449e-19)
(8.12276 -1.86012 -4.78271e-20)
(7.81817 -1.84223 7.01466e-22)
(7.50386 -1.82142 2.90686e-20)
(7.17955 -1.7963 0)
(6.84682 -1.76443 1.11368e-19)
(6.51265 -1.72136 -8.45413e-20)
(6.19909 -1.65881 9.78179e-20)
(5.97223 -1.56002 0)
(6.02991 -1.39888 -6.88678e-20)
(6.92664 -1.17017 1.64968e-19)
(10.1103 -0.97543 -7.79821e-19)
(17.9172 -1.20485 -1.98129e-20)
(16.2785 -2.13907 5.54597e-20)
(16.0159 -2.13068 0)
(15.756 -2.12243 4.4647e-22)
(15.4987 -2.11417 8.61273e-20)
(15.2436 -2.1059 -2.89773e-20)
(14.9905 -2.09773 -2.94309e-20)
(14.7392 -2.08957 0)
(14.4895 -2.08136 2.98611e-20)
(14.2411 -2.07321 0)
(13.9939 -2.06524 -3.05741e-20)
(13.7478 -2.05745 -3.12536e-20)
(13.5028 -2.04976 0)
(13.2587 -2.04197 1.29339e-19)
(13.0151 -2.03396 -2.64709e-19)
(12.7717 -2.0257 1.35882e-19)
(12.528 -2.01724 0)
(12.2839 -2.00862 -1.80772e-19)
(12.0391 -1.99982 1.12303e-19)
(11.7932 -1.99087 -3.88094e-20)
(11.5459 -1.98178 -1.62854e-19)
(11.2968 -1.97258 3.84217e-19)
(11.0457 -1.9633 -1.57201e-19)
(10.7923 -1.95386 2.37233e-19)
(10.5362 -1.94413 -2.26422e-19)
(10.2768 -1.93394 -2.69039e-20)
(10.0137 -1.92316 0)
(9.74618 -1.91169 0)
(9.47348 -1.89941 0)
(9.19491 -1.88614 1.43444e-19)
(8.90968 -1.87162 -1.56054e-19)
(8.61693 -1.85547 1.70345e-19)
(8.31585 -1.83715 -1.40591e-19)
(8.00586 -1.81587 -5.12752e-20)
(7.68696 -1.79032 -5.75188e-20)
(7.36089 -1.75831 -6.42747e-20)
(7.03357 -1.7161 -7.16139e-20)
(6.72144 -1.65717 0)
(6.46767 -1.56956 0)
(6.38588 -1.43312 0)
(6.75874 -1.22599 6.4129e-20)
(8.25184 -0.969138 -3.71568e-19)
(12.3505 -0.783092 -2.26853e-19)
(20.1434 -1.10027 4.54014e-19)
(16.242 -2.13448 -5.61802e-20)
(15.9986 -2.12597 0)
(15.7572 -2.11786 0)
(15.5176 -2.10957 -4.37749e-20)
(15.2791 -2.10112 1.46672e-20)
(15.0416 -2.09283 -5.9423e-20)
(14.8054 -2.08456 8.98637e-20)
(14.5699 -2.07601 -6.04737e-20)
(14.3345 -2.06737 6.10942e-20)
(14.0994 -2.05896 -6.18781e-20)
(13.8644 -2.05088 7.86396e-24)
(13.6297 -2.04316 -3.18096e-20)
(13.3953 -2.03547 1.30297e-19)
(13.1611 -2.02741 3.34064e-20)
(12.9262 -2.01884 -3.4278e-20)
(12.6902 -2.00994 3.52876e-20)
(12.4531 -2.0008 3.62316e-20)
(12.2144 -1.99141 -2.29068e-22)
(11.9739 -1.98175 0)
(11.731 -1.97179 0)
(11.4855 -1.96167 -1.92711e-19)
(11.2368 -1.95157 1.57789e-19)
(10.985 -1.94153 -4.7551e-20)
(10.7299 -1.93136 -2.01473e-19)
(10.471 -1.92073 2.41028e-19)
(10.2077 -1.90931 0)
(9.93922 -1.89695 0)
(9.66476 -1.8836 0)
(9.38372 -1.86911 -3.57646e-20)
(9.09544 -1.8531 1.15803e-19)
(8.79921 -1.83505 -1.2629e-19)
(8.49451 -1.81421 0)
(8.18135 -1.78942 5.09949e-20)
(7.86101 -1.75883 5.5996e-20)
(7.53771 -1.71939 2.50911e-19)
(7.22236 -1.66611 -1.41185e-19)
(6.94154 -1.59068 0)
(6.75991 -1.47847 -3.6108e-22)
(6.83041 -1.30912 -5.30258e-20)
(7.4933 -1.0684 -6.29068e-20)
(9.46562 -0.798625 1.34355e-19)
(14.141 -0.650833 0)
(21.7261 -1.01851 0)
(16.209 -2.12808 0)
(15.9832 -2.12044 2.9021e-20)
(15.7586 -2.11294 -2.9797e-20)
(15.5352 -2.10487 4.61463e-22)
(15.3118 -2.09623 -1.24005e-22)
(15.0882 -2.0879 2.9965e-20)
(14.8655 -2.07985 -1.36269e-23)
(14.643 -2.07107 -3.04665e-20)
(14.4195 -2.0618 6.1547e-20)
(14.1951 -2.05268 -6.23173e-20)
(13.9695 -2.04401 -3.15428e-20)
(13.7434 -2.03618 -6.41519e-20)
(13.5173 -2.02886 6.5614e-20)
(13.2914 -2.02119 -3.34566e-20)
(13.0644 -2.01244 -1.78716e-22)
(12.8353 -2.00311 -7.08197e-20)
(12.6042 -1.99349 3.66617e-20)
(12.3706 -1.98357 3.77753e-20)
(12.1349 -1.97338 1.9697e-19)
(11.8962 -1.96247 -1.64315e-19)
(11.6537 -1.95112 0)
(11.4069 -1.93972 -2.26664e-20)
(11.1558 -1.92874 2.37605e-20)
(10.9009 -1.91818 -7.55752e-20)
(10.6422 -1.90743 1.07183e-19)
(10.3789 -1.89573 -1.14223e-19)
(10.1098 -1.88257 1.52926e-19)
(9.83372 -1.86812 0)
(9.55033 -1.85245 7.08278e-20)
(9.25936 -1.83506 -1.1515e-19)
(8.96038 -1.81522 8.34427e-20)
(8.65318 -1.79193 -4.53999e-20)
(8.33856 -1.76374 1.00522e-19)
(8.01933 -1.72824 -1.10671e-19)
(7.70239 -1.68151 6.18385e-20)
(7.40383 -1.61732 0)
(7.15992 -1.52581 7.89406e-20)
(7.05459 -1.39149 0)