/*--------------------------------*- C++ -*----------------------------------*\
| =========                 |                                                 |
| \\      /  F ield         | OpenFOAM: The Open Source CFD Toolbox           |
|  \\    /   O peration     | Version:  2.3.0                                 |
|   \\  /    A nd           | Web:      www.OpenFOAM.org                      |
|    \\/     M anipulation  |                                                 |
\*---------------------------------------------------------------------------*/
FoamFile
{
    version     2.0;
    format      ascii;
    class       volScalarField;
    location    "1000";
    object      nut;
}
// * * * * * * * * * * * * * * * * * * * * * * * * * * * * * * * * * * * * * //

dimensions      [0 2 -1 0 0 0 0];

internalField   nonuniform List<scalar> 
39559
(
0.0523059
0.0504692
0.0486768
0.0469216
0.0452004
0.0435126
0.0418584
0.040238
0.0386527
0.0371053
0.0355997
0.0341391
0.0327275
0.0313607
0.0300307
0.0287276
0.0274488
0.0261939
0.0249678
0.0237738
0.0226146
0.0214939
0.0204121
0.019369
0.0183617
0.0173867
0.0164381
0.0155113
0.0146041
0.0137153
0.0128458
0.0119958
0.0111663
0.0103594
0.0095764
0.00881782
0.00808468
0.00737712
0.00669768
0.00605462
0.0054634
0.00496236
0.00470973
0.0543104
0.0526905
0.0511081
0.0495566
0.0480326
0.0465353
0.045064
0.0436183
0.0421981
0.0408037
0.039435
0.0380928
0.0367776
0.0354877
0.034222
0.0329789
0.031758
0.0305589
0.029383
0.0282318
0.0271076
0.0260147
0.0249554
0.0239339
0.0229538
0.0220159
0.0211148
0.0202425
0.0193921
0.018562
0.0177531
0.0169687
0.0162129
0.0154948
0.0148271
0.0142314
0.0137341
0.0133546
0.0130933
0.012952
0.0129415
0.0130718
0.0133594
0.0561198
0.0546863
0.0532826
0.0519033
0.0505462
0.0492102
0.0478953
0.0466006
0.045326
0.0440715
0.0428369
0.0416222
0.0404272
0.0392527
0.0380968
0.0369595
0.0358409
0.0347403
0.033659
0.032597
0.0315556
0.030536
0.0295406
0.0285706
0.0276288
0.0267167
0.0258359
0.0249879
0.0241742
0.0233972
0.0226597
0.0219673
0.0213245
0.0207386
0.020218
0.0197708
0.0194079
0.0191383
0.0189709
0.0189131
0.0189727
0.0191549
0.0194597
0.0577488
0.0564753
0.0552247
0.0539923
0.052777
0.051578
0.0503952
0.0492283
0.0480774
0.0469422
0.0458218
0.0447176
0.0436292
0.0425563
0.0415001
0.0404594
0.0394342
0.0384247
0.0374309
0.0364533
0.0354929
0.03455
0.0336263
0.0327238
0.0318454
0.0309925
0.0301668
0.0293731
0.0286121
0.0278888
0.0272062
0.0265696
0.0259849
0.025457
0.0249935
0.0246023
0.02429
0.0240652
0.023936
0.0239082
0.0239881
0.0241785
0.0244799
0.0592079
0.0580755
0.0569575
0.0558512
0.0547564
0.0536736
0.0526027
0.051544
0.0504974
0.0494626
0.0484391
0.0474272
0.0464271
0.0454403
0.0444665
0.0435063
0.0425592
0.041626
0.0407063
0.0398004
0.0389089
0.0380322
0.0371713
0.0363286
0.0355063
0.0347059
0.0339313
0.0331851
0.0324705
0.0317911
0.0311516
0.0305563
0.0300111
0.0295219
0.0290948
0.0287363
0.0284542
0.0282561
0.0281482
0.0281368
0.0282266
0.0284191
0.0287154
0.0605104
0.0595035
0.0585019
0.0575048
0.0565133
0.0555288
0.0545525
0.0535855
0.052627
0.0516772
0.0507359
0.0498019
0.048876
0.0479592
0.047053
0.0461582
0.0452752
0.0444042
0.0435449
0.0426985
0.0418646
0.0410445
0.0402376
0.0394458
0.0386711
0.0379161
0.0371838
0.0364774
0.035801
0.0351575
0.0345526
0.0339906
0.0334761
0.0330156
0.0326148
0.03228
0.0320183
0.0318374
0.0317433
0.0317416
0.031836
0.0320288
0.0323208
0.0616624
0.0607712
0.0598735
0.0589727
0.0580709
0.0571704
0.0562747
0.055385
0.0545014
0.0536236
0.052752
0.0518861
0.0510238
0.0501651
0.0493134
0.0484716
0.0476408
0.0468206
0.0460102
0.0452111
0.0444252
0.0436524
0.0428919
0.042144
0.0414101
0.0406937
0.0399978
0.0393253
0.0386795
0.0380664
0.0374895
0.0369542
0.036465
0.0360274
0.0356478
0.0353317
0.0350857
0.0349171
0.0348324
0.0348367
0.034934
0.035126
0.0354142
0.0626656
0.0618771
0.0610745
0.0602627
0.0594432
0.0586176
0.057791
0.0569681
0.0561485
0.0553318
0.0545197
0.0537132
0.0529093
0.0521013
0.0512935
0.0504941
0.0497056
0.0489275
0.048157
0.0473952
0.0466465
0.0459119
0.0451923
0.0444838
0.0437856
0.0431021
0.0424378
0.0417948
0.0411757
0.040586
0.0400326
0.03952
0.0390515
0.0386329
0.0382714
0.0379715
0.0377386
0.0375793
0.0375013
0.0375112
0.0376113
0.0378022
0.0380863
0.06353
0.062822
0.0620962
0.0613605
0.0606157
0.0598611
0.0590973
0.0583321
0.0575699
0.056807
0.0560455
0.0552892
0.0545414
0.0537895
0.0530155
0.052249
0.0514917
0.0507506
0.0500173
0.0492864
0.0485649
0.047858
0.0471692
0.0464998
0.0458349
0.0451799
0.0445428
0.0439298
0.043336
0.0427644
0.0422305
0.0417386
0.0412903
0.040888
0.0405434
0.0402598
0.0400416
0.0398903
0.0398164
0.039833
0.0399408
0.0401291
0.0404091
0.00558544
0.00722768
0.00836976
0.00953751
0.0107809
0.0120924
0.0134576
0.0148634
0.0162994
0.0177591
0.0192376
0.0207318
0.0222393
0.0237596
0.0252913
0.0268329
0.0283847
0.029946
0.0315159
0.0330942
0.0346807
0.0362754
0.0378779
0.0394877
0.0411048
0.0427288
0.0443592
0.045996
0.0476387
0.0492869
0.05094
0.0525976
0.0542588
0.0559233
0.0575903
0.0592592
0.0609289
0.0625984
0.0642665
0.0659321
0.0675938
0.0692498
0.0709042
0.0138211
0.0144509
0.0152231
0.0161244
0.0171393
0.0182493
0.019437
0.0206869
0.0219864
0.0233249
0.0246945
0.026088
0.0275002
0.0289274
0.0303665
0.0318145
0.0332698
0.0347315
0.0361985
0.0376694
0.0391438
0.0406214
0.042102
0.0435848
0.0450699
0.0465572
0.0480461
0.0495366
0.0510287
0.0525219
0.0540163
0.0555116
0.0570074
0.0585035
0.0599997
0.0614954
0.0629902
0.0644835
0.0659746
0.0674629
0.0689474
0.0704274
0.0719065
0.0198865
0.0204382
0.0211151
0.0219092
0.022807
0.023796
0.0248633
0.0259957
0.0271817
0.0284107
0.0296748
0.0309664
0.0322791
0.0336082
0.0349497
0.0363007
0.0376579
0.0390199
0.0403852
0.0417523
0.0431203
0.0444886
0.0458567
0.0472237
0.0485899
0.0499548
0.0513181
0.0526796
0.0540395
0.0553974
0.0567534
0.0581076
0.05946
0.0608105
0.0621589
0.0635049
0.0648485
0.0661895
0.0675271
0.0688614
0.0701917
0.0715176
0.0728426
0.0248897
0.0254102
0.026042
0.0267781
0.0276094
0.0285261
0.0295169
0.0305704
0.0316761
0.0328248
0.0340084
0.0352196
0.036452
0.0377004
0.0389604
0.040229
0.0415025
0.042779
0.0440569
0.0453346
0.0466112
0.0478855
0.0491569
0.0504246
0.0516886
0.0529486
0.0542041
0.0554552
0.0567019
0.0579441
0.0591817
0.0604152
0.0616446
0.0628702
0.0640919
0.0653094
0.0665229
0.0677323
0.0689372
0.0701376
0.0713333
0.0725244
0.0737144
0.0291134
0.0296143
0.0302179
0.0309178
0.0317057
0.0325728
0.03351
0.0345066
0.0355529
0.0366406
0.0377617
0.0389091
0.0400767
0.0412593
0.042452
0.0436519
0.0448556
0.0460605
0.0472648
0.0484671
0.049666
0.0508605
0.0520499
0.0532335
0.0544108
0.0555819
0.0567458
0.0579029
0.059053
0.0601965
0.0613335
0.062464
0.0635886
0.0647078
0.0658212
0.0669285
0.0680301
0.0691259
0.070216
0.0713002
0.0723787
0.0734516
0.0745225
0.0327104
0.0331973
0.0337808
0.0344547
0.0352114
0.0360428
0.03694
0.0378941
0.0388951
0.0399352
0.0410073
0.0421043
0.0432195
0.0443483
0.0454862
0.0466297
0.0477756
0.0489208
0.0500636
0.0512024
0.0523363
0.053464
0.0545845
0.055697
0.0568012
0.0578975
0.0589841
0.0600609
0.0611287
0.0621882
0.0632397
0.0642829
0.0653183
0.0663465
0.0673674
0.0683804
0.0693858
0.0703836
0.0713742
0.0723576
0.0733342
0.0743034
0.0752679
0.0357976
0.0362741
0.0368421
0.0374963
0.0382292
0.0390333
0.0399002
0.0408206
0.0417858
0.0427881
0.0438208
0.0448773
0.0459503
0.047035
0.0481275
0.0492246
0.050322
0.0514169
0.0525079
0.0535941
0.0546735
0.0557448
0.0568069
0.0578598
0.0589031
0.0599362
0.0609566
0.0619642
0.0629614
0.06395
0.064929
0.0658978
0.0668575
0.0678085
0.06875
0.0696823
0.0706048
0.0715177
0.072422
0.0733182
0.074206
0.0750848
0.0759556
0.038464
0.0389325
0.0394873
0.0401264
0.0408412
0.0416235
0.0424659
0.04336
0.0442945
0.0452657
0.0462674
0.0472916
0.0483296
0.049377
0.0504319
0.051491
0.0525476
0.0535996
0.0546472
0.0556899
0.0567232
0.0577466
0.0587587
0.0597617
0.0607549
0.0617363
0.0626964
0.0636424
0.0645801
0.0655111
0.0664274
0.067332
0.0682276
0.0691142
0.0699865
0.0708503
0.0717009
0.0725396
0.0733689
0.0741896
0.0750012
0.0758008
0.0765898
0.0407829
0.0412451
0.0417845
0.042413
0.0431131
0.0438775
0.0447013
0.0455743
0.0464779
0.0474234
0.0484017
0.0493999
0.0504048
0.0514199
0.0524447
0.0534741
0.0544924
0.0555062
0.056519
0.0575285
0.0585201
0.0595044
0.0604728
0.0614383
0.0623908
0.0633317
0.0642246
0.0651196
0.0660093
0.0668967
0.0677519
0.0686035
0.0694477
0.0702835
0.071089
0.0718976
0.0726821
0.0734563
0.0742229
0.0749806
0.0757283
0.0764606
0.0771781
0.0810804
0.0781212
0.075215
0.0723508
0.069524
0.0667318
0.0639741
0.0612505
0.0585629
0.055913
0.0533027
0.0507354
0.0482125
0.0457378
0.0433128
0.0409407
0.0386232
0.0363631
0.0341614
0.0320191
0.0299367
0.0279172
0.025961
0.0240673
0.0222386
0.0204741
0.0187735
0.0171399
0.0155701
0.0140667
0.0126305
0.011261
0.00995924
0.0087264
0.00756552
0.00647732
0.00546505
0.0045331
0.00368626
0.00293906
0.00235731
0.00178097
0.00111559
0.082363
0.0797444
0.0771572
0.0745941
0.0720506
0.0695256
0.0670174
0.0645268
0.0620552
0.0596025
0.0571721
0.0547653
0.0523849
0.0500336
0.0477126
0.0454247
0.0431718
0.0409568
0.038781
0.0366471
0.0345566
0.032512
0.0305132
0.0285636
0.0266637
0.0248145
0.0230194
0.0212779
0.0195924
0.0179655
0.0163979
0.0148921
0.0134515
0.0120794
0.0107798
0.00955803
0.00842077
0.00738287
0.00648881
0.00560281
0.00467514
0.00365788
0.00246516
0.0836358
0.0813197
0.0790178
0.0767241
0.0744364
0.0721531
0.0698729
0.0675969
0.0653253
0.063059
0.0608
0.0585502
0.0563121
0.0540865
0.0518765
0.0496841
0.0475118
0.0453613
0.0432355
0.0411359
0.0390656
0.0370256
0.0350193
0.0330482
0.0311149
0.0292215
0.0273709
0.0255643
0.0238057
0.022098
0.0204442
0.0188486
0.017317
0.0158552
0.0144713
0.0131802
0.0120033
0.010857
0.00968798
0.00845802
0.00712764
0.00565124
0.0039605
0.0848707
0.0828211
0.0807712
0.0787175
0.0766582
0.0745923
0.0725185
0.0704372
0.0683492
0.066255
0.0641563
0.0620551
0.0599525
0.0578504
0.055752
0.0536582
0.0515711
0.049493
0.0474269
0.0453744
0.0433383
0.0413215
0.0393268
0.037356
0.0354126
0.0334997
0.0316197
0.0297779
0.0279765
0.0262199
0.0245139
0.022866
0.0212831
0.0197773
0.0183612
0.0169964
0.0156328
0.0142358
0.012771
0.0112062
0.0095065
0.00762634
0.00550966
0.0860433
0.0842261
0.0823977
0.0805557
0.0786994
0.0768273
0.0749384
0.0730331
0.0711115
0.0691746
0.0672237
0.06526
0.0632849
0.061301
0.0593101
0.0573142
0.055314
0.0533126
0.0513114
0.0493139
0.0473214
0.0453385
0.0433682
0.0414127
0.0394762
0.037561
0.0356737
0.0338162
0.0319941
0.0302146
0.0284841
0.0268124
0.0252069
0.0236545
0.022124
0.0205847
0.0190081
0.0173656
0.0156284
0.0137661
0.0117426
0.00951407
0.00703211
0.0871333
0.0855171
0.0838812
0.082225
0.0805477
0.0788482
0.0771246
0.0753769
0.0736053
0.0718106
0.0699942
0.0681572
0.0663011
0.0644278
0.0625398
0.0606381
0.0587251
0.0568014
0.0548691
0.0529296
0.0509873
0.0490458
0.0471085
0.0451796
0.0432616
0.04136
0.039478
0.0376219
0.0357983
0.0340135
0.0322735
0.0305759
0.0289068
0.0272457
0.0255694
0.0238551
0.022079
0.0202164
0.0182388
0.016115
0.013809
0.0112782
0.00847735
0.0881233
0.0866795
0.08521
0.0837154
0.0821961
0.0806502
0.0790747
0.0774675
0.0758303
0.0741642
0.0724706
0.0707495
0.0690023
0.067231
0.0654389
0.063628
0.0618003
0.0599564
0.0580955
0.0562181
0.0543284
0.0524316
0.0505333
0.0486378
0.046749
0.0448701
0.043006
0.041162
0.0393416
0.0375488
0.0357782
0.0340212
0.0322634
0.0304866
0.0286718
0.0267991
0.0248471
0.0227917
0.0206035
0.0182518
0.0156997
0.0129045
0.00982264
0.0890009
0.0877033
0.0863762
0.0850215
0.0836409
0.0822334
0.0807917
0.0793096
0.077792
0.0762417
0.0746597
0.0730445
0.0713975
0.0697196
0.0680164
0.0662897
0.0645427
0.0627797
0.0609958
0.0591848
0.0573467
0.0554977
0.0536382
0.0517813
0.0499272
0.0480767
0.0462316
0.0443986
0.0425694
0.0407486
0.0389325
0.0371097
0.0352642
0.0333805
0.0314431
0.0294315
0.0273266
0.0251045
0.0227373
0.0201862
0.0174202
0.0143949
0.0110642
0.0897609
0.0885836
0.0873762
0.0861415
0.0848801
0.0835988
0.0822841
0.0809123
0.0794991
0.07805
0.0765714
0.0750537
0.0735015
0.0719054
0.0702849
0.0686344
0.0669589
0.0652724
0.0635756
0.0618478
0.0600499
0.0582563
0.0564246
0.0546002
0.0527801
0.050961
0.0491177
0.0473118
0.0454577
0.0435944
0.0417308
0.0398548
0.0379283
0.0359509
0.0339057
0.0317727
0.029533
0.0271704
0.0246635
0.0219341
0.0189796
0.0157648
0.0122148
0.000545212
0.000567236
0.00079476
0.00100872
0.00121019
0.001403
0.00159082
0.00177825
0.00197179
0.00217987
0.00241395
0.00268665
0.00300124
0.0033537
0.00373927
0.00415449
0.0045979
0.00506837
0.00556573
0.00608963
0.00664026
0.00721766
0.00782218
0.00845376
0.00911294
0.00979974
0.0105144
0.0112576
0.012029
0.0128293
0.0136589
0.0145178
0.0154068
0.0163258
0.0172757
0.018257
0.0192706
0.0203174
0.0213982
0.0225146
0.0236685
0.0248624
0.0260995
0.00118618
0.000790363
0.000975037
0.00119543
0.00140689
0.00161269
0.00181957
0.00203562
0.00227019
0.0025326
0.0028314
0.00317331
0.00355322
0.00396331
0.00440018
0.00486189
0.00534727
0.00585584
0.00638729
0.00694147
0.0075179
0.00811673
0.00873804
0.00938199
0.0100482
0.0107372
0.0114489
0.0121834
0.012941
0.0137218
0.0145264
0.0153547
0.0162073
0.0170844
0.0179865
0.0189144
0.019869
0.0208511
0.0218617
0.0229024
0.023975
0.0250816
0.0262223
0.00211535
0.00109473
0.00114292
0.00136726
0.00159299
0.00181999
0.00205772
0.00231627
0.0026041
0.00292693
0.00328833
0.00369146
0.00412605
0.00458555
0.0050676
0.00557077
0.0060942
0.00663726
0.0071995
0.00778052
0.00838018
0.00899795
0.00963406
0.0102882
0.0109602
0.0116499
0.0123576
0.0130831
0.0138266
0.0145881
0.015368
0.0161664
0.0169837
0.0178204
0.0186767
0.0195535
0.0204515
0.0213716
0.022315
0.0232833
0.0242787
0.0253049
0.0263715
0.00319319
0.00151164
0.00130262
0.00152315
0.00176817
0.00202438
0.00230219
0.00261024
0.00295348
0.00333319
0.00375046
0.00420585
0.00468691
0.00518914
0.00571069
0.0062504
0.00680726
0.0073808
0.00797001
0.00857469
0.00919417
0.00982822
0.0104764
0.0111388
0.0118147
0.0125042
0.0132071
0.0139235
0.0146531
0.0153962
0.016153
0.0169235
0.0177082
0.0185074
0.0193215
0.0201512
0.0209973
0.0218608
0.0227428
0.023645
0.0245695
0.0255194
0.0264971
0.00431257
0.00203281
0.00146544
0.00166733
0.00193644
0.00222787
0.00255
0.00290843
0.00330366
0.00373432
0.00420164
0.00470148
0.00522294
0.00576298
0.00631962
0.00689176
0.0074783
0.00807853
0.00869161
0.00931682
0.00995376
0.0106017
0.0112603
0.0119292
0.012608
0.0132964
0.0139944
0.0147017
0.0154185
0.0161445
0.0168798
0.0176246
0.0183794
0.0191445
0.0199202
0.0207073
0.0215065
0.0223184
0.0231447
0.0239867
0.024846
0.0257239
0.0266203
0.00540831
0.00262267
0.001641
0.00180337
0.00209976
0.00242966
0.00279698
0.0032029
0.00364487
0.00412071
0.0046328
0.00517168
0.00572929
0.00630309
0.00689125
0.00749247
0.00810566
0.00872972
0.009364
0.0100074
0.0106594
0.0113195
0.0119872
0.0126617
0.0133427
0.0140298
0.014723
0.0154219
0.0161264
0.0168367
0.0175525
0.0182742
0.0190018
0.0197359
0.020477
0.0212254
0.0219821
0.0227476
0.0235233
0.0243103
0.0251097
0.025922
0.0267482
0.00644704
0.00324026
0.00183261
0.00193479
0.00226
0.00262907
0.00303934
0.00348859
0.00397247
0.00448909
0.00504051
0.00561417
0.00620439
0.00680859
0.00742493
0.00805236
0.00868974
0.00933551
0.00998878
0.0106487
0.0113145
0.0119856
0.0126612
0.0133407
0.0140236
0.0147096
0.0153983
0.0160896
0.0167832
0.0174789
0.0181769
0.0188771
0.0195802
0.0202863
0.020996
0.0217096
0.0224276
0.0231509
0.0238804
0.0246171
0.0253617
0.0261143
0.0268753
0.00741608
0.00385732
0.00204655
0.00205637
0.00240889
0.00281543
0.00326565
0.00375535
0.00427813
0.00483377
0.0054214
0.00602768
0.00664795
0.00728003
0.00792313
0.0085763
0.00923739
0.00990362
0.0105741
0.0112488
0.0119273
0.0126086
0.0132916
0.0139754
0.0146594
0.0153437
0.0160281
0.0167126
0.017396
0.0180779
0.0187582
0.0194383
0.020119
0.0208002
0.0214817
0.0221632
0.0228451
0.0235289
0.0242159
0.0249067
0.0256018
0.0263008
0.0270044
0.00831677
0.00440846
0.00220779
0.00220181
0.00258903
0.00303894
0.0035394
0.00406399
0.00462202
0.00521494
0.00583174
0.00645931
0.00709757
0.00775358
0.00843034
0.00911695
0.00980032
0.0104767
0.0111547
0.0118386
0.0125268
0.0132166
0.0139028
0.0145863
0.0152679
0.0159476
0.016627
0.0173046
0.0179768
0.0186412
0.0192998
0.0199594
0.0206211
0.0212812
0.0219377
0.0225873
0.0232327
0.0238783
0.0245258
0.0251756
0.025827
0.0264787
0.0271314
0.000169433
0.000705513
0.00153708
0.00238308
0.00321196
0.00402586
0.00482986
0.00563004
0.00643472
0.00724898
0.00807453
0.00891312
0.00976607
0.0106349
0.0115213
0.0124267
0.0133524
0.0143008
0.0152747
0.0162781
0.0173152
0.0183901
0.0195059
0.0206641
0.0218644
0.0231047
0.0243822
0.0256921
0.0270292
0.0283885
0.029769
0.031178
0.0326517
0.0342016
0.0358145
0.0374788
0.0391886
0.0409423
0.0427378
0.0445736
0.046449
0.0483661
0.0503306
9.05766e-05
0.000406701
0.000882468
0.00151421
0.00231791
0.00311746
0.00391217
0.00470603
0.00548797
0.0062581
0.00702313
0.00778934
0.00856307
0.00934827
0.0101484
0.0109669
0.0118071
0.0126723
0.0135663
0.0144929
0.0154565
0.0164616
0.0175123
0.0186116
0.0197616
0.020962
0.0222115
0.023506
0.0248405
0.0262097
0.0276103
0.0290455
0.0305297
0.0320718
0.0336674
0.0353109
0.0370131
0.0387853
0.0406175
0.0425009
0.0444319
0.0464111
0.0484423
9.89488e-06
0.000294732
0.000532059
0.000877155
0.00137126
0.00200385
0.0027637
0.0036524
0.00453622
0.00539812
0.00624178
0.00707032
0.00788519
0.00868954
0.00948676
0.0102811
0.0110776
0.0118818
0.0126999
0.0135384
0.0144044
0.0153052
0.016248
0.0172393
0.0182847
0.0193879
0.0205509
0.0217732
0.023052
0.0243833
0.0257634
0.0271916
0.028671
0.030206
0.0317961
0.0334393
0.0351378
0.0368942
0.0387068
0.040582
0.0425269
0.0445376
0.0466137
1.01103e-05
0.000271905
0.000475664
0.000724693
0.00108915
0.00157015
0.00216965
0.00288599
0.00372149
0.00459425
0.00546615
0.00633252
0.00719335
0.00804855
0.00889762
0.0097393
0.0105726
0.0113978
0.0122175
0.013036
0.0138595
0.0146958
0.015554
0.0164439
0.0173757
0.0183584
0.0194
0.0205058
0.021679
0.0229198
0.0242272
0.0255998
0.0270371
0.0285398
0.0301071
0.0317374
0.0334291
0.0351809
0.036991
0.038861
0.040795
0.0427994
0.0448859
1.09563e-05
0.000298839
0.000490237
0.000697567
0.00100016
0.0014185
0.00194271
0.00256581
0.00329105
0.00411486
0.00497078
0.00583179
0.00669346
0.00755555
0.00841798
0.00927994
0.0101401
0.0109969
0.0118481
0.0126921
0.0135292
0.0143619
0.0151951
0.0160366
0.0168959
0.0177847
0.0187147
0.0196976
0.0207434
0.0218599
0.0230519
0.0243227
0.0256738
0.0271051
0.0286158
0.0302046
0.0318676
0.0336017
0.0354037
0.0372712
0.0392043
0.0412066
0.0432761
1.1509e-05
0.000300676
0.00048345
0.000683844
0.000984831
0.00139382
0.00189833
0.00249147
0.00317624
0.00395293
0.00477492
0.00561238
0.00645626
0.00730449
0.00815657
0.00901232
0.00987111
0.0107318
0.0115929
0.0124525
0.013308
0.0141573
0.0149999
0.0158373
0.0166741
0.0175177
0.0183784
0.019269
0.0202031
0.0211947
0.022256
0.0233975
0.0246268
0.0259481
0.0273644
0.0288753
0.0304776
0.0321674
0.0339402
0.0357909
0.037716
0.0397133
0.0417732
1.29527e-05
0.00030499
0.00048329
0.000681648
0.000995758
0.00141262
0.0019193
0.00250974
0.00318635
0.00394912
0.00475968
0.00558882
0.00642554
0.00726646
0.00811033
0.00895703
0.00980677
0.0106591
0.0115134
0.0123688
0.0132242
0.0140776
0.0149268
0.0157698
0.0166061
0.0174376
0.018269
0.0191088
0.0199685
0.0208627
0.0218076
0.0228192
0.0239128
0.0250999
0.0263898
0.0277875
0.0292939
0.0309069
0.0326212
0.0344311
0.0363304
0.0383142
0.0403817
1.73347e-05
0.000306931
0.000483822
0.00068745
0.00102099
0.0014519
0.00196863
0.00256732
0.0032506
0.00401728
0.00483286
0.00566932
0.00651422
0.00736222
0.0082112
0.00906038
0.00990954
0.0107586
0.0116074
0.0124559
0.0133037
0.0141501
0.0149942
0.0158342
0.0166682
0.017495
0.018315
0.0191313
0.0199502
0.020782
0.0216412
0.0225448
0.023512
0.0245612
0.0257095
0.0269695
0.0283494
0.0298521
0.0314756
0.0332149
0.0350632
0.0370146
0.0390668
2.68638e-05
0.000308663
0.000486758
0.000705135
0.00105318
0.00149812
0.00202708
0.00263732
0.00333198
0.00410956
0.00493943
0.00579385
0.00665866
0.00752664
0.00839418
0.00925938
0.0101213
0.0109793
0.0118333
0.0126832
0.0135288
0.0143702
0.0152071
0.016039
0.016865
0.0176837
0.018494
0.019296
0.0200917
0.0208863
0.0216893
0.0225143
0.0233796
0.024306
0.0253158
0.0264293
0.0276634
0.0290292
0.0305312
0.0321688
0.0339376
0.0358321
0.0378539
4.34503e-05
0.00030929
0.000488196
0.000724411
0.00108696
0.00154568
0.00208688
0.00270949
0.00341682
0.0042076
0.00505519
0.00593229
0.00682315
0.00771874
0.00861397
0.00950558
0.0103914
0.0112704
0.0121418
0.0130049
0.0138594
0.0147052
0.0155423
0.0163704
0.0171897
0.0179998
0.0187997
0.0195888
0.0203672
0.0211368
0.0219027
0.0226737
0.0234637
0.0242916
0.0251802
0.0261543
0.0272382
0.0284519
0.0298091
0.031317
0.0329762
0.0347832
0.0367325
6.21805e-05
0.000309158
0.000488097
0.000743495
0.00112006
0.00159114
0.00214373
0.00277804
0.0034975
0.00430155
0.00516737
0.00606851
0.006988
0.00791524
0.00884325
0.00976769
0.0106853
0.0115942
0.0124928
0.0133798
0.0142543
0.0151157
0.0159636
0.0167979
0.0176184
0.0184254
0.0192186
0.0199976
0.0207621
0.0215129
0.0222521
0.0229851
0.0237207
0.0244739
0.0252643
0.0261169
0.0270595
0.0281193
0.0293194
0.0306765
0.0322
0.0338922
0.0357541
7.94936e-05
0.00030855
0.000486671
0.000761725
0.00115173
0.00163319
0.00219586
0.00284066
0.00357107
0.00438716
0.00527018
0.00619488
0.00714311
0.00810314
0.00906637
0.010027
0.0109812
0.0119256
0.0128581
0.0137768
0.0146802
0.015567
0.0164362
0.0172872
0.0181195
0.0189328
0.0197273
0.0205029
0.0212593
0.0219969
0.0227169
0.023422
0.0241182
0.0248156
0.0255298
0.0262827
0.0271016
0.0280171
0.0290595
0.0302551
0.0316234
0.0331754
0.0349127
9.48538e-05
0.00030805
0.000484706
0.000778468
0.00118032
0.00167089
0.00224238
0.00289626
0.00363612
0.00446268
0.00536089
0.00630735
0.00728334
0.00827548
0.00927428
0.0102727
0.0112655
0.0122488
0.0132195
0.0141751
0.0151135
0.0160329
0.0169317
0.0178085
0.0186622
0.0194922
0.0202979
0.0210793
0.0218361
0.0225684
0.0232767
0.0239629
0.0246308
0.0252871
0.0259435
0.0266176
0.0273335
0.0281216
0.0290158
0.0300498
0.031253
0.0326484
0.034254
0.000108679
0.000308314
0.00048382
0.000793963
0.0012058
0.00170418
0.00228328
0.00294479
0.00369254
0.00452785
0.00543896
0.00640465
0.00740615
0.00842902
0.00946252
0.0104985
0.0115306
0.0125541
0.0135651
0.0145608
0.0155383
0.0164952
0.0174294
0.018339
0.0192221
0.0200774
0.0209038
0.0217006
0.0224674
0.0232037
0.0239096
0.0245862
0.0252359
0.0258634
0.0264772
0.0270907
0.0277242
0.0284049
0.0291669
0.0300479
0.0310851
0.0323116
0.0337512
0.000121064
0.000309501
0.000485611
0.000808232
0.00122823
0.00173309
0.00231856
0.00298647
0.00374066
0.004583
0.00550458
0.00648668
0.00751094
0.0085622
0.00962874
0.0107011
0.011772
0.0128358
0.0138881
0.0149253
0.0159442
0.0169416
0.0179151
0.0188621
0.0197804
0.0206679
0.0215229
0.0223438
0.0231295
0.0238793
0.0245925
0.0252694
0.0259113
0.0265215
0.027106
0.0276749
0.0282445
0.0288382
0.0294872
0.0302301
0.0311087
0.0321635
0.0334265
0.000132126
0.00031111
0.000490334
0.000821343
0.00124791
0.00175814
0.00234878
0.0030219
0.00378109
0.00462887
0.00555864
0.00655419
0.00759817
0.00867506
0.00977224
0.0108793
0.0119877
0.0130912
0.0141846
0.0152635
0.0163244
0.0173639
0.0183789
0.0193665
0.0203238
0.0212485
0.0221378
0.0229897
0.0238022
0.0245739
0.0253036
0.0259906
0.026635
0.027239
0.0278066
0.0283453
0.0288677
0.0293933
0.0299497
0.030573
0.0313066
0.0321957
0.0332805
0.000142013
0.000312562
0.000496116
0.000832961
0.00126478
0.00177943
0.00237421
0.00305139
0.0038145
0.0046662
0.00560198
0.0066082
0.00766872
0.0087683
0.00989332
0.0110326
0.0121769
0.0133187
0.0144521
0.0155724
0.0166752
0.0177571
0.0188146
0.0198444
0.0208433
0.0218081
0.0227359
0.0236237
0.0244692
0.0252699
0.026024
0.0267298
0.0273866
0.0279948
0.0285571
0.0290787
0.0295693
0.0300443
0.0305275
0.0310513
0.0316573
0.0323927
0.0333012
0.000150781
0.000313544
0.000501514
0.000842992
0.00127925
0.00179742
0.00239537
0.00307546
0.00384118
0.00469538
0.00563525
0.0066497
0.00772373
0.0088428
0.00999283
0.0111618
0.0123397
0.0135181
0.0146901
0.0158504
0.0169945
0.0181185
0.0192185
0.0202911
0.0213326
0.0223394
0.0233081
0.0242355
0.0251183
0.0259534
0.0267383
0.0274703
0.0281478
0.0287699
0.0293375
0.0298541
0.0303266
0.0307672
0.0311954
0.0316396
0.032138
0.0327373
0.0334875
0.000158474
0.000314062
0.000506246
0.000851601
0.00129148
0.00181242
0.00241268
0.00309466
0.00386188
0.00471737
0.00565958
0.00667974
0.00776455
0.00889973
0.0100717
0.0112677
0.0124766
0.0136893
0.0148982
0.0160972
0.0172815
0.0184467
0.0195886
0.0207037
0.0217879
0.0228375
0.0238486
0.0248175
0.0257406
0.026614
0.0274344
0.0281986
0.0289038
0.0295478
0.0301301
0.0306525
0.0311193
0.03154
0.03193
0.0323135
0.0327244
0.0332068
0.0338102
0.000165238
0.000314121
0.000510259
0.000858872
0.00130173
0.00182469
0.00242652
0.00310948
0.00387724
0.00473288
0.00567589
0.00669947
0.0077922
0.00894063
0.0101314
0.0113514
0.0125886
0.0138333
0.0150771
0.0163132
0.0175362
0.0187412
0.019924
0.0210806
0.0222071
0.0232994
0.0243535
0.025365
0.0263299
0.0272441
0.0281035
0.0289042
0.0296424
0.030315
0.03092
0.0314574
0.0319297
0.0323432
0.0327102
0.0330504
0.0333934
0.0337793
0.0342575
0.000171228
0.000313756
0.000513705
0.000865043
0.00131025
0.00183451
0.0024371
0.00312041
0.00388777
0.0047425
0.00568501
0.00671
0.007808
0.00896672
0.0101731
0.011414
0.012677
0.0139512
0.0152278
0.0164989
0.0177588
0.0190022
0.0202245
0.0214215
0.0225893
0.0237237
0.0248203
0.0258747
0.0268823
0.0278387
0.0287392
0.0295793
0.0303546
0.031061
0.0316952
0.0322555
0.0327423
0.0331599
0.0335171
0.0338298
0.034123
0.0344327
0.0348058
0.000176629
0.00031301
0.000516601
0.000870182
0.00131702
0.00184203
0.00244477
0.0031277
0.00389405
0.00474707
0.00568775
0.00671248
0.00781328
0.00897955
0.0101985
0.0114573
0.0127431
0.0140443
0.0153512
0.0166554
0.0179501
0.01923
0.0204902
0.0217264
0.0229342
0.0241096
0.025248
0.0263448
0.0273951
0.0283943
0.0293371
0.0302187
0.0310337
0.0317776
0.0324458
0.0330352
0.0335445
0.0339756
0.0343346
0.0346337
0.0348935
0.0351452
0.0354311
0.000181399
0.000311919
0.000518986
0.000874384
0.00132231
0.00184752
0.00244983
0.00313161
0.0038961
0.00474664
0.00568463
0.00670762
0.00780921
0.00898034
0.0102091
0.0114827
0.0127885
0.014114
0.0154487
0.0167835
0.0181112
0.0194258
0.0207222
0.0219958
0.0232423
0.0244572
0.0256361
0.0267743
0.0278669
0.0289087
0.0298944
0.0308183
0.031675
0.0324588
0.0331645
0.0337878
0.0343258
0.0347783
0.0351489
0.0354464
0.0356873
0.0358976
0.0361135
0.000185495
0.000310572
0.000520898
0.000877791
0.00132621
0.00185115
0.00245247
0.00313255
0.00389455
0.00474182
0.00567612
0.00669611
0.00779684
0.00897022
0.0102059
0.0114917
0.0128144
0.0141616
0.0155216
0.0168848
0.0182434
0.0195907
0.0209213
0.0222306
0.0235139
0.0247669
0.0259849
0.0271634
0.0282972
0.029381
0.0304091
0.0313757
0.0322749
0.0331004
0.0338461
0.0345067
0.0350782
0.0355583
0.0359486
0.0362548
0.0364897
0.0366749
0.0368429
0.000188971
0.000308909
0.00052233
0.000880517
0.00132889
0.0018531
0.00245306
0.00313083
0.00388975
0.00473308
0.00566287
0.00667867
0.00777682
0.00895051
0.0101906
0.0114855
0.0128225
0.0141884
0.0155712
0.0169608
0.018348
0.0197261
0.021089
0.022432
0.0237504
0.0250397
0.0262952
0.0275124
0.0286861
0.0298107
0.0308806
0.0318897
0.0328315
0.0336994
0.0344867
0.0351873
0.0357957
0.0363084
0.0367248
0.0370482
0.0372879
0.0374619
0.0375987
0.000191933
0.000306947
0.000523342
0.000882458
0.00133043
0.00185346
0.00245155
0.00312667
0.00388202
0.00472083
0.00564541
0.00665603
0.00775012
0.00892219
0.0101643
0.0114658
0.012814
0.014196
0.0155993
0.0170126
0.0184265
0.0198332
0.0212267
0.0226014
0.023953
0.0252768
0.0265682
0.0278224
0.0290343
0.0301985
0.031309
0.0323597
0.0333438
0.0342544
0.0350842
0.035826
0.0364739
0.0370229
0.0374703
0.0378175
0.0380709
0.0382443
0.0383619
0.000194551
0.000304663
0.00052394
0.000883737
0.00133104
0.0018525
0.00244821
0.0031203
0.00387167
0.00470558
0.00562432
0.00662882
0.00771755
0.00888636
0.0101282
0.0114336
0.0127905
0.014186
0.0156071
0.0170419
0.0184801
0.0199135
0.0213354
0.0227402
0.0241231
0.0254795
0.0268049
0.0280944
0.0293429
0.030545
0.0316948
0.032786
0.0338115
0.0347644
0.0356368
0.0364209
0.0371097
0.0376975
0.0381799
0.038556
0.0388296
0.0390106
0.0391173
0.000196713
0.000302135
0.000524175
0.000884299
0.00133046
0.00185009
0.0024432
0.00311185
0.00385882
0.00468725
0.00559977
0.00659754
0.0076798
0.00884379
0.0100835
0.0113904
0.0127535
0.0141598
0.015596
0.0170498
0.0185102
0.0199683
0.0214167
0.0228497
0.024262
0.0256492
0.0270066
0.0283295
0.029613
0.0308514
0.032039
0.0331691
0.0342351
0.0352293
0.0361438
0.0369704
0.0377012
0.0383294
0.0388494
0.0392585
0.0395579
0.0397537
0.0398586
0.000198378
0.000299457
0.000523955
0.0008841
0.00132896
0.00184646
0.00243661
0.00310143
0.00384361
0.00466621
0.00557192
0.00656238
0.00763753
0.00879519
0.0100309
0.0113373
0.0127041
0.0141187
0.0155676
0.017038
0.0185184
0.0199991
0.0214721
0.0229313
0.0243713
0.0257873
0.0271749
0.0285294
0.0298459
0.0311189
0.0323425
0.0335102
0.0346151
0.0356496
0.0366056
0.0374743
0.0382473
0.0389169
0.0394765
0.0399218
0.0402516
0.0404689
0.0405819
0.000199638
0.000296633
0.000523429
0.000883311
0.00132656
0.00184169
0.00242862
0.00308924
0.00382626
0.00464269
0.00554126
0.00652383
0.00759102
0.00874144
0.00997167
0.0112755
0.0126436
0.0140638
0.015523
0.0170079
0.0185061
0.0200073
0.021503
0.0229866
0.0244524
0.0258955
0.0273114
0.0286956
0.0300433
0.0313489
0.0326068
0.0338104
0.0349528
0.0360262
0.0370225
0.0379328
0.0387478
0.0394592
0.0400597
0.0405435
0.0409076
0.0411528
0.0412855
0.000200464
0.000293707
0.000522542
0.00088188
0.00132333
0.00183581
0.0024193
0.00307543
0.00380701
0.00461697
0.005508
0.00648222
0.00754072
0.00868289
0.00990637
0.0112059
0.012573
0.0139967
0.0154638
0.0169608
0.0184748
0.0199945
0.0215111
0.0230171
0.0245068
0.0259752
0.0274178
0.0288299