/*--------------------------------*- C++ -*----------------------------------*\
| =========                 |                                                 |
| \\      /  F ield         | OpenFOAM: The Open Source CFD Toolbox           |
|  \\    /   O peration     | Version:  2.3.0                                 |
|   \\  /    A nd           | Web:      www.OpenFOAM.org                      |
|    \\/     M anipulation  |                                                 |
\*---------------------------------------------------------------------------*/
FoamFile
{
    version     2.0;
    format      ascii;
    class       surfaceScalarField;
    location    "7000";
    object      phi;
}
// * * * * * * * * * * * * * * * * * * * * * * * * * * * * * * * * * * * * * //

dimensions      [0 3 -1 0 0 0 0];

internalField   nonuniform List<scalar> 
13223
(
-0.0255314
-0.0201693
0.0229735
0.0227312
-0.0275894
-0.0163715
0.0184295
-0.0289314
-0.0132374
0.0145794
-0.0296045
-0.0106481
0.0113212
-0.0296963
-0.00850696
0.00859876
-0.0293254
-0.00674173
0.00637083
-0.0286282
-0.00529449
0.00459728
-0.0277292
-0.00411692
0.00321796
-0.0267248
-0.00316571
0.00216127
-0.0256929
-0.00241442
0.00138258
-0.0247285
-0.0018292
0.000864729
-0.00136987
-0.0240596
0.000700991
-0.0219426
-0.0180554
0.0198287
-0.023434
-0.0148801
-0.0243974
-0.012274
-0.0249097
-0.0101358
-0.0250254
-0.00839131
-0.0248005
-0.00696666
-0.0242852
-0.0058098
-0.0235258
-0.00487629
-0.0225658
-0.0041257
-0.0214528
-0.00352737
-0.0202301
-0.0030519
-0.00267677
-0.0189232
-0.0190871
-0.0163517
0.0173833
-0.0202014
-0.0137658
-0.0208366
-0.0116388
-0.0210811
-0.00989125
-0.0210148
-0.00845759
-0.020701
-0.00728049
-0.0201936
-0.00631717
-0.019542
-0.00552794
-0.018781
-0.00488665
-0.0179441
-0.00436434
-0.0170534
-0.00394256
-0.00360421
-0.016126
-0.0167397
-0.0149169
0.0153049
-0.0176693
-0.0128362
-0.0181888
-0.0111194
-0.0183799
-0.00970018
-0.018306
-0.00853151
-0.0180225
-0.00756396
-0.0175732
-0.00676651
-0.0169924
-0.00610868
-0.0163168
-0.0055623
-0.0155649
-0.00511627
-0.0147609
-0.00474658
-0.00444676
-0.0139183
-0.0147464
-0.0136914
0.013521
-0.0155367
-0.0120459
-0.0159752
-0.0106809
-0.0161278
-0.00954762
-0.0160544
-0.0086049
-0.0158008
-0.00781751
-0.015405
-0.00716235
-0.014899
-0.00661471
-0.0143054
-0.00615591
-0.013648
-0.00577364
-0.0129391
-0.00545547
-0.00519189
-0.012194
-0.013052
-0.0126099
0.0119705
-0.0137508
-0.011347
-0.0141394
-0.0102923
-0.0142799
-0.00940717
-0.0142184
-0.00866637
-0.0139972
-0.00803872
-0.0136492
-0.00751039
-0.0132005
-0.00706336
-0.0126704
-0.00668603
-0.012079
-0.00636506
-0.0114408
-0.00609369
-0.00586596
-0.0107667
-0.0115922
-0.0116422
0.0106244
-0.0122217
-0.0107175
-0.012576
-0.00993805
-0.0127054
-0.00927772
-0.0126586
-0.00871319
-0.0124651
-0.0082322
-0.0121555
-0.00782004
-0.011755
-0.00746383
-0.0112825
-0.00715857
-0.0107511
-0.00689645
-0.0101733
-0.00667152
-0.00647843
-0.0095608
-0.0103389
-0.0107726
0.00946938
-0.0109062
-0.0101502
-0.0112294
-0.00961481
-0.0113543
-0.00915282
-0.0113157
-0.00875176
-0.0111459
-0.00840199
-0.0108736
-0.00809238
-0.0105148
-0.00782259
-0.0100873
-0.00758608
-0.00960715
-0.00737663
-0.00908465
-0.00719403
-0.00703448
-0.0085286
-0.00924693
-0.00999142
0.00846571
-0.00975871
-0.00963843
-0.0100562
-0.0093173
-0.0101755
-0.00903354
-0.0101467
-0.00878059
-0.00999914
-0.00854952
-0.00975253
-0.00833899
-0.0094308
-0.00814432
-0.00904661
-0.00797027
-0.00861026
-0.00781298
-0.00813568
-0.00766861
-0.00754388
-0.00762628
-0.00828006
0.00757007
-0.00928143
-0.00875232
-0.00916618
-0.00902737
-0.00904226
-0.00913805
-0.00892285
-0.00911788
-0.00880076
-0.00898695
-0.00868045
-0.00876835
-0.00855759
-0.00847943
-0.00843323
-0.00813244
-0.00831726
-0.00773739
-0.00820803
-0.00730388
-0.00810213
-0.0068424
-0.00800536
-0.0216732
-0.00121314
-0.00117325
-0.0196696
-0.0013618
-0.000641781
-0.0177963
-0.00160642
-0.000266867
-0.0160048
-0.00194895
0.000157403
-0.0143069
-0.00240305
0.000705154
-0.0127334
-0.00299847
0.00142498
-0.0113357
-0.00377121
0.00237356
-0.0101834
-0.00476052
0.0036082
-0.00935234
-0.00601795
0.00518685
-0.00891759
-0.00760883
0.00717408
-0.00895652
-0.0096135
0.00965242
-0.0121411
0.0127229
-0.0095383
-0.0175667
-0.00256965
-0.0162224
-0.00270612
-0.0149209
-0.00290791
-0.0136818
-0.00318809
-0.0125206
-0.00356422
-0.0114618
-0.00405724
-0.0105354
-0.00469764
-0.00977563
-0.00552027
-0.00922552
-0.00656806
-0.00894184
-0.0078925
-0.00899692
-0.00955843
-0.0116546
-0.00948342
-0.0151807
-0.00351493
-0.0142304
-0.0036564
-0.0132877
-0.0038506
-0.0123665
-0.00410927
-0.0114834
-0.00444733
-0.0106592
-0.00488145
-0.00992334
-0.00543353
-0.00931235
-0.00613126
-0.00887291
-0.0070075
-0.00866206
-0.00810335
-0.00874704
-0.00947345
-0.0111885
-0.0092131
-0.0130726
-0.00436061
-0.0122503
-0.00447876
-0.0114598
-0.00464108
-0.0107099
-0.00485919
-0.0100138
-0.00514339
-0.00938606
-0.00550919
-0.00884769
-0.00597191
-0.00842565
-0.00655329
-0.00815396
-0.0072792
-0.00807518
-0.00818213
-0.00824669
-0.00930193
-0.0106944
-0.00874084
-0.0114474
-0.00510719
-0.0107315
-0.00519461
-0.0100518
-0.00532078
-0.0094178
-0.00549324
-0.00883948
-0.00572171
-0.00833081
-0.00601785
-0.00790948
-0.00639324
-0.00759898
-0.00686379
-0.00742857
-0.00744961
-0.00743611
-0.00817458
-0.00766902
-0.00906902
-0.0101774
-0.00818604
-0.0100917
-0.00578219
-0.00945066
-0.00583563
-0.00885061
-0.00592083
-0.00829836
-0.00604549
-0.00780289
-0.00621718
-0.00737973
-0.00644101
-0.00704328
-0.00672969
-0.00681421
-0.00709286
-0.00671812
-0.0075457
-0.00678702
-0.00810569
-0.00706045
-0.00879559
-0.00964608
-0.00759173
-0.0089505
-0.00639249
-0.00837421
-0.00641192
-0.0078381
-0.00645693
-0.00734975
-0.00653384
-0.00692026
-0.00664668
-0.00655868
-0.00680259
-0.00628197
-0.0070064
-0.00610854
-0.00726628
-0.00606162
-0.00759262
-0.0061691
-0.0079982
-0.00646639
-0.0084983
-0.00911383
-0.00699864
-0.00797162
-0.00694947
-0.00745035
-0.0069332
-0.0069683
-0.00693897
-0.00653412
-0.00696803
-0.0061547
-0.0070261
-0.00584313
-0.00711415
-0.00561128
-0.00723825
-0.00547857
-0.00739899
-0.00546338
-0.00760781
-0.00559475
-0.00786684
-0.00590239
-0.00819067
-0.00858978
-0.00642644
-0.00712276
-0.00745299
-0.00665099
-0.00740497
-0.00621638
-0.00737358
-0.00582609
-0.00735832
-0.00549071
-0.00736148
-0.00521843
-0.00738643
-0.00502102
-0.00743566
-0.00491628
-0.00750373
-0.00492423
-0.00759986
-0.00506756
-0.00772351
-0.00537315
-0.00788507
-0.00808451
-0.00587842
-0.00638014
-0.00791525
-0.00595028
-0.00783482
-0.00555689
-0.00776698
-0.00520904
-0.00770617
-0.00490765
-0.00766287
-0.00466949
-0.00762459
-0.00449694
-0.00760821
-0.00441753
-0.00758314
-0.00443836
-0.00757903
-0.00458805
-0.00757381
-0.00488374
-0.00758938
-0.00535996
-0.00760829
0.00470351
-0.0035782
0.00409435
-0.00521967
0.00436672
-0.00228734
0.00262412
0.00414774
-0.00126415
0.00148313
0.00398011
-0.000476838
0.000644453
0.00380204
0.000120304
5.7769e-05
0.00355967
0.000574767
-0.000332404
0.00320675
0.00093211
-0.000579193
0.00269868
0.00123827
-0.0007302
0.00198609
0.00153732
-0.000824724
0.00100089
0.0018811
-0.000895904
-0.000361343
0.00233108
-0.00096884
0.00297931
-0.00230062
-0.00104003
0.00398247
-0.00305045
-0.00451022
0.00360628
-0.00191116
0.00332282
-0.000980697
0.00307215
-0.000226173
0.00280042
0.000392034
0.00245942
0.000915759
0.00200725
0.00138427
0.00140831
0.0018372
0.00063209
0.00231353
-0.000341379
0.00285456
-0.00150359
0.00349329
0.00423362
-0.00275791
0.00321503
-0.00251797
-0.00374752
0.00281332
-0.00150946
0.00248985
-0.000657229
0.00219511
6.85595e-05
0.00188475
0.000702397
0.00152113
0.00127938
0.0010724
0.001833
0.000512164
0.00239743
-0.000176945
0.00300263
-0.00100161
0.00367922
-0.00194648
0.00443816
0.0052703
-0.00298317
0.0025195
-0.00200766
-0.00302981
0.00212657
-0.00111653
0.00180648
-0.000337141
0.00151706
0.000357979
0.00122125
0.000998199
0.000887152
0.00161348
0.000487949
0.0022322
2.46788e-06
0.00288291
-0.000587616
0.00359272
-0.0012909
0.0043825
-0.00211312
0.00526037
0.00620946
-0.00305228
0.0019366
-0.00154531
-0.00239895
0.00157784
-0.000757775
0.0012851
-4.44001e-05
0.00102332
0.000619761
0.000760308
0.00126121
0.000467989
0.00190579
0.000121981
0.00257821
-0.000298066
0.00330296
-0.000810313
0.00410496
-0.00142939
0.00500158
-0.00216616
0.00599714
0.00707112
-0.00302782
0.00146815
-0.00113509
-0.00187838
0.00115283
-0.000442455
0.000896938
0.000211493
0.000668841
0.000847856
0.000440699
0.00148935
0.000187617
0.00215888
-0.000112722
0.00287854
-0.000480886
0.00367112
-0.000934218
0.00455829
-0.0014881
0.00555546
-0.00215629
0.00666532
0.00786372
-0.0029489
0.0010984
-0.000783847
-0.00144965
0.00082939
-0.000173443
0.000610395
0.000430488
0.000414791
0.00104346
0.000217908
0.00168623
-1.58064e-06
0.00237836
-0.000265704
0.00314267
-0.000591332
0.00399675
-0.000997213
0.00496417
-0.00149721
0.00605546
-0.00210699
0.0072751
0.00858935
-0.00283262
0.000807972
-0.000492557
-0.00109926
0.000584562
4.99673e-05
0.000399849
0.000615199
0.000232762
0.00121054
6.36095e-05
0.00185538
-0.000127971
0.00256994
-0.000362944
0.00337764
-0.000653164
0.00428697
-0.00101794
0.00532895
-0.00147376
0.00651129
-0.00203085
0.00783219
0.00925456
-0.00269607
0.000584107
-0.000255738
-0.000820927
0.000400569
0.000233503
0.000245208
0.00077056
0.000102756
0.001353
-4.34518e-05
0.00200159
-0.000210733
0.00273722
-0.000422241
0.00358914
-0.000684135
0.00454886
-0.00101725
0.00566207
-0.00143283
0.00692687
-0.00194231
0.00834166
0.00986432
-0.00255207
0.000414781
-6.14839e-05
-0.000609036
0.000267545
0.000380738
0.000136172
0.000901932
1.56578e-05
0.00147351
-0.000108851
0.00212609
-0.000252877
0.00288125
-0.000444939
0.0037812
-0.000680703
0.00478462
-0.000982973
0.00596434
-0.00136794
0.00731183
-0.00183671
0.00881043
-0.00240742
0.010435
-0.00319749
0.00432609
-0.00342921
-0.00446453
0.00597231
-0.00470527
-0.00575286
0.00723665
-0.00594832
-0.00686329
0.00841181
-0.00730138
-0.00774335
0.00972236
-0.0088423
-0.00834395
0.0112242
-0.0106236
-0.00862552
0.0129766
-0.0126951
-0.0085336
0.0150397
-0.0151316
-0.00800777
0.0174746
-0.0180004
-0.00697435
0.0203589
-0.0213923
-0.00534728
0.023768
-0.0253951
0.0278036
-0.0301221
-0.00302885
-0.00382501
0.00539319
-0.00493525
0.00708254
-0.00608833
0.00838973
-0.00706203
0.0093855
-0.0078016
0.0104619
-0.00828649
0.0117091
-0.00847398
0.0131641
-0.008325
0.0148907
-0.0077836
0.0169332
-0.00677804
0.0193533
-0.00523508
0.022225
0.0256248
-0.00305622
-0.00404859
0.00645861
-0.00505554
0.00808948
-0.00605945
0.00939362
-0.00691272
0.0102388
-0.00756276
0.011112
-0.00797371
0.0121201
-0.00812362
0.013314
-0.00796204
0.0147291
-0.00744029
0.0164115
-0.00649596
0.018409
-0.00505745
0.0207865
0.0236046
-0.00303733
-0.00405925
0.00746559
-0.00500667
0.00903689
-0.00588573
0.0102727
-0.00664261
0.0109956
-0.00720906
0.0116784
-0.00757041
0.0124814
-0.0076915
0.0134351
-0.00752874
0.0145663
-0.00704076
0.0159235
-0.00616654
0.0175347
-0.00483925
0.0194592
0.0217475
-0.0029821
-0.00395755
0.00839532
-0.00483926
0.00991859
-0.00563254
0.011066
-0.00629976
0.0116629
-0.00680355
0.0121822
-0.00712137
0.0127992
-0.00722059
0.0135343
-0.00706675
0.0144125
-0.00661168
0.0154684
-0.00580773
0.0167308
-0.00458913
0.0182406
0.0200443
-0.00288596
-0.00380523
0.00925164
-0.00461485
0.0107282
-0.00532355
0.0117747
-0.00592058
0.0122599
-0.00637214
0.0126337
-0.00665247
0.0130795
-0.00673675
0.0136186
-0.00659129
0.014267
-0.00617563
0.0150527
-0.00543755
0.0159927
-0.00432296
0.017126
0.0184855
-0.00276421
-0.00361749
0.0100365
-0.00435741
0.0114681
-0.00499849
0.0124157
-0.00553099
0.0127924
-0.00593225
0.013035
-0.00618052
0.0133278
-0.00625394
0.013692
-0.00611867
0.0141318
-0.00573661
0.0146707
-0.00506453
0.0153206
-0.00404868
0.0161102
0.0170607
-0.00262382
-0.00341688
0.0107573
-0.00408763
0.0121389
-0.00466501
0.0129931
-0.00513799
0.0132653
-0.0054953
0.0133923
-0.00572269
0.0135552
-0.0057853
0.0137546
-0.00566168
0.0140081
-0.00531312
0.0143221
-0.00470072
0.0147082
-0.00377642
0.0151859
0.0157622
-0.00247789
-0.00320498
0.0114102
-0.00381294
0.0127468
-0.00432868
0.0135089
-0.00475289
0.0136896
-0.00507823
0.0137177
-0.00527718
0.0137541
-0.00533652
0.013814
-0.00522259
0.0138942
-0.00490771
0.0140072
-0.00435163
0.0141522
-0.00350723
0.0143415
0.0145843
-0.00232936
-0.0030237
0.0120265
-0.00356249
0.0132856
-0.00401296
0.0139593
-0.00438806
0.0140647
-0.00467673
0.0140063
-0.00485888
0.0139363
-0.00491111
0.0138662
-0.00480767
0.0137908
-0.00452124
0.0137208
-0.00401735
0.0136483
-0.00325225
0.0135764
0.0135052
-0.00217317
0.0021756
-0.00147462
0.00421585
-0.00117552
0.00644633
-0.000847904
0.00895888
-0.00035127
0.0117091
0.000467756
0.014543
0.00176336
0.0172555
0.00365832
0.0196146
0.0062397
0.0213878
0.009548
0.022416
0.0135512
0.0226573
0.0181882
0.0234008
0.02223
-0.000330659
-0.00114399
-8.62345e-05
-0.00141993
0.000620899
-0.00155507
0.0018131
-0.00154346
0.00355254
-0.00127169
0.00589958
-0.000583672
0.00884216
0.000715733
0.0121894
0.0028925
0.015564
0.00617342
0.0184757
0.0106395
0.0204908
0.0161731
0.0224809
0.0214107
-0.000111653
-0.00103234
-0.000217006
-0.00131455
-0.000227776
-0.00154431
-6.0297e-05
-0.00171092
0.000431534
-0.00176353
0.00144884
-0.00160096
0.00320888
-0.00104431
0.00586162
0.000239769
0.00933028
0.00270476
0.0131941
0.00677573
0.0167557
0.0126115
0.0199282
0.0193084
-3.10783e-05
-0.00100127
-3.21429e-05
-0.00131347
-2.49053e-06
-0.00157397
8.33758e-05
-0.00179677
0.000276718
-0.00195687
0.000669532
-0.00199376
0.00142016
-0.00179493
0.00279496
-0.00113502
0.00510299
0.00039674
0.00845173
0.00342699
0.0124511
0.00861211
0.0161771
0.0162022
-2.29623e-05
-0.000978291
-3.90657e-05
-0.00129734
-3.52555e-05
-0.00157777
2.15912e-06
-0.00183417
0.000100728
-0.00205544
0.000307477
-0.00220049
0.000704676
-0.00219212
0.00145068
-0.00188101
0.0028159
-0.000968475
0.00515336
0.00108954
0.00861904
0.00514643
0.0120733
0.0127229
-1.43674e-05
-0.000963918
-1.68745e-05
-0.00129481
-3.92788e-06
-0.00159072
3.10964e-05
-0.00186918
0.000102397
-0.00212674
0.000236618
-0.0023347
0.000480878
-0.00243638
0.000926093
-0.00232621
0.00174692
-0.00178929
0.00324166
-0.000405194
0.00580235
0.00258576
0.00836394
0.0095117
-7.41182e-06
-0.000956485
-6.68536e-06
-0.00129551
6.29864e-06
-0.0016037
3.6042e-05
-0.0018989
9.16739e-05
-0.00218236
0.000190816
-0.00243383
0.000363209
-0.00260876
0.000664157
-0.00262715
0.00120498
-0.0023301
0.00219244
-0.00139264
0.0039803
0.000797906
0.00537719
0.00696706
-3.28805e-06
-0.000953183
2.87958e-06
-0.00130165
1.9411e-05
-0.00162023
4.95259e-05
-0.00192899
9.97741e-05
-0.0022326
0.000182291
-0.00251633
0.000317451
-0.00274391
0.000541705
-0.00285139
0.000928128
-0.00271651
0.00162204
-0.00208654
0.00288836
-0.00046841
0.0030862
0.00517936
7.89511e-07
-0.000953947
9.91566e-06
-0.00131075
2.79905e-05
-0.00163829
5.75322e-05
-0.00195851
0.000104448
-0.00227951
0.000176738
-0.0025886
0.000290345
-0.0028575
0.000470903
-0.00303194
0.000767544
-0.00301314
0.00128243
-0.00260141
0.00220902
-0.00139499
0.00138333
0.0039119
3.71491e-06
-0.000957638
1.47098e-05
-0.00132171
3.36975e-05
-0.00165727
6.32846e-05
-0.00198808
0.000107151
-0.00232337
0.000173011
-0.00265445
0.000272056
-0.00295654
0.00042368
-0.00318355
0.000664226
-0.00325367
0.00106556
-0.00300274
0.00176862
-0.00209805
0.000108252
0.00304372
5.54854e-06
-0.000963158
1.71085e-05
-0.00133324
3.62663e-05
-0.00167642
6.48874e-05
-0.00201668
0.000106169
-0.00236464
0.000165759
-0.00271402
0.000253048
-0.00304382
0.000383221
-0.00331371
0.00058282
-0.00345326
0.000904684
-0.00332459
0.00145361
-0.00264696
-0.000854001
0.00241587
6.76809e-06
-0.000969897
1.87808e-05
-0.00134522
3.76286e-05
-0.00169525
6.50756e-05
-0.0020441
0.000103724
-0.00240328
0.000158393
-0.00276867
0.000236494
-0.00312191
0.000350397
-0.0034276
0.000520899
-0.00362375
0.000788045
-0.00359173
0.00123011
-0.00308903
-0.00162625
0.00200237
7.61539e-06
-0.000977485
1.96978e-05
-0.00135727
3.82167e-05
-0.00171376
6.45522e-05
-0.00207042
0.000101204
-0.00243992
0.000151767
-0.00281922
0.000222795
-0.00319292
0.00032457
-0.00352936
0.000474139
-0.00377331
0.000704372
-0.00382195
0.00108247
-0.00346712
-0.00228465
0.00174088
7.96436e-06
-0.000985418
2.00985e-05
-0.00136938
3.81899e-05
-0.00173183
6.37248e-05
-0.00209593
9.83759e-05
-0.00247456
0.000145605
-0.00286643
0.000210748
-0.00325805
0.000302456
-0.00362105
0.000434902
-0.00390574
0.000635065
-0.0040221
0.000957414
-0.00378947
-0.00284137
0.00151414
8.13664e-06
-0.000993529
2.03074e-05
-0.00138152
3.81057e-05
-0.00174962
6.26731e-05
-0.00212048
9.56944e-05
-0.00250757
0.000140039
-0.00291076
0.000200223
-0.00331823
0.000283351
-0.00370417
0.000401091
-0.00402347
0.000574412
-0.00419542
0.000846341
-0.00406139
-0.00330059
0.00130557
8.32129e-06
-0.00100182
2.06263e-05
-0.00139379
3.82878e-05
-0.00176727
6.22284e-05
-0.0021444
9.3969e-05
-0.0025393
0.000136246
-0.00295302
0.00019273
-0.0033747
0.00026974
-0.00378117
0.000376636
-0.00413035
0.000530327
-0.0043491
0.000764764
-0.00429583
-0.00368433
0.0011485
8.62915e-06
-0.00101043
2.11935e-05
-0.00140633
3.86614e-05
-0.00178472
6.22261e-05
-0.00216795
9.33003e-05
-0.00257036
0.000133974
-0.00299368
0.000188052
-0.00342876
0.000260824
-0.00385393
0.00036056
-0.00423007
0.000501574
-0.00449011
0.00071137
-0.00450562
-0.00401842
0.00104547
8.9763e-06
-0.00101937
2.16846e-05
-0.00141901
3.92772e-05
-0.0018023
6.24977e-05
-0.00219115
9.27871e-05
-0.00260064
0.000132332
-0.00303321
0.000184441
-0.00348086
0.000254099
-0.00392357
0.000349054
-0.00432502
0.000482199
-0.00462324
0.000678621
-0.00470204
-0.00433468
0.000994881
9.21253e-06
-0.00102857
2.20396e-05
-0.00143181
3.9438e-05
-0.00181969
6.22762e-05
-0.00221397
9.18101e-05
-0.00263016
0.000130054
-0.00307144
0.000180042
-0.00353084
0.000246253
-0.00398977
0.000335452
-0.00441421
0.000458529
-0.00474631
0.000636078
-0.00487958
-0.00460107
0.000902476
9.41253e-06
-0.00103795
2.2264e-05
-0.00144464
3.94486e-05
-0.00183686
6.18538e-05
-0.00223635
9.06036e-05
-0.00265891
0.000127673
-0.0031085
0.00017585
-0.00357901
0.000239311
-0.00405322
0.000324443
-0.00449933
0.000440938
-0.0048628
0.00060697
-0.00504561
-0.00485523
0.000861129
9.48218e-06
-0.00104742
2.21625e-05
-0.0014573
3.90707e-05
-0.00185376
6.088e-05
-0.00225815
8.87167e-05
-0.00268673
0.000124415
-0.00314418
0.000170582
-0.00362517
0.00023114
-0.00411377
0.000311532
-0.00457971
0.000420471
-0.00497173
0.000573301
-0.00519844
-0.00508343
0.000801505
9.49464e-06
-0.00105688
2.19527e-05
-0.00146973
3.84318e-05
-0.00187023
5.95804e-05
-0.00227928
8.64642e-05
-0.00271361
0.000120801
-0.00317851
0.000165086
-0.00366944
0.000222883
-0.00417156
0.000299503
-0.00465633
0.000402556
-0.00507478
0.000545316
-0.00534119
-0.00529135
0.000753234
9.32775e-06
-0.0010662
2.15035e-05
-0.00148189
3.74687e-05
-0.00188619
5.77828e-05
-0.00229958
8.35853e-05
-0.0027394
0.00011639
-0.0032113
0.00015858
-0.00371162
0.00021355
-0.00422652
0.000286229
-0.004729
0.000383774
-0.00517232
0.00051825
-0.00547567
-0.00548778
0.000714683
9.14962e-06
-0.00107532
2.09198e-05
-0.00149363
3.62581e-05
-0.00190151
5.57441e-05
-0.00231905
8.03625e-05
-0.00276402
0.000111585
-0.00324252
0.000151571
-0.0037516
0.000203509
-0.00427845
0.000271647
-0.00479713
0.000362415
-0.00526308
0.000485769
-0.00559902
-0.00565639
0.000654385
8.85422e-06
-0.00108416
2.0227e-05
-0.00150499
3.49385e-05
-0.00191622
5.3672e-05
-0.00233777
7.71166e-05
-0.00278745
0.000106827
-0.00327222
0.000144907
-0.00378968
0.00019426
-0.0043278
0.000259279
-0.00486214
0.000346267
-0.00535006
0.0004657
-0.00571844
-0.00583029
0.000639618
8.58467e-06
-0.00109272
1.94671e-05
-0.00151585
3.36684e-05
-0.00193041
5.14027e-05
-0.00235549
7.36076e-05
-0.00280965
0.000101783
-0.00330038
0.000137635
-0.00382552
0.000183934
-0.00437409
0.000244614
-0.00492281
0.000324986
-0.00543042
0.000433911
-0.00582735
-0.00598724
0.000590876
8.35302e-06
-0.00110106
1.90412e-05
-0.00152652
3.26048e-05
-0.00194397
4.94931e-05
-0.00237237
7.06082e-05
-0.00283076
9.72799e-05
-0.00332705
0.000131417
-0.00385965
0.000175427
-0.00441809
0.000232778
-0.00498016
0.000308418
-0.00550605
0.000409341
-0.00592827
-0.00612069
0.00054282
7.81406e-06
-0.00110885
1.81379e-05
-0.00153683
3.1152e-05
-0.00195697
4.76385e-05
-0.00238885
6.79351e-05
-0.00285105
9.34071e-05
-0.00335251
0.000125889
-0.00389213
0.000167833
-0.00446003
0.000222725
-0.00503504
0.000295627
-0.00557895
0.000394322
-0.00602695
-0.00626009
0.000533722
7.80218e-06
-0.00111664
1.78652e-05
-0.00154688
3.04701e-05
-0.00196958
4.57605e-05
-0.00240413
6.52667e-05
-0.00287055
8.94704e-05
-0.00337671
0.000120048
-0.0039227
0.000159995
-0.00449997
0.000211821
-0.00508686
0.000280393
-0.00564751
0.00037445
-0.006121
-0.00639948
0.000513842
7.73397e-06
-0.00112435
1.75206e-05
-0.00155664
2.97744e-05
-0.00198181
4.46579e-05
-0.002419
6.27141e-05
-0.0028886
8.58313e-05
-0.00339982
0.000115333
-0.0039522
0.000152563
-0.00453719
0.000201116
-0.0051354
0.000264494
-0.00571089
0.000347932
-0.00620442
-0.00650745
0.000455906
7.54461e-06
-0.00113189
1.72873e-05
-0.00156638
2.92308e-05
-0.00199376
4.36101e-05
-0.00243337
6.14449e-05
-0.00290643
8.36131e-05
-0.00342198
0.000111872
-0.00398045
0.000148204
-0.00457352
0.000194969
-0.00518216
0.000255788
-0.0057717
0.000335676
-0.00628432
-0.00661946
0.000447699
7.2271e-06
-0.00113909
1.70299e-05
-0.00157616
2.8727e-05
-0.00200544
4.31365e-05
-0.00244777
6.03636e-05
-0.00292366
8.19188e-05
-0.00344352
0.000109336
-0.00400786
0.000144564
-0.00460874
0.000190073
-0.00522767
0.000249028
-0.00583065
0.000326036
-0.00636131
-0.00672241
0.000428988
7.51882e-06
-0.00114661
1.73534e-05
-0.00158599
2.90915e-05
-0.00201718
4.26484e-05
-0.00246132
5.97068e-05
-0.00294071
8.07185e-05
-0.00346453
0.000107244
-0.00403439
0.000141898
-0.00464339
0.000186607
-0.00527237
0.000244296
-0.00588833
0.000319693
-0.00643671
-0.00682276
0.000420047
7.72452e-06
-0.00115431
1.77768e-05
-0.00159602
2.93543e-05
-0.00202874
4.28885e-05
-0.00247484
5.8955e-05
-0.00295677
7.95227e-05
-0.00348509
0.00010586
-0.00406072
0.000139515
-0.00467704
0.000183441
-0.00531629
0.000240678
-0.00594558
0.000315125
-0.00651115
-0.00692173
0.000414085
8.05648e-06
-0.00116236
1.80817e-05
-0.00160605
2.95469e-05
-0.00204021
4.273e-05
-0.00248802
5.87902e-05
-0.00297283
7.86855e-05
-0.00350498
0.000104313
-0.00408634
0.000137438
-0.00471016
0.000180497
-0.00535935
0.00023668
-0.00600175
0.00030978
-0.00658426
-0.00701845
0.000406509
8.021e-06
-0.00117036
1.79547e-05
-0.00161597
2.92828e-05
-0.00205152
4.26128e-05
-0.00250135
5.81875e-05
-0.0029884
7.76302e-05
-0.00352442
0.000102558
-0.00411127
0.000134951
-0.00474255
0.000177183
-0.00540158
0.000232001
-0.00605658
0.000302701
-0.00665495
-0.00711048
0.000394743
7.86897e-06
-0.00117824
1.84187e-05
-0.00162652
2.97586e-05
-0.00206287
4.21811e-05
-0.00251377
5.74849e-05
-0.0030037
7.64565e-05
-0.00354339
0.000100523
-0.00413533
0.000132456
-0.00477448
0.000174134
-0.00544326
0.000228136
-0.00611057
0.000298113
-0.00672492
-0.00720065
0.000388287
8.46264e-06
-0.00118668
1.87866e-05
-0.00163683
2.98343e-05
-0.0020739
4.20231e-05
-0.00252595
5.64231e-05
-0.0030181
7.46008e-05
-0.00356157
9.84705e-05
-0.0041592
0.000129376
-0.00480539
0.000170328
-0.00548421
0.000224372
-0.00616461
0.000294254
-0.00679482
-0.00729089
0.000384505
8.75344e-06
-0.00119544
1.89029e-05
-0.00164699
2.95186e-05
-0.00208452
4.13324e-05
-0.00253777
5.52316e-05
-0.003032
7.26876e-05
-0.00357903
9.54231e-05
-0.00418194
0.000125572
-0.00483554
0.000165726
-0.00552436
0.000218855
-0.00621775
0.000288307
-0.00686425
-0.00738311
0.000380501
8.64349e-06
-0.00120408
1.84246e-05
-0.00165676
2.87147e-05
-0.00209481
4.00708e-05
-0.00254912
5.31574e-05
-0.00304508
6.96518e-05
-0.00359552
9.12894e-05
-0.00420357
0.000120142
-0.00486439
0.000158983
-0.0055632
0.00021045
-0.00626921
0.000277332
-0.00693115
-0.00746506
0.000359287
8.35093e-06
-0.00121244
1.83391e-05
-0.00166676
2.80754e-05
-0.00210455
3.80619e-05
-0.00255911
5.03133e-05
-0.00305734
6.57263e-05
-0.00361093
8.58473e-05
-0.0042237
0.000113745
-0.00489228
0.000151478
-0.00560093
0.000202656
-0.00632039
0.0002709
-0.00699937
-0.00755747
0.00036329
8.55884e-06
-0.00122099
1.78268e-05
-0.00167603
2.66643e-05
-0.00211339
3.57479e-05
-0.0025682
4.63299e-05
-0.00306792
6.00539e-05
-0.00362466
7.88953e-05
-0.00424254
0.000104306
-0.00491769
0.000139559
-0.00563618
0.000187871
-0.00636869
0.00025289
-0.0070644
-0.00764264
0.000338071
8.61453e-06
-0.00122962
1.71351e-05
-0.00168456
2.48484e-05
-0.00212111
3.28019e-05
-0.00257616
4.20456e-05
-0.00307717
5.40906e-05
-0.00363671
7.06744e-05
-0.00425912
9.39924e-05
-0.00494101
0.000126797
-0.00566898
0.000172326
-0.00641423
0.000233769
-0.00712583
-0.00771949
0.000310603
8.03522e-06
-0.00123766
1.59072e-05
-0.00169243
2.2235e-05
-0.00212744
2.88574e-05
-0.00258278
3.63314e-05
-0.00308465
4.63395e-05
-0.00364672
6.06193e-05
-0.00427341
8.13505e-05
-0.00496174
0.000111735
-0.00569937
0.000155519
-0.00645801
0.000217889
-0.00718822
-0.00780879
0.000307186
7.37746e-06
-0.00124505
1.35327e-05
-0.0016986
1.88676e-05
-0.00213278
2.35992e-05
-0.00258752
2.91685e-05
-0.00309022
3.6784e-05
-0.00365434
4.80426e-05
-0.00428467
6.53642e-05
-0.00497907
9.12638e-05
-0.00572528
0.000129277
-0.00649603
0.000184021
-0.00724296
-0.00788687
0.000262093
7.1836e-06
-0.00125224
1.25525e-05
-0.00170398
1.59596e-05
-0.00213619
1.8564e-05
-0.00259013
2.14734e-05
-0.00309313
2.59666e-05
-0.00365884
3.42175e-05
-0.00429293
4.80008e-05
-0.00499286
6.91849e-05
-0.00574646
0.000101937
-0.00652878
0.000149662
-0.0072907
-0.00795171
0.000214506
6.88521e-06
-0.00125914
1.06619e-05
-0.00170777
1.21649e-05
-0.0021377
1.17622e-05
-0.00258974
1.24082e-05
-0.00309379
1.47559e-05
-0.00366119
1.94935e-05
-0.00429767
2.88691e-05
-0.00500224
4.61957e-05
-0.00576379
7.40766e-05
-0.00655667
0.000117221
-0.00733384
-0.00801927
0.000184773
5.72459e-06
-0.00126488
8.20057e-06
-0.00171026
7.57589e-06
-0.00213708
5.79655e-06
-0.00258797
3.4674e-06
-0.00309146
1.56722e-06
-0.0036593
2.84217e-06
-0.00429895
8.05794e-06
-0.00500746
2.02327e-05
-0.00577597
4.22284e-05
-0.00657867
7.74845e-05
-0.00736911
-0.00806749
0.000125706
4.60767e-06
-0.00126951
5.09451e-06
-0.00171076
2.33932e-06
-0.00213434
-2.21765e-06
-0.00258342
-7.52847e-06
-0.00308616
-1.24442e-05
-0.00365439
-1.53409e-05
-0.00429606
-1.48712e-05
-0.00500794
-7.76093e-06
-0.00578309
9.10433e-06
-0.00659554
3.97583e-05
-0.00739976
-0.00812204
9.42987e-05
3.49431e-06
-0.00127301
9.00655e-07
-0.00170818
-4.31026e-06
-0.00212913
-1.12504e-05
-0.00257649
-1.97511e-05
-0.00307767
-2.89413e-05
-0.00364521
-3.7417e-05
-0.00428759
-4.13005e-05
-0.00500406
-4.03326e-05
-0.00578407
-3.04442e-05
-0.00660544
-7.91205e-06
-0.0074223
-0.00815777
2.78039e-05
1.86606e-06
-0.0012749
-2.06686e-06
-0.00170427
-9.95961e-06
-0.00212126
-2.06891e-05
-0.00256577
-3.43202e-05
-0.00306404
-4.66529e-05
-0.00363288
-5.94575e-05
-0.00427479
-7.00484e-05
-0.00499348
-7.52704e-05
-0.00577885
-7.21754e-05
-0.00660854
-5.68168e-05
-0.00743767
-0.00819078
-2.38153e-05
-7.81143e-07
-0.00127413
-6.47946e-06
-0.00169858
-1.74411e-05
-0.0021103
-3.23783e-05
-0.00255084
-4.84363e-05
-0.00304799
-6.75383e-05
-0.00361379
-8.52571e-05
-0.00425708
-0.000102085
-0.00497666
-0.000114795
-0.00576614
-0.000119559
-0.00660378
-0.000112156
-0.00744508
-0.00821083
-9.21211e-05
-3.08301e-06
-0.00127107
-1.15982e-05
-0.00169008
-2.58832e-05
-0.00209603
-4.42329e-05
-0.00253251
-6.57338e-05
-0.0030265
-8.94638e-05
-0.00359007
-0.000114191
-0.00423236
-0.000138807
-0.00495205
-0.000158299
-0.00574666
-0.000170885
-0.0065912
-0.00016952
-0.00744645
-0.00823709
-0.000143269
-5.16904e-06
-0.00126592
-1.79406e-05
-0.00167733
-3.61344e-05
-0.00207784
-5.85469e-05
-0.0025101
-8.51787e-05
-0.00299988
-0.000115433
-0.00355982
-0.000148247
-0.00419955
-0.000179683
-0.00492062
-0.000210095
-0.00571625
-0.000234456
-0.00656684
-0.000246322
-0.0074346
-0.00824611
-0.000237302
-7.74657e-06
-0.0012582
-2.3377e-05
-0.00166171
-4.58937e-05
-0.00205534
-7.39086e-05
-0.0024821
-0.000107724
-0.00296607
-0.000143635
-0.00352392
-0.000183729
-0.00415947
-0.000225692
-0.00487866
-0.000267147
-0.0056748
-0.000302948
-0.00653105
-0.000329763
-0.00740779
-0.00823626
-0.000339627
-1.08879e-05
-0.00124733
-3.0621e-05
-0.00164199
-5.78026e-05
-0.00202817
-9.18569e-05
-0.00244805
-0.000130359
-0.00292758
-0.000174855
-0.00347943
-0.000223744
-0.00411059
-0.000275625
-0.00482679
-0.000328173
-0.00562226
-0.000377832
-0.0064814
-0.000419698
-0.00736593
-0.00820749
-0.000448475
-1.46085e-05
-0.00123274
-3.76543e-05
-0.00161897
-7.01433e-05
-0.00199569
-0.000109842
-0.00240836
-0.000156299
-0.00288113
-0.000209873
-0.00342586
-0.00026763
-0.00405284
-0.000330459
-0.00476397
-0.000395207
-0.00555752
-0.000457935
-0.00641867
-0.000512947
-0.00731093
-0.0081715
-0.000548935
-1.79241e-05
-0.00121483
-4.73779e-05
-0.00158953
-8.47693e-05
-0.00195831
-0.000131339
-0.0023618
-0.000185373
-0.00282711
-0.000247549
-0.00336369
-0.000317426
-0.00398297
-0.000392367
-0.00468903
-0.00047053
-0.00547936
-0.00055002
-0.00633919
-0.000621432
-0.00723952
-0.00811239
-0.000680553
-2.1986e-05
-0.00119287
-5.60785e-05
-0.00155545
-0.00010126
-0.00191315
-0.000154263
-0.00230881
-0.000217389
-0.00276399
-0.000289199
-0.00329189
-0.000370031
-0.00390214
-0.000458798
-0.00460027
-0.000553518
-0.00538464
-0.000648049
-0.00624466
-0.000738778
-0.0071488
-0.00803846
-0.000812704
-2.67836e-05
-0.00116611
-6.66931e-05
-0.00151555
-0.000118028
-0.00186182
-0.000180577
-0.00224626
-0.000252985
-0.00269159
-0.000335421
-0.00320946
-0.000429154
-0.00380841
-0.000532589
-0.00449684
-0.000643546
-0.00527369
-0.00075788
-0.00613033
-0.000868496
-0.00703818
-0.00794227
-0.00096469
-3.21444e-05
-0.00113398
-7.82051e-05
-0.0014695
-0.00013725
-0.00180279
-0.00020787
-0.00217565
-0.000290793
-0.00260868
-0.000386869
-0.00311338
-0.000494076
-0.00370121
-0.000613725
-0.00437719
-0.000743028