/*--------------------------------*- C++ -*----------------------------------*\
| =========                 |                                                 |
| \\      /  F ield         | OpenFOAM: The Open Source CFD Toolbox           |
|  \\    /   O peration     | Version:  2.3.0                                 |
|   \\  /    A nd           | Web:      www.OpenFOAM.org                      |
|    \\/     M anipulation  |                                                 |
\*---------------------------------------------------------------------------*/
FoamFile
{
    version     2.0;
    format      ascii;
    class       volScalarField;
    location    "3000";
    object      nut;
}
// * * * * * * * * * * * * * * * * * * * * * * * * * * * * * * * * * * * * * //

dimensions      [0 2 -1 0 0 0 0];

internalField   nonuniform List<scalar> 
37496
(
0.0708584
0.0692163
0.0675715
0.065924
0.0642736
0.0626212
0.0609672
0.0593123
0.0576571
0.0560024
0.0543489
0.0526972
0.0510482
0.0494028
0.0477617
0.0461252
0.0444947
0.042871
0.0412546
0.0396464
0.0380471
0.0364579
0.0348798
0.0333132
0.0317593
0.0302195
0.0286955
0.0271889
0.0257014
0.0242358
0.0227969
0.0213901
0.0200226
0.0187048
0.0174485
0.0162672
0.0151788
0.0141981
0.0132905
0.012313
0.0111053
0.00956279
0.00793156
0.0720263
0.0705734
0.0691193
0.0676636
0.0662066
0.064748
0.0632884
0.0618276
0.0603665
0.0589052
0.0574439
0.0559834
0.0545239
0.0530663
0.0516106
0.0501574
0.0487076
0.0472616
0.0458201
0.0443841
0.0429542
0.0415317
0.0401176
0.0387127
0.0373185
0.0359369
0.0345696
0.0332185
0.0318864
0.0305763
0.0292929
0.0280415
0.0268284
0.0256609
0.0245499
0.0235071
0.0225468
0.0216854
0.0209414
0.0203298
0.0198651
0.0195636
0.0194411
0.0731083
0.071816
0.0705239
0.0692312
0.067937
0.0666411
0.0653435
0.0640445
0.0627442
0.0614424
0.0601394
0.0588357
0.0575314
0.0562269
0.0549222
0.0536182
0.0523147
0.0510125
0.0497124
0.0484152
0.0471217
0.0458328
0.0445499
0.0432744
0.0420081
0.0407522
0.03951
0.0382837
0.0370763
0.0358918
0.034735
0.0336115
0.0325282
0.0314933
0.0305157
0.0296062
0.0287769
0.0280411
0.0274124
0.0269035
0.0265257
0.0262884
0.0261961
0.0741039
0.0729505
0.0717988
0.0706453
0.0694899
0.0683319
0.0671714
0.0660084
0.0648428
0.0636743
0.0625032
0.0613294
0.0601534
0.0589754
0.0577955
0.0566142
0.0554312
0.0542472
0.0530627
0.0518789
0.0506966
0.0495163
0.0483396
0.0471684
0.0460041
0.0448489
0.0437051
0.0425761
0.0414648
0.0403759
0.0393139
0.0382841
0.0372934
0.0363493
0.0354613
0.0346382
0.0338903
0.0332294
0.0326662
0.0322114
0.0318737
0.0316601
0.0315735
0.0750067
0.0739831
0.0729539
0.0719206
0.0708835
0.0698431
0.0687988
0.0677507
0.0666985
0.065642
0.0645811
0.0635157
0.0624463
0.0613732
0.0602965
0.0592164
0.0581328
0.0570462
0.055957
0.0548659
0.053774
0.0526825
0.0515925
0.0505059
0.0494237
0.0483482
0.0472827
0.04623
0.0451933
0.0441774
0.0431871
0.0422274
0.0413048
0.0404265
0.0396009
0.0388365
0.0381429
0.0375303
0.0370081
0.0365856
0.0362709
0.0360697
0.035984
0.0758447
0.0749256
0.0740007
0.0730699
0.0721343
0.0711936
0.070248
0.0692974
0.0683412
0.0673793
0.0664112
0.0654366
0.0644561
0.0634702
0.0624792
0.061483
0.0604816
0.0594757
0.0584654
0.0574507
0.056433
0.055414
0.0543951
0.0533778
0.0523628
0.051352
0.0503489
0.0493571
0.0483795
0.0474206
0.0464857
0.0455795
0.0447084
0.0438795
0.0431002
0.0423784
0.0417228
0.0411436
0.0406488
0.0402473
0.0399466
0.0397518
0.0396654
0.0766116
0.075783
0.0749479
0.0741056
0.0732563
0.0724009
0.0715394
0.0706715
0.0697966
0.068915
0.0680262
0.0671286
0.066222
0.0653082
0.0643889
0.063463
0.0625299
0.0615908
0.0606465
0.059696
0.0587399
0.0577801
0.056819
0.0558587
0.0549005
0.0539437
0.0529909
0.0520482
0.0511181
0.0502047
0.049314
0.0484501
0.0476178
0.0468268
0.0460831
0.0453941
0.0447669
0.0442112
0.0437357
0.0433488
0.0430576
0.0428665
0.0427792
0.0773116
0.0765612
0.075804
0.0750387
0.074263
0.073481
0.0726908
0.0718939
0.0710877
0.070273
0.0694525
0.0686222
0.0677783
0.0669229
0.0660631
0.0651975
0.0643219
0.0634373
0.0625483
0.061653
0.0607494
0.0598386
0.058924
0.0580084
0.0570993
0.0561913
0.0552784
0.0543761
0.0534858
0.0526085
0.0517522
0.0509254
0.0501202
0.049359
0.0486441
0.0479821
0.0473783
0.0468391
0.0463772
0.046001
0.0457162
0.0455274
0.0454387
0.0779549
0.0772663
0.0765735
0.0758787
0.0751665
0.074451
0.0737165
0.0729785
0.0722318
0.0714683
0.0707032
0.0699334
0.0691509
0.0683408
0.0675265
0.0667106
0.0658892
0.0650459
0.0642003
0.0633531
0.0624985
0.0616285
0.0607576
0.0598689
0.0589934
0.0581401
0.0572619
0.0563948
0.0555395
0.0546967
0.0538505
0.0530715
0.0522814
0.0515438
0.0508504
0.0502133
0.0496358
0.0491078
0.0486558
0.0482877
0.0480072
0.0478186
0.0477272
0.00852028
0.0105414
0.0117014
0.0127961
0.0139526
0.0151809
0.016465
0.01779
0.0191434
0.0205172
0.0219065
0.0233061
0.0247141
0.0261295
0.0275492
0.0289742
0.0304028
0.031835
0.0332705
0.0347091
0.0361507
0.0375951
0.0390426
0.0404922
0.0419448
0.0434001
0.0448577
0.0463179
0.0477801
0.0492447
0.0507111
0.0521793
0.0536489
0.0551199
0.056592
0.0580649
0.0595386
0.0610125
0.0624865
0.06396
0.0654324
0.0669026
0.0683702
0.0195074
0.0197701
0.020218
0.0208343
0.0215972
0.0224812
0.023463
0.0245212
0.0256397
0.0268047
0.0280043
0.0292315
0.0304795
0.031742
0.0330171
0.0343003
0.0355903
0.0368853
0.0381838
0.0394847
0.0407878
0.0420923
0.0433976
0.0447041
0.0460112
0.0473186
0.0486264
0.0499346
0.0512428
0.0525511
0.0538596
0.0551679
0.0564759
0.057784
0.0590921
0.0604001
0.0617079
0.0630158
0.0643234
0.0656306
0.0669375
0.0682437
0.0695516
0.0262476
0.0264441
0.0267879
0.0272706
0.0278793
0.028598
0.0294107
0.0303027
0.0312599
0.0322694
0.0333205
0.0344054
0.0355161
0.0366476
0.0377943
0.0389524
0.0401192
0.0412923
0.0424696
0.0436498
0.0448319
0.0460147
0.0471983
0.0483813
0.0495636
0.050745
0.0519255
0.0531045
0.054282
0.055458
0.0566326
0.0578055
0.0589771
0.0601472
0.0613161
0.0624839
0.0636507
0.0648169
0.0659822
0.0671469
0.0683108
0.0694741
0.0706382
0.0316125
0.0317771
0.0320682
0.0324799
0.0330029
0.0336255
0.034336
0.0351227
0.0359727
0.0368749
0.0378206
0.0388013
0.0398098
0.0408396
0.0418862
0.0429454
0.0440136
0.0450883
0.0461672
0.0472485
0.048331
0.049414
0.0504962
0.051577
0.052656
0.053733
0.0548072
0.0558784
0.0569464
0.0580118
0.0590741
0.0601336
0.0611902
0.0622438
0.0632948
0.0643438
0.0653908
0.066436
0.0674796
0.0685217
0.0695622
0.0706009
0.0716377
0.0360136
0.0361584
0.0364166
0.0367837
0.0372526
0.0378134
0.0384565
0.0391708
0.0399458
0.0407718
0.0416402
0.0425429
0.0434729
0.0444244
0.0453928
0.0463735
0.047363
0.0483584
0.0493571
0.0503575
0.0513587
0.0523592
0.0533582
0.0543552
0.0553491
0.0563392
0.0573249
0.0583061
0.059283
0.0602559
0.0612247
0.0621887
0.0631482
0.0641034
0.0650549
0.0660031
0.0669482
0.0678903
0.0688294
0.0697662
0.0707006
0.0716322
0.0725622
0.0396882
0.0398188
0.0400545
0.0403913
0.0408227
0.0413402
0.0419346
0.0425965
0.0433165
0.0440856
0.0448955
0.0457386
0.0466082
0.0474985
0.0484052
0.0493233
0.050249
0.0511798
0.0521132
0.0530476
0.0539819
0.054915
0.0558464
0.0567746
0.0576978
0.0586152
0.0595268
0.0604329
0.0613339
0.06223
0.0631203
0.0640039
0.0648811
0.0657532
0.0666204
0.0674833
0.0683416
0.0691953
0.070045
0.0708913
0.0717341
0.0725729
0.0734073
0.0427961
0.0429165
0.0431374
0.043452
0.0438552
0.0443399
0.0448976
0.0455197
0.0461981
0.0469233
0.0476875
0.0484836
0.0493056
0.0501478
0.0510052
0.0518727
0.0527459
0.0536228
0.0545022
0.0553821
0.0562614
0.05714
0.0580164
0.0588878
0.0597513
0.0606067
0.0614557
0.0622992
0.0631375
0.0639698
0.0647941
0.0656088
0.0664158
0.0672172
0.0680132
0.068804
0.0695883
0.0703659
0.0711385
0.0719072
0.0726716
0.0734302
0.0741825
0.0454509
0.0455643
0.0457773
0.0460728
0.0464543
0.0469128
0.0474409
0.0480307
0.0486781
0.0493683
0.0500955
0.0508541
0.0516389
0.0524423
0.0532594
0.0540849
0.0549134
0.0557443
0.0565795
0.0574137
0.0582479
0.0590824
0.0599161
0.0607391
0.0615491
0.062351
0.0631473
0.0639394
0.064727
0.0655071
0.0662744
0.0670275
0.0677742
0.0685172
0.0692536
0.0699837
0.0707037
0.0714147
0.0721212
0.072824
0.0735215
0.0742111
0.0748905
0.047736
0.0478404
0.0480548
0.048326
0.0486922
0.0491286
0.0496284
0.0501859
0.0508145
0.0514756
0.052169
0.0528967
0.0536528
0.0544215
0.0552055
0.0559951
0.0567825
0.0575759
0.0583781
0.0591712
0.059972
0.0607728
0.0615736
0.0623463
0.0631066
0.0638651
0.0646199
0.0653727
0.0661208
0.0668577
0.0675709
0.0682664
0.0689682
0.0696658
0.0703503
0.0710301
0.0716912
0.072346
0.0730001
0.07365
0.0742938
0.0749267
0.0755428
0.0248727
0.0240807
0.0232967
0.0225204
0.0217522
0.0209923
0.0202413
0.0194995
0.0187673
0.0180449
0.0173327
0.0166308
0.0159392
0.0152581
0.0145874
0.0139272
0.0132773
0.0126377
0.0120081
0.0113885
0.0107786
0.0101783
0.00958724
0.00900534
0.00843234
0.0078681
0.00731257
0.0067657
0.00622762
0.0056987
0.00517951
0.00467092
0.00417422
0.00369132
0.0032245
0.00277658
0.00235076
0.00194988
0.00157577
0.0012252
0.000877331
0.000626193
0.000408203
0.0248421
0.0241043
0.0233768
0.0226571
0.0219444
0.0212386
0.0205399
0.0198483
0.019164
0.0184873
0.0178181
0.0171566
0.0165029
0.0158568
0.0152184
0.0145876
0.0139643
0.0133483
0.0127395
0.0121378
0.011543
0.0109549
0.0103732
0.00979795
0.00922891
0.00866594
0.00810918
0.00755861
0.00701445
0.0064772
0.00594758
0.00542646
0.00491526
0.00441552
0.0039293
0.00345887
0.0030059
0.00257143
0.00215352
0.0017465
0.00136726
0.0010376
0.00070421
0.0248109
0.0241311
0.0234588
0.0227929
0.0221325
0.0214775
0.0208277
0.0201829
0.0195432
0.0189086
0.0182793
0.017655
0.0170358
0.0164218
0.0158127
0.0152085
0.0146091
0.0140144
0.0134242
0.0128384
0.0122568
0.0116793
0.0111057
0.010536
0.00997008
0.00940788
0.00884957
0.00829516
0.007745
0.00719962
0.00665969
0.00612613
0.00560012
0.00508293
0.00457604
0.00408067
0.00359689
0.00312247
0.00265
0.00216668
0.00176324
0.00136964
0.000927453
0.0247741
0.0241538
0.0235342
0.0229178
0.0223049
0.0216955
0.0210894
0.0204864
0.0198863
0.0192893
0.0186952
0.0181038
0.0175153
0.0169295
0.0163463
0.0157654
0.015187
0.0146109
0.0140369
0.0134648
0.0128947
0.0123262
0.0117595
0.0111944
0.0106308
0.0100688
0.00950853
0.00895011
0.00839396
0.00784051
0.00729041
0.00674453
0.00620371
0.00566908
0.00514136
0.00462081
0.00410593
0.00359282
0.00307595
0.00256986
0.00210762
0.00163749
0.00110333
0.0247443
0.0241738
0.0236021
0.0230309
0.0224609
0.0218924
0.0213252
0.0207593
0.0201945
0.0196306
0.0190676
0.0185053
0.0179438
0.0173827
0.0168221
0.0162619
0.0157018
0.0151419
0.0145819
0.0140217
0.0134614
0.0129007
0.0123397
0.0117782
0.0112162
0.0106539
0.0100914
0.00952884
0.00896669
0.00840524
0.00784517
0.00728719
0.00673206
0.00618045
0.00563242
0.00508714
0.00454142
0.00398879
0.00342072
0.00289941
0.00239602
0.00185645
0.0012457
0.0247178
0.0241918
0.0236631
0.0231329
0.0226017
0.0220699
0.0215376
0.0210047
0.020471
0.0199366
0.0194011
0.0188645
0.0183266
0.0177875
0.0172468
0.0167047
0.0161608
0.0156151
0.0150674
0.0145176
0.0139656
0.0134115
0.0128553
0.0122966
0.0117358
0.0111728
0.0106078
0.0100411
0.00947296
0.00890374
0.00833409
0.0077646
0.00719582
0.00662801
0.00606062
0.00549172
0.00491658
0.00432661
0.00371219
0.00317097
0.00263459
0.0020362
0.00136206
0.0246935
0.0242079
0.023718
0.0232247
0.0227287
0.02223
0.0217289
0.0212252
0.0207193
0.0202111
0.0197002
0.0191862
0.0186693
0.0181494
0.0176265
0.0171006
0.0165712
0.0160383
0.0155015
0.0149607
0.0144161
0.0138676
0.0133154
0.0127592
0.0121991
0.0116352
0.0110679
0.0104972
0.00992322
0.00934667
0.008768
0.00818766
0.00760598
0.00702288
0.00643723
0.00584643
0.00524463
0.00462291
0.00397539
0.0034057
0.00283562
0.00218503
0.00145812
0.024672
0.0242224
0.0237671
0.0233072
0.022843
0.0223745
0.0219014
0.0214237
0.020942
0.0204572
0.0199689
0.0194753
0.0189767
0.0184735
0.0179663
0.0174549
0.016939
0.0164185
0.0158922
0.0153599
0.0148216
0.0142777
0.013729
0.0131756
0.012616
0.0120512
0.0114821
0.0109079
0.0103289
0.00974541
0.0091583
0.00856789
0.00797414
0.00737651
0.00677392
0.00616278
0.00553713
0.0048903
0.00423016
0.0036212
0.00301149
0.00230795
0.00153393
0.0246544
0.024236
0.0238107
0.0233804
0.0229452
0.0225051
0.0220583
0.021603
0.0211408
0.0206753
0.0202101
0.0197373
0.0192538
0.0187641
0.0182701
0.0177721
0.017269
0.0167619
0.0162478
0.0157249
0.0151932
0.0146522
0.0141046
0.0135577
0.0130003
0.0124326
0.0118631
0.0112876
0.0107054
0.0101157
0.00952097
0.00892226
0.00831773
0.00770644
0.00708778
0.00645785
0.00580928
0.00514034
0.00446958
0.00383316
0.00319014
0.00244563
0.00162284
0.000373333
0.000480641
0.000674063
0.00085708
0.00103186
0.00120016
0.00136378
0.00152517
0.00168784
0.0018571
0.00204054
0.00224712
0.00248282
0.00274868
0.00304377
0.00336576
0.00371318
0.00408517
0.00448152
0.00490236
0.00534791
0.00581854
0.00631503
0.00683766
0.00738725
0.00796412
0.00856898
0.00920221
0.00986461
0.0105568
0.0112798
0.0120344
0.0128214
0.0136418
0.0144964
0.0153863
0.0163125
0.0172759
0.0182773
0.019318
0.0203989
0.0215214
0.0226888
0.000528856
0.000635677
0.000832819
0.00102534
0.00120968
0.001388
0.00156397
0.00174269
0.00193034
0.0021341
0.00236107
0.00261775
0.00290689
0.00322323
0.00356378
0.00392715
0.00431231
0.00471891
0.00514688
0.00559613
0.00606707
0.00656006
0.00707533
0.00761318
0.00817371
0.00875746
0.00936498
0.00999659
0.0106528
0.0113345
0.0120422
0.0127765
0.0135381
0.0143279
0.0151465
0.0159949
0.016874
0.0177845
0.0187271
0.0197028
0.0207128
0.0217589
0.0228448
0.00067352
0.00077521
0.000978413
0.00118103
0.00137672
0.00156934
0.00176499
0.00197082
0.00219384
0.00243996
0.00271365
0.00301878
0.00335471
0.00371399
0.00409408
0.00449391
0.00491286
0.00535057
0.00580694
0.00628199
0.00677576
0.00728835
0.00782008
0.00837075
0.00894042
0.0095295
0.0101384
0.0107674
0.0114169
0.0120874
0.0127794
0.0134935
0.0142301
0.01499
0.0157737
0.0165817
0.0174149
0.0182739
0.0191595
0.0200725
0.021014
0.0219853
0.0229883
0.000799413
0.000897625
0.00110818
0.00132169
0.00153131
0.00174298
0.00196465
0.00220389
0.0024663
0.00275523
0.00307274
0.003422
0.00379778
0.00419379
0.00460811
0.0050398
0.00548829
0.00595335
0.00643482
0.00693228
0.00744573
0.00797529
0.00852052
0.00908159
0.00965841
0.0102512
0.0108602
0.0114858
0.0121281
0.0127875
0.0134644
0.0141591
0.014872
0.0156037
0.0163546
0.0171251
0.0179157
0.0187272
0.0195601
0.020415
0.0212928
0.0221941
0.0231193
0.000906921
0.00100496
0.00122418
0.00144999
0.00167641
0.00191123
0.00216295
0.00243788
0.00273927
0.00306804
0.00342536
0.00381365
0.00422396
0.00465206
0.00509643
0.00555619
0.00603083
0.00651985
0.00702315
0.00754022
0.00807065
0.00861423
0.00917109
0.00974057
0.0103231
0.0109185
0.0115269
0.0121486
0.0127836
0.0134321
0.0140946
0.014771
0.0154619
0.0161674
0.016888
0.0176239
0.0183755
0.0191435
0.0199279
0.0207296
0.021549
0.0223866
0.0232445
0.000998815
0.00109988
0.00132895
0.00156865
0.00181443
0.00207511
0.00235843
0.00266854
0.00300631
0.00337125
0.00376507
0.00418689
0.00462746
0.00508397
0.00555503
0.00603974
0.00653755
0.00704789
0.00757039
0.00810449
0.0086496
0.0092055
0.00977191
0.0103485
0.0109355
0.0115327
0.01214
0.0127577
0.0133856
0.0140238
0.0146727
0.0153322
0.0160025
0.016684
0.0173768
0.0180809
0.0187967
0.0195247
0.0202649
0.0210176
0.0217832
0.022561
0.0233496
0.00107764
0.00118415
0.00142428
0.00167946
0.00194653
0.00223427
0.00254884
0.00289207
0.00326287
0.00366028
0.00408747
0.00453846
0.00500597
0.00548774
0.00598265
0.00648972
0.00700829
0.00753767
0.00807724
0.00862614
0.0091841
0.00975061
0.0103255
0.0109083
0.0114989
0.0120973
0.0127031
0.0133166
0.0139378
0.0145664
0.0152027
0.0158466
0.0164981
0.0171572
0.0178243
0.0184992
0.0191821
0.0198734
0.0205728
0.0212807
0.0219967
0.02272
0.0234498
0.00114676
0.00126259
0.00151401
0.00178501
0.00207333
0.0023875
0.00273179
0.0031054
0.00350586
0.00393282
0.00438961
0.00486654
0.00535843
0.00586326
0.00637968
0.00690709
0.00744447
0.00799097
0.00854574
0.00910821
0.00967808
0.0102546
0.0108367
0.0114249
0.0120188
0.0126176
0.0132211
0.0138301
0.0144451
0.015065
0.0156892
0.0163181
0.0169523
0.0175912
0.0182344
0.0188821
0.0195344
0.0201915
0.0208537
0.0215208
0.022192
0.0228658
0.0235429
0.00120331
0.00131938
0.00158509
0.00187509
0.00219022
0.00253519
0.00290777
0.00330855
0.0037372
0.00419341
0.0046775
0.00518012
0.00569623
0.00622155
0.00675649
0.00730374
0.00786004
0.00842145
0.00898964
0.00956501
0.0101495
0.010735
0.0113197
0.0119136
0.0125094
0.0131036
0.013701
0.0143052
0.0149167
0.015529
0.016139
0.0167526
0.0173718
0.0179927
0.018612
0.0192327
0.0198556
0.0204804
0.0211087
0.0217399
0.0223722
0.0229995
0.0236298
0.000570234
0.00217676
0.00412335
0.00597353
0.00763683
0.0091285
0.0104968
0.0117801
0.0129985
0.0141679
0.015362
0.0166958
0.0181415
0.0196609
0.0212284
0.022829
0.0244542
0.0260995
0.0277616
0.0294385
0.031128
0.0328288
0.0345406
0.0362623
0.0379921
0.03973
0.0414754
0.043227
0.0449844
0.0467462
0.0485122
0.0502813
0.0520528
0.0538258
0.0555995
0.0573729
0.0591456
0.0609164
0.0626846
0.0644492
0.0662097
0.0679653
0.0697142
0.000420795
0.00201766
0.00362569
0.00502458
0.00634509
0.00761724
0.00884658
0.010036
0.0111916
0.0123278
0.0134753
0.014669
0.0159076
0.0171724
0.01852
0.0200214
0.0216251
0.0232912
0.0249987
0.0267345
0.0284918
0.0302657
0.0320534
0.0338523
0.0356604
0.0374768
0.0393003
0.0411293
0.0429628
0.0448004
0.0466407
0.0484828
0.0503263
0.0521697
0.0540123
0.0558535
0.0576921
0.0595273
0.0613584
0.0631842
0.0650043
0.0668174
0.0686225
0.000295742
0.00147777
0.00316424
0.00486142
0.00628595
0.007523
0.00864487
0.00969965
0.0107207
0.0117331
0.0127573
0.0138085
0.0148953
0.0160226
0.0172046
0.0184527
0.0197772
0.0212784
0.0229064
0.0246141
0.0263732
0.0281674
0.0299868
0.0318252
0.0336783
0.0355433
0.0374175
0.0392988
0.0411863
0.0430782
0.0449729
0.0468697
0.0487673
0.0506645
0.0525607
0.0544546
0.0563452
0.0582318
0.0601133
0.0619885
0.0638568
0.0657162
0.0675641
0.000286844
0.00135115
0.00289773
0.00467122
0.00626568
0.00763348
0.00882179
0.00987963
0.0108514
0.0117758
0.0126852
0.0136045
0.0145527
0.0155435
0.0165855
0.0176836
0.0188466
0.0200949
0.0214592
0.023009
0.0246831
0.0264362
0.0282415
0.0300829
0.0319505
0.0338378
0.0357399
0.0376537
0.0395768
0.0415064
0.0434409
0.0453788
0.0473185
0.0492588
0.0511982
0.0531358
0.0550703
0.0570004
0.0589251
0.0608436
0.0627544
0.064657
0.0665528
0.000248215
0.00123132
0.00263194
0.00432206
0.00604121
0.00757592
0.00890854
0.010071
0.0110998
0.0120319
0.0129034
0.0137481
0.0145953
0.0154688
0.0163854
0.0173561
0.018389
0.0194899
0.0206704
0.021956
0.0234276
0.0250596
0.0267959
0.0286005
0.0304519
0.0323367
0.0342459
0.0361739
0.0381163
0.0400695
0.0420308
0.0439981
0.0459694
0.0479429
0.049917
0.0518903
0.053861
0.0558281
0.0577903
0.0597461
0.0616945
0.0636345
0.0655647
0.000229134
0.00116067
0.00247639
0.00407802
0.0058105
0.00743838
0.00888637
0.0101595
0.0112809
0.0122774
0.0131782
0.0140146
0.0148184
0.015619
0.0164416
0.0173057
0.0182251
0.0192084
0.0202629
0.0213979
0.0226403
0.024052
0.025649
0.0273694
0.0291706
0.0310273
0.0329233
0.0348486
0.0367956
0.0387591
0.0407357
0.042722
0.0447151
0.046713
0.0487136
0.0507151
0.0527155
0.0547134
0.0567072
0.0586952
0.0606761
0.0626478
0.0646078
0.000208449
0.00109425
0.00233215
0.00384174
0.00553981
0.00722712
0.00877037
0.0101446
0.0113613
0.0124401
0.0134033
0.0142759
0.0150856
0.0158614
0.0166315
0.017421
0.0182506
0.0191353
0.0200854
0.0211088
0.0222153
0.0234285
0.0248095
0.0263879
0.0280996
0.0299003
0.0317623
0.033668
0.0356058
0.037568
0.0395493
0.0415448
0.043551
0.0455654
0.0475851
0.049608
0.0516318
0.0536547
0.0556747
0.0576899
0.0596985
0.0616982
0.063686
0.000193952
0.00104113
0.00221722
0.00365165
0.00529069
0.00699038
0.00859743
0.0100537
0.0113555
0.0125157
0.0135505
0.0144796
0.0153252
0.0161122
0.0168676
0.0176176
0.0183869
0.0191956
0.0200594
0.0209894
0.0219939
0.0230834
0.0242828
0.0256593
0.0272359
0.028949
0.0307542
0.0326234
0.0345388
0.0364886
0.0384646
0.0404606
0.0424725
0.0444959
0.046528
0.048566
0.0506076
0.0526499
0.0546911
0.056729
0.0587613
0.0607857
0.0627991
0.000180784
0.000993033
0.00211403
0.00348092
0.00505456
0.0067387
0.00838444
0.0099059
0.0112816
0.0125162
0.0136218
0.0146137
0.0155093
0.0163294
0.017097
0.017837
0.0185744
0.0193323
0.0201304
0.0209837
0.0219038
0.0228995
0.0239829
0.025184
0.0265788
0.0281688
0.0298923
0.0317074
0.0335867
0.0355133
0.037475
0.0394641
0.0414739
0.0435002
0.0455387
0.0475864
0.0496401
0.0516972
0.0537551
0.0558114
0.0578637
0.0599092
0.0619458
0.000168883
0.000950603
0.00202299
0.00333053
0.00484096
0.0064895
0.00814947
0.00971822
0.0111553
0.012456
0.0136276
0.0146817
0.0156324
0.0164963
0.0172929
0.0180439
0.018773
0.0195033
0.0202565
0.0210514
0.0219025
0.022821
0.0238168
0.0249048
0.0261239
0.0275559
0.0291714
0.0309132
0.0327427
0.0346353
0.0365745
0.0385488
0.0405506
0.0425736
0.0446132
0.0466655
0.0487269
0.0507942
0.0528647
0.0549357
0.0570043
0.0590681
0.061125
0.000157937
0.000912174
0.00194083
0.00319502
0.00464635
0.00624946
0.00790451
0.00950356
0.0109901
0.012348
0.0135792
0.0146922
0.0156979
0.0166101
0.0174446
0.0182202
0.0189578
0.0196795
0.0204072
0.0211613
0.0219591
0.0228146
0.0237387
0.024743
0.0258475
0.0271058
0.0285866
0.0302354
0.0320006
0.0338485
0.0357565
0.0377095
0.0396971
0.0417119
0.0437478
0.0458002
0.047865
0.0499387
0.052018
0.0541001
0.0561819
0.0582607
0.0603342
0.00014769
0.000877113
0.00186612
0.00307198
0.00446881
0.00602317
0.00765851
0.00927258
0.0107964
0.0122028
0.0134869
0.0146541
0.0157126
0.0166736
0.0175502
0.0183582
0.0191158
0.0198431
0.0205611
0.0212903
0.0220499
0.0228557
0.0237211
0.0246578
0.0256794
0.0268144
0.0281355
0.0296696
0.0313553
0.0331473
0.0350158
0.0369409
0.0389091
0.0409107
0.0429386
0.0449872
0.0470517
0.0491281
0.0512131
0.0533031
0.0553952
0.0574864
0.059574
0.000138184
0.000845032
0.00179778
0.00295956
0.00430629
0.00581149
0.00741769
0.00903344
0.0105833
0.0120291
0.0133596
0.0145758
0.0156837
0.0166921
0.0176119
0.0184564
0.0192412
0.019984
0.0207043
0.0214221
0.0221567
0.0229258
0.0237444
0.0246252
0.0255806
0.0266288
0.0278117
0.0292118
0.0308022
0.0325269
0.0343476
0.0362384
0.0381818
0.040166
0.042182
0.0442232
0.046284
0.0483602
0.0504477
0.0525431
0.0546428
0.0567448
0.0588476
0.000129351
0.000815546
0.00173502
0.00285638
0.0041568
0.00561473
0.00718594
0.00879277
0.0103578
0.0118348
0.0132048
0.0144648
0.015618
0.0166713
0.0176338
0.0185163
0.0193323
0.0200973
0.0208289
0.0215458
0.022267
0.0230107
0.0237932
0.0246286
0.0255298
0.0265112
0.0275987
0.0288567
0.0303371
0.0319832
0.0337477
0.0355976
0.0375114
0.0394739
0.0414745
0.0435049
0.0455593
0.0476324
0.0497199
0.0518179
0.0539235
0.0560342
0.0581492
0.000121124
0.000788274
0.00167698
0.002761
0.00401876
0.00543156
0.00696524
0.00855486
0.0101259
0.0116257
0.013029
0.0143274
0.0155218
0.016617
0.0176204
0.0185411
0.0193902
0.0201815
0.0209306
0.0216546
0.0223717
0.0230999
0.0238561
0.0246558
0.0255123
0.0264394
0.0274556
0.0286006
0.0299567
0.0315127
0.0332119
0.0350147
0.0368938
0.0388307
0.0408125
0.0428296
0.0448748
0.0469423
0.0490274
0.0511261
0.0532352
0.0553523
0.0574772
0.000113477
0.000762913
0.00162315
0.00267269
0.00389084
0.00526115
0.00675637
0.00832298
0.00989189
0.0114073
0.0128373
0.0141691
0.0154005
0.0165344
0.0175764
0.0185341
0.0194171
0.020237
0.0210077
0.0217447
0.0224649
0.0231859
0.0239246
0.0246971
0.0255176
0.0263999
0.0273596
0.0284239
0.0296557
0.031111
0.0327369
0.0344861
0.0363257
0.0382333
0.0401933
0.0421942
0.0442279
0.0462877
0.0483682
0.0504654
0.0525754
0.0546952
0.0568211
0.000107916
0.000739309
0.00157321
0.00259076
0.00377213
0.0051024
0.00655939
0.00809908
0.00965956
0.0111834
0.0126342
0.0139945
0.0152588
0.016428
0.0175061
0.0184994
0.0194157
0.0202653
0.0210602
0.0218143
0.0225433
0.0232637
0.0239923
0.0247452
0.0255373
0.0263828
0.0272963
0.0282982
0.0294306
0.0307756
0.0323196
0.0340089
0.0358043
0.0376788
0.039614
0.0415964
0.0436162
0.0456662
0.0477403
0.049834
0.0519428
0.054063
0.0561898
0.000102884
0.000717168
0.00152651
0.00251418
0.00366121
0.0049539
0.00637361
0.00788433
0.00943101
0.0109574
0.0124235
0.0138075
0.0151008
0.0163018
0.0174134
0.0184403
0.0193891
0.0202685
0.021089
0.0218631
0.022605
0.0233301
0.0240547
0.0247946
0.0255652
0.0263809
0.0272561
0.0282082
0.0292676
0.0305018
0.0319569
0.0335802
0.0353266
0.0371646
0.0390721
0.0410334
0.0430376
0.0450758
0.0471419
0.0492302
0.0513362
0.0534555
0.0555839
9.81062e-05
0.00069648
0.0014828
0.00244264
0.00355754
0.00481496
0.00619886
0.00767933
0.00920837
0.0107321
0.0122083
0.0136115
0.0149298
0.0161596
0.0173019
0.0183602
0.01934
0.0202489
0.0210956
0.0218914
0.0226492
0.0233832
0.0241086
0.0248412
0.0255963
0.0263885
0.0272322
0.0281433
0.0291455
0.0302867
0.0316459
0.0331973
0.0348902
0.0366881
0.0385651
0.0405034
0.0424897
0.0445148
0.0465709
0.0486524
0.0507539
0.0528711
0.0549998
9.36398e-05
0.000677023
0.00144195
0.00237556
0.00346048
0.00468479
0.0060343
0.00748425
0.00899271
0.0105094
0.0119912
0.0134093
0.014749
0.0160043
0.0171745
0.0182622
0.0192715
0.0202087
0.0210817
0.0219004
0.022676
0.0234219
0.0241523
0.0248823
0.025627
0.0264012
0.0272193
0.0280964
0.0290524
0.0301233
0.0313839
0.0328578
0.0344928
0.036247
0.038091
0.0400039
0.0419708
0.0439809
0.0460258
0.048099
0.0501948
0.0523081
0.054434
8.94031e-05
0.000658873
0.00140359
0.00231261
0.00336941
0.00456247
0.00587939
0.00729895
0.00878494
0.0102912
0.0117742
0.0132032
0.0145607
0.0158385
0.0170341
0.0181488
0.0191859
0.0201504
0.0210493
0.0218911
0.022686
0.023446
0.0241845
0.0249158
0.0256546
0.0264156
0.0272132
0.0280622
0.0289804
0.0299961
0.0311671
0.0325593
0.0341322
0.0358395
0.0376478
0.0395333
0.0414791
0.0434727
0.0455052
0.0475687
0.0496576
0.0517657
0.053888
8.54414e-05
0.00064187
0.00136755
0.00225352
0.00328378
0.00444737
0.00573331
0.00712301
0.0085854
0.0100781
0.0115589
0.0129952
0.0143673
0.0156646
0.016883
0.0180226
0.0190856
0.0200762
0.0210002
0.021865
0.02268
0.0234558
0.0242048
0.0249405
0.0256772
0.0264292
0.0272109
0.0280367
0.0289234
0.0298943
0.0309934
0.0322998
0.0338065
0.0354636
0.0372337
0.0390899
0.0410128
0.0429889
0.0450074
0.0470604
0.0491411
0.0512438
0.0533629
8.17307e-05
0.000625797
0.00133365
0.00219801
0.00320316
0.00433898
0.00559528
0.00695609
0.00839415
0.00987123
0.0113466
0.0127872
0.0141706
0.0154845
0.0167234
0.0178856
0.0189728
0.019988
0.0209362
0.0218238
0.022659
0.0234516
0.024213
0.0249557
0.0256934
0.02644
0.0272097
0.0280169
0.0288773
0.0298115
0.0308543
0.0320765
0.0335137
0.0351177
0.0368471
0.038672
0.0405706
0.0425276
0.0445313
0.0465728
0.0486451
0.0507429
0.052862
7.81659e-05
0.000610625
0.00130168
0.00214548
0.00312707
0.00423664
0.00546486
0.00679765
0.00821118
0.00967095
0.0111385
0.0125801
0.0139721
0.0153001
0.0165569
0.0177398
0.0188493
0.0198876
0.0208589
0.0217687
0.0226242
0.0234343
0.0242093
0.024961
0.0257023
0.0264466
0.0272078
0.0280002
0.0288389
0.0297424
0.0307398
0.0318872
0.0332519
0.0348
0.0364866
0.0382781
0.0401511
0.0420879
0.0440757
0.046105
0.0481682
0.0502598
0.0523761
7.48118e-05
0.000596323
0.00127145
0.00209586
0.00305518
0.0041399
0.00534139
0.00664718
0.00803624
0.00947758
0.0109351
0.0123753
0.0137731
0.0151128
0.0163852
0.0175867
0.0187167
0.0197767
0.0207699
0.0217012
0.0225768
0.0234046
0.0241943
0.0249565
0.0257034
0.026448
0.0272038
0.0279848
0.0288056
0.0296835
0.0306431
0.0317295
0.0330199
0.0345092
0.0361505
0.0379073
0.039753
0.0416684
0.0436396
0.0456558
0.0477095
0.0497948
0.0519087
7.16746e-05
0.000582801
0.00124282
0.00204891
0.0029871
0.00404833
0.00522442
0.00650417
0.00786893
0.00929115
0.0107369
0.0121733
0.0135747
0.0149236
0.0162095
0.0174278
0.0185766
0.0196568
0.0206708
0.0216226
0.0225179
0.0233636
0.0241684
0.0249422
0.0256966
0.0264437
0.0271967
0.0279691
0.0287754
0.0296318
0.0305603
0.0315978
0.0328152
0.0342438
0.0358379
0.0375581
0.0393752
0.0412683
0.0432217
0.0452243
0.0472673
0.0493439
0.0514483
6.88976e-05
0.000570001
0.00121575
0.00200449
0.00292264
0.00396147
0.0051134
0.00636812
0.00770929
0.00911183
0.0105443
0.0119751
0.0133779
0.0147338
0.0160313
0.0172644
0.0184304
0.0195292
0.0205627
0.0215343
0.0224486
0.023312
0.0241323
0.0249186
0.0256816
0.0264331
0.0271854
0.027952
0.0287468
0.0295855
0.0304877
0.0314848
0.0326364
0.0340024
0.0355474
0.0372293
0.0390167
0.0408862
0.0428212
0.0448091
0.0468405
0.0489077
0.0510042
6.70579e-05
0.000557907
0.00119019
0.00196241
0.00286158
0.00387917
0.005008
0.00623878
0.00755677
0.00893942
0.0103577
0.0117812
0.0131832
0.0145442
0.0158514
0.0170975
0.018279
0.0193952
0.020447
0.0214373
0.02237
0.0232508
0.0240867
0.024886
0.0256588
0.026416
0.0271697
0.0279327
0.0287187
0.0295425
0.0304225
0.031386
0.0324818
0.0337837
0.0352779
0.0369201
0.0386763
0.0405215
0.0424371
0.0444096
0.0464286
0.0484862
0.0505752
6.72862e-05
0.000546323
0.00116592
0.00192245
0.00280351
0.00380091
0.00490775
0.00611555
0.00741098
0.00877374
0.0101771
0.0115917
0.0129914
0.0143556
0.0156707
0.0169282
0.0181237
0.0192557
0.0203248
0.0213327
0.0222831
0.0231809
0.0240322
0.0248451
0.0256283
0.0263925
0.0271491
0.0279105
0.0286898
0.0295016
0.0303631
0.0312981
0.0323482
0.0335865
0.0350282
0.0366294
0.0383534
0.040173
0.0420685
0.0440249
0.0460311
0.0480786
0.0501616
7.02875e-05
0.000535245
0.00114278
0.0018844
0.00274827
0.0037264
0.0048123
0.00599806
0.00727163
0.00861465
0.0100023
0.0114071
0.0128027
0.0141686
0.0154898
0.0167571
0.0179652
0.0191119
0.0201968
0.0212215
0.0221888
0.023103
0.0239698
0.0247961
0.0255905
0.0263627
0.0271235
0.0278849
0.0286597
0.0294618
0.0303076
0.0312189
0.032231
0.0334093
0.0347974
0.0363561
0.0380468
0.0398401
0.0417146
0.0436543
0.045647
0.0476838
0.0497574
7.54728e-05
0.000524692
0.00112092
0.00184826
0.00269577
0.00365551
0.00472133
0.00588597
0.00713833
0.00846166
0.00983344
0.0112273
0.0126178
0.0139837
0.0153096
0.0165852
0.0178045
0.0189644
0.0200642
0.0211046
0.022088
0.0230181
0.0238999
0.0247398
0.0255457
0.0263265
0.0270927
0.0278556
0.0286276
0.0294222
0.030255
0.031146
0.032126
0.0332511