/*--------------------------------*- C++ -*----------------------------------*\
| =========                 |                                                 |
| \\      /  F ield         | OpenFOAM: The Open Source CFD Toolbox           |
|  \\    /   O peration     | Version:  2.3.0                                 |
|   \\  /    A nd           | Web:      www.OpenFOAM.org                      |
|    \\/     M anipulation  |                                                 |
\*---------------------------------------------------------------------------*/
FoamFile
{
    version     2.0;
    format      ascii;
    class       volScalarField;
    location    "3000";
    object      nuTilda;
}
// * * * * * * * * * * * * * * * * * * * * * * * * * * * * * * * * * * * * * //

dimensions      [0 2 -1 0 0 0 0];

internalField   nonuniform List<scalar> 
37496
(
0.0708584
0.0692163
0.0675715
0.065924
0.0642736
0.0626212
0.0609672
0.0593123
0.0576571
0.0560024
0.0543489
0.0526972
0.0510482
0.0494028
0.0477617
0.0461252
0.0444947
0.042871
0.0412546
0.0396464
0.0380471
0.0364579
0.0348798
0.0333132
0.0317593
0.0302195
0.0286955
0.0271889
0.0257014
0.0242358
0.0227969
0.0213901
0.0200226
0.0187048
0.0174486
0.0162672
0.0151788
0.0141981
0.0132905
0.012313
0.0111054
0.0095628
0.00793158
0.0720263
0.0705734
0.0691193
0.0676636
0.0662066
0.064748
0.0632884
0.0618276
0.0603665
0.0589052
0.0574439
0.0559834
0.0545239
0.0530663
0.0516106
0.0501574
0.0487076
0.0472616
0.0458201
0.0443841
0.0429542
0.0415317
0.0401176
0.0387127
0.0373185
0.0359369
0.0345696
0.0332185
0.0318864
0.0305763
0.0292929
0.0280415
0.0268284
0.0256609
0.0245499
0.0235071
0.0225468
0.0216854
0.0209414
0.0203298
0.0198651
0.0195637
0.0194411
0.0731083
0.071816
0.0705239
0.0692312
0.067937
0.0666411
0.0653435
0.0640445
0.0627442
0.0614424
0.0601394
0.0588357
0.0575314
0.0562269
0.0549222
0.0536182
0.0523147
0.0510125
0.0497124
0.0484152
0.0471217
0.0458328
0.0445499
0.0432744
0.0420081
0.0407522
0.03951
0.0382837
0.0370763
0.0358918
0.034735
0.0336115
0.0325282
0.0314933
0.0305157
0.0296062
0.0287769
0.0280411
0.0274124
0.0269035
0.0265257
0.0262884
0.0261961
0.0741039
0.0729505
0.0717988
0.0706453
0.0694899
0.0683319
0.0671714
0.0660084
0.0648428
0.0636743
0.0625032
0.0613294
0.0601534
0.0589754
0.0577955
0.0566142
0.0554312
0.0542472
0.0530627
0.0518789
0.0506966
0.0495163
0.0483396
0.0471684
0.0460041
0.0448489
0.0437051
0.0425761
0.0414648
0.0403759
0.0393139
0.0382841
0.0372934
0.0363493
0.0354613
0.0346382
0.0338903
0.0332294
0.0326662
0.0322114
0.0318737
0.0316601
0.0315735
0.0750067
0.0739831
0.0729539
0.0719206
0.0708835
0.0698431
0.0687988
0.0677507
0.0666985
0.065642
0.0645811
0.0635157
0.0624463
0.0613732
0.0602965
0.0592164
0.0581328
0.0570462
0.055957
0.0548659
0.053774
0.0526825
0.0515925
0.0505059
0.0494237
0.0483482
0.0472827
0.04623
0.0451933
0.0441774
0.0431871
0.0422274
0.0413048
0.0404265
0.0396009
0.0388365
0.0381429
0.0375303
0.0370081
0.0365856
0.0362709
0.0360697
0.035984
0.0758447
0.0749256
0.0740007
0.0730699
0.0721343
0.0711936
0.070248
0.0692974
0.0683412
0.0673793
0.0664112
0.0654366
0.0644561
0.0634702
0.0624792
0.061483
0.0604816
0.0594757
0.0584654
0.0574507
0.056433
0.055414
0.0543951
0.0533778
0.0523628
0.051352
0.0503489
0.0493571
0.0483795
0.0474206
0.0464857
0.0455795
0.0447084
0.0438795
0.0431002
0.0423784
0.0417228
0.0411436
0.0406488
0.0402473
0.0399466
0.0397518
0.0396654
0.0766116
0.075783
0.0749479
0.0741056
0.0732563
0.0724009
0.0715394
0.0706715
0.0697966
0.068915
0.0680262
0.0671286
0.066222
0.0653082
0.0643889
0.063463
0.0625299
0.0615908
0.0606465
0.059696
0.0587399
0.0577801
0.056819
0.0558587
0.0549005
0.0539437
0.0529909
0.0520482
0.0511181
0.0502047
0.049314
0.0484501
0.0476178
0.0468268
0.0460831
0.0453941
0.0447669
0.0442112
0.0437357
0.0433488
0.0430576
0.0428665
0.0427792
0.0773116
0.0765612
0.075804
0.0750387
0.074263
0.073481
0.0726908
0.0718939
0.0710877
0.070273
0.0694525
0.0686222
0.0677783
0.0669229
0.0660631
0.0651975
0.0643219
0.0634373
0.0625483
0.061653
0.0607494
0.0598386
0.058924
0.0580084
0.0570993
0.0561913
0.0552784
0.0543761
0.0534858
0.0526085
0.0517522
0.0509254
0.0501202
0.049359
0.0486441
0.0479821
0.0473783
0.0468391
0.0463772
0.046001
0.0457162
0.0455274
0.0454387
0.0779549
0.0772663
0.0765735
0.0758787
0.0751665
0.074451
0.0737165
0.0729785
0.0722318
0.0714683
0.0707032
0.0699334
0.0691509
0.0683408
0.0675265
0.0667106
0.0658892
0.0650459
0.0642003
0.0633531
0.0624985
0.0616285
0.0607576
0.0598689
0.0589934
0.0581401
0.0572619
0.0563948
0.0555395
0.0546967
0.0538505
0.0530715
0.0522814
0.0515438
0.0508504
0.0502133
0.0496358
0.0491078
0.0486558
0.0482877
0.0480072
0.0478186
0.0477272
0.0085203
0.0105414
0.0117014
0.0127961
0.0139526
0.0151809
0.016465
0.01779
0.0191434
0.0205172
0.0219065
0.0233061
0.0247141
0.0261295
0.0275492
0.0289742
0.0304028
0.031835
0.0332705
0.0347091
0.0361507
0.0375951
0.0390426
0.0404922
0.0419448
0.0434001
0.0448577
0.0463179
0.0477801
0.0492447
0.0507111
0.0521793
0.0536489
0.0551199
0.056592
0.0580649
0.0595386
0.0610125
0.0624865
0.06396
0.0654324
0.0669026
0.0683702
0.0195074
0.0197701
0.020218
0.0208343
0.0215972
0.0224812
0.023463
0.0245212
0.0256397
0.0268047
0.0280043
0.0292315
0.0304795
0.031742
0.0330171
0.0343003
0.0355903
0.0368853
0.0381838
0.0394847
0.0407878
0.0420923
0.0433976
0.0447041
0.0460112
0.0473186
0.0486264
0.0499346
0.0512428
0.0525511
0.0538596
0.0551679
0.0564759
0.057784
0.0590921
0.0604001
0.0617079
0.0630158
0.0643234
0.0656306
0.0669375
0.0682437
0.0695516
0.0262476
0.0264441
0.0267879
0.0272706
0.0278793
0.028598
0.0294107
0.0303027
0.0312599
0.0322694
0.0333205
0.0344054
0.0355161
0.0366476
0.0377943
0.0389524
0.0401192
0.0412923
0.0424696
0.0436498
0.0448319
0.0460147
0.0471983
0.0483813
0.0495636
0.050745
0.0519255
0.0531045
0.054282
0.055458
0.0566326
0.0578055
0.0589771
0.0601472
0.0613161
0.0624839
0.0636507
0.0648169
0.0659823
0.0671469
0.0683108
0.0694742
0.0706382
0.0316125
0.0317771
0.0320682
0.0324799
0.0330029
0.0336255
0.034336
0.0351227
0.0359727
0.036875
0.0378206
0.0388013
0.0398098
0.0408396
0.0418862
0.0429454
0.0440136
0.0450883
0.0461672
0.0472485
0.048331
0.049414
0.0504962
0.051577
0.052656
0.053733
0.0548072
0.0558784
0.0569464
0.0580118
0.0590741
0.0601336
0.0611902
0.0622438
0.0632948
0.0643438
0.0653908
0.066436
0.0674796
0.0685217
0.0695622
0.0706009
0.0716377
0.0360136
0.0361584
0.0364166
0.0367837
0.0372526
0.0378134
0.0384565
0.0391708
0.0399458
0.0407718
0.0416402
0.0425429
0.0434729
0.0444244
0.0453928
0.0463735
0.047363
0.0483584
0.0493571
0.0503575
0.0513587
0.0523592
0.0533582
0.0543552
0.0553491
0.0563392
0.0573249
0.0583061
0.059283
0.0602559
0.0612247
0.0621887
0.0631482
0.0641034
0.0650549
0.0660031
0.0669482
0.0678903
0.0688295
0.0697662
0.0707006
0.0716322
0.0725622
0.0396882
0.0398188
0.0400545
0.0403913
0.0408227
0.0413402
0.0419346
0.0425965
0.0433165
0.0440856
0.0448955
0.0457386
0.0466082
0.0474985
0.0484052
0.0493233
0.050249
0.0511798
0.0521132
0.0530476
0.0539819
0.054915
0.0558464
0.0567746
0.0576978
0.0586152
0.0595268
0.0604329
0.0613339
0.06223
0.0631203
0.0640039
0.0648811
0.0657532
0.0666204
0.0674833
0.0683416
0.0691953
0.070045
0.0708913
0.0717341
0.0725729
0.0734073
0.0427961
0.0429165
0.0431374
0.043452
0.0438552
0.0443399
0.0448976
0.0455197
0.0461981
0.0469233
0.0476875
0.0484836
0.0493056
0.0501478
0.0510052
0.0518727
0.0527459
0.0536228
0.0545022
0.0553821
0.0562614
0.05714
0.0580164
0.0588878
0.0597513
0.0606067
0.0614557
0.0622992
0.0631375
0.0639698
0.0647941
0.0656088
0.0664158
0.0672172
0.0680132
0.068804
0.0695883
0.0703659
0.0711385
0.0719072
0.0726716
0.0734302
0.0741825
0.0454509
0.0455643
0.0457773
0.0460728
0.0464543
0.0469128
0.0474409
0.0480307
0.0486781
0.0493683
0.0500955
0.0508541
0.0516389
0.0524423
0.0532594
0.0540849
0.0549134
0.0557443
0.0565795
0.0574137
0.0582479
0.0590824
0.0599161
0.0607391
0.0615491
0.062351
0.0631473
0.0639394
0.064727
0.0655071
0.0662744
0.0670275
0.0677742
0.0685172
0.0692536
0.0699837
0.0707037
0.0714147
0.0721212
0.072824
0.0735215
0.0742111
0.0748905
0.047736
0.0478404
0.0480548
0.048326
0.0486922
0.0491286
0.0496284
0.0501859
0.0508145
0.0514756
0.052169
0.0528967
0.0536528
0.0544215
0.0552055
0.0559951
0.0567825
0.0575759
0.0583781
0.0591712
0.059972
0.0607728
0.0615736
0.0623463
0.0631066
0.0638651
0.0646199
0.0653727
0.0661208
0.0668577
0.0675709
0.0682664
0.0689682
0.0696658
0.0703503
0.0710301
0.0716912
0.072346
0.0730001
0.07365
0.0742938
0.0749267
0.0755428
0.0248727
0.0240807
0.0232967
0.0225204
0.0217522
0.0209923
0.0202413
0.0194995
0.0187673
0.0180449
0.0173327
0.0166308
0.0159392
0.0152581
0.0145874
0.0139272
0.0132774
0.0126377
0.0120081
0.0113885
0.0107787
0.0101783
0.00958725
0.00900535
0.00843236
0.00786813
0.00731259
0.00676573
0.00622765
0.00569874
0.00517956
0.00467098
0.0041743
0.00369142
0.00322464
0.00277676
0.00235101
0.00195024
0.00157632
0.00122612
0.000879113
0.000629654
0.000416025
0.0248421
0.0241043
0.0233768
0.0226571
0.0219444
0.0212386
0.0205399
0.0198483
0.019164
0.0184873
0.0178181
0.0171566
0.0165029
0.0158568
0.0152184
0.0145876
0.0139643
0.0133483
0.0127395
0.0121378
0.011543
0.0109549
0.0103732
0.00979796
0.00922893
0.00866596
0.0081092
0.00755864
0.00701448
0.00647723
0.00594762
0.00542651
0.00491532
0.00441559
0.00392939
0.00345898
0.00300605
0.00257164
0.00215381
0.00174695
0.00136799
0.00103887
0.00070696
0.0248109
0.0241311
0.0234588
0.0227929
0.0221325
0.0214775
0.0208277
0.0201829
0.0195432
0.0189086
0.0182793
0.017655
0.0170358
0.0164218
0.0158127
0.0152085
0.0146091
0.0140144
0.0134242
0.0128384
0.0122568
0.0116793
0.0111058
0.010536
0.00997009
0.00940789
0.00884958
0.00829518
0.00774502
0.00719965
0.00665972
0.00612617
0.00560017
0.00508298
0.0045761
0.00408075
0.003597
0.00312261
0.0026502
0.00216698
0.00176369
0.00137038
0.000929048
0.0247741
0.0241538
0.0235342
0.0229178
0.022305
0.0216955
0.0210894
0.0204864
0.0198863
0.0192893
0.0186952
0.0181038
0.0175153
0.0169295
0.0163463
0.0157654
0.015187
0.0146109
0.0140369
0.0134648
0.0128947
0.0123262
0.0117595
0.0111944
0.0106308
0.0100688
0.00950854
0.00895013
0.00839398
0.00784053
0.00729044
0.00674456
0.00620375
0.00566912
0.00514141
0.00462087
0.00410602
0.00359293
0.00307609
0.00257007
0.00210793
0.001638
0.00110446
0.0247443
0.0241738
0.0236021
0.0230309
0.0224609
0.0218924
0.0213252
0.0207593
0.0201945
0.0196306
0.0190676
0.0185053
0.0179438
0.0173827
0.0168221
0.0162619
0.0157018
0.0151419
0.0145819
0.0140218
0.0134614
0.0129007
0.0123397
0.0117782
0.0112162
0.0106539
0.0100914
0.00952886
0.00896671
0.00840526
0.00784519
0.00728722
0.00673209
0.00618048
0.00563246
0.00508719
0.00454149
0.00398888
0.00342084
0.00289958
0.00239626
0.00185685
0.00124659
0.0247178
0.0241918
0.0236631
0.0231329
0.0226017
0.0220699
0.0215376
0.0210047
0.020471
0.0199366
0.0194011
0.0188645
0.0183266
0.0177875
0.0172469
0.0167047
0.0161608
0.0156152
0.0150674
0.0145176
0.0139656
0.0134115
0.0128553
0.0122967
0.0117358
0.0111728
0.0106078
0.0100411
0.00947297
0.00890375
0.00833411
0.00776462
0.00719585
0.00662805
0.00606066
0.00549177
0.00491663
0.00432669
0.00371229
0.00317111
0.00263479
0.00203654
0.00136281
0.0246935
0.0242079
0.023718
0.0232247
0.0227287
0.02223
0.0217289
0.0212252
0.0207193
0.0202111
0.0197002
0.0191862
0.0186693
0.0181494
0.0176265
0.0171006
0.0165712
0.0160383
0.0155015
0.0149607
0.0144161
0.0138676
0.0133154
0.0127592
0.0121991
0.0116352
0.0110679
0.0104972
0.00992323
0.00934669
0.00876802
0.00818768
0.007606
0.00702291
0.00643727
0.00584647
0.00524468
0.00462298
0.00397547
0.00340582
0.00283579
0.00218532
0.00145876
0.024672
0.0242224
0.0237671
0.0233072
0.022843
0.0223745
0.0219014
0.0214237
0.020942
0.0204572
0.0199689
0.0194753
0.0189767
0.0184735
0.0179663
0.0174549
0.016939
0.0164185
0.0158922
0.0153599
0.0148216
0.0142777
0.013729
0.0131756
0.012616
0.0120512
0.0114821
0.0109079
0.0103289
0.00974543
0.00915832
0.00856791
0.00797416
0.00737653
0.00677395
0.00616281
0.00553717
0.00489036
0.00423024
0.0036213
0.00301164
0.00230821
0.00153452
0.0246544
0.024236
0.0238107
0.0233804
0.0229452
0.0225051
0.0220583
0.021603
0.0211408
0.0206753
0.0202101
0.0197373
0.0192538
0.0187641
0.0182701
0.0177721
0.017269
0.0167619
0.0162478
0.0157249
0.0151932
0.0146522
0.0141047
0.0135577
0.0130004
0.0124326
0.0118632
0.0112876
0.0107054
0.0101158
0.00952099
0.00892227
0.00831775
0.00770646
0.00708781
0.00645789
0.00580932
0.00514039
0.00446964
0.00383325
0.00319028
0.00244586
0.00162336
0.000382535
0.000486404
0.00067706
0.000858946
0.00103316
0.00120111
0.00136452
0.00152576
0.00168833
0.0018575
0.00204087
0.0022474
0.00248304
0.00274887
0.00304392
0.00336589
0.00371328
0.00408525
0.00448159
0.00490242
0.00534795
0.00581858
0.00631506
0.00683769
0.00738728
0.00796415
0.008569
0.00920223
0.00986463
0.0105568
0.0112798
0.0120344
0.0128214
0.0136418
0.0144964
0.0153863
0.0163125
0.0172759
0.0182773
0.019318
0.0203989
0.0215214
0.0226888
0.000533658
0.000639038
0.000834794
0.00102665
0.00121062
0.00138871
0.00156454
0.00174314
0.00193071
0.0021344
0.00236132
0.00261795
0.00290706
0.00322336
0.00356389
0.00392724
0.00431238
0.00471898
0.00514693
0.00559617
0.00606711
0.00656009
0.00707536
0.0076132
0.00817373
0.00875748
0.009365
0.00999661
0.0106529
0.0113345
0.0120422
0.0127765
0.0135381
0.0143279
0.0151465
0.0159949
0.016874
0.0177845
0.0187271
0.0197028
0.0207128
0.0217589
0.0228449
0.000676521
0.000777486
0.000979848
0.00118202
0.00137745
0.0015699
0.00176543
0.00197117
0.00219413
0.00244019
0.00271384
0.00301893
0.00335484
0.00371409
0.00409417
0.00449397
0.00491292
0.00535062
0.00580698
0.00628203
0.00677579
0.00728837
0.00782011
0.00837077
0.00894044
0.00952952
0.0101384
0.0107674
0.0114169
0.0120874
0.0127795
0.0134935
0.0142301
0.01499
0.0157737
0.0165817
0.0174149
0.0182739
0.0191595
0.0200726
0.021014
0.0219853
0.0229883
0.000801554
0.000899328
0.0011093
0.00132248
0.0015319
0.00174343
0.00196501
0.00220417
0.00246653
0.00275541
0.00307289
0.00342211
0.00379788
0.00419387
0.00460817
0.00503985
0.00548833
0.00595339
0.00643485
0.00693231
0.00744575
0.00797531
0.00852054
0.00908161
0.00965842
0.0102512
0.0108603
0.0114858
0.0121282
0.0127875
0.0134644
0.0141591
0.014872
0.0156037
0.0163546
0.0171251
0.0179157
0.0187272
0.0195601
0.020415
0.0212928
0.0221941
0.0231193
0.000908589
0.00100632
0.0012251
0.00145065
0.0016769
0.00191161
0.00216325
0.00243811
0.00273945
0.00306819
0.00342548
0.00381374
0.00422404
0.00465212
0.00509648
0.00555624
0.00603087
0.00651988
0.00702318
0.00754024
0.00807067
0.00861425
0.00917111
0.00974059
0.0103231
0.0109186
0.0115269
0.0121486
0.0127836
0.0134321
0.0140946
0.014771
0.0154619
0.0161674
0.016888
0.0176239
0.0183755
0.0191435
0.0199279
0.0207296
0.021549
0.0223866
0.0232445
0.00100019
0.00110102
0.00132973
0.00156921
0.00181485
0.00207543
0.00235868
0.00266874
0.00300646
0.00337137
0.00376517
0.00418697
0.00462752
0.00508403
0.00555507
0.00603978
0.00653758
0.00704792
0.00757042
0.00810451
0.00864962
0.00920552
0.00977192
0.0103486
0.0109355
0.0115327
0.0121401
0.0127577
0.0133856
0.0140238
0.0146727
0.0153322
0.0160025
0.016684
0.0173768
0.0180809
0.0187967
0.0195247
0.0202649
0.0210177
0.0217832
0.022561
0.0233496
0.00107883
0.00118513
0.00142496
0.00167995
0.0019469
0.00223455
0.00254905
0.00289223
0.003263
0.00366038
0.00408755
0.00453853
0.00500602
0.00548779
0.00598268
0.00648976
0.00700831
0.00753769
0.00807726
0.00862615
0.00918411
0.00975062
0.0103255
0.0109083
0.0114989
0.0120973
0.0127031
0.0133166
0.0139378
0.0145664
0.0152027
0.0158466
0.0164981
0.0171572
0.0178243
0.0184992
0.0191821
0.0198734
0.0205728
0.0212807
0.0219967
0.02272
0.0234498
0.00114781
0.00126346
0.00151462
0.00178544
0.00207365
0.00238774
0.00273198
0.00310554
0.00350597
0.00393291
0.00438968
0.0048666
0.00535848
0.0058633
0.00637971
0.00690711
0.0074445
0.00799099
0.00854576
0.00910823
0.0096781
0.0102546
0.0108367
0.0114249
0.0120188
0.0126176
0.0132211
0.0138301
0.0144451
0.015065
0.0156892
0.0163181
0.0169523
0.0175912
0.0182344
0.0188821
0.0195344
0.0201915
0.0208537
0.0215208
0.022192
0.0228658
0.0235429
0.00120426
0.00132017
0.00158564
0.00187548
0.00219051
0.00253541
0.00290794
0.00330867
0.0037373
0.00419349
0.00467756
0.00518018
0.00569627
0.00622159
0.00675652
0.00730377
0.00786006
0.00842147
0.00898965
0.00956503
0.0101495
0.010735
0.0113197
0.0119136
0.0125094
0.0131036
0.013701
0.0143052
0.0149167
0.015529
0.016139
0.0167526
0.0173718
0.0179927
0.018612
0.0192327
0.0198556
0.0204804
0.0211087
0.02174
0.0223722
0.0229995
0.0236298
0.000574386
0.00217705
0.00412343
0.00597357
0.00763686
0.00912852
0.0104968
0.0117801
0.0129985
0.0141679
0.015362
0.0166958
0.0181415
0.0196609
0.0212284
0.022829
0.0244542
0.0260995
0.0277616
0.0294385
0.031128
0.0328288
0.0345406
0.0362623
0.0379921
0.03973
0.0414754
0.043227
0.0449844
0.0467462
0.0485122
0.0502813
0.0520528
0.0538258
0.0555995
0.0573729
0.0591456
0.0609164
0.0626846
0.0644492
0.0662097
0.0679653
0.0697142
0.00042819
0.002018
0.00362579
0.00502463
0.00634512
0.00761726
0.0088466
0.010036
0.0111917
0.0123278
0.0134753
0.014669
0.0159076
0.0171724
0.01852
0.0200215
0.0216251
0.0232912
0.0249987
0.0267345
0.0284918
0.0302657
0.0320534
0.0338523
0.0356604
0.0374768
0.0393003
0.0411293
0.0429628
0.0448004
0.0466407
0.0484828
0.0503263
0.0521697
0.0540123
0.0558535
0.0576921
0.0595273
0.0613584
0.0631842
0.0650043
0.0668174
0.0686225
0.000309505
0.00147841
0.00316438
0.00486148
0.00628598
0.00752303
0.00864488
0.00969966
0.0107207
0.0117331
0.0127573
0.0138085
0.0148953
0.0160226
0.0172047
0.0184527
0.0197772
0.0212784
0.0229064
0.0246141
0.0263732
0.0281674
0.0299868
0.0318252
0.0336783
0.0355433
0.0374175
0.0392988
0.0411863
0.0430782
0.0449729
0.0468697
0.0487673
0.0506645
0.0525607
0.0544546
0.0563452
0.0582318
0.0601133
0.0619885
0.0638568
0.0657162
0.0675641
0.000301312
0.00135191
0.0028979
0.00467128
0.00626572
0.00763351
0.00882181
0.00987964
0.0108514
0.0117758
0.0126852
0.0136045
0.0145527
0.0155435
0.0165855
0.0176836
0.0188466
0.0200949
0.0214592
0.023009
0.0246832
0.0264362
0.0282415
0.0300829
0.0319505
0.0338378
0.0357399
0.0376537
0.0395768
0.0415064
0.0434409
0.0453788
0.0473185
0.0492588
0.0511982
0.0531358
0.0550703
0.0570004
0.0589251
0.0608436
0.0627544
0.064657
0.0665528
0.000266342
0.00123223
0.00263214
0.00432213
0.00604125
0.00757595
0.00890856
0.010071
0.0110999
0.0120319
0.0129034
0.0137481
0.0145953
0.0154688
0.0163854
0.0173561
0.018389
0.0194899
0.0206704
0.021956
0.0234276
0.0250596
0.0267959
0.0286005
0.0304519
0.0323367
0.0342459
0.0361739
0.0381163
0.0400695
0.0420308
0.0439981
0.0459694
0.0479429
0.049917
0.0518903
0.053861
0.0558281
0.0577904
0.0597461
0.0616945
0.0636345
0.0655647
0.000249492
0.00116169
0.00247661
0.0040781
0.00581054
0.00743841
0.00888639
0.0101595
0.0112809
0.0122774
0.0131782
0.0140147
0.0148184
0.0156191
0.0164416
0.0173057
0.0182251
0.0192084
0.0202629
0.0213979
0.0226403
0.024052
0.025649
0.0273694
0.0291706
0.0310273
0.0329233
0.0348486
0.0367956
0.0387591
0.0407357
0.042722
0.0447151
0.046713
0.0487136
0.0507151
0.0527155
0.0547134
0.0567072
0.0586952
0.0606761
0.0626478
0.0646078
0.000231601
0.0010954
0.0023324
0.00384183
0.00553986
0.00722715
0.00877039
0.0101447
0.0113613
0.0124401
0.0134033
0.0142759
0.0150856
0.0158614
0.0166315
0.017421
0.0182506
0.0191353
0.0200854
0.0211088
0.0222153
0.0234285
0.0248095
0.0263879
0.0280996
0.0299003
0.0317623
0.033668
0.0356058
0.037568
0.0395493
0.0415448
0.043551
0.0455654
0.0475852
0.049608
0.0516318
0.0536547
0.0556747
0.0576899
0.0596985
0.0616982
0.063686
0.00021932
0.0010424
0.0022175
0.00365175
0.00529074
0.00699041
0.00859745
0.0100537
0.0113556
0.0125157
0.0135505
0.0144796
0.0153252
0.0161123
0.0168676
0.0176176
0.0183869
0.0191956
0.0200594
0.0209894
0.0219939
0.0230834
0.0242828
0.0256593
0.0272359
0.028949
0.0307542
0.0326234
0.0345388
0.0364886
0.0384646
0.0404606
0.0424725
0.0444959
0.046528
0.048566
0.0506076
0.0526499
0.0546911
0.056729
0.0587613
0.0607857
0.0627991
0.00020836
0.000994426
0.00211434
0.00348103
0.00505461
0.00673873
0.00838446
0.00990591
0.0112817
0.0125162
0.0136219
0.0146137
0.0155093
0.0163294
0.017097
0.017837
0.0185744
0.0193323
0.0201304
0.0209837
0.0219038
0.0228995
0.0239829
0.025184
0.0265788
0.0281688
0.0298923
0.0317074
0.0335867
0.0355133
0.037475
0.0394641
0.0414739
0.0435002
0.0455387
0.0475864
0.0496401
0.0516972
0.0537551
0.0558114
0.0578637
0.0599092
0.0619458
0.000198621
0.000952123
0.00202333
0.00333066
0.00484102
0.00648953
0.00814949
0.00971824
0.0111554
0.0124561
0.0136276
0.0146817
0.0156324
0.0164963
0.0172929
0.0180439
0.018773
0.0195033
0.0202565
0.0210514
0.0219026
0.022821
0.0238168
0.0249048
0.0261239
0.0275559
0.0291714
0.0309132
0.0327427
0.0346353
0.0365745
0.0385488
0.0405506
0.0425736
0.0446132
0.0466655
0.0487269
0.0507942
0.0528647
0.0549357
0.0570043
0.0590681
0.061125
0.000189806
0.000913824
0.0019412
0.00319516
0.00464642
0.0062495
0.00790454
0.00950357
0.0109901
0.012348
0.0135792
0.0146922
0.0156979
0.0166101
0.0174446
0.0182202
0.0189578
0.0196795
0.0204073
0.0211613
0.0219591
0.0228146
0.0237387
0.024743
0.0258475
0.0271058
0.0285866
0.0302354
0.0320006
0.0338485
0.0357565
0.0377095
0.0396971
0.0417119
0.0437478
0.0458002
0.047865
0.0499387
0.052018
0.0541001
0.0561819
0.0582607
0.0603342
0.000181674
0.000878896
0.00186652
0.00307213
0.00446888
0.0060232
0.00765854
0.00927259
0.0107964
0.0122028
0.0134869
0.0146541
0.0157127
0.0166736
0.0175502
0.0183582
0.0191158
0.0198431
0.0205611
0.0212903
0.0220499
0.0228557
0.0237212
0.0246578
0.0256794
0.0268144
0.0281355
0.0296696
0.0313553
0.0331473
0.0350158
0.0369409
0.0389091
0.0409107
0.0429386
0.0449872
0.0470517
0.0491281
0.0512131
0.0533031
0.0553952
0.0574864
0.059574
0.000174232
0.000846951
0.0017982
0.00295972
0.00430636
0.00581153
0.00741771
0.00903345
0.0105833
0.0120292
0.0133596
0.0145758
0.0156837
0.0166921
0.017612
0.0184565
0.0192412
0.019984
0.0207043
0.0214221
0.0221568
0.0229258
0.0237444
0.0246252
0.0255806
0.0266288
0.0278117
0.0292118
0.0308022
0.0325269
0.0343476
0.0362384
0.0381818
0.040166
0.042182
0.0442232
0.046284
0.0483602
0.0504477
0.0525431
0.0546428
0.0567448
0.0588476
0.000167399
0.000817604
0.00173548
0.00285655
0.00415688
0.00561477
0.00718597
0.00879279
0.0103578
0.0118348
0.0132048
0.0144648
0.015618
0.0166713
0.0176338
0.0185163
0.0193323
0.0200973
0.0208289
0.0215458
0.022267
0.0230107
0.0237932
0.0246286
0.0255298
0.0265112
0.0275987
0.0288567
0.0303371
0.0319832
0.0337477
0.0355976
0.0375114
0.0394739
0.0414745
0.0435049
0.0455593
0.0476324
0.0497199
0.0518179
0.0539235
0.0560342
0.0581492
0.000161097
0.000790476
0.00167747
0.00276118
0.00401884
0.00543161
0.00696527
0.00855488
0.0101259
0.0116257
0.013029
0.0143274
0.0155218
0.016617
0.0176204
0.0185411
0.0193902
0.0201815
0.0209306
0.0216546
0.0223717
0.0230999
0.0238562
0.0246558
0.0255123
0.0264394
0.0274556
0.0286006
0.0299567
0.0315127
0.0332119
0.0350147
0.0368938
0.0388307
0.0408125
0.0428296
0.0448748
0.0469423
0.0490274
0.0511261
0.0532352
0.0553523
0.0574772
0.000155289
0.000765261
0.00162367
0.00267288
0.00389093
0.0052612
0.0067564
0.008323
0.0098919
0.0114074
0.0128373
0.0141691
0.0154005
0.0165344
0.0175764
0.0185341
0.0194171
0.020237
0.0210077
0.0217447
0.022465
0.0231859
0.0239246
0.0246971
0.0255176
0.0263999
0.0273596
0.0284239
0.0296557
0.031111
0.0327369
0.0344861
0.0363257
0.0382333
0.0401933
0.0421942
0.0442279
0.0462877
0.0483682
0.0504654
0.0525754
0.0546952
0.0568211
0.000151088
0.000741808
0.00157376
0.00259096
0.00377223
0.00510245
0.00655942
0.0080991
0.00965957
0.0111834
0.0126342
0.0139945
0.0152588
0.016428
0.0175061
0.0184994
0.0194157
0.0202653
0.0210602
0.0218143
0.0225433
0.0232637
0.0239923
0.0247452
0.0255373
0.0263828
0.0272963
0.0282982
0.0294306
0.0307756
0.0323196
0.0340089
0.0358043
0.0376788
0.039614
0.0415964
0.0436162
0.0456662
0.0477403
0.049834
0.0519428
0.054063
0.0561898
0.000147301
0.000719821
0.0015271
0.0025144
0.00366131
0.00495396
0.00637364
0.00788435
0.00943102
0.0109574
0.0124235
0.0138075
0.0151008
0.0163018
0.0174134
0.0184403
0.0193891
0.0202685
0.021089
0.0218631
0.022605
0.0233301
0.0240547
0.0247946
0.0255652
0.0263809
0.0272561
0.0282082
0.0292676
0.0305018
0.0319569
0.0335802
0.0353266
0.0371646
0.0390721
0.0410334
0.0430376
0.0450758
0.0471419
0.0492302
0.0513362
0.0534555
0.0555839
0.000143713
0.000699291
0.00148343
0.00244287
0.00355765
0.00481501
0.00619889
0.00767935
0.00920838
0.0107321
0.0122083
0.0136115
0.0149298
0.0161596
0.0173019
0.0183602
0.01934
0.0202489
0.0210956
0.0218914
0.0226492
0.0233832
0.0241086
0.0248412
0.0255963
0.0263885
0.0272322
0.0281433
0.0291455
0.0302867
0.0316459
0.0331973
0.0348902
0.0366881
0.0385651
0.0405034
0.0424897
0.0445148
0.0465709
0.0486524
0.0507539
0.0528711
0.0549998
0.000140362
0.000679994
0.00144261
0.00237581
0.00346059
0.00468485
0.00603433
0.00748427
0.00899273
0.0105095
0.0119912
0.0134093
0.014749
0.0160043
0.0171745
0.0182622
0.0192715
0.0202087
0.0210817
0.0219004
0.022676
0.0234219
0.0241523
0.0248823
0.025627
0.0264012
0.0272193
0.0280964
0.0290524
0.0301233
0.0313839
0.0328578
0.0344928
0.036247
0.038091
0.0400039
0.0419708
0.0439809
0.0460258
0.048099
0.0501948
0.0523081
0.054434
0.000137184
0.000662006
0.00140429
0.00231287
0.00336953
0.00456254
0.00587943
0.00729897
0.00878496
0.0102912
0.0117742
0.0132032
0.0145607
0.0158385
0.0170341
0.0181488
0.0191859
0.0201504
0.0210494
0.0218911
0.022686
0.023446
0.0241845
0.0249158
0.0256546
0.0264156
0.0272132
0.0280622
0.0289804
0.0299961
0.0311671
0.0325593
0.0341322
0.0358395
0.0376478
0.0395333
0.0414791
0.0434727
0.0455052
0.0475687
0.0496576
0.0517657
0.053888
0.000134209
0.000645168
0.00136829
0.0022538
0.00328391
0.00444744
0.00573335
0.00712304
0.00858542
0.0100782
0.0115589
0.0129953
0.0143673
0.0156646
0.016883
0.0180226
0.0190856
0.0200762
0.0210002
0.021865
0.02268
0.0234558
0.0242048
0.0249405
0.0256772
0.0264292
0.0272109
0.0280367
0.0289234
0.0298943
0.0309934
0.0322998
0.0338065
0.0354636
0.0372337
0.0390899
0.0410128
0.0429889
0.0450074
0.0470604
0.0491411
0.0512438
0.0533629
0.000131417
0.000629262
0.00133443
0.00219829
0.00320329
0.00433905
0.00559533
0.00695612
0.00839416
0.00987125
0.0113467
0.0127872
0.0141706
0.0154845
0.0167234
0.0178856
0.0189728
0.019988
0.0209362
0.0218238
0.022659
0.0234516
0.024213
0.0249557
0.0256934
0.02644
0.0272097
0.0280169
0.0288773
0.0298115
0.0308543
0.0320765
0.0335137
0.0351177
0.0368471
0.038672
0.0405706
0.0425276
0.0445313
0.0465728
0.0486451
0.0507429
0.052862
0.000128727
0.00061426
0.00130249
0.00214578
0.00312721
0.00423671
0.00546491
0.00679768
0.0082112
0.00967097
0.0111385
0.0125801
0.0139722
0.0153002
0.0165569
0.0177398
0.0188493
0.0198876
0.0208589
0.0217687
0.0226242
0.0234343
0.0242093
0.024961
0.0257023
0.0264466
0.0272078
0.0280002
0.0288389
0.0297424
0.0307398
0.0318872
0.0332519
0.0348
0.0364866
0.0382781
0.0401511
0.0420879
0.0440757
0.046105
0.0481682
0.0502598
0.0523761
0.000126186
0.00060013
0.0012723
0.00209618
0.00305533
0.00413998
0.00534144
0.00664721
0.00803626
0.00947759
0.0109351
0.0123753
0.0137731
0.0151128
0.0163852
0.0175867
0.0187167
0.0197767
0.0207699
0.0217012
0.0225768
0.0234046
0.0241943
0.0249565
0.0257034
0.026448
0.0272038
0.0279848
0.0288056
0.0296835
0.0306431
0.0317295
0.0330199
0.0345092
0.0361505
0.0379073
0.039753
0.0416684
0.0436396
0.0456558
0.0477095
0.0497948
0.0519087
0.000123798
0.000586781
0.00124371
0.00204924
0.00298726
0.00404841
0.00522447
0.0065042
0.00786895
0.00929117
0.0107369
0.0121733
0.0135747
0.0149236
0.0162095
0.0174278
0.0185766
0.0196568
0.0206708
0.0216226
0.0225179
0.0233636
0.0241684
0.0249422
0.0256966
0.0264437
0.0271967
0.0279691
0.0287754
0.0296318
0.0305603
0.0315978
0.0328152
0.0342438
0.0358379
0.0375581
0.0393752
0.0412683
0.0432217
0.0452243
0.0472673
0.0493439
0.0514483
0.000121673
0.000574156
0.00121669
0.00200483
0.0029228
0.00396156
0.00511345
0.00636815
0.00770931
0.00911185
0.0105443
0.0119751
0.0133779
0.0147338
0.0160313
0.0172644
0.0184304
0.0195292
0.0205627
0.0215343
0.0224486
0.023312
0.0241323
0.0249186
0.0256816
0.0264331
0.0271855
0.027952
0.0287469
0.0295855
0.0304877
0.0314848
0.0326364
0.0340024
0.0355474
0.0372293
0.0390167
0.0408862
0.0428212
0.0448091
0.0468405
0.0489077
0.0510042
0.000120258
0.000562238
0.00119116
0.00196277
0.00286174
0.00387926
0.00500806
0.00623881
0.0075568
0.00893944
0.0103577
0.0117812
0.0131832
0.0145442
0.0158514
0.0170975
0.018279
0.0193952
0.020447
0.0214373
0.02237
0.0232508
0.0240867
0.024886
0.0256588
0.026416
0.0271697
0.0279327
0.0287187
0.0295425
0.0304225
0.031386
0.0324818
0.0337837
0.0352779
0.0369201
0.0386763
0.0405215
0.0424371
0.0444096
0.0464286
0.0484862
0.0505752
0.000120434
0.000550833
0.00116693
0.00192283
0.00280368
0.003801
0.00490781
0.00611559
0.007411
0.00877376
0.0101771
0.0115917
0.0129914
0.0143556
0.0156707
0.0169282
0.0181237
0.0192557
0.0203248
0.0213327
0.0222831
0.0231809
0.0240322
0.0248451
0.0256283
0.0263925
0.0271491
0.0279105
0.0286898
0.0295016
0.0303631
0.0312981
0.0323482
0.0335865
0.0350282
0.0366294
0.0383534
0.040173
0.0420685
0.0440249
0.0460311
0.0480786
0.0501616
0.000122738
0.000539937
0.00114384
0.00188478
0.00274845
0.0037265
0.00481236
0.0059981
0.00727166
0.00861467
0.0100023
0.0114071
0.0128027
0.0141686
0.0154898
0.0167571
0.0179652
0.0191119
0.0201968
0.0212215
0.0221888
0.023103
0.0239698
0.0247961
0.0255905
0.0263627
0.0271235
0.0278849
0.0286597
0.0294618
0.0303076
0.0312189
0.032231
0.0334093
0.0347974
0.0363561
0.0380468
0.0398401
0.0417146
0.0436543
0.045647
0.0476838
0.0497574
0.000126688
0.000529566
0.00112202
0.00184867
0.00269596
0.00365562
0.0047214
0.00588601
0.00713836
0.00846168
0.00983345
0.0112273
0.0126178
0.0139837
0.0153097
0.0165852
0.0178045
0.0189644
0.0200642
0.0211046
0.022088
0.0230181
0.0238999
0.0247398
0.0255457
0.0263265
0.0270927
0.0278556
0.0286276
0.0294223
0.030255
0.031146
0.032126
0.0332511
0.0345845