/*--------------------------------*- C++ -*----------------------------------*\
| =========                 |                                                 |
| \\      /  F ield         | OpenFOAM: The Open Source CFD Toolbox           |
|  \\    /   O peration     | Version:  2.3.0                                 |
|   \\  /    A nd           | Web:      www.OpenFOAM.org                      |
|    \\/     M anipulation  |                                                 |
\*---------------------------------------------------------------------------*/
FoamFile
{
    version     2.0;
    format      ascii;
    class       volScalarField;
    location    "3000";
    object      p;
}
// * * * * * * * * * * * * * * * * * * * * * * * * * * * * * * * * * * * * * //

dimensions      [0 2 -2 0 0 0 0];

internalField   nonuniform List<scalar> 
37496
(
0.0002214
-2.48353
-5.06165
-7.69808
-10.4086
-13.1966
-16.065
-19.0156
-22.0507
-25.1755
-28.3927
-31.7023
-35.108
-38.6089
-42.2108
-45.9077
-49.6971
-53.5816
-57.5452
-61.59
-65.7033
-69.8704
-74.0845
-78.3339
-82.61
-86.9041
-91.2146
-95.5307
-99.8686
-104.209
-108.532
-112.817
-117.018
-120.974
-124.56
-127.47
-129.466
-129.743
-126.33
-117.489
-107.367
-100.919
-64.41
4.56787
2.75883
0.719784
-1.39105
-3.5467
-5.73791
-7.96876
-10.236
-12.5384
-14.8792
-17.2528
-19.6636
-22.1037
-24.5781
-27.0841
-29.6206
-32.1882
-34.7865
-37.4106
-40.0595
-42.7293
-45.3986
-48.0613
-50.6875
-53.2513
-55.6928
-57.967
-59.9888
-61.6658
-62.8627
-63.4104
-63.1325
-61.7585
-58.982
-54.4515
-47.7138
-38.3468
-25.7159
-9.22393
11.7997
38.1734
71.7509
113.259
9.07805
7.74091
6.13429
4.49923
2.84861
1.18832
-0.483358
-2.16168
-3.84358
-5.53319
-7.21614
-8.90084
-10.569
-12.2283
-13.8551
-15.4535
-17.0107
-18.5117
-19.9461
-21.2957
-22.5534
-23.6901
-24.6925
-25.5309
-26.1786
-26.6091
-26.7589
-26.6043
-26.0673
-25.0862
-23.5636
-21.3887
-18.4315
-14.5414
-9.52323
-3.19074
4.68964
14.3321
25.9193
39.5482
55.3113
73.3383
93.2979
13.1984
12.1734
10.928
9.64419
8.3584
7.08018
5.80782
4.54235
3.28975
2.04823
0.826722
-0.379303
-1.55348
-2.70423
-3.80807
-4.86987
-5.87508
-6.81801
-7.67827
-8.43813
-9.08771
-9.60739
-9.95725
-10.1149
-10.0464
-9.70917
-9.04067
-8.00642
-6.51773
-4.49223
-1.86175
1.49956
5.67705
10.8192
17.0413
24.4592
33.2096
43.3513
54.9507
67.9175
82.1374
97.2623
112.799
16.8911
16.1668
15.1738
14.1757
13.1898
12.2152
11.2556
10.3097
9.38729
8.48881
7.61985
6.78369
5.98779
5.23162
4.53568
3.89735
3.33296
2.84935
2.46193
2.18822
2.0464
2.04841
2.2315
2.61307
3.2167
4.09157
5.26685
6.78852
8.71481
11.1211
14.051
17.6015
21.84
26.8654
32.7662
39.6024
47.4679
56.3699
66.3156
77.2192
88.9588
101.257
113.795
20.1993
19.6742
18.9186
18.1599
17.4127
16.6681
15.946
15.2366
14.5586
13.9088
13.2923
12.7203
12.1878
11.7015
11.2715
10.9146
10.6304
10.4333
10.3284
10.3389
10.4881
10.7862
11.2718
11.9595
12.8753
14.0701
15.5576
17.3745
19.587
22.2549
25.4213
29.1451
33.5017
38.514
44.3094
50.8837
58.3292
66.6078
75.6891
85.5033
95.9022
106.683
117.591
23.2122
22.8328
22.2482
21.6708
21.1141
20.5506
20.0178
19.4823
18.9983
18.5401
18.1141
17.7439
17.4167
17.1297
16.8952
16.7548
16.6938
16.7151
16.8185
17.0455
17.397
17.8987
18.5718
19.4661
20.5782
21.9819
23.6548
25.5925
27.9283
30.6998
33.9558
37.6968
42.0236
46.8677
52.4461
58.6389
65.5715
73.2356
81.5582
90.5188
99.9367
109.665
119.44
25.9186
25.7044
25.2078
24.7302
24.317
23.9229
23.565
23.129
22.7879
22.4717
22.1671
21.956
21.8064
21.6728
21.527
21.5192
21.649
21.8481
22.0757
22.4546
22.9581
23.6005
24.3556
25.3477
26.467
28.0442
29.9537
31.9733
34.3615
37.1741
40.3726
44.1271
48.4984
53.1355
58.5436
64.4969
71.1423
78.3933
86.0849
94.4191
103.06
111.969
120.959
28.4377
28.387
27.8962
27.4917
27.2788
26.8921
26.6748
26.2131
25.9211
25.6486
25.3655
25.263
25.2766
25.3195
25.1439
25.063
25.2782
25.6535
25.9119
26.3488
26.9324
27.6756
28.455
29.5362
30.3509
31.9591
34.565
36.5879
38.8836
41.6969
44.6776
48.1277
53.217
57.2328
62.1864
68.0908
75.083
82.4844
89.7912
97.6142
105.386
113.282
121.685
66.8663
126.808
158.846
181.138
198.345
211.411
221.275
228.686
234.244
238.38
241.385
243.544
245.023
245.945
246.455
246.602
246.475
246.123
245.594
244.926
244.149
243.288
242.358
241.386
240.375
239.341
238.296
237.242
236.188
235.138
234.094
233.059
232.034
231.021
230.02
229.03
228.053
227.09
226.14
225.199
224.262
223.361
222.841
151.929
178.229
197.373
211.921
222.991
231.246
237.254
241.504
244.377
246.186
247.184
247.571
247.494
247.091
246.445
245.638
244.726
243.741
242.708
241.652
240.586
239.522
238.469
237.427
236.402
235.394
234.406
233.431
232.474
231.533
230.604
229.69
228.79
227.904
227.029
226.167
225.319
224.484
223.662
222.849
222.04
221.271
220.891
113.576
132.539
149.464
164.114
176.561
187.003
195.668
202.799
208.613
213.326
217.126
220.164
222.571
224.459
225.918
227.022
227.834
228.406
228.779
228.99
229.06
229.015
228.871
228.645
228.353
228.001
227.6
227.159
226.683
226.18
225.651
225.105
224.541
223.966
223.379
222.786
222.187
221.584
220.978
220.367
219.746
219.135
218.709
128.013
142.315
155.351
166.961
177.083
185.791
193.185
199.39
204.554
208.817
212.307
215.139
217.42
219.24
220.68
221.798
222.652
223.284
223.729
224.022
224.187
224.245
224.213
224.108
223.946
223.733
223.474
223.18
222.856
222.504
222.129
221.736
221.325
220.9
220.465
220.022
219.572
219.116
218.655
218.192
217.728
217.285
217.065
126.197
138.124
149.295
159.528
168.701
176.807
183.885
189.994
195.216
199.654
203.399
206.54
209.165
211.344
213.153
214.632
215.845
216.824
217.605
218.22
218.689
219.034
219.28
219.437
219.522
219.543
219.505
219.415
219.281
219.108
218.904
218.671
218.412
218.133
217.838
217.53
217.213
216.884
216.545
216.199
215.848
215.512
215.345
128.371
138.782
148.63
157.752
166.038
173.468
180.05
185.812
190.804
195.106
198.777
201.898
204.548
206.787
208.676
210.254
211.58
212.673
213.568
214.298
214.879
215.339
215.701
215.987
216.194
216.338
216.409
216.426
216.395
216.328
216.232
216.101
215.94
215.757
215.562
215.356
215.145
214.911
214.661
214.404
214.143
213.882
213.75
129.034
138.356
147.293
155.663
163.358
170.323
176.564
182.118
186.976
191.176
194.769
197.867
200.533
202.819
204.783
206.457
207.886
209.084
210.081
210.906
211.583
212.154
212.634
213.034
213.354
213.601
213.754
213.855
213.91
213.929
213.932
213.877
213.779
213.676
213.573
213.459
213.338
213.16
212.972
212.785
212.605
212.428
212.392
129.837
138.601
147.188
154.966
162.248
168.784
174.67
180.062
184.775
188.662
192.03
195.046
197.675
199.962
201.968
203.708
205.181
206.381
207.418
208.266
208.97
209.624
210.195
210.665
211.066
211.367
211.546
211.694
211.797
211.891
211.979
211.94
211.87
211.855
211.859
211.819
211.744
211.561
211.425
211.304
211.203
211.106
211.196
130.735
140.591
148.978
156.549
162.778
169.111
175.393
180.342
183.957
187.741
190.91
193.815
196.422
198.655
200.578
202.237
203.572
204.518
205.548
206.212
206.724
207.26
207.962
208.626
209.158
209.491
209.549
209.698
209.785
209.978
210.216
210.077
209.992
210.087
210.138
210.034
210.175
210.034
210.009
209.996
209.987
209.941
210.15
103.802
104.093
104.329
104.571
104.807
105.034
105.251
105.457
105.652
105.834
106.004
106.16
106.302
106.428
106.539
106.633
106.71
106.769
106.81
106.832
106.834
106.817
106.781
106.724
106.647
106.551
106.436
106.302
106.149
105.98
105.794
105.593
105.378
105.151
104.914
104.669
104.42
104.17
103.929
103.713
103.56
103.576
104.05
104.663
104.659
104.745
104.828
104.903
104.969
105.025
105.072
105.11
105.139
105.161
105.178
105.189
105.197
105.202
105.205
105.209
105.212
105.216
105.222
105.23
105.239
105.251
105.265
105.281
105.298
105.318
105.338
105.36
105.382
105.406
105.43
105.454
105.478
105.504
105.53
105.559
105.594
105.644
105.745
106.001
106.606
107.442
105.264
105.286
105.344
105.398
105.454
105.512
105.57
105.627
105.683
105.737
105.789
105.84
105.89
105.938
105.985
106.03
106.074
106.117
106.159
106.199
106.238
106.276
106.313
106.348
106.382
106.416
106.447
106.478
106.507
106.536
106.564
106.592
106.619
106.647
106.675
106.704
106.738
106.783
106.857
107.009
107.356
108.105
109.309
105.785
105.912
106.004
106.091
106.179
106.266
106.352
106.435
106.516
106.593
106.666
106.736
106.803
106.865
106.924
106.98
107.033
107.085
107.135
107.183
107.229
107.273
107.316
107.359
107.4
107.442
107.482
107.521
107.558
107.593
107.626
107.659
107.69
107.72
107.749
107.78
107.815
107.867
107.96
108.15
108.562
109.309
110.488
106.327
106.447
106.547
106.644
106.74
106.831
106.918
107.004
107.086
107.165
107.238
107.309
107.378
107.443
107.503
107.559
107.615
107.671
107.727
107.781
107.834
107.886
107.937
107.988
108.041
108.096
108.153
108.207
108.259
108.309
108.356
108.403
108.447
108.491
108.534
108.58
108.633
108.708
108.834
109.071
109.541
110.301
111.452
106.843
106.932
107.019
107.113
107.211
107.303
107.39
107.476
107.565
107.651
107.727
107.798
107.874
107.95
108.014
108.07
108.125
108.185
108.247
108.305
108.363
108.42
108.474
108.523
108.575
108.637
108.706
108.773
108.836
108.894
108.948
109.001
109.053
109.103
109.153
109.209
109.277
109.372
109.526
109.801
110.317
111.109
112.283
107.268
107.349
107.431
107.526
107.634
107.734
107.822
107.908
108.004
108.105
108.188
108.258
108.343
108.448
108.526
108.582
108.631
108.696
108.775
108.848
108.914
108.983
109.047
109.089
109.124
109.187
109.277
109.363
109.436
109.497
109.549
109.597
109.649
109.696
109.741
109.792
109.858
109.945
110.082
110.34
110.826
111.576
112.77
107.685
107.723
107.808
107.905
108.024
108.125
108.195
108.261
108.363
108.494
108.568
108.578
108.606
108.748
108.864
108.91
108.903
108.913
108.981
109.052
109.111
109.189
109.299
109.343
109.31
109.314
109.418
109.555
109.672
109.768
109.833
109.883
109.952
110.016
110.071
110.138
110.255
110.395
110.574
110.897
111.449
112.267
113.642
107.772
107.726
107.885
108.102
108.383
108.614
108.693
108.667
108.776
109.103
109.486
109.549
109.418
109.632
109.926
110.151
110.224
110.269
110.374
110.485
110.516
110.515
110.696
110.974
110.886
110.758
110.78
110.895
110.983
111.049
111.079
111.055
111.072
111.086
111.076
111.007
110.999
111.005
110.906
110.851
110.865
111.02
112.54
107.366
110.118
112.846
115.203
117.348
119.289
121.061
122.687
124.19
125.59
126.905
128.145
129.324
130.45
131.532
132.579
133.596
134.588
135.561
136.518
137.459
138.389
139.307
140.215
141.114
142.004
142.885
143.758
144.621
145.476
146.322
147.158
147.985
148.803
149.61
150.408
151.195
151.971
152.738
153.492
154.23
154.968
155.774
109.362
110.701
112.418
114.158
115.966
117.749
119.485
121.158
122.761
124.295
125.761
127.164
128.508
129.798
131.037
132.232
133.384
134.496
135.571
136.613
137.623
138.602
139.554
140.479
141.38
142.257
143.114
143.951
144.769
145.569
146.353
147.122
147.876
148.618
149.347
150.064
150.771
151.467
152.154
152.832
153.492
154.155
154.911
111.193
112.627
114.234
115.781
117.368
118.943
120.5
122.025
123.509
124.948
126.338
127.679
128.969
130.213
131.411
132.565
133.677
134.75
135.788
136.79
137.76
138.701
139.613
140.5
141.362
142.201
143.019
143.816
144.597
145.358
146.104
146.834
147.55
148.251
148.939
149.614
150.277
150.929
151.571
152.202
152.815
153.428
154.132
112.151
113.612
115.182
116.705
118.253
119.776
121.272
122.731
124.148
125.518
126.841
128.117
129.345
130.529
131.669
132.768
133.829
134.853
135.842
136.8
137.729
138.629
139.503
140.353
141.18
141.986
142.772
143.539
144.289
145.022
145.739
146.441
147.128
147.802
148.462
149.11
149.747
150.372
150.987
151.592
152.178
152.77
153.467
112.99
114.411
115.897
117.373
118.873
120.352
121.806
123.222
124.597
125.927
127.211
128.45
129.644
130.795
131.904
132.974
134.007
135.004
135.969
136.902
137.805
138.68
139.528
140.351
141.15
141.928
142.685
143.423
144.143
144.845
145.53
146.199
146.853
147.493
148.12
148.734
149.336
149.929
150.511
151.081
151.632
152.187
152.847
113.823
115.252
116.694
118.127
119.57
120.992
122.392
123.758
125.087
126.374
127.62
128.824
129.986
131.108
132.191
133.236
134.244
135.217
136.158
137.067
137.946
138.794
139.616
140.413
141.185
141.935
142.665
143.376
144.068
144.74
145.394
146.032
146.656
147.263
147.856
148.437
149.007
149.568
150.117
150.654
151.17
151.682
152.274
114.427
115.969
117.441
118.858
120.256
121.624
122.97
124.285
125.566
126.811
128.019
129.188
130.318
131.411
132.469
133.489
134.473
135.42
136.337
137.227
138.081
138.902
139.699
140.472
141.221
141.947
142.653
143.342
144.01
144.654
145.28
145.892
146.488
147.066
147.63
148.183
148.726
149.258
149.779
150.288
150.773
151.257
151.799
115.45
116.975
118.311
119.608
120.895
122.185
123.472
124.742
125.982
127.193
128.369
129.513
130.617
131.69
132.733
133.735
134.702
135.627
136.528
137.413
138.241
139.032
139.809
140.567
141.291
141.99
142.673
143.349
143.996
144.607
145.203
145.795
146.367
146.911
147.442
147.969
148.485
148.992
149.486
149.969
150.415
150.877
151.377
115.33
117.448
118.888
120.146
121.393
122.654
123.895
125.13
126.333
127.518
128.663
129.787
130.86
131.918
132.968
133.931
134.877
135.758
136.65
137.557
138.308
139.052
139.848
140.577
141.263
141.952
142.648
143.342
143.941
144.494
145.078
145.686
146.228
146.725
147.241
147.761
148.271
148.776
149.263
149.739
150.127
150.596
151.087
-634.091
-591.879
-545.527
-508.845
-472.585
-434.6
-397.407
-362.361
-329.819
-299.909
-272.763
-248.36
-226.594
-207.222
-189.928
-174.484
-160.653
-148.226
-136.986
-126.773
-117.433
-108.846
-100.892
-93.4837
-86.5438
-80.0135
-73.8451
-67.9959
-62.4338
-57.1319
-52.071
-47.2289
-42.5907
-38.1455
-33.8797
-29.7824
-25.8452
-22.0592
-18.4176
-14.9154
-11.5445
-8.29921
-5.20356
-447.502
-444.723
-438.034
-429.483
-418.434
-404.346
-387.741
-369.175
-349.211
-328.372
-307.224
-286.236
-265.837
-246.329
-227.88
-210.62
-194.58
-179.733
-166.018
-153.374
-141.709
-130.941
-120.976
-111.742
-103.159
-95.1518
-87.6679
-80.6515
-74.0536
-67.8326
-61.9575
-56.3902
-51.1083
-46.0875
-41.3065
-36.7468
-32.3943
-28.232
-24.2492
-20.4352
-16.7778
-13.2702
-10.0356
-419.198
-419.213
-418.266
-414.369
-407.522
-398.13
-386.552
-372.977
-357.686
-341.014
-323.397
-305.242
-286.938
-268.832
-251.188
-234.19
-217.967
-202.596
-188.115
-174.522
-161.801
-149.913
-138.809
-128.439
-118.749
-109.679
-101.188
-93.2196
-85.7321
-78.6854
-72.0451
-65.771
-59.8421
-54.2244
-48.8951
-43.8333
-39.0196
-34.4332
-30.0608
-25.8834
-21.8903
-18.0712
-14.5881
-367.61
-367.641
-367.31
-366.15
-363.718
-359.867
-354.461
-347.402
-338.66
-328.278
-316.432
-303.369
-289.376
-274.783
-259.896
-244.994
-230.281
-215.937
-202.067
-188.742
-176.029
-163.948
-152.505
-141.696
-131.49
-121.864
-112.794
-104.23
-96.1547
-88.5282
-81.3237
-74.5072
-68.0564
-61.943
-56.1442
-50.6363
-45.4027
-40.4214
-35.6762
-31.1483
-26.8244
-22.6837
-18.9712
-335.838
-336.156
-336.516
-336.41
-335.424
-333.234
-329.751
-324.958
-318.859
-311.464
-302.836
-293.073
-282.306
-270.736
-258.579
-246.039
-233.335
-220.633
-208.091
-195.798
-183.842
-172.275
-161.148
-150.494
-140.319
-130.622
-121.402
-112.63
-104.305
-96.3966
-88.8898
-81.7604
-74.9878
-68.5537
-62.4362
-56.6167
-51.0793
-45.8033
-40.775
-35.9776
-31.3953
-27.0069
-23.0295
-304.102
-304.421
-304.789
-304.924
-304.619
-303.629
-301.786
-298.989
-295.172
-290.288
-284.337
-277.352
-269.384
-260.553
-250.987
-240.832
-230.271
-219.45
-208.52
-197.608
-186.803
-176.178
-165.783
-155.682
-145.912
-136.493
-127.444
-118.76
-110.449
-102.498
-94.9001
-87.6475
-80.7226
-74.116
-67.811
-61.7959
-56.056
-50.5748
-45.3431
-40.3434
-35.5642
-30.9839
-26.796
-277.935
-278.286
-278.754
-279.098
-279.147
-278.72
-277.653
-275.861
-273.286
-269.884
-265.624
-260.504
-254.538
-247.776
-240.287
-232.17
-223.539
-214.508
-205.202
-195.735
-186.204
-176.697
-167.255
-157.95
-148.823
-139.919
-131.27
-122.893
-114.803
-106.998
-99.4877
-92.2713
-85.3379
-78.6897
-72.3154
-66.2061
-60.3567
-54.7532
-49.3883
-44.2488
-39.3269
-34.6009
-30.2899
-254.453
-254.792
-255.257
-255.658
-255.885
-255.803
-255.277
-254.204
-252.526
-250.2
-247.184
-243.454
-239.005
-233.852
-228.032
-221.595
-214.619
-207.181
-199.377
-191.301
-183.037
-174.675
-166.265
-157.866
-149.519
-141.276
-133.18
-125.258
-117.537
-110.027
-102.744
-95.6925
-88.8762
-82.2993
-75.9604
-69.8527
-63.9795
-58.331
-52.9037
-47.6873
-42.6787
-37.8608
-33.4961
-234.04
-234.365
-234.829
-235.265
-235.586
-235.699
-235.49
-234.862
-233.757
-232.135
-229.961
-227.21
-223.862
-219.911
-215.372
-210.269
-204.647
-198.558
-192.068
-185.245
-178.162
-170.892
-163.489
-156.013
-148.495
-140.984
-133.522
-126.147
-118.891
-111.775
-104.818
-98.0302
-91.4266
-85.0122
-78.7932
-72.7694
-66.9475
-61.3233
-55.8949
-50.659
-45.613
-40.738
-36.3526
-216.007
-216.315
-216.758
-217.195
-217.561
-217.79
-217.79
-217.471
-216.771
-215.656
-214.096
-212.06
-209.528
-206.486
-202.936
-198.882
-194.349
-189.373
-183.995
-178.261
-172.231
-165.96
-159.498
-152.901
-146.199
-139.432
-132.634
-125.851
-119.113
-112.447
-105.881
-99.4273
-93.1025
-86.9192
-80.8871
-75.0122
-69.3024
-63.7598
-58.3867
-53.1811
-48.1451
-43.2575
-38.9034
-200.144
-200.431
-200.853
-201.281
-201.663
-201.951
-202.079
-201.962
-201.541
-200.782
-199.658
-198.143
-196.217
-193.86
-191.068
-187.838
-184.178
-180.106
-175.649
-170.841
-165.724
-160.339
-154.728
-148.937
-143.002
-136.952
-130.814
-124.629
-118.43
-112.244
-106.104
-100.023
-94.0241
-88.1194
-82.3234
-76.6459
-71.0976
-65.6836
-60.4119
-55.282
-50.3033
-45.4535
-41.2096
-186.115
-186.38
-186.776
-187.187
-187.569
-187.89
-188.096
-188.116
-187.893
-187.395
-186.592
-185.465
-183.992
-182.157
-179.947
-177.359
-174.389
-171.049
-167.352
-163.32
-158.979
-154.364
-149.506
-144.44
-139.202
-133.818
-128.31
-122.708
-117.042
-111.344
-105.642
-99.9552
-94.3057
-88.7105
-83.1832
-77.7385
-72.387
-67.1383
-62.0023
-56.9799
-52.0845
-47.2937
-43.1604
-173.692
-173.937
-174.306
-174.697
-175.07
-175.401
-175.651
-175.759
-175.677
-175.365
-174.8
-173.962
-172.834
-171.398
-169.642
-167.555
-165.134
-162.382
-159.304
-155.915
-152.231
-148.274
-144.072
-139.65
-135.036
-130.255
-125.329
-120.278
-115.126
-109.903
-104.636
-99.3489
-94.0599
-88.7889
-83.5502
-78.3604
-73.2312
-68.174
-63.2014
-58.3177
-53.5379
-48.8362
-44.8267
-162.654
-162.879
-163.224
-163.593
-163.951
-164.282
-164.554
-164.72
-164.733
-164.559
-164.171
-163.552
-162.686
-161.557
-160.153
-158.463
-156.48
-154.201
-151.628
-148.769
-145.634
-142.238
-138.601
-134.74
-130.677
-126.437
-122.037
-117.495
-112.827
-108.056
-103.211
-98.3153
-93.3863
-88.4434
-83.5023
-78.5798
-73.6873
-68.8401
-64.0483
-59.3199
-54.6683
-50.0676
-46.0934
-152.823
-153.028
-153.35
-153.695
-154.036
-154.359
-154.64
-154.841
-154.92
-154.843
-154.588
-154.135
-153.47
-152.58
-151.452
-150.076
-148.442
-146.546
-144.386
-141.966
-139.288
-136.365
-133.208
-129.834
-126.256
-122.496
-118.568
-114.485
-110.263
-105.918
-101.474
-96.9521
-92.3735
-87.7542
-83.1111
-78.4601
-73.8125
-69.1848
-64.5894
-60.0317
-55.5328
-51.0611
-47.156
-144.04
-144.224
-144.526
-144.849
-145.17
-145.48
-145.762
-145.983
-146.105
-146.1
-145.945
-145.619
-145.11
-144.407
-143.496
-142.367
-141.013
-139.426
-137.603
-135.543
-133.249
-130.725
-127.979
-125.023
-121.868
-118.528
-115.018
-111.35
-107.532
-103.58
-99.5109
-95.3431
-91.0995
-86.7934
-82.4414
-78.0598
-73.6596
-69.2543
-64.8595
-60.4781
-56.1294
-51.7759
-47.8063
-136.17
-136.335
-136.618
-136.92
-137.221
-137.517
-137.792
-138.02
-138.171
-138.217
-138.134
-137.906
-137.518
-136.961
-136.222
-135.295
-134.166
-132.831
-131.285
-129.523
-127.547
-125.357
-122.961
-120.364
-117.575
-114.604
-111.464
-108.163
-104.711
-101.117
-97.3936
-93.5569
-89.6292
-85.6216
-81.5514
-77.4311
-73.2752
-69.0942
-64.9025
-60.7058
-56.5194
-52.3167
-48.3973
-129.098
-129.248
-129.511
-129.792
-130.074
-130.354
-130.62
-130.85
-131.018
-131.099
-131.071
-130.917
-130.625
-130.183
-129.582
-128.813
-127.867
-126.737
-125.417
-123.902
-122.192
-120.286
-118.186
-115.897
-113.424
-110.775
-107.959
-104.984
-101.858
-98.5876
-95.1807
-91.6516
-88.0176
-84.2918
-80.4894
-76.6221
-72.7031
-68.7439
-64.7568
-60.7509
-56.7392
-52.7118
-48.9727
-122.725
-122.866
-123.108
-123.368
-123.63
-123.894
-124.148
-124.375
-124.552
-124.657
-124.669
-124.572
-124.353
-124.003
-123.513
-122.874
-122.076
-121.113
-119.98
-118.671
-117.183
-115.515
-113.667
-111.641
-109.441
-107.073
-104.541
-101.854
-99.0182
-96.038
-92.9191
-89.6719
-86.31
-82.8479
-79.2978
-75.6713
-71.9807
-68.2366
-64.4516
-60.6356
-56.8025
-52.9469
-49.4064
-116.974
-117.108
-117.331
-117.57
-117.814
-118.063
-118.304
-118.524
-118.704
-118.823
-118.863
-118.809
-118.647
-118.37
-117.967
-117.431
-116.754
-115.931
-114.951
-113.813
-112.511
-111.043
-109.409
-107.609
-105.645
-103.519
-101.238
-98.8045
-96.2251
-93.5047
-90.6457
-87.655
-84.5442
-81.3259
-78.0113
-74.6121
-71.1378
-67.6001
-64.0079
-60.3718
-56.6994
-52.9782
-49.5257
-111.768
-111.895
-112.099
-112.318
-112.546
-112.777
-113.005
-113.215
-113.393
-113.522
-113.582
-113.559
-113.442
-113.222
-112.891
-112.441
-111.862
-111.151
-110.301
-109.306
-108.16
-106.863
-105.41
-103.803
-102.042
-100.128
-98.0643
-95.8546
-93.5024
-91.0133
-88.3878
-85.6299
-82.7493
-79.7556
-76.6606
-73.4731
-70.2041
-66.8615
-63.4568
-59.9983
-56.4957
-52.9371
-49.6598
-107.046
-107.165
-107.351
-107.553
-107.764
-107.981
-108.195
-108.395
-108.569
-108.7
-108.773
-108.773
-108.691
-108.517
-108.241
-107.859
-107.363
-106.746
-106.002
-105.125
-104.112
-102.959
-101.662
-100.221
-98.6341
-96.9038
-95.031
-93.0178
-90.8676
-88.5836
-86.1667
-83.6198
-80.9486
-78.1613
-75.2687
-72.279
-69.2017
-66.0448
-62.8181
-59.5285
-56.1868
-52.7811
-49.666
-102.748
-102.86
-103.031
-103.217
-103.413
-103.614
-103.814
-104.003
-104.17
-104.302
-104.383
-104.401
-104.345
-104.206
-103.977
-103.65
-103.221
-102.682
-102.026
-101.251
-100.349
-99.3174
-98.1531
-96.8551
-95.4208
-93.85
-92.1434
-90.3028
-88.331
-86.2293
-83.9991
-81.6417
-79.1608
-76.5622
-73.8559
-71.05
-68.1505
-65.169
-62.1103
-58.9856
-55.8039
-52.553
-49.6138
-98.8302
-98.9344
-99.092
-99.2638
-99.4444
-99.6312
-99.8176
-99.9958
-100.155
-100.284
-100.37
-100.399
-100.363
-100.253
-100.06
-99.7799
-99.4054
-98.9309
-98.3501
-97.6578
-96.8503
-95.9235
-94.873
-93.6972
-92.3936
-90.9623
-89.4013
-87.7136
-85.8987
-83.9589
-81.8955
-79.7086
-77.3999
-74.9737
-72.4383
-69.8008
-67.0678
-64.2473
-61.3459
-58.3712
-55.3314
-52.2111
-49.3626
-95.2511
-95.3482
-95.4926
-95.6507
-95.8179
-95.9912
-96.1646
-96.3317
-96.4826
-96.6068
-96.6933
-96.731
-96.7095
-96.6206
-96.4575
-96.2143
-95.8852
-95.4639
-94.9462
-94.3263
-93.5988
-92.7603
-91.8073
-90.7374
-89.5474
-88.2369
-86.8038
-85.2499
-83.5746
-81.7788
-79.8644
-77.8301
-75.6765
-73.4072
-71.0285
-68.5454
-65.9666
-63.296
-60.542
-57.7093
-54.8087
-51.8209
-49.1201
-91.9729
-92.0631
-92.1957
-92.3414
-92.4958
-92.6561
-92.8171
-92.9723
-93.1142
-93.2335
-93.3194
-93.3606
-93.3494
-93.2781
-93.1385
-92.9255
-92.6341
-92.258
-91.7923
-91.2328
-90.5744
-89.8123
-88.9432
-87.9646
-86.8734
-85.6686
-84.3481
-82.9118
-81.3597
-79.6919
-77.91
-76.0125
-73.9998
-71.8726
-69.6364
-67.2958
-64.8582
-62.3267
-59.709
-57.007
-54.2303
-51.353
-48.7017
-88.9668
-89.0497
-89.171
-89.3049
-89.4472
-89.5953
-89.7443
-89.8883
-90.0202
-90.1324
-90.2154
-90.2596
-90.2563
-90.1974
-90.0768
-89.8892
-89.6287
-89.2903
-88.8686
-88.3598
-87.759
-87.0626
-86.2667
-85.3674
-84.3627
-83.25
-82.0279
-80.6955
-79.2532
-77.6991
-76.0355
-74.2604
-72.3741
-70.3765
-68.2704
-66.0608
-63.7531
-61.3511
-58.8599
-56.2825
-53.6254
-50.8622
-48.2941
-86.2033
-86.2784
-86.3895
-86.5126
-86.6434
-86.7798
-86.917
-87.0503
-87.1736
-87.2788
-87.3576
-87.4019
-87.4032
-87.3539
-87.2482
-87.0805
-86.8451
-86.5378
-86.1545
-85.6897
-85.1389
-84.4984
-83.7644
-82.9341
-82.0047
-80.973
-79.8377
-78.5972
-77.2518
-75.7998
-74.2417
-72.5766
-70.8045
-68.9239
-66.9367
-64.8468
-62.6597
-60.3776
-58.0063
-55.5482
-53.0101
-50.3704
-47.8893
-83.6565
-83.7223
-83.8244
-83.9375
-84.0581
-84.1839
-84.3108
-84.4336
-84.547
-84.6451
-84.7199
-84.7631
-84.7669
-84.7245
-84.6301
-84.4789
-84.2656
-83.9849
-83.6323
-83.2045
-82.6968
-82.1053
-81.4258
-80.6549
-79.7906
-78.8303
-77.7715
-76.613
-75.3533
-73.9918
-72.5283
-70.9622
-69.2927
-67.5181
-65.6399
-63.6597
-61.5833
-59.4127
-57.1531
-54.8073
-52.3823
-49.8615
-47.4663
-81.3099
-81.3648
-81.458
-81.5618
-81.6725
-81.7876
-81.9038
-82.0166
-82.121
-82.2113
-82.2806
-82.3213
-82.3264
-82.2897
-82.2046
-82.0659
-81.8695
-81.6112
-81.2863
-80.89
-80.4185
-79.8686
-79.2367
-78.5191
-77.7124
-76.8146
-75.8229
-74.7364
-73.5535
-72.2734
-70.8947
-69.4172
-67.84
-66.1615
-64.382
-62.5028
-60.5278
-58.4594
-56.3023
-54.0581
-51.7326
-49.3079
-46.9544
-79.1349
-79.1809
-79.2662
-79.3616
-79.4635
-79.5694
-79.6762
-79.78
-79.876
-79.9585
-80.0223
-80.0601
-80.0651
-80.0309
-79.9525
-79.8247
-79.6429
-79.4029
-79.1004
-78.7319
-78.2931
-77.78
-77.1887
-76.5162
-75.76
-74.9176
-73.9856
-72.9632
-71.8486
-70.6409
-69.3381
-67.9408
-66.4468
-64.8556
-63.1658
-61.3785
-59.4967
-57.5229
-55.4603
-53.3113
-51.0804
-48.7549
-46.4662
-77.1185
-77.1578
-77.2361
-77.3235
-77.4167
-77.5137
-77.6112
-77.7056
-77.7929
-77.8682
-77.9262
-77.9606
-77.9649
-77.9335
-77.8605
-77.7414
-77.5714
-77.3471
-77.064
-76.7181
-76.306
-75.824
-75.2689
-74.6372
-73.9254
-73.1315
-72.2531
-71.2881
-70.234
-69.0912
-67.8569
-66.5313
-65.1127
-63.6005
-61.9923
-60.2893
-58.4931
-56.6062
-54.631
-52.57
-50.4258
-48.1884
-45.9697
-75.2476
-75.2815
-75.3531
-75.4333
-75.5184
-75.6068
-75.6957
-75.7818
-75.8613
-75.9294
-75.9812
-76.0112
-76.0135
-75.9821
-75.9125
-75.7998
-75.64
-75.4285
-75.162
-74.8368
-74.4488
-73.9944
-73.4704
-72.8739
-72.2015
-71.4508
-70.6188
-69.7043
-68.705
-67.6199
-66.4472
-65.1867
-63.8365
-62.3954
-60.862
-59.2359
-57.5183
-55.7121
-53.8184
-51.8391
-49.7776
-47.6273
-45.5501
-73.5086
-73.5382
-73.6032
-73.6762
-73.7539
-73.8343
-73.9149
-73.9929
-74.0644
-74.1253
-74.1714
-74.1972
-74.1969
-74.1659
-74.099
-73.9915
-73.8392
-73.6385
-73.3857
-73.0773
-72.7099
-72.2797
-71.783
-71.2172
-70.5793
-69.8669
-69.0772
-68.2082
-67.2579
-66.2251
-65.1078
-63.9056
-62.6168
-61.2408
-59.7751
-58.2194
-56.5741
-54.8423
-53.0245
-51.1237
-49.1432
-47.076
-45.1484
-71.8918
-71.9175
-71.9761
-72.0425
-72.1129
-72.1857
-72.2584
-72.3282
-72.392
-72.4459
-72.4859
-72.507
-72.5038
-72.4717
-72.4058
-72.302
-72.156
-71.9644
-71.7236
-71.43
-71.0799
-70.6704
-70.1982
-69.6602
-69.0533
-68.3744
-67.6218
-66.7934
-65.887
-64.9007
-63.8334
-62.6844
-61.4517
-60.1344
-58.7307
-57.2394
-55.6604
-53.9962
-52.2475
-50.4161
-48.5028
-46.4905
-44.5817
-70.3841
-70.4059
-70.4588
-70.5188
-70.5825
-70.6483
-70.7138
-70.7762
-70.8325
-70.8797
-70.9138
-70.9298
-70.9236
-70.8904
-70.825
-70.7236
-70.5829
-70.3989
-70.1682
-69.8869
-69.5521
-69.1609
-68.7094
-68.1954
-67.6157
-66.9673
-66.2481
-65.4559
-64.5885
-63.6448
-62.6227
-61.5214
-60.3395
-59.0756
-57.7281
-56.2958
-54.7775
-53.1756
-51.4906
-49.7231
-47.8747
-45.9262
-44.056
-68.9789
-68.9972
-69.0447
-69.0987
-69.156
-69.2149
-69.2733
-69.3284
-69.3778
-69.4185
-69.4464
-69.4575
-69.4474
-69.4118
-69.3466
-69.2471
-69.1101
-68.9318
-68.709
-68.4391
-68.1178
-67.7423
-67.3095
-66.8168
-66.261
-65.6397
-64.9503
-64.1907
-63.3589
-62.453
-61.4718
-60.4139
-59.278
-58.0628
-56.7668
-55.3881
-53.9261
-52.3819
-50.7564
-49.0499
-47.2657
-45.3868
-43.5778
-67.6651
-67.6797
-67.7216
-67.7699
-67.8212
-67.8736
-67.9253
-67.9738
-68.0166
-68.0506
-68.0726
-68.0791
-68.0654
-68.0273
-67.9608
-67.8623
-67.7281
-67.5552
-67.3398
-67.0787
-66.7688
-66.4073
-65.9909
-65.5171
-64.9829
-64.3854
-63.7229
-62.9927
-62.1929
-61.3219
-60.3777
-59.3593
-58.2652
-57.0943
-55.8452
-54.5159
-53.1056
-51.6149
-50.0442
-48.3947
-46.6692
-44.8537
-43.1036
-66.4354
-66.4473
-66.4844
-66.5275
-66.5729
-66.6193
-66.6643
-66.7061
-66.7424
-66.7704
-66.787
-66.7885
-66.7709
-66.7304
-66.6634
-66.5658
-66.4339
-66.2643
-66.0543
-65.801
-65.5011
-65.1517
-64.7499
-64.2929
-63.7779
-63.202
-62.5632
-61.8592
-61.0879
-60.2476
-59.337
-58.3546
-57.2988
-56.1685
-54.9623
-53.6782
-52.3153
-50.8733
-49.3532
-47.7549
-46.0799
-44.3128
-42.5944
-65.281
-65.29
-65.3227
-65.361
-65.4014
-65.4421
-65.4817
-65.5177
-65.5477
-65.5697
-65.5809
-65.5774
-65.5557
-65.5124
-65.4433
-65.3448
-65.2144
-65.0486
-64.8439
-64.5974
-64.3063
-63.9677
-63.5785
-63.136
-62.6377
-62.0811
-61.4641
-60.7841
-60.0392
-59.2276
-58.3474
-57.3976
-56.3764
-55.2835
-54.1163
-52.8739
-51.5546
-50.1577
-48.6845
-47.1344
-45.5096
-43.796
-42.1222
-64.1997
-64.2059
-64.2343
-64.2679
-64.3032
-64.3384
-64.372
-64.4021
-64.4267
-64.4432
-64.4487
-64.4406
-64.4152
-64.3688
-64.2982
-64.1998
-64.07
-63.906
-63.7053
-63.4645
-63.1806
-62.8512
-62.4734
-62.0445
-61.5619
-61.0227
-60.4247
-59.7657
-59.0443
-58.2584
-57.4058
-56.4856
-55.4964
-54.4373
-53.3061
-52.1019
-50.8228
-49.4679
-48.0383
-46.5329
-44.9536
-43.2878
-41.6559
-63.1872
-63.1903
-63.2143
-63.2429
-63.2728
-63.3027
-63.3307
-63.3549
-63.3735
-63.3842
-63.3845
-63.3714
-63.3418
-63.2922
-63.2195
-63.1202
-62.9911
-62.8292
-62.6315
-62.3958
-62.1187
-61.797
-61.4288
-61.0113
-60.5421
-60.0184
-59.4381
-58.799
-58.0988
-57.3361
-56.5091
-55.6165
-54.6564
-53.6282
-52.5302
-51.3609
-50.119
-48.8032
-47.4139
-45.9503
-44.4138
-42.7939
-41.2315
-62.229
-62.23
-62.2506
-62.2754
-62.301
-62.326
-62.3489
-62.3681
-62.3816
-62.3874
-62.383
-62.3655
-62.3319
-62.279
-62.2039
-62.1033
-61.9741
-61.8138
-61.6189
-61.3867
-61.1147
-60.8006
-60.4413
-60.0344
-59.5774
-59.0681
-58.5035
-57.8816
-57.2013
-56.46
-55.6556
-54.7875
-53.8543
-52.8545
-51.7871
-50.65
-49.4423
-48.1628
-46.8115
-45.3883
-43.896
-42.3245
-40.8435
-61.3278
-61.3266
-61.3439
-61.3647
-61.3861
-61.4067
-61.4249
-61.4391
-61.4475
-61.4478
-61.4381
-61.4162
-61.3789
-61.3231
-61.2456
-61.1437
-61.0142
-60.8542
-60.6613
-60.433
-60.1662
-59.8584
-59.5069
-59.1093
-58.6631
-58.1658
-57.6154
-57.0095
-56.3465
-55.6245
-54.8417
-53.9967
-53.0878
-52.1142
-51.0748
-49.9673
-48.7914
-47.5447