/*--------------------------------*- C++ -*----------------------------------*\
| =========                 |                                                 |
| \\      /  F ield         | OpenFOAM: The Open Source CFD Toolbox           |
|  \\    /   O peration     | Version:  2.3.0                                 |
|   \\  /    A nd           | Web:      www.OpenFOAM.org                      |
|    \\/     M anipulation  |                                                 |
\*---------------------------------------------------------------------------*/
FoamFile
{
    version     2.0;
    format      ascii;
    class       surfaceScalarField;
    location    "3000";
    object      phi;
}
// * * * * * * * * * * * * * * * * * * * * * * * * * * * * * * * * * * * * * //

dimensions      [0 3 -1 0 0 0 0];

internalField   nonuniform List<scalar> 
74652
(
-0.00197153
-0.00766917
0.00840454
0.00123615
-0.00266001
-0.00741676
0.00810524
-0.00330459
-0.00717156
0.00781613
-0.00390515
-0.0069365
0.00753706
-0.0044659
-0.006708
0.00726876
-0.00498695
-0.00648846
0.00700951
-0.00547063
-0.0062763
0.00675998
-0.00591593
-0.00607218
0.00651748
-0.00632754
-0.00587451
0.00628613
-0.00670423
-0.00568471
0.0060614
-0.00704751
-0.00550137
0.00584465
-0.00736049
-0.00532354
0.00563651
-0.00764338
-0.00515193
0.00543482
-0.00789791
-0.00498556
0.0052401
-0.00812438
-0.00482682
0.00505328
-0.00832459
-0.00467183
0.00487205
-0.00850108
-0.00452111
0.00469759
-0.00865253
-0.00437742
0.00452887
-0.00878228
-0.00423686
0.00436661
-0.00889253
-0.00410097
0.00421123
-0.00898282
-0.00396926
0.00405955
-0.00905466
-0.0038409
0.00391275
-0.0091113
-0.00371663
0.00377327
-0.00915407
-0.00359583
0.0036386
-0.00918456
-0.00347738
0.00350787
-0.00920487
-0.00336111
0.00338142
-0.0092145
-0.00324856
0.00325819
-0.00921625
-0.00313761
0.00313936
-0.00921143
-0.00302929
0.00302448
-0.00920033
-0.00292003
0.00290893
-0.00918265
-0.00281094
0.00279327
-0.00915753
-0.00270236
0.00267724
-0.00912101
-0.00259351
0.00255699
-0.00907592
-0.00247779
0.0024327
-0.00901277
-0.00236063
0.00229748
-0.00893085
-0.00223477
0.00215286
-0.00882164
-0.00210386
0.00199465
-0.0086849
-0.00195739
0.00182065
-0.00851581
-0.001799
0.00162991
-0.00830605
-0.00162582
0.00141607
-0.00805062
-0.00143328
0.00117784
-0.00775115
-0.00122281
0.000923341
-0.000993561
-0.00746246
0.000704865
-0.00180755
-0.0070113
0.00114968
-0.0024239
-0.00680041
-0.00299853
-0.00659693
-0.00353555
-0.00639948
-0.00403309
-0.00621046
-0.00449499
-0.00602656
-0.00491997
-0.00585132
-0.00531239
-0.00567976
-0.00567197
-0.00551494
-0.00599933
-0.00535735
-0.00629813
-0.00520257
-0.00656591
-0.00505576
-0.00680641
-0.00491142
-0.00701854
-0.00477343
-0.00720658
-0.00463878
-0.00736965
-0.00450876
-0.00750684
-0.00438392
-0.00762318
-0.00426108
-0.00771719
-0.00414285
-0.00779055
-0.00402761
-0.00784338
-0.00391643
-0.00787769
-0.00380659
-0.00789423
-0.0037001
-0.00789449
-0.00359558
-0.00787795
-0.00349392
-0.00784681
-0.00339225
-0.00780263
-0.00329275
-0.00774646
-0.00319378
-0.00768121
-0.00309454
-0.00760444
-0.0029968
-0.00751939
-0.00289599
-0.00742666
-0.00279509
-0.00732959
-0.00269057
-0.00722131
-0.00258607
-0.00710589
-0.00247605
-0.00697897
-0.00236169
-0.00683873
-0.0022441
-0.00667674
-0.00211939
-0.0064848
-0.00199093
-0.00625259
-0.00185803
-0.0059636
-0.00172227
-0.00560088
-0.00158553
-0.00145366
-0.00514078
-0.00165248
-0.00641971
0.00106089
-0.00220396
-0.00624893
-0.0027194
-0.00608148
-0.00319746
-0.00592142
-0.00364135
-0.00576657
-0.0040501
-0.00561781
-0.00442866
-0.00547276
-0.00477481
-0.00533361
-0.0050912
-0.00519854
-0.00537846
-0.00507009
-0.0056374
-0.00494363
-0.00587059
-0.00482257
-0.00607725
-0.00470476
-0.00625878
-0.0045919
-0.00641708
-0.00448048
-0.00655188
-0.00437396
-0.00666547
-0.00427033
-0.00675725
-0.0041693
-0.0068293
-0.00407079
-0.00688241
-0.0039745
-0.00691757
-0.00388127
-0.00693383
-0.00379033
-0.00693356
-0.00370038
-0.00691722
-0.00361191
-0.00688664
-0.00352449
-0.00683887
-0.00344002
-0.00677938
-0.00335223
-0.00670495
-0.00326821
-0.00661709
-0.0031824
-0.00651861
-0.00309528
-0.00640601
-0.00300859
-0.00628273
-0.00291837
-0.00614597
-0.00282733
-0.0060004
-0.00273164
-0.00584211
-0.00263434
-0.00566897
-0.00253483
-0.00548472
-0.00242836
-0.00528322
-0.00232088
-0.00506552
-0.00220864
-0.00482781
-0.00209574
-0.00456976
-0.00198031
-0.00428676
-0.00186853
-0.00176069
-0.00397973
-0.00150598
-0.00588995
0.000976228
-0.00200229
-0.00575262
-0.00246193
-0.00562184
-0.00289028
-0.00549307
-0.00328602
-0.00537084
-0.00365164
-0.00525218
-0.00398681
-0.00513759
-0.00429347
-0.00502696
-0.00457197
-0.00492004
-0.00482598
-0.00481608
-0.00505317
-0.00471645
-0.00525505
-0.00462068
-0.00543417
-0.00452564
-0.00559101
-0.00443507
-0.00572523
-0.00434627
-0.00583877
-0.00426042
-0.00593263
-0.00417648
-0.00600627
-0.00409566
-0.00606172
-0.00401534
-0.00609952
-0.0039367
-0.00612047
-0.00386032
-0.00612438
-0.00378641
-0.00611381
-0.00371095
-0.00608855
-0.00363718
-0.0060476
-0.00356544
-0.00599522
-0.00349241
-0.00592719
-0.00342026
-0.00584787
-0.00334754
-0.00575613
-0.00327414
-0.00565371
-0.00319771
-0.00553971
-0.00312259
-0.00541429
-0.00304379
-0.00527787
-0.00296375
-0.00512993
-0.00287958
-0.00497184
-0.00279244
-0.00480337
-0.0027033
-0.00462077
-0.00261096
-0.00442591
-0.00251573
-0.00421818
-0.00241637
-0.00399511
-0.00231881
-0.00375706
-0.00221837
-0.00350252
-0.00212307
-0.00203055
-0.00323266
-0.00137122
-0.0054132
0.000894464
-0.00181581
-0.00530803
-0.00222988
-0.00520777
-0.00261188
-0.00511107
-0.00296632
-0.00501639
-0.0032919
-0.00492661
-0.0035909
-0.00483859
-0.00386363
-0.00475423
-0.00411118
-0.00467248
-0.00433397
-0.00459329
-0.00453424
-0.00451618
-0.00471337
-0.00444155
-0.00486947
-0.00436955
-0.00500508
-0.00429946
-0.00512134
-0.00423
-0.00521747
-0.00416428
-0.00529539
-0.00409856
-0.00535689
-0.00403415
-0.00540044
-0.00397179
-0.00542672
-0.00391042
-0.00543866
-0.00384838
-0.0054371
-0.00378797
-0.00542027
-0.00372778
-0.00538931
-0.00366814
-0.00534535
-0.0036094
-0.00528875
-0.00354901
-0.00522097
-0.00348803
-0.00514105
-0.00342746
-0.00504974
-0.00336544
-0.00494693
-0.00330052
-0.00483481
-0.00323471
-0.00471192
-0.00316668
-0.00457975
-0.00309592
-0.0044371
-0.00302223
-0.00428421
-0.00294533
-0.00412074
-0.00286676
-0.00394943
-0.00278228
-0.00376718
-0.00269799
-0.00357215
-0.00261139
-0.00336872
-0.00252224
-0.00315364
-0.00243345
-0.00292917
-0.00234754
-0.00226543
-0.00269429
-0.00124774
-0.00498367
0.000818217
-0.00164725
-0.00490851
-0.00201739
-0.00483764
-0.00236159
-0.00476687
-0.0026781
-0.00469989
-0.00296881
-0.00463589
-0.00323543
-0.00457197
-0.00347892
-0.00451074
-0.00369907
-0.00445232
-0.00389791
-0.00439445
-0.00407477
-0.00433932
-0.0042321
-0.00428422
-0.00436988
-0.00423177
-0.00448906
-0.00418028
-0.0045884
-0.00413066
-0.00467241
-0.00408028
-0.00473882
-0.00403215
-0.00478908
-0.00398389
-0.00482397
-0.0039369
-0.00484423
-0.00389016
-0.00485012
-0.00384249
-0.0048422
-0.00379588
-0.00482235
-0.00374763
-0.00478933
-0.00370116
-0.0047452
-0.00365353
-0.00468914
-0.00360507
-0.00462203
-0.00355514
-0.00454514
-0.00350436
-0.00445781
-0.00345277
-0.00436007
-0.00339825
-0.0042534
-0.00334139
-0.0041369
-0.00328317
-0.00401217
-0.00322065
-0.003877
-0.0031574
-0.00373484
-0.00308749
-0.00358329
-0.00301831
-0.00342252
-0.00294304
-0.00325359
-0.00286692
-0.00307692
-0.00278806
-0.00289076
-0.0027084
-0.00269586
-0.00262835
-0.00249355
-0.00254985
-0.00247387
-0.00228511
-0.00113298
-0.00459656
0.000745859
-0.00149235
-0.00454914
-0.00182645
-0.00450354
-0.00213397
-0.00445935
-0.00241824
-0.00441561
-0.00268013
-0.00437401
-0.00291832
-0.00433378
-0.00313501
-0.00429405
-0.00333238
-0.00425495
-0.00350855
-0.00421828
-0.00366666
-0.00418121
-0.00380559
-0.00414529
-0.00392683
-0.00411053
-0.00403036
-0.00407675
-0.00411933
-0.00404168
-0.00419108
-0.00400853
-0.00424812
-0.00397511
-0.00429061
-0.00394141
-0.00431909
-0.00390842
-0.00433486
-0.0038744
-0.00433679
-0.00384056
-0.00432725
-0.00380542
-0.00430446
-0.00377043
-0.00427129
-0.00373433
-0.0042285
-0.00369632
-0.0041739
-0.00365967
-0.00411001
-0.00361903
-0.0040364
-0.00357797
-0.00395432
-0.00353485
-0.00386279
-0.00348979
-0.00376314
-0.00344103
-0.00365452
-0.00339179
-0.00353723
-0.00333795
-0.0034125
-0.00328213
-0.00327961
-0.00322038
-0.00313988
-0.00315805
-0.00299281
-0.00309012
-0.00283777
-0.00302196
-0.00267479
-0.00295104
-0.0025069
-0.00287629
-0.00233126
-0.00280399
-0.00215004
-0.00273107
-0.0026616
-0.00196232
-0.00102864
-0.00424814
0.000680228
-0.00135263
-0.00422515
-0.00165191
-0.00420426
-0.00193019
-0.00418107
-0.00218485
-0.00416095
-0.00241933
-0.00413954
-0.00263381
-0.00411929
-0.00282835
-0.00409952
-0.00300327
-0.00408003
-0.00316174
-0.00405981
-0.00330167
-0.00404128
-0.0034257
-0.00402126
-0.0035331
-0.00400313
-0.00362595
-0.0039839
-0.00370286
-0.00396478
-0.00376644
-0.00394495
-0.00381635
-0.00392519
-0.00385285
-0.00390491
-0.00387629
-0.00388499
-0.00388758
-0.00386311
-0.00388757
-0.00384057
-0.00387528
-0.00381771
-0.00385318
-0.00379252
-0.00382085
-0.00376667
-0.00377797
-0.0037392
-0.00372803
-0.0037096
-0.00366687
-0.00368019
-0.00359826
-0.00364657
-0.00352101
-0.0036121
-0.00343615
-0.00357465
-0.00334266
-0.00353452
-0.00324152
-0.00349293
-0.00313427
-0.00344519
-0.00301968
-0.00339672
-0.00289756
-0.00334249
-0.00277074
-0.00328487
-0.002635
-0.00322586
-0.00249293
-0.00316403
-0.00234554
-0.00309843
-0.00219145
-0.00303038
-0.00203244
-0.002963
-0.00186885
-0.00289466
-0.00282977
-0.00170067
-0.00093294
-0.00393325
0.000618043
-0.00122519
-0.0039329
-0.00149602
-0.00393343
-0.00174487
-0.00393222
-0.00197535
-0.00393047
-0.002186
-0.00392888
-0.00237783
-0.00392747
-0.00255318
-0.00392417
-0.00271112
-0.0039221
-0.00285137
-0.00391955
-0.00297754
-0.00391511
-0.00308727
-0.00391153
-0.00318337
-0.00390704
-0.00326589
-0.00390137
-0.00333446
-0.00389621
-0.00338968
-0.00388974
-0.00343356
-0.00388131
-0.00346432
-0.00387414
-0.00348409
-0.00386522
-0.00349334
-0.00385386
-0.00349122
-0.00384268
-0.00347896
-0.00382997
-0.00345817
-0.00381332
-0.00342595
-0.00379888
-0.00338519
-0.00377996
-0.00333783
-0.00375695
-0.00328091
-0.00373711
-0.00321586
-0.00371163
-0.00314611
-0.00368185
-0.00306735
-0.00365342
-0.00298005
-0.00362182
-0.00289002
-0.00358297
-0.00278855
-0.00354666
-0.00268372
-0.00350155
-0.00257365
-0.00345256
-0.00245523
-0.00340329
-0.00233105
-0.00335004
-0.0022024
-0.00329267
-0.00206801
-0.00323282
-0.00192811
-0.00317027
-0.00178538
-0.00310574
-0.00163588
-0.00304416
-0.00148333
-0.00298232
-0.00629239
-0.00084105
-0.000329013
-0.00545818
-0.000813788
-2.04277e-05
-0.00477299
-0.000818782
0.000133591
-0.00418137
-0.000839405
0.000247788
-0.00365864
-0.000868181
0.000345456
-0.00318675
-0.000905662
0.000433773
-0.0027566
-0.000948181
0.000518024
-0.00235965
-0.000996125
0.000599176
-0.00199213
-0.00104598
0.000678462
-0.00165094
-0.00109864
0.000757453
-0.00133047
-0.0011556
0.000835133
-0.00103165
-0.00121235
0.000913527
-0.000752458
-0.00127218
0.000992984
-0.000489397
-0.00133454
0.00107148
-0.00024492
-0.0013977
0.00115323
-1.51623e-05
-0.00146432
0.00123456
0.000197869
-0.00153117
0.00131814
0.000394543
-0.00160075
0.00140407
0.000575923
-0.00167317
0.00149179
0.000741941
-0.00174775
0.00158173
0.000892556
-0.00182463
0.00167401
0.00102697
-0.00190397
0.00176955
0.00114633
-0.00198663
0.00186728
0.00124836
-0.00207203
0.00197
0.00133402
-0.00216038
0.00207472
0.00140285
-0.00225245
0.00218362
0.00145309
-0.00234714
0.0022969
0.00148545
-0.00244651
0.00241416
0.00149867
-0.00254945
0.00253623
0.00149207
-0.00265558
0.00266218
0.00146485
-0.00276681
0.00279403
0.00141633
-0.00288208
0.0029306
0.00134615
-0.00300245
0.00307264
0.00125218
-0.00312658
0.00322055
0.00113387
-0.00325621
0.00337452
0.000990231
-0.00339113
0.00353477
0.000820895
-0.00353167
0.003701
0.000623771
-0.00367787
0.00387499
0.000397807
-0.00382994
0.00405591
0.000142563
-0.00398829
0.00424354
-0.000144104
-0.00415332
0.00443999
-0.000462976
-0.00432493
0.00464381
-0.00450279
0.00485667
-0.000816853
-0.00462288
-0.00135896
-0.00412526
-0.00131141
-0.00366179
-0.00128225
-0.00323268
-0.00126852
-0.00283345
-0.00126741
-0.00246284
-0.00127627
-0.00211648
-0.00129455
-0.00179435
-0.00131825
-0.00149201
-0.00134832
-0.00120765
-0.00138301
-0.000941987
-0.00142126
-0.000692344
-0.00146199
-0.000456277
-0.00150825
-0.000236612
-0.00155421
-2.98853e-05
-0.00160443
0.000162519
-0.00165672
0.000342507
-0.00171115
0.000509414
-0.00176766
0.000663263
-0.00182702
0.00080322
-0.00188771
0.00092992
-0.00195133
0.00104382
-0.00201787
0.00114247
-0.00208528
0.00122698
-0.00215654
0.00129691
-0.0022303
0.00135178
-0.00230732
0.00139041
-0.00238576
0.0014123
-0.00246841
0.00141747
-0.00255462
0.00140448
-0.00264259
0.00137285
-0.00273518
0.00132254
-0.00283177
0.00125131
-0.00293122
0.00115921
-0.00303448
0.00104585
-0.00314285
0.00090955
-0.00325483
0.00074935
-0.00337147
0.000564271
-0.00349279
0.000354195
-0.00361986
0.000117191
-0.00375129
-0.000148521
-0.00388761
-0.000443235
-0.00403022
-0.00417818
-0.000767853
-0.00365101
-0.00168768
-0.00331729
-0.00164513
-0.00298636
-0.00161318
-0.00266377
-0.00159111
-0.00235102
-0.00158016
-0.00205001
-0.00157728
-0.00176265
-0.0015819
-0.00148913
-0.00159177
-0.00122916
-0.00160829
-0.000981587
-0.00163058
-0.000747255
-0.00165559
-0.000524896
-0.00168435
-0.00031692
-0.00171622
-0.00011947
-0.00175166
6.57202e-05
-0.00178962
0.000238862
-0.00182986
0.000399949
-0.00187224
0.000549018
-0.00191673
0.000685997
-0.001964
0.000810758
-0.00201247
0.000923115
-0.00206368
0.00102141
-0.00211617
0.00110829
-0.00217216
0.00118198
-0.00223023
0.00124141
-0.00228973
0.00128561
-0.00235152
0.00131678
-0.00241693
0.00133237
-0.002484
0.00133194
-0.00255419
0.00131558
-0.00262623
0.00128255
-0.00270216
0.00123061
-0.00277983
0.00116151
-0.00286212
0.00107315
-0.00294612
0.000965049
-0.00303475
0.000836266
-0.00312605
0.000686141
-0.00322134
0.0005137
-0.00332035
0.000317726
-0.00342389
9.74674e-05
-0.00353103
-0.00014728
-0.00364287
-0.000418968
-0.00375853
-0.00387979
-0.000717352
-0.00295656
-0.00196377
-0.00268112
-0.00192057
-0.00240688
-0.00188742
-0.00213878
-0.00185921
-0.00187771
-0.00184123
-0.00162566
-0.00182933
-0.00138477
-0.0018228
-0.00115195
-0.00182459
-0.000928686
-0.00183156
-0.000717376
-0.00184189
-0.000516463
-0.0018565
-0.000325449
-0.00187536
-0.000144153
-0.00189752
2.65977e-05
-0.00192241
0.000185951
-0.00194897
0.000335689
-0.0019796
0.000474887
-0.00201144
0.000603471
-0.00204531
0.000721301
-0.00208183
0.000828981
-0.00212015
0.000924779
-0.00215948
0.00100998
-0.00220137
0.00108285
-0.00224504
0.00114382
-0.00229119
0.00119259
-0.00233851
0.00122868
-0.0023876
0.00125118
-0.00243944
0.00126078
-0.0024936
0.00125497
-0.00254837
0.00123546
-0.00260673
0.00119971
-0.00266641
0.0011488
-0.00272891
0.0010806
-0.00279392
0.000996238
-0.00286176
0.000893229
-0.00293174
0.000771385
-0.00300421
0.00063089
-0.00308085
0.000470073
-0.00315953
0.000287954
-0.00324177
8.42545e-05
-0.00332733
-0.000142815
-0.0034158
-0.000393285
-0.00350806
-0.00360332
-0.000669755
-0.00245735
-0.00220071
-0.00222004
-0.00215789
-0.00198665
-0.00212082
-0.00175726
-0.0020886
-0.0015352
-0.00206328
-0.00131936
-0.00204516
-0.00110876
-0.0020334
-0.000907672
-0.00202568
-0.000715273
-0.00202396
-0.00053073
-0.00202643
-0.000354334
-0.0020329
-0.000186983
-0.00204271
-2.88526e-05
-0.00205565
0.000121
-0.00207226
0.000261629
-0.0020896
0.000392942
-0.00211091
0.000514879
-0.00213338
0.000628059
-0.00215849
0.000731522
-0.00218529
0.000824349
-0.00221298
0.000907842
-0.00224298
0.000981737
-0.00227526
0.00104433
-0.00230763
0.00109545
-0.00234231
0.00113611
-0.00237917
0.00116526
-0.00241675
0.00118244
-0.00245662
0.00118648
-0.00249764
0.00117863
-0.00254053
0.00115592
-0.00258403
0.00112037
-0.00263085
0.00107072
-0.00267927
0.0010055
-0.00272869
0.000923949
-0.00278021
0.00082694
-0.00283473
0.000713535
-0.0028908
0.000581714
-0.00294903
0.000432182
-0.00301
0.000263573
-0.00307316
7.41412e-05
-0.0031379
-0.000135132
-0.00320652
-0.000365861
-0.00327733
-0.00335014
-0.000619044
-0.00207436
-0.00241145
-0.00186605
-0.0023662
-0.00166198
-0.00232489
-0.00146138
-0.00228919
-0.00126551
-0.00225916
-0.00107578
-0.00223489
-0.000892825
-0.00221635
-0.00071487
-0.00220363
-0.000544541
-0.00219428
-0.000382034
-0.00218894
-0.000227629
-0.0021873
-8.03224e-05
-0.00219002
5.98428e-05
-0.00219581
0.000190996
-0.00220341
0.000314837
-0.00221344
0.000431146
-0.00222722
0.00053895
-0.00224118
0.00063732
-0.00225686
0.000727694
-0.00227566
0.000809843
-0.00229512
0.0008828
-0.00231593
0.000944933
-0.00233739
0.000999675
-0.00236237
0.00104381
-0.00238645
0.00107774
-0.0024131
0.00110115
-0.00244016
0.00111353
-0.002469
0.00111396
-0.00249807
0.00110322
-0.00252978
0.00108067
-0.00256148
0.00104491
-0.00259508
0.000996169
-0.00263053
0.000933366
-0.00266589
0.000857106
-0.00270395
0.000765939
-0.00274356
0.000659265
-0.00278413
0.00053743
-0.00282719
0.000398067
-0.00287063
0.000241385
-0.00291648
6.76767e-05
-0.00296419
-0.000125545
-0.0030133
-0.000338746
-0.00306413
-0.00311783
-0.00057105
-0.00177251
-0.00260126
-0.00158761
-0.00255109
-0.00140576
-0.00250674
-0.00122773
-0.00246722
-0.00105509
-0.0024318
-0.000886681
-0.0024033
-0.000723195
-0.00237984
-0.000567212
-0.00235962
-0.000417174
-0.00234432
-0.000272197
-0.00233392
-0.000134526
-0.00232497
-3.99998e-06
-0.00232055
0.000119436
-0.00231925
0.000236526
-0.0023205
0.000346179
-0.0023231
0.000448253
-0.0023293
0.000544214
-0.00233714
0.000632278
-0.00234492
0.000711597
-0.00235498
0.000783496
-0.00236702
0.000847007
-0.00237944
0.000902711
-0.0023931
0.000949103
-0.00240876
0.000987018
-0.00242436
0.00101557
-0.00244166
0.00103445
-0.00245904
0.00104315
-0.00247771
0.00104226
-0.00249717
0.00102925
-0.00251677
0.00100657
-0.0025388
0.000972042
-0.00256056
0.000924814
-0.00258331
0.000866037
-0.00260711
0.000794474
-0.00263239
0.000708977
-0.00265806
0.000609925
-0.00268508
0.000495461
-0.00271273
0.000366928
-0.0027421
0.000222592
-0.00277214
6.1234e-05
-0.00280283
-0.000116549
-0.00283552
-0.000311884
-0.0028688
-0.00290365
-0.000526071
-0.00153071
-0.00277123
-0.00136463
-0.00271717
-0.00120089
-0.00267049
-0.00104239
-0.00262571
-0.000887256
-0.00258694
-0.000737926
-0.00255263
-0.000591608
-0.00252616
-0.000451754
-0.00249947
-0.000317277
-0.0024788
-0.000189154
-0.00246204
-6.76155e-05
-0.00244651
4.87011e-05
-0.00243686
0.000159636
-0.00243019
0.00026394
-0.00242481
0.000363013
-0.00242217
0.000454206
-0.00242049
0.000538378
-0.00242131
0.000616169
-0.00242271
0.000687566
-0.00242638
0.000750761
-0.00243022
0.000806885
-0.00243557
0.000855393
-0.0024416
0.000896708
-0.00245008
0.00092953
-0.00245718
0.000953062
-0.00246519
0.000968875
-0.00247485
0.00097469
-0.00248352
0.000971003
-0.00249349
0.000958406
-0.00250417
0.000935217
-0.00251561
0.000901587
-0.00252693
0.000857692
-0.00253941
0.000802276
-0.0025517
0.0007342
-0.00256431
0.000654723
-0.00257859
0.0005626
-0.00259295
0.000457693
-0.00260782
0.000338369
-0.00262278
0.000205141
-0.00263892
5.68499e-05
-0.00265454
-0.000106864
-0.0026718
-0.000285996
-0.00268967
-0.00270762
-0.00048202
-0.00133234
-0.00292222
-0.00118102
-0.00286849
-0.00103395
-0.00281756
-0.000891379
-0.00276828
-0.000755033
-0.00272329
-0.000618888
-0.00268878
-0.000488503
-0.00265654
-0.000363135
-0.00262484
-0.000244182
-0.00259775
-0.000130025
-0.0025762
-1.9719e-05
-0.00255682
8.44054e-05
-0.00254099
0.000184003
-0.00252978
0.000278053
-0.00251886
0.000364712
-0.00250883
0.000446515
-0.00250229
0.00052216
-0.00249696
0.000591224
-0.00249178
0.000654866
-0.00249002
0.000712408
-0.00248776
0.000761774
-0.00248493
0.000805674
-0.0024855
0.00084115
-0.00248556
0.000868775
-0.00248481
0.000890038
-0.00248645
0.000902448
-0.00248726
0.000906116
-0.00248719
0.000902055
-0.00248943
0.000889121
-0.00249124
0.00086628
-0.00249277
0.000835248
-0.00249589
0.000793332
-0.00249749
0.000740736
-0.0024991
0.00067857
-0.00250214
0.000604908
-0.00250492
0.000518814
-0.00250686
0.000421643
-0.00251065
0.000312174
-0.00251331
0.000188837
-0.00251558
5.31387e-05
-0.00251884
-9.66029e-05
-0.00252206
-0.000261992
-0.00252428
-0.0025282
-0.000441415
-0.000357802
0.00491145
-0.00536579
0.000812138
5.02715e-05
0.00466677
-0.00507485
0.000415713
0.00443345
-0.00479889
0.0007404
0.00421115
-0.00453583
0.00102741
0.0039987
-0.00428571
0.00127834
0.00379707
-0.004048
0.00149626
0.00360424
-0.00382216
0.00168292
0.00342101
-0.00360767
0.00184041
0.00324636
-0.00340384
0.00197129
0.00307947
-0.00321035
0.00207682
0.00292131
-0.00302684
0.00215898
0.00277049
-0.00285265
0.00221982
0.00262663
-0.00268747
0.00226064
0.00248992
-0.00253074
0.00228339
0.00235952
-0.00238227
0.00228915
0.0022355
-0.00224126
0.00227996
0.00211722
-0.00210803
0.0022567
0.0020048
-0.00198153
0.00222087
0.00189784
-0.00186201
0.00217379
0.00179543
-0.00174836
0.00211635
0.00169825
-0.00164081
0.00204999
0.0016057
-0.00153934
0.00197541
0.0015172
-0.00144262
0.00189439
0.00143271
-0.00135169
0.00180712
0.00135238
-0.00126512
0.00171434
0.00127593
-0.00118315
0.0016179
0.00120203
-0.00110559
0.00151803
0.00113202
-0.00103216
0.00141549
0.00106493
-0.000962385
0.001311
0.00100042
-0.000895938
0.00120601
0.000938249
-0.000833259
0.00110052
0.000878938
-0.000773447
0.000995954
0.00082115
-0.000716579
0.000892256
0.000765627
-0.000661928
0.000790832
0.000711314
-0.00060989
0.000692891
0.000658005
-0.000560064
0.000597925
0.000606255
-0.000511289
0.000507913
0.000554239
-0.000464227
0.000421635
0.000503584
-0.000417306
0.000337303
0.000455243
-0.000370912
0.000242138
0.000418995
-0.000323829
8.84865e-05
0.000438148
-0.000284498
0.000677768
-0.000307823
-0.000281461
-0.000326908
0.00450445
0.000733906
4.10761e-05
0.00429879
0.000371938
0.00410259
0.000666795
0.00391629
0.000927683
0.00373781
0.00115773
0.00356702
0.00135736
0.00340461
0.00152968
0.00324868
0.00167569
0.00310035
0.00179726
0.0029579
0.00189668
0.00282189
0.00197463
0.00269254
0.00203339
0.00256788
0.00207374
0.00244957
0.00209754
0.00233572
0.00210573
0.00222731
0.00209945
0.0021235
0.00208064
0.0020236
0.00204969
0.00192879
0.00200805
0.00183708
0.0019567
0.00174961
0.00189669
0.00166571
0.00182885
0.00158505
0.00175377
0.00150779
0.00167315
0.001433
0.00158774
0.00136135
0.00149756
0.00129221
0.00140396
0.00122563
0.00130773
0.00116116
0.00120965
0.0010985
0.00111008
0.00103782
0.00101034
0.000978674
0.000910722
0.000920769
0.000812172
0.000864177
0.000715251
0.000808235
0.000620576
0.000752681
0.000529028
0.000697803
0.000440178
0.000643091
0.000352541
0.000591222
0.000259249
0.000548536
0.000139073
0.000539174
-5.77448e-05
0.000634967
0.000998224
-0.000378198
-0.000298202
0.00413697
0.00066569
3.42755e-05
0.00396631
0.000333181
0.00380368
0.000600286
0.00364918
0.000837523
0.00350057
0.00104662
0.00335792
0.00122917
0.00322206
0.00138659
0.00309127
0.0015209
0.00296604
0.00163345
0.00284535
0.00172488
0.00273046
0.00179785
0.00261958
0.00185258
0.00251314
0.00189125
0.0024109
0.00191429
0.00231267
0.00192302
0.00221859
0.00191908
0.00212743
0.00190281
0.00203988
0.00187581
0.0019558
0.00183859
0.0018743
0.00179214
0.00179605
0.00173737
0.00172049
0.00167574
0.00164667
0.00160758
0.00157595
0.00153311
0.00150746
0.00145417
0.00144029
0.00137113
0.00137525
0.00128439
0.00131237
0.00119519
0.00125036
0.00110374
0.00118995
0.00101108
0.00113048
0.000917863
0.00107189
0.000824335
0.0010143
0.000731811
0.000956702
0.000640373
0.000899674
0.000550969
0.000842086
0.000463634
0.000785139
0.000377369
0.000729357
0.000288992
0.0006796
0.000189342
0.000648187
5.65691e-05
0.000671951
-0.000147468
0.000839009
0.00127569
-0.00042493
-0.000272438
0.0038042
0.000605208
2.79445e-05
0.00366593
0.000298073
0.00353355
0.000540508
0.00340675
0.00075563
0.00328545
0.000945801
0.00316775
0.00111217
0.00305569
0.00125609
0.00294735
0.00137938
0.00284275
0.00148242
0.00274231
0.00156737
0.00264551
0.00163505
0.0025519
0.00168668
0.00246151
0.00172291
0.00237467
0.00174495
0.00229063
0.00175472
0.00220883
0.00175181
0.00213035
0.00173799
0.00205369
0.00171406
0.00197973
0.00168063
0.00190772
0.00163887
0.00183782
0.00158958
0.00176978
0.00153324
0.00170301
0.00147065
0.00163855
0.0014028
0.00157532
0.00132997
0.00151312
0.00125314
0.00145207
0.00117326
0.00139226
0.00109074
0.00133288
0.00100605
0.00127464
0.00092
0.00121653
0.00083308
0.00115881
0.000746199
0.00110118
0.00065979
0.00104311
0.000574522
0.000984942
0.000490457
0.000926151
0.000407816
0.00086778
0.000325264
0.000811909
0.000238699
0.000766166
0.00013797
0.000748918
3.24118e-06
0.000806684
-0.000192855
0.00103511
0.00152395
-0.000441104
-0.000249707
0.00350344
0.00055046
2.21417e-05
0.00339408
0.00026693
0.00328876
0.00048627
0.00318741
0.000682315
0.0030894
0.00085491
0.00299516
0.00100721
0.0029034
0.00113889
0.00281567
0.00125146
0.00273018
0.00134652
0.00264725
0.00142513
0.0025669
0.00148761
0.00248942
0.00153518
0.00241394
0.00156956
0.00234029
0.00159111
0.00226909
0.00160077
0.00219917
0.00159914
0.00213198
0.00158751
0.00206532
0.00156629
0.00200095
0.00153647
0.00193754
0.00149874
0.00187555
0.00145415
0.00181437
0.00140239
0.00175477
0.00134522
0.00169571
0.00128297
0.00163756
0.00121602
0.00158007
0.00114535
0.00152274
0.00107178
0.00146583
0.000995328
0.00140933
0.000916972
0.001353
0.000837214
0.00129628
0.000756767
0.00123926
0.000676318
0.00118163
0.000596025
0.0011234
0.000516641
0.00106433
0.000438361
0.00100443
0.000360682
0.000945459
0.000281956
0.000890635
0.000198449
0.000849674
0.000100129
0.000847239
-3.01704e-05
0.000936988
-0.000213727
0.00121868
0.00175103
-0.000440805
-0.000228379
0.00323179
0.000500034
1.73161e-05
0.00314839
0.000239154
0.00306693
0.000438444
0.00298812
0.000616102
0.00291175
0.000774017
0.00283724
0.000912086
0.00276533
0.00103236
0.00269539
0.00113579
0.00262675
0.00122295
0.00256009
0.00129485
0.002495
0.00135268
0.00243158
0.00139742
0.0023692
0.00142932
0.00230839
0.00144995
0.00224846
0.00145925
0.00218986
0.001459
0.00213223
0.00144834
0.00207598
0.00142984
0.00201945
0.00140285
0.00196454
0.00136882
0.00190958
0.00132829
0.0018549
0.00128163
0.00180143
0.00122911
0.00174823
0.00117208
0.0016946
0.00111053
0.00164162
0.00104562
0.00158765
0.000977696
0.00153375
0.000907233
0.0014798
0.000835227
0.001425
0.000761837
0.00136967
0.000687537
0.00131356
0.000613026
0.00125614
0.000538828
0.0011976
0.000465042
0.00113811
0.000392121
0.00107735
0.000319803
0.00101778
0.000245927
0.000964511
0.000166357
0.000929243
7.1972e-05
0.000941624
-5.19133e-05
0.00106088
-0.000222567
0.00138934
0.00195903
-0.000430557
-0.000209122
0.00298609
0.000454821
1.3807e-05
0.00292546
0.000214591
0.00286614
0.00039549
0.00280722
0.000557082
0.00275015
0.00070027
0.00269405
0.000826295
0.0026393
0.000936275
0.00258541
0.00103059
0.00253244
0.00111054
0.00248013
0.00117687
0.00242867
0.00123033
0.00237812
0.0012715
0.00232802
0.00130123
0.00227866
0.00132106
0.00222864
0.00133051
0.0021804
0.00133027
0.00213247
0.00132191
0.00208434
0.00130476
0.00203659
0.00128109
0.00198821
0.00125022
0.00194045
0.00121309
0.00189202
0.00117064
0.00184389
0.00112359
0.00179527
0.00107093
0.00174726
0.0010145
0.00169804
0.000954573
0.00164758
0.00089191
0.00159642
0.000827626
0.00154408
0.000761408
0.00149122
0.000693953
0.00143713
0.000625482
0.00138203
0.000556745
0.00132488
0.000487965
0.00126638
0.000420162
0.00120591
0.000352515
0.001145
0.000285306
0.00108498
0.00021662
0.0010332
0.000141714
0.00100415
5.26973e-05
0.00103064
-6.4548e-05
0.00117812
-0.000224568
0.00154936
0.00215098
-0.00041652
-0.00019073
0.00276344
0.000413383
1.03377e-05
0.00272439
0.000192855
0.00268362
0.000356514
0.00264356
0.000503252
0.00260342
0.000633847
0.00256346
0.000749232
0.00252392
0.000849204
0.00248544
0.000935265
0.00244638
0.00100845
0.00240694
0.00106941
0.00236772
0.00111848
0.00232906
0.00115586
0.00229065
0.0011836
0.00225091
0.00120172
0.00221053
0.0012111
0.00217102
0.00121183
0.00213174
0.00120388
0.00209229
0.00118872
0.00205175
0.00116673
0.00201019
0.00113895
0.00196823
0.001105
0.00192597
0.00106664
0.00188225
0.00102369
0.00183822
0.000976523
0.00179443
0.000924572
0.00174999
0.000868984
0.00170317
0.000811301
0.0016541
0.000752101
0.00160328
0.000691411
0.00155191
0.000629637
0.0014989
0.000566975
0.00144469
0.000503691
0.00138816
0.00044099
0.00132908
0.000378371
0.00126853
0.000315891
0.00120748
0.000253659
0.00114722
0.000190461
0.00109639
0.000120905
0.0010737
3.72612e-05
0.00111428
-7.29421e-05
0.00128832
-0.000222276
0.0016987
0.00232686
-0.000398146
-0.000174772
0.000375849
0.00256236
7.81198e-06
0.00254181
0.00017298
0.00251846
0.000321554
0.00249499
0.000455268
0.0024697
0.0005746
0.00244413
0.000679252
0.00241927
0.000770967
0.00239372
0.000849699
0.00236764
0.000916544
0.0023401
0.00097331
0.00231095
0.00101908
0.00228328
0.00105385
0.00225588
0.00107906
0.00222569
0.00109567
0.00219392
0.00110558
0.00216111
0.00110767
0.00212966
0.00110166
0.00209829
0.0010883
0.00206511
0.00106867
0.00202983
0.00104349
0.00199341
0.00101215
0.00195731
0.000976843
0.00191756
0.00093871
0.00187635
0.00089637
0.00183677
0.000849765
0.0017966
0.000798414
0.00175452
0.00074463
0.00170788
0.000689302
0.00165861
0.000633403
0.00160781
0.000577011
0.00155529
0.000519152
0.00150255
0.000460819
0.00144649
0.000403107
0.00138679
0.000345494
0.00132615
0.000287673
0.0012653
0.000230397
0.00120449
0.00017306
0.00115373
0.0001106
0.00113616
3.46715e-05
0.00119021
-6.94389e-05
0.00139243
-0.000217535
0.00184679
-0.000385382
0.00249471
-0.000576295
0.00123605
-0.000967577
-0.000889969
0.00145498
-0.0011413
-0.00120856
0.0015731
-0.00125451
-0.00152335
0.00166135
-0.00134656
-0.00183211
0.00173793
-0.00142917
-0.00213356
0.00180929
-0.00150784
-0.00242459
0.00187719
-0.00158616
-0.00270542
0.00194391
-0.00166308
-0.00297467
0.0020101
-0.00174086
-0.00323092