/*--------------------------------*- C++ -*----------------------------------*\
| =========                 |                                                 |
| \\      /  F ield         | OpenFOAM: The Open Source CFD Toolbox           |
|  \\    /   O peration     | Version:  2.3.0                                 |
|   \\  /    A nd           | Web:      www.OpenFOAM.org                      |
|    \\/     M anipulation  |                                                 |
\*---------------------------------------------------------------------------*/
FoamFile
{
    version     2.0;
    format      ascii;
    class       volVectorField;
    location    "3000";
    object      U;
}
// * * * * * * * * * * * * * * * * * * * * * * * * * * * * * * * * * * * * * //

dimensions      [0 1 -1 0 0 0 0];

internalField   nonuniform List<vector> 
37496
(
(24.4578 7.55345 1.23265e-21)
(24.4947 7.74351 -1.67276e-21)
(24.5295 7.93877 2.36463e-21)
(24.5627 8.13951 8.62068e-21)
(24.5943 8.34589 5.00583e-21)
(24.6243 8.55825 -8.60664e-21)
(24.6528 8.77691 -1.30479e-20)
(24.6794 9.00217 5.41506e-20)
(24.7039 9.23447 -8.50867e-20)
(24.7261 9.47415 1.65673e-19)
(24.7456 9.72178 -1.04661e-19)
(24.762 9.9779 1.17272e-19)
(24.775 10.2431 1.20487e-20)
(24.7843 10.5182 -1.2824e-19)
(24.7895 10.8041 0)
(24.7902 11.1015 -1.66192e-19)
(24.7857 11.4116 3.46817e-19)
(24.7757 11.7356 -1.8109e-19)
(24.7594 12.0749 0)
(24.736 12.4311 -2.09975e-19)
(24.7047 12.8059 -2.7106e-20)
(24.6645 13.2015 2.49097e-19)
(24.6141 13.6202 2.62644e-19)
(24.5525 14.0643 -3.06191e-19)
(24.478 14.5365 0)
(24.3886 15.0394 0)
(24.2817 15.5758 3.84348e-19)
(24.154 16.148 -3.77937e-19)
(24.0009 16.7579 3.08794e-20)
(23.816 17.406 0)
(23.5896 18.0918 -2.8441e-19)
(23.3092 18.8123 -1.03295e-20)
(22.9574 19.5618 3.22139e-19)
(22.5101 20.3299 -3.23632e-19)
(21.936 21.1007 3.3723e-19)
(21.1961 21.854 2.22017e-20)
(20.2434 22.5626 -2.49363e-20)
(19.0202 23.1911 9.96819e-20)
(17.4568 23.6796 -1.28941e-19)
(15.4746 23.9523 -1.36228e-20)
(12.9874 24.0042 9.92743e-20)
(9.90588 23.8905 -1.0443e-19)
(6.28278 23.1136 5.22515e-20)
(24.254 7.58331 -1.75376e-21)
(24.2757 7.76606 7.07809e-21)
(24.2949 7.94474 1.37879e-21)
(24.3114 8.12824 -3.8991e-21)
(24.3256 8.31634 2.37541e-21)
(24.3375 8.50942 8.73238e-21)
(24.3471 8.70767 0)
(24.3541 8.91136 0)
(24.3584 9.12072 -2.86225e-20)
(24.3594 9.33607 2.02543e-20)
(24.3569 9.55773 1.00484e-20)
(24.3504 9.78604 6.19468e-21)
(24.3394 10.0214 0)
(24.3234 10.2642 -8.27057e-20)
(24.3019 10.5151 1.89708e-19)
(24.2744 10.7743 -8.95707e-20)
(24.2401 11.0424 -5.31057e-21)
(24.1984 11.3201 -1.21514e-19)
(24.1482 11.6077 2.65768e-19)
(24.0885 11.906 -1.45651e-19)
(24.0179 12.2155 -1.47701e-19)
(23.9346 12.5371 3.34201e-19)
(23.8369 12.8715 -1.74902e-19)
(23.7225 13.2197 -1.82997e-19)
(23.5889 13.583 1.92977e-19)
(23.4333 13.9622 0)
(23.2523 14.3588 0)
(23.0422 14.774 -1.1215e-20)
(22.7987 15.2087 -1.08436e-20)
(22.5166 15.6636 0)
(22.1899 16.1384 -6.17633e-21)
(21.8119 16.6318 6.20593e-21)
(21.375 17.1408 0)
(20.871 17.6594 0)
(20.2904 18.1778 5.19919e-21)
(19.6245 18.6811 0)
(18.8653 19.1487 0)
(18.0065 19.5517 9.44974e-22)
(17.0464 19.8506 0)
(15.9951 19.9973 1.01708e-20)
(14.8798 19.9332 -3.35288e-21)
(13.7321 19.5779 -1.50023e-20)
(12.574 18.8343 2.43876e-19)
(24.0727 7.61089 0)
(24.0832 7.77502 -5.337e-21)
(24.091 7.93836 -2.22193e-21)
(24.0959 8.10602 -1.38965e-21)
(24.0982 8.27762 -2.94271e-21)
(24.0979 8.45336 1.58444e-21)
(24.0949 8.63349 -1.01465e-21)
(24.0891 8.81816 0)
(24.0801 9.00758 3.64588e-21)
(24.0676 9.20202 4.51492e-21)
(24.0512 9.40164 0)
(24.0304 9.60677 -4.27483e-21)
(24.0048 9.81769 -4.3077e-20)
(23.9738 10.0348 -1.37963e-20)
(23.937 10.2584 4.60609e-20)
(23.8935 10.4888 4.755e-20)
(23.843 10.7267 -5.21247e-20)
(23.7848 10.9723 -8.58847e-21)
(23.7181 11.2261 0)
(23.642 11.4882 8.61711e-20)
(23.5556 11.7592 -8.02749e-20)
(23.4573 12.0391 -9.36203e-20)
(23.3457 12.3282 5.39971e-22)
(23.2188 12.6264 9.65882e-20)
(23.0744 12.9338 -4.22109e-20)
(22.91 13.2502 5.30133e-20)
(22.7225 13.5752 5.49387e-20)
(22.5086 13.9082 1.05365e-20)
(22.2647 14.2482 -1.12921e-19)
(21.9863 14.5936 1.07795e-19)
(21.6688 14.9421 -1.02013e-19)
(21.3068 15.2903 5.03146e-20)
(20.8947 15.6337 4.06794e-20)
(20.4266 15.9661 -4.18529e-20)
(19.897 16.2791 3.19563e-21)
(19.3011 16.5623 -8.64829e-21)
(18.6355 16.8021 3.42846e-21)
(17.9 16.9822 -6.2729e-21)
(17.0987 17.0841 0)
(16.2423 17.0881 -5.02004e-21)
(15.3505 16.9748 -1.364e-20)
(14.4549 16.7255 3.18234e-20)
(13.6063 16.3277 -2.10742e-20)
(23.91 7.61531 -6.15297e-21)
(23.9105 7.77172 1.34294e-20)
(23.9094 7.92126 0)
(23.9055 8.0743 0)
(23.899 8.23058 2.79431e-21)
(23.8897 8.39041 0)
(23.8776 8.55396 1.34438e-21)
(23.8624 8.72142 -7.31147e-21)
(23.844 8.89297 7.23096e-21)
(23.8221 9.06879 2.61953e-21)
(23.7963 9.24898 -2.20317e-21)
(23.7662 9.43379 -4.13313e-21)
(23.7311 9.62336 1.60874e-21)
(23.6906 9.818 9.64639e-21)
(23.644 10.0179 -5.82382e-21)
(23.5907 10.2233 0)
(23.53 10.4345 -1.16197e-20)
(23.4613 10.6519 1.42368e-20)
(23.3838 10.8758 -5.3745e-22)
(23.2967 11.1064 1.54261e-20)
(23.1991 11.344 -3.36509e-20)
(23.0901 11.5886 2.14668e-20)
(22.9682 11.8403 -3.21156e-21)
(22.832 12.0988 8.47215e-22)
(22.6795 12.364 0)
(22.5087 12.6355 0)
(22.3172 12.9124 0)
(22.1025 13.1941 -8.16362e-23)
(21.8618 13.4791 0)
(21.592 13.7655 4.08586e-21)
(21.29 14.051 0)
(20.9527 14.3322 -2.87491e-21)
(20.5767 14.6048 4.38356e-21)
(20.1593 14.8632 -6.39024e-21)
(19.6981 15.1001 -8.37813e-21)
(19.1917 15.3072 1.9821e-20)
(18.6406 15.4741 -5.10348e-20)
(18.0475 15.5891 1.5366e-20)
(17.4185 15.6394 1.26971e-20)
(16.764 15.6126 -2.25413e-20)
(16.0991 15.4978 -6.95221e-21)
(15.4439 15.2876 1.88328e-20)
(14.8238 14.9826 0)
(23.763 7.62459 -1.28647e-20)
(23.7567 7.76231 -1.20631e-20)
(23.7493 7.8983 0)
(23.7392 8.03761 0)
(23.7266 8.17992 1.23957e-20)
(23.7111 8.32537 -1.22514e-20)
(23.6927 8.47413 6.54774e-21)
(23.6714 8.62638 1.53652e-20)
(23.6468 8.78228 -9.18209e-21)
(23.6189 8.94195 -1.48784e-20)
(23.5872 9.10554 1.47612e-20)
(23.5513 9.27316 0)
(23.5107 9.44488 -1.09418e-21)
(23.4649 9.62101 0)
(23.4134 9.80163 0)
(23.3555 9.98687 -8.26216e-21)
(23.2903 10.1769 6.8094e-21)
(23.2173 10.372 1.5612e-21)
(23.1356 10.5723 -9.72497e-22)
(23.0446 10.7782 4.61887e-21)
(22.9434 10.9897 -5.52598e-21)
(22.8312 11.2069 0)
(22.7071 11.4297 -8.754e-22)
(22.5696 11.6577 4.93527e-21)
(22.4175 11.8908 -1.33402e-20)
(22.2487 12.1281 1.00041e-20)
(22.0611 12.3687 2.82673e-21)
(21.8527 12.6116 8.305e-23)
(21.6212 12.8554 -2.22619e-20)
(21.3637 13.0979 -6.16255e-21)
(21.0779 13.3367 5.18558e-21)
(20.7611 13.5687 5.08218e-20)
(20.4114 13.7903 -5.13697e-20)
(20.0269 13.9964 9.84468e-21)
(19.6068 14.1812 4.86166e-20)
(19.1509 14.3378 4.59982e-20)
(18.6606 14.4583 -5.0139e-20)
(18.1394 14.5343 -4.52765e-20)
(17.5935 14.5573 2.32044e-20)
(17.032 14.5194 1.40965e-20)
(16.4673 14.4142 -3.66784e-20)
(15.9146 14.2391 0)
(15.3909 13.9965 9.84155e-20)
(23.6315 7.62338 -5.41602e-21)
(23.6206 7.74742 4.06542e-21)
(23.6084 7.87119 -1.50038e-20)
(23.5938 7.99816 4.60038e-21)
(23.5768 8.12793 0)
(23.5571 8.26063 0)
(23.5345 8.39633 -2.15656e-20)
(23.5088 8.53521 8.67667e-21)
(23.4802 8.67745 2.13313e-20)
(23.4482 8.82309 -5.90166e-22)
(23.4127 8.97238 -1.2587e-20)
(23.3733 9.12536 0)
(23.3293 9.28199 0)
(23.2803 9.44251 0)
(23.2258 9.60714 0)
(23.1655 9.77589 -1.46932e-21)
(23.0985 9.94865 -3.18574e-21)
(23.0236 10.1256 1.60308e-21)
(22.9402 10.3069 2.09147e-20)
(22.8477 10.4929 -1.95867e-20)
(22.7453 10.6836 -2.22677e-20)
(22.6321 10.8789 2.07469e-20)
(22.5073 11.0788 0)
(22.3702 11.2832 4.01361e-21)
(22.2198 11.4918 -3.21751e-20)
(22.0547 11.7036 5.72744e-20)
(21.8724 11.9176 -3.49177e-20)
(21.6713 12.1329 2.05027e-20)
(21.4501 12.348 -2.78703e-20)
(21.2063 12.5606 0)
(20.9375 12.7683 6.01678e-21)
(20.6419 12.9683 -7.32534e-21)
(20.3177 13.1572 -5.49949e-20)
(19.9637 13.3311 3.6634e-20)
(19.5804 13.4848 -4.8832e-20)
(19.1679 13.6124 -4.00173e-20)
(18.728 13.7075 5.84666e-20)
(18.2639 13.7632 2.28367e-20)
(17.7809 13.7739 2.9918e-20)
(17.2872 13.7338 0)
(16.7925 13.6384 3.54796e-20)
(16.3083 13.4867 4.10201e-20)
(15.8468 13.2807 0)
(23.5133 7.61475 -1.85463e-20)
(23.4999 7.72821 -5.83883e-21)
(23.4843 7.84137 1.04138e-20)
(23.4665 7.95746 -5.33638e-21)
(23.4465 8.07632 1.55685e-20)
(23.4238 8.19791 -1.01721e-20)
(23.3986 8.32225 -1.05739e-20)
(23.3701 8.44947 1.02357e-20)
(23.3389 8.57997 -8.00548e-21)
(23.3044 8.71342 0)
(23.2663 8.85038 -4.72668e-21)
(23.2248 8.991 0)
(23.1792 9.13503 1.60076e-20)
(23.1285 9.28247 -1.59933e-20)
(23.0724 9.43375 0)
(23.011 9.58903 3.24983e-21)
(22.9437 9.74798 3.22771e-21)
(22.869 9.91036 -3.23163e-21)
(22.7858 10.0765 4.65068e-21)
(22.6938 10.2467 4.77691e-21)
(22.5923 10.4208 3.78223e-20)
(22.4802 10.5986 -4.00803e-20)
(22.3566 10.7803 0)
(22.221 10.9656 -1.88249e-20)
(22.0724 11.1546 3.1036e-21)
(21.9113 11.3467 4.7175e-20)
(21.7347 11.5401 1.97752e-21)
(21.5401 11.7341 -3.57641e-20)
(21.3278 11.9281 6.893e-21)
(21.0958 12.1188 2.81813e-20)
(20.8411 12.3036 4.25761e-21)
(20.5623 12.4808 1.789e-20)
(20.2585 12.6469 -5.13435e-20)
(19.9268 12.7983 -1.66106e-20)
(19.5707 12.9315 1.65548e-20)
(19.1899 13.0402 1.92636e-20)
(18.7864 13.1194 0)
(18.3626 13.1629 -1.43257e-20)
(17.9222 13.1669 -1.92716e-20)
(17.4736 13.1273 4.17546e-21)
(17.0247 13.0405 2.69941e-21)
(16.5851 12.9056 3.92992e-21)
(16.1648 12.7242 -4.68406e-20)
(23.407 7.60161 1.89419e-20)
(23.3923 7.70682 -1.34831e-20)
(23.3747 7.81056 -6.73305e-21)
(23.3549 7.91682 -6.56087e-21)
(23.3331 8.02617 1.19592e-20)
(23.3081 8.13801 -1.84414e-22)
(23.2815 8.25281 -1.22335e-20)
(23.251 8.36981 9.33155e-22)
(23.2184 8.49034 -5.82347e-21)
(23.1827 8.61344 -2.11161e-20)
(23.1427 8.73941 2.57515e-20)
(23.0996 8.86948 -2.04964e-20)
(23.0532 9.00306 2.0447e-20)
(23.0025 9.13974 0)
(22.9454 9.27944 2.01394e-20)
(22.8833 9.42339 -2.57002e-20)
(22.8161 9.57111 0)
(22.7427 9.72206 -5.67158e-21)
(22.6607 9.87582 1.6685e-20)
(22.57 10.0334 -2.64592e-20)
(22.4701 10.1945 -2.29181e-20)
(22.3604 10.3587 4.60176e-20)
(22.2392 10.5258 -2.43709e-20)
(22.1071 10.6957 -5.83271e-21)
(21.9597 10.8679 0)
(21.8018 11.0444 -8.11232e-21)
(21.6316 11.2225 0)
(21.4419 11.399 5.53482e-20)
(21.2367 11.5769 3.01138e-21)
(21.0153 11.7515 -4.4121e-20)
(20.7739 11.9194 0)
(20.5082 12.0792 1.61806e-21)
(20.2234 12.2303 -4.91253e-20)
(19.9086 12.3647 5.0191e-20)
(19.5734 12.4847 -2.12753e-20)
(19.2168 12.5815 1.92682e-20)
(18.8416 12.651 -1.9224e-21)
(18.4498 12.686 -1.50883e-20)
(18.0408 12.6851 -1.76078e-20)
(17.6252 12.6469 4.63305e-20)
(17.2093 12.5672 -9.65211e-21)
(16.8021 12.4459 -4.47734e-20)
(16.4112 12.283 4.88676e-20)
(23.3089 7.58075 -7.25989e-21)
(23.295 7.68434 6.94059e-21)
(23.2773 7.78138 6.74624e-21)
(23.2565 7.87786 6.42773e-21)
(23.2343 7.978 7.22927e-21)
(23.2067 8.08019 1.35202e-20)
(23.1801 8.18871 -2.68066e-20)
(23.1486 8.29739 7.09379e-21)
(23.1154 8.40938 1.87279e-20)
(23.0806 8.52487 0)
(23.0401 8.64105 0)
(22.9956 8.76175 -6.48297e-21)
(22.948 8.88566 -2.37627e-20)
(22.8986 9.01466 2.37962e-20)
(22.8422 9.14475 -3.03428e-20)
(22.7801 9.27922 2.96178e-20)
(22.7129 9.41647 0)
(22.6416 9.55949 -9.95286e-22)
(22.562 9.70329 2.54395e-20)
(22.4736 9.85083 -2.56863e-20)
(22.3752 10.0013 7.2685e-21)
(22.2697 10.1553 -1.1884e-21)
(22.1495 10.3107 -7.91839e-21)
(22.0256 10.4707 -4.0333e-20)
(21.8815 10.6284 3.25787e-20)
(21.7236 10.7888 -2.79005e-20)
(21.5596 10.9562 2.56366e-20)
(21.3729 11.116 -2.08537e-20)
(21.1716 11.2817 -1.20874e-20)
(20.9579 11.4447 1.17547e-20)
(20.7347 11.6028 -1.5038e-20)
(20.476 11.7441 1.45618e-21)
(20.2082 11.8879 -3.40066e-20)
(19.9068 12.0064 -3.95577e-20)
(19.5907 12.1184 -2.42394e-20)
(19.2516 12.2067 -1.92037e-21)
(18.8909 12.2701 -2.86376e-20)
(18.5228 12.2994 2.84902e-20)
(18.135 12.2928 3.29207e-20)
(17.7436 12.2559 -3.69613e-20)
(17.355 12.1828 2.02364e-20)
(16.9774 12.073 6.62313e-20)
(16.6096 11.924 6.0218e-22)
(2.96772 20.4326 0)
(3.21553 17.9179 -6.38195e-19)
(3.79217 16.0781 6.23581e-19)
(4.43862 14.6583 -1.58985e-18)
(5.09007 13.5229 1.59504e-18)
(5.72559 12.5858 -1.71137e-18)
(6.33078 11.8012 1.74826e-18)
(6.89952 11.1376 -1.80287e-18)
(7.42905 10.5707 1.64877e-18)
(7.91957 10.0816 -1.70161e-18)
(8.37248 9.65621 1.75323e-18)
(8.78927 9.28217 -1.56086e-18)
(9.17282 8.95025 1.6052e-18)
(9.52594 8.65372 4.74734e-20)
(9.85093 8.38581 1.47189e-18)
(10.1509 8.14239 -4.33114e-18)
(10.428 7.91939 2.75898e-18)
(10.6849 7.71369 -8.22979e-20)
(10.9237 7.5227 2.54411e-18)
(11.1464 7.3443 -5.07689e-18)
(11.3548 7.17675 2.39133e-18)
(11.5505 7.01852 -2.316e-18)
(11.7352 6.86848 2.33393e-18)
(11.9097 6.72536 -6.84898e-20)
(12.0755 6.58843 2.09736e-18)
(12.2334 6.45696 -7.54072e-20)
(12.3842 6.33021 -2.11169e-18)
(12.5286 6.20767 -1.94769e-18)
(12.6671 6.08882 2.07418e-18)
(12.8004 5.97332 0)
(12.9288 5.86081 -3.15335e-21)
(13.0527 5.75099 2.57283e-19)
(13.1724 5.64366 0)
(13.2883 5.5386 -1.2763e-19)
(13.4007 5.43565 8.99116e-19)
(13.5099 5.33464 -7.76406e-19)
(13.6161 5.23543 -2.62433e-19)
(13.7195 5.1378 -7.7837e-19)
(13.8202 5.04156 4.3746e-21)
(13.9184 4.94659 1.82973e-18)
(14.014 4.85279 -7.83112e-19)
(14.1068 4.76085 0)
(14.1984 4.66238 3.85702e-22)
(11.4793 17.7395 -2.30625e-19)
(10.7412 16.5448 -7.02556e-19)
(10.2883 15.4366 7.18186e-19)
(10.0382 14.4409 -7.48706e-19)
(9.9277 13.5541 7.8907e-19)
(9.91444 12.7675 1.58624e-18)
(9.96845 12.0716 3.63295e-20)
(10.0681 11.4563 -3.33931e-18)
(10.1984 10.9115 -1.30077e-20)
(10.3481 10.4282 1.61467e-18)
(10.5092 9.99765 -4.89003e-20)
(10.6762 9.61264 -4.7766e-20)
(10.8452 9.26648 -9.09022e-20)
(11.0131 8.95362 -2.05542e-21)
(11.1788 8.66927 -1.40848e-18)
(11.3406 8.40921 2.76594e-18)
(11.4982 8.17 -1.30994e-18)
(11.6513 7.94869 7.89833e-20)
(11.7995 7.74279 -1.21134e-18)
(11.9429 7.55027 2.42428e-18)
(12.0817 7.36945 -2.14097e-18)
(12.2159 7.19885 -6.50845e-20)
(12.3457 7.03724 1.02018e-18)
(12.4715 6.8836 -9.9519e-19)
(12.5932 6.73701 1.11476e-18)
(12.7113 6.59667 1.57637e-21)
(12.8257 6.46197 -6.27863e-20)
(12.9369 6.3323 0)
(13.0447 6.20714 1.24033e-19)
(13.1494 6.08614 0)
(13.2512 5.96892 -2.4963e-19)
(13.3502 5.85517 -1.26067e-19)
(13.4466 5.74461 0)
(13.5406 5.63704 -8.79704e-19)
(13.6324 5.53224 8.90283e-19)
(13.7222 5.42995 0)
(13.8101 5.32998 -8.97547e-19)
(13.8963 5.23206 9.0682e-19)
(13.9807 5.13595 0)
(14.0634 5.04148 0)
(14.1442 4.94851 2.57361e-19)
(14.2228 4.85745 -5.11271e-19)
(14.2999 4.76041 2.44569e-19)
(12.8732 15.7953 -1.79369e-19)
(12.3028 15.1723 2.40452e-19)
(11.8797 14.5079 -6.05014e-19)
(11.5828 13.8399 1.08212e-18)
(11.3891 13.1922 3.92296e-20)
(11.2777 12.5783 3.72044e-20)
(11.2306 12.0048 6.73555e-20)
(11.2331 11.4745 -6.99689e-19)
(11.2728 10.987 -1.36293e-18)
(11.3395 10.5405 1.379e-18)
(11.4255 10.1321 0)
(11.525 9.75861 8.21289e-20)
(11.6333 9.41652 -1.27311e-18)
(11.747 9.10279 2.5341e-18)
(11.8637 8.81413 7.17205e-21)
(11.9813 8.54771 -1.22482e-18)
(12.0985 8.30102 7.3514e-20)
(12.2146 8.07179 1.15681e-18)
(12.3287 7.85799 7.09184e-20)
(12.4405 7.6579 -1.02811e-18)
(12.5499 7.46999 8.70164e-19)
(12.6565 7.2929 -1.04917e-18)
(12.7605 7.12557 0)
(12.8619 6.96692 -1.01288e-18)
(12.9607 6.81603 1.00053e-18)
(13.057 6.67209 6.27486e-20)
(13.1509 6.53445 -9.17044e-19)
(13.2424 6.40243 -5.83527e-20)
(13.3314 6.27551 8.48529e-19)
(13.4183 6.1533 0)
(13.503 6.0354 2.42513e-19)
(13.5857 5.92144 9.70139e-19)
(13.6665 5.81112 -1.2347e-19)
(13.7457 5.70416 -2.54387e-21)
(13.8234 5.6003 -8.64442e-19)
(13.8996 5.49928 1.23561e-19)
(13.9747 5.40081 -1.2619e-19)
(14.0485 5.30463 1.27097e-19)
(14.1211 5.21046 0)
(14.1925 5.11813 0)
(14.2626 5.02745 0)
(14.3315 4.93843 -2.51349e-19)
(14.4008 4.84484 2.4484e-19)
(14.2634 14.5941 1.25776e-21)
(13.7789 14.142 0)
(13.3765 13.6502 3.2186e-20)
(13.0551 13.1408 0)
(12.8083 12.6313 -6.12626e-19)
(12.6266 12.1337 1.20485e-20)
(12.5007 11.656 -6.27713e-20)
(12.4209 11.2031 2.24275e-20)
(12.3784 10.7775 -5.37236e-20)
(12.3653 10.3799 1.26783e-18)
(12.3755 10.0099 -6.4602e-19)
(12.4039 9.66661 -1.60419e-19)
(12.4463 9.34828 -7.79502e-20)
(12.4992 9.05306 -1.33191e-18)
(12.5602 8.77896 2.44078e-18)
(12.627 8.52402 -1.18242e-18)
(12.6978 8.2864 -1.22656e-18)
(12.7716 8.06437 2.24184e-18)
(12.847 7.85639 -1.22809e-18)
(12.9234 7.6611 -6.73989e-20)
(13.0002 7.47724 1.96236e-19)
(13.077 7.30378 0)
(13.1536 7.13965 0)
(13.2297 6.98394 -9.89816e-19)
(13.3052 6.83582 9.7758e-19)
(13.38 6.6945 -9.66162e-19)
(13.4537 6.55928 1.18421e-21)
(13.5261 6.42964 1.01376e-18)
(13.5973 6.30512 -9.48741e-19)
(13.6672 6.18539 1.06632e-18)
(13.736 6.07004 -1.79638e-21)
(13.8037 5.95874 1.18004e-19)
(13.8703 5.8511 1.07444e-18)
(13.936 5.74693 -9.61756e-19)
(14.0008 5.64596 -9.66746e-19)
(14.0649 5.54793 8.53757e-19)
(14.1283 5.45251 -4.91333e-19)
(14.191 5.3594 9.91959e-19)
(14.2528 5.26843 -5.00322e-19)
(14.3137 5.17951 6.2751e-19)
(14.3737 5.09251 -1.00529e-18)
(14.4324 5.00772 6.21135e-19)
(14.4895 4.9219 -1.23163e-19)
(14.9111 13.6933 -1.26065e-19)
(14.4847 13.3404 0)
(14.1173 12.9513 0)
(13.8106 12.5408 6.69528e-20)
(13.5624 12.1215 -5.81068e-19)
(13.3676 11.704 5.76309e-19)
(13.2202 11.2956 -6.16407e-19)
(13.1132 10.9014 6.83566e-19)
(13.04 10.5251 7.96705e-20)
(12.9946 10.1687 6.30412e-19)
(12.972 9.8332 -6.17027e-19)
(12.9681 9.51852 -5.43392e-19)
(12.9794 9.22407 1.30075e-18)
(13.0029 8.94876 -5.95609e-19)
(13.0362 8.69128 0)
(13.077 8.45023 0)
(13.1235 8.22433 1.04804e-18)
(13.1743 8.01227 -6.07767e-19)
(13.2282 7.81286 -3.97471e-19)
(13.2843 7.62503 -1.04144e-18)
(13.3421 7.44779 -3.24424e-21)
(13.401 7.28026 2.0022e-18)
(13.4608 7.12158 -9.8442e-19)
(13.5213 6.97086 0)
(13.582 6.8273 0)
(13.6426 6.69016 -1.00823e-18)
(13.7025 6.55886 -5.81656e-20)
(13.7617 6.43299 9.95093e-19)
(13.82 6.31228 0)
(13.8777 6.19636 3.48421e-19)
(13.9348 6.08482 -5.8389e-19)
(13.9914 5.9772 -1.17653e-19)
(14.0472 5.87324 0)
(14.1024 5.7728 -3.54577e-19)
(14.1573 5.67562 3.57736e-19)
(14.2119 5.58138 3.59985e-19)
(14.2661 5.48967 -4.84162e-19)
(14.3198 5.40023 -6.09107e-19)
(14.3727 5.31295 4.92477e-19)
(14.4249 5.22773 -1.24406e-19)
(14.4764 5.14435 0)
(14.527 5.0627 -1.23259e-19)
(14.5771 4.97916 1.20862e-19)
(15.4187 13.0258 1.11109e-19)
(15.0316 12.7296 -4.10989e-19)
(14.6906 12.4015 -1.59693e-20)
(14.3976 12.052 4.63463e-19)
(14.1523 11.6913 -2.71214e-19)
(13.952 11.3279 -7.13834e-20)
(13.7926 10.9681 6.00757e-19)
(13.6689 10.6165 -6.68036e-19)
(13.5749 10.2773 7.51047e-20)
(13.5065 9.95321 0)
(13.4598 9.64559 0)
(13.432 9.35524 0)
(13.4202 9.08182 7.38422e-20)
(13.4217 8.82451 1.50453e-21)
(13.434 8.58246 0)
(13.4547 8.35473 0)
(13.4821 8.14039 6.89204e-20)
(13.5146 7.93846 -4.67701e-19)
(13.5512 7.74806 -6.79071e-20)
(13.591 7.56826 5.7472e-19)
(13.6333 7.39826 -6.33431e-20)
(13.6778 7.23743 0)
(13.7242 7.08497 0)
(13.772 6.9399 -5.39106e-19)
(13.8207 6.8015 9.47373e-19)
(13.8695 6.66914 -4.681e-19)
(13.918 6.54237 7.69852e-22)
(13.9659 6.42103 -5.20889e-19)
(14.0136 6.30487 5.73782e-20)
(14.0613 6.19348 4.60227e-19)
(14.1091 6.08627 0)
(14.1565 5.98274 4.61188e-19)
(14.2034 5.88286 -1.04144e-18)
(14.2501 5.78661 2.33045e-19)
(14.2969 5.69362 1.17841e-19)
(14.3436 5.6035 2.36396e-19)
(14.3904 5.5158 0)
(14.4364 5.43024 2.40608e-19)
(14.4818 5.34694 0)
(14.5268 5.26577 2.4428e-19)
(14.5715 5.18636 -3.66956e-19)
(14.6155 5.1086 -3.63912e-19)
(14.6593 5.02983 3.59687e-19)
(15.772 12.5012 0)
(15.4147 12.2425 5.76631e-20)
(15.0957 11.9549 0)
(14.8162 11.6462 0)
(14.5765 11.3267 0)
(14.3769 11.0027 7.07115e-20)
(14.2142 10.6783 -2.91884e-19)
(14.0821 10.3583 2.15149e-19)
(13.9755 10.0479 -1.17749e-21)
(13.8925 9.74942 0)
(13.8305 9.46472 0)
(13.7877 9.19503 0)
(13.7616 8.93959 -1.45487e-19)
(13.7493 8.6977 7.19126e-20)
(13.7478 8.46907 0)
(13.755 8.25322 -5.48646e-19)
(13.7689 8.04952 4.6717e-19)
(13.7884 7.85717 -6.51325e-20)
(13.8129 7.67539 0)
(13.8411 7.50323 4.41904e-19)
(13.8723 7.34019 6.30249e-20)
(13.9064 7.18604 -4.2637e-19)
(13.9435 7.03954 5.96932e-20)
(13.9823 6.89989 5.96515e-20)
(14.0219 6.76664 -4.68979e-19)
(14.0617 6.63909 4.64628e-19)
(14.1009 6.51694 -4.02795e-19)
(14.14 6.40041 9.15788e-19)
(14.1795 6.28907 -5.70121e-19)
(14.2197 6.18232 0)
(14.2606 6.07942 -3.98563e-19)
(14.3007 5.97984 4.56157e-19)
(14.3402 5.88408 1.7191e-19)
(14.3801 5.79211 1.15561e-19)
(14.4205 5.70334 0)
(14.4611 5.61732 -1.1721e-19)
(14.5018 5.53366 0)
(14.5414 5.45204 -1.19215e-19)
(14.5806 5.37285 0)
(14.6197 5.29584 0)
(14.6586 5.22059 1.2141e-19)
(14.697 5.14714 1.20667e-19)
(14.7348 5.07334 -1.19914e-19)
(16.0427 12.0832 1.09169e-19)
(15.7081 11.849 -1.09817e-19)
(15.4049 11.5893 -1.23875e-19)
(15.1369 11.3053 5.99248e-20)
(14.8998 11.0176 -6.62333e-20)
(14.7045 10.7242 0)
(14.5443 10.4248 0)
(14.4061 10.1279 7.14682e-20)
(14.2882 9.84235 2.18077e-19)
(14.1976 9.56459 -5.76297e-19)
(14.125 9.29918 2.85514e-19)
(14.0729 9.04713 -2.88194e-19)
(14.0384 8.80647 7.06326e-19)
(14.0167 8.57661 -2.76072e-19)
(14.0048 8.35922 5.47693e-19)
(14.0013 8.15363 -1.00375e-18)
(14.005 7.95973 5.89647e-19)
(14.0148 7.77608 5.81687e-19)
(14.0306 7.60239 -5.04929e-19)
(14.0502 7.43667 4.98151e-19)
(14.0727 7.2796 -5.49667e-19)
(14.0991 7.13196 -6.05364e-20)
(14.1299 6.99038 -5.96865e-20)
(14.1615 6.85587 0)
(14.1936 6.72781 0)
(14.2258 6.60492 5.77416e-20)
(14.257 6.48705 0)
(14.2891 6.37553 0)
(14.3226 6.26894 5.67088e-20)
(14.3575 6.16642 -4.50706e-19)
(14.3931 6.06773 3.93881e-19)
(14.4269 5.97161 4.51115e-19)
(14.4602 5.87983 -5.09516e-19)
(14.4948 5.79187 0)
(14.5301 5.70707 0)
(14.5654 5.62496 -2.30659e-19)
(14.6017 5.54571 1.41435e-22)
(14.6359 5.46791 4.6932e-19)
(14.67 5.39265 -4.73382e-19)
(14.7042 5.3196 2.38648e-19)
(14.7385 5.24811 -1.79318e-19)
(14.7719 5.17834 2.3838e-19)
(14.8058 5.1079 -1.1954e-19)
(16.2465 11.7427 4.9656e-20)
(15.9151 11.5185 0)
(15.6172 11.2855 0)
(15.3606 11.0103 2.536e-19)
(15.1218 10.755 2.07806e-22)
(14.9363 10.4899 -2.6429e-19)
(14.7811 10.2033 4.65303e-19)
(14.638 9.92218 6.80628e-21)
(14.5137 9.668 5.72508e-21)
(14.4258 9.4055 -2.05736e-19)
(14.3442 9.15479 2.84121e-19)
(14.2895 8.91739 -2.7839e-19)
(14.2516 8.68802 2.06884e-19)
(14.2237 8.46614 2.07567e-19)
(14.2043 8.25917 -4.68446e-19)
(14.194 8.06246 1.98305e-19)
(14.1916 7.87972 -2.5828e-19)
(14.1975 7.70245 6.29337e-20)
(14.2088 7.53703 0)
(14.224 7.37499 0)
(14.2409 7.22196 0)
(14.2634 7.08185 0)
(14.2902 6.94305 5.65215e-20)
(14.3132 6.81508 5.75211e-20)
(14.3394 6.69165 0)
(14.3658 6.57284 0)
(14.3905 6.45791 5.68277e-20)
(14.4184 6.3522 0)
(14.4486 6.24933 2.27867e-19)
(14.4795 6.15017 -4.54211e-19)
(14.5106 6.0568 2.25118e-19)
(14.5386 5.96234 0)
(14.5671 5.87381 5.70333e-20)
(14.5983 5.78864 2.30335e-19)
(14.629 5.70786 -5.10294e-19)
(14.6601 5.63021 2.2839e-19)
(14.693 5.5567 5.90256e-20)
(14.7214 5.48093 0)
(14.7511 5.40829 0)
(14.781 5.33847 5.99376e-20)
(14.8114 5.26979 1.2093e-19)
(14.8406 5.20251 -2.4154e-19)
(14.8741 5.13274 1.8439e-19)
(15.9425 -3.66623 1.44895e-18)
(15.6711 -3.65438 -5.14312e-19)
(15.4001 -3.63839 0)
(15.1286 -3.6205 0)
(14.8568 -3.60122 5.32982e-19)
(14.5846 -3.5807 5.33671e-19)
(14.3123 -3.55901 -5.29311e-19)
(14.0399 -3.5362 7.98303e-19)
(13.7676 -3.51232 0)
(13.4956 -3.4874 0)
(13.2238 -3.46147 8.15765e-19)
(12.9523 -3.43454 -1.103e-18)
(12.6812 -3.40664 5.57552e-19)
(12.4105 -3.37779 -2.77769e-19)
(12.1402 -3.348 2.82101e-19)
(11.8703 -3.3173 2.99017e-19)
(11.6008 -3.28568 -5.98777e-19)
(11.3316 -3.25317 4.61689e-19)
(11.0627 -3.21978 -1.10764e-18)
(10.794 -3.18549 1.14008e-18)
(10.5253 -3.15031 1.66957e-19)
(10.2566 -3.1142 -1.56861e-18)
(9.98769 -3.07718 5.47747e-19)
(9.71831 -3.03917 -1.89076e-19)
(9.44823 -3.0002 -9.94646e-19)
(9.17714 -2.96017 4.28327e-19)
(8.90464 -2.91901 0)
(8.63028 -2.87668 4.75268e-19)
(8.35345 -2.83305 -6.36151e-19)
(8.07347 -2.78801 6.81494e-19)
(7.78946 -2.74135 -5.94289e-19)
(7.50033 -2.69287 1.61815e-19)
(7.20471 -2.64224 -4.44677e-20)
(6.90093 -2.5891 2.46732e-19)
(6.58676 -2.53275 -2.21571e-19)
(6.25935 -2.47226 0)
(5.91503 -2.40639 1.48319e-19)
(5.54909 -2.33261 -2.67911e-18)
(5.15677 -2.24688 3.5923e-18)
(4.73934 -2.14174 -2.38829e-19)
(4.34336 -2.00509 0)
(4.34352 -1.87664 -7.00077e-18)
(6.88941 -2.13314 1.99264e-17)
(15.8721 -3.64978 0)
(15.6222 -3.63248 0)
(15.3736 -3.61646 0)
(15.1245 -3.6005 5.52064e-19)
(14.8749 -3.58377 -5.4993e-19)
(14.6247 -3.56609 -5.32673e-19)
(14.3741 -3.54743 5.15296e-20)
(14.123 -3.52779 -6.19635e-19)
(13.8715 -3.50717 2.76081e-19)
(13.6197 -3.48557 -7.98149e-22)
(13.3676 -3.46297 -2.77627e-19)
(13.1151 -3.43936 -8.39912e-19)
(12.8623 -3.41473 5.64714e-19)
(12.609 -3.38906 0)
(12.3552 -3.36233 0)
(12.1008 -3.33452 2.96412e-19)
(11.8457 -3.30563 0)
(11.5898 -3.27565 1.55389e-19)
(11.3329 -3.24455 4.74752e-19)
(11.0749 -3.21231 -4.88961e-19)
(10.8156 -3.17891 -1.70226e-19)
(10.5547 -3.14429 0)
(10.2921 -3.10843 3.07968e-22)
(10.0274 -3.07128 -5.72441e-19)
(9.76027 -3.03279 6.0146e-19)
(9.49033 -2.99285 2.13061e-19)
(9.21715 -2.95136 -2.25747e-19)
(8.94013 -2.9082 4.78116e-19)
(8.65859 -2.8632 -3.83197e-19)
(8.37173 -2.81616 0)
(8.0786 -2.76678 0)
(7.77791 -2.71473 8.03434e-22)
(7.46823 -2.65953 4.44999e-20)
(7.14768 -2.60054 -4.91616e-20)
(6.81409 -2.53688 -4.38427e-19)
(6.46492 -2.46723 9.86549e-19)
(6.09774 -2.38959 -8.39964e-19)
(5.71257 -2.30091 -1.6191e-18)
(5.31941 -2.19616 1.14085e-18)
(4.96686 -2.07131 -4.11021e-18)
(4.8519 -1.94319 9.5761e-18)
(5.68511 -1.97961 3.72722e-19)
(9.54807 -2.66005 -4.51485e-18)
(15.811 -3.63367 -5.28732e-19)
(15.5776 -3.61339 -2.79139e-19)
(15.3461 -3.59645 -2.83496e-19)
(15.1147 -3.58042 -5.65015e-19)
(14.8826 -3.56414 1.41425e-19)
(14.6496 -3.5472 -1.58777e-19)
(14.4157 -3.52944 1.76199e-20)
(14.1808 -3.51082 4.22357e-19)
(13.945 -3.49128 -2.80486e-19)
(13.7082 -3.47082 1.40774e-19)
(13.4705 -3.44938 2.8467e-19)
(13.2318 -3.42695 -9.17708e-22)
(12.992 -3.40352 2.89631e-19)
(12.7511 -3.37905 2.92089e-19)
(12.5089 -3.3535 -1.19121e-18)
(12.2654 -3.32684 -4.34517e-22)
(12.0204 -3.29906 0)
(11.7738 -3.27013 -4.75228e-19)
(11.5253 -3.24002 1.46627e-18)
(11.2749 -3.2087 -6.72165e-19)
(11.0222 -3.17611 1.74744e-19)
(10.767 -3.1422 1.81442e-19)
(10.5091 -3.10691 1.8727e-19)
(10.2481 -3.07014 -1.97761e-19)
(9.98365 -3.03184 2.05641e-19)
(9.71525 -2.99189 4.35962e-19)
(9.44248 -2.95018 -6.93507e-19)
(9.16472 -2.90651 9.81821e-19)
(8.88126 -2.86065 2.63832e-19)
(8.59128 -2.81234 -5.6352e-19)
(8.29374 -2.76122 3.05911e-19)
(7.9874 -2.70685 -3.29703e-19)
(7.6708 -2.64867 1.58051e-19)
(7.34218 -2.5859 -7.45782e-20)
(6.99977 -2.51747 1.07991e-19)
(6.64215 -2.44184 -2.45337e-19)
(6.27008 -2.35664 0)
(5.89166 -2.25868 3.17626e-19)
(5.53783 -2.14442 0)
(5.30979 -2.0162 -3.11495e-18)
(5.52129 -1.9183 3.73528e-18)
(6.98828 -2.05673 -5.86176e-19)
(11.135 -2.90288 0)
(15.7567 -3.60978 2.74938e-19)
(15.5378 -3.59226 2.84613e-19)
(15.3209 -3.57577 0)
(15.1042 -3.55963 0)
(14.887 -3.54344 2.915e-19)
(14.6687 -3.52686 1.8145e-20)
(14.4493 -3.50966 -3.4497e-19)
(14.2286 -3.49175 3.62101e-20)
(14.0065 -3.47308 -2.89119e-19)
(13.783 -3.45361 2.91963e-19)
(13.5581 -3.43325 0)
(13.3316 -3.41196 0)
(13.1035 -3.38972 5.96655e-19)
(12.8736 -3.3665 -1.15417e-21)
(12.642 -3.34223 0)
(12.4083 -3.31678 3.10688e-19)
(12.1724 -3.29015 3.19595e-19)
(11.9341 -3.2623 4.90756e-19)
(11.6932 -3.23323 -8.39587e-19)
(11.4495 -3.20286 1.73617e-19)
(11.2028 -3.17113 -1.78338e-19)
(10.9526 -3.13793 -5.57148e-19)
(10.6989 -3.10318 3.87516e-19)
(10.4411 -3.06674 2.01742e-19)
(10.1788 -3.02854 -2.13377e-19)
(9.91145 -2.98851 0)
(9.63867 -2.94654 0)
(9.35983 -2.90241 2.52979e-19)
(9.07427 -2.85587 -5.37104e-19)
(8.78111 -2.80655 2.88601e-19)
(8.47933 -2.75407 -4.65279e-19)
(8.16768 -2.69793 -4.98372e-23)
(7.84473 -2.63747 1.608e-19)
(7.50904 -2.57185 4.3003e-19)
(7.15939 -2.49982 -2.26677e-19)
(6.79603 -2.41968 4.99664e-19)
(6.42362 -2.3289 0)
(6.05957 -2.22458 1.91485e-18)
(5.75604 -2.10556 -2.21598e-18)
(5.65971 -1.98301 8.69929e-19)
(6.14695 -1.92506 0)
(8.02927 -2.1451 1.57066e-18)
(12.2098 -3.05616 -4.35598e-19)
(15.7041 -3.58708 2.84858e-22)
(15.5019 -3.57185 -2.93906e-19)
(15.2997 -3.55634 3.00048e-19)
(15.0971 -3.54065 0)
(14.8936 -3.5249 -2.97234e-19)
(14.6889 -3.50893 0)
(14.4828 -3.49245 2.96142e-19)
(14.2751 -3.47532 3.71649e-19)
(14.0654 -3.45754 -2.22901e-19)
(13.8539 -3.43909 -1.48371e-19)
(13.6406 -3.41983 3.00423e-19)
(13.4252 -3.39963 0)
(13.2075 -3.37849 -6.09593e-19)
(12.9874 -3.35648 -8.5919e-22)
(12.7651 -3.33349 0)
(12.5402 -3.30926 0)
(12.3125 -3.28367 -3.25885e-19)
(12.0817 -3.25677 -3.3499e-19)
(11.8474 -3.22858 3.43293e-19)
(11.6096 -3.19907 -1.77063e-19)
(11.368 -3.16812 -3.67494e-19)
(11.1224 -3.13562 -1.82353e-22)
(10.8724 -3.10144 -1.87232e-22)
(10.6175 -3.06532 -1.99141e-22)
(10.3572 -3.02711 6.53235e-19)
(10.0909 -2.98681 0)
(9.81799 -2.94446 2.43463e-19)
(9.53804 -2.89992 -2.57011e-19)
(9.25047 -2.85287 -2.75641e-19)
(8.95437 -2.80285 0)
(8.64873 -2.74937 0)
(8.3323 -2.69185 -8.56912e-20)
(8.00376 -2.62959 -2.80613e-19)
(7.66196 -2.56166 -4.06384e-19)
(7.30642 -2.48669 -2.89562e-21)
(6.93914 -2.40283 -9.97815e-19)
(6.56883 -2.30761 -5.61565e-19)
(6.22166 -2.19876 -6.33943e-19)
(5.96791 -2.07757 7.3011e-19)
(5.98793 -1.96351 -8.44984e-19)
(6.68779 -1.94158 -1.92623e-18)
(8.84465 -2.22899 2.84908e-18)
(12.9968 -3.16542 -1.18125e-18)
(15.6556 -3.56763 -2.9599e-19)
(15.4692 -3.5535 3.01494e-19)
(15.2811 -3.53867 -4.59038e-19)
(15.0917 -3.52337 1.52712e-19)
(14.9006 -3.50804 -3.05311e-19)
(14.708 -3.49266 3.14013e-19)
(14.5139 -3.47685 2.5659e-19)
(14.3176 -3.46032 3.91605e-20)
(14.119 -3.44315 -3.043e-19)
(13.9179 -3.42554 3.05344e-19)
(13.7146 -3.4073 -1.52473e-19)
(13.5089 -3.38799 -4.63797e-19)
(13.3001 -3.36757 3.12125e-19)
(13.0882 -3.34646 -5.93485e-22)
(12.8736 -3.32472 -3.21984e-19)
(12.6564 -3.30177 -4.91394e-19)
(12.4359 -3.27717 -1.77489e-22)
(12.2114 -3.25094 1.70827e-19)
(11.9826 -3.22336 1.75776e-19)
(11.7497 -3.19452 3.6344e-19)
(11.5123 -3.16422 -1.87377e-19)
(11.2702 -3.13238 -1.9566e-19)
(11.0231 -3.09892 0)
(10.771 -3.0634 -2.12863e-19)
(10.5129 -3.02523 2.23209e-19)
(10.2475 -2.98433 0)
(9.97417 -2.9412 -4.9451e-19)
(9.69278 -2.89609 2.62424e-19)
(9.40301 -2.84863 -1.5128e-21)