/*--------------------------------*- C++ -*----------------------------------*\
| =========                 |                                                 |
| \\      /  F ield         | OpenFOAM: The Open Source CFD Toolbox           |
|  \\    /   O peration     | Version:  2.3.0                                 |
|   \\  /    A nd           | Web:      www.OpenFOAM.org                      |
|    \\/     M anipulation  |                                                 |
\*---------------------------------------------------------------------------*/
FoamFile
{
    version     2.0;
    format      ascii;
    class       volScalarField;
    location    "400";
    object      p;
}
// * * * * * * * * * * * * * * * * * * * * * * * * * * * * * * * * * * * * * //

dimensions      [0 2 -2 0 0 0 0];

internalField   nonuniform List<scalar> 
7826
(
-0.000120361
-0.780754
-1.30428
-1.51098
-1.42055
-1.09171
-0.586856
0.0500533
0.812009
1.72412
2.82198
4.10381
5.49347
7.21502
10.5878
2.21337
1.76228
1.36086
1.07102
0.961647
1.10295
1.55175
2.33729
3.46078
4.89398
6.59113
8.49434
10.5426
12.6953
14.9247
4.52638
4.70652
5.04567
5.54382
6.17977
6.92135
7.73643
8.59833
9.48678
10.3864
11.2851
12.1742
13.0431
13.8871
14.7075
6.11414
6.39285
6.75867
7.2078
7.73786
8.34095
9.00607
9.72036
10.4701
11.2425
12.0242
12.8052
13.5747
14.3259
15.0553
7.39968
7.76636
8.19879
8.68333
9.21018
9.76766
10.3454
10.9351
11.5292
12.1231
12.7119
13.2925
13.8615
14.4171
14.9587
8.34941
8.71354
9.12113
9.55772
10.0193
10.4999
10.9943
11.4978
12.0062
12.5161
13.0247
13.5292
14.0273
14.5168
14.997
9.09164
9.43711
9.81811
10.2155
10.6279
11.0516
11.4834
11.9207
12.3611
12.8027
13.2436
13.6825
14.1175
14.5474
14.971
9.67363
9.9845
10.3312
10.6877
11.0551
11.4315
11.815
12.2041
12.5971
12.9927
13.3896
13.7866
14.1819
14.5745
14.963
10.1401
10.4136
10.7264
11.0475
11.3781
11.717
12.0628
12.4146
12.7713
13.1317
13.4948
13.8595
14.2242
14.5879
14.9491
10.508
10.752
11.0334
11.3245
11.6254
11.934
12.2506
12.5735
12.9022
13.2359
13.5732
13.9128
14.2542
14.5958
14.9364
10.7789
11.014
11.2731
11.5403
11.8186
12.1027
12.3967
12.6965
13.0031
13.3156
13.6334
13.9531
14.2763
14.6008
14.9251
10.9774
11.2171
11.4615
11.7088
11.9704
12.2337
12.5103
12.7911
13.0807
13.3756
13.6795
13.986
14.2986
14.6116
14.923
11.2026
11.4081
11.6249
11.8546
12.1014
12.3462
12.6088
12.8748
13.1541
13.4362
13.7213
14.0056
14.2971
14.5964
14.8987
11.4333
11.5931
11.8118
11.9925
12.2562
12.4451
12.7272
12.9641
13.2275
13.4968
13.7969
13.9912
14.2347
14.5075
14.7998
17.4105
20.3513
21.9069
23.4712
25.0462
26.5217
27.8686
29.0814
30.128
30.9466
31.463
31.6133
31.3691
30.7685
29.9606
17.1451
19.3325
21.3823
23.2762
24.979
26.4478
27.6425
28.5327
29.107
29.3766
29.3743
29.1523
28.7705
28.2904
27.7783
15.5187
16.3453
17.1976
18.0792
18.9828
19.8998
20.8201
21.7287
22.6057
23.4248
24.1528
24.7529
25.193
25.4632
25.5954
15.772
16.4933
17.2281
17.9731
18.7207
19.4603
20.1824
20.8744
21.5248
22.1217
22.6537
23.1106
23.4855
23.7804
23.9998
15.4935
16.0344
16.5872
17.1513
17.7242
18.3025
18.8825
19.4591
20.0262
20.5761
21.0986
21.5821
22.0145
22.3896
22.6899
15.4713
15.9485
16.4318
16.9203
17.4119
17.904
18.3937
18.8779
19.3532
19.8154
20.2596
20.6802
21.0708
21.4298
21.7603
15.3909
15.8126
16.2383
16.667
17.0969
17.5265
17.9537
18.3768
18.7939
19.2018
19.5981
19.9788
20.3399
20.678
20.983
15.3488
15.7352
16.1235
16.5127
16.9008
17.2867
17.6688
18.0457
18.4162
18.7783
19.1305
19.4707
19.7959
20.1029
20.3965
15.3084
15.6677
16.0276
16.3867
16.7435
17.0966
17.4452
17.7878
18.1233
18.4508
18.7689
19.0763
19.37
19.6461
19.9247
15.2758
15.6145
15.9531
16.2897
16.6228
16.951
17.2737
17.5896
17.8979
18.1978
18.4886
18.7694
19.0387
19.2942
19.565
15.2496
15.572
15.8947
16.2136
16.5273
16.8351
17.1372
17.4318
17.7185
17.9962
18.2651
18.5236
18.7718
19.007
19.2553
15.236
15.5441
15.8535
16.156
16.4526
16.7424
17.0284
17.3053
17.5746
17.834
18.0859
18.3253
18.5557
18.7735
18.9957
15.1999
15.4963
15.7902
16.0905
16.382
16.6571
16.9298
17.1941
17.451
17.6942
17.9308
18.1512
18.3654
18.566
18.7726
15.1357
15.3839
15.7108
16.026
16.3188
16.5741
16.8318
17.0885
17.3376
17.5658
17.7845
17.9871
18.1826
18.3562
18.52
11.7561
11.8639
12.0137
12.2128
12.4459
12.6885
12.9138
13.1001
13.2356
13.3176
13.3505
13.339
13.2866
13.1877
13.2131
11.8729
11.9075
11.923
11.9162
11.8843
11.8318
11.7681
11.7038
11.648
11.6054
11.5769
11.5586
11.5502
11.5349
11.5514
11.9031
11.8893
11.8446
11.7874
11.7303
11.6833
11.6519
11.6366
11.6348
11.6416
11.652
11.6597
11.6662
11.6752
11.6973
12.0034
12.0178
12.0262
12.0403
12.0619
12.089
12.119
12.1493
12.1778
12.2029
12.2231
12.2361
12.2433
12.2548
12.2765
12.1272
12.1621
12.1919
12.223
12.2541
12.2837
12.3116
12.338
12.3627
12.3854
12.4049
12.4194
12.4293
12.4437
12.4678
12.2066
12.2447
12.2673
12.2885
12.3092
12.3296
12.3504
12.3717
12.393
12.4133
12.4312
12.445
12.455
12.4699
12.4951
12.2761
12.304
12.3225
12.3415
12.3605
12.3794
12.3983
12.4172
12.4354
12.4525
12.467
12.4782
12.4866
12.5004
12.5262
12.3424
12.3654
12.384
12.4027
12.4208
12.4377
12.4534
12.4678
12.481
12.4925
12.5019
12.5086
12.5139
12.526
12.5519
12.3824
12.4166
12.4374
12.4559
12.472
12.4855
12.4966
12.5053
12.5114
12.515
12.5157
12.5141
12.5125
12.5207
12.5464
12.4496
12.4676
12.4863
12.5033
12.5177
12.5292
12.5374
12.5415
12.5413
12.5364
12.526
12.5103
12.4948
12.4907
12.5113
12.4983
12.5166
12.5325
12.5473
12.5604
12.5706
12.5761
12.5753
12.5675
12.5521
12.525
12.4853
12.4397
12.4189
12.4358
12.5422
12.5628
12.579
12.5948
12.611
12.626
12.6376
12.6418
12.6365
12.6253
12.602
12.5343
12.4414
12.3486
12.3298
12.5841
12.5954
12.6059
12.6176
12.6307
12.6425
12.6496
12.6423
12.6186
12.5944
12.5636
12.4576
12.2079
12.1205
12.0845
12.661
12.68
12.689
12.7038
12.7374
12.7828
12.842
12.8941
12.8912
12.9257
13.122
13.0332
12.6774
12.1193
11.8082
13.2709
13.3147
13.4802
13.597
13.6792
13.721
13.7156
13.6585
13.5561
13.4287
13.3077
13.2254
13.2088
13.2653
13.3789
11.5807
11.6058
11.6645
11.7157
11.7887
11.8863
12.0139
12.1701
12.3482
12.5363
12.7194
12.8846
13.031
13.1672
13.3009
11.7285
11.763
11.8078
11.8512
11.9
11.9557
12.0262
12.1173
12.2338
12.3769
12.5424
12.7201
12.8987
13.0696
13.2281
12.3053
12.3401
12.3823
12.4253
12.467
12.5085
12.553
12.602
12.6574
12.7211
12.7956
12.8831
12.985
13.1003
13.2261
12.4954
12.5273
12.5659
12.6059
12.6446
12.6843
12.7274
12.7746
12.8263
12.8824
12.9431
13.0092
13.0825
13.165
13.2589
12.5226
12.5543
12.5937
12.635
12.6753
12.7167
12.7613
12.8099
12.8632
12.9214
12.9847
13.0527
13.1251
13.2018
13.284
12.554
12.5869
12.6297
12.6751
12.72
12.7659
12.8138
12.8641
12.9172
12.9732
13.0327
13.0958
13.1625
13.2326
13.3074
12.5801
12.615
12.6621
12.7133
12.7653
12.8183
12.8724
12.9272
12.9825
13.0381
13.0944
13.1517
13.2103
13.2705
13.3337
12.5759
12.615
12.6699
12.7311
12.7943
12.8582
12.9216
12.9832
13.0424
13.0992
13.1541
13.2075
13.26
13.312
13.3665
12.5405
12.5855
12.653
12.731
12.8129
12.894
12.9708
13.0408
13.1037
13.1605
13.2127
13.2618
13.3086
13.3537
13.4001
12.4738
12.5382
12.6309
12.7369
12.8453
12.9484
13.0379
13.1133
13.1753
13.228
13.2745
13.317
13.3567
13.394
13.4305
12.3692
12.4468
12.5664
12.7118
12.8674
13.0087
13.1224
13.2002
13.256
13.299
13.3367
13.3714
13.4032
13.4324
13.4586
12.2253
12.3948
12.5896
12.8045
13.0005
13.1785
13.2623
13.3179
13.3457
13.3715
13.3985
13.4257
13.4483
13.4705
13.4914
12.0638
12.138
12.3121
12.5834
12.9248
13.2056
13.3834
13.4197
13.4237
13.4256
13.4432
13.4685
13.4879
13.5047
13.5181
-91.5504
-85.9051
-79.789
-73.5902
-66.8326
-59.3662
-51.3809
-43.1538
-35.0092
-27.3034
-20.3768
-14.4828
-9.72314
-6.01642
-3.08303
-14.7424
-15.9247
-16.7182
-17.323
-17.8316
-18.2105
-18.3612
-18.1639
-17.5004
-16.2835
-14.4937
-12.2101
-9.61218
-6.93412
-4.27295
-8.81191
-9.3579
-9.41574
-9.50119
-9.65907
-9.80059
-9.87585
-9.85718
-9.71469
-9.40868
-8.8884
-8.0985
-7.00089
-5.61336
-3.96539
-12.8295
-12.8361
-12.4665
-12.2179
-11.9621
-11.6253
-11.1904
-10.6461
-9.97799
-9.17872
-8.25249
-7.21024
-6.05991
-4.80559
-3.42992
-9.78093
-9.49766
-9.27028
-9.1822
-9.06204
-8.89523
-8.67922
-8.39853
-8.02841
-7.54229
-6.91681
-6.13819
-5.2076
-4.14419
-3.03392
-5.65069
-5.37057
-5.37495
-5.4009
-5.40105
-5.39059
-5.36573
-5.31107
-5.20819
-5.03536
-4.76617
-4.37173
-3.826
-3.10766
-2.26525
-3.55292
-3.48766
-3.5392
-3.54335
-3.54218
-3.54105
-3.53209
-3.50341
-3.44322
-3.33741
-3.16856
-2.91609
-2.557
-2.06161
-1.44116
-2.45076
-2.45672
-2.47085
-2.45492
-2.44351
-2.43016
-2.40911
-2.37309
-2.31353
-2.21932
-2.07704
-1.87125
-1.5853
-1.19625
-0.705677
-1.45122
-1.46095
-1.45516
-1.44045
-1.42859
-1.41405
-1.39363
-1.36315
-1.31612
-1.24372
-1.13476
-0.975811
-0.751947
-0.443461
-0.0471998
-0.556948
-0.55851
-0.54825
-0.536333
-0.52471
-0.510871
-0.492126
-0.466069
-0.427919
-0.370988
-0.286548
-0.163592
0.0110948
0.255908
0.585367
0.202541
0.205322
0.215084
0.225886
0.237318
0.250666
0.268394
0.292255
0.326001
0.374886
0.445825
0.547671
0.691414
0.892684
1.17199
0.868849
0.872653
0.881423
0.891765
0.902956
0.915546
0.931359
0.952438
0.98182
1.02378
1.08404
1.16996
1.29069
1.4585
1.69367
1.46733
1.47108
1.47927
1.48933
1.50027
1.5119
1.52555
1.54379
1.56892
1.60444
1.65513
1.72718
1.82841
1.96895
2.1672
2.00683
2.01036
2.01812
2.02775
2.03806
2.04854
2.06043
2.07643
2.09816
2.1285
2.17145
2.23211
2.31692
2.43396
2.60071
2.49509
2.49839
2.50568
2.51468
2.52418
2.53376
2.54455
2.55886
2.57804
2.6046
2.64203
2.6948
2.76872
2.87113
3.02579
2.93986
2.9429
2.94968
2.95804
2.96687
2.97609
2.9863
2.99918
3.01631
3.03994
3.07314
3.12
3.18592
3.27701
3.41621
3.3466
3.34943
3.35577
3.36365
3.37205
3.38118
3.39093
3.40246
3.4178
3.4388
3.46814
3.50941
3.56742
3.64686
3.76715
3.72051
3.72318
3.72918
3.73667
3.74473
3.75361
3.76273
3.77307
3.78685
3.80552
3.8314
3.86759
3.91832
3.98746
4.09113
4.06653
4.06905
4.07473
4.08185
4.08952
4.09792
4.10634
4.11573
4.12824
4.14497
4.168
4.20005
4.24484
4.30559
4.39775
4.38843
4.39081
4.39617
4.40289
4.41011
4.41794
4.42585
4.43463
4.44606
4.46121
4.48197
4.51081
4.55125
4.60649
4.68863
4.68857
4.6908
4.69584
4.70217
4.70896
4.71634
4.72402
4.73241
4.74282
4.75651
4.77513
4.80086
4.83666
4.8851
4.9555
4.96943
4.97151
4.97627
4.98226
4.9887
4.99576
5.00336
5.0114
5.02085
5.03326
5.05002
5.07304
5.10507
5.14919
5.20819
5.23345
5.23542
5.23995
5.24566
5.25187
5.25871
5.26621
5.27389
5.28257
5.29402
5.30938
5.33036
5.35935
5.39997
5.46284
5.48271
5.4846
5.48894
5.49444
5.50044
5.50709
5.51435
5.52164
5.52973
5.54042
5.55463
5.57397
5.60051
5.63694
5.69348
5.71879
5.72059
5.72475
5.73003
5.73581
5.7422
5.74913
5.75604
5.76368
5.7737
5.78689
5.80477
5.82925
5.86212
5.91254
5.94273
5.94445
5.94842
5.95347
5.95901
5.96511
5.97169
5.97835
5.98572
5.99518
6.00758
6.02439
6.04759
6.07893
6.1272
6.1551
6.15674
6.16054
6.16538
6.17068
6.17654
6.18287
6.18947
6.1967
6.20565
6.21736
6.23324
6.25525
6.285
6.32965
6.35688
6.35843
6.36205
6.36667
6.37175
6.37736
6.38347
6.39003
6.39704
6.40533
6.41615
6.43066
6.45064
6.47729
6.51052
6.54898
6.55045
6.55392
6.55834
6.56321
6.56862
6.57455
6.58102
6.58771
6.59533
6.60529
6.61852
6.63656
6.661
6.69085
6.73243
6.73385
6.7372
6.74147
6.74618
6.75145
6.75725
6.76358
6.76999
6.77713
6.78653
6.79894
6.81582
6.83933
6.86662
6.90793
6.90932
6.91257
6.91673
6.92135
6.92653
6.93221
6.93839
6.94455
6.95135
6.96029
6.97202
6.98778
7.00968
7.03499
7.07714
7.07843
7.08152
7.0855
7.08992
7.0949
7.10034
7.10622
7.11207
7.11852
7.12695
7.13796
7.15269
7.17297
7.19115
7.23887
7.24015
7.24318
7.24706
7.25138
7.25622
7.26152
7.26717
7.27282
7.27904
7.28697
7.2972
7.3108
7.33025
7.34347
7.39458
7.39583
7.39875
7.40251
7.40671
7.41142
7.41655
7.42204
7.42768
7.43385
7.44151
7.45143
7.46457
7.48466
7.50482
7.54535
7.54649
7.54926
7.55283
7.55682
7.5613
7.5662
7.57149
7.57709
7.58314
7.5904
7.59986
7.61218
7.63049
7.64552
7.68934
7.69048
7.69322
7.69674
7.70066
7.70508
7.70993
7.71517
7.72082
7.72676
7.73365
7.74262
7.7542
7.77152
7.78938
7.82869
7.8298
7.83245
7.83585
7.83965
7.84396
7.84871
7.85387
7.85951
7.86533
7.8719
7.88054
7.89166
7.90797
7.92578
7.96396
7.965
7.96753
7.97079
7.97445
7.9786
7.9832
7.98822
7.99371
7.99928
8.00549
8.01372
8.02431
8.03937
8.05593
8.09429
8.0953
8.09778
8.10097
8.10455
8.10863
8.11315
8.11806
8.12335
8.12861
8.13436
8.14191
8.15146
8.16452
8.17153
8.22068
8.22168
8.22411
8.22721
8.23072
8.2347
8.23912
8.24389
8.24898
8.25396
8.25933
8.26625
8.2748
8.28723
8.29162
8.34386
8.34483
8.34718
8.35022
8.35365
8.35755
8.36188
8.36655
8.37152
8.37643
8.38179
8.3887
8.39735
8.41113
8.41913
8.46388
8.46482
8.46712
8.47008
8.47343
8.47725
8.4815
8.48608
8.49095
8.49586
8.50125
8.50811
8.51653
8.53005
8.53937
8.5806
8.58152
8.58375
8.58663
8.5899
8.59363
8.59778
8.60226
8.60702
8.61195
8.61733
8.62404
8.63223
8.6451
8.65865
8.69384
8.69475
8.69693
8.69975
8.70295
8.70661
8.71067
8.71506
8.71975
8.72469
8.73002
8.73648
8.74445
8.75654
8.77093
8.80446
8.80531
8.80741
8.81012
8.81321
8.81674
8.82066
8.82494
8.82953
8.83447
8.83973
8.84598
8.85384
8.8653
8.88604
8.91176
8.91261
8.91467
8.91733
8.92035
8.9238
8.92764
8.9318
8.93625
8.94106
8.94596
8.95146
8.95814
8.96607
8.97563
9.01651
9.01734
9.01936
9.02197
9.02492
9.0283
9.03207
9.03616
9.04054
9.04527
9.04997
9.05511
9.06155
9.06955
9.08525
9.11975
9.12052
9.12246
9.12496
9.12781
9.13108
9.13475
9.13878
9.14313
9.14786
9.15261
9.15791
9.1649
9.17354
9.19092
9.22001
9.22079
9.22272
9.22521
9.22805
9.23132
9.235
9.23905
9.24341
9.24814
9.25286
9.25813
9.26516
9.27341
9.29002
9.31806
9.31884
9.32073
9.32318
9.32598
9.3292
9.33283
9.33681
9.34109
9.34566
9.35014
9.35499
9.36137
9.36846
9.38265
9.41459
9.41532
9.41713
9.41949
9.42219
9.4253
9.42881
9.43267
9.43681
9.44119
9.44549
9.45016
9.45635
9.46314
9.47973
9.50883
9.50954
9.51133
9.51365
9.5163
9.51936
9.52282
9.5266
9.53064
9.53487
9.53903
9.54348
9.54922
9.55476
9.56411
9.60092
9.60166
9.60344
9.60574
9.60838
9.61143
9.61488
9.61865
9.62267
9.62689
9.63113
9.63571
9.64167
9.64826
9.66294
9.69178
9.69248
9.6942
9.69645
9.69903
9.70202
9.70539
9.70912
9.71312
9.71736
9.72178
9.72665
9.73303
9.74047
9.75362
9.78074
9.78141
9.7831
9.7853
9.78782
9.79074
9.79404
9.79768
9.80158
9.80572
9.81008
9.81474
9.82053
9.82707
9.8371
9.86767
9.86834
9.87
9.87214
9.87461
9.87746
9.8807
9.88425
9.88805
9.89207
9.89637
9.90083
9.90615
9.9124
9.92331
9.95277
9.95344
9.95508
9.9572
9.95965
9.96248
9.96567
9.96919
9.97297
9.97699
9.98133
9.98581
9.99103
9.99724
10.0091
10.0371
10.0377
10.0393
10.0413
10.0436
10.0464
10.0495
10.0529
10.0566
10.0606
10.0649
10.0694
10.0745
10.0804
10.0917
10.119
10.1197
10.1212
10.1233
10.1256
10.1283
10.1314
10.1349
10.1386
10.1426
10.1469
10.1513
10.1563
10.1617
10.1714
10.1999
10.2005
10.202
10.204
10.2063
10.209
10.212
10.2154
10.2192
10.2232
10.2276
10.2321
10.2372
10.2432
10.2554
10.2791
10.2797
10.2812
10.2832
10.2854
10.2881
10.2911
10.2945
10.2983
10.3024
10.3069
10.3116
10.3173
10.3242
10.3376
10.3567
10.3573
10.3587
10.3606
10.3628
10.3654
10.3684
10.3718
10.3755
10.3796
10.3841
10.3887
10.3941
10.4004
10.4099
10.4313
10.432
10.4335
10.4354
10.4377
10.4403
10.4434
10.4468
10.4506
10.4547
10.459
10.4634
10.4682
10.4736
10.482
10.5058
10.5064
10.5078
10.5096
10.5118
10.5144
10.5173
10.5207
10.5245
10.5286
10.5332
10.5379
10.5435
10.5503
10.565
10.5779
10.5784
10.5798
10.5817
10.5838
10.5864
10.5894
10.5928
10.5967
10.601
10.6058
10.611
10.6173
10.6245
10.637
10.6474
10.6479
10.6493
10.6512
10.6533
10.6559
10.6589
10.6625
10.6665
10.671
10.6762
10.6818
10.6885
10.696
10.7093
10.7134
10.714
10.7154
10.7172
10.7194
10.722
10.7252
10.7289
10.7333
10.7383
10.744
10.7506
10.7585
10.7674
10.784
10.7767
10.7772
10.7785
10.7803
10.7825
10.7852
10.7885
10.7925
10.7972
10.803
10.8099
10.8183
10.829
10.8412
10.8675
10.8321
10.8327
10.834
10.8358
10.8381
10.8411
10.8448
10.8494
10.8551
10.8623
10.8711
10.8821
10.8959
10.9107
10.933
10.8834
10.8839
10.8853
10.8872
10.8897
10.8928
10.897
10.9023
10.9091
10.9178
10.929
10.943
10.9607
10.9803
11.0073
10.909
10.9095
10.9107
10.9128
10.9157
10.9198
10.9256
10.9335
10.9439
10.9576
10.975
10.9966
11.0225
11.0508
11.0823
10.9545
10.9551
10.9567
10.9591
10.9623
10.9668
10.9732
10.9821
10.9945
11.0114
11.0335
11.0613
11.0943
11.1304
11.166
10.831
10.831
10.8327
10.8367
10.8446
10.8575
10.8767
10.9037
10.9394
10.9842
11.037
11.0952
11.1549
11.2113
11.2577
11.0409
11.0428
11.0427
11.0481
11.0566
11.0684
11.0842
11.1052
11.1328
11.1678
11.2098
11.2571
11.3056
11.3512
11.3859
9.77104
9.69339
9.75191
9.83154
9.92849
10.0512
10.2055
10.3904
10.5988
10.8178
11.0299
11.2165
11.3622
11.4617
11.5123
114.006
108.798
103.054
97.3047
91.1397
84.3858
77.1862
69.7653
62.3886
55.3609
48.9881
43.5084
39.0268
35.5038
32.8771
44.3671
43.8899
44.6051
45.2874
45.7731
46.0906
46.2111
46.0429
45.4801
44.4349
42.873
40.8433
38.4866
36.0111
33.7357
37.4232
37.347
37.773
37.9585
38.0973
38.2193
38.2959
38.2909
38.176
37.919
37.4749
36.7884
35.8116
34.536
33.1237
39.4792
39.482
39.5745
39.4362
39.2692
39.0564
38.7715
38.3915
37.9012
37.2902
36.5561
35.7019
34.7277
33.6226
32.4532
36.2849
36.5426
36.6008
36.55
36.5037
36.4341
36.3256
36.1626
35.925
35.5868
35.122
34.511
33.7458
32.8261
31.8079
33.5979
33.9004
33.8795
33.8644
33.8608
33.8425
33.8036
33.7382
33.6348
33.4759
33.2383
32.8947
32.4177
31.7827
31.0072
32.4258
32.5283
32.4704
32.4626
32.4484
32.4151
32.3628
32.2889
32.1859
32.0439
31.8498
31.5865
31.233
30.7629
30.1605
31.2587
31.2702
31.2481
31.2544
31.2441
31.2195
31.1803
31.1226
31.0401
30.9243
30.7646
30.5479
30.2589
29.8792
29.3815
30.06
30.0591
30.063
30.0715
30.0678
30.0573
30.0368
30.0025
29.9497
29.8717
29.7591
29.6001
29.3811
29.0904
28.7157
29.0505
29.053
29.0623
29.0678
29.0671
29.0627
29.0505
29.0276
28.9908
28.9349
28.8527
28.7348
28.5692
28.3449
28.053
28.2085
28.2128
28.2211
28.2252
28.226
28.2239
28.2154
28.1983
28.1698
28.1258
28.0605
27.9662
27.8326
27.6486
27.41
27.4662
27.4706
27.4779
27.4828
27.4849
27.4844
27.4786
27.4659
27.4439
27.409
27.3566
27.2798
27.1697
27.0156
26.8175
26.7979
26.8024
26.81
26.8167
26.8203
26.8207
26.8171
26.808
26.7912
26.764
26.7222
26.6606
26.5717
26.4462
26.2882
26.1977
26.2025
26.2104
26.2183
26.2225
26.2235
26.2216
26.215
26.202
26.1803
26.1465
26.0961
26.0228
25.9175
25.7809
25.6573
25.662
25.6698
25.6775
25.6816
25.6829
25.682
25.6771
25.6667
25.6488
25.6206
25.5779
25.5152
25.4241
25.3029
25.1658
25.1701
25.1772
25.1842
25.1879
25.1894
25.1893
25.1856
25.1773
25.1625
25.1389
25.103
25.0503
24.9744
24.8778
24.7133
24.717
24.7235
24.73
24.7337
24.7357
24.7361
24.7335
24.7268
24.7147
24.6949
24.6647
24.62
24.5552
24.4745
24.2922
24.2956
24.3017
24.3081
24.3126
24.3154
24.3162
24.3144
24.309
24.2988
24.2819
24.2556
24.2165
24.1583
24.0845
23.8992
23.9025
23.9086
23.9152
23.9206
23.9239
23.925
23.9239
23.9197
23.9112
23.8967
23.8739
23.8397
23.7886
23.7245
23.5334
23.5366
23.5427
23.5495
23.5552
23.5586
23.5599
23.5595
23.5563
23.5493
23.537
23.5174
23.4879
23.4434
23.3887
23.1923
23.1955
23.2014
23.208
23.2135
23.2168
23.2182
23.2184
23.216
23.2102
23.1998
23.183
23.1574
23.1189
23.0724
22.8724
22.8754
22.881
22.8872
22.8922
22.8953
22.8969
22.8974
22.8956
22.8908
22.8818
22.8671
22.8447
22.8104
22.769
22.5702
22.5729
22.5781
22.5838
22.5885
22.5916
22.5935
22.5942
22.5928
22.5887
22.5808
22.5677
22.5476
22.5165
22.478
22.2826
22.2851
22.2899
22.2954
22.3
22.3036
22.3058
22.3067
22.3057
22.3021
22.2952
22.2836
22.2655
22.2377
22.2036
22.0083
22.0107
22.0154
22.0207
22.0255
22.0296
22.0323
22.0333
22.0327
22.0299
22.0239
22.0138
21.9979
21.9732
21.9484
21.7469
21.7492
21.7538
21.7591
21.7641
21.7686
21.7715
21.7727
21.7725
21.7703
21.7654
21.7566
21.7428
21.721
21.7004
21.4974
21.4997
21.5042
21.5096
21.5146
21.5192
21.5221
21.5234
21.5237
21.522
21.5178
21.5101
21.4977
21.4774
21.4591
21.2595
21.2617
21.2661
21.2713
21.2762
21.2806
21.2833
21.2848
21.2853
21.284
21.2804
21.2736
21.2627
21.2444
21.2293
21.0321
21.0341
21.0383
21.0432
21.0478
21.0519
21.0545
21.0559
21.0566
21.0556
21.0525
21.0466
21.037
21.0205
21.0074
20.8121
20.814
20.818
20.8227
20.8271
20.831
20.8336
20.8353
20.8361
20.8354
20.8327
20.8274
20.8187
20.8035
20.7898
20.5991
20.601
20.6048
20.6093
20.6135
20.6173
20.6203
20.6222
20.6232
20.6226
20.6202
20.6153
20.607
20.5919
20.5752
20.3935
20.3952
20.3988
20.4031
20.4072
20.4111
20.4144
20.4166
20.4175
20.4172
20.4151
20.4107
20.4034
20.3902
20.3706
20.1947
20.1963
20.1998
20.2039
20.208
20.2119
20.2155
20.2178
20.2188
20.2187
20.2171
20.2134
20.2073
20.1966
20.1786
20.0007
20.0024
20.0058
20.01
20.0141
20.0182
20.022
20.0245
20.0256
20.0258
20.0245
20.0213
20.0157
20.0063
19.982
19.8128
19.8144
19.8178
19.8219
19.826
19.8302
19.834
19.8364
19.8376
19.8379
19.8368
19.8336
19.8279
19.8194
19.7933
19.6318
19.6333
19.6365
19.6404
19.6444
19.6484
19.6519
19.6542
19.6553
19.6558
19.6548
19.6521
19.647
19.6403
19.6225
19.4544
19.4559
19.4591
19.463
19.4669
19.4709
19.4743
19.4766
19.4779
19.4786
19.478
19.4757
19.471
19.4645
19.4454
19.2815
19.283
19.2861
19.2898
19.2937
19.2975
19.3009
19.3033
19.3048
19.3057
19.3054
19.3037
19.2997
19.294
19.2775
19.1138
19.1151
19.1179
19.1215
19.1251
19.1287
19.1319
19.1343
19.136
19.137
19.1369
19.1355
19.1324
19.1282
19.108
18.9479
18.9492
18.952
18.9555
18.959
18.9626
18.9658
18.9686
18.9704
18.9715
18.9717
18.9707
18.9681
18.9657
18.9514
18.7848
18.7861
18.7888
18.7921
18.7956
18.7991
18.8025
18.8055
18.8075
18.8086
18.8089
18.808
18.8054
18.8026
18.786
18.6254
18.6265
18.6291
18.6323
18.6356
18.639
18.6423
18.6454
18.6474
18.6484
18.6486
18.6477
18.6447
18.6413
18.6264
18.4675
18.4686
18.4711
18.4743
18.4776
18.4811
18.4846
18.4878
18.4899
18.491
18.4914
18.4908
18.4884
18.4857
18.4723
18.3119
18.313
18.3156
18.3187
18.3221
18.3257
18.3292
18.3326
18.3349
18.3362
18.3371
18.3371
18.3359
18.335
18.3265
18.1594
18.1605
18.163
18.166
18.1693
18.1728
18.1764
18.1797
18.1819
18.1834
18.1844
18.1846
18.1837
18.1829
18.171
18.009
18.01
18.0123
18.0153
18.0185
18.0219
18.0253
18.0284
18.0306
18.0319
18.0328
18.0329
18.0316
18.0306
18.0183
17.8591
17.8602
17.8625
17.8655
17.8687
17.8721
17.8754
17.8785
17.8806
17.882
17.883
17.8831
17.8818
17.881
17.8709
17.7114
17.7124
17.7147
17.7176
17.7207
17.724
17.7273
17.7303
17.7325
17.7341
17.7353
17.7356
17.7347
17.7341
17.7293
17.5661
17.567
17.5692
17.5719
17.5748
17.578
17.5811
17.584
17.5863
17.588
17.5892
17.5899
17.5894
17.5891
17.5869
17.4204
17.4214
17.4235
17.4262
17.4291
17.4322
17.4354
17.4383
17.4409
17.4429
17.4444
17.4455
17.4459
17.446
17.4518
17.2752
17.2762
17.2782
17.2809
17.2837
17.2868
17.29
17.2931
17.2959
17.2982
17.2999
17.3013
17.3023
17.3021
17.3008
17.1313
17.1321
17.1341
17.1365
17.1393
17.1422
17.1453
17.1483
17.1513
17.1536
17.1552
17.1567
17.1578
17.1582
17.1549
16.9865
16.9873
16.9892
16.9917
16.9943
16.9973
17.0004
17.0035
17.0066
17.009
17.0108
17.0124
17.0137
17.0153
17.016
16.8412
16.8421
16.844
16.8464
16.8491
16.8521
16.8552
16.8585
16.8617
16.8643
16.8662
16.8681
16.8696
16.8711
16.8694
16.6967
16.6974
16.6992
16.7016
16.7041
16.707
16.7102
16.7134
16.7166
16.7192
16.7212
16.7231
16.7247
16.7261
16.7201
16.5506
16.5514
16.5532
16.5555
16.5581
16.561
16.5643
16.5676
16.571
16.5738
16.5762
16.5789
16.5819
16.5862
16.5885
16.4033
16.4041
16.4059
16.4082
16.4108
16.4138
16.4171
16.4206
16.4242
16.4272
16.43
16.4333
16.4369
16.4421
16.435
16.2549
16.2556
16.2573
16.2596
16.2622
16.2652
16.2685
16.272
16.2756
16.2787
16.2818
16.2853
16.2891
16.2956
16.2947
16.1051
16.1057
16.1074
16.1095
16.112
16.1149
16.1181
16.1215
16.1251
16.1284
16.1318
16.1358
16.1403
16.148
16.1479
15.9516
15.9523
15.9539
15.956
15.9585
15.9614
15.9647
15.9682
15.9719
15.9755
15.9793
15.9839
15.9891
15.9977
15.998
15.7952
15.7959
15.7974
15.7995
15.8019
15.8048
15.808
15.8116
15.8154
15.8194
15.8237
15.8291
15.8353
15.8458
15.8486
15.6344
15.635
15.6366
15.6386
15.641
15.6439
15.6472
15.6509
15.6549
15.6594
15.6643
15.6704
15.6778
15.6899
15.6955
15.4693
15.4699
15.4713
15.4733
15.4756
15.4784
15.4817
15.4855
15.4898
15.4947
15.5003
15.5074
15.5163
15.5309
15.54
15.2975
15.2981
15.2996
15.3015
15.3038
15.3067
15.31
15.314
15.3186
15.324
15.3303
15.3379
15.3473
15.3628
15.3673
15.1198
15.1203
15.1216
15.1234
15.1256
15.1284
15.1318
15.1359
15.1408
15.1469
15.1539
15.1625
15.1729
15.1896
15.21
14.933
14.9335
14.9348
14.9366
14.9389
14.9418
14.9455
14.9501
14.9558
14.9629
14.9716
14.9826
14.9967
15.0173
15.0492
14.7356
14.7361
14.7374
14.7393
14.7417
14.7449
14.7489
14.7542
14.7609
14.7697
14.7805
14.7945
14.8131
14.838
14.8774
14.5258
14.5263
14.5275
14.5294
14.5319
14.5353
14.5398
14.5458
14.5538
14.5644
14.5779
14.5955
14.6191
14.6496
14.6982
14.2975
14.2979
14.2991
14.301
14.3036
14.3074
14.3127
14.3199
14.3298
14.3432
14.3606
14.3836
14.4144
14.4533
14.5134
14.0484
14.0489
14.0501
14.0522
14.0552
14.0596
14.066
14.075
14.0876
14.1049
14.1279
14.1584
14.1993
14.2508
14.3293
13.7548
13.7552
13.7564
13.7587
13.7626
13.7686
13.7777
13.7909
13.8094
13.8349
13.8687
13.9127
13.9695
14.038
14.1418
13.4513
13.4516
13.453
13.4557
13.4602
13.4674
13.4786
13.4953
13.5195
13.5534
13.5989
13.658
13.7329
13.8187
13.9363
12.9455
12.9459
12.948
12.9533
12.9641
12.9821
13.0097
13.0496
13.104
13.1748
13.262
13.3642
13.4802
13.6019
13.7477
12.6922
12.6929
12.692
12.6988
12.7118
12.7321
12.7623
12.8058
12.8655
12.9437
13.0411
13.1562
13.2877
13.427
13.5731
10.8926
10.8186
10.8818
10.9691
11.0827
11.2343
11.4316
11.6743
11.9541
12.2541
12.5514
12.823
13.0589
13.2612
13.4368
11.9557
18.1573
13.731
10.8242
4.03955
16.1086
13.9833
18.5782
3.65858
10.7824
9.44632
20.562
7.19466
18.2133
15.3025
13.7201
12.8516
12.603
15.9642
10.9072
14.2331
15.1269
14.9292
25.6653
15.5469
11.2279
12.767
12.7065
20.0452
12.6151
10.1271
14.4266
13.6209
22.7829
13.3899
12.5408
7.58652
19.283
4.68025
13.6236
18.2743
11.5858
17.7842
13.6391
15.342
12.3662
26.1259
11.9788
13.3655
16.008
19.5016
14.7813
14.8224
16.2542
11.9156
13.7989
9.82645
11.9803
21.5217
17.3611
12.3225
21.4405
16.2939
14.0768
15.8965
7.03397
15.1316
19.7709
9.9859
23.1048
12.4165
11.5569
30.3004
15.9994
10.6998
14.6613
10.4609
13.0186
14.9473
25.0149
12.6365
9.26062
12.1236
13.5892
19.2226
9.04077
12.571
9.09687
19.4435
13.534
16.8826
13.4634
14.2568
18.6118
6.57288
13.7237
16.0619
15.7306
15.1248
15.255
7.77333
24.5999
12.5723
9.80778
18.4885
9.47071
13.103
12.8857
13.0842
21.4604
17.5009
13.2907
18.1086
11.9339
15.3673
10.6784
12.6933
18.9352
5.90889
13.679
7.03316
13.8254
8.73031
18.0246
12.1247
12.4312
19.3538
16.8912
4.94768
11.0199
21.9309
12.7621
3.14038
13.519
15.3443
18.4354
4.4011
16.4218
16.4892
15.5866
12.4229
13.346
12.3516
11.469
19.6912
15.5513
11.9527
13.2924
15.9512
18.1066
13.5254
10.9712
13.0153
19.8515
11.3756
16.2394
12.9932
12.449
16.1783
21.8134
12.6226
14.6947
12.7034
4.51455
14.2142
14.3576
13.9442
1.51787
16.5765
12.9482
15.1724
11.8801
14.9736
9.96326
13.5226
12.3345
13.2814
12.5441
21.6239
10.2361
8.53895
19.4623
20.1789
11.0221
11.7932
12.2413
12.9103
22.8529
12.9502
12.4956
20.7443
13.8571
5.74617
19.292
13.6128
20.8198
10.5038
12.2117
10.1001
21.9073
11.4073
14.8779
12.4253
14.3189
19.1617
17.1932
10.6601
23.468
11.5202
14.7189
12.3661
14.6768
21.4053
8.45534
18.4842
24.9647
21.019
13.7332
17.9101
20.2982
19.7431
15.8029
13.5499
13.706
19.0483
6.50985
19.0994
12.4578
10.5055
13.3821
15.2103
6.86981
15.1626
14.803
8.67095
15.8172
14.095
17.8711
14.2282
12.7246
12.0903
12.3057
13.6796
9.82994
11.5165
12.238
6.88232
16.7034
7.51919
11.4455
22.04
15.3822
11.3581
15.971
12.1865
18.0161
17.4236
16.6628
16.917
13.5692
9.34422
18.0847
6.28613
13.9836
11.3325
13.8172
11.6351
8.08713
16.6502
12.7505
24.4301
11.5838
19.7713
8.22188
13.4667
8.99025
16.1356
18.7915
9.30847
14.914
9.70035
13.4128
16.7174
13.4147
18.3061
13.3316
10.0918
6.59402
18.1153
3.49651
8.75087
15.7124
20.0169
14.0932
21.8634
1.97517
9.88785
12.8107
15.0637
15.3653
15.3409
13.135
17.5875
15.4094
13.1642
7.5802
13.254
9.93887
13.537
16.4934
13.5891
13.5723
18.519
12.2057
7.81591
14.7498
10.5764
26.4753
12.5974
9.83586
13.2354
18.0869
7.51705
12.9963
8.6824
14.0354
13.5858
13.3228
13.4589
6.04327
14.437
10.358
19.3088
16.672
9.59424
13.2721
16.8249
15.3071
24.4927
11.4782
19.4455
12.9564
17.9979
14.0407
15.1444
10.0864
15.2141
10.2964
24.1471
14.1961
4.8963
10.0114
23.5832
16.3333
22.2476
16.2584
16.2666
13.894
16.5193
12.2457
14.0356
13.0714
13.1531
18.5369
14.5746
17.1125
13.4704
15.2417
13.2976
13.937
8.53127
12.1657
14.3234
14.1048
12.2247
13.0477
14.929
20.2543
2.18674
10.7887
20.1399
9.78331
12.0476
14.7644
19.1128
17.3155
14.2457
16.9499
13.3544
10.6801
15.3621
14.9903
15.0739
8.01531
13.3283
5.95555
19.2497
16.3163
15.3093
11.7178
14.6186
6.68498
15.4515
23.4593
14.1779
7.25007
15.0074
13.7575
13.4057
17.0759
9.43146
10.0375
17.8653
22.909
10.4785
14.9672
11.7412
13.4461
14.8338
16.8631
12.053
18.5809
12.0759
12.7106
9.11166
19.2593
20.681
13.9097
17.8117
16.9778
11.2066
15.6829
6.11271
18.1205
14.0531
17.1927
11.1323
11.9831
5.49204
12.8778
16.2955
12.5972
14.0256
11.9877
12.071
9.29736
21.3831
12.373
9.06773
22.3424
16.5084
22.8995
15.9524
14.7594
13.6469
16.5436
1.25409
17.6179
17.1585
7.98988
8.55988
9.2609
13.0326
12.4875
12.249
9.27849
20.9778
12.6926
12.2006
11.2479
18.8133
12.6465
8.73401
19.4595
12.549
9.92271
13.7217
5.91922
26.3047
10.9705
15.024
15.4454
16.1396
11.5221
10.6072
16.7518
19.6348
10.3951
15.4393
23.5831
17.1756
15.2227
13.0918
14.5948
19.0428
11.8046
14.506
21.7025
7.60077
9.54937
16.1307
19.3432
14.562
20.5074
18.5141
10.0166
7.94781
11.8756
9.41995
8.51647
8.91411
15.0651
13.4381
12.7904
12.494
15.3707
8.35205
22.114
12.3133
21.1749
12.3552
20.7156
12.4077
20.6408
8.94392
17.7902
9.6893
13.677
13.9035
2.09952
12.345
13.4492
12.9595
18.0529
15.7724
13.5028
13.0125
16.0831
19.9752
15.6727
11.707
21.2439
12.0443
18.1147
17.7667
15.0123
14.2608
12.9344
16.8524
38.8924
20.7677
14.9416
11.8422
10.2417
24.4669
13.2
13.1066
13.8209
16.0723
15.4425
11.8399
11.9609
11.016
12.2724
16.8768
22.3535
15.311
15.1848
8.97864
9.02346
10.9904
13.8921
13.4965
19.7978
12.5211
13.3155
13.8418
12.016
15.3877
13.642