/*--------------------------------*- C++ -*----------------------------------*\
| =========                 |                                                 |
| \\      /  F ield         | OpenFOAM: The Open Source CFD Toolbox           |
|  \\    /   O peration     | Version:  2.3.0                                 |
|   \\  /    A nd           | Web:      www.OpenFOAM.org                      |
|    \\/     M anipulation  |                                                 |
\*---------------------------------------------------------------------------*/
FoamFile
{
    version     2.0;
    format      ascii;
    class       surfaceScalarField;
    location    "400";
    object      phi;
}
// * * * * * * * * * * * * * * * * * * * * * * * * * * * * * * * * * * * * * //

dimensions      [0 3 -1 0 0 0 0];

internalField   nonuniform List<scalar> 
15537
(
-0.00314236
-0.0203913
0.0222499
0.00128379
-0.00458714
-0.0171835
0.0186283
-0.00569371
-0.0145038
0.0156103
-0.00651918
-0.0122666
0.0130921
-0.00710222
-0.0103998
0.0109829
-0.00746911
-0.00884131
0.0092082
-0.00763964
-0.00753854
0.00770907
-0.0076311
-0.00644845
0.00643991
-0.00746296
-0.00553453
0.00536639
-0.0071543
-0.00476834
0.00445968
-0.00672627
-0.00412549
0.00369746
-0.00619839
-0.00358666
0.00305878
-0.0055896
-0.0031352
0.0025264
-0.00491769
-0.00275699
0.00208509
-0.00244051
-0.00417728
0.0017001
-0.00285107
-0.0187456
0.00120535
-0.00408926
-0.0159453
-0.00498699
-0.013606
-0.00560183
-0.0116518
-0.0059821
-0.0100195
-0.00616682
-0.00865659
-0.00618574
-0.00751962
-0.00606286
-0.00657134
-0.0058167
-0.00578068
-0.00546308
-0.00512196
-0.00501567
-0.0045729
-0.00448665
-0.00411568
-0.00388711
-0.00373474
-0.00322683
-0.00341728
-0.00315289
-0.00251444
-0.00259363
-0.0172654
0.00111344
-0.00369989
-0.014839
-0.00449125
-0.0128147
-0.00501716
-0.0111259
-0.00531925
-0.00971746
-0.00543297
-0.00854286
-0.0053891
-0.0075635
-0.00521354
-0.00674689
-0.00492785
-0.00606637
-0.00455105
-0.00549877
-0.0040981
-0.00502585
-0.00358229
-0.00463149
-0.00301413
-0.00430289
-0.00240277
-0.00402863
-0.00379999
-0.00175568
-0.00232627
-0.0159423
0.00100318
-0.0033072
-0.0138581
-0.00400189
-0.01212
-0.00445685
-0.0106709
-0.00471155
-0.00946276
-0.00479884
-0.00845558
-0.00474626
-0.00761607
-0.00457703
-0.00691612
-0.00431022
-0.00633318
-0.00396238
-0.00584661
-0.00354714
-0.00544108
-0.00307569
-0.00510294
-0.00255782
-0.00482077
-0.00200113
-0.00458532
-0.00438874
-0.00141238
-0.00208689
-0.0147534
0.000897986
-0.0029646
-0.0129804
-0.00358252
-0.0115021
-0.00398373
-0.0102697
-0.00420379
-0.0092427
-0.0042729
-0.00838647
-0.0042164
-0.00767257
-0.00405495
-0.00707758
-0.00380692
-0.00658121
-0.00348626
-0.00616727
-0.00310542
-0.00582193
-0.00267463
-0.00553372
-0.00220253
-0.00529286
-0.00169587
-0.00509198
-0.00492379
-0.00116083
-0.001871
-0.0136831
0.000800671
-0.00265961
-0.0121918
-0.00321325
-0.0109484
-0.00357057
-0.00991238
-0.00376479
-0.00904848
-0.00382296
-0.00832831
-0.00376784
-0.00772769
-0.00361848
-0.00722693
-0.00339078
-0.00680891
-0.00309783
-0.00646022
-0.00275069
-0.00616906
-0.00235855
-0.00592587
-0.0019289
-0.00572251
-0.00146835
-0.00555254
-0.00541028
-0.000981854
-0.00167952
-0.0127168
0.000713192
-0.00239042
-0.0114809
-0.00288841
-0.0104504
-0.00320914
-0.00959165
-0.00338226
-0.00887536
-0.00343249
-0.00827807
-0.00338017
-0.00778001
-0.00324305
-0.00736405
-0.0030348
-0.00701716
-0.0027676
-0.00672742
-0.00245149
-0.00648517
-0.00209471
-0.00628265
-0.00170386
-0.00611336
-0.00128502
-0.00597138
-0.00585251
-0.000842792
-0.00150943
-0.0118431
0.00063579
-0.00215173
-0.0108386
-0.00260123
-0.0100009
-0.00289043
-0.00930245
-0.00304575
-0.00872004
-0.00308974
-0.00823409
-0.00304107
-0.00782867
-0.00291531
-0.00748981
-0.00272541
-0.00720706
-0.00248213
-0.00697071
-0.00219429
-0.00677301
-0.00186977
-0.00660718
-0.0015145
-0.00646862
-0.00113367
-0.00635221
-0.00625459
-0.000731591
-0.00135836
-0.0110521
0.000567384
-0.00193985
-0.0102571
-0.00234651
-0.00959426
-0.00260741
-0.00904155
-0.00274728
-0.00858017
-0.00278618
-0.00819518
-0.00274145
-0.0078734
-0.0026263
-0.00760497
-0.0024534
-0.00737996
-0.00223191
-0.00719219
-0.00197044
-0.00703449
-0.00167498
-0.00690264
-0.00135192
-0.00679168
-0.0010057
-0.00669843
-0.00662003
-0.000640253
-0.0012242
-0.0103352
0.000507289
-0.00175072
-0.00973056
-0.00211881
-0.00922617
-0.00235499
-0.00880537
-0.00248138
-0.00845377
-0.00251622
-0.00816035
-0.00247471
-0.00791491
-0.00237024
-0.00770944
-0.0022126
-0.00753759
-0.00201125
-0.00739355
-0.00177306
-0.00727267
-0.00150458
-0.00717112
-0.00121096
-0.0070853
-0.000896097
-0.0070133
-0.00695231
-0.000563824
-0.00110444
-0.00968508
0.000454291
-0.00158173
-0.00925327
-0.00191539
-0.00889251
-0.00212942
-0.00859134
-0.0022436
-0.0083396
-0.00227492
-0.00812903
-0.00223703
-0.00795281
-0.00214139
-0.00780507
-0.00199794
-0.00768105
-0.0018146
-0.00757689
-0.00159815
-0.00748912
-0.00135432
-0.00741495
-0.00108708
-0.00735254
-0.000800938
-0.00729944
-0.00725441
-0.000498834
-0.000997349
-0.00909529
0.000407563
-0.00143034
-0.00882028
-0.00173291
-0.00858994
-0.00192679
-0.00839746
-0.00203006
-0.00823632
-0.00205823
-0.00810086
-0.0020236
-0.00798744
-0.00193687
-0.0078918
-0.00180633
-0.00781159
-0.00163972
-0.0077435
-0.00144282
-0.00768602
-0.00122069
-0.00763707
-0.000977943
-0.00759529
-0.000717676
-0.00755971
-0.007529
-0.000443084
-0.000900798
-0.00856014
0.000365646
-0.00129408
-0.008427
-0.00156845
-0.00831557
-0.00174451
-0.0082214
-0.0018385
-0.00814233
-0.00186366
-0.0080757
-0.00183203
-0.00801907
-0.00175283
-0.007971
-0.0016343
-0.00793012
-0.00148269
-0.00789511
-0.00130349
-0.00786521
-0.00110188
-0.00783868
-0.000881077
-0.0078161
-0.000644478
-0.00779631
-0.00777869
-0.000394788
-0.000814579
0.000328021
-0.00807358
-0.00117157
-0.00807001
-0.00142071
-0.00806643
-0.00158055
-0.00806156
-0.00166531
-0.00805757
-0.00168849
-0.00805252
-0.00165957
-0.00804799
-0.00158753
-0.00804304
-0.00147971
-0.00803794
-0.00134199
-0.00803284
-0.00117905
-0.00802815
-0.000995397
-0.00802234
-0.000794661
-0.00801683
-0.000579624
-0.00801134
-0.000352762
-0.00800555
-0.0032834
-0.00241806
0.00152419
-0.00244664
-0.00268259
0.00184582
-0.00164914
-0.00300379
0.00220629
-0.000890092
-0.003393
0.00263396
-0.000173827
-0.00386444
0.00314817
0.000490218
-0.00443485
0.0037708
0.00108636
-0.00512425
0.0045281
0.00159169
-0.00595714
0.00545181
0.00197409
-0.00696153
0.00657913
0.00219214
-0.00817156
0.00795351
0.00219635
-0.00962813
0.00962393
0.00192988
-0.0113797
0.0116461
0.00133274
-0.0134869
0.014084
0.000340466
-0.0160222
0.0170145
-0.0190746
0.0205309
-0.00111589
-0.00178849
-0.00314401
-0.00108354
-0.00338754
-0.00040727
-0.00368006
0.000230741
-0.00403101
0.000818717
-0.00445242
0.00134223
-0.00495836
0.00178373
-0.00556574
0.00212144
-0.00629485
0.00233103
-0.00717112
0.00238347
-0.008224
0.00224597
-0.00949063
0.00188088
-0.0110146
0.00124325
-0.0128493
0.00027896
-0.0150579
-0.0177168
-0.00107879
-0.00110736
-0.00379233
-0.000490488
-0.00400441
8.86658e-05
-0.00425921
0.000622975
-0.00456532
0.0011035
-0.00493294
0.00151987
-0.00537473
0.00185923
-0.00590511
0.00210649
-0.00654211
0.00224264
-0.00730727
0.00224459
-0.00822595
0.00208386
-0.00932991
0.00172512
-0.0106558
0.00112511
-0.0122493
0.000231842
-0.0141646
-0.0164667
-0.00101823
-0.000822434
-0.00438228
-0.000262028
-0.00456482
0.000263201
-0.00478444
0.000746453
-0.00504857
0.00117934
-0.00536583
0.0015519
-0.00574729
0.00185205
-0.00620526
0.00206508
-0.00675514
0.0021737
-0.00741589
0.00215661
-0.00820886
0.0019878
-0.0091611
0.00163667
-0.0103047
0.00106568
-0.0116783
0.000229107
-0.0133281
-0.0153103
-0.000927297
-0.000625417
-0.00491769
-0.000117441
-0.00507279
0.000357817
-0.0052597
0.000793821
-0.00548458
0.00118315
-0.00575516
0.00151614
-0.00608028
0.00178211
-0.00647123
0.00196803
-0.00694106
0.00205713
-0.00750499
0.00203077
-0.0081825
0.00186581
-0.00899613
0.0015337
-0.0099726
0.00100109
-0.0111457
0.00022694
-0.0125539
-0.0142452
-0.000838177
-0.000495121
-0.00540442
-3.35377e-05
-0.00553438
0.000397956
-0.00569119
0.000793593
-0.00588021
0.00114604
-0.0061076
0.00144709
-0.00638133
0.0016866
-0.00671074
0.00185184
-0.0071063
0.0019287
-0.00758184
0.00189938
-0.00815317
0.00174248
-0.00883923
0.00143297
-0.0096631
0.000939691
-0.0106524
0.000225677
-0.0118399
-0.0132661
-0.000753417
-0.000400434
-0.00584678
1.90284e-05
-0.00595384
0.00041099
-0.00608316
0.000769974
-0.0062392
0.00108971
-0.00642734
0.00136225
-0.00665387
0.00157817
-0.00692666
0.00172673
-0.00725487
0.00179392
-0.00764903
0.00176416
-0.00812342
0.00161773
-0.0086928
0.00133143
-0.0093768
0.00087739
-0.0101983
0.000222336
-0.0111849
-0.0123693
-0.000674509
-0.000329494
-0.00624888
5.17116e-05
-0.00633504
0.000407861
-0.00643931
0.00073397
-0.00656531
0.0010242
-0.00671756
0.00127147
-0.00690115
0.00146685
-0.00712204
0.00160059
-0.00738861
0.0016606
-0.00770904
0.00163136
-0.00809418
0.00149584
-0.00855728
0.00123268
-0.00911364
0.000816454
-0.00978211
0.000216436
-0.0105848
-0.0115486
-0.000604269
-0.00027469
-0.00661444
7.17902e-05
-0.00668152
0.000395414
-0.00676293
0.000691767
-0.00686166
0.000955265
-0.00698106
0.00117948
-0.00712537
0.00135703
-0.00729958
0.00147784
-0.00750942
0.00153118
-0.00776238
0.00150346
-0.00806646
0.00137874
-0.00843256
0.00113765
-0.00887255
0.000756763
-0.00940122
0.000208438
-0.0100365
-0.0107991
-0.000540993
-0.000231458
-0.00694681
8.34606e-05
-0.00699644
0.000377598
-0.00705707
0.000646812
-0.00713087
0.000886304
-0.00722055
0.00109005
-0.00732911
0.00125076
-0.00746029
0.00136034
-0.007619
0.00140799
-0.00781003
0.00138221
-0.00804067
0.00126787
-0.00831822
0.00104719
-0.00865187
0.000699223
-0.00905325
0.000198696
-0.00953599
-0.0101154
-0.000485084
-0.000196789
-0.00724885
8.94529e-05
-0.00728269
0.000356854
-0.00732447
0.000601631
-0.00737565
0.000819102
-0.00743802
0.00100409
-0.0075141
0.00115007
-0.00760628
0.00124925
-0.00771818
0.00129257
-0.00785335
0.00126842
-0.00801652
0.00116357
-0.00821338
0.000962108
-0.00845041
0.000644721
-0.00873587
0.000188083
-0.00907935
-0.009492
-0.000435289
-0.000168485
-0.00752345
9.1722e-05
-0.00754289
0.000334739
-0.00756748
0.000557168
-0.00759808
0.00075486
-0.00763572
0.000923018
-0.00768225
0.00105551
-0.00773877
0.00114543
-0.0078081
0.00118437
-0.00789229
0.001162
-0.00799415
0.00106618
-0.00811756
0.000882513
-0.00826673
0.000593245
-0.0084466
0.000176977
-0.00866308
-0.00892414
-0.000390876
-0.000145118
-0.00777312
9.13585e-05
-0.00777937
0.000312206
-0.00778833
0.000514418
-0.00780029
0.000694254
-0.00781555
0.000846778
-0.00783478
0.000967189
-0.00785918
0.00104878
-0.00788969
0.00108389
-0.0079274
0.00106334
-0.0079736
0.000976121
-0.00803034
0.000808479
-0.00809909
0.000544804
-0.00818292
0.000165818
-0.0082841
-0.00840669
-0.00035164
-0.000125627
-0.00800026
8.91631e-05
-0.00799416
0.000289939
-0.00798911
0.000473777
-0.00798413
0.000636993
-0.00797877
0.000775644
-0.00797343
0.000885088
-0.00796863
0.000959286
-0.00796389
0.000991209
-0.00795933
0.000972401
-0.00795479
0.00089264
-0.00795058
0.000739989
-0.00794644
0.000499853
-0.00794279
0.000154775
-0.00793902
-0.000315858
-0.00793605
0.00158063
0.0196997
-0.0213548
7.44176e-05
0.00278
0.0165041
-0.0177035
0.00359458
0.0138261
-0.0146407
0.00408504
0.0115774
-0.0120678
0.00430477
0.00968968
-0.00990941
0.00430288
0.00810728
-0.00810538
0.00412353
0.00678382
-0.00660447
0.00380565
0.00567909
-0.00536122
0.0033828
0.00475788
-0.00433503
0.00288359
0.00398898
-0.00348977
0.0023325
0.00334443
-0.00279334
0.00175153
0.00279812
-0.00221716
0.0011608
0.00232544
-0.00173471
0.000570984
0.00190919
-0.00131937
0.00158007
-4.7135e-05
-0.000961952
0.00143181
0.0181975
7.0408e-05
0.0025224
0.0154135
0.00326768
0.0130808
0.00372251
0.0111226
0.00393497
0.00947722
0.00394774
0.00809451
0.00379823
0.00693333
0.0035197
0.00595762
0.00314097
0.00513662
0.00268709
0.00444286
0.0021804
0.00385112
0.00164089
0.00333763
0.00108611
0.00288022
0.000524466
0.00247083
0.00215978
-5.52427e-05
0.00130221
0.0168301
6.51651e-05
0.00229657
0.0144192
0.00297851
0.0123989
0.0033981
0.010703
0.0035982
0.00927712
0.00361648
0.00807623
0.00348622
0.00706359
0.00323659
0.00620725
0.00289325
0.00547996
0.00247879
0.00485731
0.00201309
0.00431682
0.0015145
0.00383622
0.000998723
0.003396
0.000475119
0.00299443
0.00269518
-6.0277e-05
0.00118293
0.0155876
5.9536e-05
0.00208753
0.0135146
0.00270867
0.0117777
0.00309243
0.0103192
0.00327788
0.00909167
0.00329857
0.00805554
0.00318437
0.00717779
0.00296082
0.00643081
0.00265055
0.00579023
0.00227345
0.00523441
0.00184759
0.00474268
0.00138936
0.00429446
0.000913484
0.00387187
0.000429981
0.00347794
0.00318716
-6.20059e-05
0.00107333
0.0144594
5.48842e-05
0.00189516
0.0126927
0.00246069
0.0112122
0.00281162
0.00996829
0.00298306
0.00892024
0.00300557
0.00803302
0.00290519
0.00727817
0.00270473
0.00663127
0.00242416
0.00607079
0.00208126
0.00557731
0.0016922
0.00513174
0.00127196
0.0047147
0.000834401
0.00430943
0.000389798
0.00392254
0.00363887
-6.19101e-05
0.000973822
0.0134339
5.16863e-05
0.00172136
0.0119452
0.00223624
0.0106973
0.00255657
0.00964795
0.00271484
0.00876197
0.00273784
0.00801002
0.00264906
0.00736695
0.00246883
0.0068115
0.00221485
0.00632477
0.00190306
0.00588911
0.00154791
0.00548688
0.00116325
0.00509936
0.000761814
0.00471087
0.000353761
0.00433059
0.00405316
-6.05338e-05
0.000883728
0.012502
4.82264e-05
0.00156311
0.0112658
0.00203196
0.0102285
0.00232468
0.00935524
0.00247012
0.00861652
0.00249294
0.0079872
0.00241425
0.00744564
0.00225184
0.0069739
0.00202189
0.00655472
0.00173843
0.00617257
0.00141462
0.00581069
0.00106284
0.00545114
0.000695145
0.00507856
0.000321339
0.0047044
0.00443268
-5.81719e-05
0.000802407
0.0116556
4.39396e-05
0.00142012
0.0106481
0.00184657
0.00980203
0.00211351
0.0090883
0.00224709
0.00848294
0.00226944
0.00796486
0.00219919
0.00751589
0.00205297
0.00712013
0.00184461
0.00676308
0.00158707
0.00643011
0.00129194
0.00610582
0.000970643
0.00577244
0.000634189
0.00541502
0.000291748
0.00504684
0.00478002
-5.55935e-05
0.000728093
0.0108855
4.20738e-05
0.00128983
0.0100864
0.00167826
0.0094136
0.00192148
0.00884508
0.00204386
0.00836056
0.00206548
0.00794324
0.00200294
0.00757842
0.00187098
0.00725209
0.00168236
0.00695169
0.00144831
0.00666416
0.00117952
0.00637461
0.00088621
0.00606575
0.000578506
0.00572272
0.00026527
0.00536008
0.00509797
-5.26856e-05
0.000660863
0.010186
3.85616e-05
0.0011717
0.00957553
0.00152509
0.00906021
0.0017471
0.00862307
0.00185906
0.0082486
0.00187942
0.00792288
0.00182379
0.00763404
0.0017047
0.00737119
0.00153389
0.0071225
0.00132148
0.00687657
0.00107687
0.00661921
0.00080937
0.00633325
0.000528222
0.00600387
0.000241468
0.00564683
0.00538899
-4.95532e-05
0.000600037
0.00955025
3.5741e-05
0.00106457
0.00911099
0.00138604
0.00873875
0.00158816
0.00842094
0.00169083
0.00814593
0.00171008
0.00790363
0.00166024
0.00768389
0.0015529
0.00747852
0.00139826
0.00727715
0.00120558
0.00706925
0.000983358
0.00684143
0.000739599
0.00657701
0.000482364
0.00626111
0.0002198
0.00590939
0.00565595
-4.7156e-05
0.000544771
0.00897211
3.3375e-05
0.000967283
0.00868848
0.00125961
0.00844642
0.00144359
0.00823696
0.00153737
0.00805215
0.00155567
0.00788534
0.001511
0.00772855
0.00141414
0.00757538
0.00127413
0.00741716
0.00109946
0.00724391
0.00089818
0.00704272
0.000676985
0.00679821
0.000443062
0.00649503
0.000202027
0.00615043
0.00590136
-4.33849e-05
0.000494756
0.00844677
3.05839e-05
0.000878818
0.00830442
0.00114482
0.00818042
0.0013125
0.00806928
0.00139779
0.00796686
0.00141497
0.00786817
0.00137485
0.00776867
0.00128739
0.00766284
0.0011606
0.00754395
0.00100232
0.0074022
0.00082057
0.00722447
0.000621157
0.00699762
0.000404474
0.00671171
0.000183629
0.00637127
0.00612889
-4.38957e-05
0.000449273
2.84304e-05
0.00796906
0.000798614
0.00795507
0.00104064
0.00793839
0.00119303
0.00791689
0.00127098
0.00788891
0.00128663
0.00785252
0.00125082
0.00780449
0.00117236
0.00774129
0.00105707
0.00765924
0.00091164
0.00754763
0.000749445
0.00738667
0.000572551
0.00717451
0.000381913
0.00690235
0.00017633
0.00657686
-4.01589e-05
0.00634538
-0.000663717
0.0016342
-0.00101761
-0.00128377
0.00202509
-0.00140504
-0.00191348
0.00247722
-0.00184751
-0.00253309
0.00297873
-0.00235912
-0.00311898
0.00355492
-0.00296902
-0.0036467
0.00423176
-0.00370405
-0.00408846
0.00503394
-0.00459218
-0.00441352
0.0059869
-0.00566183
-0.00458602
0.0071176
-0.00694509
-0.00456771
0.00845652
-0.00847483
-0.00431821
0.0100393
-0.0102888
-0.00379547
0.0119107
-0.0124335
-0.00295237
0.0141296
-0.0149727
-0.00173317
0.016771
-0.0179902
0.0199232
-0.0215874
-6.89745e-05
-0.000641765
0.00222072
-0.00123149
0.00261481
-0.00182238
0.00306811
-0.00239751
0.00355386
-0.00293475
0.00409216
-0.00341172
0.00470873
-0.00380392
0.00542614
-0.00408454
0.00626751
-0.00422427
0.00725733
-0.00419114
0.00842338
-0.0039514
0.00979957
-0.0034678
0.0114271
-0.0026975
0.0133593
-0.00158735
0.0156609
0.0184093
-7.34208e-05
-0.000605681
0.00276612
-0.001156
0.00316513
-0.00170494
0.00361705
-0.0022354
0.00408432
-0.0027276
0.00458436
-0.00316078
0.00514191
-0.0035135
0.00577886
-0.00376205
0.00651607
-0.00388119
0.00737647
-0.00384341
0.00838561
-0.00361865
0.00957482
-0.00317361
0.0109821
-0.0024689
0.0126546
-0.00145634
0.0146483
0.0170301
-7.7161e-05
-0.000565213
0.00326933
-0.00107452
0.00367444
-0.0015808
0.00412334
-0.00206738
0.0045709
-0.00251591
0.00503288
-0.00290798
0.00553398
-0.00322458
0.00609546
-0.00344515
0.00673664
-0.00354807
0.00747939
-0.00350934
0.00834688
-0.00330227
0.00936774
-0.00289635
0.0105762
-0.00225477
0.012013
-0.00133363
0.0137271
0.0157757
-7.92316e-05
-0.000524655
0.00373207
-0.000993795
0.00414358
-0.00145919
0.00458873
-0.00190452
0.00501623
-0.0023129
0.00544127
-0.00266759
0.00588866
-0.0029518
0.00637968
-0.0031485
0.00693334
-0.00323785
0.00756873
-0.00319942
0.00830846
-0.00300937
0.00917769
-0.00263937
0.0102062
-0.00205623
0.0114299
-0.00121894
0.0128899
0.0146351
-7.83217e-05
-0.000485338
0.00415688
-0.000916227
0.00457447
-0.0013431
0.00501561
-0.00175
0.00542313
-0.00212136
0.00581262
-0.00244253
0.00620983
-0.00269877
0.00663592
-0.00287421
0.00710877
-0.00295287
0.0076474
-0.00291585
0.00827144
-0.00274154
0.00900338
-0.00240473
0.00986934
-0.00187402
0.0108991
-0.00111271
0.0121286
0.0135983
-7.5938e-05
-0.000447795
0.0045465
-0.000843136
0.00496981
-0.001234
0.00540647
-0.00160516
0.00579429
-0.00194275
0.00615022
-0.00223355
0.00650062
-0.00246421
0.00686659
-0.00262162
0.00726619
-0.00269116
0.00771693
-0.00265586
0.00823614
-0.00249654
0.00884405
-0.00218981
0.00956262
-0.00170741
0.0104167
-0.0010153
0.0114365
0.0126556
-7.25951e-05
-0.000412488
0.0049034
-0.000774684
0.005332
-0.00113196
0.00576375
-0.00147059
0.00613292
-0.00177728
0.00645691
-0.00204037
0.00676371
-0.00224858
0.0070748
-0.00238997
0.00740758
-0.00245157
0.00777852
-0.00241856
0.00820314
-0.00227297
0.00869846
-0.00199364
0.00928329
-0.00155483
0.00997793
-0.000925632
0.0108073
0.0117988
-6.87929e-05
-0.000379685
0.0052304
-0.00071104
0.00566336
-0.00103752
0.00609023
-0.0013459
0.0064413
-0.0016244
0.00673541
-0.00186274
0.00700205
-0.00205045
0.0072625
-0.00217786
0.00753499
-0.00223247
0.00783314
-0.00220152
0.00817219
-0.00206866
0.00856559
-0.00181443
0.00902905
-0.00141552
0.00957903
-0.000843427
0.0102352
0.0110198
-6.44694e-05
-0.000348851
0.00552969
-0.000652516
0.00596702
-0.000950679
0.00638839
-0.00123153
0.00672215
-0.0014845
0.00698838
-0.00169997
0.00721753
-0.00186955
0.00743208
-0.00198359
0.00764903
-0.00203258
0.00788213
-0.0020036
0.00814321
-0.00188225
0.00844425
-0.00165098
0.00879778
-0.0012882
0.00921625
-0.000768311
0.00971527
0.0103118
-6.02634e-05
-0.000321376
0.00580391
-0.000598966
0.00624461
-0.000871242
0.00666067
-0.00112649
0.0069774
-0.00135568
0.00721756
-0.00155057
0.00741242
-0.00170353
0.00758504
-0.00180654
0.00775204
-0.00185001
0.00792559
-0.00182306
0.00811626
-0.00171255
0.00833374
-0.00150191
0.00858714
-0.00117212
0.00888646
-0.000699631
0.00924278
0.00966804
-5.58798e-05
-0.000295145
0.00605568
-0.000549668
0.00649913
-0.00079832
0.00690932
-0.00103094
0.00721002
-0.00123864
0.00742526
-0.00141444
0.00758822
-0.00155214
0.00772274
-0.00164427
0.00784418
-0.00168308
0.0079644
-0.00165817
0.00809135
-0.00155746
0.00823303
-0.00136613
0.00839581
-0.00106624
0.00858657
-0.000636679
0.00881322
0.00908294
-5.1578e-05
-0.000274461
0.00628624
-0.000506704
0.00673138
-0.000733016
0.00713563
-0.000943416
0.00742042
-0.00113107
0.00761291
-0.00128874
0.00774589
-0.00141258
0.00784658
-0.00149594
0.00792753
-0.00153076
0.00799922
-0.0015082
0.00806879
-0.00141627
0.0081411
-0.00124203
0.00822157
-0.000969707
0.00831425
-0.000579018
0.00842253
0.00855138
-4.74544e-05
-0.00025035
0.00649643
-0.000464475
0.0069455
-0.000672043
0.0073432
-0.000864268
0.00761264
-0.00103319
0.00778183
-0.00117525
0.00788796
-0.00128571
0.00795703
-0.00136043
0.00800225
-0.00139186
0.00803065
-0.00137102
0.00804794
-0.00128776
0.00805785
-0.00112952
0.00806333
-0.000881693
0.00806642
-0.000526878
0.00806772
-4.33423e-05
0.00806784
0.000272692
0.00142741
0.000395761
0.00196202
0.000505667
0.0024165
0.000617756
0.00294669
0.000735674
0.00357954
0.000857676
0.00433768
0.000978549
0.00524551
0.00109054
0.00632792
0.00118392
0.00761569
0.00124888
0.00914323
0.00127854
0.0109532
0.00127126
0.0130994
0.00123185
0.0156497
0.00117001
0.0186901
0.0223237
0.00109621
0.000123563
0.00130384
0.000148015
0.00193757
0.000191887
0.00237262
0.000255067
0.00288351
0.000331615
0.00350299
0.000417638
0.00425166
0.000509657
0.00515349
0.00060361
0.00623397
0.000694787
0.00752452
0.00077806
0.00905996
0.00084818
0.0108831
0.000900399
0.0130472
0.000931356
0.0156188
0.000939859
0.0186816
0.0223382
0.000925358
0.000184895
0.00111898
0.000235373
0.00188709
0.000265372
0.00234263
0.000297817
0.00285107
0.000336525
0.00346429
0.000382551
0.00420564
0.000435967
0.00510008
0.000495242
0.0061747
0.000557451
0.00746231
0.000618618
0.00899879
0.00067453
0.0108272
0.000721715
0.013
0.000758
0.0155825
0.000782556
0.0186571
0.0223248
0.000795914
7.26842e-05
0.00104651
0.000131571
0.0018282
0.000162523
0.00231162
0.000186516
0.00282705
0.000213122
0.00343765
0.000245957
0.00417279
0.000286611
0.00505941
0.000335192
0.00612611
0.000391249
0.00740624
0.000451508
0.00893853
0.000512067
0.0107666
0.000568281
0.0129438
0.000616159
0.0155346
0.000653239
0.01862
0.0223008
0.000677277
-4.47357e-05
0.00109148
2.66607e-05
0.00175681
6.96025e-05
0.0022686
9.65069e-05
0.00280012
0.000120903
0.0034132
0.000148789
0.0041449
0.000182576
0.0050256
0.000223439
0.00608525
0.0002714
0.00735827
0.000325422
0.00888451
0.000383176
0.0107089
0.000441283
0.0128856
0.000495907
0.01548
0.000543864
0.018572
0.0222595
0.000585178
-5.94467e-05
0.00115086
1.22086e-06
0.00169614
4.82993e-05
0.00222155
7.84581e-05
0.00276996
0.000101437
0.00339025
0.000124049
0.00412229
0.000150531
0.00499912
0.00018212
0.00605366
0.000219704
0.00732069
0.00026302
0.0088412
0.000310959
0.0106609
0.000361551
0.0128351
0.000412218
0.0154293
0.000460109
0.0185241
0.0222167
0.000502833
-2.52454e-05
0.00117595
9.0808e-06
0.0016618
4.88112e-05
0.00218186
7.88288e-05
0.00273996
0.00010077
0.00336833
0.00012012
0.00410294
0.000140825
0.00497843
0.000165208
0.00602928
0.000194492
0.00729141
0.000228991
0.0088067
0.000268199
0.0106217
0.000310915
0.0127923
0.000355364
0.0153849
0.000399482
0.01848
0.0221749
0.000441334
-1.09444e-06
0.00117698
1.88968e-05
0.0016418
4.89436e-05
0.00215182
7.62358e-05
0.00271267
9.72745e-05
0.0033473
0.000114858
0.00408536
0.000132342
0.00496095
0.00015212
0.0060095
0.000175733
0.0072678
0.000203943
0.00877849
0.000236723
0.0105889
0.000273326
0.0127557
0.000312511
0.0153457
0.000352642
0.0184399
0.0221357
0.000391833
9.51085e-06
0.00116743
2.44907e-05
0.00162681
4.76963e-05
0.00212862
7.18045e-05
0.00268857
9.21001e-05
0.00332701
0.000108876
0.00406858
0.000124646
0.00494519
0.000141622
0.00599253
0.000161509
0.00724792
0.00018518
0.00875482
0.000212978
0.0105611
0.00024462
0.0127241
0.000279311
0.015311
0.000315959
0.0184032
0.0220984
0.000353208
1.18737e-05
0.00115554
2.62177e-05
0.00161246
4.57356e-05
0.00210911
6.72621e-05
0.00266705
8.65986e-05
0.00330768
0.000102895
0.00405229
0.000117748
0.00493033
0.00013312
0.00597715
0.000150496
0.00723054
0.000170954
0.00873436
0.000195006
0.0105371
0.000222648
0.0126965
0.000253441
0.0152802
0.000286611
0.0183701
0.0220639
0.000321144
1.14643e-05
0.00114406
2.56633e-05
0.00159826
4.32349e-05
0.00209154
6.27732e-05
0.00264751
8.10999e-05
0.00328935
9.69418e-05
0.00403645
0.000111255
0.00491602
0.000125513
0.00596289
0.000141145
0.00721491
0.000159272
0.00871623
0.000180488
0.0105159
0.000204955
0.012672
0.000232447
0.0152527
0.000262372
0.0183401
0.0220324
0.000293874
1.0503e-05
0.00113355
2.42012e-05
0.00158456
4.05322e-05
0.00207521
5.85361e-05
0.0026295
7.60074e-05
0.00327188
9.15247e-05
0.00402093
0.000105247
0.0049023
0.000118699
0.00594944
0.000132888
0.00720072
0.000149433
0.00869968
0.000168423
0.0104969
0.000190335
0.0126501
0.000215059
0.015228
0.000242238
0.018313
0.0220035
0.000271185
9.62171e-06
0.00112393
2.25464e-05
0.00157164
3.7838e-05
0.00205992
5.46508e-05
0.00261269
7.14025e-05
0.00325513
8.64942e-05
0.00400584
9.99314e-05
0.00488886
0.000112772
0.0059366
0.000126167
0.00718733
0.000141111
0.00868474
0.000158315
0.0104797
0.000178133
0.0126303
0.000200571
0.0152056
0.000225335
0.0182882
0.0219769
0.000251892
8.86983e-06
0.00111506
2.09172e-05
0.00155959
3.52644e-05
0.00204557
5.11351e-05
0.00259682
6.72868e-05
0.00323898
8.20923e-05
0.00399103
9.52387e-05
0.00487572
0.000107611
0.00592423
0.000120251
0.00717469
0.000134104
0.00867089
0.000149897
0.0104639
0.000168062
0.0126121
0.000188739
0.0151849
0.000211871
0.0182651
0.0219513
0.000237465
8.21961e-06
0.00110684
1.94366e-05
0.00154837
3.29284e-05
0.00203208
4.80064e-05
0.00258174
6.35979e-05
0.00322339
7.81211e-05
0.00397651
9.10419e-05
0.0048628
0.000103044
0.00591223
0.000115083
0.00716265
0.000128053
0.00865792
0.000142679
0.0104493
0.000159439
0.0125953
0.000178555
0.0151658
0.000200039
0.0182436
0.0219277
0.000223678
7.66276e-06
0.00109917
1.81314e-05
0.0015379
3.08235e-05
0.00201939
4.51978e-05
0.00256737
6.02101e-05
0.00320838
7.44721e-05
0.00396225
8.72291e-05
0.00485004
9.89323e-05
0.00590052
0.000110467
0.00715111
0.000122685
0.0086457
0.000136297
0.0104356
0.000151796
0.0125798
0.000169432
0.0151481
0.00018924
0.0182238
0.0219059
0.000211008
7.17688e-06
0.001092
1.69816e-05
0.00152809
2.89746e-05
0.0020074
4.26123e-05
0.00255373
5.70705e-05
0.00319392
7.10878e-05
0.00394823
8.37382e-05
0.00483739
9.52107e-05
0.00588905
0.00010633
0.00714
0.000117914
0.00863411
0.000130657
0.0104229
0.000145064
0.0125654
0.000161416
0.0151318
0.000179786
0.0182054
0.0218857
0.0002
6.72068e-06
0.00108528
1.59299e-05
0.00151888
2.72667e-05
0.00199606
4.02653e-05
0.00254073
5.41734e-05
0.00318001
6.79388e-05
0.00393446
8.05308e-05
0.0048248
9.18375e-05
0.00587774
0.000102627
0.00712921
0.000113689
0.00862305
0.000125706
0.0104109
0.000139195
0.0125519
0.000154466
0.0151165
0.000171638
0.0181882
0.0218666
0.000190725
6.33594e-06
0.00107894
1.49941e-05
0.00151023
2.57034e-05
0.00198535
3.81048e-05
0.00252833
5.1539e-05
0.00316658
6.50807e-05
0.00392092
7.75761e-05
0.0048123
8.87654e-05
0.00586655
9.92984e-05
0.00711867
0.000109934
0.00861242
0.000121346
0.0103995
0.00013406
0.0125392
0.000148423
0.0151021
0.000164628
0.018172
0.0218485
0.0001827
5.96441e-06
0.00107297
1.41369e-05
0.00150205
2.4295e-05
0.00197519
3.6156e-05
0.00251647
4.91296e-05
0.00315361
6.24216e-05
0.00390763
7.48273e-05
0.0047999
8.59346e-05
0.00585544
9.62622e-05
0.00710835
0.000106537
0.00860214
0.00011742
0.0103886
0.000129433
0.0125272
0.000142922
0.0150886
0.000158054
0.0181569
0.0218317
0.00017489
5.6429e-06
0.00106733
1.33754e-05
0.00149432
2.30374e-05
0.00196553
3.43995e-05
0.00250511
4.69708e-05
0.00314103
5.99477e-05
0.00389465
7.22609e-05
0.00478758
8.33257e-05
0.00584438
9.34979e-05
0.00709817
0.000103476
0.00859216
0.000113912
0.0103781
0.000125333
0.0125158
0.000138116
0.0150759
0.00015251
0.0181425
0.0218156
0.000168607
5.36477e-06
0.00106197
1.27032e-05
0.00148698
2.19154e-05
0.00195632
3.28186e-05
0.0024942
4.49648e-05
0.00312889
5.76349e-05
0.00388198
6.98554e-05
0.00477536
8.0914e-05
0.00583332
9.09786e-05
0.00708811
0.00010072
0.00858242
0.000110784
0.0103681
0.000121708
0.0125049
0.000133882
0.0150637
0.000147575
0.0181288
0.0217998
0.000163389
5.11084e-06
0.00105686
1.20994e-05
0.00147999
2.08997e-05
0.00194752
3.13598e-05
0.00248374
4.31019e-05
0.00311715
5.54679e-05
0.00386961
6.75983e-05
0.00476323
7.86586e-05
0.00582226
8.86504e-05
0.00707812
9.8199e-05
0.00857287
0.000107945
0.0103583
0.000118428
0.0124944
0.000130058
0.0150521
0.000143111
0.0181157
0.0217851
0.000157778
4.8681e-06
0.00105199
1.1536e-05
0.00147332
1.99318e-05
0.00193912
2.99924e-05
0.00247368
4.13526e-05
0.00310579
5.34341e-05
0.00385753
6.54633e-05
0.0047512
7.65213e-05
0.0058112
8.64649e-05
0.00706817
9.58568e-05
0.00856348
0.00010533
0.0103489
0.000115422
0.0124843
0.000126561
0.0150409
0.000139069
0.0181032
0.0217709
0.000153296
4.64834e-06
0.00104734
1.10087e-05
0.00146696
1.9061e-05
0.00193107
2.87077e-05
0.00246403
3.97227e-05
0.00309477
5.15426e-05
0.00384571
6.34472e-05
0.0047393
7.44969e-05
0.00580015
8.44109e-05
0.00705826
9.36788e-05
0.00855421
0.000102919
0.0103396
0.000112679
0.0124745
0.00012341
0.0150302
0.000135483
0.0180912
0.0217572
0.000149134
4.44156e-06
0.0010429
1.0526e-05
0.00146088
1.82455e-05
0.00192335
2.75474e-05
0.00245473
3.82159e-05
0.0030841
4.97769e-05
0.00383415
6.15347e-05
0.00472754
7.25589e-05
0.00578913
8.24554e-05
0.00704836
9.16193e-05
0.00854505
0.000100652
0.0103306
0.000110102
0.0124651
0.000120421
0.0150199
0.000131959
0.0180796
0.0217444
0.00014479
4.24633e-06
0.00103865
1.00822e-05
0.00145504
1.74933e-05
0.00191594
2.6472e-05
0.00244575
3.68222e-05