/*--------------------------------*- C++ -*----------------------------------*\
| =========                 |                                                 |
| \\      /  F ield         | OpenFOAM: The Open Source CFD Toolbox           |
|  \\    /   O peration     | Version:  2.3.0                                 |
|   \\  /    A nd           | Web:      www.OpenFOAM.org                      |
|    \\/     M anipulation  |                                                 |
\*---------------------------------------------------------------------------*/
FoamFile
{
    version     2.0;
    format      ascii;
    class       volVectorField;
    location    "400";
    object      U;
}
// * * * * * * * * * * * * * * * * * * * * * * * * * * * * * * * * * * * * * //

dimensions      [0 1 -1 0 0 0 0];

internalField   nonuniform List<vector> 
7826
(
(20.7496 0.611212 3.41097e-21)
(20.8104 0.723013 -2.53862e-21)
(20.8793 0.86157 4.25751e-21)
(20.9578 1.02579 3.61295e-20)
(21.0414 1.2105 -3.80015e-20)
(21.1195 1.4072 -2.71008e-21)
(21.1781 1.60645 0)
(21.2029 1.79996 0)
(21.1824 1.98158 0)
(21.11 2.14699 0)
(20.9836 2.29336 0)
(20.8046 2.41961 -4.12016e-20)
(20.5771 2.52738 1.32963e-20)
(20.3057 2.61722 5.56682e-20)
(19.9988 2.67848 -3.08681e-20)
(20.6221 0.633655 -1.6332e-21)
(20.629 0.715192 0)
(20.6237 0.798742 -1.53854e-20)
(20.6059 0.887106 1.51847e-20)
(20.5771 0.981129 -6.2504e-22)
(20.5395 1.08017 -1.45881e-20)
(20.4953 1.18166 1.34665e-20)
(20.4455 1.28168 0)
(20.3909 1.37581 3.87525e-20)
(20.3318 1.46005 -3.56061e-20)
(20.2687 1.53129 -5.96658e-20)
(20.2026 1.58746 -1.46008e-20)
(20.1347 1.62756 1.03297e-19)
(20.0663 1.65128 -3.63479e-20)
(19.999 1.65815 -2.4459e-22)
(20.5289 0.648412 2.44364e-21)
(20.5242 0.720312 0)
(20.5135 0.789897 3.30442e-21)
(20.4961 0.85643 -3.44085e-21)
(20.4714 0.918135 -7.16262e-20)
(20.4394 0.973854 1.44216e-19)
(20.4006 1.02303 -1.54049e-19)
(20.3562 1.06551 7.70829e-20)
(20.3075 1.10135 -8.82085e-20)
(20.2558 1.13073 -7.46237e-21)
(20.2025 1.15389 -6.72916e-21)
(20.1488 1.17112 8.76391e-20)
(20.0955 1.18281 -3.66738e-22)
(20.0436 1.18939 2.43667e-20)
(19.9937 1.1912 -2.30235e-20)
(20.4478 0.634569 0)
(20.4313 0.688437 3.49516e-20)
(20.4097 0.738764 -3.91394e-20)
(20.3837 0.785716 -5.3676e-22)
(20.3541 0.828799 -2.51061e-22)
(20.3219 0.867555 0)
(20.2878 0.901665 9.3034e-20)
(20.2524 0.930976 6.16837e-21)
(20.2163 0.955496 -9.04341e-20)
(20.1799 0.975334 4.9871e-20)
(20.1436 0.990714 -4.78532e-20)
(20.1078 1.00191 0)
(20.0728 1.00924 -1.2115e-23)
(20.0387 1.01306 -8.2118e-22)
(20.0059 1.01365 -4.23776e-22)
(20.3895 0.616407 5.21464e-21)
(20.3709 0.657814 -4.06388e-22)
(20.3495 0.695674 -3.03383e-21)
(20.3254 0.729888 -4.621e-20)
(20.2993 0.760338 4.73216e-20)
(20.2716 0.786992 -1.62673e-21)
(20.2427 0.809936 1.65372e-21)
(20.2131 0.829314 0)
(20.1831 0.845331 5.56284e-20)
(20.153 0.858198 -5.31031e-20)
(20.1231 0.868128 0)
(20.0936 0.875338 -5.77319e-20)
(20.0647 0.880044 5.68639e-20)
(20.0364 0.882458 4.56847e-22)
(20.009 0.882754 4.71427e-22)
(20.3436 0.594737 3.0742e-20)
(20.3246 0.626692 -2.12744e-20)
(20.3037 0.655679 3.03456e-21)
(20.2814 0.681593 0)
(20.258 0.704531 1.60865e-21)
(20.2338 0.724569 1.65046e-21)
(20.2091 0.741824 -6.04946e-20)
(20.1842 0.756429 -2.49489e-21)
(20.1591 0.76854 5.5872e-20)
(20.1342 0.778311 6.13322e-20)
(20.1093 0.785885 -5.93097e-20)
(20.0848 0.791397 -9.71662e-22)
(20.0606 0.794982 -3.31689e-20)
(20.0368 0.796774 1.63733e-20)
(20.0136 0.796878 1.73916e-20)
(20.3088 0.573606 2.72376e-20)
(20.2907 0.598741 -2.63605e-20)
(20.2715 0.621592 0)
(20.2515 0.641886 0)
(20.2308 0.659821 0)
(20.2096 0.675497 1.86508e-21)
(20.1882 0.689032 1.82999e-21)
(20.1665 0.700539 6.21519e-20)
(20.1447 0.710133 -6.12328e-20)
(20.1229 0.717917 -9.85173e-22)
(20.1011 0.72399 -3.42051e-20)
(20.0795 0.728433 3.39496e-20)
(20.0581 0.731328 -5.83652e-24)
(20.037 0.732757 -1.09702e-21)
(20.0162 0.732786 -9.16249e-21)
(20.2815 0.553935 -3.67308e-21)
(20.2647 0.574 -2.9044e-20)
(20.2472 0.59249 2.6874e-20)
(20.2292 0.608893 -6.2558e-20)
(20.2107 0.623449 5.97848e-20)
(20.1919 0.63624 -1.90533e-21)
(20.1729 0.647357 0)
(20.1537 0.656876 0)
(20.1343 0.664866 6.61916e-20)
(20.1149 0.671394 -6.68323e-20)
(20.0954 0.676518 1.08238e-21)
(20.076 0.680286 1.12061e-21)
(20.0567 0.682746 1.97724e-20)
(20.0375 0.683944 5.05211e-22)
(20.0186 0.68392 -2.03861e-20)
(20.2599 0.536259 7.56071e-21)
(20.2445 0.552524 0)
(20.2286 0.567806 1.87717e-21)
(20.2124 0.581404 3.1582e-20)
(20.1958 0.593552 -1.07475e-21)
(20.1789 0.604305 9.45836e-22)
(20.1618 0.613724 -1.13097e-21)
(20.1444 0.621853 -3.34584e-20)
(20.1269 0.628725 1.08046e-21)
(20.1092 0.634373 0)
(20.0914 0.638831 0)
(20.0736 0.642124 -4.06641e-20)
(20.0558 0.64428 3.83957e-20)
(20.038 0.645322 0)
(20.0204 0.64527 0)
(20.2427 0.520687 -3.85283e-21)
(20.2285 0.534056 0)
(20.2141 0.546843 0)
(20.1993 0.558333 4.03392e-21)
(20.1843 0.568689 3.33427e-20)
(20.1689 0.577951 -3.10985e-20)
(20.1533 0.586139 2.13627e-21)
(20.1374 0.593259 -2.21762e-21)
(20.1213 0.599325 0)
(20.105 0.604333 0)
(20.0885 0.608292 1.20163e-21)
(20.0718 0.611232 1.23202e-21)
(20.0551 0.613163 0)
(20.0385 0.614088 0)
(20.022 0.614018 0)
(20.2288 0.506934 0)
(20.2158 0.518173 0)
(20.2026 0.52893 0)
(20.1891 0.538785 3.15824e-20)
(20.1752 0.547776 -6.78593e-20)
(20.1611 0.555908 3.20936e-20)
(20.1466 0.563179 -3.59176e-20)
(20.1319 0.569546 1.39601e-21)
(20.1169 0.575019 3.69702e-20)
(20.1017 0.579553 0)
(20.0862 0.583126 -2.12787e-20)
(20.0705 0.585782 1.76112e-20)
(20.0547 0.587535 2.12396e-20)
(20.039 0.588357 -1.04459e-20)
(20.0232 0.588267 -1.0999e-20)
(20.2173 0.494669 -1.95585e-21)
(20.2056 0.504223 0)
(20.1935 0.513384 0)
(20.1809 0.522005 3.64886e-20)
(20.1681 0.529978 -3.21253e-20)
(20.1548 0.537241 3.80353e-20)
(20.1414 0.543827 -3.58693e-20)
(20.1275 0.549617 -2.33321e-21)
(20.1135 0.554659 1.93286e-20)
(20.0992 0.558845 -4.17804e-20)
(20.0846 0.562098 2.00069e-20)
(20.0695 0.56451 -1.84592e-20)
(20.0544 0.56613 1.30477e-20)
(20.0393 0.566844 1.09097e-20)
(20.0242 0.566721 -2.8323e-21)
(20.2077 0.483091 4.79194e-23)
(20.1972 0.491639 -1.48121e-20)
(20.1861 0.499706 1.68392e-20)
(20.1741 0.507428 2.57954e-23)
(20.1623 0.51471 -2.21537e-21)
(20.1496 0.521264 -2.0397e-20)
(20.1371 0.527368 1.82042e-20)
(20.1239 0.532654 -1.67109e-20)
(20.1106 0.537414 1.67296e-20)
(20.097 0.54137 2.48155e-21)
(20.0834 0.544287 2.06626e-20)
(20.0688 0.546419 -2.08028e-20)
(20.0543 0.547983 -5.39366e-21)
(20.0398 0.548591 -2.84082e-21)
(20.0251 0.548465 8.49442e-21)
(20.1984 0.47241 -2.1867e-21)
(20.1895 0.480875 1.39685e-23)
(20.1798 0.487878 0)
(20.1678 0.494692 -4.33873e-21)
(20.1573 0.50164 2.23023e-21)
(20.1449 0.507494 -1.61508e-20)
(20.1333 0.513341 1.84797e-20)
(20.1206 0.51795 2.44806e-21)
(20.1078 0.522586 -2.54709e-24)
(20.0947 0.526673 -2.02661e-20)
(20.0823 0.529332 2.04976e-20)
(20.0685 0.531059 0)
(20.0551 0.532676 5.53152e-21)
(20.0413 0.532936 -8.63678e-21)
(20.0268 0.532935 5.70909e-21)
(19.6329 2.63883 0)
(19.3382 2.55261 -2.88423e-22)
(19.1002 2.44193 -9.28213e-20)
(18.9197 2.32025 1.05328e-19)
(18.7948 2.18181 -1.1813e-21)
(18.7235 2.02522 2.47581e-21)
(18.7017 1.85193 3.44808e-19)
(18.7228 1.66498 -3.69615e-19)
(18.778 1.46912 0)
(18.8563 1.27101 -2.83257e-21)
(18.9464 1.07896 0)
(19.0382 0.901754 0)
(19.1246 0.746595 4.07663e-19)
(19.2027 0.617176 -4.30093e-19)
(19.2723 0.505339 1.85411e-20)
(19.9323 1.65049 0)
(19.8663 1.62774 2.47028e-22)
(19.8004 1.5879 -3.26966e-23)
(19.7358 1.53261 9.26416e-20)
(19.6735 1.4632 -1.00658e-19)
(19.6143 1.38165 -8.15267e-22)
(19.5591 1.2905 1.83822e-21)
(19.5086 1.19296 0)
(19.4636 1.0926 2.23965e-21)
(19.4254 0.992858 -5.53338e-21)
(19.396 0.896415 -5.09516e-21)
(19.3774 0.804735 -3.64441e-19)
(19.3714 0.717884 3.80176e-19)
(19.3784 0.63518 2.32137e-20)
(19.3969 0.55113 -4.20974e-20)
(19.9452 1.18898 0)
(19.896 1.18259 8.79613e-22)
(19.8458 1.17122 -6.47211e-20)
(19.7952 1.15459 6.6801e-20)
(19.7452 1.1323 -8.00199e-20)
(19.6967 1.10401 -9.2186e-20)
(19.6509 1.06941 1.8728e-19)
(19.6088 1.02821 0)
(19.5718 0.98024 1.49993e-21)
(19.5409 0.925526 0)
(19.517 0.864437 -2.76585e-19)
(19.5005 0.797924 1.42511e-19)
(19.4912 0.727586 7.04632e-21)
(19.4886 0.65551 1.64355e-19)
(19.4919 0.58086 -3.66378e-20)
(19.9738 1.0114 7.33908e-21)
(19.9413 1.00622 -8.57156e-21)
(19.908 0.997701 -3.41675e-20)
(19.8739 0.9856 3.78472e-20)
(19.8396 0.969615 -8.15766e-20)
(19.8051 0.949504 8.51614e-20)
(19.7709 0.925059 -9.58159e-20)
(19.7374 0.896119 1.00393e-19)
(19.7051 0.862646 -2.27205e-19)
(19.6745 0.824687 2.33976e-19)
(19.6463 0.782428 0)
(19.6214 0.736205 0)
(19.6007 0.686478 -9.00238e-21)
(19.5849 0.633668 -9.21183e-21)
(19.5747 0.57675 1.8033e-20)
(19.9821 0.881126 4.89952e-22)
(19.955 0.877517 0)
(19.9273 0.871689 -3.67047e-20)
(19.8991 0.863491 -6.80312e-22)
(19.8708 0.852723 3.81241e-20)
(19.8424 0.839191 8.77671e-20)
(19.8142 0.8227 -1.81341e-19)
(19.7864 0.803044 -2.83957e-21)
(19.7594 0.78004 9.85686e-20)
(19.7335 0.753516 0)
(19.7092 0.723356 0)
(19.6869 0.689539 0)
(19.6671 0.65216 1.21866e-19)
(19.6502 0.611292 -1.23432e-19)
(19.6369 0.566489 0)
(19.9907 0.79541 -5.40024e-22)
(19.9677 0.792335 3.68595e-20)
(19.9443 0.787516 -3.64116e-20)
(19.9207 0.780861 4.04306e-20)
(19.8969 0.772247 -1.25673e-19)
(19.8731 0.761551 1.73402e-19)
(19.8493 0.748651 -1.83473e-19)
(19.8258 0.733423 1.92891e-19)
(19.8026 0.71573 2.55686e-21)
(19.78 0.69544 -1.05592e-19)
(19.7582 0.672444 -1.13446e-19)
(19.7375 0.646654 1.16392e-19)
(19.7182 0.618046 7.81493e-21)
(19.7006 0.586574 -4.76037e-20)
(19.6849 0.552276 3.79426e-20)
(19.9957 0.731485 9.22816e-21)
(19.9751 0.72883 2.4326e-21)
(19.9543 0.724733 -2.53787e-21)
(19.9334 0.719138 -4.37677e-20)
(19.9125 0.711973 4.41787e-20)
(19.8916 0.703163 4.54664e-20)
(19.8708 0.692636 -4.606e-20)
(19.8502 0.680311 0)
(19.83 0.666092 3.19864e-21)
(19.8102 0.649877 1.0621e-19)
(19.7909 0.631569 -1.08431e-19)
(19.7724 0.611064 3.5146e-21)
(19.7547 0.588279 0)
(19.7383 0.563113 -3.03811e-20)
(19.7235 0.535609 2.15471e-20)
(19.9999 0.68272 0)
(19.9811 0.680327 -1.30832e-21)
(19.9622 0.676687 2.57134e-20)
(19.9433 0.67176 -2.17283e-20)
(19.9245 0.66551 -4.4238e-20)
(19.9057 0.657904 4.58413e-20)
(19.8871 0.648898 0)
(19.8687 0.638451 5.26674e-20)
(19.8506 0.626511 -5.01621e-20)
(19.8329 0.613007 0)
(19.8157 0.597873 3.34856e-21)
(19.7989 0.581026 -6.99564e-21)
(19.7828 0.562391 0)
(19.7675 0.541934 7.4993e-21)
(19.7533 0.519719 -7.40965e-21)
(20.003 0.644151 0)
(19.9855 0.641955 -5.24888e-24)
(19.9681 0.638648 -2.69146e-20)
(19.9507 0.634201 2.12215e-20)
(19.9333 0.628601 -1.4669e-21)
(19.9161 0.621844 -4.81804e-20)
(19.8992 0.613919 -9.64453e-22)
(19.8825 0.604802 4.31326e-20)
(19.8661 0.594472 0)
(19.85 0.582893 5.28164e-20)
(19.8344 0.57002 -6.00384e-20)
(19.8192 0.555803 6.9089e-21)
(19.8046 0.540179 0)
(19.7904 0.523153 -1.46017e-20)
(19.7766 0.504436 2.91432e-20)
(20.0055 0.612964 -4.18746e-21)
(19.9891 0.610926 -3.13542e-23)
(19.9728 0.607872 6.02922e-24)
(19.9565 0.603778 2.38956e-20)
(19.9403 0.598651 -2.52826e-20)
(19.9244 0.592517 -4.92977e-20)
(19.9086 0.585386 9.62016e-20)
(19.8932 0.577249 -4.68963e-20)
(19.8781 0.568099 0)
(19.8634 0.557931 -3.2624e-21)
(19.8491 0.546733 3.37517e-21)
(19.8352 0.534488 4.83334e-20)
(19.8218 0.521171 -5.9086e-20)
(19.8089 0.506857 -1.43907e-20)
(19.7966 0.491012 -3.68743e-21)
(20.0076 0.587261 -1.45795e-21)
(19.992 0.585356 4.36475e-21)
(19.9765 0.582519 4.64351e-24)
(19.9612 0.578693 1.5156e-21)
(19.9459 0.573919 1.53657e-21)
(19.9309 0.568264 0)
(19.9161 0.561748 6.29356e-21)
(19.9017 0.554355 0)
(19.8877 0.546093 5.21881e-20)
(19.8741 0.536986 -4.88948e-20)
(19.8608 0.527045 -5.38865e-20)
(19.848 0.516281 5.75261e-20)
(19.8357 0.504692 6.94164e-21)
(19.8237 0.492368 0)
(19.8122 0.478653 -3.57992e-21)
(20.0092 0.565732 -5.84714e-21)
(19.9941 0.563954 -3.06595e-21)
(19.9795 0.561352 7.51085e-21)
(19.9649 0.557743 0)
(19.9505 0.55322 0)
(19.9361 0.54795 -3.12562e-21)
(19.9222 0.541935 -2.55801e-20)
(19.9086 0.535115 2.86373e-20)
(19.8955 0.527523 0)
(19.8827 0.519228 0)
(19.8703 0.510253 0)
(19.8584 0.500632 3.37017e-21)
(19.8469 0.490382 -6.88691e-21)
(19.836 0.479548 0)
(19.8254 0.467589 0)
(20.0107 0.547455 2.92657e-21)
(19.9959 0.545819 0)
(19.9821 0.543555 0)
(19.9683 0.540119 -1.23906e-20)
(19.9544 0.535718 1.23072e-20)
(19.9405 0.530761 3.1439e-21)
(19.9272 0.525176 2.55286e-20)
(19.9144 0.518796 -3.18205e-20)
(19.902 0.511689 0)
(19.8898 0.504022 -2.31118e-20)
(19.8783 0.495806 -3.38056e-22)
(19.867 0.487108 -3.70024e-21)
(19.8564 0.477931 3.05879e-20)
(19.8462 0.468296 1.04263e-20)
(19.8368 0.458183 -7.11768e-21)
(20.013 0.531793 2.96932e-21)
(19.998 0.530315 -6.00541e-21)
(19.9851 0.528475 1.80298e-20)
(19.9716 0.524965 2.32418e-22)
(19.9579 0.520639 -9.26184e-21)
(19.9442 0.516065 0)
(19.9318 0.510865 -6.29879e-21)
(19.9194 0.504805 3.24079e-21)
(19.9076 0.498021 0)
(19.896 0.490894 -3.33939e-20)
(19.8852 0.483277 2.65189e-20)
(19.8745 0.475359 -1.34443e-20)
(19.8647 0.467036 -3.52375e-21)
(19.8553 0.458173 1.3894e-20)
(19.8469 0.448487 0)
(19.9632 -0.29855 0)
(19.864 -0.302974 -2.93054e-19)
(19.7211 -0.308078 3.26181e-19)
(19.5206 -0.312333 0)
(19.2556 -0.315688 0)
(18.9264 -0.318117 6.73774e-21)
(18.5366 -0.319793 1.05704e-18)
(18.0903 -0.320859 -1.77303e-18)
(17.589 -0.321382 -1.25905e-20)
(17.0288 -0.321328 -3.17479e-21)
(16.3955 -0.320819 1.76584e-18)
(15.6558 -0.319467 -1.04492e-18)
(14.7423 -0.317134 -3.20086e-19)
(13.5633 -0.284986 2.07844e-19)
(12.3727 -0.267381 8.15322e-23)
(19.9583 -0.295543 -1.74514e-20)
(19.8698 -0.298668 1.354e-19)
(19.7465 -0.302952 -1.81184e-19)
(19.578 -0.307432 1.16245e-20)
(19.3575 -0.312026 -4.13289e-19)
(19.083 -0.316505 4.51601e-19)
(18.7545 -0.320568 4.89468e-19)
(18.3721 -0.323873 1.42416e-21)
(17.934 -0.326125 -5.80028e-19)
(17.4331 -0.327112 -5.10069e-21)
(16.8526 -0.326952 3.69944e-19)
(16.1577 -0.325156 -2.29286e-21)
(15.293 -0.321577 -5.17429e-19)
(14.2439 -0.296582 5.27093e-21)
(13.3817 -0.243834 -2.07428e-19)
(19.9552 -0.29511 1.85385e-20)
(19.8761 -0.299484 1.82542e-19)
(19.7684 -0.305021 -1.66108e-19)
(19.6238 -0.310541 -1.20312e-20)
(19.4358 -0.315616 6.50458e-21)
(19.2005 -0.319883 4.39503e-19)
(18.9157 -0.323094 -4.93212e-19)
(18.5788 -0.325125 -5.33264e-19)
(18.1853 -0.325962 -1.37629e-22)
(17.7258 -0.325669 6.52852e-19)
(17.1812 -0.324476 0)
(16.5163 -0.321714 0)
(15.6859 -0.315185 0)
(14.7118 -0.291142 -2.38396e-21)
(13.9756 -0.232175 -1.83409e-19)
(19.9503 -0.294378 -7.88654e-20)
(19.8776 -0.298662 9.71007e-20)
(19.7805 -0.303771 1.75409e-19)
(19.6526 -0.308527 -2.02146e-19)
(19.4878 -0.312663 4.37575e-19)
(19.2815 -0.316014 1.11809e-21)
(19.0297 -0.318476 -1.01677e-18)
(18.7278 -0.319999 2.78018e-19)
(18.369 -0.32058 6.11951e-19)
(17.9415 -0.320268 -3.38441e-19)
(17.4244 -0.31919 -1.1965e-20)
(16.7824 -0.316591 -3.41434e-21)
(15.9762 -0.308884 0)
(15.0442 -0.284555 4.82538e-21)
(14.3634 -0.226807 -5.62211e-21)
(19.9454 -0.293087 -2.10411e-20)
(19.8781 -0.296271 1.04996e-22)
(19.7903 -0.300515 2.46114e-20)
(19.6766 -0.30451 0)
(19.5312 -0.30806 7.1399e-21)
(19.3489 -0.311035 2.53215e-19)
(19.1243 -0.3133 -7.62407e-21)
(18.8512 -0.314764 -5.77691e-19)
(18.5208 -0.315396 3.12244e-19)
(18.1197 -0.315217 0)
(17.6253 -0.314273 5.89289e-21)
(17.0022 -0.311788 3.36195e-21)
(16.2143 -0.303653 1.25484e-19)
(15.3076 -0.279141 -1.53692e-19)
(14.6553 -0.223685 -8.25068e-20)
(19.9417 -0.290891 -5.52162e-20)
(19.8797 -0.293774 2.40231e-20)
(19.8003 -0.297637 6.7943e-23)
(19.6986 -0.301204 6.887e-21)
(19.5693 -0.304391 -2.42389e-19)
(19.4065 -0.307093 2.35377e-19)
(19.204 -0.309176 0)
(18.9543 -0.310549 4.53692e-21)
(18.6473 -0.311178 0)
(18.2681 -0.31108 0)
(17.7928 -0.310233 5.95716e-21)
(17.1856 -0.307808 -6.70272e-21)
(16.4121 -0.299543 -1.30432e-19)
(15.5217 -0.275021 1.43871e-19)
(14.8855 -0.221398 -5.21252e-21)
(19.9383 -0.288861 -2.31997e-20)
(19.8813 -0.291676 6.30535e-20)
(19.8091 -0.295195 -1.33699e-20)
(19.7173 -0.298415 -7.09369e-21)
(19.6008 -0.301312 0)
(19.4537 -0.303806 8.02652e-21)
(19.269 -0.305774 0)
(19.0385 -0.30713 4.62041e-21)
(18.7509 -0.307825 1.59378e-19)
(18.3902 -0.307848 -5.20362e-21)
(17.9314 -0.30712 -1.90219e-19)
(17.3379 -0.304744 6.61512e-21)
(16.5759 -0.296428 -1.76788e-23)
(15.6963 -0.271915 -3.489e-20)
(15.0699 -0.219495 -4.00109e-20)
(19.9358 -0.287765 -1.24865e-20)
(19.8828 -0.290009 1.0577e-19)
(19.8165 -0.293052 -1.11335e-19)
(19.7327 -0.295968 -7.3634e-21)
(19.6267 -0.298672 -1.16563e-19)
(19.4923 -0.301077 2.63423e-19)
(19.3224 -0.303056 -2.8019e-19)
(19.1079 -0.304504 2.94626e-19)
(18.8367 -0.305342 1.58719e-22)
(18.4919 -0.305526 -1.62892e-19)
(18.0474 -0.30492 -5.93249e-21)
(17.466 -0.302566 0)
(16.7137 -0.294187 -7.3354e-24)
(15.8418 -0.269627 4.23062e-20)
(15.2213 -0.217911 -3.82171e-20)
(19.9334 -0.28504 -3.94185e-20)
(19.884 -0.287935 8.27006e-20)
(19.8227 -0.290982 -5.77072e-20)
(19.7458 -0.293809 1.21252e-19)
(19.6484 -0.296476 -1.35366e-19)
(19.5245 -0.298927 0)
(19.3668 -0.301042 8.91689e-21)
(19.1657 -0.3027 -1.51469e-19)
(18.9086 -0.303791 -5.1253e-21)
(18.5776 -0.304228 1.7398e-19)
(18.1458 -0.303791 1.06126e-19)
(17.5751 -0.301433 -1.03509e-19)
(16.8311 -0.29283 7.21524e-21)
(15.9652 -0.267933 -8.19931e-21)
(15.3488 -0.216418 -3.67785e-20)
(19.9308 -0.283551 2.03519e-20)
(19.8849 -0.28629 0)
(19.8281 -0.289139 -7.48054e-21)
(19.7569 -0.291909 1.32518e-19)
(19.6667 -0.294601 -1.30436e-19)
(19.5516 -0.297162 0)
(19.4041 -0.299489 -9.01868e-21)
(19.2145 -0.301456 0)
(18.9696 -0.302928 5.07658e-21)
(18.6508 -0.303764 8.1489e-20)
(18.2306 -0.303695 -8.78761e-20)
(17.6701 -0.301495 -1.01986e-19)
(16.9342 -0.292854 4.94853e-20)
(16.073 -0.2676 4.76645e-20)
(15.4589 -0.215699 1.76347e-20)
(19.9286 -0.282342 -7.18967e-21)
(19.8855 -0.284904 -7.45979e-21)
(19.8325 -0.287597 7.6889e-21)
(19.766 -0.290302 0)
(19.6818 -0.29303 0)
(19.5738 -0.29576 0)
(19.4347 -0.298418 1.46337e-19)
(19.2545 -0.300853 -1.54191e-19)
(19.0197 -0.302902 0)
(18.7111 -0.304491 -8.66599e-20)
(18.3005 -0.305198 6.97211e-20)
(17.7491 -0.303579 -3.75295e-20)
(17.0201 -0.294298 6.20412e-20)
(16.1652 -0.267432 1.53758e-20)
(15.5544 -0.214266 1.70074e-20)
(19.9266 -0.280541 2.26678e-20)
(19.8863 -0.283443 -2.31157e-20)
(19.8367 -0.286112 0)
(19.7745 -0.288706 0)
(19.6954 -0.291346 0)
(19.5937 -0.294104 -8.85587e-21)
(19.4621 -0.296976 9.26194e-21)
(19.2907 -0.299861 -9.7195e-21)
(19.0655 -0.302457 0)
(18.7669 -0.304615 0)
(18.3668 -0.306848 2.30823e-20)
(17.8254 -0.306913 -2.47589e-20)
(17.1089 -0.29983 -1.33485e-20)
(16.2547 -0.272863 0)
(15.6438 -0.216105 -1.62849e-20)
(19.9235 -0.279614 0)
(19.8854 -0.282398 7.98003e-21)
(19.8387 -0.284981 0)
(19.7798 -0.287501 6.67887e-20)
(19.7043 -0.290158 -6.02384e-20)
(19.6066 -0.293103 8.93231e-21)
(19.4793 -0.296475 -9.30574e-21)
(19.3125 -0.300065 9.72868e-21)
(19.0933 -0.303328 0)
(18.7994 -0.306683 0)
(18.399 -0.311083 -1.14233e-20)
(17.8627 -0.316524 1.21804e-20)
(17.1455 -0.306711 2.62877e-20)
(16.3191 -0.273077 0)
(15.72 -0.211491 0)
(19.9252 -0.278425 1.64927e-20)
(19.8897 -0.281159 -2.46758e-20)
(19.8464 -0.283671 0)
(19.7915 -0.285597 0)
(19.7215 -0.287516 -8.81899e-21)
(19.6313 -0.289778 0)
(19.5135 -0.292848 0)
(19.3588 -0.297501 8.90765e-20)
(19.1523 -0.301125 -1.76227e-19)
(18.8749 -0.300364 8.77903e-20)
(18.4951 -0.306351 -4.71392e-20)
(17.9693 -0.319894 1.11235e-19)
(17.3217 -0.329521 -5.45952e-20)
(16.4252 -0.301349 0)
(15.8243 -0.223956 0)
(12.8714 -0.111664 2.75767e-19)
(14.422 -0.162111 -8.19428e-19)
(15.7143 -0.176162 6.33564e-19)
(16.6725 -0.206079 0)
(17.4368 -0.228862 -8.9056e-19)
(18.0796 -0.248317 -1.06057e-21)
(18.63 -0.265044 6.84543e-19)
(19.0968 -0.27926 0)
(19.4789 -0.290759 1.07674e-18)
(19.7728 -0.299344 -9.81018e-19)
(19.9779 -0.304948 -3.82175e-23)
(20.102 -0.307568 -4.03877e-19)
(20.1647 -0.307933 -1.13861e-20)
(20.1872 -0.306555 4.57558e-19)
(20.186 -0.303771 -1.07992e-19)
(13.7814 -0.144234 6.07534e-19)
(15.0908 -0.148163 -3.10818e-19)
(16.2961 -0.166935 -2.14508e-21)
(17.2085 -0.194157 -3.36387e-21)
(17.9165 -0.214392 2.91376e-21)
(18.4907 -0.232021 -2.76624e-21)
(18.9649 -0.247744 5.98736e-19)
(19.3525 -0.261929 -5.40584e-19)
(19.6583 -0.27429 -5.01301e-19)
(19.8853 -0.284346 4.53476e-19)
(20.039 -0.291613 -4.25363e-19)
(20.1303 -0.295738 4.06133e-19)
(20.1758 -0.297127 1.34339e-22)
(20.1915 -0.296528 1.67877e-19)
(20.1888 -0.294609 -1.5245e-19)
(14.351 -0.157336 1.79327e-19)
(15.5583 -0.147751 -6.01106e-19)
(16.71 -0.166744 4.91449e-19)
(17.588 -0.190216 3.2621e-21)
(18.2546 -0.20818 -7.40056e-19)
(18.7781 -0.223099 -3.43718e-21)
(19.196 -0.235825 5.93259e-19)
(19.5259 -0.247104 -5.47536e-19)
(19.7776 -0.257123 5.08639e-19)
(19.9587 -0.265867 -4.55075e-19)
(20.0783 -0.273144 4.31454e-19)
(20.1484 -0.278625 0)
(20.1829 -0.282222 1.53327e-23)
(20.194 -0.28412 -1.86425e-19)
(20.1904 -0.284595 1.81364e-19)
(14.7362 -0.16153 3.66821e-19)
(15.899 -0.149097 2.98834e-19)
(17.0178 -0.167058 -9.97201e-19)
(17.8682 -0.188637 4.29946e-19)
(18.5008 -0.205863 3.87416e-19)
(18.9834 -0.219705 -3.4173e-19)
(19.3562 -0.231174 0)
(19.6411 -0.241063 0)
(19.8521 -0.24965 5.29158e-19)
(20.0002 -0.25705 -4.87718e-19)
(20.0969 -0.263242 4.56213e-19)
(20.154 -0.268143 -4.22022e-19)
(20.1828 -0.271765 1.22929e-20)
(20.1924 -0.274245 -1.73031e-19)
(20.1895 -0.275738 1.92283e-19)
(15.0316 -0.163207 4.25187e-19)
(16.1731 -0.150849 8.09319e-22)
(17.2695 -0.167824 -2.45245e-19)
(18.0961 -0.188305 -6.71379e-21)
(18.6992 -0.204893 -5.94091e-21)
(19.1469 -0.217907 0)
(19.4823 -0.22851 0)
(19.7308 -0.237507 4.57604e-21)
(19.9093 -0.245222 5.35106e-19)
(20.0317 -0.251795 -1.01796e-18)
(20.1106 -0.257242 4.70622e-19)
(20.1572 -0.261562 0)
(20.1812 -0.264825 0)
(20.1896 -0.267191 0)
(20.1875 -0.268865 0)
(15.267 -0.163841 5.0992e-21)
(16.3981 -0.15205 0)
(17.4778 -0.168292 2.32596e-19)
(18.2834 -0.188025 -2.04657e-19)
(18.8602 -0.203991 0)
(19.2779 -0.216293 -3.42242e-19)
(19.5822 -0.226155 3.23851e-19)
(19.8011 -0.234374 -3.01263e-19)
(19.9542 -0.241324 2.66652e-19)
(20.0569 -0.24719 -8.08654e-21)
(20.1222 -0.252054 0)
(20.1606 -0.255984 -2.36169e-19)
(20.1803 -0.259074 2.14636e-19)
(20.1873 -0.261447 -1.26907e-20)
(20.1855 -0.263299 1.20095e-20)
(15.457 -0.163793 2.34116e-19)
(16.5832 -0.152422 -1.34378e-19)
(17.6498 -0.168082 7.31801e-21)
(18.4366 -0.18723 -6.5429e-21)
(18.9901 -0.20265 0)
(19.3817 -0.214404 -5.42811e-21)
(19.6598 -0.22372 3.17743e-19)
(19.8547 -0.23138 -2.99486e-19)
(19.9878 -0.237774 8.76219e-21)
(20.0755 -0.243114 8.2401e-21)
(20.1305 -0.247537 0)
(20.1628 -0.251167 7.36398e-21)
(20.1793 -0.254118 0)
(20.1851 -0.256485 1.32422e-20)
(20.1836 -0.258425 -1.26163e-20)
(15.614 -0.163366 0)
(16.7382 -0.15215 8.15215e-21)
(17.7938 -0.167229 -2.37273e-19)
(18.5635 -0.185795 2.12582e-19)
(19.096 -0.200711 -5.9075e-21)
(19.4649 -0.212047 -5.46097e-21)
(19.7207 -0.221004 3.20461e-19)
(19.8958 -0.228334 -2.94002e-19)
(20.013 -0.234419 2.77785e-19)
(20.0889 -0.239478 9.62632e-21)
(20.1361 -0.243673 -2.5574e-19)
(20.1636 -0.247149 0)
(20.1777 -0.250033 -7.27168e-21)
(20.1827 -0.252422 0)
(20.1816 -0.254551 0)
(15.7471 -0.162443 3.58661e-20)
(16.8708 -0.151109 -7.9017e-21)
(17.9166 -0.165585 7.01871e-21)
(18.6706 -0.183586 0)
(19.1838 -0.198068 1.94048e-19)
(19.5325 -0.209131 6.31183e-21)
(19.7691 -0.217921 -1.58032e-19)
(19.9279 -0.225145 1.44677e-19)
(20.0322 -0.231156 -1.45219e-19)
(20.0989 -0.236156 1.38412e-19)
(20.1399 -0.240311 -1.31241e-19)
(20.1637 -0.243775 -7.87067e-21)
(20.1759 -0.246673 1.35599e-19)
(20.1803 -0.249093 -1.15183e-19)
(20.1793 -0.251255 -2.81576e-20)
(15.8618 -0.161532 -7.77232e-20)
(16.9851 -0.149468 5.34899e-20)
(18.0218 -0.162962 0)
(18.7609 -0.180227 -2.0145e-19)
(19.2566 -0.19433 1.85775e-19)
(19.5874 -0.205355 0)
(19.8077 -0.214329 0)
(19.9528 -0.221805 0)
(20.0467 -0.228025 1.57327e-19)
(20.106 -0.233176 -2.90481e-19)
(20.1423 -0.237429 2.61015e-19)
(20.1632 -0.240962 -1.12898e-19)
(20.1739 -0.243912 2.82265e-23)
(20.1778 -0.246356 6.01105e-20)
(20.1771 -0.248461 -2.92561e-20)
(15.9627 -0.159016 -2.47864e-20)
(17.0869 -0.145953 1.26523e-19)
(18.1151 -0.158676 8.43382e-22)
(18.8397 -0.175557 -2.10285e-19)
(19.3185 -0.189673 9.21663e-20)
(19.6326 -0.201118 -1.09364e-20)
(19.8382 -0.210652 0)
(19.9719 -0.218649 0)
(20.0574 -0.225304 0)
(20.111 -0.230721 -1.34753e-19)
(20.1435 -0.23513 8.13141e-21)
(20.1622 -0.238748 1.1597e-19)
(20.1718 -0.241742 -1.60479e-20)
(20.1755 -0.244199 7.01321e-20)
(20.1751 -0.246196 -7.55195e-20)
(16.0525 -0.157923 1.58833e-20)
(17.1729 -0.142381 0)
(18.1911 -0.152943 -1.18224e-19)
(18.9019 -0.168522 1.10197e-20)
(19.3662 -0.182662 7.96917e-20)
(19.6662 -0.19509 -7.67116e-20)
(19.8611 -0.206263 2.49553e-19)
(19.9858 -0.215763 -3.17433e-19)
(20.065 -0.223188 2.94343e-19)
(20.1142 -0.228961 -1.4562e-19)
(20.1438 -0.233469 -8.80904e-21)
(20.1609 -0.237125 1.70057e-20)
(20.1698 -0.240154 -2.81912e-23)
(20.1732 -0.242663 -8.04032e-21)
(20.1731 -0.244744 -7.89706e-21)
(16.135 -0.14824 0)
(17.2626 -0.132387 0)
(18.2748 -0.143651 5.18684e-20)
(18.9713 -0.160368 -1.56986e-19)
(19.416 -0.17587 1.0244e-19)
(19.7 -0.191191 1.09832e-20)
(19.8792 -0.20448 0)
(19.9964 -0.214523 0)
(20.0704 -0.222398 9.57912e-21)
(20.1165 -0.228057 6.48504e-20)
(20.144 -0.232473 -1.43146e-19)
(20.1596 -0.236124 5.20607e-20)
(20.1677 -0.239123 -2.65916e-23)
(20.1711 -0.241548 0)
(20.1712 -0.243469 0)
(16.2073 -0.148127 1.45946e-20)
(17.306 -0.128457 -5.38496e-20)
(18.2979 -0.132634 6.14986e-20)
(18.9771 -0.145134 1.17719e-20)
(19.4215 -0.16199 9.06048e-20)
(19.6929 -0.179659 -1.85147e-19)
(19.8877 -0.199185 9.44735e-20)
(20.0013 -0.214045 -8.07403e-20)
(20.0746 -0.222487 7.81996e-20)
(20.1177 -0.227903 0)
(20.143 -0.231834 9.03429e-21)
(20.1573 -0.235245 8.81689e-21)
(20.1658 -0.238349 1.73461e-20)
(20.169 -0.240723 8.51574e-21)
(20.1695 -0.242661 0)
(19.8875 0.251679 -1.21796e-18)
(20.9302 -0.0956454 1.91699e-21)
(21.1746 -0.0397569 -3.23486e-19)
(21.3632 0.0464095 2.641e-19)
(21.5136 0.135982 0)
(21.6216 0.225007 -1.56125e-19)
(21.6806 0.315598 1.43543e-19)
(21.6855 0.403701 1.01365e-19)
(21.6358 0.482036 -8.85669e-20)
(21.538 0.542595 1.0124e-20)
(21.4055 0.578764 2.93131e-21)
(21.2565 0.587109 0)
(21.1094 0.569153 9.75251e-21)
(20.9778 0.530739 -1.91581e-20)
(20.8659 0.488402 -2.41683e-21)
(16.4062 -0.564142 -1.19429e-18)
(19.3786 -0.195769 3.09352e-19)
(19.8156 -0.208607 5.33255e-21)
(20.128 -0.181775 -1.30271e-19)
(20.4061 -0.135068 1.92955e-19)
(20.6573 -0.0776766 -7.37529e-20)
(20.8737 -0.0135667 6.69099e-20)
(21.045 0.0544408 -6.67173e-20)
(21.1619 0.123131 4.53918e-20)
(21.2198 0.188678 -5.72108e-20)
(21.2207 0.246895 -3.57657e-21)
(21.1743 0.29346 2.45362e-20)
(21.0958 0.324886 -2.21798e-20)
(21.0021 0.338234 5.83429e-21)
(20.907 0.341903 1.35441e-21)
(13.9643 -0.411274 0)
(18.9058 -0.0830178 -2.30809e-19)
(19.4797 -0.146787 1.34311e-19)
(19.7709 -0.137667 -3.58247e-21)
(20.039 -0.112768 -1.5024e-21)
(20.2901 -0.0840646 5.29046e-20)
(20.5171 -0.0502364 -8.91412e-20)
(20.7115 -0.0108046 7.78494e-20)
(20.8649 0.0328179 -3.3833e-20)
(20.9712 0.0780027 1.35523e-21)
(21.0281 0.121609 2.42035e-20)
(21.0389 0.160548 -2.24686e-21)
(21.0126 0.192529 4.37009e-21)
(20.9607 0.215094 -2.85431e-21)
(20.8958 0.232598 -9.40906e-21)
(12.5638 -0.302398 0)
(18.6577 -0.160123 -2.23751e-21)
(19.4442 -0.237322 -1.88319e-19)
(19.7377 -0.216667 2.60365e-19)
(19.9836 -0.198898 -2.33599e-21)
(20.2114 -0.180443 -1.44064e-19)
(20.4194 -0.156631 5.86572e-20)
(20.6016 -0.125907 0)
(20.751 -0.0886019 -2.16708e-21)
(20.8617 -0.0461969 7.40297e-21)
(20.9304 -0.00133427 3.15039e-21)
(20.9585 0.0425052 -1.29664e-20)
(20.9517 0.0819551 2.02015e-20)
(20.9192 0.11399 -1.91486e-20)
(20.8716 0.135962 7.10765e-21)
(12.6879 -0.20498 5.90179e-21)
(17.9959 -0.299519 2.24605e-19)
(19.1457 -0.308771 -1.30299e-21)
(19.5788 -0.277822 -6.00965e-22)
(19.85 -0.26392 0)
(20.0775 -0.249201 -2.23786e-21)
(20.2823 -0.229919 4.98753e-20)
(20.4644 -0.204878 -4.16571e-20)
(20.6191 -0.173831 2.34732e-21)
(20.741 -0.137081 -3.76869e-21)
(20.8261 -0.0958745 -2.28864e-21)
(20.8736 -0.0525062 -4.55402e-21)
(20.8868 -0.00989873 5.36119e-21)
(20.8727 0.0295094 0)
(20.8402 0.0588306 0)
(13.5675 -0.182389 2.07991e-19)
(17.1823 -0.353351 -1.20569e-21)
(18.7021 -0.306978 -8.31841e-20)
(19.3477 -0.28564 6.16181e-20)
(19.6896 -0.274784 0)
(19.9355 -0.263179 -4.10989e-20)
(20.1439 -0.248629 3.44884e-20)
(20.3277 -0.230062 2.73277e-20)
(20.4868 -0.206696 6.01246e-22)
(20.6174 -0.178271 -1.95632e-20)
(20.7158 -0.14523 1.58965e-20)
(20.7803 -0.108783 -1.32226e-21)
(20.8124 -0.0708477 -2.04493e-20)
(20.8166 -0.0326965 1.32325e-20)
(20.7993 -0.00104489 -1.71958e-21)
(14.0489 -0.228362 1.27951e-19)
(16.7365 -0.324454 -7.55017e-20)
(18.3259 -0.290733 -5.67341e-20)
(19.1297 -0.282423 8.88155e-20)
(19.5573 -0.27253 -1.12296e-23)
(19.8333 -0.262901 -2.59647e-20)
(20.0489 -0.251971 2.3445e-20)
(20.2328 -0.238401 -2.34918e-22)
(20.3915 -0.220986 -1.74298e-20)
(20.5241 -0.199151 1.44009e-20)
(20.6279 -0.172954 -1.06316e-20)
(20.7013 -0.143053 -6.38532e-21)
(20.7449 -0.110763 8.90101e-21)
(20.7619 -0.0767814 -8.99519e-21)
(20.757 -0.0461293 3.35523e-21)
(14.1706 -0.247692 9.06015e-20)
(16.5022 -0.290949 5.12198e-22)
(18.0452 -0.28474 -6.39839e-22)
(18.934 -0.281731 -9.90076e-22)
(19.438 -0.272671 0)
(19.7502 -0.264397 -2.01397e-20)
(19.978 -0.255703 3.24363e-20)
(20.1639 -0.245248 -1.36476e-20)
(20.3218 -0.231764 1.10074e-20)
(20.4542 -0.214506 -1.086e-20)
(20.5601 -0.193229 4.52822e-22)
(20.638 -0.168218 -1.83185e-21)
(20.6884 -0.140379 0)
(20.7138 -0.110224 0)
(20.7181 -0.0813472 -8.06229e-22)
(14.0862 -0.246805 0)
(16.3459 -0.273864 0)
(17.8318 -0.282792 1.26706e-22)
(18.7569 -0.281507 1.93074e-20)
(19.319 -0.274271 -1.37675e-22)
(19.6687 -0.267005 -6.59467e-22)
(19.913 -0.259574 -1.03256e-20)
(20.1042 -0.250928 7.94288e-21)
(20.2629 -0.239989 -2.03934e-23)
(20.3955 -0.225935 -5.93626e-21)
(20.5027 -0.208334 4.31486e-21)
(20.5838 -0.187186 -5.93401e-22)
(20.6392 -0.163023 -3.50298e-21)
(20.6708 -0.13616 1.40394e-21)
(20.6822 -0.108652 -5.24241e-22)
(13.9423 -0.24144 0)