/*--------------------------------*- C++ -*----------------------------------*\
| =========                 |                                                 |
| \\      /  F ield         | OpenFOAM: The Open Source CFD Toolbox           |
|  \\    /   O peration     | Version:  2.3.0                                 |
|   \\  /    A nd           | Web:      www.OpenFOAM.org                      |
|    \\/     M anipulation  |                                                 |
\*---------------------------------------------------------------------------*/
FoamFile
{
    version     2.0;
    format      ascii;
    class       volScalarField;
    location    "2000";
    object      nut;
}
// * * * * * * * * * * * * * * * * * * * * * * * * * * * * * * * * * * * * * //

dimensions      [0 2 -1 0 0 0 0];

internalField   nonuniform List<scalar> 
38296
(
0.072361
0.0707078
0.0690542
0.0673947
0.0657305
0.0640624
0.0623912
0.0607182
0.0590445
0.0573709
0.0556983
0.0540271
0.0523583
0.050692
0.0490291
0.0473701
0.0457156
0.0440661
0.042422
0.0407837
0.0391517
0.0375265
0.0359084
0.0342983
0.0326961
0.0311023
0.0295176
0.0279423
0.0263778
0.0248245
0.0232834
0.021756
0.0202448
0.0187529
0.0172839
0.0158434
0.0144392
0.013083
0.0117891
0.0105697
0.00942107
0.00825502
0.00644019
0.0733063
0.0718375
0.0703648
0.068886
0.0674023
0.0659142
0.0644226
0.0629282
0.0614315
0.0599334
0.0584339
0.0569338
0.055433
0.0539315
0.0524299
0.0509283
0.0494271
0.0479267
0.0464272
0.0449288
0.0434324
0.0419383
0.0404466
0.0389585
0.0374743
0.035995
0.0345217
0.0330561
0.0315997
0.0301542
0.0287226
0.0273089
0.0259181
0.0245559
0.0232287
0.0219467
0.0207219
0.0195691
0.0185047
0.0175475
0.0167169
0.0160308
0.015501
0.0741996
0.0728858
0.0715686
0.0702455
0.068917
0.0675839
0.0662464
0.064905
0.0635602
0.062212
0.0608609
0.0595071
0.0581505
0.056791
0.0554287
0.0540636
0.0526959
0.0513257
0.0499532
0.0485786
0.0472028
0.0458262
0.044449
0.0430726
0.0416978
0.0403254
0.0389575
0.0375961
0.0362426
0.0349002
0.0335733
0.0322656
0.0309829
0.0297317
0.0285187
0.0273546
0.0262505
0.0252179
0.0242703
0.0234217
0.022684
0.0220695
0.0215844
0.0750336
0.0738546
0.0726721
0.0714834
0.0702891
0.0690891
0.0678838
0.0666733
0.0654577
0.0642371
0.0630123
0.0617828
0.0605488
0.0593099
0.058066
0.0568168
0.0555626
0.0543031
0.0530386
0.0517694
0.0504963
0.0492193
0.0479394
0.0466576
0.0453753
0.0440936
0.0428142
0.0415395
0.0402718
0.0390143
0.0377716
0.0365472
0.0353473
0.0341781
0.0330476
0.0319644
0.0309385
0.0299802
0.0291015
0.0283128
0.0276245
0.0270437
0.0265769
0.0758067
0.0747456
0.0736806
0.0726086
0.0715299
0.0704445
0.0693524
0.0682537
0.0671484
0.0660367
0.0649188
0.0637947
0.0626644
0.0615278
0.0603842
0.0592334
0.0580751
0.0569089
0.0557357
0.0545554
0.0533684
0.0521755
0.0509773
0.049775
0.04857
0.0473637
0.0461578
0.0449549
0.0437574
0.0425689
0.0413932
0.0402348
0.039099
0.0379923
0.0369226
0.0358973
0.0349258
0.0340183
0.0331843
0.0324338
0.0317748
0.0312143
0.0307581
0.076517
0.0755616
0.0745999
0.0736293
0.0726505
0.0716638
0.0706689
0.0696661
0.0686553
0.0676362
0.0666088
0.0655736
0.0645308
0.0634807
0.0624223
0.0613552
0.0602781
0.0591911
0.0580946
0.0569892
0.0558751
0.0547528
0.0536231
0.0524869
0.0513458
0.0502019
0.0490571
0.0479136
0.0467739
0.0456415
0.0445201
0.0434141
0.0423287
0.0412707
0.0402465
0.0392646
0.0383337
0.0374625
0.0366604
0.0359361
0.0352971
0.0347504
0.0343017
0.0771708
0.0763089
0.075437
0.0745541
0.0736616
0.0727599
0.0718487
0.0709287
0.0699989
0.0690588
0.0681081
0.0671474
0.0661786
0.0652015
0.0642157
0.06322
0.062213
0.0611934
0.0601616
0.059119
0.0580664
0.0570044
0.0559325
0.0548516
0.0537637
0.0526716
0.0515772
0.0504828
0.0493909
0.0483049
0.0472284
0.0461653
0.045121
0.0441012
0.0431128
0.0421647
0.041264
0.0404202
0.0396427
0.0389385
0.038314
0.0377772
0.0373339
0.0777789
0.0769946
0.0761992
0.0753916
0.0745726
0.0737453
0.0729059
0.0720569
0.071197
0.0703258
0.0694409
0.0685422
0.0676347
0.0667191
0.0657947
0.0648604
0.063915
0.0629546
0.061977
0.0609859
0.059985
0.0589751
0.0579535
0.0569196
0.0558759
0.0548263
0.053774
0.0527212
0.0516683
0.050621
0.0495826
0.048556
0.0475451
0.0465564
0.0455969
0.0446755
0.0437972
0.0429752
0.0422181
0.0415321
0.0409169
0.0403873
0.0399473
0.0783547
0.0776294
0.0768961
0.0761529
0.0753901
0.0746308
0.0738519
0.0730644
0.0722626
0.0714512
0.0706267
0.0697784
0.0689186
0.0680519
0.0671766
0.0662921
0.0653992
0.064494
0.0635637
0.0626138
0.0616525
0.060687
0.0597096
0.0587179
0.0577098
0.0566938
0.0556752
0.0546608
0.0536415
0.0526264
0.0516195
0.0506264
0.0496428
0.0486822
0.0477449
0.0468494
0.0459877
0.0451813
0.0444444
0.0437819
0.0431683
0.0426488
0.0422111
0.00562221
0.00635168
0.00723094
0.00807085
0.00887261
0.00965327
0.0104232
0.0111909
0.0119609
0.0127372
0.0135225
0.0143184
0.0151245
0.015939
0.0167596
0.0175869
0.0184334
0.0193244
0.0202685
0.0212634
0.0223005
0.0233751
0.0244844
0.025627
0.0268034
0.0280101
0.0292451
0.0305058
0.031791
0.0330991
0.0344297
0.0357817
0.0371545
0.0385472
0.0399593
0.0413901
0.042839
0.0443054
0.0457887
0.0472879
0.0488027
0.0503329
0.051878
0.0151358
0.0149332
0.014885
0.0149782
0.0151995
0.0155329
0.0159646
0.0164801
0.0170675
0.0177165
0.0184185
0.0191647
0.0199502
0.0207684
0.0216161
0.0224912
0.0233941
0.0243226
0.0252783
0.0262582
0.027261
0.0282857
0.0293305
0.0303961
0.0314805
0.0325844
0.033706
0.0348448
0.0360006
0.0371725
0.0383608
0.0395644
0.0407834
0.0420176
0.0432664
0.0445296
0.0458072
0.0470984
0.0484029
0.0497203
0.0510505
0.0523942
0.0537532
0.0212275
0.0209934
0.0208827
0.0208936
0.021019
0.0212507
0.0215779
0.0219897
0.022477
0.0230297
0.0236397
0.0242998
0.0250027
0.0257443
0.0265196
0.027325
0.0281574
0.0290157
0.029897
0.030799
0.031721
0.0326608
0.0336178
0.0345908
0.0355789
0.0365814
0.0375973
0.0386269
0.0396687
0.0407232
0.0417895
0.0428675
0.0439571
0.0450583
0.0461704
0.0472937
0.0484279
0.0495724
0.0507272
0.0518918
0.0530662
0.0542507
0.0554453
0.0262229
0.025979
0.0258468
0.0258234
0.0259056
0.0260853
0.0263559
0.0267077
0.0271323
0.027621
0.0281676
0.0287634
0.0294037
0.0300819
0.0307937
0.0315363
0.0323055
0.0330986
0.0339128
0.0347462
0.0355971
0.0364631
0.0373436
0.0382368
0.0391419
0.0400585
0.0409856
0.0419224
0.0428687
0.043824
0.0447886
0.0457615
0.0467428
0.0477323
0.04873
0.0497358
0.0507494
0.0517703
0.0527984
0.0538334
0.0548752
0.0559246
0.0569824
0.0304063
0.0301582
0.0300131
0.0299701
0.0300257
0.030174
0.0304079
0.0307197
0.0311015
0.031546
0.0320461
0.0325952
0.0331871
0.0338168
0.0344802
0.0351725
0.0358904
0.0366302
0.0373895
0.0381661
0.0389575
0.0397621
0.0405785
0.0414051
0.0422413
0.0430859
0.0439382
0.0447978
0.0456645
0.0465376
0.0474168
0.0483018
0.0491923
0.0500885
0.0509903
0.0518972
0.0528091
0.0537253
0.0546456
0.0555701
0.0564986
0.0574319
0.0583708
0.0339522
0.033701
0.0335487
0.0334935
0.0335316
0.0336584
0.033867
0.0341506
0.0345016
0.0349131
0.0353787
0.0358917
0.0364476
0.0370402
0.0376656
0.038318
0.0389938
0.0396903
0.0404047
0.0411342
0.0418768
0.0426302
0.0433929
0.0441639
0.0449421
0.0457263
0.0465169
0.0473125
0.0481128
0.0489167
0.0497243
0.0505355
0.0513503
0.0521682
0.0529891
0.0538128
0.0546385
0.0554657
0.056294
0.0571238
0.0579554
0.0587891
0.0596265
0.0369858
0.0367333
0.0365769
0.036513
0.0365385
0.0366499
0.0368411
0.0371031
0.0374303
0.0378168
0.0382557
0.0387416
0.0392694
0.0398343
0.0404291
0.0410485
0.0416894
0.0423505
0.0430281
0.0437188
0.0444197
0.0451298
0.0458477
0.0465719
0.0473011
0.0480358
0.0487748
0.0495171
0.0502614
0.051007
0.051754
0.0525039
0.0532554
0.0540073
0.05476
0.055513
0.0562656
0.0570167
0.0577654
0.0585144
0.0592628
0.0600106
0.0607594
0.0396018
0.0393492
0.0391915
0.0391199
0.0391357
0.0392348
0.039416
0.0396576
0.0399667
0.0403334
0.0407518
0.041216
0.041724
0.0422696
0.0428365
0.0434264
0.0440375
0.0446725
0.045319
0.0459747
0.0466406
0.0473143
0.0479948
0.0486794
0.0493672
0.0500613
0.0507575
0.0514549
0.0521515
0.0528466
0.0535429
0.0542433
0.0549409
0.055636
0.0563318
0.0570243
0.0577149
0.0583995
0.0590783
0.05976
0.0604367
0.0611098
0.0617821
0.0418711
0.0416173
0.0414667
0.0413819
0.0413909
0.0414797
0.0416635
0.0418687
0.0421739
0.0425229
0.0429243
0.0433712
0.0438714
0.0444014
0.0449313
0.0455009
0.0460867
0.0467088
0.0473165
0.0479421
0.0485807
0.0492221
0.0498729
0.050523
0.0511762
0.0518428
0.052499
0.0531592
0.0538121
0.0544638
0.0551197
0.0557848
0.0564311
0.0570791
0.057732
0.0583672
0.0590044
0.0596314
0.0602487
0.0608799
0.0614906
0.0621004
0.0627095
0.0184058
0.0173797
0.0163933
0.0154478
0.0145421
0.0136753
0.0128458
0.0120529
0.0112958
0.0105735
0.00988576
0.00923186
0.00861096
0.00802311
0.00746795
0.00694564
0.00645752
0.00600593
0.00559502
0.00523191
0.00491891
0.00464464
0.00439838
0.00417297
0.00396353
0.00376651
0.0035791
0.00339887
0.00322348
0.00305086
0.002879
0.00270599
0.0025298
0.00234869
0.00216086
0.00196463
0.00175839
0.00154071
0.00131035
0.00106604
0.000808795
0.000572544
0.000665856
0.0183511
0.0173977
0.0164819
0.0156012
0.0147545
0.0139405
0.0131584
0.0124074
0.0116867
0.0109956
0.0103336
0.00970039
0.00909536
0.00851826
0.00796874
0.00744689
0.00695344
0.00648946
0.00605745
0.00566221
0.00530981
0.00500066
0.00472597
0.00447771
0.00424978
0.00403763
0.00383773
0.00364713
0.00346335
0.00328398
0.00310686
0.00292983
0.00275072
0.00256737
0.00237762
0.0021794
0.00197072
0.00174978
0.00151517
0.00126875
0.00103846
0.0010493
0.00170064
0.0183
0.0174215
0.0165737
0.0157552
0.0149648
0.0142016
0.0134649
0.012754
0.0120682
0.011407
0.0107701
0.0101571
0.00956755
0.00900141
0.00845839
0.00793837
0.00744174
0.00696924
0.00652233
0.00610397
0.00571897
0.0053738
0.00506694
0.004791
0.00453959
0.00430771
0.00409128
0.00388697
0.00369173
0.00350292
0.00331814
0.00313493
0.00295088
0.00276354
0.00257049
0.00236927
0.0021573
0.00193252
0.00169469
0.00145784
0.00133892
0.00177652
0.00282284
0.0182533
0.0174445
0.0166595
0.0158981
0.0151595
0.014443
0.013748
0.0130741
0.0124208
0.0117874
0.0111739
0.0105798
0.0100053
0.00945012
0.00891396
0.00839687
0.00789927
0.00742141
0.0069643
0.00652985
0.00612146
0.00574494
0.00540633
0.0051015
0.00482415
0.00456954
0.00433363
0.00411282
0.00390376
0.00370335
0.00350882
0.00331761
0.00312704
0.0029344
0.00273697
0.00253176
0.00231596
0.00208756
0.0018499
0.00164569
0.00173499
0.00259635
0.00388313
0.0182136
0.0174664
0.0167384
0.0160288
0.0153373
0.0146634
0.0140066
0.0133665
0.0127427
0.012135
0.0115431
0.0109669
0.0104065
0.00986181
0.00933274
0.00881935
0.00832193
0.00784073
0.0073766
0.00693085
0.00650562
0.00610543
0.0057375
0.00540459
0.00510121
0.00482266
0.00456543
0.00432604
0.00410106
0.00388725
0.00368161
0.0034811
0.00328284
0.00308386
0.00288117
0.00267144
0.0024516
0.00222022
0.00198744
0.00184468
0.00220088
0.00339911
0.00485655
0.0181781
0.0174871
0.0168106
0.0161481
0.0154993
0.0148641
0.0142418
0.0136325
0.0130359
0.0124516
0.0118797
0.0113201
0.010773
0.0102383
0.00971611
0.0092067
0.00871032
0.00822719
0.00775798
0.00730368
0.00686603
0.00644818
0.00605608
0.00569704
0.00536862
0.00506639
0.0047872
0.00452815
0.00428597
0.00405749
0.00383946
0.00362865
0.00342183
0.00321577
0.0030072
0.00279255
0.00256867
0.00233507
0.00211301
0.00205895
0.00269425
0.00414691
0.00574439
0.0181453
0.017506
0.0168766
0.0162569
0.015647
0.0150469
0.0144562
0.0138749
0.0133029
0.0127402
0.0121867
0.0116424
0.0111076
0.0105823
0.0100669
0.00956142
0.00906637
0.00858202
0.00810888
0.00764797
0.00720061
0.00676932
0.00635853
0.00597586
0.00562428
0.0052996
0.00499895
0.00472
0.00446006
0.00421607
0.0039848
0.00376285
0.00354685
0.00333329
0.00311846
0.00289864
0.00267061
0.00243577
0.00222999
0.00228529
0.00318308
0.00483212
0.00655167
0.0181152
0.0175234
0.0169373
0.0163568
0.0157823
0.0152146
0.0146524
0.0140961
0.0135465
0.0130038
0.0124673
0.0119371
0.0114138
0.0108977
0.0103887
0.0098871
0.00939353
0.00890852
0.00843243
0.00796578
0.00751033
0.00706803
0.00664216
0.00623924
0.00586633
0.00552079
0.00519972
0.00490119
0.00462329
0.00436366
0.00411884
0.00388512
0.00365944
0.00343825
0.00321744
0.00299273
0.00276067
0.00252539
0.00234076
0.00251724
0.00364946
0.00545741
0.00728658
0.0180893
0.0175395
0.0169951
0.0164503
0.0159069
0.0153721
0.014837
0.0143014
0.0137706
0.013247
0.0127286
0.0122116
0.0116983
0.0111927
0.0106934
0.0101967
0.00970484
0.00922129
0.00874511
0.00827307
0.00780954
0.00735865
0.00692078
0.00650044
0.00610829
0.00574181
0.00540055
0.00508286
0.0047842
0.00450556
0.00424866
0.00400547
0.00376644
0.00353253
0.00330112
0.00307089
0.00283614
0.00260139
0.002445
0.00275088
0.00408566
0.00602421
0.00795416
0.00121987
0.00170987
0.00208673
0.00244423
0.00292064
0.00346782
0.00407399
0.00473545
0.00544976
0.00621652
0.00703535
0.00790646
0.00882981
0.00980597
0.0108362
0.0119217
0.0130639
0.0142651
0.0155267
0.0168512
0.0182406
0.0196974
0.0212243
0.0228237
0.0244988
0.026252
0.0280869
0.0300062
0.0320132
0.0341112
0.0363036
0.0385933
0.0409841
0.043479
0.0460812
0.0487935
0.0516181
0.0545553
0.057602
0.0607455
0.0639599
0.067206
0.0704436
0.00257543
0.0033045
0.00391302
0.00444379
0.00493007
0.00541885
0.00601473
0.0066915
0.00743766
0.00824683
0.0091157
0.0100425
0.0110264
0.012066
0.0131605
0.0143098
0.0155137
0.016773
0.0180888
0.0194618
0.0208937
0.0223861
0.0239406
0.025559
0.0272433
0.0289957
0.0308183
0.0327135
0.0346835
0.0367308
0.0388577
0.0410669
0.0433607
0.0457414
0.0482114
0.0507724
0.0534258
0.0561704
0.0590014
0.0619055
0.0648583
0.0678283
0.070783
0.00387987
0.00479292
0.00558003
0.00626766
0.00688363
0.00745678
0.00802866
0.00869893
0.00945967
0.0102978
0.0112051
0.0121764
0.0132089
0.0143003
0.0154484
0.0166506
0.017906
0.0192138
0.0205739
0.0219867
0.0234524
0.0249721
0.0265465
0.028177
0.0298646
0.0316109
0.0334173
0.0352852
0.0372164
0.0392125
0.0412753
0.0434063
0.0456075
0.0478804
0.0502265
0.0526468
0.0551411
0.0577072
0.0603378
0.063019
0.0657291
0.0684426
0.0711354
0.00508991
0.00614856
0.00707569
0.00789316
0.00862544
0.00929786
0.00993965
0.0106038
0.0113776
0.0122422
0.0131852
0.0141985
0.0152763
0.0164153
0.0176119
0.0188625
0.020164
0.0215148
0.022914
0.0243608
0.0258553
0.0273974
0.0289876
0.0306262
0.0323139
0.0340517
0.0358403
0.0376806
0.0395738
0.0415207
0.0435225
0.0455804
0.0476957
0.0498692
0.0521018
0.0543934
0.0567424
0.0591447
0.0615914
0.0640686
0.066558
0.0690397
0.0714957
0.00619572
0.00737926
0.00842384
0.00935051
0.0101821
0.0109427
0.0116578
0.0123645
0.0131527
0.0140445
0.0150232
0.0160775
0.0171995
0.0183839
0.0196267
0.0209219
0.0222659
0.0236561
0.0250906
0.0265682
0.0280879
0.0296492
0.031252
0.0328965
0.034583
0.0363115
0.0380825
0.0398963
0.0417533
0.0436542
0.0455995
0.04759
0.0496267
0.0517099
0.0538395
0.0560138
0.05823
0.0604815
0.0627593
0.0650504
0.0673399
0.0696131
0.0718565
0.00720159
0.00849558
0.00964249
0.0106635
0.0115816
0.0124202
0.0132045
0.013967
0.0147747
0.0156963
0.0167118
0.0178071
0.0189725
0.0202009
0.0214872
0.0228243
0.0242078
0.0256342
0.0271012
0.0286065
0.0301483
0.0317258
0.0333392
0.0349883
0.0366729
0.0383926
0.0401469
0.0419357
0.043759
0.045617
0.0475102
0.0494393
0.051405
0.0534068
0.0554433
0.0575108
0.0596043
0.0617166
0.0638388
0.0659605
0.0680699
0.0701556
0.0722077
0.00811602
0.00950833
0.010746
0.0118495
0.012843
0.0137495
0.014595
0.0154101
0.0162478
0.0172024
0.0182555
0.0193918
0.0206001
0.0218707
0.0231975
0.0245731
0.025993
0.0274535
0.0289508
0.0304808
0.0320409
0.0336317
0.0352541
0.0369076
0.0385907
0.0403017
0.0420401
0.0438055
0.0455974
0.0474155
0.0492608
0.0511342
0.0530363
0.0549658
0.0569184
0.0588875
0.0608664
0.0628493
0.0648282
0.0667963
0.0687439
0.0706616
0.0725424
0.00894895
0.010431
0.011748
0.0129226
0.0139819
0.0149459
0.0158455
0.0167122
0.0175867
0.0185725
0.0196624
0.0208399
0.0220916
0.0234019
0.0247644
0.0261748
0.0276287
0.0291226
0.0306497
0.0321999
0.0337718
0.0353732
0.0370048
0.0386638
0.0403458
0.042048
0.0437714
0.045515
0.0472769
0.0490568
0.0508574
0.0526807
0.0545273
0.0563939
0.0582714
0.060148
0.062018
0.0638799
0.0657274
0.0675581
0.0693598
0.0711276
0.0728556
0.00971237
0.0112793
0.0126615
0.0138945
0.0150115
0.0160183
0.0169684
0.0178886
0.0188024
0.0198133
0.0209405
0.0221617
0.0234616
0.024804
0.026194
0.0276371
0.0291236
0.0306551
0.0322132
0.0337721
0.0353431
0.0369588
0.0386025
0.0402698
0.04195
0.0436412
0.0453511
0.0470751
0.0488057
0.0505469
0.0523061
0.0540844
0.0558851
0.0577002
0.0595132
0.0612984
0.063058
0.064809
0.0665399
0.068249
0.0699155
0.0715485
0.0731459
0.000400717
0.00171254
0.00317745
0.00471074
0.0062826
0.00787424
0.0094795
0.011095
0.0127165
0.0143428
0.0159747
0.0176116
0.0192546
0.0209035
0.0225593
0.0242232
0.0258953
0.0275754
0.0292639
0.0309608
0.032667
0.0343819
0.0361047
0.0378358
0.0395744
0.0413206
0.0430734
0.0448324
0.0465971
0.0483671
0.0501415
0.0519192
0.0536997
0.0554821
0.0572656
0.059049
0.0608316
0.0626119
0.0643888
0.066161
0.0679275
0.0696873
0.0714471
0.000161921
0.00101829
0.00212154
0.00337257
0.00472155
0.00614127
0.00761453
0.00912957
0.0106778
0.0122543
0.013855
0.0154767
0.0171171
0.0187739
0.0204463
0.0221334
0.0238342
0.025548
0.0272738
0.0290112
0.0307602
0.0325192
0.0342883
0.0360665
0.0378537
0.0396488
0.0414511
0.0432603
0.0450752
0.0468953
0.0487197
0.0505474
0.0523775
0.0542092
0.0560412
0.0578728
0.0597026
0.0615295
0.0633523
0.0651698
0.0669805
0.0687834
0.0705812
0.000179528
0.000868891
0.00178935
0.00284741
0.00401355
0.00526712
0.00659316
0.0079812
0.00942225
0.0109099
0.0124384
0.0140025
0.0155987
0.0172233
0.0188738
0.0205478
0.0222433
0.0239582
0.0256907
0.02744
0.0292049
0.0309835
0.032775
0.0345788
0.0363937
0.0382184
0.0400521
0.041894
0.0437427
0.0455975
0.0474575
0.0493214
0.051188
0.0530561
0.0549252
0.0567937
0.0586603
0.0605238
0.0623829
0.0642364
0.0660828
0.0679212
0.0697515
0.00019279
0.000740696
0.00154349
0.00247824
0.00352317
0.00466066
0.00587822
0.00716591
0.00851609
0.00992212
0.011378
0.0128789
0.0144209
0.0160004
0.0176135
0.0192579
0.0209308
0.0226293
0.0243515
0.026096
0.0278607
0.0296436
0.0314436
0.0332593
0.0350889
0.036931
0.0387848
0.0406487
0.0425214
0.0444019
0.0462887
0.0481805
0.0500761
0.0519743
0.0538738
0.0557732
0.057671
0.059566
0.0614568
0.0633418
0.0652201
0.06709
0.0689488
0.000202658
0.000645546
0.00136694
0.00221442
0.00317021
0.0042191
0.00534991
0.00655438
0.00782564
0.00915747
0.0105451
0.0119837
0.0134699
0.0149995
0.0165693
0.0181766
0.0198181
0.0214914
0.0231941
0.0249236
0.0266784
0.0284559
0.0302544
0.0320724
0.0339078
0.0357589
0.0376243
0.0395023
0.0413916
0.0432905
0.0451975
0.0471111
0.0490301
0.0509526
0.0528773
0.0548029
0.0567275
0.05865
0.0605687
0.0624819
0.0643882
0.0662858
0.0681706
0.000207098
0.000581178
0.00124314
0.00202374
0.00290888
0.00388528
0.00494378
0.00607708
0.00727896
0.00854462
0.00986941
0.0112494
0.0126811
0.0141609
0.0156861
0.0172533
0.0188598
0.0205031
0.0221802
0.0238891
0.0256276
0.027393
0.0291832
0.0309968
0.0328311
0.0346846
0.0365552
0.0384413
0.0403412
0.042253
0.0441746
0.046105
0.0480423
0.0499846
0.0519303
0.053878
0.0558258
0.0577722
0.0597153
0.0616533
0.0635844
0.0655064
0.0674147
0.000208716
0.000534291
0.00114798
0.00187519
0.00270299
0.00361984
0.00461774
0.00569013
0.00683219
0.00803929
0.00930753
0.0106336
0.0120141
0.0134465
0.0149274
0.0164543
0.0180244
0.0196349
0.0212837
0.0229683
0.024686
0.0264347
0.0282123
0.0300164
0.0318449
0.0336955
0.0355663
0.0374558
0.0393613
0.041281
0.0432132
0.0451558
0.0471073
0.0490654
0.0510286
0.0529949
0.0549625
0.0569295
0.0588941
0.060854
0.0628074
0.0647517
0.0666812
0.000209479
0.000496811
0.00107062
0.00175406
0.00253445
0.00340142
0.00434783
0.00536821
0.00645795
0.00761323
0.00883091
0.0101078
0.0114413
0.0128286
0.0142671
0.0157547
0.0172882
0.0188654
0.0204844
0.0221424
0.0238372
0.0255663
0.0273276
0.0291186
0.0309374
0.0327813
0.0346487
0.0365371
0.0384443
0.0403684
0.0423072
0.0442584
0.0462205
0.0481913
0.0501685
0.0521503
0.0541347
0.0561197
0.0581031
0.060083
0.062057
0.0640227
0.0659736
0.000209807
0.000466006
0.00100643
0.0016531
0.00239336
0.0032179
0.00412011
0.00509507
0.00613878
0.0072481
0.00842029
0.00965255
0.0109426
0.0122879
0.0136864
0.0151358
0.0166337
0.0181781
0.0197666
0.0213972
0.0230674
0.0247751
0.0265176
0.0282933
0.0300994
0.0319337
0.0337944
0.0356785
0.0375844
0.0395093
0.0414514
0.0434083
0.0453782
0.0473583
0.0493466
0.0513413
0.0533398
0.0553403
0.0573407
0.0593386
0.0613323
0.0633206
0.0653019
0.000209939
0.000440203
0.00095218
0.00156746
0.00227316
0.00306078
0.00392423
0.00485921
0.00586234
0.00693075
0.00806191
0.0092534
0.0105034
0.01181
0.0131708
0.0145839
0.0160476
0.0175596
0.0191181
0.0207207
0.0223659
0.0240506
0.0257734
0.0275317
0.0293231
0.0311456
0.0329969
0.0348745
0.036776
0.0386994
0.040642
0.0426018
0.0445764
0.0465634
0.0485605
0.0505654
0.052576
0.0545899
0.056605
0.0586188
0.0606295
0.0626353
0.0646304
0.000209974
0.000418204
0.000905606
0.00149331
0.00216888
0.00292416
0.00375351
0.00465307
0.00561984
0.00665146
0.00774539
0.00889985
0.0101133
0.0113835
0.012709
0.014088
0.0155187
0.0169997
0.0185286
0.0201039
0.0217234
0.023385
0.0250868
0.0268265
0.0286018
0.0304106
0.0322508
0.0341196
0.0360149
0.0379343
0.0398753
0.0418356
0.0438126
0.0458043
0.0478078
0.049821
0.0518414
0.0538667
0.0558944
0.0579221
0.059948
0.0619699
0.0639849
0.000209995
0.000399257
0.000865537
0.00142851
0.00207732
0.00280387
0.00360281
0.00447072
0.00540494
0.00640316
0.00746323
0.00858386
0.00976325
0.0109998
0.0122922
0.0136391
0.0150387
0.0164896
0.01799
0.0195383
0.0211325
0.0227707
0.0244511
0.0261715
0.0279297
0.0297238
0.0315512
0.0334096
0.0352969
0.0372105
0.039148
0.0411066
0.0430843
0.0450785
0.0470864
0.0491059
0.0511341
0.0531688
0.0552074
0.0572474
0.0592859
0.0613197
0.063338
0.000210065
0.000382808
0.000830336
0.00137116
0.00199617
0.00269704
0.00346877
0.00430813
0.00521263
0.00618037
0.0072096
0.00829886
0.00944682
0.0106522
0.0119139
0.0132303
0.0146004
0.0160226
0.0174953
0.0190172
0.0205866
0.0222017
0.0238606
0.0255611
0.0273017
0.02908
0.0308937
0.0327407
0.0346185
0.0365248
0.0384568
0.0404124
0.042389
0.0443838
0.0463946
0.0484183
0.0504528
0.0524951
0.0545431
0.0565939
0.0586453
0.0606957
0.0627435
0.0002102
0.000368293
0.000799
0.00131986
0.00192344
0.00260108
0.00334824
0.00416175
0.00503922
0.00597913
0.00697997
0.00804029
0.00915932
0.0103357
0.0115683
0.0128563
0.0141983
0.015593
0.0170393
0.0185357
0.0200809
0.021673
0.0233104
0.0249912
0.0267135
0.0284753
0.0302748
0.0321091
0.0339765
0.035874
0.0377995
0.0397504
0.0417243
0.0437185
0.0457302
0.0477569
0.0497959
0.0518444
0.0539001
0.0559601
0.0580222
0.0600844
0.0621426
0.000210264
0.00035526
0.000770764
0.00127352
0.00185783
0.00251439
0.00323894
0.00402874
0.00488157
0.00579598
0.00677057
0.0078043
0.00889632
0.0100456
0.0112511
0.0125121
0.0138274
0.0151961
0.0166169
0.0180888
0.0196104
0.02118
0.0227962
0.0244573
0.0261613
0.0279064
0.0296907
0.031512
0.0333676
0.0352557
0.0371736
0.0391186
0.0410886
0.0430806
0.0450917
0.04712
0.0491622
0.0512155
0.0532771
0.0553447
0.0574152
0.0594851
0.0615459
0.000210216
0.000343438
0.000745194
0.00123135
0.00179803
0.00243542
0.0031394
0.00390756
0.00473773
0.0056285
0.00657888
0.00758779
0.00865466
0.00977836
0.0109585
0.0121939
0.0134841
0.0148279
0.0162244
0.0176727
0.0191713
0.0207189
0.0223144
0.0239559
0.0256415
0.0273697
0.0291387
0.0309461
0.0327896
0.0346673
0.0365764
0.0385148
0.0404798
0.0424682
0.044478
0.0465064
0.0485502
0.0506068
0.0526734
0.054747
0.056825
0.0589045
0.0609818
0.000210126
0.000332675
0.000721911
0.00119321
0.00174332
0.00236309
0.00304816
0.00379627
0.00460549
0.00547446
0.00640227
0.00738819
0.00843143
0.00953139
0.0106875
0.0118988
0.013165
0.0144851
0.0158585
0.0172841
0.0187604
0.0202868
0.0218618
0.0234838
0.0251512
0.0268627
0.028616
0.0304092
0.03224
0.0341066
0.0360065
0.0379372
0.0398959
0.0418802
0.0438873
0.0459146
0.0479592
0.0500179
0.052088
0.0541666
0.0562506
0.0583365
0.0604188
0.000210219
0.000323172
0.000700991
0.00115868
0.00169329
0.00229668
0.00296429
0.00369382
0.00448354
0.00533218
0.00623897
0.00720332
0.00822445
0.00930194
0.0104354
0.0116241
0.0128675
0.0141651
0.0155162
0.0169198
0.0183748
0.0198806
0.0214356
0.0230384
0.024688
0.0263825
0.0281201
0.0298988
0.0317169
0.033572
0.035462
0.037384
0.0393359
0.041315
0.0433186
0.0453439
0.0473878
0.0494477
0.0515204
0.0536029
0.0556917
0.0577835
0.059873
0.00021034
0.000314515
0.000681735
0.00112685
0.00164708
0.00223525
0.0028866
0.0035989
0.00437047
0.0052001
0.00608729
0.00703139
0.0080318
0.00908816
0.0102004
0.0113676
0.0125894
0.0138654
0.0151951
0.0165775
0.0180122
0.0194977
0.0210332
0.0226175
0.0242492
0.0259269
0.0276488
0.0294132
0.0312181
0.0330612
0.0349407
0.0368537
0.0387981
0.0407714
0.0427706
0.0447929
0.0468355
0.0488954
0.0509698
0.0530551
0.0551484
0.0572461
0.0593422
0.00021051
0.000307574
0.00066398
0.0010973
0.00160407
0.00217821
0.0028145
0.00351061
0.00426512
0.0050771
0.00594588
0.0068709
0.00785186
0.0088885
0.00998031
0.0111271
0.0123285
0.0135839
0.0148931
0.0162554
0.01767
0.0191362
0.0206529
0.0222188
0.0238331
0.0254942
0.0272004
0.0289504
0.0307416
0.0325728
0.0344414
0.036345
0.0382814
0.040248
0.042242
0.0442607
0.0463012
0.0483604
0.0504356
0.0525234
0.0546208
0.0567246
0.0588298
0.000211222
0.000304183
0.000647671
0.00106994
0.0015642
0.00212521
0.00274732
0.00342836
0.00416705
0.00496245
0.00581384
0.00672088
0.00768339
0.008701
0.00977361
0.010901
0.0120828
0.0133188
0.0146085
0.0159512
0.0173467
0.018794
0.0202922
0.0218405
0.0234378
0.0250825
0.0267733
0.0285084
0.0302863
0.0321051
0.0339625
0.0358563
0.0377843
0.0397436
0.0417319
0.0437464
0.0457839
0.047842
0.0499173
0.0520068
0.0541075
0.0562172
0.0583317
0.000212661
0.000304318
0.000632667
0.00104451
0.00152697
0.00207556
0.00268445
0.00335137
0.00407512
0.00485483
0.0056899
0.00658016
0.00752518
0.00852495
0.00957946
0.0106883
0.0118514
0.0130686
0.0143394
0.0156636
0.0170405
0.0184695
0.0199499
0.0214808
0.0230612
0.0246899
0.0263654
0.0280861
0.0298506
0.0316568
0.0335029
0.0353867
0.0373056
0.0392575
0.0412395
0.043249
0.0452833
0.0473392
0.0494139
0.0515043
0.0536073
0.0557194
0.0578349
0.000214575
0.00030621
0.00061878
0.00102074
0.00149239
0.00202918
0.00262557
0.00327922
0.0039889
0.00475375
0.00557341
0.00644763
0.00737609
0.00835895
0.00939603
0.0104873
0.0116326
0.0128317
0.0140846
0.0153908
0.0167499
0.0181614
0.0196243
0.0211384
0.0227024
0.0243152
0.0259756
0.027682
0.029433
0.0312268
0.0330614
0.0349347
0.0368446
0.0387884
0.0407637
0.0427679
0.044798
0.0468514
0.0489248
0.0510154
0.0531197
0.0552357
0.0573617
0.000216632
0.000308521
0.000606031
0.000998718
0.00146016
0.0019856
0.00257021
0.00321133
0.00390763
0.00465852
0.00546353
0.00632257
0.0072354
0.00820211
0.00922266
0.0102972
0.0114254
0.0126074
0.0138429
0.0151318
0.0164737
0.017868
0.0193143
0.0208119
0.0223598
0.0239572
0.0256026
0.0272948
0.0290325
0.0308137
0.0326366
0.0344995
0.0364
0.0383354
0.0403038
0.0423021
0.0443278
0.0463777
0.0484494
0.0505391
0.0526438
0.0547601
0.0568831
0.000218621
0.000310643
0.000594235
0.000978107
0.00142978
0.00194452
0.00251795
0.00314711
0.00383083
0.00456848
0.00535972
0.00620417
0.00710217
0.00805355
0.0090584
0.0101168
0.0112288
0.0123944
0.0136132
0.0148854
0.0162106
0.0175885
0.0190185
0.0205
0.0220322
0.0236144
0.0252451
0.0269235
0.0286478
0.0304165
0.0322279
0.0340802
0.0359708
0.0378979
0.0398588
0.041851
0.0438717
0.0459179
0.0479869
0.0500753
0.05218
0.0542972
0.056425
0.000220453
0.000312386
0.000583129
0.000958731
0.00140125
0.00190578
0.00246865
0.00308661
0.00375835
0.0044834
0.00526139
0.00609222
0.00697606
0.00791276
0.00890252
0.00994546
0.0110418
0.0121915
0.0133944
0.0146506
0.0159597
0.0173215
0.0187358
0.0202017
0.0217186
0.0232859
0.0249023
0.0265668
0.028278
0.0300344
0.0318342
0.0336756
0.0355566
0.0374749
0.0394281
0.0414139
0.0434292
0.0454713
0.0475374
0.0496243
0.0517289
0.0538482
0.0559815
0.000222054
0.000313691
0.000572796
0.000940501
0.00137422
0.00186909
0.00242191
0.00302917
0.00368963
0.00440268
0.00516811
0.00598596
0.00685617
0.00777885
0.00875428
0.00978243
0.0108637
0.0119982
0.0131857
0.0144264
0.01572
0.0170664
0.0184653
0.019916
0.0214181
0.0229708
0.0245732
0.026224
0.0279221
0.0296661
0.0314545
0.0332851
0.0351562
0.0370657
0.0390111
0.04099
0.0429997
0.0450375
0.0471003
0.0491854
0.0512896
0.05341
0.055545
0.000223508
0.00031492
0.000563111
0.000923216
0.00134863
0.00183435
0.00237763
0.00297471
0.00362429
0.00432587
0.00507938
0.00588474
0.00674198
0.00765124
0.00861293
0.00962703
0.0106939
0.0118137
0.0129864
0.0142121
0.0154907
0.0168222
0.0182061
0.0196421
0.0211296
0.0226681
0.0242566
0.025894
0.0275794
0.0293113
0.0310879
0.0329077
0.0347691
0.0366694
0.0386068
0.0405788
0.0425826
0.0446155
0.0466749
0.0487575
0.0508607
0.0529812
0.0551169
0.000224951
0.000315817
0.000553985
0.000907003
0.00132451
0.00180145
0.00233546
0.00292286
0.00356216
0.0042529
0.00499496
0.00578845
0.0066333
0.00752975
0.00847821
0.00947874
0.0105317
0.0116374
0.0127958
0.0140071
0.0152713
0.0165882
0.0179576
0.0193792
0.0208526
0.0223772
0.0239521
0.0255764
0.027249
0.0289687
0.0307338
0.032543
0.0343943
0.0362856
0.0382149
0.0401795
0.0421771
0.0442051
0.0462604
0.0483403
0.0504417
0.0525615
0.0546975
0.000226165
0.000316354
0.000545378
0.000891552
0.0013016
0.00177031
0.00229535
0.00287343
0.003503
0.00418333
0.00491446
0.00569656
0.00652947
0.00741354
0.00834925
0.00933677
0.0103765
0.0114686
0.0126133
0.0138106
0.0150607
0.0163635
0.0177189
0.0191266
0.0205862
0.0220971
0.0236587
0.02527
0.0269302
0.0286378
0.0303917
0.0321902
0.0340314
0.0359135
0.0378343
0.0397916
0.041783
0.0438055
0.0458566
0.0479331
0.050032
0.0521499
0.0542841
0.000227269
0.000316912
0.000537462
0.000876931
0.0012799
0.00174079
0.00225726
0.00282641
0.00344649
0.00411689
0.00483763
0.00560867
0.0064302
0.00730245
0.008226
0.00920098
0.0102279
0.0113069
0.0124382
0.0136219
0.0148585
0.0161476
0.0174894
0.0188835
0.0203296
0.0218272