/*--------------------------------*- C++ -*----------------------------------*\
| =========                 |                                                 |
| \\      /  F ield         | OpenFOAM: The Open Source CFD Toolbox           |
|  \\    /   O peration     | Version:  2.3.0                                 |
|   \\  /    A nd           | Web:      www.OpenFOAM.org                      |
|    \\/     M anipulation  |                                                 |
\*---------------------------------------------------------------------------*/
FoamFile
{
    version     2.0;
    format      ascii;
    class       volScalarField;
    location    "2000";
    object      p;
}
// * * * * * * * * * * * * * * * * * * * * * * * * * * * * * * * * * * * * * //

dimensions      [0 2 -2 0 0 0 0];

internalField   nonuniform List<scalar> 
14461
(
-0.000117965
-3.57838
-8.1244
-12.6631
-17.1632
-21.5712
-25.8407
-29.931
-33.8088
-37.4724
-40.9231
-44.1719
-47.2298
-50.0482
-52.5524
-54.5534
-55.8187
-56.0163
-54.5862
-50.421
-42.4876
-32.5744
-21.9949
5.14354
8.42707
5.89112
2.95788
0.105175
-2.6445
-5.27812
-7.77046
-10.0779
-12.1304
-13.83
-15.0348
-15.5789
-15.2766
-13.8854
-11.1727
-6.87569
-0.741719
7.47835
17.9717
30.9474
46.5212
64.7897
86.2681
110.684
15.851
14.3183
12.6891
11.2444
10.0428
9.11921
8.50993
8.24784
8.36848
8.90652
9.90839
11.416
13.4839
16.1961
19.6299
23.8673
29.0088
35.1341
42.2859
50.4954
59.6931
69.7742
80.6283
91.9475
22.1097
21.4135
20.6119
19.9667
19.5441
19.3719
19.4818
19.9111
20.7097
21.9209
23.6066
25.8172
28.6115
32.0553
36.1894
41.0619
46.7087
53.1365
60.3209
68.2194
76.7221
85.6758
94.8842
104.064
27.8927
27.5458
27.2925
27.2029
27.3344
27.7083
28.3455
29.2692
30.5107
32.0946
34.0585
36.4331
39.2524
42.5583
46.3729
50.7307
55.6433
61.1081
67.1051
73.5914
80.4854
87.6814
95.0333
102.389
32.709
32.7033
32.8099
33.0535
33.4986
34.1595
35.0546
36.2032
37.6345
39.3744
41.4517
43.8936
46.7256
49.9703
53.654
57.7849
62.3694
67.3967
72.8431
78.6717
84.8064
91.1613
97.6177
104.069
36.9012
37.0702
37.4167
37.8716
38.5095
39.3444
40.3946
41.6489
43.1534
44.9244
46.9905
49.3744
52.1046
55.1838
58.6462
62.4825
66.7039
71.2875
76.2267
81.4866
87.0176
92.7297
98.5305
104.342
40.5369
40.7901
41.2731
41.8433
42.588
43.5102
44.649
45.9495
47.4931
49.2549
51.2816
53.5756
56.2024
59.1387
62.4272
66.0389
70.0058
74.2774
78.8469
83.6321
88.6763
93.9024
99.2352
104.585
43.8438
44.1317
44.6048
45.1846
45.9877
46.9604
48.1092
49.3842
50.9278
52.6279
54.6329
56.8912
59.4178
62.1448
65.3036
68.798
72.5069
76.4288
80.7379
85.2296
89.9671
94.9019
99.9723
104.938
46.5532
47.1087
47.5225
48.0307
48.8112
49.8095
51.3432
52.249
53.6151
55.0754
56.9953
59.3264
61.8498
64.2587
67.3178
70.873
74.3053
77.4904
81.5358
86.0724
91.581
96.6843
101.007
106.176
77.1363
109.311
130.578
147.585
161.71
173.187
182.311
189.43
194.812
198.697
201.291
202.785
203.333
203.083
202.165
200.7
198.805
196.586
194.138
191.538
188.855
186.133
183.333
180.284
133.526
151.506
165.498
176.485
185
191.362
195.866
198.794
200.413
200.974
200.706
199.817
198.481
196.845
195.023
193.098
191.122
189.128
187.128
185.122
183.11
181.081
179.013
177.121
103.321
114.429
124.925
134.542
143.166
150.755
157.312
162.878
167.511
171.284
174.283
176.584
178.265
179.401
180.059
180.301
180.185
179.764
179.086
178.196
177.13
175.919
174.57
173.009
113.011
121.587
129.674
137.121
143.834
149.769
154.917
159.3
162.965
165.961
168.362
170.229
171.632
172.632
173.286
173.645
173.753
173.644
173.348
172.89
172.29
171.569
170.722
169.692
109.644
116.726
123.545
129.964
135.901
141.291
146.115
150.364
154.056
157.216
159.886
162.102
163.909
165.348
166.458
167.277
167.837
168.169
168.297
168.247
168.041
167.699
167.226
166.605
110.417
116.609
122.572
128.205
133.443
138.235
142.558
146.406
149.786
152.722
155.241
157.374
159.158
160.625
161.81
162.743
163.45
163.958
164.284
164.449
164.474
164.376
164.17
163.891
110.068
115.661
121.051
126.17
130.943
135.34
139.334
142.919
146.103
148.9
151.334
153.431
155.217
156.723
157.976
159.001
159.821
160.464
160.928
161.241
161.423
161.495
161.479
161.46
109.849
115.007
119.978
124.714
129.128
133.231
136.97
140.349
143.366
146.036
148.379
150.414
152.169
153.671
154.947
156.017
156.9
157.621
158.151
158.545
158.821
159.008
159.128
159.308
109.914
114.864
119.583
123.946
128.031
131.903
135.423
138.59
141.42
143.941
146.175
148.129
149.821
151.291
152.578
153.695
154.598
155.334
155.834
156.261
156.591
156.869
157.089
157.387
111.089
115.944
120.152
124.607
128.362
131.943
135.177
137.987
140.494
142.756
144.835
146.676
148.218
149.561
150.775
151.834
152.696
153.512
153.895
154.299
154.602
154.907
155.092
155.409
93.6355
93.8817
94.1024
94.3039
94.4828
94.6378
94.768
94.8736
94.9548
95.0119
95.0452
95.0555
95.0441
95.0124
94.9626
94.8973
94.8195
94.7327
94.641
94.5487
94.4597
94.3821
94.3385
94.5522
93.8668
93.9426
93.9877
94.0219
94.048
94.0674
94.082
94.094
94.1052
94.1173
94.1317
94.1496
94.1718
94.199
94.2315
94.2696
94.3133
94.362
94.4148
94.47
94.531
94.6256
94.8023
95.0646
94.1248
94.1555
94.1686
94.1839
94.2037
94.2275
94.2547
94.2847
94.3169
94.3509
94.3862
94.4225
94.4598
94.498
94.5372
94.5772
94.618
94.659
94.6999
94.7408
94.7888
94.8823
95.1155
95.5005
94.4573
94.5082
94.5515
94.599
94.6484
94.698
94.7465
94.7936
94.8386
94.8812
94.9217
94.9601
94.9967
95.0315
95.065
95.0972
95.1284
95.1587
95.1886
95.2211
95.2691
95.3721
95.6212
96.0418
94.6856
94.7671
94.8247
94.8794
94.9316
94.9812
95.0286
95.0738
95.1166
95.1573
95.1963
95.2341
95.2706
95.3061
95.3404
95.3735
95.4059
95.4378
95.4706
95.5094
95.5716
95.6985
95.9698
96.4081
94.9577
94.9975
95.0435
95.0907
95.1398
95.1881
95.2357
95.2822
95.3259
95.3665
95.4047
95.4416
95.4771
95.5107
95.5416
95.5701
95.5969
95.6224
95.6497
95.6864
95.7534
95.8943
96.1859
96.6463
95.1138
95.1902
95.2348
95.2829
95.335
95.3846
95.4332
95.4827
95.5291
95.5692
95.6048
95.6398
95.675
95.7077
95.7342
95.7561
95.7747
95.7891
95.8033
95.8287
95.8865
96.0237
96.3236
96.8014
95.3264
95.3666
95.3985
95.4434
95.502
95.5534
95.6022
95.6588
95.713
95.755
95.7852
95.8127
95.8441
95.8812
95.9057
95.9198
95.9326
95.9306
95.9206
95.9302
95.9783
96.1162
96.4377
96.9988
95.4971
95.5506
95.5624
95.6019
95.6668
95.707
95.7391
95.7997
95.8672
95.9105
95.9265
95.9494
95.995
96.0497
96.0678
96.0758
96.1002
96.1063
96.0691
96.0592
96.0459
96.0818
96.3128
96.7157
95.4623
95.4725
95.4456
95.5718
95.7761
95.8599
95.8788
95.9665
96.1025
96.199
96.1537
95.9975
96.0159
96.2224
96.2356
96.1601
96.2148
96.1173
95.937
95.9716
96.0415
96.1131
96.4582
97.4209
95.5225
96.1271
96.9359
97.6163
98.2443
98.8096
99.3112
99.7504
100.134
100.474
100.784
101.078
101.373
101.681
102.015
102.38
102.776
103.203
103.654
104.126
104.614
105.111
105.609
106.167
95.6133
95.8014
96.1366
96.4401
96.8144
97.2294
97.6802
98.1576
98.6543
99.163
99.6776
100.192
100.7
101.201
101.69
102.17
102.64
103.104
103.562
104.018
104.474
104.927
105.376
105.882
96.0577
96.3443
96.6811
96.9768
97.3199
97.6868
98.0838
98.5053
98.9476
99.4058
99.8747
100.349
100.825
101.298
101.764
102.223
102.672
103.112
103.543
103.967
104.386
104.798
105.205
105.655
96.5917
96.9463
97.3127
97.6495
98.0158
98.3903
98.7785
99.1741
99.5748
99.9774
100.38
100.781
101.179
101.576
101.97
102.362
102.752
103.141
103.527
103.912
104.297
104.677
105.054
105.468
96.9541
97.3287
97.6888
98.0289
98.3911
98.7589
99.1357
99.5152
99.8953
100.274
100.649
101.02
101.388
101.753
102.115
102.474
102.831
103.186
103.54
103.893
104.245
104.596
104.944
105.322
97.2065
97.6043
97.9692
98.3173
98.6783
99.0409
99.4076
99.7732
100.137
100.497
100.853
101.206
101.555
101.901
102.243
102.581
102.916
103.248
103.576
103.902
104.226
104.547
104.865
105.207
97.4084
97.8512
98.2476
98.6139
98.9814
99.3417
99.6981
100.048
100.393
100.734
101.07
101.402
101.731
102.057
102.378
102.696
103.009
103.318
103.623
103.924
104.222
104.516
104.806
105.113
97.6938
98.1805
98.5491
98.9206
99.2869
99.6378
99.9752
100.305
100.629
100.95
101.268
101.583
101.894
102.203
102.507
102.806
103.1
103.389
103.673
103.951
104.227
104.5
104.766
105.048
97.8982
98.3581
98.8391
99.2334
99.5955
99.9169
100.225
100.526
100.826
101.13
101.434
101.736
102.035
102.331
102.623
102.906
103.183
103.457
103.726
103.981
104.238
104.492
104.738
105.001
99.205
99.1952
99.1021
99.5041
99.8647
100.175
100.422
100.695
100.985
101.279
101.577
101.866
102.155
102.446
102.732
102.998
103.265
103.529
103.782
104.001
104.248
104.503
104.743
105.004
-447.595
-416.848
-382.928
-355.808
-328.505
-299.159
-269.485
-240.557
-212.792
-186.613
-162.428
-140.522
-120.985
-103.727
-88.5638
-75.2756
-63.6056
-53.2747
-44.0247
-35.6292
-27.9052
-20.7294
-13.9262
-9.02428
-261.023
-259.527
-255.866
-251.626
-246.313
-239.136
-230.001
-219.015
-206.223
-191.85
-176.249
-159.923
-143.4
-127.147
-111.55
-96.8738
-83.2575
-70.7479
-59.3174
-48.8798
-39.3241
-30.5539
-22.2931
-15.9377
-246.892
-246.913
-246.647
-244.782
-241.004
-235.407
-228.107
-219.143
-208.548
-196.472
-183.141
-168.879
-154.048
-139.019
-124.124
-109.641
-95.7785
-82.6835
-70.4348
-59.0492
-48.4961
-38.7513
-29.5744
-22.3733
-208.932
-208.871
-208.578
-207.91
-206.665
-204.695
-201.797
-197.737
-192.288
-185.281
-176.663
-166.527
-155.092
-142.691
-129.704
-116.488
-103.357
-90.5476
-78.2473
-66.5782
-55.5944
-45.3391
-35.6351
-27.7826
-189.371
-189.465
-189.578
-189.488
-188.965
-187.768
-185.72
-182.712
-178.648
-173.426
-166.968
-159.244
-150.291
-140.252
-129.352
-117.865
-106.082
-94.2479
-82.5666
-71.2184
-60.33
-50.0046
-40.1229
-31.782
-167.672
-167.754
-167.835
-167.81
-167.58
-167.017
-165.968
-164.284
-161.815
-158.418
-153.973
-148.398
-141.663
-133.811
-124.965
-115.318
-105.105
-94.5671
-83.9016
-73.2895
-62.8845
-52.8363
-43.0809
-34.5277
-150.364
-150.464
-150.613
-150.709
-150.667
-150.383
-149.725
-148.578
-146.837
-144.389
-141.12
-136.932
-131.76
-125.585
-118.446
-110.449
-101.75
-92.5459
-83.0247
-73.3498
-63.6629
-54.1304
-44.7418
-36.2552
-134.271
-134.369
-134.516
-134.635
-134.673
-134.564
-134.207
-133.5
-132.347
-130.648
-128.299
-125.196
-121.257
-116.431
-110.712
-104.149
-96.8351
-88.91
-80.5382
-71.8673
-63.0239
-54.1584
-45.3025
-37.0477
-120.153
-120.252
-120.407
-120.552
-120.645
-120.636
-120.448
-119.99
-119.185
-117.952
-116.206
-113.856
-110.817
-107.021
-102.434
-97.061
-90.9508
-84.1932
-76.9099
-69.229
-61.2676
-53.1464
-44.9175
-36.9628
-107.373
-107.468
-107.619
-107.769
-107.887
-107.941
-107.868
-107.595
-107.049
-106.163
-104.865
-103.078
-100.721
-97.7229
-94.0349
-89.6373
-84.5459
-78.8137
-72.5218
-65.7722
-58.6681
-51.3081
-43.7517
-36.1469
-95.8948
-95.9872
-96.1333
-96.2853
-96.419
-96.509
-96.5088
-96.3566
-95.9885
-95.3459
-94.3696
-92.9933
-91.1472
-88.7635
-85.7853
-82.1777
-77.9361
-73.0832
-67.67
-61.7703
-55.4705
-48.8521
-41.9856
-34.8051
-85.503
-85.5917
-85.7305
-85.8792
-86.0193
-86.1307
-86.179
-86.1128
-85.8753
-85.4142
-84.6787
-83.6131
-82.157
-80.249
-77.8321
-74.864
-71.3242
-67.2165
-62.569
-57.4308
-51.8669
-45.9419
-39.7398
-33.0035
-76.0844
-76.1678
-76.2994
-76.4435
-76.5846
-76.7081
-76.7868
-76.7791
-76.6351
-76.3078
-75.7531
-74.9237
-73.7675
-72.2298
-70.2576
-67.806
-64.8454
-61.3654
-57.3772
-52.9128
-48.0174
-42.7429
-37.195
-31.0765
-67.5148
-67.5929
-67.7167
-67.8547
-67.9936
-68.1225
-68.2209
-68.2538
-68.1787
-67.9527
-67.5362
-66.8888
-65.9659
-64.7194
-63.1017
-61.0679
-58.5826
-55.6284
-52.2048
-48.327
-44.0252
-39.3342
-34.3549
-28.7769
-59.696
-59.7691
-59.8852
-60.0167
-60.1516
-60.2816
-60.391
-60.4514
-60.426
-60.2762
-59.9661
-59.4605
-58.7212
-57.7062
-56.372
-54.6765
-52.5832
-50.069
-47.1246
-43.7536
-39.9742
-35.8036
-31.3258
-26.16
-52.5407
-52.6085
-52.7175
-52.8414
-52.9714
-53.1002
-53.2159
-53.2947
-53.3053
-53.2139
-52.987
-52.5931
-51.9993
-51.1687
-50.0629
-48.6426
-46.8728
-44.7273
-42.1906
-39.2591
-35.9438
-32.2561
-28.2918
-23.7045
-45.9742
-46.0372
-46.1391
-46.2561
-46.3804
-46.5065
-46.624
-46.7147
-46.7512
-46.703
-46.5405
-46.235
-45.7574
-45.0756
-44.1549
-42.9602
-41.4585
-39.6221
-37.4321
-34.8803
-31.9715
-28.7121
-25.1894
-21.2457
-39.9298
-39.9881
-40.0836
-40.194
-40.3123
-40.4344
-40.5518
-40.6497
-40.705
-40.6903
-40.5787
-40.3438
-39.9598
-39.3985
-38.6286
-37.6192
-36.3393
-34.7603
-32.8618
-30.6321
-28.068
-25.1662
-21.9686
-18.4237
-34.352
-34.4062
-34.4954
-34.5994
-34.7118
-34.8295
-34.9454
-35.0472
-35.1155
-35.1256
-35.0528
-34.8742
-34.5659
-34.1023
-33.4569
-32.6006
-31.5048
-30.1423
-28.491
-26.5359
-24.269
-21.684
-18.7954
-15.6555
-29.191
-29.241
-29.3247
-29.4229
-29.5294
-29.6421
-29.7553
-29.8587
-29.9356
-29.9645
-29.9229
-29.7891
-29.5422
-29.1596
-28.6168
-27.8878
-26.9464
-25.7658
-24.3243
-22.6056
-20.5973
-18.2908
-15.6757
-12.8275
-24.4037
-24.4502
-24.5287
-24.6213
-24.7222
-24.8298
-24.9397
-25.0429
-25.1256
-25.1688
-25.1515
-25.054
-24.8573
-24.5409
-24.0833
-23.4607
-22.6481
-21.6224
-20.3612
-18.8459
-17.0624
-15.0005
-12.6356
-10.0323
-19.9519
-19.9952
-20.0691
-20.1565
-20.2518
-20.3542
-20.4601
-20.562
-20.648
-20.7014
-20.7032
-20.6351
-20.4796
-20.2186
-19.8321
-19.2987
-18.5962
-17.7024
-16.5954
-15.2568
-13.6713
-11.8281
-9.70105
-7.3462
-15.8034
-15.8432
-15.913
-15.9951
-16.0853
-16.1827
-16.2847
-16.3846
-16.4723
-16.5334
-16.5503
-16.5062
-16.3849
-16.1696
-15.8428
-15.3851
-14.7759
-13.9945
-13.0204
-11.8355
-10.4243
-8.77533
-6.86347
-4.73505
-11.9286
-11.9653
-12.0312
-12.1086
-12.1938
-12.2865
-12.3841
-12.4814
-12.5693
-12.6353
-12.6637
-12.6389
-12.5457
-12.3689
-12.0925
-11.6989
-11.1694
-10.4848
-9.62618
-8.57518
-7.31616
-5.83752
-4.11353
-2.18562
-8.30119
-8.33484
-8.39727
-8.47027
-8.5507
-8.6388
-8.7324
-8.82672
-8.91433
-8.98392
-9.02152
-9.01245
-8.94265
-8.7982
-8.56442
-8.2255
-7.76431
-7.1629
-6.40346
-5.46897
-4.34381
-3.01536
-1.45799
0.284415
-4.89866
-4.9299
-4.9889
-5.05768
-5.13384
-5.21757
-5.30709
-5.39833
-5.48471
-5.55633
-5.60058
-5.60408
-5.55358
-5.43624
-5.23885
-4.94668
-4.54408
-4.01474
-3.34224
-2.50994
-1.50282
-0.308818
1.09852
2.66335
-1.70065
-1.73027
-1.78575
-1.85057
-1.92252
-2.00214
-2.08766
-2.17562
-2.26032
-2.33312
-2.38269
-2.39641
-2.36215
-2.26795
-2.1013
-1.84919
-1.49742
-1.03048
-0.433039
0.310044
1.21327
2.2892
3.56409
4.99411
1.30977
1.2814
1.22934
1.16843
1.10028
1.02465
0.942873
0.858127
0.775399
0.702314
0.649107
0.627283
0.648316
0.723379
0.863626
1.08123
1.38956
1.80231
2.33384
2.99876
3.81061
4.78151
5.9375
7.23172
4.14883
4.12178
4.07293
4.01557
3.95112
3.87925
3.80133
3.71999
3.63966
3.56705
3.51132
3.48308
3.49302
3.55153
3.66929
3.85739
4.12765
4.49321
4.96761
5.56375
6.29496
7.17263
8.22141
9.41945
6.83139
6.80557
6.75969
6.70566
6.64464
6.57632
6.50186
6.42378
6.34577
6.27386
6.21638
6.18308
6.18398
6.22888
6.32736
6.48975
6.7274
7.05202
7.47615
8.01262
8.67383
9.47157
10.4291
11.5454
9.37026
9.34562
9.30247
9.2515
9.19365
9.1287
9.05777
8.98291
8.90758
8.83703
8.77868
8.7415
8.73488
8.76793
8.84991
8.99031
9.19922
9.48789
9.86805
10.3516
10.9511
11.678
12.5526
13.5956
11.7771
11.7536
11.7129
11.6648
11.61
11.5482
11.4805
11.4087
11.3359
11.2666
11.2078
11.1677
11.1549
11.1781
11.2458
11.3669
11.5509
11.8081
12.1494
12.5859
13.1289
13.7898
14.5837
15.5219
14.0622
14.0398
14.0014
13.9559
13.9039
13.8451
13.7805
13.7118
13.6416
13.5742
13.5155
13.4732
13.4554
13.4703
13.5257
13.6301
13.7922
14.0215
14.3279
14.7222
15.2149
15.8159
16.5376
17.3938
16.2351
16.2138
16.1776
16.1346
16.0852
16.0293
15.9677
15.9019
15.8343
15.7685
15.7101
15.6662
15.6443
15.652
15.697
15.7867
15.9295
16.1343
16.4105
16.7677
17.2158
17.7651
18.4279
19.2232
18.3043
18.2839
18.2498
18.209
18.1621
18.1088
18.0499
17.9869
17.9218
17.8579
17.8004
17.7555
17.7303
17.7322
17.768
17.8451
17.9712
18.1543
18.4034
18.728
19.1374
19.6418
20.2524
20.9917
20.2775
20.2581
20.2258
20.1872
20.1426
20.0919
20.0357
19.9754
19.9128
19.8509
19.7942
19.7486
19.7208
19.7175
19.7456
19.8116
19.9228
20.0869
20.3122
20.6071
20.9807
21.4427
22.0046
22.6809
22.1616
22.1431
22.1126
22.0759
22.0335
21.9851
21.9315
21.8737
21.8135
21.7535
21.6979
21.652
21.6222
21.6149
21.6361
21.6924
21.7906
21.9376
22.1411
22.4095
22.7502
23.1719
23.6868
24.3094
23.9632
23.9455
23.9166
23.8818
23.8414
23.7953
23.7441
23.6888
23.631
23.5731
23.5188
23.473
23.4416
23.4306
23.446
23.494
23.5806
23.7127
23.8977
24.1433
24.4582
24.8521
25.3376
25.9974
25.6878
25.671
25.6435
25.6105
25.572
25.528
25.4791
25.4261
25.3704
25.3144
25.2613
25.2158
25.1832
25.1694
25.1799
25.2204
25.2969
25.4156
25.5832
25.8071
26.0945
26.4545
26.8955
27.4282
27.3408
27.3248
27.2988
27.2674
27.2307
27.1888
27.142
27.0913
27.0379
26.9839
26.9323
26.8873
26.8539
26.8377
26.8439
26.8778
26.9451
27.0515
27.2033
27.4067
27.6682
27.9933
28.3866
28.8893
28.927
28.9118
28.8871
28.8572
28.8223
28.7822
28.7375
28.6889
28.6376
28.5854
28.5351
28.4908
28.4569
28.4387
28.4414
28.4698
28.5293
28.6252
28.7634
28.9496
29.1892
29.4876
29.8463
30.2842
30.4508
30.4364
30.4129
30.3845
30.3512
30.3129
30.2702
30.2237
30.1744
30.1242
30.0755
30.0319
29.9979
29.9784
29.978
30.0017
30.0547
30.1419
30.2689
30.4416
30.6659
30.9485
31.2934
31.7055
31.9162
31.9026
31.8804
31.8533
31.8215
31.7849
31.744
31.6995
31.6522
31.6038
31.5566
31.514
31.4799
31.4592
31.4564
31.4762
31.5232
31.6028
31.7204
31.8812
32.0907
32.3607
32.7155
33.0215
33.327
33.3143
33.2931
33.2673
33.2369
33.202
33.1629
33.1201
33.0747
33.0281
32.9823
32.9405
32.9067
32.8852
32.8803
32.8966
32.9389
33.0121
33.1219
33.2752
33.4795
33.7437
34.0942
34.7697
34.6864
34.6748
34.6546
34.63
34.601
34.5676
34.5301
34.4891
34.4455
34.4005
34.3562
34.3155
34.2818
34.2594
34.2525
34.2655
34.3027
34.3691
34.47
34.6117
34.8024
35.0502
35.3511
35.7328
35.9979
35.9873
35.9681
35.9445
35.9168
35.8848
35.8488
35.8095
35.7675
35.724
35.681
35.641
35.6074
35.5843
35.5754
35.585
35.6171
35.6762
35.7669
35.8941
36.0635
36.2805
36.5373
36.802
37.2644
37.2547
37.2364
37.2138
37.1872
37.1566
37.1221
37.0843
37.0439
37.0019
36.9602
36.9212
36.8879
36.864
36.8533
36.8597
36.8872
36.9395
37.0208
37.1356
37.2881
37.4822
37.718
37.9707
38.4884
38.4796
38.4621
38.4405
38.4151
38.3857
38.3526
38.3162
38.2773
38.2368
38.1963
38.158
38.1249
38.1006
38.0886
38.0924
38.1157
38.1625
38.2367
38.3426
38.4849
38.6685
38.895
39.1619
39.6726
39.6645
39.6478
39.6271
39.6027
39.5745
39.5427
39.5078
39.4703
39.4311
39.3919
39.3546
39.322
39.2973
39.284
39.2856
39.3055
39.3473
39.4146
39.5115
39.642
39.8097
40.0169
40.2252
40.8191
40.8116
40.7956
40.7759
40.7525
40.7254
40.6948
40.6612
40.6251
40.5873
40.5493
40.5129
40.4807
40.4559
40.4417
40.4414
40.4582
40.4957
40.5572
40.6464
40.7673
40.9231
41.1144
41.3314
41.9298
41.9228
41.9076
41.8886
41.8662
41.8402
41.8109
41.7785
41.7438
41.7073
41.6705
41.6351
41.6035
41.5787
41.5638
41.5618
41.5762
41.6099
41.6664
41.7491
41.8614
42.007
42.1905
42.3589
43.0069
43.0004
42.9858
42.9677
42.9461
42.9212
42.893
42.8619
42.8284
42.7932
42.7576
42.7232
42.6924
42.6677
42.6523
42.6493
42.6614
42.6922
42.7446
42.822
42.9281
43.0654
43.2385
43.4409
44.0517
44.0455
44.0316
44.0143
43.9936
43.9697
43.9426
43.9127
43.8805
43.8466
43.8121
43.7787
43.7485
43.7242
43.7085
43.7044
43.715
43.7432
43.7923
43.8659
43.9678
44.1023
44.2747
44.4767
45.0668
45.061
45.0476
45.0309
45.011
44.988
44.9619
44.9331
44.9021
44.8694
44.8361
44.8038
44.7744
44.7504
44.7345
44.7295
44.7384
44.7645
44.8104
44.8798
44.9768
45.1053
45.2704
45.4508
46.0523
46.0468
46.034
46.018
45.9989
45.9768
45.9517
45.924
45.8941
45.8626
45.8305
45.7991
45.7703
45.7466
45.7306
45.725
45.7327
45.7564
45.7992
45.8644
45.9554
46.0757
46.2288
46.3899
47.0104
47.0051
46.9929
46.9776
46.9593
46.9381
46.914
46.8873
46.8585
46.8281
46.797
46.7667
46.7387
46.7154
46.6992
46.693
46.6995
46.7212
46.7614
46.8232
46.9105
47.0271
47.1784
47.3533
47.9425
47.9374
47.9258
47.9112
47.8936
47.8732
47.85
47.8244
47.7966
47.7673
47.7372
47.7077
47.6804
47.6574
47.6413
47.6345
47.6396
47.6594
47.6971
47.7556
47.8391
47.9522
48.1008
48.2768
48.85
48.8451
48.8339
48.8199
48.803
48.7833
48.761
48.7363
48.7095
48.6811
48.652
48.6232
48.5966
48.5739
48.5577
48.5502
48.5541
48.5719
48.6066
48.6612
48.7391
48.844
48.9795
49.1225
49.7343
49.7296
49.7188
49.7053
49.689
49.67
49.6485
49.6246
49.5986
49.5712
49.5429
49.515
49.4889
49.4665
49.4502
49.4421
49.4446
49.4604
49.4921
49.5423
49.6144
49.7116
49.8373
49.9636
50.5951
50.5907
50.5805
50.5675
50.5519
50.5337
50.5129
50.4899
50.4648
50.4383
50.4109
50.3837
50.3581
50.3361
50.3196
50.3108
50.3121
50.326
50.3547
50.4014
50.4688
50.5604
50.6814
50.8024
51.4354
51.4312
51.4213
51.4087
51.3936
51.376
51.3559
51.3337
51.3095
51.2838
51.2572
51.2308
51.2058
51.184
51.1673
51.158
51.1581
51.1701
51.1963
51.2393
51.3023
51.3878
51.5005
51.6393
52.2549
52.2508
52.2414
52.2293
52.2148
52.1978
52.1784
52.1569
52.1335
52.1086
52.0829
52.0571
52.0326
52.011
51.9942
51.9843
51.9833
51.9934
52.0168
52.0559
52.1137
52.193
52.2942
52.3872
53.0549
53.0509
53.0418
53.0303
53.0163
53
52.9813
52.9606
52.938
52.9138
52.8889
52.8639
52.8399
52.8186
52.8018
52.7913
52.7894
52.7977
52.8184
52.8538
52.9061
52.9781
53.0751
53.1461
53.8366
53.8328
53.8242
53.8131
53.7997
53.7839
53.766
53.7459
53.724
53.7007
53.6764
53.652
53.6286
53.6076
53.5908
53.5798
53.5767
53.5832
53.6013
53.6323
53.6776
53.7371
53.8139
53.8537
54.601
54.5973
54.5889
54.5783
54.5653
54.5501
54.5328
54.5134
54.4923
54.4697
54.4462
54.4225
54.3997
54.3791
54.3624
54.3513
54.3476
54.3531
54.3701
54.4006
54.4476
54.513
54.6066
54.8233
55.3492
55.3456
55.3376
55.3273
55.3147
55.3
55.2832
55.2645
55.244
55.2221
55.1993
55.1762
55.154
55.1337
55.1172
55.1059
55.1015
55.106
55.1208
55.1473
55.1873
55.2411
55.3001
55.2348
56.0802
56.0768
56.0692
56.0594
56.0474
56.0332
56.0171
55.999
55.9793
55.9582
55.9361
55.9138
55.8921
55.8725
55.8562
55.8448
55.84
55.8436
55.8569
55.8819
55.9199
55.9693
56.0308
56.209
56.7969
56.7937
56.7862
56.7767
56.765
56.7513
56.7357
56.7183
56.6992
56.6788
56.6576
56.636
56.615
56.5959
56.5799
56.5686
56.5638
56.5669
56.5793
56.6026
56.6383
56.6881
56.7507
56.6986
57.4985
57.4953
57.4882
57.479
57.4679
57.4547
57.4396
57.4228
57.4044
57.3847
57.3642
57.3434
57.3231
57.3045
57.2891
57.2782
57.2735
57.2766
57.2892
57.3129
57.3494
57.3992
57.4702
57.6343
58.1858
58.1828
58.1759
58.1671
58.1564
58.1437
58.1292
58.113
58.0952
58.0763
58.0565
58.0365
58.0169
57.999
57.9841
57.9737
57.9693
57.9724
57.9847
58.0079
58.0437
58.0935
58.1542
58.122
58.8596
58.8567
58.8501
58.8417
58.8314
58.8192
58.8053
58.7897
58.7726
58.7543
58.7352
58.7158
58.6969
58.6797
58.6653
58.6552
58.651
58.6543
58.6671
58.691
58.7285
58.7829
58.8629
58.973
59.5211
59.5181
59.5117
59.5035
59.4935
59.4817
59.4682
59.4531
59.4366
59.4189
59.4004
59.3817
59.3635
59.3468
59.3329
59.3232
59.3193
59.3228
59.3356
59.3601
59.3993
59.4573
59.5428
59.6553
60.1691
60.1663
60.1603
60.1524
60.1428
60.1314
60.1184
60.1039
60.088
60.0709
60.053
60.0348
60.0171
60.0009
59.9874
59.9778
59.9737
59.9767
59.9883
60.0102
60.0444
60.0923
60.1544
60.1918
60.8054
60.8028
60.7969
60.7893
60.78
60.769
60.7564
60.7423
60.7269
60.7103
60.693
60.6754
60.6582
60.6425
60.6291
60.6196
60.6151
60.6175
60.6278
60.6479
60.679
60.7225
60.7802
60.8161
61.4305
61.4279
61.4221
61.4147
61.4057
61.395
61.3827
61.3691
61.3541
61.3381
61.3213
61.3042
61.2875
61.2721
61.2589
61.2495
61.245
61.2468
61.2564
61.2752
61.3045
61.3452
61.4002
61.4457
62.0435
62.0411
62.0355
62.0284
62.0197
62.0095
61.9976
61.9844
61.9698
61.9542
61.938
61.9214
61.9052
61.8901
61.8773
61.8679
61.8634
61.865
61.8744
61.8932
61.924
61.969
62.0318
62.125
62.6457
62.6433
62.6379
62.6311
62.6227
62.6127
62.6013
62.5885
62.5746
62.5595
62.5437
62.5276
62.5118
62.4971
62.4845
62.4752
62.4705
62.4716
62.4799
62.4967
62.5235
62.5609
62.6106
62.6171
63.2375
63.2352
63.2301
63.2235
63.2154
63.2058
63.1948
63.1824
63.1688
63.1542
63.1388
63.1232
63.1078
63.0934
63.081
63.0718
63.0667
63.0673
63.0748
63.0904
63.1155
63.1508
63.1964
63.2476
63.8201
63.8177
63.8127
63.8062
63.7983
63.789
63.7782
63.7662
63.753
63.7388
63.7239
63.7086
63.6936
63.6795
63.6674
63.6581
63.653
63.6533
63.6602
63.6752
63.6999
63.7361
63.7877
63.8225
64.3921
64.39
64.3852
64.379
64.3714
64.3624
64.352
64.3404
64.3276
64.3138
64.2992
64.2843
64.2697
64.2558
64.2439
64.2347
64.2294
64.2293
64.2357
64.2497
64.273
64.3071
64.3562
64.3825
64.9552
64.9532
64.9485
64.9425
64.9351
64.9264
64.9163
64.905
64.8925
64.8791
64.8651
64.8506
64.8363
64.8228
64.8109
64.8016
64.796
64.7955
64.801
64.8139
64.8353
64.8659
64.9101
64.9515
65.5105
65.5083
65.5036
65.4977
65.4905
65.4819
65.472
65.461
65.4489
65.4358
65.422
65.4079
65.3938
65.3804
65.3686
65.3594
65.3537
65.3527
65.3576
65.3701
65.3923
65.4263
65.4752
65.5656
66.0548
66.0529
66.0485
66.043
66.0361
66.028
66.0185
66.0079
65.9961
65.9834
65.97
65.9562
65.9425
65.9294
65.9176
65.9082
65.9021
65.9003
65.9041
65.9145
65.9334
65.9627
66.0045
66.029
66.593
66.591
66.5867
66.5812
66.5744
66.5664
66.5572
66.5469
66.5355
66.5231
66.5101
66.4966
66.4831
66.4701
66.4584
66.4488
66.4421
66.4392
66.441
66.4482
66.4615
66.4804
66.5037
66.5212
67.1223
67.1204
67.1163
67.1111
67.1047
67.097
67.0881
67.078
67.0669
67.0549
67.0421
67.0289
67.0157
67.003
66.9914
66.9816
66.9745
66.9709
66.9716
66.9769
66.9871
67.0023
67.0213
67.0381
67.645
67.6431
67.639
67.6339
67.6276
67.6201
67.6114
67.6017
67.5909
67.5793
67.5669
67.5541
67.5412
67.5288
67.5174
67.5078
67.5007
67.4969
67.4971
67.5012
67.5091
67.522
67.5416
67.4852
68.1596
68.1579
68.1541
68.1492
68.1432
68.136
68.1276
68.1182
68.1078
68.0965
68.0845
68.0721
68.0596
68.0476
68.0366
68.0273
68.0206
68.0171
68.0176
68.0225
68.031
68.0448
68.0769
68.1007
68.6676
68.666
68.6622
68.6575
68.6516
68.6446
68.6365
68.6274
68.6174
68.6065
68.595
68.5831
68.5711
68.5596
68.5491
68.5403
68.5343
68.5319
68.5341
68.5426
68.559
68.5828
68.6194
68.8537
69.17
69.1683
69.1645
69.1597
69.154
69.1471
69.1392
69.1303
69.1206
69.11
69.0988
69.0873
69.0757
69.0645
69.0545
69.0463
69.0408
69.0389
69.0417
69.051
69.0695
69.0977
69.1226
69.2078
69.6631
69.6615
69.6581
69.6537
69.6483
69.6419
69.6344
69.6259
69.6165
69.6063
69.5955
69.5844
69.5733
69.5626
69.5528
69.5447
69.5393
69.537
69.5388
69.5454
69.5573
69.575
69.5856
69.5058
70.1521
70.1505
70.147
70.1426
70.1373
70.131
70.1237
70.1154
70.1064
70.0966
70.0861
70.0754
70.0645
70.0541
70.0447
70.0369
70.0314
70.029
70.0306
70.0365
70.0471
70.0638
70.0921
70.1053
70.6337
70.6322
70.6289
70.6248
70.6197
70.6136
70.6066
70.5986
70.5898
70.5802
70.5701
70.5597
70.5493
70.5392
70.5302
70.5228
70.5177
70.5158
70.5182
70.5256
70.5392
70.5616
70.6034
70.6797
71.1102
71.1087
71.1054
71.1014
71.0963
71.0904
71.0835
71.0758
71.0673
71.0581
71.0483
71.0382
71.0281
71.0184
71.0097
71.0026
70.9978
70.9962
70.9987
71.0063
71.0201
71.041
71.0734
71.1514
71.58
71.5786
71.5756
71.5717
71.5669
71.5612
71.5546
71.5471
71.5388
71.5299
71.5204
71.5106
71.5008
71.4914
71.483
71.476
71.4712
71.4695
71.4716
71.4783
71.4903
71.5079
71.5294
71.5846
72.0444
72.0431
72.0401
72.0363
72.0316
72.0261
72.0196
72.0124
72.0044
71.9957
71.9866
71.9772
71.9677
71.9586
71.9503
71.9435
71.9388
71.937
71.9388
71.945
71.9561
71.973
71.9944
72.0281
72.5046
72.5031
72.5001
72.4962
72.4916
72.4861
72.4798
72.4727
72.4649
72.4564
72.4475
72.4382
72.429
72.42
72.412
72.4053
72.4007
72.3989
72.4007
72.4065
72.4171
72.4333
72.4569
72.4982
72.9566
72.9553
72.9526
72.9491
72.9448
72.9397
72.9337
72.9269
72.9193
72.9112
72.9025
72.8936
72.8847
72.876
72.8682
72.8616
72.8572
72.8555
72.8575
72.8642
72.8773
72.8991
72.9344
73.0304
73.4059
73.4045
73.4017
73.3982
73.3939
73.3889
73.383
73.3764
73.3691
73.3612
73.3528
73.3441
73.3353
73.3268
73.3191
73.3127
73.3081
73.3061
73.3075
73.3134
73.3249
73.3441
73.371
73.4284
73.849
73.8478
73.8452
73.8418
73.8378
73.8329
73.8272
73.8207
73.8136
73.8058
73.7976
73.7891
73.7805
73.7722
73.7645
73.758
73.7531
73.7504
73.7506
73.7537
73.7598
73.768
73.7737
73.7701
74.2884
74.2871
74.2845
74.2811
74.2771
74.2722
74.2667
74.2604
74.2535
74.246
74.238
74.2297
74.2213
74.2131
74.2055
74.199
74.1939
74.1909
74.1903
74.1923
74.1967
74.2031
74.209
74.2252
74.722
74.7209
74.7185
74.7153
74.7115
74.7069
74.7016
74.6955
74.6888
74.6815
74.6737
74.6656
74.6574
74.6495
74.6422
74.6358
74.6309
74.6282
74.6281
74.6312
74.6383
74.6506
74.6698
74.7438
75.1522
75.1511
75.1486
75.1455
75.1417
75.1371
75.1319
75.126
75.1195
75.1124
75.105
75.0972
75.0893
75.0816
75.0744
75.0683
75.0637
75.0611
75.0609
75.0636
75.0693
75.0776
75.0852
75.0992
75.5776
75.5765
75.5741
75.5711
75.5675
75.5631
75.5581
75.5524
75.5461
75.5392
75.532
75.5244
75.5167
75.5093
75.5024
75.4965
75.4922
75.4898
75.4902
75.4938
75.5013
75.5144
75.5315
75.5925
75.9982
75.9972
75.995
75.9922
75.9887
75.9846
75.9797
75.9742
75.9681
75.9615
75.9545
75.9472
75.9399
75.9327
75.9261
75.9205
75.9164
75.9142
75.9147
75.9181
75.9247
75.9355
75.9522
75.9526
76.4164
76.4153
76.413
76.4102
76.4067
76.4026
76.3979
76.3925
76.3866
76.3802
76.3734
76.3663
76.3591
76.3521
76.3457
76.3403
76.3364
76.3345
76.3357
76.3409
76.3513
76.3689
76.4004
76.5692
76.8292
76.8282
76.8261
76.8234
76.8202
76.8162
76.8117
76.8065
76.8007
76.7944
76.7878
76.7808
76.7739
76.7671
76.7608
76.7554
76.7515
76.7496
76.7503
76.7544
76.7631
76.7786
76.7945
76.759
77.2394
77.2383
77.2362
77.2335
77.2302
77.2264
77.2219
77.2168
77.2112
77.2052
77.1986
77.1919
77.185
77.1783
77.172
77.1665
77.1622
77.1596
77.1592
77.1613
77.1661
77.1741
77.1849
77.1964
77.6447
77.6438
77.6419
77.6394
77.6363
77.6326
77.6283
77.6234
77.6179
77.612
77.6056
77.599
77.5922
77.5855
77.5792
77.5736
77.569
77.566
77.5648
77.566
77.5698
77.5769
77.5877
77.6078
78.0482
78.0472
78.0451
78.0425
78.0394
78.0357
78.0314
78.0266
78.0213
78.0155
78.0093
78.0028
77.9961
77.9896
77.9832
77.9776
77.9729
77.9696
77.9679
77.9684
77.9717
77.9777
77.9869
78.0318
78.4462
78.4454
78.4436
78.4413
78.4385
78.4351
78.431
78.4265
78.4213
78.4157
78.4097
78.4033
78.3968
78.3902
78.3839
78.3782
78.3732
78.3692
78.3665
78.3648
78.3635
78.3605
78.3472
78.2341
78.8427