/*--------------------------------*- C++ -*----------------------------------*\
| =========                 |                                                 |
| \\      /  F ield         | OpenFOAM: The Open Source CFD Toolbox           |
|  \\    /   O peration     | Version:  2.3.0                                 |
|   \\  /    A nd           | Web:      www.OpenFOAM.org                      |
|    \\/     M anipulation  |                                                 |
\*---------------------------------------------------------------------------*/
FoamFile
{
    version     2.0;
    format      ascii;
    class       volScalarField;
    location    "1000";
    object      nuTilda;
}
// * * * * * * * * * * * * * * * * * * * * * * * * * * * * * * * * * * * * * //

dimensions      [0 2 -1 0 0 0 0];

internalField   nonuniform List<scalar> 
38546
(
0.071513
0.0698196
0.0681154
0.0664067
0.0646954
0.0629828
0.0612703
0.0595589
0.0578495
0.0561433
0.0544414
0.0527445
0.0510536
0.0493691
0.0476919
0.0460227
0.0443621
0.0427109
0.0410692
0.0394371
0.0378154
0.0362042
0.0346036
0.033014
0.0314358
0.0298693
0.0283149
0.0267728
0.0252434
0.023728
0.0222274
0.0207424
0.0192745
0.0178281
0.016406
0.0150125
0.0136563
0.012347
0.0110984
0.00992054
0.00881389
0.00769614
0.00598177
0.0724757
0.0709587
0.0694354
0.0679088
0.0663798
0.0648486
0.063316
0.061783
0.0602498
0.0587172
0.0571857
0.055656
0.0541283
0.052603
0.0510808
0.049562
0.0480474
0.0465373
0.0450316
0.043531
0.0420357
0.0405459
0.0390623
0.0375851
0.0361151
0.0346525
0.0331988
0.0317548
0.030322
0.0289031
0.0274999
0.0261148
0.0247533
0.0234213
0.0221243
0.0208719
0.0196762
0.0185497
0.0175087
0.0165699
0.0157528
0.0150737
0.0145428
0.0733715
0.0720136
0.0706492
0.0692815
0.0679103
0.0665361
0.0651593
0.0637801
0.0623989
0.0610159
0.0596316
0.0582464
0.0568601
0.055473
0.0540856
0.0526984
0.0513117
0.0499256
0.0485406
0.0471571
0.0457754
0.0443963
0.0430201
0.0416473
0.0402788
0.0389154
0.0375588
0.0362103
0.0348726
0.0335479
0.0322392
0.0309504
0.0296872
0.0284552
0.0272614
0.0261161
0.0250285
0.02401
0.0230743
0.0222334
0.0214998
0.0208831
0.0203921
0.0742055
0.0729889
0.0717644
0.0705348
0.0693008
0.0680625
0.0668199
0.0655732
0.0643225
0.0630678
0.0618098
0.0605483
0.059283
0.0580142
0.0567422
0.0554671
0.0541893
0.0529091
0.0516271
0.0503436
0.0490592
0.0477747
0.0464902
0.0452067
0.043925
0.0426465
0.0413728
0.0401053
0.0388467
0.0376001
0.0363686
0.0351565
0.0339692
0.0328123
0.0316931
0.0306203
0.0296026
0.028651
0.0277767
0.0269886
0.0262965
0.0257091
0.0252315
0.074988
0.073891
0.0727874
0.071678
0.0705629
0.0694419
0.0683151
0.0671824
0.0660435
0.0648989
0.0637488
0.0625928
0.0614311
0.0602633
0.0590892
0.0579094
0.0567238
0.0555331
0.0543381
0.0531392
0.0519368
0.0507319
0.0495248
0.0483167
0.0471085
0.0459011
0.0446965
0.0434965
0.0423038
0.0411214
0.0399527
0.0388014
0.0376732
0.0365738
0.0355094
0.0344884
0.0335195
0.0326129
0.0317771
0.031021
0.0303544
0.0297829
0.0293126
0.0757153
0.0747224
0.0737239
0.072719
0.0717071
0.0706878
0.0696611
0.0686263
0.0675836
0.0665331
0.0654746
0.0644088
0.0633356
0.0622539
0.0611637
0.0600649
0.0589573
0.0578424
0.0567205
0.0555922
0.0544585
0.0533203
0.0521782
0.0510336
0.0498872
0.0487395
0.047592
0.0464475
0.0453091
0.0441797
0.0430626
0.041961
0.0408801
0.0398251
0.0388029
0.0378207
0.0368872
0.0360117
0.0352022
0.0344682
0.0338178
0.0332566
0.0327901
0.0763806
0.0754846
0.0745793
0.0736658
0.0727434
0.0718125
0.0708727
0.0699223
0.0689624
0.0679921
0.0670119
0.0660227
0.065025
0.0640178
0.0629997
0.0619698
0.060929
0.0598779
0.0588178
0.0577486
0.0566719
0.0555893
0.0545016
0.0534106
0.0523164
0.0512195
0.0501202
0.0490215
0.0479273
0.0468417
0.0457678
0.0447083
0.043666
0.0426472
0.041658
0.040706
0.039799
0.0389459
0.0381558
0.0374372
0.0367981
0.0362445
0.0357806
0.0769956
0.076184
0.07536
0.0745261
0.0736816
0.0728267
0.0719644
0.0710852
0.070198
0.0692962
0.0683831
0.067458
0.0665242
0.0655818
0.0646275
0.0636567
0.0626728
0.0616751
0.0606683
0.0596497
0.0586194
0.0575827
0.0565404
0.0554934
0.0544436
0.0533913
0.0523348
0.0512736
0.0502145
0.049164
0.0481269
0.0471046
0.0460961
0.0451071
0.0441441
0.0432174
0.0423298
0.0414929
0.0407168
0.0400096
0.0393794
0.0388328
0.0383707
0.0775674
0.076827
0.0760713
0.0753051
0.0745301
0.073737
0.0729533
0.0721266
0.0713075
0.0704604
0.0696065
0.068733
0.0678499
0.0669592
0.0660657
0.0651462
0.0642167
0.063261
0.0622993
0.0613279
0.0603324
0.0593311
0.0583258
0.0573116
0.0562955
0.0552822
0.0542671
0.0532374
0.0522039
0.0511787
0.0501701
0.049184
0.0482104
0.0472494
0.0463072
0.0454021
0.0445304
0.0437074
0.0429436
0.0422454
0.0416215
0.0410857
0.0406232
0.00518834
0.00581514
0.00660307
0.00736957
0.00810895
0.00883264
0.00954782
0.0102605
0.0109754
0.0116967
0.0124277
0.0131712
0.0139291
0.014701
0.0154875
0.016286
0.0170934
0.0179092
0.0187384
0.0196009
0.0205102
0.0214646
0.0224591
0.0234876
0.0245477
0.0256385
0.0267605
0.0279112
0.029089
0.0302917
0.0315184
0.0327681
0.0340404
0.0353346
0.0366501
0.0379868
0.0393441
0.0407216
0.0421187
0.0435352
0.0449711
0.0464271
0.0479048
0.0141682
0.0139485
0.0138772
0.0139392
0.0141237
0.0144138
0.0147973
0.0152596
0.0157916
0.0163813
0.0170216
0.0177051
0.0184256
0.0191796
0.0199613
0.0207682
0.0215971
0.0224474
0.0233194
0.0242131
0.0251293
0.0260671
0.0270242
0.0280014
0.0289971
0.0300116
0.0310444
0.032095
0.0331631
0.0342487
0.0353507
0.0364699
0.0376057
0.0387579
0.0399266
0.0411117
0.0423129
0.0435303
0.0447634
0.0460119
0.0472764
0.0485582
0.0498643
0.0200225
0.0197717
0.0196375
0.0196192
0.0197092
0.0199013
0.0201834
0.0205478
0.0209828
0.0214812
0.022033
0.0226332
0.0232747
0.0239521
0.0246611
0.0253989
0.0261621
0.0269481
0.0277556
0.0285829
0.0294289
0.030292
0.0311722
0.0320673
0.0329777
0.0339027
0.0348418
0.0357946
0.0367608
0.0377401
0.0387325
0.0397377
0.0407559
0.0417867
0.0428302
0.0438865
0.0449556
0.0460374
0.0471314
0.0482375
0.0493554
0.0504849
0.0516258
0.024863
0.0245994
0.0244417
0.0243886
0.0244361
0.024578
0.0248066
0.0251127
0.0254885
0.0259257
0.0264177
0.0269574
0.0275384
0.0281559
0.0288061
0.0294844
0.0301875
0.0309139
0.0316602
0.0324247
0.0332059
0.0340023
0.0348128
0.0356362
0.0364719
0.0373195
0.0381779
0.0390472
0.0399263
0.0408157
0.041715
0.0426239
0.0435425
0.0444706
0.0454085
0.046356
0.0473133
0.04828
0.0492558
0.0502403
0.0512332
0.0522334
0.0532384
0.0289426
0.0286714
0.0284996
0.0284263
0.028448
0.0285591
0.0287519
0.0290196
0.0293547
0.0297497
0.0301984
0.0306931
0.0312289
0.0318008
0.0324046
0.0330357
0.0336914
0.0343687
0.0350646
0.0357773
0.0365045
0.0372451
0.0379974
0.0387607
0.0395341
0.0403166
0.0411073
0.0419062
0.0427126
0.0435266
0.0443476
0.0451754
0.0460104
0.0468521
0.0477007
0.0485566
0.0494193
0.0502882
0.0511633
0.0520441
0.0529302
0.0538214
0.054717
0.0324193
0.0321431
0.0319623
0.031876
0.0318805
0.0319702
0.032139
0.0323796
0.0326849
0.0330491
0.0334647
0.0339255
0.0344265
0.0349631
0.0355306
0.0361252
0.036743
0.0373806
0.0380352
0.0387049
0.0393879
0.0400818
0.0407864
0.0414997
0.0422211
0.042949
0.043683
0.0444233
0.0451689
0.0459195
0.0466749
0.0474346
0.0481989
0.0489678
0.0497419
0.0505201
0.0513025
0.0520886
0.0528775
0.0536695
0.054464
0.0552608
0.0560611
0.0354089
0.0351289
0.034942
0.0348464
0.0348392
0.0349145
0.0350657
0.0352855
0.0355681
0.0359083
0.0362989
0.0367337
0.0372073
0.0377155
0.0382561
0.0388223
0.0394093
0.0400135
0.0406333
0.041268
0.0419143
0.0425699
0.0432345
0.0439066
0.0445841
0.0452664
0.0459528
0.0466442
0.0473387
0.048036
0.0487361
0.0494382
0.0501429
0.0508512
0.0515622
0.0522749
0.0529889
0.053704
0.0544194
0.0551349
0.0558502
0.0565653
0.0572816
0.0379978
0.0377142
0.0375233
0.0374212
0.037408
0.0374734
0.0376095
0.0378116
0.0380755
0.0383995
0.0387708
0.039183
0.0396338
0.0401218
0.0406443
0.0411862
0.0417457
0.042321
0.0429114
0.0435194
0.0441347
0.0447573
0.04539
0.0460277
0.0466677
0.0473105
0.0479564
0.0486095
0.049259
0.0499114
0.0505654
0.0512184
0.0518727
0.0525311
0.0531892
0.0538454
0.0545016
0.0551554
0.0558074
0.0564575
0.0571038
0.0577472
0.0583898
0.0402515
0.0399629
0.0397735
0.0396637
0.0396555
0.0397104
0.0398309
0.0400156
0.0402652
0.0405836
0.040933
0.0413233
0.0417575
0.0422324
0.0427501
0.0432575
0.0437945
0.0443428
0.0449084
0.045501
0.0460811
0.046679
0.04729
0.0478942
0.0485011
0.0491111
0.0497231
0.0503514
0.0509506
0.0515746
0.0521876
0.0527973
0.0534108
0.0540327
0.0546416
0.0552502
0.0558597
0.0564602
0.057058
0.0576536
0.0582386
0.0588211
0.059403
0.021038
0.019873
0.0187577
0.0176893
0.016666
0.0156866
0.0147495
0.0138535
0.0129974
0.0121797
0.0113995
0.0106555
0.00994653
0.00927179
0.00863023
0.00802112
0.00744394
0.00689808
0.00638354
0.00590083
0.00545111
0.00503679
0.00466244
0.00433431
0.00405091
0.00380175
0.00357702
0.00336972
0.00317499
0.00298895
0.00280885
0.00263185
0.00245564
0.00227805
0.00209681
0.00190971
0.00171455
0.00150937
0.00129234
0.00106146
0.000812507
0.00056402
0.000830272
0.0210333
0.0199528
0.0189154
0.0179184
0.0169602
0.0160392
0.0151543
0.0143043
0.0134882
0.0127051
0.0119539
0.0112336
0.0105432
0.00988209
0.00924945
0.00864465
0.00806705
0.00751626
0.00699195
0.00649433
0.00602405
0.00558231
0.00517165
0.00479647
0.00446282
0.0041698
0.00390949
0.00367414
0.00345739
0.00325426
0.00306062
0.00287299
0.00268852
0.00250432
0.00231784
0.00212638
0.00192744
0.00171854
0.00149745
0.00126434
0.00106533
0.0013703
0.00263278
0.0210316
0.0200359
0.0190743
0.0181461
0.0172503
0.0163855
0.0155507
0.014745
0.0139675
0.0132177
0.0124944
0.011797
0.0111249
0.0104773
0.00985369
0.0092535
0.00867641
0.00812198
0.00758991
0.00708043
0.00659354
0.00612999
0.0056913
0.00528022
0.0049022
0.00456402
0.00426266
0.00399186
0.00374559
0.00351855
0.00330588
0.00310323
0.00290684
0.00271324
0.0025192
0.00232166
0.00211751
0.00190387
0.00168029
0.00147593
0.00160755
0.00284954
0.00474808
0.0210359
0.0201163
0.0192244
0.0183595
0.017521
0.0167078
0.0159192
0.0151545
0.0144129
0.0136938
0.0129966
0.0123208
0.0116659
0.0110313
0.0104167
0.0098216
0.00924576
0.00868899
0.008151
0.00763199
0.00713197
0.00665144
0.00619134
0.00575331
0.00534125
0.00496218
0.00462066
0.00431254
0.00403287
0.00377719
0.00354075
0.00331893
0.00310731
0.0029016
0.00269797
0.00249267
0.00228217
0.00206377
0.00184647
0.00176208
0.00252668
0.00453371
0.00679489
0.0210463
0.0201936
0.0193644
0.0185571
0.0177708
0.0170048
0.0162582
0.0155308
0.014822
0.0141312
0.0134582
0.0128024
0.0121635
0.0115413
0.0109355
0.0103456
0.0097717
0.00921357
0.0086711
0.0081444
0.00763375
0.00713947
0.00666206
0.00620301
0.00576469
0.00535248
0.0049745
0.00463054
0.00431696
0.00403034
0.00376704
0.0035228
0.00329295
0.00307281
0.00285773
0.00264333
0.00242562
0.00220374
0.00201107
0.00217898
0.00365146
0.00614692
0.00867088
0.0210577
0.0202674
0.0194951
0.0187398
0.0180009
0.0172775
0.0165694
0.0158761
0.0151971
0.0145324
0.0138814
0.013244
0.0126201
0.0120093
0.0114117
0.0108269
0.0102551
0.00969628
0.00915041
0.00861753
0.00809805
0.00759224
0.0071006
0.00662425
0.00616503
0.0057266
0.00531667
0.00494022
0.00459447
0.00427708
0.00398567
0.00371692
0.00346662
0.00323001
0.00300193
0.00277734
0.00255199
0.00232884
0.00218839
0.00271764
0.00479788
0.00761524
0.0103579
0.0210735
0.0203381
0.019617
0.0189088
0.0182128
0.0175283
0.016855
0.0161926
0.0155411
0.0149002
0.0142693
0.0136489
0.0130387
0.0124386
0.0118486
0.0112688
0.0106994
0.0101401
0.00959132
0.00905318
0.00852611
0.00801052
0.00750676
0.00701575
0.00653897
0.00607928
0.00564267
0.00523727
0.00486216
0.00451568
0.00419655
0.00390265
0.00363069
0.00337615
0.00313369
0.00289794
0.00266463
0.00244351
0.00238688
0.00332611
0.00587289
0.00893125
0.0118646
0.02109
0.0204049
0.0197303
0.0190649
0.0184083
0.0177591
0.0171172
0.0164836
0.0158575
0.0152383
0.0146261
0.0140215
0.0134241
0.0128334
0.0122504
0.0116756
0.0111088
0.0105496
0.00999788
0.00945444
0.00892062
0.00839667
0.0078826
0.00737889
0.00688671
0.00640828
0.00594908
0.00551816
0.00511672
0.00474319
0.00439756
0.00407917
0.00378518
0.00351183
0.00325459
0.0030075
0.00276594
0.00255025
0.00260476
0.00394976
0.00685006
0.0101061
0.0132074
0.0211051
0.0204665
0.0198348
0.0192069
0.0185892
0.0179737
0.0173575
0.0167511
0.0161514
0.0155537
0.0149586
0.0143698
0.0137864
0.0132046
0.0126263
0.0120561
0.0114947
0.0109402
0.0103865
0.00983372
0.00929238
0.00876251
0.00824247
0.00773268
0.00723212
0.00673473
0.00624924
0.00579319
0.00537256
0.0049743
0.00459839
0.00425269
0.00393834
0.00364437
0.00336634
0.00310467
0.00285934
0.00265398
0.00285473
0.00459353
0.00774476
0.011161
0.014405
0.00169295
0.00249005
0.00312349
0.00373449
0.00450291
0.00536209
0.00628771
0.00727385
0.00831553
0.00940932
0.0105507
0.0117382
0.0129697
0.0142423
0.0155574
0.0169124
0.0183085
0.0197462
0.0212256
0.0227488
0.0243164
0.025932
0.0275965
0.0293129
0.0310842
0.0329146
0.0348081
0.0367687
0.0388025
0.0409148
0.043112
0.045401
0.0477895
0.0502859
0.052899
0.0556385
0.0585147
0.0615388
0.0647222
0.0680775
0.071612
0.0753309
0.0792388
0.00408289
0.00533446
0.00642422
0.00740692
0.00832118
0.00919856
0.010106
0.0111051
0.0121832
0.0133183
0.0145017
0.0157276
0.0169929
0.0182951
0.0196319
0.0210025
0.0224063
0.0238427
0.0253136
0.0268189
0.0283605
0.0299401
0.0315604
0.0332234
0.0349334
0.0366929
0.0385066
0.0403789
0.0423145
0.044319
0.0463982
0.0485581
0.0508055
0.0531476
0.055592
0.0581467
0.0608203
0.0636217
0.0665602
0.0696457
0.0728854
0.0762824
0.0798388
0.00655099
0.00816022
0.00960375
0.0109126
0.0121174
0.0132469
0.0143296
0.0153923
0.0164604
0.0175615
0.0187133
0.019916
0.0211616
0.022444
0.0237587
0.0251043
0.0264777
0.0278803
0.0293112
0.0307716
0.0322632
0.0337865
0.0353443
0.0369398
0.0385757
0.0402558
0.0419836
0.0437633
0.0455995
0.0474973
0.0494613
0.0514973
0.0536107
0.0558077
0.0580947
0.0604783
0.0629654
0.0655629
0.0682784
0.0711195
0.074093
0.0772013
0.080444
0.0088765
0.0107623
0.0124774
0.0140446
0.0154897
0.0168374
0.01811
0.019328
0.0205124
0.0216813
0.0228519
0.0240368
0.0252458
0.0264844
0.0277534
0.0290509
0.0303753
0.0317253
0.0331011
0.0345033
0.0359328
0.0373913
0.0388809
0.0404038
0.0419638
0.0435638
0.0452073
0.0468979
0.0486397
0.0504369
0.0522939
0.054215
0.0562051
0.0582692
0.0604124
0.0626403
0.0649582
0.0673711
0.069885
0.0725057
0.0752397
0.0780896
0.0810552
0.0109887
0.0131056
0.0150432
0.0168219
0.018465
0.0199945
0.0214309
0.0227947
0.0241004
0.0253655
0.0266035
0.0278262
0.0290452
0.030269
0.0315036
0.0327541
0.0340239
0.0353146
0.0366291
0.0379678
0.039332
0.0407232
0.0421435
0.0435953
0.0450817
0.0466057
0.0481702
0.0497784
0.0514335
0.0531393
0.0548991
0.0567163
0.0585948
0.0605387
0.0625525
0.0646404
0.0668061
0.0690532
0.0713855
0.0738077
0.0763258
0.0789431
0.0816655
0.0128831
0.0151996
0.0173268
0.0192848
0.0210944
0.0227776
0.0243539
0.0258416
0.0272564
0.0286119
0.0299216
0.0311968
0.0324478
0.0336841
0.0349123
0.0361386
0.0373692
0.0386111
0.039869
0.0411471
0.0424473
0.0437733
0.0451269
0.046512
0.0479306
0.0493847
0.0508773
0.0524112
0.0539889
0.0556132
0.0572862
0.0590102
0.0607884
0.062625
0.0645235
0.0664869
0.0685172
0.0706157
0.0727844
0.0750273
0.0773494
0.0797528
0.0822348
0.0145742
0.0170663
0.0193595
0.0214724
0.0234251
0.0252393
0.0269347
0.0285292
0.0300378
0.0314736
0.0328481
0.0341743
0.0354625
0.0367205
0.0379548
0.0391731
0.040384
0.0415943
0.0428108
0.044038
0.0452811
0.0465458
0.0478389
0.0491635
0.0505204
0.0519122
0.0533413
0.0548093
0.0563187
0.0578716
0.0594678
0.0611078
0.0627961
0.0645377
0.0663351
0.0681894
0.0701003
0.0720663
0.0740867
0.0761667
0.0783138
0.0805279
0.0828045
0.0160813
0.0187308
0.0211713
0.0234208
0.0254975
0.0274243
0.0292211
0.0309077
0.0324981
0.0340034
0.0354349
0.0368075
0.0381302
0.039409
0.0406534
0.0418744
0.0430783
0.0442698
0.0454578
0.0466462
0.0478404
0.0490521
0.0502941
0.051566
0.052866
0.0542034
0.0555776
0.0569871
0.058438
0.0599307
0.061458
0.0630198
0.0646281
0.0662875
0.0679979
0.0697586
0.0715655
0.0734134
0.0752965
0.0772272
0.0792194
0.081269
0.083367
0.0174246
0.0202156
0.0227902
0.0251623
0.0273456
0.0293699
0.0312505
0.0330179
0.0346825
0.0362491
0.0377271
0.0391371
0.0404855
0.0417805
0.0430348
0.0442746
0.0454716
0.0466471
0.0478157
0.0489749
0.0501292
0.0513002
0.0525068
0.0537294
0.0549712
0.0562676
0.0575928
0.0589482
0.0603549
0.0618001
0.063259
0.064743
0.0662864
0.0678793
0.0695181
0.071202
0.0729197
0.0746604
0.0764069
0.0781999
0.0800631
0.0819754
0.0839319
0.000369507
0.00158694
0.00296587
0.00441436
0.00590364
0.00741883
0.0089506
0.0104948
0.0120488
0.0136111
0.0151818
0.0167609
0.0183481
0.0199453
0.0215525
0.0231709
0.0248003
0.026441
0.0280942
0.0297597
0.0314371
0.0331271
0.0348295
0.0365438
0.0382699
0.0400078
0.0417566
0.0435165
0.0452863
0.0470657
0.0488535
0.0506494
0.0524522
0.0542608
0.0560743
0.0578915
0.0597111
0.0615317
0.0633524
0.0651713
0.0669871
0.0687988
0.070603
0.000195064
0.000979299
0.00202303
0.00320384
0.00447924
0.00582401
0.00722271
0.00866424
0.0101421
0.0116499
0.0131845
0.0147425
0.0163221
0.0179215
0.0195398
0.0211764
0.0228292
0.0244987
0.0261844
0.0278851
0.0296007
0.031331
0.0330751
0.0348325
0.0366031
0.0383861
0.0401811
0.0419868
0.0438031
0.045629
0.0474634
0.0493058
0.0511548
0.0530093
0.0548684
0.056731
0.0585953
0.0604602
0.0623245
0.0641864
0.0660444
0.0678965
0.0697382
0.000188903
0.000829233
0.00169798
0.00269887
0.00380358
0.00499318
0.00625415
0.00757648
0.0089525
0.0103756
0.0118406
0.0133427
0.0148788
0.0164459
0.0180414
0.0196626
0.0213084
0.0229769
0.0246669
0.0263768
0.0281056
0.0298523
0.0316162
0.0333964
0.0351915
0.0370011
0.0388242
0.0406595
0.0425067
0.0443642
0.0462314
0.0481067
0.0499892
0.0518779
0.0537712
0.0556679
0.0575667
0.059466
0.0613644
0.0632602
0.0651515
0.0670367
0.0689114
0.000195905
0.000701447
0.00145777
0.00234307
0.00333461
0.00441608
0.00557537
0.00680361
0.00809356
0.00943894
0.0108346
0.0122762
0.0137601
0.0152827
0.0168411
0.0184328
0.0200554
0.0217067
0.0233849
0.0250881
0.0268151
0.0285643
0.0303344
0.0321239
0.0339315
0.035756
0.0375963
0.0394513
0.0413196
0.0432
0.0450913
0.0469923
0.0489012
0.0508172
0.0527385
0.0546639
0.0565918
0.0585205
0.0604485
0.0623743
0.064296
0.0662113
0.0681184
0.00020467
0.000612445
0.00129226
0.00209542
0.00300287
0.00400046
0.00507767
0.00622681
0.00744121
0.00871582
0.0100462
0.011428
0.0128575
0.0143318
0.015848
0.0174031
0.0189945
0.0206201
0.0222777
0.0239652
0.0256814
0.0274238
0.0291906
0.0309806
0.0327922
0.0346234
0.0364731
0.0383402
0.0402226
0.042119
0.0440284
0.0459487
0.0478784
0.0498164
0.051761
0.0537105
0.0556634
0.0576176
0.0595721
0.0615247
0.0634739
0.0654184
0.0673597
0.00020884
0.000553327
0.00117728
0.00191734
0.00275817
0.00368724
0.00469596
0.0057774
0.0069259
0.00813711
0.00940744
0.0107329
0.0121098
0.0135362
0.0150087
0.0165245
0.0180814
0.0196772
0.0213092
0.0229756
0.0246746
0.0264038
0.0281613
0.0299456
0.0317545
0.0335862
0.0354396
0.0373128
0.0392037
0.0411109
0.0430329
0.0449677
0.0469138
0.0488695
0.0508331
0.052803
0.0547771
0.0567538
0.0587314
0.0607079
0.0626818
0.0646506
0.0666095
0.000210586
0.000510058
0.00108865
0.00177853
0.00256544
0.00343831
0.00438971
0.00541356
0.00650513
0.00766058
0.00887687
0.0101502
0.0114783
0.0128584
0.0142881
0.0157646
0.0172859
0.0188497
0.0204534
0.0220953
0.0237734
0.0254853
0.027229
0.0290028
0.0308044
0.0326325
0.0344846
0.0363591
0.038254
0.0401675
0.0420977
0.0440433
0.0460017
0.0479714
0.0499506
0.0519373
0.0539296
0.0559258
0.0579238
0.0599217
0.0619176
0.0639089
0.0658884
0.00021161
0.000475847
0.00101684
0.00166552
0.0024077
0.00323365
0.00413649
0.00511091
0.00615293
0.00725936
0.00842708
0.00965355
0.0109364
0.0122731
0.0136619
0.0150999
0.0165858
0.018117
0.0196912
0.0213067
0.0229616
0.0246533
0.0263804
0.0281403
0.0299315
0.0317515
0.0335988
0.0354709
0.037366
0.0392821
0.0412174
0.0431698
0.0451372
0.047118
0.0491096
0.0511102
0.0531181
0.055131
0.0571468
0.0591638
0.0611799
0.0631936
0.0652016
0.000212275
0.000447978
0.000957271
0.00157141
0.00227584
0.00306168
0.00392267
0.00485422
0.00585289
0.00691563
0.0080399
0.00922386
0.010465
0.0117616
0.0131116
0.0145129
0.0159639
0.0174627
0.019007
0.0205954
0.0222257
0.0238959
0.025604
0.0273479
0.0291255
0.0309351
0.0327744
0.0346412
0.0365337
0.0384496
0.0403868
0.0423433
0.0443168
0.0463053
0.0483067
0.0503189
0.0523397
0.0543669
0.0563985
0.0584322
0.0604659
0.0624972
0.0645182
0.000212756
0.000424693
0.000906898
0.00149163
0.0021637
0.00291479
0.00373923
0.00463303
0.00559321
0.00661687
0.00770213
0.00884724
0.0100502
0.0113093
0.012623
0.0139893
0.015407
0.0168743
0.0183892
0.0199503
0.0215556
0.023203
0.0248907
0.0266171
0.0283796
0.0301765
0.0320056
0.0338649
0.0357522
0.0376651
0.0396017
0.0415595
0.0435366
0.0455306
0.0475394
0.0495607
0.0515923
0.0536317
0.0556767
0.0577254
0.0597756
0.0618253
0.0638724
0.000212952
0.000404528
0.000863155
0.00142237
0.00206621
0.00278686
0.00357915
0.00443968
0.00536536
0.00635413
0.00740407
0.0085137
0.0096815
0.0109059
0.0121855
0.013519
0.0149051
0.016342
0.017828
0.019362
0.0209422
0.0225664
0.0242332
0.0259408
0.0276869
0.0294695
0.0312869
0.0331366
0.0350166
0.0369246
0.0388583
0.0408155
0.042794
0.0447914
0.0468053
0.0488336
0.0508738
0.0529231
0.0549799
0.0570416
0.0591058
0.0611706
0.0632302
0.000213161
0.000387527
0.000825824
0.00136178
0.00198067
0.00267432
0.00343802
0.00426858
0.00516335
0.00612049
0.0071384
0.00821562
0.00935095
0.0105432
0.0117911
0.0130936
0.0144495
0.0158572
0.0173155
0.0188229
0.0203781
0.0219793
0.0236247
0.0253128
0.0270415
0.028809
0.0306132
0.0324519
0.034323
0.0362243
0.0381535
0.0401082
0.0420863
0.044085
0.0461021
0.0481356
0.0501822
0.0522401
0.0543066
0.0563791
0.0584555
0.0605321
0.0626009
0.00021339
0.000372598
0.000793039
0.00130825
0.00190476
0.0025742
0.0033122
0.00411577
0.00498246
0.00591085
0.00689945
0.00794703
0.00905242
0.0102148
0.0114331
0.0127063
0.0140334
0.0154133
0.0168449
0.0183267
0.0198575
0.0214357
0.0230598
0.0247281
0.0264388
0.0281904
0.0299805
0.0318069
0.0336678
0.035561
0.0374842
0.0394347
0.0414106
0.043409
0.045428
0.0474646
0.0495163
0.0515807
0.0536552
0.0557375
0.057825
0.0599158
0.0620073
0.000213586
0.000359631
0.000763931
0.0012603
0.0018367
0.00248438
0.00319918
0.00397817
0.00481947
0.00572163
0.00668332
0.00770344
0.0087811
0.00991564
0.0111062
0.0123519
0.0136518
0.0150053
0.016411
0.017868
0.019375
0.0209306
0.0225334
0.0241819
0.0258746
0.0276096
0.0293847
0.0311982
0.0330481
0.0349321
0.0368476
0.0387928
0.0407652
0.0427619
0.0447809
0.0468192
0.0488743
0.0509439
0.053025
0.0551151
0.0572115
0.0593111
0.0614072
0.000213873
0.00034809
0.000737811
0.00121711
0.00177524
0.00240308
0.00309675
0.00385344
0.00467141
0.00554932
0.00648609
0.00748089
0.00853292
0.00964143
0.0108059
0.0120259
0.0133003
0.0146283
0.0160093
0.0174424
0.0189263
0.0204597
0.0220418
0.0236706
0.0253449
0.027063
0.0288228
0.0306227
0.0324608
0.0343345
0.0362417
0.0381804
0.0401479
0.0421417
0.0441593
0.0461979
0.0482555
0.0503285
0.0524147
0.0545111
0.0566149
0.058723
0.0608312
0.000214096
0.00033762
0.000714022
0.00117782
0.00171935
0.00232921
0.00300345
0.00373969
0.00453611
0.00539168
0.00630545
0.00727666
0.00830472
0.00938895
0.010529
0.0117245
0.0129745
0.0142786
0.0156362
0.0170462
0.0185076
0.0200197
0.0215809
0.0231903
0.0248465
0.0265476
0.0282919
0.0300777
0.0319033
0.0337662
0.0356642
0.0375952
0.0395569
0.0415465
0.0435616
0.0455997
0.0476578
0.0497332
0.0518232
0.0539247
0.0560346
0.05815
0.0602662
0.000214317
0.00032825
0.000692522
0.00114207
0.00166829
0.0022616
0.002918
0.00363523
0.00441186
0.00524683
0.00613915
0.00708835
0.00809393
0.00915542
0.0102726
0.0114449
0.0126719
0.0139533
0.0152883
0.016676
0.0181159
0.0196069
0.0211482
0.0227384
0.0243765
0.0260607
0.0277893
0.0295608
0.0313732
0.0332247
0.0351128
0.0370355
0.0389904
0.040975
0.0429866
0.0450228
0.0470806
0.0491572
0.05125
0.0533553
0.0554706
0.0575924
0.0597161
0.000214513
0.00031974
0.000672946
0.00110959
0.00162137
0.00219928
0.00283921
0.00353896
0.00429722
0.00511288
0.00598533
0.00691397
0.00789852
0.00893868
0.0100343
0.0111847
0.0123899
0.0136495
0.0149628
0.0163293
0.0177483
0.0192191
0.0207407
0.0223123
0.0239324
0.0255997
0.0273126
0.0290694
0.0308685
0.0327082
0.034586
0.0364997
0.0384471
0.0404258
0.042433
0.0444664
0.0465228
0.0485997
0.050694
0.0528025
0.0549222
0.0570499
0.0591811
0.000214734
0.000312117
0.000655083
0.00107978
0.00157797
0.00214167
0.00276637
0.00344995
0.004191
0.00498858
0.00584232
0.00675179
0.00771657
0.00873672
0.00981181
0.0109416
0.0121261
0.0133647
0.0146573
0.0160035
0.0174024
0.0188537
0.0203563
0.0219095
0.0235119
0.0251624
0.0268595
0.0286017
0.0303876
0.032215
0.0340818
0.0359861
0.0379255
0.0398976
0.0418998
0.0439293
0.0459836
0.0480597
0.0501548
0.0522656
0.054389
0.056522
0.0586604
0.000214994
0.000305517
0.000638515
0.00105213
0.00153774
0.00208821
0.00269869
0.00336706
0.00409214
0.00487293
0.00570922
0.00660048
0.0075466
0.00854765
0.00960336
0.0107137
0.0118783
0.0130971
0.0143701
0.0156965
0.0170762
0.0185085
0.0199926
0.0215278
0.0231129
0.0247469
0.0264284
0.0281562
0.0299285
0.0317433
0.0335991
0.0354934
0.0374243
0.0393892
0.0413855
0.0434107
0.045462
0.0475366
0.0496317
0.0517438
0.0538701
0.0560077
0.0581519
0.000215522
0.000301544
0.000623284
0.0010265
0.00150035
0.00203843
0.00263548
0.00328962
0.00399965
0.00476481
0.00558468
0.00645884
0.0073875
0.00837058
0.00940793
0.0104997
0.0116454
0.0128454
0.0140993
0.0154069
0.016768
0.0181817
0.019648
0.0211655
0.0227338
0.0243514
0.0260176
0.027731
0.0294895
0.0312918
0.033136
0.0350202
0.0369421
0.0388991
0.0408891
0.0429094
0.0449572
0.0470297
0.0491238
0.0512366
0.0533649
0.0555054
0.0576532
0.000216696
0.000300874
0.000609253
0.00100264
0.00146551
0.00199187
0.00257647
0.00321729
0.00391318
0.00466343
0.00546773
0.00632592
0.00723811
0.00820406
0.00922388
0.0102978
0.0114256
0.0126076
0.0138434
0.015133
0.0164759
0.0178721
0.0193206
0.0208212
0.0223728
0.0239747
0.0256256
0.0273242
0.0290692
0.030859
0.0326916
0.0345654
0.0364777
0.0384267
0.04041
0.0424247
0.0444683
0.046538
0.0486307
0.0507432
0.0528727
0.055015
0.0571652
0.000218425
0.000302389
0.000596357
0.000980425
0.00143282
0.00194828
0.00252121
0.00314951
0.003832
0.00456817
0.00535779
0.00620086
0.00709723
0.00804694
0.00905023
0.0101072
0.0112179
0.0123826
0.0136011
0.0148731
0.0161987
0.0175776
0.0190094
0.0204933
0.0220288
0.0236149
0.0252508
0.0269351
0.0286666
0.0304437
0.0322647
0.0341275
0.0360305
0.0379711
0.0399471
0.0419559
0.0439948
0.046061
0.0481516
0.0502635
0.0523935
0.054538
0.0566914
0.00022037
0.000304391
0.000584461
0.000959651
0.00140239
0.0019074
0.00246925
0.0030856
0.0037555
0.00447833
0.00525412
0.00608274
0.00696416
0.00789853
0.00888612
0.00992686
0.0110212
0.0121693
0.0133711
0.0146263
0.0159352
0.0172975
0.0187128
0.0201806
0.0217002
0.0232711
0.0248922
0.0265624
0.0282804
0.0300448
0.031854
0.0337062
0.0355993
0.0375313
0.0394997
0.041502
0.0435357
0.0455981
0.0476862
0.049797
0.0519275
0.0540753
0.0562386
0.000222204
0.000306384
0.000573434
0.000940285
0.00137394
0.0018689
0.00242014
0.00302526
0.00368325
0.00439367
0.00515626
0.00597122
0.0068383
0.00775797
0.00873045
0.00975579
0.0108345
0.0119667
0.0131523
0.0143916
0.0156844
0.0170305
0.0184298
0.0198818
0.0213861
0.022942
0.0245487
0.0262049
0.0279095
0.0296613
0.0314586
0.0332999
0.0351831
0.0371062
0.0390666
0.0410623
0.0430906
0.0451486
0.0472335
0.0493425
0.0514722
0.0536194
0.0557774
0.000223942
0.000308077
0.000563034
0.000922004
0.00134707
0.00183249
0.00237379
0.0029683
0.00361506
0.00431353
0.00506363
0.00586543
0.00671891
0.00762461
0.00858268
0.00959337
0.010657
0.0117739
0.0129441
0.0141678
0.0154449
0.0167755
0.0181594
0.0195961
0.0210854
0.0226267
0.024219
0.0258613
0.0275528
0.0292921
0.0310778
0.032908
0.0347812
0.0366951
0.0386475
0.0406362
0.0426586
0.0447118
0.0467932
0.0488997
0.0510282
0.0531754
0.0553382
0.000225629
0.000309658
0.000553497
0.000904927
0.00132171
0.00179807
0.00232987
0.00291424
0.00355023
0.00423734
0.00497554
0.00576483
0.00660554
0.00749793
0.00844223
0.00943875
0.010488
0.0115901
0.0127454
0.0139541
0.0152162
0.0165318
0.0179006
0.0193225
0.0207972
0.022324
0.0239022
0.0255311
0.0272097
0.0289367
0.0307106
0.0325299
0.0343928
0.0362974
0.0382416
0.040223
0.0422392
0.0442873
0.0463646
0.0484682
0.0505946
0.0527398
0.0548983
0.000227221
0.000310866
0.000544534
0.000888816
0.00129776
0.00176545
0.00228815
0.00286298
0.00348878
0.00416508
0.00489186
0.00566929
0.00649764
0.00737716
0.00830825
0.00929131
0.0103266
0.0114147
0.0125556
0.0137499
0.0149975
0.0162983
0.0176526
0.0190602
0.0205206
0.0220334
0.0235979
0.0252135
0.0268793
0.0285937
0.030356
0.0321643
0.0340171
0.0359124
0.0378483
0.0398221
0.0418317
0.0438744
0.0459473
0.0480475
0.0501718
0.0523165
0.0544773
0.000228562
0.000311668
0.000535998
0.000873492
0.00127494
0.00173428
0.00224842
0.0028141
0.00343016
0.00409621
0.00481217
0.00557823
0.00639476
0.00726191
0.00818034
0.00915038
0.0101725
0.011247
0.0123741
0.0135544
0.0147878
0.0160746
0.0174148
0.0188084
0.0202548
0.0217538
0.0233048
0.0249075
0.0265604
0.0282629
0.0300136
0.031811
0.0336536
0.0355395
0.0374668
0.0394328
0.0414358
0.0434727
0.045541
0.0476377
0.0497597
0.0519037
0.0540656
0.00022974
0.000312335
0.000527962
0.000858995
0.00125332
0.00170479
0.00221073
0.00276759
0.00337433
0.00403046
0.00473601
0.00549126
0.00629646
0.00715195
0.0080582
0.00901568
0.010025
0.0110863
0.0122001
0.0133669
0.0145868
0.0158599
0.0171865
0.0185662
0.019999
0.0214847
0.0230227
0.0246123
0.026253
0.0279436
0.0296827
0.0314693
0.0333015
0.035178
0.0370965
0.0390549
0.0410509
0.0430819
0.0451452
0.047238
0.0493573
0.0514996
0.0536603
0.000230937
0.000312976
0.000520381
0.000845185
0.00123276
0.00167678
0.0021747
0.00272328
0.00332107
0.00396778
0.0046634
0.00540812
0.00620238
0.00704659
0.00794111
0.00888668
0.00988362
0.0109323
0.0120334
0.0131869
0.0143936
0.0156535
0.0169667
0.0183332
0.0197529
0.0212255