/*--------------------------------*- C++ -*----------------------------------*\
| =========                 |                                                 |
| \\      /  F ield         | OpenFOAM: The Open Source CFD Toolbox           |
|  \\    /   O peration     | Version:  2.3.0                                 |
|   \\  /    A nd           | Web:      www.OpenFOAM.org                      |
|    \\/     M anipulation  |                                                 |
\*---------------------------------------------------------------------------*/
FoamFile
{
    version     2.0;
    format      ascii;
    class       volScalarField;
    location    "1000";
    object      p;
}
// * * * * * * * * * * * * * * * * * * * * * * * * * * * * * * * * * * * * * //

dimensions      [0 2 -2 0 0 0 0];

internalField   nonuniform List<scalar> 
38546
(
0.0172433
2.30471
4.1154
5.86092
7.60958
9.3539
11.0895
12.8165
14.5363
16.2508
17.9576
19.6567
21.3486
23.0322
24.7073
26.369
28.0183
29.6467
31.2535
32.8297
34.3697
35.8616
37.2973
38.661
39.9407
41.1167
42.1695
43.0665
43.7926
44.2931
44.54
44.4667
44.0043
43.0769
41.5443
39.2751
36.0715
31.6743
25.8045
17.7557
6.57812
-10.6474
-42.3296
-1.10849
0.861901
2.54367
4.16909
5.80588
7.44911
9.09377
10.7369
12.3805
14.0229
15.6646
17.3036
18.9393
20.5722
22.2003
23.824
25.4416
27.0514
28.6533
30.2456
31.8256
33.3904
34.9346
36.4521
37.9336
39.3671
40.7384
42.0232
43.1994
44.228
45.0676
45.6667
45.9584
45.8551
45.2591
44.0513
42.0799
39.1775
35.1495
29.763
22.7078
13.4953
1.21031
-2.56629
-0.797914
0.646358
2.01134
3.37638
4.73514
6.0842
7.41916
8.74109
10.0471
11.3368
12.607
13.856
15.0821
16.2809
17.4502
18.5857
19.6836
20.7379
21.7428
22.6897
23.5705
24.3742
25.0891
25.7005
26.1911
26.5417
26.725
26.7131
26.4681
25.9505
25.1081
23.8817
22.1982
19.9774
17.125
13.5347
9.09458
3.68867
-2.78831
-10.4295
-19.2598
-29.1348
-3.86157
-2.31379
-1.06574
0.11665
1.29848
2.47356
3.63971
4.79557
5.93898
7.07156
8.19067
9.29353
10.3797
11.4465
12.4895
13.5069
14.4951
15.452
16.3717
17.2496
18.0777
18.8473
19.5488
20.1699
20.6968
21.1118
21.3959
21.5268
21.4763
21.2113
20.6952
19.8846
18.7293
17.1758
15.1607
12.6169
9.47553
5.66603
1.12514
-4.19157
-10.3069
-17.1983
-24.7683
-4.92301
-3.69655
-2.65314
-1.6369
-0.622161
0.386927
1.38585
2.3739
3.34827
4.30976
5.25442
6.18344
7.09266
7.97931
8.83821
9.66608
10.4583
11.2131
11.9234
12.5862
13.1929
13.7351
14.2038
14.5837
14.8623
15.0238
15.0488
14.9157
14.6005
14.0723
13.2972
12.2383
10.8505
9.09437
6.91807
4.27102
1.10276
-2.63076
-6.96381
-11.9119
-17.4633
-23.5641
-30.1209
-5.83108
-4.95512
-4.08245
-3.21598
-2.3499
-1.4787
-0.615308
0.241215
1.08566
1.92001
2.73363
3.53959
4.32578
5.0923
5.83048
6.53626
7.20725
7.8468
8.43835
8.98522
9.47695
9.9063
10.2673
10.5417
10.7118
10.769
10.6956
10.4657
10.0661
9.46546
8.62927
7.52123
6.10341
4.34893
2.21573
-0.334193
-3.3494
-6.84058
-10.8481
-15.3661
-20.3812
-25.8417
-31.6747
-7.38009
-6.2369
-5.43882
-4.67054
-3.91373
-3.15869
-2.40608
-1.66139
-0.923822
-0.186767
0.515049
1.21827
1.91081
2.59756
3.2495
3.84152
4.38471
4.92468
5.41129
5.86326
6.25877
6.59192
6.87042
7.07254
7.15916
7.1313
6.97796
6.65396
6.17568
5.52061
4.64781
3.50906
2.05335
0.285964
-1.83122
-4.31181
-7.25018
-10.579
-14.3812
-18.6018
-23.2594
-28.2952
-33.6515
-8.41235
-7.36292
-6.68092
-6.00361
-5.31783
-4.64481
-3.95912
-3.32907
-2.69734
-2.03879
-1.44255
-0.855327
-0.278314
0.360699
1.03982
1.61813
2.04685
2.48853
2.85747
3.24094
3.54457
3.77284
3.98625
4.15089
4.192
4.13027
3.97665
3.59963
3.06367
2.38078
1.52414
0.438667
-0.998142
-2.73336
-4.83268
-7.16595
-10.0782
-13.2905
-17
-20.968
-25.3407
-30.0466
-35.061
-8.92515
-8.22158
-7.83821
-7.39916
-6.85682
-6.0714
-5.52818
-4.80547
-4.46475
-3.84823
-3.41382
-2.98608
-2.66934
-2.3409
-1.9688
-0.870505
-0.437727
0.0560228
0.244428
0.531318
0.769144
0.740878
0.744244
0.795938
0.649578
0.380314
0.281687
-0.104064
-0.628371
-1.27841
-2.08034
-3.08414
-4.53591
-6.04719
-8.13728
-10.0319
-12.9969
-15.4597
-18.9967
-22.5583
-26.5843
-30.9681
-35.816
-101.296
-111.192
-111.674
-118.073
-125.536
-130.831
-134.572
-137.602
-140.109
-142.143
-143.779
-145.125
-146.223
-147.143
-147.884
-148.474
-148.944
-149.298
-149.567
-149.746
-149.853
-149.903
-149.897
-149.853
-149.771
-149.66
-149.524
-149.369
-149.198
-149.014
-148.817
-148.614
-148.403
-148.187
-147.966
-147.742
-147.512
-147.279
-147.041
-146.801
-146.558
-146.311
-146.178
-16.4235
-35.3031
-51.7236
-65.9225
-78.1159
-88.3801
-96.9576
-104.165
-110.179
-115.192
-119.343
-122.793
-125.645
-128.009
-129.975
-131.614
-132.99
-134.152
-135.151
-136.022
-136.788
-137.475
-138.096
-138.659
-139.18
-139.66
-140.104
-140.514
-140.893
-141.242
-141.557
-141.845
-142.1
-142.325
-142.522
-142.69
-142.83
-142.942
-143.028
-143.088
-143.123
-143.114
-143.16
-39.6724
-50.0757
-59.6676
-68.3837
-76.2765
-83.3732
-89.6712
-95.2463
-100.161
-104.496
-108.316
-111.688
-114.673
-117.325
-119.686
-121.793
-123.688
-125.399
-126.938
-128.336
-129.603
-130.752
-131.796
-132.745
-133.609
-134.394
-135.105
-135.753
-136.339
-136.875
-137.358
-137.799
-138.197
-138.558
-138.886
-139.181
-139.447
-139.685
-139.896
-140.083
-140.247
-140.379
-140.572
-32.8586
-41.1929
-49.4753
-57.4882
-65.0732
-72.1342
-78.6228
-84.5326
-89.8744
-94.6781
-98.9889
-102.844
-106.294
-109.378
-112.143
-114.621
-116.847
-118.852
-120.661
-122.303
-123.792
-125.153
-126.394
-127.531
-128.576
-129.537
-130.424
-131.245
-132.003
-132.707
-133.354
-133.955
-134.511
-135.021
-135.494
-135.931
-136.33
-136.697
-137.033
-137.34
-137.62
-137.882
-138.177
-36.9841
-44.0125
-51.028
-57.8688
-64.4161
-70.5884
-76.3348
-81.6357
-86.4955
-90.9266
-94.956
-98.6136
-101.933
-104.94
-107.669
-110.154
-112.421
-114.488
-116.377
-118.111
-119.702
-121.169
-122.521
-123.765
-124.918
-125.982
-126.967
-127.883
-128.73
-129.521
-130.251
-130.93
-131.563
-132.15
-132.7
-133.21
-133.684
-134.122
-134.528
-134.902
-135.241
-135.55
-135.742
-37.7665
-44.0208
-50.3072
-56.4852
-62.4674
-68.1724
-73.5471
-78.5624
-83.2135
-87.5041
-91.4437
-95.0537
-98.355
-101.374
-104.139
-106.666
-108.985
-111.111
-113.056
-114.85
-116.506
-118.03
-119.439
-120.738
-121.944
-123.063
-124.095
-125.065
-125.968
-126.81
-127.59
-128.321
-129.003
-129.643
-130.246
-130.81
-131.336
-131.827
-132.284
-132.712
-133.103
-133.468
-133.681
-39.2276
-44.9806
-50.7397
-56.403
-61.9374
-67.2558
-72.2858
-77.01
-81.4221
-85.5224
-89.3034
-92.7817
-95.9942
-98.9457
-101.666
-104.158
-106.453
-108.573
-110.497
-112.295
-113.981
-115.523
-116.953
-118.275
-119.499
-120.642
-121.687
-122.693
-123.633
-124.499
-125.307
-126.066
-126.773
-127.45
-128.093
-128.692
-129.251
-129.775
-130.269
-130.74
-131.165
-131.559
-131.752
-40.1908
-45.6219
-51.0359
-56.3441
-61.5604
-66.5832
-71.3362
-75.8333
-80.0368
-83.9477
-87.6156
-90.9981
-94.1482
-97.0039
-99.6657
-102.135
-104.418
-106.527
-108.4
-110.252
-111.994
-113.498
-114.906
-116.242
-117.469
-118.618
-119.642
-120.703
-121.667
-122.525
-123.342
-124.107
-124.815
-125.521
-126.199
-126.814
-127.384
-127.925
-128.444
-128.947
-129.381
-129.755
-129.933
-40.5402
-45.8205
-51.2405
-56.4113
-61.413
-66.2516
-70.7874
-75.1193
-79.19
-83.0737
-86.8525
-90.2379
-93.3192
-95.9961
-98.7277
-101.33
-103.655
-105.757
-107.525
-109.849
-111.382
-112.638
-114.031
-115.366
-116.466
-117.481
-118.357
-119.743
-120.529
-121.266
-122.064
-122.743
-123.372
-124.111
-124.798
-125.328
-125.807
-126.283
-126.783
-127.293
-127.662
-127.882
-127.923
-162.541
-163.03
-163.559
-164.077
-164.592
-165.105
-165.615
-166.12
-166.622
-167.119
-167.61
-168.093
-168.569
-169.034
-169.488
-169.929
-170.356
-170.767
-171.161
-171.536
-171.894
-172.235
-172.56
-172.873
-173.177
-173.479
-173.784
-174.099
-174.432
-174.79
-175.182
-175.618
-176.105
-176.653
-177.273
-177.972
-178.764
-179.657
-180.663
-181.786
-183.025
-184.548
-187.336
-162.038
-162.481
-162.956
-163.42
-163.88
-164.336
-164.788
-165.238
-165.684
-166.129
-166.571
-167.012
-167.452
-167.892
-168.333
-168.774
-169.216
-169.661
-170.108
-170.557
-171.009
-171.463
-171.919
-172.376
-172.834
-173.291
-173.748
-174.205
-174.66
-175.116
-175.572
-176.029
-176.487
-176.949
-177.414
-177.881
-178.347
-178.808
-179.251
-179.67
-180.099
-180.91
-183.436
-161.562
-161.972
-162.402
-162.821
-163.235
-163.646
-164.055
-164.462
-164.868
-165.272
-165.675
-166.078
-166.48
-166.883
-167.288
-167.693
-168.1
-168.51
-168.922
-169.338
-169.757
-170.179
-170.603
-171.031
-171.459
-171.888
-172.316
-172.743
-173.165
-173.583
-173.993
-174.394
-174.783
-175.156
-175.508
-175.834
-176.127
-176.38
-176.582
-176.754
-177.072
-178.378
-181.659
-161.167
-161.523
-161.911
-162.292
-162.67
-163.047
-163.424
-163.799
-164.174
-164.547
-164.92
-165.292
-165.664
-166.035
-166.405
-166.774
-167.143
-167.512
-167.88
-168.248
-168.616
-168.984
-169.353
-169.721
-170.089
-170.457
-170.824
-171.189
-171.553
-171.914
-172.271
-172.622
-172.965
-173.298
-173.617
-173.918
-174.196
-174.445
-174.665
-174.91
-175.519
-177.546
-180.963
-160.816
-161.133
-161.48
-161.825
-162.169
-162.515
-162.86
-163.206
-163.552
-163.898
-164.244
-164.59
-164.936
-165.283
-165.63
-165.977
-166.325
-166.673
-167.02
-167.369
-167.717
-168.064
-168.412
-168.758
-169.102
-169.445
-169.786
-170.124
-170.458
-170.788
-171.112
-171.431
-171.742
-172.046
-172.34
-172.623
-172.894
-173.147
-173.394
-173.725
-174.653
-177.076
-180.294
-160.52
-160.785
-161.098
-161.412
-161.726
-162.043
-162.361
-162.679
-163
-163.321
-163.643
-163.966
-164.289
-164.615
-164.941
-165.269
-165.598
-165.929
-166.26
-166.593
-166.928
-167.262
-167.597
-167.932
-168.264
-168.595
-168.922
-169.246
-169.564
-169.875
-170.179
-170.473
-170.758
-171.032
-171.296
-171.55
-171.801
-172.052
-172.328
-172.753
-173.988
-176.558
-179.601
-160.233
-160.479
-160.764
-161.051
-161.338
-161.63
-161.924
-162.219
-162.516
-162.815
-163.116
-163.418
-163.722
-164.027
-164.334
-164.644
-164.955
-165.269
-165.584
-165.9
-166.219
-166.54
-166.863
-167.185
-167.506
-167.825
-168.141
-168.452
-168.759
-169.057
-169.343
-169.615
-169.874
-170.122
-170.355
-170.571
-170.782
-171.035
-171.39
-171.994
-173.531
-176.155
-179.136
-159.995
-160.218
-160.472
-160.738
-161.001
-161.273
-161.548
-161.819
-162.098
-162.379
-162.661
-162.945
-163.232
-163.518
-163.807
-164.1
-164.397
-164.695
-164.995
-165.298
-165.6
-165.91
-166.223
-166.537
-166.851
-167.162
-167.468
-167.771
-168.074
-168.37
-168.648
-168.902
-169.14
-169.362
-169.559
-169.704
-169.832
-169.99
-170.359
-171.052
-172.679
-175.196
-178.185
-159.823
-160.015
-160.238
-160.474
-160.703
-160.961
-161.221
-161.462
-161.722
-161.986
-162.251
-162.519
-162.793
-163.064
-163.336
-163.614
-163.895
-164.182
-164.476
-164.767
-165.044
-165.346
-165.65
-165.953
-166.257
-166.575
-166.873
-167.158
-167.449
-167.748
-168.041
-168.283
-168.492
-168.713
-168.957
-169.067
-168.954
-169.006
-169.714
-171.277
-173.465
-176.521
-180.139
-193.518
-196.395
-197.614
-198.395
-199.035
-199.543
-199.934
-200.247
-200.514
-200.751
-200.967
-201.167
-201.353
-201.523
-201.678
-201.814
-201.928
-202.019
-202.082
-202.118
-202.125
-202.101
-202.046
-201.962
-201.847
-201.703
-201.532
-201.336
-201.116
-200.876
-200.618
-200.347
-200.064
-199.775
-199.483
-199.191
-198.906
-198.631
-198.371
-198.133
-197.921
-197.742
-197.596
-188.291
-192.051
-194.691
-196.488
-197.718
-198.572
-199.178
-199.614
-199.923
-200.134
-200.271
-200.353
-200.393
-200.401
-200.385
-200.348
-200.296
-200.231
-200.156
-200.074
-199.986
-199.893
-199.797
-199.698
-199.597
-199.494
-199.388
-199.279
-199.168
-199.051
-198.929
-198.8
-198.663
-198.518
-198.365
-198.202
-198.031
-197.852
-197.667
-197.478
-197.288
-197.095
-196.893
-185.678
-189.313
-192.298
-194.615
-196.371
-197.702
-198.714
-199.484
-200.063
-200.493
-200.806
-201.026
-201.173
-201.26
-201.301
-201.302
-201.271
-201.212
-201.13
-201.027
-200.906
-200.768
-200.614
-200.447
-200.267
-200.076
-199.875
-199.665
-199.447
-199.223
-198.994
-198.76
-198.522
-198.283
-198.042
-197.801
-197.561
-197.325
-197.094
-196.87
-196.653
-196.44
-196.23
-184.459
-187.727
-190.585
-192.957
-194.86
-196.362
-197.54
-198.456
-199.162
-199.7
-200.103
-200.395
-200.596
-200.72
-200.783
-200.794
-200.764
-200.701
-200.608
-200.491
-200.354
-200.197
-200.028
-199.847
-199.655
-199.456
-199.251
-199.039
-198.822
-198.6
-198.373
-198.142
-197.908
-197.671
-197.432
-197.191
-196.952
-196.715
-196.484
-196.259
-196.043
-195.835
-195.638
-183.519
-186.585
-189.345
-191.708
-193.67
-195.267
-196.546
-197.563
-198.367
-198.991
-199.471
-199.829
-200.087
-200.26
-200.36
-200.397
-200.385
-200.334
-200.245
-200.126
-199.983
-199.818
-199.635
-199.44
-199.236
-199.025
-198.806
-198.58
-198.347
-198.108
-197.866
-197.622
-197.375
-197.127
-196.877
-196.629
-196.384
-196.145
-195.913
-195.687
-195.476
-195.301
-195.122
-182.684
-185.644
-188.321
-190.642
-192.626
-194.265
-195.602
-196.678
-197.529
-198.194
-198.718
-199.128
-199.432
-199.634
-199.75
-199.801
-199.804
-199.765
-199.687
-199.572
-199.426
-199.253
-199.061
-198.865
-198.666
-198.458
-198.24
-198.012
-197.778
-197.536
-197.295
-197.053
-196.808
-196.561
-196.314
-196.069
-195.83
-195.6
-195.379
-195.16
-194.952
-194.772
-194.692
-182.127
-184.986
-187.583
-189.843
-191.832
-193.484
-194.846
-195.936
-196.797
-197.475
-198.035
-198.484
-198.82
-199.033
-199.138
-199.18
-199.191
-199.172
-199.106
-198.989
-198.834
-198.637
-198.432
-198.255
-198.076
-197.878
-197.661
-197.435
-197.2
-196.958
-196.725
-196.493
-196.257
-196.017
-195.777
-195.539
-195.314
-195.103
-194.899
-194.685
-194.486
-194.314
-194.277
-181.169
-184.01
-186.526
-188.653
-190.748
-192.42
-193.824
-194.896
-195.725
-196.403
-197.056
-197.621
-198.005
-198.175
-198.245
-198.31
-198.391
-198.43
-198.357
-198.216
-198.04
-197.827
-197.662
-197.575
-197.476
-197.296
-197.076
-196.858
-196.617
-196.392
-196.199
-195.998
-195.77
-195.531
-195.29
-195.057
-194.854
-194.671
-194.479
-194.256
-194.073
-193.954
-194.027
-183.228
-186.018
-188.027
-190.206
-193.519
-195.788
-196.83
-197.384
-197.928
-198.701
-199.425
-200.061
-200.286
-200.022
-199.83
-200.094
-200.542
-200.293
-199.884
-199.494
-199.188
-198.95
-198.885
-198.943
-198.672
-198.176
-197.871
-197.4
-196.947
-196.63
-196.459
-196.06
-195.647
-195.259
-194.906
-194.608
-194.395
-194.133
-194.027
-193.775
-193.647
-193.657
-193.898
166.401
162.991
156.401
149.225
142.022
134.689
127.254
119.944
112.935
106.322
100.108
94.3374
88.9802
84.0111
79.407
75.1174
71.1261
67.3742
63.8412
60.4929
57.3009
54.2391
51.2911
48.4336
45.6532
42.9385
40.2801
37.669
35.0996
32.5689
30.071
27.6043
25.1677
22.7584
20.3729
18.0121
15.6777
13.3631
11.0683
8.80167
6.56931
4.31386
1.77546
117.408
115.91
112.252
108.427
104.771
101.238
97.7838
94.4057
91.0982
87.8507
84.6536
81.5047
78.3955
75.3273
72.2965
69.3097
66.3651
63.4643
60.6089
57.8049
55.0453
52.3344
49.6716
47.0548
44.4825
41.9528
39.4628
37.0115
34.5897
32.2055
29.8466
27.5158
25.2088
22.9252
20.6633
18.4184
16.1934
13.9841
11.788
9.6116
7.45797
5.28737
2.87834
116.57
116
114.761
113.159
111.176
108.848
106.23
103.367
100.311
97.0999
93.7767
90.3728
86.9255
83.4611
79.9983
76.5651
73.17
69.827
66.5426
63.3268
60.1765
57.0957
54.0845
51.14
48.2597
45.4383
42.6781
39.9736
37.3199
34.7158
32.1579
29.6429
27.1685
24.7308
22.3286
19.958
17.6202
15.309
13.0236
10.7633
8.53398
6.31709
3.93409
108.302
107.376
106.053
104.509
102.773
100.861
98.7885
96.5753
94.2385
91.7909
89.2505
86.627
83.9336
81.1824
78.3866
75.554
72.6959
69.8213
66.9394
64.0578
61.1849
58.3255
55.4807
52.6633
49.872
47.1086
44.3774
41.6766
39.0121
36.3777
33.7789
31.2138
28.6798
26.178
23.7096
21.2677
18.8566
16.4725
14.114
11.7788
9.46868
7.20268
4.84031
96.5346
96.161
95.6467
94.9325
94.0275
92.94
91.6768
90.246
88.6552
86.9134
85.0315
83.0197
80.8902
78.6548
76.3267
73.9176
71.4399
68.9049
66.326
63.7093
61.0656
58.4083
55.7377
53.0637
50.3941
47.731
45.0795
42.4427
39.8249
37.2257
34.647
32.0935
29.5631
27.0547
24.5735
22.1156
19.6844
17.2765
14.895
12.5397
10.2193
7.96435
5.86204
88.4091
88.2338
87.9333
87.4582
86.8351
86.0656
85.1525
84.0972
82.9034
81.5748
80.1174
78.5369
76.8377
75.0276
73.1151
71.107
69.0111
66.8374
64.5939
62.2876
59.9283
57.5257
55.0856
52.6148
50.1236
47.6146
45.0952
42.571
40.0467
37.5245
35.0101
32.5043
30.0127
27.5332
25.0711
22.6235
20.1982
17.7872
15.3975
13.0279
10.6895
8.34108
5.64867
81.6097
81.4713
81.2016
80.8034
80.3001
79.6917
78.9768
78.1529
77.2195
76.1759
75.023
73.7613
72.3921
70.9184
69.3434
67.6713
65.9047
64.0525
62.1184
60.1077
58.0293
55.8887
53.6917
51.4473
49.1608
46.8385
44.4866
42.1111
39.7178
37.3107
34.8952
32.4751
30.0543
27.6345
25.2223
22.8147
20.419
18.0329
15.6581
13.2971
10.9677
8.59711
5.62851
75.1246
75.0289
74.8292
74.5305
74.1485
73.6821
73.1285
72.4853
71.7504
70.9224
69.9992
68.9804
67.8656
66.654
65.3479
63.9477
62.4557
60.8756
59.21
57.4622
55.6388
53.7432
51.7809
49.7579
47.6787
45.5501
43.3785
41.1676
38.9244
36.6541
34.3593
32.0484
29.7241
27.3884
25.0494
22.7059
20.3641
18.0249
15.6928
13.3757
11.0935
8.78189
6.1249
69.1628
69.1067
68.963
68.7377
68.4434
68.0795
67.6427
67.1307
66.5414
65.8725
65.1214
64.2876
63.3685
62.3628
61.2705
60.0909
58.8241
57.4726
56.0368
54.5183
52.922
51.248
49.5026
47.6888
45.8112
43.8733
41.8825
39.8414
37.7559
35.6324
33.4729
31.2845
29.0708
26.836
24.5864
22.3226
20.0511
17.7741
15.4931
13.2161
10.9589
8.67047
5.96212
63.7257
63.69
63.5786
63.3988
63.1622
62.8676
62.5125
62.0946
61.6118
61.0608
60.4398
59.7467
58.9791
58.1347
57.2123
56.2105
55.1285
53.9666
52.7244
51.4022
50.0028
48.5261
46.9746
45.3528
43.6617
41.9052
40.0884
38.2144
36.2864
34.3115
32.292
30.2338
28.1411
26.0178
23.8684
21.6975
19.5083
17.3049
15.0898
12.8704
10.6595
8.41766
5.86497
58.6618
58.6416
58.5548
58.4103
58.218
57.9768
57.6837
57.3382
56.9366
56.477
55.9568
55.3738
54.7255
54.0095
53.2235
52.366
51.4359
50.4314
49.3517
48.1965
46.9664
45.6619
44.2829
42.8324
41.3123
39.723
38.0698
36.3541
34.5807
32.7521
30.8729
28.9468
26.9775
24.9713
22.9298
20.8578
18.7616
16.6415
14.5029
12.3506
10.2
8.00946
5.4856
53.885
53.8826
53.8188
53.7045
53.5496
53.3521
53.1106
52.8229
52.4872
52.1009
51.6619
51.1674
50.6155
50.0035
49.3292
48.5904
47.7857
46.9126
45.9701
44.957
43.8729
42.7176
41.4906
40.1925
38.8256
37.3891
35.8873
34.3199
32.6911
31.0033
29.26
27.4648
25.6197
23.7315
21.8008
19.8338
17.8343
15.8034
13.7466
11.6666
9.58191
7.44444
4.75463
49.3989
49.4053
49.3563
49.2655
49.1393
48.9759
48.7743
48.533
48.249
47.9217
47.5481
47.1257
46.6522
46.1253
45.5428
44.9022
44.2015
43.4389
42.6126
41.7206
40.7621
39.736
38.6421
37.4794
36.2489
34.9508
33.5862
32.1564
30.6628
29.1081
27.4947
25.8249
24.1024
22.3306
20.5116
18.6515
16.7517
14.8172
12.8532
10.8658
8.87631
6.84625
4.48625
45.1347
45.154
45.1209
45.0497
44.9476
44.8128
44.6447
44.441
44.2005
43.9214
43.6016
43.2386
42.83
42.3738
41.8677
41.3093
40.6965
40.0272
39.2994
38.5112
37.6611
36.7474
35.7694
34.7265
33.6178
32.4435
31.2037
29.8992
28.5312
27.1006
25.6097
24.0599
22.4552
20.7962
19.0875
17.3319
15.533
13.6942
11.8193
9.91513
7.99977
6.04959
3.74204
41.0929
41.1178
41.0936
41.0376
40.9546
40.8428
40.7016
40.5294
40.3247
40.0858
39.8105
39.4969
39.1428
38.7457
38.3038
37.8151
37.2768
36.6869
36.0433
35.3444
34.5881
33.7722
32.8964
31.9587
30.9583
29.8952
28.7681
27.5774
26.3245
25.0092
23.6325
22.1961
20.7028
19.1527
17.5509
15.8976
14.1974
12.4528
10.6665
8.84359
6.99604
5.1129
2.97205
37.2243
37.2566
37.2419
37.2004
37.1337
37.0422
36.9241
36.7785
36.6038
36.3986
36.1612
35.8895
35.5813
35.2347
34.8475
34.4181
33.9435
33.4219
32.8515
32.2297
31.5547
30.8248
30.0382
29.1938
28.2899
27.326
26.3009
25.2139
24.0659
22.8565
21.5861
20.2558
18.8676
17.4216
15.9214
14.3675
12.764
11.1122
9.41548
7.67657
5.90279
4.08774
2.08276
33.5102
33.5495
33.5452
33.516
33.4651
33.3912
33.2936
33.171
33.0226
32.8471
32.6421
32.4063
32.1377
31.8343
31.4944
31.1159
30.6963
30.2342
29.7269
29.1724
28.5687
27.914
27.2066
26.4446
25.6269
24.7516
23.8183
22.8255
21.773
20.661
19.4893
18.2576
16.9681
15.6207
14.2173
12.7596
11.25
9.68918
8.08154
6.42939
4.74005
3.00773
1.11806
29.9574
30.0003
30.0011
29.9809
29.9417
29.8821
29.8012
29.6981
29.5721
29.4212
29.2443
29.0393
28.8047
28.5388
28.2398
27.9054
27.5339
27.1232
26.671
26.1756
25.6345
25.0462
24.4088
23.7203
22.9793
22.1841
21.333
20.4258
19.4605
18.4379
17.3568
16.2173
15.0196
13.7651
12.4536
11.087
9.66756
8.19557
6.67446
5.1066
3.49887
1.84283
0.0228541
26.526
26.5743
26.5818
26.571
26.5424
26.496
26.4305
26.345
26.2384
26.1093
25.9567
25.779
25.5741
25.3412
25.0779
24.7822
24.4528
24.0871
23.6835
23.2402
22.7547
22.2252
21.65
21.0271
20.3546
19.6311
18.8547
18.0247
17.1395
16.1986
15.2009
14.1467
13.0351
11.8673
10.643
9.36327
8.0294
6.64279
5.20539
3.71954
2.19219
0.614145
-1.1373
23.2141
23.2657
23.2791
23.2764
23.2579
23.2233
23.1715
23.1015
23.0123
22.9025
22.7717
22.6176
22.4392
22.235
22.0032
21.7421
21.4495
21.1237
20.7634
20.3659
19.9298
19.4529
18.9332
18.3691
17.7582
17.0995
16.3906
15.631
14.8187
13.9527
13.0322
12.0565
11.0252
9.93809
8.79561
7.59789
6.34632
5.04106
3.68468
2.27796
0.828844
-0.671058
-2.34806
19.9926
20.054
20.0761
20.0828
20.0746
20.0518
20.0125
19.9569
19.8839
19.7923
19.681
19.5481
19.3933
19.2148
19.011
18.7804
18.5207
18.2308
17.9088
17.5524
17.1603
16.7302
16.2605
15.7488
15.1939
14.5935
13.9461
13.2505
12.5046
11.7071
10.8576
9.95466
8.99809
7.98662
6.9209
5.80088
4.62691
3.39939
2.12031
0.790509
-0.582904
-2.00316
-3.60294
16.8947
16.9606
16.9861
16.9979
16.9973
16.9828
16.9538
16.9101
16.8507
16.7742
16.6797
16.5661
16.4323
16.2766
16.0975
15.8938
15.6635
15.4055
15.1176
14.7983
14.4454
14.0576
13.6324
13.1686
12.6638
12.1167
11.525
10.8874
10.2024
9.46852
8.68425
7.84869
6.96098
6.02036
5.02657
3.97929
2.87887
1.7254
0.519722
-0.737565
-2.04013
-3.38865
-4.91853
13.8787
13.9526
13.9826
14.0018
14.0084
14.0025
13.9835
13.951
13.9035
13.8407
13.7614
13.665
13.5498
13.4143
13.2575
13.078
12.8742
12.6447
12.3878
12.1014
11.7841
11.4342
11.0498
10.629
10.1698
9.6709
9.13015
8.54582
7.91645
7.24054
6.51669
5.74352
4.92014
4.0454
3.11915
2.14045
1.10937
0.0255752
-1.11017
-2.29837
-3.53446
-4.82179
-6.29569
10.9729
11.0454
11.0759
11.098
11.1094
11.1099
11.0988
11.0751
11.0382
10.9871
10.9215
10.84
10.7412
10.6241
10.4875
10.3296
10.1495
9.94593
9.71677
9.4602
9.17503
8.85964
8.51201
8.13033
7.71259
7.25762
6.7634
6.22801
5.64984
5.02731
4.35923
3.64377
2.88024
2.06712
1.20374
0.289516
-0.675474
-1.69182
-2.75902
-3.87602
-5.03648
-6.23474
-7.57184
8.11691
8.19499
8.2313
8.26065
8.2795
8.28805
8.28521
8.27104
8.24451
8.20534
8.15225
8.08485
8.00124
7.90095
7.78262
7.64463
7.48625
7.3059
7.10186
6.87278
6.61685
6.33255
6.01841
5.6723
5.29268
4.87799
4.42637
3.93569
3.40457
2.83139
2.2147
1.55294
0.844811
0.0893061
-0.715068
-1.56874
-2.4722
-3.42602
-4.43023
-5.48472
-6.58595
-7.73056
-9.02823
5.34535
5.42441
5.46341
5.49776
5.5226
5.53779
5.54277
5.53709
5.52056
5.49188
5.45067
5.39589
5.32615
5.24117
5.13941
5.01984
4.8811
4.72199
4.54099
4.33673
4.10747
3.8518
3.56816
3.25469
2.90999
2.53225
2.11949
1.67008
1.18247
0.654975
0.086084
-0.525999
-1.18248
-1.88444
-2.63368
-3.43043
-4.27566
-5.17007
-6.11383
-7.10661
-8.14476
-9.22008
-10.3979
2.63937
2.72211
2.76554
2.80503
2.83521
2.85681
2.86887
2.87096
2.86296
2.84383
2.8131
2.76968
2.71296
2.64199
2.55552
2.4523
2.33169
2.19194
2.0318
1.85018
1.6454
1.41602
1.16029
0.876851
0.564185
0.220337
-0.156472
-0.567796
-1.01507
-1.50037
-2.02505
-2.59091
-3.19925
-3.85132
-4.54861
-5.29216
-6.08274
-6.9214
-7.80876
-8.7451
-9.72913
-10.7565
-11.8708
0.0196697
0.0998943
0.142863
0.184107
0.217529
0.243548
0.260542
0.269091
0.268337
0.257608
0.236038
0.203207
0.158156
0.099783
0.0271061
-0.0607089
-0.165161
-0.287008
-0.427864
-0.588611
-0.770895
-0.976414
-1.2062
-1.46193
-1.74529
-2.05791
-2.40144
-2.77745
-3.1875
-3.63377
-4.11728
-4.63993
-5.20331
-5.80867
-6.45717
-7.1507
-7.88993
-8.67568
-9.50932
-10.3911
-11.3207
-12.2977
-13.3596
-2.53698
-2.46057
-2.41751
-2.37439
-2.33836
-2.30911
-2.2874
-2.27311
-2.26728
-2.2705
-2.28344
-2.30694
-2.34157
-2.3886
-2.44848
-2.52258
-2.61166
-2.71703
-2.84006
-2.98164
-3.14344
-3.32659
-3.53252
-3.7626
-4.01885
-4.30263
-4.61536
-4.95866
-5.33437
-5.74406
-6.18923
-6.67168
-7.19285
-7.75444
-8.35728
-9.00346
-9.6938
-10.4296
-11.2119
-12.0417
-12.9173
-13.8383
-14.908
-5.08299
-4.99986
-4.94831
-4.89752
-4.85454
-4.81812
-4.7891
-4.7677
-4.75396
-4.74887
-4.75307
-4.76677
-4.79113
-4.82694
-4.87482
-4.93579
-5.01054
-5.10076
-5.20721
-5.33114
-5.47359
-5.63602
-5.8199
-6.02652
-6.25768
-6.51448
-6.7985
-7.11161
-7.455
-7.83062
-8.24014
-8.685
-9.16674
-9.68701
-10.247
-10.8485
-11.4923
-12.1804
-12.9136
-13.6929
-14.515
-15.376
-16.4045
-7.55674
-7.47104
-7.41728
-7.36272
-7.31494
-7.27302
-7.23821
-7.20994
-7.18937
-7.17671
-7.17248
-7.17745
-7.19205
-7.21714
-7.25386
-7.30238
-7.36415
-7.44019
-7.53122
-7.63867
-7.76325
-7.90655
-8.06983
-8.25456
-8.46219
-8.69384
-8.9513
-9.23606
-9.54951
-9.89344
-10.2695
-10.6791
-11.1239
-11.6052
-12.1247
-12.6839
-13.2837
-13.9258
-14.6115
-15.341
-16.1104
-16.9138
-17.8676
-9.94069
-9.86109
-9.81006
-9.75647
-9.70808
-9.66463
-9.62675
-9.59487
-9.56944
-9.55097
-9.54008
-9.5377
-9.5442
-9.56012
-9.58659
-9.62402
-9.6737
-9.73635
-9.81322
-9.90537
-10.0135
-10.1392
-10.2835
-10.4476
-10.6332
-10.8415
-11.0741
-11.3326
-11.6181
-11.9324
-12.2772
-12.6536
-13.0635
-13.5084
-13.9897
-14.5089
-15.0673
-15.6661
-16.3072
-16.9917
-17.719
-18.4889
-19.3829
-12.3203
-12.2354
-12.1785
-12.1193
-12.0658
-12.0173
-11.9743
-11.9371
-11.9059
-11.8811
-11.8634
-11.8537
-11.8518
-11.8589
-11.8758
-11.9029
-11.9414
-11.9918
-12.0554
-12.1331
-12.2258
-12.3351
-12.4616
-12.6067
-12.7718
-12.9584
-13.1679
-13.4016
-13.6608
-13.9475
-14.2627
-14.6081
-14.9853
-15.3959
-15.8412
-16.3225
-16.8414
-17.3987
-17.9959
-18.6336
-19.3103
-20.0203
-20.7722
-14.6384
-14.5536
-14.4953
-14.4339
-14.3776
-14.3252
-14.278
-14.2359
-14.1992
-14.1685
-14.1445
-14.1274
-14.1178
-14.1164
-14.1242
-14.1415
-14.1693
-14.2081
-14.2593
-14.3235
-14.4021
-14.4957
-14.6055
-14.7327
-14.8789
-15.0452
-15.2329
-15.4434
-15.6781
-15.9385
-16.2262
-16.5424
-16.8889
-17.2672
-17.6786
-18.1242
-18.6057
-19.1236
-19.6788
-20.2706
-20.8975
-21.5538
-22.1612
-16.911
-16.8255
-16.7654
-16.7016
-16.643
-16.5876
-16.5367
-16.4905
-16.4491
-16.4133
-16.3833
-16.3597
-16.343
-16.3338
-16.3332
-16.3413
-16.359
-16.3872
-16.4265
-16.4783
-16.5433
-16.6222
-16.7163
-16.827
-16.9553
-17.1023
-17.2696
-17.4585
-17.67
-17.9061
-18.1678
-18.4566
-18.7743
-19.1221
-19.5016
-19.9141
-20.3611
-20.8437
-21.3633
-21.921
-22.52
-23.1685
-23.8199
-19.1475
-19.0604
-18.9979
-18.9314
-18.8697
-18.8111
-18.7561
-18.7054
-18.6595
-18.6184
-18.5829
-18.5531
-18.5295
-18.513
-18.5041
-18.5035
-18.512
-18.5299
-18.5585
-18.5985
-18.6506
-18.7157
-18.7952
-18.8903
-19.0017
-19.1308
-19.279
-19.4474
-19.6372
-19.8502
-20.0874
-20.3506
-20.641
-20.9601
-21.3095
-21.6907
-22.105
-22.554
-23.0393
-23.5625
-24.1254
-24.7349
-25.3736
-21.3474
-21.2588
-21.1941
-21.1244
-21.0594
-20.9967
-20.9379
-20.8831
-20.8323
-20.7861
-20.7449
-20.7092
-20.6793
-20.6557
-20.6391
-20.6304
-20.6297
-20.6382
-20.6564
-20.6852
-20.7252
-20.7775
-20.8435
-20.9236
-21.0191
-21.1313
-21.2615
-21.4106
-21.58
-21.7712
-21.9855
-22.2243
-22.4888
-22.7808
-23.1018
-23.4531
-23.8363
-24.2529
-24.705
-25.1941
-25.7209
-26.2918
-26.956
-23.5137
-23.4219
-23.3541
-23.2814
-23.2126
-23.1465
-23.0837
-23.0244
-22.969
-22.9177
-22.8711
-22.8295
-22.7933
-22.7631
-22.7394
-22.7228
-22.7138
-22.7131
-22.7216
-22.7398
-22.7684
-22.8086
-22.8614
-22.9277
-23.0085
-23.1047
-23.2178
-23.3486
-23.4987
-23.6693
-23.8619
-24.0775
-24.3177
-24.5841
-24.878
-25.2008
-25.5538
-25.9388
-26.3574
-26.8105
-27.2962
-27.8131
-28.425
-25.6116
-25.524
-25.4599
-25.388
-25.3192
-25.252
-25.187
-25.1252
-25.0668
-25.0116
-24.9607
-24.9141
-24.8726
-24.8363
-24.8057
-24.7818
-24.7649
-24.7557
-24.755
-24.7632
-24.7812
-24.8099
-24.8505
-24.9037
-24.9702
-25.0514
-25.1483
-25.2621
-25.3939
-25.5451
-25.7168
-25.9107
-26.1279
-26.3698
-26.6379
-26.9334
-27.258
-27.6128
-27.9997
-28.4193
-28.8708
-29.3583
-29.9342
-27.717
-27.624
-27.5538
-27.4767
-27.4031
-27.3315
-27.2624
-27.1963
-27.1333
-27.0737
-27.0179
-26.9664
-26.9193
-26.8768
-26.8401
-26.8092
-26.7847
-26.7673
-26.7578
-26.7566
-26.7646
-26.7826
-26.8116
-26.8521
-26.9055
-26.9724
-27.054
-27.1516
-27.2661
-27.3988
-27.5511
-27.7243
-27.9195
-28.1382
-28.3816
-28.6513
-28.9488
-29.2752
-29.6321
-30.0206
-30.4394
-30.8933
-31.4511
-29.7607
-29.6696
-29.6006
-29.5231
-29.4483
-29.3747
-29.3027
-29.2334
-29.1669
-29.1033
-29.0432
-28.9867
-28.9343
-28.8864
-28.8434
-28.806
-28.7743
-28.7492
-28.7314
-28.7214
-28.7198
-28.7276
-28.7454
-28.7741
-28.8148
-28.8682
-28.9354
-29.0175
-29.1156
-29.2308
-29.3647
-29.5182
-29.6925
-29.8892
-30.1093
-30.3545
-30.6259
-30.9251
-31.2531
-31.6107
-31.9981
-32.4186
-32.876
-31.7708
-31.6806
-31.6118
-31.5337
-31.4575
-31.3821
-31.3084
-31.2365
-31.1672
-31.1004
-31.0364
-30.9755
-30.9183
-30.8652
-30.8167
-30.7729
-30.7346
-30.7023
-30.6767
-30.6582
-30.6474
-30.6453
-30.6527
-30.6704
-30.699
-30.7397
-30.793
-30.8605
-30.9431
-31.0417
-31.158
-31.2926
-31.4471
-31.6228
-31.8209
-32.0428
-32.2896
-32.563
-32.8641
-33.1938
-33.553
-33.9494
-34.3885
-33.7619
-33.6707
-33.6003
-33.5198
-33.4413
-33.3634
-33.2865
-33.2117
-33.1389
-33.0685
-33.0005
-32.9354
-32.8734
-32.8153
-32.7613
-32.7116
-32.6667
-32.6275
-32.5945
-32.5677
-32.5484
-32.5372
-32.5346
-32.5415
-32.5587
-32.5871
-32.6276
-32.6812
-32.749
-32.8319
-32.9313
-33.0481
-33.1838
-33.3396
-33.5167
-33.7164
-33.9399
-34.1888
-34.4643
-34.7676
-35.0994
-35.4691
-35.9058
-35.7255
-35.6331
-35.5612
-35.4789
-35.3978
-35.3172
-35.2376
-35.1594
-35.0833
-35.0091
-34.9371
-34.8675
-34.8009
-34.7379
-34.6783
-34.6228
-34.572
-34.5262
-34.4857
-34.4513
-34.424
-34.4039
-34.3917
-34.3884
-34.3947
-34.4116