/*--------------------------------*- C++ -*----------------------------------*\
| =========                 |                                                 |
| \\      /  F ield         | OpenFOAM: The Open Source CFD Toolbox           |
|  \\    /   O peration     | Version:  2.3.0                                 |
|   \\  /    A nd           | Web:      www.OpenFOAM.org                      |
|    \\/     M anipulation  |                                                 |
\*---------------------------------------------------------------------------*/
FoamFile
{
    version     2.0;
    format      ascii;
    class       volScalarField;
    location    "1000";
    object      nut;
}
// * * * * * * * * * * * * * * * * * * * * * * * * * * * * * * * * * * * * * //

dimensions      [0 2 -1 0 0 0 0];

internalField   nonuniform List<scalar> 
39444
(
0.0553236
0.0535837
0.0518575
0.0501472
0.048453
0.0467767
0.0451198
0.0434832
0.0418683
0.0402769
0.0387103
0.0371702
0.0356585
0.0341768
0.0327286
0.0313169
0.0299466
0.0286208
0.0273413
0.0261118
0.0249344
0.0237996
0.0226868
0.0215897
0.0205117
0.019457
0.0184303
0.0174328
0.0164655
0.0155277
0.0146184
0.0137353
0.012875
0.0120341
0.0112095
0.0103962
0.00959113
0.00879223
0.0079988
0.00721456
0.0064467
0.00573291
0.0052655
0.0572003
0.055677
0.0541646
0.0526641
0.051177
0.0497039
0.048246
0.0468035
0.0453771
0.0439678
0.0425763
0.0412035
0.0398501
0.0385161
0.037203
0.0359117
0.0346425
0.0333966
0.0321753
0.0309788
0.029808
0.0286625
0.0275414
0.0264432
0.0253695
0.0243209
0.0233004
0.0223103
0.0213528
0.0204316
0.0195488
0.0187097
0.017919
0.0171816
0.0165053
0.0158985
0.0153707
0.0149347
0.0146018
0.0143881
0.0143078
0.0143754
0.0146044
0.0589025
0.0575613
0.0562271
0.0549024
0.0535883
0.0522851
0.0509932
0.0497128
0.0484445
0.0471886
0.0459458
0.0447168
0.0435022
0.0423022
0.0411168
0.0399473
0.0387942
0.0376578
0.0365389
0.035438
0.0343568
0.0332954
0.032255
0.0312362
0.0302408
0.0292705
0.0283268
0.0274133
0.026532
0.0256875
0.0248834
0.0241231
0.0234136
0.0227616
0.022173
0.0216563
0.0212212
0.0208766
0.0206345
0.0205025
0.0204894
0.0206008
0.0208383
0.0604504
0.0592579
0.0580738
0.056898
0.0557299
0.0545697
0.0534173
0.0522733
0.0511374
0.0500103
0.0488926
0.0477843
0.0466862
0.0455985
0.044522
0.0434569
0.0424037
0.041363
0.0403356
0.0393221
0.0383234
0.0373413
0.0363768
0.0354311
0.0345054
0.0336026
0.0327246
0.0318747
0.0310557
0.030271
0.0295257
0.0288242
0.0281713
0.0275745
0.0270402
0.0265755
0.0261892
0.0258904
0.0256857
0.0255845
0.025592
0.0257116
0.0259451
0.0618432
0.0607825
0.0597276
0.0586785
0.0576343
0.0565953
0.0555612
0.0545319
0.0535074
0.0524885
0.0514756
0.0504687
0.0494681
0.0484746
0.0474884
0.0465106
0.0455415
0.0445813
0.0436308
0.0426908
0.0417624
0.0408469
0.0399462
0.0390617
0.0381945
0.037347
0.0365219
0.0357223
0.0349512
0.0342133
0.0335127
0.0328542
0.032243
0.0316854
0.0311879
0.0307572
0.0304024
0.0301304
0.0299481
0.0298628
0.02988
0.0300018
0.0302299
0.0630987
0.0621527
0.0612091
0.0602679
0.0593296
0.0583936
0.0574597
0.0565277
0.0555974
0.0546696
0.0537448
0.0528231
0.0519046
0.0509899
0.0500793
0.0491738
0.0482745
0.047382
0.0464963
0.0456182
0.0447481
0.0438879
0.0430397
0.0422058
0.0413874
0.040586
0.0398043
0.0390453
0.0383124
0.03761
0.0369437
0.036318
0.0357382
0.0352098
0.0347387
0.034332
0.0339978
0.0337427
0.0335742
0.0334981
0.0335196
0.0336414
0.0338643
0.0642304
0.0633853
0.0625373
0.0616881
0.0608397
0.059992
0.0591434
0.0582942
0.057444
0.0565926
0.0557421
0.0548927
0.0540437
0.0531953
0.0523485
0.0515034
0.0506615
0.0498247
0.0489948
0.0481695
0.0473493
0.046535
0.0457295
0.0449362
0.0441584
0.0433964
0.0426516
0.0419264
0.0412244
0.0405501
0.0399096
0.039308
0.0387524
0.0382472
0.0377964
0.0374075
0.0370878
0.0368438
0.036684
0.0366131
0.0366366
0.0367571
0.0369754
0.0652592
0.0644954
0.0637303
0.0629577
0.062186
0.0614143
0.0606386
0.059859
0.0590796
0.0582915
0.0575035
0.0567153
0.055926
0.0551338
0.0543419
0.0535485
0.0527546
0.0519608
0.0511764
0.0503978
0.0496216
0.048848
0.0480788
0.0473158
0.0465699
0.0458415
0.0451296
0.0444352
0.0437594
0.0431079
0.0424879
0.0419022
0.0413645
0.0408782
0.040445
0.0400693
0.0397613
0.0395239
0.0393698
0.0393019
0.0393256
0.0394449
0.039659
0.0662039
0.065499
0.0648086
0.0640943
0.0633841
0.0626776
0.0619686
0.0612372
0.060526
0.0597922
0.0590583
0.0583176
0.0575838
0.0568343
0.0560925
0.055342
0.0545985
0.0538295
0.0530785
0.0523393
0.0516055
0.0508678
0.0501394
0.0493939
0.0486678
0.0479651
0.0472817
0.0466189
0.0459739
0.0453367
0.0447422
0.0441628
0.0436347
0.043163
0.0427523
0.0423821
0.0420905
0.0418524
0.0417031
0.0416372
0.041658
0.0417769
0.0419883
0.00613765
0.00788281
0.00904841
0.0102195
0.0114622
0.0127719
0.014133
0.0155326
0.0169604
0.0184114
0.0198804
0.0213643
0.0228613
0.0243694
0.0258869
0.0274135
0.0289484
0.0304911
0.0320407
0.0335972
0.0351603
0.0367295
0.0383047
0.0398854
0.0414715
0.0430626
0.0446584
0.0462585
0.0478627
0.0494705
0.0510813
0.0526947
0.0543102
0.0559273
0.0575455
0.0591639
0.0607823
0.0624
0.0640161
0.06563
0.0672411
0.0688483
0.0704537
0.0149986
0.0155594
0.0162727
0.0171246
0.0180974
0.019171
0.0203265
0.0215478
0.0228205
0.024134
0.0254786
0.0268478
0.0282359
0.0296381
0.0310516
0.032474
0.0339033
0.0353383
0.0367774
0.0382196
0.0396645
0.0411115
0.0425604
0.0440101
0.0454608
0.0469124
0.0483644
0.0498168
0.0512695
0.0527221
0.0541741
0.0556256
0.0570766
0.0585264
0.059975
0.0614221
0.0628676
0.0643112
0.0657526
0.0671916
0.0686276
0.0700609
0.0714958
0.0212012
0.0216911
0.0223108
0.0230516
0.0239007
0.024845
0.0258702
0.026963
0.0281115
0.0293052
0.0305348
0.0317927
0.0330725
0.0343687
0.035678
0.0369966
0.0383219
0.039652
0.0409847
0.042319
0.0436539
0.0449884
0.0463219
0.0476538
0.048984
0.050312
0.0516377
0.0529612
0.0542822
0.0556002
0.0569151
0.058227
0.0595363
0.0608423
0.0621452
0.0634451
0.0647419
0.0660357
0.0673265
0.0686143
0.0698988
0.07118
0.0724616
0.0262904
0.0267487
0.0273209
0.0280008
0.0287787
0.0296446
0.0305868
0.031594
0.0326563
0.0337629
0.0349054
0.0360768
0.0372702
0.0384808
0.0397039
0.0409356
0.0421734
0.0434146
0.0446572
0.0459
0.0471407
0.0483788
0.0496139
0.0508453
0.0520726
0.0532956
0.0545142
0.0557279
0.0569366
0.0581401
0.0593384
0.0605316
0.06172
0.0629034
0.0640818
0.0652556
0.066425
0.0675902
0.0687514
0.0699084
0.0710611
0.0722102
0.073359
0.030563
0.0310004
0.0315422
0.032183
0.0329142
0.033727
0.0346115
0.0355575
0.0365558
0.0375972
0.0386731
0.0397765
0.0409012
0.0420421
0.0431943
0.0443542
0.0455194
0.0466869
0.0478543
0.0490194
0.050181
0.0513378
0.0524894
0.0536355
0.0547762
0.0559108
0.057039
0.05816
0.0592736
0.0603802
0.0614795
0.0625721
0.0636576
0.0647363
0.0658085
0.0668746
0.067935
0.06899
0.0700395
0.0710832
0.0721212
0.0731543
0.0741847
0.0341871
0.0346093
0.0351296
0.0357424
0.0364401
0.0372145
0.0380569
0.0389575
0.0399074
0.0408984
0.0419218
0.0429712
0.0440406
0.0451243
0.0462185
0.04732
0.0484255
0.049532
0.0506366
0.0517368
0.0528312
0.0539191
0.0550003
0.0560752
0.0571434
0.0582039
0.0592558
0.0602983
0.0613315
0.062356
0.0633717
0.0643786
0.0653767
0.0663661
0.0673472
0.0683211
0.0692883
0.070249
0.0712024
0.072148
0.073086
0.0740177
0.0749469
0.0372905
0.0377009
0.0382051
0.038797
0.0394693
0.0402143
0.0410239
0.0418894
0.0428017
0.0437524
0.0447339
0.0457392
0.0467625
0.0477986
0.048845
0.0498987
0.050956
0.0520122
0.0530642
0.054109
0.055145
0.0561737
0.0571956
0.0582116
0.0592199
0.0602182
0.0612053
0.0621804
0.063145
0.0641002
0.0650451
0.0659792
0.0669026
0.0678151
0.0687178
0.0696127
0.0705007
0.071381
0.0722519
0.073112
0.0739623
0.0748055
0.075644
0.0399669
0.0403686
0.0408604
0.0414363
0.042089
0.0428088
0.0435929
0.0444305
0.0453127
0.0462307
0.0471774
0.0481461
0.0491305
0.0501248
0.051132
0.0521474
0.0531674
0.0541815
0.0551883
0.0561836
0.0571676
0.0581455
0.0591178
0.0600871
0.0610458
0.0619917
0.0629223
0.0638379
0.0647447
0.0656418
0.0665271
0.0673988
0.0682575
0.0691027
0.0699377
0.0707658
0.0715873
0.0723994
0.0731993
0.0739837
0.074756
0.0755223
0.0762836
0.0422851
0.0426802
0.0431627
0.0437233
0.0443625
0.0450559
0.045822
0.0466359
0.0474893
0.0483786
0.049292
0.0502304
0.0511804
0.0521369
0.0531182
0.0541044
0.0550978
0.0560691
0.0570371
0.0579819
0.0589222
0.0598588
0.0607905
0.0617287
0.0626399
0.0635424
0.0644197
0.0652838
0.0661464
0.0669964
0.067831
0.0686479
0.0694513
0.0702366
0.0710148
0.0717898
0.072558
0.0733115
0.0740494
0.074763
0.0754669
0.0761676
0.0768587
0.0472618
0.0448716
0.0425549
0.0403137
0.0381493
0.0360622
0.0340529
0.0321211
0.0302661
0.028487
0.0267822
0.02515
0.0235887
0.0220961
0.0206704
0.0193092
0.0180104
0.0167717
0.0155914
0.0144668
0.013396
0.0123769
0.0114078
0.0104863
0.00961153
0.00878084
0.00799354
0.00724768
0.00654205
0.00587537
0.0052462
0.0046543
0.00409841
0.00357787
0.00309298
0.00264326
0.00222921
0.0018519
0.00151219
0.00121588
0.00100155
0.000808783
0.000581125
0.0470322
0.0448278
0.0426907
0.0406196
0.0386138
0.0366731
0.0347974
0.0329867
0.0312403
0.0295573
0.027937
0.0263779
0.0248789
0.0234385
0.022055
0.0207268
0.0194523
0.01823
0.0170581
0.0159349
0.014859
0.0138289
0.012843
0.0119005
0.0109994
0.0101387
0.00931772
0.00853522
0.00778997
0.00708155
0.00640913
0.00577192
0.00516858
0.00459831
0.0040601
0.00355314
0.00308107
0.00265198
0.0022754
0.00198442
0.00171288
0.00142057
0.00103838
0.0467871
0.0447632
0.0427975
0.0408881
0.0390335
0.0372332
0.0354867
0.0337938
0.0321539
0.0305665
0.029031
0.0275465
0.0261125
0.0247277
0.023391
0.0221015
0.0208579
0.019659
0.0185038
0.017391
0.0163193
0.015288
0.0142961
0.0133429
0.0124271
0.0115476
0.0107042
0.00989605
0.00912238
0.00838195
0.00767392
0.00699635
0.00634707
0.00572329
0.00512111
0.00453978
0.00399588
0.00350852
0.00310505
0.00274437
0.00237775
0.00196286
0.00143338
0.0465361
0.0446815
0.0428729
0.0411109
0.0393948
0.0377237
0.036097
0.034514
0.0329744
0.0314777
0.0300237
0.0286117
0.0272418
0.025913
0.0246248
0.0233765
0.0221672
0.0209961
0.0198623
0.0187648
0.0177032
0.016676
0.0156834
0.0147243
0.0137981
0.0129044
0.0120428
0.0112125
0.0104125
0.00964178
0.00889867
0.00818127
0.00748564
0.0068069
0.00613957
0.00548359
0.00487324
0.00432816
0.00387769
0.00343949
0.00297781
0.00244804
0.00179081
0.0463128
0.0446006
0.0429304
0.0413009
0.03971
0.0381563
0.0366391
0.0351574
0.0337108
0.0322987
0.0309208
0.0295772
0.0282678
0.0269927
0.0257514
0.0245436
0.0233686
0.0222256
0.0211138
0.020033
0.018982
0.0179605
0.0169682
0.0160044
0.0150688
0.0141615
0.0132821
0.0124297
0.0116042
0.0108039
0.0100271
0.00927098
0.00853093
0.0078012
0.00707465
0.00635311
0.00568333
0.00508548
0.0045754
0.00406443
0.00351656
0.00288577
0.00211641
0.0461188
0.0445303
0.0429827
0.0414715
0.039993
0.0385452
0.037127
0.0357377
0.0343763
0.0330419
0.0317339
0.0304525
0.0291987
0.0279724
0.026774
0.0256035
0.0244604
0.0233439
0.0222533
0.0211881
0.0201478
0.019132
0.0181403
0.017172
0.0162273
0.0153064
0.0144093
0.013536
0.0126856
0.0118572
0.0110486
0.0102563
0.00947568
0.00870021
0.00792209
0.00714547
0.00642797
0.00580097
0.00521919
0.00463342
0.00400434
0.00328189
0.00241166
0.0459529
0.0444791
0.0430409
0.0416354
0.0402578
0.0389043
0.0375747
0.0362684
0.0349847
0.033721
0.032476
0.0312501
0.0300449
0.0288616
0.0277005
0.0265627
0.025448
0.0243558
0.0232848
0.0222346
0.0212045
0.0201947
0.0192045
0.0182327
0.0172795
0.0163454
0.0154312
0.0145373
0.0136633
0.0128083
0.0119696
0.0111438
0.010326
0.00950949
0.00868638
0.00786179
0.00709959
0.00643602
0.00579832
0.00514783
0.00444632
0.00364145
0.00267901
0.0458312
0.0444569
0.043115
0.0418039
0.040517
0.0392468
0.0379949
0.0367627
0.0355483
0.0343493
0.0331611
0.0319832
0.03082
0.0296728
0.0285427
0.0274318
0.0263417
0.0252715
0.0242182
0.0231832
0.0221629
0.0211595
0.0201742
0.0192001
0.018239
0.017292
0.0163611
0.0154471
0.0145502
0.0136696
0.0128029
0.0119461
0.0110927
0.0102382
0.00937585
0.00850912
0.00770678
0.00700473
0.00631906
0.00561239
0.0048475
0.00396968
0.00291926
0.0457541
0.044469
0.043212
0.0419856
0.0407823
0.0395836
0.0383982
0.0372329
0.0360792
0.0349366
0.0338018
0.0326648
0.031537
0.0304198
0.0293147
0.0282235
0.0271526
0.0261053
0.0250643
0.0240467
0.0230395
0.0220355
0.0210655
0.0200914
0.019122
0.0181627
0.0172159
0.0162814
0.0153614
0.0144565
0.0135619
0.0126778
0.0117899
0.0108951
0.00999977
0.00909873
0.00826096
0.00752161
0.00679297
0.00603517
0.00521375
0.00428365
0.00318049
0.000406511
0.000514914
0.000737416
0.00095022
0.00115207
0.00134421
0.00152828
0.00170589
0.00187909
0.00204986
0.00222041
0.00239404
0.00257497
0.00276924
0.0029856
0.00323456
0.00352187
0.0038462
0.00420343
0.00459079
0.00500628
0.00544949
0.00591999
0.00641813
0.00694436
0.00749933
0.00808326
0.00869675
0.0093404
0.0100147
0.0107202
0.0114578
0.0122285
0.0130331
0.0138723
0.0147473
0.0156591
0.0166085
0.0175965
0.0186243
0.0196932
0.0208049
0.0219617
0.000655989
0.000693808
0.00090895
0.00112952
0.00133939
0.0015388
0.00172972
0.00191455
0.00209608
0.00227765
0.0024635
0.00265856
0.00286923
0.00310322
0.00336899
0.00367309
0.00401106
0.00437832
0.00477186
0.00519015
0.00563231
0.0060982
0.00658783
0.00710106
0.0076386
0.00820068
0.00878751
0.00939939
0.0100366
0.0106998
0.0113894
0.0121063
0.0128511
0.0136245
0.0144272
0.0152601
0.0161241
0.0170199
0.0179484
0.0189107
0.0199077
0.0209409
0.0220106
0.000908725
0.000858496
0.00106249
0.00128994
0.00150808
0.00171541
0.00191468
0.00210937
0.00230366
0.00250264
0.00271214
0.00293858
0.00318828
0.00346768
0.00378313
0.00413426
0.00451291
0.00491535
0.00533955
0.00578467
0.00625031
0.00673613
0.00724245
0.00776905
0.00831617
0.00888386
0.00947208
0.0100812
0.0107116
0.0113634
0.0120373
0.0127339
0.0134534
0.0141965
0.0149639
0.0157564
0.0165743
0.0174185
0.0182898
0.0191889
0.0201166
0.0210737
0.022061
0.00114457
0.00100586
0.0011962
0.00142951
0.00165555
0.00187143
0.0020807
0.00228831
0.00250012
0.00272261
0.00296222
0.00322483
0.0035155
0.00383857
0.00419835
0.00458728
0.00499879
0.00543017
0.0058802
0.00634819
0.00683376
0.00733677
0.00785715
0.00839473
0.00894923
0.00952076
0.0101094
0.0107151
0.0113383
0.0119789
0.0126377
0.0133149
0.0140107
0.0147257
0.0154604
0.0162151
0.0169906
0.0177871
0.0186054
0.0194463
0.0203101
0.0211975
0.0221093
0.0013586
0.00113702
0.00131254
0.0015511
0.00178497
0.00201019
0.00223135
0.00245503
0.00268838
0.00293836
0.00321093
0.00351045
0.00384
0.00420325
0.00459971
0.00501967
0.00545858
0.00591469
0.00638685
0.00687438
0.00737721
0.0078949
0.00842712
0.00897358
0.00953382
0.0101081
0.0106961
0.0112979
0.0119138
0.0125438
0.0131883
0.0138472
0.0145211
0.0152102
0.0159146
0.0166349
0.0173714
0.0181245
0.0188945
0.0196822
0.0204877
0.0213111
0.0221519
0.00155124
0.00125369
0.00141445
0.00165781
0.00189967
0.0021352
0.00237019
0.00261247
0.0028699
0.00314916
0.0034547
0.00378901
0.00415393
0.00455314
0.00497993
0.00542614
0.00588868
0.00636601
0.00685745
0.0073623
0.0078802
0.00841046
0.00895252
0.00950619
0.0100711
0.0106471
0.0112342
0.011832
0.0124408
0.0130608
0.0136917
0.0143339
0.0149874
0.0156526
0.0163294
0.0170182
0.0177192
0.0184326
0.0191588
0.0198979
0.0206503
0.021416
0.0221962
0.00172419
0.00135754
0.00150423
0.00175243
0.0020025
0.00224913
0.00249945
0.00276215
0.00304497
0.00335341
0.00369032
0.00405647
0.00445341
0.00488318
0.00533539
0.00580444
0.00628783
0.00678437
0.0072928
0.00781281
0.00834361
0.00888479
0.0094354
0.00999521
0.0105638
0.0111411
0.0117268
0.0123206
0.0129227
0.0135333
0.0141518
0.0147784
0.0154133
0.0160563
0.0167078
0.0173679
0.0180367
0.0187141
0.0194002
0.0200951
0.0207989
0.0215115
0.0222326
0.00187294
0.00144859
0.0015839
0.00183597
0.00209492
0.0023535
0.00262054
0.00290403
0.00321206
0.00354876
0.00391438
0.00430903
0.00473456
0.0051898
0.00566482
0.00615562
0.00665913
0.00717279
0.00769545
0.00822814
0.00877059
0.00932134
0.00987976
0.010445
0.011017
0.0115951
0.0121791
0.0127687
0.0133644
0.0139663
0.0145733
0.0151851
0.0158019
0.0164244
0.0170528
0.0176871
0.018327
0.0189716
0.0196207
0.0202752
0.0209347
0.021599
0.0222686
0.00205878
0.00153629
0.00165126
0.00191525
0.00218112
0.00245498
0.00273372
0.00304092
0.00337883
0.00373789
0.00412975
0.00455129
0.00500475
0.00549225
0.00600226
0.00652213
0.00703929
0.00755396
0.00807402
0.00861852
0.00917342
0.00973371
0.010299
0.010869
0.0114436
0.0120205
0.0125999
0.0131838
0.0137736
0.0143687
0.0149642
0.0155583
0.0161561
0.0167588
0.0173668
0.0179797
0.0185949
0.0192084
0.0198224
0.0204401
0.021059
0.0216784
0.0222989
0.000222579
0.000859208
0.00184391
0.00284848
0.0038232
0.00477541
0.00571826
0.00665638
0.00758916
0.00851757
0.00944419
0.0103722
0.0113057
0.0122494
0.0132079
0.0141856
0.0151864
0.0162132
0.0172678
0.0183497
0.0194577
0.0205896
0.0217456
0.0229301
0.0241445
0.0253836
0.0266477
0.0279862
0.0294083
0.0308971
0.0324388
0.0340245
0.0356511
0.0373149
0.0390117
0.0407385
0.0424927
0.0442716
0.0460733
0.0478953
0.0497371
0.0515984
0.0534875
0.000165357
0.000562219
0.0012637
0.00218587
0.00312542
0.00402919
0.00489912
0.00573897
0.00656175
0.00737902
0.00819911
0.00902614
0.00986386
0.0107161
0.0115868
0.0124799
0.0133994
0.0143492
0.0153322
0.0163506
0.0174055
0.0184968
0.0196241
0.020787
0.0219846
0.0232158
0.0244831
0.0258026
0.0271838
0.0286199
0.030097
0.0316341
0.0332544
0.0349387
0.0366725
0.038449
0.040262
0.0421064
0.0439782
0.045874
0.0477914
0.0497307
0.0516957
2.11219e-05
0.000347446
0.000810858
0.0014366
0.00221474
0.00314176
0.00418677
0.00518097
0.0061178
0.00700637
0.00785559
0.00867574
0.00947644
0.0102663
0.0110536
0.0118465
0.0126531
0.0134812
0.0143382
0.0152304
0.0161634
0.0171411
0.0181663
0.0192402
0.0203632
0.0215356
0.0227586
0.0240364
0.0253731
0.0267687
0.0282187
0.0297261
0.0312934
0.0329093
0.0345902
0.0363543
0.0381803
0.0400553
0.04197
0.0439175
0.0458928
0.0478935
0.0499196
2.95878e-05
0.000296455
0.000684216
0.00119533
0.00183378
0.00260167
0.00350313
0.00452993
0.00555676
0.00654627
0.00749548
0.00840667
0.00928204
0.0101245
0.0109384
0.0117294
0.0125046
0.0132728
0.014044
0.0148284
0.0156367
0.0164792
0.0173646
0.0183007
0.0192932
0.0203466
0.0214643
0.0226492
0.0239036
0.0252285
0.0266229
0.0280849
0.0296114
0.0311969
0.0328412
0.0345432
0.0363011
0.0381484
0.0400653
0.0420353
0.0440473
0.0460936
0.0481694
1.49601e-05
0.000255942
0.000595332
0.00103747
0.00159325
0.00226098
0.00304423
0.0039474
0.0049714
0.00602807
0.00705811
0.00805183
0.00900956
0.0099325
0.0108214
0.0116771
0.0125013
0.0132972
0.0140699
0.0148272
0.0155786
0.0163357
0.0171112
0.0179184
0.0187697
0.0196768
0.0206494
0.0216957
0.0228216
0.024031
0.0253255
0.0267039
0.0281629
0.0296972
0.0313012
0.0329689
0.034695
0.0364825
0.0383308
0.040272
0.0422849
0.0443519
0.04646
1.40906e-05
0.000237849
0.000542214
0.000939598
0.00143917
0.0020399
0.0027448
0.00355849
0.00448633
0.00552499
0.00659533
0.00764812
0.00867147
0.00966362
0.0106242
0.0115526
0.012448
0.0133095
0.0141374
0.0149335
0.0157019
0.0164495
0.0171858
0.0179232
0.0186764
0.0194612
0.0202937
0.0211892
0.0221612
0.0232204
0.0243742
0.0256265
0.0269771
0.0284225
0.0299567
0.031572
0.0332599
0.0350139
0.036828
0.0387053
0.0406579
0.042703
0.0448167
1.26206e-05
0.000231429
0.0005017
0.000866672
0.001324
0.00187626
0.00252415
0.00327179
0.00412424
0.00508694
0.00614774
0.00723361
0.00830558
0.00935264
0.0103721
0.0113629
0.0123235
0.0132522
0.0141471
0.0150066
0.0158302
0.0166192
0.0173775
0.0181117
0.0188324
0.0195535
0.0202917
0.021066
0.0218958
0.0227997
0.0237935
0.0248895
0.0260948
0.0274117
0.0288376
0.0303661
0.0319881
0.0336937
0.0354729
0.0373184
0.0392271
0.0412007
0.0432782
1.23325e-05
0.000228664
0.000472787
0.00081344
0.00123907
0.00175448
0.00235915
0.00305673
0.00385209
0.00475077
0.00575707
0.00684038
0.00793934
0.00902608
0.0100916
0.011133
0.0121484
0.0131357
0.0140925
0.015016
0.0159035
0.0167531
0.0175641
0.0183381
0.0190791
0.0197954
0.0204991
0.0212067
0.0219379
0.0227151
0.023561
0.024496
0.0255375
0.0266968
0.0279792
0.0293839
0.0309046
0.0325315
0.0342532
0.0360575
0.0379345
0.0398788
0.0419065
1.20957e-05
0.000227654
0.000450768
0.000772563
0.00117368
0.00166036
0.00223133
0.00288973
0.00364015
0.00448775
0.00543816
0.00648892
0.00759265
0.0087041
0.00980404
0.0108854
0.0119452
0.0129813
0.013991
0.0149712
0.0159188
0.0168301
0.0177023
0.0185334
0.0193231
0.0200736
0.0207911
0.0214857
0.022173
0.0228727
0.0236089
0.024407
0.025292
0.0262855
0.0274034
0.0286544
0.0300396
0.0315537
0.0331863
0.0349246
0.0367554
0.0386686
0.0406639
1.20997e-05
0.000227225
0.000434562
0.00074203
0.00112459
0.00158808
0.00213244
0.00275987
0.00347451
0.00428151
0.00518628
0.00619304
0.00728142
0.00840216
0.00952489
0.0106365
0.0117317
0.0128074
0.013861
0.0148896
0.0158895
0.0168571
0.0177882
0.0186792
0.0195271
0.0203303
0.0210897
0.0218096
0.0224988
0.0231715
0.0238474
0.0245512
0.0253106
0.0261542
0.0271076
0.0281908
0.0294159
0.0307864
0.0322976
0.0339394
0.0356979
0.0375594
0.0395117
1.22378e-05
0.000227434
0.000422515
0.000718651
0.0010868
0.00153202
0.00205546
0.00265841
0.0033446
0.00411888
0.00498669
0.00595322
0.00701391
0.00813066
0.00926551
0.0103987
0.0115213
0.0126287
0.0137184
0.0147872
0.0158317
0.0168481
0.0178321
0.0187791
0.0196849
0.0205458
0.0213592
0.022125
0.0228463
0.0235306
0.0241912
0.0248475
0.0255247
0.0262527
0.0270629
0.0279842
0.0290406
0.0302473
0.0316096
0.0331243
0.0347808
0.0365651
0.0384636
1.25834e-05
0.000228393
0.000414396
0.000701172
0.00105809
0.00148903
0.0019961
0.00257971
0.00324339
0.00399152
0.00482934
0.00576254
0.00679234
0.00789566
0.0090336
0.0101806
0.0113237
0.0124565
0.0135754
0.0146774
0.0157592
0.0168171
0.0178469
0.0188439
0.0198031
0.0207197
0.0215896
0.0224094
0.0231782
0.0238982
0.0245762
0.0252248
0.0258634
0.0265181
0.0272203
0.0280038
0.0289011
0.0299391
0.0311359
0.0324985
0.0340243
0.0357029
0.0375173
1.31129e-05
0.000230144
0.000409934
0.000688394
0.00103654
0.00145647
0.00195085
0.00251941
0.00316519
0.00389258
0.00470642
0.00561227
0.00661391
0.00769896
0.00883318
0.00998763
0.0111456
0.0122984
0.0134409
0.0145703
0.0156832
0.0167761
0.017845
0.0188854
0.0198921
0.0208598
0.0217834
0.022658
0.0234799
0.0242477
0.0249629
0.0256321
0.0262675
0.0268889
0.0275234
0.0282039
0.0289671
0.0298481
0.0308767
0.032073
0.0334455
0.0349919
0.0367023
1.38261e-05
0.000232581
0.000408547
0.000679451
0.00102079
0.00143236
0.00191706
0.00247401
0.0031059
0.00381684
0.00461172
0.00549566
0.00647339
0.00753926
0.00866563
0.00982268
0.0109909
0.0121591
0.0133212
0.0144733
0.0156122
0.0167347
0.017837
0.0189146
0.0199626
0.0209759
0.0219484
0.0228748
0.0237499
0.0245696
0.0253319
0.0260384
0.0266953
0.0273153
0.027919
0.0285346
0.0291973
0.029946
0.0308185
0.031847
0.0330531
0.0344458
0.0360211
1.4768e-05
0.000235508
0.000409343
0.00067362
0.00100986
0.00141516
0.00189263
0.00244075
0.00306213
0.00376043
0.00454032
0.00540697
0.00636521
0.00741326
0.00853005
0.00968657
0.0108615
0.0120419
0.01322
0.0143914
0.0155525
0.0167001
0.0178308
0.0189404
0.0200243
0.0210772
0.0220936
0.0230672
0.0239924
0.0248634
0.0256762
0.0264284
0.0271217
0.0277626
0.0283647
0.0289496
0.0295475
0.0301958
0.030936
0.0318084
0.0328468
0.0340737
0.0354973
1.59364e-05
0.000238668
0.000411415
0.000670202
0.00100278
0.00140359
0.00187586
0.00241763
0.00303105
0.00371985
0.00448825
0.0053414
0.00628423
0.00731701
0.00842404
0.00957834
0.0107578
0.011948
0.0131396
0.0143275
0.0155078
0.0166773
0.0178325
0.0189698
0.0200849
0.0211725
0.0222273
0.0232433
0.0242141
0.0251336
0.025996
0.0267969
0.0275342
0.0282098
0.0288309
0.0294123
0.0299773
0.0305587
0.0311964
0.0319348
0.0328162
0.0338761
0.0351393
1.73169e-05
0.000241835
0.00041416
0.000668767
0.000998819
0.00139671
0.00186544
0.00240278
0.00301055
0.00369226
0.00445221
0.00529508
0.00622599
0.00724649
0.00834464
0.00949628
0.010679
0.0118772
0.0130808
0.0142834
0.0154807
0.0166695
0.0178465
0.0190081
0.0201502
0.0212684
0.022357
0.0234105
0.0244225
0.0253864
0.0262957
0.0271446
0.0279286
0.0286459
0.0292991
0.0298965
0.0304546
0.0309993
0.0315659
0.0321979
0.0329422
0.0338437
0.0349408
1.90094e-05
0.00024502
0.0004174
0.000668942
0.000997584
0.00139373
0.00186028
0.00239471
0.00299876
0.00367561
0.00442946
0.00526493
0.00618693
0.00719786
0.00828872
0.00943795
0.0106235
0.0118289
0.0130433
0.0142595
0.0154725
0.0166789
0.0178754
0.0190588
0.0202251
0.0213701
0.0224887
0.0235754
0.0246242
0.0256282
0.0265808
0.0274751
0.0283054
0.0290672
0.0297595
0.0303857
0.0309557
0.0314884
0.0320128
0.0325678
0.0332003
0.0339607
0.0348975
2.1059e-05
0.000248161
0.000420927
0.000670374
0.000998515
0.001394
0.0018594
0.00239232
0.00299418
0.00366807
0.00441786
0.00524818
0.00616384
0.00716771
0.00825313
0.00940073
0.0105892
0.0118016
0.0130263
0.0142552
0.0154831
0.0167061
0.0179209
0.0191241
0.0203124
0.0214816
0.0226271
0.0237434
0.0248249
0.0258651
0.0268569
0.0277934
0.0286678
0.0294741
0.0302085
0.0308706
0.0314653
0.0320047
0.0325108
0.0330163
0.0335644
0.0342063
0.0349971
2.34778e-05
0.000251171
0.000424584
0.000672863
0.0010011
0.0013968
0.00186211
0.00239465
0.00299558
0.0036679
0.00441546
0.00524256
0.00615407
0.00715316
0.00823481
0.00938192
0.0105738
0.0117934
0.0130282
0.0142699
0.0155122
0.0167512
0.0179834
0.0192055
0.0204141
0.0216056
0.0227753
0.0239186
0.0250295
0.0261021
0.0271295
0.0281046
0.02902
0.0298691
0.030646
0.0313475
0.0319744
0.0325335
0.0330399
0.0335194
0.0340091
0.0345574
0.0352209
2.63562e-05
0.000254042
0.000428347
0.000676226
0.00100521
0.00140174
0.0018678
0.00240092
0.00300207
0.00367409
0.00442077
0.00524641
0.00615562
0.00715189
0.00823148
0.00937917
0.0105752
0.0118023
0.0130476
0.014302
0.015559
0.0168139
0.018063
0.0193034
0.0205314
0.0217437
0.022936
0.0241037
0.0252416
0.0263435
0.0274032
0.0284134
0.0293667
0.0302558
0.0310739
0.0318156
0.0324789
0.0330658
0.033586
0.034058
0.0345123
0.0349916
0.0355494
2.98314e-05
0.000256883
0.000432303
0.000680274
0.00101054
0.00140851
0.00187594
0.00241038
0.00301271
0.00368557
0.00443259
0.00525805
0.00616655
0.00716166
0.00824078
0.00939029
0.0105913
0.0118265
0.0130828
0.0143502
0.0156221
0.0168929
0.0181592
0.0194175
0.0206645
0.0218968
0.0231105
0.0243011
0.0254638
0.0265927
0.0276817
0.028724
0.029712
0.0306383
0.0314953
0.0322765
0.0329775
0.0335971
0.0341399
0.0346186
0.0350561
0.0354877
0.0359575
3.38378e-05
0.000259654
0.000436344
0.00068498
0.00101685
0.00141677
0.00188621
0.00242262
0.00302677
0.0037014
0.00444979
0.00527621
0.00618529
0.00718067
0.00826059
0.0094131
0.01062
0.0118641
0.0131318
0.0144129
0.0156999
0.0169874
0.018271
0.0195474
0.0208133
0.0220652
0.0232995
0.0245121
0.0256979
0.0268521
0.0279682
0.0290398
0.0300597
0.0310204
0.0319138
0.0327328
0.0334712
0.0341256
0.0346965
0.0351915
0.0356271
0.0360308
0.0364416
3.83302e-05
0.000262305
0.000440402
0.00069019
0.00102403
0.00142626
0.00189823
0.00243719
0.00304384
0.00372077
0.00447151
0.00529994
0.00621068
0.00720756
0.00828952
0.00944588
0.0106595
0.0119132
0.0131931
0.0144885
0.0157913
0.0170958
0.0183974
0.0196922
0.0209771
0.0222487
0.0235034
0.0247371
0.0259454
0.0271232
0.0282647
0.0293637
0.030413
0.0314052
0.0323326
0.0331872
0.0339619
0.0346514
0.0352535
0.0357713
0.0362157
0.0366073
0.0369782
4.32974e-05
0.000264943
0.000444542
0.000695795
0.00103195
0.00143685
0.00191169
0.00245357
0.00306331
0.00374325
0.00449686
0.00532821
0.00624153
0.00724094
0.00832603
0.00948723
0.0107083
0.0119723
0.013265
0.0145754
0.0158948
0.0172169
0.0185369
0.0198509
0.0211553
0.0224467
0.0237219
0.0249765
0.0262067
0.0274072
0.0285729
0.0296974
0.0307743
0.0317959
0.0327547
0.0336426
0.0344519
0.0351759
0.0358105
0.0363552
0.0368161
0.0372082
0.0375573
4.85693e-05
0.000267537
0.000448682
0.000701723
0.00104043
0.00144828
0.00192631
0.00247158
0.00308473
0.0037683
0.00452543
0.00536016
0.00627698
0.00727969
0.00836865
0.00953557
0.0107648
0.0120398
0.013346
0.014672
0.0160086
0.0173492
0.0186884
0.0200221
0.0213466
0.0226585
0.0239542
0.0252301
0.0264817
0.0277047
0.0288935
0.0300426
0.0311454
0.0321947
0.0331828
0.0341019
0.0349437
0.0357011
0.036368
0.0369417
0.0374245
0.0378261
0.0381657
5.39985e-05
0.000270033
0.000452752
0.000707962
0.00104942
0.00146039
0.00194196
0.00249094
0.0031079
0.00379533
0.00455655
0.00539532
0.00631613
0.00732299
0.00841659
0.00958973
0.0108278
0.0121143
0.0134347
0.0147769
0.0161315
0.0174913
0.0188506
0.0202047
0.02155
0.0228829
0.0241999
0.0254971
0.0267706
0.0280157
0.0292274
0.0304001
0.0315276
0.0326031
0.033619
0.0345673
0.0354399
0.036229
0.0369276
0.0375311
0.0380389
0.0384566
0.0387987
5.95786e-05
0.000272509
0.00045685
0.000714433
0.00105881
0.00147314
0.00195845
0.0025113
0.00313244
0.00382413
0.00458974
0.0054331
0.0063585
0.00737
0.00846892
0.00964889
0.0108963
0.0121949
0.0135299
0.0148891
0.0162623
0.0176419
0.0190219
0.0203975
0.0217644
0.023119
0.0244578
0.0257769
0.0270725
0.0283399
0.0295743
0.0307703
0.0319219
0.0330224
0.0340646
0.0350407
0.0359424
0.0367616
0.0374908
0.0381239
0.0386581
0.0390954
0.0394453
6.51823e-05
0.000274955
0.000460915
0.00072103
0.00106853
0.00148638
0.00197557
0.00253256
0.00315797
0.00385431
0.00462466
0.0054729
0.00640331
0.00742005
0.00852468
0.00971197
0.0109691
0.0122803
0.0136304
0.015007
0.0163995
0.0177998
0.0192013
0.0205989
0.0219884
0.0233655
0.0247268
0.0260686
0.0273866
0.0286768
0.029934
0.0311532
0.0323284
0.0334534
0.0345209
0.0355233
0.0364526
0.0373005
0.0380588
0.0387209
0.0392818
0.0397406
0.0401022
7.06773e-05
0.000277327
0.000464882
0.000727816
0.00107848
0.00150001
0.00199323
0.00255453
0.00318448
0.00388554
0.00466095
0.00551435
0.00645012
0.00747244
0.00858325
0.00977824
0.0110454
0.0123694
0.0137352
0.0151297
0.016542
0.0179636
0.0193875
0.020808
0.0222206
0.0236213
0.0250059
0.026371
0.0277123
0.0290255
0.030306
0.0315484
0.0327472
0.0338962
0.0349885
0.0360163
0.0369719
0.037847
0.0386333
0.0393231
0.0399104
0.0403917
0.0407683
7.61019e-05
0.000279672
0.000468829
0.000734747
0.00108869
0.00151388
0.00201134
0.00257704
0.00321174
0.00391772
0.00469827
0.0055572
0.00649864