/*--------------------------------*- C++ -*----------------------------------*\
| =========                 |                                                 |
| \\      /  F ield         | OpenFOAM: The Open Source CFD Toolbox           |
|  \\    /   O peration     | Version:  2.3.0                                 |
|   \\  /    A nd           | Web:      www.OpenFOAM.org                      |
|    \\/     M anipulation  |                                                 |
\*---------------------------------------------------------------------------*/
FoamFile
{
    version     2.0;
    format      ascii;
    class       volScalarField;
    location    "1000";
    object      nuTilda;
}
// * * * * * * * * * * * * * * * * * * * * * * * * * * * * * * * * * * * * * //

dimensions      [0 2 -1 0 0 0 0];

internalField   nonuniform List<scalar> 
39444
(
0.0553236
0.0535837
0.0518575
0.0501472
0.048453
0.0467767
0.0451198
0.0434832
0.0418683
0.0402769
0.0387103
0.0371702
0.0356585
0.0341768
0.0327286
0.0313169
0.0299466
0.0286208
0.0273413
0.0261118
0.0249344
0.0237996
0.0226868
0.0215897
0.0205117
0.019457
0.0184303
0.0174328
0.0164655
0.0155277
0.0146185
0.0137353
0.012875
0.0120341
0.0112095
0.0103962
0.00959114
0.00879224
0.00799882
0.00721459
0.00644673
0.00573296
0.00526555
0.0572003
0.055677
0.0541646
0.0526641
0.051177
0.0497039
0.048246
0.0468035
0.0453771
0.0439678
0.0425763
0.0412035
0.0398501
0.0385161
0.037203
0.0359117
0.0346425
0.0333966
0.0321753
0.0309789
0.029808
0.0286625
0.0275414
0.0264432
0.0253695
0.0243209
0.0233004
0.0223103
0.0213529
0.0204316
0.0195488
0.0187097
0.017919
0.0171816
0.0165053
0.0158985
0.0153707
0.0149347
0.0146018
0.0143881
0.0143078
0.0143754
0.0146044
0.0589025
0.0575613
0.0562271
0.0549024
0.0535883
0.0522851
0.0509932
0.0497128
0.0484445
0.0471886
0.0459458
0.0447168
0.0435022
0.0423022
0.0411168
0.0399473
0.0387942
0.0376578
0.0365389
0.035438
0.0343568
0.0332954
0.032255
0.0312362
0.0302408
0.0292705
0.0283268
0.0274133
0.026532
0.0256875
0.0248834
0.0241231
0.0234136
0.0227616
0.022173
0.0216563
0.0212212
0.0208766
0.0206345
0.0205025
0.0204894
0.0206008
0.0208383
0.0604504
0.0592579
0.0580738
0.056898
0.0557299
0.0545697
0.0534173
0.0522733
0.0511374
0.0500103
0.0488926
0.0477843
0.0466862
0.0455985
0.044522
0.0434569
0.0424037
0.041363
0.0403356
0.0393221
0.0383234
0.0373413
0.0363768
0.0354311
0.0345054
0.0336026
0.0327246
0.0318747
0.0310557
0.030271
0.0295257
0.0288242
0.0281713
0.0275745
0.0270402
0.0265755
0.0261892
0.0258904
0.0256857
0.0255845
0.025592
0.0257116
0.0259451
0.0618432
0.0607825
0.0597276
0.0586785
0.0576343
0.0565953
0.0555612
0.0545319
0.0535074
0.0524885
0.0514756
0.0504687
0.0494681
0.0484746
0.0474884
0.0465106
0.0455415
0.0445813
0.0436308
0.0426908
0.0417624
0.0408469
0.0399462
0.0390617
0.0381945
0.037347
0.0365219
0.0357223
0.0349512
0.0342133
0.0335127
0.0328542
0.032243
0.0316854
0.0311879
0.0307572
0.0304024
0.0301304
0.0299482
0.0298628
0.02988
0.0300018
0.0302299
0.0630987
0.0621527
0.0612091
0.0602679
0.0593296
0.0583936
0.0574597
0.0565277
0.0555974
0.0546696
0.0537448
0.0528231
0.0519046
0.0509899
0.0500793
0.0491738
0.0482745
0.047382
0.0464963
0.0456182
0.0447481
0.0438879
0.0430397
0.0422058
0.0413874
0.040586
0.0398043
0.0390453
0.0383124
0.03761
0.0369437
0.036318
0.0357382
0.0352098
0.0347387
0.034332
0.0339978
0.0337427
0.0335742
0.0334981
0.0335196
0.0336414
0.0338643
0.0642304
0.0633853
0.0625373
0.0616881
0.0608397
0.059992
0.0591434
0.0582942
0.057444
0.0565926
0.0557421
0.0548927
0.0540437
0.0531953
0.0523485
0.0515034
0.0506615
0.0498247
0.0489948
0.0481695
0.0473493
0.046535
0.0457295
0.0449362
0.0441584
0.0433964
0.0426516
0.0419264
0.0412244
0.0405501
0.0399096
0.039308
0.0387524
0.0382472
0.0377964
0.0374075
0.0370878
0.0368438
0.036684
0.0366131
0.0366366
0.0367571
0.0369754
0.0652592
0.0644954
0.0637303
0.0629577
0.062186
0.0614143
0.0606386
0.059859
0.0590796
0.0582915
0.0575035
0.0567153
0.055926
0.0551338
0.0543419
0.0535485
0.0527546
0.0519608
0.0511764
0.0503978
0.0496216
0.048848
0.0480788
0.0473158
0.0465699
0.0458415
0.0451296
0.0444352
0.0437594
0.0431079
0.0424879
0.0419022
0.0413645
0.0408782
0.040445
0.0400693
0.0397613
0.0395239
0.0393698
0.0393019
0.0393256
0.0394449
0.039659
0.0662039
0.065499
0.0648086
0.0640943
0.0633841
0.0626776
0.0619686
0.0612372
0.060526
0.0597922
0.0590583
0.0583176
0.0575838
0.0568343
0.0560925
0.055342
0.0545985
0.0538295
0.0530785
0.0523393
0.0516055
0.0508678
0.0501394
0.0493939
0.0486678
0.0479651
0.0472817
0.0466189
0.0459739
0.0453367
0.0447422
0.0441628
0.0436347
0.043163
0.0427523
0.0423821
0.0420905
0.0418524
0.0417031
0.0416372
0.041658
0.0417769
0.0419883
0.00613768
0.00788283
0.00904843
0.0102195
0.0114622
0.0127719
0.014133
0.0155326
0.0169605
0.0184114
0.0198804
0.0213643
0.0228613
0.0243694
0.0258869
0.0274135
0.0289484
0.0304911
0.0320407
0.0335972
0.0351603
0.0367295
0.0383047
0.0398854
0.0414715
0.0430626
0.0446584
0.0462585
0.0478627
0.0494705
0.0510813
0.0526947
0.0543102
0.0559273
0.0575455
0.059164
0.0607823
0.0624
0.0640161
0.06563
0.0672411
0.0688483
0.0704537
0.0149987
0.0155594
0.0162727
0.0171246
0.0180974
0.019171
0.0203265
0.0215478
0.0228205
0.024134
0.0254786
0.0268478
0.0282359
0.0296381
0.0310516
0.032474
0.0339033
0.0353383
0.0367774
0.0382196
0.0396645
0.0411115
0.0425604
0.0440101
0.0454608
0.0469124
0.0483644
0.0498168
0.0512695
0.0527221
0.0541741
0.0556256
0.0570766
0.0585264
0.059975
0.0614221
0.0628676
0.0643112
0.0657526
0.0671916
0.0686276
0.0700609
0.0714958
0.0212012
0.0216911
0.0223108
0.0230516
0.0239007
0.024845
0.0258702
0.026963
0.0281115
0.0293052
0.0305348
0.0317927
0.0330725
0.0343687
0.035678
0.0369966
0.0383219
0.039652
0.0409847
0.042319
0.0436539
0.0449884
0.0463219
0.0476538
0.048984
0.050312
0.0516377
0.0529612
0.0542822
0.0556002
0.0569151
0.058227
0.0595363
0.0608423
0.0621452
0.0634451
0.0647419
0.0660357
0.0673265
0.0686143
0.0698988
0.07118
0.0724616
0.0262904
0.0267487
0.0273209
0.0280008
0.0287787
0.0296446
0.0305868
0.031594
0.0326563
0.0337629
0.0349054
0.0360768
0.0372702
0.0384808
0.0397039
0.0409356
0.0421734
0.0434146
0.0446572
0.0459
0.0471407
0.0483788
0.0496139
0.0508453
0.0520726
0.0532956
0.0545142
0.0557279
0.0569366
0.0581401
0.0593384
0.0605316
0.06172
0.0629034
0.0640818
0.0652556
0.066425
0.0675902
0.0687514
0.0699084
0.0710611
0.0722102
0.073359
0.030563
0.0310004
0.0315422
0.032183
0.0329142
0.033727
0.0346115
0.0355575
0.0365558
0.0375972
0.0386731
0.0397765
0.0409012
0.0420421
0.0431943
0.0443542
0.0455194
0.0466869
0.0478543
0.0490194
0.050181
0.0513378
0.0524894
0.0536355
0.0547762
0.0559108
0.057039
0.05816
0.0592736
0.0603802
0.0614795
0.0625721
0.0636576
0.0647363
0.0658085
0.0668746
0.067935
0.06899
0.0700395
0.0710832
0.0721212
0.0731543
0.0741847
0.0341871
0.0346093
0.0351296
0.0357424
0.0364401
0.0372145
0.038057
0.0389575
0.0399074
0.0408984
0.0419218
0.0429712
0.0440406
0.0451243
0.0462185
0.04732
0.0484255
0.049532
0.0506366
0.0517368
0.0528312
0.0539191
0.0550003
0.0560752
0.0571434
0.0582039
0.0592558
0.0602983
0.0613315
0.062356
0.0633717
0.0643786
0.0653767
0.0663661
0.0673472
0.0683211
0.0692883
0.070249
0.0712024
0.072148
0.073086
0.0740177
0.0749469
0.0372905
0.0377009
0.0382051
0.038797
0.0394693
0.0402143
0.0410239
0.0418894
0.0428017
0.0437524
0.0447339
0.0457392
0.0467625
0.0477986
0.048845
0.0498987
0.050956
0.0520122
0.0530642
0.054109
0.055145
0.0561737
0.0571956
0.0582116
0.0592199
0.0602182
0.0612053
0.0621804
0.063145
0.0641002
0.0650451
0.0659792
0.0669026
0.0678151
0.0687178
0.0696127
0.0705007
0.071381
0.0722519
0.073112
0.0739623
0.0748055
0.075644
0.0399669
0.0403686
0.0408604
0.0414363
0.042089
0.0428088
0.0435929
0.0444305
0.0453127
0.0462307
0.0471774
0.0481461
0.0491305
0.0501248
0.051132
0.0521474
0.0531674
0.0541815
0.0551883
0.0561836
0.0571676
0.0581455
0.0591178
0.0600871
0.0610458
0.0619917
0.0629223
0.0638379
0.0647447
0.0656418
0.0665271
0.0673988
0.0682575
0.0691027
0.0699377
0.0707658
0.0715873
0.0723994
0.0731993
0.0739837
0.074756
0.0755223
0.0762837
0.0422851
0.0426802
0.0431627
0.0437233
0.0443625
0.0450559
0.045822
0.0466359
0.0474893
0.0483786
0.049292
0.0502304
0.0511804
0.0521369
0.0531182
0.0541044
0.0550978
0.0560691
0.0570371
0.0579819
0.0589222
0.0598588
0.0607905
0.0617287
0.0626399
0.0635424
0.0644197
0.0652838
0.0661464
0.0669964
0.067831
0.0686479
0.0694513
0.0702366
0.0710148
0.0717898
0.072558
0.0733115
0.0740494
0.074763
0.0754669
0.0761676
0.0768587
0.0472618
0.0448716
0.0425549
0.0403137
0.0381493
0.0360622
0.0340529
0.0321211
0.0302661
0.028487
0.0267822
0.02515
0.0235887
0.0220961
0.0206704
0.0193092
0.0180104
0.0167717
0.0155914
0.0144668
0.013396
0.0123769
0.0114078
0.0104863
0.00961155
0.00878086
0.00799356
0.00724771
0.00654208
0.00587541
0.00524625
0.00465437
0.00409849
0.00357798
0.00309312
0.00264345
0.00222949
0.0018523
0.0015128
0.00121682
0.00100293
0.000810899
0.000585171
0.0470322
0.0448278
0.0426907
0.0406196
0.0386138
0.0366731
0.0347974
0.0329867
0.0312403
0.0295573
0.027937
0.0263779
0.0248789
0.0234385
0.022055
0.0207268
0.0194523
0.01823
0.0170581
0.0159349
0.014859
0.0138289
0.012843
0.0119005
0.0109994
0.0101388
0.00931774
0.00853524
0.00778999
0.00708158
0.00640917
0.00577196
0.00516863
0.00459837
0.00406018
0.00355325
0.00308122
0.00265218
0.00227567
0.00198477
0.00171335
0.00142126
0.00103967
0.0467871
0.0447632
0.0427975
0.0408881
0.0390335
0.0372332
0.0354867
0.0337938
0.0321539
0.0305665
0.029031
0.0275465
0.0261125
0.0247277
0.023391
0.0221015
0.0208579
0.019659
0.0185038
0.017391
0.0163193
0.015288
0.0142961
0.0133429
0.0124271
0.0115476
0.0107042
0.00989607
0.0091224
0.00838197
0.00767394
0.00699638
0.00634711
0.00572333
0.00512117
0.00453985
0.00399597
0.00350863
0.0031052
0.00274456
0.002378
0.00196322
0.00143406
0.0465361
0.0446815
0.0428729
0.0411109
0.0393948
0.0377237
0.036097
0.034514
0.0329744
0.0314777
0.0300237
0.0286117
0.0272418
0.025913
0.0246248
0.0233765
0.0221672
0.0209961
0.0198623
0.0187648
0.0177032
0.016676
0.0156834
0.0147243
0.0137981
0.0129044
0.0120428
0.0112125
0.0104125
0.00964179
0.00889869
0.00818129
0.00748567
0.00680693
0.00613961
0.00548363
0.0048733
0.00432823
0.00387778
0.00343961
0.00297797
0.00244827
0.00179124
0.0463128
0.0446006
0.0429304
0.0413009
0.03971
0.0381563
0.0366391
0.0351574
0.0337108
0.0322987
0.0309208
0.0295772
0.0282678
0.0269927
0.0257514
0.0245436
0.0233686
0.0222256
0.0211138
0.020033
0.018982
0.0179605
0.0169682
0.0160044
0.0150688
0.0141615
0.0132821
0.0124297
0.0116042
0.0108039
0.0100272
0.009271
0.00853095
0.00780122
0.00707468
0.00635315
0.00568338
0.00508554
0.00457546
0.00406451
0.00351667
0.00288593
0.00211672
0.0461188
0.0445303
0.0429827
0.0414715
0.039993
0.0385452
0.037127
0.0357377
0.0343763
0.0330419
0.0317339
0.0304525
0.0291987
0.0279724
0.026774
0.0256035
0.0244604
0.0233439
0.0222533
0.0211881
0.0201478
0.019132
0.0181403
0.017172
0.0162273
0.0153065
0.0144093
0.013536
0.0126856
0.0118572
0.0110486
0.0102563
0.00947569
0.00870023
0.00792211
0.0071455
0.006428
0.00580101
0.00521924
0.00463348
0.00400443
0.00328202
0.0024119
0.0459529
0.0444791
0.0430409
0.0416354
0.0402578
0.0389043
0.0375747
0.0362684
0.0349847
0.033721
0.032476
0.0312501
0.0300449
0.0288616
0.0277005
0.0265627
0.025448
0.0243558
0.0232848
0.0222346
0.0212045
0.0201947
0.0192045
0.0182327
0.0172795
0.0163454
0.0154312
0.0145373
0.0136633
0.0128083
0.0119696
0.0111438
0.010326
0.0095095
0.00868639
0.00786181
0.00709962
0.00643605
0.00579836
0.00514789
0.00444639
0.00364155
0.0026792
0.0458312
0.0444569
0.043115
0.0418039
0.040517
0.0392468
0.0379949
0.0367627
0.0355483
0.0343493
0.0331611
0.0319832
0.03082
0.0296728
0.0285427
0.0274318
0.0263418
0.0252715
0.0242182
0.0231832
0.0221629
0.0211595
0.0201742
0.0192001
0.018239
0.017292
0.0163611
0.0154471
0.0145502
0.0136696
0.0128029
0.0119461
0.0110927
0.0102382
0.00937586
0.00850914
0.0077068
0.00700476
0.0063191
0.00561243
0.00484756
0.00396976
0.00291942
0.0457541
0.044469
0.043212
0.0419856
0.0407823
0.0395836
0.0383982
0.0372329
0.0360792
0.0349366
0.0338018
0.0326648
0.031537
0.0304198
0.0293147
0.0282235
0.0271526
0.0261053
0.0250643
0.0240467
0.0230395
0.0220355
0.0210655
0.0200914
0.019122
0.0181627
0.0172159
0.0162814
0.0153614
0.0144566
0.0135619
0.0126778
0.0117899
0.0108951
0.00999979
0.00909875
0.00826098
0.00752164
0.006793
0.00603521
0.0052138
0.00428372
0.00318063
0.000414417
0.000519968
0.000739928
0.000951741
0.00115311
0.00134497
0.00152887
0.00170637
0.00187948
0.00205018
0.00222069
0.00239428
0.00257518
0.00276942
0.00298576
0.0032347
0.00352199
0.00384629
0.00420351
0.00459086
0.00500633
0.00544953
0.00592003
0.00641817
0.00694439
0.00749935
0.00808328
0.00869677
0.00934041
0.0100147
0.0107202
0.0114578
0.0122285
0.0130331
0.0138723
0.0147473
0.0156591
0.0166085
0.0175965
0.0186244
0.0196932
0.0208049
0.0219617
0.000659167
0.000696641
0.000910612
0.00113059
0.00134015
0.00153939
0.00173018
0.00191493
0.00209639
0.00227792
0.00246372
0.00265875
0.0028694
0.00310336
0.00336911
0.00367319
0.00401114
0.0043784
0.00477192
0.0051902
0.00563235
0.00609824
0.00658786
0.00710109
0.00763863
0.0082007
0.00878753
0.00939941
0.0100366
0.0106998
0.0113894
0.0121063
0.0128511
0.0136245
0.0144272
0.0152601
0.0161241
0.01702
0.0179484
0.0189107
0.0199077
0.0209409
0.0220106
0.000910398
0.000860358
0.0010637
0.00129077
0.00150869
0.00171587
0.00191506
0.00210968
0.00230392
0.00250286
0.00271233
0.00293874
0.00318841
0.0034678
0.00378323
0.00413434
0.00451298
0.00491541
0.0053396
0.00578471
0.00625035
0.00673616
0.00724247
0.00776908
0.00831619
0.00888388
0.0094721
0.0100812
0.0107116
0.0113634
0.0120373
0.0127339
0.0134534
0.0141965
0.014964
0.0157564
0.0165743
0.0174185
0.0182898
0.0191889
0.0201166
0.0210737
0.022061
0.00114563
0.00100723
0.00119717
0.00143019
0.00165605
0.00187182
0.00208102
0.00228857
0.00250034
0.0027228
0.00296237
0.00322496
0.00351561
0.00383867
0.00419843
0.00458734
0.00499884
0.00543021
0.00588024
0.00634822
0.00683379
0.00733679
0.00785717
0.00839475
0.00894924
0.00952077
0.0101094
0.0107151
0.0113383
0.011979
0.0126377
0.0133149
0.0140107
0.0147257
0.0154604
0.0162151
0.0169906
0.0177871
0.0186054
0.0194463
0.0203101
0.0211975
0.0221093
0.00135935
0.00113808
0.00131334
0.00155167
0.0017854
0.00201053
0.00223163
0.00245526
0.00268857
0.00293852
0.00321106
0.00351056
0.00384009
0.00420333
0.00459977
0.00501973
0.00545862
0.00591473
0.00638688
0.00687441
0.00737723
0.00789492
0.00842714
0.0089736
0.00953384
0.0101081
0.0106961
0.0112979
0.0119138
0.0125438
0.0131883
0.0138472
0.0145211
0.0152102
0.0159146
0.0166349
0.0173714
0.0181245
0.0188945
0.0196822
0.0204877
0.0213111
0.0221519
0.00155181
0.00125457
0.00141514
0.00165831
0.00190005
0.0021355
0.00237043
0.00261268
0.00287007
0.0031493
0.00345482
0.00378911
0.00415401
0.00455321
0.00497998
0.00542619
0.00588872
0.00636605
0.00685748
0.00736233
0.00788023
0.00841048
0.00895254
0.0095062
0.0100711
0.0106471
0.0112342
0.011832
0.0124408
0.0130608
0.0136917
0.0143339
0.0149874
0.0156526
0.0163294
0.0170182
0.0177192
0.0184326
0.0191588
0.0198979
0.0206503
0.021416
0.0221962
0.00172465
0.00135829
0.00150484
0.00175288
0.00200284
0.0022494
0.00249967
0.00276233
0.00304512
0.00335353
0.00369042
0.00405656
0.00445348
0.00488324
0.00533544
0.00580448
0.00628787
0.0067844
0.00729283
0.00781283
0.00834363
0.00888481
0.00943541
0.00999522
0.0105638
0.0111411
0.0117269
0.0123206
0.0129227
0.0135333
0.0141519
0.0147784
0.0154133
0.0160563
0.0167078
0.0173679
0.0180367
0.0187141
0.0194002
0.0200951
0.0207989
0.0215115
0.0222326
0.00187333
0.00144925
0.00158445
0.00183638
0.00209523
0.00235375
0.00262075
0.00290419
0.0032122
0.00354887
0.00391447
0.0043091
0.00473462
0.00518985
0.00566486
0.00615566
0.00665916
0.00717282
0.00769547
0.00822816
0.00877061
0.00932136
0.00987977
0.010445
0.011017
0.0115952
0.0121791
0.0127687
0.0133645
0.0139663
0.0145734
0.0151851
0.0158019
0.0164244
0.0170528
0.0176871
0.018327
0.0189716
0.0196207
0.0202752
0.0209347
0.021599
0.0222686
0.00205911
0.00153688
0.00165176
0.00191563
0.00218141
0.00245521
0.00273391
0.00304107
0.00337895
0.00373799
0.00412983
0.00455136
0.0050048
0.00549229
0.0060023
0.00652217
0.00703932
0.00755399
0.00807404
0.00861853
0.00917344
0.00973372
0.010299
0.010869
0.0114436
0.0120205
0.0126
0.0131838
0.0137736
0.0143688
0.0149642
0.0155583
0.0161561
0.0167588
0.0173668
0.0179797
0.0185949
0.0192084
0.0198224
0.0204401
0.021059
0.0216784
0.0222989
0.000243812
0.000861067
0.00184432
0.00284865
0.00382329
0.00477547
0.0057183
0.00665641
0.00758918
0.00851759
0.00944421
0.0103722
0.0113057
0.0122494
0.0132079
0.0141856
0.0151864
0.0162132
0.0172678
0.0183497
0.0194577
0.0205896
0.0217456
0.0229301
0.0241445
0.0253836
0.0266477
0.0279862
0.0294083
0.0308971
0.0324388
0.0340246
0.0356511
0.0373149
0.0390117
0.0407385
0.0424927
0.0442716
0.0460733
0.0478953
0.0497371
0.0515984
0.0534875
0.000195793
0.000566491
0.00126456
0.00218615
0.00312556
0.00402928
0.00489918
0.00573902
0.00656179
0.00737905
0.00819913
0.00902616
0.00986388
0.0107161
0.0115868
0.0124799
0.0133994
0.0143492
0.0153322
0.0163506
0.0174055
0.0184968
0.0196241
0.020787
0.0219846
0.0232158
0.0244831
0.0258026
0.0271838
0.0286199
0.0300971
0.0316341
0.0332544
0.0349387
0.0366725
0.038449
0.040262
0.0421064
0.0439782
0.045874
0.0477914
0.0497307
0.0516957
7.94304e-05
0.000357918
0.000812944
0.00143726
0.00221502
0.0031419
0.00418685
0.00518102
0.00611784
0.0070064
0.00785561
0.00867576
0.00947645
0.0102663
0.0110536
0.0118465
0.0126531
0.0134812
0.0143382
0.0152304
0.0161634
0.0171411
0.0181663
0.0192402
0.0203632
0.0215356
0.0227586
0.0240364
0.0253731
0.0267687
0.0282187
0.0297261
0.0312934
0.0329093
0.0345902
0.0363543
0.0381803
0.0400553
0.04197
0.0439175
0.0458928
0.0478935
0.0499196
8.85432e-05
0.000310182
0.00068713
0.0011963
0.00183419
0.00260187
0.00350324
0.00453
0.0055568
0.0065463
0.0074955
0.00840669
0.00928206
0.0101246
0.0109385
0.0117294
0.0125046
0.0132728
0.014044
0.0148284
0.0156367
0.0164792
0.0173646
0.0183007
0.0192932
0.0203466
0.0214644
0.0226492
0.0239036
0.0252285
0.0266229
0.0280849
0.0296114
0.0311969
0.0328412
0.0345432
0.0363011
0.0381484
0.0400653
0.0420353
0.0440473
0.0460936
0.0481694
7.15099e-05
0.00027327
0.000599158
0.00103875
0.0015938
0.00226125
0.00304438
0.00394749
0.00497145
0.00602811
0.00705814
0.00805185
0.00900958
0.00993252
0.0108214
0.0116771
0.0125013
0.0132972
0.0140699
0.0148272
0.0155786
0.0163357
0.0171112
0.0179184
0.0187697
0.0196768
0.0206494
0.0216957
0.0228216
0.024031
0.0253255
0.0267039
0.0281629
0.0296972
0.0313012
0.0329689
0.034695
0.0364825
0.0383308
0.040272
0.0422849
0.0443519
0.04646
7.02439e-05
0.000257156
0.000546798
0.000941156
0.00143983
0.00204023
0.00274498
0.0035586
0.0044864
0.00552503
0.00659536
0.00764814
0.00867148
0.00966364
0.0106242
0.0115526
0.012448
0.0133095
0.0141374
0.0149335
0.0157019
0.0164495
0.0171858
0.0179232
0.0186764
0.0194612
0.0202938
0.0211892
0.0221612
0.0232204
0.0243742
0.0256265
0.0269771
0.0284225
0.0299567
0.031572
0.0332599
0.0350139
0.036828
0.0387053
0.0406579
0.042703
0.0448167
6.80079e-05
0.000251493
0.00050702
0.000868501
0.00132478
0.00187665
0.00252437
0.00327192
0.00412432
0.00508699
0.00614777
0.00723363
0.0083056
0.00935266
0.0103721
0.0113629
0.0123235
0.0132522
0.0141471
0.0150066
0.0158302
0.0166193
0.0173775
0.0181117
0.0188324
0.0195535
0.0202917
0.021066
0.0218958
0.0227997
0.0237935
0.0248895
0.0260948
0.0274117
0.0288376
0.0303661
0.0319881
0.0336937
0.0354729
0.0373184
0.0392271
0.0412007
0.0432782
6.75495e-05
0.000249068
0.000478742
0.000815513
0.00123997
0.00175493
0.0023594
0.00305688
0.00385218
0.00475083
0.00575711
0.00684041
0.00793936
0.0090261
0.0100916
0.011133
0.0121484
0.0131357
0.0140925
0.015016
0.0159035
0.0167531
0.0175641
0.0183381
0.0190791
0.0197954
0.0204991
0.0212067
0.0219379
0.0227151
0.023561
0.024496
0.0255375
0.0266968
0.0279792
0.0293839
0.0309046
0.0325315
0.0342532
0.0360575
0.0379345
0.0398788
0.0419065
6.71672e-05
0.000248182
0.000457281
0.000774858
0.00117468
0.00166086
0.00223161
0.00288989
0.00364026
0.00448782
0.00543821
0.00648895
0.00759268
0.00870412
0.00980406
0.0108854
0.0119452
0.0129813
0.013991
0.0149712
0.0159188
0.0168301
0.0177023
0.0185334
0.0193231
0.0200736
0.0207911
0.0214857
0.022173
0.0228727
0.0236089
0.024407
0.025292
0.0262855
0.0274034
0.0286544
0.0300396
0.0315537
0.0331863
0.0349246
0.0367554
0.0386686
0.0406639
6.71686e-05
0.000247805
0.000441534
0.000744514
0.00112568
0.00158863
0.00213275
0.00276005
0.00347463
0.00428158
0.00518633
0.00619307
0.00728144
0.00840218
0.0095249
0.0106365
0.0117317
0.0128074
0.013861
0.0148896
0.0158895
0.0168571
0.0177882
0.0186792
0.0195271
0.0203303
0.0210897
0.0218096
0.0224988
0.0231715
0.0238474
0.0245512
0.0253106
0.0261542
0.0271076
0.0281908
0.0294159
0.0307864
0.0322976
0.0339394
0.0356979
0.0375594
0.0395117
6.73833e-05
0.000247984
0.000429858
0.000721295
0.00108797
0.00153261
0.00205578
0.0026586
0.00334472
0.00411896
0.00498675
0.00595326
0.00701394
0.00813068
0.00926553
0.0103987
0.0115213
0.0126288
0.0137184
0.0147872
0.0158317
0.0168481
0.0178321
0.0187791
0.0196849
0.0205458
0.0213592
0.022125
0.0228463
0.0235306
0.0241912
0.0248475
0.0255247
0.0262527
0.0270629
0.0279842
0.0290406
0.0302473
0.0316096
0.0331243
0.0347808
0.0365651
0.0384636
6.79223e-05
0.000248817
0.000422004
0.000703947
0.00105932
0.00148965
0.00199645
0.00257992
0.00324352
0.00399161
0.0048294
0.00576258
0.00679237
0.00789568
0.00903362
0.0101806
0.0113238
0.0124566
0.0135754
0.0146774
0.0157592
0.0168171
0.0178469
0.0188439
0.0198031
0.0207197
0.0215896
0.0224094
0.0231782
0.0238982
0.0245762
0.0252248
0.0258634
0.0265181
0.0272203
0.0280038
0.0289011
0.0299391
0.0311359
0.0324985
0.0340243
0.0357029
0.0375173
6.87335e-05
0.000250345
0.000417692
0.00069127
0.00103782
0.00145712
0.00195121
0.00251963
0.00316532
0.00389267
0.00470648
0.00561231
0.00661394
0.00769898
0.0088332
0.00998765
0.0111456
0.0122984
0.013441
0.0145703
0.0156832
0.0167761
0.017845
0.0188854
0.0198921
0.0208598
0.0217834
0.022658
0.0234799
0.0242477
0.024963
0.0256321
0.0262675
0.0268889
0.0275234
0.028204
0.0289671
0.0298481
0.0308767
0.032073
0.0334455
0.0349919
0.0367023
6.97984e-05
0.000252478
0.000416349
0.000682401
0.00102211
0.00143303
0.00191744
0.00247423
0.00310604
0.00381693
0.00461178
0.00549571
0.00647343
0.00753928
0.00866565
0.0098227
0.0109909
0.0121591
0.0133212
0.0144733
0.0156122
0.0167347
0.017837
0.0189146
0.0199626
0.0209759
0.0219484
0.0228748
0.0237499
0.0245696
0.0253319
0.0260384
0.0266953
0.0273153
0.027919
0.0285346
0.0291973
0.029946
0.0308185
0.031847
0.0330531
0.0344458
0.0360211
7.11589e-05
0.00025505
0.000417115
0.000676619
0.00101121
0.00141585
0.00189301
0.00244099
0.00306228
0.00376052
0.00454039
0.00540702
0.00636525
0.00741329
0.00853007
0.00968659
0.0108615
0.0120419
0.01322
0.0143914
0.0155525
0.0167001
0.0178308
0.0189404
0.0200243
0.0210772
0.0220936
0.0230672
0.0239924
0.0248634
0.0256762
0.0264284
0.0271217
0.0277626
0.0283647
0.0289496
0.0295475
0.0301958
0.030936
0.0318084
0.0328468
0.0340737
0.0354973
7.27801e-05
0.000257836
0.000419113
0.00067323
0.00100414
0.00140428
0.00187625
0.00241787
0.0030312
0.00371995
0.00448832
0.00534144
0.00628427
0.00731703
0.00842406
0.00957835
0.0107579
0.011948
0.0131396
0.0143275
0.0155078
0.0166773
0.0178325
0.0189698
0.0200849
0.0211725
0.0222273
0.0232433
0.0242141
0.0251336
0.025996
0.0267969
0.0275342
0.0282098
0.0288309
0.0294123
0.0299774
0.0305587
0.0311964
0.0319348
0.0328162
0.0338761
0.0351393
7.46119e-05
0.000260637
0.000421763
0.000671807
0.0010002
0.00139741
0.00186584
0.00240302
0.0030107
0.00369236
0.00445228
0.00529513
0.00622603
0.00724651
0.00834466
0.00949629
0.010679
0.0118772
0.0130808
0.0142834
0.0154807
0.0166695
0.0178465
0.0190081
0.0201502
0.0212684
0.022357
0.0234105
0.0244225
0.0253864
0.0262957
0.0271446
0.0279286
0.0286459
0.0292991
0.0298965
0.0304546
0.0309993
0.0315659
0.0321979
0.0329422
0.0338437
0.0349408
7.67516e-05
0.000263464
0.000424893
0.00067198
0.000998963
0.00139444
0.00186067
0.00239495
0.00299891
0.00367571
0.00442953
0.00526498
0.00618696
0.00719789
0.00828874
0.00943796
0.0106235
0.0118289
0.0130433
0.0142595
0.0154725
0.0166789
0.0178754
0.0190588
0.0202251
0.0213701
0.0224887
0.0235754
0.0246242
0.0256282
0.0265808
0.0274751
0.0283054
0.0290672
0.0297595
0.0303857
0.0309557
0.0314884
0.0320128
0.0325678
0.0332003
0.0339607
0.0348975
7.92107e-05
0.00026626
0.000428305
0.000673399
0.000999891
0.00139471
0.0018598
0.00239256
0.00299434
0.00366817
0.00441794
0.00524823
0.00616388
0.00716773
0.00825315
0.00940075
0.0105892
0.0118016
0.0130263
0.0142552
0.0154831
0.0167061
0.0179209
0.0191241
0.0203124
0.0214816
0.0226271
0.0237434
0.0248249
0.0258651
0.0268569
0.0277934
0.0286678
0.0294741
0.0302085
0.0308706
0.0314653
0.0320047
0.0325108
0.0330163
0.0335644
0.0342063
0.0349971
8.19587e-05
0.000268946
0.000431844
0.000675865
0.00100247
0.00139751
0.00186251
0.00239489
0.00299574
0.00366801
0.00441553
0.00524261
0.00615411
0.00715319
0.00823483
0.00938194
0.0105738
0.0117934
0.0130282
0.0142699
0.0155122
0.0167513
0.0179834
0.0192055
0.0204141
0.0216056
0.0227753
0.0239186
0.0250295
0.0261021
0.0271295
0.0281046
0.02902
0.0298691
0.030646
0.0313475
0.0319744
0.0325335
0.0330399
0.0335194
0.0340091
0.0345574
0.0352209
8.50529e-05
0.000271515
0.000435489
0.000679199
0.00100657
0.00140244
0.0018682
0.00240116
0.00300222
0.00367419
0.00442084
0.00524646
0.00615566
0.00715192
0.0082315
0.00937919
0.0105752
0.0118023
0.0130476
0.014302
0.015559
0.0168139
0.018063
0.0193034
0.0205314
0.0217437
0.022936
0.0241037
0.0252416
0.0263435
0.0274032
0.0284134
0.0293667
0.0302558
0.0310739
0.0318157
0.0324789
0.0330658
0.033586
0.034058
0.0345123
0.0349916
0.0355494
8.85864e-05
0.000274063
0.000439323
0.000683212
0.00101188
0.0014092
0.00187634
0.00241062
0.00301286
0.00368567
0.00443266
0.0052581
0.00616658
0.00716169
0.0082408
0.00939031
0.0105913
0.0118265
0.0130828
0.0143502
0.0156221
0.0168929
0.0181592
0.0194175
0.0206645
0.0218968
0.0231105
0.0243011
0.0254638
0.0265927
0.0276817
0.028724
0.029712
0.0306383
0.0314953
0.0322765
0.0329775
0.0335971
0.0341399
0.0346186
0.0350561
0.0354877
0.0359575
9.24451e-05
0.000276555
0.000443243
0.000687878
0.00101818
0.00141746
0.0018866
0.00242286
0.00302692
0.0037015
0.00444986
0.00527626
0.00618533
0.00718069
0.00826061
0.00941312
0.01062
0.0118642
0.0131318
0.0144129
0.0156999
0.0169874
0.018271
0.0195474
0.0208133
0.0220652
0.0232995
0.0245121
0.0256979
0.0268521
0.0279682
0.0290398
0.0300597
0.0310204
0.0319138
0.0327328
0.0334712
0.0341256
0.0346965
0.0351915
0.0356271
0.0360308
0.0364416
9.65611e-05
0.000278944
0.000447182
0.000693044
0.00102534
0.00142694
0.00189861
0.00243743
0.00304398
0.00372087
0.00447157
0.00529999
0.00621071
0.00720759
0.00828954
0.0094459
0.0106595
0.0119132
0.0131931
0.0144885
0.0157913
0.0170958
0.0183974
0.0196922
0.0209771
0.0222487
0.0235034
0.0247371
0.0259454
0.0271232
0.0282647
0.0293637
0.030413
0.0314052
0.0323326
0.0331872
0.0339619
0.0346514
0.0352535
0.0357713
0.0362157
0.0366073
0.0369782
0.000100913
0.000281326
0.000451205
0.000698604
0.00103324
0.00143751
0.00191207
0.0024538
0.00306345
0.00374335
0.00449693
0.00532825
0.00624157
0.00724097
0.00832605
0.00948725
0.0107083
0.0119723
0.013265
0.0145754
0.0158948
0.0172169
0.0185369
0.0198509
0.0211553
0.0224467
0.0237219
0.0249765
0.0262067
0.0274072
0.0285729
0.0296974
0.0307743
0.0317959
0.0327547
0.0336426
0.0344519
0.0351759
0.0358105
0.0363552
0.0368161
0.0372082
0.0375573
0.000105359
0.000283673
0.00045523
0.000704486
0.00104169
0.00144893
0.00192668
0.00247181
0.00308487
0.0037684
0.0045255
0.00536021
0.00627702
0.00727972
0.00836867
0.00953559
0.0107648
0.0120398
0.013346
0.014672
0.0160087
0.0173492
0.0186884
0.0200221
0.0213466
0.0226585
0.0239542
0.0252301
0.0264818
0.0277047
0.0288935
0.0300426
0.0311454
0.0321947
0.0331828
0.0341019
0.0349437
0.0357011
0.036368
0.0369417
0.0374245
0.0378261
0.0381657
0.000109795
0.000285937
0.00045919
0.000710677
0.00105066
0.00146104
0.00194232
0.00249116
0.00310804
0.00379542
0.00455661
0.00539537
0.00631617
0.00732301
0.00841661
0.00958974
0.0108278
0.0121144
0.0134347
0.0147769
0.0161315
0.0174913
0.0188506
0.0202047
0.02155
0.0228829
0.0241999
0.0254971
0.0267706
0.0280157
0.0292274
0.0304001
0.0315277
0.0326031
0.033619
0.0345673
0.0354399
0.036229
0.0369276
0.0375311
0.0380389
0.0384566
0.0387987
0.000114241
0.000288186
0.00046318
0.000717099
0.00106004
0.00147377
0.00195881
0.00251151
0.00313258
0.00382422
0.0045898
0.00543315
0.00635853
0.00737003
0.00846894
0.0096489
0.0108963
0.0121949
0.0135299
0.0148891
0.0162623
0.0176419
0.0190219
0.0203975
0.0217644
0.023119
0.0244578
0.0257769
0.0270725
0.0283399
0.0295744
0.0307703
0.0319219
0.0330224
0.0340646
0.0350407
0.0359424
0.0367616
0.0374908
0.0381239
0.0386581
0.0390954
0.0394453
0.000118619
0.000290411
0.00046714
0.000723648
0.00106973
0.001487
0.00197592
0.00253278
0.00315811
0.0038544
0.00462472
0.00547295
0.00640334
0.00742007
0.0085247
0.00971198
0.0109691
0.0122803
0.0136304
0.015007
0.0163995
0.0177998
0.0192013
0.0205989
0.0219884
0.0233655
0.0247268
0.0260686
0.0273866
0.0286768
0.029934
0.0311532
0.0323284
0.0334534
0.0345209
0.0355233
0.0364526
0.0373005
0.0380588
0.0387209
0.0392818
0.0397406
0.0401022
0.00012285
0.000292574
0.000471007
0.000730386
0.00107966
0.00150062
0.00199358
0.00255474
0.00318462
0.00388563
0.00466101
0.00551439
0.00645016
0.00747247
0.00858327
0.00977825
0.0110454
0.0123694
0.0137352
0.0151297
0.016542
0.0179636
0.0193875
0.020808
0.0222206
0.0236213
0.0250059
0.026371
0.0277123
0.0290255
0.030306
0.0315484
0.0327472
0.0338962
0.0349885
0.0360163
0.0369719
0.037847
0.0386333
0.0393231
0.0399104
0.0403917
0.0407683
0.000126983
0.000294715
0.000474857
0.000737269
0.00108985
0.00151448
0.00201168
0.00257724
0.00321187
0.00391781
0.00469834
0.00555724
0.00649867
0.00752689