/*--------------------------------*- C++ -*----------------------------------*\
| =========                 |                                                 |
| \\      /  F ield         | OpenFOAM: The Open Source CFD Toolbox           |
|  \\    /   O peration     | Version:  2.3.0                                 |
|   \\  /    A nd           | Web:      www.OpenFOAM.org                      |
|    \\/     M anipulation  |                                                 |
\*---------------------------------------------------------------------------*/
FoamFile
{
    version     2.0;
    format      ascii;
    class       volScalarField;
    location    "1000";
    object      p;
}
// * * * * * * * * * * * * * * * * * * * * * * * * * * * * * * * * * * * * * //

dimensions      [0 2 -2 0 0 0 0];

internalField   nonuniform List<scalar> 
37724
(
-0.000220203
-0.0843992
-0.185746
-0.290554
-0.398375
-0.509306
-0.623647
-0.74155
-0.863195
-0.988755
-1.11844
-1.25239
-1.39078
-1.53371
-1.68123
-1.83328
-1.98973
-2.15029
-2.31459
-2.482
-2.65179
-2.82299
-2.99442
-3.16465
-3.33209
-3.49478
-3.65048
-3.79667
-3.93042
-4.04837
-4.14661
-4.22037
-4.26414
-4.27092
-4.23217
-4.1371
-3.97093
-3.70752
-3.30534
-2.75123
-2.1421
-1.28755
1.73794
0.15059
0.0817898
-0.00341492
-0.0916954
-0.182343
-0.275359
-0.37093
-0.469141
-0.5701
-0.673941
-0.780829
-0.890946
-1.00453
-1.12183
-1.24319
-1.36899
-1.49966
-1.63571
-1.77765
-1.92604
-2.08139
-2.24418
-2.41464
-2.59293
-2.77869
-2.97115
-3.16884
-3.36939
-3.56907
-3.76267
-3.94288
-4.09978
-4.21992
-4.28585
-4.27457
-4.15653
-3.89382
-3.43781
-2.72889
-1.69563
-0.225392
1.92963
5.07517
0.299227
0.246639
0.178877
0.109186
0.0385522
-0.0329831
-0.105503
-0.178946
-0.253216
-0.328248
-0.403955
-0.480198
-0.556803
-0.633525
-0.710075
-0.786066
-0.861061
-0.934515
-1.00582
-1.07421
-1.13888
-1.19882
-1.25292
-1.2998
-1.33791
-1.36528
-1.3796
-1.37795
-1.35684
-1.31184
-1.23741
-1.12675
-0.971523
-0.761373
-0.484163
-0.125432
0.331301
0.903948
1.61045
2.46723
3.48877
4.68348
6.02485
0.432549
0.394463
0.340885
0.285372
0.22918
0.172522
0.115386
0.0578281
1.88038e-06
-0.0580366
-0.116262
-0.174601
-0.232923
-0.291143
-0.349055
-0.406443
-0.463024
-0.518491
-0.572346
-0.623996
-0.672716
-0.717595
-0.75752
-0.791057
-0.816437
-0.831456
-0.833478
-0.819246
-0.784754
-0.725199
-0.634831
-0.506782
-0.332945
-0.1041
0.190294
0.561798
1.02251
1.58433
2.25752
3.04874
3.95791
4.97372
6.0667
0.56732
0.535748
0.490617
0.445271
0.400468
0.355956
0.311603
0.267367
0.22361
0.180449
0.1379
0.0960119
0.0551816
0.0155095
-0.0225664
-0.0588028
-0.0925664
-0.123635
-0.151382
-0.174906
-0.193466
-0.206047
-0.211575
-0.208748
-0.19593
-0.171137
-0.132066
-0.0760704
0.000224211
0.100518
0.22963
0.392573
0.59559
0.845261
1.14876
1.51381
1.94752
2.45614
3.04359
3.71044
4.45116
5.25358
6.09606
0.678463
0.659205
0.622707
0.586806
0.551611
0.516691
0.482172
0.447624
0.413985
0.381578
0.350311
0.319531
0.290224
0.261961
0.235787
0.211392
0.190226
0.171835
0.15646
0.145722
0.140275
0.141261
0.149686
0.166806
0.194145
0.233741
0.288001
0.358627
0.449444
0.562689
0.704027
0.876686
1.08639
1.33859
1.63774
1.9904
2.40119
2.87419
3.40961
4.00759
4.65944
5.35536
6.07849
0.785449
0.76968
0.740434
0.712111
0.684861
0.657534
0.631533
0.604456
0.578129
0.553523
0.531751
0.509927
0.490855
0.471532
0.455574
0.440132
0.429752
0.423493
0.418757
0.419076
0.424904
0.43789
0.458551
0.487396
0.526162
0.577233
0.644323
0.72596
0.828701
0.949381
1.09814
1.2744
1.48413
1.73415
2.02309
2.35848
2.74107
3.17651
3.66519
4.21044
4.79574
5.41646
6.05929
0.880473
0.870872
0.845147
0.82107
0.800329
0.778173
0.760751
0.740496
0.719279
0.698086
0.683188
0.665792
0.656358
0.642866
0.636436
0.624819
0.62008
0.625709
0.629493
0.637156
0.648841
0.668382
0.697298
0.733991
0.777256
0.833048
0.907989
0.992868
1.10658
1.23288
1.38802
1.56444
1.7716
2.0188
2.29565
2.62156
2.98637
3.39317
3.8541
4.35824
4.88272
5.44254
6.0246
0.974216
0.979133
0.949946
0.929919
0.912265
0.896359
0.883533
0.865341
0.848832
0.833865
0.836191
0.811679
0.811182
0.797011
0.804715
0.789381
0.78472
0.802628
0.805769
0.813581
0.822164
0.837745
0.868918
0.924702
0.985603
1.03044
1.13059
1.19051
1.32634
1.43741
1.59363
1.7622
1.9606
2.20732
2.46527
2.78955
3.16386
3.62793
4.04027
4.51385
4.96107
5.44808
5.96325
11.7756
15.9404
16.7649
17.169
17.536
17.7799
17.8901
17.9042
17.8513
17.7487
17.6077
17.4373
17.2443
17.034
16.8106
16.5777
16.3378
16.0936
15.8468
15.5992
15.3524
15.1074
14.8653
14.627
14.3931
14.1642
13.9407
13.7228
13.5106
13.3041
13.1034
12.9082
12.7184
12.5338
12.3542
12.1794
12.009
11.8429
11.6809
11.523
11.3689
11.217
11.0354
8.74975
11.9124
14.0257
15.4276
16.3755
16.9939
17.3583
17.5299
17.5582
17.4815
17.3296
17.1254
16.8862
16.6255
16.353
16.0761
15.7996
15.5275
15.262
15.0045
14.7558
14.5163
14.2858
14.0641
13.8506
13.645
13.4465
13.2546
13.0689
12.8888
12.714
12.544
12.3785
12.2174
12.0602
11.9069
11.7573
11.6111
11.4682
11.3286
11.1919
11.0561
10.8915
7.43474
8.79697
9.9891
10.984
11.7939
12.4398
12.9426
13.3235
13.6027
13.7986
13.9268
14.0004
14.0305
14.0258
13.9935
13.9392
13.8676
13.7821
13.6857
13.5805
13.4685
13.3512
13.2299
13.1055
12.979
12.8511
12.7224
12.5934
12.4646
12.3362
12.2087
12.0823
11.957
11.8331
11.7107
11.5897
11.4703
11.3523
11.2358
11.1209
11.0073
10.8917
10.7489
7.18877
8.27128
9.26411
10.1385
10.8847
11.505
12.0081
12.4061
12.7122
12.9396
13.1008
13.2069
13.2677
13.2915
13.2855
13.2556
13.2065
13.1424
13.0666
12.9816
12.8898
12.7928
12.6922
12.5889
12.484
12.378
12.2714
12.1647
12.0582
11.9521
11.8467
11.742
11.6381
11.5351
11.4332
11.3322
11.2323
11.1334
11.0354
10.9385
10.8424
10.7447
10.6282
6.95011
7.7841
8.56885
9.28269
9.91417
10.459
10.9189
11.2994
11.6079
11.8527
12.0423
12.1844
12.2864
12.3547
12.3948
12.4115
12.4088
12.39
12.358
12.3151
12.2634
12.2047
12.1404
12.0714
11.9987
11.923
11.8448
11.7647
11.6832
11.6008
11.5179
11.4345
11.351
11.2673
11.1839
11.1008
11.0181
10.9359
10.8542
10.7731
10.6928
10.6132
10.536
6.80743
7.5222
8.20221
8.83007
9.39672
9.89416
10.3232
10.6866
10.9883
11.2351
11.4329
11.5874
11.7052
11.7908
11.8498
11.8861
11.9028
11.9028
11.8891
11.864
11.8302
11.7895
11.7431
11.6917
11.6359
11.5763
11.5138
11.4489
11.3827
11.3155
11.2476
11.1788
11.1093
11.0394
10.9696
10.9001
10.8309
10.7617
10.6925
10.6234
10.5545
10.4862
10.4262
6.703
7.33566
7.94092
8.50274
9.01427
9.4657
9.86393
10.2075
10.4969
10.7399
10.9391
11.098
11.225
11.3211
11.3933
11.4439
11.4745
11.4881
11.488
11.4775
11.4603
11.4363
11.4065
11.3697
11.3273
11.2804
11.2304
11.178
11.1249
11.0709
11.0158
10.9583
10.8995
10.8404
10.7823
10.7247
10.6662
10.607
10.5478
10.4885
10.4291
10.3699
10.325
6.60432
7.1784
7.73174
8.25189
8.72931
9.15427
9.5314
9.85826
10.1335
10.3725
10.5719
10.7296
10.8645
10.9694
11.05
11.1076
11.1427
11.1618
11.1701
11.1733
11.1721
11.1595
11.1405
11.1085
11.0721
11.0328
10.9918
10.9489
10.9078
10.8641
10.8175
10.7668
10.7166
10.6676
10.6212
10.5736
10.5216
10.4708
10.4201
10.37
10.3189
10.269
10.2414
6.48292
7.00926
7.51776
7.973
8.52081
8.94734
9.31
9.61723
9.87312
10.1076
10.3044
10.4492
10.5889
10.6856
10.7857
10.85
10.876
10.8923
10.9035
10.9126
10.9114
10.9054
10.8866
10.8674
10.8396
10.8083
10.7778
10.7453
10.715
10.6763
10.636
10.593
10.5547
10.516
10.4759
10.4232
10.3896
10.3522
10.3106
10.2708
10.2256
10.1823
10.1652
2.53657
2.52621
2.51697
2.50901
2.50283
2.49888
2.49769
2.49993
2.50631
2.51762
2.5347
2.55835
2.58929
2.62807
2.67493
2.72977
2.79208
2.86115
2.93606
3.01562
3.09844
3.1829
3.2672
3.34938
3.4274
3.4991
3.56232
3.61488
3.65467
3.67959
3.68758
3.67665
3.64494
3.59067
3.51223
3.40822
3.27748
3.11929
2.93417
2.7211
2.47524
2.14093
2.16179
2.55583
2.54345
2.53044
2.5167
2.50209
2.48637
2.46927
2.45048
2.42968
2.40656
2.38083
2.35222
2.32057
2.28579
2.24794
2.2072
2.16386
2.11835
2.07112
2.02274
1.97383
1.92505
1.87703
1.83044
1.78578
1.74356
1.70424
1.66816
1.63551
1.60645
1.58107
1.55948
1.54172
1.52789
1.51814
1.51268
1.51188
1.51592
1.52533
1.53804
1.56628
1.51416
1.59384
2.57415
2.56214
2.54915
2.53515
2.52009
2.5038
2.48609
2.46676
2.44559
2.42237
2.39688
2.36892
2.33836
2.30508
2.26907
2.23039
2.18919
2.14568
2.10011
2.05278
2.00401
1.9542
1.90372
1.85299
1.80239
1.75237
1.70328
1.65554
1.60956
1.56577
1.52455
1.48632
1.45159
1.42087
1.39467
1.37351
1.35774
1.34706
1.34104
1.33211
1.3372
1.29957
1.31944
2.59396
2.58386
2.57369
2.5631
2.55219
2.54099
2.52949
2.51767
2.50549
2.49294
2.47996
2.46646
2.4524
2.43768
2.42218
2.40576
2.38828
2.36961
2.34958
2.32808
2.30506
2.28055
2.25461
2.22732
2.19875
2.16902
2.13829
2.10674
2.07448
2.04157
2.00815
1.97436
1.9404
1.9066
1.87332
1.84081
1.80923
1.77817
1.74798
1.71093
1.67966
1.63307
1.6199
2.61192
2.60395
2.5955
2.5868
2.57792
2.56887
2.55962
2.5501
2.5403
2.5302
2.5197
2.50873
2.49727
2.48532
2.47282
2.45971
2.44591
2.4313
2.41569
2.39892
2.38088
2.36162
2.34127
2.31993
2.29762
2.27439
2.25046
2.22623
2.202
2.1777
2.15295
2.12761
2.10177
2.07562
2.0495
2.02353
1.99788
1.97175
1.94576
1.91356
1.88238
1.85078
1.84235
2.62873
2.62179
2.61428
2.60663
2.59873
2.59066
2.58242
2.57384
2.56497
2.55589
2.54644
2.53642
2.52583
2.51479
2.50331
2.49132
2.47884
2.46594
2.45237
2.43779
2.42183
2.40438
2.38573
2.36619
2.34561
2.32383
2.30045
2.27617
2.25282
2.23122
2.20988
2.18737
2.16303
2.13716
2.11051
2.08494
2.06083
2.03653
2.00869
1.97238
1.92964
1.89465
1.88304
2.64441
2.63827
2.63151
2.62493
2.61807
2.6112
2.60448
2.59749
2.59023
2.58309
2.57604
2.56852
2.56053
2.5523
2.54389
2.5351
2.52603
2.51709
2.50797
2.49832
2.48746
2.47444
2.45979
2.44455
2.42849
2.41053
2.39104
2.36758
2.34394
2.32401
2.30552
2.28723
2.26664
2.24143
2.2129
2.17894
2.14569
2.11405
2.07678
2.00905
1.91458
1.82603
1.81297
2.65863
2.65398
2.64777
2.64238
2.63621
2.63006
2.62453
2.61842
2.61171
2.60594
2.60095
2.59471
2.58723
2.57969
2.57329
2.56597
2.55728
2.55067
2.54544
2.54
2.53409
2.52399
2.50949
2.4974
2.48609
2.47482
2.45382
2.42197
2.39002
2.38286
2.37666
2.36398
2.34441
2.31523
2.27623
2.25041
2.22465
2.22645
2.20647
2.16615
2.03498
1.90007
1.76349
2.6676
2.66471
2.65848
2.65557
2.65089
2.64601
2.64465
2.64231
2.63509
2.62898
2.63004
2.63122
2.62924
2.62236
2.61877
2.61937
2.61139
2.6032
2.59887
2.60194
2.60902
2.6121
2.59862
2.58415
2.57684
2.5772
2.62721
2.59401
2.49668
2.45965
2.46402
2.49473
2.51707
2.51407
2.49183
2.37602
2.26342
2.26191
2.32241
2.1862
1.83296
1.32412
1.11329
2.20437
2.21869
2.59179
2.86822
3.1086
3.31761
3.49642
3.6447
3.76342
3.85398
3.91805
3.95756
3.9746
3.97142
3.95041
3.91406
3.86491
3.80557
3.73866
3.66681
3.59258
3.51836
3.44638
3.37863
3.31686
3.26252
3.21683
3.18068
3.15444
3.13802
3.13091
3.1323
3.14124
3.15672
3.17772
3.2033
3.23257
3.26478
3.29926
3.33546
3.37272
3.4107
3.4523
1.61475
1.54616
1.6229
1.61403
1.62313
1.63612
1.65472
1.67806
1.70579
1.7375
1.77294
1.81204
1.85472
1.90103
1.9509
2.00428
2.06105
2.12102
2.18384
2.24907
2.31616
2.38454
2.45352
2.52245
2.59069
2.65763
2.72271
2.78544
2.84547
2.90257
2.95668
3.00787
3.05631
3.10224
3.14593
3.18771
3.22786
3.26668
3.30442
3.34132
3.3774
3.41265
3.44924
1.34127
1.3396
1.40214
1.41423
1.44293
1.4693
1.50104
1.53825
1.58103
1.62892
1.68133
1.73771
1.79756
1.86035
1.92568
1.99317
2.06239
2.13295
2.20444
2.27649
2.34862
2.42037
2.49127
2.5609
2.62882
2.69466
2.75805
2.8187
2.87647
2.9313
2.98325
3.03243
3.07903
3.12324
3.16529
3.20541
3.24382
3.28071
3.3163
3.35079
3.38426
3.41679
3.44992
1.64165
1.67887
1.75376
1.80546
1.86454
1.91609
1.96857
2.02121
2.07433
2.12763
2.18085
2.23364
2.28577
2.33716
2.38777
2.4376
2.48668
2.53502
2.58255
2.62916
2.67476
2.71924
2.76253
2.80459
2.84545
2.88514
2.92374
2.96138
2.99814
3.03412
3.0694
3.10404
3.13809
3.1716
3.20458
3.23705
3.26903
3.30053
3.33156
3.36215
3.39231
3.42199
3.45254
1.87021
1.91517
1.98085
2.034
2.08642
2.13134
2.17621
2.22
2.26321
2.30567
2.34748
2.38873
2.42941
2.46959
2.5095
2.54945
2.58959
2.62985
2.67004
2.70997
2.74951
2.78851
2.82682
2.86437
2.90111
2.93707
2.9723
3.00685
3.04075
3.07397
3.1065
3.13837
3.1696
3.20022
3.23026
3.25977
3.28878
3.31732
3.34543
3.37313
3.4004
3.42708
3.45293
1.90753
1.95819
2.02951
2.09098
2.14549
2.19067
2.23465
2.27793
2.3207
2.36274
2.40401
2.44308
2.47973
2.51506
2.5508
2.58827
2.62719
2.66672
2.70628
2.74574
2.78496
2.82363
2.86152
2.8985
2.93452
2.96972
3.00422
3.03805
3.07108
3.10322
3.13446
3.16488
3.1945
3.22339
3.25158
3.27912
3.30608
3.33248
3.35839
3.38383
3.4088
3.4333
3.45819
1.91321
2.0525
2.16537
2.24091
2.29088
2.33316
2.37741
2.4201
2.45683
2.48815
2.5155
2.54
2.565
2.59304
2.6267
2.6635
2.70124
2.73884
2.77601
2.81284
2.84931
2.88499
2.91961
2.95311
2.98559
3.01735
3.04868
3.07951
3.10953
3.13863
3.16688
3.19445
3.22135
3.24766
3.27336
3.29853
3.32318
3.34736
3.37111
3.39445
3.41738
3.43978
3.46282
1.79755
1.95528
2.09501
2.1708
2.24867
2.29574
2.34365
2.39744
2.44168
2.48402
2.54282
2.58726
2.62064
2.64654
2.67236
2.70796
2.74831
2.78744
2.82264
2.85807
2.89491
2.93035
2.96375
2.99523
3.02475
3.05388
3.08397
3.11401
3.14237
3.16911
3.19509
3.22058
3.2454
3.26964
3.2933
3.31642
3.33911
3.36134
3.38315
3.40461
3.42568
3.44592
3.46765
1.86415
2.74717
2.8892
2.87628
2.80292
2.76089
2.83246
2.90591
2.90575
2.90786
2.88263
2.78247
2.72293
2.68497
2.73622
2.81419
2.86047
2.88262
2.90531
2.94128
2.97712
3.00297
3.02683
3.04883
3.07107
3.09867
3.1295
3.1564
3.17822
3.19994
3.22293
3.24594
3.26801
3.29029
3.31171
3.33302
3.35395
3.37432
3.39438
3.41431
3.43406
3.45181
3.47357
-57.8807
-48.3363
-41.027
-35.6064
-31.0555
-27.0628
-23.6053
-20.6419
-18.107
-15.9386
-14.0827
-12.4931
-11.1296
-9.95709
-8.94556
-8.06918
-7.30605
-6.63761
-6.04825
-5.52496
-5.05692
-4.63513
-4.25223
-3.90223
-3.58018
-3.2821
-3.00475
-2.74547
-2.50213
-2.27298
-2.05657
-1.85168
-1.65732
-1.47261
-1.2968
-1.12923
-0.969307
-0.816508
-0.670361
-0.530306
-0.396015
-0.267158
-0.159227
-19.854
-20.7863
-20.4379
-19.6003
-18.5755
-17.4724
-16.3387
-15.2074
-14.1032
-13.0434
-12.0391
-11.0968
-10.2193
-9.40681
-8.65779
-7.96934
-7.33777
-6.75888
-6.22821
-5.74133
-5.29391
-4.88187
-4.5014
-4.14911
-3.8219
-3.51704
-3.23214
-2.9651
-2.71409
-2.47755
-2.25411
-2.04257
-1.84191
-1.65122
-1.4697
-1.29667
-1.13149
-0.973637
-0.822628
-0.677958
-0.53939
-0.406416
-0.293855
-10.2501
-11.1565
-11.3885
-11.5984
-11.7306
-11.7399
-11.6256
-11.4067
-11.1027
-10.7311
-10.3083
-9.84883
-9.3657
-8.86982
-8.37035
-7.87464
-7.38849
-6.91625
-6.46104
-6.02494
-5.60915
-5.21417
-4.83994
-4.48607
-4.15178
-3.83619
-3.53826
-3.25689
-2.99102
-2.73957
-2.50153
-2.27593
-2.06186
-1.85852
-1.66512
-1.48096
-1.30539
-1.13784
-0.977767
-0.824594
-0.677909
-0.536948
-0.411794
-12.8524
-12.2462
-11.9944
-11.8514
-11.675
-11.4534
-11.195
-10.9033
-10.5805
-10.2298
-9.85557
-9.46271
-9.05603
-8.6402
-8.21958
-7.79816
-7.37942
-6.96644
-6.56168
-6.16725
-5.7847
-5.41521
-5.05954
-4.71818
-4.39129
-4.07883
-3.78059
-3.49619
-3.22517
-2.967
-2.72109
-2.48685
-2.26367
-2.05095
-1.84811
-1.65456
-1.46978
-1.29324
-1.12444
-0.962852
-0.807884
-0.658369
-0.520739
-11.9547
-11.2812
-11.1788
-11.0065
-10.7835
-10.541
-10.2863
-10.018
-9.73565
-9.44015
-9.1326
-8.81444
-8.48709
-8.15232
-7.81187
-7.46772
-7.12172
-6.77583
-6.43175
-6.09123
-5.75571
-5.42654
-5.1048
-4.79144
-4.48716
-4.1925
-3.90782
-3.63332
-3.36908
-3.11507
-2.87114
-2.6371
-2.41268
-2.19758
-1.99147
-1.79397
-1.60474
-1.42338
-1.24951
-1.08267
-0.922386
-0.76757
-0.624169
-9.5232
-9.2458
-9.30227
-9.22894
-9.13437
-9.02873
-8.90657
-8.7646
-8.60297
-8.42282
-8.2251
-8.01116
-7.78232
-7.54025
-7.28655
-7.02308
-6.75155
-6.47388
-6.19177
-5.90702
-5.62122
-5.33592
-5.05248
-4.77218
-4.49608
-4.22512
-3.96008
-3.70158
-3.45011
-3.20604
-2.96959
-2.74092
-2.52007
-2.30703
-2.10172
-1.904
-1.71371
-1.53063
-1.35456
-1.18513
-1.02199
-0.86505
-0.734012
-8.18543
-8.11744
-8.15401
-8.09931
-8.04951
-7.99322
-7.92282
-7.83594
-7.73237
-7.61226
-7.47587
-7.32386
-7.15697
-6.97629
-6.78285
-6.57798
-6.36292
-6.13913
-5.90794
-5.67084
-5.42919
-5.18439
-4.93772
-4.69045
-4.44371
-4.19856
-3.95595
-3.71671
-3.48155
-3.25109
-3.02581
-2.80614
-2.59235
-2.38469
-2.18328
-1.98821
-1.7995
-1.61712
-1.44101
-1.2709
-1.10664
-0.948156
-0.818407
-7.48856
-7.47463
-7.46018
-7.40291
-7.35413
-7.29963
-7.23575
-7.16143
-7.0761
-6.97931
-6.87073
-6.75036
-6.61831
-6.47491
-6.32054
-6.15584
-5.98143
-5.79815
-5.60682
-5.40844
-5.20397
-4.99446
-4.78092
-4.56443
-4.34598
-4.12656
-3.90711
-3.68848
-3.47148
-3.25683
-3.04516
-2.83703
-2.63291
-2.4332
-2.23821
-2.0482
-1.86334
-1.68379
-1.50963
-1.34083
-1.17744
-1.01918
-0.886152
-6.8492
-6.84144
-6.80949
-6.76493
-6.724
-6.67755
-6.62444
-6.56387
-6.49517
-6.41772
-6.33111
-6.23509
-6.12953
-6.01441
-5.88985
-5.75606
-5.61336
-5.46217
-5.30299
-5.13643
-4.96315
-4.78388
-4.59938
-4.4105
-4.21805
-4.02287
-3.8258
-3.62765
-3.4292
-3.23118
-3.03428
-2.83913
-2.64628
-2.45624
-2.26944
-2.08627
-1.90702
-1.73197
-1.56132
-1.39522
-1.23373
-1.07598
-0.932005
-6.25197
-6.24262
-6.21227
-6.18155
-6.15047
-6.11497
-6.07439
-6.02783
-5.97461
-5.9141
-5.84593
-5.76975
-5.68537
-5.59267
-5.49162
-5.38227
-5.26475
-5.13927
-5.00613
-4.86569
-4.71838
-4.56471
-4.40523
-4.24055
-4.07134
-3.89825
-3.72202
-3.54333
-3.36289
-3.1814
-2.99953
-2.81791
-2.63713
-2.45775
-2.28027
-2.10514
-1.93275
-1.76342
-1.59744
-1.43498
-1.27611
-1.11955
-0.961845
-5.75181
-5.74134
-5.71544
-5.69155
-5.6656
-5.63659
-5.60373
-5.5661
-5.5231
-5.47412
-5.41882
-5.35679
-5.28784
-5.21173
-5.12839
-5.0377
-4.93973
-4.8345
-4.72216
-4.6029
-4.47698
-4.34471
-4.20647
-4.06269
-3.91387
-3.76051
-3.6032
-3.4425
-3.27903
-3.11341
-2.94624
-2.77813
-2.60967
-2.4414
-2.27386
-2.10753
-1.94287
-1.7803
-1.6202
-1.46297
-1.30892
-1.15822
-1.01229
-5.32435
-5.31451
-5.2925
-5.27176
-5.24868
-5.22355
-5.19546
-5.1636
-5.12744
-5.08644
-5.04027
-4.98851
-4.93094
-4.86729
-4.79742
-4.72116
-4.63846
-4.54926
-4.4536
-4.35153
-4.24319
-4.12875
-4.00844
-3.88255
-3.75142
-3.61543
-3.47502
-3.33065
-3.18283
-3.03206
-2.8789
-2.72387
-2.56753
-2.41041
-2.25302
-2.09587
-1.93941
-1.78411
-1.63036
-1.47851
-1.32899
-1.18201
-1.03664
-4.94374
-4.93568
-4.91698
-4.89869
-4.87827
-4.85643
-4.83226
-4.80504
-4.7743
-4.73957
-4.70052
-4.65677
-4.6081
-4.55421
-4.49495
-4.4301
-4.35958
-4.28325
-4.20111
-4.11309
-4.01927
-3.91969
-3.8145
-3.70386
-3.588
-3.46719
-3.34174
-3.212
-3.07839
-2.94131
-2.80122
-2.6586
-2.51392
-2.36768
-2.22037
-2.07246
-1.92442
-1.77672
-1.62978
-1.48399
-1.33979
-1.19808
-1.07295
-4.60432
-4.59792
-4.58138
-4.56491
-4.5468
-4.5277
-4.50674
-4.48326
-4.45686
-4.42711
-4.39371
-4.35631
-4.31469
-4.26856
-4.21777
-4.16208
-4.10138
-4.0355
-3.96439
-3.88795
-3.80617
-3.71904
-3.62662
-3.52898
-3.42628
-3.31866
-3.20638
-3.08966
-2.96883
-2.84422
-2.7162
-2.58516
-2.45151
-2.31571
-2.17818
-2.03937
-1.89974
-1.7597
-1.61972
-1.48014
-1.34129
-1.20306
-1.07905
-4.30378
-4.29789
-4.2817
-4.26595
-4.24963
-4.23264
-4.21412
-4.19352
-4.17049
-4.14463
-4.11567
-4.08328
-4.04726
-4.00733
-3.96333
-3.91503
-3.8623
-3.80496
-3.74292
-3.67604
-3.6043
-3.52761
-3.44599
-3.35944
-3.26805
-3.17191
-3.07115
-2.96597
-2.85657
-2.74322
-2.62622
-2.50587
-2.38254
-2.2566
-2.12843
-1.99843
-1.86701
-1.73456
-1.60146
-1.46794
-1.33429
-1.19956
-1.07137
-4.0359
-4.02919
-4.01202
-3.99631
-3.9815
-3.96615
-3.94952
-3.93117
-3.91077
-3.88798
-3.86254
-3.83415
-3.80261
-3.76767
-3.72917
-3.68688
-3.64066
-3.59034
-3.5358
-3.47689
-3.41354
-3.34565
-3.27319
-3.19613
-3.11448
-3.02829
-2.93763
-2.84262
-2.74341
-2.64019
-2.53318
-2.42264
-2.30886
-2.19215
-2.07284
-1.95129
-1.82786
-1.70294
-1.57692
-1.45015
-1.32312
-1.19589
-1.08323
-3.79241
-3.78432
-3.76633
-3.75083
-3.73737
-3.7233
-3.70819
-3.69167
-3.67343
-3.65316
-3.63059
-3.60548
-3.57762
-3.54679
-3.51281
-3.47549
-3.43468
-3.39019
-3.34191
-3.28969
-3.23342
-3.173
-3.10835
-3.03942
-2.96619
-2.88864
-2.80682
-2.72078
-2.63063
-2.53649
-2.43852
-2.33693
-2.23193
-2.12379
-2.01279
-1.89924
-1.78344
-1.66575
-1.54649
-1.42588
-1.30433
-1.18121
-1.06752
-3.56768
-3.55862
-3.54086
-3.52615
-3.51386
-3.50084
-3.48701
-3.47203
-3.4556
-3.43741
-3.41723
-3.39483
-3.37001
-3.34258
-3.31237
-3.27919
-3.24288
-3.20329
-3.16028
-3.1137
-3.06344
-3.00937
-2.95141
-2.88948
-2.82353
-2.75351
-2.67944
-2.60132
-2.51921
-2.43319
-2.34337
-2.2499
-2.15296
-2.05274
-1.94948
-1.84345
-1.73491
-1.62417
-1.51155
-1.39728
-1.28173
-1.16486
-1.06834
-3.35864
-3.34946
-3.33279
-3.31919
-3.30791
-3.2958
-3.28308
-3.26944
-3.25455
-3.23815
-3.21999
-3.19989
-3.17765
-3.1531
-3.12606
-3.09637
-3.06389
-3.02844
-2.9899
-2.94813
-2.90299
-2.85437
-2.80217
-2.74629
-2.68666
-2.62322
-2.55594
-2.48481
-2.40984
-2.33108
-2.2486
-2.16249
-2.0729
-1.97997
-1.88389
-1.78489
-1.68319
-1.57906
-1.4728
-1.3646
-1.25481
-1.14257
-1.04732
-3.16421
-3.15563
-3.14036
-3.12791
-3.11747
-3.10618
-3.09445
-3.08196
-3.06839
-3.0535
-3.03707
-3.01892
-2.99886
-2.97674
-2.9524
-2.92568
-2.89643
-2.86452
-2.8298
-2.79214
-2.75141
-2.70748
-2.66026
-2.60963
-2.55551
-2.49783
-2.43653
-2.37158
-2.30296
-2.2307
-2.15481
-2.07537
-1.99247
-1.90623
-1.81679
-1.72432
-1.62903
-1.53112
-1.43084
-1.32834
-1.22395
-1.11658
-1.01853
-2.98374
-2.97608
-2.96209
-2.95057
-2.94076
-2.93019
-2.9193
-2.9078
-2.89536
-2.88177
-2.86682
-2.85034
-2.83215
-2.81212
-2.79008
-2.7659
-2.73944
-2.71056
-2.67913
-2.64501
-2.60809
-2.56823
-2.52533
-2.47928
-2.42999
-2.37736
-2.32134
-2.26186
-2.1989
-2.13244
-2.06249
-1.98909
-1.91228
-1.83216
-1.74883
-1.66244
-1.57315
-1.48114
-1.38666
-1.28991
-1.19133
-1.0908
-1.00304
-2.81679
-2.81002
-2.79697
-2.7859
-2.77642
-2.76648
-2.75633
-2.74567
-2.7342
-2.72172
-2.70802
-2.69296
-2.67637
-2.65812
-2.63807
-2.61607
-2.592
-2.56574
-2.53714
-2.5061
-2.47247
-2.43616
-2.39703
-2.35499
-2.30992
-2.26175
-2.21039
-2.15578
-2.09786
-2.0366
-1.97199
-1.90404
-1.83278
-1.75825
-1.68055
-1.59977
-1.51605
-1.42954
-1.34043
-1.24893
-1.15519
-1.05816
-0.95783
-2.66234
-2.65615
-2.64361
-2.63247
-2.62302
-2.61365
-2.60414
-2.59419
-2.58355
-2.57201
-2.5594
-2.54556
-2.53035
-2.51364
-2.49529
-2.47519
-2.45319
-2.4292
-2.40307
-2.37469
-2.34395
-2.31073
-2.27491
-2.23639
-2.19506
-2.15082
-2.1036
-2.05332
-1.9999
-1.94331
-1.88352
-1.8205
-1.75428
-1.68487
-1.61233
-1.53674
-1.45819
-1.37681
-1.29274
-1.20619
-1.11742
-1.02623
-0.92582
-2.51886
-2.51285
-2.5005
-2.48903
-2.47954
-2.47071
-2.46172
-2.45237
-2.44242
-2.43169
-2.42
-2.40721
-2.39319
-2.37781
-2.36094
-2.34247
-2.32228
-2.30026
-2.27629
-2.25025
-2.22203
-2.19153
-2.15862
-2.1232
-2.08517
-2.04443
-2.00089
-1.95446
-1.90508
-1.85269
-1.79723
-1.73869
-1.67705
-1.61232
-1.54453
-1.47372
-1.39998
-1.32341
-1.24413
-1.16232
-1.07829
-0.9926
-0.902137
-2.38441
-2.37831
-2.36607
-2.35441
-2.34502
-2.33665
-2.32809
-2.31922
-2.30986
-2.29982
-2.28892
-2.27704
-2.26405
-2.24982
-2.23424
-2.2172
-2.19859
-2.1783
-2.15621
-2.13223
-2.10624
-2.07813
-2.04779
-2.01513
-1.98003
-1.94239
-1.90213
-1.85916
-1.8134
-1.76478
-1.71325
-1.65876
-1.6013
-1.54084
-1.4774
-1.411
-1.3417
-1.26957
-1.19467
-1.11704
-1.03684
-0.954172
-0.869839
-2.25732
-2.25108
-2.23906
-2.2275
-2.21842
-2.21045
-2.20224
-2.1938
-2.18495
-2.17551
-2.1653
-2.15422
-2.14212
-2.1289
-2.11446
-2.09867
-2.08145
-2.06268
-2.04227
-2.0201
-1.99608
-1.97009
-1.94204
-1.91182
-1.87933
-1.84447
-1.80715
-1.76728
-1.72478
-1.67957
-1.63159
-1.58079
-1.52712
-1.47057
-1.41113
-1.34881
-1.28365
-1.21569
-1.14502
-1.07171
-0.995966
-0.918061
-0.84691
-2.13663
-2.13037
-2.11872
-2.10754
-2.09888
-2.09127
-2.08337
-2.07532
-2.06693
-2.05802
-2.04843
-2.03805
-2.02675
-2.01443
-2.00099
-1.98632
-1.97033
-1.95292
-1.93398
-1.91343
-1.89115
-1.86706
-1.84105
-1.81301
-1.78286
-1.75049
-1.71581
-1.67873
-1.63916
-1.59703
-1.55227
-1.50482
-1.45462
-1.40166
-1.34589
-1.28733
-1.22598
-1.16187
-1.09506
-1.02555
-0.953432
-0.878093
-0.807203
-2.02189
-2.01582
-2.00465
-1.99397
-1.98573
-1.97841
-1.97082
-1.96312
-1.95515
-1.94672
-1.9377
-1.92795
-1.91737
-1.90585
-1.8933
-1.87963
-1.86474
-1.84854
-1.83092
-1.81181
-1.7911
-1.7687
-1.74451
-1.71843
-1.69038
-1.66024
-1.62794
-1.59337
-1.55646
-1.51713
-1.47529
-1.43089
-1.38387
-1.33418
-1.2818
-1.22671
-1.1689
-1.1084
-1.04525
-0.979492
-0.91132
-0.840316
-0.776656
-1.91293
-1.90718
-1.89652
-1.88635
-1.8784
-1.87128
-1.86398
-1.85662
-1.84904
-1.84105
-1.83253
-1.82336
-1.81342
-1.80263
-1.79089
-1.77812
-1.76421
-1.74909
-1.73267
-1.71485
-1.69554
-1.67466
-1.65211
-1.6278
-1.60163
-1.57351
-1.54336
-1.51107
-1.47657
-1.43977
-1.4006
-1.35898
-1.31486
-1.26819
-1.21892
-1.16702
-1.11249
-1.05532
-0.995543
-0.933127
-0.868197
-0.799852
-0.735514
-1.80967
-1.80428
-1.79407
-1.78431
-1.77645
-1.76941
-1.7624
-1.75536
-1.74814
-1.74056
-1.7325
-1.72385
-1.7145
-1.70437
-1.69336
-1.68139
-1.66838
-1.65423
-1.63888
-1.62222
-1.60419
-1.58467
-1.5636
-1.54088
-1.51642
-1.49012
-1.46191
-1.43169
-1.39938
-1.36489
-1.32815
-1.28908
-1.24762
-1.20372
-1.15731
-1.10837
-1.05688
-1.00282
-0.946189
-0.886935
-0.82517
-0.760184
-0.699798
-1.71187
-1.7068
-1.69694
-1.68745
-1.67951
-1.67247
-1.66574
-1.659
-1.6521
-1.64489
-1.63725
-1.62907
-1.62025
-1.61071
-1.60036
-1.58912
-1.57691
-1.56365
-1.54926
-1.53365
-1.51676
-1.49848
-1.47875
-1.45747
-1.43455
-1.40991
-1.38347
-1.35513
-1.32481
-1.29242
-1.2579
-1.22117
-1.18215
-1.14079
-1.09703
-1.05083
-1.00217
-0.95103
-0.897423
-0.841326
-0.782922
-0.721795
-0.667841
-1.61902
-1.61416
-1.60453
-1.5952
-1.58714
-1.58013
-1.57366
-1.56717
-1.56055
-1.55367
-1.54641
-1.53865
-1.53031
-1.5213
-1.51154
-1.50096
-1.48947
-1.477
-1.46348
-1.44883
-1.43297
-1.41582
-1.3973
-1.37732
-1.35581
-1.33268
-1.30784
-1.28121
-1.25271
-1.22226
-1.18977
-1.15517
-1.1184
-1.07938
-1.03806
-0.994399
-0.948356
-0.899912
-0.84907
-0.795791
-0.740171
-0.681519
-0.628764
-1.53052
-1.52577
-1.51632
-1.50711
-1.49901
-1.49209
-1.48585
-1.47958
-1.4732
-1.46661
-1.45967
-1.45229
-1.44438
-1.43585
-1.42662
-1.41663
-1.4058
-1.39405
-1.38132
-1.36753
-1.35261
-1.33648
-1.31906
-1.30027
-1.28004
-1.25827
-1.2349
-1.20984
-1.183
-1.15431
-1.12369
-1.09106
-1.05634
-1.01949
-0.980422
-0.939101
-0.895481
-0.849536
-0.801262
-0.750631
-0.697743
-0.641951
-0.591343
-1.44584
-1.44115
-1.43187
-1.42279
-1.41479
-1.40803
-1.40199
-1.3959
-1.38974
-1.3834
-1.37676
-1.36971
-1.36218
-1.35408
-1.34534
-1.33588
-1.32564
-1.31455
-1.30254
-1.28953
-1.27546
-1.26026
-1.24384
-1.22614
-1.20707
-1.18656
-1.16453
-1.1409
-1.11559
-1.08851
-1.0596
-1.02878
-0.995966
-0.9611
-0.924116
-0.884959
-0.843581
-0.799943
-0.754025
-0.705772
-0.655207
-0.601672
-0.551858
-1.36455
-1.35991
-1.35084
-1.34195
-1.33414
-1.32758
-1.32172
-1.31579
-1.30983
-1.30372
-1.29734
-1.29061
-1.28342
-1.27571
-1.26741
-1.25844
-1.24874
-1.23824
-1.22688
-1.21459
-1.2013
-1.18695
-1.17145
-1.15473
-1.13673
-1.11737
-1.09657
-1.07425
-1.05034
-1.02476
-0.997421
-0.968262
-0.937205
-0.90418
-0.869123
-0.831973
-0.792677
-0.751192
-0.70749
-0.661521
-0.613312
-0.562305
-0.515452
-1.28643
-1.28189
-1.27306
-1.26441
-1.25685
-1.25047
-1.24474
-1.23898
-1.2332
-1.22731
-1.22118
-1.21472
-1.20786
-1.20051
-1.19261
-1.18409
-1.17488
-1.16493
-1.15417
-1.14254
-1.12996
-1.11638
-1.10172
-1.08592
-1.0689
-1.05059
-1.03092
-1.0098
-0.98718
-0.962966
-0.937085
-0.909464
-0.880029
-0.84871
-0.815439
-0.780153
-0.742794
-0.70331
-0.661661
-0.617779
-0.571638
-0.522508
-0.476135
-1.21139
-1.207
-1.19843
-1.19004
-1.18272
-1.17646
-1.17082
-1.16522
-1.15962
-1.15393
-1.14804
-1.14185
-1.13528
-1.12827
-1.12074
-1.11263
-1.10389
-1.09444
-1.08423
-1.07319
-1.06127
-1.0484
-1.03452
-1.01955
-1.00343
-0.986089
-0.967457
-0.947459
-0.926022
-0.903073
-0.878536
-0.852338
-0.824405
-0.794668
-0.763057
-0.729507
-0.693956
-0.656344
-0.616622
-0.574706
-0.530546
-0.483412
-0.438217
-1.13933
-1.13511
-1.12682
-1.11868
-1.11156
-1.10533
-1.09973
-1.09429
-1.08887
-1.08338
-1.07771
-1.07177
-1.06548
-1.05878
-1.05159
-1.04387
-1.03554
-1.02656
-1.01686
-1.00638
-0.995061
-0.982848
-0.969674
-0.955476
-0.940187
-0.92374
-0.906067
-0.887097
-0.866758
-0.844979
-0.821686
-0.796807
-0.77027
-0.742004
-0.711941
-0.680014
-0.646159
-0.610318
-0.572437
-0.532437
-0.490272
-0.445354
-0.402494
-1.07016
-1.06612
-1.05807
-1.05015
-1.04316
-1.03691
-1.03133
-1.02605
-1.0208
-1.0155
-1.01003
-1.00432
-0.998293
-0.991879
-0.985016
-0.977646
-0.969711
-0.961154
-0.951921
-0.941954
-0.931197
-0.919589
-0.907073
-0.893585
-0.879063
-0.863442
-0.846656
-0.828636
-0.809313
-0.788618
-0.766479
-0.742825
-0.717585
-0.69069
-0.662071
-0.631663
-0.599404
-0.565237
-0.52912
-0.491
-0.450885
-0.408328
-0.368226
-1.00373
-0.999834
-0.991987
-0.98424
-0.977353
-0.971067
-0.965517
-0.960394
-0.955298
-0.950155
-0.944877
-0.939381
-0.933592
-0.927443
-0.920876
-0.913831
-0.906255
-0.898094
-0.889294
-0.879799
-0.869557
-0.85851
-0.8466
-0.83377
-0.819957
-0.8051
-0.789134
-0.771995
-0.753614
-0.733925
-0.712857
-0.690342
-0.666309
-0.640691
-0.613419
-0.584429
-0.553658
-0.521051
-0.48656
-0.450131
-0.411752
-0.370894
-0.331359
-0.939776
-0.936
-0.928324
-0.920715
-0.913905
-0.907628
-0.902144
-0.897158
-0.892193
-0.887198
-0.882091
-0.876787
-0.871215
-0.86531
-0.859012
-0.852268
-0.845024
-0.837227
-0.828826
-0.819768
-0.810002
-0.799473
-0.788125
-0.775903
-0.762748
-0.748598
-0.733395
-0.717072
-0.699567
-0.680812
-0.660741
-0.639285
-0.616377
-0.591949
-0.565935
-0.538268
-0.508886
-0.47773
-0.444748
-0.409868
-0.373051
-0.33381
-0.295796
-0.878105
-0.874415
-0.866891
-0.859406
-0.852681
-0.846467
-0.841079
-0.836214
-0.831365
-0.826501
-0.821546
-0.816417
-0.811042
-0.805358
-0.799309
-0.79284
-0.785901
-0.77844
-0.770408
-0.761754
-0.752429
-0.74238
-0.731553
-0.719895
-0.707349
-0.693857
-0.679361
-0.663798
-0.647106
-0.629221
-0.610077
-0.58961
-0.567751
-0.544434
-0.519595
-0.493167
-0.465089
-0.435304
-0.403763
-0.370413
-0.335244
-0.297866
-0.26238
-0.818531
-0.814912
-0.807535
-0.800179
-0.79356
-0.787457
-0.782176
-0.777413
-0.772668
-0.767925
-0.763108
-0.758139
-0.752945
-0.747466
-0.741645
-0.735431
-0.728774
-0.721624