/*--------------------------------*- C++ -*----------------------------------*\
| =========                 |                                                 |
| \\      /  F ield         | OpenFOAM: The Open Source CFD Toolbox           |
|  \\    /   O peration     | Version:  2.3.0                                 |
|   \\  /    A nd           | Web:      www.OpenFOAM.org                      |
|    \\/     M anipulation  |                                                 |
\*---------------------------------------------------------------------------*/
FoamFile
{
    version     2.0;
    format      ascii;
    class       surfaceScalarField;
    location    "1000";
    object      phi;
}
// * * * * * * * * * * * * * * * * * * * * * * * * * * * * * * * * * * * * * //

dimensions      [0 3 -1 0 0 0 0];

internalField   nonuniform List<scalar> 
75108
(
-0.000654331
-0.00615956
0.00669824
0.000115656
-0.00115276
-0.0059439
0.00644233
-0.00161216
-0.00573648
0.00619588
-0.00203432
-0.00553712
0.00595929
-0.00242067
-0.0053452
0.00573155
-0.0027724
-0.00516074
0.00551247
-0.00309092
-0.00498352
0.00530205
-0.00337765
-0.00481295
0.00509968
-0.00363379
-0.00464883
0.00490497
-0.00386014
-0.00449136
0.00471771
-0.00405833
-0.00433973
0.00453792
-0.00422936
-0.00419374
0.00436477
-0.00437384
-0.0040538
0.00419828
-0.00449339
-0.0039189
0.00403845
-0.00458862
-0.00378924
0.00388447
-0.00466076
-0.00366462
0.00373675
-0.00471042
-0.00354483
0.0035945
-0.00473843
-0.00342969
0.0034577
-0.00474624
-0.00331878
0.00332659
-0.00473387
-0.0032123
0.00319993
-0.00470278
-0.00310986
0.00307877
-0.00465342
-0.00301146
0.0029621
-0.00458666
-0.00291648
0.00284971
-0.00450316
-0.00282574
0.00274224
-0.00440381
-0.00273802
0.00263867
-0.00428953
-0.00265373
0.00253944
-0.00416039
-0.00257286
0.00244372
-0.00401754
-0.00249521
0.00235236
-0.00386151
-0.00242016
0.00226413
-0.00369325
-0.00234811
0.00217985
-0.00351334
-0.00227863
0.00209872
-0.00332224
-0.00221212
0.00202102
-0.00312075
-0.00214792
0.00194643
-0.00290962
-0.00208595
0.00187482
-0.00268951
-0.00202618
0.00180607
-0.00246108
-0.00196842
0.00173999
-0.00222497
-0.00191247
0.00167635
-0.00198193
-0.001858
0.00161495
-0.00173267
-0.00180469
0.00155542
-0.00147807
-0.00175203
0.00149743
-0.00121957
-0.00169931
0.00144081
-0.000960903
-0.00164509
0.00138641
-0.00158653
-0.000684813
0.00131046
-0.000596014
-0.00567024
0.000106689
-0.00104869
-0.00549122
-0.00146613
-0.00531904
-0.00184974
-0.00515352
-0.0022003
-0.00499463
-0.00251965
-0.00484139
-0.00280898
-0.00469419
-0.0030691
-0.00455284
-0.00330121
-0.00441672
-0.00350674
-0.00428584
-0.00368627
-0.00416019
-0.00384083
-0.00403918
-0.00397183
-0.00392281
-0.00407986
-0.00381086
-0.00416555
-0.00370355
-0.00423029
-0.00359987
-0.00427451
-0.00350062
-0.00429942
-0.00340478
-0.00430522
-0.00331298
-0.00429313
-0.00322439
-0.00426338
-0.00313962
-0.00421738
-0.00305745
-0.00415475
-0.0029791
-0.00407735
-0.00290314
-0.00398478
-0.00283059
-0.0038781
-0.00276041
-0.00375796
-0.002693
-0.00362522
-0.00262794
-0.00347975
-0.00256563
-0.00332243
-0.00250543
-0.00315375
-0.00244731
-0.00297463
-0.00239124
-0.00278517
-0.00233738
-0.00258636
-0.00228476
-0.0023784
-0.00223414
-0.00216194
-0.00218488
-0.00193747
-0.00213693
-0.00170539
-0.00209009
-0.00146585
-0.00204422
-0.00121881
-0.00199908
-0.000963578
-0.00195454
-0.000698222
-0.00191045
-0.00186691
-0.000417841
-0.000542863
-0.0052255
9.81265e-05
-0.00095415
-0.00507993
-0.00133319
-0.00494
-0.0016814
-0.00480531
-0.00200018
-0.00467585
-0.00229014
-0.00455144
-0.00255248
-0.00443185
-0.00278881
-0.0043165
-0.00299934
-0.00420619
-0.00318569
-0.00409949
-0.00334865
-0.00399723
-0.00348884
-0.00389899
-0.00360747
-0.00380418
-0.00370494
-0.00371339
-0.00378267
-0.00362582
-0.00384108
-0.00354147
-0.00388096
-0.00346074
-0.00390272
-0.00338301
-0.00390781
-0.0033079
-0.003896
-0.00323619
-0.00386895
-0.00316668
-0.00382623
-0.00310016
-0.0037693
-0.00303603
-0.00369796
-0.00297449
-0.00361363
-0.00291491
-0.00351614
-0.0028579
-0.00340631
-0.00280283
-0.00328435
-0.0027499
-0.00315131
-0.00269867
-0.0030074
-0.00264934
-0.00285284
-0.00260187
-0.00268825
-0.00255583
-0.00251425
-0.00251138
-0.00233054
-0.00246847
-0.00213821
-0.00242646
-0.00193725
-0.00238585
-0.00172793
-0.00234624
-0.00151048
-0.00230754
-0.00128507
-0.00226963
-0.00105173
-0.00223242
-0.000810387
-0.00219589
-0.000560813
-0.00216002
-0.00212497
-0.000302757
-0.000494099
-0.00482146
9.00587e-05
-0.000867701
-0.00470633
-0.00121227
-0.00459543
-0.00152861
-0.00448897
-0.00181772
-0.00438674
-0.00208122
-0.00428793
-0.00231951
-0.00419356
-0.0025338
-0.00410221
-0.0027251
-0.00401489
-0.002894
-0.00393059
-0.00304173
-0.0038495
-0.00316888
-0.00377184
-0.00327607
-0.00369699
-0.00336472
-0.00362475
-0.00343481
-0.00355573
-0.00348716
-0.00348912
-0.00352299
-0.00342491
-0.0035427
-0.00336331
-0.0035465
-0.0033041
-0.0035356
-0.00324709
-0.00351001
-0.00319227
-0.00347075
-0.00313942
-0.00341822
-0.00308856
-0.00335286
-0.00303986
-0.00327526
-0.00299251
-0.00318585
-0.00294731
-0.00308524
-0.00290344
-0.00297386
-0.00286128
-0.00285192
-0.00282062
-0.00271983
-0.00278143
-0.00257841
-0.00274329
-0.00242767
-0.00270657
-0.00226802
-0.00267104
-0.00210004
-0.00263645
-0.00192374
-0.00260276
-0.00173952
-0.00257008
-0.00154765
-0.00253811
-0.00134833
-0.00250686
-0.0011417
-0.00247625
-0.000927916
-0.00244621
-0.000707009
-0.00241679
-0.000479023
-0.00238801
-0.00235996
-0.000244033
-0.000449492
-0.00445437
8.24025e-05
-0.000789142
-0.00436668
-0.00110196
-0.00428262
-0.00138915
-0.00420178
-0.00165213
-0.00412376
-0.0018911
-0.00404896
-0.00210768
-0.00397699
-0.00230227
-0.00390763
-0.00247587
-0.00384129
-0.00262929
-0.00377716
-0.00276314
-0.00371565
-0.00287843
-0.00365655
-0.00297577
-0.00359965
-0.00305576
-0.00354475
-0.00311922
-0.00349227
-0.00316695
-0.00344138
-0.00319895
-0.00339291
-0.00321624
-0.00334602
-0.00321962
-0.00330072
-0.00320911
-0.00325761
-0.0031857
-0.00321567
-0.00314962
-0.00317551
-0.00310146
-0.00313671
-0.00304185
-0.00309947
-0.00297079
-0.00306357
-0.00288929
-0.0030288
-0.00279717
-0.00299556
-0.00269523
-0.00296322
-0.00258388
-0.00293196
-0.00246355
-0.00290177
-0.00233422
-0.00287262
-0.0021965
-0.00284429
-0.00205059
-0.00281694
-0.00189709
-0.00278995
-0.00173577
-0.00276408
-0.00156734
-0.00273851
-0.00139188
-0.00271357
-0.00120962
-0.00268913
-0.00102073
-0.00266514
-0.000825368
-0.00264157
-0.000623718
-0.00261844
-0.000415913
-0.00259581
-0.00257379
-0.00020208
-0.000409003
-0.00412079
7.54197e-05
-0.00071737
-0.00405832
-0.00100173
-0.00399826
-0.00126288
-0.00394063
-0.00150142
-0.00388521
-0.00171878
-0.0038316
-0.00191536
-0.00378041
-0.00209175
-0.00373123
-0.00224958
-0.00368346
-0.00238863
-0.00363811
-0.00251013
-0.00359416
-0.00261468
-0.003552
-0.00270308
-0.00351124
-0.00277555
-0.00347229
-0.00283309
-0.00343473
-0.00287591
-0.00339856
-0.00290502
-0.0033638
-0.00292062
-0.00333042
-0.00292331
-0.00329802
-0.00291371
-0.00326721
-0.00289202
-0.00323736
-0.00285905
-0.00320848
-0.00281501
-0.00318075
-0.0027603
-0.00315417
-0.00269554
-0.00312833
-0.00262094
-0.00310341
-0.00253709
-0.00307941
-0.00244401
-0.0030563
-0.00234252
-0.00303346
-0.0022324
-0.00301188
-0.00211448
-0.00299054
-0.00198875
-0.00297002
-0.00185581
-0.00294989
-0.00171564
-0.00293012
-0.00156864
-0.00291107
-0.00141508
-0.00289208
-0.00125505
-0.00287359
-0.00108884
-0.00285535
-0.000916663
-0.00283732
-0.000738633
-0.0028196
-0.000554971
-0.0028021
-0.000365799
-0.00278498
-0.00276824
-0.000171355
-0.000372084
-0.00381758
6.88813e-05
-0.000652268
-0.00377813
-0.000910451
-0.00374008
-0.00114765
-0.00370343
-0.00136466
-0.00366819
-0.0015617
-0.00363457
-0.00174036
-0.00360175
-0.00190086
-0.00357073
-0.00204381
-0.00354052
-0.00217021
-0.00351171
-0.00228065
-0.00348371
-0.00237555
-0.0034571
-0.00245552
-0.00343128
-0.00252137
-0.00340644
-0.0025733
-0.0033828
-0.00261233
-0.00335953
-0.00263845
-0.00333767
-0.00265247
-0.00331641
-0.00265459
-0.00329591
-0.00264562
-0.00327618
-0.00262597
-0.00325701
-0.00259564
-0.00323881
-0.00255524
-0.00322115
-0.00250558
-0.00320384
-0.00244646
-0.00318745
-0.00237829
-0.00317158
-0.00230188
-0.00315582
-0.00221723
-0.00314094
-0.00212434
-0.00312635
-0.00202424
-0.00311198
-0.00191671
-0.00309807
-0.00180237
-0.00308436
-0.00168121
-0.00307105
-0.00155341
-0.00305792
-0.00141937
-0.00304511
-0.00127943
-0.00303202
-0.00113366
-0.00301936
-0.000982286
-0.00300672
-0.000825474
-0.00299413
-0.000663387
-0.00298169
-0.00049621
-0.00296928
-0.000324162
-0.00295703
-0.00294506
-0.000147341
-0.000338298
-0.00354207
6.27898e-05
-0.000592987
-0.00352344
-0.000827682
-0.00350538
-0.001043
-0.00348811
-0.00123996
-0.00347124
-0.00141935
-0.00345517
-0.00158139
-0.00343971
-0.00172727
-0.00342485
-0.00185702
-0.00341077
-0.00197204
-0.00339669
-0.0020721
-0.00338365
-0.00215824
-0.00337096
-0.00223086
-0.00335866
-0.00229037
-0.00334693
-0.00233776
-0.00333541
-0.00237265
-0.00332464
-0.00239648
-0.00331384
-0.0024092
-0.00330368
-0.00241103
-0.00329408
-0.00240278
-0.00328443
-0.00238445
-0.00327534
-0.00235684
-0.00326641
-0.00232018
-0.00325782
-0.00227464
-0.00324937
-0.00222086
-0.00324124
-0.00215903
-0.0032334
-0.00208914
-0.00322572
-0.00201182
-0.00321826
-0.00192766
-0.00321051
-0.00183628
-0.00320336
-0.00173848
-0.00319587
-0.00163405
-0.00318879
-0.00152361
-0.00318149
-0.00140732
-0.00317421
-0.0012856
-0.00316683
-0.00115804
-0.00315958
-0.00102526
-0.00315213
-0.000887475
-0.00314451
-0.000744739
-0.00313687
-0.000597256
-0.00312917
-0.000445183
-0.00312136
-0.000288688
-0.00311353
-0.00310581
-0.000127931
-0.000307506
5.72196e-05
-0.00329179
-0.000538982
-0.00329197
-0.000752257
-0.00329211
-0.000948175
-0.00329219
-0.00112713
-0.00329228
-0.00128995
-0.00329235
-0.00143723
-0.00329243
-0.00156936
-0.00329271
-0.00168757
-0.00329256
-0.00179169
-0.00329258
-0.00188263
-0.00329271
-0.00196088
-0.00329271
-0.00202679
-0.00329275
-0.00208104
-0.00329268
-0.00212377
-0.00329267
-0.00215579
-0.00329262
-0.00217716
-0.00329247
-0.00218846
-0.00329239
-0.00219027
-0.00329227
-0.00218261
-0.00329209
-0.00216608
-0.00329187
-0.00214068
-0.00329181
-0.00210721
-0.00329129
-0.00206568
-0.00329089
-0.00201645
-0.00329047
-0.00196006
-0.0032898
-0.00189654
-0.00328923
-0.00182645
-0.00328835
-0.00174945
-0.0032875
-0.00166649
-0.00328633
-0.0015773
-0.00328506
-0.00148246
-0.00328364
-0.00138204
-0.0032819
-0.00127616
-0.0032801
-0.00116503
-0.00327795
-0.00104888
-0.00327572
-0.000928282
-0.00327274
-0.000802764
-0.00327003
-0.000673002
-0.00326663
-0.000538808
-0.00326336
-0.000400496
-0.00325967
-0.000258237
-0.00325578
-0.000112047
-0.003252
-0.000299612
-0.00156749
0.00118228
5.10284e-05
-0.0015942
0.00124356
0.000384423
-0.0016296
0.00129621
0.000704197
-0.00167022
0.00135045
0.00101122
-0.00171468
0.00140766
0.00130569
-0.00176233
0.00146786
0.00158767
-0.00181279
0.00153081
0.00185707
-0.00186585
0.00159646
0.00211382
-0.00192146
0.00166471
0.00235778
-0.00197955
0.0017356
0.00258875
-0.00204017
0.00180919
0.00280645
-0.00210324
0.00188554
0.00301047
-0.00216875
0.00196473
0.00320071
-0.00223727
0.00204703
0.00337691
-0.0023084
0.00213219
0.00353842
-0.00238251
0.00222099
0.00368497
-0.00245922
0.00231267
0.00381567
-0.00253909
0.00240839
0.00393061
-0.00262234
0.0025074
0.00402907
-0.00270896
0.0026105
0.00411033
-0.00279855
0.00271729
0.00417386
-0.00289231
0.00282879
0.0042189
-0.00298944
0.0029444
0.00424509
-0.00309055
0.00306435
0.0042511
-0.00319562
0.00318962
0.00423693
-0.00330507
0.00331924
0.00420122
-0.0034187
0.00345441
0.00414319
-0.00353691
0.00359494
0.00406225
-0.00365989
0.00374083
0.00395722
-0.00378785
0.00389289
0.00382749
-0.00392099
0.00405072
0.00367149
-0.00405912
0.00421512
0.00348861
-0.00420322
0.0043861
0.00327785
-0.0043529
0.00456367
0.00303762
-0.00450838
0.00474861
0.00276711
-0.00467042
0.00494094
0.00246511
-0.00483886
0.00514085
0.00213024
-0.00501387
0.00534875
0.00176108
-0.00519606
0.00556522
0.00135643
-0.00538564
0.00579028
0.000914885
-0.00558259
0.00602413
0.000434651
-0.00578752
0.00626775
-0.00600063
0.00652077
-8.54842e-05
-0.000126867
-0.00185847
0.000164662
-0.00188573
0.00045067
-0.0019156
0.000728647
-0.00194819
0.0009974
-0.00198343
0.00125621
-0.00202114
0.00150473
-0.00206131
0.00174271
-0.00210383
0.00196989
-0.00214864
0.00218597
-0.00219564
0.00239104
-0.00224523
0.00258439
-0.0022966
0.00276619
-0.00235055
0.00293576
-0.00240683
0.00309279
-0.00246543
0.00323658
-0.0025263
0.00336738
-0.00259001
0.00348445
-0.00265617
0.00358726
-0.00272515
0.00367484
-0.00279654
0.00374762
-0.00287133
0.00380385
-0.00294853
0.00384392
-0.00302951
0.00386647
-0.0031131
0.00387131
-0.00320047
0.00385726
-0.00329103
0.00382412
-0.00338556
0.00377071
-0.00348349
0.00369661
-0.0035858
0.00360045
-0.00369169
0.00348163
-0.00380217
0.00333954
-0.00391703
0.0031728
-0.00403647
0.0029804
-0.0041605
0.00276173
-0.00428971
0.00251541
-0.0044241
0.00224024
-0.00456368
0.0019354
-0.00470903
0.0015997
-0.00486036
0.00123134
-0.00501728
0.000829518
-0.00518076
0.000392828
-0.00535083
-0.00552767
-8.01362e-05
-4.2557e-05
-0.00211867
0.000213092
-0.00214137
0.000463203
-0.00216572
0.000706911
-0.0021919
0.000943513
-0.00222003
0.00117249
-0.00225011
0.00139331
-0.00228213
0.00160556
-0.00231608
0.00180883
-0.00235192
0.00200308
-0.00238989
0.00218725
-0.00242939
0.0023616
-0.00247096
0.00252558
-0.00251453
0.00267861
-0.00255986
0.00282051
-0.00260733
0.0029511
-0.00265689
0.00306943
-0.00270834
0.0031753
-0.00276205
0.00326796
-0.0028178
0.0033476
-0.00287619
0.00341287
-0.0029366
0.00346397
-0.00299963
0.00349953
-0.00306507
0.00351995
-0.00313352
0.00352366
-0.00320417
0.00351085
-0.00327822
0.00348015
-0.00335486
0.00343115
-0.0034345
0.00336308
-0.00351772
0.00327553
-0.00360414
0.00316711
-0.00369375
0.00303743
-0.00378735
0.00288528
-0.00388433
0.00271008
-0.0039853
0.00251102
-0.00409065
0.00228651
-0.0041996
0.00203634
-0.00431351
0.00175892
-0.00443161
0.00145305
-0.00455449
0.00111813
-0.00468235
0.000752749
-0.00481539
0.000355522
-0.0049536
-0.00509739
-7.4754e-05
-7.94386e-06
-0.00235476
0.000223155
-0.00237247
0.000448783
-0.00239134
0.000668435
-0.00241155
0.000881661
-0.00243326
0.001088
-0.00245645
0.00128707
-0.00248121
0.00147852
-0.00250753
0.00166195
-0.00253535
0.00183693
-0.00256486
0.00200341
-0.00259588
0.0021608
-0.00262835
0.00230872
-0.00266244
0.00244717
-0.00269831
0.00257536
-0.00273552
0.00269292
-0.00277446
0.00279967
-0.00281509
0.00289521
-0.00285759
0.00297897
-0.00290156
0.00305057
-0.00294778
0.00310942
-0.00299545
0.00315513
-0.00304534
0.00318732
-0.00309726
0.003205
-0.0031512
0.00320817
-0.00320735
0.00319566
-0.0032657
0.00316725
-0.00332645
0.00312255
-0.0033898
0.00306038
-0.00345556
0.00297995
-0.00352371
0.00288124
-0.00359505
0.00276287
-0.00366898
0.00262425
-0.00374571
0.00246477
-0.00382582
0.00228323
-0.00390912
0.00207904
-0.00399541
0.0018512
-0.00408567
0.00159851
-0.00417893
0.00132057
-0.00427655
0.00101578
-0.00437756
0.000683145
-0.00448275
0.000321861
-0.00459231
-0.00470608
-6.94533e-05
1.22872e-05
-0.00256913
0.000221675
-0.00258186
0.000425834
-0.0025955
0.000624448
-0.00261017
0.000817161
-0.00262597
0.00100364
-0.00264293
0.00118356
-0.00266113
0.00135661
-0.00268057
0.0015226
-0.00270134
0.0016808
-0.00272306
0.00183139
-0.00274647
0.00197377
-0.00277073
0.00210773
-0.00279641
0.00223269
-0.00282326
0.00234864
-0.00285148
0.00245521
-0.00288102
0.00255198
-0.00291186
0.0026382
-0.0029438
0.00271404
-0.00297741
0.00277854
-0.00301229
0.00283171
-0.00304861
0.00287295
-0.00308658
0.00290167
-0.00312599
0.00291768
-0.00316721
0.00291999
-0.00320965
0.00290859
-0.0032543
0.00288269
-0.00330056
0.00284131
-0.00334843
0.00278445
-0.00339869
0.00271131
-0.00345057
0.0026211
-0.00350484
0.00251322
-0.0035611
0.00238707
-0.00361956
0.00224166
-0.00368041
0.0020764
-0.00374385
0.00189047
-0.00380948
0.00168289
-0.00387809
0.00145325
-0.00394929
0.00119996
-0.00402326
0.000922819
-0.00410042
0.000620425
-0.00418036
0.000291583
-0.00426347
-0.00435018
-6.43196e-05
2.34064e-05
-0.00276389
0.000213538
-0.00277199
0.000398754
-0.00278072
0.000578844
-0.00279026
0.000753504
-0.00280063
0.000922513
-0.00281194
0.00108555
-0.00282416
0.00124228
-0.0028373
0.00139254
-0.0028516
0.00153602
-0.00286655
0.00167233
-0.00288277
0.00180144
-0.00289984
0.00192277
-0.00291773
0.0020363
-0.0029368
0.00214126
-0.00295643
0.00223784
-0.0029776
0.00232525
-0.00299928
0.0024035
-0.00302205
0.002472
-0.00304591
0.00253056
-0.00307085
0.00257859
-0.00309665
0.0026157
-0.00312369
0.00264169
-0.00315197
0.00265576
-0.00318128
0.00265771
-0.00321161
0.00264696
-0.00324355
0.00262291
-0.00327651
0.00258536
-0.00331088
0.00253333
-0.00334666
0.00246662
-0.00338385
0.00238423
-0.00342245
0.00228596
-0.00346283
0.00217101
-0.00350461
0.00203879
-0.00354819
0.0018881
-0.00359317
0.00171915
-0.00364053
0.00153034
-0.00368928
0.00132107
-0.00374001
0.00109093
-0.00379313
0.000838547
-0.00384803
0.00056331
-0.00390512
0.000264427
-0.00396459
-0.00402646
-5.92916e-05
2.96801e-05
-0.00294091
0.000202358
-0.00294467
0.000370559
-0.00294892
0.000534013
-0.00295371
0.000692526
-0.00295914
0.000845828
-0.00296524
0.000993705
-0.00297204
0.00113589
-0.00297949
0.00127225
-0.00298796
0.00140246
-0.00299675
0.0015261
-0.00300641
0.00164296
-0.0030167
0.00175304
-0.00302781
0.00185574
-0.0030395
0.00195126
-0.00305196
0.00203862
-0.00306495
0.00211781
-0.00307847
0.00218885
-0.00309309
0.00225095
-0.00310801
0.00230372
-0.00312361
0.00234735
-0.00314028
0.00238105
-0.0031574
0.00240423
-0.00317515
0.00241688
-0.00319392
0.0024186
-0.00321333
0.00240861
-0.00323356
0.00238672
-0.00325461
0.00235213
-0.00327629
0.00230484
-0.00329938
0.00224387
-0.00332288
0.00216899
-0.00334757
0.00207943
-0.00337327
0.00197459
-0.00339977
0.00185406
-0.00342766
0.00171726
-0.00345637
0.00156319
-0.00348645
0.00139124
-0.00351733
0.00120122
-0.00354999
0.000991537
-0.00358345
0.000761993
-0.00361849
0.00051179
-0.00365492
0.000239936
-0.00369274
-0.00373196
-5.45633e-05
3.2963e-05
-0.0031018
0.000189912
-0.00310162
0.000342686
-0.00310169
0.000491093
-0.00310212
0.000635029
-0.00310308
0.000774196
-0.00310441
0.00090851
-0.00310635
0.00103771
-0.00310869
0.00116115
-0.00311139
0.00127923
-0.00311484
0.00139155
-0.00311873
0.00149787
-0.00312303
0.00159763
-0.00312757
0.00169101
-0.00313287
0.00177722
-0.00313817
0.00185665
-0.00314439
0.00192873
-0.00315055
0.00199287
-0.00315723
0.00204907
-0.00316421
0.00209714
-0.00317168
0.00213647
-0.00317961
0.00216685
-0.00318778
0.00218809
-0.00319639
0.00219939
-0.00320522
0.00220077
-0.0032147
0.00219144
-0.00322423
0.0021712
-0.00323437
0.00214004
-0.00324514
0.0020966
-0.00325593
0.00204123
-0.00326751
0.00197296
-0.0032793
0.00189139
-0.0032917
0.00179613
-0.00330451
0.00168619
-0.00331772
0.00156176
-0.00333193
0.00142144
-0.00334614
0.00126523
-0.00336112
0.00109195
-0.00337671
0.00090139
-0.00339289
0.000692761
-0.00340986
0.000465067
-0.00342722
0.000217712
-0.00344538
-0.00346415
-5.00999e-05
3.42526e-05
-0.0032481
0.000176904
-0.00324427
0.000315759
-0.00324055
0.000450493
-0.00323685
0.00058121
-0.0032338
0.000707619
-0.00323082
0.00082942
-0.00322815
0.000946798
-0.00322607
0.00105918
-0.00322378
0.00116645
-0.0032221
0.00126833
-0.00322062
0.00136464
-0.00321933
0.00145537
-0.0032183
0.00153986
-0.00321737
0.00161842
-0.00321672
0.00169022
-0.00321619
0.0017555
-0.00321583
0.00181384
-0.00321557
0.00186503
-0.0032154
0.00190868
-0.00321533
0.00194434
-0.00321527
0.00197205
-0.00321549
0.00199101
-0.00321535
0.00200123
-0.00321544
0.00200216
-0.00321564
0.00199377
-0.00321583
0.00197544
-0.00321605
0.00194661
-0.00321631
0.00190726
-0.00321658
0.00185656
-0.00321682
0.00179436
-0.0032171
0.00172006
-0.0032174
0.00163327
-0.00321772
0.00153358
-0.00321803
0.00141999
-0.00321835
0.00129267
-0.00321881
0.00115047
-0.00321892
0.000993002
-0.00321924
0.000819641
-0.00321953
0.000629604
-0.00321982
0.000422487
-0.0032201
0.000197511
-0.0032204
-0.00322071
-4.59207e-05
0.000521539
0.00610786
-0.00663992
1.05203e-05
0.0010131
0.00589121
-0.00638276
0.00146532
0.00568267
-0.0061349
0.00187998
0.00548204
-0.0058967
0.00225843
0.0052887
-0.00566715
0.00260183
0.00510261
-0.00544601
0.00291152
0.00492357
-0.00523326
0.00318883
0.00475093
-0.00502824
0.0034349
0.00458447
-0.00483054
0.00365045
0.00442435
-0.0046399
0.00383699
0.00426975
-0.00445629
0.00399543
0.0041204
-0.00427884
0.00412628
0.00397667
-0.00410752
0.00423105
0.00383752
-0.00394228
0.00431024
0.00370309
-0.00378228
0.00436498
0.00357313
-0.00362787
0.00439585
0.00344739
-0.00347826
0.00440364
0.00332565
-0.00333344
0.00438978
0.00320749
-0.00319364
0.00435439
0.0030931
-0.00305771
0.00429897
0.00298208
-0.00292667
0.00422411
0.00287443
-0.00279957
0.00413081
0.00276956
-0.00267627
0.00401992
0.00266825
-0.00255736
0.00389252
0.00256933
-0.00244194
0.00374974
0.00247318
-0.00233039
0.00359196
0.00237977
-0.002222
0.00342057
0.0022889
-0.00211751
0.00323641
0.00219997
-0.00201581
0.00304074
0.00211329
-0.00191762
0.00283447
0.00202843
-0.00182216
0.00261846
0.00194564
-0.00172963
0.00239389
0.00186421
-0.00163964
0.00216193
0.00178392
-0.00155196
0.00192373
0.00170451
-0.0014663
0.00168052
0.00162545
-0.00138225
0.00143366
0.0015461
-0.00129924
0.00118474
0.0014654
-0.00121649
0.000935693
0.00138178
-0.00113273
0.000689069
0.00129245
-0.00104583
0.000448714
0.00119183
-0.000951474
0.000219962
0.00106758
-0.000838827
0.000911641
-4.0576e-06
-0.000687621
0.000474213
0.0056243
9.35026e-06
0.00092095
0.00544447
0.00133224
0.00527138
0.00170948
0.00510481
0.00205342
0.00494475
0.00236586
0.00479018
0.00264795
0.00464148
0.00290045
0.00449842
0.00312453
0.00436039
0.00332154
0.00422735
0.00349202
0.00409926
0.00363692
0.0039755
0.00375757
0.00385603
0.0038545
0.00374059
0.00392825
0.00362933
0.00398016
0.00352122
0.00401056
0.00341698
0.00402063
0.00331558
0.00401057
0.00321756
0.00398159
0.00312208
0.00393396
0.00302971
0.00386917
0.00293923
0.00378695
0.00285178
0.00368924
0.00276597
0.00357585
0.00268272
0.003448
0.00260103
0.00330654
0.00252123
0.00315258
0.00244287
0.00298628
0.00236627
0.00280881
0.00229076
0.00262101
0.00221623
0.00242411
0.00214253
0.00221867
0.00206965
0.00200607
0.00199652
0.00178707
0.0019235
0.00156292
0.00184961
0.00133489
0.00177413
0.00110444
0.00169586
0.0008733
0.00161292
0.000643903
0.00152185
0.000419689
0.00141604
0.000204868
0.0012824
0.00112102
-4.51397e-06
0.000431378
0.00518459
8.331e-06
0.00083752
0.00503833
0.00121129
0.00489761
0.00155407
0.00476203
0.00186726
0.00463157
0.00215143
0.00450601
0.00240776
0.00438514
0.00263784
0.00426834
0.00284184
0.0041564
0.00302132
0.00404787
0.00317704
0.00394354
0.00330958
0.00384297
0.00342008
0.00374553
0.0035089
0.00365177
0.00357737
0.00356086
0.00362587
0.00347273
0.00365512
0.00338773
0.00366549
0.00330521
0.00365836
0.00322469
0.00363351
0.00314692
0.00359257
0.00307065
0.00353518
0.00299661
0.00346281
0.00292415
0.00337538
0.0028534
0.00327438
0.00278372
0.00315979
0.00271562
0.0030326
0.00264842
0.00289325
0.00258222
0.00274297
0.00251655
0.00258229
0.00245144
0.00241176
0.00238676
0.00223237
0.00232192
0.00204515
0.00225687
0.0018504
0.00219127
0.00164972
0.00212418
0.00144385
0.00205548
0.00123398
0.001984
0.00102145
0.00190839
0.000807975
0.0018264
0.000595786
0.00173404
0.000388153
0.00162368
0.000188854
0.0014817
0.00131459
-4.71101e-06
0.000392232
0.00478492
7.43197e-06
0.000761384
0.00466918
0.00110142
0.00455758
0.00141312
0.00445032
0.00169749
0.0043472
0.00195612
0.00424738
0.00218939
0.00415188
0.00239848
0.00405925
0.00258438
0.0039705
0.00274767
0.00388458
0.00288951
0.00380169
0.0030105
0.00372198
0.00311118
0.00364484
0.00319294
0.00357002
0.00325572
0.00349807
0.0033003
0.00342815
0.00332783
0.00336021
0.00333867
0.00329437
0.00333299
0.00323037
0.00331196
0.00316795
0.0032756
0.00310702
0.0032249
0.00304731
0.0031603
0.00298874
0.00308227
0.00293143
0.00299149
0.0028745
0.00288847
0.00281864
0.00277395
0.00276294
0.00264848
0.00270769
0.0025125
0.00265253
0.00236665
0.0025973
0.00221199
0.00254142
0.00204888
0.00248503
0.00187811
0.00242764
0.0017007
0.00236868
0.00151723
0.00230765
0.00132874
0.00224397
0.00113632
0.00217643
0.000941198
0.00210351
0.000744889
0.0020227
0.000549499
0.00192943
0.000357997
0.00181518
0.000173828
0.00166587
0.00149308
-4.66113e-06
0.000356597
0.00442167
6.6571e-06
0.000692377
0.00433339
0.00100128
0.00424867
0.00128451
0.0041671
0.00154345
0.00408825
0.0017783
0.00401253
0.00199066
0.00393952
0.00218091
0.00386901
0.00235003
0.00380137
0.00249883
0.00373579
0.00262787
0.00367264
0.00273814
0.00361171
0.00283022
0.00355276
0.00290468
0.00349556
0.00296229
0.00344046
0.00300383
0.00338662
0.00302925
0.00333478
0.00303953
0.00328409
0.00303543
0.00323447
0.00301693
0.00318645
0.00298501
0.00313894
0.00293985
0.00309246
0.00288209
0.00304651
0.00281233
0.00300119
0.00273065
0.00295619
0.0026381
0.00291119
0.00253459
0.00286645
0.00242105
0.00282123
0.00229803
0.00277554
0.00216614
0.00272919
0.00202562
0.00268193
0.00187736
0.00263329
0.00172188
0.00258311
0.00156017
0.00253039
0.00139254
0.00247528
0.00122023
0.00241628
0.00104408
0.00235257
0.00086523
0.00228236
0.000685086
0.00220285
0.000505517
0.002109
0.000329241
0.00199145
0.000159401
0.00183571
0.00165737
-4.89273e-06
0.000324286
0.00409141
5.97716e-06
0.000629311
0.00402837
0.000910299
0.00396769
0.00116805
0.00390935
0.00140315
0.00385315
0.00161702
0.00379867
0.00181003
0.00374651
0.00198278
0.00369625
0.00213688
0.00364728
0.00227209
0.00360057
0.00238962
0.00355511
0.00249006
0.00351128
0.00257417
0.00346865
0.00264215
0.00342758
0.00269496
0.00338764
0.0027328
0.00334878
0.00275662
0.00331096
0.00276661
0.0032741
0.00276333
0.00323775
0.00274736
0.00320242
0.00271887
0.00316743
0.00267865
0.00313269
0.00262689
0.00309828
0.002564
0.00306408
0.00249061
0.00302957
0.00240698
0.00299482
0.00231375
0.00295967
0.00221103
0.00292395
0.00209972
0.00288685
0.00197983
0.00284908
0.00185234
0.00280942
0.00171751
0.00276812
0.0015762
0.00272443
0.00142876
0.00267783
0.00127598
0.00262806
0.00111868
0.00257359
0.000957643
0.00251361
0.000793987
0.00244602
0.000628997
0.00236784
0.000464314
0.00227368
0.00030241
0.00215336
0.000146307
0.00199181
0.00180811
-4.43418e-06
0.000294921
0.00379112
5.36786e-06
0.000572205
0.00375109
0.000827482
0.00371241
0.00106175
0.00367507
0.00127582
0.00363908
0.00146987
0.00360462
0.00164552
0.00357086
0.00180295
0.00353882
0.00194275
0.00350747
0.00206593
0.0034774
0.00217307
0.00344797
0.00226456
0.00341979
0.002341
0.00339221
0.00240315
0.00336542
0.00245122
0.00333958
0.00248617
0.00331383
0.00250798
0.00328914
0.00251743
0.00326465
0.0025147
0.00324048
0.00250057
0.00321655
0.00247542
0.00319258
0.00243922
0.00316889
0.00239255
0.00314495
0.0023362
0.00312043
0.00227
0.00309577
0.00219438
0.00307043
0.00211021
0.00304384
0.00201751
0.00301666
0.00191633
0.00298803
0.00180783
0.00295759
0.00169202
0.00292522
0.00156974
0.0028904
0.00144125
0.00285292
0.00130701
0.00281207
0.00116779
0.00276728
0.00102428
0.00271709
0.000877209
0.00266068
0.000727688
0.00259554
0.000577006
0.00251852
0.00042647
0.00242422
0.000277961
0.00230187
0.000133619
0.00213615
0.00194793
-6.20175e-06
0.000268105
0.00351818
4.83333e-06
0.000520266
0.00349892
0.000752442
0.00348023
0.000965243
0.00346227
0.00115966
0.00344466
0.0013365
0.00342778
0.00149596
0.00341141
0.00163924
0.00339554
0.00176632
0.00338039
0.00187861
0.00336511
0.0019759
0.00335068
0.00205918
0.0033365
0.00212885
0.00332255
0.00218528
0.00330899
0.00222948
0.00329538
0.00226102
0.00328229
0.00228126
0.00326889
0.00229021
0.0032557
0.00228804
0.00324265
0.00227553
0.00322906
0.00225269
0.00321543
0.00222027
0.0032013
0.00217843
0.00318679
0.00212737
0.00317149
0.00206771
0.00315544
0.00199966
0.00313848
0.00192328
0.00312023
0.00183919
0.00310075
0.00174792
0.0030793
0.00164934
0.00305616
0.00154436
0.0030302
0.00143298
0.00300178
0.00131605
0.00296985
0.00119398
0.00293414
0.0010674
0.00289386
0.000936553
0.00284794
0.000802278
0.00279495
0.000665857
0.00273196
0.000528239
0.00265614
0.000391241
0.00256121
0.000255678
0.00243743
0.000124547
0.00226728
0.00207624
-3.75521e-06
0.000243642
0.0032702
4.33946e-06
0.000472885
0.00326968
0.000683964
0.00326915
0.000877703
0.00326853
0.00105448
0.00326788
0.0012151
0.00326716
0.00136017
0.00326634
0.00149009
0.00326562
0.00160604
0.00326444
0.0017078
0.00326335
0.00179642
0.00326207
0.00187227
0.00326065
0.00193575
0.00325907
0.00198741
0.00325733
0.00202746
0.00325533
0.00205674
0.00325302
0.00207516
0.00325048
0.00208329
0.00324757
0.00208175
0.00324419
0.00207053
0.00324028
0.00205023
0.00323573
0.00202091
0.00323063
0.00198318
0.00322451
0.00193702
0.00321764
0.0018829
0.00320956
0.0018212
0.00320018
0.00175254
0.00318888
0.00167689
0.0031764
0.00159366
0.00316253
0.00150416
0.00314567
0.00140857
0.00312579
0.00130769
0.00310266
0.00120167
0.00307587
0.00109091
0.0030449
0.000975718
0.00300905
0.000856028
0.00296763
0.000733112
0.00291787
0.000608293
0.00285678
0.000483591
0.00278084
0.000359505
0.0026853
0.000236747
0.00256019
0.000112712
0.00239132
-1.39215e-05
0.00220287
-0.000228742
0.000930455
-0.000705771
-0.000463003
0.00109492
-0.000860657
-0.000709525
0.00122207
-0.000975546
-0.000962368
0.00132457
-0.00107173
-0.00121756
0.00141552
-0.00116033
-0.00147247
0.00150064
-0.00124573
-0.00172512
0.00158273
-0.00133008
-0.00197384
0.00166338
-0.00141467
-0.00221722
0.00174364
-0.00150026
-0.00245397
0.00182416
-0.00158741
-0.0026829
0.00190544
-0.00167652
-0.00290277
0.00198774
-0.00176787
-0.00311236
0.00207127
-0.00186168
-0.00331078
0.00215674
-0.00195831
-0.00349709
0.00224386
-0.00205755
-0.00367002
0.00233308
-0.00216015
-0.00382869
0.00242405
-0.00226538
-0.00397174
0.00251739
-0.00237434
-0.00409878
0.0026133
-0.00248626
-0.00420872
0.0027118
-0.00260186
-0.00430051
0.0028125
-0.00272071
-0.00437335