/*--------------------------------*- C++ -*----------------------------------*\
| =========                 |                                                 |
| \\      /  F ield         | OpenFOAM: The Open Source CFD Toolbox           |
|  \\    /   O peration     | Version:  2.3.0                                 |
|   \\  /    A nd           | Web:      www.OpenFOAM.org                      |
|    \\/     M anipulation  |                                                 |
\*---------------------------------------------------------------------------*/
FoamFile
{
    version     2.0;
    format      ascii;
    class       volVectorField;
    location    "1000";
    object      U;
}
// * * * * * * * * * * * * * * * * * * * * * * * * * * * * * * * * * * * * * //

dimensions      [0 1 -1 0 0 0 0];

internalField   nonuniform List<vector> 
37724
(
(20.2689 0.334251 0)
(20.2734 0.341293 1.42482e-22)
(20.2781 0.348129 -6.41953e-22)
(20.2828 0.355229 4.97051e-22)
(20.2876 0.362558 1.87618e-21)
(20.2926 0.37013 -1.85855e-21)
(20.2978 0.377957 0)
(20.3031 0.386057 3.21493e-21)
(20.3085 0.394447 -3.18177e-21)
(20.3142 0.403151 0)
(20.32 0.412191 0)
(20.326 0.421595 0)
(20.3323 0.431395 0)
(20.3388 0.441626 6.15537e-21)
(20.3455 0.452334 -6.14648e-21)
(20.3524 0.46357 0)
(20.3597 0.475396 0)
(20.3672 0.487887 0)
(20.3751 0.501129 0)
(20.3834 0.515227 0)
(20.3921 0.530304 0)
(20.4013 0.546506 -1.17969e-20)
(20.4111 0.564003 1.20276e-20)
(20.4214 0.582996 -1.37333e-20)
(20.4325 0.603723 2.88826e-20)
(20.4444 0.626459 -1.5221e-20)
(20.4571 0.651527 -1.71281e-20)
(20.4708 0.679302 1.77241e-20)
(20.4856 0.710221 0)
(20.5016 0.744789 0)
(20.5187 0.783591 0)
(20.5369 0.827301 0)
(20.5562 0.876691 2.52377e-20)
(20.5763 0.932638 -2.66055e-20)
(20.5965 0.996134 2.75788e-20)
(20.6158 1.0683 -1.50792e-20)
(20.6324 1.15037 -1.50534e-20)
(20.643 1.24364 0)
(20.642 1.3492 1.27649e-20)
(20.6193 1.46827 -1.36534e-20)
(20.5584 1.60569 0)
(20.4271 1.7705 -3.3564e-22)
(20.1576 1.96631 3.76281e-22)
(20.2617 0.339116 0)
(20.2652 0.345784 0)
(20.2689 0.352332 1.0242e-22)
(20.2726 0.359136 1.88353e-22)
(20.2763 0.366161 1.915e-22)
(20.2802 0.37342 -4.73525e-22)
(20.2841 0.380923 0)
(20.2881 0.388686 0)
(20.2922 0.396727 2.47968e-21)
(20.2963 0.405067 -2.45306e-21)
(20.3005 0.413728 0)
(20.3048 0.422736 3.6704e-21)
(20.3092 0.432114 4.4391e-22)
(20.3137 0.441891 -4.07268e-21)
(20.3182 0.452097 4.99082e-21)
(20.3228 0.462768 -4.99036e-21)
(20.3275 0.473946 0)
(20.3322 0.485676 6.56539e-21)
(20.3369 0.498012 -1.37874e-20)
(20.3417 0.511016 7.24494e-21)
(20.3464 0.524759 -8.56572e-21)
(20.3511 0.539328 -6.69624e-22)
(20.3557 0.554819 9.52915e-21)
(20.3601 0.571351 1.12099e-20)
(20.3644 0.589061 8.07132e-22)
(20.3683 0.608108 8.53796e-22)
(20.3719 0.628682 -2.85347e-20)
(20.3749 0.651005 1.51656e-20)
(20.3772 0.675331 1.75663e-20)
(20.3784 0.701953 9.26413e-22)
(20.3784 0.731206 -1.98291e-20)
(20.3767 0.763461 0)
(20.3728 0.799123 0)
(20.366 0.838614 -1.24172e-20)
(20.3555 0.882341 1.2951e-20)
(20.3402 0.93065 0)
(20.3189 0.983734 -1.20506e-20)
(20.29 1.04147 2.30774e-20)
(20.2517 1.10317 -1.48487e-20)
(20.2019 1.16726 4.04416e-21)
(20.1389 1.23061 -8.13088e-22)
(20.0606 1.28604 2.51562e-21)
(19.9669 1.31793 -1.71346e-21)
(20.2549 0.342916 0)
(20.2578 0.349277 0)
(20.2607 0.355522 -1.52352e-22)
(20.2637 0.361995 1.5115e-22)
(20.2666 0.368675 0)
(20.2697 0.375572 0)
(20.2727 0.382697 2.908e-22)
(20.2758 0.390066 -2.87311e-22)
(20.279 0.397697 0)
(20.2821 0.40561 0)
(20.2853 0.413829 -1.72581e-21)
(20.2885 0.422379 1.71215e-21)
(20.2917 0.431287 0)
(20.2949 0.440579 -2.5739e-21)
(20.2982 0.450288 2.56847e-21)
(20.3014 0.460447 0)
(20.3046 0.471096 0)
(20.3078 0.482281 0)
(20.311 0.494051 0)
(20.3141 0.506462 0)
(20.3171 0.519575 0)
(20.32 0.533459 0)
(20.3227 0.548189 0)
(20.3252 0.563849 -5.49888e-21)
(20.3274 0.580532 5.6197e-21)
(20.3292 0.598337 0)
(20.3305 0.617372 0)
(20.3312 0.637751 0)
(20.3311 0.659592 0)
(20.3299 0.683013 0)
(20.3273 0.70812 0)
(20.3231 0.735003 -2.75278e-21)
(20.3166 0.763714 2.85331e-21)
(20.3073 0.794245 0)
(20.2946 0.82649 0)
(20.2777 0.8602 -3.18832e-22)
(20.2556 0.894923 3.30242e-22)
(20.2273 0.929922 0)
(20.1918 0.964089 3.42371e-21)
(20.148 0.995851 -3.51728e-21)
(20.0952 1.02306 0)
(20.0333 1.04284 2.39961e-21)
(19.9634 1.05179 -2.4325e-21)
(20.2486 0.345995 0)
(20.2509 0.351959 0)
(20.2532 0.357844 0)
(20.2555 0.363945 0)
(20.2578 0.370234 0)
(20.2602 0.376721 0)
(20.2625 0.383417 0)
(20.2648 0.390338 0)
(20.2672 0.397497 0)
(20.2695 0.40491 0)
(20.2718 0.4126 2.84869e-22)
(20.2741 0.420592 -2.82779e-22)
(20.2763 0.42891 1.01232e-21)
(20.2785 0.437577 2.23226e-22)
(20.2806 0.446618 -1.23014e-21)
(20.2827 0.456058 0)
(20.2846 0.465928 0)
(20.2865 0.476264 0)
(20.2882 0.48711 2.33649e-21)
(20.2897 0.498508 -2.36007e-21)
(20.291 0.510507 0)
(20.292 0.52316 0)
(20.2927 0.536526 0)
(20.293 0.550667 0)
(20.2929 0.56565 3.5375e-21)
(20.2922 0.581546 -7.28037e-21)
(20.2908 0.598425 5.61592e-21)
(20.2885 0.61636 -3.77187e-21)
(20.2853 0.635415 1.91228e-21)
(20.2809 0.655647 0)
(20.2751 0.67709 0)
(20.2676 0.699752 0)
(20.2579 0.723594 0)
(20.2459 0.748516 1.2385e-22)
(20.2309 0.774323 -1.28112e-22)
(20.2126 0.800697 0)
(20.1904 0.827158 0)
(20.1638 0.853024 -3.07188e-21)
(20.1326 0.87737 3.15939e-21)
(20.0964 0.899012 0)
(20.0555 0.916509 0)
(20.0104 0.928231 -2.41577e-21)
(19.9626 0.93258 2.4489e-21)
(20.2427 0.348204 1.48803e-22)
(20.2445 0.353924 -4.22202e-22)
(20.2463 0.359485 -2.24859e-22)
(20.2481 0.36522 9.39761e-22)
(20.25 0.371119 -4.41538e-22)
(20.2518 0.377195 6.89143e-22)
(20.2536 0.383463 -1.27189e-21)
(20.2553 0.389938 5.84038e-22)
(20.2571 0.396634 0)
(20.2588 0.403562 0)
(20.2605 0.410739 -2.29125e-22)
(20.2621 0.418195 2.27629e-22)
(20.2637 0.425955 -6.82413e-23)
(20.2651 0.434039 7.52014e-23)
(20.2665 0.442471 7.18347e-23)
(20.2679 0.451269 -7.90979e-23)
(20.2691 0.460454 2.10416e-22)
(20.2701 0.470053 -4.80887e-22)
(20.271 0.480106 2.71438e-22)
(20.2717 0.490649 0)
(20.2721 0.501717 0)
(20.2722 0.513352 0)
(20.272 0.525595 4.38198e-22)
(20.2714 0.538495 -4.46715e-22)
(20.2702 0.552098 0)
(20.2685 0.566449 0)
(20.266 0.581591 2.36718e-22)
(20.2627 0.597568 -3.31305e-22)
(20.2585 0.614408 9.07108e-23)
(20.253 0.632129 4.10067e-22)
(20.2462 0.65072 3.73357e-22)
(20.2378 0.670139 -8.21473e-22)
(20.2276 0.690302 0)
(20.2151 0.711064 0)
(20.2001 0.73221 0)
(20.1822 0.753419 2.59272e-21)
(20.1612 0.774246 -2.67235e-21)
(20.1368 0.794105 0)
(20.1088 0.812262 0)
(20.0772 0.827846 0)
(20.0424 0.8399 -4.13669e-21)
(20.0049 0.84746 4.20582e-21)
(19.9658 0.849697 -5.08825e-36)
(20.2373 0.350354 0)
(20.2387 0.355531 0)
(20.2401 0.360682 0)
(20.2415 0.366022 0)
(20.243 0.371524 0)
(20.2444 0.377195 0)
(20.2457 0.383045 9.50745e-22)
(20.2471 0.389089 -6.89795e-23)
(20.2484 0.395346 -8.62844e-22)
(20.2496 0.401814 -7.26465e-22)
(20.2508 0.408501 7.21137e-22)
(20.2519 0.415445 0)
(20.253 0.422672 0)
(20.2539 0.430204 0)
(20.2547 0.438061 0)
(20.2554 0.446263 0)
(20.256 0.454823 0)
(20.2565 0.463743 0)
(20.2567 0.473068 3.01183e-22)
(20.2567 0.482833 -3.04515e-22)
(20.2564 0.493065 0)
(20.2559 0.503793 0)
(20.2549 0.515052 -3.33972e-22)
(20.2535 0.526877 3.40441e-22)
(20.2516 0.539307 0)
(20.249 0.552371 0)
(20.2458 0.566088 -7.4481e-22)
(20.2417 0.58049 7.64325e-22)
(20.2367 0.595588 0)
(20.2305 0.611382 0)
(20.2231 0.627838 2.03357e-21)
(20.2142 0.644891 -2.09533e-21)
(20.2037 0.662441 -1.65662e-21)
(20.1911 0.680314 1.70779e-21)
(20.1764 0.698313 -2.63316e-21)
(20.1594 0.716149 2.71208e-21)
(20.1397 0.73342 0)
(20.1172 0.749631 -4.96452e-21)
(20.0921 0.764186 5.09012e-21)
(20.0642 0.776387 0)
(20.0339 0.785546 0)
(20.0018 0.791035 0)
(19.9686 0.792304 0)
(20.2323 0.351893 0)
(20.2335 0.356702 0)
(20.2346 0.361488 3.87174e-22)
(20.2357 0.366455 -1.12219e-21)
(20.2368 0.371585 2.85587e-23)
(20.2378 0.376874 2.76039e-23)
(20.2389 0.38234 2.71881e-23)
(20.2398 0.387976 6.26527e-22)
(20.2408 0.393829 1.13661e-21)
(20.2417 0.399886 -1.1274e-21)
(20.2426 0.406127 1.03096e-21)
(20.2433 0.412598 -1.0259e-21)
(20.2439 0.419346 -9.4496e-22)
(20.2445 0.42638 9.43942e-22)
(20.2449 0.433722 0)
(20.2451 0.441388 0)
(20.2453 0.449418 0)
(20.2454 0.457766 0)
(20.2452 0.466459 0)
(20.2447 0.47556 0)
(20.244 0.48508 0)
(20.243 0.495043 9.38841e-22)
(20.2416 0.505471 -9.55021e-22)
(20.2397 0.5164 0)
(20.2373 0.527855 1.22287e-21)
(20.2344 0.539872 1.3392e-22)
(20.2307 0.552435 -3.0071e-21)
(20.2262 0.565564 -2.19337e-22)
(20.2208 0.579283 1.89811e-21)
(20.2143 0.593564 0)
(20.2066 0.608385 0)
(20.1976 0.623634 -1.83002e-21)
(20.187 0.639251 1.88315e-21)
(20.1747 0.655006 0)
(20.1605 0.67072 0)
(20.1441 0.686174 3.78851e-21)
(20.1256 0.700987 6.24053e-22)
(20.1048 0.714742 -4.62959e-21)
(20.0817 0.726968 0)
(20.0565 0.737028 0)
(20.0292 0.744381 0)
(20.0006 0.748669 1.21308e-21)
(19.9712 0.749399 -1.22796e-21)
(20.2278 0.352935 2.37974e-22)
(20.2288 0.357543 -2.35053e-22)
(20.2296 0.362 0)
(20.2305 0.366602 4.28619e-22)
(20.2313 0.371411 4.01938e-22)
(20.2321 0.376322 -8.17698e-22)
(20.2329 0.381468 -7.69686e-22)
(20.2335 0.386722 7.62157e-22)
(20.2342 0.392212 0)
(20.2349 0.397904 6.89847e-22)
(20.2355 0.403761 -1.35546e-21)
(20.236 0.409762 6.66853e-22)
(20.2363 0.416105 0)
(20.2365 0.422677 1.26118e-21)
(20.2367 0.429598 -1.26308e-21)
(20.2365 0.436748 0)
(20.2363 0.444308 1.24102e-21)
(20.2361 0.452212 -2.51019e-21)
(20.2356 0.460357 1.27178e-21)
(20.2349 0.468903 0)
(20.2338 0.477823 0)
(20.2325 0.487148 1.43934e-21)
(20.2307 0.496881 -1.46341e-21)
(20.2286 0.507066 0)
(20.2259 0.517719 8.96325e-22)
(20.2226 0.528842 -9.15531e-22)
(20.2188 0.540516 0)
(20.214 0.552542 0)
(20.2084 0.565207 1.42799e-21)
(20.2016 0.578264 1.76234e-22)
(20.1939 0.59186 -1.6846e-21)
(20.1848 0.605694 2.20201e-21)
(20.1743 0.61986 -2.26173e-21)
(20.1624 0.634065 3.00425e-21)
(20.1486 0.648055 -3.08424e-21)
(20.1329 0.661821 -2.05638e-21)
(20.1152 0.674924 2.10748e-21)
(20.0958 0.686893 0)
(20.0742 0.697463 0)
(20.0513 0.706083 0)
(20.0263 0.712127 0)
(20.0001 0.715698 -1.18445e-21)
(19.9736 0.716123 1.19761e-21)
(20.2232 0.353381 1.32693e-22)
(20.2244 0.358158 -1.31201e-22)
(20.2252 0.362348 0)
(20.2258 0.366537 0)
(20.2264 0.371136 0)
(20.2269 0.375583 0)
(20.2276 0.380515 0)
(20.228 0.385397 8.95457e-22)
(20.2284 0.390631 -8.81969e-22)
(20.2288 0.39596 0)
(20.2295 0.40161 0)
(20.2296 0.407006 8.17824e-22)
(20.2299 0.413096 -8.1035e-22)
(20.2297 0.419135 0)
(20.2297 0.425837 0)
(20.2294 0.432522 -8.06127e-22)
(20.2287 0.43954 7.99994e-22)
(20.2283 0.447168 0)
(20.2276 0.454809 0)
(20.2267 0.462976 0)
(20.2255 0.471452 0)
(20.224 0.480297 0)
(20.2221 0.489475 0)
(20.2197 0.498987 -1.02178e-21)
(20.217 0.50908 2.17914e-21)
(20.2132 0.519199 -1.14074e-21)
(20.2095 0.53042 0)
(20.2044 0.541235 1.50079e-21)
(20.199 0.553159 -1.52906e-21)
(20.1918 0.565021 0)
(20.1841 0.577862 0)
(20.1752 0.590533 0)
(20.1646 0.603484 0)
(20.1534 0.61669 0)
(20.14 0.629174 0)
(20.1248 0.641638 2.15998e-21)
(20.1075 0.653755 -4.60264e-21)
(20.0889 0.664232 2.54548e-21)
(20.0677 0.673362 0)
(20.0471 0.681343 0)
(20.0242 0.686242 -1.03418e-21)
(20 0.689425 1.04527e-21)
(19.9762 0.689686 0)
(19.5787 1.82863 2.14875e-20)
(19.3153 1.66197 -1.99254e-20)
(19.203 1.48418 0)
(19.1619 1.34276 8.40079e-20)
(19.1573 1.2226 -7.79239e-20)
(19.1722 1.11754 0)
(19.1967 1.02546 6.97723e-20)
(19.2256 0.944969 6.51428e-20)
(19.2559 0.874611 -1.22429e-19)
(19.286 0.813003 1.14045e-19)
(19.315 0.758933 -1.07816e-19)
(19.3425 0.711352 0)
(19.3684 0.669351 0)
(19.3926 0.632145 0)
(19.4152 0.599059 0)
(19.4362 0.56951 -7.99037e-20)
(19.4558 0.543005 7.71156e-20)
(19.4741 0.519117 7.2454e-20)
(19.4912 0.497483 -1.39663e-19)
(19.5073 0.477793 6.75057e-20)
(19.5224 0.459782 -6.39031e-20)
(19.5367 0.443224 6.26379e-20)
(19.5502 0.427926 0)
(19.5631 0.413726 0)
(19.5754 0.400483 0)
(19.5872 0.38808 0)
(19.5986 0.376415 0)
(19.6095 0.365404 0)
(19.62 0.354975 5.18305e-20)
(19.6302 0.345069 -5.18939e-20)
(19.64 0.335633 0)
(19.6496 0.326625 0)
(19.6588 0.318007 0)
(19.6679 0.309746 0)
(19.6766 0.301814 4.90984e-20)
(19.6851 0.294186 -4.96021e-20)
(19.6934 0.28684 0)
(19.7015 0.279755 4.85492e-20)
(19.7093 0.272917 -4.89989e-20)
(19.7169 0.266308 -2.40232e-20)
(19.7243 0.25992 3.60624e-20)
(19.7315 0.253643 -1.19368e-20)
(19.7385 0.248512 0)
(19.857 1.3103 -5.1007e-21)
(19.7595 1.26335 1.80365e-20)
(19.6843 1.19381 -1.27266e-20)
(19.6276 1.11894 -3.03477e-20)
(19.5858 1.04555 9.08163e-20)
(19.5561 0.976446 -1.20007e-19)
(19.5359 0.912819 5.83496e-20)
(19.5232 0.855041 0)
(19.5161 0.802986 -5.44846e-20)
(19.5134 0.756269 5.213e-20)
(19.5139 0.71439 0)
(19.5168 0.676824 0)
(19.5216 0.643061 8.79854e-20)
(19.5277 0.612622 -1.34693e-21)
(19.5347 0.585078 -8.0415e-20)
(19.5424 0.560051 -7.51662e-20)
(19.5505 0.537209 1.44483e-19)
(19.5589 0.516269 -1.19451e-21)
(19.5675 0.496985 -1.13225e-21)
(19.5761 0.479148 -6.40132e-20)
(19.5847 0.462584 -6.06437e-20)
(19.5933 0.447141 9.56445e-22)
(19.6019 0.43269 5.77138e-20)
(19.6103 0.419124 -5.52298e-20)
(19.6187 0.406349 1.08531e-19)
(19.6269 0.394284 -5.34538e-20)
(19.635 0.382861 0)
(19.6429 0.372024 5.07961e-20)
(19.6507 0.361722 -5.07899e-20)
(19.6583 0.35191 4.95065e-20)
(19.6659 0.342551 -6.69741e-22)
(19.6732 0.333608 -4.9358e-20)
(19.6805 0.325049 0)
(19.6876 0.316846 4.82787e-20)
(19.6945 0.308972 -4.87966e-20)
(19.7014 0.301403 0)
(19.7081 0.294118 0)
(19.7146 0.287096 2.40181e-20)
(19.721 0.280321 -2.97251e-22)
(19.7273 0.273775 -2.9334e-22)
(19.7335 0.267447 -2.40846e-20)
(19.7394 0.261244 0)
(19.7454 0.256059 0)
(19.8899 1.04714 -3.72936e-21)
(19.8213 1.02855 3.73465e-21)
(19.7623 0.999017 0)
(19.7136 0.962684 -2.01795e-20)
(19.6748 0.922732 1.96205e-20)
(19.6447 0.881414 0)
(19.6222 0.840273 4.23421e-20)
(19.6059 0.80033 -4.08222e-20)
(19.5947 0.762214 0)
(19.5877 0.726267 0)
(19.584 0.692635 -3.87593e-20)
(19.5829 0.661331 3.73507e-20)
(19.5837 0.632286 0)
(19.5861 0.605377 0)
(19.5896 0.580459 0)
(19.594 0.557375 0)
(19.5991 0.535969 0)
(19.6046 0.516089 0)
(19.6104 0.497596 -5.88363e-20)
(19.6165 0.48036 5.75407e-20)
(19.6227 0.464264 0)
(19.629 0.449199 0)
(19.6354 0.435067 0)
(19.6417 0.42178 0)
(19.6481 0.409259 0)
(19.6545 0.397435 0)
(19.6608 0.386246 0)
(19.667 0.37564 0)
(19.6732 0.365567 -4.78246e-20)
(19.6793 0.355985 4.79177e-20)
(19.6854 0.346851 0)
(19.6914 0.338128 -4.69184e-20)
(19.6973 0.329783 4.72873e-20)
(19.7031 0.321787 0)
(19.7089 0.314115 0)
(19.7146 0.306741 2.34061e-20)
(19.7202 0.299643 -2.36874e-20)
(19.7257 0.292804 0)
(19.7311 0.286206 0)
(19.7364 0.279835 1.17466e-20)
(19.7416 0.273676 -1.18377e-20)
(19.7467 0.267664 0)
(19.7518 0.262499 0)
(19.914 0.928506 3.46556e-21)
(19.867 0.916037 -3.45919e-21)
(19.8238 0.89641 0)
(19.7855 0.871455 0)
(19.7526 0.84295 1.88007e-20)
(19.7252 0.812411 -1.8265e-20)
(19.7029 0.781037 0)
(19.6851 0.749724 0)
(19.6713 0.719106 -3.79218e-20)
(19.6609 0.689607 3.66262e-20)
(19.6534 0.661481 0)
(19.6482 0.634867 0)
(19.645 0.60981 0)
(19.6435 0.5863 0)
(19.6432 0.564285 -3.20847e-20)
(19.644 0.543692 6.22036e-20)
(19.6456 0.524432 -9.0348e-20)
(19.6479 0.506414 1.16893e-19)
(19.6508 0.489544 -5.691e-20)
(19.6541 0.473732 0)
(19.6577 0.458891 0)
(19.6617 0.444937 0)
(19.6659 0.431791 0)
(19.6703 0.41938 4.99192e-20)
(19.6748 0.407642 -4.9406e-20)
(19.6794 0.396523 0)
(19.684 0.385975 0)
(19.6887 0.375953 0)
(19.6935 0.366416 4.64835e-20)
(19.6983 0.357326 -4.10026e-22)
(19.7031 0.348645 -4.62938e-20)
(19.7078 0.340339 2.2863e-20)
(19.7126 0.332382 -2.30296e-20)
(19.7174 0.324749 0)
(19.7221 0.317417 0)
(19.7267 0.310365 0)
(19.7314 0.303572 0)
(19.736 0.297022 0)
(19.7405 0.290705 0)
(19.7449 0.284608 0)
(19.7493 0.278722 0)
(19.7536 0.273013 0)
(19.758 0.267856 0)
(19.9264 0.846176 5.13806e-36)
(19.888 0.836934 7.22196e-21)
(19.8519 0.822537 -7.10197e-21)
(19.8191 0.803955 0)
(19.7901 0.782265 0)
(19.7652 0.758496 0)
(19.7441 0.73355 -1.74412e-20)
(19.7267 0.708155 1.69104e-20)
(19.7126 0.682872 0)
(19.7014 0.658114 0)
(19.6927 0.634157 0)
(19.6863 0.611181 -3.27136e-20)
(19.6816 0.589291 -2.20727e-22)
(19.6785 0.568532 3.09292e-20)
(19.6767 0.54891 -3.02184e-20)
(19.676 0.530398 5.87484e-20)
(19.6761 0.512955 -2.85968e-20)
(19.677 0.496528 0)
(19.6785 0.48106 0)
(19.6804 0.466489 2.63867e-20)
(19.6828 0.452749 -2.58739e-20)
(19.6856 0.439773 0)
(19.6886 0.427498 0)
(19.6919 0.415871 0)
(19.6953 0.404845 -2.3791e-20)
(19.6988 0.394382 4.70249e-20)
(19.7025 0.384442 -2.32901e-20)
(19.7062 0.374987 2.2886e-20)
(19.71 0.365981 -1.59626e-22)
(19.7139 0.357384 -1.61146e-22)
(19.7178 0.349162 -2.25955e-20)
(19.7217 0.341287 2.23727e-20)
(19.7256 0.333738 -2.25176e-20)
(19.7295 0.326496 0)
(19.7335 0.319537 0)
(19.7374 0.312839 2.24843e-20)
(19.7413 0.306384 -4.53085e-20)
(19.7451 0.300161 2.2831e-20)
(19.7489 0.29416 -1.13716e-20)
(19.7526 0.288376 2.28892e-20)
(19.7563 0.282805 -5.7914e-21)
(19.7599 0.277453 -8.58618e-21)
(19.7636 0.27244 2.86319e-21)
(19.9352 0.789108 0)
(19.9026 0.781503 0)
(19.8716 0.769834 0)
(19.843 0.754745 0)
(19.8172 0.736965 1.58681e-20)
(19.7945 0.717248 -1.54708e-20)
(19.7749 0.696313 0)
(19.7583 0.674739 1.64308e-20)
(19.7444 0.653019 -1.59446e-20)
(19.733 0.631531 1.61721e-20)
(19.7238 0.610527 -1.56795e-20)
(19.7166 0.590202 -3.12458e-20)
(19.7111 0.570683 3.03103e-20)
(19.707 0.552039 0)
(19.7041 0.534307 0)
(19.7023 0.517482 2.84042e-20)
(19.7013 0.501545 -2.76684e-20)
(19.701 0.486471 0)
(19.7014 0.472219 0)
(19.7024 0.458745 2.5714e-20)
(19.7038 0.445988 -2.52165e-20)
(19.7056 0.433896 0)
(19.7078 0.422421 0)
(19.7101 0.411526 -2.36973e-20)
(19.7126 0.401185 2.34322e-20)
(19.7153 0.391365 0)
(19.7181 0.382027 0)
(19.721 0.373137 0)
(19.7241 0.364657 0)
(19.7273 0.356548 0)
(19.7305 0.348781 0)
(19.7337 0.34134 0)
(19.7369 0.334209 2.19728e-20)
(19.7402 0.327367 -2.21331e-20)
(19.7435 0.320789 -2.20463e-20)
(19.7468 0.314451 1.41203e-22)
(19.75 0.308342 2.23623e-20)
(19.7532 0.302456 0)
(19.7564 0.296781 0)
(19.7596 0.291309 0)
(19.7627 0.286032 0)
(19.7657 0.280953 0)
(19.7689 0.275886 0)
(19.9416 0.746407 -1.51237e-21)
(19.9127 0.739787 1.50438e-21)
(19.885 0.729768 0)
(19.8592 0.716888 0)
(19.8358 0.70165 0)
(19.8148 0.684638 -1.53208e-20)
(19.7964 0.666456 -5.73272e-22)
(19.7805 0.647536 1.50964e-20)
(19.767 0.628366 0)
(19.7557 0.609273 0)
(19.7464 0.590451 1.52129e-20)
(19.7389 0.572135 -1.47781e-20)
(19.7329 0.554443 0)
(19.7282 0.53746 0)
(19.7247 0.521242 2.81542e-20)
(19.7223 0.505791 9.75226e-23)
(19.7206 0.491105 -5.37193e-20)
(19.7197 0.477161 -1.55181e-23)
(19.7194 0.46393 2.56816e-20)
(19.7198 0.451375 0)
(19.7206 0.439427 -2.45858e-20)
(19.7218 0.428077 2.41611e-20)
(19.7232 0.417285 0)
(19.7249 0.407038 0)
(19.7268 0.397326 0)
(19.7289 0.388094 0)
(19.7311 0.379302 0)
(19.7335 0.370924 0)
(19.736 0.362913 0)
(19.7386 0.355237 2.17992e-20)
(19.7413 0.34789 -2.18205e-20)
(19.744 0.34086 -2.16582e-20)
(19.7467 0.334131 2.17632e-20)
(19.7495 0.32767 -2.16693e-20)
(19.7522 0.32145 2.18435e-20)
(19.755 0.315445 1.09045e-20)
(19.7578 0.309677 -6.06037e-23)
(19.7605 0.304126 -6.16458e-23)
(19.7632 0.298777 -6.2366e-23)
(19.7659 0.293619 -1.67332e-20)
(19.7685 0.288649 5.6042e-21)
(19.7711 0.283881 0)
(19.7738 0.279038 0)
(19.9467 0.71326 1.44779e-21)
(19.9204 0.70729 -1.44026e-21)
(19.8951 0.698317 0)
(19.8712 0.687041 0)
(19.8498 0.67363 0)
(19.8301 0.658505 0)
(19.8127 0.642244 7.36802e-21)
(19.7975 0.625172 -7.18733e-21)
(19.7843 0.607914 -1.48141e-20)
(19.7733 0.590621 1.44257e-20)
(19.7641 0.573422 -1.45868e-20)
(19.7563 0.556663 1.41974e-20)
(19.7501 0.540365 -1.41663e-20)
(19.745 0.524722 -1.17223e-22)
(19.7412 0.509721 1.35594e-20)
(19.7383 0.495432 0)
(19.7361 0.481788 0)
(19.7348 0.468768 -1.28009e-20)
(19.7341 0.456358 1.25278e-20)
(19.7341 0.444532 0)
(19.7344 0.433188 -2.41003e-20)
(19.7351 0.42251 2.36965e-20)
(19.7361 0.412295 0)
(19.7372 0.402679 0)
(19.7386 0.393552 2.25361e-20)
(19.7403 0.384829 -4.45623e-20)
(19.7421 0.376504 2.20725e-20)
(19.7441 0.368568 0)
(19.7462 0.360943 -2.16179e-20)
(19.7484 0.353651 2.15837e-20)
(19.7506 0.34671 0)
(19.7529 0.340078 1.06787e-20)
(19.7552 0.333717 -2.13971e-20)
(19.7575 0.327589 1.07365e-20)
(19.7599 0.321682 0)
(19.7623 0.315974 1.07626e-20)
(19.7646 0.310571 -1.08677e-20)
(19.7669 0.305336 -1.08733e-20)
(19.7692 0.300302 5.52002e-21)
(19.7715 0.295441 5.52109e-21)
(19.7737 0.290786 0)
(19.776 0.286333 -2.76494e-21)
(19.7782 0.28175 2.75388e-21)
(19.9514 0.686821 0)
(19.9272 0.681227 1.5143e-21)
(19.9038 0.672705 -1.51518e-21)
(19.881 0.66286 0)
(19.8608 0.650931 0)
(19.8413 0.637182 6.89853e-21)
(19.825 0.622365 -1.38623e-20)
(19.8105 0.606544 6.95776e-21)
(19.7975 0.590892 0)
(19.787 0.57494 0)
(19.7778 0.559013 0)
(19.77 0.543492 0)
(19.7637 0.528114 0)
(19.7581 0.513774 0)
(19.7542 0.499847 -1.32916e-20)
(19.751 0.486669 1.32319e-20)
(19.7487 0.473784 0)
(19.7472 0.46138 -1.26841e-20)
(19.7464 0.44951 2.44682e-20)
(19.746 0.438242 -1.16561e-20)
(19.7461 0.427394 0)
(19.7463 0.417578 0)
(19.7469 0.40776 0)
(19.7476 0.398927 0)
(19.7488 0.390172 0)
(19.7501 0.381814 0)
(19.7516 0.373839 1.10088e-20)
(19.7533 0.366259 -1.08506e-20)
(19.7551 0.358901 0)
(19.7569 0.352038 0)
(19.7587 0.345524 -1.08792e-20)
(19.7606 0.339215 1.08652e-20)
(19.7626 0.333112 0)
(19.7647 0.327202 0)
(19.7667 0.321585 -1.02861e-20)
(19.7687 0.316194 1.0602e-20)
(19.7707 0.311253 0)
(19.7726 0.30619 0)
(19.7746 0.301466 0)
(19.7765 0.296832 0)
(19.7784 0.292503 0)
(19.7803 0.288275 -1.41784e-21)
(19.7823 0.28372 1.38579e-21)
(20.0955 0.0295478 0)
(20.0895 0.0283735 6.7119e-21)
(20.0827 0.0271617 -2.01476e-20)
(20.0748 0.0259219 1.34426e-20)
(20.0656 0.024658 2.6802e-20)
(20.055 0.0233665 -2.68566e-20)
(20.0427 0.0220444 0)
(20.0285 0.0206876 2.7062e-20)
(20.0119 0.0192906 9.6633e-23)
(19.9928 0.017846 -2.74918e-20)
(19.9706 0.0163431 0)
(19.9449 0.014768 0)
(19.9151 0.0131028 0)
(19.8807 0.0113261 3.03937e-20)
(19.841 0.00941503 -3.089e-20)
(19.7955 0.00734828 0)
(19.7433 0.00511235 0)
(19.684 0.00270264 0)
(19.6169 0.000120041 0)
(19.5417 -0.00263222 0)
(19.4578 -0.00555061 0)
(19.3647 -0.00862815 -4.37367e-20)
(19.2619 -0.0118541 4.50227e-20)
(19.149 -0.0152141 -4.88189e-20)
(19.0254 -0.0186906 1.02178e-19)
(18.8905 -0.0222634 -5.36227e-20)
(18.7437 -0.02591 -5.78819e-20)
(18.5842 -0.0296094 6.05204e-20)
(18.4112 -0.0333415 0)
(18.2236 -0.037092 0)
(18.0201 -0.0408531 0)
(17.799 -0.0446258 0)
(17.5581 -0.0484235 8.17037e-20)
(17.2944 -0.0522758 -8.82164e-20)
(17.004 -0.0562325 9.18541e-20)
(16.6811 -0.0603683 -5.22247e-20)
(16.3174 -0.0647902 -5.43184e-20)
(15.9004 -0.0696306 5.55944e-20)
(15.4096 -0.0752578 -4.22534e-21)
(14.8088 -0.0819605 -7.10497e-20)
(14.0247 -0.0930917 0)
(12.8831 -0.0685862 2.20464e-20)
(11.1748 -0.134038 -3.13953e-20)
(20.0945 0.028912 0)
(20.0891 0.0277912 0)
(20.0829 0.0266308 0)
(20.0759 0.0254392 1.40246e-20)
(20.068 0.0242175 -2.79679e-20)
(20.0588 0.0229625 2.7807e-20)
(20.0484 0.0216704 1.36756e-20)
(20.0364 0.0203373 -2.22478e-22)
(20.0228 0.0189586 -2.75145e-20)
(20.0071 0.0175291 0)
(19.9891 0.016042 0)
(19.9685 0.0144893 -2.69618e-20)
(19.9448 0.0128607 3.88088e-22)
(19.9176 0.0111435 4.30126e-22)
(19.8863 0.00932244 4.72856e-22)
(19.8504 0.00738154 5.40155e-20)
(19.8093 0.00530653 -5.54678e-22)
(19.7623 0.00308744 -2.72794e-20)
(19.7088 0.000719202 2.66594e-20)
(19.6482 -0.0017994 -2.72879e-20)
(19.58 -0.0044683 -2.66412e-20)
(19.5036 -0.00728647 2.73614e-20)
(19.4183 -0.0102521 0)
(19.3235 -0.0133633 0)
(19.2185 -0.0166173 2.72033e-20)
(19.1026 -0.0200083 -2.82203e-20)
(18.9748 -0.0235304 2.80609e-20)
(18.8344 -0.0271788 -2.92984e-20)
(18.6801 -0.0309496 0)
(18.5108 -0.0348405 -3.05372e-20)
(18.3249 -0.0388507 3.22767e-20)
(18.1205 -0.0429843 3.33571e-20)
(17.8952 -0.0472531 -3.56312e-20)
(17.6459 -0.0516763 -1.88132e-20)
(17.3683 -0.0562839 2.0376e-20)
(17.0566 -0.0611161 0)
(16.7022 -0.0662367 2.44425e-20)
(16.2924 -0.0717029 1.22077e-22)
(15.8062 -0.0778096 -1.55243e-20)
(15.2065 -0.0840917 -1.83487e-20)
(14.4192 -0.0975803 0)
(13.2906 -0.0847761 0)
(11.762 -0.0952353 0)
(20.0935 0.0283418 0)
(20.0886 0.0272336 0)
(20.083 0.0260969 -7.35547e-21)
(20.0767 0.0249266 7.35057e-21)
(20.0696 0.0237191 0)
(20.0615 0.0224685 0)
(20.0524 0.0211693 -1.43153e-20)
(20.042 0.0198161 1.4343e-20)
(20.0302 0.0184031 0)
(20.0168 0.0169245 -2.81567e-20)
(20.0015 0.0153742 2.83592e-20)
(19.9841 0.0137461 0)
(19.9642 0.0120338 0)
(19.9415 0.0102301 0)
(19.9155 0.00832711 0)
(19.8857 0.00631648 0)
(19.8516 0.00418918 0)
(19.8126 0.00193724 0)
(19.768 -0.000444409 0)
(19.7173 -0.00295826 0)
(19.6598 -0.00560416 0)
(19.5948 -0.00838082 0)
(19.5217 -0.0112869 0)
(19.4398 -0.0143212 0)
(19.3482 -0.0174821 0)
(19.2462 -0.0207676 0)
(19.1327 -0.0241753 0)
(19.0067 -0.0277013 0)
(18.867 -0.0313413 2.96852e-20)
(18.7121 -0.0350912 -3.11708e-20)
(18.5404 -0.0389473 0)
(18.3497 -0.0429039 -1.61019e-20)
(18.1377 -0.0469564 3.8158e-22)
(17.9008 -0.0511057 1.79403e-20)
(17.6349 -0.0553591 0)
(17.3338 -0.059734 0)
(16.989 -0.0642846 0)
(16.5873 -0.0690712 0)
(16.1077 -0.0745465 0)
(15.512 -0.0798722 0)
(14.7266 -0.091305 0)
(13.6131 -0.0872372 0)
(12.1959 -0.0678804 0)
(20.0925 0.0278261 0)
(20.088 0.0267878 0)
(20.0828 0.0257073 -7.6804e-21)
(20.0771 0.0245902 1.53046e-20)
(20.0706 0.0234368 -7.62445e-21)
(20.0633 0.0222416 0)
(20.0551 0.0209986 0)
(20.0459 0.0197022 -1.49808e-20)
(20.0354 0.0183464 2.99767e-20)
(20.0235 0.0169245 -1.50242e-20)
(20.0101 0.01543 1.49697e-20)
(19.9949 0.0138565 -1.51036e-20)
(19.9776 0.0121973 -3.01967e-20)
(19.9579 0.0104449 6.10126e-20)
(19.9354 0.00859085 -2.02913e-22)
(19.9098 0.00662661 -3.12313e-20)
(19.8804 0.00454339 0)
(19.8469 0.00233216 3.18189e-20)
(19.8087 -1.44387e-05 -6.48564e-20)
(19.765 -0.00250041 3.30947e-20)
(19.7152 -0.00512631 0)
(19.6586 -0.00789103 -3.38552e-20)
(19.5946 -0.0107934 3.48567e-20)
(19.5223 -0.0138329 0)
(19.4409 -0.0170079 0)
(19.3494 -0.0203159 0)
(19.2469 -0.0237547 0)
(19.1321 -0.0273234 0)
(19.0037 -0.0310213 1.97273e-20)
(18.8602 -0.0348451 -2.0672e-20)
(18.6997 -0.0387875 2.10355e-20)
(18.5201 -0.0428379 -2.22126e-20)
(18.3187 -0.0469826 0)
(18.092 -0.0512068 0)
(17.8355 -0.0555016 0)
(17.543 -0.0598697 0)
(17.2059 -0.0643589 -1.42835e-20)
(16.8109 -0.0690183 1.5722e-20)
(16.3363 -0.0743864 0)
(15.7435 -0.0797497 9.40744e-21)
(14.9589 -0.0890534 -1.09559e-20)
(13.8555 -0.0887795 0)
(12.5066 -0.0548672 0)
(20.0916 0.0274415 0)
(20.0874 0.0264484 0)
(20.0827 0.0254235 0)
(20.0774 0.024368 0)
(20.0715 0.0232789 0)
(20.0649 0.0221504 0)
(20.0575 0.0209761 0)
(20.0493 0.0197504 1.56095e-20)
(20.0399 0.0184679 -6.11809e-23)
(20.0295 0.0171211 -1.56596e-20)
(20.0176 0.0157026 0)
(20.0043 0.0142069 0)
(19.9891 0.0126287 0)
(19.9719 0.0109602 0)
(19.9524 0.00919181 0)
(19.9301 0.00731377 1.62859e-20)
(19.9048 0.00531545 -1.66105e-20)
(19.8757 0.00318442 0)
(19.8425 0.000909535 0)
(19.8045 -0.00151569 0)
(19.7611 -0.00409167 0)
(19.7115 -0.00681521 0)
(19.6549 -0.00968485 0)
(19.5906 -0.0127024 0)
(19.5177 -0.0158694 -1.92462e-20)
(19.4351 -0.0191801 1.99229e-20)
(19.3418 -0.0226237 0)
(19.2366 -0.0261965 -2.0817e-20)
(19.1178 -0.0299115 2.37815e-22)
(18.984 -0.0337874 2.24477e-20)
(18.8331 -0.0378232 0)
(18.6629 -0.0419958 0)
(18.4706 -0.0462779 0)
(18.2526 -0.0506432 0)
(18.0043 -0.0550824 -1.3827e-20)
(17.7192 -0.0595979 1.88314e-22)
(17.3884 -0.0642272 2.04602e-22)
(16.9986 -0.0689776 1.71428e-20)
(16.5279 -0.0743587 0)
(15.9369 -0.0799676 0)
(15.1519 -0.087701 0)
(14.0544 -0.0881311 0)
(12.7502 -0.0466983 0)
(20.0908 0.0271115 0)
(20.0869 0.0261715 0)
(20.0825 0.0252019 0)
(20.0777 0.0242063 0)
(20.0723 0.0231787 0)
(20.0663 0.0221152 0)
(20.0596 0.0210065 -1.62173e-20)
(20.0522 0.0198477 5.48929e-23)
(20.0438 0.0186365 1.62091e-20)
(20.0344 0.0173641 1.61626e-20)
(20.0239 0.0160182 -1.62658e-20)
(20.012 0.014594 0)
(19.9986 0.013091 0)
(19.9834 0.0115041 0)
(19.9662 0.0098224 0)
(19.9466 0.00803518 0)
(19.9243 0.0061328 0)
(19.8987 0.00409901 0)
(19.8695 0.00191294 -1.77521e-20)
(19.836 -0.000440999 1.82063e-20)
(19.7976 -0.00296599 0)
(19.7536 -0.00565154 0)
(19.7031 -0.00848652 0)
(19.6454 -0.0114766 0)
(19.5795 -0.014633 0)
(19.5044 -0.0179634 0)
(19.4188 -0.0214476 0)
(19.3216 -0.0250291 0)
(19.2112 -0.0286905 0)
(19.0857 -0.0325079 0)
(18.9432 -0.03657 -2.39922e-20)
(18.7814 -0.0408824 2.51911e-20)
(18.5971 -0.0453752 1.29805e-20)
(18.3868 -0.0499625 -1.37374e-20)
(18.1457 -0.054545 1.42528e-20)
(17.8674 -0.0590994 -1.5245e-20)
(17.5428 -0.0637652 0)
(17.1582 -0.0687018 1.71973e-20)
(16.6915 -0.0742466 -1.88864e-20)
(16.1036 -0.0801309 0)
(15.3207 -0.0867938 0)
(14.2307 -0.0871095 0)
(12.9574 -0.0435158 0)
(20.09 0.0268088 -2.16568e-21)
(20.0864 0.0259369 2.16064e-21)
(20.0823 0.0250286 0)
(20.0779 0.0240947 8.51318e-21)
(20.073 0.0231286 -8.48269e-21)
(20.0675 0.0221336 8.41583e-21)
(20.0614 0.0210941 -8.40414e-21)
(20.0546 0.0200014 0)
(20.047 0.0188626 0)
(20.0385 0.0176721 0)
(20.029 0.0164065 0)
(20.0183 0.0150568 0)
(20.0063 0.0136302 0)
(19.9927 0.0121261 0)
(19.9772 0.0105315 0)
(19.9597 0.00883658 0)
(19.9398 0.00703889 0)
(19.917 0.0051184 -1.82082e-20)
(19.8908 0.00304249 1.86403e-20)
(19.8608 0.000781459 0)
(19.8264 -0.00168685 0)
(19.7868 -0.00434239 0)
(19.7414 -0.00714565 0)
(19.689 -0.0101012 0)
(19.6289 -0.0132543 0)
(19.5599 -0.0166009 2.18338e-20)
(19.481 -0.0201441 -2.02247e-22)
(19.391 -0.0238161 -2.32308e-20)
(19.2879 -0.0274937 0)
(19.1695 -0.0312633 0)
(19.034 -0.0352633 0)
(18.8792 -0.0395751 1.31534e-20)
(18.7022 -0.0442353 -1.3819e-20)
(18.4992 -0.0491112 0)
(18.2651 -0.0541669 0)
(17.9928 -0.0592292 -1.56137e-20)
(17.673 -0.0641653 1.67338e-20)
(17.2919 -0.0693481 0)
(16.8285 -0.0759317 0)
(16.2416 -0.0837108 0)
(15.4586 -0.0909979 0)
(14.3692 -0.0881812 0)
(13.1215 -0.0340477 0)
(20.0893 0.0265636 0)
(20.0859 0.0257476 0)
(20.0822 0.0248981 -4.41922e-21)
(20.0781 0.0240216 4.39845e-21)
(20.0735 0.0231057 -8.7203e-21)
(20.0685 0.0221786 8.69165e-21)
(20.0628 0.0212065 8.63696e-21)
(20.0566 0.020171 -8.63485e-21)
(20.0497 0.0191041 0)
(20.0419 0.0180065 0)
(20.0332 0.0168196 0)
(20.0234 0.0155216 0)
(20.0123 0.014151 0)