/*--------------------------------*- C++ -*----------------------------------*\
| =========                 |                                                 |
| \\      /  F ield         | OpenFOAM: The Open Source CFD Toolbox           |
|  \\    /   O peration     | Version:  2.3.0                                 |
|   \\  /    A nd           | Web:      www.OpenFOAM.org                      |
|    \\/     M anipulation  |                                                 |
\*---------------------------------------------------------------------------*/
FoamFile
{
    version     2.0;
    format      ascii;
    class       volScalarField;
    location    "3000";
    object      nut;
}
// * * * * * * * * * * * * * * * * * * * * * * * * * * * * * * * * * * * * * //

dimensions      [0 2 -1 0 0 0 0];

internalField   nonuniform List<scalar> 
38296
(
0.0723054
0.0706503
0.0689949
0.0673339
0.0656684
0.0639991
0.0623269
0.0606531
0.0589788
0.0573047
0.0556318
0.0539605
0.0522916
0.0506254
0.0489628
0.0473042
0.0456503
0.0440014
0.0423583
0.0407209
0.03909
0.037466
0.0358492
0.0342405
0.03264
0.0310478
0.0294649
0.0278915
0.026329
0.0247777
0.0232389
0.0217137
0.0202048
0.0187153
0.0172488
0.0158108
0.0144091
0.0130555
0.011764
0.0105471
0.00940083
0.00823718
0.00642611
0.0732513
0.0717807
0.0703063
0.068826
0.0673411
0.0658518
0.0643592
0.0628638
0.0613664
0.0598677
0.0583677
0.0568673
0.0553662
0.0538647
0.052363
0.0508616
0.0493606
0.0478605
0.0463615
0.0448637
0.0433679
0.0418746
0.0403838
0.0388968
0.0374138
0.0359357
0.0344638
0.0329996
0.0315447
0.0301008
0.0286709
0.027259
0.0258701
0.0245097
0.0231844
0.0219043
0.0206813
0.0195304
0.0184677
0.017512
0.0166827
0.0159977
0.0154687
0.0741453
0.0728298
0.071511
0.0701865
0.0688567
0.0675224
0.0661839
0.0648416
0.063496
0.0621471
0.0607954
0.0594412
0.0580842
0.0567243
0.0553618
0.0539966
0.0526289
0.0512588
0.0498864
0.0485122
0.0471367
0.0457606
0.044384
0.0430083
0.0416342
0.0402627
0.0388959
0.0375355
0.0361832
0.034842
0.0335164
0.03221
0.0309287
0.0296789
0.0284674
0.0273047
0.0262019
0.0251707
0.0242243
0.0233768
0.02264
0.0220262
0.0215416
0.0749799
0.0737993
0.0726154
0.0714253
0.0702298
0.0690287
0.0678223
0.0666109
0.0653944
0.0641732
0.0629477
0.0617176
0.0604831
0.0592438
0.0579996
0.0567501
0.0554957
0.0542361
0.0529716
0.0517025
0.0504295
0.0491527
0.0478731
0.0465918
0.0453099
0.0440288
0.0427501
0.0414762
0.0402094
0.0389528
0.037711
0.0364877
0.0352888
0.0341207
0.0329913
0.0319092
0.0308843
0.029927
0.0290493
0.0282613
0.0275738
0.0269934
0.0265269
0.0757536
0.0746911
0.0736247
0.0725515
0.0714716
0.0703851
0.0692921
0.0681924
0.0670863
0.0659738
0.0648552
0.0637305
0.0625996
0.0614625
0.0603186
0.0591673
0.0580087
0.0568423
0.0556689
0.0544885
0.0533015
0.0521087
0.0509106
0.0497085
0.0485038
0.0472978
0.0460924
0.04489
0.0436931
0.0425053
0.0413303
0.0401726
0.0390376
0.0379317
0.0368629
0.0358384
0.0348678
0.033961
0.0331277
0.0323779
0.0317193
0.0311592
0.0307031
0.0764646
0.0755079
0.0745449
0.0735732
0.0725933
0.0716055
0.0706096
0.069606
0.0685943
0.0675745
0.0665463
0.0655105
0.0644672
0.0634165
0.0623576
0.0612901
0.0602126
0.0591252
0.0580285
0.0569228
0.0558085
0.0546862
0.0535564
0.0524203
0.0512793
0.0501356
0.0489911
0.0478479
0.0467085
0.0455767
0.0444557
0.0433503
0.0422655
0.0412081
0.0401846
0.0392033
0.038273
0.0374025
0.0366009
0.035877
0.0352383
0.0346919
0.0342433
0.0771192
0.0762561
0.075383
0.0744991
0.0736054
0.0727028
0.0717907
0.0708697
0.0699392
0.0689983
0.0680469
0.0670855
0.0661162
0.0651385
0.0641521
0.063156
0.0621485
0.0611285
0.0600963
0.0590534
0.0580006
0.0569384
0.0558664
0.0547853
0.0536975
0.0526054
0.0515111
0.0504169
0.0493252
0.0482394
0.0471633
0.0461006
0.0450568
0.0440375
0.0430495
0.0421019
0.0412016
0.0403584
0.0395813
0.0388774
0.0382531
0.0377164
0.037273
0.0777282
0.0769427
0.0761462
0.0753376
0.0745176
0.0736894
0.072849
0.0719991
0.0711384
0.0702665
0.0693809
0.0684817
0.0675735
0.0666574
0.0657324
0.0647977
0.0638518
0.0628909
0.0619129
0.0609214
0.0599202
0.05891
0.0578881
0.0568541
0.0558102
0.0547605
0.0537083
0.0526554
0.0516027
0.0505556
0.0495174
0.048491
0.0474804
0.046492
0.0455329
0.0446118
0.0437339
0.0429122
0.0421555
0.0414697
0.0408546
0.040325
0.039885
0.0783048
0.0775784
0.076844
0.0760999
0.0753362
0.0745761
0.0737963
0.073008
0.0722053
0.0713932
0.070568
0.0697192
0.0688588
0.0679916
0.0671157
0.0662308
0.0653373
0.0644316
0.0635008
0.0625505
0.0615888
0.0606229
0.0596453
0.0586534
0.0576451
0.0566288
0.0556102
0.0545957
0.0535763
0.0525613
0.0515545
0.0505616
0.0495781
0.0486178
0.0476807
0.0467854
0.045924
0.0451178
0.0443812
0.0437188
0.0431053
0.0425857
0.0421479
0.00560993
0.00633799
0.0072149
0.00805222
0.00885138
0.0096295
0.0103969
0.0111622
0.0119298
0.0127035
0.0134863
0.0142796
0.0150831
0.015895
0.016713
0.0175376
0.0183812
0.0192689
0.0202096
0.0212006
0.0222339
0.0233045
0.0244096
0.0255478
0.0267198
0.027922
0.0291526
0.0304089
0.0316897
0.0329935
0.0343199
0.0356677
0.0370364
0.0384252
0.0398335
0.0412606
0.0427059
0.044169
0.0456491
0.0471454
0.0486576
0.0501855
0.0517287
0.0151039
0.0149014
0.0148528
0.0149454
0.0151656
0.0154977
0.0159278
0.0164415
0.0170269
0.0176736
0.0183732
0.0191168
0.0198996
0.020715
0.0215597
0.0224317
0.0233313
0.0242565
0.0252088
0.0261851
0.0271843
0.0282053
0.0292464
0.0303083
0.0313889
0.0324891
0.033607
0.0347421
0.0358942
0.0370624
0.0382473
0.0394474
0.0406631
0.041894
0.0431397
0.0443999
0.0456746
0.0469631
0.0482651
0.0495801
0.0509083
0.0522501
0.0536077
0.0211849
0.0209508
0.0208397
0.0208501
0.0209746
0.0212052
0.021531
0.0219413
0.0224267
0.0229774
0.0235852
0.0242429
0.0249433
0.0256823
0.0264549
0.0272574
0.0280868
0.028942
0.0298202
0.030719
0.0316378
0.0325743
0.0335281
0.0344978
0.0354826
0.0364819
0.0374945
0.0385209
0.0395596
0.040611
0.0416743
0.0427494
0.0438362
0.0449346
0.0460441
0.0471648
0.0482966
0.0494389
0.0505916
0.0517543
0.0529271
0.0541102
0.0553036
0.026173
0.025929
0.0257964
0.0257724
0.0258538
0.0260324
0.0263018
0.0266521
0.027075
0.0275619
0.0281065
0.0287
0.0293381
0.0300138
0.0307231
0.031463
0.0322296
0.0330199
0.0338312
0.0346618
0.0355097
0.0363729
0.0372504
0.0381407
0.039043
0.0399567
0.0408809
0.0418149
0.0427586
0.0437112
0.0446732
0.0456435
0.0466224
0.0476095
0.0486049
0.0496086
0.0506201
0.0516391
0.0526655
0.0536989
0.0547395
0.0557877
0.0568445
0.0303513
0.0301029
0.0299575
0.0299139
0.0299687
0.0301159
0.0303486
0.0306591
0.0310393
0.031482
0.0319803
0.0325273
0.0331171
0.0337445
0.0344056
0.0350955
0.0358109
0.0365482
0.0373049
0.038079
0.0388678
0.0396697
0.0404834
0.0413075
0.0421412
0.0429832
0.043833
0.0446901
0.0455545
0.0464252
0.0473021
0.0481849
0.0490732
0.0499673
0.0508671
0.0517722
0.0526822
0.0535969
0.0545158
0.0554389
0.0563663
0.0572988
0.0582369
0.0338937
0.0336421
0.0334894
0.0334337
0.0334709
0.0335968
0.0338042
0.0340865
0.034436
0.0348458
0.0353097
0.0358208
0.0363747
0.0369652
0.0375884
0.0382387
0.0389123
0.0396064
0.0403185
0.0410456
0.0417858
0.0425369
0.0432973
0.0440659
0.0448418
0.0456238
0.0464121
0.0472056
0.0480037
0.0488055
0.049611
0.0504202
0.0512331
0.0520492
0.0528683
0.0536903
0.0545145
0.0553403
0.0561674
0.0569961
0.0578268
0.0586597
0.0594966
0.0369249
0.036672
0.0365152
0.0364506
0.0364754
0.0365858
0.0367759
0.0370366
0.0373624
0.0377474
0.0381846
0.0386688
0.0391948
0.0397578
0.0403506
0.0409679
0.0416068
0.0422658
0.0429413
0.0436298
0.0443286
0.0450366
0.0457523
0.0464745
0.0472016
0.0479343
0.0486713
0.0494116
0.0501539
0.0508976
0.0516427
0.0523908
0.0531405
0.0538908
0.0546419
0.0553934
0.0561448
0.0568946
0.0576423
0.0583904
0.059138
0.0598853
0.0606336
0.0395392
0.0392863
0.0391281
0.0390559
0.0390709
0.0391691
0.0393492
0.0395896
0.0398974
0.0402627
0.0406796
0.0411421
0.0416485
0.0421923
0.0427574
0.0433455
0.0439547
0.0445877
0.0452323
0.045886
0.04655
0.0472218
0.0479005
0.0485832
0.0492692
0.0499614
0.0506558
0.0513513
0.0520461
0.0527394
0.053434
0.0541327
0.0548288
0.0555223
0.0562167
0.0569079
0.0575973
0.058281
0.0589589
0.0596398
0.0603159
0.0609885
0.0616604
0.0418076
0.0415535
0.0414024
0.041317
0.0413252
0.0414131
0.041596
0.0418
0.0421039
0.0424515
0.0428516
0.0432971
0.0437957
0.0443241
0.0448524
0.0454203
0.0460044
0.0466246
0.0472305
0.0478545
0.0484914
0.0491311
0.0497802
0.0504287
0.0510801
0.051745
0.0523995
0.053058
0.0537091
0.0543592
0.0550135
0.0556771
0.056322
0.0569685
0.0576202
0.0582541
0.0588903
0.0595165
0.0601331
0.0607637
0.0613737
0.0619831
0.062592
0.0183593
0.0173354
0.0163514
0.0154083
0.0145052
0.0136408
0.012814
0.0120236
0.011269
0.0105492
0.00986374
0.00921203
0.00859311
0.00800702
0.00745339
0.00693239
0.00644531
0.00599445
0.00558388
0.00522056
0.00490732
0.004633
0.00438685
0.00416164
0.00395243
0.00375569
0.00356859
0.0033887
0.00321368
0.00304146
0.00287006
0.00269754
0.00252189
0.00234136
0.00215416
0.00195859
0.00175305
0.0015361
0.00130652
0.00106298
0.000806446
0.000573057
0.000685632
0.0183054
0.0173539
0.0164404
0.015562
0.0147176
0.013906
0.0131262
0.0123776
0.0116593
0.0109705
0.0103109
0.0096798
0.00907675
0.00850147
0.00795357
0.00743313
0.0069409
0.00647788
0.00604653
0.00565153
0.00529895
0.00498959
0.00471483
0.00446663
0.00423885
0.00402689
0.00382724
0.00363692
0.00345347
0.00327446
0.00309775
0.00292118
0.00274258
0.0025598
0.00237068
0.00217314
0.0019652
0.00174504
0.00151129
0.00126599
0.0010396
0.00107222
0.00175642
0.0182548
0.0173783
0.0165325
0.0157161
0.0149279
0.0141669
0.0134324
0.0127237
0.0120402
0.0113812
0.0107465
0.0101357
0.00954815
0.00898385
0.00844252
0.00792402
0.00742874
0.00695737
0.00651137
0.0060936
0.00570879
0.0053634
0.00505637
0.00478037
0.004529
0.00429722
0.00408095
0.00387686
0.00368189
0.0034934
0.00330898
0.0031262
0.00294264
0.00275585
0.00256342
0.00236289
0.0021517
0.00192778
0.00169104
0.00145676
0.00135126
0.00182623
0.00290001
0.0182088
0.0174018
0.0166187
0.0158593
0.0151226
0.0144081
0.0137153
0.0130435
0.0123922
0.011761
0.0111496
0.0105576
0.00998515
0.00943183
0.00889739
0.0083819
0.00788574
0.00740916
0.00695313
0.00651953
0.00611166
0.00573523
0.00539642
0.00509145
0.00481404
0.00455945
0.00432362
0.00410295
0.00389409
0.00369394
0.00349973
0.00330891
0.00311879
0.00292668
0.00272987
0.00252537
0.00231038
0.00208294
0.00184681
0.00164813
0.00176203
0.00266146
0.00396725
0.0181696
0.0174241
0.0166978
0.0159901
0.0153005
0.0146285
0.0139736
0.0133355
0.0127136
0.012108
0.0115181
0.0109439
0.0103856
0.00984279
0.00931549
0.00880375
0.00830785
0.00782803
0.00736512
0.0069204
0.00649594
0.00609617
0.00572818
0.00539514
0.00509167
0.00481307
0.00455584
0.00431651
0.00409166
0.00387805
0.00367268
0.00347251
0.00327466
0.0030762
0.00287411
0.00266509
0.00244609
0.00221579
0.00198521
0.00185188
0.00223944
0.00346797
0.00493827
0.0181346
0.0174451
0.0167703
0.0161095
0.0154625
0.014829
0.0142086
0.0136011
0.0130064
0.0124241
0.0118541
0.0112964
0.0107513
0.0102185
0.00969819
0.00919048
0.00869569
0.00821401
0.00774613
0.007293
0.0068563
0.00643912
0.00604728
0.00568814
0.00535963
0.00505734
0.00477811
0.00451905
0.00427692
0.00404857
0.00383075
0.00362023
0.00341379
0.00320821
0.00300022
0.00278628
0.00256327
0.00233089
0.00211182
0.00207087
0.00273832
0.00421235
0.0058185
0.0181022
0.0174644
0.0168366
0.0162184
0.0156102
0.0150118
0.0144228
0.0138433
0.013273
0.0127122
0.0121605
0.0116182
0.0110852
0.0105619
0.0100483
0.0095446
0.00905119
0.00856836
0.00809664
0.00763699
0.00719073
0.00676031
0.00635003
0.00596741
0.0056158
0.00529107
0.00499036
0.00471137
0.00445142
0.00420749
0.00397636
0.00375465
0.00353898
0.00332586
0.0031116
0.00289249
0.00266534
0.00243185
0.00222986
0.00230076
0.00322726
0.00489046
0.0066158
0.0180725
0.0174821
0.0168974
0.0163184
0.0157455
0.0151794
0.0146188
0.0140642
0.0135164
0.0129754
0.0124406
0.0119123
0.0113908
0.0108766
0.0103695
0.00986968
0.00937781
0.00889438
0.00841977
0.00795449
0.00750024
0.00705897
0.00663383
0.0062312
0.00585829
0.00551275
0.00519164
0.00489304
0.00461509
0.00435546
0.00411072
0.00387717
0.00365178
0.00343098
0.00321071
0.00298669
0.00275553
0.00252171
0.00234152
0.00253454
0.00369009
0.00550711
0.00734025
0.018047
0.0174984
0.0169554
0.016412
0.0158701
0.0153368
0.0148033
0.0142692
0.0137402
0.0132182
0.0127015
0.0121863
0.0116748
0.011171
0.0106735
0.0101786
0.0096885
0.00920659
0.00873195
0.00826136
0.00779914
0.00734939
0.00691243
0.00649263
0.00610063
0.00573419
0.00539292
0.00507517
0.00477644
0.00449776
0.00424087
0.00399779
0.003759
0.00352545
0.00329455
0.00306499
0.00283115
0.00259797
0.00244649
0.00276839
0.00412081
0.00606517
0.00799824
0.00125812
0.00176205
0.00214494
0.00249964
0.00297364
0.00351749
0.00411858
0.00477341
0.00547973
0.00623724
0.00704561
0.00790592
0.00881841
0.00978349
0.0108024
0.0118764
0.0130068
0.0141961
0.0154456
0.0167579
0.0181352
0.0195799
0.0210949
0.0226826
0.0243464
0.0260887
0.0279133
0.0298229
0.0318211
0.0339112
0.0360969
0.0383812
0.040768
0.0432608
0.0458627
0.0485772
0.0514072
0.0543542
0.0574178
0.0605916
0.0638574
0.0671815
0.0705224
0.00265017
0.00339468
0.00401506
0.00455382
0.00504289
0.00552035
0.00609689
0.00675555
0.00748391
0.00827558
0.0091271
0.0100366
0.0110028
0.0120259
0.0131045
0.0142382
0.0154268
0.016671
0.0179719
0.0193302
0.0207476
0.022226
0.0237668
0.0253719
0.0270435
0.0287838
0.0305951
0.0324798
0.0344404
0.0364793
0.0385992
0.0408028
0.0430925
0.045471
0.0479409
0.0505044
0.0531634
0.0559185
0.0587681
0.0617046
0.0647104
0.0677574
0.0708113
0.00397286
0.00489908
0.00569697
0.0063926
0.00701319
0.00758643
0.00814786
0.00878094
0.00951118
0.0103224
0.0112051
0.0121532
0.0131633
0.0142331
0.0153611
0.0165442
0.0177813
0.0190713
0.0204142
0.0218102
0.0232597
0.0247635
0.0263227
0.0279386
0.0296125
0.0313457
0.0331399
0.0349968
0.036918
0.0389054
0.0409608
0.043086
0.0452831
0.0475537
0.0498995
0.0523223
0.0548227
0.0574004
0.060052
0.0627689
0.0655345
0.0683249
0.0711139
0.00518601
0.00625445
0.0071893
0.00801203
0.00874651
0.00941696
0.0100498
0.010687
0.0114232
0.0122545
0.0131676
0.0141532
0.0152049
0.0163188
0.0174921
0.0187208
0.0200015
0.0213324
0.0227123
0.0241406
0.0256172
0.0271421
0.0287157
0.0303386
0.0320115
0.0337353
0.035511
0.0373396
0.0392222
0.0411599
0.0431539
0.0452056
0.0473163
0.0494872
0.0517194
0.0540134
0.0563691
0.0587847
0.0612556
0.0637724
0.0663199
0.0688786
0.0714284
0.00628601
0.00747643
0.00852614
0.00945589
0.010288
0.0110459
0.0117539
0.0124445
0.0131876
0.0140411
0.014986
0.0160093
0.0171024
0.0182593
0.0194761
0.0207472
0.0220683
0.0234367
0.0248503
0.0263078
0.0278082
0.029351
0.0309362
0.0325639
0.0342346
0.0359484
0.0377058
0.0395072
0.0413531
0.0432441
0.0451811
0.0471649
0.0491965
0.0512766
0.0534055
0.0555826
0.0578067
0.0600743
0.0623801
0.0647146
0.0670646
0.0694148
0.0717498
0.00728167
0.00858036
0.00973051
0.0107529
0.0116701
0.0125045
0.0132803
0.0140262
0.014794
0.0156763
0.0166559
0.0177178
0.0188521
0.020051
0.0213092
0.0226203
0.0239793
0.0253824
0.0268271
0.0283111
0.0298324
0.0313903
0.0329851
0.0346167
0.0362847
0.037989
0.039729
0.0415049
0.0433165
0.0451642
0.0470485
0.0489702
0.0509303
0.0529287
0.0549646
0.0570358
0.0591395
0.0612716
0.063426
0.0655947
0.0677663
0.0699284
0.0720692
0.00818436
0.00958
0.0108198
0.0119236
0.0129152
0.0138167
0.0146529
0.015452
0.0162573
0.0171696
0.0181841
0.0192849
0.02046
0.0216994
0.0229966
0.0243447
0.0257389
0.0271748
0.0286488
0.0301564
0.0316951
0.0332656
0.0348687
0.036504
0.03817
0.0398652
0.0415889
0.0433409
0.0451206
0.0469279
0.0487637
0.0506293
0.0525254
0.0544514
0.0564043
0.0583792
0.0603718
0.0623786
0.0643938
0.0664116
0.0684221
0.070415
0.0723811
0.0090059
0.0104907
0.0118095
0.0129842
0.0140412
0.0149999
0.0158901
0.0167419
0.01759
0.0185299
0.019579
0.0207191
0.0219359
0.0232136
0.0245455
0.0259275
0.0273547
0.0288232
0.030326
0.0318532
0.0334032
0.0349838
0.0365957
0.0382362
0.0399009
0.0415871
0.0432955
0.0450254
0.0467748
0.0485435
0.0503342
0.0521493
0.0539899
0.0558536
0.0577335
0.0596194
0.0615072
0.0633973
0.0652843
0.0671661
0.0690308
0.070872
0.0726817
0.00975949
0.0113295
0.0127138
0.0139473
0.0150623
0.0160636
0.0170038
0.0179087
0.0187979
0.0197637
0.0208491
0.0220311
0.0232946
0.0246037
0.0259626
0.0273766
0.0288357
0.0303411
0.0318745
0.0334101
0.0349591
0.0365538
0.0381777
0.0398266
0.0414896
0.0431647
0.0448596
0.0465699
0.048288
0.0500177
0.0517668
0.0535371
0.0553326
0.0571462
0.0589643
0.0607635
0.0625459
0.0643288
0.0661011
0.0678613
0.06959
0.0712944
0.0729703
0.000400085
0.00170904
0.00317068
0.00470059
0.00626907
0.00785734
0.0094593
0.0110716
0.0126899
0.0143132
0.0159421
0.0175762
0.0192165
0.0208627
0.022516
0.0241775
0.0258473
0.0275252
0.0292116
0.0309066
0.032611
0.0343242
0.0360455
0.0377752
0.0395125
0.0412576
0.0430094
0.0447677
0.0465317
0.0483011
0.0500752
0.0518528
0.0536332
0.0554158
0.0571996
0.0589836
0.0607669
0.0625481
0.0643261
0.0660997
0.0678677
0.0696293
0.0713911
0.000160997
0.00101562
0.00211639
0.00336471
0.00471082
0.00612755
0.00759777
0.00910975
0.0106549
0.0122284
0.0138261
0.0154449
0.0170824
0.0187364
0.0204061
0.0220907
0.023789
0.0255004
0.027224
0.0289593
0.0307062
0.0324634
0.0342308
0.0360074
0.0377932
0.039587
0.0413882
0.0431964
0.0450104
0.0468299
0.0486538
0.0504813
0.0523112
0.0541429
0.0559752
0.0578072
0.0596377
0.0614655
0.0632894
0.0651081
0.0669204
0.068725
0.0705247
0.000178983
0.000866797
0.00178522
0.00284097
0.00400457
0.00525545
0.00657868
0.00796384
0.00940196
0.0108867
0.0124122
0.0139734
0.0155667
0.0171885
0.0188362
0.0205075
0.0222004
0.0239129
0.025643
0.02739
0.0291527
0.0309293
0.032719
0.0345211
0.0363343
0.0381577
0.0399901
0.0418309
0.0436786
0.0455326
0.047392
0.0492556
0.0511219
0.05299
0.0548593
0.0567281
0.0585953
0.0604596
0.0623198
0.0641744
0.0660224
0.0678624
0.0696946
0.000192269
0.000739066
0.00154011
0.00247282
0.00351544
0.00465046
0.0058654
0.00715035
0.00849773
0.00990091
0.0113539
0.012852
0.0143911
0.0159677
0.017578
0.0192197
0.0208899
0.0225859
0.0243056
0.0260477
0.0278102
0.029591
0.031389
0.0332028
0.0350308
0.0368713
0.0387237
0.0405864
0.042458
0.0443377
0.0462237
0.048115
0.0500103
0.0519084
0.053808
0.0557076
0.057606
0.0595017
0.0613934
0.0632797
0.0651593
0.0670309
0.0688916
0.000202106
0.000644149
0.00136399
0.00220961
0.00316329
0.00420989
0.00533824
0.00654014
0.00780873
0.00913782
0.0105227
0.0119585
0.0134418
0.0149687
0.0165356
0.0181402
0.019779
0.0214497
0.0231498
0.024877
0.0266294
0.0284047
0.0302011
0.0320172
0.0338508
0.0357002
0.0375641
0.0394408
0.041329
0.0432268
0.045133
0.047046
0.0489646
0.0508869
0.0528117
0.0547374
0.0566625
0.0585856
0.0605052
0.0624195
0.0643271
0.0662264
0.068113
0.000206527
0.000579899
0.00124045
0.00201933
0.00290253
0.00387679
0.00493298
0.00606385
0.0072632
0.00852622
0.00984833
0.0112256
0.0126545
0.0141316
0.015654
0.0172185
0.0188223
0.0204629
0.0221375
0.0238439
0.02558
0.0273431
0.0291312
0.0309428
0.0327752
0.034627
0.0364959
0.0383806
0.0402793
0.0421899
0.0441107
0.0460404
0.0479772
0.0499192
0.0518649
0.0538127
0.0557609
0.0577078
0.0596518
0.0615909
0.0635231
0.0654467
0.0673567
0.000208133
0.000533102
0.00114549
0.0018711
0.00269708
0.00361192
0.00460765
0.00567772
0.00681735
0.00802193
0.00928757
0.010611
0.0119888
0.0134185
0.0148967
0.0164209
0.0179882
0.0195961
0.0212423
0.0229244
0.0246398
0.0263862
0.0281615
0.0299635
0.03179
0.0336389
0.035508
0.0373959
0.0393001
0.0412187
0.0431499
0.0450918
0.0470426
0.0490004
0.0509634
0.0529298
0.0548977
0.0568652
0.0588306
0.0607914
0.062746
0.0646918
0.0666228
0.000208885
0.000495697
0.0010683
0.00175024
0.00252891
0.00339397
0.00433832
0.00535649
0.0064439
0.00759675
0.00881191
0.0100863
0.0114171
0.0128017
0.0142376
0.0157225
0.0172533
0.018828
0.0204443
0.0220998
0.0237921
0.0255189
0.027278
0.0290669
0.0308836
0.0327256
0.0345913
0.0364781
0.0383839
0.0403068
0.0422445
0.0441948
0.0461563
0.0481266
0.0501036
0.0520854
0.0540701
0.0560554
0.0580396
0.0600203
0.0619955
0.0639625
0.065915
0.000209203
0.000464953
0.00100425
0.0016495
0.00238813
0.00321085
0.00411109
0.00508393
0.0061254
0.00723238
0.00840214
0.00963189
0.0109194
0.0122621
0.013658
0.0151047
0.0166
0.0181418
0.0197277
0.0213557
0.0230235
0.0247288
0.026469
0.0282426
0.0300466
0.031879
0.0337379
0.0356204
0.0375247
0.0394484
0.0413893
0.0433453
0.0453144
0.0472941
0.0492821
0.0512766
0.0532753
0.0552762
0.0572771
0.0592759
0.0612707
0.0632602
0.0652431
0.000209326
0.000439203
0.000950114
0.00156404
0.00226819
0.00305408
0.00391563
0.00484858
0.00584954
0.00691569
0.0080445
0.00923354
0.0104811
0.0117851
0.0131433
0.0145539
0.0160149
0.0175244
0.0190803
0.0206804
0.022323
0.0240054
0.0257258
0.027482
0.0292713
0.0310918
0.0329412
0.0348171
0.0367171
0.0386391
0.0405805
0.0425394
0.0445132
0.0464995
0.0484962
0.050501
0.0525117
0.0545259
0.0565415
0.0585562
0.0605678
0.0625748
0.0645715
0.000209352
0.000417237
0.000903608
0.00149006
0.00216414
0.00291775
0.00374528
0.00464288
0.00560757
0.00663699
0.00772863
0.00888072
0.0100917
0.0113595
0.0126824
0.0140589
0.015487
0.0169654
0.0184918
0.0200646
0.0216816
0.0233408
0.0250403
0.0267777
0.0285509
0.0303577
0.032196
0.034063
0.0359568
0.0378747
0.0398144
0.0417737
0.0437499
0.0457409
0.047744
0.0497569
0.0517773
0.0538028
0.055831
0.0578595
0.0598863
0.0619094
0.0639259
0.000209362
0.000398319
0.000863614
0.0014254
0.00207278
0.00279773
0.00359492
0.00446093
0.00539313
0.00638921
0.00744706
0.00856538
0.00974238
0.0109765
0.0122664
0.0136108
0.0150079
0.0164562
0.0179541
0.0194999
0.0210916
0.0227274
0.0244055
0.0261236
0.0278796
0.0296717
0.0314972
0.0333539
0.0352395
0.0371516
0.0390878
0.0410453
0.0430221
0.0450155
0.0470229
0.0490421
0.0510703
0.0531051
0.0551441
0.0571848
0.0592242
0.0612592
0.0632788
0.000209424
0.000381899
0.000828488
0.00136818
0.00199182
0.00269114
0.00346117
0.00429869
0.00520124
0.0061669
0.00719396
0.00828096
0.00942659
0.0106296
0.0118888
0.0132028
0.0145704
0.0159901
0.0174603
0.0189797
0.0205466
0.0221593
0.0238158
0.0255141
0.0272525
0.0290287
0.0308405
0.0326857
0.0345618
0.0364666
0.0383972
0.0403516
0.0423272
0.0443213
0.0463315
0.0483548
0.0503892
0.0524317
0.05448
0.0565314
0.0585837
0.0606352
0.0626844
0.000209552
0.000367413
0.000797221
0.00131699
0.00191925
0.0025954
0.00334091
0.00415264
0.0050282
0.0059661
0.00696482
0.00802294
0.00913968
0.0103137
0.011544
0.0128295
0.014169
0.0155612
0.017005
0.018499
0.0200418
0.0216315
0.0232665
0.024945
0.0266651
0.0284249
0.0302224
0.0320549
0.0339205
0.0358164
0.0377406
0.0396902
0.041663
0.0436565
0.0456675
0.0476937
0.0497326
0.0517811
0.0538371
0.0558976
0.0579606
0.0600238
0.0620832
0.00020961
0.000354405
0.000769049
0.00127076
0.00185379
0.00250891
0.00323186
0.00401992
0.0048709
0.00578335
0.00675586
0.00778744
0.00887723
0.0100242
0.0112274
0.012486
0.0137988
0.0151651
0.0165834
0.0180528
0.019572
0.0211393
0.0227531
0.0244119
0.0261137
0.0278567
0.029639
0.0314584
0.0333123
0.0351988
0.0371152
0.039059
0.0410279
0.043019
0.0450294
0.0470572
0.0490992
0.0511524
0.0532142
0.0552823
0.0573535
0.0594244
0.0614863
0.000209556
0.000342607
0.000743537
0.00122869
0.00179413
0.00243011
0.00313254
0.00389902
0.00472737
0.00561623
0.00656459
0.00757139
0.00863607
0.00975751
0.0109353
0.0121684
0.0134561
0.0147975
0.0161916
0.0176375
0.0191337
0.0206789
0.0222721
0.0239112
0.0255946
0.0273208
0.0290878
0.0308932
0.0327349
0.0346109
0.0365186
0.0384557
0.0404195
0.042407
0.0444161
0.0464439
0.0484875
0.050544
0.0526107
0.0546847
0.0567633
0.0588437
0.0609221
0.00020946
0.000331861
0.00072029
0.00119059
0.00173954
0.00235794
0.00304151
0.00378798
0.00459543
0.00546253
0.00638837
0.00737222
0.0084133
0.00951105
0.0106648
0.0118739
0.0131377
0.0144554
0.0158264
0.0172495
0.0187235
0.0202475
0.0218202
0.0234399
0.0251051
0.0268144
0.0285657
0.0303569
0.032186
0.0340509
0.0359492
0.0378786
0.0398361
0.0418194
0.0438257
0.0458524
0.0478967
0.0499552
0.0520255
0.0541044
0.0561889
0.0582756
0.0603589
0.000209547
0.000322369
0.000699402
0.00115612
0.00168962
0.00229169
0.00295783
0.00368576
0.00447375
0.00532056
0.00622542
0.00718774
0.00820676
0.00928207
0.0104132
0.0115997
0.0128408
0.014136
0.0154847
0.0168859
0.0183385
0.019842
0.0213946
0.0229952
0.0246425
0.0263349
0.0280705
0.0298472
0.0316635
0.0335169
0.0354053
0.0373259
0.0392766
0.0412546
0.0432574
0.0452821
0.0473256
0.0493852
0.0514579
0.0535407
0.05563
0.0577226
0.059813
0.000209661
0.000313723
0.000680182
0.00112435
0.00164351
0.0022304
0.00288031
0.00359106
0.00436094
0.00518877
0.00607407
0.00701618
0.00801452
0.00906873
0.0101787
0.0113437
0.0125631
0.0138368
0.0151642
0.0165442
0.0179765
0.0194598
0.0209929
0.0225749
0.0242044
0.02588
0.0275998
0.0293622
0.0311652
0.0330067
0.0348845
0.0367962
0.0387393
0.0407115
0.0427098
0.0447314
0.0467735
0.0488332
0.0509075
0.0529931
0.0550868
0.0571851
0.0592822
0.000209823
0.000306784
0.000662464
0.00109487
0.0016006
0.00217349
0.00280838
0.00350296
0.00425583
0.00506605
0.00593297
0.00685603
0.00783496
0.00886949
0.00995912
0.0111037
0.0123028
0.0135559
0.0148627
0.0162227
0.0176349
0.0190988
0.0206132
0.0221769
0.0237889
0.0254479
0.027152
0.0289
0.0306894
0.0325188
0.0343857
0.0362879
0.038223
0.0401885
0.0421816
0.0441995
0.0462395
0.0482984
0.0503735
0.0524615
0.0545592
0.0566637
0.0587698
0.000210528
0.000303387
0.000646191
0.00106758
0.00156082
0.00212061
0.00274136
0.00342091
0.00415798
0.00495165
0.00580122
0.00670634
0.00766685
0.00868238
0.00975285
0.010878
0.0120576
0.0132913
0.0145786
0.015919
0.0173122
0.0187572
0.0202531
0.0217991
0.0233942
0.0250367
0.0267254
0.0284586
0.0302346
0.0320516
0.0339074
0.0357997
0.0377263
0.0396845
0.0416718
0.0436856
0.0457225
0.0477802
0.0498554
0.051945
0.0540461
0.0561564
0.0582719
0.00021196
0.000303516
0.00063122
0.0010422
0.00152367
0.00207108
0.00267864
0.00334409
0.00406626
0.00484428
0.00567755
0.00656592
0.00750898
0.0085067
0.00955909
0.0106658
0.0118267
0.0130416
0.0143101
0.015632
0.0170066
0.0184333
0.0199114
0.02144
0.0230182
0.0246447
0.0263181
0.0280368
0.0297994
0.0316039
0.0334483
0.0353305
0.0372481
0.0391988
0.0411798
0.0431884
0.0452221
0.0472777
0.0493522
0.0514426
0.0535459
0.0556586
0.0577751
0.000213869
0.000305407
0.000617357
0.00101846
0.00148913
0.0020248
0.00261989
0.00327211
0.00398023
0.00474343
0.00556132
0.00643369
0.00736021
0.00834104
0.00937605
0.0104652
0.0116083
0.0128051
0.0140557
0.0153597
0.0167165
0.0181256
0.0195863
0.0210981
0.0226599
0.0242706
0.0259288
0.0276333
0.0293824
0.0311743
0.0330073
0.034879
0.0367875
0.0387301
0.0407043
0.0427077
0.0447371
0.04679
0.0488633
0.0509539
0.0530585
0.0551751
0.0573018
0.000215923
0.000307716
0.000604627
0.000996475
0.00145694
0.00198131
0.00256465
0.00320437
0.00389915
0.00464841
0.00545169
0.0063089
0.00721982
0.00818454
0.00920303
0.0102754
0.0114015
0.0125813
0.0138145
0.0151011
0.0164407
0.0178327
0.0192768
0.0207721
0.0223179
0.0239131
0.0255564
0.0272466
0.0289823
0.0307617
0.0325829
0.0344442
0.0363433
0.0382775
0.0402448
0.0422422
0.0442672
0.0463167
0.048388
0.0504778
0.0525828
0.0546996
0.0568234
0.000217909
0.000309837
0.00059285
0.0009759
0.00142663
0.00194032
0.00251251
0.0031403
0.00382252
0.00455857
0.0053481
0.00619076
0.00708688
0.00803629
0.00903911
0.0100954
0.0112052
0.0123686
0.0135852
0.0148551
0.0161781
0.0175538
0.0189815
0.0204607
0.0219908
0.0235707
0.0251994
0.0268757
0.0285982
0.030365
0.0321747
0.0340253
0.0359145
0.0378404
0.0398001
0.0417914
0.0438113
0.0458571
0.0479258
0.0500141
0.052119
0.0542368
0.0563654
0.000219738
0.000311581
0.000581764
0.000956564
0.00139816
0.00190167
0.00246333
0.00307993
0.0037502
0.00447368
0.00524999
0.00607905
0.00696103
0.00789579
0.00888355
0.00992442
0.0110186
0.0121662
0.0133668
0.0146208
0.0159277
0.0172872
0.0186993
0.0201629
0.0216777
0.0232428
0.0248571
0.0265195
0.0282287
0.0299833
0.0317813
0.0336212
0.0355007
0.0374177
0.0393697
0.0413546
0.0433691
0.0454107
0.0474765
0.0495633
0.0516681
0.0537879
0.0559221
0.000221337
0.000312885
0.000571452
0.000938373
0.00137119
0.00186507
0.00241669
0.00302263
0.00368164
0.00439314
0.00515692
0.00597303
0.0068414
0.00776216
0.00873562
0.00976171
0.0108409
0.0119732
0.0131585
0.014397
0.0156883
0.0170325
0.0184292
0.0198776
0.0213776
0.0229281
0.0245284
0.0261771
0.0278733
0.0296155
0.0314021
0.0332311
0.0351006
0.0370088
0.038953
0.040931
0.0429398
0.0449771
0.0470396
0.0491246
0.0512289
0.0533498
0.0554856
0.000222789
0.000314115
0.000561789
0.00092113
0.00134566
0.00183041
0.00237252
0.00296829
0.00361645
0.0043165
0.00506839
0.00587202
0.00672745
0.00763483
0.00859456
0.00960663
0.0106714
0.0117891
0.0129596
0.0141831
0.0154595
0.0167887
0.0181705
0.0196042
0.0210895
0.0226259
0.0242123
0.0258476
0.027531
0.029261
0.0310359
0.032854
0.0347139
0.0366128
0.0385491
0.04052
0.042523
0.0445553
0.0466143
0.0486969
0.0508001
0.052921
0.0550575
0.000224229
0.000315011
0.000552681
0.000904948
0.00132158
0.00179753
0.00233043
0.00291656
0.00355447
0.00424369
0.00498415
0.00577594
0.00661901
0.0075136
0.00846012
0.00945864
0.0105095
0.0116132
0.0127694
0.0139785
0.0152404
0.0165551
0.0179223
0.0193417
0.0208129
0.0223354
0.0239081
0.0255304
0.027201
0.0289188
0.0306822
0.0324897
0.0343395
0.0362294
0.0381574
0.040121
0.0421178
0.0441452
0.0462001
0.0482798
0.0503813
0.0525014
0.054638
0.00022544
0.000315548
0.000544086
0.000889519
0.0012987
0.00176643
0.00229041
0.00286724
0.00349543
0.00417429
0.00490383
0.00568425
0.0065154
0.00739763
0.00833142
0.00931696
0.0103546
0.0114447
0.0125872
0.0137824
0.0150302
0.0163308
0.017684
0.0190895
0.0205469
0.0220557
0.0236151
0.0252244
0.0268826
0.0285884
0.0303404
0.0321372
0.0339769
0.0358576
0.0377772
0.0397335
0.0417239
0.0437458
0.0457964
0.0478727
0.0499717
0.0520898
0.0542246
0.000226541
0.000316101
0.000536165
0.000874918
0.00127704
0.00173697
0.00225239
0.00282032
0.00343905
0.00410798
0.00482717
0.00559655
0.00641634
0.00728677
0.00820841
0.00918144
0.0102063
0.0112833
0.0124124
0.013594
0.0148284
0.0161153
0.0174549
0.0188468