/*--------------------------------*- C++ -*----------------------------------*\
| =========                 |                                                 |
| \\      /  F ield         | OpenFOAM: The Open Source CFD Toolbox           |
|  \\    /   O peration     | Version:  2.3.0                                 |
|   \\  /    A nd           | Web:      www.OpenFOAM.org                      |
|    \\/     M anipulation  |                                                 |
\*---------------------------------------------------------------------------*/
FoamFile
{
    version     2.0;
    format      ascii;
    class       surfaceScalarField;
    location    "3000";
    object      phi;
}
// * * * * * * * * * * * * * * * * * * * * * * * * * * * * * * * * * * * * * //

dimensions      [0 3 -1 0 0 0 0];

internalField   nonuniform List<scalar> 
76252
(
0.00199731
-0.00390928
0.00424207
-0.00233009
0.00169813
-0.00372973
0.00402891
0.00143136
-0.00355808
0.00382485
0.00119517
-0.00339351
0.0036297
0.00098806
-0.00323623
0.00344333
0.000808525
-0.00308525
0.00326479
0.000655384
-0.00294077
0.00309391
0.000526743
-0.00280216
0.0029308
0.000421575
-0.00266964
0.00277481
0.000338737
-0.00254267
0.00262551
0.000276779
-0.00242086
0.00248281
0.00023491
-0.00230431
0.00234618
0.000211353
-0.00219217
0.00221573
0.000205853
-0.00208506
0.00209056
0.000216463
-0.00198181
0.0019712
0.000243108
-0.00188317
0.00185653
0.000284382
-0.0017882
0.00174692
0.000339817
-0.00169716
0.00164172
0.000408246
-0.00160937
0.00154094
0.000488794
-0.00152468
0.00144413
0.000581403
-0.00144402
0.00135141
0.000684719
-0.00136524
0.00126193
0.000798634
-0.00129005
0.00117614
0.000922374
-0.00121745
0.00109371
0.00105558
-0.00114668
0.00101347
0.0011978
-0.00107881
0.000936601
0.00134875
-0.00101264
0.000861689
0.00150852
-0.000949143
0.000789375
0.00167614
-0.000886782
0.000719161
0.00185215
-0.000826375
0.000650363
0.00203644
-0.000767453
0.000583163
0.00222949
-0.000710188
0.000517139
0.00243195
-0.000654718
0.000452254
0.00264461
-0.000600384
0.000387722
0.00286807
-0.000547177
0.000323725
0.00310477
-0.000495788
0.000259082
0.00335757
-0.000445804
0.000193006
0.00363066
-0.000398923
0.000125832
0.00393094
-0.00035439
5.41065e-05
0.00426689
-0.000312481
-2.34666e-05
0.00465435
-0.000275374
-0.000112082
0.00513087
-0.000247319
-0.000229203
-0.000235887
0.0058258
-0.000459044
0.00186737
-0.00360766
-0.002169
0.00159624
-0.0034586
0.00135366
-0.00331549
0.00113876
-0.00317861
0.000949507
-0.00304698
0.000784996
-0.00292074
0.000643899
-0.00279967
0.000524944
-0.0026832
0.000427267
-0.00257196
0.000349204
-0.00246461
0.000290268
-0.00236192
0.000249246
-0.00226329
0.000225353
-0.00216828
0.000217188
-0.0020769
0.000224832
-0.00198945
0.000246394
-0.00190473
0.000281824
-0.00182363
0.000329799
-0.00174513
0.00039008
-0.00166965
0.000462057
-0.00159666
0.000544636
-0.0015266
0.000638094
-0.0014587
0.000740558
-0.00139252
0.000852607
-0.0013295
0.000973479
-0.00126755
0.001103
-0.00120834
0.00124102
-0.00115066
0.00138696
-0.00109508
0.00154076
-0.00104059
0.00170296
-0.000988573
0.00187339
-0.000937879
0.00205256
-0.000889358
0.00224094
-0.000843096
0.00243847
-0.000797916
0.0026466
-0.00075531
0.00286731
-0.000716501
0.00310197
-0.00068046
0.00335119
-0.000648139
0.00361768
-0.000620882
0.00390549
-0.000600295
0.00421719
-0.000587074
0.00455602
-0.000586148
-0.000596778
0.00491691
0.0017386
-0.00333494
-0.00201131
0.00149253
-0.00321254
0.00127227
-0.00309523
0.00107621
-0.00298255
0.000903428
-0.0028742
0.000752726
-0.00277004
0.000623054
-0.00267
0.000513599
-0.00257375
0.000422724
-0.00248109
0.000350266
-0.00239215
0.000294854
-0.00230651
0.00025536
-0.00222379
0.000231879
-0.0021448
0.000222862
-0.00206788
0.000227809
-0.0019944
0.000246231
-0.00192315
0.000277178
-0.00185457
0.00032025
-0.0017882
0.00037451
-0.00172391
0.000439767
-0.00166192
0.000515148
-0.00160198
0.000600126
-0.00154368
0.000695024
-0.00148741
0.000798471
-0.00143294
0.000910892
-0.00137997
0.00103121
-0.00132866
0.00115984
-0.00127929
0.00129596
-0.00123119
0.00143985
-0.00118448
0.0015913
-0.00114002
0.00175104
-0.00109761
0.00191721
-0.00105553
0.00209148
-0.00101736
0.0022737
-0.000980139
0.00246449
-0.000946098
0.00266272
-0.000914734
0.00287019
-0.000887933
0.00308592
-0.000863865
0.00331187
-0.000846832
0.0035449
-0.000833325
0.00378619
-0.000828366
0.00402973
-0.000829682
-0.000840372
0.00427332
0.00161395
-0.00308623
-0.00186266
0.00138978
-0.00298837
0.00118851
-0.00289396
0.00100916
-0.0028032
0.000850758
-0.0027158
0.000712005
-0.00263129
0.000592198
-0.0025502
0.000490425
-0.00247197
0.00040563
-0.00239629
0.000337123
-0.00232365
0.000284142
-0.00225353
0.000246102
-0.00218575
0.000221524
-0.00212022
0.000210962
-0.00205732
0.000212439
-0.00199588
0.000226373
-0.00193709
0.000251582
-0.00187978
0.000287773
-0.00182439
0.000334384
-0.00177052
0.00039126
-0.00171879
0.00045718
-0.0016679
0.000532322
-0.00161882
0.000616043
-0.00157113
0.000707562
-0.00152446
0.000807625
-0.00148003
0.000914964
-0.001436
0.00102926
-0.00139358
0.00115117
-0.0013531
0.00128002
-0.00131334
0.00141576
-0.00127576
0.0015575
-0.00123936
0.00170693
-0.00120497
0.00186158
-0.00117201
0.00202378
-0.00114234
0.00219246
-0.00111477
0.00236808
-0.00109035
0.00254913
-0.00106899
0.00273785
-0.00105258
0.00293118
-0.00104017
0.00313207
-0.00103421
0.00333637
-0.00103267
0.00354389
-0.0010372
-0.00104941
0.00375293
0.0014933
-0.00286059
-0.00171894
0.00128887
-0.00278395
0.00110524
-0.00271033
0.000940936
-0.0026389
0.000795241
-0.0025701
0.000667649
-0.0025037
0.000556842
-0.00243939
0.00046226
-0.00237739
0.000383362
-0.00231739
0.000319168
-0.00225945
0.000268676
-0.00220303
0.000231644
-0.00214872
0.000207167
-0.00209575
0.000194891
-0.00204504
0.000194208
-0.0019952
0.000204586
-0.00194747
0.000225125
-0.00190032
0.000255922
-0.00185519
0.000296536
-0.00181114
0.000345453
-0.00176771
0.000403629
-0.00172607
0.000470357
-0.00168555
0.000544585
-0.00164536
0.000627104
-0.00160698
0.000715954
-0.00156888
0.000812317
-0.00153236
0.000915363
-0.00149663
0.00102444
-0.00146218
0.00114008
-0.00142899
0.00126158
-0.00139725
0.00138906
-0.00136684
0.00152261
-0.00133852
0.00166184
-0.00131123
0.00180674
-0.00128725
0.001957
-0.00126504
0.00211208
-0.00124543
0.00227347
-0.00123038
0.00243928
-0.00121839
0.00260999
-0.00121088
0.00278425
-0.00120847
0.00296178
-0.00121021
0.00314326
-0.00121868
-0.00123152
0.00332538
0.00137831
-0.00265481
-0.00158409
0.00119207
-0.00259771
0.00102384
-0.0025421
0.000873379
-0.00248843
0.000739768
-0.00243649
0.000622019
-0.00238595
0.000519639
-0.00233701
0.000431927
-0.00228968
0.000358131
-0.0022436
0.000297543
-0.00219886
0.000249983
-0.00215547
0.00021405
-0.00211279
0.000190146
-0.00207184
0.00017646
-0.00203135
0.000174082
-0.00199282
0.000181085
-0.00195447
0.000198174
-0.00191741
0.000223961
-0.00188098
0.000258564
-0.00184574
0.000301938
-0.00181108
0.000352935
-0.00177707
0.000411515
-0.00174413
0.000477528
-0.00171137
0.000550169
-0.00167962
0.000629577
-0.00164829
0.000715454
-0.00161824
0.000807714
-0.00158889
0.000905893
-0.00156035
0.0010095
-0.00153259
0.00111865
-0.0015064
0.00123323
-0.00148143
0.00135228
-0.00145756
0.00147777
-0.00143672
0.00160667
-0.00141615
0.00174098
-0.00139935
0.00188107
-0.00138552
0.00202433
-0.00137364
0.00217214
-0.00136619
0.0023239
-0.00136265
0.00247916
-0.00136373
0.00263782
-0.00136886
0.00279876
-0.00137962
-0.00139545
0.00296268
0.00126988
-0.00246716
-0.00145753
0.00109945
-0.00242729
0.000945789
-0.00238844
0.000807906
-0.00235055
0.000684827
-0.00231341
0.000576473
-0.00227759
0.00048205
-0.00224259
0.000400784
-0.00220842
0.000332003
-0.00217482
0.000275358
-0.00214222
0.000230011
-0.00211013
0.000196138
-0.00207892
0.000172378
-0.00204808
0.000158783
-0.00201776
0.000154441
-0.00198848
0.000159326
-0.00195935
0.000173046
-0.00193113
0.000195278
-0.00190321
0.000225177
-0.00187564
0.000262398
-0.0018483
0.000307189
-0.00182186
0.000359201
-0.00179614
0.00041799
-0.00177016
0.000483009
-0.00174464
0.000554588
-0.00171987
0.000631174
-0.00169482
0.000713326
-0.00167104
0.000801144
-0.00164817
0.000894454
-0.0016259
0.000992366
-0.00160431
0.0010953
-0.00158436
0.00120332
-0.00156558
0.00131546
-0.00154887
0.00143224
-0.00153292
0.00155328
-0.00152039
0.00167792
-0.00151015
0.00180665
-0.00150238
0.00193987
-0.0014994
0.00207613
-0.00149891
0.00221546
-0.00150305
0.00235828
-0.00151168
0.00250267
-0.00152402
-0.00154195
0.00264917
0.00116776
-0.00229596
-0.00133896
0.00101214
-0.00227167
0.000871356
-0.00224765
0.000744965
-0.00222416
0.000632192
-0.00220064
0.000532504
-0.0021779
0.000445099
-0.00215518
0.000369714
-0.00213303
0.000305869
-0.00211097
0.000252975
-0.00208932
0.000210843
-0.00206799
0.000178454
-0.00204653
0.00015533
-0.00202496
0.000141605
-0.00200404
0.000136573
-0.00198344
0.000139896
-0.00196268
0.000150852
-0.00194209
0.000169633
-0.00192199
0.000195284
-0.00190129
0.000228409
-0.00188143
0.000267856
-0.00186131
0.000313949
-0.00184224
0.00036592
-0.00182213
0.000424327
-0.00180305
0.000487867
-0.00178341
0.000556822
-0.00176378
0.000631258
-0.00174548
0.000710055
-0.00172697
0.000793708
-0.00170956
0.000882485
-0.00169309
0.000974884
-0.00167676
0.00107233
-0.00166302
0.00117245
-0.00164899
0.00127812
-0.00163859
0.00138696
-0.00162923
0.00149974
-0.00162294
0.00161589
-0.00161852
0.00173537
-0.00161888
0.00185849
-0.00162204
0.00198444
-0.001629
0.00211221
-0.00163945
0.00224363
-0.00165544
-0.00167413
0.00237581
0.0010718
-0.00214127
-0.00122649
0.000929879
-0.00212975
0.000801408
-0.00211918
0.000685719
-0.00210847
0.000582468
-0.00209739
0.000490096
-0.00208553
0.000409928
-0.00207501
0.000339985
-0.00206309
0.00028078
-0.00205176
0.000231341
-0.00203988
0.000191452
-0.00202811
0.000161075
-0.00201615
0.000139298
-0.00200318
0.000125195
-0.00198993
0.000119398
-0.00197765
0.00012124
-0.00196452
0.000129822
-0.00195067
0.000145772
-0.00193794
0.000168818
-0.00192434
0.0001977
-0.00191031
0.000232243
-0.00189585
0.000272697
-0.00188269
0.000319405
-0.00186884
0.00037172
-0.00185536
0.000429063
-0.00184076
0.000491354
-0.00182607
0.000557519
-0.00181164
0.000629511
-0.00179896
0.00070557
-0.00178562
0.000785067
-0.00177258
0.000869073
-0.00176077
0.000956795
-0.00175074
0.00104865
-0.00174084
0.00114305
-0.001733
0.0012411
-0.00172727
0.00134303
-0.00172487
0.00144845
-0.00172394
0.00155617
-0.00172661
0.00166846
-0.00173432
0.00178169
-0.00174223
0.00189665
-0.0017544
0.00201561
-0.00177441
0.00213611
-0.00179463
0.00595139
-0.000296959
0.000171371
0.00617159
-0.000399944
0.000179737
0.00640716
-0.000500021
0.000264454
0.00664524
-0.000600992
0.00036291
0.00688135
-0.000700158
0.000464053
0.0071117
-0.000794615
0.000564266
0.00733537
-0.000885911
0.000662238
0.00754855
-0.000974099
0.000760917
0.00775014
-0.00106035
0.00085876
0.00793892
-0.00114438
0.000955602
0.00811541
-0.00122896
0.00105247
0.00827826
-0.00131144
0.00114859
0.00842806
-0.00139547
0.00124567
0.00856383
-0.00147791
0.00134214
0.00868562
-0.00156197
0.00144017
0.00879487
-0.00164664
0.00153738
0.0088925
-0.00173433
0.00163671
0.00897528
-0.00182123
0.00173845
0.00904736
-0.00191315
0.00184107
0.0091046
-0.00200495
0.00194771
0.00915016
-0.00210084
0.00205527
0.00918308
-0.00219952
0.00216661
0.00919996
-0.00229984
0.00228296
0.00920305
-0.00240512
0.00240203
0.00918876
-0.00251221
0.00252651
0.00915974
-0.0026255
0.00265453
0.00911191
-0.00274084
0.00278867
0.00904602
-0.00286116
0.00292706
0.00895952
-0.00298567
0.00307217
0.00885265
-0.00311448
0.00322135
0.00872326
-0.00324927
0.00337866
0.00857075
-0.00338815
0.00354067
0.00839279
-0.00353297
0.00371093
0.00818955
-0.00368363
0.00388687
0.00795819
-0.0038397
0.00407105
0.00769823
-0.00400221
0.00426217
0.00740941
-0.00417192
0.00446075
0.00708793
-0.00434745
0.00466893
0.00673309
-0.0045303
0.00488514
0.00634394
-0.00472073
0.00510988
0.00591882
-0.00491905
0.00534417
0.00545611
-0.00512631
0.00558902
-0.00534079
0.00584326
0.00495364
0.00525592
-0.000635967
0.00555275
-0.000696772
0.00581548
-0.000762757
0.0060488
-0.000834308
0.00625671
-0.00090807
0.00644599
-0.000983891
0.00662114
-0.00106106
0.00678316
-0.00113612
0.00693696
-0.00121415
0.00708267
-0.00129008
0.00721958
-0.00136588
0.0073502
-0.00144206
0.00747235
-0.00151763
0.00758846
-0.00159401
0.00769727
-0.00167078
0.00779883
-0.00174819
0.007889
-0.00182451
0.00797247
-0.0019047
0.00804481
-0.00198548
0.00810656
-0.00206671
0.00815691
-0.00215119
0.00819384
-0.00223645
0.00821916
-0.00232517
0.0082296
-0.00241556
0.00822629
-0.00250891
0.00820647
-0.00260569
0.00816952
-0.00270389
0.00811591
-0.00280756
0.00804291
-0.00291267
0.0079518
-0.00302337
0.00783903
-0.0031365
0.0077051
-0.00325422
0.00754884
-0.00337671
0.00736889
-0.00350369
0.00716393
-0.00363473
0.00693349
-0.00377177
0.00667529
-0.00391372
0.00638865
-0.00406082
0.00607198
-0.00421362
0.00572408
-0.00437283
0.00534416
-0.00453914
0.00492857
-0.00471072
-0.00489084
0.00447863
0.00450815
-0.000870795
0.0047316
-0.000920221
0.00494635
-0.000977508
0.00514976
-0.00103772
0.0053454
-0.00110372
0.00553032
-0.0011688
0.00570659
-0.00123733
0.0058754
-0.00130494
0.00603488
-0.00137362
0.00618641
-0.00144162
0.00633144
-0.00151091
0.0064665
-0.00157711
0.00659552
-0.00164664
0.00671494
-0.00171343
0.00682481
-0.00178066
0.00692657
-0.00184995
0.00702061
-0.00191855
0.00710386
-0.00198795
0.00717645
-0.00205808
0.00723976
-0.00213001
0.00729134
-0.00220277
0.00733119
-0.0022763
0.00735906
-0.00235303
0.00737357
-0.00243007
0.00737428
-0.00250962
0.00736033
-0.00259174
0.00733255
-0.0026761
0.00728719
-0.0027622
0.00722624
-0.00285172
0.00714605
-0.00294318
0.00704885
-0.0030393
0.00693106
-0.00313643
0.00679348
-0.00323914
0.00663387
-0.00334408
0.00645207
-0.00345293
0.00624653
-0.00356622
0.00601634
-0.00368353
0.00575998
-0.00380446
0.00547784
-0.00393149
0.00516681
-0.0040618
0.00482532
-0.00419765
0.00445278
-0.00433818
-0.00448527
0.00404721
0.00395942
-0.00107729
0.00416067
-0.00112147
0.00435371
-0.00117054
0.00453998
-0.00122399
0.00471709
-0.00128083
0.00488804
-0.00133975
0.00505126
-0.00140056
0.00520759
-0.00146127
0.00535506
-0.00152109
0.005497
-0.00158356
0.00563105
-0.00164495
0.00575928
-0.00170535
0.00587836
-0.00176572
0.00599005
-0.00182512
0.0060962
-0.00188681
0.00619204
-0.0019458
0.0062807
-0.00200721
0.00636025
-0.00206749
0.00643036
-0.00212819
0.00649137
-0.00219102
0.00654168
-0.00225308
0.00658157
-0.0023162
0.00660958
-0.00238104
0.00662578
-0.00244627
0.00663035
-0.00251418
0.00662087
-0.00258226
0.00659695
-0.00265219
0.00655863
-0.00272388
0.00650523
-0.00279832
0.00643594
-0.00287389
0.00634957
-0.00295293
0.00624618
-0.00303304
0.00612272
-0.00311568
0.00598053
-0.00320189
0.00581832
-0.00329072
0.00563455
-0.00338245
0.00542818
-0.00347716
0.00519924
-0.00357552
0.0049451
-0.00367735
0.00466576
-0.00378246
0.00435947
-0.00389135
0.00402679
-0.00400551
-0.00412145
0.00366297
0.0035071
-0.00125902
0.00368417
-0.00129854
0.00385625
-0.00134262
0.00402372
-0.00139146
0.00418528
-0.00144239
0.00434103
-0.0014955
0.00448953
-0.00154905
0.00463344
-0.00160519
0.00477211
-0.00165976
0.0049031
-0.00171455
0.00502805
-0.0017699
0.00514612
-0.00182342
0.00525897
-0.00187858
0.00536444
-0.00193059
0.00546275
-0.00198511
0.00555376
-0.00203681
0.00563629
-0.00208974
0.00571148
-0.00214268
0.00577832
-0.00219503
0.00583504
-0.00224774
0.00588302
-0.00230106
0.00592168
-0.00235485
0.00594922
-0.00240858
0.0059665
-0.00246355
0.00597137
-0.00251905
0.00596375
-0.00257463
0.00594459
-0.00263303
0.00591177
-0.00269106
0.00586529
-0.00275184
0.0058038
-0.0028124
0.00572668
-0.00287581
0.00563408
-0.00294044
0.00552474
-0.00300635
0.00539717
-0.00307432
0.00525148
-0.00314502
0.00508646
-0.00321743
0.00490172
-0.00329243
0.00469491
-0.00336871
0.00446691
-0.00344935
0.0042156
-0.00353115
0.00393908
-0.00361484
0.00363805
-0.00370447
-0.00379575
0.00331234
0.00312437
-0.0014207
0.00328364
-0.00145781
0.00344017
-0.00149915
0.00359056
-0.00154185
0.00373731
-0.00158914
0.00387984
-0.00163803
0.00401714
-0.00168635
0.00414808
-0.00173613
0.0042744
-0.00178608
0.00439593
-0.00183608
0.00451049
-0.00188447
0.00462088
-0.00193381
0.00472362
-0.00198131
0.00482139
-0.00202835
0.00491144
-0.00207517
0.00499587
-0.00212124
0.00507272
-0.00216659
0.00514214
-0.0022121
0.00520399
-0.00225689
0.00525837
-0.00230212
0.00530331
-0.00234599
0.00533887
-0.00239041
0.00536495
-0.00243467
0.00538121
-0.00247981
0.00538624
-0.00252409
0.00538198
-0.00257036
0.00536503
-0.00261609
0.00533639
-0.00266241
0.00529412
-0.00270958
0.00523976
-0.00275803
0.00517069
-0.00280674
0.00508752
-0.00285727
0.00498897
-0.0029078
0.004875
-0.00296035
0.00474375
-0.00301377
0.00459535
-0.00306902
0.00442831
-0.0031254
0.00424354
-0.00318394
0.00403726
-0.00324306
0.00380972
-0.0033036
0.00356349
-0.00336861
0.00329188
-0.00343286
-0.00350205
0.00299818
0.00279624
-0.00156777
0.00294006
-0.00160162
0.00308049
-0.00163958
0.00321839
-0.00167975
0.00335154
-0.00172229
0.00348047
-0.00176696
0.00360489
-0.00181078
0.00372566
-0.0018569
0.00384151
-0.00190193
0.00395135
-0.00194592
0.00405777
-0.00199089
0.0041577
-0.00203374
0.00425212
-0.00207573
0.00434227
-0.00211851
0.00442508
-0.00215798
0.00450323
-0.00219938
0.00457431
-0.00223767
0.00463827
-0.00227606
0.00469581
-0.00231443
0.00474463
-0.00235094
0.00478614
-0.0023875
0.00481968
-0.00242395
0.00484421
-0.0024592
0.00485888
-0.00249448
0.00486556
-0.00253077
0.0048612
-0.00256601
0.00484681
-0.00260169
0.00482109
-0.0026367
0.00478443
-0.00267292
0.00473497
-0.00270857
0.004674
-0.00274577
0.00459889
-0.00278215
0.00451023
-0.00281914
0.00440695
-0.00285708
0.00428852
-0.00289533
0.00415486
-0.00293537
0.00400494
-0.00297548
0.00383663
-0.00301563
0.00365094
-0.00305737
0.00344828
-0.00310094
0.00322245
-0.00314278
0.0029782
-0.00318861
-0.00323474
0.00271089
0.002509
-0.00170096
0.00264011
-0.00173273
0.00276691
-0.00176638
0.00289232
-0.00180516
0.00301333
-0.0018433
0.00313026
-0.00188389
0.00324458
-0.0019251
0.00335416
-0.00196648
0.00345863
-0.0020064
0.00356041
-0.0020477
0.00365666
-0.00208713
0.00374815
-0.00212523
0.00383625
-0.00216383
0.00391723
-0.00219949
0.00399416
-0.00223491
0.00406452
-0.00226975
0.00412996
-0.00230311
0.00418997
-0.00233607
0.00424139
-0.00236585
0.00428705
-0.0023966
0.0043253
-0.00242575
0.00435558
-0.00245423
0.00437872
-0.00248234
0.00439312
-0.00250888
0.00439881
-0.00253646
0.00439545
-0.00256264
0.00438242
-0.00258867
0.00436007
-0.00261435
0.00432693
-0.00263977
0.00428276
-0.0026644
0.00422714
-0.00269015
0.0041595
-0.00271452
0.00407891
-0.00273855
0.00398586
-0.00276402
0.00387991
-0.00278939
0.00375848
-0.00281394
0.00362242
-0.00283941
0.00347094
-0.00286415
0.00330383
-0.00289026
0.00311769
-0.0029148
0.00291611
-0.0029412
0.00269653
-0.00296903
-0.00299472
0.00245652
0.00225672
-0.00182157
0.00237533
-0.00185134
0.00249213
-0.00188318
0.00260434
-0.00191737
0.00271424
-0.0019532
0.00282279
-0.00199244
0.00292476
-0.00202707
0.00302483
-0.00206654
0.00312168
-0.00210325
0.00321322
-0.00213924
0.00330095
-0.00217487
0.00338592
-0.00221021
0.00346535
-0.00224326
0.00354017
-0.00227431
0.00361016
-0.0023049
0.00367508
-0.00233466
0.00373632
-0.00236435
0.00378903
-0.00238878
0.00383745
-0.00241426
0.00387886
-0.00243801
0.00391309
-0.00245998
0.00394106
-0.0024822
0.00396158
-0.00250285
0.00397528
-0.00252259
0.00398095
-0.00254213
0.00397831
-0.00256
0.00396724
-0.00257759
0.00394685
-0.00259396
0.00391673
-0.00260966
0.00387725
-0.00262492
0.00382669
-0.00263959
0.0037645
-0.00265233
0.00369236
-0.00266641
0.00360818
-0.00267984
0.00351122
-0.00269243
0.00340241
-0.00270513
0.00327933
-0.00271632
0.00314307
-0.00272789
0.00299021
-0.00273741
0.00282487
-0.00274946
0.00264133
-0.00275766
0.00244216
-0.00276986
-0.00277694
0.00222438
9.38931e-05
0.00626584
-0.00682101
0.000461274
0.000609837
0.00604751
-0.00656345
0.00108643
0.00583521
-0.0063118
0.00152165
0.00563507
-0.00607029
0.00192574
0.00543679
-0.00584088
0.00229038
0.00525079
-0.00561542
0.00262167
0.00507088
-0.00540216
0.0029195
0.00489676
-0.00519459
0.00318585
0.00472868
-0.00499503
0.00342281
0.00456854
-0.0048055
0.00362995
0.00441041
-0.00461756
0.00380538
0.00426397
-0.0044394
0.00395718
0.0041174
-0.00426921
0.00408091
0.00397652
-0.00410025
0.00417845
0.00384332
-0.00394086
0.00424975
0.00371376
-0.00378506
0.00429872
0.00358536
-0.00363433
0.00432293
0.00346467
-0.00348887
0.00432217
0.00334696
-0.00334619
0.00429866
0.00323022
-0.00320672
0.00425622
0.00311657
-0.00307413
0.00419073
0.00300777
-0.00294228
0.00410427
0.00290168
-0.00281523
0.00399884
0.0027944
-0.00268897
0.00387483
0.00269372
-0.00256971
0.0037328
0.00259139
-0.00244937
0.00357501
0.00249195
-0.00233416
0.00339988
0.00239479
-0.00221967
0.00321255
0.00229812
-0.00211079
0.00301134
0.00220403
-0.00200281
0.00279926
0.0021085
-0.00189643
0.00257544
0.00201717
-0.00179336
0.00234489
0.00192433
-0.00169377
0.00210678
0.00183355
-0.00159544
0.0018625
0.00174297
-0.0014987
0.00161543
0.00165191
-0.00140484
0.0013672
0.00156023
-0.001312
0.00112091
0.00146692
-0.00122063
0.000874612
0.0013721
-0.00112581
0.000639053
0.00126839
-0.00103283
0.000417947
0.0011522
-0.000931093
0.000241216
0.000989419
-0.000812687
0.00071146
0.000144661
-0.000614905
8.42788e-05
0.0057607
0.000420869
0.000552063
0.00557972
0.000982587
0.00540469
0.00137998
0.00523768
0.00174213
0.00507463
0.00207107
0.00492185
0.00237305
0.00476889
0.00264363
0.00462618
0.00288507
0.00448724
0.00309908
0.00435453
0.00328395
0.00422554
0.00344754
0.00410038
0.00358358
0.00398137
0.00369431
0.00386579
0.00378327
0.00375436
0.00385079
0.00364623
0.00389435
0.0035418
0.00391618
0.00344284
0.00392004
0.0033431
0.00390338
0.00324689
0.00386452
0.00315543
0.00380933
0.00306296
0.00373554
0.00297548
0.00364353
0.0028864
0.0035354
0.00280184
0.00341098
0.00271581
0.00326875
0.00263418
0.0031152
0.00254834
0.00294651
0.00246681
0.00276561
0.00238493
0.00257325
0.00230086
0.00237194
0.00221848
0.00216081
0.00213546
0.00194281
0.00205156
0.00171934
0.00196644
0.00149163
0.00187962
0.00126297
0.00178889
0.00103388
0.00169601
0.00080936
0.00159662
0.00059115
0.0014866
0.000394307
0.00134904
0.000253111
0.00113062
0.000823954
0.000140616
7.63879e-05
0.00530369
0.000380616
0.000498392
0.00515772
0.000889487
0.00501359
0.00124952
0.00487765
0.00157641
0.00474774
0.00187837
0.00461989
0.00214725
0.00450001
0.00239318
0.00438025
0.00260993
0.00427048
0.00280598
0.00415848
0.00297482
0.00405671
0.00312035
0.00395485
0.0032431
0.00385862
0.0033465
0.00376239
0.00342682
0.00367404
0.00348571
0.00358734
0.00352732
0.00350018
0.00354949
0.00342067
0.00355412
0.00333846
0.00353905
0.00326196
0.00350821
0.00318626
0.00345743
0.00311374
0.0033929
0.00304001
0.00331236
0.00296694
0.00321565
0.00289856
0.00310303
0.00282843
0.002979
0.00275822
0.00283927
0.00268807
0.00268849
0.00261759
0.00252688
0.00254654
0.00235307
0.00247467
0.00216968
0.00240188
0.00197768
0.00232746
0.00177804
0.0022512
0.00157529
0.00216918
0.00136708
0.00208784
0.00115532
0.00200064
0.000944652
0.00190668
0.000734881
0.00180639
0.000534577
0.00168691
0.000362356
0.00152126
0.000238554
0.00125442
0.000939333
0.000123175
6.59368e-05
0.00488987
0.000347886
0.000450887
0.00477277
0.000804994
0.00465948
0.00113014
0.00455251
0.00142835
0.00444953
0.00169973
0.00434852
0.00194604
0.00425369
0.00216781
0.00415849
0.0023665
0.00407179
0.0025403
0.00398468
0.00269316
0.00390385
0.0028253
0.00382271
0.00293845
0.00374547
0.0030286
0.00367224
0.003102
0.00360064
0.00315828
0.00353106
0.00319547
0.003463
0.00321552
0.00340062
0.00321818
0.0033358
0.00320588
0.00327426
0.00317802
0.00321412
0.00313482
0.00315695
0.00307788
0.00309695
0.00300325
0.00304157
0.00291933
0.00298247
0.00281957
0.0029282
0.00270838
0.0028694
0.00258572
0.00281073
0.00244982
0.00275349
0.0023012
0.00269517
0.00214399
0.00263187
0.0019789
0.00256697
0.00180447
0.00250189
0.00162544
0.00243022
0.0014371
0.00235752
0.00124627
0.00227867
0.00105216
0.00219475
0.000858785
0.00210006
0.000666917
0.00199826
0.000484709
0.00186912
0.000335219
0.00167075
0.000219631
0.00137001
0.00104868
0.000110284
6.0389e-05
0.00451482
0.000314663
0.000408805
0.00442435
0.000728339
0.00433995
0.00102305
0.00425779
0.00129497
0.00417762
0.00154022
0.00410326
0.00176469
0.00402922
0.00196219
0.00396098
0.00214325
0.00389073
0.0023014
0.00382653
0.00244086
0.00376439
0.00255955
0.00370402
0.00266155
0.00364348
0.00274461
0.00358918
0.00281089
0.00353435
0.0028605
0.00348145
0.00289323
0.00343027
0.00291311
0.00338074
0.00291801
0.0033309
0.00290599
0.00328628
0.0028807
0.00323941
0.00284221
0.00319544
0.00279076
0.0031484
0.00272781
0.00310453
0.00264941
0.00306087
0.00256194
0.00301566
0.00246071
0.00297063
0.0023485
0.00292294
0.00222526
0.00287673
0.00209674
0.00282369
0.00195379
0.00277482
0.00180446
0.0027163
0.00164578
0.00266057
0.00148155
0.00259445
0.00131163
0.00252744
0.00113639
0.00245391
0.000961214
0.00236993
0.000780368
0.0022809
0.000605804
0.00217282
0.00044342
0.0020315
0.000309401
0.00180477
0.000200879
0.00147853
0.00115023
9.93272e-05
5.38106e-05
0.00417398
0.000287027
0.000369885
0.00410828
0.00066131
0.00404852
0.000927937
0.00399117
0.00117204
0.00393351
0.00139542
0.00387989
0.00159612
0.00382852
0.00178029
0.00377681
0.00194163
0.00372939
0.00208435
0.00368381
0.00221049
0.00363826
0.00232015
0.00359436
0.00241085
0.00355278
0.00248723
0.00351279
0.00254693
0.00347465
0.00259385
0.00343453
0.00262416
0.00339996
0.00264161
0.0033633
0.0026425
0.00333001
0.00263431
0.00329447
0.00261149
0.00326223
0.00257771
0.00322922
0.00253084
0.00319526
0.00247302
0.00316235
0.002404
0.00312989
0.00232375
0.00309591
0.00223445
0.00305994
0.00213393
0.00302346
0.00202427
0.00298639
0.00190401
0.00294395
0.00177889
0.00289995
0.00164142
0.00285377
0.00149973
0.00280225
0.00134925
0.00274493
0.00119364
0.00268305
0.00103636
0.00261118
0.000872902
0.00253339
0.000712095
0.00244171
0.000552126
0.00233279
0.000404305
0.00217932
0.000283455
0.00192562
0.000181867
0.00158012
0.0012437
8.84026e-05
4.96001e-05
0.00386305
0.000261336
0.000333948
0.00382393
0.000597389
0.00378508
0.000840517
0.00374804
0.00106294
0.00371109
0.00126466
0.00367817
0.00145001
0.00364317
0.00161258
0.00361424
0.00176082
0.00358115
0.00189252
0.00355211
0.00200562
0.00352516
0.00210406
0.00349592
0.00218607
0.00347077
0.00225557
0.00344329
0.00231036
0.00341986
0.00234879
0.0033961
0.00237858
0.00337017
0.00239182
0.00335006
0.00239647
0.00332536
0.00238651
0.00330443
0.00236785
0.00328089
0.00233839
0.00325868
0.00229601
0.00323765
0.00224282
0.00321553
0.00218063
0.00319209
0.00210954
0.003167
0.00202736
0.00314212
0.00193831
0.00311252
0.00184038
0.00308431
0.00173136
0.00305297
0.00161577
0.00301554
0.0014921
0.00297745
0.00136388
0.00293047
0.00122803
0.00288078
0.00108886
0.00282223
0.000942124
0.00275792
0.000795956
0.00267956
0.000646717
0.00259095
0.000501115
0.00247839
0.000368024
0.00231241
0.000259127
0.00203452
0.000166175
0.00167307
0.00132878
8.10935e-05
4.17504e-05
0.00358166
0.000239636
0.000302387
0.00356329
0.000542618
0.00354485
0.000764113
0.00352654
0.000963106
0.0035121
0.00114771
0.00349356
0.00131174
0.00347914
0.00146337
0.00346261
0.00159635
0.00344817
0.00171296
0.0034355
0.00181713
0.00342099
0.0019068
0.00340625
0.00198197
0.00339561
0.00204278
0.00338247
0.00209317
0.00336947
0.00213105
0.00335822
0.00215435
0.00334687
0.00217139
0.00333302
0.00217381
0.00332294
0.00216562
0.00331261
0.00214679
0.00329972
0.0021176
0.00328788
0.00208155
0.0032737
0.00203498
0.0032621
0.00197936
0.00324772
0.00191494
0.00323141
0.00184188
0.00321518
0.00175774
0.00319666
0.00166873
0.00317331
0.0015732
0.0031485
0.00146694
0.0031218
0.00135818
0.00308621
0.00123972
0.00304893
0.0011168
0.00300369
0.000988951
0.00295008
0.000857853
0.00288902
0.000721988
0.00281543
0.000587852
0.00272508
0.000455574
0.00261067
0.000335996
0.00243199
0.00023723
0.00213328
0.000149481
0.00176082
0.00140576
7.24983e-05
3.79128e-05
0.000216255
0.00332749
0.000273165
0.00332804
0.000492033
0.00332598
0.000690533
0.00332804
0.000874288
0.00332834
0.00103972
0.00332813
0.00119281
0.00332604
0.00132723
0.0033282
0.00144753
0.00332787
0.00155517
0.00332786
0.0016486
0.00332755
0.00172962
0.00332523
0.00179815
0.00332708
0.00185427
0.00332635
0.001898
0.00332575
0.00193347
0.00332274
0.00195657
0.00332377
0.00196708
0.0033225
0.00196933
0.00332069
0.00196509
0.00331685
0.00194851
0.0033163
0.00192331
0.00331308
0.00188757
0.00330944
0.0018452
0.00330447
0.00179617
0.00329674
0.00173647
0.00329112
0.00166979
0.00328185
0.0015964
0.00327006
0.00151646
0.00325325
0.00142748
0.00323748
0.00133423
0.00321504
0.00123318
0.00318726
0.00112752
0.00315459
0.00101754
0.00311367
0.000899988
0.00306763
0.000779251
0.00300975
0.000657308
0.00293737
0.000535257
0.00284713
0.000413605
0.00273232
0.000303981
0.00254161
0.000212082
0.00222518
0.000136335
0.00183656
6.69508e-05
0.00147515
-0.000112524
0.000413215
-0.000156031
-0.000262428
0.000268972
-0.000119069
-0.00035733
0.000190663
-9.57608e-05
-0.000420083
0.000144243
-8.14913e-05
-0.000462992
0.000115066
-7.21567e-05
-0.000493475
9.60307e-05
-6.55485e-05
-0.000515961
8.31634e-05
-6.06768e-05
-0.000533513
7.45279e-05
-5.69768e-05
-0.000548457
6.91508e-05
-5.42062e-05
-0.000561509
6.56709e-05
-5.26196e-05
-0.000574098
6.43155e-05
-5.17267e-05
-0.000586768
6.45539e-05
-5.18846e-05
-0.000599856
6.59874e-05
-5.28989e-05
-0.000613845
6.89263e-05
-5.49378e-05
-0.000629001
7.30824e-05
-5.79266e-05
-0.00064539
7.87213e-05
-6.2332e-05
-0.000663544
8.57454e-05
-6.75917e-05
-0.000682989
9.39055e-05
-7.44603e-05
-0.000704187
0.000103843
-8.2645e-05
-0.000726836
0.000115057
-9.24083e-05
-0.00075103
0.000127927
-0.000103734
-0.000776829
0.000142725
-0.000116925
-0.000803811
0.000159267
-0.000132285
-0.000832252
0.000177852
-0.000149411
-0.000861282
0.000198425
-0.000169395
-0.000891254
0.000221535