/*--------------------------------*- C++ -*----------------------------------*\
| =========                 |                                                 |
| \\      /  F ield         | OpenFOAM: The Open Source CFD Toolbox           |
|  \\    /   O peration     | Version:  2.3.0                                 |
|   \\  /    A nd           | Web:      www.OpenFOAM.org                      |
|    \\/     M anipulation  |                                                 |
\*---------------------------------------------------------------------------*/
FoamFile
{
    version     2.0;
    format      ascii;
    class       volVectorField;
    location    "3000";
    object      U;
}
// * * * * * * * * * * * * * * * * * * * * * * * * * * * * * * * * * * * * * //

dimensions      [0 1 -1 0 0 0 0];

internalField   nonuniform List<vector> 
38296
(
(14.4313 -1.12167 0)
(14.3027 -1.2076 4.79855e-21)
(14.1666 -1.28195 1.38723e-20)
(14.0287 -1.35911 2.29399e-20)
(13.8889 -1.43932 -2.79516e-20)
(13.7472 -1.52221 3.30158e-20)
(13.6034 -1.60777 0)
(13.4575 -1.69614 0)
(13.3094 -1.78749 0)
(13.159 -1.88196 -1.68601e-20)
(13.0062 -1.97971 0)
(12.8509 -2.08094 -5.38545e-20)
(12.6927 -2.18586 1.00645e-19)
(12.5315 -2.29474 0)
(12.367 -2.40781 6.05799e-20)
(12.1989 -2.52546 -9.9206e-20)
(12.027 -2.64801 3.1977e-20)
(11.8508 -2.77593 0)
(11.6701 -2.90971 7.97814e-20)
(11.4843 -3.04994 -8.0874e-20)
(11.2931 -3.19736 -1.18354e-19)
(11.0959 -3.35282 2.56003e-20)
(10.8922 -3.51724 2.01237e-20)
(10.6813 -3.69191 1.39708e-19)
(10.4625 -3.87816 -2.76573e-20)
(10.235 -4.07747 -1.01764e-19)
(9.99794 -4.29184 9.50957e-20)
(9.75045 -4.52337 -4.54783e-20)
(9.49177 -4.77475 7.17139e-20)
(9.22092 -5.04911 8.85876e-21)
(8.93714 -5.35001 0)
(8.63975 -5.68191 2.63353e-21)
(8.32867 -6.05019 -2.76211e-21)
(8.00418 -6.46127 -4.48527e-20)
(7.66716 -6.92298 6.65524e-23)
(7.31966 -7.44521 7.11418e-20)
(6.96505 -8.03965 -1.22003e-19)
(6.60909 -8.72126 1.58378e-19)
(6.2605 -9.51056 0)
(5.92957 -10.4346 -8.37556e-20)
(5.63698 -11.5385 5.97774e-20)
(5.45138 -12.8856 3.99914e-20)
(5.54916 -14.5201 -8.40191e-19)
(14.5207 -1.2638 3.23088e-21)
(14.4095 -1.34588 6.71851e-23)
(14.2931 -1.42022 -3.61368e-21)
(14.1755 -1.49754 -8.68417e-21)
(14.0569 -1.57786 -7.57222e-21)
(13.937 -1.66087 1.54022e-20)
(13.8159 -1.74663 -3.53836e-21)
(13.6936 -1.83525 -6.48034e-22)
(13.57 -1.92692 0)
(13.4451 -2.02185 3.47715e-22)
(13.3189 -2.12019 -2.01508e-21)
(13.1914 -2.22221 -2.45449e-21)
(13.0624 -2.32818 -1.85989e-20)
(12.9318 -2.43831 -1.33981e-20)
(12.7995 -2.55296 -1.01796e-19)
(12.6653 -2.67241 2.95977e-20)
(12.5291 -2.79702 -3.14413e-20)
(12.3909 -2.92719 0)
(12.2506 -3.06334 0)
(12.108 -3.20594 -1.57211e-20)
(11.9632 -3.35559 0)
(11.8162 -3.513 0)
(11.6671 -3.67886 -2.36441e-20)
(11.5159 -3.85416 0)
(11.363 -4.03998 2.68937e-20)
(11.2085 -4.23751 0)
(11.0529 -4.44829 -3.04833e-20)
(10.8968 -4.67398 2.57959e-20)
(10.7411 -4.91657 0)
(10.5867 -5.17821 5.47413e-20)
(10.4354 -5.46153 -3.79357e-20)
(10.2892 -5.76938 0)
(10.1511 -6.10506 2.12537e-20)
(10.0249 -6.47207 -5.8464e-21)
(9.91522 -6.87413 0)
(9.82899 -7.31515 -6.83981e-20)
(9.77494 -7.79902 5.70599e-20)
(9.76472 -8.32894 6.73362e-21)
(9.81374 -8.9071 -1.13553e-20)
(9.94366 -9.53348 1.26199e-19)
(10.1866 -10.2045 -1.33685e-19)
(10.5899 -10.9052 0)
(11.2096 -11.6007 -3.24851e-20)
(14.6062 -1.38209 7.84638e-22)
(14.5087 -1.46449 -9.09404e-21)
(14.4069 -1.53967 9.04356e-23)
(14.3041 -1.61732 -9.12816e-23)
(14.2005 -1.69766 3.79604e-21)
(14.0961 -1.78061 -9.5192e-21)
(13.9907 -1.86631 0)
(13.8846 -1.95495 0)
(13.7776 -2.04665 -7.09243e-21)
(13.6698 -2.14168 0)
(13.5612 -2.24021 0)
(13.4519 -2.34252 0)
(13.3418 -2.44892 2.7817e-20)
(13.2307 -2.55971 6.94538e-20)
(13.1187 -2.67522 0)
(13.0057 -2.79586 2.32637e-20)
(12.8917 -2.92198 1.86059e-20)
(12.7765 -3.05407 0)
(12.6602 -3.19255 0)
(12.5428 -3.33801 1.55402e-20)
(12.4243 -3.49101 4.06394e-20)
(12.305 -3.65222 -5.88044e-20)
(12.1849 -3.82237 7.61368e-20)
(12.0644 -4.00226 -3.23561e-20)
(11.944 -4.19295 1.95478e-20)
(11.8241 -4.39545 7.28547e-22)
(11.7054 -4.61103 -7.58995e-20)
(11.5889 -4.841 3.38547e-20)
(11.4757 -5.08688 -2.11762e-21)
(11.3671 -5.35021 -1.04401e-20)
(11.2652 -5.63271 1.07874e-20)
(11.1724 -5.93608 -6.5836e-22)
(11.0916 -6.26208 2.98622e-20)
(11.0268 -6.61234 -8.08922e-21)
(10.9823 -6.98812 0)
(10.9639 -7.39007 4.61692e-20)
(10.9788 -7.81805 -3.01099e-20)
(11.0346 -8.2704 2.78623e-20)
(11.1408 -8.74322 -3.2464e-21)
(11.3076 -9.22927 0)
(11.5461 -9.71674 5.45909e-20)
(11.8667 -10.1856 -6.77419e-20)
(12.2753 -10.6076 1.56087e-19)
(14.6907 -1.49056 1.15172e-20)
(14.6045 -1.56705 0)
(14.5155 -1.63977 0)
(14.4259 -1.71529 0)
(14.3358 -1.79344 7.73802e-22)
(14.2452 -1.87412 0)
(14.154 -1.95745 -1.27307e-21)
(14.0623 -2.0436 2.56131e-21)
(13.9702 -2.13272 1.08725e-20)
(13.8777 -2.22501 0)
(13.7848 -2.32067 -6.33286e-21)
(13.6916 -2.41991 0)
(13.5982 -2.523 -3.43462e-20)
(13.5045 -2.63033 -4.21464e-21)
(13.4105 -2.74215 0)
(13.3163 -2.85887 0)
(13.2219 -2.98083 -1.85253e-20)
(13.1272 -3.10843 -1.484e-20)
(13.0324 -3.24212 1.95024e-20)
(12.9376 -3.38239 -1.97573e-20)
(12.8429 -3.52978 -3.45763e-20)
(12.7484 -3.68482 2.26773e-20)
(12.6547 -3.84806 -2.43631e-20)
(12.5621 -4.02019 0)
(12.4713 -4.20198 1.54579e-20)
(12.383 -4.39428 0)
(12.298 -4.59802 0)
(12.2175 -4.81419 0)
(12.1426 -5.04381 -4.75359e-21)
(12.075 -5.28791 0)
(12.0168 -5.54752 -1.3641e-20)
(11.97 -5.82367 0)
(11.9376 -6.11696 -1.86444e-20)
(11.9229 -6.42806 -2.97066e-20)
(11.9299 -6.75692 -1.03312e-20)
(11.9631 -7.10297 -3.38471e-20)
(12.0275 -7.46461 7.2075e-21)
(12.1286 -7.83908 1.62574e-20)
(12.2721 -8.22165 -8.94304e-22)
(12.4633 -8.60584 1.71179e-21)
(12.7067 -8.98225 0)
(13.0038 -9.33916 -1.16575e-20)
(13.3526 -9.66208 1.31963e-19)
(14.7668 -1.57793 -5.41855e-21)
(14.6931 -1.65303 -6.31308e-21)
(14.6156 -1.72364 0)
(14.5373 -1.79668 0)
(14.4584 -1.87207 -3.06987e-21)
(14.3791 -1.94984 1.04812e-21)
(14.2994 -2.03018 2.36616e-21)
(14.2194 -2.11326 -2.68638e-21)
(14.1391 -2.19924 -3.81408e-21)
(14.0584 -2.28833 0)
(13.9776 -2.38069 6.30148e-21)
(13.8967 -2.47647 0)
(13.8157 -2.57592 8.74627e-21)
(13.7349 -2.67941 -9.9642e-21)
(13.6541 -2.78731 7.24893e-21)
(13.5734 -2.89988 -8.25822e-21)
(13.4928 -3.0175 -9.25956e-21)
(13.4123 -3.14055 2.50998e-20)
(13.3322 -3.26942 5.61722e-21)
(13.2526 -3.40459 6.10444e-21)
(13.1735 -3.54664 0)
(13.0952 -3.69604 0)
(13.018 -3.85321 1.05263e-20)
(12.9423 -4.01866 2.67849e-20)
(12.869 -4.19293 -1.93293e-20)
(12.7989 -4.37679 0)
(12.7329 -4.571 0)
(12.6719 -4.77629 0)
(12.6173 -4.99341 -1.34889e-20)
(12.5707 -5.223 0)
(12.5338 -5.4658 1.36267e-20)
(12.5088 -5.72229 0)
(12.498 -5.99273 0)
(12.5044 -6.27703 1.77386e-20)
(12.5314 -6.57469 1.02617e-20)
(12.5825 -6.88461 8.19291e-21)
(12.6614 -7.2048 -5.14782e-22)
(12.7721 -7.53212 -8.66133e-21)
(12.9183 -7.86224 6.1103e-21)
(13.1029 -8.18917 1.52232e-20)
(13.3277 -8.50552 -4.78071e-20)
(13.5929 -8.80262 9.95031e-20)
(13.8954 -9.0709 -8.19529e-20)
(14.842 -1.65323 -7.6864e-21)
(14.777 -1.72661 -5.19159e-22)
(14.7084 -1.79438 -7.39679e-21)
(14.6393 -1.86442 0)
(14.5697 -1.93658 2.50713e-21)
(14.4998 -2.01093 5.43607e-21)
(14.4298 -2.0878 -1.24215e-21)
(14.3594 -2.16735 1.37915e-22)
(14.2889 -2.24966 -5.18027e-23)
(14.2183 -2.33512 6.54043e-22)
(14.1474 -2.42379 -2.70578e-22)
(14.0764 -2.51575 2.8209e-21)
(14.0054 -2.61114 -1.66551e-21)
(13.935 -2.71026 4.69615e-22)
(13.8649 -2.81369 -5.84747e-21)
(13.795 -2.9216 8.26253e-21)
(13.7255 -3.03428 9.27124e-21)
(13.6564 -3.15214 -1.55514e-21)
(13.5879 -3.27548 -2.04004e-20)
(13.5205 -3.40468 7.65151e-21)
(13.4541 -3.54043 4.42939e-21)
(13.3888 -3.68332 0)
(13.3248 -3.83371 0)
(13.2625 -3.9918 -1.46262e-20)
(13.2027 -4.15799 -1.16154e-22)
(13.1466 -4.33278 7.14253e-21)
(13.0952 -4.517 5.93826e-21)
(13.0492 -4.7113 7.32783e-21)
(13.0098 -4.91611 -5.30966e-21)
(12.9787 -5.13175 7.16633e-21)
(12.9575 -5.35885 -1.95917e-21)
(12.9481 -5.59765 -1.64789e-21)
(12.9526 -5.84814 -3.34427e-21)
(12.9737 -6.10976 -7.46497e-21)
(13.014 -6.38198 1.53753e-21)
(13.0768 -6.66336 -3.54472e-21)
(13.1648 -6.95191 1.17049e-20)
(13.2811 -7.24472 -4.63657e-21)
(13.428 -7.53796 0)
(13.607 -7.8265 4.83715e-20)
(13.8189 -8.10414 2.9402e-20)
(14.0633 -8.36405 -1.32242e-20)
(14.3376 -8.5995 1.22248e-20)
(14.9121 -1.71993 4.59804e-22)
(14.8548 -1.79007 1.7334e-20)
(14.7937 -1.85429 -5.33002e-21)
(14.7321 -1.92109 1.18997e-20)
(14.6702 -1.98994 1.45777e-21)
(14.6081 -2.06071 -5.89525e-21)
(14.5463 -2.13391 -5.40437e-21)
(14.4836 -2.20991 0)
(14.4213 -2.28837 0)
(14.3587 -2.37013 -2.57927e-21)
(14.296 -2.4551 -2.74998e-21)
(14.233 -2.54353 -1.23922e-21)
(14.1698 -2.63509 2.19695e-21)
(14.1072 -2.73003 -6.10146e-22)
(14.0455 -2.82916 -3.94675e-21)
(13.9839 -2.93275 -1.83894e-21)
(13.9228 -3.04069 -6.90219e-22)
(13.8625 -3.15375 0)
(13.8026 -3.2721 1.2507e-21)
(13.744 -3.39565 -7.03998e-21)
(13.6872 -3.5253 -1.84656e-21)
(13.6319 -3.6619 3.89372e-21)
(13.5778 -3.806 -4.99182e-21)
(13.5253 -3.95761 4.22588e-21)
(13.4749 -4.11678 -1.05119e-21)
(13.4284 -4.28361 1.09672e-21)
(13.3871 -4.45899 -5.94101e-21)
(13.3517 -4.64391 0)
(13.3223 -4.83859 -5.82508e-21)
(13.3013 -5.04265 0)
(13.2903 -5.25677 0)
(13.2909 -5.48141 3.32768e-23)
(13.3046 -5.71609 3.46548e-21)
(13.3342 -5.96018 0)
(13.3817 -6.21295 0)
(13.4505 -6.47284 -3.30139e-21)
(13.5422 -6.73833 -1.2938e-20)
(13.6596 -7.0062 0)
(13.8046 -7.2735 3.09038e-20)
(13.977 -7.53617 -1.60592e-20)
(14.1767 -7.78763 0)
(14.4049 -8.02284 -3.2756e-20)
(14.6584 -8.23647 1.35409e-19)
(14.9747 -1.778 5.04227e-22)
(14.9258 -1.84435 0)
(14.8716 -1.90501 1.8873e-20)
(14.8165 -1.96857 -1.53483e-20)
(14.761 -2.03445 6.68783e-21)
(14.7046 -2.10171 -7.26429e-21)
(14.6503 -2.17097 4.54915e-21)
(14.5938 -2.24364 6.47713e-21)
(14.5383 -2.31815 -5.77865e-21)
(14.4823 -2.39625 2.8996e-21)
(14.4265 -2.47746 2.08182e-21)
(14.3705 -2.5627 -1.0482e-21)
(14.3133 -2.65114 4.76793e-21)
(14.2569 -2.74215 0)
(14.2022 -2.83729 2.056e-21)
(14.1467 -2.93724 -3.86524e-23)
(14.0916 -3.04064 1.79801e-21)
(14.0384 -3.14905 7.52623e-22)
(13.9846 -3.26327 -2.14628e-21)
(13.9323 -3.38198 0)
(13.8825 -3.50597 -2.59171e-21)
(13.8354 -3.63641 0)
(13.7892 -3.77433 -4.43517e-21)
(13.7447 -3.92013 1.24678e-21)
(13.7011 -4.07336 -4.50912e-21)
(13.6613 -4.23341 3.4731e-21)
(13.6273 -4.40079 1.15703e-21)
(13.6005 -4.57733 -1.18652e-21)
(13.5784 -4.76381 0)
(13.5643 -4.95828 3.44448e-22)
(13.5606 -5.16119 -3.0271e-22)
(13.5688 -5.37416 0)
(13.5883 -5.59603 -2.71326e-21)
(13.6238 -5.82599 0)
(13.6755 -6.06316 -3.016e-21)
(13.7486 -6.30619 2.48952e-21)
(13.8419 -6.55423 2.91754e-20)
(13.9591 -6.80285 -2.4422e-20)
(14.1023 -7.05045 -1.47915e-20)
(14.2681 -7.2963 0)
(14.4567 -7.52684 0)
(14.6743 -7.74476 -2.86658e-20)
(14.9124 -7.94293 -1.097e-19)
(15.0266 -1.8189 -1.60646e-20)
(14.9842 -1.88952 0)
(14.9386 -1.94844 -1.60439e-20)
(14.8906 -2.00888 9.43625e-21)
(14.8441 -2.07239 -1.39955e-20)
(14.7911 -2.13614 8.07538e-21)
(14.7432 -2.2006 1.16279e-22)
(14.6915 -2.27046 -1.02573e-20)
(14.6433 -2.34074 2.48048e-21)
(14.5941 -2.41539 -4.18813e-21)
(14.5439 -2.49199 0)
(14.4947 -2.57377 -1.15144e-21)
(14.444 -2.66001 -2.02223e-21)
(14.3932 -2.74722 -6.32119e-21)
(14.3481 -2.83783 3.20364e-21)
(14.3006 -2.93517 -1.48653e-22)
(14.2508 -3.03391 2.48794e-22)
(14.2057 -3.13642 1.48625e-21)
(14.1571 -3.24667 -1.67825e-21)
(14.1091 -3.36149 -6.4975e-22)
(14.064 -3.48089 -8.84787e-22)
(14.0249 -3.60626 -2.51183e-23)
(13.9846 -3.73707 -9.62805e-22)
(13.9481 -3.87763 1.13714e-21)
(13.9093 -4.02571 1.10974e-21)
(13.8737 -4.18092 0)
(13.8435 -4.34166 -6.40525e-22)
(13.8246 -4.51089 0)
(13.8063 -4.69094 -9.77584e-22)
(13.7953 -4.87948 -3.18328e-22)
(13.7945 -5.07304 -2.57764e-21)
(13.8083 -5.27793 -2.50425e-23)
(13.8284 -5.48963 -1.70052e-21)
(13.8669 -5.70951 -5.62997e-22)
(13.9169 -5.93449 5.63767e-21)
(13.992 -6.16519 -5.1133e-21)
(14.083 -6.40082 -2.47594e-21)
(14.1962 -6.637 1.31814e-20)
(14.3372 -6.86862 -1.88197e-20)
(14.4958 -7.10792 0)
(14.67 -7.31093 -2.80971e-20)
(14.8842 -7.51909 0)
(15.1075 -7.70653 -3.91673e-20)
(7.59058 -15.2782 2.20333e-18)
(9.35971 -14.8915 -1.23408e-18)
(10.925 -14.4123 1.33354e-18)
(12.3607 -14.093 -1.18075e-18)
(13.6031 -13.8123 -5.76396e-20)
(14.6438 -13.5269 1.28333e-18)
(15.5178 -13.2507 -1.16582e-18)
(16.2578 -12.9918 1.14708e-18)
(16.8851 -12.7454 -1.15755e-18)
(17.4175 -12.5063 0)
(17.8708 -12.2711 8.07401e-20)
(18.2588 -12.0378 1.07251e-18)
(18.5926 -11.8049 6.86182e-21)
(18.8816 -11.5719 -1.0053e-18)
(19.1336 -11.3385 0)
(19.355 -11.1051 1.12348e-19)
(19.5511 -10.8723 1.09904e-19)
(19.7266 -10.6411 1.93987e-18)
(19.8852 -10.4123 -1.8785e-18)
(20.0296 -10.1869 -1.63034e-18)
(20.1624 -9.9657 1.80453e-18)
(20.2853 -9.74919 1.65881e-18)
(20.3999 -9.53789 -1.82937e-18)
(20.5075 -9.33203 -1.02685e-19)
(20.6089 -9.13165 1.76047e-18)
(20.7048 -8.93672 -1.56165e-18)
(20.7958 -8.74707 -3.80074e-19)
(20.8822 -8.56249 0)
(20.9644 -8.38271 1.49957e-18)
(21.0427 -8.20744 -1.12065e-18)
(21.1173 -8.03639 -1.6621e-18)
(21.1883 -7.86923 1.29092e-18)
(21.2561 -7.7057 0)
(21.3207 -7.54553 -3.73886e-19)
(21.3824 -7.38849 9.17769e-19)
(21.4414 -7.23437 -3.76707e-19)
(21.4979 -7.08302 3.74874e-19)
(21.5519 -6.93428 0)
(21.6037 -6.78806 3.75858e-19)
(21.6534 -6.64427 3.75898e-19)
(21.7013 -6.50289 1.10766e-18)
(21.7479 -6.36426 -1.84384e-18)
(21.7929 -6.22851 -7.42271e-19)
(12.0395 -12.1747 -2.20187e-19)
(12.8419 -12.593 2.34461e-19)
(13.5828 -12.843 5.36788e-19)
(14.2812 -12.9492 -5.78751e-19)
(14.9338 -12.9397 4.19981e-20)
(15.5316 -12.8434 -4.55489e-20)
(16.0741 -12.6859 4.81081e-20)
(16.5649 -12.4863 1.06208e-20)
(17.0079 -12.2589 -8.26949e-19)
(17.4072 -12.0146 7.98056e-19)
(17.7671 -11.7617 0)
(18.0918 -11.5064 -8.73867e-19)
(18.3853 -11.2528 -1.69743e-20)
(18.6511 -11.0038 1.58511e-18)
(18.8924 -10.7613 -8.24086e-19)
(19.1121 -10.5264 -1.08327e-19)
(19.3129 -10.2995 -1.06005e-19)
(19.497 -10.0808 0)
(19.6661 -9.86996 9.69955e-19)
(19.822 -9.66673 -3.3038e-21)
(19.9663 -9.47063 -1.49481e-18)
(20.1 -9.28115 6.4526e-19)
(20.2244 -9.09782 -5.45091e-19)
(20.3405 -8.92006 6.29599e-19)
(20.449 -8.7475 -1.84589e-19)
(20.5508 -8.57961 -1.82732e-19)
(20.6463 -8.41605 8.84211e-19)
(20.7363 -8.25647 -1.69661e-19)
(20.8211 -8.10053 -6.96364e-19)
(20.9013 -7.94799 -7.55559e-21)
(20.9772 -7.79858 1.04867e-18)
(21.0493 -7.65208 -1.39861e-18)
(21.1178 -7.50833 7.01343e-19)
(21.1831 -7.36714 0)
(21.2454 -7.22838 -5.77148e-21)
(21.305 -7.09193 -1.87283e-19)
(21.3621 -6.95765 3.55215e-19)
(21.4169 -6.82545 0)
(21.4695 -6.69524 -3.694e-19)
(21.5201 -6.5669 1.09481e-18)
(21.5689 -6.44027 -7.35644e-19)
(21.6164 -6.31531 1.10828e-18)
(21.6629 -6.18939 -7.43365e-19)
(12.7709 -10.9475 -1.6069e-19)
(13.3216 -11.1927 -2.5281e-19)
(13.8945 -11.3497 2.27476e-19)
(14.467 -11.4309 0)
(15.023 -11.4486 -7.23885e-19)
(15.5509 -11.4137 6.78054e-19)
(16.0443 -11.3369 -8.4749e-19)
(16.5005 -11.2277 9.23398e-20)
(16.9191 -11.0941 6.72229e-19)
(17.3011 -10.9428 -3.98346e-20)
(17.6486 -10.7792 -7.65922e-19)
(17.9642 -10.6074 6.52744e-19)
(18.2509 -10.4311 6.70341e-19)
(18.5112 -10.2525 1.13678e-19)
(18.7482 -10.0736 -7.33704e-19)
(18.9643 -9.89566 7.39334e-19)
(19.162 -9.71976 1.0464e-20)
(19.3435 -9.54645 -7.12808e-19)
(19.5106 -9.37619 -1.77966e-19)
(19.6651 -9.20929 6.15098e-19)
(19.8084 -9.04581 -1.38953e-18)
(19.9418 -8.88587 1.46498e-18)
(20.0664 -8.72941 -7.67469e-19)
(20.183 -8.5764 -5.93587e-19)
(20.2926 -8.42672 -1.69308e-19)
(20.3956 -8.28023 6.69254e-19)
(20.4927 -8.13683 -5.06595e-19)
(20.5845 -7.99633 3.31073e-19)
(20.6715 -7.85863 5.02776e-19)
(20.7539 -7.72355 -8.40998e-19)
(20.8323 -7.59096 3.34871e-19)
(20.9069 -7.46075 0)
(20.9781 -7.33279 0)
(21.0459 -7.20696 0)
(21.1108 -7.08313 -1.74561e-19)
(21.1729 -6.96121 -1.76003e-19)
(21.2324 -6.84109 -3.55032e-19)
(21.2895 -6.72271 0)
(21.3443 -6.60599 -1.07563e-18)
(21.397 -6.49081 3.55068e-19)
(21.4476 -6.37706 3.69159e-19)
(21.4963 -6.26474 -7.21184e-19)
(21.5429 -6.1525 3.61081e-19)
(13.7456 -9.93784 -1.34608e-19)
(14.1706 -10.159 2.31642e-20)
(14.613 -10.3227 0)
(15.0591 -10.4305 -5.80551e-20)
(15.4982 -10.4865 3.07472e-19)
(15.9223 -10.4972 2.66657e-20)
(16.3259 -10.4693 -2.07367e-19)
(16.7059 -10.4097 3.18332e-19)
(17.0609 -10.325 -3.95936e-19)
(17.3907 -10.2207 5.88917e-21)
(17.6955 -10.1013 -7.75161e-19)
(17.977 -9.9712 6.78226e-19)
(18.2365 -9.83346 8.93319e-20)
(18.4756 -9.69081 0)
(18.6963 -9.54526 8.41508e-20)
(18.9 -9.39829 0)
(19.0884 -9.25119 0)
(19.2631 -9.10482 8.28062e-20)
(19.4254 -8.95987 8.58802e-20)
(19.5765 -8.81678 -6.69148e-19)
(19.7174 -8.67585 5.75291e-19)
(19.8492 -8.53735 7.39807e-19)
(19.9726 -8.40132 -5.68692e-19)
(20.0882 -8.26782 0)
(20.1969 -8.13682 -6.43485e-19)
(20.2991 -8.00824 6.42507e-19)
(20.3954 -7.88201 4.82465e-19)
(20.4865 -7.75806 -8.0637e-19)
(20.5726 -7.63628 1.63985e-19)
(20.6544 -7.51661 -6.49702e-19)
(20.7321 -7.39893 1.30657e-18)
(20.8061 -7.28319 -8.15781e-19)
(20.8766 -7.1693 0)
(20.944 -7.05715 6.67346e-19)
(21.0083 -6.94661 -6.7123e-19)
(21.07 -6.83763 6.80487e-19)
(21.1291 -6.73015 -6.85477e-19)
(21.186 -6.62416 -3.47421e-19)
(21.2406 -6.51955 1.76352e-19)
(21.293 -6.41624 1.75109e-19)
(21.3435 -6.31417 1.82911e-19)
(21.3919 -6.21326 7.18802e-19)
(21.4385 -6.11272 -7.01461e-19)
(14.2303 -9.30278 1.9992e-19)
(14.591 -9.49366 -1.56881e-20)
(14.9686 -9.64106 -1.90943e-19)
(15.3532 -9.74475 5.74813e-20)
(15.7361 -9.80694 0)
(16.1105 -9.8316 0)
(16.4711 -9.82347 0)
(16.8144 -9.78754 -1.50404e-19)
(17.1383 -9.72873 7.92975e-20)
(17.4421 -9.65148 1.59384e-19)
(17.7255 -9.55967 8.26773e-20)
(17.9891 -9.45677 8.35702e-20)
(18.2338 -9.34564 8.08375e-20)
(18.4607 -9.22868 -2.53161e-19)
(18.6712 -9.10766 2.41389e-19)
(18.8663 -8.98413 8.08681e-20)
(19.0477 -8.85925 0)
(19.2165 -8.734 -4.11218e-19)
(19.3738 -8.60913 3.21155e-19)
(19.5206 -8.48509 4.03369e-19)
(19.6578 -8.36232 -1.57686e-19)
(19.7861 -8.24107 -2.27617e-21)
(19.9062 -8.12149 1.59882e-19)
(20.0189 -8.00367 -3.14185e-19)
(20.1247 -7.88759 1.5963e-19)
(20.2245 -7.77329 -4.71197e-19)
(20.3187 -7.66078 3.13283e-19)
(20.4079 -7.55005 0)
(20.4926 -7.4411 0)
(20.5729 -7.3339 0)
(20.6494 -7.2284 3.37654e-21)
(20.7223 -7.12456 1.62183e-19)
(20.7917 -7.02232 -4.84564e-19)
(20.858 -6.92154 4.87594e-19)
(20.9214 -6.82212 0)
(20.9823 -6.72403 -1.6527e-19)
(21.0408 -6.62734 -1.67187e-19)
(21.0969 -6.53202 0)
(21.1508 -6.43793 5.19523e-19)
(21.2025 -6.34499 -5.23512e-19)
(21.2524 -6.25319 2.86497e-21)
(21.3001 -6.16224 0)
(21.347 -6.07362 1.78552e-19)
(14.6378 -8.805 -7.01798e-20)
(14.9588 -8.97748 -6.03893e-22)
(15.2941 -9.11454 0)
(15.636 -9.21544 0)
(15.9777 -9.28149 6.07314e-20)
(16.3135 -9.31519 6.49184e-20)
(16.6386 -9.32025 3.54313e-19)
(16.9503 -9.30012 -2.77302e-19)
(17.2462 -9.25888 7.38138e-20)
(17.5254 -9.20028 -4.66695e-19)
(17.7875 -9.12758 3.05066e-19)
(18.0329 -9.04377 0)
(18.2621 -8.95138 -4.04011e-19)
(18.4757 -8.85271 2.33583e-19)
(18.6749 -8.74929 -7.90315e-20)
(18.8605 -8.64262 -4.83243e-19)
(19.0341 -8.53389 3.15467e-19)
(19.1963 -8.42424 0)
(19.3479 -8.31438 0)
(19.4896 -8.2048 -7.97494e-20)
(19.6221 -8.09594 -3.94774e-19)
(19.7461 -7.98801 -1.60021e-19)
(19.8622 -7.88118 4.6466e-19)
(19.9711 -7.77556 -2.34794e-19)
(20.0738 -7.67113 3.07846e-19)
(20.1708 -7.56815 1.56214e-19)
(20.2626 -7.46662 0)
(20.3496 -7.36668 0)
(20.4322 -7.26833 0)
(20.5106 -7.1715 0)
(20.5853 -7.07618 3.13787e-19)
(20.6563 -6.98241 0)
(20.7238 -6.89001 1.60683e-19)
(20.7883 -6.7988 -1.62173e-19)
(20.8502 -6.70877 0)
(20.9097 -6.61995 1.65649e-19)
(20.9669 -6.53258 1.67581e-19)
(21.0216 -6.44654 0)
(21.074 -6.36159 0)
(21.1243 -6.2777 1.70764e-19)
(21.1727 -6.1947 3.47177e-19)
(21.2192 -6.11193 3.49804e-19)
(21.2656 -6.03323 -1.70947e-19)
(14.9349 -8.42381 -7.31535e-20)
(15.2297 -8.58297 -8.86443e-22)
(15.5365 -8.7117 0)
(15.8495 -8.80897 -1.16259e-19)
(16.1626 -8.87551 -7.07548e-20)
(16.4718 -8.91348 5.85093e-20)
(16.7712 -8.9262 -6.80171e-20)
(17.0597 -8.91539 3.60498e-19)
(17.3351 -8.88532 -4.28369e-19)
(17.5963 -8.839 7.53794e-20)
(17.8426 -8.77895 3.09828e-19)
(18.0746 -8.70777 -3.02122e-19)
(18.2923 -8.62845 -3.15607e-19)
(18.4957 -8.54284 3.07763e-19)
(18.6859 -8.45218 7.91781e-20)
(18.8641 -8.3577 1.6026e-21)
(19.0317 -8.2608 0)
(19.1885 -8.16332 0)
(19.3347 -8.06546 0)
(19.4715 -7.9673 7.67482e-20)
(19.5993 -7.86945 -7.6485e-20)
(19.7187 -7.77188 7.76214e-20)
(19.8307 -7.67497 -3.85654e-19)
(19.9361 -7.57883 -8.04906e-20)
(20.0359 -7.48354 3.03744e-19)
(20.1303 -7.38964 -3.06467e-19)
(20.2197 -7.29714 6.10438e-19)
(20.3044 -7.20614 -4.59779e-19)
(20.3848 -7.1166 3.05546e-19)
(20.461 -7.02834 0)
(20.5337 -6.94146 -1.56084e-19)
(20.6025 -6.85616 3.12797e-19)
(20.6677 -6.7719 1.57925e-19)
(20.7304 -6.6885 -1.58991e-19)
(20.7905 -6.60628 0)
(20.8486 -6.52527 0)
(20.9042 -6.446 1.6305e-19)
(20.957 -6.36804 0)
(21.0079 -6.29099 0)
(21.0563 -6.21503 -1.71192e-19)
(21.103 -6.13979 -1.72839e-19)
(21.1479 -6.06472 0)
(21.1927 -5.99483 0)
(15.1728 -8.11655 7.44591e-20)
(15.4496 -8.26594 4.45414e-20)
(15.7357 -8.38912 0)
(16.0274 -8.48277 0)
(16.3188 -8.54864 0)
(16.6082 -8.58964 0)
(16.8852 -8.60941 6.55788e-20)
(17.1568 -8.60281 0)
(17.4156 -8.58104 7.13638e-20)
(17.6625 -8.54285 0)
(17.8959 -8.49077 -1.51123e-19)
(18.1175 -8.42836 1.4759e-19)
(18.3254 -8.35984 3.08422e-19)
(18.5194 -8.28458 -3.01118e-19)
(18.7021 -8.20306 -3.87207e-19)
(18.8742 -8.11723 4.57691e-19)
(19.0377 -8.02965 -3.10321e-19)
(19.1886 -7.94356 3.037e-19)
(19.3294 -7.8553 -7.63311e-20)
(19.4617 -7.76573 -1.5305e-19)
(19.5842 -7.67613 7.67063e-20)
(19.6993 -7.58607 0)
(19.8079 -7.49683 2.29167e-19)
(19.9101 -7.40811 -6.04552e-19)
(20.008 -7.32012 6.03737e-19)
(20.0998 -7.23413 -4.5321e-19)
(20.187 -7.14917 3.00619e-19)
(20.2695 -7.06571 -1.67319e-21)
(20.3475 -6.98338 0)
(20.4215 -6.90198 1.51754e-19)
(20.4923 -6.82217 3.07436e-19)
(20.5583 -6.74408 -7.70711e-19)
(20.6211 -6.66627 4.65689e-19)
(20.6823 -6.58925 -3.15086e-19)
(20.7406 -6.51373 -3.18013e-19)
(20.7974 -6.4393 3.20035e-19)
(20.851 -6.3673 -4.87589e-19)
(20.9014 -6.29637 1.6402e-19)
(20.9508 -6.22613 0)
(20.9969 -6.15715 -1.6863e-19)
(21.0419 -6.08859 3.38864e-19)
(21.0857 -6.02086 1.70323e-19)
(21.128 -5.95927 3.34504e-19)
(15.3556 -7.87062 1.20775e-19)
(15.6196 -8.01271 -2.21397e-19)
(15.888 -8.13373 9.17846e-20)
(16.1641 -8.22129 -5.39087e-20)
(16.4387 -8.28713 -1.18066e-19)
(16.719 -8.33059 5.42566e-20)
(16.9795 -8.3543 -6.43122e-20)
(17.2473 -8.33893 -6.58097e-20)
(17.4964 -8.32534 1.38716e-19)
(17.7335 -8.28919 -2.08966e-19)
(17.9535 -8.24363 1.4889e-19)
(18.1661 -8.19036 -2.18436e-19)
(18.3637 -8.13429 7.40833e-20)
(18.5512 -8.06397 0)
(18.7295 -7.98689 7.81583e-20)
(18.8946 -7.90934 -2.35984e-19)
(19.0546 -7.83193 1.49494e-19)
(19.2011 -7.75625 0)
(19.34 -7.67131 7.55434e-20)
(19.4677 -7.58785 7.64584e-20)
(19.5835 -7.50462 7.60311e-20)
(19.6956 -7.42018 1.5412e-19)
(19.8004 -7.33861 -7.51798e-20)
(19.8985 -7.2565 1.53278e-19)
(19.9944 -7.17531 -1.50383e-19)
(20.0815 -7.09697 9.63843e-23)
(20.1678 -7.01762 1.33033e-21)
(20.2476 -6.94067 -2.99126e-19)
(20.3229 -6.86405 0)
(20.3941 -6.78832 -1.52585e-19)
(20.4624 -6.71539 0)
(20.5238 -6.64349 2.08592e-22)
(20.5843 -6.57071 -7.22582e-22)
(20.6432 -6.5 -1.09975e-21)
(20.6983 -6.43052 0)
(20.7557 -6.36114 0)
(20.8075 -6.29591 2.36607e-19)
(20.8541 -6.23098 8.3242e-20)
(20.9014 -6.1668 0)
(20.9442 -6.10393 1.70108e-19)
(20.988 -6.04092 -3.47618e-19)
(21.03 -5.97979 -8.67056e-22)
(21.0679 -5.92432 -3.28736e-19)
(20.6362 -1.21695 -1.44724e-19)
(20.6398 -1.24554 -7.73294e-20)
(20.6426 -1.27613 -7.65304e-20)
(20.645 -1.30624 1.54772e-19)
(20.6469 -1.33618 3.0778e-19)
(20.6483 -1.36586 0)
(20.6489 -1.39528 -3.07643e-19)
(20.6486 -1.42441 0)
(20.647 -1.45323 1.5447e-19)
(20.6439 -1.48171 -1.55409e-19)
(20.6389 -1.50983 -3.14678e-19)
(20.6316 -1.53754 -1.4291e-18)
(20.6214 -1.56483 1.44714e-18)
(20.6076 -1.59164 1.22266e-18)
(20.5895 -1.61795 -1.32685e-18)
(20.5661 -1.64372 1.2655e-18)
(20.5363 -1.66891 -1.37965e-18)
(20.4989 -1.69345 -1.49669e-18)
(20.4524 -1.71731 2.88753e-18)
(20.3952 -1.74036 -1.48064e-18)
(20.3259 -1.76252 9.48696e-20)
(20.2429 -1.78364 0)
(20.1447 -1.80359 -1.60013e-18)
(20.03 -1.82221 1.65202e-18)
(19.8972 -1.8393 -5.41503e-20)
(19.7451 -1.85468 1.76504e-18)
(19.5723 -1.86814 -2.56051e-21)
(19.3777 -1.8795 -1.91611e-18)
(19.1597 -1.88843 0)
(18.9173 -1.8948 -1.33826e-19)
(18.6492 -1.89831 -2.30101e-18)
(18.3537 -1.89873 2.44725e-18)
(18.0286 -1.89572 1.1907e-18)
(17.6715 -1.88904 -1.32546e-18)
(17.2789 -1.87825 1.49252e-18)
(16.8456 -1.86284 -1.63906e-18)
(16.3642 -1.84206 -5.84514e-20)
(15.8232 -1.81495 -1.30857e-19)
(15.2043 -1.77947 -6.77245e-19)
(14.4748 -1.73266 7.13798e-19)
(13.5642 -1.6758 -1.66479e-19)
(12.1643 -1.62857 0)
(9.06829 -1.50516 2.58542e-18)
(20.6042 -1.21101 2.97956e-19)
(20.6068 -1.23862 -1.58538e-19)
(20.6085 -1.26692 -1.58614e-19)
(20.6098 -1.29469 4.77397e-19)
(20.6107 -1.32224 -1.59445e-19)
(20.6112 -1.3496 1.58393e-19)
(20.6111 -1.37676 1.59551e-19)
(20.6102 -1.40372 0)
(20.6085 -1.43047 -1.07109e-21)
(20.6057 -1.457 -1.28475e-18)
(20.6016 -1.4833 1.45845e-18)
(20.5958 -1.50936 1.6404e-19)
(20.5879 -1.53513 1.15722e-18)
(20.5775 -1.56062 -1.34217e-18)
(20.5641 -1.58578 8.49381e-20)
(20.5469 -1.6106 0)
(20.5251 -1.63503 -8.83448e-20)
(20.4977 -1.65903 9.08942e-20)
(20.4636 -1.68257 9.31431e-20)
(20.4214 -1.70555 -9.5163e-20)
(20.3695 -1.7279 -9.82174e-20)
(20.3065 -1.74953 -1.61832e-18)
(20.2307 -1.77029 3.33506e-18)
(20.1406 -1.79008 1.07098e-19)
(20.0343 -1.80873 -1.78099e-18)
(19.9102 -1.82605 5.74676e-20)
(19.7664 -1.84185 1.92048e-18)
(19.601 -1.85597 -4.06992e-18)
(19.4123 -1.86812 2.09744e-18)
(19.198 -1.87812 -1.03321e-18)
(18.9562 -1.88566 1.2354e-18)
(18.6844 -1.89045 -7.65924e-20)
(18.3799 -1.89213 8.17081e-20)
(18.0393 -1.89034 8.77743e-20)
(17.658 -1.88458 1.62095e-18)
(17.2303 -1.87417 -8.33428e-19)
(16.7479 -1.85815 -9.19252e-19)
(16.1984 -1.83525 6.42236e-20)
(15.5611 -1.80342 5.84745e-19)
(14.7945 -1.7607 -6.8057e-19)
(13.7579 -1.71095 -2.99323e-19)
(11.8932 -1.67593 4.41548e-19)
(8.69756 -1.52902 1.77105e-18)
(20.5751 -1.20563 0)
(20.577 -1.23153 3.69239e-19)
(20.578 -1.2574 1.23461e-19)
(20.5786 -1.28291 -3.27532e-19)
(20.5788 -1.30825 -1.63915e-19)
(20.5786 -1.33344 1.6298e-19)
(20.5779 -1.35852 -1.62945e-19)
(20.5766 -1.38347 0)
(20.5747 -1.40832 -8.20928e-19)
(20.5718 -1.43305 8.25171e-19)
(20.5679 -1.45767 -6.63842e-19)
(20.5627 -1.48218 6.70166e-19)
(20.5559 -1.50657 0)
(20.5472 -1.53082 8.55625e-20)
(20.536 -1.55492 -1.74402e-19)
(20.522 -1.57886 -8.8489e-20)
(20.5045 -1.6026 1.54183e-18)
(20.4826 -1.62608 -1.5766e-18)
(20.4555 -1.64928 9.46958e-20)
(20.422 -1.67211 9.80543e-20)
(20.3807 -1.69453 0)
(20.3302 -1.71642 -1.03028e-19)
(20.2689 -1.73766 0)
(20.1951 -1.75812 -2.2044e-19)
(20.1071 -1.77765 1.9389e-18)
(20.0027 -1.79608 -2.07027e-18)
(19.88 -1.8132 0)
(19.7367 -1.82879 1.15281e-18)
(19.5706 -1.84258 -1.07143e-18)
(19.379 -1.85429 6.97197e-20)
(19.1592 -1.86362 1.18238e-18)
(18.9083 -1.87021 -2.57872e-18)
(18.6227 -1.87363 1.32951e-18)
(18.2982 -1.87336 -1.06504e-21)
(17.9298 -1.86876 -1.9088e-19)
(17.5112 -1.85906 1.02856e-19)
(17.0329 -1.84318 -1.02013e-18)
(16.4815 -1.81961 1.5104e-18)
(15.833 -1.78664 -9.90255e-19)
(15.0255 -1.74512 5.63949e-19)
(13.8126 -1.70874 -9.01631e-20)
(11.6032 -1.67978 -9.33753e-19)
(8.67344 -1.52152 -7.24774e-19)
(20.5495 -1.20123 -8.19878e-20)
(20.5503 -1.22471 -1.27193e-19)
(20.5508 -1.24823 4.22202e-20)
(20.5509 -1.27159 -3.36853e-19)
(20.5506 -1.29487 3.36179e-19)
(20.5498 -1.31808 -1.6739e-19)
(20.5487 -1.34122 -5.02421e-19)
(20.5471 -1.36431 5.04081e-19)
(20.5448 -1.38735 0)
(20.5418 -1.41036 0)
(20.5379 -1.43333 0)
(20.5329 -1.45628 -6.85794e-19)
(20.5266 -1.4792 6.93499e-19)
(20.5187 -1.50208 -8.80884e-20)
(20.5088 -1.52493 8.9466e-20)
(20.4965 -1.54773 9.10606e-20)
(20.4814 -1.57045 0)
(20.4627 -1.59309 9.50193e-20)
(20.4397 -1.61558 -9.74271e-20)
(20.4115 -1.63789 8.96268e-19)
(20.3769 -1.65997 -1.64036e-18)
(20.3345 -1.68172 1.38581e-21)
(20.2829 -1.70305 5.60521e-22)
(20.2204 -1.72384 1.01353e-18)
(20.1452 -1.74394 -1.17006e-19)
(20.0552 -1.76317 1.21202e-19)
(19.9482 -1.78136 -1.12521e-18)
(19.8219 -1.79823 2.01703e-18)
(19.6735 -1.81353 -1.08648e-18)
(19.5002 -1.82696 1.06481e-18)
(19.2987 -1.8381 -1.12018e-18)
(19.0656 -1.84653 7.92123e-20)
(18.7968 -1.85177 0)
(18.4875 -1.85327 -8.93108e-20)
(18.1321 -1.85027 1.11442e-21)
(17.7233 -1.84192 -1.20706e-21)
(17.2513 -1.82703 1.12425e-19)
(16.7013 -1.80418 1.22359e-19)
(16.0443 -1.77246 1.37816e-19)
(15.1862 -1.73598 -1.53951e-19)
(13.7847 -1.71692 -3.28891e-19)
(11.4084 -1.69071 3.27362e-19)
(8.72453 -1.52348 -1.54007e-19)
(20.527 -1.19697 0)
(20.5268 -1.218 0)
(20.5266 -1.23944 0)
(20.5263 -1.26087 0)
(20.5256 -1.28229 -5.16925e-19)
(20.5245 -1.3037 1.72596e-19)
(20.523 -1.3251 3.43739e-19)
(20.5211 -1.34653 8.65395e-20)
(20.5187 -1.36797 0)
(20.5157 -1.38943 -6.91613e-19)
(20.5119 -1.41092 6.09301e-19)
(20.5072 -1.43246 7.01505e-19)
(20.5013 -1.45404 -7.09459e-19)
(20.4941 -1.47567 0)
(20.4854 -1.49737 7.29045e-19)
(20.4746 -1.5191 -1.57679e-18)
(20.4614 -1.54087 1.60845e-18)
(20.4454 -1.56265 -8.70497e-19)
(20.4257 -1.58442 -7.92359e-19)
(20.4017 -1.60614 7.11983e-19)
(20.3723 -1.62777 1.04366e-19)
(20.3363 -1.64925 1.08134e-19)
(20.2924 -1.67048 0)
(20.2388 -1.69137 -1.1451e-19)
(20.1739 -1.7118 1.18403e-19)
(20.0954 -1.7316 0)
(20.0012 -1.75059 1.27934e-19)
(19.8888 -1.76854 0)
(19.7552 -1.78516 1.37539e-19)
(19.5973 -1.80011 0)
(19.4116 -1.81299 1.28077e-18)
(19.1941 -1.82331 -1.26957e-18)
(18.9403 -1.83049 5.8566e-19)
(18.6448 -1.83388 -7.1057e-19)
(18.3014 -1.83274 -6.6174e-19)
(17.9019 -1.82613 1.52392e-18)
(17.4359 -1.81288 -4.4077e-19)
(16.8871 -1.79168 -7.21998e-19)
(16.2188 -1.76234 0)
(15.3006 -1.73302 3.64067e-20)
(13.7301 -1.72897 1.14633e-19)
(11.3003 -1.70063 0)
(8.78046 -1.5252 -4.24534e-19)
(20.5067 -1.19244 4.36476e-20)
(20.5058 -1.21142 -2.23409e-20)
(20.5052 -1.23108 -1.11213e-19)
(20.5044 -1.25079 -8.85721e-20)
(20.5034 -1.27054 4.73512e-22)
(20.502 -1.29035 4.40316e-19)
(20.5004 -1.31022 -8.77688e-20)