/*--------------------------------*- C++ -*----------------------------------*\
| =========                 |                                                 |
| \\      /  F ield         | OpenFOAM: The Open Source CFD Toolbox           |
|  \\    /   O peration     | Version:  2.3.0                                 |
|   \\  /    A nd           | Web:      www.OpenFOAM.org                      |
|    \\/     M anipulation  |                                                 |
\*---------------------------------------------------------------------------*/
FoamFile
{
    version     2.0;
    format      ascii;
    class       volScalarField;
    location    "5000";
    object      nuTilda;
}
// * * * * * * * * * * * * * * * * * * * * * * * * * * * * * * * * * * * * * //

dimensions      [0 2 -1 0 0 0 0];

internalField   nonuniform List<scalar> 
14769
(
0.0519797
0.0488604
0.0458373
0.0429344
0.0401695
0.037563
0.0351346
0.0329053
0.0309008
0.0291303
0.0274981
0.0258941
0.0243358
0.0228392
0.0214079
0.0200378
0.0187213
0.0174527
0.0162236
0.0150279
0.0138537
0.0126909
0.0115522
0.0106682
0.0558377
0.0532397
0.0507327
0.0483232
0.0460158
0.043813
0.0417185
0.0397355
0.0378678
0.0361184
0.0344875
0.0329719
0.0315738
0.0302993
0.0291555
0.0281486
0.0272854
0.0265712
0.0260127
0.0256135
0.025378
0.0253058
0.0253975
0.0256494
0.0592983
0.0571282
0.0550411
0.0530401
0.0511272
0.0493044
0.0475724
0.0459337
0.0443909
0.0429455
0.0416003
0.0403586
0.0392238
0.0382001
0.0372921
0.0365048
0.0358428
0.0353108
0.0349121
0.0346491
0.0345217
0.0345294
0.0346663
0.0349255
0.0623875
0.0605673
0.0588193
0.0571447
0.055545
0.0540203
0.0525724
0.0512019
0.049911
0.0487015
0.047576
0.0465378
0.0455903
0.0447367
0.0439823
0.0433304
0.0427857
0.0423523
0.0420327
0.0418297
0.0417429
0.0417722
0.0419149
0.0421654
0.0651389
0.0636004
0.062125
0.0607104
0.0593565
0.0580644
0.0568347
0.0556691
0.0545684
0.053535
0.052571
0.0516801
0.0508648
0.0501298
0.0494788
0.0489169
0.0484479
0.0480757
0.0478041
0.0476355
0.0475713
0.0476112
0.047754
0.0479964
0.0675716
0.0662694
0.0650149
0.0638076
0.0626479
0.0615371
0.0604765
0.0594682
0.0585131
0.0576131
0.0567709
0.0559884
0.0552703
0.0546206
0.0540436
0.053544
0.0531266
0.0527957
0.0525549
0.0524077
0.0523564
0.0524014
0.0525422
0.0527772
0.0697296
0.0686187
0.0675426
0.0665017
0.0654966
0.0645287
0.0636001
0.0627131
0.0618705
0.0610735
0.0603245
0.0596257
0.0589813
0.0583952
0.0578727
0.0574187
0.0570382
0.0567359
0.0565164
0.0563834
0.0563399
0.0563874
0.0565256
0.0567539
0.0716441
0.0706888
0.0697564
0.0688501
0.0679698
0.0671163
0.0662912
0.0654985
0.064743
0.0640273
0.0633519
0.062719
0.0621324
0.061596
0.0611146
0.0606957
0.060343
0.0600614
0.0598557
0.0597325
0.0596941
0.0597425
0.0598781
0.0601003
0.0733408
0.0725168
0.0716983
0.0709019
0.0701239
0.0693636
0.0686224
0.0679016
0.067214
0.0665613
0.0659454
0.0653668
0.0648269
0.0643325
0.063881
0.0634892
0.0631601
0.0628958
0.062697
0.0625798
0.0625447
0.0625934
0.0627267
0.0629435
0.0748513
0.0741459
0.073404
0.0726963
0.0720049
0.0713207
0.0706558
0.0699843
0.0693455
0.0687389
0.0681685
0.0676395
0.0671377
0.0666937
0.0662579
0.0658862
0.0655754
0.0653332
0.0651332
0.0650204
0.0649861
0.0650346
0.0651667
0.0653787
0.0116891
0.0139239
0.0154151
0.0168667
0.0184436
0.0201814
0.0220823
0.024134
0.0263227
0.0286353
0.0310609
0.0335912
0.0362186
0.0389368
0.0417403
0.0446232
0.0475795
0.0506025
0.0536851
0.05682
0.0599992
0.0632139
0.0664548
0.0697117
0.0260459
0.0265995
0.0273358
0.028256
0.0293586
0.0306373
0.0320819
0.03368
0.0354192
0.0372865
0.0392696
0.0413587
0.0435434
0.0458147
0.0481653
0.0505885
0.053078
0.0556277
0.058232
0.0608849
0.0635808
0.0663138
0.0690777
0.071874
0.0352957
0.0357886
0.0364235
0.0372032
0.0381263
0.0391892
0.0403861
0.0417095
0.0431509
0.0447018
0.0463529
0.0480961
0.0499235
0.0518281
0.0538029
0.0558427
0.0579418
0.0600952
0.0622984
0.0645467
0.0668356
0.069161
0.0715191
0.0739149
0.0425173
0.0429774
0.0435575
0.0442583
0.045078
0.0460138
0.0470605
0.048212
0.0494611
0.0508011
0.0522246
0.0537245
0.0552938
0.0569272
0.0586192
0.0603647
0.0621596
0.0639998
0.0658818
0.0678019
0.0697571
0.0717446
0.0737621
0.0758157
0.0483343
0.0487713
0.0493147
0.0499634
0.0507147
0.0515654
0.0525108
0.0535443
0.0546596
0.0558505
0.05711
0.0584319
0.0598104
0.0612403
0.0627172
0.0642365
0.0657949
0.0673887
0.0690151
0.0706716
0.0723557
0.0740658
0.0758006
0.0775685
0.0531028
0.0535217
0.054037
0.054647
0.0553487
0.056138
0.0570099
0.0579582
0.0589758
0.0600567
0.0611944
0.0623829
0.0636169
0.0648918
0.0662036
0.067548
0.0689214
0.0703213
0.0717445
0.0731894
0.0746542
0.0761376
0.0776389
0.0791674
0.0570694
0.0574733
0.0579662
0.0585457
0.0592092
0.0599516
0.0607678
0.0616515
0.0625953
0.0635922
0.064636
0.0657211
0.0668429
0.0679973
0.0691801
0.0703874
0.0716151
0.0728604
0.0741212
0.0753954
0.0766817
0.0779797
0.0792888
0.0806145
0.0604073
0.0607986
0.0612727
0.0618276
0.0624594
0.0631646
0.0639378
0.0647719
0.0656584
0.0665891
0.0675578
0.0685601
0.0695927
0.0706522
0.0717333
0.0728312
0.0739424
0.0750637
0.0761929
0.0773281
0.0784685
0.0796142
0.0807644
0.0819212
0.0632427
0.0636256
0.0640811
0.064615
0.0652198
0.0658946
0.0666343
0.0674309
0.0682732
0.0691488
0.0700544
0.0709883
0.0719494
0.0729331
0.0739338
0.074943
0.0759599
0.0769801
0.0780018
0.0790228
0.0800417
0.0810625
0.0820814
0.083094
0.0656645
0.066046
0.0664766
0.0669946
0.0675753
0.0682281
0.0689428
0.0697092
0.0705124
0.0713317
0.0721827
0.0730586
0.0739639
0.0748892
0.075826
0.0767606
0.0777025
0.0786394
0.0795735
0.0804982
0.0814094
0.0823307
0.0832688
0.0841546
0.0755396
0.0699768
0.0647594
0.059821
0.0551231
0.0506412
0.046361
0.0422759
0.0383834
0.0346842
0.0311796
0.0278737
0.0247716
0.0218776
0.0191939
0.0167188
0.0144482
0.0123774
0.0105206
0.00893316
0.00769041
0.00646973
0.00515059
0.00361732
0.0782141
0.0734321
0.0689324
0.0646551
0.0605633
0.0566313
0.0528452
0.0491975
0.0456863
0.0423124
0.0390778
0.0359857
0.0330437
0.0302683
0.0276902
0.0253475
0.0232243
0.0212176
0.0192321
0.0172117
0.0151307
0.0129426
0.0105865
0.00798246
0.0810816
0.0770255
0.0732083
0.0695749
0.0660888
0.0627243
0.0594651
0.0563045
0.053243
0.0502848
0.0474342
0.0446899
0.0420422
0.0394759
0.0369709
0.0345089
0.0320644
0.029607
0.0270972
0.0244922
0.0217481
0.0188231
0.0156738
0.0122539
0.0840614
0.0806731
0.0774892
0.0744584
0.0715441
0.0687106
0.0659308
0.0631902
0.0604824
0.0578046
0.0551537
0.0525251
0.0499107
0.0472983
0.0446723
0.0420128
0.0392982
0.0365027
0.0335951
0.0305402
0.0272988
0.0238301
0.0200938
0.0160534
0.0870982
0.0843004
0.0816692
0.0791329
0.0766408
0.0741631
0.0716839
0.0691933
0.0666857
0.0641577
0.0616044
0.05902
0.0563962
0.0537218
0.0509828
0.0481622
0.0452386
0.0421866
0.0389782
0.0355789
0.0319513
0.0280559
0.0238545
0.0193093
0.0901085
0.087796
0.0855626
0.0833506
0.0811302
0.0788842
0.0766017
0.0742747
0.0718989
0.0694677
0.0669759
0.0644169
0.0617811
0.0590566
0.0562297
0.0532825
0.0501946
0.046942
0.0434943
0.0398183
0.0358773
0.0316322
0.0270423
0.0220698
0.0929748
0.0910017
0.0890324
0.0870402
0.085009
0.0829279
0.0807874
0.0785803
0.0763
0.0739406
0.0714954
0.0689558
0.0663106
0.0635478
0.0606517
0.0576044
0.0543852
0.0509681
0.0473241
0.0434186
0.0392156
0.0346735
0.0297513
0.0244087
0.0956064
0.0938532
0.0920717
0.0902424
0.0883542
0.0863991
0.0843688
0.0822543
0.0800499
0.077748
0.0753405
0.0728171
0.0701664
0.0673731
0.0644216
0.0612929
0.0579652
0.0544123
0.0506023
0.0465018
0.0420749
0.0372766
0.0320633
0.026395
0.0979534
0.0963639
0.0947253
0.0930235
0.0912513
0.0893977
0.0874558
0.0854156
0.0832732
0.0810198
0.0786445
0.076137
0.0734835
0.0706644
0.0676664
0.0644685
0.0610501
0.0573827
0.0534326
0.0491603
0.0445416
0.0395216
0.0340511
0.0280897
0.100033
0.0985697
0.0970462
0.0954442
0.0937755
0.0920063
0.0901411
0.0881567
0.0860638
0.0838526
0.0815084
0.079015
0.0763657
0.0735202
0.0704816
0.0672198
0.0637221
0.0599605
0.0559031
0.0514635
0.046684
0.0414793
0.0357794
0.0295463
0.00185374
0.000908562
0.00111417
0.00141071
0.00169345
0.00197862
0.00228471
0.00263888
0.00307933
0.00364798
0.00432816
0.00510976
0.00599299
0.00698257
0.00808588
0.00931045
0.0106638
0.012154
0.01379
0.0155812
0.0175372
0.0196672
0.021981
0.024493
0.00504325
0.00234144
0.00148394
0.00170756
0.00201545
0.00234951
0.00273285
0.00319067
0.00374388
0.00441159
0.00516991
0.00601405
0.00694636
0.00797127
0.00909427
0.010321
0.0116573
0.0131101
0.0146867
0.0163948
0.0182425
0.0202383
0.0223906
0.0247003
0.00848885
0.00455478
0.00215506
0.00200857
0.00235383
0.00276353
0.00324335
0.00380579
0.00445731
0.00520732
0.00603252
0.00693125
0.00790607
0.00896019
0.0100977
0.0113222
0.0126386
0.0140521
0.0155687
0.0171948
0.018937
0.0208022
0.022798
0.0249332
0.0116356
0.00688301
0.00314599
0.00234036
0.00270706
0.00320382
0.00377955
0.00443472
0.00517015
0.00598891
0.00687139
0.00781699
0.00882775
0.00990565
0.0110528
0.0122719
0.0135668
0.0149417
0.016401
0.0179497
0.0195932
0.0213368
0.0231847
0.0251339
0.0143515
0.00898714
0.00428096
0.00272241
0.00307094
0.00365326
0.00431522
0.00504887
0.00585949
0.00673717
0.00766957
0.0086558
0.00969696
0.0107938
0.0119472
0.0131593
0.0144327
0.0157704
0.0171761
0.0186531
0.0202054
0.0218367
0.0235502
0.0253518
0.016652
0.0107904
0.0053937
0.00314669
0.00343827
0.0040982
0.00483589
0.00563922
0.00651448
0.00744395
0.0084201
0.00944197
0.0105089
0.0116208
0.0127782
0.0139824
0.015235
0.0165379
0.0178936
0.0193046
0.0207733
0.0223028
0.0238967
0.0255625
0.01859
0.0123066
0.00639681
0.00358929
0.0038012
0.00452904
0.00533381
0.00620018
0.0071307
0.00810598
0.00912085
0.0101734
0.0112623
0.0123867
0.0135465
0.0147423
0.015975
0.0172455
0.0185553
0.0199058
0.0212988
0.0227366
0.0242227
0.0257625
0.0202235
0.0135777
0.00726631
0.0040246
0.00415549
0.0049414
0.00580438
0.0067283
0.0077063
0.00872206
0.00977113
0.0108504
0.0119581
0.0130929
0.0142542
0.015442
0.0166561
0.0178969
0.0191647
0.0204602
0.0217845
0.0231394
0.0245267
0.0259483
0.0215986
0.0146335
0.00801305
0.0044477
0.00448383
0.00531829
0.00623626
0.00721426
0.0082362
0.00928955
0.0103702
0.0114745
0.0126001
0.0137452
0.0149085
0.0160892
0.0172864
0.0184993
0.0197279
0.0209728
0.0222343
0.0235137
0.0248115
0.0261261
0.0227344
0.0154174
0.00845429
0.00471948
0.00485188
0.00576217
0.00672123
0.00773961
0.00879688
0.00988657
0.010997
0.0121212
0.0132595
0.0144104
0.015569
0.0167377
0.0179121
0.0190883
0.0202715
0.0214613
0.0226602
0.023873
0.0250955
0.0263128
0.00041944
0.0014108
0.00294985
0.00476816
0.00658723
0.00838685
0.0101794
0.0119669
0.0137513
0.0155355
0.0173236
0.0191214
0.0209331
0.0227602
0.0246062
0.0265104
0.0285349
0.0307046
0.0329729
0.035498
0.0383564
0.0414692
0.0447705
0.0482011
0.000316422
0.00082964
0.00192524
0.00343215
0.00502662
0.00659766
0.00815795
0.00972773
0.0113269
0.0129642
0.0146411
0.0163579
0.0181149
0.0199129
0.0217553
0.0236544
0.0256378
0.0277356
0.0299615
0.0323878
0.03507
0.037931
0.0411668
0.0446799
0.00016865
0.000519646
0.00122748
0.00222742
0.00353402
0.00517318
0.00701042
0.00878526
0.0104916
0.0121481
0.0137747
0.015389
0.0170069
0.0186442
0.0203176
0.0220458
0.023853
0.0257701
0.0278327
0.0300874
0.0325812
0.035314
0.0383545
0.0416104
0.000182314
0.000431447
0.00100274
0.00180453
0.00285792
0.00419501
0.00585374
0.00773543
0.00962066
0.0114646
0.0132588
0.0149978
0.0166803
0.018312
0.0199083
0.0214941
0.023104
0.0247823
0.0265821
0.0285628
0.0307842
0.0332895
0.0361143
0.0392292
0.00015272
0.000375359
0.000865148
0.00155514
0.00246136
0.00360823
0.00502789
0.00675695
0.00872603
0.0107153
0.0126685
0.0145733
0.0164193
0.0181938
0.0198876
0.021502
0.0230549
0.0245847
0.0261515
0.0278331
0.0297172
0.0318876
0.0344072
0.0372936
0.000146054
0.000342583
0.000782116
0.00139764
0.00220767
0.00323178
0.0044994
0.00604539
0.00790451
0.00995127
0.0120197
0.014062
0.0160611
0.0180011
0.0198613
0.021622
0.0232716
0.0248174
0.0262946
0.0277725
0.0293518
0.0311522
0.0332895
0.0358645
0.000134529
0.000316856
0.000718074
0.00127902
0.00202006
0.00295595
0.00411278
0.00552215
0.00722051
0.0092236
0.011361
0.013511
0.0156361
0.017718
0.0197367
0.0216667
0.0234811
0.0251589
0.026698
0.0281301
0.0295323
0.0310288
0.0327732
0.0349111
0.000128906
0.000301018
0.000670918
0.00119043
0.00187859
0.00274737
0.00382065
0.0051276
0.00670251
0.00858245
0.010721
0.0129434
0.0151697
0.0173708
0.0195261
0.0216112
0.0235954
0.0254456
0.027134
0.0286526
0.0300329
0.0313642
0.0327968
0.0345107
0.000124788
0.000292829
0.000633266
0.00112015
0.00176506
0.00258049
0.00358737
0.00481278
0.00628864
0.00805166
0.0101244
0.012379
0.0146829
0.016983
0.0192546
0.0214742
0.0236124
0.0256333
0.0274979
0.0291735
0.0306496
0.0319638
0.033223
0.0345948
0.000122593
0.000288984
0.000603219
0.00106371
0.00167276
0.00244464
0.00339744
0.00455646
0.00595183
0.00761861
0.00959339
0.0118358
0.0141903
0.0165708
0.0189409
0.0212764
0.0235499
0.0257263
0.0277638
0.0296181
0.0312529
0.03266
0.0338886
0.0350612
0.000120923
0.000286634
0.000578386
0.00101685
0.0015962
0.00233187
0.00323977
0.00434358
0.0056719
0.00725791
0.00913936
0.0113295
0.0137056
0.0161478
0.0186007
0.0210359
0.0234271
0.0257415
0.0279379
0.0299683
0.0317831
0.0333447
0.034651
0.0357624
0.000119789
0.000284875
0.000557989
0.000978028
0.00153248
0.00223789
0.00310803
0.00416546
0.00543728
0.00695538
0.00875629
0.0108725
0.0132415
0.0157257
0.0182471
0.0207678
0.0232613
0.0256969
0.0280356
0.0302295
0.0322237
0.0339642
0.0354136
0.0365765
0.000119032
0.000283569
0.000541222
0.00094578
0.00147931
0.00215919
0.00299755
0.00401566
0.0052396
0.0066997
0.00843143
0.0104721
0.012809
0.0153156
0.0178912
0.0204852
0.0230675
0.0256093
0.0280743
0.0304161
0.0325791
0.0345019
0.0361268
0.0374232
0.000118635
0.000282545
0.00052752
0.000919257
0.00143524
0.00209352
0.00290497
0.00388984
0.00507302
0.00648382
0.00815624
0.0101283
0.0124165
0.0149269
0.0175432
0.0201992
0.0228591
0.0254943
0.0280707
0.030545
0.0328627
0.0349603
0.0367703
0.0382384
0.000118551
0.000281924
0.000516352
0.000897551
0.00139926
0.00203875
0.00282751
0.00378426
0.00493291
0.00630172
0.00792355
0.00983575
0.0120684
0.0145671
0.0172112
0.0199196
0.0226478
0.0253654
0.0280408
0.0306331
0.0330909
0.0353509
0.0373416
0.0389916
0.0001187
0.000281468
0.000507165
0.000879528
0.00136938
0.00199299
0.00276269
0.0036958
0.00481529
0.0061484
0.00772694
0.00958753
0.0117657
0.0142411
0.0169017
0.0196536
0.0224421
0.0252338
0.0279977
0.0306961
0.0332803
0.0356896
0.0378522
0.039692
0.000119122
0.000281153
0.000499671
0.00086456
0.00134442
0.00195475
0.0027084
0.00362165
0.00471646
0.00601939
0.00756117
0.00937744
0.0115061
0.0139505
0.0166183
0.0194058
0.0222485
0.0251075
0.0279519
0.0307462
0.0334451
0.0359908
0.0383136
0.0403351
0.000119733
0.000280928
0.00049363
0.000852007
0.00132346
0.00192251
0.00266267
0.00355909
0.00463315
0.00591035
0.00742087
0.0091994
0.0112841
0.0136944
0.0163615
0.0191783
0.0220697
0.024991
0.0279096
0.0307919
0.0335955
0.036266
0.0387361
0.0409266
0.000120523
0.000280799
0.000488886
0.000841446
0.00130566
0.00189515
0.0026238
0.00350598
0.00456229
0.0058177
0.00730143
0.00904747
0.011094
0.0134695
0.0161302
0.0189703
0.0219062
0.0248856
0.0278738
0.0308378
0.0337379
0.0365227
0.0391278
0.0414751
0.000121485
0.000280824
0.000485329
0.000832439
0.0012904
0.0018716
0.00259043
0.00346032
0.00450141
0.00573804
0.00719879
0.00891675
0.0109298
0.0132719
0.0159212
0.0187797
0.0217559
0.0247902
0.0278442
0.0308849
0.0338745
0.0367644
0.0394926
0.0419812
0.000122523
0.000280949
0.000482768
0.000824723
0.00127718
0.00185111
0.00256135
0.00342063
0.00444846
0.00566874
0.0071093
0.00880279
0.0107864
0.0130971
0.0157314
0.0186034
0.021616
0.0247023
0.0278191
0.0309326
0.0340063
0.0369944
0.0398379
0.0424643
0.000123666
0.000281204
0.000481082
0.000818009
0.00126546
0.00183296
0.00253562
0.00338547
0.00440158
0.00560743
0.00703032
0.0087021
0.0106596
0.0129411
0.0155575
0.0184382
0.0214835
0.0246188
0.0277956
0.0309783
0.0341312
0.0372101
0.0401572
0.0428963
0.000124846
0.000281533
0.00048002
0.000812026
0.00125497
0.00181665
0.00251248
0.00335387
0.00435952
0.00555237
0.00695935
0.00861174
0.0105456
0.0128002
0.0153964
0.0182813
0.0213552
0.0245366
0.0277711
0.0310205
0.0342489
0.0374137
0.0404595
0.0433147
0.000126034
0.000281925
0.000479434
0.000806644
0.0012454
0.00180172
0.0024913
0.00332499
0.00432111
0.00550218
0.00689468
0.00852939
0.0104418
0.0126713
0.0152461
0.0181306
0.0212288
0.0244531
0.0277429
0.0310566
0.0343577
0.0376045
0.040743
0.0437006
0.000127217
0.000282365
0.000479224
0.00080176
0.00123657
0.00178788
0.00247166
0.00329821
0.0042855
0.00545569
0.00683488
0.00845328
0.0103459
0.0125519
0.0151046
0.0179845
0.0211024
0.0243661
0.0277087
0.0310846
0.0344562
0.0377826
0.0410123
0.0440788
0.000128363
0.000282838
0.000479257
0.000797261
0.00122838
0.00177498
0.00245323
0.00327305
0.00425206
0.00541209
0.00677884
0.00838206
0.0102562
0.0124403
0.0149706
0.0178419
0.0209748
0.0242739
0.0276664
0.0311021
0.0345416
0.0379445
0.0412599
0.0444211
0.000129469
0.000283335
0.000479456
0.000793066
0.00122073
0.001763
0.0024358
0.00324918
0.00422031
0.00537075
0.00672576
0.00831471
0.0101715
0.0123348
0.014843
0.0177022
0.0208453
0.0241757
0.0276148
0.0311078
0.0346131
0.0380899
0.0414889
0.0447453
0.000130529
0.000283847
0.000479758
0.000789083
0.00121345
0.00175161
0.00241912
0.00322634
0.00419001
0.00533129
0.00667514
0.00825052
0.0100909
0.0122345
0.0147209
0.0175655
0.0207142
0.0240713
0.0275536
0.0311012
0.0346697
0.0382181
0.0416985
0.0450488
0.000131537
0.000284368
0.000480122
0.000785274
0.00120647
0.0017407
0.00240312
0.00320446
0.00416097
0.00529351
0.00662669
0.00818914
0.0100138
0.0121386
0.0146037
0.0174317
0.0205816
0.0239611
0.0274828
0.031082
0.0347112
0.0383287
0.0418874
0.0453279
0.000132518
0.000284904
0.000480552
0.000781647
0.00119979
0.00173024
0.00238779
0.00318349
0.00413317
0.00525732
0.00658029
0.00813033
0.00994002
0.0120468
0.0144912
0.0173012
0.0204484
0.0238458
0.0274031
0.0310508
0.0347383
0.0384227
0.0420573
0.045584
0.000133472
0.000285455
0.000481034
0.000778186
0.0011934
0.00172023
0.00237312
0.00316345
0.00410657
0.00522271
0.00653592
0.00807408
0.00986945
0.0119589
0.0143833
0.0171744
0.0203153
0.0237262
0.0273149
0.0310078
0.0347507
0.0384995
0.0422082
0.0458189
0.000134376
0.00028601
0.000481506
0.000774873
0.00118727
0.00171066
0.00235913
0.00314432
0.0040812
0.00518973
0.00649363
0.00802049
0.00980217
0.0118752
0.0142802
0.017052
0.0201838
0.023604
0.02722
0.0309543
0.0347492
0.038559
0.0423386
0.0460354
0.000135252
0.000286574
0.000481997
0.000771738
0.00118145
0.00170157
0.00234583
0.00312613
0.00405709
0.00515837
0.00645346
0.00796961
0.00973833
0.0117957
0.0141822
0.0169348
0.0200553
0.0234811
0.0271204
0.0308922
0.0347355
0.0386021
0.0424471
0.0462176
0.000136108
0.000287141
0.000482494
0.000768777
0.00117594
0.00169295
0.00233322
0.00310891
0.00403424
0.00512869
0.00641544
0.00792149
0.00967797
0.0117206
0.0140896
0.0168235
0.0199315
0.0233599
0.027019
0.0308252
0.0347134
0.0386334
0.0425388
0.0463765
0.000136959
0.000287721
0.000483028
0.000766025
0.00117078
0.00168484
0.00232132
0.00309264
0.00401269
0.00510066
0.00637954
0.00787605
0.009621
0.0116498
0.0140024
0.0167183
0.0198131
0.023242
0.0269183
0.0307563
0.0346874
0.038659
0.0426239
0.04653
0.000137792
0.000288296
0.000483553
0.000763452
0.00116593
0.00167721
0.00231013
0.00307736
0.00399242
0.00507427
0.00634572
0.00783323
0.0095673
0.011583
0.0139202
0.0166191
0.0197003
0.0231281
0.0268196
0.0306874
0.03466
0.0386823
0.0427063
0.0466815
0.000138615
0.000288874
0.000484091
0.000761073
0.00116141
0.0016701
0.00229968
0.00306304
0.0039734
0.0050495
0.00631394
0.00779294
0.00951677
0.0115202
0.0138426
0.0165252
0.0195926
0.0230179
0.0267226
0.0306185
0.0346314
0.0387034
0.0427857
0.0468283
0.000139435
0.000289453
0.000484645
0.000758888
0.00115723
0.0016635
0.00228996
0.00304971
0.00395567
0.00502639
0.00628424
0.00775521
0.00946933
0.011461
0.0137695
0.0164363
0.0194898
0.022911
0.0266268
0.0305489
0.0346005
0.0387212
0.0428612
0.0469706
0.00014025
0.000290033
0.000485205
0.00075688
0.00115337
0.00165738
0.00228095
0.00303735
0.00393921
0.0050049
0.00625657
0.00772002
0.00942499
0.0114056
0.0137009
0.0163525
0.0193919
0.0228074
0.026532
0.0304779
0.0345658
0.038733
0.0429286
0.0471047
0.000141064
0.000290611
0.000485772
0.000755042
0.0011498
0.00165174
0.00227262
0.00302591
0.00392399
0.00498501
0.00623094
0.00768737
0.00938379
0.0113541
0.0136369
0.016274
0.0192993
0.022708
0.0264392
0.0304062
0.0345276
0.0387379
0.0429838
0.0472161
0.000141874
0.000291184
0.000486339
0.00075336
0.00114651
0.00164652
0.00226491
0.00301535
0.00390993
0.00496664
0.00620728
0.0076572
0.00934569
0.0113063
0.0135775
0.0162011
0.0192127
0.0226138
0.0263498
0.0303358
0.0344886
0.0387395
0.0430325
0.047315
0.000142679
0.000291748
0.000486901
0.000751823
0.00114348
0.0016417
0.0022578
0.00300561
0.00389697
0.0049497
0.00618545
0.00762938
0.00931054
0.0112623
0.0135227
0.0161336
0.0191324
0.0225257
0.0262655
0.030269
0.0344518
0.0387425
0.0430826
0.0474181
0.000143487
0.000292306
0.000487462
0.000750417
0.00114068
0.00163725
0.00225123
0.00299661
0.00388501
0.00493411
0.00616535
0.00760377
0.0092782
0.0112217
0.0134721
0.0160714
0.019058
0.0224436
0.0261865
0.0302067
0.0344188
0.0387494
0.0431389
0.0475353
0.000144301
0.000292858
0.000488033
0.000749135
0.00113809
0.00163314
0.00224516
0.0029883
0.00387398
0.00491971
0.00614683
0.00758018
0.0092484
0.0111844
0.0134257
0.016014
0.0189893
0.0223673
0.0261127
0.0301486
0.0343889
0.0387582
0.0431944
0.0476434
0.000145102
0.000293396
0.00048858
0.000747954
0.00113569
0.00162931
0.0022395
0.00298058
0.00386374
0.00490638
0.0061297
0.00755839
0.00922091
0.0111499
0.0133828
0.0159611
0.0189258
0.0222964
0.0260439
0.0300947
0.0343626
0.0387699
0.0432525
0.0477561
0.000145884
0.000293916
0.000489094
0.000746866
0.00113345
0.00162574
0.00223423
0.00297338
0.0038542
0.00489398
0.00611378
0.00753817
0.00919544
0.0111181
0.0133431
0.0159122
0.0188669
0.0222304
0.0259795
0.0300444
0.0343393
0.0387846
0.0433138
0.0478686
0.000146669
0.000294419
0.000489592
0.000745879
0.00113137
0.00162241
0.00222929
0.00296663
0.00384527
0.00488238
0.00609892
0.00751932
0.00917172
0.0110884
0.0133063
0.0158669
0.0188123
0.0221688
0.0259189
0.0299971
0.0343179
0.0388006
0.0433773
0.0479908
0.000147477
0.000294917
0.000490133
0.000745014
0.00112946
0.0016193
0.00222467
0.00296031
0.00383688
0.00487146
0.00608493
0.00750159
0.00914946
0.0110607
0.0132719
0.0158246
0.0187613
0.0221111
0.0258618
0.0299521
0.0342975
0.0388158
0.0434378
0.0481062
0.000148278
0.000295404
0.000490673
0.000744221
0.00112768
0.0016164
0.00222035
0.00295435
0.00382896
0.00486114
0.00607168
0.0074848
0.0091284
0.0110344
0.0132395
0.0157848
0.0187134
0.0220568
0.025808
0.0299097
0.0342783
0.0388301
0.0434937
0.0482111
0.000149057
0.000295881
0.000491196
0.000743511
0.00112604
0.00161371
0.00221631
0.00294876
0.00382149
0.00485136
0.0060591
0.00746881
0.0091083
0.0110094
0.0132086
0.0157469
0.0186679
0.0220053
0.0257569
0.0298699
0.0342615
0.0388463
0.043549
0.0483043
0.000149826
0.00029635
0.000491712
0.000742882
0.00112453
0.00161122
0.00221255
0.00294354
0.00381444
0.0048421
0.00604713
0.00745355
0.00908906
0.0109854
0.0131788
0.0157105
0.0186241
0.0219556
0.0257074
0.0298314
0.0342463
0.0388659
0.0436137
0.048426
0.000150573
0.000296804
0.000492203
0.000742322
0.00112315
0.00160892
0.00220904
0.00293863
0.00380784
0.00483339
0.0060358
0.00743901
0.00907062
0.0109623
0.0131501
0.0156752
0.0185814
0.0219067
0.0256579
0.029792
0.0342295
0.0388829
0.0436736
0.048535
0.000151314
0.000297247
0.000492683
0.000741838
0.00112189
0.0016068
0.0022058
0.00293409
0.0038017
0.00482523
0.00602513
0.00742524
0.00905307
0.0109401
0.0131224
0.0156408
0.0185397
0.0218582
0.025608
0.0297509
0.0342098
0.0388966
0.0437309
0.0486446
0.000152063
0.000297687
0.000493184
0.000741435
0.00112075
0.00160485
0.00220282
0.0029299
0.003796
0.00481761
0.00601515
0.00741231
0.00903647
0.010919
0.0130958
0.0156077
0.018499
0.0218104
0.0255575
0.0297075
0.0341861
0.0389052
0.0437822
0.0487482
0.000152802
0.000298112
0.000493671
0.000741091
0.00111973
0.00160309
0.00220007
0.00292605
0.00379073
0.00481057
0.00600578
0.00740016
0.00902088
0.0108992
0.0130707
0.0155761
0.0184598
0.0217638
0.0255069
0.0296621
0.034158
0.0389064
0.0438228
0.0488335
0.000153524
0.000298532
0.00049414
0.000740799
0.00111875
0.00160143
0.00219753
0.00292242
0.00378576
0.00480398
0.00599719
0.00738891
0.00900644
0.0108807
0.0130472
0.0155464
0.0184229
0.0217192
0.0254578
0.0296163
0.0341273
0.0389026
0.0438568
0.048914
0.000154244
0.000298937
0.00049461
0.000740553
0.0011179
0.00159989
0.00219517
0.00291909
0.00378122
0.00479782
0.0059891
0.00737849
0.00899289
0.0108634
0.0130253
0.0155188
0.0183884
0.0216776
0.0254114
0.0295724
0.0340965
0.038897
0.0438869
0.048991
0.000154963
0.000299347
0.000495102
0.000740391
0.00111714
0.00159857
0.00219303
0.00291602
0.00377697
0.00479216
0.00598156
0.00736867
0.00898034
0.0108473
0.0130049
0.0154931
0.0183566
0.0216391
0.0253686
0.0295318
0.0340683
0.038892
0.0439152
0.0490611
0.000155659
0.000299739
0.000495567
0.000740252
0.00111649
0.00159736
0.00219109
0.00291318
0.00377306
0.00478686
0.00597458
0.00735955
0.00896847
0.0108323
0.0129858
0.0154692
0.0183268
0.0216034
0.025329
0.0294949
0.0340438
0.0388905
0.0439455
0.0491267
0.000156352
0.000300103
0.00049601
0.000740226
0.00111599
0.00159635
0.00218938
0.0029107
0.00376952
0.00478197
0.00596799
0.00735089
0.00895738
0.010818
0.0129678
0.0154466
0.0182987
0.0215697
0.0252918
0.0294606
0.0340225
0.0388936
0.0439841
0.049214
0.000157042
0.000300481
0.000496479
0.000740209
0.00111556
0.0015955
0.00218793
0.00290842
0.00376623
0.00477745
0.00596195
0.00734282
0.00894682
0.0108045
0.0129506
0.015425
0.018272
0.0215374
0.025256
0.0294271
0.0340014
0.0388958
0.04402
0.0492914
0.000157679
0.000300846
0.0004969
0.000740281
0.0011153
0.00159483
0.00218675
0.00290649
0.00376339
0.00477339
0.00595631
0.00733529
0.00893687
0.0107916
0.0129342
0.0154043
0.0182461
0.0215062
0.025221
0.0293939
0.0339793
0.0388957
0.0440513
0.0493617
0.000158363
0.000301216
0.000497398
0.000740447
0.00111517
0.00159441
0.00218586
0.00290496
0.00376094
0.00476985
0.00595133
0.00732841
0.00892775
0.0107795
0.0129187
0.0153844
0.0182214
0.021476
0.0251869
0.0293612
0.0339571
0.0388944
0.04408
0.0494261
0.000159011
0.000301568
0.000497868
0.000740631
0.00111514
0.00159413
0.00218522
0.00290368
0.00375894
0.00476674
0.00594686
0.00732227
0.00891928
0.0107684
0.0129039
0.0153655
0.0181974
0.0214467
0.0251535
0.0293288
0.0339352
0.0388939
0.044111
0.0494949
0.000159647
0.000301891
0.000498297
0.000740869
0.00111523
0.00159407
0.00218482
0.0029028
0.00375738
0.0047643
0.00594313
0.00731686
0.0089118
0.0107581
0.0128903
0.0153475
0.0181744
0.021418
0.0251202
0.029296
0.0339122
0.0388931
0.0441453
0.0495805
0.000160289
0.000302234
0.000498766
0.00074115
0.00111542
0.00159416
0.0021847
0.00290227
0.00375626
0.0047624
0.00594018
0.00731237
0.0089053
0.010749
0.0128779
0.015331
0.0181526
0.0213904
0.0250874
0.0292619
0.0338859
0.0388861
0.0441688
0.0496409
0.000160873
0.00030256
0.000499155
0.000741475
0.00111575
0.00159441
0.00218482
0.0029021
0.00375567
0.00476111
0.00593789
0.00730877
0.00889993
0.0107413
0.012867
0.0153162
0.0181327
0.0213645
0.0250557
0.0292279
0.0338572
0.0388738
0.0441841
0.0496929
0.000161481
0.000302885
0.000499584
0.000741882
0.00111621
0.00159492
0.00218525
0.00290234
0.00375553
0.00476047
0.00593648
0.0073062
0.00889586
0.0107351
0.012858
0.0153035
0.0181153
0.0213413
0.0250268
0.0291959
0.0338295
0.0388604
0.0441969
0.0497428
0.000162082
0.00030319
0.000500001
0.000742323
0.0011168
0.00159559
0.00218596
0.0029029
0.00375588
0.00476033
0.00593572
0.00730459
0.00889283
0.0107303
0.0128508
0.015293
0.0181006
0.0213216
0.0250015
0.0291677
0.0338046
0.0388491
0.0442102
0.0497944
0.000162698
0.000303505
0.000500455
0.000742862
0.00111753
0.00159652
0.00218694
0.00290386
0.00375668
0.0047609
0.00593574
0.00730386
0.00889109
0.010727
0.0128455
0.0152848
0.0180889
0.0213052
0.0249805
0.029144
0.0337839
0.0388401
0.044223
0.0498388
0.000163305
0.000303823
0.000500906
0.00074343
0.0011184
0.00159763
0.00218824
0.00290519
0.003758
0.00476204
0.00593657
0.00730407
0.00889036
0.0107251
0.0128417
0.0152788
0.0180797
0.0212923
0.0249638
0.0291254
0.0337688
0.0388359
0.0442369
0.0498758
0.000163865
0.000304095
0.000501282
0.000744107
0.00111948
0.00159902
0.00218987
0.00290704
0.00375989
0.00476385
0.00593807
0.00730512
0.00889075
0.0107244
0.0128397
0.0152747
0.018073
0.0212825
0.024951
0.0291122
0.0337605
0.0388403
0.0442595
0.0499099
0.000164446
0.000304386
0.000501704
0.000744871
0.00112069
0.00160064
0.00219187
0.00290927
0.00376228
0.00476633
0.00594051
0.0073072
0.00889232
0.0107251
0.012839
0.0152724
0.0180685
0.0212752
0.0249414
0.0291028
0.0337583
0.0388555
0.0443058
0.0500107
0.000165028
0.000304661
0.000502139
0.000745731
0.00112213
0.00160254
0.00219426
0.00291205
0.00376538
0.00476953
0.00594377
0.0073104
0.00889499
0.010727
0.0128398
0.0152717
0.0180656
0.0212699
0.0249337
0.0290952
0.033757
0.0388707
0.0443495
0.050096
0.000165615
0.000304942
0.000502608
0.000746726
0.00112378
0.00160481
0.00219706
0.00291539
0.00376911
0.00477364
0.00594802
0.00731465
0.0088991
0.0107305
0.0128425
0.0152728
0.0180648
0.0212665
0.024928
0.0290891
0.033756
0.038883
0.0443838
0.0501564
0.000166184
0.000305209
0.000503077
0.000747814
0.00112566
0.00160736
0.0022003
0.00291924
0.00377359
0.00477856
0.00595336
0.00732021
0.00890454
0.0107357
0.0128469
0.015276
0.0180662
0.0212656
0.0249247
0.0290853
0.0337571
0.0388982
0.0444234
0.0502317
0.000166755
0.00030545
0.000503543
0.000749047
0.00112773
0.00161026
0.00220398
0.00292371
0.00377876
0.00478443
0.00595974
0.00732698
0.00891159
0.0107426
0.0128534
0.0152816
0.0180701
0.0212674
0.0249241
0.0290841
0.0337604
0.0389147
0.0444638
0.0503082