/*--------------------------------*- C++ -*----------------------------------*\
| =========                 |                                                 |
| \\      /  F ield         | OpenFOAM: The Open Source CFD Toolbox           |
|  \\    /   O peration     | Version:  2.3.0                                 |
|   \\  /    A nd           | Web:      www.OpenFOAM.org                      |
|    \\/     M anipulation  |                                                 |
\*---------------------------------------------------------------------------*/
FoamFile
{
    version     2.0;
    format      ascii;
    class       surfaceScalarField;
    location    "5000";
    object      phi;
}
// * * * * * * * * * * * * * * * * * * * * * * * * * * * * * * * * * * * * * //

dimensions      [0 3 -1 0 0 0 0];

internalField   nonuniform List<scalar> 
29348
(
-0.0114516
-0.0109398
0.0121467
0.0102446
-0.012485
-0.00996026
0.0109937
-0.0133735
-0.0090607
0.00994914
-0.0141216
-0.00824541
0.00899359
-0.0147498
-0.00749444
0.00812258
-0.0152682
-0.00681007
0.00732847
-0.0156827
-0.00618135
0.00659584
-0.0159976
-0.00560574
0.00592064
-0.0162165
-0.00507829
0.00529719
-0.0163422
-0.00458989
0.00471562
-0.0163751
-0.00414229
0.00417518
-0.0163172
-0.00372701
0.00366909
-0.0161739
-0.00334263
0.00319937
-0.0159509
-0.0029844
0.00276139
-0.0156568
-0.00265157
0.00235745
-0.0153039
-0.00234042
0.00198751
-0.0149001
-0.00205141
0.00164757
-0.0144623
-0.00178009
0.00134234
-0.0140002
-0.00152743
0.00106533
-0.0135297
-0.00128906
0.00081852
-0.0130581
-0.00107066
0.000599028
-0.0126042
-0.000869272
0.000415344
-0.0121915
-0.000688238
0.000275575
-0.000524426
-0.011934
0.000266968
-0.0102263
-0.00989835
0.00918482
-0.011119
-0.00906754
-0.011865
-0.00831466
-0.0124878
-0.00762268
-0.0129928
-0.00698941
-0.0133957
-0.00640712
-0.0137036
-0.00587344
-0.0139285
-0.00538087
-0.0140785
-0.00492831
-0.0141563
-0.00451207
-0.0141731
-0.00412548
-0.014131
-0.00376912
-0.0140346
-0.00343902
-0.0138867
-0.00313235
-0.0136899
-0.00284834
-0.0134438
-0.0025865
-0.0131529
-0.00234236
-0.012814
-0.00211903
-0.01243
-0.00191141
-0.0119944
-0.00172464
-0.0115123
-0.00155281
-0.0109796
-0.00140197
-0.0104009
-0.00126689
-0.00115192
-0.00977342
-0.00914048
-0.00898235
0.00822448
-0.00991054
-0.00829748
-0.0105553
-0.00766992
-0.011081
-0.00709699
-0.0115065
-0.00656389
-0.0118323
-0.00608133
-0.0120725
-0.00563321
-0.012234
-0.00521938
-0.0123226
-0.00483973
-0.0123457
-0.0044889
-0.0123084
-0.00416278
-0.0122173
-0.00386025
-0.0120758
-0.00358047
-0.0118895
-0.00331866
-0.0116611
-0.00307681
-0.0113962
-0.00285132
-0.0110978
-0.00264077
-0.0107703
-0.00244661
-0.0104156
-0.00226609
-0.0100379
-0.00210229
-0.00963894
-0.00195179
-0.00922542
-0.00181549
-0.00879459
-0.00169772
-0.00159357
-0.00835294
-0.00817334
-0.00818693
0.00737791
-0.00884545
-0.00762537
-0.00940449
-0.00711089
-0.00986535
-0.00663613
-0.0102245
-0.00620474
-0.0105031
-0.0058027
-0.0107024
-0.00543388
-0.0108311
-0.00509073
-0.0108957
-0.0047751
-0.0109038
-0.00448081
-0.0108596
-0.00420704
-0.0107681
-0.00395169
-0.0106328
-0.00371575
-0.0104569
-0.00349462
-0.0102468
-0.00328692
-0.0100046
-0.00309348
-0.00973231
-0.00291306
-0.00943454
-0.00274439
-0.00911201
-0.00258861
-0.0087703
-0.002444
-0.00840874
-0.00231335
-0.00803038
-0.00219385
-0.00764115
-0.00208695
-0.00199193
-0.00724278
-0.00731441
-0.00747923
0.00660671
-0.00791052
-0.00702926
-0.00840079
-0.00662062
-0.00879696
-0.00623996
-0.0091141
-0.0058876
-0.00935231
-0.00556448
-0.00952128
-0.00526492
-0.00962763
-0.00498437
-0.00967759
-0.00472515
-0.00967471
-0.00448368
-0.0096267
-0.00425506
-0.00953412
-0.00404427
-0.00940417
-0.0038457
-0.00924093
-0.00365786
-0.009046
-0.00348185
-0.00882335
-0.00331613
-0.00857584
-0.00316057
-0.00830513
-0.0030151
-0.00801535
-0.00287839
-0.00770766
-0.00275169
-0.00738667
-0.00263433
-0.00705211
-0.00252841
-0.00670755
-0.00243151
-0.00234571
-0.00635377
-0.00655525
-0.00685026
0.00592628
-0.00708089
-0.00650362
-0.00751793
-0.00618358
-0.00786973
-0.00588817
-0.00814624
-0.00561109
-0.0083551
-0.00535563
-0.00850373
-0.00511628
-0.00859365
-0.00489446
-0.00863485
-0.00468395
-0.00863037
-0.00448816
-0.00858054
-0.00430489
-0.00849465
-0.00413015
-0.00837756
-0.00396279
-0.00822626
-0.00380917
-0.0080493
-0.0036588
-0.00784613
-0.0035193
-0.00762193
-0.00338477
-0.00737842
-0.00325861
-0.00711623
-0.00314058
-0.00683877
-0.00302915
-0.00654807
-0.00292503
-0.00624568
-0.0028308
-0.00593441
-0.00274279
-0.00266494
-0.00561517
-0.00588145
-0.00629035
0.00532154
-0.00635043
-0.00603464
-0.00673848
-0.00579552
-0.00705178
-0.00557487
-0.00729868
-0.00536419
-0.00748577
-0.00516854
-0.00761531
-0.00498674
-0.00769535
-0.00481441
-0.00772714
-0.00465216
-0.00772013
-0.00449517
-0.00767538
-0.00434963
-0.0075984
-0.00420713
-0.00748813
-0.00407306
-0.00735265
-0.00394465
-0.00718964
-0.00382181
-0.00700731
-0.00370164
-0.00680407
-0.00358801
-0.0065821
-0.00348058
-0.00634634
-0.00337634
-0.00609536
-0.00328013
-0.00583272
-0.00318767
-0.00556047
-0.00310305
-0.00527824
-0.00302502
-0.0029544
-0.00498878
-0.00528396
-0.00579022
0.00478383
-0.005704
-0.0056146
-0.00605045
-0.00544907
-0.00633316
-0.00529216
-0.00655242
-0.00514493
-0.0067171
-0.00500385
-0.00683255
-0.0048713
-0.00690247
-0.00474449
-0.00693561
-0.00461902
-0.00692811
-0.00450267
-0.00688648
-0.00439126
-0.00681428
-0.00427933
-0.00671582
-0.00417151
-0.00659268
-0.00406779
-0.00644727
-0.00396722
-0.00627908
-0.00386982
-0.00609411
-0.00377297
-0.0058947
-0.00367999
-0.00567941
-0.00359162
-0.00545336
-0.00350618
-0.00521505
-0.00342598
-0.00496707
-0.00335103
-0.00471116
-0.00328093
-0.00321728
-0.00444828
-0.00475119
-0.00533993
0.00430089
-0.00512942
-0.00523637
-0.0054412
-0.00513729
-0.00569345
-0.00503991
-0.00589243
-0.00494595
-0.00604113
-0.00485515
-0.00614524
-0.00476719
-0.00620946
-0.00468027
-0.00623422
-0.00459426
-0.00622575
-0.00451114
-0.00619134
-0.00442568
-0.0061278
-0.00434287
-0.00603664
-0.00426267
-0.00592347
-0.00418096
-0.00579006
-0.00410063
-0.00564091
-0.00401898
-0.00547426
-0.00393962
-0.00529235
-0.00386191
-0.00509661
-0.00378736
-0.00489058
-0.00371221
-0.00467454
-0.00364201
-0.00445015
-0.00357542
-0.00421828
-0.00351281
-0.0034561
-0.00397945
-0.00427605
-0.00493581
0.00387193
-0.00461712
-0.00489529
-0.00489895
-0.00485546
-0.00512812
-0.00481074
-0.00530576
-0.00476831
-0.00543925
-0.00472166
-0.00553511
-0.00467133
-0.00559155
-0.00462382
-0.00561481
-0.00457101
-0.00561096
-0.00451498
-0.00557654
-0.0044601
-0.00551738
-0.00440202
-0.00543685
-0.0043432
-0.00533382
-0.00428399
-0.00521257
-0.00422188
-0.00507589
-0.00415566
-0.00492386
-0.00409165
-0.00476113
-0.00402464
-0.00458347
-0.00396502
-0.00439567
-0.00390001
-0.00419949
-0.00383819
-0.003996
-0.00377892
-0.00378481
-0.00372399
-0.00356795
-0.00367296
-0.0107925
-0.000440969
-0.000700514
-0.00991605
-0.000460767
-0.000415725
-0.00914648
-0.000512741
-0.000256824
-0.00844135
-0.00058161
-0.00012351
-0.00778297
-0.000665631
7.25155e-06
-0.00716527
-0.000763129
0.000145435
-0.0065825
-0.000877622
0.000294857
-0.00603212
-0.00100786
0.000457493
-0.00551445
-0.00115426
0.000636591
-0.00502939
-0.00132034
0.000835283
-0.00458126
-0.00150392
0.0010558
-0.00417308
-0.0017085
0.00130031
-0.00380751
-0.00193604
0.00157048
-0.0034901
-0.00218739
0.00186998
-0.00322492
-0.00246515
0.00219996
-0.00301791
-0.00277186
0.00256485
-0.00287351
-0.00311125
0.00296686
-0.0027982
-0.0034863
0.00341099
-0.00279757
-0.00390198
0.00390134
-0.00287995
-0.00436079
0.00444317
-0.00305423
-0.00486899
0.00504327
-0.0033304
-0.00543127
0.00570744
-0.00372031
-0.00605384
0.00644375
-0.00674241
0.00726166
-0.00423957
-0.00911945
-0.00109494
-0.00848187
-0.00109835
-0.00787811
-0.00111649
-0.00730503
-0.00115469
-0.00676395
-0.00120671
-0.00625069
-0.00127638
-0.00576824
-0.00136007
-0.00531439
-0.00146171
-0.00489103
-0.00157762
-0.00449878
-0.00171258
-0.00413893
-0.00186377
-0.00381273
-0.0020347
-0.00352413
-0.00222464
-0.00327371
-0.00243781
-0.00306618
-0.00267268
-0.00290446
-0.00293358
-0.00279379
-0.00322193
-0.00273957
-0.00354051
-0.00274972
-0.00389183
-0.00283049
-0.00428001
-0.00299127
-0.00470821
-0.0032423
-0.00518023
-0.00359401
-0.00570212
-0.0062781
-0.00405832
-0.00790161
-0.00154627
-0.00744821
-0.00155175
-0.00699621
-0.00156849
-0.00655305
-0.00159785
-0.00611995
-0.00163981
-0.0057002
-0.00169614
-0.00529603
-0.00176424
-0.00490946
-0.00184828
-0.00454285
-0.00194423
-0.00419896
-0.00205647
-0.00387991
-0.00218282
-0.00358838
-0.00232624
-0.00332715
-0.00248586
-0.00310145
-0.00266351
-0.00291334
-0.00286079
-0.00276803
-0.00307889
-0.00267019
-0.00331976
-0.0026255
-0.0035852
-0.00263904
-0.00387829
-0.00271785
-0.00420121
-0.00286959
-0.00455646
-0.00310151
-0.00494832
-0.00342391
-0.00537972
-0.00585714
-0.00384486
-0.00684153
-0.00194752
-0.00644545
-0.00194783
-0.00605704
-0.00195691
-0.00567655
-0.00197834
-0.00530667
-0.00200969
-0.00495069
-0.00205212
-0.00460847
-0.00210646
-0.00428337
-0.00217338
-0.00397551
-0.00225209
-0.00368853
-0.00234344
-0.00342347
-0.00244788
-0.00318391
-0.0025658
-0.00297079
-0.00269898
-0.00278885
-0.00284544
-0.00264042
-0.00300922
-0.00252983
-0.00318948
-0.00246082
-0.00338877
-0.00243778
-0.00360824
-0.00246676
-0.00384931
-0.00255323
-0.00411474
-0.00270323
-0.00440645
-0.00292523
-0.00472632
-0.00322658
-0.00507837
-0.0054672
-0.00361652
-0.0060004
-0.00230089
-0.00565349
-0.00229474
-0.00531382
-0.00229658
-0.00498269
-0.00230947
-0.00466249
-0.00232989
-0.00435332
-0.00236129
-0.00405773
-0.00240205
-0.00377595
-0.00245515
-0.00351133
-0.00251671
-0.00326443
-0.00259035
-0.00303792
-0.00267439
-0.0028334
-0.00277032
-0.00265506
-0.00287732
-0.00250323
-0.00299727
-0.00238275
-0.0031297
-0.00229541
-0.00327682
-0.00224681
-0.00343736
-0.00223966
-0.00361539
-0.0022791
-0.00380987
-0.00237068
-0.00402317
-0.00251955
-0.00425758
-0.00273234
-0.00451353
-0.00301617
-0.00479454
-0.005104
-0.00337937
-0.00529612
-0.00261994
-0.00498432
-0.00260654
-0.00467903
-0.00260187
-0.00438529
-0.00260321
-0.00410077
-0.00261441
-0.00382766
-0.0026344
-0.00356731
-0.0026624
-0.00332211
-0.00270035
-0.00309057
-0.00274825
-0.00287703
-0.00280389
-0.00268176
-0.00286966
-0.00250787
-0.00294421
-0.00235598
-0.00302921
-0.00223024
-0.00312302
-0.00213268
-0.00322726
-0.00206634
-0.00334316
-0.00203372
-0.00346999
-0.0020403
-0.0036088
-0.00208848
-0.0037617
-0.0021833
-0.00392834
-0.00233042
-0.00411046
-0.00253461
-0.00430934
-0.00280236
-0.0045268
-0.00476509
-0.00314127
-0.00469935
-0.00290937
-0.00441722
-0.00288867
-0.0041443
-0.0028748
-0.00387899
-0.00286852
-0.00362506
-0.00286834
-0.00338212
-0.00287734
-0.00315109
-0.00289343
-0.00293275
-0.00291868
-0.00272968
-0.00295133
-0.00254162
-0.00299195
-0.00237183
-0.00303945
-0.00222056
-0.00309548
-0.00209184
-0.00315793
-0.00198616
-0.0032287
-0.00190572
-0.00330769
-0.00185525
-0.00339363
-0.00183578
-0.00348946
-0.00185086
-0.00359371
-0.00190472
-0.00370784
-0.00200059
-0.00383248
-0.00214347
-0.00396758
-0.00233882
-0.00411399
-0.00259124
-0.00427438
-0.00444954
-0.00290679
-0.00418572
-0.00317192
-0.00392993
-0.00314446
-0.00368291
-0.00312182
-0.00344479
-0.00310663
-0.00321536
-0.00309777
-0.00299766
-0.00309504
-0.002791
-0.00310009
-0.00259659
-0.0031131
-0.00241605
-0.00313187
-0.00225027
-0.00315773
-0.00210069
-0.00318903
-0.00196954
-0.00322662
-0.00185788
-0.00326959
-0.00176836
-0.00331821
-0.0017024
-0.00337366
-0.00166288
-0.00343315
-0.00165241
-0.00349994
-0.00167454
-0.00357158
-0.00173128
-0.0036511
-0.00182682
-0.00373693
-0.00196515
-0.00382925
-0.00215043
-0.00392872
-0.00238697
-0.00403784
-0.0041555
-0.00268101
-0.00374074
-0.00341063
-0.00350847
-0.00337673
-0.00328323
-0.00334706
-0.00306728
-0.00332258
-0.00286177
-0.00330328
-0.00266577
-0.00329103
-0.00248004
-0.00328582
-0.00230647
-0.00328667
-0.00214523
-0.00329311
-0.00199753
-0.00330543
-0.00186484
-0.00332172
-0.00174999
-0.00334148
-0.00165302
-0.00336656
-0.00157534
-0.0033959
-0.00152128
-0.00342771
-0.00149052
-0.00346391
-0.00148772
-0.00350274
-0.00151299
-0.00354631
-0.00157117
-0.00359292
-0.00166468
-0.00364343
-0.00179663
-0.00369729
-0.00197185
-0.0037535
-0.00219371
-0.00381598
-0.00388305
-0.00246615
-0.00335221
-0.00362638
-0.00314143
-0.00358751
-0.00293809
-0.0035504
-0.00274186
-0.00351881
-0.00255476
-0.00349039
-0.00237722
-0.00346858
-0.002209
-0.00345404
-0.00205391
-0.00344176
-0.0019101
-0.00343691
-0.0017781
-0.00343743
-0.0016596
-0.00344021
-0.00155814
-0.00344294
-0.00147293
-0.00345177
-0.0014068
-0.00346203
-0.00136005
-0.00347446
-0.00133762
-0.00348634
-0.00133838
-0.00350198
-0.00136735
-0.00351734
-0.00142504
-0.00353523
-0.00151497
-0.0035535
-0.00163999
-0.00357228
-0.00180539
-0.0035881
-0.00200993
-0.00361143
-0.00363195
-0.00226103
0.00233275
-0.00228811
0.00251691
-0.00256154
0.00214998
-0.00199183
0.00217461
0.00201087
-0.00170848
0.00184759
0.00191149
-0.00144237
0.00154175
0.00184688
-0.00119657
0.00126118
0.00181117
-0.000971753
0.00100746
0.00179798
-0.000768357
0.00078155
0.00180028
-0.000585534
0.000583234
0.00181257
-0.000422662
0.000410373
0.00182984
-0.000278681
0.000261414
0.00184621
-0.000151391
0.000135025
0.00185716
-3.90273e-05
2.80715e-05
0.00185853
5.90573e-05
-6.04213e-05
0.00184578
0.00014615
-0.000133404
0.00181467
0.000223401
-0.00019229
0.00176085
0.000293012
-0.000239193
0.00167862
0.000358078
-0.000275851
0.00156176
0.000421445
-0.000304586
0.00140146
0.000487851
-0.000327555
0.00118446
0.000564575
-0.000347583
0.000890406
0.000662496
-0.000368437
0.000486839
0.00079977
-0.000396212
-8.27549e-05
0.00100881
-0.000439215
0.0013553
-0.000937661
-0.000500398
0.00210296
-0.00207662
-0.00231446
0.001933
-0.00182187
0.00180145
-0.00157693
0.00170534
-0.00134626
0.00163989
-0.00113112
0.00160047
-0.000932327
0.00158115
-0.000749043
0.00157666
-0.000581038
0.00158168
-0.000427685
0.00159055
-0.000287555
0.00159861
-0.000159445
0.00160108
-4.15034e-05
0.00159232
6.78225e-05
0.00156767
0.000170799
0.00152166
0.000269415
0.00144864
0.000366023
0.00134177
0.000464949
0.00119389
0.00056933
0.000994868
0.000686872
0.000734204
0.000825236
0.000398536
0.000998166
-2.4896e-05
0.0012232
-0.000539053
0.00152297
0.00191914
-0.0011029
0.00187435
-0.00188206
-0.00206891
0.00171582
-0.00166334
0.00159202
-0.00145313
0.00149935
-0.00125359
0.00143397
-0.00106574
0.00139032
-0.000888676
0.00136428
-0.000723003
0.00135127
-0.000568033
0.00134599
-0.000422401
0.00134352
-0.000285086
0.0013393
-0.000155223
0.00132875
-3.09486e-05
0.00130698
8.9591e-05
0.00126989
0.000207888
0.00121234
0.000326961
0.00112849
0.000449877
0.00101315
0.000580292
0.000859546
0.000722931
0.000660859
0.000885559
0.000408906
0.00107719
9.7497e-05
0.00130958
-0.000274516
0.00159521
-0.000701954
0.00195041
0.0023806
-0.00116342
0.00165587
-0.0017015
-0.00183643
0.00150794
-0.0015154
0.00139069
-0.00133588
0.00130094
-0.00116384
0.00123401
-0.000998806
0.00118769
-0.000842359
0.00115653
-0.000691847
0.00113623
-0.000547732
0.0011233
-0.000409467
0.00111349
-0.000275273
0.00110227
-0.000144003
0.00108568
-1.43592e-05
0.00105988
0.000115392
0.00101984
0.000247928
0.000961507
0.000385292
0.000880565
0.000530818
0.00077158
0.000689278
0.000628773
0.000865738
0.000447246
0.00106709
0.000221978
0.00130246
-5.15392e-05
0.00158309
-0.000376813
0.00192049
-0.000748678
0.00232227
0.00279548
-0.00116356
0.00145409
-0.00153532
-0.00162028
0.0013174
-0.00137871
0.00120737
-0.00122586
0.0011216
-0.00107807
0.00105729
-0.000934496
0.00100968
-0.000794747
0.000976063
-0.000658231
0.000953171
-0.00052484
0.000936473
-0.000392769
0.000922615
-0.000261414
0.000908438
-0.000129826
0.000889882
4.19736e-06
0.000863154
0.000142121
0.000824577
0.000286504
0.000769969
0.0004399
0.00069515
0.000605638
0.000595723
0.000788704
0.000467921
0.00099354
0.00030618
0.00122883
0.000105731
0.00150291
-0.000135898
0.00182472
-0.000422732
0.00220732
-0.00075626
0.0026558
0.00317516
-0.00113594
0.00127401
-0.00138436
-0.00142497
0.00114795
-0.00125265
0.0010462
-0.0011241
0.0009656
-0.000997471
0.000904045
-0.00087294
0.000857795
-0.000748497
0.000824461
-0.000624898
0.000799997
-0.000500375
0.000781884
-0.000374655
0.000766752
-0.000246282
0.000751539
-0.000114613
0.00073328
2.24565e-05
0.000708009
0.000167392
0.000672538
0.000321975
0.000622859
0.000489579
0.000555207
0.00067329
0.000466587
0.000877325
0.000351542
0.00110859
0.000206913
0.00137346
2.85901e-05
0.00168123
-0.000187301
0.00204061
-0.000444987
0.00246501
-0.000746536
0.00295735
0.0035217
-0.00109307
0.001113
-0.00124556
-0.0012518
0.000998635
-0.00113829
0.000905464
-0.00103093
0.000831401
-0.000923407
0.000773338
-0.000814877
0.000730193
-0.000705352
0.000698059
-0.000592763
0.000674046
-0.000476362
0.000655523
-0.000356131
0.000640261
-0.00023102
0.000625166
-9.95175e-05
0.000607629
3.99938e-05
0.000584817
0.000190205
0.000552847
0.000353945
0.000508504
0.000533924
0.000448162
0.000733632
0.000367823
0.000957664
0.00026493
0.00121148
0.000134673
0.00150371
-2.48134e-05
0.00184072
-0.000219852
0.00223565
-0.000452458
0.00269761
-0.000726189
0.00323108
0.00383863
-0.00104313
0.000972019
-0.00112129
-0.00109628
0.000869182
-0.00103545
0.000784705
-0.000946455
0.000716846
-0.000855548
0.000663822
-0.000761852
0.000623429
-0.000664959
0.000592932
-0.000562266
0.000570592
-0.000454022
0.000552853
-0.000338393
0.00053751
-0.000215677
0.0005227
-8.47075e-05
0.000506598
5.60964e-05
0.000485936
0.000210867
0.000457911
0.000381971
0.000418533
0.000573302
0.000364681
0.000787485
0.000293186
0.00102916
0.000199802
0.00130486
8.23718e-05
0.00162115
-6.17846e-05
0.00198487
-0.000237807
0.00241168
-0.000449348
0.00290915
-0.000700776
0.00348251
0.00412793
-0.000990068
0.000850286
-0.00101019
-0.000961384
0.00075682
-0.000941987
0.000680957
-0.000870592
0.000620155
-0.000794746
0.000570924
-0.000712621
0.000533723
-0.000627757
0.000505862
-0.000534405
0.000484828
-0.000432988
0.000468426
-0.00032199
0.000453837
-0.000201087
0.000439528
-7.03979e-05
0.000424642
7.0982e-05
0.000405972
0.000229538
0.00038134
0.000406603
0.000346458
0.000608184
0.000298321
0.000835623
0.000233963
0.00109352
0.000150942
0.00138788
4.40415e-05
0.00172805
-8.56042e-05
0.00211452
-0.000245009
0.00257108
-0.000435834
0.00309998
-0.000665889
0.00371257
0.00439297
-0.000930937
0.000744146
-0.000839998
-0.00091434
0.000660902
-0.000858742
0.000592624
-0.000802314
0.000537102
-0.000739224
0.000492828
-0.000668347
0.000458955
-0.000593885
0.000433455
-0.000508906
0.000414114
-0.000413647
0.000398872
-0.000306749
0.000384632
-0.000186848
0.000370611
-5.63765e-05
0.000357408
8.41845e-05
0.000341532
0.000245414
0.000319128
0.000429007
0.000287789
0.000639523
0.000243122
0.00088029
0.000184288
0.00115235
0.000110123
0.00146205
1.68365e-05
0.00182133
-9.60564e-05
0.00222741
-0.000240466
0.00271549
-0.000415454
0.00327497
-0.000627316
0.00392443
-0.000866884
0.00463254
-0.00134853
0.00200663
-0.00159577
-0.00195603
0.00262253
-0.00201502
-0.00262059
0.00300114
-0.00233658
-0.00327397
0.00328311
-0.00262973
-0.00389875
0.00355703
-0.00293225
-0.00448541
0.00383277
-0.00324611
-0.00502379
0.00411647
-0.00357809
-0.00550682
0.00441194
-0.00392891
-0.00593445
0.00472849
-0.00430086
-0.00629478
0.00505904
-0.00469871
-0.0065843
0.00541485
-0.00512534
-0.00680351
0.00579836
-0.00557916
-0.00694385
0.00620859
-0.00606825
-0.00699521
0.00664976
-0.0065984
-0.00696095
0.00713199
-0.00716625
-0.00683073
0.00765161
-0.00778184
-0.00659614
0.00821146
-0.00844605
-0.00625227
0.00882008
-0.00916395
-0.00578878
0.00947764
-0.00994113
-0.00519932
0.0101941
-0.0107836
-0.00447224
0.0109664
-0.0116935
-0.00360043
0.0118064
-0.0126782
-0.00256965
0.0127145
-0.0137453
0.0136995
-0.0148986
-0.00137049
-0.00157291
0.00247664
-0.00210063
0.00315024
-0.0027041
0.00360461
-0.003297
0.00387601
-0.00385243
0.00411247
-0.00436998
0.00435032
-0.00483941
0.0045859
-0.00526331
0.00483584
-0.00562622
0.0050914
-0.00593695
0.00536977
-0.00618384
0.00566175
-0.00636573
0.00598024
-0.00647623
0.00631909
-0.00651653
0.00669006
-0.00647293
0.00708839
-0.00634166
0.00752035
-0.00611993
0.00798973
-0.00579953
0.00849968
-0.00537338
0.00905148
-0.00483004
0.00965082
-0.00416248
0.0102988
-0.00336161
0.0110055
-0.00241841
0.0117713
0.0125985
-0.00131744
-0.00162872
0.00294195
-0.00210415
0.00362567
-0.00264181
0.00414227
-0.00317798
0.00441218
-0.00368176
0.00461625
-0.00414259
0.00481114
-0.00456454
0.00500785
-0.00493564
0.00520694
-0.00526144
0.0054172
-0.00553313
0.00564146
-0.00574992
0.00587854
-0.00590728
0.0061376
-0.00600386
0.00641567
-0.00603089
0.00671709
-0.00598665
0.00704415
-0.00586387
0.00739756
-0.00565907
0.00778493
-0.00536245
0.00820306
-0.00496805
0.00865708
-0.00447046
0.00915322
-0.00386081
0.00968917
-0.00312715
0.0102718
-0.00226067
0.0109048
0.0115911
-0.00125323
-0.00160577
0.00338416
-0.00205278
0.00407268
-0.00253233
0.00462183
-0.00301547
0.00489532
-0.00346993
0.00507071
-0.00388554
0.00522674
-0.00425829
0.0053806
-0.00459277
0.00554142
-0.00488343
0.00570786
-0.00512611
0.00588413
-0.00531894
0.00607138
-0.00545817
0.00627682
-0.00554226
0.00649976
-0.00556461
0.00673945
-0.00552101
0.00700054
-0.00540726
0.0072838
-0.00521782
0.0075955
-0.00494552
0.00793075
-0.0045873
0.00829886
-0.00412937
0.00869528
-0.00357114
0.00913094
-0.00290177
0.00960247
-0.00211079
0.0101138
0.0106701
-0.00118985
-0.00154721
0.00379544
-0.0019665
0.00449196
-0.00239777
0.00505311
-0.00283502
0.00533257
-0.00324204
0.00547773
-0.0036149
0.0055996
-0.00395444
0.00572015
-0.00425275
0.00583973
-0.00451277
0.00596788
-0.00472793
0.00609929
-0.00490373
0.00624718
-0.00502686
0.00639995
-0.00509993
0.00657283
-0.00511855
0.00675807
-0.00507691
0.0069589
-0.00497444
0.00718134
-0.00479852
0.00741958
-0.00455001
0.00768225
-0.00422209
0.00797094
-0.00380616
0.00827935
-0.0032956
0.00862038
-0.00268294
0.00898981
-0.0019625
0.0093934
0.00983118
-0.00112357
-0.00147167
0.00417404
-0.00185819
0.00487848
-0.00225491
0.00544983
-0.00264927
0.00572693
-0.00301391
0.00584237
-0.00335056
0.00593624
-0.00365233
0.00602192
-0.00392309
0.00611049
-0.00415349
0.00619828
-0.00435225
0.00629805
-0.00450509
0.00640002
-0.00462012
0.00651498
-0.00468496
0.00663767
-0.00469917
0.00677228
-0.00466169
0.00692141
-0.00456471
0.00708436
-0.00440618
0.00726105
-0.00418095
0.00745701
-0.00387911
0.0076691
-0.00350063
0.00790087
-0.00303496
0.00815471
-0.00247774
0.00843259
-0.00182079
0.00873645
0.00906421
-0.00105382
-0.00139132
0.00452224
-0.00174948
0.00523664
-0.00210503
0.00580538
-0.00246046
0.00608236
-0.00279111
0.00617302
-0.00309157
0.0062367
-0.00336605
0.0062964
-0.0036079
0.00635234
-0.00382027
0.00641065
-0.00399589
0.00647368
-0.00413623
0.00654036
-0.00423587
0.00661462
-0.00429423
0.00669603
-0.00430786
0.0067859
-0.00427347
0.00688703
-0.00418426
0.00699515
-0.00403994
0.00711673
-0.00383272
0.00724979
-0.00355968
0.00739606
-0.00321496
0.00755615
-0.00279127
0.00773101
-0.00228529
0.00792661
-0.00168378
0.00813495
0.00836604
-0.000985614
-0.00130783
0.00484
-0.00163282
0.00556163
-0.00195998
0.00613254
-0.00227609
0.00639847
-0.00257419
0.00647112
-0.00284834
0.00651086
-0.00309463
0.00654269
-0.00331265
0.00657036
-0.00350199
0.00659998
-0.00366049
0.00663218
-0.00378831
0.00666818
-0.00387884
0.00670514
-0.00393205
0.00674925
-0.00394421
0.00679806
-0.00391043
0.00685325
-0.0038315
0.00691621
-0.00370011
0.00698535
-0.00351258
0.00706226
-0.00326399
0.00714747
-0.00294986
0.00724203
-0.00256474
0.00734589
-0.00210104
0.00746291
-0.00155562
0.00758953
0.00773024
-0.000919815
-0.0012269
0.00513596
-0.00152363
0.00585836
-0.00181463
0.00642354
-0.00210041
0.00668425
-0.00237059
0.00674129
-0.00261578
0.00675605
-0.00283822
0.00676514
-0.00303646
0.0067686
-0.0032106
0.00677412
-0.00335378
0.00677536
-0.00346702
0.00678142
-0.00354818
0.0067863
-0.00359711
0.00679818
-0.00360701
0.00680796
-0.00357897
0.0068252
-0.00350533
0.00684258
-0.00338454
0.00686455
-0.00321181
0.00688954
-0.00298547
0.00692113
-0.00270096
0.00695751
-0.0023508
0.00699572
-0.00192768
0.00703979
-0.00143198
0.00709382
0.00715223
-0.000853965
-0.00113361
0.00540269
-0.0013997
0.00612445
-0.00166312
0.00668696
-0.00192808
0.00694922
-0.00217321
0.00698642
-0.00239964
0.00698248
-0.00260237
0.00696787
-0.00278071
0.00694693
-0.00293498
0.0069284
-0.00306642
0.0069068
-0.00316814
0.00688314
-0.00324466
0.00686282
-0.00328648
0.00684
-0.00329424
0.00681572
-0.00326728
0.00679824
-0.00320179
0.00677708
-0.00309129
0.00675406
-0.00293867
0.00673691
-0.00273431
0.00671678
-0.0024715
0.00669471
-0.00215335
0.00667757
-0.00177255
0.00665899
-0.00131899
0.00664026
-0.000792783
0.00662602
0.00103201
-0.000764956
0.00188863
-0.000581015
0.0027416
-0.000437583
0.0036252
-0.000284564
0.00454797
-0.00010422
0.00549237
0.000120932
0.00643758
0.000397149
0.00735581
0.000729347
0.00822456
0.00111877
0.00901609
0.00156592
0.00971209
0.00206539
0.0102973
0.00261421
0.0107569
0.00320947
0.0110908
0.00384131
0.0112967
0.00450966
0.0113885
0.00520538
0.0113765
0.00593266
0.0112848
0.00668758
0.0111345
0.00747879
0.0109397
0.00831733
0.010723
0.0092103
0.0104979
0.0101742
0.0102706
0.011221
0.0123738
0.0100435
-0.000207073
-0.00055793
-0.000128558
-0.000659536
0.000117532
-0.000683698
0.000500382
-0.00066742
0.00100643
-0.000610276
0.00163052
-0.000503166
0.00236586
-0.000338199
0.00320457
-0.000109359
0.00413111
0.000192226
0.00511991
0.000577125
0.00613349
0.00105181
0.00712981
0.00161789
0.00806791
0.00227136
0.00890433
0.00300489
0.009609
0.00380499
0.0101563
0.00465803
0.0105411
0.00554786
0.0107654
0.00646329
0.0108466
0.00739764
0.0108175
0.00834647
0.010702
0.00932577
0.010531
0.0103452
0.0103258
0.0114262
0.0125925
0.0101071
-2.71573e-05
-0.00053076
-5.98689e-05
-0.000626816
-6.61336e-05
-0.000677429
-3.03283e-05
-0.00070322
6.49823e-05
-0.000705585
0.000242578
-0.000680759
0.00052721
-0.000622831
0.000939593
-0.000521739
0.00149642
-0.000364602
0.00220491
-0.00013136
0.00305867
0.000198048
0.00403379
0.00064278
0.00508965
0.0012155
0.00617429
0.00192025
0.00722627
0.00275302
0.00818747
0.00369682
0.00900611
0.00472923
0.00964537
0.00582402
0.0100929
0.00695013
0.0103504
0.00808891
0.0104453
0.00923091
0.0104136
0.0103769
0.0102939
0.0115459
0.0127668
0.0101195
-3.70056e-05
-0.000493755
-4.76266e-05
-0.000616187
-4.08452e-05
-0.000684214
-1.50277e-05
-0.000729031
3.59705e-05
-0.000756587
0.000120474
-0.000765257
0.000248531
-0.00075089
0.000434694
-0.000707897
0.000697191
-0.000627101
0.00106003
-0.00049419
0.00154827
-0.000290199
0.00218389
7.16373e-06
0.00297501
0.000424387
0.00390859
0.000986666
0.0049499
0.00171171
0.00603987
0.00260685
0.00710657
0.00366253
0.0080778
0.00485279
0.00888751
0.00614043
0.00949347
0.00748295
0.00988774
0.00883665
0.0100854
0.0101792
0.0101239
0.0115074
0.0128362
0.0100545
-9.8856e-06
-0.00048386
-1.73554e-05
-0.000608706
-1.95232e-05
-0.000682045
-1.28526e-05
-0.000735694
6.24969e-06
-0.00077569
4.37742e-05
-0.000802774
0.000106177
-0.000813294
0.000201707
-0.000803421
0.000340979
-0.000766374
0.00054021
-0.000693415
0.000819913
-0.000569903
0.00120408
-0.000376997
0.00171954
-9.10738e-05
0.0023875
0.000318708
0.00321449
0.000884726
0.0041844
0.00163695
0.00525421
0.00259272
0.00635382
0.00375318
0.00739996
0.00509428
0.0083134
0.00656951
0.00902768
0.00812236
0.00951335
0.00969354
0.00978015
0.0112406
0.0127401
0.00987624
-1.51885e-05
-0.000468664
-2.18524e-05
-0.000602032
-2.21974e-05
-0.000681699
-1.60562e-05
-0.000741828
-8.87929e-07
-0.00079086
2.51799e-05
-0.000828835
6.67948e-05
-0.00085491
0.00012824
-0.000864859
0.000216602
-0.000854738
0.000340508
-0.000817314
0.000513933
-0.000743329
0.000754428
-0.000617485
0.00108304
-0.000419687
0.00152658
-0.00012483
0.00211092
0.000300386
0.00285512
0.000892756
0.00375681
0.00169103
0.00478778
0.00272221
0.00588534
0.00399673
0.00696155
0.0054933
0.00792336
0.00716055
0.00869282
0.00892408
0.00922392
0.0107095
0.0124561
0.009508
-7.80007e-06
-0.000460854
-1.23192e-05
-0.000597502
-1.33629e-05
-0.000680654
-9.65684e-06
-0.000745526
-2.68365e-07
-0.00080025
1.70592e-05
-0.000846156
4.43825e-05
-0.000882235
8.57046e-05
-0.000906174
0.000145065
-0.0009141
0.000228605
-0.000900847
0.000344596
-0.000859321
0.000505289
-0.000778172
0.000727338
-0.000641736
0.0010305
-0.00042799
0.0014403
-0.000109411
0.00198305
0.000350014
0.00268176
0.000992319
0.00354215
0.00186182
0.00454439
0.00299449
0.00563279
0.0044049
0.00671854
0.00607481
0.00769937
0.00794324
0.00848439
0.00992451
0.0119184
0.00902207
-7.39011e-06
-0.000453452
-1.14554e-05
-0.000593425
-1.19647e-05
-0.000680142
-8.39401e-06
-0.000749089
-4.10753e-07
-0.000808233
1.31828e-05
-0.000859742
3.46076e-05
-0.000903661
6.5752e-05
-0.000937311
0.000109863
-0.000958212
0.000170777
-0.000961755
0.000254405
-0.00094295
0.000368982
-0.000892742
0.000526238
-0.000798993
0.000741876
-0.000643623
0.00103518
-0.000402719
0.00143088
-4.56764e-05
0.00195604
0.000467158
0.00263443
0.00118344
0.00347676
0.00215217
0.0044653
0.00341636
0.00554616
0.00499396
0.00663052
0.00685889
0.00760653
0.0089485
0.0111539
0.00837102
-4.98237e-06
-0.000448457
-8.03023e-06
-0.000590364
-8.06037e-06
-0.00068011
-5.22632e-06
-0.000751914
1.43231e-06
-0.000814893
1.28244e-05
-0.000871126
2.95012e-05
-0.000920339
5.38938e-05
-0.000961697
8.80639e-05
-0.000992384
0.000135182
-0.00100887
0.000198724
-0.00100649
0.000284766
-0.000978777
0.000401725
-0.000915953
0.000561144
-0.000803035
0.000778819
-0.000620393
0.00107409
-0.000340939
0.00147114
7.01034e-05
0.00199763
0.00065695
0.00267685
0.00147295
0.00352008
0.00257313
0.00451041
0.00400363
0.00558791
0.00578139
0.00665954
0.00787687
0.01021
0.00760347
-3.96514e-06
-0.000444484
-6.24496e-06
-0.000588074
-6.13395e-06
-0.000680219
-2.8524e-06
-0.000755189
3.16359e-06
-0.00082091
1.30429e-05
-0.000880999
2.7563e-05
-0.000934862
4.80324e-05
-0.00098216
7.58422e-05
-0.0010202
0.000113709
-0.00104673
0.000164374
-0.00105716