/*--------------------------------*- C++ -*----------------------------------*\
| =========                 |                                                 |
| \\      /  F ield         | OpenFOAM: The Open Source CFD Toolbox           |
|  \\    /   O peration     | Version:  2.3.0                                 |
|   \\  /    A nd           | Web:      www.OpenFOAM.org                      |
|    \\/     M anipulation  |                                                 |
\*---------------------------------------------------------------------------*/
FoamFile
{
    version     2.0;
    format      ascii;
    class       volVectorField;
    location    "5000";
    object      U;
}
// * * * * * * * * * * * * * * * * * * * * * * * * * * * * * * * * * * * * * //

dimensions      [0 1 -1 0 0 0 0];

internalField   nonuniform List<vector> 
14769
(
(21.6283 9.45076 4.19341e-21)
(21.4663 9.8279 -4.87369e-20)
(21.3006 10.2129 0)
(21.1254 10.6087 0)
(20.9395 11.0166 1.9343e-20)
(20.7411 11.4352 -2.05932e-20)
(20.5265 11.8614 5.40823e-20)
(20.2902 12.2902 -1.55082e-20)
(20.0245 12.715 -7.35309e-20)
(19.72 13.1283 6.0546e-20)
(19.3656 13.5236 -9.77059e-20)
(18.9495 13.8958 2.67876e-20)
(18.46 14.242 4.55474e-20)
(17.886 14.5608 -3.10939e-20)
(17.2171 14.8534 0)
(16.4438 15.1219 0)
(15.5577 15.3695 2.52218e-20)
(14.5528 15.6014 2.39459e-19)
(13.4226 15.8165 1.75892e-19)
(12.1596 16.0035 -3.78158e-19)
(10.7595 16.1434 0)
(9.25461 16.2771 0)
(7.70994 16.501 5.53975e-19)
(6.11741 16.6147 -5.24502e-19)
(21.2806 9.30883 -6.60414e-20)
(21.104 9.62533 5.28385e-20)
(20.9202 9.94447 0)
(20.7229 10.2653 -2.33481e-19)
(20.5098 10.5897 8.7675e-20)
(20.2792 10.918 2.25514e-19)
(20.0293 11.251 -2.06371e-19)
(19.7582 11.5885 -2.65101e-19)
(19.4639 11.9298 2.68708e-19)
(19.1442 12.2735 -5.32358e-20)
(18.7963 12.6165 -7.88023e-20)
(18.418 12.9547 4.81919e-19)
(18.0066 13.2821 -4.79676e-19)
(17.56 13.5918 -6.06944e-19)
(17.0763 13.8753 6.63655e-19)
(16.5547 14.1228 -8.55775e-19)
(15.9951 14.3235 8.65753e-19)
(15.3989 14.4656 -1.20015e-18)
(14.769 14.5364 1.18557e-18)
(14.1104 14.5221 4.78352e-20)
(13.4329 14.4078 0)
(12.7516 14.1815 -6.04649e-20)
(12.0765 13.8354 6.69988e-20)
(11.4017 13.366 -2.77554e-20)
(20.9846 9.14932 -1.78255e-19)
(20.8035 9.41513 8.02379e-20)
(20.614 9.68172 8.86251e-20)
(20.4126 9.94599 6.15056e-20)
(20.1977 10.2085 4.22783e-19)
(19.9678 10.4685 -4.12833e-19)
(19.7211 10.7251 3.61099e-19)
(19.4558 10.9771 3.69766e-20)
(19.1697 11.223 -5.32102e-19)
(18.861 11.4614 5.23414e-20)
(18.5276 11.69 5.83817e-20)
(18.1676 11.9062 -3.27634e-20)
(17.7797 12.1071 3.69912e-20)
(17.3628 12.2888 0)
(16.9171 12.4471 9.38646e-19)
(16.4433 12.5773 -9.34409e-19)
(15.9436 12.6741 6.49063e-19)
(15.4215 12.7317 -1.21643e-18)
(14.8823 12.7447 6.42738e-19)
(14.3334 12.7075 5.42953e-20)
(13.7847 12.6158 -8.5723e-19)
(13.2487 12.4664 1.9096e-18)
(12.7392 12.2579 -9.95956e-19)
(12.2716 11.99 -1.08674e-18)
(20.7456 8.98683 1.07474e-19)
(20.5644 9.20687 -1.9821e-19)
(20.3764 9.42705 3.22374e-19)
(20.179 9.64487 1.45772e-20)
(19.9706 9.85959 -2.93179e-19)
(19.7502 10.0705 3.17134e-19)
(19.5167 10.2767 -2.02833e-19)
(19.2691 10.477 0)
(19.0063 10.6702 4.0002e-19)
(18.7274 10.8547 -6.90454e-19)
(18.4315 11.0286 3.6101e-19)
(18.1179 11.1893 0)
(17.7861 11.3343 0)
(17.4359 11.4604 5.1542e-19)
(17.0676 11.5641 -5.82427e-19)
(16.6823 11.6416 0)
(16.2815 11.689 -7.51024e-20)
(15.8682 11.7021 0)
(15.4461 11.6774 -9.95295e-20)
(15.0204 11.6115 -9.96215e-19)
(14.5975 11.5023 1.01833e-18)
(14.1846 11.3489 -5.97863e-20)
(13.79 11.1527 1.32967e-19)
(13.422 10.917 0)
(20.5445 8.81225 1.99695e-20)
(20.3699 9.00224 0)
(20.1888 9.18623 3.9828e-19)
(19.9999 9.36688 -3.33957e-19)
(19.8019 9.54352 1.42133e-19)
(19.5937 9.71553 0)
(19.3744 9.88214 3.34194e-19)
(19.1431 10.0424 -3.34805e-19)
(18.899 10.1953 9.7666e-20)
(18.6411 10.3393 0)
(18.369 10.4731 0)
(18.0822 10.5947 -3.56852e-19)
(17.7804 10.7022 4.81963e-19)
(17.464 10.793 0)
(17.1335 10.8646 6.82975e-19)
(16.7901 10.914 -6.15258e-19)
(16.4357 10.9383 -7.16011e-19)
(16.0727 10.9346 7.25585e-19)
(15.7047 10.9001 9.41408e-19)
(15.3357 10.8327 -9.61658e-19)
(14.9709 10.7311 8.55934e-19)
(14.6159 10.595 -9.82308e-19)
(14.2767 10.4255 -1.52476e-21)
(13.9591 10.2254 1.42514e-19)
(20.3755 8.65276 -1.34279e-19)
(20.2119 8.81155 0)
(20.0411 8.96553 -1.37772e-19)
(19.8629 9.11637 3.90892e-19)
(19.6771 9.26341 -7.3029e-19)
(19.4828 9.40598 3.35364e-19)
(19.2793 9.54345 0)
(19.0657 9.67492 3.98353e-19)
(18.8415 9.79947 -4.97846e-19)
(18.606 9.91587 0)
(18.3586 10.0227 0)
(18.099 10.1185 -1.21095e-19)
(17.8272 10.2014 0)
(17.5432 10.2693 -4.53316e-19)
(17.2477 10.3203 -1.15542e-19)
(16.9418 10.3519 -1.2823e-19)
(16.6271 10.3618 1.56119e-18)
(16.3058 10.3476 -8.67823e-19)
(15.9804 10.3072 -1.07141e-19)
(15.6545 10.239 4.69785e-19)
(15.3321 10.1418 -9.81481e-19)
(15.0174 10.0158 5.09481e-19)
(14.715 9.86174 2.91754e-19)
(14.4294 9.68164 -7.1864e-19)
(20.2376 8.50306 2.1834e-19)
(20.0841 8.63551 -8.1708e-20)
(19.9243 8.76545 -1.67808e-19)
(19.7572 8.89243 -8.23737e-21)
(19.5833 9.01617 2.68529e-19)
(19.4019 9.13594 9.75363e-20)
(19.2123 9.25115 -4.07233e-19)
(19.0138 9.36107 4.08138e-19)
(18.8058 9.46486 0)
(18.5879 9.5614 -1.20525e-19)
(18.3595 9.64942 1.27946e-19)
(18.1204 9.72758 6.85285e-19)
(17.8704 9.7941 -5.55702e-19)
(17.6095 9.84733 -1.5019e-19)
(17.3384 9.88543 1.66336e-19)
(17.0581 9.90649 8.70832e-20)
(16.7703 9.90847 3.91767e-19)
(16.4769 9.88925 1.23462e-19)
(16.1801 9.84697 -3.16589e-19)
(15.8827 9.78045 -5.53922e-22)
(15.5885 9.68867 -1.2479e-19)
(15.3008 9.5714 0)
(15.0235 9.4294 1.40777e-19)
(14.7601 9.26407 0)
(20.1259 8.36573 1.35815e-21)
(19.9816 8.4752 2.56831e-19)
(19.8321 8.58569 -8.21819e-20)
(19.6754 8.69351 -9.54351e-20)
(19.5129 8.79888 -9.34978e-20)
(19.3433 8.90084 -9.79021e-20)
(19.1663 8.99902 0)
(18.9809 9.09252 3.41308e-19)
(18.7865 9.18095 -2.28796e-19)
(18.5834 9.26296 1.211e-19)
(18.3708 9.33735 4.75312e-21)
(18.149 9.40272 -1.36987e-19)
(17.9177 9.45747 1.50412e-19)
(17.6763 9.50019 -1.60242e-19)
(17.425 9.52931 -1.67481e-19)
(17.1647 9.54331 0)
(16.8973 9.54044 3.02162e-19)
(16.6252 9.51828 -1.96455e-19)
(16.3503 9.47487 4.55114e-19)
(16.0739 9.41004 -5.80786e-19)
(15.8003 9.32275 1.25853e-19)
(15.5322 9.21238 5.46023e-19)
(15.2734 9.07949 -5.51521e-19)
(15.0268 8.92522 1.54485e-19)
(20.0321 8.23724 -1.83097e-19)
(19.8963 8.32861 1.8535e-19)
(19.7581 8.42431 1.99181e-19)
(19.6115 8.51692 1.03453e-19)
(19.4593 8.60782 -4.08614e-19)
(19.3003 8.69569 4.25221e-19)
(19.1341 8.78056 -3.29939e-19)
(18.9606 8.8607 -4.68807e-19)
(18.7772 8.93695 2.38454e-19)
(18.5862 9.0083 1.33765e-19)
(18.3859 9.07347 -2.62967e-19)
(18.1774 9.13083 -1.44019e-19)
(17.9617 9.17751 -1.50753e-19)
(17.7359 9.21248 3.24179e-19)
(17.5009 9.23403 3.54077e-19)
(17.256 9.2426 -3.59529e-19)
(17.004 9.23721 1.97054e-19)
(16.7472 9.21498 -2.08573e-19)
(16.4903 9.1703 2.23801e-19)
(16.2288 9.10652 2.36872e-19)
(15.9707 9.02276 2.57183e-19)
(15.7171 8.91806 -2.60197e-19)
(15.4721 8.79268 0)
(15.2382 8.64725 1.47326e-19)
(19.9398 8.12221 -2.84618e-22)
(19.8172 8.19816 -2.04101e-19)
(19.6964 8.28223 1.06067e-19)
(19.5611 8.36132 -1.04165e-19)
(19.4191 8.4402 2.21713e-19)
(19.2701 8.51581 -2.21235e-19)
(19.1126 8.59133 1.15333e-19)
(18.9539 8.66006 -1.29064e-19)
(18.7832 8.72426 2.54144e-19)
(18.6066 8.78464 -1.41402e-19)
(18.4204 8.84081 1.34575e-19)
(18.2207 8.89478 2.88019e-19)
(18.0106 8.93933 0)
(17.7892 8.97236 -1.65247e-19)
(17.5663 8.98813 1.78513e-19)
(17.3345 8.99001 -3.90365e-19)
(17.0962 8.98044 1.94973e-19)
(16.8518 8.96253 2.14186e-19)
(16.6063 8.91931 1.08554e-20)
(16.3513 8.85604 -2.32258e-19)
(16.1069 8.77428 0)
(15.8654 8.67354 -6.92255e-21)
(15.6303 8.55447 2.77036e-19)
(15.402 8.41673 3.012e-19)
(4.4864 15.8046 -4.0771e-20)
(4.37711 14.4051 -8.53567e-20)
(4.57105 13.1581 0)
(4.87242 12.0719 0)
(5.22283 11.1095 1.04832e-18)
(5.59919 10.2387 -4.98842e-19)
(6.00302 9.45332 -6.78187e-19)
(6.42679 8.74089 -1.41697e-19)
(6.86259 8.09362 1.15504e-19)
(7.30261 7.50475 -5.66995e-19)
(7.74012 6.96852 -4.12743e-20)
(8.16986 6.48013 0)
(8.58783 6.03529 -2.81106e-19)
(8.99146 5.62976 4.18117e-20)
(9.37951 5.25972 1.08975e-18)
(9.75184 4.92125 -1.06094e-18)
(10.1092 4.61053 5.2745e-19)
(10.4528 4.32372 -1.06033e-18)
(10.7843 4.05717 -9.82283e-19)
(11.1054 3.8076 -9.86974e-19)
(11.4177 3.57223 9.13247e-19)
(11.7225 3.34929 0)
(12.0214 3.13786 -1.64302e-18)
(12.3145 2.93176 1.51907e-18)
(10.7385 12.7904 0)
(10.2159 12.1319 -8.94164e-20)
(9.84222 11.4559 0)
(9.59217 10.7905 9.27346e-19)
(9.4406 10.1483 -5.64642e-19)
(9.36734 9.53565 -8.71382e-19)
(9.3571 8.95625 8.54428e-19)
(9.39829 8.41203 1.25635e-19)
(9.48161 7.90376 -2.54557e-19)
(9.59915 7.43079 -2.57403e-19)
(9.74414 6.9917 5.13324e-19)
(9.9112 6.58421 0)
(10.0956 6.20561 -2.55309e-19)
(10.2935 5.85283 0)
(10.5019 5.52286 0)
(10.7182 5.21276 2.22111e-20)
(10.9405 4.91987 4.70122e-19)
(11.1669 4.64198 0)
(11.3961 4.37728 3.35033e-20)
(11.6269 4.12449 2.26222e-19)
(11.8585 3.88269 -1.11581e-18)
(12.0903 3.65185 0)
(12.3223 3.43114 2.53284e-20)
(12.5515 3.21099 -5.96291e-21)
(11.8578 11.663 1.02037e-18)
(11.5051 11.2776 8.61865e-20)
(11.2146 10.847 0)
(10.9863 10.3887 0)
(10.8168 9.91701 1.02855e-19)
(10.7014 9.44238 -3.04332e-19)
(10.6349 8.97259 -2.20829e-19)
(10.6117 8.51318 2.04955e-19)
(10.6264 8.06823 0)
(10.6737 7.64021 0)
(10.7485 7.23086 0)
(10.8462 6.84079 0)
(10.9627 6.4702 4.41806e-19)
(11.0943 6.11863 -1.318e-18)
(11.238 5.78551 4.41831e-19)
(11.3912 5.46987 4.54803e-19)
(11.5519 5.17069 -4.51453e-19)
(11.7184 4.88686 -2.1826e-19)
(11.8896 4.61725 1.09915e-18)
(12.0646 4.36065 -8.40009e-19)
(12.2426 4.11605 0)
(12.4235 3.88302 -8.08508e-19)
(12.607 3.65968 7.85438e-19)
(12.7909 3.43336 1.45965e-18)
(13.0847 10.6453 -5.51316e-19)
(12.7794 10.3391 1.45339e-18)
(12.5095 10.0029 -1.36824e-18)
(12.2788 9.64516 1.06838e-18)
(12.0881 9.27383 -5.48001e-19)
(11.9369 8.89565 -1.87225e-19)
(11.8232 8.5164 9.88622e-20)
(11.7446 8.14059 -1.03343e-19)
(11.6977 7.77186 -9.60089e-20)
(11.6796 7.41267 -1.02075e-19)
(11.6868 7.0649 0)
(11.7163 6.72958 0)
(11.7651 6.40733 0)
(11.8306 6.09823 4.24167e-19)
(11.9106 5.80206 0)
(12.003 5.51838 0)
(12.1061 5.2466 -6.15814e-19)
(12.2183 4.98606 1.03551e-19)
(12.3384 4.73604 1.15441e-19)
(12.4651 4.49584 9.10706e-19)
(12.5975 4.26493 -1.00019e-19)
(12.7352 4.04331 -1.16135e-18)
(12.8777 3.82972 1.13053e-18)
(13.0233 3.61204 7.12545e-19)
(13.6657 9.99709 1.50196e-19)
(13.3967 9.74136 -4.42929e-21)
(13.1548 9.4608 0)
(12.9429 9.16111 5.24396e-19)
(12.7625 8.84798 -7.10134e-19)
(12.6137 8.52654 5.52189e-19)
(12.4958 8.20137 -2.81119e-19)
(12.4071 7.87638 9.46707e-20)
(12.3456 7.55467 4.8738e-19)
(12.3088 7.23857 9.98217e-20)
(12.2941 6.92992 -1.95478e-19)
(12.2991 6.63002 -3.89534e-19)
(12.3213 6.33969 -5.89162e-19)
(12.3587 6.05939 3.89792e-19)
(12.4093 5.78915 1.97791e-19)
(12.4714 5.52893 0)
(12.5434 5.27844 7.91936e-19)
(12.6241 5.03731 9.85403e-20)
(12.7123 4.8051 -9.80564e-20)
(12.8071 4.58126 0)
(12.9076 4.36539 3.80132e-19)
(13.0133 4.15773 7.63588e-19)
(13.1243 3.95713 -7.451e-19)
(13.2389 3.75149 -7.08339e-19)
(14.1627 9.47766 4.7405e-19)
(13.9156 9.25077 -7.9346e-19)
(13.6902 9.00346 0)
(13.4893 8.73999 -3.2102e-21)
(13.3143 8.46483 1.80376e-19)
(13.1659 8.18209 1.84837e-19)
(13.0439 7.89538 -1.79238e-19)
(12.9474 7.60786 -2.9665e-21)
(12.8746 7.32222 -1.89382e-19)
(12.8237 7.04037 2.84664e-19)
(12.7924 6.76402 -2.80979e-19)
(12.7785 6.49453 3.8435e-19)
(12.7804 6.2328 5.8021e-19)
(12.7962 5.97923 -5.81128e-19)
(12.8244 5.73396 1.91057e-19)
(12.8634 5.49702 0)
(12.9118 5.26835 -5.77068e-19)
(12.9687 5.0476 2.85057e-19)
(13.0329 4.83444 2.85772e-19)
(13.1035 4.62836 -5.87573e-21)
(13.1796 4.42905 -5.622e-19)
(13.2606 4.23705 1.8381e-19)
(13.3469 4.05124 0)
(13.4366 3.85943 6.76235e-19)
(14.5127 9.07719 0)
(14.2822 8.86992 -1.60537e-19)
(14.0703 8.64487 0)
(13.8793 8.40578 -1.74362e-19)
(13.7107 8.15654 0)
(13.5658 7.90071 9.12594e-20)
(13.4448 7.6411 9.46651e-20)
(13.3467 7.38041 0)
(13.2702 7.12089 3.68852e-19)
(13.2135 6.86418 2.75123e-19)
(13.1741 6.61183 6.569e-19)
(13.1502 6.36555 -7.49904e-19)
(13.1406 6.12611 1.8777e-19)
(13.1439 5.89381 -3.68395e-19)
(13.1585 5.66873 -1.85682e-19)
(13.1828 5.45113 -3.67786e-19)
(13.2159 5.24104 -9.26758e-20)
(13.2567 5.03818 4.57637e-19)
(13.3044 4.84216 -3.71025e-19)
(13.358 4.65237 -3.622e-19)
(13.4161 4.46861 0)
(13.4783 4.29192 0)
(13.5459 4.12105 0)
(13.615 3.94651 -3.31564e-19)
(14.7946 8.75097 -1.42584e-19)
(14.577 8.55775 -1.54302e-19)
(14.3749 8.34839 0)
(14.1911 8.12682 0)
(14.0266 7.89674 3.47833e-19)
(13.8844 7.66112 9.00346e-20)
(13.7648 7.42177 -4.36877e-20)
(13.6664 7.18139 -4.36229e-20)
(13.5884 6.94192 -5.37933e-20)
(13.5287 6.70455 1.31432e-19)
(13.4841 6.47088 -1.89923e-19)
(13.4529 6.24324 4.61313e-19)
(13.4356 6.02212 0)
(13.4303 5.80728 6.49042e-21)
(13.4354 5.59891 -3.60527e-19)
(13.449 5.39781 7.2483e-19)
(13.4711 5.20387 9.03968e-20)
(13.5002 5.01681 -4.52624e-19)
(13.536 4.83617 -5.60224e-21)
(13.5771 4.66103 3.65045e-19)
(13.6217 4.49127 -1.77121e-19)
(13.6692 4.32893 1.75557e-19)
(13.724 4.17157 -2.52228e-21)
(13.7804 4.01284 6.62516e-19)
(15.0175 8.48315 1.53875e-19)
(14.8104 8.30114 -3.23589e-19)
(14.6162 8.1019 6.51194e-19)
(14.439 7.894 3.36336e-19)
(14.2775 7.67814 -2.59241e-19)
(14.1381 7.45836 2.61138e-19)
(14.0209 7.23438 0)
(13.9225 7.0098 3.54078e-19)
(13.8446 6.78572 -3.60951e-19)
(13.7846 6.5638 -3.16697e-19)
(13.7367 6.34453 -4.06609e-19)
(13.6996 6.13197 0)
(13.6779 5.92585 3.54929e-19)
(13.6672 5.72506 3.59321e-19)
(13.6661 5.53027 7.10487e-19)
(13.6714 5.34303 -3.56636e-19)
(13.6859 5.16311 -3.49849e-19)
(13.7064 4.98962 0)
(13.7341 4.82258 0)
(13.7668 4.6603 0)
(13.8018 4.5032 0)
(13.8366 4.35425 0)
(13.8823 4.20887 -4.24931e-21)
(13.9261 4.06313 6.72063e-19)
(15.1856 8.26152 -3.03474e-19)
(14.9911 8.09457 1.61442e-19)
(14.8038 7.89962 -4.91746e-19)
(14.6349 7.70542 -3.45531e-19)
(14.4786 7.49702 0)
(14.3446 7.28749 -3.51203e-19)
(14.2313 7.07306 3.43074e-19)
(14.1311 6.86273 -3.36402e-19)
(14.0547 6.65263 3.30267e-19)
(13.9974 6.44627 0)
(13.9479 6.23677 3.44097e-19)
(13.9056 6.03568 8.83607e-20)
(13.8846 5.84142 -4.47275e-19)
(13.8706 5.65066 0)
(13.8658 5.46704 -4.30399e-21)
(13.8635 5.291 8.76287e-20)
(13.8744 5.12353 6.15731e-19)
(13.8879 4.96058 0)
(13.9111 4.80575 2.75677e-21)
(13.9388 4.65453 -2.7117e-21)
(13.9683 4.51037 0)
(13.989 4.37255 0)
(14.0241 4.2326 -3.40326e-19)
(14.0611 4.0905 -3.51587e-21)
(-4.66253 -2.52244 1.28937e-21)
(-4.4361 -2.53702 4.5978e-19)
(-4.16499 -2.55363 0)
(-3.85827 -2.56905 -2.5794e-19)
(-3.52354 -2.58271 0)
(-3.16737 -2.59424 7.24704e-20)
(-2.79535 -2.60321 7.5148e-20)
(-2.41217 -2.6092 -3.14986e-19)
(-2.02171 -2.61184 4.69281e-23)
(-1.62704 -2.61079 5.16095e-19)
(-1.23046 -2.60572 -1.90137e-19)
(-0.833653 -2.59619 9.45915e-20)
(-0.437415 -2.58139 -2.00023e-19)
(-0.0417038 -2.56006 9.89899e-20)
(0.354692 -2.53046 0)
(0.755076 -2.49025 1.18653e-19)
(1.16601 -2.43632 0)
(1.60027 -2.36482 -2.7736e-19)
(2.08248 -2.2715 1.57232e-19)
(2.66032 -2.15208 3.87509e-20)
(3.42163 -2.00634 -5.68301e-19)
(4.54213 -1.84216 2.27175e-18)
(6.40468 -1.69768 -3.54098e-18)
(9.8977 -1.854 2.10293e-18)
(-4.62366 -2.50672 -6.61549e-22)
(-4.40363 -2.51085 4.508e-19)
(-4.14741 -2.5175 1.18672e-19)
(-3.86038 -2.52309 1.24788e-19)
(-3.54777 -2.52735 4.08012e-21)
(-3.21379 -2.53004 2.66166e-19)
(-2.86194 -2.53069 -1.39729e-19)
(-2.49494 -2.52868 3.5331e-22)
(-2.11472 -2.52326 1.4814e-19)
(-1.72236 -2.51346 1.53133e-19)
(-1.31798 -2.49807 -2.13782e-22)
(-0.900675 -2.47567 3.9909e-22)
(-0.467728 -2.4445 0)
(-0.0148639 -2.40245 -8.78915e-20)
(0.464466 -2.34702 9.17137e-20)
(0.98055 -2.27532 -9.48037e-20)
(1.549 -2.18445 -9.72262e-20)
(2.19463 -2.07202 5.10252e-20)
(2.95741 -1.9375 -2.04182e-19)
(3.90132 -1.78556 1.6923e-19)
(5.12811 -1.6326 -4.95358e-19)
(6.79616 -1.52204 4.83012e-20)
(9.13793 -1.54738 4.69589e-19)
(12.4234 -1.88537 7.60204e-19)
(-4.56088 -2.45931 0)
(-4.34122 -2.4518 0)
(-4.08956 -2.44866 -4.57557e-19)
(-3.80921 -2.44378 0)
(-3.50381 -2.43687 0)
(-3.17611 -2.42752 -3.16785e-19)
(-2.82808 -2.41502 6.49324e-20)
(-2.46093 -2.39847 0)
(-2.07506 -2.37685 1.36992e-19)
(-1.66999 -2.34901 5.89287e-23)
(-1.24407 -2.31356 -1.44102e-19)
(-0.794399 -2.26901 -2.20419e-19)
(-0.316573 -2.21379 7.57579e-20)
(0.196184 -2.14624 -3.08581e-19)
(0.75348 -2.06479 7.94852e-20)
(1.3693 -1.96801 0)
(2.06374 -1.85526 1.64843e-19)
(2.86559 -1.72753 0)
(3.81615 -1.58956 2.13321e-19)
(4.97444 -1.45341 -1.37054e-19)
(6.42059 -1.3448 0)
(8.2573 -1.31189 0)
(10.5958 -1.43673 3.13228e-19)
(13.49 -1.83547 -8.83327e-19)
(-4.48207 -2.3877 3.99863e-19)
(-4.2623 -2.36708 -1.03777e-19)
(-4.01486 -2.35235 3.27737e-19)
(-3.74073 -2.33503 0)
(-3.44202 -2.31503 0)
(-3.11995 -2.29206 1.17531e-19)
(-2.77515 -2.26544 -1.19963e-19)
(-2.40759 -2.2343 -6.17552e-20)
(-2.0164 -2.19768 6.3944e-20)
(-1.59989 -2.1546 -2.56118e-19)
(-1.15522 -2.10402 -1.31301e-19)
(-0.678132 -2.04468 2.71048e-19)
(-0.162706 -1.97534 1.374e-19)
(0.399193 -1.89488 7.07757e-20)
(1.01865 -1.80257 -1.06128e-19)
(1.71067 -1.69845 3.69209e-20)
(2.49624 -1.58373 -1.49461e-19)
(3.40365 -1.46218 -7.45387e-20)
(4.47053 -1.3421 2.30492e-19)
(5.74663 -1.23906 -1.63083e-19)
(7.29375 -1.18043 0)
(9.18147 -1.21033 0)
(11.4703 -1.39334 0)
(14.1732 -1.80683 2.15208e-19)
(-4.38768 -2.30241 -1.89931e-19)
(-4.16826 -2.27127 2.00885e-19)
(-3.92389 -2.24624 -2.09321e-19)
(-3.65426 -2.21829 0)
(-3.36028 -2.18748 0)
(-3.04202 -2.15366 -1.12094e-19)
(-2.69888 -2.11612 1.92001e-21)
(-2.33001 -2.074 5.78498e-20)
(-1.93378 -2.0265 -5.68083e-20)
(-1.5077 -1.97284 2.40607e-19)
(-1.048 -1.91225 6.14892e-20)
(-0.549576 -1.8439 -1.25515e-19)
(-0.00565723 -1.76688 -1.29837e-19)
(0.592629 -1.68056 0)
(1.25692 -1.58485 6.79601e-20)
(2.00246 -1.48078 0)
(2.8497 -1.37108 3.67224e-20)
(3.82535 -1.26126 3.64497e-20)
(4.96339 -1.16123 0)
(6.30669 -1.08773 1.41118e-19)
(7.90511 -1.06729 -2.20587e-19)
(9.8112 -1.13894 -1.16429e-19)
(12.0654 -1.35519 2.91954e-19)
(14.6682 -1.77394 -2.93121e-19)
(-4.28225 -2.21004 1.8012e-19)
(-4.06437 -2.17248 9.68532e-20)
(-3.82344 -2.13897 -4.88202e-20)
(-3.55845 -2.10246 4.99524e-20)
(-3.26929 -2.06319 1.62077e-21)
(-2.95517 -2.02117 -2.80381e-20)
(-2.61437 -1.97575 1.34992e-19)
(-2.24532 -1.92588 1.0822e-19)
(-1.84594 -1.87077 2.23209e-19)
(-1.41338 -1.80995 -1.15346e-19)
(-0.94335 -1.74309 1.15822e-19)
(-0.429754 -1.66973 6.24878e-20)
(0.134978 -1.58926 -6.16555e-20)
(0.760111 -1.50126 0)
(1.45744 -1.40599 1.58415e-20)
(2.24198 -1.30501 4.81505e-20)
(3.13304 -1.20192 3.32713e-20)
(4.15565 -1.10312 3.47964e-20)
(5.34116 -1.01954 1.35161e-19)
(6.72768 -0.968347 -3.44699e-21)
(8.35819 -0.974742 -7.0508e-20)
(10.2754 -1.0737 1.25645e-19)
(12.5096 -1.31041 -7.38888e-20)
(15.0529 -1.73252 2.7577e-19)
(-4.17081 -2.11576 -2.7019e-19)
(-3.95514 -2.07515 -9.2128e-20)
(-3.71815 -2.03526 4.75615e-20)
(-3.45807 -1.99255 -1.45695e-19)
(-3.17413 -1.94706 0)
(-2.86494 -1.89911 0)
(-2.52723 -1.84835 -2.5583e-20)
(-2.15907 -1.79332 -1.82383e-19)
(-1.75805 -1.73317 -1.07672e-19)
(-1.32128 -1.66733 0)
(-0.844545 -1.59611 -1.68269e-19)
(-0.320978 -1.51988 5.86354e-20)
(0.258327 -1.43833 0)
(0.903004 -1.35101 0)
(1.6252 -1.25811 0)
(2.43912 -1.16123 -1.88256e-19)
(3.36293 -1.06457 -1.28665e-19)
(4.42004 -0.975086 -3.18717e-20)
(5.63926 -0.90383 -9.86494e-20)
(7.05462 -0.868693 -6.76135e-20)
(8.70675 -0.894112 0)
(10.6319 -1.01154 0)
(12.8533 -1.26122 -1.13202e-19)
(15.3563 -1.68464 1.2217e-19)
(-4.05547 -2.02696 -8.7045e-20)
(-3.84413 -1.98138 8.88225e-20)
(-3.61203 -1.93764 0)
(-3.35722 -1.89089 1.03371e-19)
(-3.07866 -1.84097 -1.32217e-20)
(-2.7756 -1.78847 1.49467e-21)
(-2.44185 -1.73428 0)
(-2.07535 -1.67609 2.70531e-20)
(-1.67344 -1.61293 -1.26586e-19)
(-1.23386 -1.54362 1.03682e-19)
(-0.753248 -1.4688 2.33138e-21)
(-0.22404 -1.39039 0)
(0.36484 -1.30889 2.80591e-20)
(1.02367 -1.22345 -2.91228e-20)
(1.76511 -1.13406 0)
(2.60195 -1.04162 1.22547e-19)
(3.55135 -0.950879 6.25284e-20)
(4.63587 -0.868952 1.24445e-19)
(5.88297 -0.806365 -6.18239e-20)
(7.31987 -0.782422 0)
(8.99212 -0.822812 1.23729e-19)
(10.928 -0.954395 -5.25225e-20)
(13.1469 -1.21324 6.399e-20)
(15.6251 -1.63769 5.21597e-20)
(-3.94386 -1.94453 0)
(-3.73513 -1.89483 0)
(-3.50822 -1.84785 -8.66734e-20)
(-3.25813 -1.79849 9.95408e-21)
(-2.9844 -1.7461 7.87893e-20)
(-2.68866 -1.68951 0)
(-2.36049 -1.63289 9.23365e-20)
(-1.99688 -1.5727 7.27063e-20)
(-1.5938 -1.50823 9.90079e-20)
(-1.15 -1.43708 -7.64641e-20)
(-0.665925 -1.35945 2.33208e-19)
(-0.135877 -1.27875 -2.6738e-22)
(0.456638 -1.19717 -5.4041e-20)
(1.12458 -1.11334 1.41532e-20)
(1.8821 -1.02774 1.43102e-20)
(2.73946 -0.939389 0)
(3.71042 -0.854551 0)
(4.81506 -0.782024 -1.21674e-19)
(6.07621 -0.726783 9.37032e-20)
(7.51228 -0.711222 1.4548e-19)
(9.1903 -0.759812 -1.20045e-19)
(11.1309 -0.901229 -5.78475e-20)
(13.3447 -1.16488 8.94488e-22)
(15.7876 -1.58197 5.9916e-20)
(-3.82867 -1.86884 1.19883e-19)
(-3.62474 -1.81615 -4.27053e-20)
(-3.40689 -1.76711 8.65331e-20)
(-3.16943 -1.71272 -1.86857e-19)
(-2.89829 -1.66233 -7.67369e-20)
(-2.60751 -1.60084 0)
(-2.279 -1.54333 -9.04621e-20)
(-1.92414 -1.48166 -2.33904e-20)
(-1.52854 -1.41605 4.8589e-20)
(-1.08574 -1.34305 7.40537e-20)
(-0.596136 -1.26243 -7.75877e-20)
(-0.0548332 -1.17968 -2.62161e-20)
(0.547041 -1.10193 0)
(1.21353 -1.01845 -1.33433e-20)
(1.97837 -0.936633 1.38955e-20)
(2.84448 -0.847853 0)
(3.82773 -0.760659 -7.08521e-21)
(4.96352 -0.690122 7.36848e-21)
(6.30567 -0.655984 0)
(7.76848 -0.675371 -6.08643e-20)
(9.52091 -0.740595 1.9854e-20)
(11.4515 -0.895463 9.77458e-20)
(13.6927 -1.17216 -1.48391e-19)
(16.1529 -1.60432 0)
(16.5261 -3.33409 0)
(20.1194 -4.6119 -2.46186e-18)
(21.4221 -5.05556 3.92224e-18)
(22.0798 -5.23093 -1.50319e-18)
(22.5217 -5.32855 0)
(22.8265 -5.38253 -6.34814e-19)
(23.0346 -5.40471 5.77359e-19)
(23.1693 -5.40296 -1.08867e-20)
(23.2462 -5.38232 0)
(23.2776 -5.34704 -4.32214e-20)
(23.2746 -5.30046 4.01366e-20)
(23.2462 -5.24539 0)
(23.1992 -5.18403 0)
(23.1384 -5.11792 0)
(23.0672 -5.0481 0)
(22.9881 -4.97533 0)
(22.9031 -4.9001 4.6111e-20)
(22.8134 -4.82278 6.35202e-20)
(22.7199 -4.74362 -1.25457e-19)
(22.6235 -4.6627 0)
(22.5246 -4.5801 0)
(22.4235 -4.49652 6.17419e-19)
(22.3215 -4.41224 5.36379e-20)
(22.2211 -4.31764 -6.29951e-19)
(16.4662 -2.82472 -9.33195e-19)
(20.224 -4.10381 7.57941e-19)
(21.9794 -4.73346 -7.17947e-19)
(22.6146 -4.91369 -3.86527e-20)
(22.9834 -5.00449 -2.48647e-20)
(23.2185 -5.05778 -6.22644e-19)
(23.3602 -5.08373 5.82713e-19)
(23.4339 -5.08857 -3.03141e-19)
(23.4576 -5.07699 1.04647e-19)
(23.4458 -5.05262 1.60873e-19)
(23.409 -5.01861 0)
(23.355 -4.97714 0)
(23.2891 -4.92994 1.83746e-19)
(23.2147 -4.87823 -1.46989e-19)
(23.1343 -4.82289 3.02729e-19)
(23.0495 -4.76453 -6.04015e-19)
(22.9615 -4.70359 2.47446e-19)
(22.871 -4.64042 5.31712e-20)
(22.7785 -4.57522 3.77572e-19)
(22.6844 -4.50808 -4.7849e-19)
(22.589 -4.43912 5.76236e-19)
(22.4926 -4.36898 -5.61303e-19)
(22.3955 -4.29676 1.53756e-19)
(22.298 -4.21343 0)
(16.821 -2.62242 1.22622e-18)
(20.2004 -3.73155 -6.17336e-19)
(22.2476 -4.48634 -4.7506e-19)
(22.9218 -4.70211 5.85026e-20)
(23.2285 -4.77787 3.84201e-19)
(23.4084 -4.81923 2.2578e-19)
(23.5043 -4.83798 -7.05971e-20)
(23.5413 -4.84006 8.40378e-20)
(23.5376 -4.82955 -2.78513e-19)
(23.5062 -4.80958 8.41008e-20)
(23.4563 -4.78237 2.89164e-21)
(23.3937 -4.7495 1.35827e-19)
(23.3224 -4.71202 -1.35675e-19)
(23.2453 -4.67081 -2.90457e-19)
(23.164 -4.62642 2.15798e-19)
(23.0798 -4.5793 -4.05119e-19)
(22.9935 -4.52976 7.60833e-19)
(22.9056 -4.47807 -7.97416e-19)
(22.8166 -4.4244 5.58868e-19)
(22.7268 -4.36885 0)
(22.6364 -4.31161 0)
(22.5452 -4.25334 0)
(22.4524 -4.194 -1.60079e-19)
(22.3587 -4.12782 0)
(17.2151 -2.51494 -2.56504e-19)
(20.2878 -3.48691 0)
(22.425 -4.27864 -3.50183e-19)
(23.1621 -4.53918 4.04391e-19)
(23.4146 -4.60359 -3.01675e-19)
(23.544 -4.63446 2.43964e-19)
(23.6004 -4.64638 2.08344e-20)
(23.6081 -4.64501 -9.11926e-20)
(23.584 -4.63395 7.23035e-20)
(23.5392 -4.61573 -4.81821e-22)
(23.4809 -4.59205 1.20011e-21)
(23.4135 -4.56403 7.25838e-21)
(23.34 -4.5324 8.44898e-20)
(23.2624 -4.4978 -1.03432e-19)
(23.1821 -4.46062 7.28477e-20)
(23.0998 -4.42118 -4.24556e-20)
(23.0162 -4.37972 4.82917e-20)
(22.9317 -4.3364 -7.10529e-22)
(22.8465 -4.29139 0)
(22.7608 -4.24478 -2.0513e-19)
(22.6748 -4.19671 2.62898e-19)
(22.5881 -4.14754 0)
(22.4995 -4.09678 -3.27597e-19)
(22.4093 -4.04084 3.23251e-19)
(17.5467 -2.43914 2.01886e-19)
(20.4224 -3.32279 5.26212e-20)
(22.5451 -4.10328 -4.13266e-19)
(23.337 -4.3987 5.8359e-20)
(23.5493 -4.45614 3.32947e-19)
(23.638 -4.47887 0)
(23.6639 -4.48563 1.16622e-19)
(23.6499 -4.48176 -1.08815e-19)
(23.611 -4.47026 0)
(23.5564 -4.45319 -1.92267e-20)
(23.4919 -4.43184 1.45092e-20)
(23.421 -4.40709 8.62623e-20)
(23.3461 -4.3795 -8.40288e-20)
(23.2685 -4.34955 -1.40745e-19)
(23.1894 -4.31755 5.98031e-20)
(23.1092 -4.28373 -1.4433e-19)
(23.0285 -4.24827 3.91127e-19)
(22.9474 -4.21132 -8.23345e-20)
(22.8661 -4.17298 -2.84174e-19)
(22.7848 -4.13336 -3.36072e-19)
(22.7033 -4.09259 2.65942e-19)
(22.6212 -4.05074 -4.58802e-19)
(22.5378 -4.00747 3.05984e-19)
(22.4534 -3.96258 1.74025e-19)
(17.826 -2.37274 -1.88124e-19)
(20.5666 -3.19901 -1.25232e-21)
(22.6359 -3.95371 0)
(23.4577 -4.27156 0)
(23.639 -4.32608 2.94932e-20)
(23.6957 -4.34299 -1.55102e-19)
(23.6989 -4.34634 2.43418e-19)
(23.6695 -4.34096 -4.31207e-20)
(23.6204 -4.32944 -4.64567e-20)
(23.5594 -4.31341 2.51624e-21)
(23.4911 -4.29397 -6.59439e-20)
(23.4183 -4.27175 1.59168e-19)
(23.3429 -4.24729 -3.78331e-20)
(23.266 -4.22092 0)
(23.1884 -4.19293 3.89562e-20)
(23.1105 -4.16347 1.94443e-19)
(23.0327 -4.13269 -1.88882e-19)
(22.9551 -4.10073 1.11702e-19)
(22.8778 -4.06768 6.09037e-20)
(22.8006 -4.03368 6.57461e-20)
(22.7234 -3.99888 0)
(22.646 -3.96327 2.2805e-19)
(22.5681 -3.92671 -1.59799e-19)
(22.4898 -3.89078 0)
(18.0562 -2.30756 -1.80672e-21)
(20.6974 -3.09368 -9.10927e-20)
(22.7058 -3.82112 -3.97819e-20)
(23.5385 -4.15249 0)
(23.6983 -4.20905 -1.27144e-19)
(23.7307 -4.2232 1.10885e-19)
(23.7173 -4.2249 0)
(23.6769 -4.21896 0)
(23.6207 -4.20775 0)
(23.5553 -4.19278 -4.72515e-20)
(23.4846 -4.17493 2.61612e-20)
(23.4108 -4.15477 1.06942e-19)
(23.3354 -4.13275 -1.617e-19)
(23.2595 -4.10924 0)
(23.1835 -4.08441 1.80703e-19)
(23.108 -4.05834 -1.75168e-19)
(23.0329 -4.03122 -5.2871e-20)
(22.9585 -4.00316 -5.72299e-20)
(22.8846 -3.97426 6.25369e-20)
(22.8112 -3.94472 -1.23239e-22)
(22.7379 -3.91475 0)
(22.6648 -3.88429 1.58862e-19)
(22.5921 -3.8532 6.96922e-21)
(22.5194 -3.82385 2.65131e-19)
(18.2748 -2.25024 -4.82287e-20)
(20.8363 -3.01041 -1.06019e-19)
(22.7794 -3.71772 1.10613e-19)
(23.6003 -4.05466 2.8388e-20)
(23.7386 -4.10999 1.13057e-19)
(23.7519 -4.11995 -7.7291e-20)
(23.7258 -4.11966 7.55727e-20)
(23.6771 -4.11298 1.45926e-21)
(23.6155 -4.10196 -7.77946e-21)
(23.5468 -4.08784 0)
(23.4744 -4.07127 3.55624e-20)
(23.4001 -4.05267 0)
(23.3249 -4.03257 1.02305e-19)
(23.2499 -4.0114 -1.52074e-19)
(23.1757 -3.98915 3.59542e-20)
(23.1024 -3.96575 -1.04694e-19)
(23.0299 -3.9415 4.12169e-20)
(22.9585 -3.91653 1.12115e-19)
(22.8878 -3.89089 -6.38664e-20)
(22.8176 -3.86489 -6.88502e-20)
(22.7477 -3.83882 -7.36719e-20)
(22.6786 -3.81268 -7.88943e-20)
(22.6109 -3.78613 0)
(22.5436 -3.76141 -8.97935e-20)
(18.3904 -2.17544 -3.84967e-22)
(20.8805 -2.90121 9.24095e-20)
(22.7827 -3.59197 2.73648e-20)
(23.619 -3.94608 3.91083e-20)
(23.7621 -4.01511 -6.1541e-20)
(23.7649 -4.02692 -5.12667e-20)
(23.7301 -4.0264 2.26294e-21)
(23.6753 -4.01965 3.12916e-20)
(23.6098 -4.00914 -5.32683e-21)
(23.5389 -3.99619 0)
(23.4659 -3.98096 -1.9118e-20)
(23.3912 -3.96358 0)
(23.3161 -3.94516 -3.50539e-20)
(23.2418 -3.92628 0)
(23.1695 -3.90629 4.51219e-20)
(23.0981 -3.88486 0)
(23.0275 -3.86285 0)
(22.9585 -3.84026 0)
(22.8902 -3.81688 -2.02818e-19)
(22.8224 -3.79345 1.35325e-19)
(22.7554 -3.77048 -1.55973e-19)
(22.6898 -3.74821 4.00866e-19)
(22.6272 -3.72572 -1.65069e-19)
(22.5653 -3.70505 9.02523e-20)
(18.7623 -2.21503 -1.36447e-19)
(21.176 -2.93914 1.16692e-19)
(22.9462 -3.61696 -5.75577e-20)
(23.699 -3.93743 0)
(23.7904 -3.96321 -4.29238e-20)
(23.7739 -3.95377 0)
(23.7294 -3.94706 2.05194e-20)
(23.6677 -3.93836 -1.03556e-20)
(23.5974 -3.92773 0)
(23.5235 -3.91571 3.75099e-20)
(23.4498 -3.90104 -3.60135e-20)
(23.3743 -3.88376 -3.05885e-20)
(23.2982 -3.86664 3.53524e-20)
(23.2243 -3.84998 4.31913e-20)
(23.1552 -3.83166 5.29451e-20)
(23.0857 -3.81111 -9.93462e-20)
(23.0169 -3.79098 -5.90306e-20)
(22.9517 -3.7705 6.8362e-20)
(22.8863 -3.74891 7.96419e-20)
(22.8213 -3.72799 -2.91858e-19)
(22.7569 -3.70784 1.49052e-19)
(22.6934 -3.68878 -8.10034e-20)
(22.637 -3.66954 0)
(22.5785 -3.65245 -1.85042e-19)
(0.0828263 1.81952 -5.58519e-19)
(1.15831 2.06316 -2.08599e-17)
(2.77238 2.77024 2.95753e-19)
(4.49422 3.6898 4.19451e-18)
(6.2228 4.62301 0)
(7.93236 5.59088 -6.7674e-20)
(9.59937 6.59333 0)
(11.2228 7.58963 -4.65271e-20)
(12.7861 8.54367 7.81707e-20)
(14.2647 9.42132 0)
(15.6307 10.1949 -8.16311e-19)
(16.8607 10.8424 9.16135e-19)
(17.9367 11.3478 4.74798e-20)
(18.8486 11.7014 0)
(19.5967 11.9016 0)
(20.1903 11.9548 -3.21909e-19)
(20.6475 11.8758 3.51911e-19)
(20.9925 11.686 -1.66459e-19)
(21.252 11.4106 -3.26453e-19)
(21.4518 11.0754 2.97223e-19)
(21.6134 10.7041 0)
(21.7523 10.3155 -1.63583e-19)
(21.8787 9.92253 4.80072e-20)
(22.0038 9.52427 0)
(-9.62307 2.34207 -3.61982e-19)
(-8.92159 2.2545 -5.17104e-19)
(-7.75794 2.18729 0)
(-6.39767 2.29051 -5.29904e-18)
(-4.80689 2.52607 8.06664e-18)
(-2.90821 2.86262 -2.96906e-18)
(-0.726968 3.30382 0)
(1.64498 3.86276 -2.19085e-18)
(4.14191 4.53834 1.77569e-18)
(6.67761 5.32047 -1.36313e-18)
(9.16658 6.18483 1.39418e-18)
(11.5361 7.09025 -1.32188e-19)
(13.724 7.98688 -1.09722e-19)
(15.6791 8.822 8.35083e-19)
(17.3642 9.54759 -7.73203e-19)
(18.759 10.1252 0)
(19.8627 10.5306 -6.65438e-19)
(20.6941 10.7562 1.09477e-18)
(21.2893 10.8115 -4.88149e-19)
(21.6955 10.7197 -1.23677e-19)
(21.9638 10.5134 0)
(22.1409 10.2267 3.77203e-19)
(22.2646 9.89187 -1.97507e-19)
(22.3649 9.51715 0)
(-4.54765 1.36842 5.16024e-19)