/*--------------------------------*- C++ -*----------------------------------*\
| =========                 |                                                 |
| \\      /  F ield         | OpenFOAM: The Open Source CFD Toolbox           |
|  \\    /   O peration     | Version:  2.3.0                                 |
|   \\  /    A nd           | Web:      www.OpenFOAM.org                      |
|    \\/     M anipulation  |                                                 |
\*---------------------------------------------------------------------------*/
FoamFile
{
    version     2.0;
    format      ascii;
    class       volScalarField;
    location    "4000";
    object      nut;
}
// * * * * * * * * * * * * * * * * * * * * * * * * * * * * * * * * * * * * * //

dimensions      [0 2 -1 0 0 0 0];

internalField   nonuniform List<scalar> 
38075
(
0.0503049
0.0485953
0.0469139
0.0452567
0.0436236
0.042015
0.0404317
0.0388755
0.0373476
0.0358495
0.0343829
0.032951
0.0315558
0.0302019
0.0288925
0.0276285
0.0264109
0.0252355
0.0240869
0.0229568
0.0218472
0.0207611
0.019703
0.0186749
0.0176794
0.016716
0.015785
0.0148859
0.0140178
0.0131783
0.0123659
0.0115789
0.0108136
0.0100679
0.00933971
0.00862611
0.00792625
0.0072392
0.00657038
0.00592435
0.00531512
0.00477726
0.00447036
0.0522181
0.0507201
0.0492413
0.0477808
0.0463387
0.0449155
0.0435116
0.042128
0.0407649
0.0394228
0.0381029
0.0368055
0.0355309
0.0342808
0.0330548
0.0318544
0.030679
0.0295287
0.028402
0.0272973
0.026215
0.0251545
0.0241186
0.023109
0.0221252
0.0211702
0.0202449
0.0193512
0.0184913
0.0176676
0.0168822
0.016136
0.0154337
0.0147817
0.0141872
0.0136585
0.0132048
0.0128373
0.0125631
0.0123975
0.0123529
0.0124412
0.012673
0.0539598
0.0526393
0.051332
0.0500378
0.0487579
0.0474919
0.0462412
0.0450054
0.0437851
0.0425809
0.0413927
0.0402212
0.0390669
0.03793
0.0368108
0.0357101
0.0346275
0.0335642
0.0325207
0.0314962
0.0304913
0.0295071
0.0285449
0.027606
0.0266907
0.0258008
0.0249403
0.0241086
0.02331
0.0225466
0.0218221
0.0211414
0.0205086
0.01993
0.0194112
0.0189608
0.0185861
0.0182965
0.0180998
0.0180048
0.0180183
0.0181473
0.0183912
0.0555401
0.0543719
0.0532106
0.0520584
0.0509162
0.0497845
0.0486636
0.0475537
0.0464552
0.0453683
0.0442932
0.0432298
0.042179
0.0411416
0.0401175
0.0391073
0.0381109
0.0371291
0.0361625
0.0352127
0.0342793
0.0333635
0.0324671
0.0315906
0.0307356
0.0299045
0.0290983
0.0283206
0.0275729
0.0268599
0.0261838
0.0255501
0.0249634
0.0244299
0.0239554
0.0235476
0.0232125
0.0229591
0.0227938
0.0227231
0.0227541
0.0228879
0.0231268
0.056977
0.0559358
0.0548987
0.0538676
0.0528431
0.0518257
0.0508156
0.0498127
0.0488176
0.0478303
0.0468508
0.0458793
0.0449166
0.0439632
0.0430201
0.0420869
0.0411641
0.0402517
0.0393513
0.0384641
0.0375909
0.0367324
0.0358903
0.0350657
0.0342605
0.0334764
0.0327158
0.0319811
0.0312745
0.0305998
0.0299619
0.0293642
0.0288115
0.0283099
0.0278655
0.0274846
0.0271753
0.0269425
0.0267945
0.0267365
0.0267738
0.0269086
0.0271419
0.0582789
0.0573463
0.0564154
0.0554878
0.054564
0.0536443
0.0527285
0.0518173
0.0509102
0.0500074
0.0491093
0.0482158
0.0473271
0.0464441
0.045569
0.0447007
0.0438402
0.0429869
0.0421423
0.0413075
0.0404835
0.0396722
0.0388753
0.0380934
0.0373289
0.0365836
0.0358595
0.0351595
0.0344863
0.0338434
0.033235
0.0326652
0.0321379
0.0316596
0.0312368
0.030876
0.0305833
0.030365
0.030227
0.0301754
0.0302143
0.0303473
0.0305741
0.0594596
0.0586185
0.0577777
0.0569392
0.0561019
0.0552658
0.0544307
0.053597
0.0527656
0.0519347
0.0511063
0.0502802
0.0494542
0.0486303
0.0478109
0.0469981
0.0461901
0.0453878
0.0445902
0.0437994
0.0430167
0.0422446
0.0414843
0.0407375
0.0400061
0.0392924
0.0385985
0.0379269
0.0372805
0.036663
0.0360796
0.0355321
0.0350248
0.0345638
0.0341575
0.0338114
0.0335313
0.0333226
0.0331917
0.0331434
0.0331829
0.0333117
0.0335327
0.0605218
0.0597654
0.0590016
0.0582397
0.0574764
0.0567134
0.055947
0.0551783
0.0544136
0.0536439
0.0528721
0.0521069
0.0513373
0.0505613
0.0497886
0.0490196
0.0482572
0.0474988
0.0467429
0.045989
0.0452412
0.0445007
0.0437716
0.043054
0.042349
0.0416598
0.0409922
0.0403453
0.0397198
0.0391215
0.0385585
0.0380332
0.0375443
0.0370932
0.0367008
0.036364
0.0360938
0.0358935
0.0357683
0.0357232
0.0357608
0.0358849
0.0361
0.0614835
0.0608058
0.0601028
0.0594083
0.0587026
0.0580014
0.0572971
0.0565782
0.0558754
0.055163
0.0544283
0.0537164
0.0530035
0.0522689
0.0515374
0.0507987
0.0500698
0.0493501
0.0486323
0.047911
0.047196
0.0464789
0.0457755
0.0450837
0.044404
0.0437288
0.0430824
0.0424583
0.0418568
0.0412677
0.0407208
0.0402144
0.0397608
0.0393015
0.0389268
0.0385913
0.0383327
0.0381395
0.0380179
0.0379782
0.0380157
0.0381319
0.0383411
0.00526743
0.00679086
0.00783218
0.00889001
0.0100172
0.0112079
0.0124488
0.0137274
0.0150352
0.0163658
0.0177156
0.0190821
0.0204629
0.0218572
0.023264
0.0246828
0.0261127
0.0275531
0.0290041
0.0304653
0.0319366
0.0334175
0.0349081
0.0364083
0.0379176
0.0394359
0.0409631
0.0424989
0.0440431
0.0455952
0.0471549
0.0487219
0.0502959
0.051876
0.0534617
0.0550526
0.056648
0.0582473
0.0598496
0.0614543
0.0630608
0.0646687
0.066276
0.01306
0.0136039
0.0142822
0.0150841
0.0159929
0.0169915
0.0180647
0.0191989
0.0203817
0.021603
0.0228551
0.0241316
0.0254279
0.0267404
0.0280661
0.0294028
0.0307489
0.0321026
0.0334635
0.0348309
0.0362039
0.0375821
0.0389654
0.0403536
0.0417461
0.0431429
0.0445438
0.0459487
0.0473574
0.0487699
0.0501858
0.051605
0.0530276
0.0544531
0.055881
0.0573111
0.0587432
0.0601771
0.0616121
0.0630481
0.0644851
0.0659235
0.0673614
0.0187493
0.0192249
0.0198177
0.0205213
0.0213234
0.0222122
0.0231759
0.0242029
0.0252823
0.0264044
0.0275613
0.0287464
0.0299541
0.0311796
0.032419
0.0336693
0.0349282
0.0361942
0.0374657
0.0387415
0.0400202
0.0413017
0.0425852
0.0438703
0.0451565
0.0464439
0.0477322
0.0490211
0.0503103
0.0516002
0.0528905
0.054181
0.0554718
0.0567628
0.0580539
0.0593447
0.0606352
0.0619254
0.0632151
0.0645039
0.0657919
0.0670787
0.0683599
0.0234696
0.0239157
0.0244672
0.0251179
0.0258594
0.0266821
0.0275764
0.0285317
0.0295385
0.0305879
0.031673
0.0327864
0.0339221
0.0350754
0.0362427
0.03742
0.0386049
0.0397953
0.0409894
0.0421857
0.0433829
0.0445807
0.0457782
0.0469742
0.0481689
0.0493622
0.0505535
0.0517423
0.0529289
0.0541135
0.0552958
0.0564759
0.0576539
0.0588293
0.0600024
0.0611732
0.0623415
0.0635074
0.064671
0.0658319
0.0669901
0.0681451
0.0692938
0.0274718
0.0279002
0.0284256
0.029042
0.0297442
0.0305222
0.0313677
0.0322714
0.0332248
0.0342194
0.0352484
0.0363049
0.0373826
0.0384772
0.0395847
0.0407014
0.041824
0.0429503
0.0440786
0.0452074
0.0463356
0.0474621
0.0485859
0.0497065
0.0508234
0.0519362
0.0530445
0.0541483
0.0552474
0.056342
0.0574322
0.0585178
0.0595992
0.0606759
0.0617479
0.0628152
0.063878
0.0649366
0.065991
0.0670411
0.0680871
0.0691293
0.0701691
0.0308953
0.0313104
0.031817
0.0324103
0.033084
0.0338296
0.0346387
0.0355038
0.0364163
0.0373681
0.0383529
0.0393642
0.0403958
0.0414427
0.042501
0.0435668
0.0446372
0.0457101
0.0467833
0.0478556
0.0489254
0.0499914
0.0510533
0.05211
0.0531609
0.0542052
0.0552432
0.0562745
0.057299
0.058317
0.0593287
0.0603338
0.0613328
0.0623251
0.0633101
0.0642882
0.06526
0.066226
0.0671862
0.06814
0.0690882
0.0700314
0.070975
0.0338464
0.0342508
0.0347442
0.0353205
0.0359725
0.0366928
0.0374736
0.0383083
0.0391887
0.0401061
0.0410553
0.0420305
0.0430249
0.0440327
0.0450498
0.0460729
0.0470997
0.0481277
0.0491543
0.0501786
0.0511992
0.0522146
0.0532241
0.0542265
0.0552209
0.0562068
0.0571847
0.0581544
0.0591155
0.0600678
0.0610124
0.0619496
0.0628789
0.0637984
0.0647076
0.0656084
0.0665021
0.0673888
0.0682674
0.0691371
0.0699993
0.0708544
0.0717054
0.0364062
0.0368025
0.0372856
0.0378493
0.0384854
0.039184
0.0399415
0.0407518
0.0416071
0.042495
0.0434151
0.0443618
0.0453267
0.0463011
0.0472824
0.0482694
0.0492605
0.0502497
0.0512359
0.0522202
0.0531994
0.0541722
0.0551369
0.0560933
0.0570389
0.0579745
0.058901
0.0598187
0.0607253
0.0616207
0.0625082
0.0633886
0.0642597
0.0651148
0.0659571
0.0667909
0.0676181
0.0684372
0.0692456
0.0700401
0.070828
0.0716064
0.0723818
0.0386397
0.039029
0.0395053
0.040062
0.0406881
0.0413619
0.0420999
0.0428894
0.0437234
0.0445788
0.0454806
0.0464089
0.0473478
0.0482882
0.0492373
0.0501942
0.0511588
0.0521093
0.0530607
0.0540152
0.0549579
0.0558967
0.0568213
0.0577396
0.0586406
0.0595329
0.060416
0.0612908
0.0621479
0.0629945
0.0638373
0.0646716
0.0654936
0.0662865
0.0670703
0.0678493
0.0686231
0.0693853
0.0701327
0.070855
0.0715832
0.0722904
0.0730086
0.0865134
0.08262
0.0788207
0.0751158
0.0715074
0.0679975
0.0645872
0.0612771
0.0580671
0.0549578
0.0519484
0.049038
0.0462263
0.0435116
0.0408931
0.0383687
0.0359379
0.0335984
0.0313483
0.0291859
0.0271095
0.0251173
0.0232076
0.0213789
0.0196292
0.0179576
0.0163622
0.0148411
0.0133947
0.01202
0.0107179
0.00948595
0.00832521
0.00723548
0.00621637
0.00526876
0.00439454
0.00359593
0.00287515
0.00224164
0.00175169
0.0012741
0.000737873
0.0883795
0.0847838
0.0812648
0.0778209
0.0744535
0.0711639
0.0679535
0.0648224
0.061771
0.0587993
0.0559066
0.0530941
0.0503605
0.0477052
0.0451271
0.0426266
0.0402018
0.0378522
0.0355767
0.0333737
0.0312424
0.0291827
0.0271932
0.0252735
0.0234221
0.0216379
0.0199216
0.0182733
0.016691
0.0151768
0.0137297
0.0123515
0.0110424
0.00980443
0.0086392
0.00755047
0.00654219
0.00562568
0.00484238
0.00407279
0.00328581
0.00243311
0.0014271
0.0902196
0.0868981
0.0836384
0.0804372
0.0772957
0.074215
0.0711961
0.0682383
0.0653424
0.0625086
0.0597368
0.0570277
0.0543811
0.0517958
0.0492723
0.0468101
0.0444089
0.0420685
0.0397883
0.0375672
0.0354058
0.033303
0.0312594
0.0292743
0.0273466
0.0254782
0.0236692
0.0219194
0.0202308
0.0186032
0.0170397
0.0155405
0.0141109
0.0127535
0.011474
0.0102822
0.00920824
0.00816966
0.0071235
0.00603969
0.00487876
0.00357675
0.00208101
0.0920158
0.0889506
0.0859299
0.0829533
0.0800216
0.0771356
0.0742952
0.0715001
0.0687519
0.0660497
0.0633949
0.0607872
0.0582274
0.0557149
0.0532495
0.050832
0.0484626
0.0461405
0.0438663
0.0416404
0.0394627
0.037333
0.0352518
0.0332195
0.0312366
0.0293042
0.027423
0.0255955
0.0238228
0.0221078
0.0204522
0.0188623
0.0173415
0.0159001
0.0145561
0.0132717
0.0119979
0.0107039
0.00936119
0.00793919
0.00639448
0.00465571
0.00270384
0.0937679
0.0909323
0.0881307
0.0853607
0.0826222
0.0799154
0.0772401
0.0745973
0.0719871
0.0694093
0.0668646
0.0643538
0.0618782
0.0594368
0.0570302
0.0546603
0.0523259
0.0500277
0.0477662
0.0455434
0.0433589
0.041213
0.0391069
0.0370415
0.035018
0.0330369
0.031102
0.0292149
0.0273779
0.0255952
0.0238724
0.0222158
0.0206368
0.0191252
0.0176422
0.016159
0.0146503
0.0130914
0.0114546
0.00970657
0.00779886
0.00565967
0.00329245
0.0954487
0.0928312
0.0902321
0.0876513
0.0850895
0.0825475
0.0800258
0.0775241
0.0750415
0.0725793
0.0701377
0.0677181
0.0653218
0.0629489
0.0606006
0.0582765
0.0559782
0.0537064
0.051462
0.0492469
0.0470622
0.044908
0.0427863
0.0406985
0.0386456
0.0366295
0.0346546
0.0327224
0.0308376
0.0290064
0.0272355
0.0255234
0.0238503
0.0221941
0.0205323
0.0188433
0.0171051
0.0152934
0.013379
0.011326
0.0090839
0.0065826
0.00384055
0.0970701
0.0946461
0.0922294
0.0898199
0.0874197
0.0850296
0.0826494
0.0802768
0.0779125
0.0755576
0.0732107
0.0708746
0.0685525
0.066245
0.0639516
0.061673
0.0594112
0.0571665
0.0549407
0.052736
0.050554
0.0483974
0.0462671
0.0441652
0.0420926
0.0400521
0.0380468
0.0360824
0.0341625
0.0322878
0.0304508
0.0286379
0.0268343
0.0250226
0.0231856
0.0213025
0.0193514
0.0173061
0.0151337
0.0127972
0.0102492
0.00742071
0.00434292
0.0986262
0.0963721
0.0941184
0.0918653
0.0896117
0.0873597
0.0851089
0.0828561
0.0806002
0.0783477
0.0760857
0.0738243
0.0715694
0.069324
0.0670841
0.0648479
0.0626215
0.0604052
0.0581987
0.0560046
0.0538276
0.0516703
0.0495353
0.0474263
0.0453435
0.0432851
0.0412553
0.0392586
0.0372925
0.0353495
0.0334208
0.0314952
0.0295576
0.027597
0.0255975
0.0235379
0.0213944
0.0191379
0.0167297
0.0141295
0.0112958
0.00816848
0.00479889
0.100107
0.0980017
0.0958946
0.0937855
0.0916633
0.0895359
0.0874053
0.0852689
0.0831013
0.0809567
0.0787718
0.076573
0.0743736
0.0721885
0.0700041
0.0678021
0.06561
0.0634235
0.0612378
0.0590545
0.0568802
0.0547253
0.0525841
0.0504708
0.0483833
0.046311
0.0442428
0.0421972
0.0401701
0.0381497
0.0361245
0.0340916
0.0320247
0.0299245
0.0277775
0.0255594
0.0232428
0.0208018
0.0181892
0.0153399
0.0122238
0.00878583
0.00510395
0.000471792
0.000525274
0.0007099
0.00088231
0.00105065
0.00122541
0.00141933
0.00164712
0.00191809
0.00222433
0.00256075
0.00292511
0.00331617
0.00373316
0.00417642
0.00464565
0.00514181
0.00566493
0.00621574
0.00679471
0.00740247
0.00803967
0.00870695
0.00940469
0.0101336
0.0108943
0.0116878
0.0125149
0.0133765
0.0142732
0.0152058
0.0161754
0.0171827
0.0182284
0.0193136
0.020439
0.0216052
0.0228134
0.0240644
0.0253592
0.0266987
0.0280844
0.0295211
0.000696173
0.000684169
0.000872865
0.00106458
0.00126653
0.00149151
0.00174945
0.00204615
0.00238445
0.00275417
0.00315032
0.00357131
0.00401641
0.00448505
0.00497718
0.00549303
0.00603247
0.00659582
0.00718343
0.00779542
0.00843209
0.00909367
0.00978083
0.0104939
0.0112333
0.0119996
0.0127936
0.0136156
0.0144664
0.0153466
0.0162568
0.017198
0.0181706
0.0191753
0.0202128
0.0212839
0.0223892
0.0235294
0.0247057
0.0259186
0.027169
0.0284576
0.0297844
0.000945011
0.000834079
0.00103814
0.0012633
0.00151414
0.00179966
0.00212281
0.00248282
0.00288172
0.0033082
0.00375855
0.00423165
0.00472643
0.00524274
0.00578007
0.0063383
0.0069175
0.00751715
0.00813757
0.0087789
0.00944123
0.0101245
0.0108289
0.0115548
0.0123025
0.0130727
0.0138653
0.014681
0.0155203
0.0163837
0.0172714
0.018184
0.0191225
0.0200869
0.021078
0.0220962
0.0231421
0.0242167
0.0253203
0.0264534
0.0276167
0.0288101
0.0300337
0.00119466
0.000976068
0.00120639
0.00147546
0.00178133
0.00212677
0.00250901
0.00292591
0.00337875
0.00385596
0.0043551
0.00487485
0.00541448
0.00597318
0.00655081
0.00714671
0.00776075
0.0083925
0.00904177
0.00970851
0.0103924
0.0110936
0.0118125
0.0125488
0.013303
0.0140748
0.0148651
0.0156737
0.0165012
0.0173477
0.0182137
0.0190994
0.0200055
0.0209321
0.0218797
0.0228487
0.0238396
0.0248529
0.0258891
0.0269481
0.0280303
0.0291354
0.0302632
0.00143732
0.00111427
0.00137884
0.00169662
0.00205714
0.00245731
0.00289177
0.00336041
0.00386108
0.00438385
0.00492665
0.00548854
0.00606824
0.00666526
0.00727854
0.00790794
0.00855261
0.00921232
0.00988641
0.010575
0.0112777
0.0119943
0.012725
0.0134698
0.0142285
0.0150012
0.0157881
0.0165894
0.017405
0.0182354
0.0190809
0.0199414
0.0208173
0.0217089
0.0226163
0.0235401
0.0244802
0.0254372
0.0264112
0.0274022
0.02841
0.0294344
0.030475
0.00166979
0.00125062
0.00155383
0.00192071
0.00233178
0.0027805
0.00326151
0.00377801
0.00432154
0.0048853
0.00546752
0.0060671
0.00668299
0.00731402
0.00795944
0.00861827
0.00929011
0.00997435
0.0106704
0.0113778
0.0120967
0.0128265
0.0135672
0.0143187
0.015081
0.0158536
0.0166368
0.0174305
0.0182351
0.0190504
0.0198763
0.0207134
0.0215615
0.0224208
0.0232913
0.0241733
0.025067
0.0259724
0.0268896
0.0278183
0.0287584
0.0297098
0.0306724
0.00188838
0.00138684
0.00173032
0.00214352
0.00259987
0.00309165
0.00361511
0.00417382
0.00475595
0.00535704
0.00597503
0.00660867
0.00725677
0.00791814
0.00859213
0.00927737
0.00997343
0.0106795
0.011395
0.0121194
0.0128522
0.0135933
0.0143425
0.0150994
0.0158642
0.0166363
0.0174156
0.0182021
0.0189961
0.0197973
0.0206057
0.0214211
0.0222436
0.0230728
0.0239092
0.0247527
0.0256036
0.026462
0.0273274
0.0281997
0.0290786
0.0299644
0.0308579
0.00210506
0.00151837
0.00189635
0.00235244
0.00285121
0.00338335
0.00394797
0.00454524
0.00516302
0.00579755
0.00644757
0.00711218
0.00778979
0.00847867
0.00917874
0.00988865
0.0106068
0.0113325
0.0120652
0.0128039
0.0135488
0.0142997
0.0150561
0.0158176
0.0165842
0.0173556
0.0181306
0.0189101
0.0196951
0.0204838
0.0212755
0.0220713
0.02287
0.0236708
0.0244744
0.0252823
0.0260943
0.0269101
0.0277288
0.0285498
0.0293733
0.0301995
0.0310314
0.0022108
0.00165499
0.00209708
0.00259763
0.00312923
0.00369387
0.00428894
0.00491073
0.00555011
0.00620913
0.0068939
0.00759077
0.00829033
0.00900685
0.00973882
0.0104729
0.0112097
0.011951
0.012697
0.0134445
0.0141974
0.0149569
0.0157182
0.0164821
0.0172513
0.0180223
0.0187881
0.0195619
0.0203448
0.0211202
0.0218938
0.0226751
0.0234507
0.0242201
0.0249905
0.0257647
0.0265425
0.0273216
0.0280983
0.0288722
0.0296451
0.0304149
0.0311837
0.000163352
0.000681711
0.00148085
0.00230128
0.00310693
0.00389833
0.00468035
0.005462
0.00624742
0.00703649
0.00783099
0.00863241
0.00944363
0.0102688
0.0111104
0.011973
0.0128603
0.0137754
0.0147212
0.0157009
0.0167159
0.0177668
0.0188517
0.0199696
0.0211169
0.0222901
0.0234889
0.0247139
0.0259625
0.0272377
0.0285774
0.0299925
0.0314696
0.0329961
0.0345657
0.0361758
0.037824
0.039506
0.0412199
0.0429637
0.0447364
0.0465388
0.0483794
9.56944e-05
0.000422516
0.000956729
0.00165717
0.0024663
0.00324922
0.00401574
0.0047621
0.00548726
0.0062004
0.00690961
0.00762253
0.00834343
0.00907669
0.00982616
0.0105961
0.0113906
0.0122139
0.013071
0.0139651
0.0148998
0.0158776
0.0168994
0.0179656
0.0190737
0.0202217
0.0214067
0.0226263
0.0238774
0.0251625
0.026495
0.0278833
0.0293219
0.0307997
0.032334
0.0339426
0.0356095
0.0373235
0.0390798
0.0408743
0.0427032
0.0445649
0.0464577
6.91749e-06
0.000253642
0.000609939
0.00108557
0.00168723
0.00240971
0.00325493
0.00414543
0.00499899
0.00581312
0.00659314
0.00734349
0.00807184
0.00878492
0.00948965
0.0101928
0.0109018
0.0116241
0.0123673
0.013139
0.0139466
0.0147962
0.0156933
0.0166417
0.0176437
0.0186995
0.0198085
0.0209682
0.0221762
0.0234321
0.0247382
0.0260982
0.0275107
0.0289725
0.030486
0.0320535
0.0336659
0.0353404
0.037089
0.0388955
0.0407505
0.0426491
0.04459
9.64614e-06
0.000223289
0.000526876
0.000919419
0.00141287
0.00200882
0.00271121
0.00352471
0.00442598
0.00532178
0.00619056
0.0070299
0.00784114
0.00862579
0.00938505
0.0101215
0.0108396
0.0115449
0.0122441
0.012946
0.0136599
0.0143959
0.0151642
0.0159743
0.0168342
0.0177508
0.0187286
0.0197703
0.0208759
0.0220457
0.02328
0.0245788
0.0259412
0.0273653
0.028849
0.0303896
0.0319821
0.033628
0.0353264
0.0370795
0.0389138
0.0408132
0.0427611
6.31319e-06
0.000198389
0.000464621
0.000809631
0.00124226
0.00176434
0.00237811
0.00308737
0.00389654
0.00480566
0.00573912
0.00665327
0.00754009
0.00839954
0.00923171
0.0100372
0.0108167
0.0115711
0.0123027
0.0130153
0.0137146
0.0144085
0.0151069
0.0158209
0.016563
0.0173449
0.0181782
0.0190723
0.0200347
0.0210707
0.0221836
0.0233754
0.0246457
0.0259935
0.027416
0.0289087
0.0304667
0.032086
0.0337609
0.0354897
0.0372761
0.0391214
0.0410433
6.26725e-06
0.000189109
0.000430352
0.000745421
0.00113765
0.0016112
0.00216707
0.00280918
0.00354194
0.00437016
0.00529334
0.00624905
0.0071938
0.00811598
0.00901311
0.00988497
0.010731
0.0115503
0.0123428
0.0131084
0.013848
0.0145645
0.015263
0.0159511
0.0166387
0.0173379
0.0180628
0.0188277
0.0196464
0.0205319
0.0214944
0.0225418
0.0236791
0.0249083
0.0262289
0.0276379
0.0291299
0.0306986
0.0323373
0.0340401
0.0358013
0.0376153
0.0394642
5.77867e-06
0.000185131
0.000402763
0.000696066
0.00105909
0.0014978
0.00201213
0.00260548
0.00328175
0.00404543
0.00490203
0.00584836
0.00682799
0.00780047
0.00875319
0.00968308
0.010589
0.0114695
0.0123237
0.0131503
0.0139483
0.014717
0.0154569
0.0161711
0.0168641
0.0175437
0.0182206
0.0189083
0.0196226
0.0203805
0.0211984
0.0220919
0.0230737
0.0241527
0.0253347
0.026621
0.0280089
0.0294933
0.0310669
0.0327212
0.0344474
0.0362368
0.0380808
5.60968e-06
0.00018113
0.00038293
0.000660023
0.00100136
0.00141278
0.00189535
0.00245151
0.00308485
0.00379981
0.0046012
0.00549379
0.00646861
0.00747109
0.00846784
0.00944719
0.0104052
0.0113404
0.0122513
0.0131361
0.013993
0.0148201
0.0156159
0.01638
0.0171129
0.0178173
0.0184988
0.0191662
0.0198315
0.0205105
0.0212214
0.0219838
0.0228169
0.0237379
0.0247606
0.0258946
0.0271439
0.0285077
0.029981
0.0315558
0.0332227
0.0349725
0.0368018
5.41301e-06
0.000177912
0.000366414
0.000630547
0.000954687
0.00134428
0.00180188
0.0023287
0.00292803
0.0036041
0.00436143
0.00520451
0.0061382
0.00714337
0.00816932
0.00918902
0.0101923
0.0111758
0.0121373
0.013075
0.0139868
0.0148705
0.0157236
0.0165442
0.0173302
0.0180813
0.0187989
0.0194865
0.0201509
0.0208031
0.0214576
0.0221331
0.0228507
0.0236327
0.0245002
0.0254718
0.0265607
0.0277743
0.029114
0.0305758
0.0321526
0.0338354
0.0356191
5.2898e-06
0.00017483
0.00035298
0.000606489
0.000916522
0.0012882
0.00172531
0.00222815
0.00279964
0.003444
0.00416497
0.00496744
0.00585694
0.00683443
0.00786918
0.00891791
0.00995932
0.010985
0.0119917
0.0129769
0.0139388
0.0148748
0.0157823
0.0166584
0.0175004
0.018306
0.0190737
0.0198037
0.0204982
0.0211628
0.0218064
0.0224431
0.0230912
0.0237727
0.0245122
0.0253343
0.026261
0.02731
0.0284918
0.029811
0.031266
0.0328543
0.0345863
5.19029e-06
0.000172084
0.000341704
0.00058625
0.000884473
0.00124113
0.00166073
0.00214344
0.0026918
0.00330957
0.00400043
0.00476907
0.00562029
0.00655877
0.00757961
0.00864245
0.00971327
0.0107755
0.0118222
0.0128504
0.0138574
0.0148411
0.015799
0.0167273
0.0176235
0.0184843
0.0193067
0.0200886
0.0208292
0.0215297
0.0221944
0.0228315
0.023454
0.0240798
0.0247316
0.0254359
0.0262197
0.0271087
0.0281243
0.0292811
0.0305869
0.0320455
0.0336602
5.12481e-06
0.000169711
0.000332404
0.000569004
0.000857259
0.0012013
0.00160545
0.00207093
0.00259952
0.00319459
0.00385981
0.00459954
0.00541827
0.00632133
0.0073116
0.00837154
0.00946102
0.010553
0.0116349
0.0127015
0.0137496
0.0147768
0.0157805
0.0167576
0.0177047
0.0186184
0.0194951
0.0203314
0.0211246
0.0218732
0.0225777
0.0232416
0.0238722
0.0244818
0.0250882
0.0257149
0.0263896
0.0271416
0.0280001
0.0289901
0.0301302
0.0314318
0.0328952
5.07963e-06
0.000167805
0.000324954
0.000554038
0.000833458
0.00116656
0.0015573
0.00200782
0.00251938
0.00309486
0.0037379
0.00445249
0.00524323
0.0061151
0.00707233
0.00811367
0.00920892
0.0103224
0.0114343
0.0125352
0.0136207
0.0146875
0.0157333
0.0167551
0.0177497
0.018713
0.0196417
0.0205314
0.0213787
0.0221803
0.0229341
0.0236401
0.0243011
0.024924
0.0255208
0.0261094
0.0267137
0.027363
0.0280892
0.0289246
0.0298977
0.0310304
0.0323371
5.05451e-06
0.000166465
0.000319387
0.00054099
0.000812568
0.00113601
0.00151498
0.00195232
0.00244891
0.00300739
0.00363105
0.00432369
0.00508991
0.00593422
0.00686144
0.00787534
0.00896316
0.0100889
0.0112247
0.0123557
0.0134749
0.0145781
0.0156625
0.0167254
0.0177635
0.0187734
0.0197508
0.0206918
0.0215921
0.0224474
0.0232542
0.0240102
0.0247146
0.0253703
0.0259837
0.0265667
0.0271376
0.0277216
0.0283494
0.0290556
0.0298751
0.0308396
0.0319718
5.04604e-06
0.000165633
0.000315422
0.000529562
0.000794067
0.00110897
0.00147749
0.00190312
0.00238636
0.00292964
0.00353609
0.00420951
0.00495406
0.00577412
0.0066746
0.00766013
0.00872932
0.00985706
0.01101
0.0121664
0.0133158
0.0144523
0.0155721
0.0166729
0.0177516
0.0188045
0.0198275
0.0208167
0.0217676
0.0226754
0.0235356
0.0243446
0.0250994
0.0257993
0.0264465
0.0270479
0.0276155
0.0281688
0.0287339
0.0293437
0.0300354
0.0308477
0.0318194
5.04868e-06
0.000165163
0.000312611
0.000519473
0.000777622
0.00108488
0.00144416
0.00185909
0.00233038
0.00286006
0.00345121
0.00410734
0.00483246
0.00563082
0.00650723
0.00746667
0.00851175
0.00963162
0.0107939
0.0119705
0.0131462
0.0143128
0.0154656
0.0166017
0.0177178
0.0188105
0.0198761
0.0209106
0.0219093
0.0228674
0.0237798
0.024642
0.0254497
0.0261998
0.0268914
0.0275271
0.0281137
0.0286645
0.0291996
0.0297473
0.0303431
0.0310283
0.0318498
5.05538e-06
0.000164875
0.000310484
0.000510423
0.000762774
0.0010632
0.0014143
0.00181944
0.00227989
0.00279733
0.00337468
0.00401546
0.00472319
0.00550202
0.00635685
0.00729237
0.00831292
0.00941685
0.01058
0.0117708
0.012969
0.0141629
0.0153461
0.0165148
0.0176655
0.0187953
0.0199005
0.0209774
0.0220211
0.0230269
0.0239895
0.0249036
0.0257643
0.026567
0.0273087
0.0279887
0.0286096
0.0291788
0.0297109
0.0302278
0.0307603
0.0313483
0.0320392
5.06932e-06
0.000164734
0.000308772
0.000502254
0.000749331
0.00104358
0.00138719
0.0017835
0.00223414
0.00274061
0.0033055
0.00393229
0.00462439
0.00538572
0.00622091
0.00713464
0.00813225
0.00921552
0.0103719
0.0115708
0.0127868
0.0140048
0.0152158
0.0164147
0.017598
0.0187624
0.0199047
0.021021
0.0221069
0.0231575
0.0241678
0.025132
0.0260445
0.0269002
0.0276945
0.0284241
0.0290887
0.0296913
0.0302406
0.0307527
0.0312523
0.0317744
0.0323644
5.08244e-06
0.000164673
0.000307292
0.000494853
0.000737124
0.00102572
0.00136256
0.00175079
0.00219256
0.002689
0.0032426
0.00385663
0.00453435
0.00527974
0.00609726
0.00699178
0.00796795
0.00902952
0.0101726
0.0113733
0.0126023
0.0138408
0.0150769
0.0163038
0.0175175
0.0187144
0.0198914
0.0210448
0.0221702
0.023263
0.0243183
0.0253302
0.0262929
0.0272005
0.0280477
0.0288297
0.0295434
0.0301888
0.03077
0.0312972
0.0317893
0.0322748
0.0327947
5.09604e-06
0.000164601
0.000305981
0.000488127
0.000726
0.00100942
0.0013401
0.00172096
0.00215461
0.00264193
0.00318523
0.00378755
0.00445233
0.0051832
0.00598472
0.00686148
0.00781774
0.00885834
0.00998451
0.0111805
0.012418
0.0136731
0.0149314
0.0161842
0.0174262
0.0186537
0.0198633
0.0210516
0.0222143
0.0233469
0.0244445
0.0255015
0.0265123
0.0274702
0.0283695
0.0292043
0.02997
0.0306639
0.0312866
0.0318437
0.0323481
0.0328217
0.0332978
5.11491e-06
0.000164611
0.000304846
0.000482087
0.000715885
0.000994611
0.00131959
0.00169372
0.00211995
0.00259888
0.00313275
0.00372444
0.00437726
0.00509509
0.00588189
0.00674218
0.00768027
0.00870124
0.00980865
0.0109951
0.0122357
0.0135039
0.0147813
0.0160577
0.0173264
0.0185825
0.0198229
0.021044
0.0222417
0.0234118
0.0245495
0.0256495
0.0267057
0.027712
0.0286618
0.0295488
0.0303674
0.0311128
0.031783
0.0323799
0.0329107
0.0333909
0.0338439
5.13164e-06
0.000164611
0.000303778
0.000476615
0.000706663
0.000981079
0.00130091
0.00166883
0.00208814
0.00255938
0.00308455
0.0036665
0.00430848
0.00501411
0.00578733
0.00663256
0.00755421
0.00855716
0.00964591
0.0108189
0.0120575
0.0133346
0.0146287
0.0159264
0.0172196
0.0185028
0.0197721
0.0210241
0.0222549
0.0234604
0.0246362
0.0257768
0.0268763
0.0279286
0.0289271
0.029865
0.0307359
0.031534
0.032255
0.0328977
0.0334651
0.0339661
0.0344169
5.14947e-06
0.000164623
0.000302788
0.000471682
0.000698199
0.000968675
0.0012838
0.00164619
0.00205895
0.00252301
0.00304022
0.00361323
0.00424514
0.00493959
0.00570048
0.00653178
0.00743814
0.00842448
0.00949546
0.0106528
0.011885
0.0131668
0.0144746
0.0157915
0.0171073
0.0184157
0.0197124
0.0209938
0.0222562
0.0234953
0.0247068
0.0258859
0.0270266
0.0281228
0.0291679
0.0301551
0.0310773
0.0319277
0.0327008
0.0333931
0.0340038
0.034537
0.0350029
5.16929e-06
0.000164621
0.000301895
0.000467313
0.000690425
0.000957207
0.00126797
0.00162523
0.00203199
0.00248948
0.00299931
0.00356406
0.00418674
0.00487086
0.00562025
0.00643881
0.00733103
0.00830184
0.00935628
0.0104974
0.0117198
0.0130026
0.0143202
0.0156538
0.0169906
0.0183227
0.0196457
0.020955
0.0222472
0.0235183
0.024764
0.0259795
0.0271593
0.0282971
0.0293868
0.0304212
0.031393
0.032295
0.0331205
0.033864
0.0345223
0.0350955
0.0355882
5.1934e-06
0.00016466
0.000301119
0.000463449
0.000683257
0.000946594
0.00125335
0.00160585
0.00200701
0.00245839
0.00296143
0.00351852
0.00413268
0.00480727
0.00554603
0.00635285
0.00723225
0.00818867
0.00922724
0.0103523
0.0115626
0.0128426
0.0141671
0.0155149
0.0168706
0.0182252
0.019573
0.020909
0.0222294
0.0235309
0.0248092
0.0260593
0.0272762
0.028454
0.0295861
0.0306657
0.0316854
0.0326375
0.0335147
0.03431
0.0350183
0.0356366
0.0361646
5.22057e-06
0.000164732
0.000300472
0.000460115
0.000676669
0.000936788
0.00123979
0.00158785
0.00198384
0.00242952
0.00292627
0.00347631
0.0040825
0.00474829
0.00547718
0.00627319
0.00714052
0.00808377
0.00910778
0.0102171
0.0114138
0.0126879
0.0140163
0.0153756
0.0167484
0.0181238
0.0194946
0.0208562
0.022204
0.0235346
0.0248436
0.0261268
0.0273793
0.0285952
0.0297679
0.0308908
0.0319566
0.0329571
0.0338846
0.0347314
0.0354905
0.0361566
0.0367267
5.24929e-06
0.000164851
0.000299959
0.00045728
0.000670612
0.000927656
0.00122715
0.00157106
0.00196223
0.00240267
0.00289349
0.00343695
0.00403582
0.00469336
0.00541316
0.006199
0.00705503
0.0079861
0.00899662
0.0100914
0.011274
0.0125394
0.0138684
0.0152364
0.0166241
0.0180188
0.019412
0.0207977
0.0221718
0.0235303
0.0248692
0.0261842
0.0274704
0.0287222
0.0299338
0.0310982
0.0322079
0.0332552
0.0342316
0.0351289
0.0359389
0.0366542
0.0372687
5.28263e-06
0.000164974
0.000299532
0.000454823
0.000664998
0.000919129
0.00121531
0.00155537
0.00194203
0.00237757
0.00286289
0.00340019
0.00399217
0.0046421
0.00535336
0.00612975
0.00697542
0.00789492
0.00889279
0.00997394
0.0111427
0.0123975
0.0137242
0.0150982
0.0164987
0.0179111
0.0193255
0.0207344
0.0221334
0.0235189
0.0248864
0.0262319
0.0275505
0.0288369
0.0300855
0.0312895
0.0324415
0.0335337
0.0345574
0.035504
0.0363644
0.0371293
0.0377886
5.31741e-06
0.000165105
0.000299179
0.000452718
0.000659775
0.00091115
0.00120425
0.00154064
0.00192306
0.00235399
0.00283415
0.00336567
0.00395128
0.00459399
0.00529733
0.0060649
0.00690086
0.00780959
0.00879556
0.00986377
0.0110189
0.0122622
0.0135837
0.0149616
0.0163731
0.0178013
0.0192352
0.0206663
0.0220897
0.0235008
0.0248958
0.0262705
0.0276203
0.0289403
0.0302243
0.0314663
0.0326589
0.0337943
0.0348639
0.0358585
0.036769
0.0375855
0.0383001
5.34874e-06
0.000165228
0.000298848
0.000450851
0.000654912
0.000903652
0.00119382
0.00152685
0.00190525
0.0023318
0.00280713
0.00333326
0.00391281
0.00454879
0.00524458
0.0060039
0.00683069
0.00772927
0.00870419
0.0097601
0.0109022
0.0121334
0.0134476
0.0148267
0.0162469
0.0176896
0.0191414
0.0205939
0.0220405
0.0234764
0.024898
0.026301
0.0276808
0.0290329
0.0303512
0.0316296
0.0328612
0.0340381
0.035152
0.0361938
0.0371538
0.0380221
0.0387886
5.38229e-06
0.000165347
0.000298561
0.000449195
0.000650317
0.000896596
0.00118399
0.00151383
0.0018885
0.00231087
0.00278158
0.00330262