/*--------------------------------*- C++ -*----------------------------------*\
| =========                 |                                                 |
| \\      /  F ield         | OpenFOAM: The Open Source CFD Toolbox           |
|  \\    /   O peration     | Version:  2.3.0                                 |
|   \\  /    A nd           | Web:      www.OpenFOAM.org                      |
|    \\/     M anipulation  |                                                 |
\*---------------------------------------------------------------------------*/
FoamFile
{
    version     2.0;
    format      ascii;
    class       volScalarField;
    location    "4000";
    object      p;
}
// * * * * * * * * * * * * * * * * * * * * * * * * * * * * * * * * * * * * * //

dimensions      [0 2 -2 0 0 0 0];

internalField   nonuniform List<scalar> 
38075
(
8.70721e-05
-0.609271
-1.30788
-2.07388
-2.88046
-3.71985
-4.59324
-5.4949
-6.42995
-7.39568
-8.3897
-9.41242
-10.4659
-11.5516
-12.659
-13.7927
-14.9498
-16.1157
-17.2897
-18.4626
-19.6289
-20.7823
-21.9046
-22.9952
-24.0355
-25.0149
-25.9135
-26.7259
-27.4342
-27.9941
-28.4297
-28.6114
-28.5532
-28.1807
-27.3079
-25.8285
-23.6477
-20.5834
-15.5999
-8.1501
-3.18375
-7.46313
0.62243
6.37518
5.75152
5.4722
5.20023
4.94906
4.71683
4.49826
4.29719
4.11502
3.9483
3.80531
3.67977
3.57782
3.4933
3.44077
3.4062
3.39991
3.43544
3.50012
3.61489
3.79307
4.05713
4.43582
4.9577
5.66036
6.60607
7.84385
9.44605
11.4866
14.0647
17.295
21.2861
26.169
32.1111
39.2767
47.8789
58.1009
70.1947
84.473
101.173
120.108
141.139
164.243
11.1484
11.0019
11.0067
10.9872
10.9823
10.9921
11.0192
11.0662
11.1363
11.2295
11.357
11.5099
11.7108
11.9453
12.2373
12.5772
12.9766
13.4545
14.0095
14.6557
15.4004
16.2636
17.2575
18.392
19.7028
21.2015
22.9234
24.9088
27.1961
29.8327
32.8734
36.4014
40.4897
45.2286
50.7137
57.0466
64.352
72.7208
82.2467
92.9499
104.844
118.065
132.504
15.7684
15.77
15.969
16.1634
16.3806
16.631
16.9101
17.2266
17.58
17.9733
18.4107
18.8946
19.4322
20.024
20.6806
21.4119
22.2169
23.1146
24.1105
25.2223
26.4618
27.85
29.4101
31.1664
33.1411
35.3822
37.9068
40.7656
43.9906
47.6486
51.7787
56.4365
61.6744
67.5499
74.1225
81.4429
89.529
98.4006
108.027
118.325
129.152
140.324
151.555
19.7966
19.9434
20.2768
20.6055
20.9653
21.3588
21.7849
22.2523
22.754
23.3094
23.9041
24.5587
25.2699
26.0452
26.8838
27.8033
28.8027
29.8944
31.0936
32.4019
33.835
35.417
37.1517
39.0672
41.1795
43.5206
46.1226
49.015
52.2268
55.8014
59.7887
64.2263
69.1594
74.629
80.675
87.3358
94.6217
102.54
111.046
120.094
129.55
139.24
148.964
23.3725
23.6404
24.0625
24.4847
24.944
25.4355
25.9747
26.5575
27.1691
27.8534
28.5689
29.3444
30.1949
31.1092
32.0878
33.148
34.2923
35.5357
36.8917
38.3664
39.9756
41.7303
43.6393
45.7399
48.0443
50.5612
53.3411
56.4045
59.7742
63.4912
67.5922
72.1073
77.0695
82.4991
88.4154
94.8498
101.788
109.234
117.137
125.444
134.041
142.758
151.46
26.4315
26.8646
27.3563
27.8516
28.3961
28.9544
29.5714
30.2349
30.9082
31.6755
32.473
33.3117
34.2621
35.2681
36.3177
37.4855
38.7215
40.0652
41.5081
43.062
44.7526
46.6028
48.5766
50.7372
53.0955
55.6741
58.4817
61.5533
64.9096
68.5916
72.6169
77.0374
81.8599
87.1225
92.8077
98.9775
105.575
112.638
120.083
127.864
135.891
143.956
151.983
29.0379
29.7215
30.2751
30.7889
31.3718
31.9305
32.5906
33.3364
34.0394
34.898
35.7331
36.5489
37.607
38.734
39.7942
41.0192
42.2925
43.7236
45.2633
46.8882
48.6291
50.5739
52.5847
54.7861
57.1805
59.7801
62.6068
65.7285
69.1279
72.7637
76.6856
81.1054
85.9446
91.015
96.3994
102.323
108.551
115.257
122.306
129.661
137.315
144.938
152.487
32.3534
32.5703
33.4332
33.3735
33.7237
34.0684
34.6602
35.8204
36.0796
37.0608
38.363
38.5161
39.5153
41.2695
42.1386
43.2083
44.1902
45.4293
46.9908
48.6962
50.4898
52.4948
54.4811
56.6788
59.0412
61.5551
64.2549
67.3556
70.9995
74.7969
78.6963
83.3191
88.8136
94.1277
99.2508
105.098
110.776
116.795
122.945
129.489
136.782
144.308
151.76
77.8656
128.949
160.052
182.288
199.217
212.245
222.393
230.298
236.453
241.237
244.968
247.931
250.253
252.037
253.382
254.351
255.015
255.413
255.592
255.587
255.418
255.122
254.707
254.197
253.607
252.949
252.231
251.463
250.651
249.804
248.922
248.01
247.073
246.11
245.124
244.118
243.088
242.04
240.972
239.887
238.786
237.675
236.431
185.414
200.306
212.316
222.232
230.366
236.91
242.059
246.061
249.136
251.474
253.221
254.487
255.358
255.903
256.185
256.25
256.142
255.893
255.527
255.066
254.526
253.921
253.261
252.552
251.803
251.017
250.2
249.354
248.481
247.587
246.671
245.737
244.785
243.819
242.841
241.85
240.848
239.835
238.814
237.791
236.768
235.671
234.379
147.152
160.982
173.618
184.87
194.731
203.274
210.594
216.82
222.075
226.495
230.195
233.269
235.813
237.9
239.6
240.967
242.049
242.885
243.51
243.95
244.233
244.376
244.398
244.314
244.137
243.878
243.545
243.149
242.696
242.193
241.644
241.055
240.43
239.771
239.082
238.365
237.621
236.851
236.061
235.256
234.435
233.488
232.173
162.48
172.82
182.386
191.072
198.827
205.66
211.607
216.737
221.124
224.853
227.999
230.635
232.831
234.646
236.129
237.329
238.283
239.025
239.585
239.985
240.249
240.394
240.435
240.386
240.258
240.059
239.799
239.485
239.124
238.719
238.276
237.8
237.294
236.759
236.196
235.607
234.994
234.359
233.703
233.031
232.338
231.559
230.531
158.515
167.703
176.368
184.393
191.689
198.238
204.046
209.154
213.604
217.459
220.778
223.62
226.042
228.095
229.822
231.264
232.459
233.438
234.227
234.852
235.33
235.681
235.918
236.058
236.109
236.083
235.989
235.835
235.627
235.374
235.076
234.742
234.374
233.975
233.544
233.084
232.596
232.088
231.557
231.01
230.437
229.852
229.457
159.983
168.196
175.982
183.237
189.897
195.928
201.324
206.115
210.325
214.008
217.204
219.967
222.346
224.382
226.113
227.574
228.801
229.823
230.664
231.344
231.882
232.297
232.602
232.813
232.936
232.987
232.972
232.901
232.78
232.613
232.401
232.162
231.891
231.587
231.25
230.878
230.478
230.066
229.627
229.172
228.676
228.216
228.157
159.834
167.437
174.664
181.426
187.693
193.393
198.518
203.115
207.181
210.749
213.862
216.588
218.966
221.011
222.763
224.261
225.531
226.609
227.504
228.24
228.838
229.316
229.69
229.974
230.166
230.288
230.348
230.354
230.307
230.204
230.056
229.913
229.737
229.509
229.234
228.917
228.578
228.257
227.899
227.531
227.104
226.766
227.243
159.827
166.965
173.778
180.145
186.12
191.575
196.468
200.958
204.912
208.315
211.297
213.993
216.384
218.406
220.143
221.659
222.95
224.047
224.962
225.731
226.371
226.896
227.32
227.648
227.861
228.023
228.134
228.19
228.169
228.09
228.016
228.014
227.91
227.683
227.415
227.134
226.871
226.689
226.391
226.061
225.662
225.393
225.711
158.976
165.933
172.56
178.726
184.645
189.987
194.67
199.053
202.752
206.176
209.101
211.819
214.124
215.986
217.683
219.23
220.437
221.528
222.499
223.32
224
224.516
224.925
225.206
225.374
225.579
225.76
225.844
225.865
225.936
226.095
226.266
225.87
225.786
225.711
225.619
225.561
225.554
224.996
224.84
224.369
224.379
224.731
-82.595
-82.4966
-82.4337
-82.3552
-82.2605
-82.1512
-82.0284
-81.8932
-81.7458
-81.5866
-81.4157
-81.2345
-81.0426
-80.8412
-80.6305
-80.4131
-80.1886
-79.9577
-79.7213
-79.4819
-79.2404
-78.9978
-78.7565
-78.517
-78.2827
-78.0534
-77.8313
-77.6182
-77.4159
-77.2251
-77.0478
-76.8843
-76.7366
-76.6045
-76.4868
-76.3819
-76.2831
-76.1745
-76.0202
-75.7564
-75.258
-74.165
-71.6962
-83.0846
-82.8781
-82.7176
-82.5442
-82.3569
-82.1594
-81.9558
-81.7487
-81.538
-81.3256
-81.1142
-80.904
-80.6967
-80.4936
-80.2938
-80.0993
-79.9095
-79.7268
-79.5501
-79.3784
-79.212
-79.0518
-78.896
-78.7443
-78.5956
-78.4502
-78.3095
-78.1711
-78.0344
-77.8999
-77.7656
-77.6308
-77.4906
-77.3412
-77.1738
-76.974
-76.7158
-76.3637
-75.8422
-74.948
-73.2431
-70.2525
-66.194
-83.6294
-83.4308
-83.3209
-83.2071
-83.0848
-82.9571
-82.8239
-82.6867
-82.5473
-82.4058
-82.261
-82.1143
-81.9652
-81.8134
-81.6603
-81.5058
-81.3498
-81.1925
-81.0344
-80.8755
-80.7156
-80.5553
-80.3937
-80.2311
-80.0677
-79.9027
-79.7345
-79.5638
-79.3887
-79.2067
-79.0153
-78.8099
-78.5842
-78.3266
-78.0193
-77.636
-77.1345
-76.4341
-75.3864
-73.7091
-70.9386
-66.6896
-61.0808
-84.0438
-83.8737
-83.7895
-83.7022
-83.6048
-83.5
-83.3882
-83.2696
-83.1475
-83.0246
-82.8992
-82.7697
-82.6358
-82.4996
-82.3605
-82.2199
-82.0785
-81.9352
-81.7919
-81.6486
-81.5037
-81.3563
-81.206
-81.0524
-80.8941
-80.7291
-80.5558
-80.3719
-80.1746
-79.9597
-79.7209
-79.45
-79.1343
-78.7573
-78.2929
-77.6997
-76.9102
-75.814
-74.2223
-71.8333
-68.3031
-63.4754
-57.6591
-84.3148
-84.1924
-84.162
-84.1079
-84.0398
-83.9597
-83.8694
-83.7707
-83.6689
-83.5653
-83.4592
-83.3534
-83.2394
-83.1203
-82.9976
-82.8704
-82.7377
-82.6014
-82.4636
-82.3233
-82.1805
-82.0353
-81.8853
-81.7292
-81.5632
-81.387
-81.197
-80.9881
-80.7559
-80.4963
-80.1978
-79.848
-79.43
-78.9209
-78.2851
-77.4697
-76.3914
-74.9167
-72.8471
-69.9142
-65.8737
-60.6833
-54.8723
-84.7272
-84.526
-84.4906
-84.4471
-84.3943
-84.3333
-84.2621
-84.1713
-84.0718
-83.9832
-83.8893
-83.8039
-83.7034
-83.5966
-83.4836
-83.3638
-83.2372
-83.101
-82.9616
-82.8204
-82.6732
-82.5233
-82.3672
-82.2043
-82.0276
-81.8374
-81.6296
-81.3954
-81.1276
-80.8235
-80.4664
-80.0425
-79.5316
-78.9084
-78.1254
-77.1223
-75.8031
-74.0323
-71.6041
-68.2583
-63.838
-58.397
-52.5453
-84.9886
-84.7688
-84.7457
-84.7142
-84.6764
-84.6344
-84.5866
-84.5048
-84.3988
-84.3195
-84.2164
-84.1607
-84.07
-83.9689
-83.8688
-83.7649
-83.6474
-83.5054
-83.3575
-83.2118
-83.0529
-82.8965
-82.7264
-82.5561
-82.3664
-82.1563
-81.9291
-81.6724
-81.3598
-81.0159
-80.6058
-80.1169
-79.5174
-78.7913
-77.8774
-76.7179
-75.2019
-73.2091
-70.5094
-66.732
-61.84
-56.04
-50.0852
-85.1406
-84.9112
-84.9691
-84.9529
-84.9295
-84.9027
-84.875
-84.8062
-84.6356
-84.5644
-84.3916
-84.4028
-84.3387
-84.2167
-84.0929
-83.9951
-83.912
-83.7545
-83.5589
-83.4089
-83.2239
-83.061
-82.863
-82.697
-82.4887
-82.2413
-81.998
-81.7453
-81.3704
-81.013
-80.5776
-80.053
-79.3676
-78.5587
-77.5114
-76.2522
-74.6282
-72.6125
-70.1134
-66.191
-61.0708
-54.9762
-48.7208
-84.3468
-84.4013
-84.815
-84.9624
-85.1717
-85.3546
-85.6196
-85.4399
-85.1617
-85.0371
-84.6954
-84.9257
-85.1599
-85.1736
-84.9135
-84.7842
-84.8423
-84.8236
-84.516
-84.359
-84.1022
-83.9348
-83.6587
-83.4983
-83.3063
-82.9579
-82.6431
-82.4789
-81.8551
-81.3473
-80.8698
-80.2241
-79.4075
-78.6135
-77.443
-76.0661
-74.194
-72.017
-68.9729
-62.4579
-54.8515
-48.103
-42.4331
-63.2678
-56.4783
-50.0543
-44.4445
-39.3396
-34.7199
-30.5042
-26.6289
-23.0396
-19.6841
-16.5249
-13.521
-10.6502
-7.89048
-5.22537
-2.64118
-0.12617
2.32676
4.72595
7.07761
9.38465
11.6538
13.8866
16.0862
18.2548
20.3958
22.51
24.6007
26.6664
28.7112
30.7345
32.7392
34.7233
36.6895
38.6384
40.5701
42.4843
44.3833
46.2682
48.1358
49.9779
51.83
53.8364
-60.1931
-56.0022
-51.2178
-46.4319
-41.6367
-37.012
-32.591
-28.3969
-24.4289
-20.6726
-17.1171
-13.7454
-10.5414
-7.48942
-4.57263
-1.77939
0.902598
3.48269
5.97211
8.3768
10.7079
12.969
15.168
17.3096
19.3988
21.4403
23.4377
25.394
27.3151
29.2039
31.0607
32.8899
34.6942
36.4745
38.2339
39.9751
41.6973
43.4035
45.0976
46.776
48.428
50.083
51.8779
-55.0419
-50.7865
-46.3913
-42.1652
-37.9579
-33.8749
-29.9197
-26.1159
-22.4678
-18.9793
-15.6464
-12.4628
-9.42008
-6.5087
-3.71941
-1.04111
1.53608
4.01592
6.41189
8.72886
10.9746
13.1531
15.2719
17.3348
19.3481
21.3136
23.2372
25.1206
26.9673
28.7793
30.559
32.3081
34.0314
35.7257
37.3964
39.0439
40.6704
42.2762
43.8652
45.4359
46.9785
48.5243
50.1996
-52.1228
-47.9914
-43.8712
-39.8827
-35.9237
-32.0873
-28.3726
-24.7944
-21.355
-18.0545
-14.89
-11.8545
-8.94346
-6.14697
-3.46024
-0.874821
1.61751
4.02169
6.34533
8.59602
10.7784
12.8987
14.962
16.9698
18.9283
20.8391
22.7082
24.5375
26.328
28.0838
29.8086
31.4997
33.1622
34.7963
36.4061
37.9917
39.5551
41.099
42.6219
44.1266
45.6049
47.0806
48.6519
-49.6837
-45.7899
-41.9891
-38.2205
-34.4561
-30.7815
-27.205
-23.7462
-20.4109
-17.2019
-14.1172
-11.1531
-8.30645
-5.57172
-2.94166
-0.409713
2.02908
4.38377
6.65744
8.8595
10.9923
13.0608
15.0705
17.0233
18.9269
20.7791
22.5854
24.3508
26.0772
27.7659
29.4189
31.0376
32.6252
34.1826
35.7123
37.2206
38.7054
40.1696
41.6116
43.0341
44.4308
45.8208
47.2962
-47.4541
-43.6677
-40.0588
-36.4482
-32.8502
-29.3247
-25.8821
-22.5413
-19.3086
-16.1898
-13.1869
-10.2977
-7.51732
-4.84586
-2.27723
0.193001
2.5758
4.87381
7.09301
9.24128
11.3232
13.3394
15.2948
17.1951
19.0446
20.8386
22.5849
24.2946
25.9619
27.5848
29.1725
30.7243
32.2391
33.721
35.1758
36.6109
38.0234
39.4084
40.767
42.1051
43.4186
44.7167
46.1008
-45.1875
-41.6534
-38.2473
-34.7928
-31.3494
-27.9605
-24.6407
-21.4078
-18.2679
-15.2322
-12.3117
-9.49712
-6.7815
-4.17709
-1.67575
0.73254
3.06112
5.30737
7.47767
9.57997
11.6206
13.5914
15.4967
17.3534
19.1644
20.8999
22.5899
24.2594
25.8757
27.4342
28.965
30.457
31.9057
33.3198
34.7123
36.0881
37.44
38.7547
40.0361
41.2979
42.54
43.7556
45.0746
-43.8694
-40.3271
-36.9031
-33.4879
-30.1189
-26.8219
-23.588
-20.4409
-17.373
-14.3937
-11.5403
-8.78447
-6.10985
-3.55767
-1.10522
1.25672
3.55031
5.75588
7.88475
9.95353
11.9734
13.898
15.7515
17.5783
19.3673
21.003
22.6407
24.3131
25.8813
27.3668
28.8655
30.3046
31.6782
33.0083
34.3352
35.6571
36.9576
38.1939
39.3894
40.5729
41.7524
42.8778
44.1637
-40.2682
-38.4493
-35.4164
-32.2141
-29.0132
-25.8651
-22.7132
-19.6446
-16.5953
-13.5954
-10.8703
-8.17585
-5.44462
-3.00735
-0.673231
1.60353
3.89297
6.0299
8.11022
10.1773
12.2228
14.0389
15.8338
17.6838
19.5038
20.8763
22.5991
24.4456
25.8173
27.1419
28.6959
30.0077
31.2482
32.5334
33.8886
35.2508
36.5714
37.7146
38.8198
39.9736
41.2035
42.2385
43.5288
-128.399
-128.387
-128.588
-127.552
-124.663
-120.353
-115.153
-109.427
-103.331
-97.0997
-90.8465
-84.7454
-78.914
-73.2618
-67.929
-62.9016
-58.1722
-53.7841
-49.7161
-45.963
-42.5184
-39.3508
-36.4495
-33.7912
-31.3449
-29.0913
-27.0003
-25.0558
-23.2395
-21.5361
-19.9366
-18.4298
-17.0053
-15.6531
-14.365
-13.1348
-11.9577
-10.8301
-9.74754
-8.70459
-7.68606
-6.66465
-5.69221
-100.609
-100.386
-99.7616
-98.8485
-97.8307
-96.9145
-96.1806
-95.642
-95.2465
-94.8509
-94.1991
-93.1462
-91.6679
-89.7324
-87.4008
-84.6994
-81.6549
-78.3507
-74.8369
-71.169
-67.404
-63.6335
-59.8818
-56.2098
-52.6481
-49.225
-45.953
-42.8384
-39.8888
-37.0902
-34.4468
-31.9527
-29.6
-27.3798
-25.283
-23.2997
-21.4242
-19.6473
-17.9619
-16.3615
-14.8421
-13.4026
-12.2349
-107.256
-107.166
-107.201
-107.264
-107.319
-107.293
-107.089
-106.62
-105.857
-104.84
-103.617
-102.267
-100.802
-99.179
-97.3335
-95.2233
-92.8638
-90.2314
-87.3616
-84.2761
-80.9582
-77.5087
-73.9152
-70.2644
-66.5722
-62.9086
-59.2921
-55.7603
-52.3432
-49.0482
-45.8887
-42.8661
-39.9913
-37.2539
-34.6544
-32.1842
-29.8415
-27.6188
-25.5106
-23.5083
-21.6047
-19.7866
-18.1255
-103.726
-103.681
-103.571
-103.429
-103.266
-103.086
-102.889
-102.665
-102.399
-102.077
-101.679
-101.179
-100.54
-99.7555
-98.8581
-97.8245
-96.6035
-95.1311
-93.3978
-91.3857
-89.0734
-86.4951
-83.6303
-80.5536
-77.2603
-73.8419
-70.3132
-66.7426
-63.1663
-59.6393
-56.1757
-52.8049
-49.5545
-46.4246
-43.429
-40.5663
-37.8383
-35.2396
-32.7696
-30.4226
-28.1988
-26.1016
-24.3179
-104.201
-104.193
-104.184
-104.165
-104.134
-104.086
-104.016
-103.916
-103.776
-103.583
-103.322
-102.983
-102.553
-102.017
-101.355
-100.558
-99.6323
-98.5638
-97.3324
-95.8926
-94.2333
-92.3447
-90.1936
-87.7935
-85.1357
-82.2333
-79.1348
-75.8573
-72.4558
-68.9826
-65.4663
-61.9593
-58.5032
-55.1159
-51.8258
-48.6463
-45.5893
-42.6561
-39.8536
-37.173
-34.6167
-32.1678
-29.9727
-103.493
-103.479
-103.451
-103.409
-103.357
-103.293
-103.216
-103.125
-103.017
-102.886
-102.726
-102.527
-102.281
-101.977
-101.603
-101.143
-100.578
-99.889
-99.0779
-98.118
-96.9808
-95.6511
-94.0997
-92.3089
-90.2877
-87.9987
-85.4714
-82.6928
-79.7073
-76.5452
-73.2412
-69.8421
-66.3974
-62.9418
-59.5183
-56.1551
-52.8761
-49.6959
-46.6267
-43.6672
-40.8235
-38.067
-35.6112
-103.365
-103.357
-103.343
-103.321
-103.291
-103.253
-103.206
-103.147
-103.073
-102.982
-102.869
-102.728
-102.552
-102.334
-102.066
-101.737
-101.338
-100.852
-100.266
-99.5648
-98.7369
-97.7607
-96.6114
-95.2695
-93.7227
-91.9442
-89.9268
-87.6725
-85.17
-82.4416
-79.4954
-76.3813
-73.1295
-69.781
-66.3818
-62.9747
-59.5948
-56.2701
-53.0251
-49.872
-46.8359
-43.8997
-41.3787
-103.11
-103.101
-103.084
-103.06
-103.03
-102.993
-102.949
-102.897
-102.834
-102.76
-102.671
-102.564
-102.435
-102.279
-102.088
-101.858
-101.578
-101.238
-100.826
-100.326
-99.7279
-99.0183
-98.1727
-97.1696
-95.9932
-94.6271
-93.0429
-91.237
-89.1872
-86.9135
-84.387
-81.6496
-78.7032
-75.5954
-72.3634
-69.0429
-65.6819
-62.3157
-58.9836
-55.709
-52.5261
-49.4354
-46.8545
-102.961
-102.953
-102.939
-102.919
-102.894
-102.863
-102.827
-102.784
-102.733
-102.673
-102.601
-102.516
-102.413
-102.29
-102.143
-101.965
-101.75
-101.492
-101.182
-100.808
-100.358
-99.8184
-99.1751
-98.413
-97.5127
-96.4531
-95.21
-93.7776
-92.1227
-90.2488
-88.1287
-85.7888
-83.2119
-80.422
-77.4482
-74.3209
-71.0855
-67.7791
-64.4454
-61.1221
-57.8433
-54.6309
-51.9221
-102.813
-102.804
-102.79
-102.771
-102.747
-102.719
-102.685
-102.646
-102.601
-102.548
-102.486
-102.414
-102.33
-102.23
-102.111
-101.97
-101.802
-101.601
-101.361
-101.073
-100.727
-100.315
-99.8209
-99.2316
-98.5319
-97.703
-96.7256
-95.5828
-94.2502
-92.7206
-90.9619
-88.9838
-86.77
-84.3253
-81.6644
-78.8089
-75.7815
-72.6243
-69.3676
-66.0564
-62.701
-59.2992
-55.002
-102.695
-102.686
-102.673
-102.655
-102.633
-102.607
-102.576
-102.54
-102.5
-102.453
-102.399
-102.336
-102.263
-102.178
-102.078
-101.962
-101.823
-101.659
-101.465
-101.235
-100.961
-100.633
-100.242
-99.7753
-99.223
-98.5676
-97.7887
-96.8724
-95.7967
-94.55
-93.1049
-91.4496
-89.5723
-87.4606
-85.1219
-82.5651
-79.7963
-76.8557
-73.7626
-70.5659
-67.2785
-64.0364
-59.6967
-102.589
-102.58
-102.567
-102.55
-102.529
-102.504
-102.475
-102.442
-102.404
-102.361
-102.312
-102.256
-102.191
-102.117
-102.03
-101.93
-101.813
-101.676
-101.516
-101.326
-101.101
-100.835
-100.52
-100.145
-99.6972
-99.1692
-98.5432
-97.8033
-96.9306
-95.9077
-94.7144
-93.3311
-91.7492
-89.9484
-87.9193
-85.6623
-83.1833
-80.4988
-77.6303
-74.6183
-71.4877
-68.425
-64.6486
-102.498
-102.489
-102.477
-102.46
-102.439
-102.415
-102.388
-102.356
-102.321
-102.281
-102.235
-102.184
-102.126
-102.059
-101.982
-101.894
-101.793
-101.674
-101.537
-101.376
-101.188
-100.967
-100.706
-100.397
-100.03
-99.5959
-99.0831
-98.4778
-97.7598
-96.9154
-95.9287
-94.7774
-93.4459
-91.913
-90.1655
-88.1975
-86.0086
-83.5933
-80.9669
-78.1582
-75.1863
-72.1653
-68.6387
-102.418
-102.409
-102.397
-102.38
-102.36
-102.337
-102.31
-102.28
-102.246
-102.208
-102.166
-102.117
-102.063
-102.002
-101.933
-101.854
-101.763
-101.659
-101.54
-101.401
-101.24
-101.051
-100.83
-100.571
-100.265
-99.9042
-99.4772
-98.9717
-98.3786
-97.6793
-96.8554
-95.8899
-94.7649
-93.4641
-91.9662
-90.261
-88.3334
-86.1824
-83.8098
-81.225
-78.4493
-75.4737
-73.1625
-102.346
-102.338
-102.326
-102.31
-102.291
-102.268
-102.242
-102.213
-102.181
-102.144
-102.104
-102.059
-102.008
-101.952
-101.888
-101.816
-101.734
-101.64
-101.533
-101.41
-101.269
-101.106
-100.916
-100.693
-100.432
-100.125
-99.7657
-99.343
-98.8443
-98.2553
-97.563
-96.7505
-95.7985
-94.6921
-93.412
-91.936
-90.257
-88.358
-86.2375
-83.8844
-81.3297
-78.427
-76.674
-102.286
-102.278
-102.266
-102.251
-102.231
-102.209
-102.184
-102.155
-102.124
-102.089
-102.05
-102.006
-101.959
-101.905
-101.845
-101.778
-101.703
-101.617
-101.521
-101.411
-101.285
-101.14
-100.973
-100.78
-100.555
-100.292
-99.9838
-99.6205
-99.1951
-98.6958
-98.1081
-97.4197
-96.6125
-95.6661
-94.566
-93.295
-91.8374
-90.1735
-88.2964
-86.1955
-83.9161
-81.2532
-80.5969
-102.235
-102.227
-102.215
-102.199
-102.18
-102.158
-102.133
-102.106
-102.075
-102.04
-102.003
-101.961
-101.915
-101.864
-101.808
-101.746
-101.676
-101.597
-101.508
-101.407
-101.293
-101.163
-101.014
-100.843
-100.646
-100.417
-100.149
-99.8383
-99.4723
-99.0434
-98.5396
-97.9489
-97.2577
-96.4486
-95.5054
-94.4059
-93.1347
-91.678
-90.0235
-88.1467
-86.0914
-83.6
-82.6187
-102.191
-102.183
-102.171
-102.156
-102.137
-102.115
-102.091
-102.063
-102.033
-102
-101.963
-101.923
-101.879
-101.83
-101.776
-101.717
-101.65
-101.576
-101.494
-101.402
-101.298
-101.18
-101.046
-100.893
-100.716
-100.512
-100.277
-100.004
-99.6863
-99.3158
-98.8805
-98.3705
-97.775
-97.0752
-96.2581
-95.3069
-94.2071
-92.934
-91.4756
-89.8061
-87.9616
-85.7003
-84.9747
-102.156
-102.148
-102.136
-102.12
-102.102
-102.08
-102.056
-102.029
-101.999
-101.966
-101.93
-101.891
-101.848
-101.802
-101.75
-101.693
-101.631
-101.561
-101.483
-101.397
-101.3
-101.192
-101.069
-100.931
-100.773
-100.592
-100.384
-100.142
-99.8615
-99.5356
-99.1566
-98.7136
-98.1938
-97.588
-96.8813
-96.0526
-95.0935
-93.9789
-92.6994
-91.2243
-89.5847
-87.5759
-87.3026
-102.127
-102.119
-102.107
-102.092
-102.073
-102.052
-102.027
-102.001
-101.971
-101.939
-101.904
-101.866
-101.824
-101.779
-101.729
-101.675
-101.615
-101.549
-101.476
-101.395
-101.305
-101.205
-101.092
-100.965
-100.82
-100.656
-100.468
-100.253
-100.004
-99.7162
-99.3829
-98.9951
-98.5424
-98.0124
-97.3939
-96.6723
-95.835
-94.862
-93.7392
-92.441
-90.9996
-89.2344
-89.9223
-102.106
-102.097
-102.085
-102.069
-102.051
-102.03
-102.006
-101.98
-101.951
-101.919
-101.885
-101.847
-101.807
-101.763
-101.715
-101.662
-101.605
-101.542
-101.472
-101.395
-101.31
-101.216
-101.112
-100.995
-100.863
-100.714
-100.544
-100.35
-100.128
-99.8718
-99.5739
-99.2289
-98.8296
-98.3652
-97.8229
-97.1892
-96.4511
-95.5911
-94.5979
-93.4328
-92.0984
-90.3664
-90.227
-102.089
-102.08
-102.069
-102.053
-102.035
-102.014
-101.99
-101.964
-101.936
-101.905
-101.871
-101.834
-101.795
-101.752
-101.705
-101.655
-101.599
-101.539
-101.473
-101.401
-101.321
-101.232
-101.134
-101.024
-100.902
-100.765
-100.611
-100.435
-100.233
-100.003
-99.7387
-99.4337
-99.0791
-98.6673
-98.1888
-97.6314
-96.9821
-96.2246
-95.3404
-94.3046
-93.1117
-91.5885
-91.4313
-102.08
-102.071
-102.059
-102.044
-102.025
-102.004
-101.981
-101.955
-101.927
-101.896
-101.863
-101.827
-101.789
-101.747
-101.702
-101.653
-101.599
-101.542
-101.478
-101.409
-101.333
-101.249
-101.157
-101.055
-100.942
-100.816
-100.674
-100.513
-100.33
-100.122
-99.8839
-99.6094
-99.2924
-98.9266
-98.5005
-98.0053
-97.4301
-96.7609
-95.9873
-95.0818
-94.0439
-92.7687
-92.7947
-102.075
-102.066
-102.054
-102.039
-102.021
-102
-101.977
-101.951
-101.923
-101.893
-101.86
-101.825
-101.787
-101.747
-101.703
-101.655
-101.604
-101.548
-101.488
-101.421
-101.349
-101.27
-101.183
-101.088
-100.982
-100.864
-100.732
-100.584
-100.418
-100.228
-100.011
-99.7646
-99.4815
-99.1553
-98.777
-98.338
-97.8274
-97.2313
-96.5368
-95.7206
-94.775
-93.587
-93.1036
-102.076
-102.067
-102.055
-102.039
-102.021
-102
-101.977
-101.952
-101.924
-101.894
-101.862
-101.828
-101.791
-101.751
-101.708
-101.662
-101.613
-101.559
-101.501
-101.438
-101.369
-101.294
-101.211
-101.121
-101.022
-100.912
-100.79
-100.654
-100.501
-100.328
-100.133
-99.9093
-99.652
-99.3563
-99.0165
-98.6233
-98.1662
-97.6347
-97.0176
-96.2911
-95.4442
-94.4183
-94.2968
-102.079
-102.07
-102.057
-102.042
-102.024
-102.004
-101.981
-101.956
-101.929
-101.9
-101.868
-101.834
-101.798
-101.76
-101.718
-101.673
-101.626
-101.574
-101.518
-101.457
-101.391
-101.32
-101.242
-101.157
-101.063
-100.96
-100.847
-100.721
-100.58
-100.42
-100.241
-100.038
-99.8059
-99.5399
-99.2333
-98.8789
-98.4693
-97.9932
-97.4405
-96.7904
-96.0353
-95.1385
-95.0165
-102.085
-102.076
-102.064
-102.049
-102.031
-102.011
-101.988
-101.964
-101.937
-101.908
-101.877
-101.844
-101.809
-101.771
-101.731
-101.688
-101.641
-101.592
-101.538
-101.48
-101.417
-101.349
-101.275
-101.194
-101.107
-101.01
-100.904
-100.786
-100.655
-100.509
-100.344
-100.157
-99.946
-99.7052
-99.428
-99.1086
-98.74
-98.3089
-97.8066
-97.2123
-96.5075
-95.6099
-94.7631
-102.095
-102.086
-102.073
-102.058
-102.041
-102.021
-101.998
-101.974
-101.948
-101.92
-101.89
-101.857
-101.823
-101.786
-101.747
-101.705
-101.66
-101.612
-101.56
-101.505
-101.444
-101.379
-101.309
-101.232
-101.149
-101.058
-100.959
-100.85
-100.729
-100.593
-100.441
-100.27
-100.076
-99.8554
-99.6045
-99.3143
-98.9788
-98.59
-98.138
-97.6088
-96.9951
-96.2298
-95.4875
-102.107
-102.098
-102.085
-102.071
-102.053
-102.033
-102.011
-101.987
-101.961
-101.933
-101.904
-101.872
-101.839
-101.803
-101.765
-101.724
-101.681
-101.634
-101.584
-101.531
-101.474
-101.412
-101.345
-101.272
-101.193
-101.108
-101.015
-100.912
-100.798
-100.673
-100.533
-100.375
-100.199
-99.9966
-99.7656
-99.5017
-99.1982
-98.8458
-98.4359
-97.9598
-97.431
-96.8276
-95.4953
-102.121
-102.112
-102.099
-102.084
-102.067
-102.047
-102.025
-102.002
-101.976
-101.949
-101.92
-101.889
-101.856
-101.821
-101.784
-101.744
-101.703
-101.658
-101.61
-101.559
-101.504
-101.445
-101.381
-101.312
-101.237
-101.156
-101.068
-100.973
-100.868
-100.75
-100.62
-100.474
-100.31
-100.124
-99.9131
-99.6724
-99.3954
-99.0759
-98.7078
-98.2785
-97.7833
-97.2478
-97.1999
-102.135
-102.125
-102.113
-102.099
-102.081
-102.062
-102.04
-102.017
-101.992
-101.965
-101.936
-101.906
-101.874
-101.84
-101.804
-101.766
-101.725
-101.682
-101.636
-101.586
-101.534
-101.477
-101.416
-101.351
-101.281
-101.204
-101.121
-101.03
-100.93
-100.821
-100.701
-100.566
-100.414
-100.244
-100.049
-99.827
-99.572
-99.2765
-98.932
-98.5266
-98.0378
-97.4419
-97.2121
-102.151
-102.141
-102.129
-102.114
-102.097
-102.077
-102.056
-102.033
-102.008
-101.982
-101.954
-101.924
-101.893
-101.859
-101.824
-101.787
-101.748
-101.706
-101.662
-101.615
-101.564
-101.51
-101.452
-101.389
-101.322
-101.25
-101.172
-101.087
-100.994
-100.891
-100.778
-100.652
-100.511
-100.353
-100.172
-99.9666
-99.7299
-99.4563
-99.138
-98.7645
-98.3275
-97.8009
-96.5802
-102.165
-102.155
-102.143
-102.128
-102.111
-102.092
-102.071
-102.048
-102.024
-101.998
-101.97
-101.941
-101.911
-101.878
-101.844
-101.808
-101.77
-101.73
-101.687
-101.642
-101.593
-101.542
-101.486
-101.427
-101.363
-101.294
-101.219
-101.138
-101.051
-100.955
-100.849
-100.731
-100.6
-100.452
-100.285
-100.095
-99.8772
-99.6261
-99.3325
-98.9945
-98.6067
-98.1547
-97.1863
-102.178
-102.169
-102.156
-102.142
-102.125
-102.106
-102.085
-102.063
-102.039
-102.013
-101.986
-101.958
-101.928
-101.896
-101.863
-101.828
-101.791
-101.752
-101.711
-101.667
-101.621
-101.571
-101.518
-101.461
-101.4
-101.335
-101.265
-101.189
-101.105
-101.015
-100.916
-100.806
-100.682
-100.544
-100.388
-100.211
-100.008
-99.7717
-99.4991
-99.1822
-98.8082
-98.3543
-97.3934
-102.192
-102.182
-102.17
-102.155
-102.138
-102.119
-102.099
-102.076
-102.053
-102.028
-102.001
-101.973
-101.944
-101.913
-101.881
-101.847
-101.811
-101.773
-101.733
-101.691
-101.647
-101.599
-101.549
-101.495
-101.437
-101.374
-101.307
-101.235
-101.157
-101.072
-100.978
-100.874
-100.759
-100.63
-100.485
-100.319
-100.13
-99.9136
-99.6596
-99.3657
-99.0247
-98.6114
-98.0326
-102.202
-102.192
-102.18
-102.166
-102.149
-102.13
-102.11
-102.088
-102.065
-102.04
-102.014
-101.987
-101.958
-101.928
-101.896
-101.863
-101.828
-101.792
-101.754
-101.713
-101.67
-101.624
-101.576
-101.524
-101.469
-101.41
-101.346
-101.278
-101.203
-101.122
-101.034
-100.936
-100.829
-100.707
-100.571
-100.417
-100.241
-100.037
-99.8024
-99.5302
-99.2224
-98.8682
-98.0121
-102.211
-102.201
-102.189
-102.175
-102.158
-102.139
-102.119
-102.097
-102.074
-102.05
-102.025
-101.998
-101.97
-101.94
-101.909
-101.877
-101.844
-101.808
-101.771
-101.732
-101.691
-101.647
-101.601
-101.552
-101.499
-101.442
-101.381
-101.316
-101.246
-101.17
-101.086
-100.995
-100.892
-100.779
-100.652
-100.507
-100.344
-100.156
-99.9393
-99.6881
-99.3971
-99.0781
-98.8866
-102.216
-102.207
-102.194
-102.18
-102.164
-102.146
-102.126
-102.104
-102.082
-102.058
-102.033
-102.006
-101.979
-101.95
-101.92
-101.889
-101.856
-101.822
-101.786
-101.748
-101.708
-101.666
-101.622
-101.574
-101.523
-101.47
-101.412
-101.35
-101.283
-101.211
-101.132
-101.045
-100.95
-100.844
-100.725
-100.59
-100.436
-100.261
-100.059
-99.8251
-99.5466
-99.2087
-98.8046
-102.22
-102.21
-102.198
-102.184
-102.168
-102.149
-102.13
-102.109
-102.086
-102.063
-102.038
-102.012
-101.985
-101.957
-101.927
-101.897
-101.865
-101.832
-101.797
-101.761
-101.722
-101.682
-101.639
-101.594
-101.546
-101.495
-101.44
-101.381
-101.318
-101.249
-101.174
-101.093
-101.003
-100.902
-100.79
-100.664
-100.522
-100.359
-100.171
-99.9524
-99.7027
-99.4235
-98.9129
-102.22
-102.211
-102.198
-102.184
-102.168
-102.15
-102.13
-102.109
-102.087
-102.064
-102.04
-102.014
-101.988
-101.96
-101.931
-101.902
-101.871
-101.838
-101.805
-101.769
-101.732
-101.694
-101.653
-101.609
-101.563
-101.514
-101.461
-101.406
-101.346
-101.281
-101.21
-101.133
-101.048
-100.954
-100.85
-100.732
-100.599
-100.447
-100.275
-100.078
-99.8582
-99.6122
-99.1699
-102.217
-102.208
-102.196
-102.181
-102.165
-102.147
-102.128
-102.107
-102.085
-102.062
-102.038
-102.013
-101.987
-101.96
-101.932
-101.903
-101.872
-101.841
-101.808
-101.774
-101.738
-101.701
-101.662
-101.62
-101.576
-101.53
-101.48
-101.426
-101.369
-101.307
-101.24
-101.168
-101.088
-100.999
-100.9
-100.79
-100.665
-100.522
-100.359
-100.171
-99.954
-99.6902
-99.1847
-102.21
-102.201
-102.189
-102.175
-102.158
-102.141
-102.121
-102.101
-102.079
-102.056
-102.033
-102.008
-101.982
-101.956
-101.928
-101.9
-101.87
-101.839
-101.808
-101.775
-101.74
-101.704
-101.666
-101.626
-101.584
-101.539
-101.491
-101.44
-101.387
-101.329
-101.265
-101.196
-101.121
-101.038
-100.945
-100.841
-100.724
-100.592
-100.441
-100.269
-100.074
-99.84
-99.7107
-102.199
-102.19
-102.178
-102.164
-102.148
-102.13
-102.111
-102.091
-102.069
-102.047
-102.023
-101.999
-101.974
-101.947
-101.92
-101.892
-101.864
-101.834
-101.803
-101.77
-101.737
-101.702
-101.665
-101.627
-101.587
-101.544
-101.498
-101.45
-101.398
-101.342
-101.282
-101.217
-101.145
-101.066
-100.979
-100.881
-100.772
-100.647