/*--------------------------------*- C++ -*----------------------------------*\
| =========                 |                                                 |
| \\      /  F ield         | OpenFOAM: The Open Source CFD Toolbox           |
|  \\    /   O peration     | Version:  2.3.0                                 |
|   \\  /    A nd           | Web:      www.OpenFOAM.org                      |
|    \\/     M anipulation  |                                                 |
\*---------------------------------------------------------------------------*/
FoamFile
{
    version     2.0;
    format      ascii;
    class       volScalarField;
    location    "3000";
    object      nuTilda;
}
// * * * * * * * * * * * * * * * * * * * * * * * * * * * * * * * * * * * * * //

dimensions      [0 2 -1 0 0 0 0];

internalField   nonuniform List<scalar> 
38111
(
0.0691536
0.0674607
0.0657648
0.0640666
0.0623662
0.0606639
0.0589601
0.0572556
0.0555518
0.0538496
0.0521502
0.0504545
0.0487638
0.0470786
0.0454003
0.0437297
0.0420676
0.0404155
0.0387743
0.0371456
0.0355305
0.0339302
0.0323469
0.0307825
0.02924
0.0277226
0.0262356
0.0247851
0.0233804
0.0220304
0.0207445
0.0195334
0.0184106
0.0173792
0.0163908
0.01539
0.0143593
0.013292
0.0121765
0.0109899
0.00970125
0.00831049
0.00708733
0.0704033
0.0689059
0.06741
0.0659138
0.0644167
0.0629184
0.0614189
0.0599186
0.0584182
0.0569186
0.0554204
0.0539246
0.052432
0.0509432
0.0494586
0.047979
0.0465052
0.0450381
0.0435782
0.0421269
0.0406853
0.0392542
0.0378349
0.0364289
0.0350378
0.0336631
0.0323076
0.0309748
0.0296668
0.0283883
0.0271441
0.0259409
0.0247846
0.023684
0.0226476
0.0216831
0.020802
0.0200187
0.0193501
0.0188135
0.0184274
0.0182083
0.0181733
0.0715511
0.0702241
0.0688988
0.0675734
0.0662469
0.0649189
0.0635893
0.062258
0.0609252
0.0595916
0.0582577
0.0569244
0.0555922
0.0542618
0.0529336
0.0516075
0.0502849
0.048966
0.0476518
0.0463428
0.0450403
0.0437457
0.0424603
0.0411852
0.0399225
0.0386743
0.0374428
0.0362318
0.0350446
0.0338848
0.0327583
0.0316707
0.0306285
0.0296401
0.0287147
0.0278622
0.0270943
0.0264235
0.0258623
0.0254227
0.0251169
0.0249512
0.0249308
0.0726008
0.0714252
0.070247
0.0690674
0.0678856
0.0667015
0.0655149
0.0643253
0.0631328
0.0619374
0.0607398
0.0595403
0.05834
0.0571395
0.0559389
0.0547388
0.0535397
0.0523417
0.0511456
0.049952
0.048762
0.0475773
0.0463992
0.0452291
0.0440692
0.0429209
0.0417871
0.0406715
0.0395772
0.038509
0.0374721
0.0364717
0.0355147
0.0346096
0.0337646
0.0329884
0.0322917
0.0316856
0.0311803
0.0307847
0.0305085
0.030357
0.0303327
0.073572
0.0725201
0.0714671
0.0704119
0.0693535
0.0682914
0.0672256
0.0661558
0.0650816
0.0640024
0.0629184
0.0618301
0.0607389
0.0596451
0.0585492
0.0574522
0.0563544
0.0552558
0.0541565
0.0530572
0.0519591
0.0508631
0.0497718
0.0486863
0.0476086
0.046541
0.0454849
0.0444444
0.0434232
0.0424254
0.0414565
0.0405219
0.0396284
0.0387834
0.0379946
0.037271
0.0366219
0.0360569
0.0355856
0.0352159
0.0349555
0.0348096
0.0347799
0.0744557
0.0735137
0.0725694
0.0716212
0.070668
0.0697098
0.0687465
0.0677778
0.0668038
0.0658234
0.0648352
0.06384
0.0628395
0.0618341
0.0608247
0.0598122
0.0587971
0.0577801
0.0567611
0.0557401
0.0547174
0.0536939
0.0526724
0.0516554
0.0506448
0.0496426
0.0486502
0.0476701
0.0467067
0.0457644
0.0448486
0.0439647
0.0431193
0.0423195
0.0415724
0.0408869
0.0402712
0.0397343
0.0392851
0.0389314
0.0386801
0.0385357
0.0385001
0.0752555
0.0744135
0.0735648
0.0727083
0.0718459
0.0709764
0.0700996
0.0692162
0.0683272
0.0674314
0.0665259
0.0656091
0.0646838
0.0637526
0.0628149
0.0618719
0.0609246
0.0599742
0.0590218
0.0580668
0.057108
0.0561454
0.0551803
0.0542173
0.0532609
0.0523124
0.0513728
0.0504439
0.0495282
0.0486295
0.047755
0.0469113
0.0461039
0.0453395
0.0446252
0.0439681
0.0433765
0.0428596
0.0424263
0.0420835
0.0418368
0.0416924
0.041652
0.0759862
0.0752301
0.0744645
0.0736854
0.0729023
0.0721083
0.0713057
0.0704929
0.0696749
0.0688513
0.0680196
0.0671724
0.0663066
0.0654397
0.064562
0.0636765
0.062785
0.0618873
0.0609893
0.0600895
0.0591857
0.0582775
0.0573612
0.0564383
0.0555241
0.0546189
0.0537239
0.05284
0.0519669
0.0511047
0.0502605
0.0494483
0.0486718
0.0479364
0.047248
0.0466147
0.0460414
0.0455389
0.0451155
0.0447837
0.0445381
0.0443933
0.0443489
0.0766552
0.075973
0.0752837
0.0745644
0.0738538
0.0731193
0.0723826
0.0716256
0.0708654
0.0701
0.0693342
0.0685658
0.0677345
0.0669242
0.0660959
0.065254
0.0644136
0.063554
0.0626972
0.0618416
0.0609825
0.0601235
0.0592665
0.058369
0.0574847
0.0566116
0.0557513
0.0549062
0.0540762
0.0532558
0.0524278
0.0516402
0.0508886
0.0501796
0.0495117
0.0489055
0.0483453
0.0478569
0.0474292
0.0471173
0.0468678
0.0467236
0.0466739
0.00781891
0.00978005
0.0109619
0.0120967
0.0132892
0.0145475
0.0158588
0.0172073
0.0185821
0.0199773
0.0213856
0.0228046
0.0242318
0.0256648
0.0271028
0.0285454
0.0299916
0.031442
0.0328954
0.0343525
0.0358124
0.0372754
0.038742
0.0402114
0.0416844
0.0431603
0.0446395
0.0461215
0.0476067
0.0490944
0.0505846
0.0520768
0.0535708
0.055066
0.0565621
0.0580584
0.0595543
0.0610495
0.0625434
0.0640356
0.0655254
0.067012
0.0684954
0.0183295
0.018678
0.0192043
0.0198906
0.0207139
0.0216517
0.0226807
0.0237819
0.0249394
0.0261393
0.0273723
0.0286305
0.029907
0.0311973
0.032498
0.0338068
0.0351212
0.0364398
0.0377619
0.0390859
0.0404117
0.0417392
0.0430678
0.0443972
0.0457277
0.047059
0.048391
0.0497238
0.051057
0.0523907
0.0537244
0.0550581
0.0563914
0.0577244
0.0590566
0.0603877
0.0617174
0.0630457
0.0643723
0.0656971
0.0670198
0.0683406
0.0696606
0.0250528
0.0253182
0.0257281
0.0262728
0.0269388
0.0277106
0.0285727
0.0295105
0.0305095
0.0315585
0.032647
0.0337664
0.0349098
0.0360714
0.0372476
0.0384336
0.0396275
0.0408269
0.0420298
0.0432349
0.0444417
0.0456494
0.046857
0.0480649
0.0492724
0.0504793
0.0516855
0.0528904
0.0540943
0.0552966
0.0564973
0.057696
0.0588927
0.0600874
0.0612799
0.0624701
0.0636578
0.064843
0.066026
0.0672068
0.0683854
0.0695619
0.070738
0.0304333
0.0306578
0.031007
0.0314752
0.0320521
0.0327256
0.0334844
0.0343162
0.0352087
0.0361517
0.0371356
0.0381522
0.0391938
0.0402553
0.0413318
0.0424199
0.0435157
0.0446171
0.045722
0.0468288
0.0479369
0.0490451
0.0501529
0.0512597
0.0523649
0.0534682
0.0545692
0.0556674
0.0567628
0.0578549
0.0589432
0.0600281
0.0611095
0.0621872
0.0632611
0.0643312
0.0653976
0.0664605
0.0675202
0.0685769
0.0696308
0.0706819
0.0717314
0.0348643
0.0350624
0.035374
0.0357937
0.0363129
0.0369219
0.0376111
0.0383699
0.0391873
0.040053
0.0409592
0.0418975
0.0428607
0.0438437
0.0448419
0.0458507
0.0468671
0.0478884
0.0489128
0.0499393
0.050966
0.0519924
0.0530177
0.0540413
0.0550621
0.0560798
0.0570936
0.0581029
0.0591073
0.0601066
0.0611008
0.06209
0.0630741
0.0640526
0.0650258
0.0659935
0.0669565
0.0679147
0.0688687
0.0698185
0.0707645
0.0717068
0.0726464
0.0385724
0.0387521
0.0390375
0.0394229
0.0399016
0.040465
0.0411044
0.04181
0.042572
0.0433804
0.0442272
0.0451046
0.0460063
0.0469275
0.0478625
0.0488073
0.049759
0.0507149
0.0516733
0.0526332
0.0535934
0.0545527
0.0555107
0.0564661
0.0574178
0.0583647
0.0593061
0.0602407
0.0611685
0.0620898
0.063005
0.0639139
0.0648158
0.0657103
0.0665975
0.0674778
0.0683523
0.0692209
0.0700839
0.0709419
0.0717947
0.0726425
0.0734867
0.0417154
0.0418811
0.0421464
0.0425064
0.0429543
0.0434832
0.0440851
0.0447514
0.0454719
0.0462364
0.047036
0.0478652
0.0487181
0.0495893
0.0504729
0.0513646
0.0522623
0.0531639
0.0540678
0.0549728
0.0558781
0.0567832
0.0576865
0.0585859
0.0594802
0.0603688
0.061249
0.0621199
0.0629828
0.0638386
0.0646878
0.0655296
0.0663615
0.0671839
0.067997
0.0688024
0.0696018
0.0703933
0.0711781
0.0719568
0.0727293
0.0734953
0.0742561
0.0444053
0.0445594
0.0448096
0.0451499
0.0455725
0.0460732
0.0466459
0.0472835
0.0479736
0.0487021
0.0494616
0.0502515
0.0510657
0.0518974
0.052738
0.0535842
0.0544356
0.0552922
0.0561508
0.0570101
0.0578709
0.0587329
0.0595918
0.0604442
0.0612913
0.0621323
0.0629588
0.0637741
0.0645817
0.0653834
0.0661779
0.0669646
0.0677339
0.0684949
0.0692428
0.0699846
0.070722
0.0714447
0.072163
0.0728736
0.0735766
0.0742717
0.0749589
0.0467241
0.0468685
0.0471056
0.0474302
0.0478275
0.0483043
0.0488537
0.0494696
0.0501345
0.0508279
0.0515496
0.0523099
0.053093
0.0538931
0.0546931
0.0554981
0.0563122
0.0571332
0.0579541
0.0587776
0.0596068
0.0604397
0.0612623
0.0620736
0.0628836
0.0636859
0.0644574
0.0652274
0.0659916
0.066752
0.0675002
0.0682419
0.0689467
0.0696634
0.0703481
0.0710412
0.0717311
0.0723827
0.0730486
0.0736998
0.0743467
0.0749835
0.0756045
0.0322668
0.0312382
0.0302151
0.029198
0.0281881
0.0271867
0.0261946
0.0252126
0.0242412
0.0232808
0.0223316
0.0213938
0.0204673
0.0195518
0.0186474
0.0177538
0.0168707
0.0159978
0.0151347
0.0142814
0.0134377
0.0126036
0.0117794
0.0109658
0.0101638
0.0093747
0.00860064
0.00784421
0.00710852
0.00639687
0.0057128
0.00505988
0.00444123
0.00385945
0.00331646
0.00281357
0.00235153
0.00193172
0.00155537
0.00122864
0.000988815
0.000782279
0.000537453
0.032266
0.0313163
0.0303725
0.0294342
0.0285018
0.0275759
0.0266569
0.0257455
0.024842
0.0239466
0.0230594
0.0221806
0.0213099
0.0204473
0.0195925
0.0187454
0.0179058
0.0170732
0.0162475
0.0154285
0.014616
0.01381
0.0130106
0.0122184
0.0114338
0.0106579
0.00989235
0.00913903
0.00840016
0.00767848
0.00697712
0.00629892
0.00564669
0.00502249
0.00442672
0.00385857
0.00331651
0.00280919
0.00236345
0.0020155
0.00169409
0.00135388
0.000912304
0.0322637
0.031394
0.030527
0.0296634
0.0288036
0.0279481
0.0270972
0.0262512
0.0254105
0.0245749
0.0237447
0.0229199
0.0221003
0.0212857
0.0204762
0.0196714
0.0188712
0.0180754
0.0172837
0.0164961
0.0157124
0.0149327
0.0141571
0.0133859
0.0126197
0.0118592
0.0111056
0.0103603
0.00962477
0.00890104
0.00819121
0.00749646
0.0068181
0.00615582
0.0055074
0.00486985
0.00424745
0.00368585
0.00322008
0.00278943
0.00234953
0.00184466
0.0012084
0.0322607
0.0314656
0.0306692
0.0298734
0.0290792
0.0282868
0.0274968
0.0267091
0.025924
0.0251415
0.0243618
0.0235847
0.0228101
0.0220379
0.0212681
0.0205004
0.0197347
0.0189709
0.0182088
0.0174484
0.0166896
0.0159324
0.0151771
0.0144238
0.0136731
0.0129255
0.0121818
0.0114429
0.0107098
0.00998366
0.00926536
0.00855475
0.00785128
0.00715228
0.00645343
0.00575114
0.00507923
0.00447534
0.00396609
0.00345745
0.00290839
0.00225263
0.00145179
0.032266
0.0315333
0.0307995
0.0300646
0.029329
0.0285931
0.027857
0.0271211
0.0263854
0.0256498
0.0249145
0.0241794
0.0234444
0.0227095
0.0219744
0.0212389
0.0205032
0.0197669
0.0190301
0.0182928
0.0175549
0.0168165
0.0160777
0.0153387
0.0146001
0.013862
0.0131251
0.0123897
0.0116566
0.0109261
0.0101979
0.00947115
0.00874344
0.00801071
0.00726734
0.0065131
0.00581329
0.00520627
0.00462787
0.00403652
0.00338409
0.00259423
0.00165404
0.0322673
0.0315954
0.0309187
0.0302385
0.0295553
0.0288697
0.0281818
0.0274918
0.0267997
0.0261056
0.0254096
0.0247115
0.0240113
0.0233091
0.0226044
0.0218972
0.0211873
0.0204747
0.0197596
0.0190418
0.0183215
0.0175985
0.0168731
0.0161455
0.0154159
0.0146845
0.0139516
0.0132175
0.0124823
0.0117458
0.011007
0.0102642
0.00951385
0.00875129
0.00797077
0.00718282
0.00645615
0.00582366
0.00519466
0.00453322
0.00378928
0.00288219
0.00182203
0.0322753
0.0316542
0.031028
0.0303968
0.0297606
0.0291198
0.0284747
0.0278254
0.0271721
0.0265146
0.0258531
0.0251875
0.0245181
0.0238446
0.023167
0.0224849
0.0217978
0.0211056
0.0204087
0.0197077
0.0190023
0.0182923
0.0175776
0.0168587
0.016136
0.0154092
0.0146783
0.0139436
0.0132047
0.012461
0.0117112
0.0109526
0.0101815
0.0093919
0.00857955
0.00777098
0.00702827
0.00636072
0.00568514
0.00496193
0.00413669
0.00312549
0.00196163
0.032283
0.0317091
0.0311285
0.0305413
0.0299471
0.0293461
0.0287394
0.028126
0.0275071
0.0268819
0.026251
0.0256135
0.024971
0.0243229
0.0236694
0.0230104
0.0223447
0.0216703
0.0209879
0.0203004
0.0196083
0.0189102
0.018204
0.0174914
0.0167739
0.0160507
0.0153206
0.0145835
0.0138394
0.0130875
0.0123261
0.0115521
0.0107615
0.00994786
0.0091069
0.00828987
0.00754834
0.006839
0.00611755
0.00533895
0.00444034
0.00333252
0.0020739
0.0322919
0.0317601
0.0312202
0.0306736
0.0301177
0.029551
0.0289796
0.0283967
0.0278093
0.0272116
0.0266098
0.0259943
0.0253756
0.0247494
0.0241172
0.0234794
0.0228366
0.0221814
0.0215075
0.0208289
0.0201473
0.0194642
0.0187654
0.018055
0.0173405
0.0166214
0.0158925
0.0151513
0.0144008
0.0136387
0.0128646
0.0120749
0.0112655
0.0104331
0.00957205
0.00875472
0.00800672
0.00725982
0.00649877
0.00567666
0.00472578
0.00355138
0.00220428
0.000407904
0.000491398
0.000678617
0.000856678
0.0010267
0.00119053
0.00135097
0.00151195
0.00167928
0.00186142
0.00206833
0.00230571
0.00257371
0.00287046
0.0031938
0.00354212
0.00391476
0.00431173
0.00473278
0.00517834
0.00564902
0.00614536
0.00666776
0.00721672
0.00779296
0.00839663
0.00902885
0.00969008
0.0103811
0.0111029
0.0118559
0.0126414
0.0134604
0.0143135
0.015202
0.0161268
0.0170886
0.0180888
0.019128
0.020207
0.0213268
0.0224887
0.0236976
0.0005826
0.000646395
0.000836627
0.00102404
0.0012042
0.00138072
0.0015591
0.00174662
0.00195099
0.00217969
0.00243918
0.00273218
0.00305246
0.0033969
0.00376387
0.00415271
0.00456293
0.00499437
0.00544728
0.00592173
0.00641799
0.00693656
0.00747748
0.00804125
0.00862794
0.0092381
0.00987254
0.0105315
0.0112158
0.0119259
0.0126627
0.013427
0.0142193
0.0150405
0.0158915
0.0167729
0.0176856
0.0186303
0.0196078
0.0206189
0.0216641
0.0227435
0.0238527
0.000748215
0.000787834
0.000983135
0.00118139
0.0013758
0.0015724
0.00177923
0.00200425
0.0022537
0.00253178
0.00284159
0.00318343
0.0035486
0.00393486
0.00434094
0.00476625
0.00521041
0.00567337
0.00615501
0.00665529
0.00717453
0.00771269
0.00826969
0.00884577
0.00944137
0.0100564
0.0106916
0.0113476
0.0120243
0.0127228
0.0134429
0.0141859
0.0149519
0.0157417
0.016556
0.0173952
0.0182599
0.019151
0.0200686
0.0210134
0.0219859
0.022986
0.0240125
0.00089255
0.000912736
0.00111541
0.00132703
0.00154044
0.00176383
0.00200576
0.00227261
0.00256734
0.00289131
0.00324703
0.0036307
0.00403489
0.0044577
0.00489802
0.00535549
0.00582964
0.00632021
0.00682714
0.00734995
0.00788878
0.00844347
0.00901403
0.00960043
0.0102026
0.0108211
0.0114562
0.0121082
0.0127773
0.0134637
0.0141678
0.0148903
0.0156316
0.0163919
0.0171716
0.0179713
0.0187915
0.0196326
0.0204947
0.0213784
0.022284
0.0232119
0.0241638
0.00101536
0.00102295
0.00123578
0.00146384
0.00170061
0.00195521
0.00223487
0.00254283
0.00287927
0.00324451
0.00364159
0.00406169
0.00449993
0.00495509
0.00542582
0.00591183
0.00641243
0.00692734
0.00745635
0.0079988
0.00855438
0.0091233
0.00970511
0.0102998
0.0109075
0.0115284
0.0121624
0.01281
0.013471
0.0141461
0.0148351
0.0155382
0.0162561
0.0169889
0.0177368
0.0185002
0.0192793
0.0200743
0.0208856
0.0217134
0.022558
0.0234195
0.024298
0.00111953
0.00112157
0.00134692
0.0015941
0.00185736
0.00214491
0.00246163
0.00280785
0.00318221
0.00358529
0.00401802
0.00447045
0.00493912
0.00542299
0.00592086
0.00643229
0.00695653
0.00749308
0.00804129
0.00860063
0.00917087
0.00975186
0.0103433
0.010945
0.011557
0.0121793
0.0128118
0.0134549
0.0141085
0.0147724
0.0154469
0.0161323
0.0168286
0.017536
0.0182544
0.0189843
0.0197258
0.0204788
0.0212436
0.0220204
0.0228095
0.0236109
0.024426
0.00120816
0.00121014
0.00145052
0.00171907
0.00201025
0.00233063
0.00268216
0.00306302
0.0034713
0.00390934
0.00437316
0.00485428
0.00535024
0.00585984
0.00638209
0.00691624
0.00746154
0.00801699
0.00858222
0.00915665
0.00973987
0.0103314
0.0109312
0.0115388
0.0121543
0.0127776
0.0134085
0.0140471
0.0146932
0.0153468
0.0160079
0.0166765
0.0173528
0.0180367
0.0187281
0.0194273
0.0201341
0.0208485
0.0215711
0.0223016
0.0230401
0.0237865
0.0245407
0.00128368
0.00129343
0.00154986
0.00183973
0.00215803
0.00250945
0.00289315
0.00330541
0.00374439
0.00421376
0.00470489
0.00521186
0.00573251
0.00626569
0.00681021
0.00736509
0.00792911
0.00850165
0.00908273
0.00967161
0.0102666
0.010867
0.0114733
0.0120856
0.0127041
0.0133283
0.0139578
0.014592
0.0152305
0.0158742
0.0165227
0.0171757
0.0178333
0.0184957
0.0191623
0.0198328
0.0205075
0.0211865
0.0218706
0.0225592
0.0232519
0.0239488
0.0246513
0.00135508
0.00135797
0.00163119
0.00194882
0.00230019
0.00268341
0.00309565
0.00353455
0.00400022
0.00449703
0.00501669
0.00555082
0.00609603
0.00665263
0.00721854
0.00779106
0.00837101
0.00895965
0.0095602
0.0101668
0.010769
0.0113709
0.0119806
0.0125938
0.0132176
0.0138426
0.0144708
0.0150985
0.0157274
0.0163624
0.0169988
0.017636
0.0182756
0.0189188
0.0195623
0.0202046
0.0208481
0.0214942
0.0221441
0.0227958
0.0234471
0.0240981
0.0247524
0.000432681
0.00169941
0.00344169
0.00515228
0.00676744
0.00828479
0.00971002
0.0110498
0.012312
0.013513
0.0146775
0.0158309
0.0169833
0.0181285
0.0192805
0.0205653
0.0219822
0.0234954
0.025076
0.0267062
0.028374
0.0300711
0.0317913
0.0335309
0.0352864
0.0370558
0.038837
0.0406289
0.0424294
0.0442374
0.0460521
0.0478718
0.0496959
0.0515231
0.0533524
0.0551824
0.0570124
0.0588407
0.0606664
0.0624891
0.0643085
0.066125
0.0679412
0.000332459
0.00136438
0.00301188
0.00443808
0.00574028
0.00698914
0.00820615
0.00939815
0.0105675
0.0117155
0.0128455
0.013963
0.0150746
0.0161877
0.0173201
0.0185098
0.0197702
0.0210832
0.0224509
0.0239718
0.0256098
0.0273249
0.0290925
0.030897
0.0327281
0.0345787
0.0364445
0.0383223
0.0402089
0.0421025
0.0440016
0.0459045
0.0478101
0.049717
0.0516239
0.05353
0.055434
0.0573344
0.0592307
0.0611225
0.0630092
0.0648913
0.0667702
0.000265831
0.00106523
0.00239895
0.00402936
0.00554818
0.00689177
0.00810371
0.00922185
0.0102763
0.0112907
0.0122831
0.013268
0.0142578
0.0152644
0.0163014
0.0173827
0.0185193
0.0197154
0.0209772
0.022322
0.0237373
0.0252701
0.0269489
0.0287257
0.0305666
0.0324501
0.0343622
0.0362941
0.0382403
0.040196
0.0421583
0.044125
0.0460943
0.048064
0.0500332
0.0520005
0.0539643
0.0559236
0.0578779
0.0598263
0.0617682
0.0637041
0.0656343
0.000326561
0.000998142
0.00221167
0.00373322
0.00536013
0.0068636
0.00821353
0.00942489
0.0105191
0.0115197
0.0124517
0.0133401
0.0142092
0.0150817
0.0159782
0.0169159
0.0179097
0.0189706
0.0201062
0.0213195
0.0226101
0.0239857
0.0254463
0.0270373
0.0287798
0.0306232
0.0325307
0.0344803
0.0364574
0.0384529
0.04046
0.0424747
0.0444937
0.0465144
0.0485351
0.0505537
0.0525686
0.054579
0.0565838
0.0585819
0.060573
0.0625566
0.0645318
0.000324457
0.00094704
0.00208607
0.00350849
0.00514365
0.00675818
0.00824111
0.00958064
0.0107863
0.0118706
0.012849
0.0137413
0.0145712
0.0153653
0.0161512
0.0169557
0.0178026
0.0187122
0.0196986
0.0207698
0.0219293
0.0231769
0.0245096
0.0259331
0.0274538
0.0291458
0.0309735
0.0328894
0.0348616
0.0368697
0.0389009
0.0409471
0.043002
0.0450619
0.0471237
0.0491848
0.0512431
0.0532972
0.0553459
0.057388
0.0594224
0.0614484
0.0634637
0.000325571
0.000918433
0.0020131
0.00337243
0.0049696
0.00664383
0.0082317
0.00968418
0.0109991
0.012184
0.0132481
0.014203
0.0150647
0.0158537
0.0165957
0.0173192
0.0180543
0.0188294
0.0196686
0.02059
0.0216044
0.0227158
0.0239234
0.0252234
0.0266142
0.0281097
0.029748
0.0315532
0.0334692
0.035455
0.0374852
0.0395437
0.0416196
0.0437064
0.045799
0.0478934
0.0499871
0.052078
0.0541642
0.0562442
0.0583174
0.0603829
0.062442
0.000318634
0.000892512
0.00195186
0.00326293
0.00481007
0.00650318
0.0081708
0.00972374
0.0111417
0.0124265
0.0135841
0.014622
0.0155498
0.0163815
0.0171359
0.0178372
0.018514
0.0191975
0.0199184
0.0207039
0.0215747
0.022544
0.023617
0.024793
0.0260682
0.0274396
0.028913
0.0305178
0.0323077
0.0342241
0.036221
0.0382687
0.0403488
0.0424489
0.0445611
0.0466797
0.0488006
0.0509211
0.0530384
0.0551511
0.0572573
0.0593557
0.061443
0.00031204
0.000872526
0.0019041
0.00317688
0.00467848
0.00636064
0.00807969
0.00971601
0.0112263
0.0126037
0.0138514
0.0149744
0.0159793
0.0168749
0.0176741
0.0183951
0.0190611
0.0197007
0.0203454
0.0210269
0.021774
0.022609
0.0235465
0.0245927
0.0257472
0.0270053
0.0283624
0.0298216
0.0314135
0.0331988
0.0351202
0.0371286
0.039192
0.0412903
0.0434104
0.0455434
0.0476835
0.0498263
0.0519686
0.054108
0.0562424
0.0583702
0.0604905
0.000303718
0.000853957
0.0018608
0.00310053
0.00456129
0.00621586
0.00796074
0.00966307
0.0112554
0.0127187
0.0140516
0.0152575
0.016341
0.0173079
0.0181673
0.0189318
0.0196194
0.0202535
0.0208625
0.021478
0.0221321
0.0228541
0.023667
0.0245856
0.0256165
0.0267587
0.0280073
0.0293572
0.0308119
0.0324065
0.0341994
0.036132
0.038154
0.0402326
0.0423471
0.0444843
0.0466351
0.0487931
0.0509542
0.0531148
0.0552724
0.0574248
0.0595699
0.000294911
0.000837192
0.00182168
0.00303216
0.00445653
0.00607709
0.00782589
0.00957557
0.011238
0.0127788
0.0141909
0.0154753
0.0166352
0.0176748
0.0186
0.01942
0.0201482
0.0208029
0.0214078
0.0219915
0.0225859
0.0232229
0.0239316
0.0247343
0.0256456
0.0266714
0.0278103
0.0290573
0.0304075
0.0318673
0.0334789
0.0352909
0.0372404
0.0392783
0.0413724
0.0435025
0.0456548
0.047821
0.0499945
0.0521708
0.0543467
0.0565189
0.0586843
0.000285381
0.000821295
0.0017849
0.0029684
0.00435952
0.00594478
0.0076811
0.00946025
0.0111798
0.0127899
0.014275
0.015633
0.0168658
0.0179764
0.0189688
0.0198496
0.0206286
0.0213199
0.0219426
0.0225215
0.0230854
0.0236661
0.0242951
0.0250005
0.0258037
0.0267178
0.0277477
0.0288915
0.0301443
0.0315022
0.0329759
0.0346197
0.03646
0.0384316
0.0404877
0.0425978
0.0447425
0.0469089
0.0490886
0.0512754
0.0534646
0.0556523
0.057834
0.000275348
0.000806055
0.00174983
0.00290821
0.00426853
0.00581921
0.00753293
0.00932499
0.0110886
0.0127587
0.0143102
0.0157366
0.0170382
0.0182168
0.0192753
0.0202184
0.0210531
0.0217903
0.0224452
0.0230383
0.0235949
0.0241445
0.0247187
0.0253482
0.0260595
0.0268724
0.0277981
0.0288402
0.0299961
0.031261
0.0326331
0.0341303
0.0358214
0.0376974
0.0396949
0.0417709
0.0438973
0.0460562
0.0482358
0.0504276
0.0526259
0.0548263
0.0570272
0.000264847
0.000791124
0.0017159
0.00285045
0.00418185
0.00569928
0.00738474
0.00917601
0.0109705
0.0126912
0.0143023
0.0157919
0.0171578
0.018401
0.0195234
0.0205281
0.0214204
0.0222085
0.0229043
0.0235246
0.0240911
0.0246301
0.0251715
0.0257465
0.0263844
0.0271099
0.0279403
0.0288851
0.029946
0.03112
0.0324023
0.0337953
0.0353307
0.0370804
0.0389967
0.0410226
0.0431194
0.0452623
0.047435
0.0496264
0.051829
0.0540371
0.0562454
0.000254065
0.000776767
0.00168325
0.00279494
0.00409882
0.00558459
0.00723931
0.00901891
0.0108319
0.0125936
0.0142574
0.0158046
0.0172303
0.0185343
0.0197174
0.0207821
0.0217319
0.0225731
0.0233151
0.0239712
0.0245598
0.0251038
0.0256307
0.0261705
0.0267535
0.0274073
0.0281542
0.0290091
0.029979
0.0310641
0.0322609
0.0335664
0.0349901
0.0365866
0.0383966
0.0403542
0.0424086
0.0445263
0.0466851
0.0488707
0.0510734
0.0532871
0.0555087
0.000243007
0.000762915
0.00165156
0.00274136
0.00401892
0.00547427
0.00709761
0.00885785
0.0106784
0.0124715
0.0141805
0.0157799
0.017261
0.0186217
0.0198625
0.0209847
0.0219909
0.0228857
0.0236762
0.0243735
0.0249926
0.0255534
0.0260803
0.0266012
0.0271462
0.0277443
0.028421
0.0291959
0.0300809
0.0310807
0.0321944
0.0334184
0.0347535
0.0362216
0.0378983
0.0397676
0.0417656
0.0438478
0.0459855
0.0481596
0.0503579
0.0525708
0.0547917
0.000231673
0.000749278
0.00162057
0.0026892
0.00394151
0.0053677
0.00695985
0.00869598
0.0105145
0.0123294
0.0140764
0.0157225
0.0172544
0.0186682
0.0199632
0.0211402
0.022201
0.0231486
0.0239889
0.0247303
0.0253855
0.0259714
0.0265094
0.0270251
0.0275469
0.0281042
0.0287243
0.0294302
0.0302385
0.0311582
0.0321919
0.0333378
0.0345937
0.0359668
0.0375027
0.039264
0.0411904
0.0432265
0.0453353
0.0474919
0.0496797
0.0518869
0.0541021
0.000220109
0.000735932
0.00159036
0.00263848
0.00386645
0.00526469
0.00682632
0.00853541
0.0103439
0.012172
0.0139498
0.0156369
0.0172152
0.0186783
0.0200242
0.0212532
0.0223661
0.0233653
0.0242552
0.0250423
0.0257371
0.0263539
0.0269113
0.0274324
0.0279436
0.0284734
0.02905
0.0296986
0.0304393
0.0312855
0.0322435
0.0333143
0.0344957
0.035789
0.0372141
0.038846
0.0406844
0.0426626
0.0447338
0.0468663
0.0490392
0.0512372
0.0534481
0.000208335
0.00072303
0.00156094
0.00258924
0.00379383
0.00516516
0.00669689
0.00837758
0.0101703
0.0120036
0.013805
0.0155275
0.0171477
0.0186562
0.0200497
0.0213276
0.0224903
0.0235394
0.0244779
0.0253112
0.0260476
0.0266993
0.0272822
0.027817
0.0283277
0.0288416
0.0293866
0.0299892
0.0306722
0.0314525
0.0323402
0.0333394
0.0344498
0.0356705
0.03701
0.038513
0.0402476
0.0421558
0.0441804
0.0462824
0.048436
0.0506238
0.052836
0.000196343
0.000710552
0.00153242
0.00254151
0.00372336
0.00506859
0.00657157
0.00822345
0.0099959
0.0118275
0.0136456
0.0153979
0.0170555
0.0186057
0.0200435
0.0213674
0.0225774
0.0236742
0.0246601
0.0255391
0.0263182
0.0270072
0.0276201
0.0281748
0.0286933
0.0292011
0.0297251
0.0302924
0.0309274
0.0316499
0.0324735
0.0334055
0.0344482
0.0356008
0.0368663
0.0382672
0.0398815
0.0417062
0.0436749
0.0457398
0.0478689
0.05004
0.0522354
0.000184095
0.000698419
0.00150462
0.00249505
0.00365489
0.00497507
0.00645012
0.00807313
0.00982246
0.0116463
0.013475
0.0152515
0.0169422
0.0185303
0.0200092
0.0213764
0.022631
0.0237734
0.024805
0.0257289
0.0265507
0.0272785
0.0279242
0.0285036
0.0290365
0.0295461
0.0300584
0.0306001
0.0311965
0.0318695
0.0326358
0.0335058
0.0344843
0.0355722
0.0367708
0.038091
0.0395847
0.041314
0.0432171
0.0452379
0.0473377
0.0494907
0.0516808
0.000171598
0.000686605
0.00147746
0.0024498
0.00358845
0.00488432
0.00633236
0.0079268
0.00965123
0.0114628
0.013296
0.0150915
0.0168107
0.0184332
0.0199502
0.0213577
0.0226544
0.0238401
0.0249156
0.0258833
0.0267473
0.0275145
0.028195
0.0288026
0.0293547
0.0298729
0.0303813
0.0309059
0.0314725
0.0321042
0.0328201
0.0336335
0.0345521
0.0355788
0.0367146
0.0379651
0.039359
0.0409796
0.0428068
0.0447761
0.0468417
0.0489732
0.0511534
0.000159174
0.000675079
0.001451
0.00240578
0.00352385
0.0047962
0.00621809
0.00778463
0.00948326
0.0112786
0.0131113
0.0149206
0.0166639
0.0183174
0.0198693
0.0213144
0.0226507
0.0238774
0.024995
0.0260049
0.0269104
0.0277171
0.0284336
0.0290716
0.0296469
0.0301787
0.0306898
0.031205
0.0317496
0.0323478
0.0330203
0.0337831
0.0346463
0.0356152
0.0366918
0.0378794
0.0391946
0.0407019
0.0424437
0.044354
0.0463793
0.0484833
0.05064
0.000147949
0.000663878
0.00142536
0.00236305
0.00346112
0.00471086
0.00610738
0.00764674
0.00931896
0.0110954
0.0129229
0.0147413
0.0165047
0.0181854
0.0197691
0.0212493
0.0226227
0.0238884
0.025046
0.0260965
0.0270424
0.0278882
0.028641
0.0293112
0.0299124
0.0304621
0.0309813
0.0314934
0.0320233
0.0325952
0.0332312
0.0339492
0.0347619
0.0356768
0.0366976
0.0378268
0.0390745
0.0404806
0.0421275
0.043971
0.0459504
0.0480232
0.0501623
0.000140057
0.000652746
0.00140034
0.00232152
0.00340028
0.00462794
0.00600008
0.00751303
0.00915873
0.0109144
0.0127328
0.0145558
0.0163352
0.0180397
0.0196524
0.0211648
0.0225731
0.0238754
0.0250711
0.0261606
0.0271457
0.0280298
0.0288191
0.0295223
0.0301514
0.0307223
0.031254
0.0317686
0.0322898
0.0328421
0.0334481
0.0341272
0.0348944
0.0357594
0.0367275
0.037802
0.0389894
0.0403145
0.0418579
0.0436266
0.0455538
0.0475906
0.0497037
0.00013576
0.000641691
0.00137608
0.00228124
0.00334117
0.00454755
0.00589605
0.00738325
0.00900287
0.0107362
0.0125423
0.0143661
0.0161575
0.0178825
0.0195213
0.0210635
0.0225042
0.0238411
0.0250729
0.0261996
0.0272224
0.0281441
0.0289694
0.0297061
0.0303646
0.030959
0.0315068
0.0320284
0.0325466
0.0330851
0.0336671
0.0343131
0.0350398
0.035859
0.036778
0.0378011
0.0389333
0.0401911
0.0416332
0.0433198
0.0451889
0.0471839
0.0492644
0.000132806
0.000630928
0.00135258
0.00224212
0.00328392
0.00446975
0.00579524
0.00725761
0.0088514
0.0105615
0.0123528
0.0141737
0.0159737
0.0177158
0.0193778
0.0209473
0.0224184
0.0237875
0.0250535
0.0262158
0.0272749
0.0282329
0.0290938
0.029864
0.0305528
0.0311725
0.0317391
0.0322716
0.0327914
0.0333216
0.0338851
0.0345035
0.0351946
0.0359723
0.0368457
0.0378205
0.0389012
0.0400994
0.0414535
0.0430508
0.0448553
0.0468044
0.048852
0.000130124
0.000620461
0.00132977
0.00220419
0.00322843
0.0043943
0.00569766
0.00713576
0.0087044
0.0103909
0.0121654
0.0139802
0.0157851
0.0175414
0.0192238
0.0208183
0.0223173
0.0237169
0.0250152
0.0262112
0.0273051
0.0282983
0.029194
0.0299975
0.0307169
0.0313633
0.031951
0.0324974
0.0330227
0.0335492
0.0340995
0.0346952
0.0353557
0.0360961
0.0369275
0.037857
0.0388897
0.040034
0.0413166
0.042819
0.044553
0.046452
0.0484652
0.000127556
0.000610262
0.00130752
0.00216733
0.00317454
0.00432107
0.00560295
0.00701771
0.00856158
0.0102244
0.0119806
0.0137866
0.0155936
0.0173608
0.019061
0.0206781
0.0222029
0.023631
0.0249597
0.0261878
0.027315
0.0283421
0.0292716
0.0301081
0.0308583
0.0315322
0.0321425
0.0327054
0.0332397
0.0337665
0.0343079
0.0348859
0.0355203
0.0362277
0.0370207
0.0379081
0.0388956
0.0399907
0.0412124
0.0426229
0.0442816
0.0461261
0.0481007
0.000125047
0.000600336
0.00128595
0.00213159
0.0031222
0.00425005
0.00551119
0.00690317
0.0084231
0.0100622
0.0117989
0.0135941
0.0154001
0.0171754
0.0188909
0.0205281
0.0220769
0.0235315
0.024889
0.0261475
0.0273064
0.0283661
0.0293284
0.0301971
0.0309781
0.0316799
0.0323142
0.0328955
0.0334415
0.0339722
0.0345089
0.0350735
0.0356861
0.0363646
0.0371229
0.0379712
0.0389166
0.0399658
0.0411331
0.0424626
0.0440407
0.0458273
0.0477636
0.000122656
0.000590777
0.00126507
0.0020969
0.00307152
0.00418129
0.00542221
0.00679225
0.00828879
0.00990455
0.0116212
0.0134032
0.0152057
0.0169867
0.0187149
0.0203701
0.0219407
0.0234201
0.0248045
0.0260918
0.0272809
0.0283719
0.029366
0.0302662
0.0310775
0.0318075
0.0324665
0.0330679
0.033628
0.0341655
0.0347012
0.0352562
0.0358512
0.0365047
0.0372318
0.0380443
0.0389502
0.0399566
0.041075
0.0423373
0.0438299
0.0455539
0.0474443
0.000120355
0.000581457
0.0012448
0.00206329
0.00302241
0.00411454
0.005336
0.00668478
0.00815843
0.00975126
0.0114471
0.0132148
0.0150116
0.0167957
0.0185341
0.0202053
0.0217958
0.0232981
0.0247078
0.0260223
0.0272402
0.0283611
0.0293858
0.0303167
0.0311579
0.0319161
0.0326004
0.033223
0.033799
0.0343459
0.0348836
0.0354327
0.0360138
0.0366461
0.0373456
0.0381253
0.0389946
0.0399611
0.0410348
0.04224