/*--------------------------------*- C++ -*----------------------------------*\
| =========                 |                                                 |
| \\      /  F ield         | OpenFOAM: The Open Source CFD Toolbox           |
|  \\    /   O peration     | Version:  2.3.0                                 |
|   \\  /    A nd           | Web:      www.OpenFOAM.org                      |
|    \\/     M anipulation  |                                                 |
\*---------------------------------------------------------------------------*/
FoamFile
{
    version     2.0;
    format      ascii;
    class       volScalarField;
    location    "3000";
    object      p;
}
// * * * * * * * * * * * * * * * * * * * * * * * * * * * * * * * * * * * * * //

dimensions      [0 2 -2 0 0 0 0];

internalField   nonuniform List<scalar> 
38111
(
0.00177898
-3.84606
-7.28596
-10.7878
-14.3625
-18.015
-21.7443
-25.5482
-29.4265
-33.3792
-37.4112
-41.5106
-45.6853
-49.9296
-54.2374
-58.6059
-63.021
-67.4883
-71.9807
-76.4883
-81.0054
-85.5154
-90.0042
-94.4693
-98.8961
-103.269
-107.553
-111.77
-115.867
-119.851
-123.585
-127.053
-130.081
-132.469
-133.838
-133.751
-131.94
-127.639
-118.886
-103.953
-88.3498
-81.0195
-49.2281
6.83203
3.68388
0.932912
-1.80067
-4.54865
-7.31518
-10.0948
-12.8823
-15.6698
-18.4576
-21.2408
-24.0059
-26.7632
-29.4919
-32.2052
-34.8854
-37.5285
-40.1361
-42.6956
-45.1875
-47.609
-49.9327
-52.1411
-54.1911
-56.031
-57.6202
-58.8436
-59.6349
-59.8657
-59.3914
-57.9716
-55.4633
-51.5766
-46.0359
-38.4887
-28.4896
-15.6205
0.71404
21.1164
46.3087
76.6582
113.267
156.259
13.0198
10.5367
8.41209
6.3252
4.24277
2.16254
0.0933029
-1.96517
-4.00107
-6.0115
-7.98883
-9.92737
-11.8156
-13.6424
-15.4071
-17.0855
-18.6694
-20.1381
-21.478
-22.6756
-23.6982
-24.5314
-25.1483
-25.506
-25.5859
-25.3543
-24.7234
-23.6646
-22.1021
-19.9361
-17.0619
-13.3731
-8.7046
-2.89105
4.23801
12.8767
23.2281
35.4972
49.7414
66.1029
84.4798
105.043
127.449
18.506
16.6102
14.9754
13.3818
11.8028
10.2428
8.70499
7.19907
5.72482
4.30024
2.92181
1.60146
0.353024
-0.824383
-1.91628
-2.9067
-3.79181
-4.54577
-5.15957
-5.61135
-5.8712
-5.9098
-5.71242
-5.22462
-4.40117
-3.21972
-1.575
0.561087
3.27224
6.65558
10.7957
15.7887
21.7624
28.845
37.1257
46.7356
57.7603
70.2663
84.2064
99.5103
115.931
133.103
150.482
23.6565
22.1092
20.804
19.5775
18.3762
17.2137
16.0719
14.9736
13.9074
12.8978
11.942
11.0587
10.2481
9.5131
8.88312
8.35831
7.95169
7.686
7.56579
7.63405
7.87861
8.35542
9.07094
10.0555
11.3679
13.018
15.0806
17.6049
20.6479
24.2762
28.5576
33.5638
39.4064
46.1398
53.8507
62.6174
72.4628
83.4212
95.4222
108.382
122.11
136.318
150.628
27.979
26.9402
25.9254
24.995
24.085
23.2353
22.3963
21.6024
20.841
20.129
19.4788
18.9252
18.4336
18.0082
17.704
17.484
17.398
17.4433
17.6458
18.032
18.6043
19.4011
20.4441
21.7475
23.3686
25.3302
27.6721
30.4793
33.7732
37.6276
42.0901
47.1915
53.0525
59.6852
67.1886
75.563
84.8389
94.9888
105.953
117.614
129.854
142.37
154.917
32.0654
31.2174
30.4107
29.7206
29.0412
28.4662
27.8657
27.3132
26.7672
26.2593
25.7978
25.4704
25.232
25.0501
25.0278
25.0455
25.1774
25.4439
25.8537
26.4613
27.2783
28.2935
29.52
31.0131
32.788
34.9264
37.3914
40.3013
43.6676
47.5503
52.0103
57.0265
62.7207
69.1142
76.2438
84.1255
92.8058
102.222
112.325
122.899
133.983
145.282
156.652
35.866
35.1003
34.3788
33.8159
33.2704
32.9755
32.5787
32.261
31.8865
31.5401
31.1904
31.0124
30.873
30.7334
31.0083
31.2531
31.5601
32.0193
32.5105
33.2238
34.1817
35.4171
36.8621
38.4848
40.2155
42.4561
44.9692
47.9392
51.4219
55.3666
59.7883
64.6418
70.1915
76.4048
83.3004
90.8756
99.1519
107.942
117.381
127.222
137.594
148.093
158.582
39.1917
38.7031
38.093
37.9484
36.9168
36.7387
36.4371
36.3707
36.187
36.0714
35.8339
35.9472
36.5142
35.2819
35.4691
35.75
36.0751
36.7354
37.157
37.7293
38.5518
39.7866
41.6409
43.7096
45.0811
47.1453
49.4812
52.3142
55.9058
60.1972
64.7778
69.3499
74.7675
80.9599
87.9593
95.7647
104.126
112.659
121.568
130.503
142.364
152.596
162.167
86.5206
157.052
195.716
221.105
240.03
254.599
265.781
274.361
280.955
285.946
289.75
292.58
294.643
296.096
297.054
297.598
297.82
297.757
297.474
297.002
296.383
295.641
294.798
293.885
292.91
291.895
290.846
289.776
288.689
287.596
286.498
285.398
284.301
283.207
282.116
281.031
279.951
278.874
277.801
276.732
275.663
274.609
273.656
195.587
221.953
241.457
256.601
268.452
277.552
284.407
289.458
293.073
295.557
297.157
298.067
298.447
298.431
298.111
297.567
296.861
296.037
295.132
294.175
293.185
292.175
291.15
290.12
289.086
288.054
287.023
285.997
284.976
283.961
282.952
281.949
280.953
279.965
278.984
278.01
277.045
276.087
275.138
274.196
273.261
272.347
271.588
149.995
170.952
189.639
205.838
219.662
231.31
241.047
249.108
255.751
261.191
265.621
269.212
272.098
274.41
276.234
277.656
278.741
279.543
280.107
280.47
280.663
280.71
280.636
280.461
280.196
279.86
279.459
279.006
278.509
277.973
277.405
276.812
276.194
275.559
274.904
274.236
273.554
272.861
272.157
271.442
270.715
269.992
269.402
167.335
183.081
197.431
210.204
221.381
231.027
239.267
246.222
252.059
256.916
260.934
264.229
266.918
269.095
270.841
272.219
273.293
274.112
274.713
275.137
275.405
275.547
275.577
275.519
275.382
275.184
274.93
274.63
274.292
273.917
273.514
273.088
272.637
272.17
271.681
271.177
270.657
270.124
269.578
269.02
268.449
267.887
267.46
164.653
178.073
190.601
202.045
212.308
221.389
229.326
236.195
242.097
247.141
251.429
255.039
258.084
260.633
262.755
264.517
265.963
267.141
268.09
268.843
269.422
269.862
270.176
270.386
270.505
270.551
270.528
270.449
270.319
270.143
269.928
269.682
269.404
269.102
268.771
268.417
268.043
267.649
267.237
266.811
266.371
265.937
265.638
167.198
179.005
190.104
200.359
209.664
217.991
225.364
231.825
237.452
242.336
246.53
250.107
253.159
255.758
257.949
259.801
261.346
262.627
263.687
264.554
265.246
265.8
266.232
266.56
266.798
266.969
267.074
267.123
267.111
267.051
266.951
266.823
266.666
266.482
266.261
266.01
265.746
265.453
265.145
264.825
264.488
264.16
263.998
167.812
178.553
188.722
198.185
206.889
214.705
221.701
227.859
233.295
238.096
242.218
245.773
248.841
251.497
253.771
255.718
257.353
258.73
259.887
260.847
261.633
262.279
262.817
263.248
263.604
263.9
264.12
264.267
264.336
264.364
264.365
264.356
264.303
264.216
264.063
263.889
263.727
263.508
263.279
263.034
262.769
262.537
262.529
168.883
178.852
188.373
197.266
205.426
212.707
219.364
225.303
230.582
235.33
239.228
242.69
245.735
248.428
250.732
252.704
254.32
255.705
256.895
257.882
258.709
259.404
260.024
260.523
260.998
261.408
261.671
261.845
261.954
262.073
262.2
262.318
262.316
262.292
262.138
262.042
262.014
261.816
261.621
261.407
261.181
261.034
261.181
171.712
181.241
190.334
198.756
206.031
212.402
218.527
224.192
229.56
234.554
237.854
241.15
244.068
246.733
248.893
250.725
252.043
253.329
254.483
255.441
256.286
256.972
257.621
258.117
258.664
258.979
259.398
259.66
259.851
260.105
260.265
260.333
260.358
260.36
260.29
260.342
260.372
260.113
259.977
259.925
259.824
259.788
259.953
131.27
131.32
131.293
131.276
131.253
131.219
131.173
131.114
131.042
130.957
130.858
130.745
130.618
130.476
130.32
130.149
129.965
129.766
129.554
129.328
129.091
128.841
128.581
128.311
128.031
127.744
127.449
127.147
126.841
126.531
126.218
125.904
125.591
125.279
124.971
124.669
124.376
124.099
123.849
123.654
123.563
123.725
124.583
132.034
131.79
131.618
131.449
131.276
131.098
130.917
130.732
130.543
130.352
130.159
129.965
129.771
129.579
129.388
129.2
129.015
128.833
128.654
128.478
128.306
128.136
127.969
127.804
127.64
127.477
127.315
127.154
126.992
126.83
126.669
126.507
126.347
126.19
126.039
125.898
125.776
125.686
125.65
125.745
126.161
127.179
128.678
132.623
132.39
132.242
132.091
131.938
131.788
131.642
131.499
131.358
131.218
131.079
130.94
130.801
130.66
130.52
130.378
130.235
130.09
129.943
129.794
129.643
129.489
129.332
129.172
129.01
128.846
128.678
128.509
128.337
128.164
127.991
127.818
127.647
127.483
127.33
127.196
127.095
127.045
127.088
127.34
128.017
129.334
131.294
133.083
133.011
132.917
132.807
132.692
132.576
132.46
132.343
132.226
132.107
131.987
131.863
131.737
131.607
131.475
131.342
131.207
131.07
130.931
130.79
130.646
130.5
130.352
130.201
130.048
129.892
129.733
129.572
129.408
129.243
129.077
128.913
128.754
128.604
128.471
128.367
128.304
128.311
128.45
128.847
129.684
131.046
132.952
133.741
133.575
133.491
133.397
133.295
133.19
133.085
132.979
132.874
132.767
132.661
132.551
132.438
132.32
132.199
132.077
131.954
131.831
131.706
131.578
131.446
131.313
131.177
131.039
130.896
130.751
130.602
130.451
130.297
130.14
129.983
129.828
129.681
129.547
129.437
129.363
129.34
129.402
129.624
130.131
131.079
132.485
134.327
134.12
134.051
133.993
133.918
133.829
133.734
133.64
133.543
133.454
133.358
133.271
133.178
133.084
132.976
132.865
132.75
132.635
132.522
132.409
132.293
132.17
132.045
131.921
131.795
131.66
131.523
131.383
131.241
131.095
130.945
130.791
130.639
130.494
130.365
130.268
130.219
130.233
130.349
130.639
131.226
132.241
133.693
135.538
134.569
134.486
134.453
134.401
134.323
134.234
134.151
134.053
133.978
133.881
133.817
133.736
133.672
133.575
133.473
133.366
133.26
133.161
133.069
132.968
132.843
132.718
132.603
132.495
132.364
132.228
132.094
131.96
131.827
131.682
131.53
131.377
131.232
131.098
130.998
130.959
130.989
131.136
131.442
132.02
133.017
134.468
136.371
134.946
134.928
134.902
134.855
134.769
134.659
134.611
134.502
134.474
134.334
134.294
134.185
134.174
134.08
133.96
133.826
133.678
133.557
133.482
133.46
133.362
133.21
133.063
133.018
132.915
132.778
132.643
132.519
132.42
132.306
132.159
131.997
131.842
131.682
131.551
131.543
131.622
131.889
132.296
132.91
134.002
135.586
137.559
134.965
135.177
135.4
135.542
135.36
135.065
134.952
134.817
134.937
134.811
134.947
134.76
135.01
135.073
135.08
135.069
134.971
134.661
134.341
134.33
134.442
134.311
133.885
133.846
133.802
133.679
133.486
133.27
133.163
133.118
133.061
132.969
132.885
132.694
132.337
132.162
132.023
132.11
132.22
132.036
132.472
134.046
136.955
129.097
132.56
135.872
138.754
141.378
143.758
145.932
147.932
149.785
151.515
153.141
154.68
156.145
157.549
158.902
160.214
161.491
162.738
163.959
165.159
166.339
167.504
168.652
169.786
170.907
172.014
173.109
174.191
175.261
176.319
177.365
178.399
179.42
180.428
181.424
182.407
183.378
184.335
185.279
186.208
187.122
188.019
188.869
131.356
133.152
135.375
137.626
139.936
142.199
144.39
146.493
148.501
150.417
152.243
153.986
155.653
157.249
158.782
160.255
161.672
163.04
164.361
165.639
166.876
168.076
169.242
170.375
171.478
172.553
173.602
174.627
175.629
176.611
177.573
178.517
179.443
180.354
181.25
182.132
183.001
183.858
184.703
185.538
186.365
187.175
187.972
133.822
135.734
137.813
139.811
141.844
143.849
145.821
147.741
149.601
151.397
153.126
154.788
156.384
157.919
159.393
160.811
162.177
163.493
164.764
165.992
167.18
168.331
169.447
170.532
171.588
172.615
173.617
174.595
175.55
176.484
177.398
178.294
179.172
180.033
180.878
181.708
182.523
183.324
184.113
184.891
185.664
186.409
187.082
135.203
137.139
139.143
141.087
143.052
144.977
146.861
148.69
150.461
152.168
153.812
155.394
156.914
158.377
159.784
161.139
162.445
163.705
164.923
166.101
167.241
168.347
169.421
170.464
171.479
172.468
173.432
174.374
175.293
176.192
177.071
177.933
178.776
179.603
180.414
181.209
181.99
182.758
183.511
184.251
184.981
185.691
186.328
136.422
138.287
140.167
142.043
143.941
145.806
147.634
149.409
151.127
152.785
154.382
155.919
157.398
158.822
160.192
161.512
162.784
164.012
165.2
166.346
167.455
168.529
169.568
170.578
171.559
172.513
173.441
174.345
175.226
176.087
176.926
177.746
178.549
179.334
180.102
180.854
181.593
182.318
183.03
183.728
184.412
185.09
185.803
137.613
139.459
141.272
143.091
144.918
146.713
148.475
150.188
151.85
153.456
155.005
156.499
157.938
159.324
160.658
161.945
163.185
164.383
165.541
166.658
167.734
168.773
169.779
170.756
171.703
172.625
173.519
174.387
175.232
176.055
176.857
177.639
178.403
179.149
179.876
180.587
181.284
181.968
182.639
183.295
183.933
184.567
185.266
138.555
140.474
142.295
144.094
145.866
147.596
149.291
150.942
152.547
154.101
155.602
157.051
158.45
159.798
161.095
162.348
163.557
164.728
165.862
166.949
167.991
168.996
169.971
170.921
171.839
172.733
173.596
174.43
175.244
176.037
176.805
177.554
178.287
178.997
179.687
180.36
181.022
181.671
182.307
182.922
183.517
184.108
184.782
139.784
141.647
143.359
145.06
146.734
148.381
150.005
151.602
153.162
154.669
156.132
157.545
158.917
160.235
161.501
162.729
163.918
165.079
166.209
167.261
168.259
169.225
170.174
171.113
172.003
172.879
173.705
174.501
175.294
176.059
176.793
177.509
178.214
178.891
179.539
180.174
180.802
181.421
182.024
182.596
183.148
183.704
184.361
140.173
142.394
144.139
145.851
147.487
149.059
150.614
152.175
153.707
155.162
156.597
157.963
159.326
160.593
161.823
163.026
164.201
165.36
166.491
167.423
168.372
169.344
170.288
171.267
172.085
172.96
173.727
174.496
175.308
176.034
176.729
177.428
178.133
178.764
179.362
179.977
180.598
181.218
181.809
182.33
182.85
183.399
184.057
-537.168
-513.39
-487.403
-465.37
-441.483
-415.197
-388.426
-362.12
-336.607
-312.184
-289.096
-267.528
-247.595
-229.284
-212.529
-197.317
-183.514
-170.98
-159.526
-148.998
-139.266
-130.215
-121.747
-113.774
-106.231
-99.057
-92.1899
-85.5929
-79.2391
-73.1051
-67.1647
-61.4045
-55.8162
-50.386
-45.1074
-39.9738
-34.979
-30.1207
-25.3954
-20.8031
-16.3325
-11.9831
-7.12895
-417.101
-415.648
-411.893
-407.817
-404.046
-398.958
-391.59
-381.937
-370.187
-356.575
-341.394
-324.981
-307.769
-290.146
-272.501
-255.169
-238.407
-222.403
-207.252
-193.004
-179.662
-167.172
-155.481
-144.517
-134.225
-124.546
-115.416
-106.78
-98.5936
-90.8127
-83.3998
-76.3202
-69.5468
-63.058
-56.8293
-50.842
-45.0829
-39.5378
-34.1915
-29.0388
-24.0633
-19.2744
-14.0514
-428.769
-428.35
-428.164
-426.872
-423.85
-419.416
-413.788
-406.629
-397.734
-387.045
-374.633
-360.646
-345.346
-328.994
-311.968
-294.595
-277.209
-260.089
-243.48
-227.503
-212.28
-197.83
-184.192
-171.319
-159.178
-147.728
-136.929
-126.722
-117.071
-107.925
-99.2512
-91.0043
-83.1551
-75.676
-68.5359
-61.7126
-55.1875
-48.9384
-42.9457
-37.2032
-31.6883
-26.4181
-20.7857
-404.6
-404.352
-403.795
-402.944
-401.68
-399.813
-397.213
-393.82
-389.416
-383.742
-376.562
-367.738
-357.259
-345.15
-331.636
-316.975
-301.487
-285.511
-269.389
-253.373
-237.708
-222.522
-207.941
-193.998
-180.715
-168.097
-156.129
-144.77
-134.003
-123.786
-114.092
-104.875
-96.1144
-87.7714
-79.8209
-72.2405
-65.0042
-58.0889
-51.4742
-45.1497
-39.0882
-33.3042
-27.1423
-394.036
-393.974
-393.955
-393.797
-393.341
-392.394
-390.782
-388.398
-385.142
-380.882
-375.488
-368.836
-360.835
-351.41
-340.592
-328.458
-315.188
-301.012
-286.223
-271.095
-255.889
-240.831
-226.095
-211.8
-198.009
-184.777
-172.118
-160.029
-148.505
-137.534
-127.087
-117.14
-107.672
-98.6481
-90.0457
-81.8452
-74.0188
-66.5438
-59.4003
-52.574
-46.0368
-39.8024
-33.132
-377.493
-377.454
-377.416
-377.287
-376.995
-376.436
-375.49
-374.056
-372.028
-369.283
-365.676
-361.069
-355.335
-348.365
-340.098
-330.529
-319.703
-307.757
-294.88
-281.309
-267.281
-253.049
-238.825
-224.785
-211.051
-197.717
-184.83
-172.416
-160.499
-149.085
-138.164
-127.728
-117.76
-108.239
-99.147
-90.4648
-82.1724
-74.2457
-66.6703
-59.4268
-52.4873
-45.852
-38.6779
-362.519
-362.526
-362.609
-362.662
-362.609
-362.369
-361.827
-360.88
-359.443
-357.425
-354.723
-351.23
-346.829
-341.419
-334.913
-327.258
-318.436
-308.488
-297.507
-285.653
-273.109
-260.087
-246.804
-233.45
-220.185
-207.14
-194.402
-182.014
-170.026
-158.454
-147.318
-136.619
-126.356
-116.518
-107.096
-98.0748
-89.4382
-81.1723
-73.2617
-65.6911
-58.4395
-51.5367
-44.1029
-346.478
-346.512
-346.63
-346.741
-346.783
-346.7
-346.406
-345.809
-344.832
-343.402
-341.435
-338.836
-335.504
-331.341
-326.25
-320.159
-313.018
-304.817
-295.592
-285.423
-274.445
-262.813
-250.712
-238.33
-225.83
-213.364
-201.047
-188.96
-177.163
-165.684
-154.559
-143.803
-133.435
-123.45
-113.849
-104.627
-95.7714
-87.2768
-79.1288
-71.3263
-63.8469
-56.7338
-49.0208
-330.746
-330.801
-330.962
-331.139
-331.272
-331.322
-331.218
-330.871
-330.207
-329.165
-327.679
-325.674
-323.069
-319.78
-315.719
-310.809
-304.99
-298.219
-290.494
-281.845
-272.348
-262.112
-251.282
-240.011
-228.459
-216.775
-205.083
-193.497
-182.085
-170.899
-159.976
-149.343
-139.032
-129.053
-119.411
-110.114
-101.156
-92.5329
-84.2398
-76.2756
-68.6173
-61.3191
-53.3069
-315.034
-315.108
-315.294
-315.506
-315.696
-315.829
-315.852
-315.691
-315.271
-314.535
-313.427
-311.886
-309.848
-307.239
-303.985
-300.009
-295.248
-289.645
-283.186
-275.857
-267.701
-258.785
-249.209
-239.09
-228.573
-217.789
-206.862
-195.916
-185.032
-174.281
-163.71
-153.347
-143.23
-133.387
-123.825
-114.566
-105.607
-96.9516
-88.6009
-80.5572
-72.8067
-65.43
-57.4281
-299.693
-299.781
-299.988
-300.232
-300.466
-300.664
-300.783
-300.76
-300.525
-300.022
-299.201
-298.012
-296.403
-294.315
-291.68
-288.431
-284.511
-279.857
-274.442
-268.233
-261.253
-253.522
-245.119
-236.121
-226.648
-216.811
-206.728
-196.514
-186.256
-176.043
-165.926
-155.949
-146.139
-136.535
-127.158
-118.032
-109.163
-100.561
-92.2272
-84.1715
-76.3791
-68.9315
-60.8591
-284.772
-284.866
-285.085
-285.348
-285.613
-285.855
-286.042
-286.122
-286.031
-285.713
-285.123
-284.217
-282.951
-281.274
-279.132
-276.466
-273.221
-269.342
-264.79
-259.529
-253.554
-246.877
-239.534
-231.59
-223.125
-214.229
-205.016
-195.577
-186.013
-176.401
-166.814
-157.293
-147.879
-138.6
-129.491
-120.577
-111.875
-103.399
-95.1496
-87.1433
-79.3589
-71.8501
-63.5642
-270.378
-270.476
-270.703
-270.981
-271.267
-271.542
-271.779
-271.937
-271.957
-271.785
-271.378
-270.698
-269.707
-268.362
-266.616
-264.42
-261.722
-258.474
-254.634
-250.169
-245.053
-239.29
-232.891
-225.903
-218.377
-210.392
-202.033
-193.385
-184.536
-175.57
-166.554
-157.543
-148.579
-139.694
-130.916
-122.28
-113.809
-105.521
-97.426
-89.541
-81.8661
-74.4857
-66.3761
-256.552
-256.657
-256.892
-257.178
-257.478
-257.775
-258.048
-258.263
-258.368
-258.315
-258.06
-257.565
-256.797
-255.723
-254.301
-252.488
-250.24
-247.513
-244.265
-240.462
-236.079
-231.104
-225.537
-219.402
-212.737
-205.598
-198.056
-190.181
-182.052
-173.745
-165.326
-156.854
-148.375
-139.925
-131.529
-123.222
-115.031
-106.982
-99.0906
-91.3754
-83.8394
-76.5943
-68.8937
-243.355
-243.465
-243.702
-243.992
-244.3
-244.611
-244.909
-245.165
-245.337
-245.379
-245.244
-244.899
-244.316
-243.462
-242.305
-240.806
-238.931
-236.636
-233.882
-230.638
-226.875
-222.576
-217.733
-212.354
-206.466
-200.106
-193.329
-186.191
-178.764
-171.107
-163.294
-155.373
-147.398
-139.405
-131.425
-123.481
-115.611
-107.838
-100.18
-92.6615
-85.2746
-78.1029
-70.4004
-230.8
-230.91
-231.147
-231.436
-231.747
-232.067
-232.382
-232.668
-232.891
-233.005
-232.968
-232.748
-232.317
-231.648
-230.713
-229.478
-227.912
-225.977
-223.638
-220.865
-217.627
-213.906
-209.689
-204.974
-199.778
-194.123
-188.05
-181.605
-174.846
-167.823
-160.605
-153.235
-145.771
-138.247
-130.698
-123.144
-115.619
-108.15
-100.759
-93.4682
-86.2799
-79.248
-71.3815
-218.889
-219.001
-219.235
-219.522
-219.834
-220.159
-220.485
-220.792
-221.051
-221.221
-221.262
-221.145
-220.841
-220.325
-219.575
-218.561
-217.252
-215.617
-213.627
-211.253
-208.465
-205.242
-201.568
-197.435
-192.848
-187.828
-182.393
-176.587
-170.454
-164.036
-157.391
-150.566
-143.606
-136.552
-129.44
-122.29
-115.129
-107.988
-100.891
-93.8666
-86.9236
-80.1544
-72.5882
-207.619
-207.731
-207.963
-208.246
-208.557
-208.883
-209.214
-209.533
-209.818
-210.032
-210.137
-210.104
-209.905
-209.518
-208.923
-208.093
-207.003
-205.625
-203.931
-201.894
-199.488
-196.69
-193.482
-189.857
-185.81
-181.352
-176.497
-171.275
-165.721
-159.872
-153.774
-147.471
-141.005
-134.414
-127.735
-120.991
-114.205
-107.406
-100.622
-93.8866
-87.2138
-80.7222
-73.6428
-196.982
-197.094
-197.322
-197.601
-197.907
-198.231
-198.563
-198.891
-199.193
-199.44
-199.595
-199.629
-199.518
-199.239
-198.773
-198.099
-197.193
-196.031
-194.587
-192.837
-190.758
-188.327
-185.525
-182.341
-178.768
-174.808
-170.473
-165.781
-160.758
-155.438
-149.854
-144.048
-138.057
-131.915
-125.661
-119.318
-112.905
-106.449
-99.9775
-93.5202
-87.0906
-80.7829
-73.7623
-186.956
-187.068
-187.293
-187.565
-187.864
-188.183
-188.515
-188.845
-189.158
-189.429
-189.623
-189.713
-189.674
-189.485
-189.128
-188.585
-187.836
-186.858
-185.628
-184.124
-182.325
-180.209
-177.758
-174.958
-171.8
-168.282
-164.409
-160.192
-155.654
-150.819
-145.716
-140.378
-134.839
-129.131
-123.286
-117.332
-111.289
-105.174
-99.0156
-92.8398
-86.6611
-80.5689
-73.8804
-177.521
-177.631
-177.85
-178.116
-178.409
-178.722
-179.049
-179.379
-179.698
-179.984
-180.208
-180.343
-180.363
-180.25
-179.986
-179.555
-178.938
-178.115
-177.069
-175.776
-174.217
-172.373
-170.225
-167.757
-164.963
-161.834
-158.374
-154.588
-150.49
-146.098
-141.438
-136.537
-131.423
-126.125
-120.675
-115.096
-109.411
-103.635
-97.791
-91.9056
-85.9961
-80.1514
-73.7389
-168.645
-168.756
-168.97
-169.228
-169.513
-169.819
-170.14
-170.468
-170.789
-171.086
-171.333
-171.501
-171.57
-171.519
-171.333
-170.996
-170.492
-169.803
-168.913
-167.803
-166.453
-164.843
-162.958
-160.782
-158.304
-155.519
-152.423
-149.018
-145.316
-141.329
-137.077
-132.581
-127.865
-122.957
-117.881
-112.661
-107.321
-101.875
-96.3404
-90.7416
-85.0964
-79.4891
-73.2908
-160.305
-160.419
-160.626
-160.875
-161.152
-161.449
-161.763
-162.086
-162.407
-162.71
-162.973
-163.169
-163.276
-163.277
-163.157
-162.901
-162.492
-161.919
-161.163
-160.206
-159.034
-157.627
-155.97
-154.05
-151.852
-149.37
-146.597
-143.535
-140.189
-136.568
-132.688
-128.564
-124.218
-119.674
-114.951
-110.075
-105.064
-99.9356
-94.703
-89.3873
-84.0078
-78.645
-72.748
-152.472
-152.59
-152.79
-153.03
-153.297
-153.586
-153.892
-154.209
-154.526
-154.832
-155.104
-155.321
-155.46
-155.503
-155.438
-155.249
-154.924
-154.449
-153.808
-152.986
-151.968
-150.738
-149.281
-147.58
-145.626
-143.409
-140.922
-138.165
-135.139
-131.849
-128.307
-124.526
-120.524
-116.318
-111.928
-107.375
-102.678
-97.8524
-92.9118
-87.8729
-82.7548
-77.6367
-72.049
-145.122
-145.24
-145.433
-145.664
-145.922
-146.201
-146.499
-146.809
-147.121
-147.426
-147.704
-147.936
-148.1
-148.179
-148.16
-148.029
-147.773
-147.381
-146.839
-146.133
-145.249
-144.171
-142.886
-141.379
-139.64
-137.658
-135.425
-132.939
-130.198
-127.206
-123.971
-120.502
-116.815
-112.924
-108.845
-104.596
-100.196
-95.6585
-90.9951
-86.2208
-81.3468
-76.4401
-71.0728
-138.226
-138.341
-138.529
-138.751
-138.999
-139.269
-139.558
-139.859
-140.164
-140.465
-140.747
-140.989
-141.172
-141.28
-141.297
-141.214
-141.019
-140.699
-140.243
-139.636
-138.868
-137.923
-136.788
-135.451
-133.899
-132.122
-130.114
-127.869
-125.384
-122.661
-119.704
-116.522
-113.123
-109.522
-105.732
-101.77
-97.6478
-93.3838
-88.9861
-84.4665
-79.8347
-75.1488
-70.0265
-131.756
-131.867
-132.048
-132.261
-132.501
-132.761
-133.04
-133.332
-133.63
-133.926
-134.207
-134.456
-134.654
-134.784
-134.834
-134.792
-134.646
-134.387
-134.004
-133.484
-132.816
-131.986
-130.982
-129.793
-128.406
-126.813
-125.003
-122.972
-120.715
-118.233
-115.527
-112.604
-109.471
-106.137
-102.615
-98.9191
-95.0597
-91.0539
-86.9097
-82.6395
-78.25
-73.8033
-68.9514
-125.684
-125.791
-125.964
-126.169
-126.4
-126.651
-126.92
-127.202
-127.491
-127.781
-128.06
-128.312
-128.52
-128.668
-128.743
-128.735
-128.633
-128.426
-128.105
-127.66
-127.08
-126.35
-125.46
-124.401
-123.16
-121.726
-120.092
-118.252
-116.199
-113.934
-111.455
-108.768
-105.876
-102.788
-99.5142
-96.0654
-92.4525
-88.6887
-84.7838
-80.7476
-76.5855
-72.352
-67.713
-119.983
-120.085
-120.252
-120.449
-120.669
-120.911
-121.171
-121.443
-121.724
-122.006
-122.281
-122.534
-122.749
-122.91
-123.006
-123.026
-122.96
-122.798
-122.532
-122.151
-121.645
-121.004
-120.215
-119.269
-118.155
-116.864
-115.385
-113.713
-111.843
-109.772
-107.498
-105.025
-102.353
-99.4907
-96.4453
-93.2264
-89.8429
-86.3064
-82.6264
-78.8122
-74.868
-70.8439
-66.4317
-114.629
-114.728
-114.887
-115.076
-115.288
-115.52
-115.769
-116.032
-116.303
-116.578
-116.847
-117.099
-117.317
-117.489
-117.601
-117.644
-117.609
-117.486
-117.266
-116.941
-116.5
-115.935
-115.234
-114.388
-113.386
-112.22
-110.88
-109.359
-107.652
-105.755
-103.664
-101.384
-98.913
-96.2574
-93.4225
-90.4163
-87.2457
-83.9217
-80.4522
-76.8463
-73.1062
-69.2758
-65.0559
-109.599
-109.693
-109.846
-110.028
-110.23
-110.453
-110.692
-110.946
-111.208
-111.474
-111.736
-111.984
-112.205
-112.384
-112.509
-112.57
-112.56
-112.469
-112.289
-112.012
-111.629
-111.13
-110.506
-109.747
-108.844
-107.788
-106.571
-105.185
-103.623
-101.882
-99.9593
-97.8536
-95.5654
-93.0975
-90.456
-87.6459
-84.6737
-81.5477
-78.2761
-74.8672
-71.3222
-67.686
-63.6565
-104.87
-104.961
-105.108
-105.282
-105.475
-105.689
-105.919
-106.162
-106.414
-106.671
-106.927
-107.17
-107.39
-107.574
-107.709
-107.786
-107.797
-107.734
-107.588
-107.353
-107.018
-106.577
-106.021
-105.339
-104.523
-103.565
-102.457
-101.19
-99.7579
-98.1572
-96.3839
-94.4363
-92.3141
-90.0186
-87.5541
-84.9246
-82.136
-79.1949
-76.108
-72.8837
-69.5234
-66.0687
-62.2074
-100.423
-100.509
-100.651
-100.817
-101.003
-101.207
-101.427
-101.66
-101.902
-102.15
-102.398
-102.636
-102.854
-103.04
-103.182
-103.272
-103.3
-103.26
-103.144
-102.944
-102.653
-102.263
-101.764
-101.15
-100.412
-99.5405
-98.528
-97.3676
-96.0525
-94.5779
-92.9397
-91.1353
-89.1637
-87.0256
-84.7238
-82.2606
-79.6412
-76.8714
-73.9566
-70.905
-67.7156
-64.429
-60.7139
-96.2375
-96.3198
-96.4553
-96.6149
-96.7926
-96.9879
-97.1988
-97.4223
-97.6552
-97.8936
-98.1328
-98.365
-98.58
-98.7661
-98.914
-99.0133
-99.0552
-99.0336
-98.9423
-98.7731
-98.5194
-98.174
-97.728
-97.1735
-96.5024
-95.708
-94.7823
-93.7163
-92.5048
-91.1427
-89.6254
-87.9504
-86.116
-84.1211
-81.9677
-79.6578
-77.1957
-74.5853
-71.8321
-68.9454
-65.9267
-62.8234
-59.3459
-92.2965
-92.3746
-92.5042
-92.6571
-92.827
-93.0138
-93.2152
-93.4293
-93.6526
-93.8821
-94.1129
-94.3383
-94.549
-94.7343
-94.8839
-94.9898
-95.0443
-95.0397
-94.9691
-94.8266
-94.6051
-94.2973
-93.8961
-93.3943
-92.7843
-92.0582
-91.2084
-90.2274
-89.1096
-87.8492
-86.4417
-84.8837
-83.173
-81.3082
-79.2907
-77.1208
-74.803
-72.3397
-69.7355
-66.9982
-64.1295
-61.1704
-57.8686
-88.5828
-88.6564
-88.7806
-88.9271
-89.0894
-89.2676
-89.4605
-89.6652
-89.8793
-90.0999
-90.3222
-90.5401
-90.7455
-90.9292
-91.081
-91.1923
-91.2553
-91.263
-91.2103
-91.0905
-90.8967
-90.6232
-90.2621
-89.8062
-89.2491
-88.583
-87.8003
-86.8949
-85.861
-84.692
-83.3826
-81.9302
-80.3318
-78.5859
-76.6928
-74.6519
-72.4665
-70.1377
-67.6706
-65.069
-62.3336
-59.4937
-56.3312
-85.0806
-85.15
-85.2691
-85.4092
-85.5642
-85.7344
-85.9188
-86.1143
-86.3192
-86.5306
-86.7445
-86.9548
-87.1543
-87.3344
-87.4856
-87.5999
-87.6704
-87.6897
-87.652
-87.5512
-87.3818
-87.1373
-86.8107
-86.3955
-85.8852
-85.2731
-84.5514
-83.7135
-82.7536
-81.6664
-80.4465
-79.0903
-77.5944
-75.9565
-74.1764
-72.2535
-70.1903
-67.9873
-65.6475
-63.1734
-60.5677
-57.8527
-54.8353
-81.7753
-81.8405
-81.9556
-82.0895
-82.2372
-82.3997
-82.5754
-82.7625
-82.9583
-83.1603
-83.3654
-83.568
-83.7617
-83.9382
-84.0886
-84.2052
-84.2807
-84.3087
-84.283
-84.1988
-84.0503
-83.8311
-83.5351
-83.1561
-82.6877
-82.1228
-81.4548
-80.6773
-79.7847
-78.771
-77.6314
-76.3612
-74.9575
-73.4187
-71.7422
-69.9278
-67.9768
-65.8886
-63.6683
-61.3176
-58.8384
-56.2566
-53.4041
-78.6536
-78.7145
-78.8252
-78.9533
-79.094
-79.2487
-79.4166
-79.5954
-79.7824
-79.9756
-80.1718
-80.3665
-80.5535
-80.7252
-80.8737
-80.991
-81.0697
-81.1041
-81.0891
-81.0191
-80.8884
-80.6913
-80.422
-80.075
-79.6427
-79.1197
-78.5002
-77.7774
-76.9449
-75.9975
-74.9302
-73.7389
-72.4195
-70.9704
-69.3886
-67.6736
-65.8265
-63.8465
-61.7356
-59.4961
-57.13
-54.6585
-51.9176
-75.7024
-75.7593
-75.8659
-75.9881
-76.122
-76.2696
-76.4298
-76.6002
-76.7789
-76.9637
-77.1516
-77.3382
-77.5184
-77.6849
-77.8303
-77.9473
-78.0286
-78.0688
-78.0624
-78.0036
-77.8881
-77.7104
-77.4645
-77.1449
-76.746
-76.261
-75.6835
-75.0081
-74.2295
-73.3424
-72.3404
-71.2201
-69.9777
-68.6103
-67.1154
-65.4917
-63.7394
-61.8578
-59.8489
-57.7147
-55.4545
-53.091
-50.4586
-72.9102
-72.9646
-73.0665
-73.1828
-73.3104
-73.4511
-73.6037
-73.7664
-73.9367
-74.1131
-74.2927
-74.4715
-74.6448
-74.8058
-74.9478
-75.0634
-75.1458
-75.1899
-75.1899
-75.1412
-75.0386
-74.8772
-74.6517
-74.3565
-73.9861
-73.5344
-72.9959
-72.3653
-71.6351
-70.801
-69.8585
-68.8027
-67.6297
-66.3365
-64.9209
-63.3816
-61.7166
-59.9274
-58.0122
-55.9739
-53.8132
-51.5511
-49.006
-70.2665
-70.3196
-70.4161
-70.5266
-70.648
-70.7819
-70.9274
-71.0822
-71.2446
-71.4129
-71.5842
-71.7551
-71.9215
-72.0769
-72.2142
-72.3277
-72.4108
-72.4576
-72.4632
-72.4227
-72.3316
-72.1845
-71.9763
-71.7026
-71.3574
-70.9352
-70.4305
-69.8376
-69.1519
-68.3671
-67.4777
-66.4801
-65.3708
-64.1459
-62.8027
-61.3404
-59.7562
-58.0503
-56.2229
-54.2767
-52.2092
-50.0415
-47.5789
-67.762
-67.8136
-67.9053
-68.0102
-68.1258
-68.2533
-68.3917
-68.5391
-68.6936
-68.8539
-69.0172
-69.1805
-69.3394
-69.4886
-69.6216
-69.7323
-69.815
-69.8635
-69.8732
-69.8397
-69.7575
-69.6227
-69.4304
-69.1756
-68.8534
-68.4575
-67.9833
-67.4252
-66.7775
-66.036
-65.1955
-64.2517
-63.1998
-62.0367
-60.7597
-59.3679
-57.8587
-56.232
-54.4875
-52.6269
-50.6519
-48.5909
-46.267
-65.3874
-65.4374
-65.5244
-65.6237
-65.7335
-65.8548
-65.9864
-66.1265
-66.2737
-66.4262
-66.5814
-66.7371
-66.8893
-67.0321
-67.1602
-67.2677
-67.3487
-67.3981
-67.4106
-67.3819
-67.3075
-67.1833
-67.0043
-66.7658
-66.4626
-66.0904
-65.6438
-65.1177
-64.5063
-63.804
-63.0067
-62.1108
-61.1117
-60.0054
-58.7895
-57.462
-56.0208
-54.4656
-52.7958