/*--------------------------------*- C++ -*----------------------------------*\
| =========                 |                                                 |
| \\      /  F ield         | OpenFOAM: The Open Source CFD Toolbox           |
|  \\    /   O peration     | Version:  2.3.0                                 |
|   \\  /    A nd           | Web:      www.OpenFOAM.org                      |
|    \\/     M anipulation  |                                                 |
\*---------------------------------------------------------------------------*/
FoamFile
{
    version     2.0;
    format      ascii;
    class       surfaceScalarField;
    location    "3000";
    object      phi;
}
// * * * * * * * * * * * * * * * * * * * * * * * * * * * * * * * * * * * * * //

dimensions      [0 3 -1 0 0 0 0];

internalField   nonuniform List<scalar> 
75882
(
-0.00285364
-0.00794536
0.00872947
0.00206952
-0.00359046
-0.00767877
0.00841559
-0.00427984
-0.0074236
0.00811298
-0.00492549
-0.00717582
0.00782147
-0.00552823
-0.00693584
0.00753857
-0.00608993
-0.00670395
0.00726565
-0.00661149
-0.00648077
0.00700233
-0.00709408
-0.00626292
0.00674551
-0.00753914
-0.00605283
0.0064979
-0.00794913
-0.00584893
0.00625892
-0.00832273
-0.00565312
0.00602672
-0.00866344
-0.00546092
0.00580164
-0.00897255
-0.00527643
0.00558554
-0.00925056
-0.00509703
0.00537504
-0.00949825
-0.00492271
0.00517039
-0.00971838
-0.0047546
0.00497473
-0.00991248
-0.00458947
0.00478356
-0.0100802
-0.0044315
0.00459923
-0.0102229
-0.00427622
0.00441889
-0.0103455
-0.00412444
0.00424708
-0.0104478
-0.0039779
0.00408015
-0.0105313
-0.00383481
0.00391831
-0.0105976
-0.00369431
0.00376066
-0.0106464
-0.00355847
0.00360726
-0.0106804
-0.00342503
0.00345906
-0.0107008
-0.00329353
0.0033139
-0.0107112
-0.00316226
0.00317271
-0.0107043
-0.00303523
0.00302831
-0.0106875
-0.0029069
0.00289007
-0.0106504
-0.00278274
0.00274561
-0.0105993
-0.00265086
0.00259982
-0.0105249
-0.00252374
0.00244933
-0.010429
-0.00239097
0.00229507
-0.0103055
-0.00225433
0.0021309
-0.0101519
-0.00211409
0.00196047
-0.00997012
-0.00196479
0.00178306
-0.0097517
-0.00180976
0.00159137
-0.00949893
-0.0016448
0.00139208
-0.00921473
-0.00146912
0.00118495
-0.00889952
-0.00128129
0.000966109
-0.00855528
-0.00108363
0.000739428
-0.00819012
-0.000879912
0.000514744
-0.000669064
-0.00793044
0.000409434
-0.00260715
-0.00724634
0.00190813
-0.00325984
-0.00702607
-0.00387221
-0.00681124
-0.0044439
-0.00660412
-0.0049756
-0.00640414
-0.00546875
-0.0062108
-0.00592593
-0.0060236
-0.00634594
-0.0058429
-0.00673198
-0.00566679
-0.00708304
-0.00549787
-0.00740342
-0.00533275
-0.00769235
-0.00517199
-0.00795047
-0.00501831
-0.00818119
-0.0048663
-0.00838216
-0.00472173
-0.00855801
-0.00457876
-0.00870728
-0.00444019
-0.00883383
-0.00430495
-0.00893542
-0.00417462
-0.00901477
-0.0040451
-0.00907283
-0.00391984
-0.00911081
-0.00379683
-0.00912789
-0.00367724
-0.00912857
-0.00355779
-0.00911386
-0.00343974
-0.00908164
-0.00332575
-0.009035
-0.0032089
-0.00897616
-0.00309407
-0.00890287
-0.00298018
-0.00882147
-0.00286413
-0.00872581
-0.00274652
-0.00862093
-0.00262861
-0.00850379
-0.0025081
-0.0083734
-0.00238471
-0.00822964
-0.00225784
-0.00806738
-0.00212703
-0.00788292
-0.00199422
-0.00767403
-0.00185367
-0.00742645
-0.00171669
-0.0071355
-0.00157224
-0.00678414
-0.00143498
-0.00636678
-0.00129727
-0.00116864
-0.00586719
-0.00237086
-0.00662266
0.00174718
-0.0029556
-0.00644133
-0.00350074
-0.0062661
-0.00400779
-0.00609707
-0.00447819
-0.00593374
-0.00491318
-0.00577581
-0.00531461
-0.00562217
-0.00568275
-0.00547477
-0.00601885
-0.00533069
-0.00632576
-0.00519096
-0.00660231
-0.00505619
-0.00684839
-0.00492592
-0.00706991
-0.00479679
-0.00726274
-0.00467347
-0.00743134
-0.00455313
-0.00757466
-0.00443544
-0.00769449
-0.00432036
-0.00779184
-0.0042076
-0.0078694
-0.00409706
-0.00792328
-0.00399122
-0.00795846
-0.00388466
-0.0079748
-0.00378049
-0.00797415
-0.00367788
-0.00795599
-0.00357595
-0.00791945
-0.00347628
-0.00786805
-0.00337715
-0.00780077
-0.00327618
-0.00771836
-0.00317648
-0.00762279
-0.00307574
-0.00751309
-0.00297384
-0.00738941
-0.0028702
-0.00725154
-0.00276647
-0.00710144
-0.00265821
-0.00693909
-0.00254706
-0.00676204
-0.00243488
-0.00656959
-0.00231948
-0.00636445
-0.00219936
-0.00613968
-0.00207844
-0.00589844
-0.00195792
-0.00563696
-0.00183372
-0.00535852
-0.00171341
-0.00505575
-0.00160005
-0.00149188
-0.00473251
-0.00215765
-0.00606478
0.00159977
-0.00267787
-0.00592111
-0.00316386
-0.00578011
-0.00361484
-0.00564609
-0.00403253
-0.00551604
-0.00441802
-0.00539032
-0.00477106
-0.00526913
-0.00509651
-0.00514932
-0.00539124
-0.00503595
-0.00565873
-0.00492348
-0.00589823
-0.0048167
-0.00611338
-0.00471077
-0.00630204
-0.00460813
-0.00646704
-0.00450847
-0.00660887
-0.00441129
-0.00672955
-0.00431476
-0.00682783
-0.00422208
-0.00690524
-0.00413019
-0.00696169
-0.00404062
-0.00700154
-0.00395136
-0.00702222
-0.00386399
-0.00702635
-0.00377636
-0.00701241
-0.00369182
-0.00698207
-0.00360629
-0.00693931
-0.00351904
-0.0068802
-0.00343625
-0.00680791
-0.00334847
-0.00672187
-0.00326252
-0.0066223
-0.00317532
-0.00651119
-0.00308495
-0.00638705
-0.00299434
-0.00625243
-0.00290109
-0.00610487
-0.00280577
-0.0059464
-0.00270553
-0.00577488
-0.00260641
-0.00559207
-0.00250229
-0.0053934
-0.00239803
-0.00518385
-0.00228798
-0.00496111
-0.00218066
-0.00472105
-0.00207378
-0.00446688
-0.00196758
-0.00420135
-0.00186557
-0.00177225
-0.00392098
-0.00195717
-0.00556314
0.00145553
-0.00242394
-0.00545435
-0.00285688
-0.00534717
-0.00325995
-0.00524302
-0.00363058
-0.00514541
-0.00397352
-0.00504739
-0.00428769
-0.00495496
-0.00457372
-0.00486329
-0.00483494
-0.00477473
-0.00506963
-0.00468879
-0.00528069
-0.00460564
-0.00546778
-0.00452368
-0.00563233
-0.00444358
-0.00577384
-0.00436695
-0.00589557
-0.00428956
-0.00599586
-0.00421447
-0.0060777
-0.00414024
-0.00614065
-0.00406724
-0.0061855
-0.00399577
-0.00621426
-0.0039226
-0.00622508
-0.00385316
-0.00621954
-0.0037819
-0.00620149
-0.00370987
-0.00616737
-0.00364041
-0.00611877
-0.00356764
-0.0060594
-0.00349562
-0.00598393
-0.00342395
-0.00589827
-0.00334818
-0.00580167
-0.00327192
-0.00569143
-0.00319518
-0.00557092
-0.00311485
-0.00543894
-0.00303307
-0.0052989
-0.0029458
-0.00514428
-0.00286015
-0.0049818
-0.00276888
-0.00480951
-0.00267459
-0.00462805
-0.00257948
-0.00443316
-0.00248288
-0.0042286
-0.00238522
-0.0040162
-0.00228617
-0.00379288
-0.0021909
-0.00355933
-0.00209912
-0.00201285
-0.00331872
-0.00177602
-0.00511466
0.00132754
-0.00219353
-0.00503684
-0.00258237
-0.00495833
-0.00293982
-0.00488557
-0.00327218
-0.00481306
-0.00357724
-0.00474232
-0.0038565
-0.0046757
-0.00411031
-0.00460947
-0.00434155
-0.00454349
-0.00454905
-0.00448129
-0.00473451
-0.00442017
-0.00489962
-0.00435857
-0.00504222
-0.00430099
-0.0051669
-0.00424227
-0.00527263
-0.00418383
-0.00535851
-0.00412859
-0.00542766
-0.0040711
-0.00547865
-0.00401625
-0.00551533
-0.00395909
-0.00553407
-0.00390387
-0.00553958
-0.00384765
-0.0055309
-0.00379058
-0.00550787
-0.0037329
-0.00547252
-0.00367576
-0.00542451
-0.00361566
-0.00536389
-0.00355623
-0.00529255
-0.00349529
-0.00520951
-0.00343122
-0.00511493
-0.0033665
-0.00501223
-0.00329788
-0.00489893
-0.00322814
-0.00477521
-0.0031568
-0.00464139
-0.00307962
-0.00450065
-0.00300089
-0.00435175
-0.00291779
-0.00419138
-0.00283495
-0.00402261
-0.00274826
-0.00384625
-0.00265923
-0.00366214
-0.00256933
-0.00346726
-0.00248105
-0.00326692
-0.00239124
-0.00305871
-0.00230732
-0.00222637
-0.00284519
-0.00160921
-0.00471236
0.00120692
-0.00198544
-0.00466062
-0.00233165
-0.00461211
-0.00265395
-0.00456327
-0.00295078
-0.00451623
-0.00322202
-0.00447109
-0.0034714
-0.00442633
-0.00369834
-0.00438253
-0.0039026
-0.00433923
-0.00408754
-0.00429635
-0.00425237
-0.00425533
-0.00439667
-0.00421427
-0.00452352
-0.00417414
-0.00463262
-0.00413317
-0.00472271
-0.00409374
-0.00479845
-0.00405285
-0.00485662
-0.00401293
-0.00490049
-0.00397238
-0.00492929
-0.00393029
-0.00494482
-0.00388834
-0.00494655
-0.00384592
-0.00493495
-0.00380218
-0.00491021
-0.00375765
-0.00487431
-0.00371166
-0.00482636
-0.00366361
-0.00476887
-0.00361372
-0.00470063
-0.00356354
-0.00462306
-0.00350879
-0.00453648
-0.00345308
-0.00443788
-0.00339649
-0.00433117
-0.00333485
-0.00421793
-0.00327004
-0.0040942
-0.00320335
-0.00396462
-0.00313047
-0.00382344
-0.00305897
-0.00367808
-0.00298032
-0.00352463
-0.0029017
-0.00336406
-0.00281981
-0.00319574
-0.00273766
-0.00302303
-0.00265375
-0.00284148
-0.00257279
-0.00265635
-0.00249245
-0.00241717
-0.00246555
-0.0014605
-0.00434902
0.00109716
-0.00179528
-0.00432584
-0.00210827
-0.00429912
-0.00239567
-0.00427586
-0.00266167
-0.00425023
-0.00290579
-0.00422697
-0.00312862
-0.0042035
-0.00333123
-0.00417993
-0.00351337
-0.00415708
-0.00367636
-0.00413337
-0.00382373
-0.00410796
-0.00395246
-0.00408555
-0.00406363
-0.00406297
-0.0041602
-0.0040366
-0.00424084
-0.0040131
-0.00430608
-0.00398761
-0.0043568
-0.00396222
-0.00439385
-0.00393533
-0.00441748
-0.00390665
-0.00442784
-0.00387799
-0.00442564
-0.00384812
-0.00441353
-0.00381428
-0.00438869
-0.00378249
-0.00435353
-0.00374682
-0.00430877
-0.00370837
-0.00425337
-0.00366912
-0.00419105
-0.00362586
-0.00411811
-0.00358173
-0.00403543
-0.00353576
-0.00394664
-0.00348528
-0.00384821
-0.00343328
-0.00374152
-0.00337674
-0.00362948
-0.00331538
-0.00350817
-0.00325179
-0.00338168
-0.00318545
-0.00324812
-0.00311388
-0.00310824
-0.00304158
-0.00296142
-0.00296662
-0.00281043
-0.00288865
-0.00265346
-0.00281073
-0.00249119
-0.00273506
-0.00232306
-0.00266058
-0.00258712
-0.00215312
-0.00132162
0.000995268
-0.00402267
-0.00162434
-0.00402311
-0.00190483
-0.00401863
-0.00216442
-0.00401628
-0.00240243
-0.00401221
-0.0026214
-0.004008
-0.00282027
-0.00400462
-0.0030017
-0.0039985
-0.00316597
-0.00399281
-0.00331215
-0.00398719
-0.00344174
-0.00397837
-0.00355771
-0.00396958
-0.00365592
-0.00396475
-0.00374087
-0.00395165
-0.00381206
-0.00394191
-0.00386973
-0.00392994
-0.00391536
-0.00391659
-0.0039467
-0.00390399
-0.00396656
-0.00388679
-0.0039741
-0.00387044
-0.00397228
-0.00384994
-0.00395804
-0.00382852
-0.00393542
-0.00380511
-0.00390264
-0.00377961
-0.00385867
-0.00375233
-0.00380786
-0.00371993
-0.00374787
-0.00368585
-0.00367914
-0.00365046
-0.00360483
-0.00361007
-0.00352117
-0.00356894
-0.00343101
-0.00352344
-0.00333459
-0.00347316
-0.00322972
-0.00342025
-0.00312005
-0.00336146
-0.00300475
-0.00330075
-0.00288158
-0.00323705
-0.00275485
-0.00316831
-0.00262179
-0.00309968
-0.00248356
-0.00302688
-0.00234347
-0.00295082
-0.0021944
-0.00288413
-0.00204402
-0.00281096
-0.00188881
-0.00274233
-0.006796
-0.000537553
-0.000596887
-0.00600032
-0.00052855
-0.000267125
-0.00535257
-0.00054574
-0.00010201
-0.00479531
-0.00057386
1.66127e-05
-0.00430435
-0.000608589
0.000117632
-0.00386404
-0.000647359
0.000207054
-0.00346167
-0.000693301
0.000290923
-0.00309004
-0.000742315
0.000370695
-0.002747
-0.000791763
0.000448721
-0.00242355
-0.00084693
0.000523479
-0.00212103
-0.000901603
0.000599086
-0.0018365
-0.000958183
0.00067365
-0.00156745
-0.00101813
0.000749083
-0.00131377
-0.00107879
0.000825109
-0.00107475
-0.00114168
0.000902664
-0.00084922
-0.00120536
0.000979828
-0.000639183
-0.0012707
0.00106066
-0.000441145
-0.00133956
0.00114153
-0.000257629
-0.00140854
0.00122503
-8.69332e-05
-0.00148124
0.00131054
6.98564e-05
-0.00155603
0.00139924
0.00021188
-0.00163247
0.00149045
0.000340234
-0.00171198
0.00158363
0.000452565
-0.00179432
0.00168199
0.00055122
-0.00188016
0.00178151
0.000632966
-0.00196829
0.00188655
0.000699325
-0.002061
0.00199464
0.000747666
-0.0021557
0.00210736
0.000779969
-0.00225596
0.00222365
0.000792255
-0.00235795
0.00234566
0.000786354
-0.00246644
0.00247234
0.000760095
-0.00257709
0.00260335
0.000713256
-0.00269388
0.00274072
0.000643658
-0.00281388
0.00288348
0.000551584
-0.00293976
0.00303183
0.000435228
-0.00307039
0.00318675
0.000293806
-0.00320669
0.00334811
0.000125835
-0.00334746
0.00351543
-6.96506e-05
-0.00349453
0.00369001
-0.000293753
-0.00364771
0.00387182
-0.000548508
-0.00380644
0.00406119
-0.000834031
-0.00397318
0.0042587
-0.0041455
0.00446472
-0.00115325
-0.00532608
-0.00107867
-0.00482299
-0.00103163
-0.00436402
-0.00100471
-0.00394235
-0.000995528
-0.00355391
-0.000997026
-0.00319155
-0.00100972
-0.00285599
-0.00102886
-0.0025427
-0.0010556
-0.00224717
-0.00108728
-0.00197104
-0.00112306
-0.00171031
-0.00116233
-0.00146386
-0.00120463
-0.00123154
-0.00125046
-0.00101287
-0.00129746
-0.000807882
-0.00134666
-0.000613604
-0.00139964
-0.000431571
-0.00145273
-0.000262462
-0.00150867
-0.000103672
-0.00156733
4.20892e-05
-0.001627
0.000174881
-0.00168882
0.000295859
-0.00175345
0.000404909
-0.00182103
0.000499962
-0.00188937
0.000581418
-0.00196162
0.000648795
-0.00203567
0.000700916
-0.00211312
0.000738548
-0.00219333
0.000759085
-0.00227649
0.000764494
-0.00236336
0.000750806
-0.00245275
0.000720526
-0.00254681
0.000670305
-0.00264366
0.000600604
-0.00274418
0.000509909
-0.00284906
0.00039786
-0.00295834
0.000262412
-0.00307124
0.000103821
-0.00318887
-7.96345e-05
-0.00331107
-0.000288988
-0.00343836
-0.000524922
-0.00357051
-0.000790103
-0.00370799
-0.00385186
-0.00108374
-0.00439237
-0.0014188
-0.00404839
-0.00137561
-0.00371055
-0.00134255
-0.0033841
-0.00132198
-0.00306959
-0.00131153
-0.00276823
-0.00131108
-0.00248162
-0.00131547
-0.0022084
-0.00132883
-0.00194925
-0.00134644
-0.00170353
-0.00136878
-0.00146975
-0.00139612
-0.00124867
-0.00142571
-0.00103876
-0.00146037
-0.000840673
-0.00149554
-0.000653294
-0.00153404
-0.000478218
-0.00157471
-0.000313675
-0.00161727
-0.00016053
-0.00166182
-1.87577e-05
-0.00170911
0.000112278
-0.00175803
0.000231592
-0.00180814
0.00033904
-0.0018609
0.000433589
-0.00191558
0.000516485
-0.00197227
0.00058662
-0.00203175
0.000643605
-0.00209266
0.000687002
-0.00215652
0.00071634
-0.00222267
0.000730406
-0.00229056
0.000729354
-0.00236231
0.000713215
-0.00243662
0.000679414
-0.00251301
0.00062914
-0.00259339
0.000560485
-0.00267552
0.000473305
-0.00276188
0.000365581
-0.00285062
0.000238144
-0.0029438
8.92304e-05
-0.00303995
-8.23703e-05
-0.00313947
-0.000277351
-0.00324338
-0.000496541
-0.00335132
-0.000740641
-0.00346389
-0.00358044
-0.00101207
-0.00363684
-0.00170294
-0.00335378
-0.00165867
-0.00307482
-0.00162151
-0.00280384
-0.00159296
-0.00254097
-0.00157441
-0.00228845
-0.00156359
-0.00204544
-0.00155849
-0.00181327
-0.00156099
-0.00159086
-0.00156884
-0.00137811
-0.00158152
-0.00117706
-0.00159717
-0.000984424
-0.00161835
-0.000803189
-0.00164161
-0.000630079
-0.00166865
-0.000468247
-0.00169588
-0.000315588
-0.00172737
-0.000172173
-0.00176069
-3.88453e-05
-0.00179515
8.40244e-05
-0.00183198
0.000195819
-0.00186983
0.000298666
-0.00191098
0.000389948
-0.00195218
0.000471022
-0.00199666
0.000540808
-0.00204205
0.00059901
-0.00208996
0.000645256
-0.0021389
0.000679166
-0.00219043
0.000700289
-0.00224379
0.000708142
-0.00229841
0.000702202
-0.00235637
0.000681919
-0.00241633
0.00064609
-0.00247718
0.000594844
-0.00254214
0.000527462
-0.00260814
0.000443019
-0.00267744
0.000341215
-0.00274881
0.00021997
-0.00282256
7.9559e-05
-0.00289954
-8.0578e-05
-0.00297933
-0.000261941
-0.00306202
-0.000465464
-0.00314779
-0.000691289
-0.00323807
-0.00333048
-0.000941244
-0.00307414
-0.00194752
-0.00283435
-0.00189846
-0.00259814
-0.00185772
-0.00236664
-0.00182446
-0.00214097
-0.00180007
-0.00192332
-0.00178124
-0.00171296
-0.00176885
-0.00151128
-0.00176267
-0.00131721
-0.00176292
-0.00113113
-0.0017676
-0.000953954
-0.00177435
-0.000784737
-0.00178756
-0.000624458
-0.00180189
-0.000474418
-0.00181869
-0.000330326
-0.00183997
-0.00019624
-0.00186146
-7.12204e-05
-0.00188571
4.62029e-05
-0.00191257
0.000153524
-0.0019393
0.000252182
-0.00196849
0.000341202
-0.002
0.000421164
-0.00203214
0.000490277
-0.00206577
0.000549854
-0.00210163
0.000598811
-0.00213891
0.000636842
-0.00217693
0.000663543
-0.00221713
0.000678529
-0.00225878
0.000682
-0.00230188
0.000672129
-0.0023465
0.000649352
-0.00239356
0.000613481
-0.00244131
0.000562808
-0.00249147
0.00049734
-0.00254267
0.000416199
-0.0025963
0.000318871
-0.00265148
0.00020488
-0.00270857
7.37048e-05
-0.00276837
-7.6008e-05
-0.00282962
-0.000244576
-0.00289345
-0.000432529
-0.00295984
-0.000641887
-0.00302871
-0.00310013
-0.000872242
-0.00263203
-0.00216068
-0.0024216
-0.00210889
-0.00221317
-0.00206615
-0.00201033
-0.0020273
-0.00181399
-0.00199642
-0.00162316
-0.00197206
-0.0014384
-0.00195362
-0.0012601
-0.00194096
-0.00108953
-0.00193349
-0.000926525
-0.00193061
-0.000769335
-0.00193154
-0.000621161
-0.00193574
-0.000479109
-0.00194394
-0.000344955
-0.00195284
-0.000219008
-0.00196591
-0.000100404
-0.00198006
9.95586e-06
-0.00199607
0.000111942
-0.00201456
0.000207152
-0.00203451
0.000292883
-0.00205422
0.000370635
-0.00207776
0.000439422
-0.00210093
0.000499815
-0.00212616
0.000549997
-0.00215181
0.000591237
-0.00218015
0.000622456
-0.00220815
0.000643997
-0.00223867
0.000654038
-0.00226882
0.000653649
-0.0023015
0.00064167
-0.00233452
0.000616935
-0.00236882
0.000580648
-0.00240503
0.000530734
-0.00244155
0.000468097
-0.00248004
0.000391176
-0.00251938
0.000299811
-0.00256012
0.000192866
-0.00260162
7.01487e-05
-0.00264565
-6.90937e-05
-0.00269038
-0.000225623
-0.00273692
-0.000399899
-0.00278556
-0.000592686
-0.00283592
-0.00288775
-0.00080506
-0.00227579
-0.00235044
-0.00208599
-0.00229869
-0.00190382
-0.00224831
-0.00172287
-0.00220825
-0.00154886
-0.00217043
-0.00137893
-0.00214199
-0.00121659
-0.00211595
-0.00105871
-0.00209884
-0.000907481
-0.00208472
-0.000761873
-0.00207621
-0.000623558
-0.00206985
-0.00049129
-0.002068
-0.000366353
-0.00206887
-0.00024686
-0.00207234
-0.0001347
-0.00207807
-2.99055e-05
-0.00208486
6.81473e-05
-0.00209412
0.000158517
-0.00210493
0.000241185
-0.00211718
0.000317626
-0.00213066
0.000385252
-0.00214538
0.000445492
-0.00216117
0.000497347
-0.00217802
0.000542024
-0.00219649
0.000576305
-0.00221443
0.000602842
-0.00223469
0.000619035
-0.00225486
0.000625915
-0.0022757
0.000622575
-0.00229816
0.000608747
-0.00232069
0.00058406
-0.00234413
0.000547927
-0.00236889
0.000500665
-0.00239429
0.000441027
-0.0024204
0.000367723
-0.00244608
0.000281262
-0.00247366
0.000181734
-0.0025021
6.72554e-05
-0.00253117
-6.2073e-05
-0.00256105
-0.000206814
-0.00259218
-0.000368174
-0.0026242
-0.000546165
-0.00265793
-0.00269251
-0.000741406
-0.00198015
-0.00252341
-0.00181313
-0.0024657
-0.0016479
-0.00241355
-0.00148888
-0.00236728
-0.00133244
-0.00232687
-0.00118204
-0.00229239
-0.00103549
-0.0022625
-0.000895986
-0.00223835
-0.000760272
-0.00222043
-0.000630497
-0.00220599
-0.000506183
-0.00219416
-0.000387794
-0.00218639
-0.000275959
-0.00218071
-0.000170732
-0.00217756
-7.21423e-05
-0.00217666
2.23349e-05
-0.00217933
0.000108905
-0.00218069
0.000189364
-0.00218538
0.000262796
-0.00219061
0.000329896
-0.00219776
0.000389718
-0.0022052
0.000442836
-0.00221428
0.000488977
-0.00222416
0.000525535
-0.00223305
0.000556271
-0.00224517
0.000577723
-0.00225614
0.000590128
-0.00226727
0.000594903
-0.00228048
0.000589458
-0.00229271
0.000574609
-0.00230584
0.000550349
-0.00231988
0.000515822
-0.00233436
0.000470109
-0.00234858
0.000413081
-0.00236337
0.00034419
-0.00237718
0.000264026
-0.00239349
0.000170955
-0.00240903
6.44093e-05
-0.00242462
-5.55301e-05
-0.00244111
-0.000189476
-0.00245823
-0.000337495
-0.00247618
-0.000501584
-0.00249384
-0.0025126
-0.000681494
-0.0017364
-0.00267582
-0.00158656
-0.00261555
-0.00143895
-0.00256116
-0.00129531
-0.00251091
-0.00115364
-0.00246854
-0.00101908
-0.00242694
-0.00088938
-0.0023922
-0.000763196
-0.00236453
-0.000643889
-0.00233974
-0.000526246
-0.00232363
-0.000415355
-0.00230506
-0.00031013
-0.00229162
-0.000209798
-0.00228104
-0.00011514
-0.00227222
-2.49761e-05
-0.00226683
5.74309e-05
-0.00226174
0.000135129
-0.00225839
0.000207278
-0.00225753
0.000273029
-0.00225636
0.000332281
-0.00225701
0.000386684
-0.00225961
0.000433237
-0.00226084
0.000473206
-0.00226413
0.000506466
-0.00226631
0.000531776
-0.00227048
0.000549889
-0.00227425
0.000559791
-0.00227717
0.000561797
-0.00228248
0.000555389
-0.0022863
0.000540732
-0.00229118
0.000517585
-0.00229673
0.000483751
-0.00230053
0.000440654
-0.00230548
0.000386478
-0.00230919
0.000321899
-0.00231261
0.000247208
-0.0023188
0.000160646
-0.00232246
6.22483e-05
-0.00232623
-4.87488e-05
-0.00233011
-0.000172301
-0.00233468
-0.000308888
-0.0023396
-0.000459452
-0.00234328
-0.000624219
-0.00234784
-0.00025696
0.00366843
-0.00401964
0.000608168
5.2523e-05
0.0034508
-0.00376029
0.000324603
0.00324488
-0.00351696
0.000561905
0.00305074
-0.00328805
0.000767094
0.00286754
-0.00307272
0.000942927
0.00269539
-0.00287123
0.00109201
0.00253307
-0.00268215
0.0012163
0.00238015
-0.00250444
0.00131825
0.00223594
-0.00233789
0.00140006
0.00210008
-0.00218189
0.00146326
0.00197239
-0.00203559
0.00151012
0.00185179
-0.00189864
0.00154139
0.00173886
-0.00177014
0.0015597
0.00163184
-0.00165015
0.00156529
0.00153171
-0.0015373
0.00156049
0.00143684
-0.00143204
0.00154634
0.00134745
-0.0013333
0.00152345
0.00126395
-0.00124107
0.00149326
0.00118475
-0.00115456
0.00145657
0.00111047
-0.00107378
0.0014146
0.00103998
-0.000998013
0.00136773
0.000974158
-0.000927287
0.00131716
0.000911595
-0.000861029
0.00126321
0.000852668
-0.000798715
0.00120672
0.000797409
-0.000740923
0.00114825
0.00074481
-0.000686337
0.00108839
0.000695357
-0.000635491
0.00102788
0.000648185
-0.000587682
0.000966747
0.000603871
-0.000542735
0.000905816
0.0005617
-0.00050077
0.000845475
0.000521666
-0.000461325
0.000786194
0.000483538
-0.000424256
0.000728502
0.000447069
-0.000389376
0.000672777
0.000412358
-0.000356634
0.000619135
0.000379312
-0.000325669
0.000567889
0.000347788
-0.000296542
0.000519504
0.000317582
-0.000269198
0.000472378
0.000289904
-0.000242777
0.000424786
0.000266248
-0.000218655
0.000367864
0.000252668
-0.000195745
0.000279584
0.000267084
-0.000178804
9.81408e-05
0.000361494
-0.00018005
0.000687024
-0.000360053
-0.000228831
-0.000228879
0.00335527
0.000542041
4.98458e-05
0.00317208
0.000295589
0.00299913
0.000511239
0.00283509
0.000698306
0.00268047
0.000859748
0.00253395
0.000997512
0.0023953
0.00111316
0.0022645
0.00120914
0.00213996
0.00128624
0.00202298
0.00134692
0.00191172
0.00139227
0.00180643
0.00142409
0.00170705
0.00144296
0.00161297
0.00145119
0.00152348
0.00144887
0.00143916
0.00143738
0.00135894
0.0014182
0.00128313
0.0013918
0.00121116
0.00135956
0.0011427
0.00132131
0.00107823
0.00127898
0.00101649
0.00123225
0.000958329
0.0011825
0.000902411
0.0011301
0.000849809
0.00107568
0.000799234
0.00101985
0.000751188
0.000962847
0.000705186
0.00090527
0.000661449
0.00084776
0.00061921
0.000790841
0.000578585
0.000734269
0.00054011
0.000679059
0.000502279
0.000624978
0.00046644
0.000572307
0.000431983
0.000520997
0.000399098
0.000469846
0.000368733
0.000415892
0.000343859
0.000353099
0.00032904
0.000267051
0.000338716
0.000130179
0.000403955
-0.000103577
0.00059525
0.00103747
-0.00045402
-0.000204909
0.00307315
0.000487024
4.59792e-05
0.00292119
0.000268037
0.00277707
0.000462814
0.00264032
0.000633201
0.00251008
0.000780269
0.00238688
0.000906118
0.00226946
0.00101277
0.00215784
0.00110072
0.00205202
0.00117261
0.00195109
0.00122936
0.00185497
0.00127212
0.00176367
0.00130236
0.00167681
0.00132104
0.00159429
0.00132946
0.00151506
0.00132868
0.00143994
0.00131939
0.00136823
0.0013028
0.00129973
0.00127942
0.00123453
0.00125003
0.0011721
0.00121597
0.00111229
0.0011771
0.00105536
0.00113488
0.00100055
0.00108923
0.000948059
0.00104122
0.000897821
0.000990929
0.000849527
0.000939277
0.000802839
0.000886462
0.000758001
0.000833071
0.00071484
0.000779433
0.000672848
0.000725935
0.000632082
0.000672902
0.000593143
0.000620453
0.000554729
0.000568668
0.000518225
0.000517431
0.000483221
0.000465563
0.000450966
0.000411463
0.000422833
0.00035097
0.000404352
0.000275908
0.000404103
0.000171247
0.000443378
1.53982e-05
0.000559804
-0.000218686
0.000829335
0.00133144
-0.000512663
-0.000184655
0.00281907
0.000438743
4.15987e-05
0.00269494
0.00024201
0.00257666
0.000418882
0.00246345
0.000573431
0.00235553
0.00070763
0.00225269
0.000822599
0.00215449
0.000920086
0.00206036
0.00100139
0.00197072
0.00106793
0.00188455
0.0011207
0.00180219
0.00116101
0.00172336
0.00118972
0.0016481
0.00120855
0.00157547
0.0012171
0.00150651
0.00121733
0.00143971
0.00120975
0.00137581
0.0011951
0.00131438
0.00117427
0.00125536
0.00114822
0.00119815
0.00111702
0.00114349
0.00108183
0.00109055
0.00104295
0.00103943
0.0010009
0.000990107
0.000956724
0.000942001
0.000910385
0.000895866
0.000862574
0.00085065
0.000813468
0.000807108
0.000763855
0.000764453
0.000713928
0.000722775
0.000663648
0.000682363
0.000613884
0.000642907
0.000563857
0.000604755
0.000514279
0.000567802
0.000464435
0.000533065
0.000412881
0.00050252
0.000357152
0.000478562
0.000293143
0.000468361
0.000211937
0.000485309
0.000102326
0.000552989
-5.35483e-05
0.000715678
-0.000272679
0.00104847
0.00159295
-0.000534185
-0.000166171
0.00259157
0.000393672
3.74806e-05
0.00249129
0.000218803
0.00239534
0.00037889
0.00230336
0.000519253
0.00221517
0.000641561
0.00213038
0.000746659
0.00204939
0.000836419
0.0019706
0.000911232
0.0018959
0.000972868
0.00182291
0.00102185
0.00175322
0.00105956
0.00168565
0.00108677
0.00162089
0.00110446
0.00155778
0.00111341
0.00149756
0.00111437
0.00143875
0.00110783
0.00138234
0.00109508
0.00132713
0.00107673
0.00127371
0.00105264
0.00122223
0.0010244
0.00117173
0.000992281
0.00112267
0.000956623
0.00107509
0.000918428
0.0010283
0.000877344
0.000983085
0.000834727
0.000938483
0.000790294
0.000895084
0.000744983
0.000852418
0.000698958
0.000810478
0.000652399
0.000769334
0.000605612
0.000729151
0.00055884
0.000689679
0.000511814
0.000651782
0.000464515
0.000615102
0.000416004
0.000581576
0.000365406
0.000553118
0.000310314
0.000533654
0.000245383
0.000533292
0.000163767
0.000566924
5.50474e-05
0.000661709
-9.50706e-05
0.000865796
-0.000296626
0.00125002
0.00183077
-0.000534443
-0.00015094
0.00238587
0.000356637
3.33867e-05
0.00230696
0.000197505
0.00223122
0.000342853
0.00215801
0.000470741
0.00208728
0.000581876
0.00201924
0.000678096
0.00195317
0.000759723
0.00188897
0.000828836
0.00182679
0.000885292
0.00176645
0.000930934
0.00170757
0.000965805
0.00165078
0.000991804
0.00159489
0.00100846
0.00154112
0.00101737
0.00148865
0.00101857
0.00143756
0.00101347
0.00138744
0.0010019
0.0013387
0.000985176
0.00129043
0.000964053
0.00124336
0.000938249
0.00119753
0.000908769
0.00115215
0.000876064
0.00110779
0.000840487
0.00106388
0.0008031
0.00102047
0.000763331
0.000978251
0.000722573
0.000935842
0.000680806
0.000894186
0.000638247
0.000853037
0.000595247
0.000812333
0.000552019
0.000772379
0.000508155
0.000733543
0.000464487
0.00069545
0.0004194
0.00066019
0.000372956
0.00062802
0.000324282
0.000601792
0.000269683
0.000588253
0.000206087
0.000596888
0.000126764
0.000646248
2.14188e-05
0.000767054
-0.000119079
0.00100629
-0.000304788
0.00143573
0.00204921
-0.000523232
-0.000136703
0.00220037
0.0003222
2.94104e-05
0.00214084
0.000178132
0.0020825
0.000310165
0.00202598
0.000426169
0.00197128
0.000527691
0.00191772
0.000615789
0.00186507
0.000690799
0.00181396
0.000753853
0.00176374
0.000805817
0.00171449
0.000847454
0.00166594
0.000880158
0.00161808
0.000904073
0.00157097
0.000920083
0.00152511
0.000928777
0.00147996
0.000930607
0.00143573
0.000926178
0.00139187
0.000916302
0.00134858
0.000901141
0.00130559
0.000881481
0.00126302
0.000858176
0.00122084
0.000831212
0.00117911
0.000801251
0.00113776
0.000768783
0.00109635
0.000734208
0.00105505
0.000697932
0.00101453
0.000659992
0.000973782
0.000621118
0.00093306
0.000581904
0.000892251
0.000542217
0.00085202
0.000502407
0.00081219
0.000462432
0.000773518
0.000421741
0.000736141
0.000379993
0.000701938
0.00033634
0.000671672
0.000289317
0.000648815
0.000237379
0.000640192
0.000176928
0.000657339
0.000101041
0.000722136
1.0001e-06
0.000867095
-0.0001325
0.00113979
-0.000304811
0.00160804
0.00225046
-0.00050606
-0.000123872
0.00203381
0.000290437
2.65353e-05
0.00199044
0.000160568
0.00194847
0.000280345
0.0019062
0.000386089
0.00186553
0.00047879
0.00182502
0.000558768
0.00178509
0.000627326
0.0017454
0.000685417
0.00170564
0.000733005
0.0016669
0.000771788
0.00162715
0.000801398
0.00158847
0.000823412
0.00154896
0.000838715
0.00150981
0.000847119
0.00147156
0.000849322
0.00143352
0.00084547
0.00139572
0.000836212
0.00135784
0.000822151
0.00131966
0.000804914
0.00128025
0.000783914
0.00124184
0.000759333
0.00120369
0.000731378
0.00116571
0.000701701
0.00112602
0.000669975
0.00108677
0.000636581
0.00104792
0.000601927
0.00100844
0.00056578
0.000969206
0.000529637
0.000928394
0.00049326
0.000888397
0.00045659
0.000848859
0.000419905
0.000810203
0.000382397
0.000773649
0.000344101
0.000740233
0.000302732
0.000713042
0.00025831
0.000693238
0.000208596
0.000689905
0.0001515
0.000714435
8.11118e-05
0.000792524
-1.26574e-05
0.000960864
-0.000138793
0.00126593
-0.000298133
0.00176738
0.00243243
-0.000480101
-0.000112461
0.000263148
0.00188312
2.31823e-05
0.00185479
0.000145314
0.00182633
0.000254026
0.00179749
0.000350359
0.0017692
0.00043414
0.00174124
0.00050768
0.00171155
0.000569576
0.00168351
0.000623316
0.0016519
0.000667055
0.00162316
0.000702996
0.00159121
0.000730088
0.00156137
0.000751068
0.00152798
0.000765438
0.00149544
0.000773826
0.00146317
0.000776677
0.00143067
0.000774069
0.00139833
0.000765891
0.00136601
0.000752645
0.0013329
0.000736165
0.00129673
0.000716869
0.00126113
0.000694924
0.00122564
0.000669082
0.00119155
0.000641616
0.00115349
0.000612636
0.00111575
0.00058204
0.00107852
0.000549763
0.00104071
0.000516395
0.00100257
0.000482199
0.000962591
0.000448818
0.000921778
0.000415729
0.000881949
0.000382138
0.000843794
0.000348851
0.000806936
0.00031435
0.000774734
0.000275623
0.00075177
0.00023412
0.00073474
0.000186436
0.000737589
0.000132614
0.000768257
7.09101e-05
0.000854228
-1.92351e-05
0.00105101
-0.000142245
0.00138894
-0.000297228
0.00192237
-0.00046339
0.00259859