/*--------------------------------*- C++ -*----------------------------------*\
| =========                 |                                                 |
| \\      /  F ield         | OpenFOAM: The Open Source CFD Toolbox           |
|  \\    /   O peration     | Version:  2.3.0                                 |
|   \\  /    A nd           | Web:      www.OpenFOAM.org                      |
|    \\/     M anipulation  |                                                 |
\*---------------------------------------------------------------------------*/
FoamFile
{
    version     2.0;
    format      ascii;
    class       volScalarField;
    location    "2000";
    object      nut;
}
// * * * * * * * * * * * * * * * * * * * * * * * * * * * * * * * * * * * * * //

dimensions      [0 2 -1 0 0 0 0];

internalField   nonuniform List<scalar> 
14036
(
0.0535696
0.0504395
0.0473875
0.0444406
0.0416132
0.0389193
0.0363771
0.0340037
0.0318111
0.0298176
0.0280432
0.0264844
0.0250338
0.0236066
0.0222094
0.0208541
0.0195446
0.0182783
0.0170491
0.0158447
0.0146456
0.0134247
0.0121795
0.0111405
0.0573599
0.0547459
0.0522175
0.0497825
0.0474448
0.0452077
0.0430757
0.0410516
0.0391384
0.0373406
0.0356624
0.0341083
0.0326782
0.0313719
0.0301934
0.0291502
0.0282489
0.0274969
0.0269014
0.026466
0.0261944
0.0260871
0.0261434
0.0263615
0.0607582
0.0585698
0.0564641
0.0544418
0.0525039
0.0506531
0.0488913
0.0472211
0.0456444
0.0441648
0.0427849
0.0415078
0.0403382
0.0392789
0.0383351
0.0375115
0.0368133
0.0362442
0.0358096
0.0355112
0.0353495
0.035323
0.0354276
0.0356562
0.0637902
0.0619562
0.060194
0.0585018
0.0568812
0.0553327
0.0538584
0.0524601
0.0511401
0.0499006
0.0487444
0.0476746
0.0466945
0.0458087
0.0450208
0.0443354
0.043757
0.0432897
0.0429359
0.0426994
0.04258
0.0425773
0.0426891
0.04291
0.0664825
0.0649423
0.0634578
0.0620301
0.0606601
0.0593488
0.0580978
0.0569086
0.055783
0.0547224
0.0537307
0.0528107
0.0519661
0.0512004
0.0505187
0.049925
0.0494233
0.0490187
0.0487142
0.0485125
0.0484156
0.0484237
0.0485355
0.048748
0.0688751
0.0675705
0.0663096
0.0650925
0.0639205
0.062795
0.0617177
0.0606899
0.0597131
0.0587894
0.0579216
0.0571135
0.0563687
0.0556913
0.0550859
0.0545572
0.0541093
0.0537468
0.0534741
0.0532944
0.0532095
0.0532216
0.0533303
0.0535336
0.0709913
0.0698818
0.0688019
0.0677535
0.0667383
0.0657589
0.0648171
0.0639151
0.0630543
0.0622365
0.0614645
0.0607418
0.0600724
0.0594609
0.0589124
0.0584316
0.0580232
0.0576919
0.0574421
0.0572771
0.0572002
0.0572134
0.0573178
0.0575127
0.0728692
0.0719161
0.0709835
0.0700711
0.0691807
0.0683171
0.0674822
0.0666788
0.065909
0.0651748
0.0644783
0.0638229
0.063212
0.0626509
0.0621456
0.0617015
0.0613227
0.0610152
0.0607829
0.0606294
0.0605578
0.0605709
0.0606704
0.0608577
0.0745324
0.073708
0.0728955
0.0720948
0.0713048
0.0705339
0.0697834
0.0690574
0.0683595
0.067692
0.0670569
0.066456
0.0658927
0.0653703
0.0648981
0.0644832
0.0641269
0.0638383
0.0636204
0.0634764
0.0634097
0.0634222
0.0635156
0.0636965
0.0760123
0.0752864
0.0745642
0.0738594
0.0731523
0.0724596
0.0717729
0.0711053
0.0704625
0.0698466
0.0692611
0.068709
0.0681866
0.0676938
0.0672441
0.0668596
0.0665194
0.0662506
0.0660459
0.0659108
0.0658505
0.0658659
0.0659485
0.0661262
0.0121249
0.0143905
0.0158746
0.0172996
0.0188455
0.0205594
0.0224409
0.0244762
0.0266492
0.0289471
0.0313579
0.0338727
0.0364839
0.0391854
0.0419711
0.044835
0.0477709
0.0507726
0.0538327
0.056944
0.0600989
0.0632888
0.0665055
0.0697559
0.0267232
0.0272426
0.0279446
0.0288329
0.0299054
0.0311553
0.0325719
0.0341436
0.0358575
0.0377006
0.03966
0.0417251
0.043886
0.0461342
0.0484614
0.0508605
0.0533252
0.0558496
0.0584283
0.0610551
0.0637245
0.0664311
0.0691693
0.0719466
0.0359972
0.0364618
0.0370683
0.0378193
0.0387144
0.0397497
0.0409193
0.0422164
0.0436323
0.0451577
0.0467838
0.0485019
0.0503049
0.0521849
0.0541354
0.0561503
0.0582241
0.0603518
0.0625287
0.0647504
0.0670127
0.0693117
0.0716446
0.0740141
0.0432339
0.0436666
0.0442191
0.0448924
0.0456854
0.0465943
0.0476144
0.04874
0.0499639
0.0512789
0.0526776
0.0541526
0.0556981
0.0573075
0.0589752
0.0606963
0.0624661
0.064281
0.066137
0.0680308
0.0699596
0.0719203
0.0739099
0.0759358
0.049057
0.0494663
0.0499821
0.0506035
0.0513285
0.0521534
0.0530728
0.0540812
0.0551719
0.0563384
0.0575743
0.0588729
0.0602283
0.0616353
0.0630888
0.0645845
0.0661181
0.067687
0.0692885
0.0709196
0.072578
0.0742608
0.0759653
0.077697
0.0538291
0.054219
0.0547066
0.0552895
0.055965
0.0567289
0.0575754
0.0584986
0.0594921
0.0605495
0.0616644
0.062831
0.0640435
0.0652968
0.0665862
0.0679074
0.0692568
0.0706318
0.0720306
0.0734509
0.0748906
0.0763479
0.0778207
0.0793101
0.0577963
0.0581698
0.0586344
0.0591872
0.0598248
0.060542
0.061333
0.0621911
0.0631103
0.064084
0.065106
0.0661708
0.0672729
0.068407
0.0695685
0.0707524
0.0719557
0.0731767
0.0744136
0.0756643
0.0769269
0.0782001
0.0794825
0.0807721
0.0611307
0.0614893
0.0619346
0.0624631
0.0630706
0.0637511
0.0644979
0.0653046
0.0661651
0.067073
0.0680218
0.0690063
0.0700215
0.0710622
0.0721228
0.0731968
0.0742821
0.0753791
0.076486
0.0776001
0.0787179
0.0798403
0.0809654
0.0820937
0.0639616
0.0643039
0.0647343
0.0652411
0.0658247
0.0664764
0.0671862
0.0679513
0.0687645
0.06962
0.0705086
0.0714281
0.0723747
0.0733417
0.0743232
0.0753052
0.0762935
0.07729
0.0782923
0.0792969
0.080293
0.0812916
0.0822861
0.0832828
0.066394
0.0667097
0.067129
0.0676125
0.0681807
0.0688115
0.0694859
0.0702182
0.0709928
0.0718059
0.0726392
0.0735071
0.074401
0.0753089
0.0762286
0.077125
0.0780344
0.0789529
0.0798751
0.080797
0.0816774
0.0825755
0.0834607
0.0843604
0.0721356
0.066326
0.0610143
0.0561282
0.0516044
0.0473909
0.0434448
0.0397313
0.036225
0.0329077
0.0297683
0.0268014
0.0240045
0.0213758
0.0189126
0.0166118
0.0144743
0.0125108
0.0107575
0.00930693
0.00808595
0.00685163
0.00550233
0.00392041
0.0738728
0.0688178
0.0641872
0.0599271
0.0559848
0.0523156
0.0488804
0.0456463
0.0425845
0.0396715
0.036895
0.0342545
0.031762
0.0294326
0.027267
0.0252352
0.0232848
0.0213625
0.0194265
0.0174512
0.0154119
0.0132631
0.0109453
0.00838458
0.0757781
0.0714073
0.0674071
0.063738
0.060358
0.0572293
0.054319
0.0515992
0.0490387
0.0465997
0.0442476
0.0419588
0.0397166
0.0375086
0.0353211
0.0331394
0.0309405
0.0286981
0.0263819
0.0239566
0.0213866
0.0186318
0.015652
0.0124054
0.0778085
0.0740411
0.0706143
0.0674862
0.0646255
0.062
0.0595547
0.0572231
0.0549596
0.0527359
0.0505321
0.0483323
0.0461241
0.0438931
0.0416262
0.0393075
0.0369167
0.0344325
0.0318256
0.0290656
0.0261145
0.0229362
0.0194907
0.0157427
0.0798991
0.0766792
0.0737608
0.0711136
0.0686975
0.0664322
0.0642509
0.0621122
0.0599897
0.0578634
0.0557183
0.0535422
0.0513221
0.0490452
0.0466975
0.0442615
0.0417185
0.0390441
0.0362116
0.033188
0.0299393
0.0264268
0.0226122
0.0184572
0.0820247
0.0792842
0.0768102
0.0745539
0.0724285
0.0703693
0.0683376
0.0663093
0.0642657
0.0621915
0.060073
0.0578983
0.055654
0.0533279
0.0509041
0.0483659
0.0456925
0.0428592
0.0398377
0.0365958
0.0330973
0.0293041
0.0251744
0.0206695
0.0841586
0.0818285
0.0797091
0.077708
0.075763
0.0738365
0.0719042
0.0699489
0.0679574
0.0659157
0.0638104
0.0616276
0.0593548
0.0569783
0.0544832
0.0518512
0.0490609
0.0460873
0.0429006
0.0394677
0.0357518
0.0317117
0.0273053
0.0224908
0.0862628
0.0842675
0.0823884
0.0805563
0.0787381
0.0769097
0.0750531
0.0731536
0.0712003
0.0691824
0.0670834
0.0648876
0.0625825
0.0601559
0.0575927
0.0548725
0.0519743
0.0488723
0.0455363
0.0419314
0.0380185
0.033756
0.0291005
0.0240069
0.0883
0.0865512
0.0848403
0.0831318
0.0814115
0.0796622
0.0778696
0.0760183
0.0740954
0.0720954
0.0700014
0.067789
0.0654481
0.0629706
0.0603422
0.0575383
0.0545384
0.0513178
0.0478452
0.0440819
0.0399868
0.0355202
0.0306393
0.0252941
0.0902576
0.0886755
0.0870883
0.085471
0.0838304
0.0821464
0.0804082
0.078605
0.0767091
0.0747203
0.0726398
0.0704086
0.0680274
0.0654959
0.0628092
0.0599261
0.0568301
0.0534986
0.0499018
0.0459906
0.0417246
0.0370669
0.031985
0.0264204
0.00209247
0.000959265
0.00108853
0.00138573
0.00166505
0.00194482
0.00224234
0.00258275
0.00300239
0.00354505
0.00420155
0.00495855
0.00581556
0.00677679
0.00784869
0.00903939
0.0103565
0.0118086
0.013405
0.0151555
0.0170703
0.0191585
0.0214292
0.023899
0.00548854
0.00267108
0.00152017
0.00167779
0.00197774
0.00230168
0.00267049
0.00310935
0.00364011
0.00428199
0.00501672
0.00583592
0.00674133
0.00773731
0.00882919
0.0100232
0.011325
0.0127417
0.014281
0.0159512
0.0177603
0.0197167
0.0218311
0.0241196
0.00881585
0.00497182
0.002318
0.00198157
0.00230382
0.00269836
0.00315932
0.00370005
0.00432782
0.00505318
0.00585427
0.00672753
0.00767498
0.00870008
0.00980687
0.0109994
0.0122826
0.013662
0.0151436
0.0167339
0.01844
0.020269
0.02223
0.0243289
0.011621
0.00712793
0.00335709
0.00232441
0.00264391
0.00312111
0.00367556
0.00430795
0.00501877
0.005813
0.00667061
0.00759012
0.0085729
0.00962146
0.0107384
0.0119265
0.0131893
0.0145315
0.0159576
0.0174727
0.0190827
0.0207934
0.0226125
0.0245498
0.0138954
0.00891452
0.00440461
0.00270824
0.00299574
0.00355564
0.00419511
0.00490554
0.00568964
0.00654226
0.0074487
0.00840815
0.00942101
0.0104884
0.0116119
0.0127936
0.0140361
0.0153424
0.0167163
0.0181617
0.0196832
0.0212855
0.0229736
0.0247501
0.015727
0.0103436
0.00532849
0.00311145
0.00335195
0.003988
0.00470197
0.0054802
0.00632896
0.00723243
0.00818158
0.00917543
0.0102138
0.0112965
0.0124243
0.0135986
0.0148211
0.0160938
0.0174194
0.0188007
0.0202411
0.0217444
0.0233147
0.0249596
0.0172112
0.0114803
0.00609365
0.00350705
0.00370509
0.00440858
0.00518835
0.00602789
0.00693139
0.00787948
0.00886627
0.00989012
0.0109501
0.0120453
0.0131759
0.0143422
0.0155455
0.0167869
0.0180681
0.019391
0.0207577
0.0221707
0.0236327
0.0251442
0.0184238
0.0123868
0.00671316
0.0038789
0.00404836
0.00481103
0.00564855
0.00654412
0.00749458
0.0084823
0.00950235
0.0105525
0.0116309
0.0127364
0.0138686
0.0150273
0.0162126
0.0174251
0.0186654
0.0199347
0.0212341
0.0225646
0.0239264
0.0253183
0.0194386
0.0131264
0.00721291
0.00421721
0.00437633
0.00519127
0.00608048
0.00702732
0.00801876
0.00904113
0.01009
0.011163
0.0122583
0.0133734
0.0145067
0.0156583
0.0168278
0.0180131
0.0192148
0.0204344
0.0216719
0.0229267
0.0241989
0.0254947
0.0203475
0.0138432
0.00769919
0.00455246
0.00469186
0.00555181
0.00647883
0.00746499
0.0084934
0.00954914
0.0106274
0.0117377
0.0128616
0.0139827
0.0151122
0.0162643
0.0174197
0.0185642
0.0197195
0.0208921
0.0220737
0.0232556
0.0244385
0.0256351
0.000459282
0.00156566
0.00321801
0.00515027
0.00707622
0.00897281
0.0108393
0.0126796
0.0144971
0.0162952
0.0180757
0.0198396
0.021592
0.0233651
0.0252178
0.0271928
0.0292835
0.0314435
0.0339379
0.0367481
0.0397952
0.0430251
0.0463983
0.0498731
0.000327336
0.00093738
0.00217653
0.00379612
0.00541432
0.00699832
0.00858201
0.0101883
0.0118292
0.013504
0.01521
0.0169436
0.0187035
0.0204953
0.0223373
0.0242582
0.0262786
0.028411
0.030758
0.0333522
0.0361147
0.0392744
0.0427345
0.0464278
0.000151065
0.000587752
0.00139567
0.00251123
0.00395452
0.00575047
0.00757049
0.00930814
0.0109785
0.012607
0.0142144
0.0158172
0.0174307
0.0190704
0.020754
0.0225056
0.0243544
0.026334
0.0284955
0.0308843
0.0335022
0.0364276
0.0395918
0.0432194
0.000165675
0.0004802
0.00113256
0.00202937
0.00319929
0.0046763
0.00648648
0.00838404
0.0102421
0.0120418
0.0137792
0.0154551
0.0170756
0.0186552
0.0202165
0.0217914
0.0234209
0.0251551
0.0270503
0.0291655
0.0315469
0.0342362
0.0372232
0.0405642
0.000124954
0.000411759
0.000969329
0.00174047
0.00274331
0.0040061
0.0055628
0.00744014
0.00943056
0.0113912
0.0132964
0.0151376
0.0169053
0.0185918
0.0201979
0.0217387
0.0232478
0.0247783
0.0264006
0.0281967
0.0302491
0.0326245
0.035358
0.0384701
0.000113484
0.000370429
0.00086864
0.0015552
0.00244781
0.0035713
0.00495695
0.00664127
0.00862244
0.0106855
0.0127268
0.0147204
0.0166522
0.018505
0.0202614
0.0219107
0.0234573
0.0249294
0.0263855
0.0279137
0.0296232
0.0316242
0.0340052
0.0368172
9.43982e-05
0.000337203
0.000791998
0.00141469
0.00222745
0.00325003
0.00451029
0.00604165
0.00788098
0.00997204
0.0121145
0.0142337
0.0163065
0.0183155
0.020239
0.0220537
0.0237401
0.0252936
0.0267369
0.0281321
0.0295838
0.0312281
0.0332061
0.03563
8.15348e-05
0.000312357
0.000733969
0.0013076
0.00205859
0.00300314
0.00416707
0.00558125
0.00728164
0.00929623
0.0114865
0.0137024
0.0158932
0.0180371
0.0201128
0.022094
0.0239516
0.0256599
0.0272082
0.0286166
0.0299534
0.0313425
0.0329498
0.034951
6.93729e-05
0.000292317
0.000686512
0.00122045
0.00192176
0.00280397
0.00389086
0.00521128
0.0067988
0.00869109
0.0108677
0.0131482
0.0154354
0.0176938
0.0199015
0.022033
0.0240573
0.0259399
0.0276501
0.0291737
0.0305331
0.0318088
0.0331511
0.0347689
6.13104e-05
0.000278942
0.000648497
0.00115026
0.00180968
0.00264055
0.00366415
0.00490763
0.00640275
0.00818605
0.0102866
0.0125911
0.0149507
0.0173047
0.0196256
0.0218889
0.0240641
0.0261151
0.028002
0.0296904
0.0311659
0.0324594
0.0336745
0.035009
5.60585e-05
0.000272055
0.000617302
0.00109276
0.00171634
0.00250412
0.00347483
0.0046538
0.00607136
0.00776231
0.00976442
0.0120501
0.0144562
0.0168875
0.0193042
0.0216811
0.0239897
0.026194
0.0282521
0.0301193
0.0317588
0.0331613
0.0343766
0.0355544
5.26368e-05
0.000268926
0.000591701
0.00104505
0.00163854
0.00239021
0.00331635
0.00444098
0.00579282
0.00740529
0.00931626
0.0115447
0.0139685
0.0164581
0.0189548
0.021429
0.0238533
0.026194
0.0284092
0.030451
0.0322705
0.0338321
0.0351399
0.0362814
5.02558e-05
0.000267406
0.000570815
0.00100571
0.00157396
0.00229534
0.00318403
0.00426269
0.00555884
0.00710448
0.00893646
0.0110894
0.0135032
0.0160318
0.0185937
0.0211505
0.0236745
0.0261346
0.0284905
0.0306942
0.0326918
0.0344324
0.0358872
0.0370866
4.86418e-05
0.000266723
0.000554013
0.000973741
0.00152104
0.0022169
0.00307412
0.00411411
0.00536316
0.00685195
0.00861613
0.0106939
0.0130746
0.0156232
0.0182361
0.0208624
0.0234722
0.0260358
0.0285158
0.0308657
0.0330304
0.0349515
0.0365795
0.0379015
4.75937e-05
0.000266405
0.000540558
0.000948075
0.00147855
0.00215243
0.00298344
0.0039912
0.00520073
0.00664165
0.00834823
0.0103592
0.0126918
0.0152438
0.0178948
0.0205796
0.0232632
0.0259169
0.0285056
0.0309856
0.0333028
0.0353961
0.037204
0.0386844
4.71319e-05
0.000266401
0.000529594
0.000927078
0.0014438
0.00209932
0.00290869
0.00388975
0.00506645
0.0064673
0.00812552
0.0100791
0.0123585
0.0149008
0.0175788
0.020313
0.0230613
0.0257939
0.0284786
0.0310741
0.0335288
0.0357815
0.0377652
0.0394197
4.70832e-05
0.000266652
0.000520653
0.000909775
0.00141513
0.00205544
0.00284686
0.00380584
0.00495528
0.00632277
0.0079404
0.0098453
0.0120736
0.0145966
0.0172925
0.0200688
0.0228748
0.0256783
0.0284486
0.0311476
0.0337262
0.0361248
0.0382735
0.0400945
4.74485e-05
0.000267098
0.000513458
0.000895503
0.00139131
0.00201893
0.00279544
0.00373606
0.00486276
0.00620223
0.00778581
0.0096496
0.0118319
0.0143295
0.0170357
0.0198481
0.0227064
0.0255751
0.0284235
0.0312162
0.0339073
0.0364395
0.0387441
0.0407454
4.81953e-05
0.000267828
0.000507735
0.000883627
0.00137136
0.00198813
0.00275214
0.00367724
0.00478488
0.00610082
0.00765555
0.00948436
0.0116261
0.0140947
0.016805
0.0196479
0.0225544
0.0254832
0.028404
0.0312826
0.034076
0.0367293
0.0391742
0.0413271
4.92045e-05
0.000268708
0.000503542
0.000873806
0.00135457
0.00196201
0.00271525
0.00362718
0.00471842
0.00601425
0.00754423
0.00934291
0.0114491
0.0138875
0.016596
0.0194643
0.0224145
0.0253999
0.028388
0.0313461
0.0342333
0.0369971
0.0395706
0.0418692
5.05685e-05
0.000269821
0.000500863
0.000865736
0.00134046
0.00193989
0.00268374
0.00358423
0.00466129
0.00593956
0.00744803
0.00922044
0.0112952
0.0137034
0.016405
0.0192932
0.0222827
0.0253208
0.0283719
0.031404
0.0343779
0.0372432
0.0399346
0.0423678
5.22768e-05
0.000271234
0.000499661
0.00085917
0.00132875
0.00192134
0.0026567
0.00354713
0.00461188
0.00587486
0.00736448
0.00911371
0.0111604
0.0135394
0.0162296
0.0191321
0.0221562
0.0252426
0.0283527
0.0314538
0.0345081
0.0374675
0.0402691
0.0428323
5.42014e-05
0.000272933
0.000499684
0.000853731
0.00131882
0.00190564
0.0026334
0.00351512
0.00456906
0.00581869
0.00729174
0.00902053
0.0110423
0.0133939
0.0160693
0.0189808
0.0220343
0.0251647
0.0283294
0.0314944
0.0346232
0.0376693
0.0405717
0.0432494
5.63541e-05
0.000274857
0.000500682
0.000849287
0.00131041
0.00189225
0.00261347
0.00348767
0.00453232
0.00577033
0.00722889
0.0089397
0.0109394
0.0132659
0.0159245
0.0188405
0.0219186
0.0250886
0.0283038
0.0315285
0.0347269
0.0378543
0.0408531
0.0436497
5.87199e-05
0.00027694
0.000502399
0.000845689
0.00130336
0.00188092
0.00259653
0.00346433
0.00450107
0.00572911
0.00717518
0.00887042
0.0108508
0.0131548
0.0157961
0.0187132
0.0218118
0.0250177
0.0282797
0.0315605
0.0348241
0.0380278
0.0411165
0.0440185
6.12695e-05
0.00027912
0.000504623
0.000842876
0.00129755
0.0018715
0.00258236
0.00344479
0.00447486
0.00569448
0.00712993
0.00881188
0.0107757
0.01306
0.0156848
0.0186008
0.0217168
0.0249552
0.0282613
0.031595
0.0349203
0.038196
0.0413693
0.0443715
6.39698e-05
0.000281343
0.000507115
0.000840684
0.00129279
0.00186371
0.0025706
0.00342858
0.00445315
0.00566578
0.00709239
0.00876317
0.010713
0.0129805
0.0155902
0.0185042
0.0216355
0.0249042
0.0282521
0.0316366
0.0350212
0.0383658
0.0416203
0.0447212
6.68094e-05
0.000283577
0.000509785
0.000839077
0.00128901
0.00185742
0.00256104
0.00341539
0.00443545
0.00564237
0.0070617
0.00872326
0.0106615
0.0129149
0.0155116
0.0184236
0.021569
0.0248665
0.0282548
0.0316889
0.0351314
0.0385432
0.0418764
0.0450691
6.97584e-05
0.000285798
0.000512552
0.000837989
0.00128611
0.00185246
0.00255337
0.0034048
0.00442126
0.00562357
0.00703699
0.00869101
0.0106198
0.0128616
0.0154472
0.0183577
0.0215167
0.0248423
0.0282704
0.0317535
0.0352533
0.0387318
0.0421446
0.045439
7.28139e-05
0.000287984
0.000515376
0.000837366
0.00128399
0.00184871
0.00254747
0.00339658
0.00441014
0.00560877
0.00701745
0.00866539
0.0105864
0.0128187
0.0153951
0.0183047
0.0214771
0.0248304
0.028298
0.0318298
0.0353862
0.0389296
0.0424172
0.0458002
7.59377e-05
0.000290129
0.000518185
0.00083713
0.00128253
0.00184598
0.00254304
0.00339036
0.00440167
0.00559738
0.00700228
0.00864534
0.0105601
0.0127846
0.0153534
0.0182626
0.0214482
0.0248288
0.0283355
0.0319156
0.0355276
0.0391329
0.0426867
0.0461288
7.91213e-05
0.000292227
0.000520985
0.000837255
0.00128171
0.00184419
0.00253994
0.00338591
0.00439549
0.00558893
0.00699082
0.00862998
0.0105397
0.0127579
0.0153204
0.0182296
0.0214281
0.0248356
0.0283813
0.0320098
0.035678
0.0393466
0.042973
0.0465077
8.23385e-05
0.000294283
0.000523771
0.000837714
0.00128144
0.00184323
0.002538
0.00338299
0.0043913
0.00558297
0.00698252
0.00861855
0.0105242
0.0127371
0.0152944
0.0182038
0.0214148
0.0248487
0.028433
0.03211
0.0358344
0.0395664
0.0432639
0.0468766
8.55814e-05
0.000296287
0.000526542
0.000838477
0.00128169
0.00184302
0.00253713
0.00338146
0.00438887
0.00557924
0.00697696
0.00861051
0.0105128
0.0127214
0.0152742
0.018184
0.0214068
0.0248662
0.0284884
0.0322134
0.035994
0.0397893
0.0435577
0.0472493
8.88329e-05
0.000298247
0.000529266
0.000839471
0.00128235
0.00184345
0.00253717
0.00338112
0.00438796
0.00557745
0.00697381
0.00860539
0.0105049
0.01271
0.015259
0.018169
0.0214028
0.0248866
0.0285456
0.0323177
0.0361533
0.0400108
0.0438487
0.0476206
9.20781e-05
0.000300168
0.000531961
0.000840696
0.0012834
0.00184445
0.00253799
0.00338183
0.00438842
0.00557736
0.00697276
0.00860282
0.0105002
0.0127023
0.0152481
0.0181583
0.0214022
0.0249092
0.0286037
0.0324216
0.0363109
0.0402282
0.0441313
0.047975
9.52975e-05
0.000302044
0.000534601
0.000842087
0.00128477
0.00184596
0.00253956
0.00338352
0.0043901
0.0055788
0.00697359
0.00860262
0.0104984
0.012698
0.0152411
0.0181515
0.0214048
0.0249337
0.0286626
0.0325251
0.0364668
0.0404422
0.0444072
0.048311
9.84991e-05
0.00030388
0.00053721
0.000843648
0.00128643
0.00184791
0.00254177
0.00338606
0.00439286
0.00558161
0.00697617
0.00860455
0.0104991
0.0126969
0.0152378
0.0181485
0.0214105
0.0249603
0.0287226
0.0326289
0.0366226
0.0406561
0.0446843
0.0486567
0.000101668
0.000305673
0.000539753
0.000845315
0.00128831
0.0018502
0.00254448
0.00338929
0.00439654
0.0055856
0.00698026
0.00860838
0.0105022
0.0126987
0.0152379
0.018149
0.0214191
0.024989
0.0287837
0.0327332
0.0367786
0.0408704
0.044963
0.0490081
0.000104794
0.000307422
0.000542236
0.00084708
0.00129038
0.0018528
0.00254764
0.00339312
0.00440104
0.00559064
0.00698567
0.00861387
0.0105074
0.012703
0.015241
0.0181527
0.0214305
0.0250196
0.0288458
0.0328377
0.0369341
0.0410835
0.0452388
0.0493509
0.00010787
0.000309128
0.000544652
0.00084891
0.00129259
0.00185563
0.00255117
0.00339746
0.00440618
0.00559654
0.00699219
0.00862081
0.0105144
0.0127097
0.0152469
0.0181594
0.0214446
0.0250521
0.028909
0.0329424
0.0370891
0.0412954
0.0455125
0.04969
0.000110902
0.000310789
0.000547022
0.000850812
0.00129494
0.00185868
0.002555
0.00340221
0.00441189
0.00560317
0.00699966
0.00862896
0.010523
0.0127183
0.0152553
0.0181689
0.0214613
0.0250866
0.0289733
0.0330478
0.0372444
0.0415073
0.0457858
0.0500279
0.000113882
0.000312401
0.000549313
0.000852746
0.00129738
0.00186189
0.00255908
0.00340728
0.00441802
0.00561036
0.00700787
0.00863808
0.0105328
0.0127285
0.0152658
0.0181808
0.0214802
0.0251228
0.0290388
0.0331539
0.0374005
0.0417206
0.0460623
0.0503739
0.000116814
0.00031397
0.000551544
0.000854711
0.0012999
0.00186522
0.00256333
0.0034126
0.00442447
0.00561797
0.00701663
0.00864794
0.0105436
0.0127401
0.015278
0.0181947
0.0215009
0.0251603
0.0291051
0.0332604
0.0375569
0.0419343
0.0463388
0.0507173
0.000119686
0.000315491
0.000553703
0.000856691
0.00130247
0.00186864
0.00256773
0.00341811
0.00443116
0.0056259
0.0070258
0.00865833
0.0105552
0.0127526
0.0152914
0.0182101
0.021523
0.0251987
0.0291718
0.033367
0.0377131
0.0421479
0.0466156
0.0510611
0.000122495
0.000316961
0.000555794
0.000858692
0.00130511
0.00187216
0.00257227
0.00342378
0.00443805
0.00563405
0.00703526
0.00866908
0.0105672
0.0127658
0.0153057
0.0182264
0.0215458
0.0252374
0.0292382
0.0334729
0.0378687
0.0423614
0.0468938
0.0514097
0.000125248
0.000318381
0.000557812
0.000860694
0.00130778
0.00187575
0.0025769
0.00342957
0.00444506
0.00564236
0.0070449
0.00868007
0.0105794
0.0127793
0.0153204
0.0182431
0.0215687
0.0252756
0.0293035
0.0335773
0.0380228
0.042574
0.0471726
0.0517651
0.000127942
0.000319757
0.000559774
0.000862709
0.00131051
0.00187942
0.00258164
0.00343547
0.0044522
0.0056508
0.00705467
0.00869118
0.0105919
0.012793
0.0153353
0.0182599
0.0215912
0.0253125
0.0293666
0.0336788
0.0381734
0.0427824
0.047446
0.0521088
0.000130572
0.000321087
0.000561674
0.000864727
0.00131327
0.00188313
0.00258645
0.00344146
0.00445944
0.00565933
0.00706453
0.00870237
0.0106043
0.0128066
0.0153501
0.0182765
0.0216131
0.0253477
0.0294269
0.0337762
0.0383191
0.042985
0.0477119
0.052442
0.000133155
0.000322377
0.000563543
0.000866751
0.00131605
0.00188689
0.00259132
0.00344753
0.00446676
0.00566794
0.00707445
0.00871359
0.0106168
0.0128203
0.0153648
0.0182929
0.021634
0.025381
0.0294839
0.0338693
0.0384592
0.0431812
0.0479707
0.0527671
0.000135659
0.000323627
0.000565359
0.000868776
0.00131887
0.00189068
0.00259623
0.00345364
0.00447413
0.0056766
0.00708441
0.00872483
0.0106293
0.0128339
0.0153794
0.0183088
0.0216541
0.0254123
0.0295377
0.033958
0.0385942
0.0433721
0.0482253
0.0530926
0.000138076
0.000324815
0.000567059
0.000870763
0.00132167
0.0018945
0.00260119
0.00345979
0.00448152
0.00568528
0.00709439
0.00873609
0.0106418
0.0128474
0.0153938
0.0183245
0.0216732
0.0254417
0.0295883
0.0340421
0.0387235
0.0435566
0.0484736
0.0534153
0.000140429
0.00032597
0.000568707
0.000872726
0.00132447
0.00189832
0.00260616
0.00346596
0.00448893
0.00569397
0.00710438
0.00874737
0.0106542
0.0128609
0.0154082
0.0183397
0.0216916
0.0254693
0.0296353
0.034121
0.038846
0.0437324
0.0487092
0.0537094
0.000142715
0.000327065
0.000570257
0.000874649
0.00132722
0.00190214
0.00261112
0.00347214
0.00449635
0.00570266
0.00711437
0.0087586
0.0106667
0.0128744
0.0154225
0.0183549
0.0217092
0.0254954
0.0296796
0.0341954
0.0389623
0.043901
0.0489389
0.0540101
0.000144988
0.000328116
0.000571799
0.00087657
0.00133
0.00190591
0.00261608
0.00347827
0.0045038
0.00571141
0.0071244
0.00876987
0.010679
0.0128877
0.0154367
0.01837
0.0217267
0.0255202
0.0297216
0.034266
0.0390731
0.0440625
0.04916
0.0543013
0.00014717
0.000329159
0.000573327
0.00087848
0.00133276
0.00190968
0.00262099
0.0034844
0.00451112
0.00572004
0.00713432
0.00878108
0.0106915
0.0129012
0.0154509
0.018385
0.0217439
0.0255444
0.0297615
0.0343334
0.0391792
0.0442165
0.0493684
0.0545589
0.000149278
0.00033013
0.00057472
0.000880315
0.00133543
0.00191341
0.00262586
0.00349046
0.0045184
0.00572852
0.00714408
0.00879211
0.0107037
0.0129145
0.015465
0.0184
0.0217607
0.0255678
0.0298
0.0343982
0.0392821
0.0443685
0.0495815
0.0548636
0.000151356
0.000331065
0.000576098
0.000882109
0.00133808
0.00191701
0.00263064
0.00349636
0.00452558
0.00573698
0.00715381
0.00880306
0.0107158
0.0129276
0.015479
0.0184146
0.0217773
0.02559
0.0298366
0.0344598
0.0393801
0.0445115
0.0497719
0.0550811
0.000153302
0.000331957
0.000577371
0.000883865
0.00134068
0.00192056
0.00263526
0.00350215
0.00453251
0.00574521
0.00716325
0.0088137
0.0107276
0.0129405
0.0154927
0.0184291
0.0217933
0.0256114
0.0298712
0.034519
0.039475
0.0446525
0.0499691
0.0553533
0.000155215
0.000332788
0.000578574
0.000885567
0.00134319
0.00192409
0.00263988
0.00350786
0.00453935
0.00575316
0.00717242
0.00882406
0.0107391
0.012953
0.015506
0.0184432
0.0218087
0.0256319
0.0299043
0.0345755
0.0395666
0.0447891
0.0501575
0.0555925
0.000157106
0.000333589
0.000579772
0.000887218
0.00134565
0.00192745
0.00264431
0.00351337
0.00454599
0.005761
0.00718143
0.0088342
0.0107503
0.012965
0.0155188
0.0184565
0.0218235
0.0256509
0.0299353
0.0346291
0.0396547
0.0449227
0.0503442
0.0558331
0.000158866
0.000334347
0.000580859
0.000888809
0.00134804
0.00193081
0.00264872
0.00351883
0.00455249
0.00576859
0.00719012
0.00884396
0.0107611
0.0129767
0.0155312
0.0184694
0.0218372
0.0256687
0.029964
0.0346795
0.0397389
0.0450525
0.0505326
0.0560999
0.000160589
0.000335068
0.000581884
0.000890357
0.00135036
0.00193404
0.00265301
0.00352411
0.00455879
0.00577586
0.00719844
0.00885333
0.0107714
0.0129878
0.0155429
0.0184816
0.0218502
0.0256849
0.0299904
0.0347263
0.0398178
0.0451748
0.0507083
0.0563427
0.000162261
0.000335748
0.000582871
0.00089186
0.00135268
0.00193722
0.00265713
0.00352921
0.00456487
0.00578298
0.00720659
0.00886245
0.0107813
0.0129984
0.015554
0.0184929
0.0218623
0.0256999
0.0300143
0.0347694
0.0398913
0.0452887
0.0508678
0.0565382
0.000163845
0.000336374
0.000583714
0.00089331
0.00135488
0.00194034
0.00266123
0.00353423
0.00457082
0.00578982
0.00721436
0.00887117
0.0107908
0.0130087
0.0155646
0.0185037
0.0218734
0.0257136
0.0300363
0.0348095
0.0399614
0.0454
0.05103
0.0567628
0.000165436
0.000336967
0.000584582
0.000894763
0.00135711
0.00194336
0.0026652
0.0035391
0.00457663
0.00579655
0.00722192
0.00887947
0.0107999
0.0130183
0.0155747
0.0185139
0.0218838
0.0257259
0.0300563
0.0348466
0.0400276
0.045507
0.0511878
0.0569797
0.000166944
0.000337558
0.000585447
0.000896231
0.00135933
0.00194638
0.00266907
0.00354383
0.00458221
0.00580306
0.00722924
0.00888755
0.0108087
0.0130276
0.0155841
0.0185234
0.0218933
0.0257372
0.0300741
0.0348805
0.0400894
0.0456082
0.051338
0.057184
0.000168394
0.000338082
0.000586189
0.000897653
0.00136149
0.00194943
0.002673
0.0035486
0.00458776
0.00580933
0.00723629
0.00889532
0.010817
0.0130365
0.0155932
0.0185324
0.0219023
0.0257475
0.0300904
0.0349118
0.0401474
0.045705
0.0514836
0.0573867
0.000169832
0.000338579
0.000586953
0.000899089
0.00136371
0.00195243
0.00267693
0.00355329
0.00459329
0.00581563
0.00724332
0.00890299
0.0108252
0.0130449
0.0156019
0.0185409
0.0219107
0.0257568
0.0301054
0.0349409
0.0402024
0.0457986
0.0516269
0.0575894
0.000171151
0.000339041
0.000587614
0.000900523
0.00136593
0.0019555
0.00268086
0.00355806
0.00459877
0.00582188
0.00725024
0.00891049
0.0108332
0.0130532
0.0156102
0.0185489
0.0219184
0.0257654
0.0301187
0.0349676
0.0402543
0.0458879
0.0517659
0.0577881
0.000172451
0.000339473
0.000588263
0.000902018
0.00136823
0.00195872
0.00268498
0.00356299
0.00460444
0.00582817
0.00725715
0.00891794
0.010841
0.0130613
0.0156182
0.0185566
0.0219256
0.0257732
0.0301308
0.034992
0.0403026
0.0459726
0.0518981
0.0579769
0.000173743
0.000339874
0.000588939
0.000903546
0.00137063
0.00196196
0.00268921
0.00356803
0.00461033
0.00583477
0.00726436
0.00892564
0.010849
0.0130692
0.0156259
0.0185638
0.0219323
0.02578
0.0301415
0.0350142
0.0403477
0.0460533
0.0520255
0.05816
0.000174925
0.000340244
0.000589525
0.000905106
0.00137308
0.00196534
0.00269358
0.00357331
0.00461639
0.00584165
0.00727188
0.00893362
0.0108573
0.0130775
0.0156339
0.018571
0.0219385
0.025786
0.0301505
0.0350341
0.0403897
0.0461303
0.0521502
0.0583434
0.000176082
0.000340592
0.00059005
0.000906691
0.00137558
0.00196884
0.00269815
0.00357882
0.0046228
0.00584883
0.00727975
0.00894201
0.0108659
0.0130862
0.0156422
0.0185785
0.0219446
0.0257914
0.0301579
0.0350509
0.0404276
0.0462026
0.0522701
0.0585251
0.000177201
0.000340883
0.000590561
0.000908307
0.00137821
0.00197249
0.00270287
0.00358457
0.00462952
0.00585651
0.00728828
0.00895118
0.0108755
0.0130957
0.0156512
0.0185865
0.0219512
0.0257964
0.030164
0.0350644
0.0404596
0.0462664
0.0523784
0.0586845
0.000178238
0.000341138
0.00059096
0.000909939
0.00138084
0.00197626
0.00270782
0.00359062
0.0046366
0.00586457
0.00729729
0.00896104
0.010886
0.0131064
0.0156616
0.0185959
0.0219589
0.0258026
0.03017
0.0350761
0.0404869
0.0463222
0.0524759
0.0588353
0.000179305
0.000341355
0.000591408
0.000911615
0.00138356
0.00198009
0.00271291
0.00359687
0.00464404
0.00587316
0.00730694
0.0089716
0.0108973
0.0131182
0.0156734
0.0186071
0.0219688
0.0258106
0.030178
0.0350886
0.0405129
0.0463734
0.0525653
0.0589811
0.000180285
0.000341529
0.000591754
0.00091328
0.00138634
0.00198401
0.00271804