/*--------------------------------*- C++ -*----------------------------------*\
| =========                 |                                                 |
| \\      /  F ield         | OpenFOAM: The Open Source CFD Toolbox           |
|  \\    /   O peration     | Version:  2.3.0                                 |
|   \\  /    A nd           | Web:      www.OpenFOAM.org                      |
|    \\/     M anipulation  |                                                 |
\*---------------------------------------------------------------------------*/
FoamFile
{
    version     2.0;
    format      ascii;
    class       volScalarField;
    location    "2000";
    object      p;
}
// * * * * * * * * * * * * * * * * * * * * * * * * * * * * * * * * * * * * * //

dimensions      [0 2 -2 0 0 0 0];

internalField   nonuniform List<scalar> 
14036
(
0.82584
0.701438
0.124415
-0.512843
-1.1316
-1.6887
-2.16289
-2.5343
-2.77005
-2.84891
-2.72189
-2.34287
-1.62796
-0.495722
1.16043
3.45322
6.54604
10.492
15.5067
22.3123
31.4979
40.4504
45.2044
57.7251
10.1177
10.6288
11.1003
11.6606
12.3204
13.1086
14.0636
15.2256
16.6709
18.4687
20.7147
23.5079
26.9624
31.211
36.3881
42.6182
50.0218
58.7083
68.7672
80.3027
93.3525
107.804
123.638
140.634
17.81
18.8576
19.9258
21.1696
22.5789
24.18
25.9977
28.048
30.362
32.9694
35.9029
39.1957
42.8962
47.044
51.6906
56.871
62.6232
68.965
75.9056
83.4167
91.4281
99.8545
108.607
117.541
24.2474
25.6937
27.1363
28.7586
30.5483
32.5292
34.7273
37.1681
39.8834
42.9078
46.2716
50.011
54.1565
58.7332
63.7688
69.2671
75.2401
81.6585
88.4955
95.6828
103.127
110.707
118.262
125.626
29.4999
31.2906
32.9669
34.7822
36.7454
38.8779
41.1992
43.7258
46.4789
49.4734
52.7348
56.2818
60.1336
64.3089
68.8218
73.6769
78.873
84.3893
90.2012
96.2536
102.48
108.793
115.079
121.234
34.4404
36.055
37.7685
39.6265
41.6339
43.8018
46.1472
48.6851
51.4271
54.3914
57.5997
61.0618
64.7947
68.8037
73.1003
77.6805
82.5358
87.6486
92.9864
98.5022
104.14
109.824
115.463
120.975
38.3831
39.9417
41.6815
43.5295
45.5197
47.6469
49.9413
52.409
55.0626
57.9096
60.9691
64.2558
67.788
71.5517
75.5649
79.829
84.342
89.0643
93.9779
99.0417
104.211
109.422
114.59
119.653
41.7012
43.1884
44.9534
46.7711
48.7054
50.7581
53.0019
55.411
58.0067
60.7771
63.7277
66.868
70.2631
73.8561
77.6445
81.644
85.8809
90.2964
94.8867
99.6171
104.443
109.328
114.153
118.876
44.6978
45.9074
47.5596
49.3028
51.1657
53.127
55.2776
57.5618
60.055
62.7351
65.5836
68.5487
71.7722
75.2856
78.9638
82.751
86.7323
90.9486
95.2912
99.7528
104.277
108.938
113.53
117.961
47.3571
47.9993
49.1745
50.6338
52.792
54.6031
56.4571
58.34
60.4668
62.8062
65.3432
67.9094
71.1325
74.2603
77.7887
81.5291
86.0296
90.235
94.394
98.702
103.001
107.556
112.044
116.159
110.055
137.85
154.737
167.006
176.786
184.78
191.167
196.161
199.943
202.657
204.435
205.397
205.627
205.209
204.222
202.745
200.851
198.618
196.114
193.404
190.529
187.511
184.558
182.129
156.296
168.388
177.996
185.718
191.849
196.528
199.906
202.133
203.37
203.77
203.484
202.648
201.389
199.813
198.011
196.051
193.983
191.833
189.619
187.346
185.004
182.576
180.231
178.592
126.427
135.052
143.162
150.572
157.196
163.006
168.011
172.233
175.718
178.52
180.694
182.295
183.38
183.999
184.202
184.033
183.535
182.746
181.704
180.442
178.982
177.341
175.667
174.192
132.673
139.362
145.625
151.366
156.519
161.052
164.963
168.262
170.981
173.16
174.845
176.085
176.929
177.421
177.608
177.526
177.208
176.683
175.973
175.096
174.06
172.864
171.62
170.545
127.198
132.96
138.449
143.576
148.283
152.524
156.286
159.565
162.376
164.739
166.683
168.238
169.44
170.319
170.907
171.232
171.319
171.193
170.875
170.386
169.736
168.927
168.076
167.687
126.305
131.438
136.315
140.879
145.084
148.892
152.292
155.281
157.868
160.069
161.909
163.412
164.609
165.526
166.192
166.627
166.856
166.899
166.772
166.495
166.074
165.517
164.906
164.371
124.572
129.295
133.784
138
141.892
145.44
148.624
151.445
153.909
156.03
157.829
159.324
160.546
161.518
162.264
162.799
163.145
163.316
163.328
163.208
162.957
162.586
162.151
161.73
123.501
127.881
132.04
135.975
139.604
142.933
145.927
148.603
150.943
152.98
154.716
156.171
157.38
158.376
159.164
159.744
160.142
160.375
160.46
160.447
160.308
160.054
159.75
159.528
122.423
126.655
130.601
134.344
137.72
140.877
143.753
146.334
148.573
150.544
152.221
153.627
154.83
155.866
156.689
157.259
157.666
157.936
158.08
158.19
158.122
157.903
157.669
157.693
120.729
125.039
129.093
132.785
136.161
139.32
142.142
144.641
146.769
148.605
150.187
151.521
152.718
153.748
154.491
155.141
155.635
156.016
156.277
156.531
156.335
155.84
155.821
156.145
-60.7778
-61.3276
-61.8502
-62.3444
-62.806
-63.2258
-63.5938
-63.9007
-64.1376
-64.299
-64.3817
-64.3847
-64.3065
-64.1459
-63.8986
-63.555
-63.0932
-62.4821
-61.6889
-60.6884
-59.4485
-57.915
-55.664
-50.7705
-59.9736
-60.6069
-61.1334
-61.5996
-62.0189
-62.3925
-62.7223
-63.0099
-63.2539
-63.4503
-63.5907
-63.664
-63.6541
-63.5417
-63.2989
-62.8911
-62.2691
-61.3643
-60.0756
-58.2753
-55.776
-52.3254
-47.7295
-42.0727
-59.1182
-59.8713
-60.4933
-61.0679
-61.6061
-62.104
-62.5557
-62.9535
-63.2887
-63.5496
-63.7196
-63.7798
-63.7056
-63.4717
-63.0459
-62.3866
-61.4402
-60.141
-58.3933
-56.0843
-53.0845
-49.2993
-44.7405
-39.6529
-58.4382
-58.9929
-59.5907
-60.1604
-60.6805
-61.1475
-61.5575
-61.9046
-62.1816
-62.3785
-62.4805
-62.4696
-62.3206
-62.0042
-61.4869
-60.7236
-59.6606
-58.234
-56.3732
-53.9986
-51.0496
-47.5081
-43.4446
-39.0673
-57.4865
-58.0084
-58.6006
-59.1561
-59.6523
-60.0902
-60.4663
-60.7755
-61.0125
-61.1683
-61.2255
-61.1622
-60.9539
-60.5723
-59.9818
-59.1437
-58.0083
-56.524
-54.6268
-52.2666
-49.4073
-46.057
-42.2885
-38.2627
-56.4854
-57.0134
-57.5794
-58.0976
-58.5572
-58.9593
-59.2978
-59.5634
-59.7474
-59.856
-59.8729
-59.7703
-59.5191
-59.0942
-58.4647
-57.5921
-56.4244
-54.9231
-53.0419
-50.7341
-47.9756
-44.7672
-41.1667
-37.3328
-55.6136
-56.0347
-56.561
-57.0433
-57.4708
-57.8466
-58.1559
-58.3845
-58.5064
-58.5675
-58.5557
-58.43
-58.1417
-57.6744
-57.0055
-56.1061
-54.905
-53.3827
-51.4966
-49.2307
-46.5535
-43.4469
-39.974
-36.2848
-54.8222
-55.0484
-55.5452
-55.9936
-56.3882
-56.7527
-57.0485
-57.2656
-57.3013
-57.3
-57.2787
-57.1765
-56.8887
-56.4054
-55.7112
-54.8362
-53.6008
-52.0742
-50.1919
-47.9796
-45.4157
-42.4281
-39.0146
-35.4023
-53.9202
-54.1162
-54.6386
-55.0598
-55.3874
-55.7386
-56.0462
-56.3649
-56.2282
-56.007
-55.8651
-55.8355
-55.5795
-55.0578
-54.2126
-53.3681
-52.0335
-50.4026
-48.3423
-46.0617
-43.5909
-40.651
-37.1557
-33.6109
-53.0362
-53.5484
-54.4839
-55.1929
-55.6718
-56.1576
-56.8429
-58.144
-57.6708
-57.2181
-56.8446
-57.2977
-57.5489
-57.6017
-57.0819
-56.7394
-55.7102
-54.4146
-52.1209
-49.5975
-47.4247
-44.8077
-40.6206
-35.6308
-40.4682
-35.4843
-32.2703
-29.3501
-26.5601
-23.936
-21.4728
-19.1545
-16.9558
-14.8487
-12.8004
-10.7796
-8.76178
-6.73044
-4.6751
-2.5898
-0.472609
1.67621
3.85528
6.06355
8.30055
10.5507
12.8168
15.3024
-35.7442
-32.0673
-30.1259
-28.3581
-26.4428
-24.3901
-22.2434
-20.0462
-17.8288
-15.6131
-13.4138
-11.2393
-9.09169
-6.9706
-4.87235
-2.79135
-0.721816
1.34236
3.40662
5.47768
7.56002
9.63844
11.7278
14.0001
-34.5314
-30.1255
-27.592
-25.8215
-24.0735
-22.2531
-20.3641
-18.4275
-16.4585
-14.4718
-12.4775
-10.4845
-8.49824
-6.52248
-4.55771
-2.60385
-0.659663
1.27657
3.20756
5.13882
7.07379
9.00024
10.9452
13.06
-34.6275
-30.3493
-27.3818
-25.3671
-23.456
-21.5386
-19.6063
-17.6725
-15.7442
-13.8257
-11.9191
-10.0256
-8.14568
-6.27827
-4.42186
-2.57511
-0.736071
1.09787
2.92834
4.75884
6.59101
8.41159
10.249
12.2408
-34.1798
-30.2267
-27.1378
-24.9913
-22.9974
-21.0231
-19.0535
-17.1023
-15.1747
-13.273
-11.3979
-9.54893
-7.72547
-5.92496
-4.14434
-2.38124
-0.632589
1.1048
2.83398
4.55923
6.281
7.98689
9.7001
11.5551
-33.4518
-29.6991
-26.5592
-24.2831
-22.2221
-20.2147
-18.2387
-16.3005
-14.4004
-12.5374
-10.7105
-8.91712
-7.15615
-5.42531
-3.72075
-2.039
-0.37742
1.26664
2.89724
4.5176
6.12717
7.71605
9.30465
11.0167
-32.56
-28.9544
-25.8162
-23.4437
-21.3375
-19.3158
-17.3508
-15.4417
-13.5825
-11.7686
-9.99552
-8.2613
-6.56581
-4.90458
-3.27127
-1.6659
-0.0863036
1.47233
3.01547
4.54317
6.0519
7.53661
9.00801
10.5799
-31.7909
-28.2673
-25.0679
-22.5752
-20.4394
-18.4299
-16.4972
-14.6296
-12.8199
-11.0573
-9.33327
-7.64986
-6.0163
-4.41886
-2.84451
-1.30578
0.200641
1.68624
3.15757
4.60879
6.02695
7.42108
8.79639
10.2569
-30.3161
-27.1036
-23.9522
-21.4618
-19.4555
-17.5461
-15.6829
-13.8732
-12.1251
-10.4126
-8.72033
-7.06792
-5.49958
-3.96334
-2.4223
-0.945133
0.489544
1.90528
3.31782
4.70432
6.02418
7.33305
8.60205
9.98777
-31.8341
-28.131
-23.423
-20.396
-18.5428
-16.7408
-14.9369
-13.1684
-11.5014
-9.83193
-8.15093
-6.51985
-5.08016
-3.60916
-2.03544
-0.658259
0.683483
2.0753
3.48422
4.84847
6.04623
7.32542
8.52192
9.93995
-157.495
-148.469
-139.1
-131.222
-122.402
-112.557
-102.449
-92.5357
-82.9498
-73.7415
-65.0081
-56.8599
-49.3723
-42.5809
-36.5147
-31.1768
-26.5482
-22.5681
-19.1626
-16.248
-13.7253
-11.5076
-9.4883
-7.58795
-91.1618
-91.1681
-90.3818
-89.0702
-87.7251
-86.65
-85.6696
-84.3357
-82.3654
-79.7128
-76.4035
-72.4812
-67.9999
-63.0418
-57.732
-52.2272
-46.7029
-41.3356
-36.2588
-31.5715
-27.3163
-23.4939
-20.0768
-17.04
-99.3016
-99.2112
-99.305
-99.3461
-99.1324
-98.4331
-97.1626
-95.4099
-93.2997
-90.8301
-87.9017
-84.4473
-80.4897
-76.0728
-71.2417
-66.0639
-60.6298
-55.0669
-49.5116
-44.1087
-38.9741
-34.1844
-29.7862
-25.6751
-91.3267
-91.2928
-91.2022
-91.0613
-90.8638
-90.5889
-90.2011
-89.6545
-88.886
-87.8566
-86.5907
-85.0314
-83.0456
-80.5268
-77.4172
-73.6996
-69.4097
-64.6297
-59.4876
-54.1523
-48.7949
-43.5722
-38.6146
-33.9855
-90.9915
-90.9802
-90.9973
-90.9972
-90.961
-90.8698
-90.6978
-90.4059
-89.941
-89.2543
-88.2994
-87.0579
-85.5159
-83.6139
-81.2842
-78.467
-75.1196
-71.2269
-66.8194
-61.9865
-56.8683
-51.6381
-46.4615
-41.5925
-88.739
-88.7255
-88.715
-88.6883
-88.6398
-88.5622
-88.4436
-88.2682
-88.0121
-87.6452
-87.1316
-86.4314
-85.4951
-84.2799
-82.7238
-80.7516
-78.2992
-75.3094
-71.762
-67.6691
-63.1049
-58.2048
-53.0986
-48.2236
-87.7079
-87.6983
-87.7013
-87.6955
-87.6755
-87.6348
-87.5647
-87.4533
-87.2842
-87.0359
-86.6796
-86.1867
-85.5204
-84.6395
-83.4967
-82.0331
-80.1777
-77.8652
-75.0382
-71.6652
-67.7498
-63.3716
-58.5816
-54.062
-86.5602
-86.5519
-86.5505
-86.5414
-86.5213
-86.4867
-86.4317
-86.3491
-86.228
-86.0556
-85.8125
-85.4751
-85.0159
-84.4006
-83.5855
-82.5217
-81.1425
-79.378
-77.1583
-74.4261
-71.1431
-67.3404
-62.9704
-58.9854
-85.7095
-85.704
-85.7036
-85.6971
-85.682
-85.6552
-85.6126
-85.5486
-85.4555
-85.3237
-85.1394
-84.8849
-84.5385
-84.0749
-83.4601
-82.6538
-81.6037
-80.243
-78.5015
-76.3063
-73.5895
-70.3452
-66.4194
-63.0187
-84.9453
-84.9427
-84.9415
-84.9343
-84.9196
-84.895
-84.8575
-84.8032
-84.7262
-84.6194
-84.4733
-84.2752
-84.0076
-83.6506
-83.1777
-82.5554
-81.7422
-80.6837
-79.3123
-77.5556
-75.3331
-72.6083
-69.1678
-66.3684
-84.32
-84.3187
-84.3173
-84.3098
-84.2954
-84.2723
-84.2379
-84.1893
-84.1219
-84.0303
-83.9072
-83.7433
-83.525
-83.2364
-82.8575
-82.3618
-81.7157
-80.8756
-79.7842
-78.3745
-76.5676
-74.3115
-71.3699
-69.1426
-83.7928
-83.7921
-83.7899
-83.7818
-83.767
-83.7442
-83.7112
-83.6657
-83.6041
-83.5223
-83.4141
-83.2728
-83.0882
-82.8474
-82.5346
-82.129
-81.6033
-80.923
-80.0422
-78.9018
-77.4306
-75.5726
-73.1025
-71.2323
-83.3625
-83.3621
-83.3594
-83.351
-83.3362
-83.3137
-83.2816
-83.2382
-83.1803
-83.1046
-83.0064
-82.8802
-82.7183
-82.5106
-82.2444
-81.9032
-81.4655
-80.9031
-80.18
-79.2478
-78.0447
-76.518
-74.4789
-72.9689
-83.0224
-83.0218
-83.0183
-83.0092
-82.994
-82.9713
-82.9397
-82.8973
-82.842
-82.7708
-82.6797
-82.5641
-82.4183
-82.2344
-82.0021
-81.7087
-81.3366
-80.8632
-80.2602
-79.4881
-78.4937
-77.2273
-75.5372
-74.2092
-82.7607
-82.76
-82.7559
-82.7465
-82.7312
-82.7088
-82.6778
-82.637
-82.5841
-82.5168
-82.4317
-82.3249
-82.1915
-82.0257
-81.8197
-81.5628
-81.2413
-80.8369
-80.3264
-79.6801
-78.8534
-77.804
-76.4272
-75.4159
-82.5702
-82.5696
-82.5652
-82.5558
-82.5406
-82.5187
-82.4888
-82.4496
-82.3992
-82.3357
-82.2561
-82.1571
-82.0348
-81.8844
-81.6996
-81.4722
-81.1912
-80.8418
-80.4052
-79.8582
-79.1641
-78.2825
-77.1379
-76.3784
-82.4418
-82.4411
-82.4365
-82.4273
-82.4126
-82.3917
-82.3632
-82.3262
-82.2789
-82.2195
-82.1456
-82.0542
-81.9416
-81.8045
-81.6379
-81.4354
-81.1881
-80.8841
-80.508
-80.0407
-79.4528
-78.6944
-77.6726
-77.2247
-82.3696
-82.3689
-82.3642
-82.3553
-82.3412
-82.3212
-82.2942
-82.2591
-82.2146
-82.1591
-82.0904
-82.0059
-81.9027
-81.7775
-81.6264
-81.4443
-81.224
-80.955
-80.6238
-80.2119
-79.696
-79.0475
-78.1704
-76.3342
-82.3457
-82.3449
-82.3401
-82.3315
-82.318
-82.2988
-82.2732
-82.2401
-82.1983
-82.1463
-82.0824
-82.0043
-81.9091
-81.7943
-81.6567
-81.4921
-81.2946
-81.0557
-80.7637
-80.403
-79.9532
-79.386
-78.6792
-77.7339
-82.3648
-82.364
-82.359
-82.3503
-82.3369
-82.3184
-82.2937
-82.2619
-82.2222
-82.1732
-82.1131
-82.0402
-81.9518
-81.8455
-81.7187
-81.568
-81.3884
-81.1725
-80.9099
-80.5866
-80.1831
-79.6687
-78.9999
-78.0175
-82.4148
-82.4144
-82.4097
-82.4017
-82.3891
-82.3714
-82.3478
-82.3177
-82.2798
-82.2332
-82.1764
-82.1076
-82.0245
-81.925
-81.8067
-81.6666
-81.5007
-81.3023
-81.0622
-80.7672
-80.4001
-79.9329
-79.3157
-78.3403
-82.5034
-82.503
-82.4981
-82.4899
-82.4772
-82.4597
-82.4364
-82.4067
-82.3697
-82.3245
-82.2695
-82.2032
-82.1236
-82.0284
-81.9156
-81.7828
-81.6261
-81.4394
-81.2141
-80.9374
-80.5918
-80.149
-79.5654
-78.5768
-82.6208
-82.6204
-82.6155
-82.6073
-82.5947
-82.5773
-82.5542
-82.525
-82.4886
-82.4442
-82.3903
-82.3257
-82.2482
-82.156
-82.0469
-81.9188
-81.7682
-81.59
-81.376
-81.1148
-80.7912
-80.3783
-79.8337
-78.9715
-82.7707
-82.7702
-82.765
-82.7566
-82.7436
-82.7258
-82.7026
-82.6732
-82.6368
-82.5926
-82.5393
-82.4755
-82.3993
-82.3089
-82.202
-82.077
-81.9309
-81.7589
-81.5539
-81.3058
-81.0018
-80.6241
-80.1572
-79.4074
-82.9452
-82.9448
-82.9396
-82.9313
-82.9186
-82.901
-82.878
-82.849
-82.813
-82.7693
-82.7165
-82.6535
-82.5782
-82.489
-82.3839
-82.2613
-82.1185
-81.9516
-81.7544
-81.5181
-81.2321
-80.8799
-80.4391
-79.8072
-83.1536
-83.1531
-83.1476
-83.1391
-83.126
-83.1083
-83.0852
-83.056
-83.02
-82.9764
-82.9239
-82.8614
-82.7869
-82.6988
-82.595
-82.4743
-82.3342
-82.1714
-81.9804
-81.7536
-81.4811
-81.146
-80.7182
-80.1438
-83.3903
-83.3897
-83.384
-83.3754
-83.3624
-83.3446
-83.3215
-83.2926
-83.2568
-83.2136
-83.1616
-83.0999
-83.0262
-82.9395
-82.8373
-82.7186
-82.5812
-82.4225
-82.2374
-82.0192
-81.7591
-81.4438
-81.0396
-80.3793
-83.658
-83.6573
-83.6513
-83.6426
-83.6293
-83.6114
-83.5883
-83.5594
-83.5239
-83.4813
-83.43
-83.3693
-83.2971
-83.2121
-83.1121
-82.9963
-82.8628
-82.7094
-82.5323
-82.326
-82.0834
-81.7926
-81.4366
-81.0004
-83.9505
-83.9497
-83.9438
-83.9352
-83.9222
-83.9047
-83.882
-83.8539
-83.8192
-83.7775
-83.7275
-83.6683
-83.5981
-83.5155
-83.4186
-83.3064
-83.1776
-83.0307
-82.8627
-82.6698
-82.4477
-82.1908
-81.8951
-81.584
-84.2727
-84.2719
-84.2658
-84.2571
-84.244
-84.2267
-84.2043
-84.1765
-84.1425
-84.1019
-84.0532
-83.9957
-83.9277
-83.8479
-83.7543
-83.646
-83.522
-83.3808
-83.2199
-83.0351
-82.8219
-82.5786
-82.2941
-81.6783
-84.6186
-84.6176
-84.6114
-84.6028
-84.5901
-84.573
-84.5511
-84.5241
-84.4911
-84.4517
-84.4046
-84.3492
-84.2837
-84.2071
-84.1173
-84.0138
-83.8954
-83.7616
-83.6105
-83.4396
-83.2457
-83.0197
-82.756
-82.628
-84.9887
-84.9877
-84.9813
-84.9726
-84.9598
-84.9429
-84.9214
-84.895
-84.8628
-84.8247
-84.7792
-84.7259
-84.663
-84.5896
-84.5036
-84.4046
-84.2915
-84.1638
-84.0197
-83.8563
-83.6695
-83.4534
-83.2041
-82.8408
-85.3751
-85.374
-85.3678
-85.3595
-85.3473
-85.331
-85.3103
-85.285
-85.2542
-85.2176
-85.1741
-85.1232
-85.063
-84.993
-84.9112
-84.8169
-84.7095
-84.5886
-84.4528
-84.3003
-84.1285
-83.934
-83.7128
-83.407
-85.7828
-85.7816
-85.7754
-85.7671
-85.755
-85.7391
-85.719
-85.6944
-85.6646
-85.6294
-85.5875
-85.5387
-85.4813
-85.4145
-85.3364
-85.2467
-85.1445
-85.0297
-84.9013
-84.7576
-84.5967
-84.4134
-84.1951
-83.8866
-86.2055
-86.2043
-86.1981
-86.19
-86.1783
-86.1629
-86.1433
-86.1197
-86.0909
-86.0571
-86.0169
-85.9702
-85.9152
-85.8513
-85.7769
-85.6913
-85.594
-85.4847
-85.3629
-85.2271
-85.0758
-84.9043
-84.702
-84.4745
-86.6443
-86.643
-86.6367
-86.6286
-86.617
-86.6018
-86.5826
-86.5595
-86.5316
-86.4989
-86.4601
-86.4152
-86.3624
-86.3013
-86.23
-86.1481
-86.0547
-85.9498
-85.8324
-85.7005
-85.5517
-85.3857
-85.1947
-84.7725
-87.0923
-87.091
-87.0848
-87.0771
-87.0658
-87.0512
-87.0327
-87.0105
-86.9837
-86.9523
-86.9151
-86.872
-86.8215
-86.763
-86.6948
-86.6164
-86.5272
-86.427
-86.3153
-86.1906
-86.0504
-85.8915
-85.7209
-85.5919
-87.5532
-87.5519
-87.5458
-87.538
-87.5269
-87.5126
-87.4946
-87.4729
-87.4469
-87.4165
-87.3807
-87.3392
-87.2907
-87.2346
-87.1693
-87.0943
-87.0089
-86.9131
-86.8065
-86.6882
-86.5562
-86.4065
-86.233
-86.0692
-88.0223
-88.0209
-88.0148
-88.0073
-87.9965
-87.9825
-87.9649
-87.944
-87.9189
-87.8895
-87.855
-87.8151
-87.7684
-87.7146
-87.652
-87.5801
-87.4981
-87.4064
-87.3041
-87.1906
-87.0641
-86.9207
-86.7558
-86.5562
-88.5004
-88.4989
-88.4928
-88.4852
-88.4744
-88.4606
-88.4434
-88.4229
-88.3984
-88.37
-88.3366
-88.2982
-88.2533
-88.2016
-88.1413
-88.0723
-87.9937
-87.9054
-87.8073
-87.6983
-87.5771
-87.441
-87.2858
-87.0884
-88.9813
-88.9799
-88.9739
-88.9667
-88.9564
-88.9431
-88.9265
-88.9069
-88.8833
-88.856
-88.8239
-88.787
-88.7438
-88.6941
-88.6363
-88.5699
-88.4942
-88.4092
-88.3145
-88.2093
-88.0921
-87.9601
-87.8053
-87.5793
-89.4698
-89.4683
-89.4624
-89.4552
-89.445
-89.432
-89.4158
-89.3967
-89.3738
-89.3474
-89.3164
-89.2808
-89.2393
-89.1915
-89.1359
-89.0721
-88.9993
-88.9175
-88.8265
-88.7257
-88.6139
-88.4885
-88.3426
-88.1495
-89.9613
-89.9598
-89.954
-89.9469
-89.937
-89.9243
-89.9086
-89.8901
-89.868
-89.8426
-89.8127
-89.7784
-89.7384
-89.6926
-89.6391
-89.5779
-89.5078
-89.4292
-89.3415
-89.2444
-89.1367
-89.016
-88.879
-88.6956
-90.4562
-90.4547
-90.449
-90.442
-90.4322
-90.4198
-90.4045
-90.3865
-90.3651
-90.3405
-90.3116
-90.2787
-90.2403
-90.1962
-90.145
-90.0862
-90.0189
-89.9433
-89.859
-89.7657
-89.6627
-89.5485
-89.4204
-89.2375
-90.9514
-90.9499
-90.9442
-90.9375
-90.9281
-90.916
-90.9013
-90.8839
-90.8633
-90.8397
-90.812
-90.7805
-90.7436
-90.7015
-90.6524
-90.5961
-90.5315
-90.4588
-90.3776
-90.2874
-90.1871
-90.0741
-89.9417
-89.7512
-91.4482
-91.4467
-91.441
-91.4344
-91.4251
-91.4134
-91.399
-91.3822
-91.3623
-91.3396
-91.313
-91.2828
-91.2476
-91.2074
-91.1605
-91.1068
-91.0453
-90.9758
-90.8982
-90.812
-90.7164
-90.6081
-90.4785
-90.3008
-91.9434
-91.9419
-91.9364
-91.9299
-91.9209
-91.9096
-91.8957
-91.8796
-91.8605
-91.8387
-91.8134
-91.7846
-91.751
-91.7128
-91.6683
-91.6174
-91.5591
-91.4932
-91.4198
-91.3385
-91.2487
-91.1486
-91.038
-90.8994
-92.4377
-92.4361
-92.4306
-92.4242
-92.4154
-92.4043
-92.3909
-92.3752
-92.3568
-92.336
-92.3117
-92.2843
-92.2525
-92.2163
-92.1742
-92.1262
-92.0711
-92.0092
-91.9403
-91.8645
-91.7818
-91.693
-91.5999
-91.4694
-92.9273
-92.9257
-92.9203
-92.9141
-92.9056
-92.8949
-92.882
-92.8671
-92.8495
-92.8297
-92.8067
-92.7807
-92.7505
-92.7163
-92.6766
-92.6313
-92.5794
-92.5209
-92.4556
-92.3834
-92.304
-92.2166
-92.117
-91.9624
-93.4123
-93.4109
-93.4058
-93.3998
-93.3917
-93.3814
-93.369
-93.3548
-93.338
-93.3192
-93.2973
-93.2727
-93.2442
-93.2119
-93.1745
-93.1319
-93.0831
-93.0281
-92.9666
-92.8987
-92.8239
-92.7399
-92.6366
-92.4734
-93.8928
-93.8913
-93.8862
-93.8805
-93.8726
-93.8627
-93.8508
-93.8371
-93.8211
-93.8032
-93.7824
-93.7592
-93.7322
-93.7019
-93.6667
-93.6267
-93.5809
-93.5294
-93.4721
-93.4092
-93.3411
-93.2664
-93.1797
-93.0752
-94.367
-94.3655
-94.3606
-94.3549
-94.3473
-94.3377
-94.3263
-94.3132
-94.2979
-94.2808
-94.261
-94.2391
-94.2136
-94.185
-94.1518
-94.1142
-94.0711
-94.0226
-93.9685
-93.9085
-93.8424
-93.7695
-93.6885
-93.5308
-94.8338
-94.8323
-94.8275
-94.822
-94.8146
-94.8054
-94.7943
-94.7818
-94.7671
-94.7509
-94.7321
-94.7113
-94.6872
-94.6603
-94.6292
-94.594
-94.5537
-94.5084
-94.4582
-94.4034
-94.3442
-94.2796
-94.2045
-94.1122
-95.2929
-95.2912
-95.2863
-95.2808
-95.2735
-95.2646
-95.2539
-95.2418
-95.2278
-95.2123
-95.1945
-95.1749
-95.1521
-95.1267
-95.0973
-95.0642
-95.0262
-94.9836
-94.9363
-94.8844
-94.8291
-94.7704
-94.7056
-94.603
-95.7402
-95.739
-95.7345
-95.7294
-95.7225
-95.714
-95.7038
-95.6924
-95.6791
-95.6645
-95.6476
-95.629
-95.6075
-95.5836
-95.556
-95.5247
-95.4886
-95.4478
-95.402
-95.3506
-95.2932
-95.2282
-95.1435
-94.8908
-96.1805
-96.179
-96.1744
-96.1692
-96.1625
-96.1542
-96.1444
-96.1335
-96.1208
-96.1069
-96.091
-96.0735
-96.0532
-96.0308
-96.0048
-95.9755
-95.9418
-95.9039
-95.8614
-95.8144
-95.7632
-95.7069
-95.64
-95.5605
-96.6072
-96.606
-96.6018
-96.5971
-96.5907
-96.583
-96.5738
-96.5636
-96.5516
-96.5386
-96.5236
-96.5073
-96.4884
-96.4676
-96.4433
-96.416
-96.3847
-96.3493
-96.3095
-96.2655
-96.218
-96.169
-96.1132
-95.8672
-97.026
-97.0247
-97.0205
-97.0159
-97.0097
-97.0022
-96.9932
-96.9834
-96.972
-96.9597
-96.9456
-96.9303
-96.9125
-96.8931
-96.8705
-96.8453
-96.8163
-96.7838
-96.7475
-96.708
-96.6657
-96.6182
-96.5628
-96.5762
-97.4331
-97.4315
-97.4272
-97.4225
-97.4164
-97.4091
-97.4005
-97.3911
-97.3803
-97.3688
-97.3555
-97.3413
-97.3247
-97.3066
-97.2857
-97.2622
-97.2352
-97.2049
-97.1709
-97.1332
-97.0921
-97.0489
-97.0047
-96.8703
-97.8238
-97.8227
-97.819
-97.815
-97.8094
-97.8028
-97.7949
-97.7863
-97.7762
-97.7655
-97.7532
-97.7399
-97.7246
-97.7079
-97.6885
-97.6668
-97.6417
-97.6136
-97.5818
-97.5466
-97.5086
-97.4677
-97.4119
-97.257
-98.2083
-98.207
-98.2031
-98.1989
-98.1933
-98.1866
-98.1787
-98.1703
-98.1605
-98.1503
-98.1386
-98.1262
-98.1119
-98.0963
-98.0783
-98.0584
-98.0353
-98.0093
-97.9802
-97.9478
-97.9121
-97.8691
-97.8103
-97.7649
-98.5771
-98.5756
-98.5717
-98.5674
-98.5619
-98.5555
-98.548
-98.5401
-98.5309
-98.5214
-98.5105
-98.499
-98.4857
-98.4714
-98.4548
-98.4365
-98.4154
-98.3918
-98.3652
-98.3363
-98.3056
-98.2718
-98.2291
-98.2151
-98.9292
-98.9282
-98.9248
-98.921
-98.916
-98.9102
-98.9033
-98.8959
-98.8874
-98.8786
-98.8684
-98.8579
-98.8457
-98.8326
-98.8174
-98.8005
-98.781
-98.759
-98.7341
-98.7061
-98.6755
-98.6424
-98.5964
-98.3905
-99.2704
-99.2693
-99.2659
-99.2622
-99.2574
-99.2518
-99.2452
-99.2383
-99.2304
-99.2222
-99.2128
-99.203
-99.1917
-99.1796
-99.1657
-99.1504
-99.1327
-99.1128
-99.0905
-99.0659
-99.0395
-99.0099
-98.9754
-98.9389
-99.6005
-99.5989
-99.5952
-99.5912
-99.5863
-99.5806
-99.5741
-99.5673
-99.5597
-99.5519
-99.543
-99.534
-99.5235
-99.5124
-99.4996
-99.4855
-99.4694
-99.4513
-99.4308
-99.4083
-99.3838
-99.3561
-99.3267
-99.3102
-99.9094
-99.9086
-99.9055
-99.9022
-99.8979
-99.8927
-99.8868
-99.8806
-99.8735
-99.8664
-99.8582
-99.8499
-99.8403
-99.8303
-99.8187
-99.8059
-99.791
-99.7743
-99.7556
-99.7346
-99.7117
-99.6863
-99.6598
-99.6202
-100.209
-100.208
-100.204
-100.201
-100.196
-100.191
-100.186
-100.18
-100.173
-100.166
-100.159
-100.151
-100.142
-100.133
-100.122
-100.111
-100.097
-100.082
-100.065
-100.045
-100.023
-99.9967
-99.9651
-99.9105
-100.488
-100.487
-100.484
-100.482
-100.478
-100.473
-100.468
-100.463
-100.457
-100.451
-100.444
-100.438
-100.43
-100.421
-100.412
-100.401
-100.389
-100.375
-100.359
-100.341
-100.32
-100.297
-100.267
-100.204
-100.76
-100.759
-100.756
-100.753
-100.749
-100.744
-100.739
-100.734
-100.728
-100.722
-100.716
-100.71
-100.702
-100.695
-100.686
-100.677
-100.666
-100.653
-100.639
-100.623
-100.605
-100.583
-100.556
-100.511
-101.014
-101.012
-101.009
-101.006
-101.002
-100.998
-100.993
-100.988
-100.983
-100.978
-100.972
-100.966
-100.96
-100.953
-100.946
-100.937
-100.928
-100.917
-100.904
-100.89
-100.874
-100.855
-100.833
-100.79
-101.249
-101.248
-101.246
-101.243
-101.24
-101.236
-101.232
-101.227
-101.222
-101.218
-101.213
-101.208
-101.202
-101.197
-101.19
-101.183
-101.175
-101.165
-101.154
-101.141
-101.126
-101.107
-101.082
-101.02
-101.473
-101.472
-101.469
-101.467
-101.463
-101.46
-101.456
-101.452
-101.448
-101.444
-101.439
-101.435
-101.43
-101.425
-101.42
-101.414
-101.407
-101.399
-101.39
-101.379
-101.366
-101.349
-101.322
-101.268
-101.682
-101.681
-101.679
-101.676
-101.673
-101.669
-101.665
-101.662
-101.658
-101.654
-101.65
-101.647
-101.643
-101.639
-101.634
-101.63
-101.625
-101.619
-101.612
-101.604
-101.594
-101.583
-101.569
-101.54
-101.872
-101.871
-101.869
-101.867
-101.864
-101.861
-101.858
-101.855
-101.852
-101.849
-101.846
-101.843
-101.84
-101.837
-101.834
-101.831
-101.827
-101.822
-101.817
-101.811
-101.803
-101.795
-101.787
-101.748
-102.051
-102.05
-102.048
-102.046
-102.043
-102.04
-102.037
-102.034
-102.031
-102.029
-102.026
-102.024
-102.022
-102.02
-102.018
-102.016
-102.014
-102.011
-102.008
-102.004
-101.999
-101.993
-101.984
-101.949
-102.212
-102.211
-102.209
-102.206
-102.204
-102.201
-102.199
-102.196
-102.194
-102.192
-102.19
-102.189
-102.188
-102.187
-102.186
-102.186
-102.185
-102.184
-102.183
-102.181
-102.18
-102.179
-102.174
-102.164
-102.356
-102.355
-102.353
-102.351
-102.349
-102.347
-102.345
-102.343
-102.341
-102.34
-102.339
-102.339
-102.338
-102.339
-102.339
-102.339
-102.34
-102.34
-102.341
-102.34
-102.338
-102.334
-102.314
-102.185
-102.486
-102.485
-102.483
-102.481
-102.479
-102.477
-102.475
-102.474
-102.473
-102.472
-102.472
-102.472
-102.473
-102.474
-102.476
-102.478
-102.48
-102.483
-102.486
-102.489
-102.494
-102.497
-102.499
-102.568
-102.599
-102.598
-102.596
-102.594
-102.592
-102.59
-102.589
-102.588
-102.587
-102.587
-102.588
-102.589
-102.591
-102.594
-102.596
-102.6
-102.604
-102.608
-102.613
-102.618
-102.624
-102.633
-102.652
-102.606
-102.691
-102.691
-102.689
-102.688
-102.686
-102.685
-102.684
-102.684
-102.684
-102.685
-102.687
-102.689
-102.692
-102.696
-102.701
-102.706
-102.711
-102.718
-102.725
-102.732
-102.739
-102.749
-102.756
-102.669
-102.771
-102.77
-102.769
-102.767
-102.766
-102.765
-102.764
-102.764
-102.765
-102.767
-102.769
-102.773
-102.777
-102.782
-102.788
-102.795
-102.803
-102.811
-102.821
-102.832
-102.844
-102.855
-102.867
-102.952
-102.828
-102.828
-102.826
-102.825
-102.825
-102.825
-102.825
-102.826
-102.827
-102.83
-102.834
-102.838
-102.844
-102.85
-102.858
-102.867
-102.876
-102.887
-102.899
-102.911
-102.926
-102.941
-102.959
-103.013
-102.873
-102.872
-102.871
-102.87
-102.869
-102.869
-102.869
-102.871
-102.873
-102.876
-102.88
-102.886
-102.893
-102.901
-102.91
-102.921
-102.932
-102.945
-102.959
-102.973
-102.988
-103.004
-103.013
-102.846
-102.895
-102.894
-102.893
-102.892
-102.892
-102.892
-102.893
-102.895
-102.898
-102.903
-102.908
-102.915
-102.923
-102.933
-102.944
-102.957
-102.971
-102.987
-103.005
-103.025
-103.047
-103.07
-103.093
-103.267
-102.898
-102.897
-102.896
-102.896
-102.896
-102.897
-102.898
-102.901
-102.905
-102.91
-102.916
-102.925
-102.934
-102.946
-102.958
-102.973
-102.99
-103.009
-103.03
-103.053
-103.077
-103.103
-103.124
-103.041
-102.883
-102.882
-102.881
-102.881
-102.881
-102.882
-102.884
-102.887
-102.892
-102.898
-102.905
-102.914
-102.925
-102.938
-102.953
-102.97
-102.99
-103.013
-103.039
-103.069
-103.104
-103.146
-103.21
-103.46
-102.846
-102.846
-102.844
-102.844
-102.844
-102.846
-102.848
-102.852
-102.857
-102.864
-102.872
-102.883
-102.895
-102.91
-102.926
-102.945
-102.967
-102.992
-103.02
-103.051
-103.086
-103.122
-103.166
-103.237
-102.783
-102.782
-102.782
-102.783
-102.784
-102.786
-102.79
-102.795
-102.801
-102.809
-102.819
-102.83
-102.844
-102.86
-102.878
-102.9
-102.923
-102.951
-102.981
-103.016
-103.055
-103.099
-103.152
-103.213
-102.707
-102.707
-102.706
-102.707
-102.708
-102.71
-102.714
-102.719
-102.726
-102.734
-102.744
-102.757
-102.772
-102.789
-102.809
-102.832
-102.858
-102.887
-102.92
-102.957
-102.998
-103.043
-103.088
-103.127
-102.607
-102.606
-102.605
-102.606
-102.607
-102.61
-102.614
-102.62
-102.627
-102.637
-102.648
-102.662
-102.678
-102.696
-102.718
-102.743
-102.771
-102.802
-102.838
-102.879
-102.925
-102.974
-103.024
-103.15
-102.481
-102.481
-102.481
-102.482
-102.484
-102.487
-102.492
-102.498
-102.506
-102.516
-102.529
-102.544
-102.561
-102.581
-102.605
-102.631
-102.661
-102.695
-102.733
-102.775
-102.821
-102.869
-102.92
-102.99
-102.334
-102.333
-102.333
-102.334
-102.337
-102.34
-102.346
-102.353
-102.362
-102.374
-102.387
-102.403
-102.422
-102.444
-102.469
-102.498
-102.53
-102.567
-102.608
-102.654
-102.704
-102.76
-102.814
-102.799
-102.163
-102.163
-102.163
-102.165
-102.168
-102.172
-102.178
-102.186
-102.196
-102.208
-102.223
-102.24
-102.261
-102.285
-102.312
-102.343
-102.378
-102.417
-102.462
-102.512
-102.568
-102.631
-102.704
-102.846
-101.972
-101.971
-101.972
-101.973
-101.976
-101.981
-101.987
-101.996
-102.006
-102.02
-102.035
-102.054
-102.076
-102.102
-102.131
-102.164
-102.202
-102.244
-102.292
-102.345
-102.404
-102.469
-102.54
-102.588
-101.756
-101.755
-101.755
-101.757
-101.76
-101.765
-101.772
-101.781
-101.793
-101.807
-101.824
-101.844
-101.868
-101.895
-101.926
-101.962
-102.002
-102.048
-102.099
-102.156
-102.221
-102.294
-102.377
-102.463
-101.507
-101.507
-101.509
-101.511
-101.516
-101.522
-101.531
-101.541
-101.554
-101.57
-101.589
-101.611
-101.636
-101.665
-101.699
-101.737
-101.78
-101.828
-101.882
-101.941
-102.006
-102.078
-102.157
-102.173
-101.248
-101.248
-101.249
-101.251
-101.255
-101.262
-101.27
-101.281
-101.295
-101.311
-101.331
-101.354
-101.381
-101.412
-101.448
-101.488
-101.534
-101.585
-101.643
-101.707
-101.78
-101.861
-101.951
-102.062
-100.96
-100.959
-100.96
-100.963
-100.967
-100.974
-100.983
-100.995
-101.009
-101.027
-101.048
-101.073
-101.101
-101.135
-101.172
-101.215
-101.264
-101.318
-101.379
-101.446
-101.519
-101.597
-101.679
-101.722
-100.643
-100.643
-100.645
-100.647
-100.653
-100.66
-100.67
-100.683
-100.698
-100.718
-100.74
-100.767
-100.797
-100.833
-100.873
-100.919
-100.971
-101.029
-101.094
-101.167
-101.248
-101.338
-101.436
-101.551
-100.298
-100.298