/*--------------------------------*- C++ -*----------------------------------*\
| =========                 |                                                 |
| \\      /  F ield         | OpenFOAM: The Open Source CFD Toolbox           |
|  \\    /   O peration     | Version:  2.3.0                                 |
|   \\  /    A nd           | Web:      www.OpenFOAM.org                      |
|    \\/     M anipulation  |                                                 |
\*---------------------------------------------------------------------------*/
FoamFile
{
    version     2.0;
    format      ascii;
    class       volVectorField;
    location    "2000";
    object      U;
}
// * * * * * * * * * * * * * * * * * * * * * * * * * * * * * * * * * * * * * //

dimensions      [0 1 -1 0 0 0 0];

internalField   nonuniform List<vector> 
14036
(
(21.292 9.0845 2.26988e-20)
(21.1472 9.44148 3.07459e-20)
(20.9939 9.79464 0)
(20.8318 10.1604 2.56906e-20)
(20.6602 10.5384 -3.17651e-20)
(20.4787 10.9288 -3.85817e-20)
(20.2853 11.3301 3.49397e-20)
(20.0764 11.7393 -3.53332e-20)
(19.8458 12.1511 0)
(19.5853 12.5592 0)
(19.2852 12.9564 -9.26e-21)
(18.9341 13.336 1.09562e-20)
(18.5203 13.6928 -1.32076e-20)
(18.0314 14.0236 5.89572e-21)
(17.4556 14.3267 -2.60454e-20)
(16.7816 14.6015 8.53151e-20)
(15.9989 14.8485 7.67533e-20)
(15.0984 15.0695 -1.72255e-19)
(14.0712 15.2647 3.38244e-19)
(12.9059 15.4231 -3.75242e-19)
(11.5935 15.526 0)
(10.1531 15.6017 -4.20713e-19)
(8.63581 15.7371 4.55747e-19)
(7.04062 15.7631 -9.17705e-19)
(20.9628 8.92051 0)
(20.8023 9.22207 -7.67851e-20)
(20.6333 9.51703 -8.50639e-20)
(20.4524 9.81321 5.1332e-20)
(20.2566 10.1109 1.74284e-19)
(20.0444 10.4109 -3.46233e-20)
(19.8141 10.7139 -1.78332e-19)
(19.5644 11.0206 2.17212e-19)
(19.2934 11.3307 -2.18128e-19)
(18.9991 11.6431 2.64795e-19)
(18.6793 11.956 9.05486e-21)
(18.3316 12.266 -1.06931e-20)
(17.9534 12.5686 -2.13107e-20)
(17.5424 12.8573 5.31155e-19)
(17.0965 13.1245 -4.74277e-19)
(16.6145 13.3611 0)
(16.0962 13.5569 4.26653e-20)
(15.5428 13.7002 -1.47137e-20)
(14.9567 13.7784 2.21219e-20)
(14.3426 13.7778 4.2564e-20)
(13.7094 13.6832 0)
(13.0719 13.4811 0)
(12.441 13.1606 0)
(11.8149 12.7154 0)
(20.6724 8.7424 0)
(20.5109 8.99778 8.02011e-20)
(20.3389 9.24461 0)
(20.1561 9.48954 -6.02887e-20)
(19.9608 9.73138 0)
(19.7517 9.96979 3.47686e-19)
(19.5273 10.204 -8.84891e-21)
(19.286 10.4333 -8.23705e-19)
(19.026 10.6566 -1.45005e-19)
(18.7455 10.8722 9.77996e-19)
(18.4426 11.0786 4.63627e-20)
(18.1158 11.2734 -1.13779e-18)
(17.7633 11.4539 6.55024e-19)
(17.3842 11.6168 0)
(16.9779 11.7581 -4.2772e-20)
(16.5451 11.8734 4.66545e-19)
(16.0872 11.9576 -5.95184e-19)
(15.6074 12.0056 1.06944e-19)
(15.1101 12.0117 7.22334e-19)
(14.602 11.9707 -1.34613e-18)
(14.0921 11.8783 -1.72424e-20)
(13.5922 11.7315 -6.96288e-20)
(13.1156 11.5286 8.42859e-19)
(12.6778 11.2695 -4.91801e-19)
(20.431 8.55933 -9.52271e-20)
(20.2741 8.77388 2.22454e-20)
(20.1063 8.97831 2.02286e-19)
(19.9286 9.18004 -4.54918e-20)
(19.7403 9.37736 -2.15262e-19)
(19.5405 9.56996 1.16954e-19)
(19.3283 9.75711 -2.61396e-19)
(19.1029 9.93802 5.42517e-19)
(18.8634 10.1117 6.39455e-21)
(18.609 10.2767 -2.18812e-19)
(18.3388 10.4316 0)
(18.0523 10.5741 -4.78446e-19)
(17.7489 10.702 3.9071e-19)
(17.4284 10.8124 5.83278e-20)
(17.0909 10.9022 6.35156e-20)
(16.7375 10.9679 0)
(16.3696 11.0058 6.77066e-20)
(15.9897 11.012 -8.3129e-19)
(15.6014 10.9831 5.99015e-19)
(15.2094 10.9157 7.58344e-19)
(14.8199 10.8076 1.15519e-20)
(14.4396 10.6581 -1.81252e-18)
(14.0764 10.4679 1.43943e-18)
(13.7383 10.2403 -5.01412e-19)
(20.2347 8.38025 -1.23272e-20)
(20.0822 8.55645 6.38746e-21)
(19.9215 8.72576 -2.46606e-19)
(19.7527 8.89207 3.04698e-19)
(19.5751 9.05368 -3.46522e-19)
(19.388 9.20998 2.85036e-19)
(19.1904 9.36023 0)
(18.9817 9.50372 3.28346e-19)
(18.7608 9.63957 -3.39791e-19)
(18.5273 9.76678 -8.49633e-20)
(18.2806 9.88389 5.04469e-19)
(18.0202 9.98936 -3.56215e-19)
(17.746 10.0814 0)
(17.458 10.1578 -5.64563e-19)
(17.1568 10.2161 3.8016e-19)
(16.8433 10.2539 0)
(16.5192 10.2684 0)
(16.1868 10.2569 8.68749e-19)
(15.8494 10.2169 -7.0855e-19)
(15.5108 10.1464 9.99982e-20)
(15.1759 10.044 4.38486e-19)
(14.8501 9.90951 -4.42222e-19)
(14.5391 9.74393 -1.21328e-19)
(14.2486 9.54982 -5.25802e-19)
(20.0678 8.19603 1.25701e-19)
(19.9238 8.34691 -1.35131e-19)
(19.7733 8.48971 3.49627e-19)
(19.6154 8.62823 -2.17608e-19)
(19.4499 8.76207 7.17087e-20)
(19.2764 8.89081 -1.59008e-19)
(19.0943 9.01379 3.45637e-19)
(18.9026 9.13031 -2.53811e-19)
(18.7008 9.23966 8.98254e-20)
(18.4884 9.34098 0)
(18.265 9.43303 -2.12555e-19)
(18.0303 9.51436 -4.71228e-19)
(17.7842 9.58344 5.39154e-19)
(17.5268 9.63856 0)
(17.2586 9.67768 -5.16842e-19)
(16.9805 9.6986 5.94442e-19)
(16.6938 9.69925 -5.97611e-19)
(16.4005 9.67758 6.04123e-19)
(16.1032 9.63161 -4.91279e-19)
(15.8052 9.55985 2.9861e-19)
(15.5102 9.46142 0)
(15.2224 9.33606 0)
(14.9462 9.18488 1.24435e-19)
(14.6859 9.0099 0)
(19.9263 8.03184 1.42757e-19)
(19.7934 8.15425 7.6761e-20)
(19.6542 8.27351 -7.32791e-20)
(19.5074 8.38892 7.64888e-20)
(19.3537 8.5005 1.70614e-19)
(19.1928 8.60774 -1.76705e-19)
(19.0245 8.70987 9.42555e-20)
(18.8477 8.80614 -9.27835e-20)
(18.662 8.89592 -4.15772e-19)
(18.4666 8.97849 3.08309e-19)
(18.2614 9.05288 -2.40186e-19)
(18.0461 9.11772 4.7217e-19)
(17.8209 9.17146 4.68352e-19)
(17.5856 9.21287 -5.38839e-19)
(17.341 9.24027 -7.51807e-20)
(17.0879 9.25156 -8.04646e-20)
(16.8271 9.24468 -8.44953e-20)
(16.5602 9.21812 0)
(16.2899 9.17039 9.7712e-20)
(16.019 9.10013 0)
(15.7506 9.00645 -1.12224e-19)
(15.488 8.88915 -4.87852e-19)
(15.2348 8.74926 3.67003e-19)
(14.9948 8.58843 -1.32256e-19)
(19.8115 7.87575 1.37914e-21)
(19.6874 7.97542 -7.72484e-20)
(19.5579 8.07549 0)
(19.4213 8.17235 -1.75932e-19)
(19.2786 8.26633 1.75467e-19)
(19.1289 8.35673 3.76209e-19)
(18.9728 8.44282 -2.8504e-19)
(18.8088 8.52382 -2.08615e-19)
(18.6366 8.59911 3.18688e-19)
(18.4556 8.66795 -4.44593e-21)
(18.2654 8.72962 -1.17078e-19)
(18.0662 8.78289 1.28437e-19)
(17.8581 8.82583 0)
(17.6402 8.85765 3.6744e-19)
(17.4141 8.87735 1.37215e-20)
(17.181 8.88268 -2.38637e-19)
(16.9413 8.87122 0)
(16.6949 8.84191 3.83948e-19)
(16.445 8.79389 -4.90294e-19)
(16.1945 8.72566 0)
(15.9458 8.6363 1.13148e-19)
(15.7021 8.52518 0)
(15.4655 8.39377 5.92129e-22)
(15.2402 8.24377 1.33482e-19)
(19.7141 7.72811 0)
(19.5999 7.80842 -1.74792e-19)
(19.4804 7.89307 2.6663e-19)
(19.3527 7.97566 -2.71525e-19)
(19.2209 8.05603 -1.92176e-19)
(19.0806 8.13287 9.61926e-20)
(18.9352 8.20603 -1.02828e-19)
(18.782 8.27479 -3.2379e-19)
(18.6213 8.3389 3.35899e-19)
(18.4521 8.39749 3.30583e-21)
(18.2739 8.45009 2.52244e-19)
(18.0871 8.49584 -3.83682e-19)
(17.8945 8.53053 -1.37416e-19)
(17.6891 8.55543 2.28068e-19)
(17.4755 8.57063 -2.27754e-19)
(17.2572 8.57335 -4.23118e-19)
(17.0367 8.55908 3.45986e-19)
(16.806 8.52805 4.80143e-19)
(16.5713 8.48044 -7.02872e-19)
(16.3363 8.41426 4.16826e-19)
(16.1029 8.32889 1.12221e-19)
(15.8744 8.22221 2.43873e-19)
(15.6494 8.09757 1.11796e-20)
(15.4349 7.95731 -2.58532e-19)
(19.6272 7.58883 0)
(19.5293 7.65462 9.08791e-20)
(19.4255 7.72428 0)
(19.3063 7.79527 9.3486e-20)
(19.1837 7.86662 0)
(19.0499 7.932 2.08507e-19)
(18.9165 7.99456 -1.04412e-19)
(18.776 8.05196 1.09916e-19)
(18.6286 8.10553 0)
(18.4724 8.15465 -3.62949e-19)
(18.308 8.19927 4.94518e-19)
(18.1318 8.24272 1.07846e-20)
(17.9565 8.26941 -4.10123e-19)
(17.7635 8.28408 2.92798e-19)
(17.5582 8.29628 0)
(17.3461 8.30281 4.23697e-19)
(17.1403 8.28864 -1.61554e-19)
(16.9181 8.25523 -2.79418e-19)
(16.6935 8.20902 0)
(16.4705 8.14447 0)
(16.2485 8.06365 1.15193e-19)
(16.0344 7.95733 -2.28562e-19)
(15.8149 7.83838 3.75563e-19)
(15.6071 7.70858 -2.51039e-19)
(5.40351 14.9612 9.42855e-19)
(5.20061 13.6242 4.07151e-20)
(5.33286 12.4436 0)
(5.59124 11.4039 -8.39834e-20)
(5.91367 10.4756 0)
(6.28377 9.64014 -8.32737e-20)
(6.68658 8.8832 -1.63723e-19)
(7.11018 8.19611 -2.89471e-19)
(7.54462 7.57173 0)
(7.98206 7.00437 -9.27226e-19)
(8.41565 6.48866 7.28099e-19)
(8.84008 6.01949 -1.27443e-18)
(9.25161 5.59259 7.33116e-19)
(9.64793 5.20401 2.46173e-19)
(10.0279 4.84978 9.79875e-19)
(10.3916 4.52592 -9.69009e-19)
(10.7399 4.22866 0)
(11.0743 3.95415 0)
(11.3966 3.69885 -1.35033e-18)
(11.7088 3.4595 -3.98209e-19)
(12.0127 3.23361 4.07717e-19)
(12.3103 3.02019 -3.92755e-19)
(12.603 2.81534 0)
(12.8901 2.59279 0)
(11.2044 12.1616 3.87129e-20)
(10.7244 11.5246 -8.06546e-20)
(10.3816 10.8666 8.75615e-20)
(10.1544 10.2167 4.20814e-19)
(10.0187 9.58838 -4.2679e-19)
(9.95637 8.98875 0)
(9.95392 8.42225 0)
(10.0007 7.89123 1.14522e-19)
(10.0878 7.39635 -4.67837e-19)
(10.2076 6.93689 2.33861e-19)
(10.3534 6.51123 -9.29122e-19)
(10.52 6.11703 2.07968e-18)
(10.7028 5.75142 -9.17845e-19)
(10.8984 5.41136 -4.4569e-19)
(11.1035 5.09365 4.29912e-19)
(11.3159 4.79535 4.25562e-19)
(11.5336 4.51377 0)
(11.7551 4.24671 8.35785e-19)
(11.979 3.99241 4.25829e-19)
(12.2045 3.7495 1.61154e-18)
(12.4311 3.51734 0)
(12.6585 3.29635 0)
(12.8865 3.08534 1.41293e-18)
(13.1125 2.86474 -6.62324e-19)
(12.2908 10.9548 9.53965e-19)
(11.9619 10.5853 4.17907e-20)
(11.692 10.1729 -7.43138e-19)
(11.4813 9.73447 0)
(11.3266 9.28304 0)
(11.2238 8.82861 0)
(11.1678 8.37863 0)
(11.1534 7.93857 3.73669e-19)
(11.1753 7.5123 -5.7354e-19)
(11.2283 7.10235 1.93607e-19)
(11.3073 6.71026 1.92436e-19)
(11.408 6.3368 3.95366e-19)
(11.5264 5.98194 -3.94629e-19)
(11.659 5.6454 -5.86956e-19)
(11.8027 5.32642 -7.1427e-21)
(11.9552 5.02413 -1.95759e-20)
(12.1144 4.7375 -3.85485e-19)
(12.2788 4.46548 -1.02303e-20)
(12.4475 4.20695 -9.54547e-19)
(12.6196 3.96078 -5.7916e-19)
(12.7948 3.72602 9.10036e-19)
(12.9729 3.50213 -1.79498e-19)
(13.1535 3.28635 6.67331e-19)
(13.334 3.06436 -6.33807e-19)
(13.4295 9.97847 0)
(13.151 9.68381 1.43037e-19)
(12.906 9.3607 7.64544e-20)
(12.6977 9.01718 -1.57256e-19)
(12.5271 8.66056 0)
(12.3936 8.29746 0)
(12.2954 7.93332 1.72513e-19)
(12.2301 7.57251 -6.8984e-21)
(12.1947 7.21851 0)
(12.1861 6.87385 7.41853e-21)
(12.2012 6.5402 -1.88729e-19)
(12.2371 6.21867 0)
(12.2911 5.90972 0)
(12.3606 5.61342 0)
(12.4435 5.32951 6.65962e-21)
(12.5378 5.05757 -6.37183e-21)
(12.6419 4.79699 1.27016e-20)
(12.7543 4.54718 -1.83003e-19)
(12.8739 4.30743 5.50784e-19)
(12.9999 4.07711 -1.11681e-20)
(13.1317 3.85561 -7.02242e-19)
(13.269 3.64276 -6.7845e-19)
(13.4117 3.43667 -6.72444e-19)
(13.5608 3.22401 -6.34869e-19)
(13.9811 9.32945 1.08373e-18)
(13.7369 9.08343 -4.89848e-19)
(13.5184 8.81431 -4.53513e-19)
(13.3282 8.52732 1.53341e-19)
(13.1677 8.22757 3.17934e-19)
(13.0369 7.91992 -1.216e-19)
(12.935 7.60877 -2.15304e-19)
(12.8603 7.29772 -1.76237e-19)
(12.8109 6.98986 3.46209e-19)
(12.7845 6.6875 5.56744e-21)
(12.7787 6.39238 1.80268e-19)
(12.7911 6.1057 -3.51384e-19)
(12.8198 5.82821 -3.54349e-19)
(12.8625 5.5602 7.06469e-19)
(12.9173 5.30176 -7.05568e-19)
(12.9827 5.05278 6.98913e-19)
(13.057 4.81306 1.05248e-20)
(13.1392 4.58233 -3.4453e-19)
(13.2283 4.36013 0)
(13.3236 4.14606 -5.35242e-21)
(13.4247 3.93976 5.29768e-21)
(13.5312 3.74143 3.42693e-19)
(13.643 3.55073 6.4038e-19)
(13.758 3.35673 6.18385e-19)
(14.4438 8.81292 0)
(14.2206 8.59492 -4.40261e-19)
(14.0185 8.35811 4.47742e-19)
(13.8398 8.10636 1.57302e-19)
(13.6858 7.84345 -3.20305e-19)
(13.5569 7.5731 3.27422e-19)
(13.4523 7.29891 0)
(13.3709 7.02391 0)
(13.3113 6.7507 -1.72151e-19)
(13.2717 6.48142 -1.68401e-19)
(13.2502 6.21762 1.73485e-19)
(13.245 5.96046 0)
(13.2546 5.71068 1.68765e-19)
(13.277 5.46857 0)
(13.3107 5.23428 -3.36105e-19)
(13.3541 5.00785 -3.43659e-19)
(13.4058 4.78927 8.23689e-21)
(13.4651 4.57834 3.40301e-19)
(13.5311 4.3747 -8.34607e-20)
(13.6031 4.17791 -2.44997e-19)
(13.6805 3.98772 3.24352e-19)
(13.7632 3.80419 6.44988e-19)
(13.8508 3.62611 -6.37027e-19)
(13.9413 3.44646 -8.88148e-19)
(14.7703 8.40788 1.3841e-19)
(14.5619 8.20912 -1.44063e-19)
(14.3723 7.99459 0)
(14.2038 7.76709 1.56921e-19)
(14.0572 7.52964 8.0849e-20)
(13.9328 7.28531 -8.35937e-20)
(13.83 7.03718 0)
(13.7478 6.78796 8.33353e-20)
(13.6846 6.53998 1.659e-19)
(13.6392 6.29514 -2.46891e-19)
(13.61 6.05496 7.59652e-22)
(13.5956 5.82054 1.65024e-19)
(13.5946 5.59257 -3.72423e-21)
(13.6054 5.37119 -3.28277e-19)
(13.6263 5.15652 3.34205e-19)
(13.6557 4.94895 4.90541e-19)
(13.6926 4.74861 4.91992e-19)
(13.7365 4.55516 0)
(13.7865 4.36824 -8.09959e-20)
(13.8421 4.18728 7.29261e-19)
(13.9023 4.01228 -3.26585e-19)
(13.9671 3.84358 -7.86413e-19)
(14.0375 3.68017 4.61481e-19)
(14.1127 3.51885 3.01891e-19)
(15.0293 8.07493 -1.39654e-19)
(14.8317 7.88974 5.82475e-19)
(14.6513 7.69143 -4.4208e-19)
(14.4908 7.48177 -1.55335e-19)
(14.3504 7.26291 1.52256e-19)
(14.2305 7.03768 4.02245e-20)
(14.1301 6.80906 1.20037e-19)
(14.0482 6.57931 0)
(13.9834 6.35061 -1.64755e-19)
(13.9346 6.12468 -1.61504e-19)
(13.9004 5.90302 1.63307e-19)
(13.8797 5.68689 1.61353e-19)
(13.8717 5.47676 -3.25945e-19)
(13.875 5.27237 1.67994e-19)
(13.8869 5.07388 -1.60724e-19)
(13.906 4.8825 -3.23686e-19)
(13.9323 4.69831 -3.22042e-19)
(13.9653 4.52039 -3.15038e-19)
(14.0041 4.34843 0)
(14.0478 4.18149 -3.13965e-19)
(14.0946 4.02028 -3.89315e-19)
(14.1453 3.86546 5.39364e-19)
(14.2024 3.7158 -1.53805e-19)
(14.2643 3.56651 1.18416e-21)
(15.2363 7.7973 -1.36473e-19)
(15.0454 7.6232 -1.60925e-21)
(14.8707 7.43659 1.47731e-19)
(14.7175 7.24101 -7.35136e-20)
(14.5834 7.03553 -1.52904e-19)
(14.4679 6.82413 -2.52088e-19)
(14.3697 6.61092 1.74706e-20)
(14.2892 6.39604 -1.58089e-19)
(14.2237 6.18258 2.39057e-19)
(14.1731 5.97124 1.62117e-19)
(14.1356 5.7643 -7.9442e-20)
(14.1107 5.56303 4.76378e-19)
(14.0985 5.36747 -1.58159e-19)
(14.0971 5.17691 1.63222e-19)
(14.1022 4.99122 6.99901e-22)
(14.114 4.8145 -3.13207e-19)
(14.1332 4.64473 1.55657e-19)
(14.159 4.48022 5.43084e-19)
(14.1899 4.32121 1.15726e-19)
(14.225 4.16582 -3.83719e-20)
(14.2609 4.01724 3.81128e-21)
(14.3002 3.87495 -1.53247e-19)
(14.3481 3.73792 -1.97718e-21)
(14.3998 3.59707 1.51634e-19)
(15.4211 7.55111 -1.46663e-21)
(15.2275 7.393 -3.17644e-21)
(15.0509 7.21725 0)
(14.9037 7.0361 7.56739e-20)
(14.7745 6.83954 7.53571e-20)
(14.6611 6.63626 1.55274e-19)
(14.5633 6.43794 -1.57968e-19)
(14.485 6.2335 1.1892e-19)
(14.4198 6.03379 -1.18873e-19)
(14.3695 5.83296 0)
(14.3295 5.63884 0)
(14.3017 5.44916 -3.19698e-19)
(14.2871 5.26475 -1.57016e-19)
(14.2839 5.0858 4.5573e-19)
(14.2831 4.91043 0)
(14.2885 4.74985 3.92388e-19)
(14.3027 4.59226 -7.86303e-20)
(14.3225 4.43807 -6.20629e-19)
(14.3468 4.28978 0)
(14.3752 4.14213 0)
(14.4037 4.00744 3.30364e-19)
(14.4357 3.87626 -3.71203e-20)
(14.4782 3.75082 -3.02252e-19)
(14.5221 3.61017 -2.89153e-19)
(-4.91251 -2.50739 0)
(-4.80233 -2.50558 2.82367e-19)
(-4.63687 -2.50391 -1.53301e-19)
(-4.42307 -2.50296 -4.83893e-19)
(-4.16741 -2.50274 -3.41404e-19)
(-3.87594 -2.50302 0)
(-3.55418 -2.50338 1.84852e-19)
(-3.207 -2.5032 0)
(-2.8388 -2.50176 1.99506e-19)
(-2.45336 -2.49827 2.24069e-19)
(-2.05372 -2.49186 -4.51047e-19)
(-1.64222 -2.48155 0)
(-1.2205 -2.46617 4.98298e-19)
(-0.789129 -2.44421 -4.03334e-19)
(-0.347203 -2.41351 6.62028e-20)
(0.108273 -2.37113 -2.21104e-19)
(0.583844 -2.31338 3.11536e-19)
(1.0928 -2.23578 2.52128e-19)
(1.6603 -2.13322 -9.34237e-20)
(2.33128 -2.00081 -7.73949e-19)
(3.1866 -1.8365 -3.07485e-20)
(4.39029 -1.6419 9.40491e-19)
(6.28964 -1.43983 -2.09906e-18)
(9.67654 -1.46652 2.45568e-18)
(-4.88649 -2.49408 5.01034e-19)
(-4.77359 -2.48388 -2.81408e-19)
(-4.61471 -2.47037 0)
(-4.41501 -2.45615 6.25991e-19)
(-4.17891 -2.4415 2.46724e-19)
(-3.91023 -2.42651 -8.55364e-20)
(-3.61204 -2.41109 -1.76121e-19)
(-3.28671 -2.39483 1.80738e-19)
(-2.93596 -2.37698 1.86828e-19)
(-2.56084 -2.35642 -1.92796e-19)
(-2.16154 -2.33172 -4.97674e-19)
(-1.737 -2.30106 9.25712e-19)
(-1.285 -2.26233 -4.26223e-19)
(-0.801394 -2.21304 1.10415e-19)
(-0.279409 -2.15038 0)
(0.290555 -2.07131 1.75482e-19)
(0.92326 -1.97266 -3.07592e-20)
(1.64278 -1.85157 -3.25576e-20)
(2.48685 -1.70701 -6.54325e-20)
(3.51403 -1.54249 2.63233e-19)
(4.81648 -1.37157 -2.88098e-19)
(6.53487 -1.23059 0)
(8.8704 -1.19788 4.11053e-20)
(12.044 -1.42153 0)
(-4.83696 -2.45471 0)
(-4.71722 -2.43383 -1.32897e-19)
(-4.55563 -2.40884 6.96632e-20)
(-4.35665 -2.38197 -2.25955e-19)
(-4.1236 -2.3531 0)
(-3.85896 -2.32211 1.58898e-19)
(-3.56441 -2.28878 1.64882e-19)
(-3.24074 -2.2526 0)
(-2.88795 -2.21278 -1.72822e-19)
(-2.50518 -2.16816 -2.32727e-21)
(-2.09061 -2.11737 4.52432e-19)
(-1.64108 -2.05881 -2.78541e-19)
(-1.15191 -1.99078 1.91025e-19)
(-0.616512 -1.91151 9.75533e-20)
(-0.0253763 -1.81923 -4.02118e-19)
(0.635235 -1.71229 1.03612e-19)
(1.38473 -1.58989 1.0396e-19)
(2.25025 -1.45265 -5.47531e-20)
(3.27061 -1.30442 -5.4815e-20)
(4.4986 -1.15582 5.64577e-20)
(6.00577 -1.02899 -5.83268e-20)
(7.88165 -0.965599 -5.95244e-20)
(10.2186 -1.03609 0)
(13.0528 -1.33917 -4.46033e-19)
(-4.77042 -2.39693 2.48424e-19)
(-4.64356 -2.36064 3.03181e-21)
(-4.47917 -2.3245 -6.1769e-19)
(-4.28033 -2.28468 -7.03104e-20)
(-4.04947 -2.24124 -7.37158e-20)
(-3.78798 -2.19429 -1.13369e-21)
(-3.49635 -2.14377 7.76635e-20)
(-3.17403 -2.08944 7.89284e-22)
(-2.81951 -2.03074 -1.61783e-19)
(-2.43039 -1.96675 -1.63743e-19)
(-2.00336 -1.89635 0)
(-1.53387 -1.8184 0)
(-1.01565 -1.73172 0)
(-0.440321 -1.63537 0)
(0.203232 -1.52864 0)
(0.930318 -1.41122 9.45266e-20)
(1.76121 -1.28417 -1.73814e-19)
(2.72256 -1.15072 1.22996e-19)
(3.84961 -1.01804 1.0177e-19)
(5.18755 -0.899759 -5.41899e-20)
(6.79105 -0.819916 5.56677e-20)
(8.72049 -0.816667 5.61476e-20)
(11.0261 -0.945808 0)
(13.7109 -1.27357 5.38792e-20)
(-4.69159 -2.32318 -2.33957e-19)
(-4.55619 -2.27837 2.50771e-19)
(-4.38751 -2.23307 1.34868e-19)
(-4.187 -2.18316 1.34706e-19)
(-3.95605 -2.12877 2.16701e-21)
(-3.69522 -2.07002 0)
(-3.40415 -2.0069 1.43714e-19)
(-3.08142 -1.93944 0)
(-2.72443 -1.86739 -1.17926e-21)
(-2.32941 -1.79003 1.56315e-19)
(-1.89205 -1.70625 -1.58369e-19)
(-1.40705 -1.61515 0)
(-0.867471 -1.51617 0)
(-0.26395 -1.4091 8.62283e-20)
(0.415499 -1.29419 -8.92101e-20)
(1.18668 -1.17249 0)
(2.06982 -1.04645 1.15439e-20)
(3.09075 -0.920975 -2.04516e-19)
(4.28217 -0.804644 -1.0041e-19)
(5.68288 -0.712225 0)
(7.33787 -0.666788 0)
(9.29241 -0.702527 -1.99495e-19)
(11.5798 -0.864885 2.15944e-19)
(14.1946 -1.20382 4.95831e-20)
(-4.60201 -2.24129 1.13534e-19)
(-4.46002 -2.19209 -1.24483e-19)
(-4.28783 -2.14052 1.27124e-19)
(-4.08602 -2.08374 1.26245e-19)
(-3.85501 -2.02199 2.06227e-21)
(-3.59462 -1.95519 0)
(-3.30411 -1.88327 -1.39239e-19)
(-2.98161 -1.80647 1.41029e-19)
(-2.62377 -1.72527 3.50837e-22)
(-2.22523 -1.63934 -1.45635e-19)
(-1.7806 -1.54722 -1.51481e-19)
(-1.28414 -1.44775 0)
(-0.728955 -1.34078 7.97024e-20)
(-0.105413 -1.2268 0)
(0.599094 -1.10685 8.49189e-20)
(1.40043 -0.982873 -4.50846e-20)
(2.31855 -0.858526 4.34885e-20)
(3.37866 -0.739987 1.85959e-19)
(4.61141 -0.636565 -4.74129e-20)
(6.05268 -0.562845 4.64661e-20)
(7.74097 -0.540594 1.92531e-19)
(9.71355 -0.600781 -1.08224e-19)
(11.995 -0.783238 1.88513e-19)
(14.572 -1.12948 -4.01694e-19)
(-4.50579 -2.16017 1.13103e-19)
(-4.35984 -2.10656 -2.3342e-19)
(-4.18523 -2.05134 0)
(-3.98274 -1.99038 -2.28405e-21)
(-3.75201 -1.92422 -3.17464e-20)
(-3.49197 -1.85258 1.60067e-19)
(-3.2018 -1.77493 6.44793e-20)
(-2.87993 -1.69152 6.72408e-20)
(-2.52315 -1.60388 0)
(-2.12355 -1.5129 1.42946e-19)
(-1.67398 -1.41644 0)
(-1.16851 -1.31226 0)
(-0.600969 -1.19999 -1.55777e-19)
(0.037875 -1.0811 7.99767e-20)
(0.760781 -0.957389 -1.24188e-19)
(1.5839 -0.831304 4.28707e-20)
(2.52609 -0.707389 -2.24395e-21)
(3.61306 -0.593375 -9.11888e-20)
(4.87426 -0.499196 9.37051e-20)
(6.34394 -0.439094 -9.58196e-20)
(8.05748 -0.432854 9.22451e-20)
(10.0461 -0.509248 -2.89578e-19)
(12.3271 -0.705276 -9.33026e-20)
(14.8826 -1.05756 9.46346e-20)
(-4.40817 -2.08324 -1.08435e-19)
(-4.25901 -2.02514 1.14142e-19)
(-4.08281 -1.96797 -2.91586e-20)
(-3.88053 -1.90444 2.84088e-20)
(-3.65103 -1.83591 1.19154e-19)
(-3.39165 -1.76197 -1.24888e-19)
(-3.10143 -1.68128 -1.27576e-19)
(-2.77953 -1.59306 -6.35771e-20)
(-2.42627 -1.50006 -6.61453e-20)
(-2.02943 -1.40596 0)
(-1.57808 -1.3087 0)
(-1.06506 -1.20319 1.43238e-19)
(-0.487389 -1.08782 1.50939e-19)
(0.163248 -0.965226 -8.11217e-22)
(0.899346 -0.838469 -8.03615e-20)
(1.73932 -0.709816 2.0327e-20)
(2.69748 -0.584154 -1.06902e-19)
(3.80111 -0.472048 0)
(5.07954 -0.383749 0)
(6.56841 -0.333903 0)
(8.30121 -0.338689 -8.95832e-20)
(10.3016 -0.423627 6.44068e-21)
(12.5815 -0.626714 3.68308e-19)
(15.123 -0.984 0)
(-4.31094 -2.00489 -4.99433e-20)
(-4.15963 -1.94882 5.45025e-20)
(-3.98165 -1.89108 0)
(-3.77969 -1.8262 -7.68822e-22)
(-3.55179 -1.75636 -1.17406e-19)
(-3.29322 -1.68215 8.95242e-20)
(-3.00183 -1.60128 -3.06259e-20)
(-2.67526 -1.51043 1.2545e-19)
(-2.32648 -1.41275 -6.52429e-20)
(-1.93445 -1.31485 0)
(-1.48372 -1.22001 6.70141e-20)
(-0.961601 -1.11722 -2.10221e-19)
(-0.371271 -1.00096 1.47162e-19)
(0.293682 -0.876168 0)
(1.04428 -0.747735 0)
(1.90481 -0.618179 0)
(2.87871 -0.48882 0)
(3.99922 -0.37782 0)
(5.29199 -0.293363 4.10374e-20)
(6.79898 -0.254382 -4.363e-20)
(8.55814 -0.269218 -2.19987e-21)
(10.5804 -0.357779 -5.46787e-21)
(12.8594 -0.565049 -1.73668e-19)
(15.3819 -0.931929 1.56488e-19)
(-4.22171 -1.93389 5.03118e-20)
(-4.0715 -1.87765 -5.26722e-20)
(-3.89731 -1.81797 -1.40753e-20)
(-3.70325 -1.75158 -2.09015e-19)
(-3.48329 -1.67827 1.44409e-20)
(-3.23047 -1.60355 -1.34082e-19)
(-2.9479 -1.52354 -1.19171e-19)
(-2.6235 -1.42764 0)
(-2.28589 -1.33146 1.26523e-19)
(-1.90825 -1.22111 5.59684e-20)
(-1.46472 -1.12897 8.91376e-21)
(-0.937506 -1.03254 -2.08676e-19)
(-0.348359 -0.91615 -1.47606e-19)
(0.30918 -0.789561 -1.42044e-19)
(1.04837 -0.652676 1.43408e-19)
(1.92091 -0.521266 -1.31829e-19)
(2.88593 -0.382095 -1.78073e-19)
(3.98979 -0.267964 0)
(5.27669 -0.175944 0)
(6.7834 -0.146779 0)
(8.55488 -0.173015 -7.19656e-20)
(10.5677 -0.245203 -1.55175e-19)
(12.8282 -0.419668 1.45586e-19)
(15.3726 -0.791798 -1.43732e-19)
(15.9365 -2.63099 2.31327e-20)
(19.5959 -3.79383 -2.25514e-20)
(20.9627 -4.22119 2.9026e-18)
(21.6246 -4.37143 -2.55124e-18)
(22.0711 -4.4512 2.34684e-20)
(22.382 -4.49297 0)
(22.5965 -4.50712 0)
(22.7376 -4.50038 5.7136e-20)
(22.8202 -4.47722 0)
(22.8564 -4.44121 -5.89464e-19)
(22.857 -4.39537 5.89316e-19)
(22.8311 -4.34219 -2.61251e-20)
(22.7857 -4.28364 2.62603e-19)
(22.7258 -4.2212 -4.55902e-19)
(22.6551 -4.15592 1.83848e-19)
(22.5765 -4.08846 -3.41692e-20)
(22.4919 -4.01945 2.75277e-20)
(22.403 -3.94921 -7.70126e-20)
(22.311 -3.87807 2.07457e-19)
(22.217 -3.80627 -1.29132e-19)
(22.1219 -3.73409 2.38791e-19)
(22.0267 -3.66114 -2.31534e-19)
(21.9322 -3.58679 0)
(21.837 -3.52488 -6.70766e-22)
(15.8813 -2.16829 -1.22034e-18)
(19.5991 -3.28745 1.26888e-18)
(21.4942 -3.89809 -1.09159e-18)
(22.1657 -4.06204 1.10135e-18)
(22.5404 -4.134 1.70149e-18)
(22.7807 -4.17368 -1.53074e-18)
(22.9277 -4.19036 1.12356e-18)
(23.0059 -4.18927 -2.0216e-19)
(23.0333 -4.17425 -8.81531e-19)
(23.0239 -4.14848 5.87552e-19)
(22.9885 -4.11457 -8.81936e-20)
(22.9351 -4.07448 -4.42421e-19)
(22.8692 -4.02976 -1.96574e-20)
(22.7945 -3.98154 -1.43219e-20)
(22.7137 -3.93059 0)
(22.6287 -3.87753 -6.6245e-20)
(22.5408 -3.82281 5.59182e-20)
(22.4509 -3.76674 1.01455e-20)
(22.3599 -3.70958 1.15554e-20)
(22.2682 -3.65156 -3.60193e-20)
(22.1764 -3.59294 -4.83024e-20)
(22.0852 -3.53328 0)
(21.9951 -3.47296 0)
(21.9043 -3.42153 0)
(16.2796 -1.97569 -3.2384e-19)
(19.5971 -2.92279 1.06301e-18)
(21.757 -3.62917 9.03942e-19)
(22.495 -3.83791 -1.8813e-18)
(22.806 -3.89759 8.02729e-19)
(22.9868 -3.92677 6.23602e-19)
(23.0835 -3.93737 -1.55985e-20)
(23.1208 -3.93446 -9.09445e-19)
(23.1167 -3.9213 4.01699e-19)
(23.0844 -3.90055 -5.39486e-19)
(23.033 -3.87406 5.44317e-19)
(22.9688 -3.84314 2.43686e-20)
(22.8959 -3.80878 3.85734e-20)
(22.8173 -3.77163 -1.77068e-19)
(22.7348 -3.73219 2.83775e-19)
(22.6498 -3.69088 -1.14278e-19)
(22.5634 -3.64798 0)
(22.4761 -3.60372 -4.83811e-21)
(22.3886 -3.55828 -6.04265e-20)
(22.3012 -3.51187 9.51378e-20)
(22.2142 -3.46466 4.9925e-20)
(22.1281 -3.41618 0)
(22.0431 -3.36687 1.56257e-19)
(21.9572 -3.32372 -1.51614e-19)
(16.705 -1.85456 4.66532e-19)
(19.7402 -2.67816 4.26657e-19)
(21.9429 -3.3946 -8.42939e-19)
(22.7478 -3.64699 -5.17936e-20)
(23.0037 -3.7003 -7.01546e-19)
(23.1301 -3.72258 7.1992e-19)
(23.1835 -3.72949 0)
(23.1881 -3.72578 5.52842e-20)
(23.1606 -3.71434 2.94666e-19)
(23.1124 -3.69732 -3.17831e-19)
(23.0508 -3.67606 0)
(22.9805 -3.65151 -2.45504e-20)
(22.9045 -3.6243 -1.89598e-20)
(22.8249 -3.59487 0)
(22.7431 -3.56358 -5.8048e-20)
(22.66 -3.53072 5.67983e-20)
(22.5764 -3.49648 0)
(22.4926 -3.46103 3.01347e-20)
(22.4091 -3.4245 1.57153e-20)
(22.326 -3.38706 -5.5052e-20)
(22.2437 -3.34883 0)
(22.1625 -3.30935 5.6652e-20)
(22.0823 -3.26926 1.52187e-19)
(22.0007 -3.23565 -6.23376e-20)
(17.0631 -1.75685 -5.17689e-20)
(19.9267 -2.50673 3.94859e-19)
(22.0829 -3.1974 -5.51118e-19)
(22.9263 -3.47649 2.19893e-21)
(23.1396 -3.52723 0)
(23.2225 -3.54547 -2.34605e-21)
(23.2429 -3.55086 0)
(23.2235 -3.54782 0)
(23.1796 -3.53868 3.69623e-19)
(23.1205 -3.52513 -3.06539e-19)
(23.052 -3.50824 2.13648e-19)
(22.9778 -3.48865 -2.25295e-19)
(22.9001 -3.4669 0)
(22.8206 -3.4433 8.93903e-20)
(22.7401 -3.41814 -5.11056e-20)
(22.6595 -3.39164 -9.04933e-21)
(22.579 -3.36397 0)
(22.499 -3.33526 2.56275e-20)
(22.4197 -3.30563 -4.03764e-20)
(22.3413 -3.27524 -8.0043e-20)
(22.2639 -3.2442 7.8568e-20)
(22.1877 -3.21212 -8.66262e-20)
(22.1126 -3.17947 0)
(22.0362 -3.15203 0)
(17.3628 -1.66729 0)
(20.1104 -2.37119 0)
(22.1945 -3.02946 -2.80071e-19)
(23.0441 -3.32102 8.50833e-19)
(23.2233 -3.3728 -3.45646e-19)
(23.2723 -3.38963 -2.96496e-21)
(23.2685 -3.39548 5.04787e-19)
(23.2327 -3.3942 1.52745e-21)
(23.178 -3.38775 -4.30093e-20)
(23.1122 -3.37752 -2.91331e-19)
(23.0398 -3.36438 0)
(22.9638 -3.3489 1.7987e-19)
(22.886 -3.33151 -1.50541e-19)
(22.8075 -3.31249 8.23578e-20)
(22.7291 -3.2921 -1.46457e-19)
(22.6512 -3.27052 6.53988e-20)
(22.5741 -3.24793 -9.13215e-22)
(22.4979 -3.22446 4.71867e-21)
(22.4229 -3.20024 -4.61578e-20)
(22.349 -3.17548 1.36983e-19)
(22.2764 -3.15025 -2.77708e-20)
(22.2051 -3.12424 -2.20291e-20)
(22.135 -3.09795 -3.33443e-20)
(22.0636 -3.07703 1.20899e-19)
(17.6217 -1.58645 0)
(20.2835 -2.25947 3.49144e-19)
(22.2914 -2.88775 -4.86238e-19)
(23.122 -3.18197 0)
(23.2719 -3.23618 -2.96581e-19)
(23.2949 -3.25357 2.10659e-19)
(23.2736 -3.26114 -2.67848e-19)
(23.2266 -3.26223 1.50554e-19)
(23.165 -3.25851 0)
(23.0952 -3.25122 0)
(23.021 -3.2412 2.1372e-19)
(22.9445 -3.22905 -1.99955e-19)
(22.8675 -3.21514 1.48558e-20)
(22.7906 -3.19966 -9.57809e-20)
(22.7144 -3.1829 7.20625e-20)
(22.6393 -3.16515 -2.29594e-20)
(22.5655 -3.14648 1.58929e-20)
(22.493 -3.12701 0)
(22.4218 -3.10697 1.76464e-20)
(22.352 -3.08666 -1.15455e-20)
(22.2837 -3.06611 -2.32382e-20)
(22.2168 -3.04503 0)
(22.1512 -3.0237 3.44637e-20)
(22.0848 -3.00625 -4.01298e-20)
(17.8282 -1.50732 8.57929e-20)
(20.4269 -2.1565 0)
(22.367 -2.75947 -3.31838e-19)
(23.1691 -3.05489 2.70455e-19)
(23.2961 -3.11533 -7.14673e-20)
(23.3003 -3.13561 -6.07627e-20)
(23.267 -3.14577 5.12508e-20)
(23.2126 -3.14935 0)
(23.1468 -3.14805 1.36607e-19)
(23.0748 -3.14308 -2.41031e-19)
(22.9995 -3.13544 8.09153e-20)
(22.9231 -3.12594 1.97564e-20)
(22.8473 -3.11477 1.24619e-20)
(22.7723 -3.10188 5.49723e-20)
(22.6981 -3.08783 -3.24494e-20)
(22.6256 -3.07306 -4.84185e-21)
(22.555 -3.05736 5.93355e-21)
(22.4859 -3.04088 0)
(22.4181 -3.02408 2.56664e-20)
(22.3518 -3.00741 5.52374e-21)
(22.2876 -2.99069 -4.18653e-20)
(22.2248 -2.97346 0)
(22.1635 -2.95609 0)
(22.1019 -2.94212 4.17871e-20)
(18.0572 -1.45741 -2.55253e-19)
(20.594 -2.08795 0)
(22.4432 -2.66074 0)
(23.1967 -2.9503 -2.16479e-19)
(23.3026 -3.01405 3.59227e-19)
(23.2943 -3.03584 2.81836e-21)
(23.2531 -3.04763 -2.46449e-21)
(23.194 -3.053 0)
(23.1262 -3.05336 0)
(23.0531 -3.04968 0)
(22.9773 -3.04371 0)
(22.9014 -3.03671 0)
(22.8277 -3.02803 -7.33159e-20)
(22.7547 -3.01671 7.38311e-20)
(22.6819 -3.00465 -4.40649e-20)
(22.6122 -2.99263 1.82998e-20)
(22.5447 -2.97924 -1.51025e-21)
(22.478 -2.9647 8.37696e-21)
(22.4123 -2.95023 -2.74591e-20)
(22.3487 -2.93673 1.90005e-20)
(22.2884 -2.92324 4.87271e-20)
(22.2288 -2.909 0)
(22.1713 -2.89498 -3.71631e-20)
(22.1136 -2.88615 3.57473e-20)
(18.0719 -1.32078 0)
(20.6102 -1.93305 -1.52468e-19)
(22.4457 -2.51736 0)
(23.1854 -2.8343 0)
(23.2973 -2.92648 -2.49709e-19)
(23.2834 -2.95105 1.74321e-19)
(23.2366 -2.9635 -4.81707e-20)
(23.1746 -2.9704 -2.23848e-19)
(23.1069 -2.97212 1.40213e-19)
(23.0327 -2.96861 -5.21829e-20)
(22.9553 -2.96378 -3.54248e-20)
(22.8782 -2.9594 4.19247e-20)
(22.8078 -2.95294 -6.48689e-20)
(22.737 -2.94146 6.7551e-20)
(22.6626 -2.9305 -3.80108e-20)
(22.5969 -2.92191 6.04812e-21)
(22.5317 -2.90944 0)
(22.4681 -2.89587 8.2683e-22)
(22.4048 -2.88336 1.45869e-20)
(22.3436 -2.87289 2.08207e-20)
(22.2896 -2.86236 -3.24385e-22)
(22.2315 -2.84969 0)
(22.1816 -2.84 3.50062e-20)
(22.124 -2.83501 -8.61448e-20)
(0.423173 1.93292 1.29952e-19)
(1.88688 2.16076 0)
(3.79061 2.90745 5.57179e-18)
(5.73526 3.91267 -7.86653e-18)
(7.59398 4.93114 3.13059e-18)
(9.32916 5.96449 3.04351e-20)
(10.9735 6.99323 0)
(12.5315 7.98415 0)
(13.9889 8.90111 -1.09791e-18)
(15.3267 9.71559 1.16356e-19)
(16.5271 10.4059 1.02794e-19)
(17.5763 10.9564 1.8351e-19)
(18.4669 11.3574 5.87232e-19)
(19.1994 11.6067 0)
(19.7822 11.7093 -1.20578e-19)
(20.2318 11.6783 -1.03251e-19)
(20.5707 11.5332 0)
(20.8244 11.298 0)
(21.0181 10.9977 1.21148e-20)
(21.1732 10.6563 8.80005e-20)
(21.3058 10.2934 5.51172e-20)
(21.4256 9.92256 -8.31484e-20)
(21.5375 9.55255 4.57494e-20)
(21.6372 9.17634 -1.50755e-19)
(-10.1304 2.12129 -3.48791e-19)
(-9.05783 2.03237 -1.22875e-17)
(-7.53579 1.99828 3.41606e-19)
(-5.83996 2.158 5.26925e-18)
(-3.88382 2.46 -3.69937e-18)
(-1.60892 2.87633 -1.66541e-19)
(0.856713 3.42105 3.21677e-20)
(3.43243 4.08793 3.91801e-20)
(6.03196 4.86472 1.72029e-18)
(8.56605 5.7285 0)
(10.9641 6.64027 0)
(13.1688 7.55122 -1.1823e-19)
(15.135 8.40988 -8.78849e-19)
(16.8311 9.16909 6.35461e-20)
(18.2399 9.79003 1.23079e-20)
(19.3609 10.2465 7.15057e-19)
(20.2115 10.5281 -1.38839e-19)
(20.8251 10.6402 0)
(21.2462 10.6025 7.14259e-20)
(21.5242 10.4442 2.77566e-19)
(21.7059 10.1987 5.41314e-20)
(21.8292 9.89685 0)