/*--------------------------------*- C++ -*----------------------------------*\
| =========                 |                                                 |
| \\      /  F ield         | OpenFOAM: The Open Source CFD Toolbox           |
|  \\    /   O peration     | Version:  2.3.0                                 |
|   \\  /    A nd           | Web:      www.OpenFOAM.org                      |
|    \\/     M anipulation  |                                                 |
\*---------------------------------------------------------------------------*/
FoamFile
{
    version     2.0;
    format      ascii;
    class       volScalarField;
    location    "3000";
    object      nut;
}
// * * * * * * * * * * * * * * * * * * * * * * * * * * * * * * * * * * * * * //

dimensions      [0 2 -1 0 0 0 0];

internalField   nonuniform List<scalar> 
14201
(
0.0608776
0.0576216
0.0544215
0.0512941
0.0482479
0.0452921
0.0424367
0.0396942
0.037079
0.0346094
0.0323052
0.0301808
0.0282518
0.0265383
0.0250475
0.0237079
0.0224051
0.0211071
0.0198094
0.018498
0.0171398
0.0156866
0.014122
0.0127135
0.0641991
0.0614778
0.0588372
0.0562729
0.053787
0.0513837
0.049068
0.046845
0.04472
0.0426991
0.0407881
0.0389933
0.0373221
0.0357845
0.0343889
0.0331428
0.0320518
0.0311196
0.0303543
0.0297601
0.0293413
0.0290988
0.0290322
0.0291395
0.0671673
0.064901
0.0627073
0.0605839
0.0585314
0.0565526
0.0546512
0.052831
0.0510963
0.0494512
0.0479005
0.0464494
0.045103
0.0438677
0.0427496
0.0417556
0.040892
0.0401637
0.0395764
0.0391332
0.0388351
0.0386813
0.0386683
0.0387885
0.0698423
0.0679393
0.0661046
0.0643318
0.0626197
0.0609693
0.0593839
0.0578662
0.0564201
0.055049
0.0537565
0.0525473
0.0514259
0.0503969
0.0494659
0.0486379
0.0479188
0.0473131
0.0468255
0.0464591
0.0462153
0.0460942
0.0460933
0.0462079
0.0722175
0.0706219
0.0690788
0.0675854
0.0661406
0.0647456
0.0634024
0.0621138
0.0608833
0.0597139
0.058609
0.057573
0.0566098
0.0557242
0.0549212
0.0542053
0.0535815
0.0530555
0.0526312
0.0523121
0.0521002
0.0519967
0.0520012
0.0521105
0.0743378
0.0729882
0.0716795
0.0704085
0.0691751
0.0679796
0.066824
0.0657111
0.0646443
0.0636264
0.0626613
0.0617529
0.0609055
0.0601233
0.0594118
0.0587754
0.058219
0.057748
0.0573673
0.0570799
0.056889
0.0567965
0.0568028
0.0569062
0.0762179
0.0750726
0.0739533
0.0728608
0.0717954
0.0707577
0.0697492
0.0687727
0.0678321
0.0669308
0.0660721
0.0652602
0.0644992
0.0637944
0.063151
0.0625736
0.0620671
0.0616367
0.0612872
0.0610229
0.0608469
0.0607621
0.0607693
0.0608677
0.0778959
0.0769107
0.075944
0.0749951
0.0740647
0.0731534
0.0722622
0.0713928
0.0705502
0.0697402
0.0689652
0.0682285
0.0675342
0.0668873
0.0662962
0.0657643
0.0652966
0.0648972
0.0645707
0.0643241
0.06416
0.0640812
0.0640895
0.0641836
0.0793801
0.0785318
0.0776899
0.0768572
0.0760358
0.0752268
0.0744311
0.0736484
0.0728814
0.072143
0.071437
0.0707583
0.0701226
0.0695145
0.0689648
0.0684682
0.0680311
0.06766
0.0673482
0.0671168
0.0669615
0.0668879
0.0668986
0.0669921
0.0807132
0.0799712
0.0792254
0.0784823
0.0777455
0.0770165
0.0762984
0.0755949
0.0748928
0.0742058
0.0735631
0.0729157
0.0723549
0.0717583
0.071243
0.0707742
0.0703564
0.0700253
0.069714
0.0695015
0.0693511
0.0692802
0.0692923
0.0693976
0.0136472
0.0160554
0.0175713
0.019
0.0205517
0.022277
0.0241735
0.0262253
0.0284144
0.0307252
0.0331452
0.0356641
0.0382744
0.040969
0.0437413
0.0465848
0.0494932
0.05246
0.0554782
0.0585406
0.0616402
0.064769
0.0679212
0.0711019
0.0294007
0.0298278
0.0304471
0.0312633
0.032273
0.0334679
0.0348364
0.036365
0.0380389
0.0398437
0.0417659
0.0437933
0.045915
0.0481211
0.0504033
0.0527545
0.0551678
0.0576367
0.060156
0.0627201
0.0653234
0.0679602
0.0706255
0.0733282
0.0390291
0.0393974
0.0399131
0.0405788
0.0413937
0.0423539
0.0434531
0.044683
0.0460346
0.0474981
0.0490636
0.0507223
0.0524653
0.0542842
0.0561727
0.0581245
0.0601335
0.0621947
0.0643037
0.0664562
0.0686475
0.0708737
0.0731315
0.0754348
0.0464308
0.046766
0.0472241
0.0478065
0.0485125
0.049338
0.0502778
0.0513261
0.0524748
0.0537164
0.0550432
0.0564478
0.0579226
0.0594613
0.0610584
0.0627084
0.0644072
0.0661506
0.0679351
0.0697576
0.0716148
0.0735036
0.0754214
0.0773839
0.0523199
0.0526316
0.0530519
0.0535808
0.0542167
0.054955
0.0557902
0.0567169
0.0577276
0.0588156
0.0599744
0.0611966
0.0624764
0.0638081
0.0651865
0.0666074
0.0680677
0.0695638
0.071093
0.0726531
0.0742417
0.0758565
0.077495
0.0791642
0.057104
0.0573978
0.0577907
0.0582814
0.0588672
0.0595438
0.0603049
0.0611446
0.0620565
0.0630336
0.0640692
0.0651568
0.0662911
0.0674668
0.068679
0.0699242
0.0711994
0.0725025
0.073831
0.075183
0.0765563
0.0779497
0.0793615
0.0807936
0.0610555
0.0613343
0.0617057
0.0621678
0.0627163
0.0633468
0.0640528
0.0648279
0.0656658
0.0665592
0.0675012
0.0684863
0.0695089
0.0705642
0.0716472
0.0727547
0.0738848
0.0750358
0.0762052
0.0773909
0.078591
0.0798045
0.0810304
0.082268
0.0643619
0.0646271
0.0649809
0.065421
0.0659413
0.0665362
0.0671994
0.0679251
0.0687062
0.0695343
0.0704029
0.0713074
0.072243
0.0732033
0.0741832
0.0751804
0.076195
0.0772253
0.0782674
0.079319
0.0803787
0.0814453
0.0825187
0.0836009
0.0671574
0.0674092
0.0677483
0.0681721
0.0686707
0.0692368
0.0698651
0.0705531
0.0712902
0.0720652
0.0728733
0.073714
0.0745818
0.0754658
0.0763602
0.0772664
0.0781889
0.0791241
0.0800621
0.0810056
0.0819502
0.0828958
0.0838448
0.0848014
0.0695376
0.0697766
0.0701033
0.0705162
0.0709934
0.0715325
0.0721315
0.0727921
0.0734902
0.0742153
0.074973
0.075766
0.0765833
0.077401
0.078221
0.0790552
0.0799072
0.0807687
0.0816206
0.0824799
0.0833261
0.0841739
0.0850246
0.0858849
0.0581251
0.0529946
0.0478536
0.0428281
0.0380705
0.0337037
0.0297609
0.0262195
0.0230438
0.0201985
0.0176511
0.0153725
0.0133367
0.011521
0.00990521
0.00847225
0.00720793
0.00610233
0.00515497
0.00437354
0.00381447
0.00328172
0.00268493
0.00194244
0.0586201
0.0539942
0.0493654
0.0448112
0.0404335
0.0363355
0.0325764
0.0291614
0.0260694
0.0232738
0.0207482
0.0184692
0.0164166
0.0145728
0.0129252
0.0114667
0.0102019
0.0091394
0.00830657
0.00753496
0.00673581
0.00585977
0.00484816
0.00361557
0.0591775
0.0550547
0.050923
0.0468351
0.0428524
0.039044
0.0354732
0.0321773
0.0291606
0.0264083
0.0238998
0.0216169
0.0195445
0.0176724
0.0159985
0.0145332
0.0132867
0.0122833
0.0113324
0.0103524
0.00929154
0.00810155
0.00672885
0.00510751
0.0597992
0.0561154
0.0524249
0.048758
0.0451485
0.0416367
0.0382681
0.0350892
0.0321342
0.0294108
0.0269077
0.0246109
0.0225108
0.0206053
0.0189042
0.017428
0.0161969
0.0150873
0.0139692
0.0127874
0.0114943
0.0100412
0.00837387
0.00643412
0.0604237
0.0571284
0.0538208
0.0505184
0.04724
0.0440072
0.0408477
0.0377982
0.0349044
0.0322033
0.0296991
0.0273835
0.0252518
0.0233085
0.0215716
0.0200573
0.0187888
0.0175524
0.0162786
0.0149181
0.0134234
0.0117443
0.0098253
0.00760752
0.0610324
0.0580715
0.0550896
0.0520966
0.0491018
0.046116
0.0431548
0.0402426
0.0374211
0.034745
0.0322413
0.0299088
0.0277482
0.0257703
0.024001
0.0224543
0.0210951
0.0197373
0.0183229
0.0168039
0.0151318
0.0132544
0.0111128
0.00864503
0.0616045
0.0589315
0.0562264
0.0534946
0.0507398
0.047967
0.0451839
0.0424061
0.0396658
0.0370222
0.0345248
0.0321811
0.0299978
0.027992
0.026194
0.0246271
0.0231636
0.0216883
0.0201449
0.0184837
0.0166539
0.0145994
0.0122576
0.00956315
0.0621398
0.0597064
0.0572361
0.0547251
0.0521733
0.0495826
0.0469563
0.0443031
0.0416469
0.0390429
0.0365571
0.0342087
0.0320091
0.0299801
0.0281514
0.0265504
0.0250029
0.0234265
0.0217695
0.0199828
0.0180128
0.0158008
0.0132795
0.0103786
0.0625964
0.0603918
0.0581271
0.0558047
0.0534248
0.0509892
0.0485005
0.0459627
0.0433905
0.040829
0.0383566
0.0360069
0.0337988
0.0317552
0.0299003
0.028259
0.0266394
0.0249751
0.0232178
0.0213197
0.0192258
0.0168761
0.0141993
0.0111135
0.0630231
0.0610046
0.0589143
0.0567523
0.0545165
0.0522103
0.0498412
0.0474156
0.0449378
0.0424139
0.0399449
0.0375921
0.0353836
0.03334
0.0314755
0.0297883
0.0281019
0.0263575
0.0245085
0.0225114
0.0203022
0.0178306
0.0150451
0.0118574
0.00105127
0.000814346
0.00108785
0.00138682
0.00167463
0.00195528
0.00223688
0.00253107
0.00285649
0.00324278
0.00373311
0.00435548
0.00508841
0.00592601
0.0068704
0.00792723
0.00910411
0.0104084
0.0118473
0.01343
0.0151664
0.0170664
0.0191391
0.0213961
0.00215165
0.00128696
0.00137719
0.00166977
0.00196647
0.00226266
0.00257192
0.00291353
0.00331082
0.00378912
0.00437216
0.00506682
0.00585121
0.00672429
0.00768911
0.00875097
0.00991559
0.0111883
0.0125757
0.0140855
0.015726
0.0175055
0.0194333
0.0215217
0.00324734
0.00182593
0.00164824
0.00192496
0.0022398
0.00256801
0.00292679
0.0033372
0.00381782
0.00438186
0.0050417
0.00579339
0.00662032
0.00752255
0.00850326
0.00956636
0.0107156
0.0119555
0.0132913
0.0147295
0.0162766
0.0179401
0.019728
0.0216501
0.00423084
0.00236161
0.00190009
0.00215493
0.00249775
0.00287165
0.00329303
0.00377832
0.0043368
0.00497304
0.00569834
0.00649636
0.00735795
0.00828392
0.00927632
0.0103374
0.0114699
0.0126772
0.0139637
0.0153345
0.0167951
0.0183512
0.0200098
0.0217785
0.00509493
0.00285851
0.00213441
0.00236706
0.0027465
0.00317496
0.00366327
0.00422034
0.00484772
0.0055465
0.0063245
0.00716152
0.00805253
0.0089979
0.0099985
0.0110555
0.0121707
0.0133472
0.0145878
0.0158964
0.0172773
0.0187354
0.0202759
0.0219051
0.00585346
0.00330537
0.00235203
0.00256684
0.00298886
0.00347529
0.00402877
0.00465082
0.005338
0.00609195
0.0069133
0.00778368
0.00869982
0.00966135
0.0106678
0.0117196
0.0128181
0.0139653
0.0151634
0.016415
0.0177234
0.0190921
0.0205252
0.0220263
0.00651951
0.00370165
0.00255352
0.00275692
0.00322457
0.00376866
0.00438247
0.00506143
0.00579987
0.00660373
0.00746204
0.00836171
0.00929954
0.0102744
0.011285
0.0123313
0.0134139
0.0145339
0.0156928
0.0168926
0.018135
0.0194223
0.0207573
0.0221415
0.00710441
0.00405114
0.00274036
0.0029384
0.00345255
0.00405133
0.00471953
0.00544857
0.00623322
0.00708
0.00797068
0.00889598
0.00985279
0.0108385
0.0118521
0.0128928
0.0139605
0.0150555
0.0161787
0.017331
0.0185133
0.019727
0.0209729
0.0222524
0.00762187
0.00435553
0.002911
0.00311132
0.00366993
0.00431774
0.00503573
0.00581047
0.00663744
0.00752084
0.00844045
0.00938873
0.0103616
0.0113561
0.0123714
0.013407
0.0144612
0.0155331
0.0166238
0.0177341
0.0188625
0.0200081
0.0211736
0.0223658
0.00818463
0.00467755
0.00308144
0.00327224
0.00387509
0.00458649
0.00534528
0.00615427
0.00701734
0.00793036
0.0088729
0.0098376
0.0108172
0.0118169
0.0128429
0.013884
0.0149242
0.0159657
0.0170327
0.0181167
0.019195
0.0202672
0.021348
0.0224501
0.000587119
0.00202718
0.00414277
0.00647844
0.00878644
0.011012
0.013146
0.0151882
0.017144
0.0190329
0.020901
0.0228041
0.0247718
0.0267861
0.0288394
0.0312586
0.0340107
0.0370087
0.0401873
0.0435034
0.0469287
0.0504422
0.0540266
0.0576601
0.000438794
0.00133104
0.00309717
0.0049863
0.00680155
0.00860229
0.0104225
0.0122633
0.0141185
0.0159833
0.0178584
0.0197548
0.0216877
0.0236674
0.0257195
0.0279638
0.030431
0.0330505
0.0361158
0.0395117
0.0431202
0.0468665
0.0507024
0.0545791
0.000268139
0.000880826
0.00207556
0.00369399
0.00573711
0.00776308
0.00966853
0.011484
0.0132403
0.0149621
0.0166709
0.0183883
0.0201375
0.0219449
0.0238453
0.0258901
0.0281261
0.0305689
0.0333122
0.0363007
0.0397793
0.0435818
0.0475674
0.0516404
0.000292011
0.000754326
0.00176925
0.0031421
0.00491794
0.00699372
0.00906718
0.0110574
0.0129521
0.0147513
0.0164629
0.0181062
0.019712
0.021322
0.0229881
0.0247683
0.0267248
0.0289132
0.0313813
0.0341343
0.0372227
0.0407461
0.0446917
0.048878
0.000266848
0.000672222
0.00158112
0.00280496
0.00438106
0.00633388
0.00847868
0.0106066
0.0126574
0.0146153
0.0164687
0.0182094
0.0198419
0.0213908
0.0229032
0.0244479
0.0261093
0.0279764
0.0301236
0.0325976
0.0354221
0.0386261
0.0422292
0.0463262
0.000266137
0.000626188
0.0014707
0.00260138
0.00405337
0.00586097
0.00797645
0.0101809
0.0123523
0.0144503
0.016455
0.018347
0.0201089
0.021735
0.0232418
0.024677
0.0261225
0.0276869
0.029485
0.0316137
0.0341309
0.0370582
0.0403767
0.0441278
0.000259511
0.000590323
0.00138746
0.00245234
0.00381646
0.00551255
0.00755274
0.00978931
0.0120527
0.0142678
0.0164043
0.0184403
0.0203516
0.0221157
0.0237206
0.0251788
0.0265405
0.027901
0.0293926
0.0311573
0.0333106
0.0359139
0.0389618
0.042398
0.000257578
0.000566978
0.0013287
0.00234521
0.00364468
0.00525784
0.00721335
0.00944106
0.0117658
0.0140779
0.0163296
0.0184942
0.0205461
0.0224565
0.0241993
0.0257602
0.0271525
0.0284347
0.0297205
0.0311685
0.0329449
0.0351747
0.0379041
0.0411005
0.000255092
0.000548037
0.00128157
0.0022605
0.00350966
0.00505794
0.00693812
0.00913212
0.0114932
0.0138851
0.0162383
0.0185181
0.0206975
0.0227466
0.024633
0.0263282
0.0278188
0.0291248
0.0303207
0.0315461
0.032988
0.0348303
0.0371927
0.0401023
0.000253524
0.000533123
0.0012444
0.00219339
0.00340249
0.00489904
0.00671615
0.00886355
0.0112381
0.0136922
0.0161343
0.0185182
0.0208139
0.022991
0.0250153
0.0268512
0.0284697
0.0298625
0.0310634
0.0321724
0.0333624
0.0348488
0.0368221
0.0393875
0.000252005
0.000520659
0.00121347
0.00213786
0.00331412
0.0047682
0.00653252
0.00863024
0.0110006
0.0135008
0.0160202
0.0184987
0.020901
0.0231963
0.0253498
0.027323
0.0290783
0.0305892
0.031858
0.0329417
0.0339763
0.035174
0.0367731
0.0389595
0.000250728
0.000510193
0.00118759
0.00209126
0.00323999
0.00465851
0.00637824
0.00842848
0.0107815
0.0133127
0.0158981
0.0184624
0.020963
0.0233678
0.0256418
0.0277457
0.0296373
0.031279
0.0326513
0.0337752
0.0347427
0.0357363
0.0370094
0.0388148
0.00024954
0.000501177
0.00116533
0.00205123
0.00317635
0.00456456
0.00624604
0.00825284
0.0105805
0.0131293
0.0157695
0.0184112
0.0210031
0.0235095
0.0258962
0.0281233
0.0301467
0.0319223
0.0334159
0.0346218
0.0355912
0.0364648
0.0374807
0.0389291
0.000248367
0.000493225
0.00114574
0.00201622
0.00312075
0.00448252
0.00613093
0.00809861
0.0103964
0.0129514
0.0156357
0.0183468
0.021023
0.0236247
0.0261169
0.0284601
0.0306094
0.032517
0.0341392
0.0354513
0.0364717
0.0372972
0.0381311
0.0392686
0.000247186
0.000486168
0.00112836
0.00198516
0.00307156
0.00441002
0.00602918
0.00796185
0.0102281
0.01278
0.015498
0.0182705
0.0210248
0.0237157
0.026307
0.0287596
0.0310286
0.0330641
0.0348166
0.0362477
0.037351
0.0381841
0.0389069
0.0397941
0.000245953
0.000479806
0.00111271
0.00195727
0.0030275
0.00434517
0.00593826
0.00783932
0.010074
0.0126156
0.015358
0.0181838
0.0210099
0.0237845
0.0264691
0.029025
0.0314075
0.0335658
0.0354469
0.037003
0.0382089
0.0390901
0.0397626
0.0404644
0.000244737
0.000474036
0.00109861
0.00193204
0.00298769
0.00428668
0.00585629
0.00772862
0.00993299
0.012459
0.0152172
0.0180883
0.0209801
0.0238331
0.0266057
0.0292591
0.0317493
0.0340251
0.0360313
0.037714
0.0390341
0.0399913
0.0406624
0.041242
0.00024354
0.000468835
0.00108579
0.00190915
0.00295143
0.00423354
0.00578181
0.0076281
0.00980363
0.0123106
0.0150772
0.0179862
0.0209373
0.0238635
0.0267194
0.0294651
0.0320573
0.0344453
0.0365722
0.0383804
0.0398206
0.0408729
0.0415805
0.0420959
0.000242321
0.000464055
0.00107408
0.00188828
0.00291841
0.00418495
0.00571394
0.00753641
0.00968494
0.0121708
0.0149395
0.0178794
0.0208841
0.0238787
0.026813
0.0296462
0.0323352
0.0348299
0.037073
0.039004
0.0405668
0.0417262
0.0424985
0.0429967
0.000241102
0.000459695
0.00106341
0.00186926
0.00288835
0.00414072
0.00565201
0.00745283
0.00957613
0.0120401
0.0148058
0.0177704
0.0208229
0.0238811
0.0268896
0.0298059
0.0325867
0.035183
0.0375375
0.0395879
0.0412732
0.0425469
0.0434032
0.0439181
0.000239883
0.000455747
0.00105373
0.00185197
0.00286102
0.00410049
0.00559564
0.00737659
0.00947643
0.0119185
0.0146775
0.017661
0.0207561
0.0238735
0.0269524
0.0299475
0.032816
0.0355089
0.03797
0.0401359
0.041942
0.0433335
0.044287
0.0448484
0.00023866
0.000452138
0.00104498
0.0018362
0.00283611
0.00406386
0.00554419
0.00730689
0.00938516
0.0118057
0.0145554
0.0175528
0.0206857
0.0238583
0.0270039
0.0300745
0.0330264
0.0358118
0.0383747
0.0406517
0.0425759
0.0440859
0.045144
0.0457664
0.000237423
0.000448825
0.00103692
0.00182178
0.00281319
0.00403023
0.00549703
0.00724298
0.00930131
0.0117012
0.0144394
0.0174468
0.0206131
0.0238372
0.0270464
0.0301891
0.0332211
0.0360949
0.0387552
0.0411389
0.0431776
0.0448046
0.0459698
0.0466613
0.000236155
0.000445763
0.00102951
0.00180849
0.00279212
0.00399916
0.00545355
0.00718415
0.00922394
0.011604
0.0143293
0.0173431
0.0205387
0.0238108
0.0270806
0.0302927
0.0334016
0.03636
0.0391137
0.0415997
0.0437483
0.0454891
0.0467613
0.0475309
0.000234843
0.00044289
0.00102258
0.00179608
0.00277247
0.00397024
0.00541307
0.00712938
0.00915187
0.0115129
0.0142243
0.0172412
0.0204623
0.023779
0.0271066
0.0303855
0.0335684
0.0366083
0.0394514
0.0420351
0.0442894
0.0461403
0.0475201
0.0483862
0.000233472
0.000440151
0.00101601
0.00178435
0.00275395
0.00394301
0.00537496
0.00707785
0.00908404
0.0114268
0.0141236
0.0171405
0.0203833
0.0237412
0.0271239
0.0304671
0.0337214
0.0368395
0.0397683
0.0424458
0.0448013
0.0467587
0.0482444
0.0492024
0.000232027
0.000437532
0.00100979
0.00177317
0.00273627
0.00391708
0.00533869
0.0070288
0.00901953
0.0113447
0.0140261
0.0170403
0.020301
0.0236967
0.0271316
0.0305367
0.0338599
0.0370534
0.0400648
0.0428323
0.045285
0.0473455
0.0489349
0.0499857
0.00023051
0.000434985
0.00100376
0.00176235
0.00271918
0.00389206
0.00530374
0.00698166
0.00895762
0.0112657
0.0139312
0.0169401
0.0202149
0.0236447
0.0271289
0.0305934
0.0339831
0.0372495
0.0403404
0.0431946
0.0457413
0.0479016
0.0495934
0.050742
0.000228913
0.000432489
0.000997868
0.00175181
0.00270254
0.00386771
0.00526984
0.00693597
0.00889765
0.0111891
0.0138383
0.0168395
0.0201248
0.0235849
0.0271153
0.0306365
0.0340904
0.0374272
0.0405948
0.0435327
0.0461703
0.0484279
0.0502211
0.0514707
0.000227232
0.000430016
0.000992086
0.00174149
0.0026863
0.00384395
0.00523674
0.00689145
0.00883927
0.0111145
0.0137471
0.0167386
0.0200308
0.0235174
0.0270906
0.0306659
0.0341815
0.0375863
0.0408281
0.0438469
0.0465725
0.0489251
0.0508188
0.0521711
0.000225489
0.000427607
0.000986474
0.00173142
0.00267042
0.00382074
0.00520441
0.00684799
0.00878232
0.0110416
0.0136575
0.0166377
0.0199333
0.0234427
0.0270554
0.0306819
0.0342567
0.037727
0.0410404
0.0441375
0.0469486
0.0493939
0.0513864
0.0528405
0.000223679
0.000425244
0.000980988
0.00172159
0.00265494
0.00379813
0.00517293
0.00680565
0.00872685
0.0109707
0.0135699
0.0165372
0.0198333
0.0233619
0.0270105
0.0306853
0.0343169
0.0378503
0.0412329
0.0444058
0.0472998
0.0498355
0.0519255
0.0534827
0.000221813
0.000422943
0.000975673
0.00171207
0.00263993
0.00377618
0.0051424
0.00676461
0.0086731
0.0109018
0.0134844
0.0164381
0.0197321
0.0232762
0.0269575
0.0306777
0.0343634
0.0379575
0.0414068
0.0446529
0.0476274
0.050251
0.0524361
0.0540931
0.000219903
0.000420706
0.00097053
0.00170285
0.00262538
0.00375493
0.00511287
0.00672493
0.00862114
0.0108353
0.0134016
0.016341
0.0196307
0.0231873
0.026898
0.0306608
0.0343981
0.0380504
0.041564
0.0448807
0.0479327
0.0506412
0.0529181
0.0546714
0.000217948
0.000418539
0.000965567
0.00169394
0.00261135
0.00373443
0.00508438
0.00668666
0.00857104
0.0107711
0.0133216
0.0162463
0.0195301
0.0230965
0.0268338
0.0306365
0.0344231
0.0381314
0.041707
0.0450918
0.0482188
0.0510096
0.0533758
0.0552227
0.000215943
0.000416415
0.000960738
0.00168529
0.00259774
0.00371456
0.00505678
0.00664965
0.00852263
0.0107091
0.0132442
0.0161543
0.0194307
0.0230047
0.0267661
0.0306065
0.0344403
0.0382028
0.0418384
0.0452893
0.0484892
0.0513604
0.0538145
0.0557562
0.000213887
0.000414334
0.000956019
0.00167684
0.00258445
0.00369521
0.00502994
0.0066137
0.00847568
0.0106491
0.0131692
0.0160646
0.0193326
0.0229121
0.0266954
0.0305714
0.0344508
0.0382657
0.0419596
0.0454748
0.0487458
0.0516955
0.0542361
0.0562708
0.000211772
0.000412268
0.000951365
0.00166851
0.00257138
0.00367619
0.00500361
0.00657847
0.00842975
0.0105904
0.0130958
0.0159764
0.019235
0.022818
0.026621
0.0305308
0.034454
0.03832
0.0420707
0.0456486
0.0489887
0.052015
0.05464
0.0567679
0.000209596
0.000410209
0.000946746
0.00166025
0.00255842
0.00365735
0.00497755
0.00654366
0.0083844
0.0105325
0.0130234
0.015889
0.0191372
0.0227216
0.0265419
0.0304833
0.0344487
0.0383642
0.0421701
0.0458087
0.0492155
0.0523151
0.05502
0.0572328
0.000207355
0.000408147
0.000942136
0.00165201
0.0025455
0.00363859
0.00495163
0.00650906
0.00833937
0.0104751
0.0129516
0.015802
0.0190385
0.0226223
0.0264574
0.0304282
0.0344337
0.0383968
0.0422561
0.0459533
0.0494244
0.0525941
0.0553746
0.057666
0.000205052
0.000406077
0.000937523
0.00164377
0.0025326
0.00361987
0.00492578
0.00647458
0.00829453
0.0104179
0.0128801
0.015715
0.0189389
0.0225199
0.0263673
0.0303649
0.0344084
0.0384171
0.0423277
0.0460813
0.0496141
0.0528512
0.0557046
0.0580728
0.000202688
0.000403999
0.000932907
0.00163553
0.0025197
0.00360117
0.00489998
0.0064402
0.00824986
0.010361
0.0128089
0.0156283
0.0188387
0.022415
0.0262721
0.030294
0.0343732
0.0384256
0.0423856
0.0461938
0.0497865
0.0530897
0.056017
0.0584725
0.000200259
0.000401902
0.00092827
0.00162726
0.00250678
0.00358246
0.00487419
0.00640589
0.00820533
0.0103043
0.0127381
0.0155419
0.018738
0.022308
0.0261724
0.0302162
0.034329
0.0384233
0.0424311
0.0462923
0.0499434
0.0533113
0.0563102
0.0588418
0.000197767
0.000399787
0.000923609
0.00161897
0.00249382
0.00356371
0.0048484
0.00637158
0.00816088
0.0102478
0.0126675
0.0154556
0.0186371
0.0221991
0.0260688
0.0301323
0.0342768
0.0384112
0.0424654
0.0463782
0.0500863
0.0535173
0.0565861
0.0591948
0.000195215
0.000397645
0.000918904
0.00161061
0.00248078
0.00354488
0.00482252
0.00633723
0.00811639
0.0101913
0.012597
0.0153694
0.0185355
0.0220883
0.025961
0.030042
0.0342161
0.038389
0.0424879
0.0464504
0.0502135
0.0537046
0.0568389
0.0595168
0.000192606
0.000395481
0.000914157
0.00160217
0.00246765
0.00352595
0.00479652
0.00630275
0.00807181
0.0101348
0.0125265
0.0152831
0.0184335
0.0219757
0.0258495
0.0299457
0.0341474
0.0383571
0.0424991
0.04651
0.0503264
0.0538764
0.0570755
0.0598263
0.000189941
0.000393289
0.000909362
0.00159366
0.00245441
0.00350686
0.00477035
0.00626807
0.00802703
0.0100781
0.0124558
0.0151966
0.0183309
0.0218613
0.0257342
0.0298435
0.0340711
0.0383159
0.0424997
0.0465579
0.0504267
0.054035
0.0572991
0.060121
0.00018722
0.000391072
0.000904516
0.00158507
0.00244105
0.00348761
0.00474397
0.00623316
0.00798199
0.0100211
0.0123848
0.0151098
0.0182276
0.0217451
0.0256152
0.0297356
0.0339871
0.0382655
0.0424901
0.0465945
0.0505151
0.0541814
0.0575113
0.0604099
0.000184448
0.00038883
0.000899629
0.00157641
0.00242759
0.00346823
0.00471742
0.00619804
0.00793669
0.0099638
0.0123135
0.0150225
0.0181235
0.0216271
0.0254925
0.0296217
0.0338949
0.0382053
0.0424691
0.0466183
0.0505891
0.0543115
0.0577042
0.0606726
0.000181654
0.000386597
0.000894743
0.00156774
0.00241411
0.00344881
0.00469081
0.00616283
0.00789129
0.00990641
0.0122421
0.014935
0.0180189
0.0215076
0.0253665
0.0295023
0.0337951
0.0381355
0.0424368
0.0466293
0.0506484
0.0544248
0.0578777
0.0609143
0.0001788
0.000384367
0.000889876
0.0015591
0.00240065
0.00342943
0.00466425
0.00612769
0.00784599
0.00984915
0.0121709
0.0148478
0.0179142
0.0213873
0.025238
0.0293781
0.0336884
0.038057
0.042394
0.0466282
0.0506943
0.0545229
0.0580336
0.0611324
0.000175912
0.000382123
0.000885028
0.0015505
0.00238728
0.00341018
0.00463788
0.00609281
0.00780102
0.00979231
0.0121002
0.0147612
0.0178103
0.021267
0.0251082
0.0292507
0.0335764
0.0379712
0.0423424
0.046617
0.050729
0.0546093
0.0581787
0.0613447
0.000173019
0.000379927
0.000880239
0.00154201
0.00237409
0.00339116
0.00461184
0.00605837
0.00775664
0.0097362
0.0120305
0.0146757
0.0177075
0.0211477
0.0249783
0.0291214
0.0334605
0.0378797
0.042284
0.0465976
0.0507546
0.0546861
0.0583144
0.0615504
0.0001701
0.000377758
0.000875512
0.00153368
0.00236114
0.00337248
0.00458624
0.00602452
0.00771297
0.00968108
0.0119619
0.0145917
0.0176064
0.0210299
0.0248489
0.0289912
0.0333418
0.0377837
0.0422192
0.0465707
0.050771
0.0547517
0.0584355
0.0617327
0.000167161
0.000375627
0.000870935
0.00152548
0.00234843
0.00335419
0.00456116
0.00599129
0.00767017
0.00962697
0.0118946
0.0145092
0.0175072
0.020914
0.0247207
0.0288606
0.0332214
0.0376843
0.0421494
0.046537
0.050779
0.0548071
0.0585441
0.0619
0.000164206
0.000373526
0.000866389
0.00151743
0.00233586
0.0033362
0.00453648
0.0059587
0.00762815
0.00957398
0.0118288
0.0144286
0.0174099
0.0208
0.0245942
0.0287306
0.0330998
0.0375823
0.0420755
0.046498
0.0507804
0.0548543
0.0586429
0.0620569
0.000161226
0.000371451
0.000861916
0.00150951
0.00232353
0.0033184
0.00451223
0.00592663
0.00758696
0.00952195
0.0117642
0.0143495
0.0173146
0.0206883
0.0244694
0.0286014
0.0329779
0.0374786
0.0419987
0.0464548
0.0507767
0.0548956
0.0587357
0.0622082
0.000158202
0.000369385
0.000857469
0.00150166
0.00231134
0.00330087
0.00448828
0.00589508
0.00754638
0.00947078
0.0117006
0.0142718
0.0172211
0.0205783
0.0243461
0.028473
0.0328555
0.0373734
0.0419195
0.0464084
0.0507687
0.0549322
0.0588236
0.0623569
0.000155174
0.00036732
0.000853047
0.00149387
0.00229929
0.00328354
0.00446459
0.00586385
0.00750618
0.00942019
0.0116379
0.014195
0.0171286
0.0204695
0.0242236
0.0283445
0.0327322
0.037266
0.0418372
0.0463579
0.050756
0.0549628
0.0589039
0.0624941
0.000152137
0.00036531
0.000848703
0.00148611
0.00228727
0.0032663
0.00444099
0.00583273
0.00746625
0.00936985
0.0115756
0.0141188
0.0170367
0.0203612
0.0241011
0.0282151
0.0326067
0.0371554
0.0417504
0.0463021
0.0507367
0.0549855
0.0589745
0.0626182
0.000149047
0.00036328
0.000844336
0.00147838
0.00227525
0.00324905
0.00441748
0.00580168
0.0074264
0.00931971
0.0115135
0.0140429
0.0169451
0.0202531
0.0239783
0.0280843
0.0324783
0.0370405
0.0416581
0.0462394
0.0507094
0.0549987
0.0590333
0.0627275
0.00014593
0.000361275
0.000840021
0.00147074
0.00226337
0.00323196
0.00439411
0.00577092
0.00738687
0.00926988
0.0114517
0.0139673
0.016854
0.0201453
0.0238552
0.027952
0.0323469
0.0369209
0.0415596
0.0461689
0.0506727
0.0550009
0.0590799
0.0628249
0.000142771
0.00035929
0.000835736
0.00146318
0.00225164
0.00321508
0.00437106
0.00574052
0.00734777
0.0092206
0.0113905
0.0138925
0.0167636
0.0200382
0.0237324
0.027819
0.0322133
0.0367975
0.0414558
0.0460918
0.0506279
0.0549938
0.0591162
0.0629132
0.000139613
0.00035732
0.00083153
0.00145573
0.00224014
0.00319851
0.0043484
0.0057106
0.00730923
0.00917208
0.0113303
0.0138187
0.0166746
0.0199325
0.0236108
0.0276865
0.032079
0.0366717
0.0413479
0.0460093
0.0505763
0.0549782
0.0591422
0.0629867
0.000136451
0.000355426
0.000827457
0.00144845
0.0022288
0.00318226
0.00432611
0.00568116
0.0072714
0.00912438
0.0112712
0.0137464
0.0165873
0.0198287
0.0234912
0.0275553
0.031945
0.0365451
0.0412377
0.045923
0.0505195
0.054956
0.0591594
0.0630478
0.000133231
0.000353508
0.000823351
0.0014412
0.00221753
0.0031661
0.00430411
0.00565212
0.00723418
0.00907753
0.0112132
0.0136755
0.0165015
0.019727
0.0233737
0.0274261
0.0318121
0.0364185
0.0411264
0.0458341
0.050459
0.0549287
0.0591697
0.0630986
0.000129971
0.00035159
0.000819245
0.00143398
0.00220634
0.00315005
0.00428224
0.0056234
0.00719734
0.00903121
0.0111558
0.0136054
0.0164171
0.0196268
0.0232579
0.0272983
0.03168
0.0362918
0.041014
0.0457433
0.0503955
0.0548973
0.0591755
0.0631471
0.000126644
0.000349634
0.000815071
0.00142667
0.00219508
0.00313393
0.00426034
0.00559465
0.00716048
0.00898498
0.0110986
0.0135358
0.0163332
0.0195272
0.0231426
0.0271709
0.0315478
0.036164
0.0409
0.04565
0.0503288
0.0548623
0.0591771
0.0631912
0.0001233
0.000347656
0.000810863
0.00141922
0.00218367
0.00311763
0.00423817
0.00556553
0.00712326
0.00893827
0.0110411
0.0134656
0.0162487
0.019427
0.0230267
0.027042
0.0314135
0.0360335
0.0407821
0.0455523
0.0502569
0.0548213
0.0591721
0.0632281
0.000119898
0.000345669
0.000806578
0.00141168
0.00217197
0.00310102
0.00421556
0.00553587
0.00708533
0.00889086
0.0109826
0.0133943
0.016163
0.0193253
0.0229087
0.0269106
0.0312753
0.0358982
0.0406585
0.0454482
0.0501781
0.0547726
0.0591584
0.0632544
0.000116418
0.000343606
0.000802194
0.00140398
0.00216007
0.00308398
0.00419247
0.00550559
0.00704674
0.00884247
0.010923
0.0133218
0.0160756
0.0192215
0.022788
0.0267755
0.0311323
0.0357567
0.0405278
0.0453357
0.0500899
0.0547137
0.0591335
0.0632687
0.000112918
0.000341553
0.000797777
0.00139622
0.00214808
0.00306681
0.00416912
0.005475
0.00700762
0.00879343
0.0108624
0.0132481
0.0159869
0.0191161
0.022665
0.0266369
0.0309845
0.0356089
0.0403898
0.0452151
0.049993
0.0546455
0.0590989
0.0632743
0.000109399
0.000339528
0.000793401
0.00138852
0.00213617
0.00304972
0.00414585
0.00544442
0.00696841
0.00874426
0.0108016
0.013174
0.0158976
0.0190097
0.0225407
0.0264963
0.0308333
0.0354561
0.0402451
0.0450869
0.0498874
0.0545676
0.0590532
0.0632638
0.000105895
0.000337578
0.000789191
0.00138101
0.00212457
0.00303305
0.00412302
0.00541431
0.00692981
0.00869568
0.0107416
0.0131007
0.0158092
0.0189043
0.0224171
0.0263556
0.0306812
0.0353012
0.0400969
0.0449542
0.0497767
0.0544845
0.0590036
0.0632555
0.000102392
0.000335727
0.000785173
0.00137387
0.0021134
0.00301704
0.00410106
0.00538524
0.00689246
0.00864873
0.0106835
0.0130296
0.0157232
0.0188017
0.0222966
0.0262182
0.0305314
0.0351476
0.039949
0.0448203
0.0496642
0.0543994
0.0589518
0.0632449
9.89066e-05
0.000334
0.000781447
0.00136722
0.00210299
0.00300193
0.00408042
0.00535792
0.00685723
0.0086042
0.0106282
0.0129619
0.0156414
0.0187039
0.0221816
0.0260867
0.0303875
0.034999
0.0398049
0.0446892
0.0495533
0.0543148
0.0588996
0.0632307
9.54519e-05
0.000332426
0.000778009
0.0013611
0.0020934
0.00298803
0.00406129
0.00533258
0.0068245
0.0085628
0.0105766
0.0128988
0.015565
0.0186125
0.0220741
0.0259634
0.0302521
0.0348588
0.0396684
0.0445646
0.0494476
0.0542343
0.05885
0.0632183
9.20385e-05
0.00033097
0.000774874
0.00135548
0.00208465
0.00297533
0.00404379
0.00530933
0.00679439
0.00852472
0.0105292
0.0128406
0.0154944
0.0185281
0.0219748
0.0258497
0.0301274
0.0347291
0.0395419
0.0444491
0.0493498
0.0541602
0.0588053
0.0632087
8.8637e-05
0.000329653
0.00077201
0.00135029
0.0020765
0.00296356