/*--------------------------------*- C++ -*----------------------------------*\
| =========                 |                                                 |
| \\      /  F ield         | OpenFOAM: The Open Source CFD Toolbox           |
|  \\    /   O peration     | Version:  2.3.0                                 |
|   \\  /    A nd           | Web:      www.OpenFOAM.org                      |
|    \\/     M anipulation  |                                                 |
\*---------------------------------------------------------------------------*/
FoamFile
{
    version     2.0;
    format      ascii;
    class       volVectorField;
    location    "3000";
    object      U;
}
// * * * * * * * * * * * * * * * * * * * * * * * * * * * * * * * * * * * * * //

dimensions      [0 1 -1 0 0 0 0];

internalField   nonuniform List<vector> 
14201
(
(23.377 8.4962 0)
(23.2902 8.92172 -1.46267e-20)
(23.1943 9.3499 -3.03209e-20)
(23.0854 9.79347 -2.2833e-20)
(22.9625 10.2546 0)
(22.8261 10.7365 -9.35042e-20)
(22.677 11.2414 1.26567e-19)
(22.5142 11.77 1.58181e-19)
(22.3341 12.3202 -3.30535e-19)
(22.1299 12.8871 2.03472e-19)
(21.8903 13.4631 0)
(21.6012 14.0381 -1.88348e-19)
(21.2464 14.6009 1.90971e-19)
(20.8086 15.1401 -1.7177e-19)
(20.2693 15.6452 1.85582e-20)
(19.6105 16.1064 2.82611e-19)
(18.8141 16.5168 -1.03062e-19)
(17.8638 16.871 -7.28806e-21)
(16.7443 17.1628 5.89939e-20)
(15.4393 17.3781 -6.46912e-20)
(13.934 17.4947 -2.49939e-19)
(12.2355 17.5299 2.81818e-19)
(10.3783 17.5605 0)
(8.38234 17.4113 -9.05849e-21)
(22.9727 8.41771 1.14173e-19)
(22.8563 8.77989 -2.82303e-20)
(22.7309 9.13992 -5.61215e-21)
(22.5894 9.50341 -3.59091e-20)
(22.4281 9.87019 6.22338e-20)
(22.2452 10.2411 -1.26733e-19)
(22.0391 10.617 1.43632e-19)
(21.8081 10.9989 1.18436e-22)
(21.5506 11.3874 0)
(21.2645 11.7826 -1.87685e-19)
(20.9475 12.1832 1.88669e-19)
(20.5966 12.5863 2.64722e-19)
(20.2085 12.9871 5.5677e-20)
(19.7796 13.3788 -3.13487e-19)
(19.3065 13.7529 2.36134e-20)
(18.7862 14.098 -5.93704e-19)
(18.2175 14.401 5.90233e-19)
(17.6013 14.6474 0)
(16.9405 14.82 5.68869e-19)
(16.2413 14.9011 -5.64093e-19)
(15.5151 14.8711 -7.80659e-19)
(14.7797 14.7115 1.73369e-18)
(14.0512 14.4049 -9.7397e-19)
(13.3347 13.9378 -2.10595e-20)
(22.6221 8.31839 -4.97487e-20)
(22.496 8.62276 1.09884e-19)
(22.3565 8.9265 -1.78558e-19)
(22.2027 9.23162 1.77976e-20)
(22.0322 9.53594 1.53823e-19)
(21.8439 9.83905 -1.53914e-19)
(21.6365 10.14 -1.49821e-20)
(21.4084 10.4377 0)
(21.1576 10.7308 3.00284e-20)
(20.8819 11.0175 3.26244e-20)
(20.5788 11.296 3.56685e-20)
(20.2461 11.5636 0)
(19.8819 11.8171 0)
(19.4845 12.0526 -3.42918e-19)
(19.0529 12.2654 3.36047e-19)
(18.5869 12.4496 -2.17067e-20)
(18.0878 12.5991 -4.76128e-19)
(17.5582 12.7072 5.07043e-19)
(17.003 12.7667 -5.83665e-20)
(16.4295 12.7709 0)
(15.8479 12.7142 -2.30754e-20)
(15.2716 12.5926 -4.35359e-19)
(14.717 12.4039 9.41311e-19)
(14.2033 12.1486 -4.4289e-19)
(22.3301 8.18558 0)
(22.198 8.45276 9.80746e-20)
(22.0549 8.70966 1.48325e-19)
(21.8987 8.96501 -3.51771e-20)
(21.7273 9.21719 1.10534e-20)
(21.5401 9.46615 -4.60104e-19)
(21.3366 9.71133 4.87894e-19)
(21.1161 9.95184 -2.51632e-19)
(20.8777 10.1863 -3.19619e-19)
(20.6207 10.4132 2.57986e-19)
(20.3438 10.6305 -3.56636e-20)
(20.0461 10.8359 0)
(19.7268 11.0265 4.63335e-19)
(19.3855 11.199 -4.38772e-19)
(19.0222 11.3497 5.32109e-19)
(18.6377 11.4744 -5.41407e-19)
(18.2334 11.5683 0)
(17.8122 11.6268 0)
(17.378 11.6452 7.90975e-19)
(16.9362 11.6192 6.58591e-20)
(16.4938 11.5459 -8.32121e-19)
(16.059 11.4236 -4.89059e-19)
(15.641 11.253 -3.50522e-20)
(15.2494 11.0375 4.61936e-19)
(22.086 8.073 -5.48867e-20)
(21.9554 8.28984 0)
(21.8143 8.50451 -6.81028e-20)
(21.6622 8.71837 7.07872e-20)
(21.4973 8.9286 3.68946e-20)
(21.3188 9.13476 0)
(21.1261 9.33632 -3.10481e-19)
(20.9188 9.5325 3.10643e-19)
(20.6963 9.72217 -4.53386e-20)
(20.4582 9.90393 0)
(20.2036 10.076 4.03283e-19)
(19.9317 10.2364 -7.86395e-19)
(19.642 10.383 3.26594e-19)
(19.3346 10.5132 5.11781e-19)
(19.0098 10.6241 6.66981e-21)
(18.6686 10.7127 -1.17502e-18)
(18.3127 10.7756 6.16349e-19)
(17.9445 10.8092 7.22469e-19)
(17.5676 10.8105 -7.33132e-19)
(17.1864 10.7768 -4.26953e-19)
(16.8064 10.7064 4.32389e-19)
(16.434 10.5984 0)
(16.0759 10.4538 0)
(15.7388 10.2755 3.52042e-19)
(21.884 7.93388 -5.63948e-21)
(21.7555 8.12649 -1.44989e-19)
(21.6194 8.31096 2.13419e-19)
(21.4745 8.49314 4.42176e-20)
(21.319 8.67103 -1.9264e-19)
(21.1514 8.84449 0)
(20.9711 9.01336 0)
(20.7779 9.17715 -4.79344e-20)
(20.5717 9.33501 -4.83249e-21)
(20.3525 9.48578 0)
(20.12 9.6277 0)
(19.8733 9.75885 -1.16608e-19)
(19.612 9.87739 1.25263e-19)
(19.3361 9.9813 -4.90932e-19)
(19.0458 10.0682 5.68779e-19)
(18.7425 10.1356 -2.89312e-19)
(18.4273 10.1807 3.33125e-19)
(18.1024 10.2008 -3.37129e-19)
(17.7706 10.1934 4.41365e-19)
(17.4355 10.1565 0)
(17.1014 10.089 0)
(16.7731 9.99016 -5.15518e-19)
(16.4558 9.8609 5.87849e-19)
(16.1543 9.7033 0)
(21.7087 7.81264 -5.29992e-21)
(21.5879 7.97686 2.84557e-19)
(21.4596 8.13516 -1.19652e-19)
(21.3239 8.29149 4.07102e-20)
(21.179 8.44384 1.80867e-19)
(21.0234 8.5918 -1.80441e-19)
(20.8559 8.7353 4.98616e-20)
(20.676 8.87425 4.83036e-20)
(20.4838 9.00813 5.09547e-20)
(20.28 9.13614 0)
(20.065 9.25657 0)
(19.8381 9.36728 3.21137e-19)
(19.5984 9.46661 -3.28723e-19)
(19.3457 9.55271 1.53331e-19)
(19.0802 9.62401 -3.02285e-19)
(18.8036 9.67807 0)
(18.5165 9.71256 0)
(18.2211 9.72542 -4.78715e-20)
(17.9199 9.71416 3.2465e-19)
(17.6155 9.67719 -4.35904e-19)
(17.3117 9.61352 4.92579e-19)
(17.0126 9.52261 -8.26298e-19)
(16.7222 9.40499 1.29643e-19)
(16.4447 9.26221 7.18161e-20)
(21.5639 7.69751 0)
(21.4496 7.83995 -4.24165e-20)
(21.3285 7.97629 -2.27826e-19)
(21.2011 8.11198 1.83372e-19)
(21.0666 8.24445 -1.96213e-19)
(20.9227 8.37273 -7.74317e-21)
(20.7676 8.49653 1.53209e-19)
(20.6005 8.6162 2.21152e-19)
(20.4216 8.73148 -2.22067e-19)
(20.2305 8.84221 0)
(20.0297 8.94706 2.58091e-19)
(19.8195 9.04314 -2.60862e-19)
(19.5978 9.12893 0)
(19.3646 9.20233 -2.41033e-21)
(19.1179 9.26299 0)
(18.8625 9.30807 -3.56232e-19)
(18.5971 9.33514 4.56074e-19)
(18.3243 9.34381 -3.08607e-19)
(18.0472 9.3307 4.6896e-19)
(17.766 9.29446 1.14471e-19)
(17.4848 9.23427 0)
(17.2072 9.14956 3.29801e-19)
(16.9373 9.04079 -1.99659e-19)
(16.678 8.9087 -2.17211e-19)
(21.4424 7.59617 9.20861e-20)
(21.335 7.7147 -1.42529e-19)
(21.2203 7.83262 0)
(21.1005 7.95161 2.02327e-19)
(20.9756 8.06859 -3.57599e-19)
(20.8431 8.18191 2.61336e-19)
(20.6997 8.29092 -2.78979e-19)
(20.5437 8.39611 -8.98707e-21)
(20.3773 8.49688 2.33869e-19)
(20.1967 8.59326 -2.55182e-19)
(20.0056 8.68635 5.92664e-19)
(19.8098 8.77154 -2.71591e-19)
(19.6008 8.84752 0)
(19.3862 8.91071 7.72018e-20)
(19.1519 8.96405 0)
(18.9137 9.00435 -3.63792e-19)
(18.6659 9.02526 2.7588e-19)
(18.4073 9.03255 1.06753e-19)
(18.1505 9.01846 1.03221e-20)
(17.8865 8.98301 -3.39074e-19)
(17.6229 8.92593 -1.2742e-19)
(17.3613 8.84608 -1.141e-20)
(17.1068 8.74451 2.65247e-19)
(16.8616 8.62102 2.85589e-19)
(21.3339 7.49859 -4.69965e-20)
(21.2354 7.59811 5.05264e-20)
(21.1292 7.70297 0)
(21.0195 7.80923 1.0965e-19)
(20.9064 7.91396 -1.62541e-19)
(20.7879 8.01498 7.17126e-22)
(20.659 8.11155 -5.51258e-20)
(20.5092 8.20569 -5.8047e-20)
(20.3489 8.29707 -2.44404e-19)
(20.1754 8.38111 2.56407e-19)
(19.9912 8.46545 -1.3461e-19)
(19.8082 8.54188 0)
(19.6044 8.6114 0)
(19.4109 8.66624 8.17974e-20)
(19.1887 8.71033 -2.5655e-19)
(18.9675 8.75228 8.31378e-20)
(18.7336 8.76396 9.79301e-20)
(18.4762 8.77347 -2.99228e-19)
(18.2322 8.76138 -1.08486e-19)
(17.978 8.72635 0)
(17.7305 8.67274 -2.4738e-19)
(17.4809 8.59577 -2.63489e-19)
(17.2336 8.49837 -1.39602e-19)
(16.9949 8.3871 0)
(6.38964 16.3663 6.64205e-19)
(6.07716 14.8549 -6.83601e-19)
(6.1651 13.5569 0)
(6.41485 12.4199 6.19638e-20)
(6.75937 11.4172 0)
(7.16279 10.517 -2.3013e-20)
(7.60254 9.70657 0)
(8.06301 8.97648 1.12685e-18)
(8.53222 8.31877 1.15896e-18)
(9.00053 7.72629 -4.41109e-18)
(9.46035 7.19254 4.72823e-18)
(9.90583 6.71187 8.17057e-21)
(10.3329 6.27916 -4.53129e-18)
(10.7391 5.88932 4.18963e-18)
(11.1232 5.53762 -2.2036e-18)
(11.4856 5.21941 -2.68599e-19)
(11.8275 4.93027 1.51757e-20)
(12.1508 4.66583 5.1466e-19)
(12.4577 4.42203 1.02263e-18)
(12.7505 4.19528 0)
(13.0311 3.98256 -9.48034e-19)
(13.3013 3.78195 4.51268e-19)
(13.5628 3.58955 0)
(13.8164 3.38678 7.86413e-19)
(12.6458 13.3313 0)
(12.1036 12.6313 3.45751e-19)
(11.7091 11.9091 -4.46649e-19)
(11.4393 11.1982 -1.65539e-19)
(11.2686 10.5142 1.14958e-19)
(11.1786 9.86545 -5.92281e-20)
(11.1544 9.25691 -1.15135e-19)
(11.1839 8.69094 0)
(11.2567 8.16782 -1.20136e-19)
(11.3641 7.68642 -1.16663e-18)
(11.4988 7.2445 -1.03395e-18)
(11.6547 6.8391 4.13237e-18)
(11.8268 6.46669 -2.05968e-18)
(12.0108 6.12355 0)
(12.2037 5.80598 2.56025e-19)
(12.4028 5.51051 2.53354e-19)
(12.6059 5.23397 -1.70944e-18)
(12.8113 4.97376 1.21775e-18)
(13.0176 4.72778 -4.82098e-19)
(13.2237 4.49445 9.22001e-19)
(13.4288 4.27268 -9.03195e-19)
(13.6323 4.06243 -5.37476e-20)
(13.8345 3.86221 5.18048e-20)
(14.0356 3.65252 -1.40928e-20)
(13.7465 11.8293 3.48159e-20)
(13.3553 11.4497 7.92968e-20)
(13.0312 11.0227 4.51094e-20)
(12.774 10.567 -8.86772e-20)
(12.5805 10.0972 1.81537e-19)
(12.4454 9.62447 0)
(12.3629 9.1572 1.09482e-19)
(12.3268 8.70162 0)
(12.3305 8.26197 8.65639e-19)
(12.3681 7.8411 -7.5131e-19)
(12.4337 7.44063 0)
(12.5222 7.06126 8.90454e-19)
(12.6288 6.70294 -8.90796e-19)
(12.7494 6.36512 -2.20604e-19)
(12.8808 6.04699 0)
(13.0201 5.74747 -8.99863e-19)
(13.1651 5.46532 6.77676e-19)
(13.314 5.19931 2.27909e-19)
(13.4659 4.9482 0)
(13.6198 4.71071 0)
(13.7751 4.48574 -4.20143e-19)
(13.9314 4.27303 0)
(14.0886 4.07094 0)
(14.2463 3.85898 0)
(14.8895 10.7813 -3.57704e-20)
(14.5626 10.4871 1.21923e-19)
(14.2725 10.1602 -2.86908e-19)
(14.0232 9.80988 4.30522e-20)
(13.8158 9.44449 -1.81679e-19)
(13.6496 9.07169 0)
(13.5224 8.69776 0)
(13.4314 8.32766 -9.77676e-20)
(13.373 7.96544 9.26146e-19)
(13.3437 7.61383 -9.43403e-20)
(13.3399 7.27477 -8.30919e-19)
(13.3581 6.94944 2.05742e-19)
(13.3952 6.6383 0)
(13.4482 6.3415 -4.2563e-19)
(13.5148 6.05867 -1.66826e-21)
(13.5927 5.78934 2.0802e-19)
(13.68 5.53283 8.53906e-19)
(13.7754 5.2884 -8.42698e-19)
(13.8774 5.05525 2.14513e-21)
(13.985 4.83256 8.30058e-19)
(14.0972 4.61969 9.87895e-21)
(14.2132 4.41658 -2.48706e-20)
(14.3322 4.22169 -1.69169e-19)
(14.4545 4.01382 -5.49578e-19)
(15.4259 10.0661 -5.11499e-19)
(15.138 9.82704 1.44242e-19)
(14.8781 9.56146 1.62308e-19)
(14.6493 9.27521 4.349e-20)
(14.4535 8.97413 2.27757e-19)
(14.2905 8.66392 -1.80516e-19)
(14.1594 8.34963 3.80242e-19)
(14.0584 8.0353 -2.80992e-19)
(13.9849 7.72448 0)
(13.9365 7.41975 6.96502e-19)
(13.9104 7.12298 9.64781e-21)
(13.9038 6.83557 -1.00031e-18)
(13.9142 6.55829 -1.98169e-19)
(13.9392 6.29157 -4.04136e-19)
(13.9766 6.03548 1.99203e-19)
(14.0246 5.78998 8.03097e-19)
(14.0818 5.5548 -6.01721e-19)
(14.1467 5.32949 8.05701e-19)
(14.2183 5.11358 -8.02038e-19)
(14.2957 4.90654 0)
(14.3782 4.70793 9.83171e-19)
(14.4651 4.51764 -1.93558e-19)
(14.5556 4.33475 0)
(14.6484 4.14443 3.54799e-19)
(15.8716 9.51976 -2.28485e-19)
(15.6088 9.31174 2.32862e-19)
(15.3687 9.08187 4.10958e-20)
(15.154 8.8345 4.21591e-20)
(14.9664 8.57405 0)
(14.8063 8.30477 8.9967e-20)
(14.6729 8.03089 0)
(14.565 7.75586 3.8097e-19)
(14.481 7.48262 -7.63453e-19)
(14.4189 7.21344 4.79815e-19)
(14.3763 6.95008 -7.79279e-19)
(14.3512 6.69384 7.73755e-19)
(14.3414 6.44557 9.80056e-19)
(14.3451 6.20566 -1.36299e-18)
(14.3603 5.97442 1.36351e-18)
(14.3855 5.75194 -7.83447e-19)
(14.4196 5.53807 5.8296e-19)
(14.4614 5.33243 -3.88523e-19)
(14.51 5.13475 0)
(14.5645 4.94458 0)
(14.6242 4.76169 -1.96205e-19)
(14.6888 4.58582 1.86576e-19)
(14.7575 4.41601 -1.81681e-19)
(14.829 4.24445 -8.57651e-19)
(16.1823 9.09642 0)
(15.937 8.90949 -7.99059e-20)
(15.7116 8.70385 0)
(15.5086 8.48297 1.28358e-19)
(15.3297 8.25052 4.58378e-20)
(15.175 8.00976 -3.62029e-19)
(15.0437 7.76434 9.03222e-20)
(14.9348 7.51751 0)
(14.8473 7.27179 0)
(14.7794 7.02903 -3.8005e-19)
(14.7289 6.79091 3.76599e-19)
(14.6941 6.55874 1.93565e-19)
(14.6733 6.3333 -3.78438e-19)
(14.6648 6.1149 0)
(14.6665 5.90402 3.80785e-19)
(14.6774 5.70096 -5.70076e-19)
(14.6968 5.50534 -1.91246e-19)
(14.7233 5.31694 1.87192e-19)
(14.7562 5.13558 0)
(14.7944 4.96089 -1.85779e-19)
(14.8374 4.79284 -3.73508e-19)
(14.8853 4.63124 1.00734e-20)
(14.9377 4.47534 1.73829e-19)
(14.9932 4.32132 3.53194e-19)
(16.4302 8.75513 1.51635e-19)
(16.1967 8.58313 8.07002e-20)
(15.9819 8.39488 -2.44755e-19)
(15.7878 8.19317 -8.54733e-20)
(15.6162 7.98098 1.73181e-19)
(15.4666 7.76106 0)
(15.3375 7.53661 2.70553e-19)
(15.2287 7.31095 -2.88839e-21)
(15.1395 7.08613 -3.71618e-19)
(15.0686 6.86373 3.67689e-19)
(15.0129 6.64531 0)
(14.9716 6.43238 -1.51476e-21)
(14.9436 6.22537 -3.22921e-21)
(14.9267 6.02453 7.42836e-19)
(14.9188 5.83074 -3.69755e-19)
(14.9195 5.64444 0)
(14.9288 5.46437 -3.70025e-19)
(14.9442 5.29068 3.65038e-19)
(14.9658 5.1239 -1.47875e-21)
(14.9918 4.96285 5.50307e-19)
(15.0223 4.80829 -1.81855e-19)
(15.0575 4.65997 -1.67857e-19)
(15.0975 4.51708 -8.79392e-21)
(15.1412 4.37467 0)
(16.6256 8.47517 -3.02407e-19)
(16.4001 8.31401 7.69573e-20)
(16.1937 8.13948 2.22634e-19)
(16.0061 7.95304 4.1827e-20)
(15.8413 7.75559 -3.64598e-19)
(15.6967 7.55123 0)
(15.5697 7.34235 -1.7851e-19)
(15.4613 7.13344 -2.0129e-21)
(15.3718 6.92457 3.63913e-19)
(15.3003 6.71839 4.52338e-21)
(15.2413 6.51544 4.24534e-21)
(15.1962 6.31802 -3.64563e-19)
(15.1638 6.12592 -3.65409e-19)
(15.1412 5.93921 -2.66137e-21)
(15.1262 5.76042 5.41856e-19)
(15.1206 5.58846 -3.62789e-19)
(15.1237 5.42078 7.22213e-19)
(15.1296 5.25893 -5.41235e-19)
(15.1441 5.10609 -1.80995e-19)
(15.1617 4.95612 -1.77896e-19)
(15.1829 4.81359 0)
(15.2088 4.67685 1.78308e-19)
(15.2391 4.54479 8.87086e-20)
(15.2725 4.41046 -8.52288e-20)
(16.7737 8.24716 -7.47648e-20)
(16.5572 8.09159 -1.95887e-19)
(16.3592 7.92629 -6.01905e-20)
(16.1731 7.75497 1.98633e-20)
(16.0117 7.56984 2.46425e-19)
(15.8732 7.37864 2.59053e-19)
(15.7502 7.17856 -3.46275e-21)
(15.6425 6.98475 -2.31129e-21)
(15.5537 6.78949 1.74507e-19)
(15.4851 6.59844 3.70021e-19)
(15.4252 6.40572 1.95985e-21)
(15.3791 6.21965 -5.57615e-19)
(15.3445 6.03911 1.82203e-19)
(15.3178 5.86399 0)
(15.2984 5.70058 -5.4012e-19)
(15.292 5.53846 1.75281e-19)
(15.2924 5.37742 1.71269e-19)
(15.2888 5.22467 1.76157e-19)
(15.3011 5.0891 0)
(15.3119 4.94532 1.73788e-19)
(15.3253 4.81417 1.7746e-19)
(15.3441 4.68615 1.79537e-19)
(15.3668 4.561 1.79509e-19)
(15.3924 4.42662 1.83978e-21)
(5.48841 -1.78062 1.80342e-19)
(5.00753 -1.74149 6.09199e-19)
(4.57218 -1.70792 4.28847e-19)
(4.17623 -1.67814 -6.94893e-19)
(3.81518 -1.65203 7.46722e-19)
(3.48581 -1.6294 5.35267e-19)
(3.18578 -1.61007 -1.43488e-18)
(2.91326 -1.59389 1.22141e-18)
(2.66668 -1.58069 -1.31296e-18)
(2.44463 -1.57026 -1.73171e-19)
(2.24586 -1.5623 0)
(2.06927 -1.55644 -1.00316e-19)
(1.91404 -1.55212 -1.63888e-18)
(1.77972 -1.5485 1.90556e-18)
(1.6665 -1.54428 2.06486e-18)
(1.57584 -1.53736 -1.13755e-18)
(1.51157 -1.52437 -4.44352e-21)
(1.48259 -1.49994 -1.36763e-18)
(1.50868 -1.45596 0)
(1.63277 -1.38057 1.05808e-19)
(1.94459 -1.25836 -1.16551e-19)
(2.62995 -1.06931 -9.61667e-19)
(4.10802 -0.794592 1.13971e-18)
(7.41075 -0.557815 9.47549e-20)
(5.46678 -1.81095 -5.96753e-21)
(5.0336 -1.78042 -4.113e-19)
(4.63381 -1.75406 0)
(4.26544 -1.73092 0)
(3.92551 -1.71076 -7.42023e-19)
(3.61127 -1.69331 7.8586e-19)
(3.32064 -1.67829 2.76773e-19)
(3.05209 -1.66546 0)
(2.80448 -1.65454 -1.58587e-19)
(2.57708 -1.64515 -1.68942e-19)
(2.3695 -1.63663 1.80329e-19)
(2.18197 -1.62806 1.52497e-18)
(2.01554 -1.61805 -1.84568e-18)
(1.87269 -1.60447 0)
(1.75821 -1.58427 1.19989e-19)
(1.68089 -1.5529 1.29457e-19)
(1.65627 -1.50403 0)
(1.7112 -1.42908 -6.64853e-19)
(1.88968 -1.31824 1.26539e-18)
(2.2631 -1.16248 -6.77135e-19)
(2.95202 -0.9575 -9.40822e-20)
(4.16337 -0.717337 0)
(6.23912 -0.502022 0)
(9.67302 -0.440439 2.13555e-18)
(5.45406 -1.83652 1.90996e-19)
(5.0492 -1.80698 1.30513e-20)
(4.67454 -1.78192 -1.37923e-20)
(4.32677 -1.76088 2.31384e-19)
(4.00323 -1.74251 -2.4847e-19)
(3.70163 -1.72615 5.13626e-19)
(3.42024 -1.71134 -5.44102e-19)
(3.15792 -1.69762 5.73436e-19)
(2.91411 -1.68442 -1.06578e-18)
(2.68888 -1.67098 8.06247e-19)
(2.48295 -1.65616 -1.69986e-19)
(2.29808 -1.63836 0)
(2.13754 -1.61536 9.67663e-20)
(2.00693 -1.58406 0)
(1.91559 -1.5403 6.72023e-19)
(1.87852 -1.47856 -9.58135e-19)
(1.91901 -1.39214 1.02504e-18)
(2.07153 -1.27428 -4.05113e-19)
(2.38643 -1.11962 -5.80045e-19)
(2.9404 -0.926213 7.58843e-20)
(3.84978 -0.70164 3.60379e-21)
(5.28529 -0.475465 0)
(7.47582 -0.317403 0)
(10.632 -0.357724 -1.20077e-19)
(5.4406 -1.83519 -2.55809e-21)
(5.06295 -1.81485 0)
(4.71234 -1.79536 -1.12179e-19)
(4.38485 -1.77686 -5.78942e-19)
(4.07804 -1.75958 -6.87696e-22)
(3.79008 -1.74315 8.85797e-19)
(3.51964 -1.72705 -5.33408e-19)
(3.26594 -1.71064 0)
(3.02894 -1.69316 5.92538e-19)
(2.80945 -1.67359 -6.29465e-19)
(2.60933 -1.65049 1.6836e-19)
(2.43175 -1.6219 0)
(2.28183 -1.58518 -1.91514e-19)
(2.16766 -1.53696 0)
(2.10169 -1.47298 1.07434e-19)
(2.10252 -1.38811 -1.14608e-19)
(2.19669 -1.27722 0)
(2.42079 -1.13622 3.96385e-19)
(2.82693 -0.963255 -5.60672e-19)
(3.48987 -0.761508 1.50268e-19)
(4.51479 -0.544941 -1.65417e-19)
(6.04222 -0.347491 -1.89605e-19)
(8.23939 -0.2338 -8.34409e-19)
(11.231 -0.310271 8.7029e-20)
(5.41954 -1.84295 2.01004e-19)
(5.07329 -1.82285 -1.32932e-20)
(4.74725 -1.80344 2.34046e-19)
(4.43977 -1.78514 -1.15262e-21)
(4.14945 -1.76753 1.19457e-19)
(3.87515 -1.75001 2.50456e-19)
(3.61611 -1.73189 0)
(3.37201 -1.71237 0)
(3.14327 -1.69049 -1.46692e-19)
(2.93137 -1.66513 0)
(2.73905 -1.6347 -1.62524e-19)
(2.57075 -1.59704 1.75798e-19)
(2.4329 -1.54935 1.84682e-19)
(2.33518 -1.48825 6.95871e-19)
(2.29184 -1.40979 -8.51641e-19)
(2.32317 -1.30966 -4.54639e-19)
(2.45689 -1.18424 4.82977e-19)
(2.73024 -1.03145 0)
(3.19523 -0.851682 0)
(3.9235 -0.651034 -1.51888e-19)
(5.01115 -0.44621 0)
(6.58086 -0.271321 5.51187e-19)
(8.76965 -0.185563 -3.93651e-19)
(11.6726 -0.276494 2.14984e-19)
(5.40599 -1.84273 0)
(5.08502 -1.82416 -1.33891e-20)
(4.78087 -1.8059 1.38978e-20)
(4.49187 -1.78755 0)
(4.21711 -1.7692 -1.41181e-21)
(3.95592 -1.75035 1.51383e-21)
(3.70812 -1.73024 -1.3059e-19)
(3.4738 -1.7079 -1.37109e-19)
(3.25378 -1.68226 8.61442e-19)
(3.04985 -1.65211 -7.62095e-19)
(2.86558 -1.61602 0)
(2.70652 -1.57169 -8.58948e-19)
(2.58007 -1.51613 -1.84472e-19)
(2.49687 -1.446 1.08152e-18)
(2.47208 -1.35774 -4.20173e-19)
(2.52675 -1.24788 4.4777e-19)
(2.68886 -1.11388 0)
(2.99608 -0.954837 0)
(3.49976 -0.772725 0)
(4.26888 -0.575224 -7.76168e-20)
(5.39381 -0.379948 1.63883e-19)
(6.98578 -0.219932 -8.90767e-20)
(9.16689 -0.149869 -5.87124e-19)
(12.0155 -0.246824 -6.32256e-19)
(5.39056 -1.84321 3.01047e-19)
(5.09639 -1.82472 0)
(4.8133 -1.80562 -2.23146e-19)
(4.54165 -1.78646 2.29934e-19)
(4.28144 -1.76702 -1.20313e-19)
(4.03251 -1.74675 -1.22807e-19)
(3.7953 -1.72487 1.28036e-19)
(3.57038 -1.70024 -1.54842e-21)
(3.35897 -1.6715 1.42785e-19)
(3.16264 -1.63741 -3.02981e-19)
(2.98542 -1.59711 3.19456e-19)
(2.83454 -1.54836 -5.11938e-19)
(2.71808 -1.4876 1.80532e-19)
(2.64724 -1.41142 2.50176e-21)
(2.63745 -1.31652 -6.23818e-19)
(2.71008 -1.20021 4.41854e-19)
(2.89327 -1.06068 0)
(3.2248 -0.897786 -1.27053e-19)
(3.75572 -0.714541 -1.36806e-19)
(4.55302 -0.519711 1.46351e-19)
(5.70377 -0.331385 0)
(7.31304 -0.181144 0)
(9.49225 -0.120459 -4.63658e-21)
(12.3063 -0.220826 3.96956e-19)
(5.38258 -1.84828 -2.57246e-19)
(5.1096 -1.82448 5.43005e-20)
(4.84511 -1.80329 1.11104e-19)
(4.58913 -1.7829 0)
(4.34226 -1.76221 -4.63359e-22)
(4.10443 -1.74051 1.22992e-19)
(3.87698 -1.71711 -1.28571e-19)
(3.66089 -1.69087 2.67729e-19)
(3.45795 -1.65983 0)
(3.26877 -1.62204 4.45865e-19)
(3.09658 -1.57829 -7.9155e-19)
(2.95235 -1.52703 8.40733e-19)
(2.8446 -1.46342 -3.5922e-19)
(2.7846 -1.38369 -1.90559e-19)
(2.78712 -1.2846 2.03276e-19)
(2.87347 -1.16423 4.37045e-19)
(3.07209 -1.02116 -2.31866e-19)
(3.42028 -0.85576 -1.26584e-19)
(3.96902 -0.671612 2.67729e-19)
(4.78278 -0.478578 1.44156e-19)
(5.94779 -0.296441 3.18596e-19)
(7.56485 -0.154405 -3.45783e-19)
(9.73659 -0.0979153 1.86859e-19)
(12.5186 -0.191592 -3.92518e-19)
(5.38149 -1.84358 0)
(5.12742 -1.82061 0)
(4.87998 -1.79921 0)
(4.63734 -1.7779 0)
(4.40196 -1.75601 1.18686e-19)
(4.17306 -1.73296 1.22273e-19)
(3.95307 -1.70807 3.81161e-19)
(3.74353 -1.68032 -6.63054e-19)
(3.55054 -1.64815 4.5336e-22)
(3.36977 -1.60655 -1.4751e-19)
(3.1989 -1.55938 6.25154e-19)
(3.05761 -1.50714 -1.67271e-19)
(2.95579 -1.44238 -1.78086e-19)
(2.9058 -1.36066 -3.77009e-19)
(2.92052 -1.25864 4.01248e-19)
(3.02102 -1.13547 -2.12396e-19)
(3.23678 -0.990191 -5.16985e-22)
(3.60329 -0.822495 6.07088e-19)
(4.17475 -0.636299 -3.90678e-19)
(5.00799 -0.441037 2.82017e-19)
(6.1909 -0.262009 -6.52783e-19)
(7.83501 -0.126191 3.72941e-19)
(10.0394 -0.0769275 -7.03302e-19)
(12.8281 -0.176332 0)
(5.35671 -1.8431 5.18146e-20)
(5.12486 -1.81396 -5.7738e-20)
(4.89773 -1.79022 5.98155e-20)
(4.67212 -1.76849 -5.87131e-20)
(4.45225 -1.74595 -1.21125e-19)
(4.23565 -1.72225 0)
(4.02873 -1.69684 5.87651e-22)
(3.82214 -1.66894 -1.35877e-19)
(3.62705 -1.63727 -2.77146e-19)
(3.46404 -1.59067 -2.91545e-19)
(3.29591 -1.5389 3.14876e-19)
(3.16258 -1.48676 -3.34845e-19)
(3.06583 -1.42355 -1.53708e-21)
(3.01938 -1.34307 1.88995e-19)
(3.03326 -1.24114 -1.5391e-21)
(3.12897 -1.11632 -4.21649e-19)
(3.3402 -0.971397 -4.48662e-19)
(3.69846 -0.802317 -2.41228e-19)
(4.25826 -0.613731 -2.57442e-19)
(5.07593 -0.402503 -2.36962e-19)
(6.24069 -0.223539 2.62321e-19)
(7.83786 -0.0922409 0)
(9.9532 -0.0286009 3.4176e-19)
(12.6614 -0.0664179 3.56346e-19)
(14.2602 -1.13318 1.36832e-19)
(17.414 -1.76894 -8.17289e-20)
(18.6852 -1.97541 0)
(19.4173 -2.07493 -1.15332e-19)
(19.94 -2.13494 0)
(20.3327 -2.17469 -5.86104e-18)
(20.6324 -2.19948 1.06245e-17)
(20.8594 -2.21293 -4.88155e-18)
(21.0263 -2.21724 -1.43219e-19)
(21.1421 -2.214 4.48021e-18)
(21.2143 -2.20446 -4.17543e-18)
(21.2502 -2.18973 -3.87848e-18)
(21.2576 -2.17087 3.52801e-18)
(21.2432 -2.1489 -2.1911e-19)
(21.2123 -2.12465 2.11721e-19)
(21.1691 -2.0987 0)
(21.1166 -2.07151 0)
(21.0574 -2.04335 3.82381e-19)
(20.9931 -2.01441 2.99878e-18)
(20.9253 -1.9848 -2.89762e-18)
(20.855 -1.95465 3.58616e-19)
(20.7832 -1.92373 -7.0282e-19)
(20.7105 -1.89082 2.06419e-18)
(20.6366 -1.86538 -1.98993e-18)
(14.2435 -0.873743 -2.16833e-18)
(17.7612 -1.51767 6.82798e-20)
(19.1949 -1.76073 0)
(19.8874 -1.85761 1.07603e-19)
(20.3542 -1.91942 -3.10377e-18)
(20.69 -1.96467 2.78254e-18)
(20.932 -1.99686 1.63707e-19)
(21.1021 -2.01859 -4.86437e-18)
(21.2148 -2.03156 4.64486e-18)
(21.2815 -2.03713 4.18339e-18)
(21.312 -2.03658 -8.13221e-18)
(21.315 -2.03104 3.84468e-18)
(21.2978 -2.02159 1.15725e-19)
(21.2659 -2.00906 2.22249e-19)
(21.2233 -1.99418 0)
(21.1731 -1.9774 0)
(21.1172 -1.95913 -3.04984e-18)
(21.0574 -1.93961 2.54498e-18)
(20.9948 -1.91901 0)
(20.9301 -1.89747 0)
(20.864 -1.8751 1.49496e-18)
(20.7972 -1.85156 -1.45455e-18)
(20.73 -1.82656 -3.61049e-19)
(20.6622 -1.80751 0)
(14.5303 -0.756965 -1.25695e-19)
(17.9749 -1.34166 0)
(19.5168 -1.61789 -3.81216e-18)
(20.1737 -1.71497 3.16761e-18)
(20.5901 -1.77354 0)
(20.879 -1.81658 -2.83694e-18)
(21.0773 -1.84825 2.43784e-18)
(21.2074 -1.87093 0)
(21.2852 -1.88622 0)
(21.3233 -1.89546 -1.37108e-19)
(21.332 -1.89974 2.08191e-18)
(21.3196 -1.90005 -1.96221e-18)
(21.2921 -1.89715 -2.37574e-19)
(21.254 -1.89164 -3.66235e-18)
(21.2083 -1.88394 3.50036e-18)
(21.1574 -1.87437 0)
(21.1027 -1.8632 -2.0752e-19)
(21.0454 -1.8506 2.02937e-19)
(20.9864 -1.83672 0)
(20.9261 -1.82169 0)
(20.865 -1.80562 3.85468e-19)
(20.8036 -1.7882 -1.52666e-18)
(20.7424 -1.76941 1.11605e-18)
(20.6808 -1.755 7.31208e-19)
(14.8603 -0.678436 1.17642e-18)
(18.1654 -1.21417 1.93507e-18)
(19.7597 -1.50996 -2.04648e-18)
(20.3847 -1.60829 2.07075e-19)
(20.755 -1.66453 1.92592e-19)
(21.0014 -1.70602 0)
(21.1619 -1.73718 2.65459e-18)
(21.2596 -1.76029 2.77245e-20)
(21.3113 -1.77692 -2.32572e-18)
(21.3299 -1.78833 1.37692e-19)
(21.3251 -1.79554 -1.32458e-19)
(21.3041 -1.79937 -2.02623e-18)
(21.2718 -1.80042 2.16536e-18)
(21.2318 -1.79912 0)
(21.1862 -1.79581 0)
(21.1368 -1.79076 -2.19679e-19)
(21.0848 -1.78416 1.7174e-18)
(21.0309 -1.77616 -1.45583e-18)
(20.9758 -1.76689 -1.44447e-18)
(20.9199 -1.75647 3.23439e-18)
(20.8634 -1.745 -1.98744e-18)
(20.8069 -1.73229 0)
(20.7506 -1.71832 -3.8944e-19)
(20.6943 -1.70743 7.62236e-19)
(15.1504 -0.623461 -2.2434e-19)
(18.3337 -1.12674 0)
(19.9438 -1.42899 2.20346e-19)
(20.5411 -1.52713 -1.65562e-18)
(20.8722 -1.58096 1.3243e-18)
(21.0833 -1.62096 2.84671e-18)
(21.2131 -1.65152 -2.80729e-18)
(21.2857 -1.67473 0)
(21.3181 -1.69211 0)
(21.3228 -1.70482 -1.41375e-19)
(21.3088 -1.71382 -1.13974e-21)
(21.2823 -1.71978 0)
(21.2471 -1.72322 2.47937e-19)
(21.2062 -1.72453 -2.3924e-19)
(21.1613 -1.724 0)
(21.1137 -1.72185 4.49845e-19)
(21.0643 -1.71826 1.76379e-18)
(21.0137 -1.71336 -3.44144e-18)
(20.9623 -1.70727 1.68547e-18)
(20.9106 -1.70011 1.88398e-18)
(20.8586 -1.69197 -1.64284e-18)
(20.8066 -1.68274 -8.19976e-19)
(20.7549 -1.67242 2.02413e-18)
(20.7033 -1.66395 -1.59023e-18)
(15.39 -0.579472 1.96308e-18)
(18.4768 -1.06059 6.86136e-19)
(20.082 -1.364 -1.72501e-18)
(20.6536 -1.46275 0)
(20.9512 -1.51502 0)
(21.133 -1.55389 1.42477e-18)
(21.2385 -1.58382 -1.16261e-18)
(21.2922 -1.60686 -1.58641e-19)
(21.3108 -1.62453 2.40907e-18)
(21.3062 -1.63795 4.5004e-19)
(21.2863 -1.64798 -2.03798e-18)
(21.2564 -1.65524 0)
(21.2199 -1.66019 -2.27857e-18)
(21.1789 -1.66319 1.94186e-18)
(21.135 -1.66449 1.90129e-18)
(21.0894 -1.6643 -2.067e-18)
(21.0425 -1.66278 -2.03587e-18)
(20.995 -1.66005 1.31976e-18)
(20.9472 -1.65622 -2.17468e-19)
(20.8992 -1.65142 -1.29324e-18)
(20.8514 -1.64569 8.48589e-19)
(20.8037 -1.639 -2.11373e-19)
(20.7564 -1.63136 0)
(20.7091 -1.62492 4.16231e-19)
(15.6021 -0.544686 -4.22398e-19)
(18.605 -1.01063 2.15519e-19)
(20.1893 -1.31281 0)
(20.7352 -1.41181 -2.02424e-19)
(21.0041 -1.46272 0)
(21.1615 -1.50046 0)
(21.2479 -1.52963 1.51558e-18)
(21.2872 -1.55233 -7.89099e-19)
(21.296 -1.57001 3.04223e-19)
(21.285 -1.58375 -2.88314e-19)
(21.2613 -1.59435 0)
(21.2295 -1.60236 0)
(21.1924 -1.60823 0)
(21.1519 -1.6123 -1.32438e-21)
(21.1094 -1.61484 -2.42579e-19)
(21.0657 -1.61599 0)
(21.0213 -1.61588 2.30566e-19)
(20.9766 -1.61464 2.26587e-19)
(20.9319 -1.61243 6.73858e-19)
(20.8875 -1.60933 5.63761e-21)
(20.8433 -1.60536 -1.97512e-18)
(20.7994 -1.60053 1.08831e-18)
(20.756 -1.59494 -4.36334e-19)
(20.7127 -1.59041 4.31116e-19)
(15.7544 -0.500945 6.08226e-19)
(18.6933 -0.956898 4.26854e-19)
(20.2645 -1.26486 -4.21523e-19)
(20.7932 -1.36924 1.39815e-18)
(21.0391 -1.42029 -7.46999e-19)
(21.1775 -1.45735 0)
(21.2486 -1.48584 -1.67353e-19)
(21.2771 -1.50799 -1.60373e-18)
(21.2784 -1.52546 9.12863e-19)
(21.2629 -1.53927 0)
(21.2367 -1.55013 2.81771e-19)
(21.2038 -1.55852 1.08646e-18)
(21.1665 -1.5649 -1.0424e-18)
(21.1267 -1.56968 -5.10969e-19)
(21.0854 -1.5731 1.23006e-18)
(21.0435 -1.5752 -2.41468e-19)
(21.0014 -1.57599 0)
(20.9592 -1.57573 -1.16497e-18)
(20.9172 -1.57471 9.13619e-19)
(20.8758 -1.57284 2.26942e-19)
(20.835 -1.57008 2.25632e-19)
(20.7946 -1.56656 0)
(20.7545 -1.56253 0)
(20.7148 -1.55986 0)
(15.9824 -0.480161 -3.95564e-19)
(18.8082 -0.934583 -8.31412e-19)
(20.336 -1.24578 4.10927e-19)
(20.838 -1.34376 -7.88254e-19)
(21.0651 -1.38939 3.73744e-19)
(21.185 -1.42334 -7.08801e-19)
(21.2443 -1.44984 6.69366e-19)
(21.2644 -1.47129 -1.28825e-18)
(21.2603 -1.48846 1.53186e-18)
(21.2413 -1.50226 0)
(21.2135 -1.5132 -2.829e-19)
(21.1798 -1.52169 -2.74392e-19)
(21.1425 -1.52828 0)
(21.103 -1.53348 -2.56937e-19)
(21.0628 -1.53763 -1.00699e-18)
(21.0231 -1.54045 9.77629e-19)
(20.9831 -1.54168 0)
(20.9427 -1.54203 1.18855e-18)
(20.9031 -1.54202 -7.00849e-19)
(20.865 -1.54118 0)
(20.8269 -1.53925 0)
(20.7891 -1.5366 0)
(20.7515 -1.53376 0)
(20.7144 -1.53348 2.33076e-19)
(15.8568 -0.336267 1.0862e-20)
(18.695 -0.830843 -4.21536e-19)
(20.3395 -1.21102 1.2221e-18)
(20.8693 -1.31738 -3.88237e-19)
(21.0768 -1.36161 2.55034e-21)
(21.192 -1.3939 -7.04201e-19)
(21.2394 -1.42034 -5.01631e-21)
(21.2514 -1.44074 -4.7782e-21)
(21.2425 -1.45743 9.29264e-19)
(21.221 -1.47117 -5.93214e-19)
(21.1923 -1.48197 0)
(21.1581 -1.49011 -1.18462e-21)
(21.1208 -1.49654 0)
(21.082 -1.50209 0)
(21.0429 -1.5072 -1.00976e-18)
(21.0056 -1.51095 9.81804e-19)
(20.967 -1.51193 9.91894e-19)
(20.9274 -1.51245 -9.75603e-19)
(20.8899 -1.51362 0)
(20.8544 -1.5136 0)
(20.8184 -1.51168 0)
(20.7838 -1.50953 4.81396e-19)
(20.7492 -1.50767 -7.23183e-19)
(20.7144 -1.50959 2.40359e-19)
(1.058 2.40448 9.26128e-20)
(3.69268 2.8603 0)
(6.55135 3.97459 0)
(9.21084 5.41496 -2.31208e-18)
(11.5269 6.81927 1.82567e-18)
(13.5976 8.13033 0)
(15.4704 9.33698 -2.85194e-20)
(17.1492 10.403 -2.99157e-20)
(18.6244 11.294 0)
(19.8869 11.9907 0)
(20.9318 12.482 -7.19334e-20)
(21.7629 12.769 0)
(22.3935 12.861 -2.9442e-19)
(22.8473 12.7786 4.58135e-20)
(23.1556 12.5499 2.45495e-19)
(23.3534 12.2078 0)
(23.4763 11.7878 0)
(23.5545 11.3221 0)
(23.6104 10.8365 -4.10961e-20)
(23.6569 10.349 -7.05126e-20)
(23.6994 9.87003 -5.06241e-20)
(23.7388 9.40415 1.13592e-19)
(23.7751 8.9546 -4.49767e-20)
(23.8166 8.50152 9.48337e-20)
(-13.1313 1.49394 -1.40548e-17)
(-10.9441 1.57293 2.44236e-19)
(-8.24865 1.80662 0)
(-5.29685 2.2743 0)
(-1.96995 2.93386 0)
(1.53551 3.76718 0)
(5.09727 4.73618 -1.34786e-18)
(8.53994 5.80668 1.31539e-18)
(11.7426 6.9278 -1.01588e-18)
(14.6243 8.03375 9.08336e-19)
(17.1307 9.05635 8.8481e-20)
(19.2303 9.93556 -6.43419e-19)
(20.9127 10.6252 5.38742e-19)
(22.1915 11.0985 1.37812e-19)
(23.1026 11.3493 0)
(23.701 11.392 0)
(24.0546 11.2582 0)
(24.2347 10.989 -2.50061e-19)
(24.3057 10.6278 2.39992e-19)
(24.3177 10.2134 -3.52087e-20)
(24.3035 9.77493 0)
(24.2808 9.33029 0)
(24.2577 8.89332 0)
(24.2462 8.43772 -5.63241e-20)
(-7.40682 1.10556 2.79717e-19)
(-7.27481 0.960066 -3.18518e-19)
(-6.31319 0.887752 0)
(-5.01227 0.870852 1.36535e-19)
(-3.46752 0.980958 0)
(-1.66816 1.26062 0)
(0.423028 1.74148 0)
(2.89595 2.4304 -1.92958e-18)
(5.70803 3.31382 1.65136e-18)