/*--------------------------------*- C++ -*----------------------------------*\
| =========                 |                                                 |
| \\      /  F ield         | OpenFOAM: The Open Source CFD Toolbox           |
|  \\    /   O peration     | Version:  2.3.0                                 |
|   \\  /    A nd           | Web:      www.OpenFOAM.org                      |
|    \\/     M anipulation  |                                                 |
\*---------------------------------------------------------------------------*/
FoamFile
{
    version     2.0;
    format      ascii;
    class       volScalarField;
    location    "2000";
    object      nuTilda;
}
// * * * * * * * * * * * * * * * * * * * * * * * * * * * * * * * * * * * * * //

dimensions      [0 2 -1 0 0 0 0];

internalField   nonuniform List<scalar> 
39548
(
0.053609
0.0520347
0.0504749
0.0489294
0.0473991
0.0458842
0.0443855
0.0429035
0.0414387
0.0399921
0.0385639
0.0371554
0.0357665
0.0343984
0.0330509
0.0317245
0.03042
0.029138
0.027879
0.0266444
0.0254349
0.0242534
0.0231023
0.0219845
0.0209008
0.0198529
0.0188441
0.0178805
0.0169708
0.0161186
0.0153126
0.014523
0.0137358
0.0129492
0.0121646
0.0113825
0.0106004
0.00981509
0.00901742
0.00819292
0.00731793
0.00638409
0.00557672
0.055353
0.0539782
0.0526065
0.0512454
0.0498966
0.0485612
0.0472387
0.0459291
0.0446334
0.0433514
0.0420836
0.0408308
0.0395934
0.0383713
0.0371654
0.0359757
0.0348023
0.0336451
0.0325051
0.0313822
0.0302773
0.0291901
0.0281225
0.0270744
0.0260479
0.0250421
0.0240599
0.0231024
0.0221727
0.0212728
0.0204061
0.0195741
0.01878
0.0180285
0.0173268
0.0166849
0.0161135
0.0156244
0.0152322
0.0149508
0.0147949
0.014779
0.0149158
0.0569712
0.0557462
0.0545295
0.0533229
0.0521272
0.050942
0.0497671
0.0486024
0.0474482
0.046304
0.0451702
0.0440473
0.0429358
0.0418362
0.0407485
0.0396734
0.0386112
0.0375618
0.0365254
0.0355029
0.0344945
0.0335013
0.0325232
0.0315622
0.0306185
0.0296949
0.0287915
0.0279115
0.0270571
0.0262311
0.0254374
0.0246806
0.0239652
0.0232976
0.0226854
0.0221369
0.0216616
0.0212699
0.0209721
0.0207791
0.0206987
0.0207387
0.0209013
0.0584437
0.05735
0.0562658
0.0551906
0.0541241
0.0530664
0.0520168
0.0509749
0.0499399
0.0489118
0.0478908
0.0468772
0.0458715
0.0448737
0.043885
0.0429052
0.041935
0.0409753
0.0400256
0.0390865
0.038159
0.0372433
0.0363412
0.0354528
0.0345801
0.0337249
0.0328893
0.0320752
0.0312859
0.0305242
0.0297938
0.0290993
0.0284466
0.0278413
0.0272897
0.0268011
0.0263832
0.0260453
0.0257959
0.0256436
0.0255939
0.0256526
0.0258212
0.0597806
0.0588032
0.0578331
0.0568699
0.055914
0.0549649
0.0540217
0.0530835
0.0521499
0.0512203
0.0502951
0.0493736
0.0484562
0.0475441
0.0466371
0.0457368
0.0448434
0.0439572
0.0430793
0.0422095
0.0413486
0.0404977
0.0396574
0.0388291
0.0380137
0.037214
0.0364325
0.0356713
0.0349336
0.0342224
0.0335417
0.0328962
0.0322902
0.0317301
0.0312222
0.0307743
0.0303945
0.0300906
0.029871
0.0297424
0.0297106
0.0297792
0.0299506
0.0609956
0.0601197
0.0592479
0.0583809
0.0575194
0.0566629
0.0558098
0.0549599
0.0541122
0.0532668
0.0524223
0.0515791
0.0507371
0.0498968
0.0490589
0.0482239
0.0473937
0.0465693
0.0457506
0.0449377
0.044132
0.0433341
0.0425452
0.0417666
0.040999
0.0402443
0.0395056
0.038786
0.038089
0.0374179
0.0367765
0.0361688
0.0355996
0.0350738
0.0345983
0.03418
0.0338265
0.0335458
0.0333456
0.0332318
0.0332113
0.0332863
0.0334586
0.0621023
0.0613134
0.060526
0.0597412
0.0589601
0.0581823
0.0574062
0.0566311
0.0558567
0.0550828
0.0543077
0.0535313
0.0527539
0.0519754
0.0511956
0.0504155
0.0496372
0.0488632
0.0480937
0.0473286
0.0465684
0.0458142
0.0450674
0.0443299
0.0436027
0.0428862
0.0421821
0.041495
0.0408299
0.0401904
0.0395801
0.0390029
0.0384628
0.0379644
0.0375142
0.0371185
0.0367841
0.0365194
0.0363321
0.0362285
0.0362149
0.0362945
0.0364673
0.0631141
0.0623973
0.0616817
0.060967
0.0602536
0.0595428
0.0588332
0.0581217
0.0574088
0.0566959
0.0559811
0.0552613
0.0545385
0.0538143
0.053085
0.0523529
0.0516158
0.050883
0.0501541
0.0494291
0.0487074
0.0479892
0.0472765
0.0465727
0.0458796
0.0451972
0.0445231
0.0438608
0.0432208
0.0426052
0.0420197
0.0414672
0.040952
0.0404765
0.0400458
0.0396695
0.0393501
0.0390966
0.038917
0.0388197
0.0388114
0.0388946
0.0390687
0.0640436
0.0633845
0.062727
0.0620699
0.0614101
0.0607534
0.0601004
0.0594431
0.0587795
0.0581154
0.057453
0.0567841
0.0561044
0.0554321
0.0547435
0.0540614
0.0533551
0.0526561
0.0519571
0.0512639
0.050575
0.0498889
0.0492038
0.0485253
0.0478584
0.047207
0.0465685
0.0459246
0.0453058
0.0447064
0.0441403
0.0436069
0.0431123
0.0426622
0.0422483
0.041891
0.0415848
0.0413405
0.0411666
0.0410712
0.0410691
0.0411576
0.0413338
0.00631142
0.00803707
0.00913355
0.0102086
0.0113501
0.0125616
0.0138311
0.015145
0.0164929
0.0178678
0.0192643
0.0206786
0.0221082
0.0235517
0.0250077
0.0264753
0.0279541
0.0294432
0.0309422
0.0324512
0.03397
0.0354981
0.0370353
0.0385814
0.0401362
0.0416994
0.0432708
0.0448503
0.0464373
0.0480314
0.0496324
0.0512397
0.0528526
0.0544706
0.0560932
0.0577194
0.0593487
0.0609804
0.0626135
0.0642474
0.0658819
0.0675175
0.0691659
0.0152114
0.0156698
0.0162814
0.0170335
0.0179097
0.0188904
0.0199565
0.0210922
0.0222831
0.0235182
0.0247886
0.0260867
0.0274069
0.0287453
0.0300989
0.0314648
0.0328407
0.0342253
0.0356178
0.0370172
0.0384227
0.0398335
0.0412496
0.0426702
0.044095
0.0455241
0.046957
0.0483938
0.049834
0.0512773
0.0527238
0.054173
0.0556244
0.0570778
0.058533
0.0599895
0.0614465
0.0629041
0.0643618
0.0658186
0.0672735
0.0687242
0.0701705
0.0211853
0.0215947
0.0221314
0.022788
0.0235539
0.0244166
0.0253622
0.0263784
0.027453
0.0285758
0.0297377
0.0309309
0.0321498
0.033389
0.0346442
0.0359121
0.0371904
0.0384765
0.0397693
0.0410669
0.0423681
0.0436724
0.0449789
0.046287
0.0475966
0.0489072
0.0502185
0.0515307
0.0528433
0.054156
0.0554687
0.0567814
0.0580936
0.0594052
0.0607161
0.0620262
0.0633352
0.064643
0.0659493
0.0672538
0.0685552
0.0698519
0.071143
0.0260984
0.0264868
0.0269863
0.0275922
0.0282971
0.0290902
0.029961
0.030899
0.031894
0.0329363
0.034018
0.0351312
0.0362701
0.0374295
0.0386044
0.0397918
0.0409887
0.0421921
0.0434004
0.0446116
0.0458244
0.0470379
0.0482509
0.0494632
0.0506743
0.0518839
0.0530919
0.0542979
0.0555018
0.0567033
0.0579021
0.0590982
0.0602914
0.0614817
0.062669
0.0638536
0.0650353
0.0662143
0.0673904
0.0685634
0.0697333
0.0708996
0.0720645
0.0302234
0.0305983
0.0310757
0.0316505
0.0323162
0.0330638
0.033884
0.0347675
0.0357054
0.0366889
0.0377099
0.0387613
0.0398373
0.040933
0.0420436
0.0431655
0.0442951
0.0454299
0.0465681
0.0477071
0.0488455
0.0499825
0.0511167
0.0522478
0.0533758
0.0545003
0.0556209
0.0567372
0.0578491
0.0589562
0.0600583
0.0611552
0.0622469
0.0633335
0.0644152
0.0654921
0.0665646
0.0676327
0.0686964
0.069756
0.0708117
0.071864
0.0729167
0.0337275
0.0340933
0.0345555
0.0351094
0.0357473
0.0364626
0.0372463
0.0380897
0.038985
0.0399236
0.0408974
0.0419005
0.0429269
0.0439714
0.0450301
0.0460986
0.0471734
0.0482518
0.0493319
0.0504109
0.0514869
0.052559
0.0536267
0.0546896
0.0557477
0.0568004
0.0578475
0.0588883
0.0599226
0.0609496
0.0619694
0.0629816
0.0639865
0.0649845
0.0659759
0.0669609
0.0679393
0.0689117
0.0698784
0.0708396
0.0717955
0.0727469
0.0736969
0.0367332
0.0370923
0.0375432
0.0380814
0.0386999
0.0393906
0.0401464
0.0409591
0.0418209
0.0427239
0.0436605
0.0446247
0.045611
0.0466145
0.0476307
0.0486556
0.0496858
0.0507173
0.0517491
0.0527779
0.0538006
0.0548173
0.0558285
0.0568342
0.0578336
0.058826
0.0598109
0.0607883
0.0617567
0.0627158
0.0636651
0.0646044
0.0655347
0.0664568
0.0673712
0.0682775
0.069175
0.0700646
0.0709473
0.0718227
0.0726913
0.0735536
0.0744114
0.0393328
0.0396855
0.0401274
0.0406537
0.0412585
0.0419282
0.0426619
0.043451
0.0442853
0.0451597
0.0460657
0.0469982
0.0479511
0.0489211
0.049903
0.0508916
0.0518863
0.0528767
0.0538705
0.0548553
0.0558306
0.0567999
0.0577634
0.0587216
0.0596721
0.0606135
0.0615456
0.0624704
0.0633811
0.0642832
0.0651714
0.0660473
0.0669133
0.0677704
0.0686201
0.0694582
0.0702854
0.0711035
0.0719137
0.0727141
0.073506
0.0742909
0.0750706
0.041599
0.0419423
0.0423789
0.0428957
0.0434904
0.0441348
0.0448539
0.0456267
0.0464349
0.0472875
0.0481649
0.0490711
0.0499951
0.0509393
0.0518936
0.0528469
0.053813
0.0547639
0.055744
0.0566744
0.0576065
0.0585377
0.0594614
0.0603821
0.0612903
0.0621888
0.0630766
0.063963
0.0648157
0.0656746
0.0665048
0.0673276
0.0681386
0.0689411
0.0697387
0.0705148
0.0712811
0.0720389
0.0727887
0.0735226
0.0742483
0.0749664
0.075677
0.076882
0.0738046
0.0708304
0.0679495
0.0651548
0.0624406
0.0598008
0.0572307
0.0547259
0.0522834
0.0499004
0.0475739
0.0453028
0.0430849
0.0409188
0.0388044
0.0367399
0.0347252
0.0327605
0.030844
0.0289765
0.0271578
0.0253863
0.0236648
0.0219909
0.0203664
0.0187923
0.0172675
0.0157931
0.0143701
0.0129984
0.0116799
0.0104153
0.00920687
0.00805745
0.00697002
0.00594833
0.00499763
0.00412178
0.00334302
0.00273426
0.00210801
0.00135662
0.0779637
0.0752006
0.0725211
0.0699167
0.0673819
0.0649116
0.0625009
0.060145
0.0578401
0.0555834
0.0533724
0.051204
0.0490763
0.0469881
0.0449379
0.0429246
0.0409472
0.0390061
0.0371005
0.0352289
0.0333928
0.0315908
0.0298242
0.0280915
0.026395
0.0247341
0.0231106
0.0215244
0.0199786
0.0184741
0.0170135
0.0155993
0.0142355
0.0129266
0.0116767
0.0104917
0.00938811
0.00840132
0.00747777
0.00652516
0.00550981
0.0043869
0.00307448
0.0790543
0.0765708
0.0741552
0.0718004
0.0695021
0.0672553
0.0650557
0.0628994
0.0607827
0.0587028
0.0566572
0.0546426
0.052658
0.0507011
0.0487715
0.0468675
0.0449878
0.043133
0.0413019
0.0394946
0.0377109
0.0359507
0.0342141
0.0325036
0.0308175
0.0291579
0.0275255
0.0259226
0.0243528
0.0228176
0.0213208
0.0198672
0.0184631
0.0171185
0.0158485
0.0146499
0.0134744
0.012284
0.0110501
0.00973828
0.0083131
0.00673162
0.00493687
0.0801388
0.0779064
0.0757279
0.0735985
0.0715142
0.0694704
0.0674637
0.0654908
0.0635478
0.0616327
0.0597421
0.0578743
0.0560265
0.0541979
0.052387
0.050592
0.0488124
0.0470481
0.0452987
0.0435636
0.0418431
0.0401375
0.0384478
0.0367745
0.0351175
0.03348
0.0318633
0.0302693
0.0287019
0.0271662
0.0256669
0.0242122
0.0228012
0.0214228
0.0200602
0.0186944
0.0173015
0.0158562
0.0143303
0.0126966
0.0109218
0.00896512
0.00678239
0.081205
0.0791983
0.0772332
0.0753068
0.0734152
0.0715552
0.0697237
0.0679177
0.0661341
0.0643704
0.0626237
0.0608924
0.0591738
0.0574665
0.055769
0.05408
0.052399
0.0507251
0.0490578
0.0473975
0.0457446
0.0441
0.0424638
0.0408368
0.0392215
0.037618
0.0360288
0.0344575
0.0329055
0.0313735
0.0298604
0.0283617
0.0268717
0.0253777
0.0238668
0.0223213
0.0207222
0.0190457
0.0172684
0.0153608
0.013291
0.011022
0.00851542
0.0822459
0.0804407
0.078667
0.0769227
0.0752045
0.0735096
0.0718361
0.0701812
0.0685426
0.0669168
0.0653026
0.0636969
0.0620977
0.0605029
0.0589123
0.0573235
0.0557356
0.0541486
0.0525612
0.0509741
0.0493874
0.047802
0.0462188
0.044639
0.0430625
0.041489
0.0399204
0.0383556
0.0367948
0.0352339
0.0336702
0.0320983
0.03051
0.0288952
0.0272422
0.0255351
0.0237555
0.0218809
0.0198862
0.0177438
0.0154221
0.0128854
0.0100992
0.0832518
0.0816275
0.0800256
0.0784446
0.0768816
0.0753353
0.0738039
0.0722853
0.0707764
0.0692766
0.0677813
0.0662904
0.0648006
0.0633097
0.0618161
0.0603184
0.0588164
0.0573083
0.055794
0.0542712
0.0527414
0.0512063
0.0496652
0.0481191
0.0465676
0.0450102
0.0434447
0.0418707
0.0402846
0.0386835
0.0370622
0.0354138
0.0337309
0.0320066
0.0302279
0.0283811
0.0264463
0.0243999
0.0222177
0.0198718
0.0173303
0.0145598
0.0115272
0.0842103
0.0827553
0.0813078
0.0798728
0.0784485
0.0770343
0.0756305
0.0742337
0.0728399
0.0714549
0.0700653
0.0686781
0.0672864
0.0658876
0.0644802
0.0630639
0.0616351
0.0601932
0.0587424
0.057274
0.0557867
0.0542901
0.0527773
0.0512532
0.0497153
0.048164
0.046594
0.0450025
0.0433882
0.0417464
0.0400692
0.0383514
0.0365834
0.0347597
0.0328714
0.0309047
0.0288377
0.0266414
0.0242968
0.0217723
0.0190378
0.0160598
0.0128066
0.0851407
0.0838299
0.0825154
0.0812111
0.0799086
0.0786089
0.0773179
0.0760353
0.0747338
0.0734635
0.0721603
0.0708624
0.0695558
0.0682372
0.0669031
0.0655567
0.0641974
0.0627998
0.0614019
0.05999
0.0585224
0.0570611
0.0555648
0.0540581
0.052522
0.0509719
0.0493966
0.0477874
0.0461448
0.044468
0.0427379
0.040963
0.0391147
0.0372005
0.0352137
0.0331473
0.030976
0.0286389
0.0261542
0.0234747
0.0205693
0.0174087
0.0139543
0.000610562
0.000553714
0.00077641
0.00098689
0.00118479
0.00137278
0.00155336
0.00172895
0.00190301
0.00208008
0.00226662
0.00247158
0.0027063
0.0029792
0.00328998
0.0036351
0.00401115
0.00441572
0.00484785
0.00530712
0.00579381
0.00630806
0.00685024
0.00742124
0.0080216
0.00865217
0.00931367
0.010007
0.010733
0.0114926
0.0122867
0.013116
0.0139815
0.0148841
0.0158244
0.0168035
0.0178218
0.0188802
0.0199792
0.0211189
0.0222995
0.0235211
0.0247863
0.00158159
0.000844062
0.000956267
0.00117004
0.0013754
0.00157125
0.00176125
0.00195025
0.00214419
0.00235072
0.00257807
0.00283505
0.00312985
0.00346345
0.00382827
0.00422067
0.00463838
0.00508055
0.00554625
0.00603556
0.00654872
0.00708578
0.00764719
0.00823335
0.00884493
0.0094824
0.0101464
0.0108374
0.0115564
0.0123037
0.0130802
0.0138864
0.0147229
0.0155907
0.0164902
0.017422
0.0183869
0.0193851
0.020417
0.0214831
0.0225837
0.0237199
0.0248927
0.00292168
0.00136647
0.0011381
0.00133623
0.00154969
0.00175658
0.00196201
0.00217339
0.00239891
0.00264662
0.00292346
0.00323479
0.00358524
0.00396937
0.00437909
0.00481188
0.00526632
0.00574163
0.00623758
0.00675411
0.00729111
0.00784877
0.00842729
0.00902692
0.00964815
0.0102913
0.0109567
0.0116444
0.0123556
0.0130903
0.0138491
0.0146324
0.0154407
0.0162745
0.0171342
0.0180202
0.0189331
0.0198732
0.0208408
0.0218365
0.0228612
0.0239174
0.0250112
0.00435634
0.00211735
0.00134941
0.00148445
0.00170587
0.00192787
0.00215499
0.00239642
0.00266059
0.00295377
0.00327953
0.0036408
0.00403946
0.00446524
0.00491288
0.00538027
0.00586664
0.00637124
0.00689364
0.00743377
0.00799148
0.00856684
0.00915991
0.00977094
0.0103998
0.011047
0.0117124
0.0123967
0.0130997
0.0138219
0.0145634
0.0153248
0.0161063
0.0169082
0.0177309
0.0185744
0.0194392
0.0203257
0.0212343
0.0221656
0.0231203
0.0240998
0.0251023
0.00574542
0.00299253
0.00161442
0.00162017
0.00184815
0.00208894
0.00234291
0.00261912
0.00292427
0.0032617
0.0036325
0.00403857
0.00447752
0.00493882
0.00541913
0.00591689
0.00643114
0.00696142
0.00750708
0.00806795
0.00864378
0.00923455
0.00984021
0.0104605
0.0110957
0.0117456
0.0124104
0.0130902
0.013785
0.0144951
0.0152204
0.0159613
0.0167179
0.0174902
0.0182785
0.0190831
0.0199041
0.0207417
0.0215964
0.0224686
0.0233589
0.0242669
0.0251916
0.00703377
0.00388929
0.00193564
0.00174841
0.00197983
0.0022427
0.00252658
0.00283913
0.00318433
0.00356254
0.00397332
0.00441926
0.0048926
0.00538506
0.00589416
0.00641868
0.00695765
0.00751055
0.00807679
0.00865599
0.00924775
0.00985193
0.0104683
0.0110965
0.0117365
0.0123885
0.0130521
0.0137274
0.0144143
0.0151127
0.0158229
0.0165446
0.017278
0.0180231
0.01878
0.019549
0.02033
0.0211231
0.0219286
0.0227469
0.0235776
0.0244201
0.0252721
0.00820415
0.0047446
0.00229314
0.00187318
0.0021045
0.00239139
0.00270637
0.0030544
0.00343666
0.00385136
0.00429811
0.00477862
0.00528161
0.00580165
0.00633642
0.0068849
0.00744619
0.00801931
0.00860394
0.00919937
0.00980535
0.0104212
0.011047
0.0116822
0.0123265
0.0129798
0.013642
0.0143129
0.014992
0.0156794
0.016375
0.0170787
0.0177905
0.0185106
0.0192389
0.0199753
0.0207198
0.0214724
0.022233
0.0230016
0.023778
0.0245613
0.0253503
0.00925226
0.005531
0.00268079
0.00200194
0.0022166
0.00252831
0.00287406
0.00325593
0.00367248
0.00412073
0.00460077
0.00511206
0.00564268
0.00618821
0.00674697
0.00731777
0.00789976
0.00849203
0.00909401
0.00970482
0.0103236
0.0109502
0.0115839
0.0122248
0.012873
0.0135277
0.0141883
0.0148541
0.0155246
0.0162002
0.0168811
0.0175676
0.0182594
0.0189567
0.019659
0.0203661
0.0210775
0.0217925
0.0225115
0.0232346
0.0239616
0.024692
0.0254249
0.0101717
0.00616544
0.00290663
0.00207824
0.00235607
0.00269611
0.00307658
0.00349285
0.00394137
0.00442331
0.00493716
0.00547545
0.00602893
0.00659535
0.00717311
0.0077628
0.00836347
0.008973
0.00959052
0.0102125
0.0108378
0.0114698
0.0121064
0.0127501
0.0134013
0.0140561
0.0147121
0.0153681
0.0160242
0.0166831
0.0173468
0.0180157
0.0186886
0.0193649
0.0200446
0.0207263
0.0214072
0.0220861
0.0227656
0.0234465
0.0241292
0.0248122
0.0254927
0.000296227
0.0010544
0.00221449
0.0033851
0.00450355
0.00557291
0.00659858
0.00758642
0.00854165
0.00946902
0.0103731
0.0112584
0.01213
0.0129973
0.0138737
0.0147715
0.0156972
0.0166491
0.0176186
0.0185978
0.0196185
0.0207238
0.0219012
0.0231346
0.0244115
0.0257255
0.0270732
0.028452
0.0298597
0.0312942
0.032754
0.034238
0.0357451
0.0372741
0.0388244
0.0403948
0.0419845
0.0435922
0.0452177
0.0468601
0.0485191
0.050195
0.0518912
0.000226396
0.000735468
0.00165448
0.00265583
0.0035876
0.00447455
0.00533832
0.00619277
0.00704131
0.00788559
0.00872669
0.00956585
0.0104048
0.0112467
0.0120963
0.0129595
0.0138418
0.0147467
0.015675
0.0166282
0.0176173
0.0186583
0.0197535
0.0208918
0.0220597
0.0232889
0.0246012
0.0259773
0.0274014
0.0288663
0.0303671
0.0318994
0.0334598
0.0350463
0.0366562
0.0382884
0.0399406
0.0416121
0.0433015
0.045008
0.0467316
0.0484723
0.0502337
0.000121142
0.000474636
0.00109115
0.0018954
0.00287777
0.00389662
0.00484129
0.00572011
0.00655199
0.00735109
0.0081283
0.00889231
0.00965038
0.0104091
0.0111744
0.0119522
0.0127482
0.013568
0.0144163
0.015298
0.0162188
0.0171851
0.0182014
0.0192671
0.0203802
0.0215471
0.0227722
0.0240439
0.0253613
0.026768
0.0282467
0.029779
0.0313558
0.0329699
0.0346162
0.0362899
0.0379882
0.0397085
0.0414486
0.0432076
0.0449844
0.0467798
0.0485979
0.000125713
0.000395989
0.000898833
0.00155543
0.00236401
0.00332349
0.00432787
0.00528793
0.00619456
0.00705223
0.00786689
0.00864504
0.00939367
0.0101206
0.0108342
0.0115432
0.0122566
0.0129832
0.0137318
0.0145108
0.0153281
0.0161906
0.0171046
0.0180744
0.0191026
0.0201907
0.0213388
0.0225431
0.0238026
0.0251238
0.0264969
0.027933
0.0294595
0.0310538
0.0327008
0.03439
0.0361145
0.0378684
0.0396476
0.0414492
0.0432712
0.0451132
0.0469754
0.000101398
0.000347092
0.000780463
0.00134947
0.00204812
0.00287722
0.00383571
0.00483975
0.00581116
0.00673557
0.00761441
0.00845078
0.0092476
0.0100083
0.0107374
0.0114411
0.012127
0.0128043
0.0134834
0.0141755
0.0148918
0.0156434
0.0164405
0.0172924
0.0182059
0.0191858
0.0202341
0.021351
0.0225351
0.0237842
0.0250941
0.0264643
0.0278959
0.0293842
0.0309683
0.0326283
0.0343464
0.0361103
0.0379107
0.0397413
0.0415979
0.0434775
0.0453766
9.47624e-05
0.000317722
0.00070834
0.00122096
0.00184866
0.00259254
0.0034557
0.00442919
0.00543028
0.00640474
0.00733937
0.00823318
0.00908716
0.00990243
0.0106801
0.0114221
0.012132
0.0128151
0.0134786
0.0141322
0.0147872
0.0154564
0.0161531
0.0168907
0.0176818
0.0185364
0.0194623
0.0204644
0.0215443
0.0227012
0.0239322
0.0252335
0.0266006
0.0280292
0.029524
0.0310802
0.0327355
0.0344686
0.0362614
0.0381007
0.0399765
0.0418821
0.0438099
8.63936e-05
0.000294638
0.000653287
0.00112505
0.00170146
0.00238321
0.00317318
0.00407452
0.00506521
0.00607051
0.00705087
0.00799521
0.00890174
0.00977048
0.0106016
0.011395
0.0121514
0.0128724
0.013561
0.0142226
0.0148651
0.0154985
0.0161357
0.0167909
0.0174797
0.018217
0.0190165
0.0198895
0.0208438
0.0218835
0.0230093
0.0242191
0.0255082
0.0268715
0.0283039
0.0298008
0.0313662
0.033003
0.0347408
0.0365548
0.0384263
0.0403419
0.0422924
8.1686e-05
0.000277802
0.00061267
0.00105347
0.00159081
0.00222538
0.00295968
0.0037975
0.00473955
0.0057466
0.00675734
0.0077436
0.00869659
0.00961418
0.0104957
0.0113405
0.0121478
0.0129174
0.0136497
0.0143463
0.015011
0.0156496
0.0162712
0.0168873
0.0175124
0.0181627
0.0188552
0.0196065
0.020431
0.0213398
0.0223398
0.0234339
0.024621
0.0258969
0.0272558
0.0286911
0.0301974
0.0317706
0.033413
0.0351477
0.0369761
0.0388754
0.0408292
7.7645e-05
0.000263967
0.000579657
0.000995717
0.00150204
0.00209902
0.00278897
0.00357522
0.0044619
0.00544182
0.00646447
0.00748275
0.00847621
0.00943804
0.0103659
0.0112589
0.0121157
0.0129351
0.0137161
0.0144585
0.0151629
0.0158318
0.0164698
0.0170844
0.0176862
0.0182889
0.0189093
0.0195654
0.0202758
0.0210579
0.0219256
0.022889
0.0239531
0.0251184
0.0263816
0.0277365
0.0291755
0.0306913
0.0322776
0.0339359
0.03567
0.0375124
0.0394396
7.46141e-05
0.000252799
0.00055296
0.000948737
0.00142968
0.00199586
0.00264945
0.00339362
0.00423234
0.00516825
0.00618074
0.00721762
0.00824414
0.00924536
0.0102159
0.0111535
0.0120568
0.0129241
0.0137538
0.0145445
0.0152953
0.0160062
0.0166789
0.0173168
0.0179264
0.0185174
0.0191029
0.0196993
0.0203256
0.021002
0.0217478
0.0225799
0.0235111
0.0245488
0.0256952
0.0269476
0.0283
0.0297441
0.0312712
0.032874
0.0345469
0.0362961
0.038154
7.2062e-05
0.000243419
0.000530683
0.00090907
0.00136856
0.00190897
0.00253204
0.0032408
0.00403904
0.00493087
0.00591394
0.00695334
0.00800352
0.00903876
0.0100481
0.0110273
0.011974
0.0128866
0.0137631
0.0146015
0.0154
0.0161573
0.0168731
0.0175481
0.0181852
0.0187903
0.0193719
0.0199428
0.0205193
0.0211208
0.0217686
0.022484
0.0232863
0.0241905
0.0252064
0.0263377
0.0275827
0.0289352
0.0303866
0.0319272
0.0335471
0.0352403
0.0370082
6.99379e-05
0.000235426
0.00051182
0.000875032
0.00131621
0.00183452
0.00243155
0.00310994
0.00387347
0.00472629
0.00567148
0.00669639
0.00775829
0.00882074
0.00986475
0.0108823
0.0118699
0.0128251
0.0137459
0.0146302
0.0154757
0.0162803
0.0170423
0.0177608
0.0184364
0.0190715
0.0196711
0.0202435
0.0208011
0.0213601
0.0219403
0.0225641
0.0232543
0.0240321
0.0249149
0.0259143
0.0270352
0.0282769
0.0296333
0.0310951
0.0326515
0.0342915
0.0360078
6.80731e-05
0.000228406
0.000495261
0.000845297
0.00127054
0.00176956
0.00234383
0.00299597
0.00372925
0.00454783
0.00545592
0.00645287
0.00751303
0.00859393
0.00966759
0.0107204
0.0117461
0.0127415
0.0137045
0.0146325
0.0155232
0.0163742
0.0171829
0.0179475
0.0186668
0.019341
0.0199722
0.0205651
0.0211277
0.0216723
0.0222152
0.0227766
0.0233799
0.0240494
0.0248081
0.025675
0.0266633
0.0277794
0.0290227
0.0303873
0.0318633
0.0334397
0.0351088
6.63796e-05
0.000222107
0.000480491
0.000818831
0.00122987
0.00171189
0.00226607
0.00289499
0.00360174
0.00439009
0.00526442
0.0062281
0.00727254
0.0083615
0.0094585
0.0105427
0.0116039
0.0126373
0.0136402
0.0146099
0.015544
0.0164398
0.0172945
0.0181056
0.0188706
0.0195886
0.0202592
0.0208845
0.021469
0.0220207
0.022552
0.0230793
0.0236237
0.0242097
0.0248626
0.0256071
0.0264637
0.027447
0.0285639
0.0298145
0.0311927
0.0326896
0.0342976
6.48329e-05
0.00021641
0.000467114
0.000794883
0.00119323
0.00165998
0.00219626
0.00280432
0.0034873
0.00424874
0.0050928
0.00602373
0.00704205
0.00812717
0.00923958
0.0103505
0.0114443
0.0125135
0.0135543
0.0145637
0.0155393
0.0164783
0.0173775
0.0182343
0.0190457
0.0198092
0.0205236
0.0211883
0.0218056
0.0223798
0.0229193
0.0234364
0.0239486
0.0244775
0.0250487
0.0256889
0.0264241
0.0272762
0.0282605
0.0293846
0.030649
0.0320488
0.0335789
6.33904e-05
0.000211189
0.00045479
0.000772985
0.00115974
0.00161263
0.00213261
0.00272189
0.00338331
0.00412039
0.00493707
0.00583773
0.00682599
0.00789523
0.00901358
0.0101453
0.0112682
0.0123709
0.0134475
0.0144949
0.0155101
0.0164905
0.0174329
0.0183342
0.0191912
0.0200008
0.0207607
0.0214691
0.0221257
0.0227327
0.0232947
0.0238204
0.0243227
0.0248198
0.0253345
0.0258934
0.0265248
0.0272557
0.028109
0.029101
0.0302394
0.0315249
0.03295
6.20161e-05
0.000206397
0.00044338
0.000752738
0.00112876
0.00156887
0.00207389
0.00264595
0.00328773
0.00400256
0.00479419
0.00566702
0.00662542
0.0076702
0.00878373
0.00992896
0.0110765
0.0122098
0.0133205
0.014404
0.0154571
0.0164772
0.0174611
0.0184056
0.0193071
0.0201626
0.0209685
0.0217223
0.0224225
0.0230687
0.0236631
0.0242109
0.0247212
0.0252079
0.0256901
0.0261918
0.0267412
0.0273677
0.0280996
0.0289607
0.0299674
0.0311281
0.0324449
6.06792e-05
0.000201935
0.000432599
0.000733652
0.0010997
0.00152795
0.00201916
0.00257522
0.00319887
0.00389315
0.00466179
0.00550893
0.00643902
0.00745572
0.00855378
0.00970377
0.0108704
0.012031
0.0131734
0.0142914
0.0153808
0.016439
0.0174626
0.0184488
0.0193938
0.020294
0.0211459
0.0219459
0.0226915
0.023381
0.0240144
0.024594
0.0251257
0.0256192
0.0260895
0.0265571
0.0270476
0.0275904
0.0282166
0.0289553
0.0298311
0.0308611
0.0320551
5.93437e-05
0.000197758
0.00042238
0.000715582
0.00107223
0.00148928
0.0019675
0.00250865
0.00311528
0.00379045
0.00453771
0.00536106
0.00626474
0.00725327
0.00832793
0.00947268
0.0106516
0.0118354
0.0130069
0.0141573
0.0152814
0.0163761
0.0174381
0.0184644
0.0194514
0.0203952
0.0212922
0.0221385
0.0229304
0.0236654
0.0243419
0.0249601
0.0255227
0.0260362
0.0265117
0.0269653
0.0274191
0.0279003
0.0284402
0.0290713
0.0298237
0.0307234
0.0317913
5.79614e-05
0.000193777
0.000412589
0.00069838
0.00104607
0.0014525
0.00191835
0.00244542
0.00303602
0.00369326
0.00442038
0.00522137
0.00610038
0.00706187
0.00810985
0.00923927
0.0104222
0.0116239
0.0128214
0.0140021
0.0151592
0.0162888
0.0173877
0.0184526
0.0194801
0.0204664
0.0214074
0.0222992
0.0231378
0.0239194
0.0246414
0.0253024
0.0259029
0.0264464
0.0269403
0.0273967
0.0278335
0.0282747
0.0287494
0.0292908
0.029933
0.0307079
0.0316431
5.64931e-05
0.000189923
0.000403093
0.00068172
0.00102082
0.00141713
0.00187126
0.00238486
0.00296032
0.00360047
0.00430864
0.00508847
0.00594412
0.00688
0.0079007
0.00900752
0.010185
0.0113981
0.0126175
0.0138261
0.0150145
0.0161775
0.0173116
0.0184137
0.0194802
0.0205076
0.0214916
0.022428
0.0233126
0.0241412
0.0249101
0.0256168
0.0262598
0.0268403
0.0273627
0.0278354
0.028272
0.0286926
0.0291231
0.029595
0.0301436
0.0308048
0.0316118
5.49171e-05
0.000186194
0.000393932
0.000665623
0.000996441
0.00138299
0.00182588
0.00232658
0.00288746
0.00351134
0.00420134
0.00496114
0.00579458
0.00670609
0.00770025
0.00878103
0.00994359
0.0111603
0.0123967
0.01363
0.0148475
0.0160423
0.0172103
0.0183479
0.0194522
0.020519
0.0215447
0.0225247
0.0234545
0.0243298
0.0251462
0.0259
0.0265887
0.0272113
0.0277697
0.0282691
0.0287195
0.0291363
0.0295419
0.0299645
0.0304385
0.0310012
0.0316906
5.323e-05
0.000182558
0.000385056
0.000650071
0.000972854
0.00134992
0.00178183
0.00227013
0.002817
0.0034252
0.0040978
0.00483832
0.00565061
0.00653883
0.00750766
0.00856152
0.00970195
0.0109132
0.0121604
0.0134147
0.0146588
0.0158836
0.0170838
0.0182557
0.0193961
0.0205011
0.0215669
0.0225893
0.0235635
0.0244847
0.0253484
0.0261502
0.0268863
0.0275545
0.0281544
0.0286886
0.0291635
0.0295908
0.0299884
0.030381
0.0307998
0.031282
0.0318672
5.14475e-05
0.000178992
0.000376421
0.0006349
0.000949807
0.0013177
0.001739
0.00221527
0.00274864
0.00334167
0.00399748
0.00471945
0.00551132
0.00637724
0.0073216
0.00834913
0.00946373
0.0106603
0.0119109
0.0131814
0.0144493
0.0157021
0.0169329
0.0181376
0.0193125
0.0204542
0.0215588
0.0226221
0.0236394
0.0246058
0.0255163
0.0263661
0.0271508
0.0278667
0.0285119
0.0290867
0.0295947
0.0300439
0.0304482
0.0308279
0.0312107
0.0316314
0.0321298
4.96127e-05
0.000175493
0.000368084
0.000620297
0.000927384
0.00128629
0.00169733
0.00216184
0.00268207
0.00326048
0.00390003
0.00460407
0.00537622
0.00622056
0.00714134
0.00814328
0.00923107
0.0104059
0.0116511
0.012932
0.01422
0.0154984
0.0167582
0.0179939
0.0192021
0.0203789
0.0215209
0.0226237
0.0236827
0.0246931
0.0256496
0.0265471
0.0273806
0.0281454
0.0288385
0.0294583
0.0300059
0.0304862
0.0309091
0.031291
0.0316553
0.0320334
0.0324643
4.77828e-05
0.000172033
0.000359963
0.000606133
0.000905562
0.00125569
0.00165666
0.00210982
0.00261719
0.00318133
0.00380509
0.00449172
0.00524483
0.00606827
0.00696636
0.00794351
0.00900465
0.0101536
0.0113848
0.0126689
0.0139725
0.0152737
0.0165604
0.0178257
0.0190655
0.0202761
0.0214538
0.0225947
0.0236941
0.0247471
0.0257485
0.026693
0.027575
0.0283895
0.029132
0.0297997
0.0303916
0.03091
0.0313615
0.0317582
0.0321196
0.0324727
0.0328535
4.6022e-05
0.000168633
0.000352042
0.000592298
0.00088419
0.0012258
0.00161697
0.00205905
0.00255401
0.00310425
0.00371265
0.00438238
0.00511692
0.00592013
0.00679611
0.00774932
0.0087845
0.00990639
0.0111159
0.0123952
0.013709
0.0150294
0.0163407
0.0176339
0.0189037
0.0201465
0.0213585
0.0225359
0.0236742
0.0247685
0.0258136
0.026804
0.0277339
0.0285979
0.0293908
0.0301083
0.030748
0.0313098
0.0317975
0.0322196
0.0325913
0.0329354
0.0332831
4.43741e-05
0.000165323
0.00034435
0.000578817
0.00086341
0.00119671
0.00157839
0.00200961
0.00249246
0.00302923
0.00362271
0.00427598
0.00499247
0.00577597
0.00663046
0.00756037
0.00857036
0.00966528
0.0108489
0.0121146
0.0134318
0.0147675
0.0161006
0.0174196
0.0187181
0.0199914
0.0212363
0.0224486
0.0236242
0.0247583
0.0258457
0.0268808
0.0278578
0.0287707
0.029614
0.0303824
0.0310722
0.0316814
0.0322113
0.0326673
0.0330605
0.0334094
0.0337401
4.28543e-05
0.000162105
0.000336944
0.000565801
0.00084329
0.00116848
0.00154084
0.00196161
0.00243261
0.00295624
0.00353519
0.00417247
0.00487146
0.0056358
0.00646952
0.00737676
0.00836218
0.00943074
0.0105871
0.0118314
0.0131443
0.01449
0.0158419
0.0171846
0.0185097
0.0198123
0.0210883
0.0223341
0.0235455
0.0247177
0.0258458
0.0269243
0.0279471
0.0289083
0.0298016
0.0306212
0.0313624
0.0320217
0.0325982
0.0330945
0.0335185
0.033884
0.0342132
4.14738e-05
0.000159005
0.000329858
0.00055329
0.000823813
0.0011411
0.00150444
0.00191503
0.00237464
0.00288549
0.00345033
0.00407207
0.00475402
0.00549978
0.00631321
0.00719852
0.00816011
0.0092029
0.0103319
0.0115505
0.0128505
0.0142
0.0155666
0.0169305
0.0182805
0.0196106
0.0209162
0.0221938
0.0234394
0.0246483
0.0258155
0.0269357
0.028003
0.0290112
0.0299538
0.0308245
0.0316177
0.0323287
0.032955
0.0334966
0.0339583
0.0343502
0.0346899
4.02303e-05
0.000156045
0.000323127
0.00054137
0.000805254
0.00111474
0.00146936
0.00187003
0.00231856
0.00281711
0.00336828
0.00397496
0.00464036
0.00536807
0.00616182
0.00702577
0.00796429
0.0089821
0.0100842
0.0112753
0.0125548
0.0139008
0.0152775