/*--------------------------------*- C++ -*----------------------------------*\
| =========                 |                                                 |
| \\      /  F ield         | OpenFOAM: The Open Source CFD Toolbox           |
|  \\    /   O peration     | Version:  2.3.0                                 |
|   \\  /    A nd           | Web:      www.OpenFOAM.org                      |
|    \\/     M anipulation  |                                                 |
\*---------------------------------------------------------------------------*/
FoamFile
{
    version     2.0;
    format      ascii;
    class       surfaceScalarField;
    location    "2000";
    object      phi;
}
// * * * * * * * * * * * * * * * * * * * * * * * * * * * * * * * * * * * * * //

dimensions      [0 3 -1 0 0 0 0];

internalField   nonuniform List<scalar> 
78756
(
-0.00476349
-0.00555143
0.00607746
0.00423692
-0.00524878
-0.00533567
0.00582097
-0.00569804
-0.00512899
0.00557822
-0.00610985
-0.00492817
0.00533998
-0.00648476
-0.00473821
0.00511311
-0.00682883
-0.00455183
0.00489591
-0.00714104
-0.00437477
0.00468698
-0.0074225
-0.00420361
0.00448507
-0.00767591
-0.00403914
0.00429255
-0.00789748
-0.0038825
0.00410407
-0.00809692
-0.00372757
0.00392702
-0.00827073
-0.00358037
0.00375418
-0.00841855
-0.00344003
0.00358784
-0.00854538
-0.00330226
0.00342909
-0.00865079
-0.00317106
0.00327648
-0.00873498
-0.00304394
0.00312813
-0.00879951
-0.00292179
0.00298632
-0.00884735
-0.00280257
0.00285042
-0.00887668
-0.00268877
0.00271809
-0.00889152
-0.00257729
0.00259213
-0.00889004
-0.00247053
0.00246905
-0.00887537
-0.00236565
0.00235098
-0.00884701
-0.00226553
0.00223718
-0.00880668
-0.0021664
0.00212607
-0.00875201
-0.00207238
0.00201772
-0.00868614
-0.00197785
0.00191197
-0.00860807
-0.00188696
0.00180889
-0.00851693
-0.00179684
0.0017057
-0.00841349
-0.00170984
0.00160641
-0.00829592
-0.00162184
0.00150426
-0.00816646
-0.00153457
0.00140511
-0.00802214
-0.00144823
0.00130391
-0.00786252
-0.00136172
0.0012021
-0.00768753
-0.00127461
0.00109963
-0.00749868
-0.00118395
0.000995103
-0.00729641
-0.00109296
0.000890691
-0.00707944
-0.000999441
0.000782469
-0.00685179
-0.000901667
0.000674024
-0.00661481
-0.000800096
0.000563116
-0.00637073
-0.000694111
0.000450028
-0.00612054
-0.000585125
0.000334938
-0.00588001
-0.000474098
0.000233573
-0.000360375
-0.00572957
0.000209932
-0.0043065
-0.00508243
0.00383751
-0.00473918
-0.004903
-0.0051395
-0.00472867
-0.00550634
-0.00456132
-0.0058445
-0.00440005
-0.0061496
-0.00424673
-0.00642437
-0.0041
-0.00667303
-0.00395495
-0.00689663
-0.00381554
-0.00709459
-0.00368454
-0.00726712
-0.00355504
-0.00741561
-0.00343188
-0.00754438
-0.00331126
-0.00765027
-0.00319636
-0.00773674
-0.0030846
-0.0078046
-0.00297608
-0.00785493
-0.00287147
-0.00788661
-0.00277089
-0.00790265
-0.00267273
-0.00790327
-0.00257666
-0.00789002
-0.00248377
-0.00786068
-0.002395
-0.00782085
-0.00230536
-0.00776681
-0.00222045
-0.00770381
-0.00213538
-0.00762829
-0.00205336
-0.00754336
-0.00197189
-0.00744851
-0.00189169
-0.00734675
-0.0018116
-0.00723657
-0.00173201
-0.00711804
-0.0016531
-0.00699191
-0.00157435
-0.00685911
-0.00149452
-0.00671938
-0.00141434
-0.00656925
-0.00133408
-0.0064091
-0.00125311
-0.00623778
-0.00117076
-0.0060498
-0.00108964
-0.00584351
-0.00100638
-0.00561032
-0.000927306
-0.00534705
-0.000848393
-0.00504751
-0.000773634
-0.00070616
-0.00470173
-0.00389225
-0.00466168
0.00347151
-0.00428188
-0.00451335
-0.00464062
-0.00436993
-0.00496869
-0.00423325
-0.00526582
-0.00410293
-0.00553796
-0.00397458
-0.00578484
-0.00385313
-0.00600581
-0.00373397
-0.00620108
-0.00362027
-0.00637486
-0.00351075
-0.00652537
-0.00340453
-0.00665683
-0.00330042
-0.0067666
-0.00320149
-0.00685838
-0.00310458
-0.00693169
-0.00301128
-0.00698693
-0.00292084
-0.007026
-0.00283239
-0.00704958
-0.00274731
-0.00705804
-0.00266427
-0.00705214
-0.00258257
-0.00703186
-0.00250404
-0.00700116
-0.0024257
-0.00695615
-0.00235036
-0.00689981
-0.00227679
-0.00683173
-0.00220346
-0.00675451
-0.00213058
-0.00666561
-0.0020608
-0.00656864
-0.00198866
-0.00646199
-0.00191825
-0.00634456
-0.00184944
-0.00621925
-0.00177842
-0.0060862
-0.0017074
-0.00594443
-0.00163629
-0.00579306
-0.00156572
-0.00563428
-0.00149285
-0.00546674
-0.00142066
-0.0052903
-0.00134719
-0.00510454
-0.00127541
-0.004909
-0.00120192
-0.00470338
-0.00113293
-0.00448726
-0.00106452
-0.00425891
-0.00100198
-0.000946099
-0.00401897
-0.00351895
-0.00428256
0.00313984
-0.00386923
-0.00416307
-0.00418974
-0.00404941
-0.00448277
-0.00394022
-0.004751
-0.00383469
-0.0049941
-0.00373147
-0.0052155
-0.00363173
-0.00541132
-0.00353815
-0.00558494
-0.00344666
-0.0057401
-0.00335559
-0.00587451
-0.00327012
-0.00599
-0.00318494
-0.00608675
-0.00310473
-0.00616525
-0.00302609
-0.00622789
-0.00294864
-0.00627461
-0.00287412
-0.00630533
-0.00280166
-0.00632352
-0.00272912
-0.00632721
-0.00266059
-0.00631689
-0.00259289
-0.00629542
-0.00252552
-0.00626046
-0.00246066
-0.00621566
-0.00239517
-0.00615982
-0.00233262
-0.00609423
-0.00226905
-0.00601855
-0.00220627
-0.00593432
-0.00214503
-0.00584082
-0.00208217
-0.00573741
-0.00202165
-0.00562784
-0.00195902
-0.00551007
-0.00189618
-0.00538333
-0.00183414
-0.00525006
-0.00176956
-0.00510911
-0.00170667
-0.00495987
-0.0016421
-0.00480403
-0.00157649
-0.00463946
-0.00151176
-0.00446826
-0.00144661
-0.00428797
-0.00138221
-0.00410104
-0.00131986
-0.00390386
-0.0012617
-0.00370069
-0.00120514
-0.00115544
-0.00349135
-0.00318269
-0.00394027
0.0028404
-0.0034967
-0.00384906
-0.00378391
-0.00376219
-0.00404801
-0.00367612
-0.00429041
-0.0035923
-0.00450924
-0.00351264
-0.00470389
-0.00343708
-0.00488125
-0.00336078
-0.00503749
-0.00329042
-0.00517507
-0.00321801
-0.00529458
-0.00315061
-0.00539374
-0.00308578
-0.00547938
-0.00301909
-0.00554943
-0.00295604
-0.00560456
-0.00289351
-0.00564416
-0.00283452
-0.00567134
-0.00277449
-0.00568374
-0.00271671
-0.00568445
-0.00265987
-0.00567366
-0.00260368
-0.00565077
-0.00254841
-0.00561763
-0.0024938
-0.0055736
-0.0024392
-0.00552056
-0.00238566
-0.0054567
-0.00233291
-0.0053848
-0.00227817
-0.00530521
-0.00222462
-0.00521614
-0.00217124
-0.00512035
-0.00211744
-0.00501693
-0.00206244
-0.00490499
-0.00200812
-0.00478781
-0.00195131
-0.00466186
-0.00189552
-0.00453017
-0.00183835
-0.00439198
-0.00178029
-0.0042478
-0.00172067
-0.00409609
-0.00166347
-0.00393976
-0.00160295
-0.00377528
-0.00154668
-0.00360604
-0.0014891
-0.00343179
-0.00143594
-0.0032514
-0.00138554
-0.00133951
-0.00306733
-0.00287932
-0.00363546
0.00257452
-0.00316096
-0.00356742
-0.00342167
-0.00350149
-0.00365809
-0.0034397
-0.0038751
-0.00337529
-0.00407009
-0.00331765
-0.00424794
-0.00325924
-0.00440323
-0.00320549
-0.00454637
-0.00314727
-0.00466719
-0.00309719
-0.00477523
-0.00304256
-0.00486789
-0.00299312
-0.00494331
-0.00294367
-0.00500466
-0.00289469
-0.00505091
-0.00284727
-0.00508701
-0.00279842
-0.00510864
-0.00275286
-0.00512052
-0.00270482
-0.00511869
-0.00266171
-0.00510662
-0.00261575
-0.00508451
-0.00257052
-0.00505201
-0.00252629
-0.00501017
-0.00248104
-0.00495965
-0.00243618
-0.0049015
-0.00239106
-0.00483394
-0.00234573
-0.00475866
-0.0022999
-0.00467615
-0.00225375
-0.00458759
-0.002206
-0.00449112
-0.00215891
-0.00438905
-0.0021102
-0.00427975
-0.0020606
-0.0041641
-0.00201117
-0.00404379
-0.00195866
-0.00391665
-0.00190744
-0.00378285
-0.00185447
-0.00364536
-0.00180096
-0.00350136
-0.00174694
-0.00335284
-0.00169521
-0.0031986
-0.00164334
-0.00304136
-0.00159318
-0.00287966
-0.00154724
-0.00150527
-0.00271391
-0.00260422
-0.00335848
0.00232723
-0.00285931
-0.00331233
-0.00309226
-0.00326853
-0.00330798
-0.00322398
-0.00350177
-0.0031815
-0.00367779
-0.00314163
-0.00383688
-0.00310014
-0.00398114
-0.00306123
-0.00410642
-0.00302199
-0.00421791
-0.0029857
-0.00431247
-0.002948
-0.00439457
-0.00291102
-0.00446356
-0.00287468
-0.00451874
-0.00283951
-0.00456078
-0.00280522
-0.00458991
-0.00276929
-0.00460929
-0.00273349
-0.00461735
-0.00269676
-0.0046165
-0.00266256
-0.00460365
-0.0026286
-0.00458287
-0.0025913
-0.00455263
-0.00255652
-0.00451354
-0.00252013
-0.0044664
-0.00248332
-0.00441122
-0.00244625
-0.00434932
-0.00240763
-0.00427943
-0.00236979
-0.00420402
-0.00232916
-0.00412135
-0.00228867
-0.00403361
-0.00224665
-0.00393942
-0.00220439
-0.00383843
-0.0021616
-0.00373296
-0.00211664
-0.00362116
-0.00207047
-0.00350553
-0.00202306
-0.00338413
-0.00197587
-0.00325819
-0.0019269
-0.00312712
-0.00187802
-0.002993
-0.00182932
-0.00285322
-0.00178313
-0.00271006
-0.00173634
-0.00256408
-0.00169322
-0.00165479
-0.00241456
-0.00235881
-0.00310729
0.00210762
-0.00258857
-0.00308257
-0.00279994
-0.00305715
-0.00299294
-0.00303098
-0.00316821
-0.00300623
-0.00332866
-0.00298119
-0.00347166
-0.00295714
-0.0035984
-0.00293449
-0.0037126
-0.0029078
-0.00381097
-0.00288732
-0.00389888
-0.0028601
-0.00397089
-0.00283901
-0.0040303
-0.00281527
-0.0040806
-0.00278921
-0.00412014
-0.00276567
-0.00414873
-0.00274071
-0.00416353
-0.00271868
-0.00416979
-0.00269051
-0.00416685
-0.00266549
-0.00415752
-0.00263794
-0.00413594
-0.00261288
-0.00410819
-0.00258427
-0.00407233
-0.002556
-0.00402916
-0.00252648
-0.00397819
-0.00249722
-0.00392031
-0.00246551
-0.0038566
-0.00243349
-0.00378678
-0.00239898
-0.0037105
-0.00236495
-0.00362916
-0.00232799
-0.00354258
-0.00229096
-0.00345164
-0.00225254
-0.00335575
-0.00221252
-0.00325325
-0.00217296
-0.00314727
-0.00212904
-0.0030367
-0.00208644
-0.00292179
-0.00204181
-0.00280234
-0.00199748
-0.00267945
-0.00195221
-0.00255412
-0.00190845
-0.00242432
-0.00186614
-0.00229185
-0.00182569
-0.00178931
-0.00215733
-0.00213714
0.00191189
-0.00288204
-0.0023435
-0.00287621
-0.00253299
-0.00286766
-0.0027087
-0.00285527
-0.00286688
-0.00284805
-0.0030116
-0.00283647
-0.00314047
-0.00282827
-0.00325782
-0.00281714
-0.00335788
-0.00280774
-0.00345113
-0.00279407
-0.00352672
-0.00278451
-0.00359508
-0.00277065
-0.00364997
-0.00276037
-0.00369273
-0.00274645
-0.00372754
-0.00273087
-0.00375065
-0.0027176
-0.00376787
-0.00270145
-0.00377188
-0.0026865
-0.00377067
-0.0026667
-0.00375772
-0.00265089
-0.00374182
-0.00262878
-0.00371477
-0.00261132
-0.00368127
-0.00258949
-0.00364092
-0.00256683
-0.00359559
-0.00254256
-0.00354258
-0.00251852
-0.00348445
-0.00249163
-0.00341867
-0.00246476
-0.0033496
-0.00243402
-0.00327447
-0.00240312
-0.00319404
-0.00237139
-0.00311085
-0.00233574
-0.0030225
-0.00230087
-0.00293209
-0.00226337
-0.00283452
-0.00222661
-0.00273211
-0.00218885
-0.00262657
-0.00214735
-0.00251888
-0.00210516
-0.00240879
-0.0020623
-0.00229321
-0.00202403
-0.00217558
-0.00198377
-0.00205511
-0.00194617
-0.00193154
-0.00191287
-0.00500748
-0.000291263
-0.00043082
-0.00450687
-0.000297474
-0.000203137
-0.00409835
-0.000321874
-8.66516e-05
-0.00374372
-0.000354041
-5.85733e-07
-0.00342838
-0.000391184
7.58434e-05
-0.00314165
-0.000432125
0.00014539
-0.00287629
-0.000476083
0.000210726
-0.00262931
-0.000521678
0.00027469
-0.00239567
-0.000570158
0.000336522
-0.00217523
-0.00061901
0.00039857
-0.00196534
-0.000670269
0.000460377
-0.00176569
-0.000722432
0.000522778
-0.00157496
-0.000776985
0.00058626
-0.00139299
-0.000831937
0.000649965
-0.00122055
-0.000888673
0.000716233
-0.00105664
-0.000947303
0.000783395
-0.000900956
-0.00100786
0.000852178
-0.000753985
-0.00107061
0.00092364
-0.000616915
-0.0011347
0.000997634
-0.000488642
-0.00120147
0.0010732
-0.000370866
-0.00127014
0.00115237
-0.000262647
-0.00134236
0.00123414
-0.000165854
-0.00141609
0.0013193
-8.00866e-05
-0.00149382
0.00140805
-6.48042e-06
-0.00157365
0.00150004
5.47557e-05
-0.0016576
0.00159637
0.000102229
-0.00174404
0.00169657
0.000135616
-0.00183475
0.00180136
0.000153755
-0.0019291
0.00191096
0.000156272
-0.00202753
0.00202501
0.000141915
-0.00212984
0.0021442
0.000109551
-0.00223708
0.00226945
5.81793e-05
-0.00234842
0.00239979
-1.35292e-05
-0.00246478
0.00253649
-0.000106487
-0.00258608
0.00267903
-0.000221447
-0.0027131
0.00282806
-0.000360232
-0.00284527
0.00298406
-0.000524293
-0.00298316
0.00314722
-0.000714501
-0.00312758
0.00331779
-0.00093269
-0.00327784
0.00349603
-0.00117971
-0.00343493
0.00368195
-0.0014577
-0.00359909
0.00387708
-0.00377071
0.0040811
-0.00176809
-0.00433117
-0.000661825
-0.00398423
-0.000644415
-0.00366416
-0.000641941
-0.0033679
-0.000650296
-0.00309386
-0.00066523
-0.0028372
-0.000688782
-0.00259742
-0.00071586
-0.00237096
-0.000748142
-0.00215786
-0.000783255
-0.00195542
-0.000821454
-0.00176333
-0.000862357
-0.00158014
-0.000905619
-0.00140686
-0.000950271
-0.00124178
-0.000997016
-0.00108473
-0.00104572
-0.000935545
-0.00109649
-0.000795053
-0.00114836
-0.000663081
-0.00120258
-0.000539727
-0.00125806
-0.00042501
-0.00131619
-0.000318909
-0.00137625
-0.000223384
-0.00143789
-0.000137427
-0.00150205
-6.1962e-05
-0.00156928
2.07454e-06
-0.00163768
5.43714e-05
-0.0017099
9.45299e-05
-0.0017842
0.00012133
-0.00186155
0.000134332
-0.0019421
0.000132628
-0.00202582
0.000115476
-0.00211269
8.20357e-05
-0.00220364
3.14134e-05
-0.0022978
-3.75171e-05
-0.00239585
-0.000125393
-0.0024982
-0.000233779
-0.00260472
-0.00036341
-0.00271564
-0.000515057
-0.00283152
-0.000690919
-0.00295172
-0.000890993
-0.00307777
-0.00111701
-0.0032089
-0.00137031
-0.00334579
-0.00348833
-0.00165269
-0.00377183
-0.000908971
-0.00352213
-0.000894109
-0.0032765
-0.00088757
-0.00303962
-0.000887178
-0.00280923
-0.000895624
-0.00258982
-0.00090819
-0.00237769
-0.000927987
-0.00217623
-0.000949604
-0.00198204
-0.000977446
-0.00179702
-0.00100648
-0.0016197
-0.00103967
-0.00145118
-0.00107413
-0.00128993
-0.00111153
-0.00113653
-0.00115041
-0.000990401
-0.00119185
-0.000853038
-0.00123385
-0.000723002
-0.00127839
-0.0006009
-0.00132468
-0.000487257
-0.0013717
-0.000381913
-0.00142153
-0.000285844
-0.00147231
-0.000198251
-0.00152548
-0.00012029
-0.00158001
-5.32452e-05
-0.00163633
4.12598e-06
-0.00169505
5.01038e-05
-0.00175588
8.43017e-05
-0.0018184
0.000106637
-0.00188388
0.000115807
-0.00195127
0.000112003
-0.00202202
9.38875e-05
-0.00209458
6.04722e-05
-0.00217023
1.15165e-05
-0.00224884
-5.37968e-05
-0.00233053
-0.000136676
-0.00241532
-0.000237838
-0.00250355
-0.000358231
-0.00259525
-0.00049919
-0.00269056
-0.000660719
-0.00279019
-0.000844955
-0.00289353
-0.00105253
-0.00300133
-0.00128492
-0.00311341
-0.00323024
-0.001543
-0.00327819
-0.00112213
-0.0030671
-0.00110519
-0.00285913
-0.00109554
-0.00265579
-0.00109052
-0.00245912
-0.00109229
-0.00226767
-0.00109964
-0.0020838
-0.00111186
-0.00190575
-0.00112766
-0.00173525
-0.00114795
-0.00157164
-0.00117009
-0.00141487
-0.00119644
-0.00126412
-0.00122488
-0.00112098
-0.00125467
-0.000984253
-0.00128714
-0.000854446
-0.00132166
-0.000731688
-0.00135661
-0.000615705
-0.00139437
-0.000507758
-0.00143263
-0.000406545
-0.00147291
-0.000313356
-0.00151472
-0.00022858
-0.00155709
-0.00015218
-0.00160188
-8.46993e-05
-0.00164749
-2.61032e-05
-0.00169492
2.26478e-05
-0.00174381
6.08541e-05
-0.00179408
8.92615e-05
-0.00184681
0.000105942
-0.00190056
0.000111432
-0.00195676
0.000103995
-0.00201458
8.41715e-05
-0.00207475
5.07926e-05
-0.00213685
2.86684e-06
-0.00220091
-5.97948e-05
-0.00226787
-0.000138106
-0.00233701
-0.000233143
-0.00240852
-0.00034547
-0.00248292
-0.000475772
-0.00256025
-0.000625502
-0.00264046
-0.000795099
-0.00272393
-0.000985884
-0.00281055
-0.00119866
-0.00290063
-0.00299392
-0.00143499
-0.00288208
-0.00130738
-0.00269734
-0.00128993
-0.00251799
-0.0012749
-0.0023402
-0.00126831
-0.00216732
-0.00126517
-0.00199921
-0.00126775
-0.0018369
-0.00127416
-0.00167914
-0.00128541
-0.00152834
-0.00129875
-0.00138176
-0.00131667
-0.00124154
-0.00133666
-0.00110721
-0.00135921
-0.000978234
-0.00138365
-0.000855777
-0.0014096
-0.000740275
-0.00143716
-0.000629984
-0.0014669
-0.000526288
-0.00149807
-0.00042942
-0.0015295
-0.00033951
-0.00156282
-0.000256952
-0.00159728
-0.000181255
-0.00163279
-0.000114329
-0.00166881
-5.47297e-05
-0.00170709
-4.04808e-06
-0.0017456
3.78903e-05
-0.00178574
7.0585e-05
-0.00182678
9.34004e-05
-0.00186962
0.000106442
-0.0019136
0.000108431
-0.00195875
9.95404e-05
-0.00200569
7.84126e-05
-0.00205363
4.508e-05
-0.00210351
-9.85938e-07
-0.00215485
-6.06824e-05
-0.00220818
-0.000134856
-0.00226284
-0.000223537
-0.00231984
-0.000328003
-0.00237845
-0.000449147
-0.00243911
-0.000587474
-0.00250213
-0.00074384
-0.00256757
-0.000919155
-0.00263523
-0.00111435
-0.00270543
-0.00277831
-0.00132996
-0.00254757
-0.00147372
-0.00238525
-0.00145224
-0.00222425
-0.00143589
-0.00206722
-0.00142535
-0.00191278
-0.00141961
-0.00176385
-0.00141668
-0.00161834
-0.00141967
-0.0014781
-0.00142565
-0.00134252
-0.00143434
-0.00121175
-0.00144743
-0.00108594
-0.00146247
-0.000966026
-0.00147912
-0.000851214
-0.00149846
-0.000741353
-0.00151946
-0.000637027
-0.00154148
-0.000538322
-0.00156561
-0.000446143
-0.00159025
-0.000359686
-0.00161596
-0.000279637
-0.00164287
-0.000206297
-0.00167062
-0.000139863
-0.00169922
-7.99886e-05
-0.00172868
-2.86163e-05
-0.00175846
1.5727e-05
-0.00178995
5.17308e-05
-0.00182175
7.94398e-05
-0.00185449
9.80869e-05
-0.00188827
0.000107296
-0.00192281
0.000106684
-0.00195814
9.6222e-05
-0.00199523
7.48344e-05
-0.00203224
4.24928e-05
-0.00207117
-2.0268e-06
-0.00211033
-5.88985e-05
-0.0021513
-0.000128382
-0.00219335
-0.000211639
-0.00223658
-0.000308794
-0.0022813
-0.000420857
-0.00232705
-0.000548587
-0.0023744
-0.00069244
-0.00242371
-0.000853206
-0.00247446
-0.00103166
-0.00252698
-0.00258111
-0.00122886
-0.00226589
-0.00162239
-0.00211933
-0.0015988
-0.00197409
-0.00158114
-0.00183317
-0.00156627
-0.00169624
-0.00155654
-0.00156173
-0.00155119
-0.0014319
-0.0015495
-0.00130589
-0.00155166
-0.00118393
-0.0015563
-0.00106607
-0.00156529
-0.000954046
-0.0015745
-0.000845181
-0.00158799
-0.00074183
-0.00160181
-0.000643739
-0.00161755
-0.000550083
-0.00163514
-0.000462207
-0.00165349
-0.00037912
-0.00167334
-0.000301536
-0.00169354
-0.000230395
-0.00171401
-0.00016494
-0.00173607
-0.000105909
-0.00175825
-5.35442e-05
-0.00178105
-7.66272e-06
-0.00180434
3.05117e-05
-0.00182812
6.16012e-05
-0.00185284
8.53169e-05
-0.0018782
0.000100385
-0.00190334
0.000106966
-0.00192939
0.000105023
-0.00195619
9.30575e-05
-0.00198327
7.20592e-05
-0.00201124
4.02858e-05
-0.0020394
-2.00782e-06
-0.00206803
-5.53908e-05
-0.00209792
-0.000120564
-0.00212818
-0.000198071
-0.00215907
-0.000288451
-0.00219092
-0.000392265
-0.00222323
-0.0005099
-0.00225677
-0.000642003
-0.00229161
-0.000789839
-0.00232663
-0.000953267
-0.00236355
-0.00240076
-0.00113362
-0.0020218
-0.00175792
-0.00188938
-0.00173122
-0.00176012
-0.00171039
-0.00163202
-0.00169437
-0.00150745
-0.00168111
-0.00138696
-0.00167167
-0.00126988
-0.00166659
-0.00115654
-0.001665
-0.00104623
-0.0016666
-0.000940957
-0.00167056
-0.000839097
-0.00167636
-0.000741873
-0.00168521
-0.000648727
-0.00169495
-0.000560099
-0.00170618
-0.000475829
-0.00171941
-0.000396225
-0.00173309
-0.000322654
-0.00174691
-0.000253381
-0.00176282
-0.00018895
-0.00177844
-0.000130755
-0.00179427
-7.84951e-05
-0.00181051
-3.19737e-05
-0.00182757
8.07097e-06
-0.00184439
4.20267e-05
-0.00186208
6.89799e-05
-0.00187979
8.86741e-05
-0.0018979
0.000101315
-0.00191598
0.000106132
-0.00193421
0.000102132
-0.00195219
9.01988e-05
-0.00197133
6.90332e-05
-0.00199007
3.8635e-05
-0.002009
-1.45721e-06
-0.00202794
-5.16202e-05
-0.00204776
-0.000112546
-0.00206725
-0.000184329
-0.00208729
-0.000268426
-0.00210682
-0.000363954
-0.00212771
-0.000472153
-0.00214857
-0.000593955
-0.00216981
-0.000729118
-0.00219147
-0.000879361
-0.00221331
-0.0022363
-0.00104382
-0.00180892
-0.00188055
-0.00168884
-0.00185131
-0.00157191
-0.00182731
-0.00145731
-0.00180898
-0.00134561
-0.00179281
-0.001236
-0.00178128
-0.00113027
-0.00177232
-0.00102737
-0.0017679
-0.000928648
-0.00176532
-0.000833242
-0.00176597
-0.000741518
-0.00176809
-0.000652988
-0.00177374
-0.000569263
-0.00177868
-0.000488856
-0.00178659
-0.000413579
-0.00179469
-0.00034213
-0.00180454
-0.000275351
-0.00181368
-0.000213281
-0.00182489
-0.000155602
-0.00183612
-0.000103564
-0.0018463
-5.68806e-05
-0.0018572
-1.58295e-05
-0.00186862
2.03129e-05
-0.00188053
5.03424e-05
-0.00189211
7.38556e-05
-0.0019033
9.06575e-05
-0.0019147
0.000100755
-0.00192607
0.000103202
-0.00193666
9.90662e-05
-0.00194806
8.64646e-05
-0.00195873
6.63097e-05
-0.00196992
3.70377e-05
-0.00197973
-6.32869e-07
-0.00199027
-4.75828e-05
-0.00200081
-0.000103776
-0.00201106
-0.000171036
-0.00202003
-0.000248353
-0.00202951
-0.000336607
-0.00203945
-0.000436387
-0.00204879
-0.000547857
-0.00205834
-0.000672071
-0.00206725
-0.000809081
-0.0020763
-0.000960858
-0.00208452
0.00115664
-0.00120668
0.00131602
-0.00126598
0.00105916
-0.00114116
0.00123864
0.000972409
-0.00107478
0.00116153
0.00089661
-0.00100896
0.00108476
0.000832833
-0.000943434
0.00100721
0.000779082
-0.000878513
0.000932264
0.000735626
-0.000815555
0.000859011
0.000702327
-0.000753665
0.000786964
0.00067806
-0.000693985
0.000718251
0.000661895
-0.000635338
0.000651504
0.000653162
-0.000579015
0.000587747
0.000651495
-0.000524992
0.000526659
0.000655742
-0.000472825
0.000468577
0.000665355
-0.000423016
0.000413402
0.000678859
-0.000374863
0.000361359
0.000696091
-0.000329408
0.000312176
0.000716108
-0.000285587
0.00026557
0.0007385
-0.000244185
0.000221792
0.000761789
-0.000204356
0.000181067
0.000785963
-0.000166822
0.000142647
0.000809907
-0.000131141
0.000107198
0.00083366
-9.74419e-05
7.36885e-05
0.000855517
-6.47312e-05
4.28736e-05
0.000876205
-3.45564e-05
1.38679e-05
0.00089421
-5.50211e-06
-1.25028e-05
0.000909258
2.17314e-05
-3.67798e-05
0.000921085
4.78824e-05
-5.97094e-05
0.000928722
7.25778e-05
-8.0215e-05
0.000931941
9.59001e-05
-9.91199e-05
0.000930721
0.000117988
-0.000116767
0.000924162
0.000138938
-0.000132379
0.000911628
0.00015932
-0.000146786
0.000892974
0.000178567
-0.000159913
0.000867312
0.000197337
-0.000171676
0.000834029
0.00021565
-0.000182366
0.000791185
0.000234507
-0.000191664
0.000737901
0.000253827
-0.000200543
0.00067049
0.000275883
-0.000208473
0.000584633
0.000302678
-0.000216821
0.000469201
0.000340779
-0.000225348
0.000307438
0.000400644
-0.000238882
5.9648e-05
0.000511959
-0.00026417
0.000751249
-0.000377826
-0.000313774
0.00105204
-0.00110772
-0.00115101
0.000963134
-0.00105225
0.000884281
-0.000995924
0.000814813
-0.00093949
0.000755652
-0.000884273
0.000706331
-0.000829193
0.000665472
-0.000774696
0.000633306
-0.000721499
0.000608829
-0.000669508
0.000591877
-0.000618387
0.000581987
-0.000569125
0.000578052
-0.000521057
0.000580002
-0.000474775
0.000586843
-0.000429857
0.000597923
-0.000385944
0.000612462
-0.000343947
0.000630135
-0.00030326
0.000649876
-0.000263926
0.000671586
-0.000226066
0.000694537
-0.000189773
0.000717577
-0.000154181
0.000740352
-0.000120217
0.000763163
-8.7542e-05
0.000784129
-5.55225e-05
0.000803265
-2.46384e-05
0.000819895
5.10132e-06
0.000833672
3.41052e-05
0.000843727
6.25226e-05
0.000849901
8.97264e-05
0.000850857
0.000117031
0.00084608
0.000143715
0.000835267
0.000170132
0.000816986
0.000196849
0.000790073
0.00022425
0.000752776
0.000252946
0.000703733
0.00028355
0.00063879
0.00031877
0.000554293
0.00036038
0.00044338
0.000413592
0.000296525
0.000487633
0.000100552
0.000596618
-0.000158391
0.000770901
0.00105411
-0.000461255
0.00095467
-0.00101787
-0.00104451
0.000873409
-0.000970993
0.000801834
-0.00092435
0.000738966
-0.000876622
0.000684569
-0.000829876
0.000638302
-0.000782926
0.000600749
-0.000737143
0.000570584
-0.000691335
0.000547895
-0.000646818
0.000531544
-0.000602037
0.000521522
-0.000559103
0.000516965
-0.000516499
0.00051728
-0.000475091
0.0005219
-0.000434476
0.000530951
-0.000394995
0.000543372
-0.000356368
0.000558418
-0.000318305
0.000575826
-0.000281335
0.000594924
-0.000245164
0.00061487
-0.000209719
0.000635753
-0.000175065
0.000656492
-0.000140955
0.000676619
-0.000107669
0.000695603
-7.45072e-05
0.000713274
-4.23089e-05
0.000728636
-1.02613e-05
0.000740968
2.17733e-05
0.000749917
5.35736e-05
0.000754552
8.50918e-05
0.000754329
0.000117254
0.000748393
0.00014965
0.000735516
0.000183009
0.000714929
0.000217436
0.000684697
0.000254482
0.00064355
0.000294093
0.000588537
0.000338564
0.000517413
0.000389894
0.00042576
0.000452032
0.000307821
0.000531531
0.000158403
0.00063705
-2.8188e-05
0.000783209
-0.000251283
0.000993996
0.00129349
-0.000490658
0.000863848
-0.0009361
-0.000945621
0.000790188
-0.000897334
0.000724288
-0.00085845
0.000667089
-0.000819423
0.000617405
-0.000780192
0.000575234
-0.000740755
0.000539533
-0.000701442
0.000511174
-0.000662976
0.000488946
-0.000624589
0.000472796
-0.000585887
0.00046204
-0.000548348
0.000456551
-0.00051101
0.000454956
-0.000473496
0.000458065
-0.000437585
0.000464662
-0.000401592
0.000474059
-0.000365765
0.000486595
-0.000330842
0.000500844
-0.000295583
0.000517103
-0.000261423
0.000534705
-0.000227321
0.000552693
-0.000193053
0.000571179
-0.000159441
0.000588843
-0.000125334
0.00060636
-9.20245e-05
0.000621885
-5.78339e-05
0.000635334
-2.37098e-05
0.00064658
1.05271e-05
0.000654357
4.57964e-05
0.000658178
8.12707e-05
0.000657225
0.000118207
0.000650491
0.000156384
0.000637191
0.00019631
0.000615858
0.000238769
0.000585311
0.000285029
0.000544014
0.00033539
0.000489406
0.000393172
0.000419301
0.000459999
0.000329428
0.000541905
0.000217675
0.000643284
7.99991e-05
0.000774727
-8.74337e-05
0.000950642
-0.000280272
0.00118683
0.00150104
-0.000487829
0.000780633
-0.000861608
-0.000855125
0.000714001
-0.000830701
0.000653839
-0.000798288
0.000601078
-0.000766662
0.000554796
-0.00073391
0.00051578
-0.000701739
0.000482898
-0.00066856
0.000456178
-0.000636257
0.000434856
-0.000603267
0.000419182
-0.000570213
0.00040835
-0.000537516
0.000401474
-0.000504134
0.000399444
-0.000471466
0.000400785
-0.000438926
0.000405148
-0.000405955
0.00041276
-0.000373377
0.00042274
-0.000340823
0.000434927
-0.00030777
0.000448692
-0.000275189
0.00046343
-0.000242059
0.000478986
-0.000208609
0.000494888
-0.000175344
0.000510979
-0.000141424
0.00052581
-0.000106855
0.000539708
-7.17322e-05
0.000551899
-3.59008e-05
0.000561533
8.9255e-07
0.000568518
3.88116e-05
0.000571611
7.81774e-05
0.000570269
0.000119549
0.000563674
0.000162979
0.000550693
0.000209291
0.000530151
0.000259311
0.000501023
0.000314158
0.000461364
0.000375049
0.000410162
0.000444373
0.000343923
0.000526238
0.000261668
0.00062416
0.000158634
0.000746318
3.3191e-05
0.00090017
-0.000115185
0.00109902
-0.000285704
0.00135735
0.00168847
-0.00047313
0.000704332
-0.000794444
-0.000771496
0.000643168
-0.000769537
0.000589051
-0.000744171
0.000540628
-0.000718239
0.000498744
-0.000692026
0.000462278
-0.000665273
0.000431761
-0.000638043
0.00040638
-0.000610876
0.000386181
-0.000583068
0.000370817
-0.000554849
0.000359712
-0.00052641
0.000353057
-0.00049748
0.000349859
-0.000468268
0.000349467
-0.000438534
0.000352856
-0.000409344
0.000358877
-0.000379398
0.000366654
-0.0003486
0.000376921
-0.000318036
0.00038831
-0.000286578
0.000401214
-0.000254963
0.000414763
-0.000222157
0.00042862
-0.000189201
0.000442251
-0.000155054
0.00045544
-0.000120044
0.000467808
-8.41008e-05
0.000478526
-4.66181e-05
0.000487358
-7.93949e-06
0.00049356
3.26092e-05
0.00049632
7.54179e-05
0.000495225
0.000120644
0.000489064
0.000169139
0.000476876
0.000221479
0.000457823
0.000278364
0.000431033
0.000340947
0.0003944
0.000411682
0.00034708
0.000491693
0.000287129
0.000586189
0.000211301
0.000699988
0.000118154
0.000839465
5.82225e-06
0.0010125
-0.000128209
0.00123305
-0.000281476
0.00151062
0.00185794
-0.000450942
0.000635087
-0.000732913
-0.000696619
0.000579505
-0.000713955
0.000529626
-0.000694292
0.000485621
-0.000674234
0.000447041
-0.000653446
0.000413502
-0.000631733
0.000385238
-0.000609779
0.000361507
-0.000587145
0.000342797
-0.000564358
0.000328218
-0.00054027
0.000317215
-0.000515407
0.000310008
-0.000490274
0.000306224
-0.000464484
0.000305717
-0.000438027
0.000307663
-0.00041129
0.00031162
-0.000383355
0.000318397
-0.000355376
0.000326875
-0.000326515
0.000336711
-0.000296414
0.000347425
-0.000265677
0.000359139
-0.000233871
0.000370965
-0.000201027
0.00038316
-0.000167249
0.000394718
-0.000131602
0.000405664
-9.50471e-05
0.000415312
-5.6266e-05
0.000423091
-1.57185e-05
0.000428462
2.72384e-05
0.000431243
7.26372e-05
0.000430241
0.000121646
0.000424994
0.000174386
0.000414106
0.000232367
0.000397132
0.000295338
0.0003721
0.000365979
0.000339016
0.000444765
0.000295609
0.0005351
0.000241418
0.00064038
0.000173703
0.000767703
8.94758e-05
0.000923692
-1.34065e-05
0.00111538
-0.000134393
0.00135404
-0.000274025
0.00165025
0.00201134
-0.000427433
0.000572319
-0.000677478
-0.000627754
0.000521582
-0.000663218
0.000476852
-0.000649563
0.00043668
-0.000634061
0.000401203
-0.00061797
0.000370152
-0.000600682
0.000343836
-0.000583463
0.000321878
-0.000565187
0.000304185
-0.000546665
0.000289873
-0.000525959
0.000279627
-0.00050516
0.000272825
-0.000483472
0.000268718
-0.000460377
0.000267299
-0.000436607
0.000267868
-0.000411859
0.000271806
-0.000387293
0.000276848
-0.000360419
0.000283653
-0.000333319
0.00029225
-0.000305012
0.000301539
-0.000274965
0.000311797
-0.00024413
0.000321967
-0.000211198
0.000332564
-0.000177845
0.0003431
-0.000142138
0.000352763
-0.00010471
0.000361295
-6.47984e-05
0.000368152
-2.25758e-05
0.000373056
2.23347e-05
0.000375619
7.00742e-05
0.000374963
0.000122302
0.000370575
0.000178774
0.000361247
0.000241695
0.000346027
0.000310558
0.000323373
0.000388633
0.000292693
0.000475446
0.000252928
0.000574864
0.000204005
0.000689304
0.000144721
0.000826987
6.88066e-05
0.000999607
-2.45494e-05
0.00120874
-0.000134285
0.00146377
-0.000261305
0.00177727
0.00215354
-0.000403496
0.000515636
-0.000626591
-0.000566524
0.000470089
-0.00061767
0.000428356
-0.00060783
0.000392122
-0.000597827
0.000359437
-0.000585285
0.000331583
-0.000572828
0.000307042
-0.000558923
0.000286216
-0.00054436
0.000269518
-0.000529968
0.000256569
-0.00051301
0.000246749
-0.00049534
0.000239321
-0.000476044
0.000235095
-0.000456151
0.000232894
-0.000434406
0.00023326
-0.000412225
0.000235355
-0.000389388
0.0002401
-0.000365164
0.000246236