/*--------------------------------*- C++ -*----------------------------------*\
| =========                 |                                                 |
| \\      /  F ield         | OpenFOAM: The Open Source CFD Toolbox           |
|  \\    /   O peration     | Version:  2.3.0                                 |
|   \\  /    A nd           | Web:      www.OpenFOAM.org                      |
|    \\/     M anipulation  |                                                 |
\*---------------------------------------------------------------------------*/
FoamFile
{
    version     2.0;
    format      ascii;
    class       volScalarField;
    location    "2000";
    object      p;
}
// * * * * * * * * * * * * * * * * * * * * * * * * * * * * * * * * * * * * * //

dimensions      [0 2 -2 0 0 0 0];

internalField   nonuniform List<scalar> 
6617
(
0.117327
0.162514
0.975336
2.6084
5.33084
9.18776
14.3541
21.8956
32.4268
42.0477
46.3293
58.9412
20.3467
24.1501
29.7941
37.0209
46.1183
57.058
69.7338
84.0091
99.5478
115.7
132.036
148.373
36.2581
41.2033
47.5546
54.5253
62.1793
70.4359
79.2247
88.4202
97.8481
107.329
116.734
125.948
47.5015
53.4062
60.3165
67.6783
75.5174
83.7244
92.18
100.741
109.255
117.565
125.526
133.007
56.2797
61.7753
67.9686
74.395
81.0565
87.8963
94.8541
101.856
108.819
115.653
122.267
128.584
62.7585
67.991
73.6502
79.4861
85.4876
91.6142
97.8173
104.041
110.226
116.306
122.208
127.866
67.8324
72.5131
77.5175
82.7022
88.0331
93.4838
99.016
104.587
110.152
115.661
121.052
126.263
71.0251
75.6524
80.255
84.977
89.817
94.7771
99.8382
104.953
110.099
115.228
120.271
125.167
74.3042
78.3237
82.475
86.7458
91.1455
95.7134
100.364
105.058
109.808
114.578
119.306
123.996
77.5457
81.0563
84.7025
88.4054
92.3586
96.6155
100.822
105.052
109.327
113.644
118.098
122.668
112.451
145.139
167.184
183.999
197.291
207.692
215.199
219.745
221.495
220.798
217.673
212.185
163.034
174.629
184.221
192.085
198.301
202.885
205.913
207.549
208.035
207.535
205.627
202.086
135.02
144.111
153.043
161.534
169.359
176.326
182.259
187.027
190.578
192.87
193.519
192.485
140.041
146.792
153.271
159.366
164.974
170.007
174.401
178.111
181.122
183.391
184.652
184.874
134.652
140.581
146.348
151.861
157.028
161.774
166.034
169.76
172.923
175.471
177.222
178.476
133.29
138.541
143.603
148.417
152.923
157.074
160.828
164.164
167.071
169.529
171.365
172.695
131.275
136.119
140.771
145.185
149.312
153.114
156.561
159.645
162.356
164.706
166.519
167.891
129.849
134.367
138.688
142.78
146.597
150.106
153.272
156.125
158.62
160.804
162.489
163.831
128.501
132.803
136.878
140.76
144.409
147.72
150.652
153.337
155.638
157.691
159.316
160.668
127.167
131.302
135.207
138.972
142.472
145.67
148.415
150.946
152.803
154.903
156.402
157.988
-81.9474
-81.9689
-81.7908
-81.3554
-80.6976
-79.7971
-78.5999
-77.0897
-75.271
-73.0743
-69.9746
-63.6771
-83.4069
-83.4742
-83.3008
-82.7594
-81.8092
-80.4127
-78.4673
-75.7925
-72.1243
-67.1262
-60.5949
-52.8587
-83.7525
-83.7171
-83.4299
-82.6698
-81.3477
-79.414
-76.7793
-73.3026
-68.8215
-63.2526
-56.6938
-49.6436
-83.1089
-82.8869
-82.4304
-81.4822
-79.9517
-77.7924
-74.938
-71.312
-66.8653
-61.6443
-55.8249
-49.7881
-81.9787
-81.6061
-81.0336
-79.9813
-78.3666
-76.1563
-73.2998
-69.76
-65.5304
-60.6658
-55.329
-49.8227
-80.3353
-80.1126
-79.4818
-78.3765
-76.7517
-74.5867
-71.8218
-68.4292
-64.4105
-59.8208
-54.788
-49.5644
-78.4647
-78.5222
-77.8969
-76.7872
-75.1736
-73.0972
-70.4614
-67.2382
-63.4009
-59.0364
-54.2413
-49.2212
-76.7166
-76.9776
-76.3408
-75.2677
-73.6299
-71.6297
-69.0792
-65.9777
-62.2075
-57.9875
-53.3212
-48.4072
-75.0581
-75.5559
-74.982
-74.042
-72.2029
-70.349
-68.0232
-65.2042
-61.4597
-57.4345
-52.9581
-48.2134
-70.8884
-72.9657
-73.2422
-72.2014
-68.973
-66.6538
-64.3555
-61.5636
-57.8053
-54.051
-49.3295
-44.5454
-50.8357
-44.0629
-38.8134
-33.5894
-28.3759
-23.2714
-18.2353
-13.2101
-8.12988
-2.94455
2.31124
7.69669
-44.738
-40.1043
-37.0411
-33.6183
-29.7544
-25.5295
-21.03
-16.3363
-11.4762
-6.43914
-1.36218
3.65942
-42.8927
-37.3238
-33.8933
-30.844
-27.6378
-24.2046
-20.5386
-16.6487
-12.5274
-8.13155
-3.59418
0.591657
-43.9004
-38.4091
-34.5736
-31.3712
-28.0776
-24.6667
-21.1246
-17.4445
-13.6187
-9.60086
-5.3124
-1.0298
-44.4118
-39.2854
-35.2981
-32.0256
-28.6824
-25.2705
-21.772
-18.1845
-14.5106
-10.75
-6.79232
-2.53364
-44.3991
-39.4708
-35.3539
-31.9819
-28.613
-25.2403
-21.8365
-18.3937
-14.9051
-11.3871
-7.75206
-3.76578
-44.2059
-39.3715
-35.1616
-31.687
-28.2933
-24.9477
-21.6248
-18.3143
-15.003
-11.7047
-8.34533
-4.69836
-43.4817
-38.7485
-34.6275
-31.2246
-27.8837
-24.5803
-21.3242
-18.126
-14.9683
-11.8634
-8.72332
-5.35097
-43.307
-38.4268
-34.2081
-30.8031
-27.4751
-24.1836
-20.977
-17.887
-14.8658
-11.946
-8.98355
-5.79469
-39.5209
-34.9846
-32.2489
-30.1367
-27.052
-23.7356
-20.4736
-17.5261
-14.6294
-11.9128
-9.08415
-5.97398
-133.686
-125.941
-117.536
-110.1
-101.096
-90.4429
-78.9675
-67.3906
-55.9488
-45.0695
-35.2402
-27.5194
-82.1414
-82.3548
-81.9898
-81.2171
-80.3715
-79.6547
-78.5439
-75.9341
-71.2671
-64.6269
-56.2316
-48.3333
-87.795
-87.6832
-87.67
-87.5967
-87.2447
-86.2343
-84.436
-81.9666
-78.671
-74.0486
-67.5518
-61.4175
-82.9221
-82.914
-82.8712
-82.803
-82.6938
-82.4843
-82.0412
-81.1345
-79.5562
-77.1232
-73.099
-69.3703
-82.6242
-82.615
-82.6077
-82.5755
-82.4948
-82.3305
-82.0281
-81.4712
-80.4643
-78.8176
-76.1152
-73.9509
-81.5359
-81.5295
-81.515
-81.485
-81.4303
-81.3342
-81.1683
-80.8764
-80.3436
-79.3867
-77.7432
-76.7793
-81.1082
-81.1034
-81.094
-81.0722
-81.0305
-80.9561
-80.8301
-80.622
-80.2672
-79.6479
-78.6081
-77.7798
-80.714
-80.711
-80.7033
-80.6866
-80.6567
-80.6055
-80.5216
-80.3835
-80.1522
-79.7569
-79.0876
-78.437
-80.4589
-80.4573
-80.4522
-80.4402
-80.419
-80.383
-80.3245
-80.2277
-80.07
-79.8102
-79.3745
-78.8649
-80.2375
-80.2369
-80.2332
-80.2241
-80.2082
-80.1812
-80.138
-80.0672
-79.9525
-79.7641
-79.4465
-79.023
-80.0573
-80.0568
-80.0532
-80.0444
-80.0294
-80.0048
-79.9666
-79.9059
-79.8095
-79.6517
-79.3881
-79.0575
-79.9044
-79.904
-79.9003
-79.8914
-79.876
-79.8508
-79.8118
-79.751
-79.6544
-79.4995
-79.2541
-78.8605
-79.7933
-79.7925
-79.7882
-79.7786
-79.7623
-79.7367
-79.698
-79.6398
-79.5504
-79.411
-79.1948
-78.9759
-79.7152
-79.7142
-79.7098
-79.7002
-79.6836
-79.6575
-79.6179
-79.5587
-79.4686
-79.3323
-79.1284
-78.8147
-79.6808
-79.6796
-79.675
-79.665
-79.6485
-79.6228
-79.5848
-79.5292
-79.4477
-79.3298
-79.1594
-78.9282
-79.6783
-79.6771
-79.6725
-79.6629
-79.6467
-79.6215
-79.5841
-79.5297
-79.4507
-79.3359
-79.1686
-78.9426
-79.715
-79.7136
-79.7087
-79.6987
-79.6824
-79.6575
-79.6211
-79.5686
-79.4933
-79.3857
-79.2306
-79.0213
-79.7784
-79.7773
-79.7727
-79.7635
-79.7481
-79.7245
-79.6897
-79.6398
-79.5688
-79.4671
-79.3225
-79.1242
-79.8755
-79.8741
-79.8693
-79.8599
-79.8445
-79.8214
-79.7879
-79.7405
-79.6736
-79.5796
-79.4494
-79.3001
-79.9939
-79.9926
-79.9881
-79.9793
-79.9646
-79.9423
-79.9099
-79.8637
-79.7981
-79.7051
-79.5776
-79.4035
-80.141
-80.1395
-80.1347
-80.1255
-80.1108
-80.0891
-80.058
-80.014
-79.9525
-79.8664
-79.7497
-79.6052
-80.3039
-80.3026
-80.2982
-80.2898
-80.276
-80.2553
-80.2251
-80.1824
-80.1221
-80.0367
-79.9161
-79.7602
-80.4915
-80.4902
-80.4855
-80.4769
-80.4631
-80.4428
-80.4139
-80.3733
-80.3167
-80.2378
-80.1294
-79.9981
-80.6915
-80.6902
-80.6857
-80.6776
-80.6644
-80.6449
-80.6169
-80.5777
-80.5233
-80.4481
-80.3466
-80.2416
-80.9125
-80.9109
-80.906
-80.8974
-80.8837
-80.8637
-80.8355
-80.7959
-80.7407
-80.6638
-80.5594
-80.4313
-81.1444
-81.1429
-81.1382
-81.13
-81.1167
-81.0973
-81.0694
-81.0305
-80.9765
-80.9025
-80.8047
-80.6948
-81.3966
-81.3948
-81.3896
-81.3807
-81.3667
-81.3465
-81.3177
-81.277
-81.22
-81.1405
-81.031
-80.9019
-81.6624
-81.6608
-81.6559
-81.6473
-81.6336
-81.6134
-81.5843
-81.5428
-81.4842
-81.4015
-81.2881
-81.1389
-81.9526
-81.9505
-81.9449
-81.9355
-81.9212
-81.9007
-81.8714
-81.83
-81.772
-81.6903
-81.5782
-81.4269
-82.2535
-82.2516
-82.2462
-82.2375
-82.224
-82.2043
-82.1761
-82.1364
-82.0804
-82.0022
-81.8934
-81.765
-82.5731
-82.5711
-82.5657
-82.5568
-82.5433
-82.5242
-82.4971
-82.459
-82.4056
-82.331
-82.2288
-82.0971
-82.9018
-82.8999
-82.8948
-82.8864
-82.8736
-82.8551
-82.8288
-82.7919
-82.7407
-82.6704
-82.5769
-82.4962
-83.2489
-83.2465
-83.2407
-83.2315
-83.2178
-83.1984
-83.1709
-83.1318
-83.0758
-82.9954
-82.8813
-82.7299
-83.6035
-83.6014
-83.596
-83.5875
-83.5749
-83.5569
-83.5311
-83.4945
-83.442
-83.3669
-83.2616
-83.1135
-83.9703
-83.9683
-83.9631
-83.9549
-83.9429
-83.9263
-83.9029
-83.8701
-83.8239
-83.759
-83.6689
-83.5753
-84.34
-84.338
-84.3332
-84.3258
-84.315
-84.3
-84.2788
-84.2488
-84.2062
-84.1457
-84.0625
-83.9731
-84.7148
-84.7125
-84.7076
-84.7003
-84.6901
-84.6764
-84.6573
-84.6305
-84.5924
-84.5381
-84.4626
-84.3727
-85.0813
-85.0794
-85.0751
-85.0689
-85.0603
-85.0488
-85.0328
-85.0104
-84.9783
-84.932
-84.8661
-84.7851
-85.4412
-85.4393
-85.4353
-85.4298
-85.4224
-85.4132
-85.4008
-85.3834
-85.3587
-85.3228
-85.2698
-85.2086
-85.783
-85.7814
-85.7781
-85.7739
-85.7685
-85.762
-85.7533
-85.7413
-85.7239
-85.6975
-85.6581
-85.6326
-86.1076
-86.1058
-86.1027
-86.0992
-86.0952
-86.0911
-86.086
-86.0791
-86.0685
-86.0509
-86.0236
-85.99
-86.4025
-86.4007
-86.3978
-86.3953
-86.3933
-86.3923
-86.3918
-86.3918
-86.3914
-86.3893
-86.3847
-86.3908
-86.6571
-86.6562
-86.6548
-86.6543
-86.655
-86.6577
-86.6623
-86.669
-86.6775
-86.6863
-86.6888
-86.6574
-86.8737
-86.8727
-86.872
-86.8731
-86.8764
-86.8828
-86.8929
-86.9077
-86.9276
-86.9532
-86.9864
-87.0565
-87.0426
-87.0419
-87.042
-87.0445
-87.05
-87.0597
-87.0745
-87.0956
-87.1239
-87.1605
-87.2063
-87.2353
-87.1578
-87.1569
-87.1572
-87.1611
-87.1692
-87.1831
-87.2042
-87.2344
-87.2756
-87.3296
-87.3942
-87.4381
-87.201
-87.2016
-87.204
-87.2109
-87.2229
-87.242
-87.2703
-87.3105
-87.3653
-87.438
-87.5354
-87.723
-87.1809
-87.1823
-87.1858
-87.1948
-87.21
-87.2337
-87.2682
-87.3164
-87.3809
-87.4651
-87.5695
-87.6347
-87.0871
-87.0898
-87.0949
-87.1064
-87.1256
-87.1551
-87.1981
-87.2583
-87.34
-87.4477
-87.5842
-87.7523
-86.9129
-86.9162
-86.9226
-86.9364
-86.9596
-86.9952
-87.047
-87.1196
-87.218
-87.3481
-87.516
-87.7502
-86.6426
-86.6479
-86.6575
-86.6757
-86.7047
-86.7484
-86.811
-86.8979
-87.0154
-87.1707
-87.3673
-87.5552
-86.2847
-86.2901
-86.3018
-86.3237
-86.3584
-86.4106
-86.4854
-86.5897
-86.7318
-86.9214
-87.1708
-87.5134
-85.8217
-85.8277
-85.8417
-85.8677
-85.9084
-85.9692
-86.0561
-86.177
-86.3413
-86.5595
-86.843
-87.1931
-85.2502
-85.2567
-85.2728
-85.303
-85.3503
-85.4207
-85.5214
-85.6612
-85.8509
-86.1029
-86.4273
-86.7807
-84.5519
-84.5611
-84.5815
-84.6182
-84.6743
-84.7568
-84.8741
-85.0366
-85.2571
-85.5504
-85.9362
-86.4546
-83.7406
-83.7507
-83.7742
-83.8162
-83.8804
-83.9744
-84.1078
-84.2922
-84.5421
-84.8741
-85.3069
-85.8332
-82.8009
-82.8127
-82.8399
-82.8883
-82.9618
-83.069
-83.2208
-83.4302
-83.7133
-84.0893
-84.5786
-85.1674
-81.732
-81.7461
-81.7782
-81.8341
-81.9181
-82.0402
-82.2123
-82.449
-82.7682
-83.191
-83.7382
-84.394
-80.538
-80.5546
-80.5916
-80.6557
-80.7517
-80.8902
-81.0849
-81.3521
-81.7118
-82.1875
-82.802
-83.5329
-79.2222
-79.2413
-79.2838
-79.3566
-79.4652
-79.6217
-79.8413
-80.1425
-80.5473
-81.0821
-81.7719
-82.5912
-77.7826
-77.8047
-77.8538
-77.937
-78.0604
-78.2376
-78.4854
-78.8245
-79.2797
-79.8803
-80.6531
-81.564
-76.2296
-76.2562
-76.3128
-76.4076
-76.5476
-76.7476
-77.0267
-77.4075
-77.9175
-78.5888
-79.4501
-80.4612
-74.5774
-74.6081
-74.6734
-74.781
-74.9395
-75.1652
-75.4789
-75.9059
-76.4761
-77.2248
-78.1799
-79.2956
-72.8434
-72.8789
-72.9537
-73.0758
-73.2549
-73.5091
-73.8616
-74.3398
-74.9768
-75.8098
-76.8655
-78.091
-71.0465
-71.0876
-71.1738
-71.3128
-71.5158
-71.8029
-72.1996
-72.736
-73.4481
-74.3749
-75.5402
-76.887
-69.2207
-69.2688
-69.3681
-69.5265
-69.7568
-70.0813
-70.5284
-71.1308
-71.927
-72.9575
-74.2387
-75.7081
-67.4079
-67.4637
-67.5784
-67.7588
-68.0208
-68.3887
-68.8937
-69.5717
-70.4641
-71.6118
-73.0219
-74.6336
-65.6554
-65.7208
-65.8539
-66.0609
-66.3599
-66.7785
-67.3508
-68.1156
-69.1169
-70.3961
-71.9438
-73.6849
-64.0291
-64.1075
-64.2636
-64.5027
-64.8464
-65.3255
-65.9772
-66.8424
-67.9662
-69.3851
-71.0509
-72.7783
-62.6474
-62.7421
-62.9251
-63.2021
-63.5991
-64.1512
-64.8988
-65.8851
-67.1556
-68.7406
-70.555
-72.4313
-61.5844
-61.6991
-61.9203
-62.25
-62.7169
-63.3609
-64.2259
-65.3546
-66.7863
-68.5371
-70.4764
-72.28
-60.9094
-61.0397
-61.3072
-61.7116
-62.2867
-63.0769
-64.1222
-65.4527
-67.0882
-69.0204
-71.0902
-72.9519
-61.3976
-61.5736
-61.9351
-62.4592
-63.1663
-64.0924
-65.2696
-66.7209
-68.4576
-70.4424
-72.5096
-74.4351
-62.4024
-62.5673
-62.9853
-63.6687
-64.6241
-65.8624
-67.3712
-69.106
-70.9959
-72.9484
-74.8188
-76.5029
-65.4653
-67.9608
-69.6022
-70.5977
-71.3257
-72.0793
-72.9712
-74.0344
-75.2474
-76.5471
-77.8162
-78.8242
337.359
336.121
331.052
323.456
313.275
300.394
285.824
270.959
257.014
244.692
233.68
222.943
281.283
280.503
278.134
275.551
272.855
269.768
265.881
260.808
254.359
246.687
238.027
228.23
278.249
277.761
276.513
274.606
271.924
268.43
264.126
259.024
253.126
246.435
238.909
230.534
270.824
270.252
269.287
267.893
265.985
263.441
260.14
255.988
250.942
245.023
238.232
230.36
257.816
257.567
257.178
256.513
255.509
254.061
252.043
249.312
245.732
241.206
235.656
228.928
248.468
248.347
248.13
247.709
247.047
246.058
244.637
242.663
240.001
236.526
232.1
226.56
241.3
241.203
241.012
240.659
240.126
239.341
238.22
236.659
234.534
231.717
228.061
223.316
234.576
234.503
234.351
234.076
233.661
233.048
232.169
230.933
229.23
226.936
223.916
219.959
228.36
228.305
228.189
227.976
227.651
227.168
226.471
225.48
224.1
222.213
219.694
216.343
222.741
222.699
222.605
222.43
222.163
221.767
221.192
220.375
219.23
217.653
215.531
212.707
217.584
217.55
217.47
217.322
217.097
216.762
216.276
215.584
214.612
213.265
211.438
208.962
212.777
212.749
212.681
212.555
212.362
212.075
211.658
211.064
210.227
209.061
207.474
205.304
208.273
208.25
208.192
208.082
207.916
207.667
207.307
206.791
206.063
205.046
203.655
201.741
204.04
204.021
203.97
203.875
203.729
203.512
203.198
202.749
202.115
201.23
200.027
198.402
200.039
200.023
199.979
199.895
199.766
199.575
199.298
198.903
198.345
197.564
196.492
195.065
196.234
196.222
196.183
196.108
195.994
195.824
195.578
195.227
194.73
194.035
193.079
191.808
192.605
192.596
192.562
192.495
192.392
192.24
192.02
191.707
191.266
190.649
189.808
188.736
189.125
189.12
189.089
189.03
188.937
188.8
188.602
188.32
187.922
187.363
186.594
185.595
185.781
185.778
185.751
185.696
185.613
185.488
185.308
185.052
184.691
184.185
183.491
182.623
182.557
182.555
182.53
182.48
182.404
182.29
182.125
181.891
181.561
181.099
180.461
179.655
179.438
179.437
179.414
179.369
179.299
179.194
179.042
178.827
178.524
178.098
177.51
176.779
176.415
176.414
176.392
176.351
176.286
176.19
176.05
175.851
175.571
175.178
174.633
173.969
173.478
173.477
173.457
173.419
173.359
173.269
173.14
172.956
172.698
172.336
171.836
171.253
170.618
170.617
170.599
170.564
170.507
170.424
170.304
170.133
169.893
169.556
169.091
168.552
167.826
167.825
167.809
167.776
167.724
167.646
167.534
167.375
167.152
166.838
166.402
165.941
165.095
165.094
165.079
165.05
165.001
164.929
164.825
164.679
164.474
164.189
163.792
163.407
162.421
162.42
162.407
162.379
162.333
162.266
162.168
162.031
161.839
161.572
161.185
160.749
159.791
159.791
159.78
159.754
159.712
159.648
159.556
159.427
159.245
158.995
158.639
158.197
157.205
157.206
157.196
157.173
157.133
157.073
156.986
156.863
156.69
156.448
156.101
155.652
154.671
154.67
154.66
154.638
154.599
154.542
154.46
154.344
154.182
153.957
153.648
153.247
152.164
152.164
152.155
152.135
152.099
152.046
151.969
151.861
151.711
151.502
151.215
150.894
149.686
149.687
149.679
149.66
149.628
149.579
149.508
149.409
149.273
149.087
148.838
148.626
147.233
147.234
147.227
147.21
147.18
147.133
147.066
146.972
146.843
146.664
146.415
146.182
144.811
144.81
144.801
144.783
144.753
144.706
144.641
144.548
144.42
144.242
143.987
143.758
142.393
142.393
142.385
142.369
142.34
142.296
142.233
142.144
142.021
141.851
141.606
141.411
139.992
139.992
139.985
139.97
139.943
139.901
139.842
139.758
139.642
139.482
139.247
139.063
137.609
137.609
137.602
137.588
137.562
137.523
137.466
137.388
137.279
137.131
136.914
136.771
135.241
135.24
135.233
135.218
135.193
135.155
135.101
135.026
134.925
134.788
134.587
134.45
132.869
132.868
132.862
132.849
132.826
132.79
132.738
132.667
132.57
132.44
132.249
132.114
130.501
130.5
130.494
130.481
130.459
130.425
130.376
130.308
130.214
130.089
129.904
129.775
128.13
128.13
128.125
128.114
128.093
128.06
128.014
127.948
127.859
127.739
127.562
127.447
125.767
125.766
125.76
125.748
125.728
125.696
125.651
125.588
125.503
125.388
125.218
125.113
123.401
123.398
123.391
123.379
123.359
123.327
123.284
123.225
123.146
123.041
122.887
122.842
120.991
120.993
120.991
120.984
120.968
120.941
120.903
120.85
120.779
120.685
120.542
120.522
118.596
118.596
118.592
118.585
118.57
118.545
118.51
118.462
118.397
118.315
118.191
118.221
116.187
116.187
116.182
116.174
116.159
116.134
116.099
116.053
115.992
115.914
115.791
115.844
113.763
113.759
113.752
113.742
113.726
113.7
113.666
113.621
113.563
113.492
113.377
113.468
111.267
111.269
111.267
111.262
111.25
111.229
111.198
111.156
111.102
111.034
110.916
110.998
108.771
108.771
108.768
108.762
108.751
108.73
108.701
108.662
108.611
108.549
108.438
108.569
106.252
106.252
106.247
106.24
106.227
106.206
106.177
106.139
106.09
106.033
105.919
106.02
103.701
103.698
103.69
103.681
103.668
103.646
103.617
103.58
103.534
103.481
103.375
103.447
101.067
101.068
101.066
101.062
101.054
101.037
101.013
100.981
100.94
100.894
100.805
100.881
98.4236
98.4236
98.419
98.4138
98.405
98.3892
98.3671
98.339
98.3039
98.2663
98.1918
98.2867
95.7308
95.7305
95.7257
95.7198
95.7115
95.6967
95.6765
95.6529
95.6255
95.6007
95.5501
95.7138
92.989
92.9856
92.9777
92.9703
92.9613
92.947
92.929
92.9096
92.8898
92.8765
92.8382
93.0011
90.134
90.1357
90.1341
90.1324
90.1291
90.1205
90.1084
90.0959
90.0853
90.0857
90.07
90.2732
87.2409
87.2406
87.2359
87.2326
87.2292
87.2219
87.2133
87.2064
87.204
87.2159
87.2149
87.4206
84.2687
84.2657
84.2596
84.2548
84.2512
84.2447
84.238
84.2362
84.2427
84.269
84.2956
84.579
81.1696
81.1708
81.168
81.167
81.1675
81.1656
81.1646
81.17
81.1866
81.2263
81.2628
81.5493
77.9781
77.9784
77.9752
77.9749
77.9775
77.9792
77.9838
77.9973
78.0261
78.0847
78.1499
78.4686
74.6788
74.6776
74.6731
74.6719
74.6747
74.6785
74.6875
74.7099
74.7531
74.8347
74.9438
75.3362
71.2323
71.2303
71.2253
71.2251
71.2309
71.2386
71.2543
71.287
71.3454
71.4466
71.5813
72.0683
67.6044
67.6057
67.6049
67.6091
67.6207
67.6362
67.6623
67.7099
67.7909
67.9254
68.109
68.7533
63.8186
63.8187
63.8167
63.8213
63.8358
63.8574
63.8937
63.9571
64.0622
64.2305
64.4338
65.1161
59.8238
59.8234
59.8215
59.8277
59.8457
59.8743
59.9222
60.0044
60.1389
60.3542
60.6111
61.2818
55.5757
55.5746
55.5731
55.5822
55.6076
55.6473
55.7129
55.8227
55.998
56.2789
56.6344
57.3292
51.0113
51.014
51.0181
51.0349
51.072
51.1294
51.2209
51.3685
51.5987
51.9608
52.4481
53.195
46.1149
46.1169
46.1211
46.1428
46.1911
46.2683
46.392
46.5886
46.8891
47.3478
47.9796
48.8154
40.7862
40.7856
40.7917
40.8199
40.8844
40.9894
41.1573
41.4221
41.8219
42.418
43.2517
44.2965
34.8422
34.8506
34.8694
34.9191
35.017
35.1714
35.4119
35.782
36.3288
37.1235
38.2276
39.5425
28.2052
28.217
28.2454
28.3188
28.461
28.6874
29.0369
29.5625
30.3221
31.3942
32.8634
34.5234
20.5722
20.5818
20.6276
20.741
20.9602
21.3101
21.8409
22.6167
23.699
25.1609
27.1251
29.3728
11.4442
11.4997
11.5857
11.7986
12.1855
12.7786
13.6382
14.8328
16.4157
18.4261
20.9692
24.0744
-0.203415
-0.30495
-0.0346624
0.494099
1.3254
2.49317
4.03997
6.00707
8.41379
11.2493
14.5564
18.5296
-16.8298
-16.0459
-14.8848
-13.4286
-11.5168
-9.18854
-6.44898
-3.30186
0.237971
4.13051
8.32644
13.1829
118.429
12.8525
75.2974
49.069
-75.6649
23.8099
81.3469
-88.0008
61.6006
-88.0702
48.5233
98.5361
80.9487
39.1345
-81.9393
-22.2395
-79.4306
-89.8257
79.7509
63.0767
-59.106
77.4155
61.6666
-74.8921
52.5182
82.4627
-69.2469
122.04
-76.6193
81.2631
92.9468
51.1511
35.7276
-12.6895
59.8116
63.5531
45.6673
40.9755
89.5291
85.1785
-50.6878
-87.96
-77.8726
76.5866
-85.3473
48.3877
60.8322
25.6252
126.267
-79.9114
49.6408
31.5791
-75.8716
-79.0876
199.233
-73.302
80.0772
74.2065
80.0067
63.5603
18.1744
166.95
156.207
-64.0885
45.9972
-85.6028
66.3427
71.1806
18.8323
152.083
76.145
16.4926
-81.4882
-26.6573
118.947
49.2284
-77.1386
61.1831
-86.0314
33.4537
19.6894
77.5073
60.7194
64.9014
77.4596
79.0903
75.5523
22.3519
74.6
-24.8484
-76.3564
-89.4931
-82.5266
72.9396
87.0223
-41.6888
81.9284
77.88
62.2465
58.634
63.3081
-67.8682
-86.454
-69.5106
75.2857
61.7158
83.6436
-40.6826
11.6432
83.0619
75.7542
76.394
69.5761
40.0998
-76.0245
-82.7435
-60.5932
179.274
72.8775
54.2371
146.31
-89.9502
63.0951
155.061
77.1971
-1.53267
220.666
-37.9093
80.6195
82.1443
72.7002
-76.9464
-81.8252
85.2512
101.927
115.045
161.599
75.9404
124.411
51.7677
4.91959
-77.4815
-7.64952
75.8949
79.8965
71.668
81.4845
90.9627
74.5792
-79.5443
-89.2821
124.781
62.308
59.137
-85.0592
-76.1792
39.7051
74.0825
67.8831
77.8152
56.5699
-80.8117
81.2157
172.086
184.89
86.4632
70.1624
138.258
131.441
-31.8832
78.2488
-21.2261
-88.8605
-64.8966
62.2676
93.9044
78.5168
-75.8594
61.6087
131.388
51.5787
-86.5266
75.6016
73.5133
119.856
-50.2191
61.4134
-87.6632
69.5557
79.9972
68.4813
79.0481
27.8177
45.5236
75.4435
-48.578
54.0591
-76.2916
-80.4736
-28.8883
62.0657
97.7306
141.522
54.8574
81.2609
43.3312
70.9636
-30.822
60.1037
54.4197
40.0824
-76.9252
-89.6458
133.014
-30.1135
74.4403
80.914
79.5424
65.2659
-85.2944
-42.748
88.5768
64.208
110.975
80.8275
76.5847
-88.305
-82.792
-21.9229
133.738
209.594
5.46581
56.8258
-82.7
18.7134
57.8019
131.48
169.955
192.587
84.8909
79.3955
80.3596
77.5308
72.0641
12.0075
88.8317
47.8595
84.6111
-82.3899
117.084
73.0073
5.05638
-65.4321
112.137
-70.9239
54.1565
-83.5077
131.929
77.417
104.436
-75.0608
65.4175
118.575
-26.4094
-80.4405
79.6786
61.5504
-74.2334
61.1664
-88.0262
86.6141
87.3637
78.581
50.2689
12.146
77.0793
52.0884
58.1775
-38.1775
-77.7257
77.1142
75.4351
101.394
16.8639
109.554
-83.7436
121.023
99.1515
56.1738
80.2187
-82.5059
75.5367
55.431
30.6656
110.337
-18.9843
67.7183
-77.7442
75.7985
81.3744
-28.6743
94.8258
-79.222
186.029
86.363
-84.1383
90.0084
78.2695
77.4019
6.19104
82.3874
-55.5988
35.4235
74.2544
86.3783
181.401
81.3681
196.68
160.471
7.72307
-86.6697
-70.7167
60.0313
91.2838
68.5252
-89.2384
4.38997
72.0835
77.4008
85.399
80.25
79.5819
76.2661
54.6513
74.6214
61.6919
32.698
76.3422
103.141
154.523
-42.6847
113.254
135.23
40.3082
-85.7097
123.35
64.692
64.4813
44.328
51.3811
83.4444
-25.6966
179.475
75.8458
65.5001
-78.9386
52.3043
74.5578
162.25
117.017
136.724
75.1601
53.7742
-63.7795
110.021
63.0641
86.6168
-49.9731
-50.1379
81.1067
104.019
52.7117
74.5922
26.7063
-80.0362
-87.0278
82.6381
-40.5054
63.8169
70.647
75.3851
172.526
74.2177
-63.4161
130.779
-62.9926
0.448214
50.7095
136.036
54.8661
82.4715
72.6635
162.472
68.4188
-76.8906
-86.8387
80.1258
1.6664
10.1361
47.2794
100.733
68.0429
-85.5475
-81.2801
55.4092
212.456
-88.1614
-7.49264
58.1868
-29.3685
68.5061
126
114.657
73.5981
-67.2544
160.342
77.0481
126.715
42.1074
-89.137
66.9469
67.5221
62.3238
-80.4355
-66.8116
122.032
-50.4575
58.7211
-39.7836
-67.7184
-85.8504
66.4862
-11.5663
86.8549
80.8269
-25.3052
86.8203
-11.2407
137.819
-77.6411
63.6701
-75.5735
-89.1867
-15.6551
-77.4366
91.4018
8.09199
77.3941
62.1127
-64.9106
108.924
59.4485
-74.7602
-10.5888
-83.2553
143.574
100.488
54.0177
58.0733
81.4228
28.9542
78.5056
-84.3763
97.6003
81.1685
-53.3898
45.9905
82.5466
82.8895
75.817
-63.3407
107.224
216.607
170.439
53.9026
30.5701
6.93684
145.556
63.578
128.563
192.913
79.4261
69.7719
99.0987
-81.6914
209.689
16.7227
82.9751
77.9641
76.93
63.9109
221.687
118.272
78.2529
153.587
-72.4587
147.339
162.547
32.5709
-81.1271
100.649
30.7024
-83.2148
72.8404
164.667
59.183
-60.5309
51.4176
-20.8578
71.1422
-15.5695
49.0127
72.3875
-87.6706
72.1513
114.535
135.494
24.8281
66.654
95.2744
73.8568
-15.3175
119.114
56.7388
127.491
88.3185
59.1427
70.1365
-74.3765
-75.9716
87.6989
40.115
107.544
131.378
91.2181
123.516
-60.9822
43.3718
146.218
59.4392
81.3224
49.5376
67.4438
81.3078
64.6939
143.358
80.013
78.0274
-53.7994
-86.7077
-88.1507
84.7696
35.7837
62.2735
124.671
17.5491
-88.518
81.562
-90.1762
53.1741
115.507
71.4034
102.099
84.5459
75.4673
-81.7761
42.0062
86.5876
36.7393
-42.8484
37.4189
21.0699
73.962
-76.8595
179.145
-61.7764
157.03
68.8642
77.999
-75.3046
-89.6308
31.6682
76.8574
79.2883
54.9699
69.07
66.912
124.09
51.7862
150.429
60.6708
74.4373
85.6835
117.209
-17.8443
97.7096
-11.1916
69.523
79.0681
132.336
33.1446
77.4501
65.2886
38.5073
59.6666
76.8086
65.9111
71.5141
38.9677
136.739
82.9422
79.7043
-25.2365
192.818
82.165
-20.1984
-80.9128
72.8549
98.9853
-79.5091
68.8531
-1.49635
-0.582488
35.2914
74.1506
-80.1541
176.706
194.044
-67.6639
62.8489
140.859
-88.5638
-18.2288
75.0762
102.919
-81.0522
-53.0142
87.1106
66.7052
-78.8924
-8.0192
-57.1554
-82.5237
4.26919
81.2647
-9.73821
-77.7224
144.519
36.21
86.3412
-85.2069
62.5249
-65.9616
23.1002
-78.0003
115.15
11.5812
92.2132
69.5124
156.239
85.3904
-4.37607
75.8364
8.51677
-88.515
-82.5922
86.085
108.824
104.757
85.6481
78.6038
64.8727
56.2451
123.673
90.0513
73.4187
39.7795
-85.6987
83.2923
-82.7298
92.484
57.3907
-45.6895
-16.9476
2.26897
81.2636
77.3243
64.1825
-57.2628
58.6334
175.303
87.5395
-82.2689
24.5393
74.0493
-80.6468
-84.4817
65.6751
78.7391
-22.9879
-82.8347
75.8649
-40.1708
81.7316
137.981
147.475
87.0717
52.7602
55.498
65.7724
68.1029
102.56
-83.716
26.5883
94.9
-80.5996
74.1459
73.3156
55.0183
75.1412
-86.4962
78.6953
88.3609
147.446
5.81229
68.4096
62.4675
83.4747
74.6099
69.1357
-81.4763
76.8213
84.2479
60.6683
2.21321
73.529
61.0195
-85.6551
85.2897
104.568
12.1586
159.503
-85.0036
-89.5678
74.9304
-84.403
74.3035
35.2586
52.7661
146.937
62.1254
-77.2968
57.4875
76.7368
56.4677
112.851
-83.6527
-72.3294
47.8813
-23.2701
19.3007
96.0385
84.2333
89.6894
-53.9026
26.4838
63.3278
55.0473
151.353
-85.1612
45.5751
-81.56
161.099
80.3662
-60.894
-72.2564
69.8828
-51.5938
-78.0081
-65.5791
106.531
32.5992
64.3515
66.2082
199.058
43.4084
60.4268
29.8303
-82.652
74.0057
79.2835
-77.1985
79.0234
144.708
-25.7189
209.357
80.7885
-27.0984
59.2167
81.7333
95.9103
-86.5797
90.5105
58.007
62.3824
-27.1775
60.0258
-88.0734
1.57098
62.9747
-75.1632
101.669
-80.4456
-78.1189
66.844
-79.5351
96.9279
-81.9917
-80.8564
-4.53381
63.735
-89.0829
-74.9061
81.3727
-80.6788
80.9832
76.5848
86.6982
28.875
110.604
-70.3197
91.3152
3.0743
183.968
66.2687
-35.7542
-79.6059
97.4233
63.3278
93.6254
42.1546
-83.5681
79.2488
65.6455
-75.5224
-77.4982
37.0301
42.9413
42.2528
-19.3941
-79.7651
67.0214
-64.7836
-20.07
67.0737
109.899
-72.2305
59.4391
63.3578
105.832
-79.6905
73.2116
-87.2705
143.638
-88.3264
-34.039
71.5476
52.4677
-46.1736
59.2024
60.5091
89.6096
96.2131
-52.9181
-20.9155
-87.2546
78.757
32.8684
184.682
64.3573
-17.7723
59.5949
125.616
-81.5938
-50.7723
53.3926
4.54028
-13.6416
-78.3775
133.109
81.2304
65.0147
80.2157
90.9179
97.9647
109.53
89.8047
-79.0971
-78.8574
81.3978
8.14881
109.54
61.5177
106.902
81.6654
-1.78772
192.969
64.7408
196.733
80.2785
-87.1659
-25.8799
-83.5775
24.8378
72.4925
80.1203
80.3475
99.6538
-68.9716
81.3104
67.3945
13.0813
94.2564
57.5096
90.2571
-78.0017
87.7815
75.5274
93.1297
-80.082
59.9632
-84.8506
-71.1355
165.702
96.0824
132.935
-88.8901
116.52
98.3456
-68.1505
-83.4684
-61.4042
77.5964
77.9723
86.4641
-5.59276
128.089
69.4701
-80.828
122.06
157.345
42.4297
108.075
47.5527
59.5974
81.7694
154.916
-79.3563
124.28
52.7552
-88.7613
21.9245
99.9156
76.183
6.82891
79.7234
86.1441
-81.4636
-79.1239
-79.6066
60.109
9.87023
-27.6912
-86.7331
-88.7505
28.2386
-81.0905
97.5041
79.3879
100.209
64.0335
86.1396
75.6711
-25.7446
-46.8325
74.4112
194.406
-85.7814
85.5925
-13.073
108.205
92.3495
81.392
71.2077
-75.2181
55.4891
65.6807
-40.5088
151.936
58.4788
39.4485
53.8653
90.4258
61.2698
15.9131
70.9127
38.0119
84.9008
-85.0503
80.5185
-87.9293
-24.7602
79.4568
-81.172
60.8615
73.5036
73.3683
67.2638
-65.8644
10.7753
141.466
-87.5007
63.9329
65.55
157.747
72.2723
69.6317
-85.0591
-76.3636
-12.9574
166.989
15.6802
67.0442
80.3901
71.8146
81.5543
-88.3366
-78.3517
-87.2159
64.9888
80.4231
66.9641
133.001
176.824
-77.6704
-28.543
110.212
-15.8388
80.8793
69.0447
-45.9236
-71.938
29.2772
-84.1457
-65.9394
-55.2297
7.97368
63.4089
139.281
66.0793
-68.8087
74.1706
58.6849
-90.5127
-76.7906
62.3962
11.9668
41.0848
-75.0092
53.4795
56.4729
89.9059
-24.8196
160.554
-12.9761
101.208
80.6132
44.9568
69.2453
-68.3925
77.1261
111.17
17.9094
94.999
65.7535
68.4477
31.2485
151.417
-77.0965
-78.2743
97.3243
140.619
44.9845
82.0856
-85.737
-69.6542
-34.3507
-14.295
-18.2183
-57.5865
57.2643
83.3024
103.495
60.9017
-12.1019
96.0836
10.7474
53.6822
50.8952
80.7568
-61.9069
-78.9644
46.9723
133.87
112.162
-72.8318
81.8263
-44.8451
82.4975
76.3877
-86.3688
-15.7325
-86.3717
69.6281
78.2876
-76.4321
-78.4808
44.5391
85.5346
-79.216
63.0924
-57.9226
-76.6207
74.3672
21.4205
26.3007
-78.1178
-57.6643
-12.2517
-89.4823
-85.9256
157.953
-78.897
81.0482
31.7848
-78.2875
-76.3935
84.2559
212.992
-69.0349
97.8803
-69.7839
-36.9348
-75.286
23.9726
102.987
-76.0499
-87.1148
185.236
-80.0497
95.3111
5.39744
81.7155
18.4918
65.7887
-20.5661
-2.91326
-75.641
54.6688
68.3955
73.3414
134.345
-78.1619
-78.4347
50.0761
42.0925
-67.2269
46.4289
114.653
101.747
33.4885
82.005
-85.9975
-71.5869
89.0687
102.944
52.7386
129.157
61.2382
73.5077
49.1104
9.23611
-28.5729
79.0347
57.2274
67.1207
133.787
19.2373
-81.2862
1.72883
43.124
-15.1016
-87.1811
-81.7864
66.1172
36.3953
62.2329
57.6437
-73.686
73.8961
-77.7325
41.6707
77.4014
61.2049
80.2284
16.9956
70.5048
98.2077
9.86634
84.4756
100.783
18.8426