/*--------------------------------*- C++ -*----------------------------------*\
| =========                 |                                                 |
| \\      /  F ield         | OpenFOAM: The Open Source CFD Toolbox           |
|  \\    /   O peration     | Version:  2.3.0                                 |
|   \\  /    A nd           | Web:      www.OpenFOAM.org                      |
|    \\/     M anipulation  |                                                 |
\*---------------------------------------------------------------------------*/
FoamFile
{
    version     2.0;
    format      ascii;
    class       volScalarField;
    location    "7000";
    object      nuTilda;
}
// * * * * * * * * * * * * * * * * * * * * * * * * * * * * * * * * * * * * * //

dimensions      [0 2 -1 0 0 0 0];

internalField   nonuniform List<scalar> 
6692
(
0.0538013
0.0485104
0.0441325
0.0407366
0.037737
0.0347307
0.0318634
0.0291604
0.0266067
0.0241749
0.0218958
0.0201719
0.0616374
0.0576131
0.0540753
0.0510684
0.0486078
0.0466813
0.0452531
0.0442756
0.0436968
0.0434628
0.0435218
0.0438226
0.0684
0.0655226
0.0630558
0.0610057
0.0593606
0.0580968
0.0571845
0.0565867
0.0562652
0.0561805
0.0562964
0.0565767
0.0740547
0.0719689
0.0701989
0.0687406
0.0675771
0.0666865
0.0660456
0.0656291
0.0654136
0.065375
0.0654915
0.0657423
0.0787678
0.0772208
0.0759077
0.0748235
0.0739551
0.0732871
0.0728037
0.0724902
0.0723316
0.0723151
0.0724274
0.072656
0.0826982
0.0815208
0.0805152
0.0796773
0.0789995
0.0784729
0.0780886
0.0778378
0.077713
0.0777069
0.0778125
0.0780222
0.0859855
0.0850667
0.0842738
0.0836046
0.0830553
0.0826234
0.0823053
0.0820968
0.0819939
0.0819932
0.082092
0.0822862
0.0887443
0.0880153
0.0873734
0.0868248
0.086366
0.0859988
0.0857272
0.0855495
0.0854626
0.0854647
0.0855566
0.0857378
0.0910747
0.0904913
0.0899539
0.0894966
0.0891067
0.0887813
0.0885422
0.0883886
0.088317
0.0883205
0.0884044
0.088574
0.0930653
0.0925978
0.0921183
0.0917338
0.0914106
0.0911022
0.0908843
0.0907477
0.090697
0.090701
0.0907726
0.0909314
0.0217967
0.0255377
0.0280111
0.0305792
0.033658
0.0373558
0.0416638
0.0465315
0.0518922
0.0576701
0.0637821
0.0701848
0.0442877
0.0449659
0.0459781
0.0473794
0.0492179
0.0515293
0.0543311
0.0576214
0.0613766
0.0655553
0.0701056
0.0750092
0.0569845
0.0575501
0.0583391
0.0593822
0.0607099
0.0623508
0.0643282
0.0666577
0.069345
0.0723843
0.0757607
0.0794845
0.0661073
0.0666042
0.0672694
0.0681203
0.0691746
0.0704498
0.0719624
0.0737257
0.0757496
0.07804
0.0805986
0.0834499
0.0729888
0.0734366
0.0740197
0.0747483
0.0756314
0.0766784
0.0778984
0.0792999
0.0808905
0.0826769
0.0846665
0.0868861
0.0783286
0.078738
0.0792621
0.0799053
0.0806718
0.0815652
0.0825892
0.083747
0.0850426
0.08648
0.0880658
0.0898321
0.0825712
0.0829501
0.0834293
0.0840097
0.0846919
0.0854757
0.0863606
0.0873463
0.0884328
0.0896207
0.0909124
0.0923273
0.0860049
0.0863592
0.0868031
0.0873353
0.0879542
0.0886568
0.0894393
0.0902977
0.0912311
0.0922359
0.0933138
0.094476
0.0888261
0.0891602
0.0895752
0.0900691
0.0906396
0.0912804
0.0919852
0.0927449
0.0935635
0.0944284
0.095346
0.0963216
0.0911692
0.0914865
0.0918779
0.092341
0.0928724
0.0934591
0.0941023
0.0947782
0.0955118
0.096267
0.0970626
0.097894
0.0755754
0.0652194
0.0559703
0.0475784
0.0399558
0.0331698
0.027406
0.0229995
0.0196168
0.0163918
0.0130312
0.00928322
0.0832773
0.0753702
0.0685872
0.0624384
0.0566683
0.0511301
0.0457256
0.0404333
0.0352088
0.0299386
0.0244838
0.0187077
0.0920274
0.0864611
0.0809511
0.0754143
0.0698466
0.0642291
0.058521
0.052664
0.0465941
0.0402457
0.033553
0.0264572
0.100206
0.0953386
0.0902673
0.0849814
0.0794911
0.0737873
0.067838
0.0615929
0.0549925
0.0479736
0.0404762
0.0324458
0.106712
0.102199
0.0973829
0.0922638
0.0868393
0.081091
0.0749826
0.0684638
0.0614758
0.0539537
0.045832
0.0370472
0.111841
0.107573
0.102954
0.0979764
0.0926215
0.0868588
0.0806438
0.0739224
0.0666305
0.0586981
0.050052
0.0406211
0.11591
0.11185
0.107407
0.10256
0.097278
0.0915186
0.0852294
0.0783489
0.0708065
0.0625257
0.0534254
0.0434293
0.119182
0.115307
0.111025
0.106302
0.101093
0.0953485
0.0890041
0.0819918
0.0742356
0.0656512
0.0561513
0.0456554
0.121841
0.118136
0.114006
0.109402
0.10426
0.0985374
0.092151
0.0850273
0.0770833
0.0682272
0.0583659
0.0474165
0.124038
0.120471
0.116484
0.112006
0.10691
0.101216
0.0948016
0.0875891
0.0794784
0.0703716
0.0601688
0.0487685
0.00502124
0.00188367
0.00186627
0.00250949
0.0033466
0.00458369
0.00630412
0.00848431
0.011197
0.0145214
0.0185395
0.0233467
0.0122915
0.00563264
0.00267237
0.00322574
0.00430187
0.00571915
0.00754734
0.00976628
0.0124373
0.0156231
0.0193973
0.0238471
0.0186834
0.0101074
0.0042049
0.00406992
0.00535716
0.00693605
0.00885692
0.0111041
0.0137244
0.0167697
0.020306
0.024416
0.023644
0.0139106
0.00610301
0.00500761
0.00643592
0.00815457
0.010152
0.012418
0.0149863
0.0179001
0.0212117
0.0249681
0.0273983
0.0168174
0.00792401
0.00599894
0.00749556
0.00933762
0.0113983
0.0136748
0.0161918
0.0189826
0.022088
0.0255621
0.0302438
0.0189859
0.00947393
0.00699671
0.00852445
0.010466
0.0125785
0.0148596
0.0173271
0.0200057
0.0229281
0.0261397
0.032417
0.0205994
0.0107302
0.0079603
0.00950777
0.0115295
0.013684
0.015966
0.0183869
0.0209642
0.0237205
0.0266827
0.0340847
0.0218053
0.0117415
0.00886769
0.0104384
0.0125246
0.0147129
0.0169931
0.0193705
0.0218548
0.0244581
0.0271931
0.0353495
0.0227035
0.0125728
0.00969812
0.0112895
0.0134332
0.015657
0.0179379
0.020277
0.0226774
0.0251411
0.0276683
0.0361534
0.0230567
0.0130324
0.0104811
0.012233
0.0144555
0.0166644
0.0189135
0.0211999
0.0235178
0.0258543
0.028216
0.000919683
0.00315172
0.00688174
0.0110893
0.0154744
0.0199643
0.0245061
0.0290196
0.0333856
0.0376943
0.0423338
0.0472085
0.000690523
0.00192296
0.0048425
0.00841325
0.0120619
0.0158918
0.0200016
0.0243561
0.0288616
0.0334348
0.0381526
0.0430477
0.000408588
0.00120078
0.00307315
0.00596541
0.0101683
0.0145511
0.0187806
0.0229523
0.0271299
0.0313562
0.0357047
0.0402962
0.000428353
0.000962262
0.00246269
0.00479362
0.00824676
0.0129205
0.0177049
0.0223836
0.0268283
0.0309834
0.0349359
0.0389648
0.000387924
0.000846684
0.00214225
0.00415932
0.0071341
0.0113835
0.0164917
0.0216246
0.0266046
0.0312044
0.0352544
0.0389094
0.00037799
0.00075916
0.00191129
0.00371229
0.00636683
0.0101609
0.0152707
0.0207153
0.026143
0.0313156
0.0358857
0.0396293
0.000365246
0.000699502
0.00175088
0.003402
0.0058326
0.00930485
0.0141436
0.0197689
0.0255301
0.0311801
0.0363609
0.040593
0.00035904
0.000655909
0.00163083
0.00316757
0.00542671
0.00865328
0.013172
0.0188368
0.024833
0.0308504
0.0365688
0.0414602
0.000355496
0.000627061
0.00154769
0.00300135
0.00513209
0.00816856
0.0124193
0.0180097
0.0241606
0.0304561
0.0366079
0.0421484
0.000355234
0.000609564
0.00149506
0.0028923
0.00493527
0.00783803
0.0118935
0.0173604
0.0236182
0.0301389
0.0366383
0.0427179
0.000357105
0.000599279
0.00146354
0.00282391
0.00481019
0.00762452
0.0115469
0.0168947
0.0232441
0.0299703
0.0367669
0.0432917
0.000360244
0.00059283
0.0014439
0.00278048
0.00473046
0.00748726
0.0113205
0.0165699
0.0230125
0.0299419
0.0370015
0.0438694
0.000363767
0.000588088
0.00143019
0.00274974
0.00467464
0.00739177
0.0111632
0.0163343
0.022876
0.0300268
0.0373603
0.044575
0.000366972
0.000583465
0.0014178
0.00272209
0.0046255
0.0073095
0.0110297
0.0161284
0.0227491
0.0301289
0.0377341
0.0452134
0.00036932
0.000578111
0.00140396
0.00269178
0.00457264
0.00722319
0.0108938
0.0159206
0.0225761
0.0301855
0.0380933
0.0459307
0.000370603
0.000571772
0.00138726
0.00265583
0.0045099
0.00712119
0.0107348
0.0156795
0.0223016
0.0301001
0.0382934
0.0464394
0.000370939
0.000564825
0.00136841
0.0026157
0.00443954
0.00700633
0.0105556
0.0154079
0.02194
0.0298597
0.0383066
0.0467669
0.00037065
0.000557845
0.00134852
0.002574
0.00436633
0.00688602
0.0103663
0.0151188
0.0215285
0.0294874
0.0381271
0.0468685
0.000370168
0.000551561
0.00132943
0.0025346
0.00429764
0.00677348
0.0101889
0.0148469
0.0211308
0.0290784
0.0378685
0.0468514
0.000369715
0.000546237
0.00131136
0.00249793
0.00423464
0.00667177
0.0100306
0.0146062
0.020776
0.0286806
0.037585
0.0467998
0.000369456
0.000542078
0.0012945
0.00246399
0.00417686
0.00657959
0.00988941
0.0143956
0.0204714
0.0283286
0.0373219
0.0467277
0.000369466
0.000539122
0.00127917
0.00243304
0.00412413
0.00649575
0.00976196
0.014208
0.0202045
0.0280193
0.0370973
0.0466923
0.000369701
0.000537199
0.00126533
0.00240486
0.0040758
0.00641838
0.00964368
0.0140331
0.0199541
0.0277176
0.0368628
0.04661
0.000370139
0.000536124
0.00125313
0.00237978
0.00403239
0.00634822
0.0095354
0.0138716
0.0197209
0.0274268
0.0366311
0.0465561
0.000370761
0.000535721
0.00124251
0.00235773
0.00399391
0.00628542
0.00943732
0.0137233
0.0195029
0.0271418
0.0363774
0.0464257
0.000371513
0.000535806
0.00123341
0.00233869
0.00396053
0.00623058
0.00935099
0.0135914
0.0193067
0.0268768
0.0361288
0.0462887
0.000372369
0.00053626
0.0012257
0.00232247
0.00393195
0.00618339
0.00927632
0.0134768
0.0191354
0.0266423
0.0359065
0.0461816
0.00037334
0.00053695
0.00121931
0.0023088
0.00390777
0.00614317
0.00921226
0.0133778
0.0189864
0.0264362
0.0357107
0.0461023
0.000374414
0.000537801
0.00121408
0.00229745
0.00388753
0.00610943
0.00915803
0.0132931
0.0188571
0.0262533
0.0355304
0.0460321
0.000375562
0.000538831
0.00120986
0.00228816
0.00387084
0.0060813
0.0091125
0.0132215
0.0187469
0.0260937
0.0353612
0.0459326
0.000376776
0.000540023
0.00120655
0.00228073
0.00385734
0.00605833
0.00907506
0.0131623
0.0186557
0.0259614
0.0352209
0.0458522
0.000378037
0.000541324
0.00120419
0.00227522
0.0038471
0.00604052
0.00904549
0.013115
0.0185827
0.0258585
0.0351259
0.0458554
0.000379361
0.000542704
0.00120281
0.00227163
0.00383993
0.00602744
0.00902295
0.0130773
0.0185215
0.0257684
0.0350437
0.0458712
0.000380808
0.000544066
0.00120265
0.00227009
0.00383593
0.00601928
0.00900814
0.0130516
0.0184771
0.0256938
0.0349498
0.0457902
0.000382345
0.000545416
0.0012038
0.00227083
0.0038352
0.0060157
0.0089998
0.0130364
0.0184524
0.02566
0.0349354
0.0458509
0.000383963
0.000546796
0.00120656
0.00227445
0.00383864
0.00601724
0.00899715
0.0130272
0.0184355
0.0256408
0.0349565
0.0459581
0.000385632
0.000548225
0.00121092
0.00228122
0.00384704
0.00602564
0.00900257
0.0130252
0.018421
0.0256155
0.0349797
0.0461775
0.000387307
0.000549705
0.00121682
0.00229113
0.0038608
0.00604241
0.0090199
0.0130376
0.0184183
0.0255813
0.0349202
0.046158
0.000388997
0.000551208
0.00122418
0.0023039
0.00387948
0.0060672
0.00905002
0.0130701
0.0184462
0.0255922
0.0349186
0.0462259
0.000390738
0.000552507
0.00123298
0.00231946
0.00390285
0.00609964
0.00909205
0.0131211
0.0185038
0.0256525
0.034999
0.0463818
0.000392476
0.000553622
0.00124313
0.00233768
0.00393064
0.00613886
0.00914414
0.0131867
0.0185825
0.0257445
0.035131
0.0466576
0.00039417
0.000554587
0.00125448
0.00235824
0.00396241
0.00618425
0.00920526
0.013265
0.0186777
0.0258551
0.0352754
0.0469377
0.000395768
0.000555413
0.00126684
0.00238083
0.00399763
0.00623529
0.00927512
0.0133559
0.0187901
0.0259867
0.0354375
0.047218
0.000397288
0.000556169
0.00128022
0.00240528
0.00403595
0.00629126
0.00935293
0.0134593
0.0189216
0.0261458
0.035633
0.0475474
0.000398801
0.000557162
0.00129471
0.00243145
0.00407678
0.00635084
0.00943612
0.0135714
0.0190674
0.0263283
0.0358579
0.0478816
0.000400372
0.000558966
0.00131042
0.00245953
0.00412022
0.00641384
0.00952344
0.0136887
0.0192214
0.0265277
0.0361223
0.0483078
0.000402071
0.000562332
0.0013275
0.00248984
0.00416676
0.00648052
0.00961453
0.0138088
0.019376
0.026724
0.0363806
0.0487712
0.000403854
0.000567668
0.00134614
0.00252282
0.00421712
0.00655204
0.00971095
0.0139337
0.0195319
0.0269104
0.0365912
0.0490431
0.000405609
0.000574762
0.00136653
0.00255896
0.00427228
0.00663015
0.00981573
0.0140683
0.0196985
0.0271101
0.0368279
0.0493929
0.000407317
0.000583186
0.00138862
0.00259841
0.00433304
0.00671638
0.00993139
0.0142161
0.0198793
0.0273218
0.0370653
0.0497001
0.000408897
0.000592731
0.00141288
0.00264185
0.00440001
0.0068119
0.01006
0.0143808
0.0200803
0.027555
0.0373198
0.0499832
0.000410222
0.000603169
0.00143901
0.00268898
0.00447333
0.0069176
0.0102035
0.0145659
0.0203075
0.0278198
0.037613
0.0503171
0.000411219
0.000614354
0.00146692
0.00273948
0.00455244
0.00703283
0.0103619
0.0147731
0.0205649
0.0281213
0.0379418
0.05068
0.000411856
0.000626172
0.00149645
0.00279288
0.00463644
0.007156
0.0105332
0.0150009
0.020855
0.0284693
0.0383154
0.0509576
0.000412121
0.00063883
0.00152777
0.00284943
0.00472522
0.00728588
0.0107146
0.0152449
0.0211734
0.0288754
0.0388246
0.0516087
0.000411976
0.000652147
0.00156076
0.00290917
0.00481893
0.0074222
0.0109037
0.0154978
0.0215019
0.0292935
0.0393541
0.0523044
0.000411405
0.000666631
0.00159628
0.00297277
0.00491817
0.00756621
0.0111018
0.0157593
0.0218351
0.0297039
0.0398431
0.0528664
0.000410333
0.000682188
0.00163427
0.00304074
0.00502427
0.00772002
0.0113129
0.0160369
0.022186
0.0301298
0.0403351
0.0533921
0.000408639
0.000698888
0.00167483
0.00311311
0.0051373
0.00788414
0.0115385
0.016334
0.0225617
0.0305864
0.0408685
0.0539944
0.000406194
0.000716767
0.00171799
0.00318998
0.00525739
0.00805846
0.0117784
0.0166497
0.0229617
0.0310738
0.0414332
0.0545957
0.000402894
0.000735917
0.00176395
0.00327185
0.00538493
0.00824284
0.0120316
0.0169828
0.0233841
0.0315915
0.0420459
0.0552976
0.000398667
0.000756646
0.00181326
0.00335909
0.00552047
0.00843792
0.0122981
0.0173317
0.0238237
0.0321258
0.042672
0.0560022
0.000393317
0.000779242
0.00186646
0.00345269
0.00566539
0.00864587
0.0125804
0.0176983
0.024281
0.0326736
0.0433028
0.0567128
0.000386532
0.000803963
0.00192416
0.0035538
0.00582152
0.00886926
0.0128821
0.0180878
0.024763
0.0332432
0.0439352
0.0573189
0.000377687
0.000831133
0.00198718
0.00366376
0.00599081
0.00911066
0.0132069
0.0185047
0.0252755
0.0338489
0.0446315
0.0581428
0.000365576
0.00086104
0.00205654
0.00378438
0.00617569
0.0093734
0.0135589
0.0189528
0.0258197
0.0344756
0.0453012
0.0587534
0.000347891
0.000894125
0.00213365
0.00391869
0.00637933
0.00966134
0.0139433
0.0194405
0.0264099
0.0351557
0.0460423
0.0595194
0.000320953
0.000930726
0.00222027
0.00406949
0.00660673
0.00998011
0.0143657
0.0199727
0.0270479
0.0358806
0.0468142
0.0602686
0.000279921
0.000972558
0.00232093
0.00424435
0.00686941
0.0103425
0.0148399
0.0205635
0.0277475
0.0366642
0.0476341
0.0610514
0.00024146
0.00102518
0.00244168
0.00445367
0.00718452
0.0107755
0.0153956
0.0212446
0.0285407
0.0375368
0.0485273
0.0618764
0.000232684
0.00110037
0.00259289
0.00471237
0.00757447
0.0113144
0.016089
0.0220788
0.0294898
0.0385588
0.0495508
0.0627921
0.000241194
0.00119684
0.00278656
0.00504296
0.00807266
0.0120036
0.0169793
0.0231579
0.0307132
0.0398457
0.050814
0.0639167
0.000258029
0.00130474
0.00303702
0.00548311
0.00874218
0.0129307
0.0181744
0.0246047
0.0323574
0.0415851
0.0524958
0.0654054
0.000284382
0.00146357
0.0034232
0.00617134
0.00978574
0.014356
0.0199757
0.0267445
0.0347464
0.0440702
0.0548514
0.0673529
0.000364034
0.00211905
0.00471028
0.00808569
0.0122702
0.0173655
0.023465
0.0306005
0.0388016
0.0480939
0.0585587
0.0704259
0.000970406
0.00410215
0.00812376
0.0128588
0.0181597
0.0239652
0.0302126
0.0368382
0.043781
0.0509636
0.0583247
0.065834
0.000353603
0.0020526
0.00488823
0.00862084
0.0131956
0.0185595
0.0246462
0.0313587
0.0385893
0.0462164
0.0541174
0.0621857
0.000578431
0.00178863
0.0041043
0.00721247
0.0111413
0.0159063
0.0214991
0.0278746
0.0349502
0.0426069
0.0506993
0.0590884
0.000616639
0.00156105
0.00356993
0.00628832
0.00978029
0.0140974
0.0192713
0.0253001
0.0321375
0.0396879
0.0478094
0.0563308
0.000629477
0.00135884
0.00314184
0.00558206
0.00875513
0.0127292
0.0175596
0.0232741
0.0298581
0.0372441
0.0453049
0.0538586
0.000637565
0.00121331
0.00282629
0.00505556
0.00797916
0.0116747
0.0162127
0.0216416
0.0279734
0.0351682
0.0431224
0.0516768
0.00064133
0.00110698
0.00258638
0.00464861
0.00737002
0.0108338
0.0151202
0.0202932
0.0263854
0.0333803
0.0411987
0.0496949
0.000643782
0.00102452
0.00239584
0.00431948
0.0068731
0.010141
0.0142099
0.0191551
0.0250252
0.0318252
0.0395016
0.0479446
0.00064626
0.000958567
0.00223982
0.00404644
0.00645799
0.00955799
0.0134373
0.0181794
0.0238459
0.0304601
0.0379907
0.0463429
0.00064859
0.000904451
0.00210915
0.00381568
0.00610536
0.00905963
0.0127721
0.0173323
0.0228119
0.0292487
0.0366287
0.0448658
0.000650543
0.000859085
0.00199761
0.00361733
0.00580103
0.00862742
0.0121919
0.0165881
0.0218956
0.0281641
0.0353938
0.0435157
0.000652279
0.000820503
0.00190098
0.00344436
0.0055349
0.00824796
0.0116799
0.0159276
0.0210766
0.0271865
0.0342717
0.0422851
0.000653897
0.000787299
0.00181641
0.00329226
0.00529972
0.00791151
0.0112241
0.0153367
0.0203398
0.0263017
0.033251
0.0411655
0.000655395
0.000758584
0.00174201
0.00315821
0.00509011
0.00761069
0.0108152
0.0148043
0.0196728
0.025496
0.0323128
0.0401063
0.000657158
0.000737038
0.0016761
0.00303877
0.00490185
0.00733975
0.0104458
0.0143216
0.0190652
0.0247578
0.0314467
0.0391245
0.000660349
0.000729898
0.00161721
0.00293137
0.00473165
0.00709424
0.0101102
0.0138819
0.0185102
0.0240822
0.0306578
0.0382635
0.000664945
0.000733288
0.00156426
0.00283411
0.00457685
0.00687052
0.00980372
0.0134793
0.0180002
0.0234575
0.0299137
0.0373632
0.000670001
0.000739947
0.00151646
0.0027455
0.00443526
0.00666556
0.00952242
0.0131089
0.0175294
0.0228789
0.0292278
0.0366113
0.000674833
0.000746381
0.00147316
0.00266441
0.00430517
0.006477
0.00926315
0.0127666
0.0170929
0.0223392
0.0285769
0.0358154
0.000679211
0.000751689
0.00143374
0.00258981
0.00418499
0.00630274
0.00902316
0.0124489
0.0166864
0.0218344
0.0279684
0.0351234
0.000683139
0.000755891
0.00139774
0.00252117
0.0040745
0.00614114
0.00880017
0.0121531
0.0163068
0.0213623
0.0274017
0.0344765
0.000686668
0.000759139
0.00136483
0.00245792
0.00397252
0.0059908
0.00859229
0.0118769
0.0159519
0.0209212
0.0268746
0.0338798
0.00068987
0.000761729
0.00133496
0.00239948
0.00387786
0.00585053
0.00839803
0.0116184
0.0156197
0.0205085
0.0263797
0.0333014
0.000692846
0.000764041
0.00131029
0.00234531
0.00378964
0.00571927
0.00821602
0.0113762
0.0153082
0.0201206
0.0259111
0.0327453
0.000695742
0.000767383
0.00129678
0.00229521
0.00370717
0.0055962
0.00804521
0.0111486
0.0150152
0.0197547
0.0254657
0.0322121
0.000698819
0.000772745
0.00129527
0.00224903
0.00362986
0.00548051
0.00788456
0.0109344
0.0147386
0.0194075
0.0250392
0.0316946
0.00070213
0.000779831
0.00130059
0.00220653
0.00355734
0.00537158
0.0077331
0.0107321
0.014477
0.0190783
0.0246371
0.0312342
0.000705531
0.000787669
0.00130797
0.00216727
0.00348918
0.00526882
0.00759011
0.010541
0.0142293
0.0187666
0.0242572
0.0307858
0.000708873
0.000795362
0.00131493
0.0021308
0.00342492
0.00517163
0.00745488
0.01036
0.0139946
0.018471
0.0238944
0.0303448
0.000712082
0.000802501
0.00132063
0.00209682
0.00336444
0.00508
0.00732669
0.0101883
0.0137716
0.0181889
0.0235447
0.029913
0.00071515
0.000808885
0.0013249
0.00206501
0.00330751
0.00499381
0.00720517
0.0100251
0.0135593
0.0179201
0.0232145
0.0295384
0.000718139
0.00081466
0.0013279
0.0020352
0.00325379
0.00491232
0.00708965
0.00986986
0.0133571
0.0176639
0.0228993
0.0291536
0.000721018
0.000819677
0.00132972
0.00200716
0.00320309
0.00483509
0.00697977
0.009722
0.0131644
0.0174194
0.0225962
0.0287791
0.000723678
0.000824097
0.00133053
0.00198076
0.00315514
0.00476178
0.00687516
0.00958102
0.0129801
0.0171842
0.0222991
0.028394
0.000726204
0.000828009
0.00133052
0.00195586
0.00310964
0.00469204
0.00677537
0.00944637
0.012804
0.01696
0.0220254
0.0281187
0.000728623
0.000831545
0.0013299
0.00193269
0.00306653
0.00462559
0.00668007
0.00931767
0.0126355
0.016745
0.0217565
0.0277535
0.000730984
0.000834774
0.00132897
0.00191206
0.00302565
0.00456239
0.00658911
0.0091946
0.0124745
0.0165407
0.0215106
0.0275242
0.000733384
0.000837978
0.00132844
0.00189605
0.00298692
0.00450205
0.00650212
0.00907697
0.0123208
0.0163463
0.021272
0.0272011
0.000735822
0.000841168
0.00132913
0.00188691
0.0029505
0.00444449
0.00641901
0.00896463
0.012174
0.0161604
0.021042
0.0269298
0.000738218
0.000844658
0.0013318
0.00188477
0.00291649
0.00438963
0.00633963
0.00885728
0.0120337
0.0159822
0.0208196
0.0266485
0.000740681
0.000848603
0.00133658
0.00188766
0.00288479
0.00433734
0.00626376
0.00875466
0.0118995
0.0158107
0.0206019
0.0263666
0.000743242
0.00085306
0.0013431
0.00189335
0.00285539
0.00428766
0.00619171
0.00865679
0.0117714
0.0156473
0.0204054
0.0261971
0.000745922
0.000857884
0.00135073
0.00190013
0.00282805
0.00424059
0.00612322
0.00856309
0.011649
0.0154929
0.0202212
0.0259739
0.00074877
0.000863051
0.00135893
0.00190704
0.00280244
0.00419576
0.00605785
0.00847341
0.0115321
0.0153459
0.0200411
0.0257333
0.000751713
0.000868167
0.00136714
0.00191347
0.00277838
0.00415314
0.00599574
0.00838797
0.0114204
0.0152047
0.0198636
0.0254967
0.00075455
0.000873095
0.00137506
0.00191926
0.0027557
0.00411257
0.00593634
0.00830616
0.0113134
0.0150681
0.019687
0.0252546
0.000757392
0.000878053
0.00138275
0.00192438
0.00273432
0.00407419
0.00587984
0.00822794
0.0112109
0.0149359
0.0195172
0.0250536
0.000760321
0.000882646
0.00138975
0.00192873
0.00271424
0.00403771
0.00582585
0.00815328
0.0111124
0.0148084
0.0193538
0.0248471
0.000763361
0.000887156
0.00139625
0.00193245
0.00269532
0.00400307
0.00577442
0.00808174
0.011018
0.0146856
0.019196
0.0246444
0.000766437
0.000891418
0.00140229
0.00193556
0.00267742
0.00397012
0.00572533
0.00801322
0.0109272
0.0145673
0.0190427
0.0244447
0.000769483
0.000895488
0.00140787
0.00193813
0.00266055
0.00393888
0.00567878
0.0079479
0.0108399
0.0144531
0.0188955
0.0242659
0.00077253
0.000899308
0.00141297
0.00194022
0.00264472
0.0039092
0.00563429
0.00788533
0.0107563
0.0143437
0.0187556
0.0240968
0.000775606
0.000903048
0.00141783
0.00194208
0.00263016
0.00388123
0.00559206
0.00782551
0.0106763
0.0142391
0.0186227
0.0239341
0.00077884
0.000906724
0.00142232
0.00194365
0.00261727
0.00385491
0.0055519
0.00776862
0.0106
0.0141394
0.0184962
0.0237779
0.00078224
0.000910378
0.00142664
0.00194537
0.00260651
0.00383003
0.00551375
0.0077144
0.0105276
0.0140448
0.0183761
0.0236277
0.000785749
0.000913945
0.00143088
0.00194744
0.00259857
0.00380678
0.00547767
0.00766299
0.0104587
0.0139552
0.0182614
0.02348
0.000789313
0.000917522
0.0014352
0.00195022
0.00259396
0.00378529
0.005444
0.00761494
0.0103936
0.0138703
0.0181536
0.0233547
0.000792977
0.000921075
0.00143971
0.00195397
0.00259276
0.00376557
0.0054124
0.0075699
0.0103326
0.0137908
0.0180534
0.0232353
0.000796782
0.000924807
0.00144471
0.00195897
0.0025946
0.0037479
0.00538321
0.00752794
0.0102755
0.0137164
0.0179595
0.0231148
0.000800876
0.000928751
0.00145012
0.00196497
0.00259885
0.00373214
0.0053563
0.00748934
0.0102228
0.0136475
0.0178711
0.0230025
0.000805279
0.000932945
0.00145602
0.00197207
0.00260492
0.00371836
0.0053319
0.00745396
0.0101744
0.0135845
0.0177948
0.0229403
0.000809952
0.000937303
0.00146243
0.00198001
0.0026121
0.00370651
0.00531005
0.00742205
0.0101306
0.0135277
0.0177226
0.0228213
0.00081485
0.000941864
0.00146928
0.00198857
0.00262003
0.00369667
0.00529117
0.00739411
0.0100918
0.013478
0.0176658
0.02281
0.000820035
0.000946535
0.00147643
0.00199753
0.00262846
0.00368885
0.0052751
0.00737011
0.0100586
0.0134358
0.0176137
0.0226973
0.000825568
0.00095146
0.00148397
0.0020069
0.00263722
0.00368331
0.00526231
0.00735043
0.0100312
0.0134007
0.0175693
0.0226587
0.000831628
0.000956619
0.00149167
0.00201636
0.00264635
0.00368016
0.00525301
0.00733575
0.0100104
0.0133735
0.0175336
0.0225998
0.000838288
0.000962026
0.00149957
0.00202605
0.00265577
0.0036795
0.00524762
0.00732644
0.00999681
0.013355
0.0175076
0.0225628
0.000845575
0.00096761
0.00150764
0.00203585
0.00266557
0.00368181
0.00524687
0.00732346
0.00999118
0.0133463
0.0174924
0.0225323
0.000853506
0.00097333
0.00151586
0.0020458
0.00267587
0.00368764
0.00525171
0.00732791
0.00999484
0.0133487
0.0174913
0.0225396
0.000862356
0.000979423
0.00152435
0.00205604
0.00268693
0.0036978
0.00526304
0.00734119
0.0100098
0.0133647
0.0175083
0.0225597
0.000872506
0.000985772
0.0015331
0.00206664
0.00269896
0.00371337
0.00528257
0.00736521
0.0100383
0.0133973
0.0175436
0.0225866
0.000884559
0.000993911
0.00154354
0.00207861
0.00271324
0.00373779
0.00531435
0.00740479
0.0100853
0.0134511
0.0176051
0.0226731
0.000897291
0.000996323
0.00154955
0.00208769
0.00272644
0.00376533
0.00535399
0.00745714
0.0101503
0.013528
0.0176898
0.0227186
0.00094426
0.00103847
0.0015819
0.00211982
0.00276554
0.00384522
0.00545278
0.00757042
0.0102744
0.0136579
0.0178215
0.022891
0.000513906
0.000864842
0.00151871
0.002055
0.00269366
0.00378116
0.00540213
0.00754005
0.0102723
0.0136953
0.0179045
0.0229634
0.157756
0.136186
0.125486
0.149371
0.049375
0.0986442
0.137002
0.135337
0.0465301
0.0479403
0.154455
0.139246
0.11706
0.137213
0.121551
0.0535066
0.106541
0.142501
0.136393
0.0834675
0.139421
0.137039
0.119818
0.0935133
0.096075
0.0374869
0.0662346
0.151846
0.140725
0.11547
0.12097
0.145776
0.0552822
0.0789775
0.126315
0.139021
0.12954
0.179554
0.0568672
0.108999
0.115115
0.150764
0.080013
0.0584032
0.12932
0.100394
0.136153
0.137
0.138122
0.137436
0.133093
0.097936
0.198577
0.0761016
0.137336
0.130153
0.175233
0.14007
0.133866
0.175546
0.129382
0.109133
0.107749
0.115489
0.172431
0.0679777
0.115678
0.181024
0.211766
0.109816
0.146263
0.115561
0.137937
0.138959
0.0450906
0.11839
0.125822
0.112503
0.0831221
0.131349
0.0646886
0.104561
0.139559
0.146005
0.0670871
0.138697
0.135477
0.136669
0.13334
0.0985847
0.0727512
0.134582
0.136417
0.138288
0.106157
0.138018
0.0679879
0.062709
0.137942
0.114444
0.106792
0.137947
0.0385601
0.130947
0.0825733
0.11982
0.107428
0.0760152
0.108941
0.105391
0.135453
0.116254
0.127557
0.134987
0.140348
0.119699
0.140039
0.137607
0.132237
0.0468531
0.118089
0.134698
0.125161
0.134439
0.15249
0.0625227
0.160217
0.0759418
0.137756
0.0686293
0.10028
0.0820417
0.0832103
0.137958
0.0913009
0.150625
0.0770387
0.13849
0.13159
0.12487
0.139882
0.17911
0.13215
0.120693
0.110663
0.104252
0.0719018
0.0789695
0.0959564
0.110878
0.100868
0.140031
0.113894
0.145969
0.172812
0.0349882
0.0875708
0.125187
0.101005
0.136501
0.132898
0.0968036
0.136821
0.137721
0.0906038
0.144117
0.0371987
0.13992
0.132204
0.165159
0.139123
0.139448
0.13206
0.138848
0.136564
0.131161
0.133518
0.138117
0.130592
0.121094
0.139429
0.0526379
0.119833
0.0546427
0.108182
0.166454
0.0942215
0.135623
0.0834148
0.130186
0.132466
0.0540178
0.356672
0.100004
0.0282379
0.140088
0.129266
0.122268
0.135286
0.0849423
0.103922
0.0639752
0.135494
0.08316
0.095727
0.127028
0.112519
0.0855866
0.0967784
0.290363
0.123426
0.14008
0.202847
0.13934
0.130818
0.084148
0.0562575
0.0498911
0.113074
0.124305
0.0900047
0.140086
0.0442119
0.078527
0.11746
0.138834
0.138986
0.0735919
0.133149
0.106795
0.057586
0.103324
0.0933268
0.0547512
0.138805
0.134271
0.139165
0.0189164
0.0790721
0.154008
0.0726732
0.127679
0.0932197
0.132984
0.106826
0.136664
0.0794175
0.121834
0.0550421
0.051102
0.11177
0.0709334
0.0503958
0.103216
0.139439
0.0618797
0.0633114
0.123005
0.136084
0.138664
0.133775
0.24371
0.131681
0.137682
0.136525
0.0436156
0.123987
0.125825
0.123561
0.125072
0.131543
0.107785
0.0601371
0.0633291
0.0291202
0.0882183
0.135829
0.133747
0.101389
0.136502
0.134745
0.0505163
0.139342
0.114822
0.139543
0.116037
0.139518
0.0958351
0.121037
0.0822937
0.362979
0.140006
0.139793
0.0984912
0.148731
0.091778
0.14001
0.0421306
0.111471
0.109231
0.13901
0.0826334
0.0914869
0.0699853
0.0911295
0.134066
0.123284
0.134972
0.119526
0.139894
0.38899
0.1338
0.0416388
0.131936
0.129047
0.180528
0.116806
0.193746
0.129388
0.132253
0.232887
0.120511
0.0860709
0.137935
0.095894
0.132018
0.121345
0.0932427
0.128475
0.125715
0.129553
0.151989
0.111131
0.137813
0.122005
0.134358
0.0657367
0.1381
0.163898
0.0850229
0.129665
0.0987178
0.0578877
0.0554623
0.0946634
0.190157
0.137015
0.137413
0.0581594
0.113035
0.102117
0.0829973
0.115882
0.329714
0.0752251
0.139737
0.0963225
0.103588
0.140066
0.140072
0.033281
0.0591307
0.140017
0.102862
0.095225
0.140064
0.124119
0.138252
0.130383
0.0832361
0.139379
0.133359
0.110555
0.139018
0.131922
0.114577
0.137351
0.155612
0.145757
0.0898259
0.134666
0.106543
0.0668236
0.0969416
0.13064
0.122981
0.124428
0.0775935
0.135703
0.136079
0.104874
0.0590923
0.0354492
0.0533465
0.138794
0.0595388
0.138246
0.139029
0.140012
0.0486115
0.0835435
0.0626963
0.138064
0.124135
0.135807
0.154185
0.128711
0.0660797
0.0921863
0.139123
0.124834
0.123663
0.109928
0.127283
0.119413
0.0377011
0.126825
0.077035
0.0356329
0.189558
0.0719553
0.123859
0.107142
0.132993
0.115089
0.136722
0.115215
0.0927829
0.0439594
0.0953012
0.0406344
0.134282
0.130819
0.120551
0.122105
0.112201
0.137363
0.123702
0.0997706
0.140333
0.134609
0.154618
0.130455
0.13732
0.102265
0.132597
0.0462411
0.163205
0.0426919
0.101844
0.189533
0.179246
0.0846451
0.0436872
0.137192
0.134053
0.133356
0.0758497
0.111694
0.0484415
0.13912
0.086938
0.139749
0.128259
0.0965525
0.11664
0.13071
0.10052
0.120894
0.0830674
0.137809
0.140082
0.140058
0.0917494
0.117856
0.0844935
0.0593811
0.11972
0.132602
0.0719661
0.184803
0.132218
0.139939
0.180513
0.113106
0.0764208
0.0605466
0.139111
0.0582397
0.0944684
0.116228
0.0875925
0.220467
0.136318
0.132138
0.131709
0.138661
0.0565116
0.104542
0.135593
0.118809
0.081418
0.129784
0.139516
0.138343
0.0666469
0.136999
0.0471467
0.0624172
0.0525484
0.139741
0.028189
0.0328385
0.12931
0.0718003
0.259073
0.032548
0.118963
0.191727
0.0297674
0.146272
0.104742
0.137742
0.130572
0.071336
0.208597
0.031884
0.042232
0.13696
0.110588
0.140096
0.136904
0.0846943
0.0701998
0.0760176
0.109497
0.0369317
0.15867
0.0281681
0.137894
0.134316
0.136753
0.0282138
0.136243
0.0883252
0.131105
0.16281
0.136816
0.10558
0.150391
0.140065
0.0564333
0.127135
0.0964134
0.171019
0.139658
0.137177
0.118965
0.110996
0.120769
0.133062
0.119151
0.228302
0.15394
0.181562
0.13766
0.125971
0.0859162
0.139904
0.117703
0.10994
0.112919
0.0434386
0.117724
0.137512
0.135152