/*--------------------------------*- C++ -*----------------------------------*\
| =========                 |                                                 |
| \\      /  F ield         | OpenFOAM: The Open Source CFD Toolbox           |
|  \\    /   O peration     | Version:  2.3.0                                 |
|   \\  /    A nd           | Web:      www.OpenFOAM.org                      |
|    \\/     M anipulation  |                                                 |
\*---------------------------------------------------------------------------*/
FoamFile
{
    version     2.0;
    format      ascii;
    class       volScalarField;
    location    "10000";
    object      nut;
}
// * * * * * * * * * * * * * * * * * * * * * * * * * * * * * * * * * * * * * //

dimensions      [0 2 -1 0 0 0 0];

internalField   nonuniform List<scalar> 
120445
(
0.0368482
0.0355511
0.0342765
0.0330238
0.0317929
0.0305846
0.0293999
0.028238
0.0270986
0.0259827
0.0248897
0.0238195
0.022772
0.0217472
0.0207446
0.0197642
0.0188057
0.0178682
0.0169518
0.0160564
0.0151821
0.0143275
0.0134928
0.0126779
0.0118824
0.0111064
0.0103489
0.00960961
0.00888951
0.00818707
0.00750398
0.00683842
0.00619268
0.00556684
0.00496075
0.00437624
0.00381492
0.00327941
0.00277416
0.00230232
0.00186665
0.00146628
0.00102032
0.0374072
0.0362281
0.0350663
0.0339213
0.0327939
0.0316844
0.0305932
0.029519
0.0284631
0.027425
0.0264044
0.0254008
0.0244146
0.0234459
0.022494
0.0215591
0.0206401
0.0197371
0.0188503
0.01798
0.0171246
0.0162848
0.0154612
0.0146521
0.0138589
0.0130805
0.0123168
0.0115691
0.0108367
0.0101211
0.00942091
0.00873834
0.00807474
0.0074313
0.00680763
0.00620733
0.00563275
0.00508668
0.00457202
0.00409112
0.00364817
0.00324378
0.00288471
0.0379433
0.0368684
0.0358066
0.034759
0.0337248
0.0327043
0.0316973
0.0307033
0.0297232
0.0287568
0.0278028
0.0268618
0.0259342
0.0250193
0.0241169
0.0232268
0.0223489
0.0214832
0.020629
0.0197866
0.0189559
0.0181378
0.0173309
0.0165358
0.0157525
0.0149815
0.0142224
0.0134763
0.0127441
0.0120256
0.0113217
0.0106337
0.00996367
0.00931271
0.0086822
0.00807535
0.00749445
0.0069429
0.00642162
0.00593531
0.00548538
0.00507535
0.00470972
0.038454
0.0374706
0.0364986
0.0355382
0.0345875
0.0336467
0.0327155
0.0317932
0.0308808
0.0299779
0.029084
0.0281995
0.0273251
0.0264594
0.0256019
0.0247532
0.0239134
0.0230818
0.022258
0.0214428
0.0206367
0.0198396
0.0190501
0.0182699
0.0174992
0.0167373
0.0159853
0.0152444
0.0145149
0.0137972
0.0130925
0.0124028
0.0117291
0.0110739
0.0104386
0.00982611
0.00923943
0.00868048
0.00815238
0.00765777
0.00719937
0.00677773
0.0063973
0.0389293
0.0380322
0.0371425
0.0362599
0.0353838
0.0345148
0.0336514
0.0327931
0.0319408
0.0310945
0.0302541
0.02942
0.0285924
0.0277705
0.0269543
0.0261433
0.0253374
0.0245364
0.02374
0.0229499
0.0221663
0.0213877
0.0206152
0.0198498
0.0190905
0.0183384
0.0175936
0.0168579
0.016131
0.0154146
0.0147099
0.0140188
0.0133419
0.0126825
0.0120424
0.0114244
0.0108304
0.0102636
0.00972699
0.0092238
0.0087544
0.00832109
0.00792749
0.039378
0.0385546
0.0377381
0.0369259
0.0361175
0.0353126
0.0345093
0.0337084
0.0329099
0.0321136
0.0313201
0.0305297
0.0297428
0.0289602
0.0281814
0.0274047
0.0266295
0.0258553
0.0250836
0.0243151
0.0235504
0.0227892
0.0220326
0.0212801
0.020532
0.0197883
0.0190505
0.018319
0.0175959
0.0168807
0.0161756
0.0154818
0.0148024
0.0141391
0.0134941
0.0128697
0.0122686
0.0116936
0.0111484
0.010635
0.0101556
0.00971155
0.00930536
0.0397884
0.0390367
0.0382878
0.0375394
0.0367916
0.0360438
0.0352947
0.0345449
0.0337939
0.0330421
0.0322894
0.0315368
0.0307849
0.0300363
0.0292917
0.0285478
0.0278013
0.0270506
0.0262984
0.0255481
0.0248002
0.0240549
0.0233123
0.0225715
0.0218328
0.0210976
0.0203659
0.0196388
0.0189182
0.0182044
0.0174983
0.0168026
0.0161198
0.015453
0.0148027
0.0141721
0.0135636
0.0129808
0.0124271
0.011905
0.0114163
0.0109619
0.0105441
0.0401749
0.0394832
0.0387945
0.0381032
0.03741
0.036714
0.0360133
0.035309
0.0346004
0.0338872
0.0331718
0.0324514
0.0317266
0.0310051
0.0302905
0.0295806
0.0288644
0.0281355
0.0273971
0.0266605
0.0259268
0.0251952
0.0244644
0.0237346
0.0230058
0.0222787
0.021552
0.0208276
0.0201101
0.019398
0.0186904
0.017991
0.0173058
0.0166361
0.0159812
0.0153435
0.0147276
0.0141382
0.0135777
0.0130477
0.0125493
0.012085
0.0116573
0.0405251
0.0398931
0.039261
0.03862
0.0379764
0.0373285
0.0366704
0.0360068
0.0353356
0.0346552
0.0339744
0.0332861
0.0325798
0.031874
0.0311798
0.0305061
0.0298292
0.0291311
0.0283918
0.0276625
0.0269394
0.0262216
0.0254994
0.0247819
0.0240619
0.0233433
0.0226224
0.021897
0.0211826
0.0204763
0.0197666
0.0190594
0.0183702
0.0177025
0.0170436
0.0163967
0.0157722
0.0151779
0.0146123
0.0140746
0.0135699
0.0130948
0.0126574
0.000841977
0.000764182
0.0007341
0.000754685
0.000835633
0.000970936
0.00114194
0.00132926
0.00152365
0.00171988
0.00191892
0.00212025
0.0023257
0.00253448
0.00274883
0.00296705
0.003191
0.00342061
0.00365544
0.00389581
0.00414197
0.00439418
0.0046525
0.00491681
0.0051877
0.00546535
0.00574966
0.00604081
0.0063388
0.00664431
0.0069576
0.00727896
0.00760815
0.00794621
0.00829297
0.00864886
0.00901424
0.00938989
0.00977577
0.0101727
0.0105811
0.0110018
0.0114364
0.00262623
0.00244014
0.0023086
0.00222662
0.00219326
0.00220575
0.00226002
0.00235042
0.00246997
0.00261352
0.00277619
0.00295333
0.00314159
0.00333967
0.00354491
0.00375752
0.00397525
0.00419928
0.00442822
0.00466245
0.00490165
0.00514605
0.00539576
0.00565092
0.00591138
0.00617736
0.00644956
0.00672764
0.00701166
0.0073022
0.00759943
0.00790396
0.00821549
0.00853467
0.00886165
0.00919678
0.00954031
0.0098926
0.0102542
0.0106253
0.0110066
0.0113986
0.0118035
0.00439097
0.00412693
0.00394539
0.0038219
0.00373578
0.00368768
0.00367435
0.00369524
0.0037469
0.00382573
0.00392894
0.00405358
0.00419597
0.0043535
0.00452467
0.00470706
0.00489882
0.0050997
0.00530845
0.00552468
0.00574723
0.00597607
0.00621096
0.00645188
0.00669819
0.00695067
0.00720888
0.00747275
0.00774275
0.00801831
0.00830024
0.00858824
0.00888289
0.00918441
0.00949278
0.00980801
0.0101308
0.0104609
0.010799
0.0111452
0.0115001
0.0118644
0.0122387
0.00605577
0.00575391
0.00549778
0.00529108
0.00513918
0.00506154
0.00501972
0.0050078
0.00502323
0.00506476
0.00513013
0.00521686
0.00532308
0.00544761
0.00558711
0.00574011
0.00590537
0.00608163
0.00626751
0.00646273
0.00666621
0.00687692
0.00709494
0.00731977
0.00755074
0.00778738
0.00803025
0.00827881
0.00853287
0.00879282
0.00905802
0.00932932
0.00960649
0.00988957
0.0101787
0.0104738
0.0107752
0.0110829
0.0113971
0.0117184
0.0120466
0.0123824
0.0127266
0.00757067
0.00725016
0.0069668
0.00672602
0.0065281
0.0063771
0.00627296
0.00622739
0.00622127
0.00624116
0.0062843
0.00634891
0.00643256
0.00653441
0.00665194
0.00678427
0.00692859
0.00708534
0.00725257
0.00742984
0.00761622
0.00781047
0.00801251
0.00822172
0.00843666
0.00865815
0.00888524
0.00911825
0.00935606
0.00959948
0.00984858
0.0101024
0.0103614
0.010626
0.0108956
0.0111704
0.0114504
0.0117357
0.012026
0.0123222
0.0126244
0.0129323
0.0132468
0.00893599
0.00860218
0.00830594
0.00804722
0.0078266
0.00764669
0.00750707
0.00740876
0.00735212
0.00734125
0.00736815
0.00741753
0.00748678
0.00757303
0.00767535
0.00779256
0.0079229
0.00806503
0.00821809
0.00838137
0.00855401
0.00873467
0.00892274
0.00911753
0.00931881
0.00952539
0.00973765
0.0099557
0.0101789
0.0104073
0.0106402
0.0108778
0.0111199
0.0113661
0.0116169
0.0118721
0.0121317
0.0123949
0.0126625
0.0129344
0.0132114
0.0134931
0.0137799
0.0101634
0.00981861
0.00951158
0.00924108
0.00900836
0.00881249
0.00865426
0.00853247
0.00844706
0.00839966
0.00838695
0.00841291
0.00846818
0.0085426
0.00863435
0.00874118
0.00886064
0.00899176
0.00913465
0.00928762
0.00944995
0.00961934
0.00979553
0.00997842
0.0101664
0.0103604
0.0105598
0.0107654
0.0109757
0.0111904
0.011409
0.0116317
0.011858
0.0120877
0.0123214
0.0125582
0.0127982
0.0130409
0.0132871
0.0135369
0.0137908
0.0140486
0.0143098
0.0112659
0.0109112
0.0105951
0.0103158
0.0100736
0.00986757
0.00969966
0.009564
0.00946194
0.00939481
0.00935952
0.0093552
0.0093817
0.0094388
0.00952196
0.0096195
0.00973
0.00985358
0.00998866
0.0101344
0.0102897
0.0104479
0.0106136
0.0107852
0.0109622
0.0111459
0.0113371
0.011531
0.011731
0.0119331
0.0121393
0.0123482
0.0125595
0.0127755
0.0129943
0.0132139
0.013436
0.0136599
0.0138867
0.0141169
0.0143509
0.0145868
0.0148254
0.012257
0.0118922
0.0115705
0.0112799
0.0110325
0.0108176
0.010649
0.0104978
0.0103849
0.0103116
0.0102591
0.010237
0.010245
0.0102792
0.0103494
0.0104276
0.0105273
0.0106471
0.0107787
0.0109166
0.011069
0.0112071
0.0113695
0.0115298
0.011699
0.0118749
0.0120645
0.0122417
0.0124395
0.012624
0.0128226
0.0130171
0.0132156
0.0134231
0.0136292
0.0138283
0.0140371
0.0142426
0.0144532
0.0146656
0.0148845
0.0150991
0.0153146
0.013414
0.0126719
0.0119626
0.0112838
0.010634
0.0100121
0.00941717
0.00884813
0.00830436
0.00778495
0.00728889
0.00681542
0.00636381
0.00593331
0.00552324
0.00513297
0.00476181
0.00440926
0.00407463
0.00375734
0.00345674
0.00317234
0.00290366
0.00265025
0.0024118
0.00218815
0.00197933
0.00178582
0.00160875
0.00145033
0.00131288
0.00119458
0.00108974
0.000993529
0.000902404
0.000813748
0.000725543
0.000636131
0.000543991
0.000447596
0.000345474
0.000237677
9.58214e-05
0.0134363
0.0127503
0.0120907
0.011457
0.0108478
0.0102625
0.00970005
0.00915966
0.00864084
0.00814276
0.00766458
0.00720576
0.00676562
0.00634359
0.00593906
0.00555154
0.00518054
0.0048256
0.00448628
0.0041621
0.00385267
0.00355751
0.00327626
0.0030086
0.00275425
0.00251305
0.00228498
0.00207019
0.00186927
0.00168357
0.00151625
0.00137021
0.00124165
0.00112647
0.00102094
0.000921611
0.000825484
0.000729976
0.000632874
0.000532398
0.00042764
0.000320731
0.00020624
0.0134624
0.0128289
0.0122172
0.0116269
0.0110572
0.0105073
0.0099764
0.00946375
0.00896902
0.00849179
0.00803108
0.00758651
0.00715769
0.00674411
0.00634529
0.00596085
0.00559041
0.00523365
0.00489027
0.00455997
0.00424243
0.00393736
0.0036445
0.00336364
0.00309462
0.0028373
0.00259163
0.00235773
0.00213594
0.00192715
0.00173377
0.00156097
0.00140694
0.00126888
0.00114414
0.00102964
0.000921969
0.000817725
0.000713862
0.000607956
0.000499157
0.000391066
0.000288656
0.0134894
0.0129037
0.012336
0.0117858
0.0112524
0.010735
0.0102333
0.00974642
0.00927434
0.00881644
0.00837199
0.00794083
0.00752286
0.0071176
0.00672452
0.00634341
0.00597404
0.00561614
0.00526956
0.00493409
0.00460961
0.0042959
0.00399284
0.00370028
0.00341818
0.00314647
0.00288519
0.00263443
0.0023945
0.00216602
0.00195072
0.00175374
0.00157576
0.00141454
0.00126865
0.00113612
0.00101401
0.000898732
0.000786542
0.000674276
0.000560817
0.000450729
0.000353835
0.0135152
0.0129734
0.0124461
0.0119327
0.0114324
0.0109447
0.0104697
0.0100067
0.00955529
0.00911518
0.00868588
0.00826769
0.00785997
0.00746235
0.00707486
0.00669718
0.00632916
0.00597068
0.00562158
0.00528182
0.00495136
0.00463013
0.00431809
0.00401523
0.00372149
0.00343698
0.00316178
0.00289602
0.00264003
0.00239431
0.00216016
0.00194157
0.00174215
0.0015594
0.00139258
0.00124097
0.00110268
0.000974555
0.000852653
0.000733189
0.000614636
0.000502058
0.000407957
0.0135372
0.0130379
0.0125479
0.0120679
0.0115978
0.0111377
0.0106872
0.0102456
0.00981305
0.00938937
0.00897458
0.00856816
0.00816985
0.00777962
0.00739742
0.00702319
0.00665671
0.00629796
0.00594689
0.00560352
0.00526785
0.00494001
0.00462006
0.00430799
0.00400391
0.00370795
0.00342025
0.00314106
0.00287066
0.0026096
0.00235889
0.00212138
0.0019026
0.00170031
0.00151391
0.0013435
0.00118837
0.0010463
0.000913586
0.000786187
0.000662112
0.000546699
0.000454116
0.0135637
0.0130988
0.0126419
0.0121923
0.01175
0.0113147
0.0108864
0.0104648
0.0100497
0.0096413
0.00923933
0.00884386
0.00845475
0.00807164
0.00769471
0.0073236
0.00695864
0.0065999
0.00624732
0.00590082
0.00556051
0.00522665
0.00489945
0.0045791
0.00426581
0.00395964
0.00366069
0.00336928
0.00308589
0.00281098
0.0025455
0.00229162
0.0020551
0.00183528
0.00163105
0.00144295
0.00127131
0.00111489
0.000970696
0.000834748
0.00070476
0.000586154
0.00049435
0.0135852
0.0131547
0.0127284
0.0123066
0.0118892
0.0114769
0.0110694
0.0106664
0.0102672
0.00987228
0.00948225
0.00909711
0.00871712
0.00834201
0.00797028
0.00760208
0.00723818
0.00687969
0.00652641
0.00617779
0.00583308
0.00549315
0.00515889
0.00483032
0.00450839
0.00419393
0.00388532
0.00358277
0.00328736
0.00299963
0.00272034
0.00245149
0.00219824
0.00196193
0.00174095
0.00153613
0.00134852
0.00117803
0.00102239
0.000877873
0.000742086
0.000620543
0.000529467
0.01361
0.0132073
0.0128083
0.0124116
0.0120163
0.0116253
0.0112373
0.0108521
0.0104679
0.0100849
0.00970573
0.00932888
0.00895765
0.00859393
0.00823112
0.00786571
0.00750039
0.00714269
0.00679023
0.00644459
0.00609709
0.00574922
0.00540721
0.00506936
0.00473239
0.00441657
0.00410612
0.00379536
0.00349102
0.00319479
0.00290503
0.00262319
0.00235719
0.0021067
0.00186951
0.00164709
0.00144151
0.0012531
0.00108235
0.000926089
0.000781376
0.000653458
0.000560787
1.87036e-05
1.886e-05
5.78581e-05
0.000114834
0.000180414
0.000253043
0.000330275
0.00041305
0.000502035
0.00059774
0.00070056
0.000810837
0.000928885
0.001055
0.00118949
0.00133267
0.00148489
0.00164655
0.00181796
0.00199954
0.00219167
0.00239473
0.00260907
0.0028349
0.00307234
0.00332117
0.00358076
0.00384999
0.00412731
0.00441079
0.00469844
0.00498835
0.00527868
0.00556782
0.00585436
0.00613703
0.00641468
0.00668622
0.00695061
0.00720673
0.00745342
0.00768942
0.00791332
0.00010585
7.37698e-05
0.000124272
0.000193598
0.000267305
0.000349804
0.000438819
0.000534443
0.000637007
0.000746789
0.000863995
0.000988829
0.00112149
0.00126216
0.00141105
0.00156839
0.00173444
0.00190944
0.00209365
0.00228729
0.00249055
0.00270356
0.0029263
0.00315857
0.00339989
0.00364954
0.00390643
0.00416917
0.00443626
0.00470611
0.00497718
0.00524809
0.00551757
0.00578448
0.00604785
0.0063068
0.00656049
0.00680815
0.00704899
0.00728221
0.00750692
0.00772215
0.00792677
0.000196514
0.000149137
0.000190166
0.000265617
0.00035236
0.000447525
0.000549966
0.000659703
0.000776878
0.000901598
0.00103396
0.00117405
0.00132199
0.00147789
0.00164184
0.00181399
0.00199441
0.00218317
0.00238028
0.00258571
0.00279928
0.00302075
0.00324965
0.00348537
0.00372706
0.00397372
0.00422423
0.00447738
0.00473189
0.00498661
0.00524045
0.00549244
0.00574171
0.0059875
0.00622914
0.00646604
0.00669762
0.00692333
0.00714259
0.00735481
0.00755938
0.00775562
0.00794295
0.000270522
0.000221423
0.000255727
0.000337921
0.000436185
0.000545959
0.000664452
0.000790309
0.000923359
0.00106376
0.00121167
0.0013672
0.00153041
0.00170127
0.00187981
0.00206594
0.00225953
0.00246038
0.00266823
0.00288272
0.00310338
0.00332964
0.00356082
0.00379607
0.00403451
0.00427515
0.00451704
0.00475914
0.00500056
0.00524043
0.005478
0.00571259
0.00594361
0.00617053
0.00639293
0.00661036
0.00682244
0.00702879
0.00722902
0.00742269
0.00760933
0.00778838
0.00795913
0.000332467
0.000287352
0.00032121
0.000411912
0.000524453
0.000649577
0.00078387
0.000925712
0.00107473
0.00123093
0.00139434
0.00156495
0.00174272
0.00192749
0.00211907
0.0023172
0.00252158
0.00273177
0.0029473
0.00316757
0.00339197
0.00361974
0.00385013
0.00408231
0.00431544
0.00454869
0.00478124
0.00501234
0.00524129
0.00546747
0.00569035
0.00590946
0.00612438
0.00633476
0.0065403
0.00674071
0.00693574
0.00712512
0.00730863
0.00748596
0.00765677
0.00782071
0.00797747
0.000385731
0.000347882
0.000386133
0.000486505
0.000613331
0.000753625
0.000903296
0.00106068
0.00122521
0.00139665
0.00157485
0.0017596
0.00195066
0.00214779
0.00235058
0.00255864
0.00277144
0.00298848
0.0032091
0.00343262
0.00365833
0.00388548
0.00411335
0.00434118
0.00456824
0.00479385
0.00501736
0.00523819
0.00545582
0.00566979
0.00587969
0.00608522
0.00628611
0.00648206
0.00667287
0.00685838
0.00703846
0.00721299
0.00738182
0.00754476
0.00770157
0.00785201
0.00799574
0.000432563
0.00040391
0.000449751
0.000560491
0.000700881
0.000855685
0.00102009
0.00119226
0.00137142
0.00155705
0.0017488
0.00194625
0.00214903
0.00235672
0.00256883
0.0027848
0.00300402
0.00322586
0.00344966
0.00367465
0.00390016
0.0041255
0.00435003
0.00457306
0.00479397
0.00501225
0.00522747
0.0054391
0.00564667
0.00584988
0.00604847
0.00624222
0.0064309
0.00661428
0.00679219
0.00696457
0.00713151
0.00729301
0.00744898
0.00759927
0.0077437
0.00788217
0.00801454
0.000473963
0.000455658
0.000511393
0.000633099
0.00078642
0.000954829
0.00113296
0.00131888
0.00151156
0.00171015
0.00191396
0.00212244
0.00233522
0.00255178
0.0027715
0.00299362
0.00321749
0.00344257
0.00366817
0.00389341
0.00411771
0.00434073
0.00456169
0.0047798
0.00499476
0.00520624
0.00541423
0.00561781
0.00581648
0.00601027
0.00619905
0.0063827
0.00656085
0.0067332
0.00689959
0.00706027
0.00721565
0.00736574
0.00751049
0.00764966
0.00778312
0.00791092
0.00803298
0.000511181
0.000505667
0.000574457
0.000707284
0.000872189
0.00105148
0.00124101
0.00143972
0.00164515
0.00185546
0.00206957
0.00228697
0.00250828
0.00273227
0.00295827
0.00318473
0.00341153
0.00363886
0.00386545
0.00408983
0.00431234
0.00453337
0.00475066
0.00496351
0.00517282
0.00537815
0.0055808
0.00577699
0.00596755
0.00615323
0.00633366
0.0065089
0.00667808
0.00684052
0.00699605
0.00714609
0.0072916
0.00743167
0.00756673
0.00769621
0.00781985
0.0079381
0.00805091
2.31748e-06
0.000291284
0.000667091
0.00108467
0.00153986
0.00202734
0.00254365
0.00308469
0.00364961
0.00423706
0.00484663
0.00547805
0.00613034
0.00680427
0.00749939
0.00821562
0.00895258
0.00971143
0.0104919
0.0112938
0.0121182
0.0129652
0.0138342
0.0147261
0.0156422
0.0165814
0.0175442
0.0185312
0.0195422
0.0205786
0.0216393
0.022725
0.0238361
0.0249723
0.026134
0.0273215
0.0285333
0.0297706
0.0310337
0.0323208
0.0336322
0.0349669
0.0363238
8.46181e-06
0.000256252
0.000561955
0.000913301
0.00130822
0.00174165
0.00220941
0.0027084
0.00323629
0.00379245
0.00437546
0.00498377
0.00561653
0.00627359
0.00695517
0.00765984
0.00838801
0.00913982
0.009915
0.0107131
0.0115352
0.0123815
0.0132504
0.0141433
0.0150611
0.016003
0.0169697
0.0179607
0.0189763
0.0200173
0.0210831
0.0221743
0.0232914
0.0244341
0.0256022
0.0267959
0.0280147
0.0292597
0.0305298
0.0318245
0.033145
0.034492
0.0358719
4.38666e-06
0.000210961
0.000485405
0.000799986
0.0011571
0.00155343
0.00198545
0.00245042
0.00294716
0.00347454
0.00403099
0.00461541
0.00522602
0.00586354
0.0065273
0.00721692
0.0079315
0.008671
0.00943606
0.0102258
0.0110409
0.0118812
0.0127459
0.0136353
0.0145505
0.0154908
0.0164566
0.0174481
0.0184649
0.019507
0.0205748
0.0216687
0.0227891
0.0239353
0.0251068
0.0263043
0.027528
0.0287776
0.0300524
0.0313528
0.0326789
0.0340305
0.0354106
2.8352e-06
0.000182858
0.000437398
0.000726801
0.00105656
0.00142483
0.00182869
0.00226603
0.00273595
0.00323689
0.0037684
0.00432899
0.00491794
0.00553517
0.00618013
0.00685239
0.00755103
0.0082768
0.00902961
0.00980791
0.0106128
0.0114442
0.0123013
0.0131847
0.0140947
0.0150306
0.0159925
0.0169815
0.0179967
0.0190379
0.0201056
0.0211998
0.0223209
0.0234683
0.0246417
0.025842
0.0270681
0.0283201
0.0295987
0.0309027
0.0322322
0.0335869
0.0349698
2.09103e-06
0.000163294
0.000402903
0.000672978
0.000981303
0.0013268
0.00170745
0.00212183
0.00256859
0.00304688
0.00355599
0.00409494
0.00466363
0.00526148
0.00588789
0.00654231
0.00722526
0.00793653
0.00867515
0.00944096
0.0102345
0.0110553
0.0119036
0.0127789
0.0136822
0.0146118
0.0155683
0.016553
0.0175647
0.0186034
0.0196692
0.0207618
0.0218818
0.0230289
0.024203
0.0254042
0.0266311
0.0278849
0.0291654
0.0304715
0.0318034
0.0331602
0.0345422
1.56901e-06
0.000146717
0.000375217
0.000630334
0.000921859
0.00124934
0.00161097
0.00200589
0.00243304
0.00289161
0.00338114
0.00390063
0.00445005
0.00502951
0.00563799
0.00627584
0.00694308
0.00763873
0.00836271
0.00911549
0.00989667
0.0107065
0.0115445
0.0124108
0.0133054
0.0142274
0.0151778
0.0161566
0.0171633
0.0181981
0.0192603
0.0203504
0.0214682
0.0226138
0.0237871
0.0249874
0.0262146
0.0274691
0.0287501
0.0300575
0.0313909
0.0327492
0.0341312
1.24048e-06
0.00013367
0.000353184
0.000596097
0.000873686
0.00118592
0.00153149
0.00190956
0.00231923
0.00276028
0.00323235
0.00373445
0.00426653
0.00482873
0.0054209
0.00604296
0.00669446
0.00737495
0.00808479
0.00882421
0.00959287
0.010391
0.0112182
0.0120746
0.0129595
0.0138733
0.0148165
0.0157881
0.0167889
0.0178183
0.0188761
0.0199622
0.021077
0.0222204
0.0233914
0.02459
0.0258167
0.0270706
0.0283513
0.029659
0.0309932
0.0323526
0.0337369
9.93178e-07
0.000121921
0.000333966
0.000567115
0.00083295
0.00113215
0.00146397
0.00182765
0.00222245
0.00264794
0.00310415
0.0035907
0.00410677
0.00465326
0.00523005
0.0058368
0.00647338
0.00713974
0.00783583
0.00856183
0.00931805
0.0101041
0.01092
0.0117655
0.0126408
0.0135459
0.0144807
0.0154446
0.0164387
0.0174621
0.0185143
0.0195961
0.020707
0.0218466
0.0230145
0.0242112
0.025436
0.0266886
0.0279685
0.0292755
0.0306087
0.031968
0.0333524
8.19099e-07
0.00011213
0.000317934
0.000542512
0.000797974
0.00108595
0.00140579
0.00175683
0.0021384
0.00255024
0.00299231
0.00346431
0.00396619
0.00449836
0.00506072
0.00565272
0.00627492
0.00692772
0.00761064
0.00832382
0.00906743
0.00984177
0.0106459
0.0114805
0.0123458
0.0132413
0.0141671
0.0151234
0.01611
0.0171263
0.0181726
0.019249
0.0203552
0.0214906
0.022655
0.0238489
0.0250713
0.0263219
0.0276001
0.0289055
0.0302379
0.0315958
0.0329791
6.95058e-07
0.000103681
0.000303796
0.000520754
0.000767388
0.00104577
0.00135507
0.00169459
0.00206421
0.00246381
0.00289327
0.00335245
0.00384133
0.00436002
0.00490878
0.00548736
0.0060962
0.00673594
0.00740595
0.00810645
0.00883799
0.00960015
0.010393
0.011217
0.0120718
0.0129575
0.0138741
0.014822
0.0158009
0.0168099
0.0178497
0.0189199
0.0200208
0.0211514
0.022312
0.0235023
0.0247215
0.0259693
0.0272455
0.0285498
0.0298809
0.0312374
0.0326201
6.03862e-07
9.61787e-05
0.000291232
0.000501725
0.000740572
0.00101018
0.00131002
0.00163931
0.00199802
0.00238659
0.00280466
0.00325182
0.00372838
0.00423464
0.00477091
0.00533712
0.00593373
0.00656085
0.00721857
0.00790707
0.00862642
0.00937673
0.0101586
0.0109718
0.0118166
0.0126925
0.0135998
0.014539
0.0155095
0.016511
0.0175438
0.0186077
0.0197026
0.020828
0.0219842
0.0231705
0.024386
0.0256309
0.0269053
0.028208
0.0295379
0.0308936
0.0322744
5.33553e-07
8.98053e-05
0.000280125
0.000484916
0.00071659
0.000978221
0.0012695
0.00158969
0.00193884
0.00231737
0.00272466
0.00316082
0.00362637
0.00412142
0.00464591
0.00520041
0.00578507
0.00640045
0.00704638
0.00772315
0.00843112
0.00917041
0.00994103
0.0107437
0.0115784
0.0124444
0.0133424
0.0142724
0.0152341
0.0162279
0.0172534
0.0183108
0.0193994
0.0205196
0.0216705
0.0228523
0.0240644
0.0253064
0.0265784
0.0278795
0.0292092
0.0305677
0.0319595
4.80282e-07
8.43927e-05
0.000270231
0.000469728
0.000695167
0.000949731
0.00123314
0.00154502
0.00188543
0.00225446
0.00265219
0.00307844
0.00353348
0.00401771
0.00453163
0.00507534
0.00564896
0.0062528
0.0068872
0.00755296
0.00825018
0.00897868
0.00973836
0.0105309
0.0113552
0.0122113
0.0131002
0.014021
0.0149744
0.0159601
0.0169782
0.0180282
0.0191104
0.0202248
0.0213703
0.0225476
0.0237556
0.0249942
0.0262633
0.0275625
0.0288912
0.0302484
0.0316332
4.36629e-07
7.95703e-05
0.000261132
0.000455879
0.00067586
0.000923797
0.00119993
0.00150426
0.00183663
0.00219703
0.00258588
0.00300291
0.00344823
0.00392254
0.00442619
0.00495971
0.00552282
0.00611574
0.00673987
0.00739504
0.00808142
0.00879937
0.00954892
0.010331
0.0111452
0.011992
0.0128714
0.0137835
0.0147285
0.0157058
0.0167159
0.0177589
0.0188344
0.0199423
0.0210827
0.0222547
0.0234585
0.0246934
0.0259596
0.0272564
0.0285837
0.029942
0.0313348
4.0053e-07
7.5166e-05
0.000252882
0.000443449
0.00065819
0.000900103
0.0011696
0.0014669
0.00179205
0.00214441
0.00252457
0.00293302
0.00336955
0.00383467
0.00432884
0.00485232
0.0054054
0.00598861
0.00660294
0.00724786
0.0079239
0.00863155
0.00937106
0.0101432
0.0109478
0.0117852
0.0126551
0.0135582
0.0144946
0.0154636
0.0164662
0.0175019
0.0185705
0.0196722
0.0208063
0.0219733
0.0231722
0.024403
0.0256655
0.026959
0.0282833
0.0296375
0.0310208
3.72185e-07
7.10506e-05
0.000245032
0.000431583
0.000641548
0.00087819
0.00114174
0.00143247
0.00175056
0.00209558
0.00246798
0.00286824
0.0032965
0.00375316
0.00423844
0.00475248
0.00529615
0.00587016
0.00647452
0.00710975
0.00777612
0.00847377
0.0092038
0.00996631
0.0107617
0.0115897
0.0124503
0.0133447
0.0142722
0.0152331
0.016228
0.0172565
0.018318
0.0194127
0.0205412
0.0217024
0.0228959
0.0241221
0.0253805
0.0266701
0.0279913
0.0293433
0.0307258
3.55853e-07
6.74231e-05
0.000237946
0.000420675
0.000626164
0.000857776
0.00111575
0.00140053
0.00171204
0.00205034
0.00241553
0.00280816
0.00322862
0.00367704
0.00415382
0.00465937
0.00519425
0.00575911
0.0063541
0.00697984
0.00763682
0.00832551
0.00904626
0.00979931
0.0105853
0.011404
0.0122561
0.0131416
0.0140605
0.0150133
0.0160005
0.0170215
0.0180756
0.0191638
0.0202857
0.021441
0.0226291
0.0238504
0.025104
0.0263894
0.0277072
0.0290558
0.0304347
3.50677e-07
6.39018e-05
0.000231386
0.000410748
0.000612004
0.00083877
0.00109161
0.00137097
0.00167653
0.00200828
0.00236687
0.00275231
0.00316501
0.00360556
0.00407436
0.00457186
0.00509853
0.00565485
0.00624101
0.00685793
0.00750608
0.00818581
0.00889752
0.00964145
0.010418
0.0112278
0.0120712
0.0129482
0.0138588
0.0148037
0.0157828
0.0167959
0.0178434
0.0189244
0.0200396
0.0211888
0.0223713
0.0235875
0.0248364
0.0261174
0.027431
0.028775
0.0301483
3.48229e-07
6.07271e-05
0.000225224
0.000401427
0.000598788
0.000821194
0.00106923
0.00134333
0.00164329
0.00196893
0.00232104
0.00269984
0.00310555
0.00353873
0.00400016
0.00448992
0.0050085
0.00555651
0.00613438
0.00674279
0.0073823
0.00805322
0.00875631
0.00949166
0.0102593
0.0110604
0.0118952
0.0127639
0.0136663
0.0146032
0.0155742
0.0165796
0.0176199
0.0186941
0.0198028
0.0209455
0.0221226
0.0233332
0.0245768
0.0258535
0.027163
0.0285045
0.0298792
3.3663e-07
5.79554e-05
0.00021977
0.000392915
0.000586562
0.000804865
0.0010482
0.00131726
0.00161191
0.00193196
0.00227796
0.0026506
0.00304971
0.00347598
0.00393018
0.00441243
0.0049234
0.00546369
0.0060335
0.00663384
0.00726523
0.00792772
0.00862236
0.00934891
0.0101084
0.0109011
0.0117276
0.0125879
0.0134822
0.0144108
0.0153741
0.0163721
0.017405
0.0184725
0.0195742
0.0207108
0.0218821
0.0230868
0.0243251
0.025597
0.0269018
0.0282387
0.029607
3.34535e-07
5.51416e-05
0.000214339
0.000384762
0.000575065
0.000789361
0.0010285
0.0012928
0.00158229
0.00189725
0.00223769
0.00260421
0.00299706
0.00341669
0.00386405
0.00433926
0.00484291
0.00537564
0.0059381
0.00653094
0.00715411
0.00780839
0.00849459
0.00921321
0.00996466
0.0107492
0.0115673
0.0124195
0.0133058
0.0142263
0.015182
0.0161726
0.017198
0.0182584
0.0193536
0.020484
0.0216489
0.0228479
0.024081
0.0253479
0.0266483
0.027981
0.0293466
3.35512e-07
5.25243e-05
0.000209164
0.000377174
0.000564201
0.000774888
0.00101003
0.00126976
0.00155445
0.0018644
0.00219956
0.00256038
0.00294714
0.00336054
0.00380153
0.0042702
0.00476673
0.0052923
0.00584775
0.00643284
0.00704813
0.00769479
0.00837332
0.00908409
0.00982763
0.0106041
0.0114139
0.0122582
0.0131369
0.0140498
0.0149976
0.0159807
0.016999
0.0180525
0.0191409
0.0202646
0.0214232
0.0226166
0.0238443
0.0251064
0.0264017
0.0277295
0.02909
3.37855e-07
5.02834e-05
0.000204434
0.000369882
0.000553722
0.000761159
0.000992555
0.00124822
0.0015283
0.00183315
0.00216325
0.00251879
0.00290006
0.00330748
0.00374203
0.00420443
0.0046945
0.0052133
0.00576147
0.00633911
0.00694738
0.00758693
0.00825767
0.0089604
0.00969636
0.0104653
0.0112672
0.0121038
0.0129749
0.0138802
0.0148206
0.0157965
0.0168076
0.0178538
0.0189357
0.0200529
0.0212055
0.022393
0.0236154
0.0248719
0.026162
0.0274857
0.0288429
3.38578e-07
4.8126e-05
0.0001998
0.000363059
0.00054408
0.000748038
0.000975777
0.00122755
0.00150341
0.00180386
0.00212907
0.00247934
0.00285529
0.0032572
0.00368585
0.00414194
0.00462552
0.00513776
0.00567893
0.00624997
0.00685152
0.00748363
0.00814685
0.00884233
0.00957085
0.010332
0.0111267
0.0119556
0.0128191
0.0137171
0.0146503
0.0156191
0.0166227
0.0176621
0.0187374
0.0198483
0.0209948
0.0221766
0.0233936
0.0246448
0.02593
0.0272487
0.0285991
3.36921e-07
4.61321e-05
0.000195501
0.000356703
0.000535196
0.000735948
0.000960146
0.00120798
0.00147984
0.00177591
0.00209637
0.0024417
0.00281248
0.0032091
0.00363231
0.0040824
0.00456008
0.00506596
0.00560069
0.00616508
0.00675958
0.00738453
0.00804108
0.00872958
0.00945027
0.0102044
0.010992
0.0118134
0.0126696
0.0135605
0.0144864
0.0154478
0.0164447
0.0174773
0.0185461
0.0196507
0.0207911
0.0219673
0.0231788
0.0244249
0.0257059
0.0270213
0.0283711
3.35142e-07
4.42743e-05
0.000191381
0.000350497
0.000526389
0.000724151
0.000944953
0.00118933
0.00145744
0.00174936
0.00206537
0.0024061
0.00277208
0.00316353
0.0035812
0.00402591
0.00449764
0.00499748
0.00552622
0.0060841
0.00667183
0.00729024
0.00794005
0.00862135
0.00933504
0.0100822
0.0108626
0.0116767
0.0125259
0.0134098
0.0143284
0.0152829
0.0162732
0.0172994
0.0183617
0.0194599
0.0205941
0.0217648
0.0229708
0.0242119
0.0254886
0.0267998
0.0281464
3.3424e-07
4.25183e-05
0.000187316
0.000344586
0.000517964
0.000712886
0.00093081
0.0011718
0.00143605
0.00172402
0.00203589
0.00237212
0.0027333
0.0031197
0.0035324
0.00397174
0.00443764
0.00493177
0.0054547
0.00600643
0.00658768
0.00719963
0.00784275
0.00851746
0.00922451
0.0099645
0.0107379
0.0115454
0.0123875
0.0132643
0.0141761
0.015124
0.0161077
0.0171274
0.0181837
0.0192755
0.0204038
0.021569
0.0227699
0.0240063
0.0252782
0.0265844
0.0279247
3.31453e-07
4.09458e-05
0.000183653
0.000339075
0.000510129
0.000702333
0.000917244
0.00115486
0.00141555
0.00169971
0.0020076
0.0023397
0.00269634
0.00307799
0.00348567
0.00391971
0.00438047
0.00486904
0.00538604
0.00593179
0.00650704
0.0071129
0.00774965
0.00841788
0.00911809
0.0098514
0.0106183
0.0114193
0.0122544
0.0131242
0.0140295
0.0149707
0.0159478
0.0169613
0.0180112
0.0190973
0.0202202
0.02138
0.0225757
0.0238077
0.0250755
0.0263778