/*--------------------------------*- C++ -*----------------------------------*\
| =========                 |                                                 |
| \\      /  F ield         | OpenFOAM: The Open Source CFD Toolbox           |
|  \\    /   O peration     | Version:  2.3.0                                 |
|   \\  /    A nd           | Web:      www.OpenFOAM.org                      |
|    \\/     M anipulation  |                                                 |
\*---------------------------------------------------------------------------*/
FoamFile
{
    version     2.0;
    format      ascii;
    class       volScalarField;
    location    "10000";
    object      p;
}
// * * * * * * * * * * * * * * * * * * * * * * * * * * * * * * * * * * * * * //

dimensions      [0 2 -2 0 0 0 0];

internalField   nonuniform List<scalar> 
120445
(
0.000144443
0.189182
0.766564
1.42812
1.98382
2.45163
2.84817
3.16269
3.40727
3.56482
3.64074
3.62618
3.53219
3.33437
3.04225
2.65777
2.15457
1.54099
0.79905
-0.0850831
-1.10995
-2.30093
-3.68667
-5.26428
-7.06652
-9.14077
-11.5006
-14.2042
-17.3011
-20.8472
-24.9182
-29.6302
-35.0942
-41.4591
-48.9416
-57.73
-68.2278
-80.7699
-95.8843
-114.239
-136.82
-165.224
-206.468
-3.18172
-2.66997
-1.90968
-1.15955
-0.47044
0.168315
0.744163
1.26835
1.7387
2.14554
2.49359
2.77308
2.98487
3.11742
3.15651
3.09937
2.94151
2.67637
2.2893
1.77494
1.10377
0.286744
-0.720431
-1.92875
-3.3555
-5.03277
-7.00478
-9.28701
-11.956
-15.0478
-18.6537
-22.8314
-27.6878
-33.3305
-39.92
-47.5492
-56.4614
-66.7945
-78.7835
-92.6071
-108.417
-126.174
-145.912
-6.04118
-5.73642
-5.17511
-4.69683
-4.29411
-3.93759
-3.66525
-3.45452
-3.31258
-3.25304
-3.2625
-3.34489
-3.51897
-3.78093
-4.12989
-4.59278
-5.16822
-5.85626
-6.66878
-7.61359
-8.70852
-9.95921
-11.3912
-13.0062
-14.8437
-16.9179
-19.2518
-21.881
-24.8399
-28.1692
-31.9147
-36.1277
-40.8772
-46.2313
-52.2809
-59.073
-66.7206
-75.2953
-84.8855
-95.535
-107.299
-120.156
-133.916
-9.60609
-8.66863
-8.1694
-7.77803
-7.46384
-7.2027
-7.02441
-6.90763
-6.84674
-6.86002
-6.94217
-7.0779
-7.2862
-7.58188
-7.95723
-8.42997
-9.01965
-9.72538
-10.5484
-11.4999
-12.5944
-13.8617
-15.3049
-16.9466
-18.8076
-20.9148
-23.2942
-25.9746
-28.9961
-32.3861
-36.197
-40.4701
-45.2582
-50.6055
-56.5848
-63.245
-70.6407
-78.817
-87.8018
-97.5883
-108.14
-119.356
-130.997
-10.9752
-11.0319
-10.7428
-10.4921
-10.2972
-10.1564
-10.0857
-10.0817
-10.1433
-10.2623
-10.459
-10.7133
-11.0251
-11.3977
-11.8507
-12.4054
-13.0848
-13.8922
-14.8027
-15.8358
-16.9929
-18.3123
-19.7931
-21.4711
-23.3536
-25.4689
-27.8397
-30.4956
-33.4699
-36.7906
-40.4846
-44.6055
-49.1821
-54.2696
-59.9097
-66.1415
-73.0074
-80.526
-88.7137
-97.5518
-106.998
-116.958
-127.271
-13.3591
-13.3488
-13.1792
-12.9758
-12.8289
-12.7438
-12.7319
-12.8061
-12.9433
-13.1308
-13.4098
-13.7375
-14.1353
-14.5549
-14.9974
-15.5376
-16.2353
-17.1169
-18.0915
-19.1517
-20.3058
-21.6338
-23.1248
-24.8142
-26.6796
-28.7749
-31.1202
-33.7453
-36.6912
-39.9676
-43.5988
-47.627
-52.0654
-56.9598
-62.3628
-68.2953
-74.7807
-81.8294
-89.4523
-97.6361
-106.329
-115.453
-124.882
-14.4165
-15.3454
-15.3219
-15.1553
-15.0712
-15.0169
-15.0386
-15.1891
-15.3772
-15.6011
-15.9665
-16.3747
-16.8938
-17.4268
-17.8155
-18.2222
-18.8475
-19.8315
-20.9803
-22.1856
-23.2858
-24.5624
-26.0157
-27.727
-29.5568
-31.6172
-33.9242
-36.4735
-39.3769
-42.5768
-46.1572
-50.1121
-54.3939
-59.0762
-64.2774
-69.9795
-76.1522
-82.7958
-89.9607
-97.6328
-105.769
-114.314
-123.127
-16.38
-17.2925
-17.3986
-17.1849
-17.1079
-17.0143
-16.9863
-17.2407
-17.5175
-17.6799
-18.0691
-18.4268
-19.1197
-20.072
-20.5527
-20.5901
-20.7293
-21.4742
-22.566
-24.3135
-25.4754
-26.7072
-27.9786
-29.7307
-31.4797
-33.4388
-35.6821
-38.1058
-41.0368
-44.1112
-47.6265
-51.6977
-55.9429
-60.3644
-65.385
-71.0128
-77.052
-83.3821
-90.1657
-97.4521
-105.177
-113.39
-121.828
-16.3624
-18.4395
-19.3531
-18.7874
-19.2892
-19.389
-18.6253
-19.2111
-20.2736
-19.9985
-20.9671
-21.2055
-21.2421
-23.4063
-25.3606
-26.5016
-25.6602
-26.8337
-26.4166
-28.7986
-29.7685
-31.8105
-32.0785
-34.5204
-36.5896
-38.211
-40.8465
-41.8874
-45.0915
-48.3254
-50.9382
-54.7376
-59.0837
-63.3549
-67.6017
-72.664
-78.307
-84.0734
-90.4802
-97.6039
-104.745
-112.642
-120.613
-256.602
-259.137
-259.45
-266.445
-273.694
-278.99
-282.792
-285.577
-287.507
-288.768
-289.563
-290.04
-290.258
-290.33
-290.275
-290.142
-289.984
-289.724
-289.461
-289.147
-288.814
-288.449
-288.067
-287.677
-287.227
-286.791
-286.274
-285.743
-285.23
-284.623
-284.087
-283.444
-282.87
-282.237
-281.611
-280.974
-280.322
-279.674
-278.983
-278.292
-277.607
-276.772
-277.307
-169.848
-194.095
-216.626
-235.694
-249.672
-259.049
-265.358
-269.641
-272.748
-274.944
-276.557
-277.785
-278.671
-279.28
-279.696
-279.958
-280.104
-280.083
-280.087
-279.917
-279.772
-279.504
-279.283
-278.977
-278.614
-278.29
-277.948
-277.608
-277.272
-276.927
-276.603
-276.234
-275.922
-275.539
-275.209
-274.849
-274.492
-274.092
-273.716
-273.315
-272.882
-272.328
-272.305
-148.768
-165.267
-181.623
-196.66
-210.021
-221.405
-231.013
-238.898
-245.375
-250.577
-254.716
-258.127
-260.838
-263.014
-264.734
-266.148
-267.294
-268.17
-268.947
-269.452
-269.925
-270.24
-270.537
-270.686
-270.85
-270.922
-270.972
-270.991
-270.935
-270.899
-270.796
-270.684
-270.544
-270.364
-270.201
-269.983
-269.786
-269.531
-269.307
-269.029
-268.741
-268.327
-268.976
-142.801
-154.864
-166.976
-178.801
-190.017
-200.347
-209.684
-217.896
-225.095
-231.299
-236.547
-241.035
-244.838
-248.007
-250.695
-252.993
-254.94
-256.523
-257.936
-259.077
-260.067
-260.926
-261.642
-262.251
-262.779
-263.208
-263.621
-263.901
-264.169
-264.372
-264.542
-264.694
-264.767
-264.835
-264.883
-264.894
-264.88
-264.855
-264.808
-264.726
-264.657
-264.507
-265.991
-137.768
-148.374
-158.926
-169.228
-179.098
-188.356
-196.885
-204.628
-211.607
-217.814
-223.307
-228.141
-232.375
-236.057
-239.3
-242.088
-244.556
-246.659
-248.526
-250.125
-251.555
-252.804
-253.879
-254.859
-255.71
-256.432
-257.102
-257.666
-258.193
-258.627
-259.008
-259.358
-259.634
-259.879
-260.102
-260.282
-260.419
-260.55
-260.648
-260.709
-260.786
-260.778
-262.414
-134.475
-144.126
-153.704
-163.053
-172.025
-180.513
-188.453
-195.775
-202.46
-208.52
-213.98
-218.884
-223.256
-227.152
-230.614
-233.668
-236.389
-238.784
-240.933
-242.821
-244.499
-246.021
-247.355
-248.559
-249.626
-250.569
-251.442
-252.205
-252.915
-253.515
-254.068
-254.567
-254.994
-255.392
-255.746
-256.058
-256.333
-256.604
-256.815
-256.999
-257.176
-257.262
-258.892
-132.067
-141.061
-149.959
-158.658
-167.03
-175.006
-182.516
-189.495
-195.918
-201.817
-207.217
-212.083
-216.471
-220.438
-224.01
-227.207
-230.052
-232.586
-234.881
-236.925
-238.779
-240.464
-241.948
-243.29
-244.529
-245.613
-246.661
-247.551
-248.395
-249.11
-249.786
-250.365
-250.923
-251.432
-251.895
-252.31
-252.694
-253.057
-253.351
-253.622
-253.889
-254.048
-255.553
-130.265
-138.79
-147.18
-155.423
-163.319
-170.926
-178.088
-184.769
-190.954
-196.699
-202.043
-206.868
-211.236
-215.215
-218.777
-222.006
-224.907
-227.541
-229.936
-231.996
-233.932
-235.732
-237.347
-238.823
-240.167
-241.343
-242.519
-243.506
-244.435
-245.233
-246.007
-246.69
-247.332
-247.945
-248.478
-248.97
-249.472
-249.888
-250.228
-250.579
-250.966
-251.15
-252.321
-128.458
-136.848
-144.993
-152.88
-160.138
-167.595
-174.834
-181.027
-187.007
-193.068
-198.546
-203.076
-207.139
-211.101
-214.97
-218.532
-221.477
-223.972
-226.277
-228.246
-230.665
-232.856
-234.657
-236.127
-237.185
-238.28
-239.755
-240.802
-241.793
-242.747
-243.591
-244.292
-244.713
-245.191
-245.601
-246.269
-246.912
-247.337
-247.459
-247.834
-248.311
-248.417
-249.125
-272.62
-274.114
-275.479
-276.818
-278.137
-279.432
-280.705
-281.954
-283.181
-284.384
-285.565
-286.721
-287.854
-288.962
-290.046
-291.103
-292.133
-293.136
-294.109
-295.053
-295.965
-296.847
-297.696
-298.513
-299.299
-300.055
-300.785
-301.492
-302.183
-302.868
-303.558
-304.262
-304.994
-305.766
-306.591
-307.483
-308.454
-309.517
-310.682
-311.954
-313.346
-314.868
-316.877
-273.169
-274.519
-275.724
-276.908
-278.08
-279.235
-280.373
-281.496
-282.604
-283.7
-284.784
-285.857
-286.922
-287.978
-289.027
-290.071
-291.109
-292.144
-293.176
-294.206
-295.235
-296.263
-297.291
-298.318
-299.345
-300.373
-301.4
-302.425
-303.45
-304.47
-305.486
-306.497
-307.499
-308.492
-309.47
-310.431
-311.368
-312.272
-313.133
-313.93
-314.659
-315.223
-316.034
-273.652
-274.915
-276.016
-277.102
-278.182
-279.252
-280.312
-281.362
-282.403
-283.437
-284.463
-285.483
-286.498
-287.508
-288.514
-289.516
-290.517
-291.517
-292.517
-293.517
-294.52
-295.526
-296.536
-297.552
-298.574
-299.602
-300.638
-301.68
-302.729
-303.783
-304.839
-305.895
-306.947
-307.988
-309.012
-310.012
-310.976
-311.893
-312.751
-313.536
-314.274
-314.903
-315.546
-274.125
-275.32
-276.349
-277.368
-278.386
-279.398
-280.402
-281.402
-282.394
-283.38
-284.362
-285.339
-286.312
-287.283
-288.25
-289.215
-290.179
-291.141
-292.104
-293.066
-294.03
-294.996
-295.963
-296.934
-297.909
-298.889
-299.875
-300.868
-301.868
-302.875
-303.89
-304.912
-305.939
-306.969
-307.997
-309.018
-310.025
-311.01
-311.966
-312.879
-313.774
-314.659
-315.429
-274.531
-275.656
-276.613
-277.564
-278.517
-279.469
-280.415
-281.358
-282.299
-283.237
-284.173
-285.107
-286.041
-286.975
-287.91
-288.848
-289.787
-290.728
-291.671
-292.619
-293.572
-294.529
-295.49
-296.457
-297.429
-298.406
-299.391
-300.382
-301.381
-302.388
-303.402
-304.424
-305.452
-306.487
-307.526
-308.564
-309.596
-310.617
-311.622
-312.598
-313.55
-314.542
-315.4
-274.918
-275.944
-276.826
-277.714
-278.605
-279.502
-280.393
-281.285
-282.177
-283.072
-283.966
-284.858
-285.755
-286.657
-287.561
-288.472
-289.389
-290.309
-291.234
-292.166
-293.108
-294.059
-295.017
-295.982
-296.957
-297.939
-298.929
-299.929
-300.939
-301.959
-302.987
-304.025
-305.071
-306.126
-307.187
-308.25
-309.309
-310.358
-311.392
-312.406
-313.39
-314.43
-315.358
-275.309
-276.182
-277.006
-277.844
-278.675
-279.525
-280.37
-281.217
-282.071
-282.928
-283.79
-284.645
-285.506
-286.385
-287.261
-288.147
-289.047
-289.952
-290.853
-291.768
-292.696
-293.638
-294.591
-295.549
-296.517
-297.498
-298.486
-299.489
-300.505
-301.531
-302.565
-303.608
-304.66
-305.722
-306.791
-307.863
-308.934
-309.997
-311.045
-312.085
-313.109
-314.245
-315.333
-275.469
-276.367
-277.153
-277.952
-278.708
-279.528
-280.326
-281.122
-281.931
-282.753
-283.593
-284.413
-285.219
-286.076
-286.915
-287.771
-288.66
-289.571
-290.448
-291.337
-292.252
-293.193
-294.161
-295.124
-296.102
-297.093
-298.064
-299.068
-300.093
-301.135
-302.183
-303.244
-304.321
-305.414
-306.518
-307.636
-308.744
-309.834
-310.9
-311.925
-312.916
-314.007
-315.096
-275.516
-276.461
-277.273
-278.124
-278.777
-279.632
-280.417
-281.182
-281.962
-282.732
-283.602
-284.439
-285.174
-286.081
-286.894
-287.669
-288.503
-289.478
-290.32
-291.184
-292.047
-292.913
-293.887
-294.815
-295.721
-296.821
-297.773
-298.764
-299.776
-300.821
-301.841
-302.869
-303.88
-304.932
-305.976
-307.034
-308.115
-309.193
-310.225
-311.206
-312.07
-313.509
-315.227
-318.374
-318.282
-318.228
-318.171
-318.12
-318.074
-318.033
-317.997
-317.965
-317.939
-317.916
-317.897
-317.882
-317.868
-317.857
-317.847
-317.839
-317.831
-317.823
-317.815
-317.807
-317.799
-317.79
-317.779
-317.768
-317.755
-317.74
-317.724
-317.705
-317.684
-317.662
-317.636
-317.609
-317.579
-317.546
-317.511
-317.473
-317.432
-317.389
-317.344
-317.295
-317.248
-317.22
-317.268
-317.351
-317.515
-317.575
-317.609
-317.629
-317.638
-317.639
-317.632
-317.62
-317.605
-317.587
-317.567
-317.545
-317.523
-317.501
-317.479
-317.458
-317.437
-317.418
-317.399
-317.382
-317.366
-317.351
-317.339
-317.327
-317.317
-317.309
-317.302
-317.297
-317.292
-317.289
-317.286
-317.285
-317.283
-317.283
-317.283
-317.282
-317.282
-317.281
-317.279
-317.274
-317.242
-316.829
-317.241
-317.451
-317.513
-317.556
-317.586
-317.608
-317.622
-317.63
-317.632
-317.631
-317.627
-317.62
-317.612
-317.604
-317.594
-317.585
-317.576
-317.566
-317.557
-317.549
-317.54
-317.532
-317.524
-317.516
-317.508
-317.5
-317.492
-317.484
-317.475
-317.467
-317.458
-317.45
-317.441
-317.434
-317.426
-317.42
-317.414
-317.409
-317.405
-317.402
-317.4
-317.416
-316.668
-317.244
-317.487
-317.568
-317.615
-317.648
-317.672
-317.69
-317.703
-317.711
-317.716
-317.718
-317.718
-317.716
-317.712
-317.708
-317.703
-317.697
-317.691
-317.684
-317.677
-317.67
-317.662
-317.655
-317.647
-317.639
-317.631
-317.623
-317.614
-317.606
-317.597
-317.587
-317.578
-317.569
-317.561
-317.552
-317.544
-317.536
-317.529
-317.52
-317.512
-317.5
-317.462
-316.561
-317.215
-317.515
-317.627
-317.68
-317.712
-317.737
-317.755
-317.769
-317.779
-317.786
-317.79
-317.792
-317.792
-317.791
-317.788
-317.785
-317.781
-317.776
-317.77
-317.764
-317.758
-317.751
-317.744
-317.738
-317.731
-317.723
-317.716
-317.708
-317.699
-317.691
-317.682
-317.673
-317.664
-317.656
-317.649
-317.642
-317.635
-317.627
-317.619
-317.611
-317.6
-317.603
-316.476
-317.186
-317.554
-317.696
-317.756
-317.789
-317.813
-317.83
-317.844
-317.854
-317.862
-317.868
-317.871
-317.872
-317.873
-317.872
-317.87
-317.868
-317.864
-317.859
-317.853
-317.847
-317.841
-317.835
-317.829
-317.822
-317.815
-317.807
-317.798
-317.789
-317.779
-317.77
-317.76
-317.751
-317.745
-317.738
-317.73
-317.723
-317.716
-317.705
-317.697
-317.692
-317.667
-316.526
-317.288
-317.675
-317.81
-317.86
-317.884
-317.9
-317.914
-317.926
-317.937
-317.946
-317.953
-317.957
-317.959
-317.96
-317.96
-317.96
-317.958
-317.953
-317.947
-317.939
-317.932
-317.925
-317.918
-317.914
-317.909
-317.9
-317.893
-317.885
-317.877
-317.867
-317.858
-317.843
-317.833
-317.829
-317.821
-317.811
-317.807
-317.801
-317.784
-317.781
-317.783
-317.796
-316.324
-317.205
-317.651
-317.835
-317.917
-317.957
-317.974
-317.987
-317.997
-318.006
-318.017
-318.021
-318.023
-318.02
-318.02
-318.023
-318.023
-318.016
-318.008
-318.003
-317.989
-317.984
-317.986
-317.985
-317.989
-317.983
-317.969
-317.962
-317.952
-317.94
-317.919
-317.896
-317.867
-317.873
-317.886
-317.88
-317.87
-317.877
-317.867
-317.835
-317.85
-317.863
-317.808
-317.294
-318.24
-318.168
-318.085
-318.086
-318.085
-318.063
-318.064
-318.079
-318.108
-318.136
-318.14
-318.144
-318.148
-318.17
-318.187
-318.186
-318.179
-318.186
-318.186
-318.161
-318.176
-318.192
-318.169
-318.162
-318.107
-318.059
-318.071
-318.06
-318.051
-318.029
-318.041
-318.084
-318.22
-318.247
-318.174
-318.156
-318.171
-318.118
-318.038
-318.13
-318.154
-318.005
1.50396
7.50453
9.88216
11.6362
12.9658
14.0566
14.9796
15.8331
16.5856
17.3058
17.9825
18.5968
19.18
19.6907
20.1481
20.5468
20.8653
21.111
21.287
21.3738
21.3442
21.2489
21.0836
20.7974
20.4438
20.0196
19.4985
18.9238
18.2508
17.5137
16.72
15.8508
14.9292
13.9482
12.9123
11.834
10.7088
9.51702
8.28238
6.99168
5.58555
4.3527
4.33974
34.4306
33.3958
32.3472
31.3957
30.5711
29.8361
29.2117
28.6634
28.1927
27.7743
27.398
27.0599
26.7374
26.4328
26.1268
25.8307
25.5207
25.1909
24.8489
24.4979
24.1152
23.7047
23.2758
22.7994
22.2838
21.7455
21.1493
20.5301
19.8553
19.1351
18.3773
17.5643
16.7113
15.8175
14.8604
13.8638
12.8305
11.7457
10.6154
9.41772
8.12161
7.11102
7.09631
55.8262
55.3921
54.6521
53.8433
52.9902
52.0747
51.1027
50.1017
49.0624
47.9928
46.9056
45.8125
44.7181
43.6103
42.5061
41.405
40.3097
39.205
38.1134
37.018
35.9046
34.8012
33.7014
32.5844
31.4638
30.3324
29.1847
28.0302
26.8672
25.6797
24.4851
23.2706
22.0254
20.7745
19.4968
18.198
16.8766
15.5344
14.1752
12.7859
11.3214
10.1399
10.3823
63.0027
62.6239
61.9402
61.1438
60.2799
59.3493
58.3582
57.3195
56.236
55.1262
53.9824
52.8281
51.6551
50.4711
49.2712
48.0585
46.8531
45.6269
44.3998
43.1691
41.9262
40.6697
39.4208
38.1478
36.8692
35.5853
34.2786
32.9544
31.6272
30.2815
28.9131
27.5338
26.1264
24.7149
23.276
21.8243
20.349
18.8565
17.3491
15.8116
14.2221
12.8444
12.6624
68.7229
68.4593
67.9757
67.3905
66.7328
65.9908
65.1701
64.2727
63.3059
62.273
61.1795
60.033
58.8351
57.5919
56.3132
54.996
53.6544
52.2736
50.8809
49.4619
48.033
46.581
45.1254
43.6487
42.1631
40.6748
39.1703
37.6576
36.1316
34.601
33.0586
31.5058
29.9321
28.3587
26.7561
25.1533
23.5377
21.8979
20.2591
18.5936
16.8994
15.3123
14.3478
71.4474
71.2401
70.8307
70.3214
69.7486
69.1008
68.3762
67.5798
66.7145
65.7838
64.794
63.7431
62.64
61.4808
60.2796
59.0261
57.7329
56.3959
55.0311
53.6231
52.1919
50.7228
49.2359
47.716
46.1764
44.6233
43.0407
41.4444
39.8288
38.2008
36.5506
34.8979
33.2172
31.5339
29.8286
28.1101
26.3832
24.6365
22.8779
21.1024
19.314
17.5238
15.6703
73.2548
73.0926
72.7631
72.3463
71.8709
71.3296
70.7177
70.0341
69.2839
68.4633
67.5782
66.6295
65.617
64.5435
63.4137
62.222
60.9829
59.692
58.3532
56.97
55.5438
54.0792
52.5771
51.043
49.4774
47.8831
46.263
44.6184
42.9421
41.2603
39.5444
37.8176
36.069
34.3018
32.5236
30.7245
28.9081
27.0813
25.2329
23.3687
21.4996
19.5663
17.1161
74.0633
73.9318
73.6499
73.2845
72.8709
72.3981
71.8617
71.2608
70.5969
69.8695
69.0788
68.2266
67.3138
66.3379
65.3022
64.2071
63.0544
61.8492
60.5855
59.2724
57.9065
56.4951
55.0357
53.5336
51.997
50.4145
48.8008
47.1535
45.4713
43.7643
42.0296
40.2682
38.4812
36.6713
34.8412
32.9945
31.1218
29.2359
27.3254
25.3969
23.462
21.4951
19.1054
74.3386
74.2316
73.991
73.6747
73.3159
72.9054
72.4365
71.9086
71.3219
70.6766
69.9698
69.2043
68.3779
67.4906
66.5413
65.5338
64.464
63.3369
62.1529
60.9111
59.6132
58.2623
56.8639
55.4107
53.9122
52.3673
50.7831
49.1552
47.4877
45.7881
44.05
42.2829
40.4839
38.6662
36.8075
34.9327
33.0279
31.1065
29.159
27.1872
25.1904
23.2332
21.6441
74.1578
74.0658
73.8558
73.5761
73.2584
72.8944
72.4783
72.0089
71.4852
70.907
70.2729
69.5822
68.8339
68.027
67.1616
66.2391
65.2549
64.2111
63.108
61.9478
60.7272
59.4515
58.1197
56.734
55.2956
53.808
52.2677
50.6822
49.0536
47.3822
45.6698
43.9185
42.1255
40.3069
38.4495
36.5665
34.6497
32.7069
30.7409
28.7332
26.6746
24.6984
23.3224
73.6759
73.5936
73.4089
73.1613
72.8792
72.555
72.1835
71.7633
71.2936
70.7728
70.2001
69.5744
68.8949
68.16
67.3676
66.5188
65.6107
64.6446
63.62
62.5357
61.392
60.1914
58.9311
57.6148
56.2407
54.8146
53.3346
51.7983
50.2175
48.5842
46.9085
45.1881
43.4286
41.6256
39.7836
37.9085
36.0007
34.0578
32.0813
30.0631
27.9837
26.0068
24.6543
72.9396
72.8663
72.7017
72.4803
72.2271
71.936
71.6015
71.2227
70.798
70.3266
69.8072
69.2386
68.6185
67.9465
67.2207
66.4405
65.6037
64.71
63.7579
62.7482
61.6802
60.5522
59.3654
58.1185
56.8158
55.4537
54.0368
52.5637
51.0372
49.4597
47.8313
46.1521
44.4265
42.6587
40.8447
38.9897
37.1031
35.1746
33.2118
31.2046
29.16
27.2988
26.1477
72.0199
71.9545
71.8072
71.6075
71.3792
71.116
70.8134
70.4696
70.084
69.6549
69.1812
68.6618
68.094
67.4777
66.8098
66.0906
65.3167
64.4888
63.6046
62.6634
61.6631
60.6067
59.4902
58.3126
57.0792
55.7849
54.4325
53.0254
51.5579
50.0374
48.4591
46.8341
45.1514
43.4252
41.6517
39.8285
37.9679
36.0637
34.1271
32.1409
30.1145
28.2263
27.0524
70.9499
70.8918
70.7592
70.5779
70.3712
70.1322
69.8566
69.5434
69.1914
68.7993
68.3651
67.8888
67.3674
66.8
66.184
65.5189
64.8033
64.035
63.2119
62.335
61.3989
60.4088
59.3587
58.2488
57.0827
55.8543
54.5679
53.2222
51.8185
50.3579
48.8377
47.2668
45.638
43.9568
42.2266
40.4442
38.6214
36.7473
34.835
32.8682
30.8557
28.9625
27.5066
69.7685
69.7163
69.5947
69.4305
69.2409
69.0222
68.7703
68.483
68.16
67.8001
67.4011
66.9621
66.4816
65.9572
65.3882
64.7714
64.1072
63.3924
62.625
61.806
60.9311
60.0013
59.0141
57.9695
56.8654
55.7029
54.4811
53.1973
51.857
50.4575
48.9982
47.4813
45.9094
44.2791
42.5982
40.8608
39.0768
37.2418
35.3648
33.4389
31.4682
29.5864
28.1313
68.492
68.445
68.3347
68.1836
68.0104
67.8099
67.5781
67.3142
67.0168
66.6845
66.3168
65.9107
65.466
64.9801
64.4521
63.8799
63.2612
62.5952
61.8793
61.1126
60.2938
59.4208
58.4919
57.5068
56.463
55.3622
54.2023
52.9816
51.703
50.3624
48.9626
47.5051
45.9872
44.412
42.7812
41.0949
39.3557
37.5616
35.7193
33.8205
31.875
29.9757
28.187
67.1367
67.0946
66.994
66.8561
66.6967
66.5127
66.2993
66.0558
65.7811
65.4743
65.1336
64.7579
64.345
63.8941
63.4026
62.8699
62.2932
61.671
61.0023
60.2838
59.5158
58.695
57.8212
56.8912
55.9052
54.8626
53.761
52.6
51.3806
50.1009
48.7581
47.3585
45.8995
44.3789
42.7995
41.1642
39.4723
37.7214
35.9205
34.0529
32.1267
30.2151
28.3533
65.7257
65.6874
65.5952
65.4677
65.3211
65.1505
64.9532
64.7279
64.4736
64.1885
63.8721
63.523
63.1389
62.7188
62.2611
61.7635
61.2247
60.6426
60.0158
59.3419
58.6202
57.8471
57.0237
56.1467
55.2145
54.2261
53.1806
52.0777
50.9141
49.6918
48.4085
47.0645
45.6612
44.198
42.6729
41.0903
39.4497
37.7483
35.9968
34.181
32.3141
30.4764
28.8158
64.261
64.2276
64.1436
64.0257
63.8902
63.7326
63.5502
63.341
63.1047
62.8401
62.5456
62.2199
61.8624
61.4698
61.0419
60.5765
60.0719
59.5263
58.9384
58.3051
57.6262
56.8988
56.1209
55.2928
54.4105
53.4743
52.4807
51.4315
50.3238
49.1551
47.9296
46.64
45.2923
43.8835
42.414
40.8818
39.2937
37.6412
35.9328
34.1554
32.3212
30.513
28.744
62.7635
62.7329
62.6544
62.5452
62.4188
62.2728
62.1024
61.9082
61.6878
61.441
61.166
60.8622
60.5274
60.1607
59.7601
59.3239
58.8506
58.3383
57.7854
57.1897
56.5497
55.8635
55.129
54.3454
53.5101
52.622
51.6791
50.6798
49.6246
48.5092
47.3371
46.1026
44.809
43.4523
42.0387
40.5578
39.0218
37.424
35.7681
34.0482
32.2687
30.5266
29.1477
61.2288
61.2009
61.1294
61.0273
60.9114
60.775
60.6166
60.4356
60.2298
59.9994
59.7428
59.4581
59.145
58.8008
58.425
58.0156
57.5708
57.0888
56.5683
56.007
55.4034
54.7552
54.0614
53.3192
52.5281
51.6844
50.7885
49.8373
48.8322
47.7675
46.6455
45.4633
44.2223
42.9185
41.5569
40.1298
38.6434
37.0966
35.4904
33.8217
32.0872
30.3628
29.0289
59.6608
59.6375
59.5713
59.4791
59.3708
59.2447
59.098
58.9286
58.7373
58.5218
58.2817
58.0155
57.7215
57.3989
57.0458
56.6611
56.2427
55.7884
55.2979
54.7683
54.1982
53.5854
52.9287
52.2251
51.4745
50.6739
49.8221
48.9159
47.9574
46.9415
45.8684
44.7366
43.5457
42.2943
40.9807
39.6067
38.1703
36.672
35.1113
33.4812
31.7786
30.0446
28.5122
58.0835
58.0615
58.0008
57.9135
57.8124
57.6949
57.5574
57.3992
57.2198
57.0179
56.7926
56.5425
56.2665
55.9632
55.6309
55.2683
54.8741
54.4459
53.9826
53.4821
52.943
52.3631
51.7409
51.0739
50.3607
49.6004
48.7897
47.9269
47.0116
46.0417
45.0152
43.9318
42.7883
41.5866
40.3237
38.9995
37.6129
36.1638
34.6516
33.0717
31.4201
29.7463
28.2222
56.4778
56.4595
56.4038
56.3234
56.2312
56.1219
55.9938
55.8467
55.6782
55.4893
55.2779
55.0432
54.7835
54.498
54.1849
53.8436
53.4712
53.0674
52.6294
52.156
51.6457
51.0963
50.5062
49.8732
49.1955
48.472
47.7003
46.8782
46.0046
45.0786
44.0956
43.0579
41.9626
40.8071
39.5926
38.3169
36.9795
35.5803
34.118
32.5918
31.002
29.4122
27.9307
54.8726
54.8541
54.8029
54.7272
54.6399
54.5372
54.4173
54.2783
54.121
53.9435
53.7445
53.5235
53.2793
53.01
52.7152
52.3923
52.0408
51.6583
51.2444
50.7961
50.3128
49.7916
49.2315
48.6305
47.986
47.2971
46.5621
45.778
44.9437
44.0585
43.1188
42.1237
41.0741
39.9643
38.7965
37.5682
36.2788
34.9278
33.5146
32.0374
30.5006
28.9683
27.5273
53.254
53.2388
53.1895
53.1191
53.0371
52.9414
52.8283
52.6982
52.55
52.3826
52.1953
51.9867
51.7561
51.5023
51.2232
50.9187
50.5863
50.2244
49.8324
49.4076
48.9485
48.454
47.9217
47.3504
46.7374
46.0811
45.3807
44.6325
43.8361
42.9889
42.0906
41.1364
40.1293
39.0639
37.9405
36.758
35.5139
34.209
32.8423
31.4072
29.9044
28.3803
26.885
51.6092
51.5971
51.5538
51.49
51.4159
51.3267
51.2225
51.1015
50.963
50.8061
50.6302
50.4345
50.2175
49.9777
49.7146
49.4267
49.1117
48.7692
48.3975
47.995
47.5593
47.0895
46.5837
46.0397
45.4563
44.8307
44.1624
43.4483
42.6873
41.877
41.0167
40.1027
39.1358
38.112
37.0323
35.8948
34.6958
33.4369
32.1171
30.7293
29.2736
27.7971
26.4552
49.9764
49.9636
49.9248
49.8646
49.7946
49.7121
49.6144
49.5003
49.3699
49.2228
49.0569
48.872
48.6669
48.4405
48.1916
47.919
47.6209
47.2963
46.9437
46.5614
46.1476
45.7009
45.2194
44.7019
44.1458
43.5497
42.9114
42.2297
41.502
40.7268
39.9024
39.0266
38.0991
37.1157
36.0771
34.9821
33.8276
32.6139
31.3404
30.0031
28.6019
27.1842
25.9654
48.3329
48.3238
48.2871
48.2326
48.1674
48.0905
47.9982
47.8921
47.7694
47.6306
47.4747
47.3004
47.1067
46.8928
46.6573
46.3987
46.1166
45.8085
45.4739
45.1105
44.7175
44.2926
43.8344
43.341
42.8108
42.242
41.6323
40.9808
40.285
39.5429
38.7532
37.9133
37.0224
36.0783
35.0794
34.0247
32.9122
31.7424
30.5127
29.2215
27.8732
26.5118
25.2104
46.6983
46.6887
46.6549
46.6018
46.5407
46.4671
46.3819
46.2804
46.1658
46.0347
45.8873
45.7225
45.539
45.3369
45.1135
44.869
44.6009
44.3089
43.9907
43.6456
43.2714
42.867
42.4302
41.9603
41.4543
40.9114
40.3293
39.7057
39.04
38.3293
37.5719
36.7665
35.9109
35.0034
34.0425
33.0266
31.9546
30.8256
29.6386
28.393
27.0891
25.7694
24.5721
45.0481
45.0396
45.0097
44.9622
44.9052
44.838
44.7578
44.6641
44.5556
44.4329
44.2939
44.1383
43.9654
43.7736
43.5624
43.3302
43.0762
42.7985
42.4965
42.1679
41.8122
41.4268
41.0106
40.5621
40.0794
39.5603
39.004
38.4076
37.7698
37.0894
36.3629
35.5897
34.7679
33.8952
32.9704
31.9914
30.958
29.8671
28.7184
27.5098
26.2359
24.9194
23.7295
43.39
43.3855
43.3604
43.3164
43.2649
43.2038
43.1295
43.0422
42.9414
42.8258
42.6957
42.549
42.3858
42.2049
42.0046
41.7848
41.5435
41.2802
40.9927
40.6805
40.3413
39.9745
39.5775
39.1492
38.6883
38.1923
37.66
37.0895
36.4784
35.8258
35.1292
34.3864
33.5969
32.7574
31.867
30.9235
29.9262
28.872
27.76
26.5867
25.3462
24.0481
22.8071
41.7513
41.747
41.7221
41.6813
41.6333
41.5757
41.5058
41.4241
41.3287
41.22
41.0968
40.9586
40.8042
40.6325
40.4429
40.2344
40.0051
39.7546
39.4815
39.1841
38.8611
38.5111
38.1325
37.7236
37.2831
36.8091
36.2993
35.7531
35.1677
34.5416
33.8731
33.1596
32.4003
31.5929
30.7353
29.8265
28.8634
27.8461
26.7714
25.6365
24.4402
23.1945
21.9506
40.0947
40.0935
40.0746
40.039
39.9954
39.9429
39.8789
39.8024
39.7135
39.6121
39.4966
39.3657
39.2203
39.0576
38.8782
38.68
38.4627
38.2248
37.9647
37.6814
37.3734
37.0394
36.6779
36.2875
35.8662
35.4126
34.9249
34.4014
33.8399
33.2393
32.5973
31.912
31.1818
30.4043
29.5781
28.7022
27.773
26.7911
25.7532
24.6563
23.5063
22.3219
21.0659
38.4681
38.4664
38.4459
38.4106
38.3695
38.3193
38.2585
38.1865
38.103
38.0064
37.8968
37.7738
37.6354
37.4818
37.3113
37.1234
36.9165
36.69
36.4423
36.1728
35.879
35.5603
35.2148
34.8418
34.4388
34.0048
33.5374
33.0359
32.4973
31.9208
31.3039
30.6449
29.9424
29.1942
28.3982
27.5535
26.6581
25.7102
24.7096
23.6548
22.5551
21.4393
20.3328
36.8254
36.8243
36.8089
36.7781
36.7404
36.6938
36.6377
36.5709
36.4918
36.4015
36.2982
36.182
36.0511
35.9054
35.7438
35.5649
35.3685
35.1527
34.9171
34.6598
34.3798
34.0753
33.7454
33.3886
33.0028
32.5872
32.1393
31.6583
31.1416
30.5877
29.995
29.3612
28.6847
27.9644
27.197
26.3815
25.5166
24.5999
23.6293
22.6019
21.5208
20.407
19.2106
35.1761
35.1793
35.1687
35.1415
35.1078
35.0663
35.0155
34.953
34.8799
34.7952
34.6985
34.5884
34.4653
34.3274
34.1745
34.0047
33.8181
33.6127
33.3884
33.1432
32.8759
32.5854
32.2701
31.9286
31.5596
31.1612
30.7319
30.2704
29.7745
29.2423
28.6725
28.0627
27.4113
26.717
25.9772
25.1901
24.3548
23.4692
22.5314
21.5405
20.497
19.4319
18.398
33.5527
33.5561
33.5453
33.52
33.4876
33.4488
33.4002
33.3421
33.2732
33.1941
33.1024
32.9987
32.8821
32.7517
32.606
32.4451
32.2672
32.0722
31.8581
31.6243
31.3691
31.0914
30.7897
30.463
30.1096
29.728
29.3165
28.8734
28.3971
27.8855
27.3373
26.7506
26.1231
25.4538
24.7402
23.9803
23.1725
22.3157
21.4073
20.4456
19.4261
18.3596
17.3402
31.9228
31.926
31.9186
31.8953
31.8669
31.8316
31.7874
31.7324
31.6689
31.5937
31.5078
31.4101
31.2998
31.1765
31.0384
30.8855
30.7167
30.5305
30.3269
30.1034
29.8598
29.5943
29.3065
28.9935
28.655
28.289
27.894
27.4687
27.0113
26.5195
25.9923
25.4272
24.8228
24.1771
23.4884
22.7545
21.9735
21.1442
20.2645
19.3318
18.3445
17.3056
16.2455
30.2827
30.2906
30.2866
30.269
30.2441
30.2132
30.1725
30.1234
30.0642
29.9948
29.9143
29.8222
29.7187
29.6011
29.471
29.3261
29.1653
28.9887
28.7943
28.5816
28.3487
28.0953
27.8193
27.5198
27.1955
26.8448
26.4657
26.0573
25.6174
25.1448
24.6372
24.0932
23.5107
22.8882
22.2233
21.5144
20.7594
19.9559
19.1026
18.1955
17.234
16.229
15.1265
28.6749
28.6814
28.6782
28.6597
28.6367
28.607
28.5692
28.5228
28.4675
28.4021
28.3262
28.2398
28.1408
28.0306
27.9068
27.7686
27.6159
27.4476
27.2624
27.0591
26.8371
26.5947
26.3309
26.0443
25.7332
25.3966
25.033
24.6408
24.2183
23.7635
23.2749
22.751
22.1896
21.5888
20.9469
20.2619
19.5323
18.7554
17.9303
17.0537
16.1275
15.1765
14.2258
27.0486
27.0571
27.0579
27.0437
27.0245
26.999
26.9654
26.9235
26.8717
26.8106
26.7398
26.6578
26.5655
26.461
26.3432
26.2126
26.0676
25.9071
25.7305
25.5366
25.3246
25.0924
24.8402
24.5656
24.2674
23.9449
23.5959
23.2191
22.8127
22.3758
21.9055
21.4009
20.8595
20.2803
19.6608
18.9989
18.2933
17.5413
16.7425
15.8934
14.9925
14.0491
13.1852
25.4566
25.4641
25.4615
25.4478
25.4282
25.404
25.3718
25.332
25.2832
25.2259
25.1591
25.0816
24.9939
24.8946
24.7836
24.659
24.521
24.3684
24.1998
24.015
23.8122
23.5907
23.3491
23.0859
22.8004
22.491
22.1558
21.794
21.4034
20.9827
20.5302
20.0442
19.5225
18.9635
18.3654
17.7258
17.0433
16.3148
15.5392
14.7113
13.8284
12.8849
11.9115
23.8492
23.856
23.8574
23.8463
23.83
23.8075
23.779
23.7414
23.6968
23.6432
23.5796
23.5075
23.4247
23.331
23.2249
23.1071
22.9761
22.8306
22.6702
22.4937
22.3004
22.0886
21.8573
21.6056
21.3319
21.035
20.7136
20.366
19.9906
19.586
19.1504
18.6821
18.1792
17.6403
17.0632
16.4455
15.7854
15.0804
14.3285
13.5243
12.6678
11.7621
10.7423
22.235
22.2452
22.2505
22.2423
22.2289
22.2105
22.1852
22.1523
22.111
22.0609
22.0029
21.935
21.8571
21.7684
21.6689
21.557
21.4325
21.2941
21.1415
20.9733
20.7885
20.586
20.365
20.1239
19.8615
19.5772
19.2687
18.9351
18.5744
18.185
17.7662
17.3152
16.831
16.3111
15.7544
15.1582
14.521
13.8404
13.1149
12.341
11.5207
10.6721
9.79339
20.6473
20.6568
20.6611
20.6528
20.6405
20.6237
20.6
20.5696
20.5303
20.4844
20.4293
20.3658
20.2925
20.2093
20.1149
20.0094
19.8908