/*--------------------------------*- C++ -*----------------------------------*\
| =========                 |                                                 |
| \\      /  F ield         | OpenFOAM: The Open Source CFD Toolbox           |
|  \\    /   O peration     | Version:  2.3.0                                 |
|   \\  /    A nd           | Web:      www.OpenFOAM.org                      |
|    \\/     M anipulation  |                                                 |
\*---------------------------------------------------------------------------*/
FoamFile
{
    version     2.0;
    format      ascii;
    class       surfaceScalarField;
    location    "10000";
    object      phi;
}
// * * * * * * * * * * * * * * * * * * * * * * * * * * * * * * * * * * * * * //

dimensions      [0 3 -1 0 0 0 0];

internalField   nonuniform List<scalar> 
239950
(
0.00110706
-0.000180736
0.000197749
-0.00112407
0.00109475
-0.000152917
0.000165225
0.00108708
-0.000126191
0.000133866
0.00108285
-0.000101015
0.000105239
0.0010833
-7.76681e-05
7.72183e-05
0.00108739
-5.57474e-05
5.16562e-05
0.00109409
-3.48502e-05
2.81527e-05
0.00110347
-1.44119e-05
5.03769e-06
0.00111578
3.74265e-06
-1.60539e-05
0.00112998
2.16591e-05
-3.58661e-05
0.0011463
3.81604e-05
-5.44791e-05
0.00116367
5.46749e-05
-7.20387e-05
0.00118249
6.90367e-05
-8.78631e-05
0.00120303
8.29489e-05
-0.000103488
0.0012236
9.70084e-05
-0.000117576
0.00124448
0.000109325
-0.000130203
0.00126538
0.000122008
-0.000142904
0.00128597
0.000133748
-0.000154341
0.00130678
0.000144445
-0.000165257
0.0013284
0.000154221
-0.00017584
0.00134708
0.000165759
-0.000184444
0.00136607
0.000174657
-0.000193648
0.00138511
0.000183722
-0.000202758
0.00140118
0.00019397
-0.000210038
0.00141688
0.000201604
-0.000217308
0.00143095
0.000210643
-0.000224706
0.0014421
0.000220144
-0.000231294
0.0014532
0.000227119
-0.000238223
0.00146089
0.000236799
-0.000244485
0.00146814
0.000243946
-0.000251196
0.00147025
0.000254169
-0.000256277
0.00147149
0.000261855
-0.000263101
0.00146939
0.000270486
-0.00026838
0.00146496
0.000278899
-0.000274476
0.00145664
0.000289889
-0.000281568
0.00144585
0.000298091
-0.0002873
0.00143246
0.000308997
-0.000295611
0.00141687
0.000318398
-0.0003028
0.00139821
0.00032911
-0.000310455
0.00137901
0.00033952
-0.000320321
0.00136332
0.000349248
-0.00033356
0.0013533
0.000359299
-0.00034927
0.000362364
0.00136015
-0.000369218
0.0010363
-0.000165706
-0.00105133
0.0010259
-0.000142521
0.0010198
-0.000120089
0.00101737
-9.85815e-05
0.00101779
-7.8085e-05
0.00102171
-5.96738e-05
0.00102768
-4.08188e-05
0.00103706
-2.37904e-05
0.00104818
-7.37695e-06
0.00106142
8.41454e-06
0.00107571
2.38725e-05
0.00109226
3.81245e-05
0.00110916
5.21357e-05
0.00112696
6.51537e-05
0.00114683
7.7132e-05
0.00116628
8.98812e-05
0.00118651
0.00010178
0.00120742
0.000112837
0.00122776
0.000124105
0.00124744
0.000134541
0.00126795
0.000145245
0.00128822
0.000154386
0.00130713
0.000164809
0.00132734
0.00017376
0.00134483
0.000184118
0.00136244
0.000193037
0.00137998
0.0002026
0.00139538
0.00021172
0.00141168
0.000220495
0.0014256
0.000230033
0.0014405
0.000239263
0.00145411
0.000248246
0.00146777
0.00025683
0.00148029
0.00026638
0.00149313
0.000277045
0.00150665
0.000284565
0.00152125
0.0002944
0.00153745
0.0003022
0.00155431
0.000312249
0.00157576
0.000318067
0.00159931
0.000325699
0.00162896
0.000329658
0.000330379
0.00166094
0.000967296
-0.00015325
-0.000979752
0.000958003
-0.000133229
0.00095264
-0.000114725
0.000951069
-9.70105e-05
0.000952274
-7.92906e-05
0.000955923
-6.33221e-05
0.000962121
-4.70173e-05
0.000970074
-3.1743e-05
0.000980792
-1.80956e-05
0.000992394
-3.1874e-06
0.00100556
1.07031e-05
0.00102054
2.31483e-05
0.00103717
3.55029e-05
0.00105379
4.85354e-05
0.00107073
6.01916e-05
0.00108945
7.11583e-05
0.0011089
8.2336e-05
0.00112808
9.36559e-05
0.00114765
0.000104531
0.0011673
0.00011489
0.00118788
0.000124673
0.00120738
0.000134882
0.00122645
0.000145738
0.0012451
0.000155116
0.00126509
0.000164119
0.00128325
0.000174877
0.00130169
0.000184161
0.00132017
0.000193239
0.00133762
0.000203049
0.00135507
0.000212582
0.00137138
0.000222952
0.00138779
0.000231834
0.00140294
0.000241682
0.00141959
0.000249728
0.00143664
0.000259999
0.00145289
0.000268318
0.00147144
0.000275851
0.00148965
0.000283984
0.00151092
0.000290984
0.00153247
0.000296512
0.00155794
0.000300235
0.00158417
0.000303425
0.000300477
0.00161407
0.000898651
-0.000142785
-0.000909115
0.000891472
-0.00012605
0.000887091
-0.000110344
0.000885135
-9.5055e-05
0.000885836
-7.99912e-05
0.000889033
-6.65187e-05
0.000894432
-5.24165e-05
0.000901758
-3.9069e-05
0.000909892
-2.62296e-05
0.000920851
-1.41461e-05
0.000932855
-1.30081e-06
0.000945731
1.02715e-05
0.000959987
2.12468e-05
0.000975361
3.31617e-05
0.000991041
4.45115e-05
0.00100759
5.46133e-05
0.00102469
6.52276e-05
0.00104223
7.61208e-05
0.00105999
8.67711e-05
0.00107786
9.70148e-05
0.00109653
0.000106012
0.00111412
0.000117283
0.00113335
0.000126514
0.001152
0.00013646
0.00116912
0.000147009
0.00118766
0.000156328
0.00120527
0.000166559
0.00122315
0.000175356
0.00123999
0.000186204
0.00125692
0.000195651
0.00127503
0.000204846
0.00129198
0.00021488
0.00130905
0.000224615
0.00132488
0.000233898
0.0013422
0.000242681
0.0013597
0.000250813
0.00137609
0.000259469
0.00139434
0.000265729
0.00141313
0.000272195
0.00143401
0.000275637
0.00145386
0.000280375
0.00147592
0.000281365
0.000278575
0.00149783
0.000833329
-0.00013285
-0.000843264
0.000826803
-0.000119525
0.000822559
-0.000106099
0.000820198
-9.26945e-05
0.000821418
-8.12111e-05
0.000823932
-6.90328e-05
0.000828272
-5.67559e-05
0.000834678
-4.54756e-05
0.000842412
-3.39635e-05
0.00085122
-2.29535e-05
0.000862103
-1.21844e-05
0.000873582
-1.20709e-06
0.000884735
1.00932e-05
0.000898241
1.96562e-05
0.000912646
3.01065e-05
0.000926823
4.0436e-05
0.000942461
4.95894e-05
0.000957453
6.11289e-05
0.000974281
6.9943e-05
0.000991183
8.01126e-05
0.00100702
9.01771e-05
0.0010235
0.000100804
0.00104049
0.000109517
0.00105698
0.00011997
0.00107489
0.000129102
0.00109104
0.000140182
0.00110847
0.000149125
0.00112394
0.000159892
0.00114167
0.000168468
0.00115713
0.000180197
0.00117375
0.000188218
0.00118911
0.000199521
0.0012056
0.000208125
0.00122201
0.00021749
0.00123843
0.000226261
0.00125482
0.000234423
0.00127126
0.000243034
0.00128767
0.000249316
0.00130557
0.000254294
0.00132206
0.000259151
0.00134003
0.000262397
0.00135725
0.000264144
0.000260967
0.00137486
0.00077071
-0.000124818
-0.000778741
0.000764169
-0.000112984
0.000760464
-0.000102395
0.000758799
-9.10287e-05
0.000758859
-8.12713e-05
0.000760615
-7.07888e-05
0.000764245
-6.0386e-05
0.000769787
-5.10175e-05
0.000776345
-4.05221e-05
0.000784242
-3.08498e-05
0.000792679
-2.06219e-05
0.000802887
-1.14143e-05
0.000813836
-8.56144e-07
0.000824821
8.67068e-06
0.000837067
1.7861e-05
0.000849969
2.75341e-05
0.00086326
3.62978e-05
0.000878418
4.59715e-05
0.000891923
5.64377e-05
0.000906042
6.59939e-05
0.000920793
7.54259e-05
0.000937075
8.45215e-05
0.00095191
9.46823e-05
0.000967267
0.000104613
0.000981845
0.000114524
0.000997678
0.000124349
0.00101264
0.000134163
0.0010288
0.000143729
0.00104395
0.000153321
0.00106025
0.000163902
0.00107409
0.000174378
0.00109004
0.000183568
0.00110468
0.000193482
0.00112046
0.000201706
0.00113468
0.000212046
0.00115
0.000219103
0.00116514
0.000227897
0.00118001
0.000234445
0.00119476
0.000239541
0.00121069
0.000243222
0.00122772
0.00024537
0.00124422
0.000247644
0.000246226
0.00125896
0.000711131
-0.000116368
-0.000719581
0.000705903
-0.000107755
0.000701787
-9.82794e-05
0.000699934
-8.91757e-05
0.000699395
-8.07321e-05
0.000700668
-7.20626e-05
0.000703879
-6.3597e-05
0.00070773
-5.48678e-05
0.000713576
-4.63679e-05
0.000719994
-3.72683e-05
0.000728236
-2.88644e-05
0.000736505
-1.96831e-05
0.00074609
-1.04405e-05
0.000756057
-1.29704e-06
0.000766367
7.55162e-06
0.000778019
1.58815e-05
0.000789088
2.52289e-05
0.000801198
3.38622e-05
0.00081481
4.2825e-05
0.000828044
5.276e-05
0.000841126
6.2344e-05
0.000854485
7.11629e-05
0.000868523
8.06443e-05
0.000881713
9.1423e-05
0.000896047
0.00010019
0.000910578
0.000109818
0.000924264
0.000120477
0.000938071
0.000129922
0.00095178
0.000139612
0.00096655
0.000149131
0.000981176
0.000159752
0.000994368
0.000170376
0.00100848
0.00017937
0.00102218
0.000188008
0.00103702
0.0001972
0.00105017
0.000205957
0.00106432
0.000213747
0.00107817
0.000220597
0.00109336
0.000224345
0.00110727
0.000229317
0.00112018
0.000232462
0.00113583
0.000231993
0.000231159
0.00115089
0.000655007
-0.000109698
-0.000661677
0.000649671
-0.000102419
0.00064627
-9.48786e-05
0.000644062
-8.6968e-05
0.000643577
-8.0247e-05
0.000644454
-7.29389e-05
0.000646849
-6.59921e-05
0.000650537
-5.8556e-05
0.000654489
-5.03201e-05
0.000660205
-4.29838e-05
0.000666594
-3.52539e-05
0.000673732
-2.68208e-05
0.000682247
-1.89555e-05
0.000690735
-9.78496e-06
0.00070014
-1.85347e-06
0.000709646
6.37511e-06
0.000720387
1.44879e-05
0.000731929
2.23207e-05
0.00074274
3.20137e-05
0.000754524
4.09759e-05
0.000766724
5.0144e-05
0.000778495
5.93924e-05
0.000790687
6.84522e-05
0.000803883
7.8227e-05
0.000816322
8.77512e-05
0.000828742
9.73973e-05
0.000841144
0.000108076
0.000854755
0.000116312
0.000867242
0.000127125
0.000879592
0.000136781
0.000892831
0.000146514
0.000906798
0.000156408
0.000919117
0.000167051
0.000931365
0.00017576
0.000944299
0.000184265
0.000956808
0.000193449
0.000970055
0.000200499
0.000983353
0.000207299
0.00099519
0.000212508
0.00100785
0.000216662
0.00102243
0.000217879
0.0010343
0.000220122
0.000218176
0.00104728
0.000602474
-0.00010369
-0.000608481
0.000597514
-9.74599e-05
0.000593992
-9.13567e-05
0.000592165
-8.51401e-05
0.000591293
-7.93753e-05
0.000591624
-7.32702e-05
0.00059328
-6.76481e-05
0.000595344
-6.06201e-05
0.000599259
-5.42348e-05
0.000604318
-4.80429e-05
0.00060906
-3.99957e-05
0.000615696
-3.34568e-05
0.000623137
-2.6397e-05
0.000631242
-1.78895e-05
0.000638197
-8.80861e-06
0.000646388
-1.81574e-06
0.000655989
4.88664e-06
0.000664792
1.35174e-05
0.000675628
2.11776e-05
0.000686157
3.04469e-05
0.000697382
3.89196e-05
0.000708008
4.87666e-05
0.000718831
5.76288e-05
0.000730396
6.66616e-05
0.000741719
7.64289e-05
0.000753468
8.56485e-05
0.000764442
9.71011e-05
0.000776262
0.000104492
0.000788861
0.000114526
0.000800887
0.000124754
0.000812001
0.0001354
0.000823831
0.000144578
0.000836098
0.000154785
0.000847801
0.000164056
0.000858203
0.000173863
0.000870378
0.000181275
0.00088204
0.000188837
0.000894598
0.000194741
0.000906084
0.000201022
0.000919056
0.000203689
0.000931149
0.000205786
0.000944188
0.000207083
0.000954601
0.000207763
0.00111429
0.000339722
-9.38583e-05
0.000922099
0.000305998
-0.000113811
0.000764157
0.0002658
-0.000107858
0.000636842
0.000225592
-9.82774e-05
0.00053671
0.000188373
-8.82411e-05
0.000460827
0.000157259
-8.13756e-05
0.000404524
0.000133495
-7.71913e-05
0.000366287
0.000114373
-7.61364e-05
0.00034111
0.000101299
-7.61211e-05
0.000328927
8.99052e-05
-7.77227e-05
0.000325833
8.20472e-05
-7.89526e-05
0.000330622
7.58002e-05
-8.05898e-05
0.00034179
7.035e-05
-8.15176e-05
0.000359683
6.4613e-05
-8.25065e-05
0.000381886
5.99825e-05
-8.21852e-05
0.000409033
5.49673e-05
-8.21149e-05
0.000439741
5.06111e-05
-8.13187e-05
0.000475012
4.41773e-05
-7.9448e-05
0.000512393
3.95052e-05
-7.68864e-05
0.000553643
3.27074e-05
-7.39575e-05
0.000597719
2.59287e-05
-7.00042e-05
0.000644745
1.84989e-05
-6.55256e-05
0.000694005
1.10044e-05
-6.02645e-05
0.000744806
2.91326e-06
-5.37136e-05
0.000798753
-7.92853e-06
-4.60188e-05
0.000853469
-1.70645e-05
-3.76514e-05
0.000909472
-2.82783e-05
-2.7725e-05
0.000966753
-4.0337e-05
-1.69444e-05
0.00102414
-5.19509e-05
-5.43795e-06
0.00108187
-6.67161e-05
8.98656e-06
0.00113962
-8.05501e-05
2.28005e-05
0.00119691
-9.75613e-05
4.02777e-05
0.00125247
-0.000113333
5.77691e-05
0.00130739
-0.000132444
7.75236e-05
0.00136073
-0.000151685
9.83468e-05
0.0014106
-0.000171755
0.000121882
0.00145672
-0.000193665
0.000147549
0.00150134
-0.000218215
0.000173593
0.00154192
-0.000244344
0.000203766
0.00157508
-0.000270201
0.000237034
0.00160492
-0.000299403
0.000269564
0.00162836
-0.000330444
0.000307005
-0.00036324
0.00034544
0.00164616
0.00166536
0.000335301
0.00164078
0.000330579
0.00158978
0.000316797
0.00152269
0.000292687
0.00144351
0.000267548
0.00136379
0.000236984
0.00128741
0.000209869
0.00121897
0.000182817
0.00115963
0.000160644
0.00111138
0.00013815
0.00107579
0.000117634
0.00104945
0.000102143
0.00103228
8.7524e-05
0.00102251
7.43812e-05
0.00102097
6.15224e-05
0.00102542
5.05174e-05
0.00103588
4.01455e-05
0.00105081
2.92538e-05
0.00106987
2.04449e-05
0.00109359
8.98113e-06
0.00111837
1.15249e-06
0.0011474
-1.05339e-05
0.00117717
-1.87614e-05
0.00121015
-3.00677e-05
0.00124202
-3.98032e-05
0.00127697
-5.2012e-05
0.00131255
-6.38596e-05
0.00134728
-7.50616e-05
0.00138431
-8.89849e-05
0.00141826
-0.000100666
0.00145295
-0.000115243
0.00148587
-0.000130473
0.0015181
-0.000145562
0.00154949
-0.000163842
0.00157736
-0.000179553
0.00160467
-0.000199063
0.00162827
-0.000217265
0.00164989
-0.000239841
0.00166503
-0.000259476
0.00167845
-0.000283628
0.00168839
-0.000309335
0.00169168
-0.00033374
-0.000361379
0.00168982
0.00164582
0.000303552
0.00167273
0.000303666
0.00168969
0.000299838
0.00169241
0.000289968
0.00168462
0.000275338
0.00166564
0.000255968
0.0016387
0.000236804
0.00161086
0.000210665
0.00158231
0.000189192
0.00155186
0.000168593
0.00152443
0.000145065
0.00150092
0.000125654
0.00148106
0.000107385
0.00146651
8.89326e-05
0.00145622
7.18111e-05
0.00144859
5.8146e-05
0.00144463
4.41067e-05
0.00144549
2.83947e-05
0.00144908
1.68538e-05
0.00145468
3.38456e-06
0.00146558
-9.74962e-06
0.0014753
-2.02494e-05
0.00148861
-3.20776e-05
0.00150345
-4.49081e-05
0.00152009
-5.64436e-05
0.00153667
-6.85846e-05
0.00155236
-7.95563e-05
0.00157034
-9.30427e-05
0.00158747
-0.000106115
0.00160592
-0.000119112
0.0016239
-0.000133221
0.00163928
-0.000145856
0.00165587
-0.000162151
0.00166855
-0.000176524
0.00168181
-0.000192812
0.00169233
-0.000209584
0.00170159
-0.00022652
0.00170514
-0.000243391
0.00170922
-0.000263561
0.00170841
-0.000282816
0.00170328
-0.000304205
0.00169647
-0.000326924
-0.000347438
0.00168253
0.00152162
0.000279756
0.00154571
0.000279582
0.00156975
0.000275789
0.00159305
0.000266669
0.00160977
0.000258622
0.00162222
0.000243519
0.00162928
0.000229738
0.00163001
0.000209938
0.0016275
0.000191705
0.00162457
0.000171519
0.00161721
0.000152431
0.00161059
0.000132267
0.00160538
0.000112598
0.00160054
9.37679e-05
0.00159401
7.83449e-05
0.00159266
5.95004e-05
0.00159113
4.5634e-05
0.00158985
2.96744e-05
0.00159105
1.56515e-05
0.00159499
-5.49511e-07
0.00159737
-1.21354e-05
0.0016033
-2.61782e-05
0.00161138
-4.01583e-05
0.0016175
-5.10258e-05
0.00162421
-6.3157e-05
0.00163342
-7.77904e-05
0.00164281
-8.89516e-05
0.00165212
-0.000102349
0.00165955
-0.00011355
0.00166788
-0.000127436
0.00167455
-0.000139894
0.00168212
-0.000153425
0.00168714
-0.000167171
0.00169282
-0.000182209
0.00169542
-0.000195412
0.00169472
-0.000208881
0.00169407
-0.000225864
0.00169223
-0.000241558
0.00168589
-0.000257213
0.00167898
-0.000275907
0.00166711
-0.000292338
0.00165008
-0.000309897
-0.000331273
0.00163392
0.00139422
0.000260398
0.00141499
0.000258813
0.00143747
0.000253309
0.00145755
0.000246588
0.00147782
0.000238354
0.00149526
0.000226076
0.00151326
0.000211742
0.00152532
0.000197878
0.00153651
0.000180513
0.00154538
0.000162653
0.00155356
0.000144248
0.00155857
0.000127254
0.00156261
0.000108564
0.00156585
9.05282e-05
0.0015699
7.42926e-05
0.0015723
5.70984e-05
0.00157599
4.19501e-05
0.00158126
2.43987e-05
0.00158515
1.17644e-05
0.00158786
-3.26473e-06
0.00159508
-1.93558e-05
0.0015995
-3.05932e-05
0.0016039
-4.45549e-05
0.00160983
-5.69559e-05
0.00161669
-7.00239e-05
0.00162084
-8.19333e-05
0.00162716
-9.52737e-05
0.0016317
-0.000106888
0.00163652
-0.000118371
0.00164047
-0.000131386
0.00164543
-0.000144855
0.00164595
-0.000153942
0.00164738
-0.000168605
0.00164628
-0.000181105
0.00164458
-0.000193715
0.00164381
-0.000208117
0.0016389
-0.000220952
0.00163082
-0.00023348
0.00162193
-0.000248323
0.00160901
-0.000262981
0.00159455
-0.000277882
0.00157669
-0.000292032
-0.00030925
0.00155467
0.00127571
0.000243651
0.00129271
0.000241805
0.0013109
0.000235121
0.00132805
0.000229439
0.00134858
0.000217826
0.00136656
0.000208094
0.00138205
0.00019625
0.00139982
0.00018011
0.00141425
0.000166087
0.00142896
0.000147935
0.00144068
0.000132528
0.00145271
0.000115225
0.00146181
9.94604e-05
0.00147007
8.22694e-05
0.00147896
6.541e-05
0.00148709
4.89606e-05
0.0014946
3.44394e-05
0.00150017
1.88383e-05
0.00150826
3.67076e-06
0.00151606
-1.10663e-05
0.00152045
-2.37468e-05
0.00152606
-3.62009e-05
0.00153271
-5.12109e-05
0.00153999
-6.4228e-05
0.00154427
-7.43048e-05
0.00155068
-8.83465e-05
0.00155331
-9.79007e-05
0.00155946
-0.000113045
0.00156325
-0.000122158
0.00156636
-0.000134492
0.00156484
-0.00014334
0.00156928
-0.000158384
0.00156829
-0.000167606
0.00156511
-0.000177932
0.00156192
-0.000190528
0.0015552
-0.000201396
0.00154935
-0.000215102
0.00154072
-0.00022485
0.00152884
-0.000236438
0.00151505
-0.000249192
0.00149987
-0.000262707
0.00148134
-0.000273499
-0.000288083
0.00146017
0.00116312
0.000231422
0.0011798
0.000225131
0.00119567
0.000219248
0.00121375
0.000211358
0.00122724
0.000204337
0.00124521
0.000190125
0.00126258
0.000178877
0.00127659
0.000166105
0.00129296
0.000149718
0.00130673
0.000134166
0.00131983
0.000119426
0.0013334
0.00010165
0.00134609
8.67762e-05
0.00135632
7.20357e-05
0.0013672
5.45288e-05
0.00137732
3.88457e-05
0.00138819
2.35683e-05
0.00139684
1.0189e-05
0.00140503
-4.5173e-06
0.00141252
-1.85571e-05
0.00142103
-3.22615e-05
0.00142893
-4.41034e-05
0.00143597
-5.82494e-05
0.00144107
-6.93282e-05
0.00144686
-8.00961e-05
0.00145208
-9.35651e-05
0.00145737
-0.000103191
0.00146067
-0.000116346
0.00146263
-0.000124117
0.001465
-0.000136857
0.00146764
-0.000145982
0.00146593
-0.000156669
0.00146434
-0.000166023
0.00146398
-0.000177568
0.00145893
-0.000185476
0.00145491
-0.000197379
0.001446
-0.000206196
0.00143612
-0.000214962
0.001427
-0.000227324
0.00141385
-0.000236035
0.0013965
-0.000245356
0.00137956
-0.000256568
-0.000267168
0.00135865
0.00106315
0.000215559
0.00107558
0.000212693
0.00108971
0.000205118
0.00110426
0.000196814
0.00112007
0.000188522
0.00113481
0.000175387
0.00114951
0.00016418
0.00116503
0.000150589
0.00117882
0.000135921
0.00119243
0.00012056
0.00120657
0.000105286
0.00121863
8.95881e-05
0.00123296
7.24484e-05
0.00124501
5.99785e-05
0.00125633
4.32159e-05
0.00126683
2.83387e-05
0.00127676
1.36405e-05
0.00128621
7.45184e-07
0.00129466
-1.2968e-05
0.00130441
-2.83106e-05
0.00131182
-3.96698e-05
0.00131986
-5.21431e-05
0.00132585
-6.42415e-05
0.00133252
-7.5994e-05
0.0013398
-8.738e-05
0.00134506
-9.8827e-05
0.00135062
-0.000108753
0.00135066
-0.000116385
0.00135576
-0.000129209
0.00135653
-0.000137635
0.00135757
-0.000147022
0.00135763
-0.000156723
0.00135722
-0.00016562
0.00135267
-0.00017301
0.00135046
-0.000183268
0.00134402
-0.000190944
0.00133672
-0.000198898
0.00132921
-0.000207452
0.00131785
-0.000215956
0.0013061
-0.000224286
0.00129017
-0.000229427
0.00127417
-0.000240571
-0.000245901
0.0012529
0.000967929
0.000202231
0.000981658
0.000198964
0.000992807
0.000193968
0.0010053
0.000184324
0.00102009
0.000173731
0.00103327
0.000162208
0.001046
0.000151446
0.00106032
0.000136272
0.00107496
0.000121283
0.001089
0.00010652
0.00110061
9.36672e-05
0.00111476
7.54468e-05
0.00112558
6.16278e-05
0.00113888
4.66786e-05
0.00114852
3.35738e-05
0.00115885
1.80106e-05
0.00116851
3.97499e-06
0.00117904
-9.78319e-06
0.00118776
-2.16885e-05
0.00119603
-3.65804e-05
0.00120491
-4.85474e-05
0.00121458
-6.18129e-05
0.00122044
-7.01016e-05
0.0012269
-8.24527e-05
0.00123282
-9.33031e-05
0.0012376
-0.000103606
0.0012403
-0.000111451
0.00124612
-0.000122206
0.00124801
-0.000131101
0.00125024
-0.000139864
0.0012502
-0.000146982
0.00124966
-0.000156183
0.00124986
-0.000165824
0.00124838
-0.000171525
0.00124287
-0.000177759
0.00123774
-0.000185816
0.00123128
-0.000192434
0.0012228
-0.00019898
0.0012113
-0.000204449
0.00119875
-0.000211743
0.00118689
-0.000217565
0.00116861
-0.000222284
0.00115265
-0.000229948
0.000334444
0.00251393
-0.00272856
-0.000119818
0.000534354
0.00243102
-0.00263093
0.000721926
0.0023504
-0.00253797
0.000894686
0.00227191
-0.00244467
0.00105015
0.00220041
-0.00235587
0.00119536
0.00212647
-0.00227168
0.00132557
0.00205951
-0.00218972
0.0014435
0.00199243
-0.00211036
0.00154991
0.00192689
-0.0020333
0.00164325
0.00186581
-0.00195914
0.00172518
0.00180588
-0.00188781
0.00179621
0.00174803
-0.00181905
0.00185586
0.00169261
-0.00175226
0.00190523
0.00163878
-0.00168815
0.00194434
0.00158702
-0.00162614
0.00197326
0.00153712
-0.00156603
0.00199305
0.00148864
-0.00150843
0.00200319
0.00144206
-0.00145219
0.00200447
0.00139705
-0.00139834
0.00199651
0.0013537
-0.00134574
0.00198061
0.00131142
-0.00129552
0.00195604
0.00127096
-0.0012464
0.00192322
0.00123148
-0.00119866
0.00188304
0.00119304
-0.00115287
0.00183513
0.00115618
-0.00110827
0.0017794
0.00112023
-0.0010645
0.00171676
0.00108488
-0.00102224
0.00164693
0.00105073
-0.000980899
0.00157001
0.00101731
-0.000940384
0.00148687
0.00098395
-0.000900811
0.00139702
0.000951348
-0.000861497
0.00130134
0.000919025
-0.00082335
0.00119965
0.000886669
-0.000784976
0.00109282
0.000854415
-0.000747589
0.000981609
0.000821522
-0.000710309
0.000866037
0.000788653
-0.000673082
0.000746995
0.000754382
-0.000635339
0.000625607
0.000718736
-0.000597349
0.000502781
0.000681133
-0.000558307
0.000379664
0.000639915
-0.000516799
0.000258925
0.000591576
-0.000470837
0.000144677
0.000527801
-0.000413554
0.00040971
4.00854e-05
-0.000305119
0.000311252
0.00231481
-0.000112128
0.000495652
0.00224662
0.000665277
0.00218077
0.000820075
0.00211712
0.000964682
0.0020558
0.00109438
0.00199677
0.0012139
0.00193999
0.00132067
0.00188567
0.00141649
0.00183106
0.0015014
0.0017809
0.00157594
0.00173134
0.00164011
0.00168386
0.00169474
0.00163798
0.00173966
0.00159386
0.00177522
0.00155146
0.00180223
0.00151011
0.00182006
0.0014708
0.00182972
0.0014324
0.00183113
0.00139564
0.00182504
0.00135978
0.00181098
0.00132549
0.00178955
0.0012924
0.00176092
0.0012601
0.00172488
0.00122909
0.0016824
0.00119866
0.00163344
0.00116919
0.00157761
0.00114072
0.00151572
0.00111262
0.00144772
0.00108531
0.00137342
0.00105825
0.00129357
0.00103119
0.00120791
0.00100469
0.00111705
0.000977529
0.00102124
0.000950224
0.000920551
0.000922212
0.000816022
0.000893181
0.000707995
0.000862409
0.000596759
0.000829972
0.000483734
0.000794157
0.000370033
0.000753616
0.000257401
0.000704209
0.000149466
0.000635736
0.000510098
4.90781e-05
0.000289901
0.00213598
-0.000111067
0.000453949
0.00208257
0.000608098
0.00202662
0.00074978
0.00197543
0.000881382
0.0019242
0.00100047
0.00187768
0.00110925
0.00183121
0.00120556
0.00178936
0.00129391
0.00174271
0.00137153
0.00170328
0.00143858
0.00166429
0.00149702
0.00162541
0.00154649
0.00158851
0.00158763
0.00155272
0.00162016
0.00151893
0.0016445
0.00148577
0.00166133
0.00145398
0.00167027
0.00142346
0.00167209
0.00139382
0.00166632
0.00136556
0.00165406
0.00133774
0.00163499
0.00131146
0.00160941
0.00128569
0.00157776
0.00126074
0.00153988
0.00123654
0.00149582
0.00121325
0.00144616
0.00119038
0.00139066
0.00116812
0.00132986
0.00114611
0.00126358
0.00112452
0.00119189
0.00110288
0.00111528
0.0010813
0.00103353
0.00105928
0.000946961
0.0010368
0.000856151
0.00101302
0.000761183
0.000988149
0.000662318
0.000961274
0.000560762
0.000931528
0.000456936
0.000897984
0.000351829
0.000858723
0.000247176
0.000808863
0.000146573
0.000736339
0.000602407
5.42642e-05
0.000266398
0.00197243
-0.000102848
0.000420001
0.00192897
0.00055871
0.00188792
0.000689801
0.00184434
0.000805966
0.00180803
0.000914375
0.00176927
0.00101275
0.00173283
0.00110326
0.00169885
0.00118118
0.00166479
0.00125131
0.00163315
0.00131173
0.00160387
0.00136493
0.00157221
0.00141099
0.00154244
0.00144817
0.00151555
0.00147777
0.00148933
0.00150011
0.00146343
0.0015152
0.00143889
0.00152363
0.00141502
0.00152523
0.00139222
0.00152059
0.0013702
0.0015094
0.00134892
0.00149256
0.00132831
0.00146959
0.00130865
0.00144102
0.00128931
0.00140673
0.00127083
0.0013673
0.00125268
0.00132262
0.00123506
0.00127289
0.00121786
0.00121811
0.00120088
0.00115866
0.00118398
0.00109411
0.00116743
0.00102508
0.00115033
0.00095154
0.00113282
0.0008738
0.00111454
0.000791602
0.00109522
0.000705642
0.00107411
0.000616228
0.00105069
0.000523655
0.0010241
0.000428698
0.000992941
0.000332225
0.000955195
0.000235753
0.000905335
0.000142367
0.000829725
0.000687921
5.68531e-05
0.000244055
0.00182421
-9.5839e-05
0.000382273
0.00179075
0.00051291
0.00175728
0.000628609
0.00172864
0.00073668
0.00169996
0.000834651
0.0016713
0.000924892
0.00164259
0.00100506
0.00161869
0.0010774
0.00159245
0.00113956
0.00157099
0.00119875
0.00154468
0.00124781
0.00152315
0.00128613
0.00150412
0.00132028
0.0014814
0.00134746
0.00146215
0.00136759
0.0014433
0.00138162
0.00142486
0.00138912
0.00140752
0.00139077
0.00139058
0.00138663
0.00137434
0.00137673
0.00135882
0.00136135
0.00134368
0.00134103
0.00132898
0.00131508
0.00131526
0.00128429
0.00130163
0.00124892
0.00128804
0.00120845
0.00127553
0.00116374
0.00126256
0.00111433
0.0012503
0.00106047
0.00123784
0.0010026
0.0012253
0.000940599
0.00121233
0.000874404
0.00119901
0.000803946
0.001185
0.000729941
0.00116923
0.000652246
0.0011518
0.000570893
0.00113204
0.000486827
0.00110817
0.000400053
0.00107971
0.000311938
0.00104331
0.000223215
0.000994059
0.000137053
0.000915886
0.000767346
5.76276e-05
0.000228391
0.00168642
-9.05987e-05
0.000353719
0.00166542
0.000469027
0.00164197
0.000574265
0.00162341
0.000674301
0.00159992
0.000764249
0.00158135
0.000844063
0.00156277
0.00091619
0.00154656
0.00098059
0.00152805
0.00104216
0.00150942
0.00109119
0.00149566
0.00113482
0.00147952
0.00117316
0.00146578
0.00120243
0.00145212
0.00122796
0.00143662
0.00124662
0.00142464
0.00125911
0.00141237
0.00126604
0.00140059
0.00126763
0.00138899
0.00126377
0.0013782
0.001255
0.00136759
0.00124128
0.0013574
0.00122257
0.00134769
0.00119941
0.00133842
0.00117176
0.00132927
0.00113934
0.00132046
0.00110336
0.00131151
0.00106253
0.00130339
0.00101812
0.00129471
0.000969591
0.00128637
0.000917308
0.00127758
0.000861287
0.00126835
0.000801291
0.00125901
0.000737942
0.00124834
0.000671038
0.00123613
0.000600536
0.00122231
0.000527102
0.00120547
0.000450478
0.00118479
0.000371695
0.0011585
0.000291015
0.00112399
0.000209871
0.0010752
0.000130585
0.000995172
0.000840984
5.69481e-05
0.000207792
0.00156387
-8.52397e-05
0.00032272
0.00155049
0.00042762
0.00153707
0.000527343
0.00152368
0.000614504
0.00151276
0.000694065
0.00150179
0.000768431
0.00148841
0.00083745
0.00147754
0.000896491
0.00146901
0.000947809
0.0014581
0.000993798
0.00144967
0.00103452
0.00143881
0.00106757
0.00143272
0.0010978
0.00142189
0.00111859
0.00141584
0.00113553
0.00140769
0.00114694
0.00140095
0.00115346
0.00139408
0.00115464
0.00138781
0.00115147
0.00138138
0.00114354
0.00137552
0.00113087
0.00137007
0.00111405
0.00136451
0.00109312
0.00135935
0.00106831
0.00135409
0.00103918
0.00134959
0.00100604
0.00134466
0.000969729
0.0013397
0.000929391
0.00133504
0.000885729
0.00133003
0.000838449
0.00132486
0.000787501
0.0013193
0.000733716
0.00131279
0.000676326
0.00130573
0.000615499
0.00129696
0.000551834
0.00128597
0.00048521
0.0012721
0.000415622
0.00125438
0.00034406
0.00123006
0.000270671
0.00119738
0.000196809
0.00114906
0.000124082
0.0010679
0.000908812
5.62535e-05
0.000190329
0.00145415
-8.06144e-05
0.000294903
0.00144592
0.000391834
0.00144014
0.000478633
0.00143688
0.000560437
0.00143096
0.00063689
0.00142534
0.000703331
0.00142197
0.000762169
0.0014187
0.000815798
0.00141538
0.000864132
0.00140976
0.00090731
0.00140649
0.000942743
0.00140337
0.000975504
0.00139996
0.000998075
0.00139932
0.00102026
0.00139366
0.00103501
0.00139294
0.00104474
0.00139122
0.00105065
0.00138817
0.00105199
0.00138647
0.00104881
0.00138456
0.00104157
0.00138276
0.0010305
0.00138115
0.00101534
0.00137967
0.00099627
0.00137842
0.00097353
0.00137683
0.000947446
0.00137567
0.000917726
0.00137438
0.000884309
0.00137312
0.000847899
0.00137145
0.000808192
0.00136974
0.000765482
0.00136757
0.000719542
0.00136524
0.000670616
0.00136172
0.000618852
0.0013575
0.000564128
0.00135168
0.000506144
0.00134395
0.000445702
0.00133254
0.000382749
0.00131733
0.00031746
0.00129535
0.000250674
0.00126416
0.00018295
0.00121679
0.000116481
0.00113437
0.000970903
5.439e-05
0.000176255
0.00134985
-7.19525e-05
0.000270397
0.00135178
0.000357078
0.00135346
0.000438472
0.00135549
0.000512302
0.00135713
0.000578548
0.00135909
0.00063953
0.00136099
0.000695392
0.00136284
0.000746091
0.00136468
0.000789223
0.00136663
0.000824602
0.00137111
0.000857209
0.00137077
0.000884636
0.00137254
0.000909325
0.00137463
0.000926392
0.00137659
0.000940716
0.00137862
0.000951345
0.00138059
0.00095634
0.00138317
0.00095756
0.00138525
0.000955112
0.00138701
0.000948633
0.00138924
0.000938454
0.00139132
0.000924612
0.00139351
0.000907408
0.00139563
0.000886951
0.00139728
0.000862901
0.00139972
0.000835972
0.00140131
0.000806074
0.00140301
0.000773326
0.0014042
0.000737363
0.00140571
0.000698443
0.00140649
0.000656947
0.00140673
0.000612845
0.00140582
0.000565791
0.00140455
0.000516126
0.00140135
0.000464062
0.00139602
0.000409019
0.00138758
0.000352051
0.0013743
0.000292573
0.00135483
0.000231621
0.00132512
0.000170937
0.00127747
0.000110814
0.00119449
5.40596e-05
0.00102766
-6.82761e-05
0.000185849
-7.74879e-05
-0.000104838
0.000139906
-0.000103344
-0.000134916
0.000154592
-0.000124514
-0.000162572
0.000163792
-0.000136136
-0.000188557
0.000170249
-0.000144264
-0.000212886
0.00017546
-0.00015113
-0.000235825
0.000180104
-0.000157166
-0.00025726
0.000184352
-0.000162917
-0.000277124
0.000188385
-0.000168521
-0.000295396
0.00019219
-0.000173918
-0.000312048
0.000195911
-0.000179259
-0.000327137
0.000199619