/*--------------------------------*- C++ -*----------------------------------*\
| =========                 |                                                 |
| \\      /  F ield         | OpenFOAM: The Open Source CFD Toolbox           |
|  \\    /   O peration     | Version:  2.3.0                                 |
|   \\  /    A nd           | Web:      www.OpenFOAM.org                      |
|    \\/     M anipulation  |                                                 |
\*---------------------------------------------------------------------------*/
FoamFile
{
    version     2.0;
    format      ascii;
    class       volScalarField;
    location    "7000";
    object      p;
}
// * * * * * * * * * * * * * * * * * * * * * * * * * * * * * * * * * * * * * //

dimensions      [0 2 -2 0 0 0 0];

internalField   nonuniform List<scalar> 
14412
(
-0.000105669
-0.0102935
-0.0185234
-0.0266614
-0.0343885
-0.0406961
-0.0440814
-0.0426945
-0.0343982
-0.0169046
0.012098
0.054864
0.113519
0.190099
0.28654
0.404892
0.547315
0.716182
0.914182
1.14598
1.42412
1.768
2.1882
2.40663
0.0728758
0.0733662
0.0754433
0.0780178
0.0803453
0.0820517
0.0828299
0.0824357
0.0808768
0.0785689
0.0765017
0.0763546
0.0805379
0.0922325
0.115347
0.154441
0.214662
0.301606
0.421161
0.579382
0.782539
1.03816
1.35977
1.75946
0.141095
0.149407
0.160616
0.17445
0.190827
0.210338
0.233782
0.262
0.295862
0.336243
0.38402
0.440068
0.505289
0.580631
0.667076
0.765641
0.87727
1.00277
1.14257
1.2966
1.46385
1.64219
1.82826
2.01615
0.198589
0.212292
0.228321
0.246686
0.267014
0.289498
0.314477
0.342375
0.373723
0.409184
0.449561
0.495788
0.548899
0.610001
0.680213
0.760613
0.852132
0.955474
1.07097
1.19843
1.33698
1.48491
1.63949
1.79704
0.247152
0.26545
0.285005
0.306926
0.331125
0.357913
0.387662
0.420807
0.457781
0.499053
0.545117
0.596513
0.653782
0.717484
0.78815
0.866264
0.952158
1.04598
1.14757
1.2564
1.37143
1.4911
1.61326
1.73533
0.28985
0.309892
0.330968
0.354069
0.379205
0.406662
0.436654
0.469587
0.505814
0.545765
0.58985
0.638556
0.692305
0.751532
0.81665
0.888064
0.965958
1.05029
1.14083
1.23705
1.33801
1.4424
1.54848
1.65416
0.32645
0.347076
0.368852
0.39239
0.417769
0.445454
0.475418
0.508165
0.543915
0.583122
0.625985
0.673023
0.724498
0.780696
0.841718
0.908047
0.97996
1.05712
1.13931
1.22597
1.31629
1.40916
1.50333
1.59691
0.357778
0.378078
0.399919
0.423301
0.448165
0.475358
0.504446
0.536309
0.570811
0.608702
0.649699
0.694682
0.743716
0.79723
0.854531
0.915896
0.982138
1.05315
1.12905
1.20893
1.29168
1.37617
1.46137
1.54603
0.38575
0.405456
0.426132
0.448005
0.471823
0.498866
0.527107
0.557878
0.590987
0.627461
0.666532
0.710304
0.757717
0.808023
0.861759
0.920674
0.983316
1.04988
1.12029
1.19428
1.27113
1.35082
1.4306
1.50965
0.412643
0.431112
0.449289
0.468241
0.488589
0.518977
0.545698
0.573944
0.604118
0.638644
0.674396
0.716491
0.763729
0.811295
0.858495
0.917398
0.989979
1.05742
1.12103
1.18708
1.25806
1.32907
1.41726
1.49448
3.75455
4.69614
4.65264
4.56423
4.51432
4.45997
4.38782
4.30424
4.21437
4.11986
4.0211
3.9182
3.81112
3.69992
3.58484
3.46641
3.34543
3.22294
3.1001
2.97807
2.85777
2.73993
2.62511
2.52279
2.26217
2.7811
3.16557
3.43944
3.63189
3.75815
3.82811
3.85137
3.83688
3.79256
3.72544
3.64163
3.54636
3.444
3.338
3.23097
3.12467
3.02019
2.91802
2.81826
2.72073
2.62518
2.53155
2.44713
2.20684
2.39432
2.56048
2.70077
2.8148
2.90399
2.97012
3.01534
3.04203
3.05257
3.04919
3.03389
3.00837
2.97408
2.93225
2.88392
2.83002
2.77139
2.70885
2.64318
2.57506
2.50512
2.43402
2.36877
1.95463
2.10816
2.25194
2.38127
2.49325
2.58658
2.66106
2.71733
2.75657
2.78026
2.7901
2.78779
2.77503
2.75342
2.72442
2.68932
2.64926
2.60517
2.55781
2.50781
2.45556
2.40142
2.34572
2.29486
1.85529
1.97148
2.08118
2.18159
2.27069
2.3473
2.411
2.46195
2.50069
2.52807
2.54507
2.55274
2.55212
2.54419
2.52987
2.50998
2.48522
2.45625
2.42364
2.38787
2.34934
2.30843
2.26562
2.22754
1.75784
1.85822
1.9534
2.04133
2.12042
2.18964
2.2485
2.29696
2.33532
2.3641
2.38398
2.39575
2.40024
2.39825
2.39055
2.37786
2.3608
2.33996
2.31585
2.28889
2.25935
2.22759
2.19409
2.16473
1.68869
1.77738
1.86151
1.93949
2.01012
2.07246
2.12618
2.17118
2.20772
2.23605
2.2568
2.27054
2.27798
2.27982
2.27665
2.26907
2.25761
2.24275
2.22501
2.20468
2.18201
2.15731
2.13094
2.10855
1.62978
1.71065
1.7872
1.85819
1.92301
1.98043
2.03055
2.07312
2.10847
2.13634
2.15759
2.17247
2.18169
2.18589
2.18548
2.18109
2.1732
2.16221
2.14892
2.13336
2.11564
2.09609
2.07514
2.05857
1.58751
1.66212
1.73312
1.79931
1.85968
1.91276
1.95999
2.00037
2.03394
2.06054
2.08104
2.09532
2.10473
2.10963
2.11056
2.10821
2.10272
2.0946
2.08519
2.07329
2.05891
2.04286
2.02576
2.01416
1.56619
1.6342
1.70224
1.76729
1.8238
1.87277
1.91717
1.95484
1.98403
2.00819
2.02548
2.03595
2.04345
2.0478
2.04916
2.04805
2.04431
2.03891
2.03384
2.02408
2.01089
1.99663
1.98237
1.97598
-1.47591
-1.52358
-1.56224
-1.59036
-1.60295
-1.59496
-1.56209
-1.50188
-1.41524
-1.30647
-1.18222
-1.05133
-0.924096
-0.810964
-0.721611
-0.664171
-0.644697
-0.666768
-0.731508
-0.836728
-0.981025
-1.16391
-1.43877
-1.37416
-1.45594
-1.50643
-1.55668
-1.60927
-1.66474
-1.72405
-1.78838
-1.85863
-1.93525
-2.01774
-2.1043
-2.19237
-2.27904
-2.36135
-2.43637
-2.50139
-2.55412
-2.59274
-2.61646
-2.6247
-2.62144
-2.59406
-2.64043
-2.55812
-1.43422
-1.48468
-1.53898
-1.5998
-1.66809
-1.74463
-1.8297
-1.92267
-2.02197
-2.12527
-2.22959
-2.33168
-2.42847
-2.51744
-2.59666
-2.66483
-2.72132
-2.76602
-2.8
-2.82432
-2.84833
-2.85417
-2.89814
-2.88191
-1.40378
-1.44697
-1.49152
-1.53858
-1.58785
-1.63907
-1.69194
-1.74613
-1.80129
-1.85721
-1.91362
-1.97007
-2.0259
-2.08047
-2.13314
-2.18325
-2.23028
-2.27377
-2.31402
-2.3499
-2.38953
-2.41973
-2.46436
-2.47361
-1.37035
-1.40552
-1.44138
-1.47836
-1.51635
-1.55545
-1.59585
-1.63766
-1.68095
-1.72581
-1.77225
-1.82007
-1.86875
-1.91759
-1.96569
-2.01203
-2.05562
-2.09546
-2.13133
-2.16137
-2.19174
-2.21631
-2.24409
-2.24933
-1.33782
-1.3677
-1.39855
-1.43097
-1.46501
-1.50098
-1.53924
-1.57998
-1.62312
-1.66847
-1.71591
-1.76524
-1.81613
-1.86817
-1.92079
-1.9729
-2.02323
-2.07049
-2.11424
-2.1522
-2.18784
-2.21867
-2.24571
-2.25045
-1.30704
-1.33161
-1.35815
-1.38589
-1.41491
-1.44557
-1.47835
-1.51406
-1.5527
-1.59391
-1.6375
-1.68385
-1.73338
-1.7865
-1.84349
-1.90339
-1.96378
-2.02352
-2.08275
-2.13888
-2.19243
-2.24243
-2.28304
-2.29424
-1.27574
-1.29706
-1.31916
-1.34174
-1.36505
-1.38916
-1.41455
-1.44312
-1.47576
-1.512
-1.55116
-1.59319
-1.638
-1.68656
-1.74437
-1.81358
-1.88702
-1.96308
-2.04512
-2.12718
-2.20398
-2.27435
-2.3347
-2.36239
-1.24551
-1.2639
-1.28264
-1.30169
-1.32078
-1.34016
-1.35799
-1.38179
-1.41099
-1.44303
-1.47478
-1.51113
-1.55441
-1.59893
-1.64988
-1.72761
-1.80085
-1.87034
-1.9627
-2.07069
-2.17192
-2.28739
-2.3972
-2.45419
-1.22509
-1.23917
-1.25207
-1.26469
-1.28061
-1.29682
-1.30079
-1.30583
-1.33259
-1.37676
-1.41788
-1.44778
-1.47321
-1.48391
-1.51056
-1.64317
-1.76637
-1.85379
-1.99174
-2.17014
-2.28765
-2.35945
-2.50504
-2.59025
-1.36567
-1.42208
-1.13861
-0.948404
-0.797264
-0.685962
-0.616047
-0.589698
-0.605716
-0.660297
-0.747094
-0.857589
-0.981715
-1.10865
-1.2279
-1.33068
-1.41032
-1.46277
-1.48773
-1.48807
-1.46819
-1.43339
-1.38833
-1.33082
-2.55417
-2.63289
-2.58045
-2.60212
-2.59853
-2.58272
-2.55085
-2.50374
-2.44237
-2.36876
-2.28542
-2.19528
-2.10147
-2.00715
-1.91535
-1.82868
-1.74871
-1.67567
-1.60891
-1.54723
-1.48917
-1.4339
-1.3808
-1.32294
-2.87721
-2.8869
-2.83508
-2.82217
-2.79004
-2.75708
-2.71403
-2.6601
-2.59449
-2.51753
-2.43012
-2.33377
-2.23063
-2.12341
-2.01529
-1.90951
-1.80884
-1.71533
-1.63021
-1.55367
-1.48498
-1.42331
-1.36771
-1.31125
-2.46827
-2.44984
-2.39489
-2.35481
-2.30449
-2.25794
-2.20733
-2.15427
-2.09874
-2.04145
-1.98304
-1.92419
-1.86548
-1.80746
-1.75056
-1.69497
-1.64061
-1.5874
-1.53538
-1.48459
-1.43503
-1.38693
-1.34088
-1.2933
-2.24282
-2.2253
-2.18373
-2.14552
-2.101
-2.05749
-2.0095
-1.95965
-1.90852
-1.8572
-1.8065
-1.75705
-1.70935
-1.66375
-1.62038
-1.57903
-1.53921
-1.50042
-1.46224
-1.42433
-1.38641
-1.34849
-1.31103
-1.27234
-2.24395
-2.22369
-2.17753
-2.12604
-2.06958
-2.01346
-1.95579
-1.89936
-1.84454
-1.79195
-1.74172
-1.69398
-1.64871
-1.60588
-1.5653
-1.52666
-1.48951
-1.4535
-1.41843
-1.38407
-1.3502
-1.31675
-1.28392
-1.25013
-2.28318
-2.2502
-2.18124
-2.10167
-2.0203
-1.94269
-1.86938
-1.80364
-1.74502
-1.69309
-1.64693
-1.60512
-1.56653
-1.53079
-1.49753
-1.46601
-1.43548
-1.40549
-1.37582
-1.3463
-1.31682
-1.28743
-1.25851
-1.22871
-2.37681
-2.3286
-2.22029
-2.09131
-1.95876
-1.84233
-1.751
-1.68012
-1.62478
-1.58064
-1.54234
-1.50784
-1.47686
-1.45035
-1.42696
-1.40439
-1.38159
-1.35828
-1.33442
-1.30994
-1.28484
-1.25943
-1.23453
-1.20865
-2.44406
-2.32614
-2.13961
-1.95907
-1.80168
-1.69474
-1.61086
-1.55255
-1.51083
-1.47665
-1.45167
-1.43236
-1.4118
-1.39399
-1.37687
-1.35888
-1.33957
-1.31964
-1.29918
-1.27819
-1.25627
-1.23344
-1.21199
-1.1897
-2.92574
-2.71965
-2.42891
-2.14539
-1.80763
-1.56165
-1.46116
-1.41916
-1.39759
-1.4033
-1.39614
-1.36678
-1.32429
-1.31248
-1.31509
-1.31078
-1.30087
-1.28792
-1.27273
-1.25472
-1.23293
-1.21034
-1.19325
-1.17474
-8.55167
-6.93251
-5.96588
-5.1928
-4.47715
-3.80277
-3.19081
-2.64767
-2.17324
-1.76552
-1.4213
-1.13587
-0.903353
-0.716998
-0.569692
-0.454362
-0.364418
-0.29406
-0.238489
-0.193957
-0.157723
-0.12786
-0.103193
-0.080979
-0.732133
-2.06285
-2.14537
-2.03761
-1.9463
-1.86048
-1.75609
-1.63412
-1.50082
-1.3613
-1.21981
-1.08025
-0.946175
-0.820496
-0.705388
-0.602156
-0.511265
-0.432432
-0.36482
-0.307243
-0.258404
-0.216999
-0.182027
-0.151461
-0.417389
-1.05851
-0.88528
-0.883655
-0.941608
-0.989672
-1.01352
-1.01917
-1.00939
-0.985108
-0.947649
-0.89896
-0.841373
-0.777376
-0.709516
-0.64023
-0.571724
-0.505839
-0.443979
-0.38707
-0.33561
-0.289693
-0.249107
-0.210764
-1.67798
-1.47401
-1.26753
-1.25595
-1.2416
-1.21086
-1.17315
-1.13262
-1.08843
-1.03997
-0.987423
-0.931281
-0.872206
-0.810959
-0.748421
-0.685516
-0.623198
-0.562393
-0.503958
-0.448635
-0.397024
-0.349518
-0.3063
-0.264134
-1.64957
-1.27299
-1.24539
-1.24688
-1.2168
-1.18051
-1.14453
-1.10711
-1.06678
-1.02338
-0.97708
-0.928063
-0.876627
-0.823172
-0.768241
-0.712447
-0.656474
-0.601024
-0.546788
-0.494414
-0.444505
-0.39756
-0.354087
-0.310669
-1.1888
-0.994841
-1.04942
-1.03853
-1.01838
-1.00327
-0.989235
-0.97257
-0.952482
-0.928835
-0.90152
-0.870463
-0.83576
-0.797625
-0.756442
-0.712704
-0.667029
-0.62011
-0.572686
-0.525499
-0.479278
-0.434675
-0.392428
-0.348828
-0.996394
-0.931523
-0.966426
-0.941452
-0.926803
-0.917586
-0.908351
-0.89711
-0.883582
-0.867414
-0.848301
-0.826015
-0.800485
-0.771714
-0.739843
-0.705105
-0.667862
-0.628578
-0.587808
-0.546175
-0.504352
-0.462989
-0.422948
-0.380462
-0.948268
-0.926122
-0.930626
-0.906138
-0.893661
-0.883328
-0.872777
-0.861274
-0.848494
-0.833972
-0.817385
-0.798477
-0.777102
-0.75315
-0.726609
-0.69753
-0.666069
-0.632467
-0.597067
-0.560297
-0.522673
-0.484739
-0.447303
-0.406708
-0.904535
-0.892654
-0.8849
-0.867435
-0.856814
-0.84684
-0.837061
-0.826894
-0.815873
-0.803539
-0.789601
-0.7738
-0.755966
-0.735944
-0.71366
-0.689079
-0.662251
-0.633293
-0.602413
-0.569894
-0.536121
-0.501524
-0.466878
-0.428883
-0.86111
-0.852487
-0.842849
-0.830484
-0.820909
-0.812047
-0.803688
-0.795163
-0.786001
-0.775803
-0.764296
-0.751222
-0.736404
-0.71967
-0.700917
-0.680062
-0.657095
-0.632053
-0.605049
-0.576266
-0.545976
-0.514498
-0.482526
-0.447151
-0.829864
-0.823249
-0.814292
-0.804163
-0.79494
-0.786732
-0.779096
-0.7714
-0.763254
-0.754313
-0.744327
-0.733049
-0.720304
-0.705917
-0.689767
-0.671748
-0.651802
-0.629912
-0.60612
-0.580521
-0.553296
-0.524652
-0.49514
-0.462109
-0.808067
-0.802688
-0.794141
-0.784694
-0.775739
-0.767941
-0.760668
-0.753409
-0.745845
-0.737676
-0.728672
-0.718607
-0.707311
-0.694614
-0.680391
-0.664521
-0.646925
-0.627549
-0.606385
-0.583472
-0.558918
-0.532862
-0.505774
-0.475274
-0.793507
-0.788026
-0.778394
-0.768533
-0.760005
-0.752601
-0.745638
-0.738733
-0.731627
-0.724052
-0.715803
-0.70667
-0.696494
-0.685115
-0.672405
-0.658243
-0.642535
-0.625208
-0.606225
-0.585582
-0.563343
-0.539595
-0.514739
-0.48627
-0.783612
-0.776861
-0.765362
-0.754818
-0.746873
-0.739777
-0.733062
-0.726461
-0.71974
-0.71266
-0.705024
-0.696646
-0.687374
-0.677057
-0.665572
-0.652798
-0.638638
-0.623007
-0.605849
-0.587133
-0.566889
-0.545159
-0.5223
-0.495501
-0.774134
-0.766189
-0.753811
-0.743301
-0.73596
-0.729049
-0.722531
-0.716188
-0.709789
-0.703108
-0.69597
-0.688203
-0.679666
-0.670218
-0.659739
-0.648111
-0.635235
-0.621022
-0.605403
-0.588331
-0.569808
-0.54985
-0.528796
-0.503637
-0.762808
-0.754585
-0.742654
-0.732871
-0.726083
-0.719376
-0.713125
-0.7071
-0.701056
-0.694787
-0.688126
-0.680922
-0.673037
-0.664345
-0.654727
-0.644075
-0.632289
-0.619281
-0.604974
-0.589313
-0.572278
-0.553862
-0.534464
-0.511603
-0.750844
-0.743207
-0.732359
-0.723516
-0.717192
-0.710727
-0.704776
-0.699078
-0.693388
-0.687513
-0.681298
-0.674606
-0.667305
-0.659279
-0.650414
-0.640608
-0.629764
-0.617792
-0.604617
-0.590173
-0.574428
-0.557343
-0.539241
-0.518796
-0.739858
-0.73319
-0.723423
-0.715352
-0.709336
-0.703117
-0.697449
-0.692058
-0.686696
-0.68119
-0.675386
-0.669159
-0.66238
-0.654943
-0.646738
-0.637669
-0.627641
-0.616567
-0.604366
-0.590966
-0.576316
-0.560344
-0.543184
-0.523484
-0.731554
-0.725761
-0.7167
-0.708831
-0.702782
-0.69679
-0.691365
-0.686216
-0.681114
-0.675904
-0.670434
-0.664593
-0.658253
-0.651318
-0.643679
-0.635246
-0.625925
-0.615631
-0.604283
-0.591804
-0.578135
-0.5632
-0.547085
-0.528658
-0.726191
-0.72086
-0.711995
-0.703646
-0.697253
-0.691518
-0.686302
-0.681351
-0.676465
-0.671508
-0.666325
-0.660814
-0.654852
-0.648348
-0.641197
-0.633316
-0.624611
-0.615001
-0.604407
-0.592752
-0.579983
-0.566032
-0.550995
-0.533691
-0.722836
-0.717533
-0.708558
-0.699553
-0.692869
-0.687399
-0.682311
-0.677487
-0.672754
-0.667984
-0.663024
-0.657778
-0.652126
-0.645985
-0.63925
-0.631844
-0.623674
-0.614663
-0.60473
-0.593803
-0.581822
-0.568723
-0.554601
-0.538163
-0.719779
-0.714314
-0.705266
-0.695966
-0.689308
-0.684086
-0.679073
-0.674349
-0.669747
-0.665139
-0.66037
-0.655354
-0.64997
-0.644145
-0.637773
-0.630781
-0.62308
-0.614594
-0.605243
-0.594953
-0.583662
-0.571294
-0.55794
-0.542239
-0.716254
-0.710718
-0.701824
-0.692688
-0.686327
-0.681326
-0.676388
-0.67177
-0.667297
-0.662842
-0.65825
-0.653442
-0.648301
-0.642756
-0.636706
-0.630083
-0.622798
-0.614778
-0.605944
-0.596224
-0.585553
-0.573852
-0.561215
-0.546251
-0.712326
-0.706937
-0.698406
-0.689722
-0.683759
-0.678947
-0.674106
-0.669609
-0.665274
-0.660974
-0.656557
-0.65195
-0.647036
-0.641752
-0.635998
-0.62971
-0.6228
-0.615199
-0.606832
-0.597624
-0.587515
-0.576422
-0.564443
-0.550168
-0.708524
-0.703468
-0.6954
-0.687251
-0.681607
-0.676913
-0.672193
-0.667833
-0.663642
-0.659499
-0.655255
-0.650841
-0.646143
-0.641101
-0.635619
-0.629634
-0.623064
-0.615842
-0.607895
-0.599152
-0.589552
-0.579011
-0.56763
-0.553999
-0.705651
-0.700998
-0.693363
-0.685648
-0.680057
-0.675325
-0.670739
-0.666511
-0.662451
-0.658446
-0.654358
-0.650116
-0.645613
-0.640787
-0.63555
-0.62984
-0.623576
-0.616696
-0.609128
-0.600805
-0.59167
-0.581645
-0.570836
-0.557861
-0.703936
-0.699626
-0.692303
-0.684822
-0.678998
-0.674108
-0.669683
-0.665588
-0.661653
-0.657781
-0.653838
-0.649756
-0.645429
-0.640799
-0.63578
-0.630313
-0.624323
-0.617747
-0.610518
-0.602572
-0.593852
-0.584278
-0.573971
-0.561576
-0.703429
-0.699325
-0.692169
-0.684739
-0.678584
-0.673541
-0.669262
-0.665241
-0.661382
-0.657593
-0.653754
-0.649788
-0.645602
-0.641131
-0.636298
-0.631042
-0.62529
-0.618984
-0.612056
-0.604444
-0.596095
-0.586928
-0.57705
-0.56516
-0.703359
-0.699336
-0.692261
-0.684822
-0.67847
-0.673406
-0.669258
-0.665285
-0.661484
-0.657769
-0.654018
-0.650153
-0.646085
-0.641752
-0.637077
-0.632002
-0.62646
-0.620389
-0.613728
-0.606415
-0.598396
-0.589591
-0.580114
-0.568743
-0.703546
-0.699548
-0.692554
-0.685147
-0.678793
-0.67382
-0.669761
-0.665793
-0.662016
-0.658332
-0.654634
-0.650834
-0.646855
-0.642628
-0.638086
-0.633167
-0.627805
-0.621944
-0.61552
-0.608473
-0.60075
-0.592268
-0.583119
-0.572181
-0.703474
-0.699519
-0.692658
-0.685377
-0.679185
-0.674378
-0.670398
-0.666453
-0.662715
-0.659079
-0.655442
-0.651714
-0.647821
-0.643696
-0.639274
-0.634494
-0.629297
-0.623624
-0.617414
-0.610612
-0.603164
-0.594993
-0.586187
-0.575704
-0.703469
-0.699613
-0.692948
-0.68587
-0.679911
-0.675245
-0.671298
-0.667366
-0.663654
-0.660045
-0.656452
-0.652776
-0.648956
-0.644917
-0.640604
-0.635952
-0.630904
-0.625403
-0.619392
-0.612815
-0.60562
-0.597739
-0.589255
-0.579121
-0.703436
-0.699735
-0.693303
-0.686468
-0.680739
-0.676125
-0.67216
-0.668277
-0.664618
-0.661063
-0.657532
-0.653925
-0.650187
-0.64624
-0.642034
-0.637504
-0.632598
-0.627258
-0.62143
-0.615059
-0.608094
-0.600466
-0.592259
-0.582483
-0.703819
-0.7003
-0.694099
-0.687495
-0.681917
-0.677208
-0.673149
-0.66932
-0.665711
-0.662198
-0.65872
-0.655173
-0.65151
-0.647648
-0.643544
-0.63913
-0.634358
-0.629171
-0.623515
-0.617335
-0.610579
-0.60317
-0.595164
-0.585437
-0.704506
-0.701154
-0.695149
-0.688717
-0.683198
-0.678304
-0.674136
-0.670384
-0.666831
-0.66337
-0.659953
-0.656474
-0.652889
-0.649115
-0.645112
-0.640812
-0.63617
-0.63113
-0.625641
-0.619648
-0.613102
-0.605929
-0.598203
-0.588685
-0.705505
-0.702281
-0.696422
-0.690097
-0.684569
-0.679503
-0.675262
-0.671582
-0.668064
-0.664639
-0.66127
-0.657849
-0.654333
-0.65064
-0.646731
-0.642539
-0.638024
-0.633127
-0.627801
-0.621993
-0.615656
-0.608721
-0.601282
-0.592017
-0.706585
-0.703441
-0.697687
-0.691423
-0.685874
-0.680719
-0.676478
-0.672857
-0.669359
-0.665963
-0.662637
-0.659267
-0.655817
-0.652201
-0.648383
-0.644298
-0.639904
-0.635147
-0.629981
-0.624355
-0.618224
-0.611524
-0.604389
-0.595744
-0.707503
-0.704413
-0.698749
-0.692546
-0.687011
-0.681877
-0.677699
-0.674136
-0.67066
-0.667298
-0.664016
-0.660703
-0.657318
-0.65378
-0.650053
-0.646072
-0.641799
-0.637179
-0.632167
-0.626714
-0.620774
-0.614277
-0.607323
-0.599006
-0.70829
-0.705246
-0.699681
-0.693558
-0.688085
-0.683044
-0.678953
-0.675429
-0.671972
-0.668639
-0.665397
-0.662136
-0.658817
-0.655357
-0.651723
-0.647849
-0.643697
-0.639213
-0.634354
-0.629068
-0.623312
-0.617011
-0.610233
-0.60213
-0.708709
-0.705728
-0.700283
-0.694284
-0.688928
-0.684036
-0.680039
-0.676562
-0.673153
-0.669883
-0.666705
-0.66352
-0.660282
-0.656915
-0.653382
-0.649622
-0.645596
-0.641251
-0.636546
-0.631431
-0.625863
-0.619778
-0.61324
-0.605422
-0.709134
-0.706238
-0.700935
-0.695088
-0.689874
-0.685124
-0.681163
-0.677686
-0.674328
-0.671114
-0.667998
-0.664886
-0.661731
-0.658461
-0.655034
-0.651393
-0.647497
-0.643295
-0.638746
-0.6338
-0.628418
-0.622536
-0.61623
-0.608599
-0.70933
-0.706539
-0.701393
-0.695724
-0.690664
-0.686049
-0.682077
-0.678602
-0.67534
-0.672228
-0.669206
-0.666199
-0.66315
-0.659993
-0.656685
-0.653171
-0.64941
-0.645353
-0.640958
-0.636177
-0.630968
-0.625267
-0.619144
-0.611729
-0.709784
-0.707108
-0.702118
-0.696621
-0.691691
-0.687155
-0.683115
-0.679611
-0.676439
-0.673406
-0.670466
-0.667551
-0.664601
-0.661556
-0.658366
-0.65498
-0.651354
-0.647441
-0.643197
-0.638574
-0.633529
-0.627988
-0.622012
-0.614586
-0.71016
-0.707593
-0.702748
-0.69741
-0.692588
-0.688115
-0.684028
-0.680549
-0.677495
-0.674571
-0.671734
-0.668933
-0.666095
-0.66317
-0.660102
-0.656845
-0.653354
-0.649583
-0.645488
-0.641022
-0.636145
-0.630791
-0.625041
-0.617881
-0.710863
-0.708394
-0.703677
-0.698472
-0.693726
-0.689292
-0.685185
-0.681744
-0.678781
-0.675929
-0.673168
-0.670455
-0.667712
-0.664893
-0.661936
-0.658801
-0.655437
-0.651802
-0.647851
-0.643535
-0.638818
-0.633626
-0.628049
-0.620878
-0.711569
-0.709179
-0.704574
-0.699485
-0.69481
-0.690435
-0.686374
-0.683026
-0.680163
-0.677397
-0.674721
-0.672104
-0.669457
-0.666741
-0.663892
-0.660872
-0.657628
-0.654121
-0.650304
-0.646131
-0.641565
-0.636532
-0.631159
-0.624319
-0.71256
-0.710239
-0.705738
-0.700756
-0.696153
-0.691849
-0.68787
-0.684616
-0.681824
-0.679118
-0.676504
-0.673958
-0.671387
-0.668759
-0.666002
-0.663084
-0.659949
-0.656558
-0.652865
-0.648824
-0.644397
-0.639509
-0.634276
-0.62769
-0.713696
-0.711435
-0.707035
-0.702158
-0.697641
-0.69343
-0.689563
-0.686406
-0.683677
-0.681031
-0.678479
-0.676001
-0.673501
-0.670951
-0.668277
-0.66545
-0.662412
-0.659126
-0.655545
-0.651625
-0.647326
-0.642574
-0.637467
-0.631097
-0.715101
-0.712902
-0.708607
-0.703842
-0.699425
-0.695322
-0.69157
-0.688481
-0.685785
-0.683191
-0.680689
-0.678266
-0.675823
-0.673337
-0.670733
-0.667983
-0.665029
-0.661834
-0.658352
-0.654538
-0.650355
-0.645731
-0.640749
-0.634537
-0.716887
-0.714751
-0.710561
-0.705908
-0.701595
-0.697593
-0.693935
-0.690857
-0.688157
-0.685602
-0.683139
-0.680754
-0.678356
-0.67592
-0.673373
-0.670686
-0.667802
-0.664685
-0.661288
-0.657568
-0.653488
-0.648982
-0.644135
-0.63811
-0.718949
-0.716879
-0.712796
-0.70826
-0.704054
-0.700148
-0.696561
-0.693459
-0.690737
-0.688229
-0.685804
-0.683455
-0.681095
-0.678699
-0.676196
-0.673558
-0.67073
-0.667675
-0.664348
-0.660707
-0.656715
-0.652309
-0.647566
-0.641688
-0.72158
-0.719574
-0.71559
-0.711155
-0.707036
-0.703183
-0.699616
-0.69643
-0.693653
-0.691157
-0.688741
-0.686398
-0.684052
-0.681675
-0.679199
-0.676595
-0.673806
-0.670799
-0.667528
-0.663952
-0.660037
-0.655718
-0.651077
-0.645314
-0.724407
-0.722458
-0.718564
-0.714221
-0.710175
-0.70636
-0.702797
-0.699545
-0.696735
-0.694265
-0.691861
-0.689525
-0.687191
-0.684825
-0.682366
-0.679781
-0.677019
-0.674046
-0.670816
-0.667291
-0.663434
-0.659184
-0.654607
-0.648732
-0.727794
-0.725892
-0.722074
-0.717795
-0.713788
-0.709965
-0.706368
-0.703027
-0.700168
-0.697673
-0.69524
-0.692875
-0.690524
-0.688145
-0.685683
-0.683102
-0.680353
-0.677401
-0.674202
-0.670719
-0.666918
-0.662747
-0.658332
-0.652936
-0.731214
-0.729346
-0.725589
-0.72136
-0.717381
-0.71355
-0.709932
-0.706553
-0.703681
-0.70118
-0.69873
-0.696344
-0.693979
-0.691585
-0.689115
-0.686529
-0.683784
-0.680843
-0.677664
-0.67421
-0.670444
-0.66631
-0.6619
-0.656546
-0.735016
-0.733172
-0.729464
-0.725266
-0.721292
-0.717429
-0.713773
-0.710346
-0.707442
-0.70489
-0.70239
-0.699954
-0.697553
-0.695126
-0.692636
-0.690036
-0.687287
-0.684349
-0.681182
-0.677747
-0.674005
-0.669892
-0.665469
-0.660406
-0.73869
-0.73686
-0.733192
-0.729018
-0.725052
-0.721174
-0.717507
-0.714075
-0.711163
-0.70858
-0.70605
-0.703583
-0.701157
-0.698706
-0.696199
-0.693587
-0.690833
-0.687899
-0.684744
-0.681331
-0.677621
-0.673556
-0.669146
-0.664413
-0.74247
-0.740652
-0.737023
-0.732872
-0.728912
-0.72502
-0.721344
-0.717899
-0.714953
-0.712311
-0.709741
-0.707233
-0.704776
-0.702299
-0.699777
-0.697154
-0.6944
-0.691473
-0.688336
-0.684952
-0.681283
-0.677281
-0.672915
-0.6684
-0.746043
-0.744236
-0.740645
-0.73652
-0.732579
-0.728692
-0.725025
-0.721588
-0.718609
-0.715919
-0.713332
-0.710807
-0.708338
-0.705851
-0.703325
-0.700704
-0.697959
-0.695048
-0.691935
-0.688583
-0.684953
-0.681001
-0.676645
-0.671988
-0.749459
-0.747669
-0.744121
-0.740036
-0.736125
-0.732261
-0.728613
-0.725183
-0.722155
-0.719416
-0.716825
-0.714295
-0.711825
-0.709341
-0.706825
-0.704217
-0.701493
-0.698608
-0.695529
-0.692219
-0.688638
-0.684753
-0.680495
-0.675926
-0.752694
-0.750925
-0.747425
-0.743387
-0.739515
-0.735681
-0.732056
-0.72863
-0.725547
-0.722763
-0.720187
-0.717668
-0.715214
-0.71275
-0.710258
-0.70768
-0.70499
-0.702145
-0.699114
-0.695858
-0.692343
-0.688543
-0.684418
-0.680188
-0.755573
-0.753834
-0.750389
-0.746416
-0.7426
-0.738822
-0.735234
-0.731834
-0.728718
-0.725928
-0.723394
-0.720914
-0.718496
-0.716073
-0.713623
-0.71109
-0.708449
-0.705656
-0.702681
-0.699487
-0.696035
-0.692293
-0.688198
-0.684135
-0.758373
-0.75667
-0.753285
-0.749381
-0.745621
-0.741891
-0.738334
-0.734944
-0.731801
-0.729011
-0.726519
-0.724077
-0.721703
-0.719329
-0.716932
-0.714456
-0.711875
-0.709146
-0.706236
-0.703106
-0.699715
-0.696022
-0.691911
-0.687895
-0.760739
-0.759076
-0.755757
-0.751939
-0.748253
-0.744601
-0.741099
-0.737768
-0.734654
-0.731926
-0.72951
-0.727141
-0.724833
-0.72253
-0.720202
-0.717797
-0.715288
-0.712632
-0.709797
-0.706743
-0.703428
-0.699818
-0.695763
-0.691613
-0.763176
-0.76156
-0.758309
-0.754576
-0.750959
-0.747373
-0.743917
-0.740627
-0.737547
-0.734872
-0.732515
-0.730205
-0.727959
-0.725725
-0.723469
-0.721142
-0.718712
-0.716138
-0.713387
-0.710418
-0.707193
-0.703684
-0.699769
-0.69552
-0.765267
-0.763699
-0.760521
-0.756884
-0.753351
-0.74986
-0.746484
-0.743288
-0.740298
-0.737731
-0.735464
-0.733244
-0.73108
-0.728933
-0.726759
-0.724517
-0.722171
-0.719684
-0.717021
-0.714144
-0.711013
-0.707604
-0.703839
-0.699576
-0.767589
-0.766072
-0.76297
-0.759428
-0.755975
-0.752568
-0.749262
-0.746142
-0.743231
-0.74074
-0.738536
-0.736384
-0.734289
-0.732217
-0.73012
-0.72796
-0.725697
-0.723294
-0.720718
-0.717927
-0.714886
-0.71156
-0.707909
-0.70358
-0.769799
-0.768332
-0.765306
-0.761864
-0.758503
-0.755199
-0.751988
-0.748982
-0.746181
-0.743792
-0.741665
-0.739602
-0.737586
-0.735597
-0.733578
-0.731498
-0.729315
-0.726994
-0.724499
-0.721791
-0.718837
-0.715598
-0.712073
-0.707858
-0.772365
-0.770952
-0.768004
-0.76466
-0.761386
-0.758177
-0.755051
-0.752136
-0.74942
-0.74709
-0.745007
-0.743008
-0.741054
-0.739132
-0.737179
-0.73517
-0.733057
-0.730808
-0.728385
-0.725748
-0.722862
-0.719677
-0.716208
-0.711841
-0.775137
-0.773773
-0.770901
-0.767648
-0.764462
-0.761348
-0.758312
-0.755491
-0.75286
-0.750576
-0.74853
-0.746599
-0.744704
-0.742843
-0.740949
-0.739002
-0.736949
-0.73476
-0.732396
-0.729817
-0.726987
-0.72385
-0.720441
-0.716253
-0.778317
-0.777002
-0.774204
-0.771039
-0.767936
-0.764908
-0.76195
-0.759203
-0.756629
-0.754358
-0.752323
-0.75044
-0.748588
-0.74677
-0.74492
-0.743018
-0.741012
-0.73887
-0.736551
-0.734018
-0.731236
-0.728145
-0.724783
-0.720629
-0.781989
-0.780716
-0.777983
-0.774891
-0.771857
-0.768891
-0.765991
-0.763285
-0.760738
-0.758447
-0.756404
-0.754549
-0.752721
-0.750929
-0.749108
-0.747236
-0.74526
-0.74315
-0.740865
-0.738364
-0.735615
-0.73256
-0.72923
-0.725082
-0.786013
-0.784776
-0.782103
-0.779076
-0.776104
-0.773193
-0.77034
-0.767667
-0.765134
-0.762819
-0.760764
-0.758927
-0.757111
-0.75533
-0.753521
-0.751662
-0.749701
-0.747609
-0.745341
-0.742861
-0.740135
-0.737106
-0.73381
-0.72968
-0.790683
-0.789474
-0.786849
-0.783863
-0.780929
-0.778034
-0.77519
-0.772495
-0.769933
-0.767555
-0.765461
-0.763605
-0.761772
-0.759976
-0.758158
-0.756294
-0.754332
-0.752241
-0.749978
-0.747508
-0.744796
-0.741788
-0.738533
-0.734451
-0.79556
-0.794369
-0.791782
-0.788829
-0.785924
-0.783043
-0.780206
-0.7775
-0.774917
-0.772502
-0.770382
-0.76851
-0.766655
-0.764836
-0.762999
-0.761116
-0.759139
-0.757037
-0.754768
-0.752298
-0.749596
-0.746613
-0.743417
-0.739601
-0.801058
-0.799878
-0.797316
-0.794373
-0.791471
-0.788562
-0.785692
-0.78292
-0.780274
-0.777781
-0.775605
-0.773674
-0.771769
-0.769901
-0.768025
-0.766107
-0.764101
-0.761975
-0.759687
-0.757204
-0.754493
-0.751506
-0.748289
-0.74449
-0.806572
-0.805392
-0.802847
-0.799907
-0.797005
-0.794075
-0.791181
-0.788372
-0.78569
-0.783159
-0.780948
-0.778974
-0.777024
-0.77511
-0.773191
-0.771231
-0.769189
-0.767029
-0.764714
-0.76221
-0.759485
-0.756489
-0.753267
-0.750018
-0.812507
-0.811323
-0.808787
-0.805837
-0.802916
-0.799939
-0.796996
-0.79411
-0.791362
-0.788758
-0.786482
-0.784431
-0.782418
-0.78044
-0.778467
-0.776457
-0.774372
-0.772174
-0.769826
-0.767293
-0.764536
-0.76151
-0.758162
-0.754735
-0.818287
-0.817093
-0.814561
-0.811599
-0.808664
-0.805655
-0.80268
-0.799755
-0.796974
-0.794337
-0.792019
-0.789912
-0.787851
-0.785822
-0.783803
-0.781745
-0.779619
-0.777383
-0.775002
-0.772438
-0.769648
-0.766583
-0.763126
-0.759803
-0.82419
-0.822987
-0.820458
-0.817485
-0.814532
-0.811486
-0.808474
-0.805497
-0.802672
-0.799985
-0.797605
-0.795426
-0.793314
-0.791232
-0.789167
-0.787067
-0.784904
-0.782637
-0.780231
-0.77765
-0.774851
-0.771798
-0.768346
-0.765048
-0.829852
-0.828638
-0.826114
-0.823135
-0.820173
-0.817107
-0.814079
-0.81108
-0.808238
-0.805529
-0.803104
-0.800872
-0.79873
-0.796615
-0.794518
-0.792389
-0.790201
-0.787914
-0.785494
-0.782907
-0.780109
-0.777078
-0.773665
-0.770098
-0.835324
-0.834108
-0.831595
-0.828625
-0.825666
-0.8226
-0.819568
-0.816564
-0.813715
-0.810993
-0.808523
-0.806248
-0.804089
-0.801953
-0.799838
-0.797692
-0.795492
-0.793196
-0.790773
-0.788189
-0.785404
-0.782407
-0.779105
-0.775678
-0.840579
-0.839365
-0.836868
-0.833914
-0.830969
-0.827913
-0.824893
-0.821897
-0.819053
-0.816327
-0.813824
-0.81152
-0.809362
-0.807224
-0.805109
-0.802963
-0.800765
-0.798473
-0.796054
-0.793475
-0.790695
-0.787692
-0.784387
-0.780529
-0.845427
-0.844224
-0.841755
-0.83884
-0.83593
-0.83292
-0.829938
-0.82699
-0.82418
-0.821484
-0.818974
-0.816676
-0.814544
-0.812426
-0.81033
-0.808202
-0.806022
-0.803747
-0.801344
-0.798776
-0.796
-0.792978
-0.789663
-0.785609
-0.850191
-0.849007
-0.846572
-0.843704
-0.840835
-0.837871
-0.83493
-0.832018
-0.829237
-0.826561
-0.82405
-0.821764
-0.819666
-0.817582
-0.815519
-0.813426
-0.811281
-0.809039
-0.806668
-0.804129
-0.801382
-0.798381
-0.79513
-0.790921
-0.854498
-0.853341
-0.850951
-0.848151
-0.845347
-0.842466
-0.839598
-0.836775
-0.834061
-0.831456
-0.82899
-0.826763
-0.824727
-0.822701
-0.820693
-0.818654
-0.81656
-0.814368
-0.812046
-0.809551
-0.806844
-0.803862
-0.800642
-0.796077
-0.858921
-0.8578
-0.855462
-0.852733
-0.849992
-0.847184
-0.844379
-0.841615
-0.838949
-0.83639
-0.833962
-0.831785
-0.829808
-0.827843
-0.825895
-0.82392
-0.82189
-0.819761
-0.817501
-0.815068
-0.812429
-0.809525
-0.806485
-0.802503
-0.863026
-0.861944
-0.859664
-0.857019
-0.854361
-0.851655
-0.84894
-0.846283
-0.843705
-0.841244
-0.838897
-0.836813
-0.834917
-0.833032
-0.831158
-0.829258
-0.827298
-0.825239
-0.823047
-0.82068
-0.818106
-0.815264
-0.812296
-0.808406
-0.867462
-0.866425