/*--------------------------------*- C++ -*----------------------------------*\
| =========                 |                                                 |
| \\      /  F ield         | OpenFOAM: The Open Source CFD Toolbox           |
|  \\    /   O peration     | Version:  2.3.0                                 |
|   \\  /    A nd           | Web:      www.OpenFOAM.org                      |
|    \\/     M anipulation  |                                                 |
\*---------------------------------------------------------------------------*/
FoamFile
{
    version     2.0;
    format      ascii;
    class       surfaceScalarField;
    location    "7000";
    object      phi;
}
// * * * * * * * * * * * * * * * * * * * * * * * * * * * * * * * * * * * * * //

dimensions      [0 3 -1 0 0 0 0];

internalField   nonuniform List<scalar> 
28634
(
-0.00117357
-0.0121843
0.0132856
7.22365e-05
-0.00211301
-0.0112498
0.0121892
-0.00290343
-0.0103925
0.0111829
-0.00355772
-0.00960591
0.0102602
-0.00408657
-0.00888455
0.0094134
-0.00450127
-0.00822221
0.00863692
-0.00481035
-0.00761505
0.00792413
-0.00502351
-0.00705767
0.00727083
-0.00514849
-0.00654624
0.00667121
-0.0051924
-0.00607735
0.00612126
-0.00516256
-0.00564698
0.00561714
-0.00506485
-0.00525193
0.00515422
-0.00490514
-0.00488977
0.00473007
-0.00468849
-0.00455729
0.00434063
-0.00442008
-0.00425206
0.00398366
-0.00410372
-0.00397226
0.0036559
-0.00374348
-0.00371527
0.00335504
-0.00334323
-0.00347927
0.00307902
-0.002906
-0.00326275
0.00282552
-0.00243482
-0.00306381
0.00259263
-0.00193235
-0.00288103
0.00237856
-0.00140104
-0.00271291
0.00218161
-0.000842881
-0.00255811
0.00199995
-0.00241541
-0.000242478
0.00181501
-0.00106678
-0.0111834
6.58558e-05
-0.00192022
-0.0103963
-0.00263842
-0.0096743
-0.00323243
-0.0090119
-0.00371288
-0.0084041
-0.00408861
-0.00784648
-0.00436885
-0.00733481
-0.00456104
-0.00686548
-0.00467242
-0.00643486
-0.00471002
-0.00603974
-0.0046801
-0.0056769
-0.00458772
-0.00534431
-0.00443853
-0.00503896
-0.00423718
-0.00475863
-0.00398774
-0.0045015
-0.00369485
-0.00426516
-0.00336153
-0.00404859
-0.00299146
-0.00384934
-0.00258763
-0.00366658
-0.00215277
-0.00349867
-0.00168936
-0.00334445
-0.0011995
-0.00320277
-0.000685017
-0.00307259
-0.00295313
-0.000147298
-0.000969234
-0.0102739
5.9749e-05
-0.00174485
-0.0096207
-0.00239725
-0.0090219
-0.00293708
-0.00847207
-0.00337339
-0.0079678
-0.0037146
-0.00750526
-0.00396877
-0.00708064
-0.00414311
-0.00669113
-0.00424426
-0.00633371
-0.00427824
-0.00600577
-0.00425025
-0.00570489
-0.00416591
-0.00542865
-0.00402962
-0.00517525
-0.00384579
-0.00494246
-0.00361821
-0.00472908
-0.00335028
-0.00453309
-0.00304557
-0.00435329
-0.00270705
-0.00418786
-0.00233756
-0.00403607
-0.00193946
-0.00389677
-0.00151512
-0.00376879
-0.00106665
-0.00365123
-0.00059599
-0.00354325
-0.00344414
-0.00010498
-0.000880814
-0.00944715
5.40669e-05
-0.00158531
-0.0089162
-0.00217821
-0.008429
-0.00266854
-0.00798174
-0.00306455
-0.00757179
-0.00337466
-0.00719515
-0.00360529
-0.00685001
-0.00376329
-0.00653314
-0.00385447
-0.00624254
-0.00388465
-0.00597559
-0.00385886
-0.00573068
-0.00378151
-0.005506
-0.00365702
-0.00529974
-0.003489
-0.00511048
-0.00328125
-0.00493682
-0.00303719
-0.00477716
-0.00275981
-0.00463067
-0.00245171
-0.00449597
-0.00211514
-0.00437264
-0.00175279
-0.00425912
-0.00136671
-0.00415487
-0.000958778
-0.00405916
-0.000530792
-0.00397124
-0.00389055
-8.43808e-05
-0.000799973
-0.00869604
4.88582e-05
-0.00144028
-0.00827589
-0.00197923
-0.00789006
-0.00242464
-0.00753633
-0.00278455
-0.00721189
-0.00306578
-0.00691392
-0.00327536
-0.00664042
-0.00341872
-0.00638978
-0.00350148
-0.00615978
-0.00352865
-0.00594841
-0.00350486
-0.00575448
-0.0034341
-0.00557675
-0.00332061
-0.00541323
-0.00316758
-0.00526351
-0.00297863
-0.00512577
-0.00275637
-0.00499942
-0.00250379
-0.00488325
-0.00222291
-0.00477685
-0.00191692
-0.00467863
-0.00158719
-0.00458885
-0.00123589
-0.00450617
-0.000864826
-0.00443022
-0.000475544
-0.00436052
-0.00429646
-6.96319e-05
-0.000726662
-0.00801343
4.40567e-05
-0.0013089
-0.00769365
-0.0017982
-0.00740076
-0.00220299
-0.00713153
-0.00253011
-0.00688477
-0.00278577
-0.00665826
-0.00297581
-0.00645038
-0.00310584
-0.00625974
-0.00318109
-0.00608453
-0.00320557
-0.00592393
-0.0031835
-0.00577655
-0.00311929
-0.00564096
-0.00301575
-0.00551677
-0.0028765
-0.00540277
-0.00270433
-0.00529793
-0.00250228
-0.00520148
-0.00227233
-0.0051132
-0.00201729
-0.00503188
-0.00173857
-0.00495735
-0.00143878
-0.00488865
-0.00111933
-0.00482561
-0.000781887
-0.00476766
-0.000427963
-0.00471445
-0.00466552
-5.89034e-05
-0.000660298
-0.00739285
3.97176e-05
-0.00118914
-0.00716481
-0.00163409
-0.00695581
-0.00200196
-0.00676366
-0.00229898
-0.00658774
-0.00253118
-0.00642606
-0.00270397
-0.00627759
-0.00282218
-0.00614154
-0.00289022
-0.00601649
-0.00291231
-0.00590184
-0.00289247
-0.00579639
-0.0028337
-0.00569973
-0.00273942
-0.00561106
-0.00261283
-0.00552935
-0.00245635
-0.00545441
-0.00227219
-0.00538564
-0.00206315
-0.00532224
-0.00183104
-0.00526399
-0.00157787
-0.00521052
-0.00130509
-0.00516142
-0.00101472
-0.00511599
-0.000707896
-0.00507449
-0.000386128
-0.00503621
-0.00500107
-5.05835e-05
-0.000599824
-0.00682883
3.57966e-05
-0.00108035
-0.00668428
-0.00148481
-0.00655135
-0.00181902
-0.00642945
-0.00208922
-0.00631755
-0.00230021
-0.00621507
-0.00245702
-0.00612079
-0.00256446
-0.0060341
-0.00262615
-0.00595479
-0.00264631
-0.00588168
-0.00262796
-0.00581475
-0.00257449
-0.00575319
-0.00248893
-0.00569662
-0.00237367
-0.00564461
-0.00223133
-0.00559676
-0.00206411
-0.00555285
-0.00187403
-0.00551231
-0.00166289
-0.00547513
-0.0014325
-0.00544091
-0.00118466
-0.00540926
-0.000920456
-0.00538019
-0.000641512
-0.00535343
-0.000348952
-0.00532877
-0.00530611
-4.3907e-05
-0.000544795
-0.00631629
3.22635e-05
-0.000981862
-0.00624721
-0.00134929
-0.00618393
-0.0016531
-0.00612564
-0.00189852
-0.00607213
-0.00209035
-0.00602324
-0.00223302
-0.00597812
-0.00233054
-0.00593658
-0.00238673
-0.0058986
-0.00240479
-0.00586361
-0.00238796
-0.00583158
-0.00233943
-0.00580172
-0.00226162
-0.00577443
-0.00215672
-0.00574951
-0.00202714
-0.00572633
-0.00187511
-0.00570489
-0.00170222
-0.00568521
-0.00151027
-0.00566708
-0.00130088
-0.00565031
-0.00107545
-0.00563469
-0.000835349
-0.00562029
-0.000581735
-0.00560704
-0.000315745
-0.00559476
-0.00558344
-3.84149e-05
-0.000494972
-0.00585041
2.90905e-05
-0.000892227
-0.00584996
-0.00122627
-0.00584988
-0.00150231
-0.0058496
-0.00172539
-0.00584905
-0.0018997
-0.00584893
-0.00202925
-0.00584856
-0.00211788
-0.00584795
-0.0021688
-0.00584769
-0.0021852
-0.00584721
-0.00217031
-0.00584647
-0.00212594
-0.00584609
-0.0020549
-0.00584547
-0.00195978
-0.00584463
-0.00184199
-0.00584411
-0.00170356
-0.00584332
-0.00154645
-0.00584232
-0.0013719
-0.00584164
-0.00118152
-0.00584068
-0.000976718
-0.0058395
-0.000758324
-0.00583868
-0.000527792
-0.00583758
-0.00028596
-0.0058366
-3.38258e-05
-0.00583558
0.000382662
-0.00241103
0.00178589
0.0009652
-0.00254545
0.00196291
0.00151846
-0.00269419
0.00214093
0.00204224
-0.00285761
0.00233383
0.00253454
-0.0030366
0.00254431
0.0029927
-0.0032324
0.00277425
0.00341353
-0.00344625
0.00302541
0.00379383
-0.00367989
0.0032996
0.00412953
-0.00393474
0.00359904
0.00441639
-0.00421253
0.00392568
0.00465048
-0.00451582
0.00428172
0.00482654
-0.00484638
0.00467032
0.00493951
-0.0052066
0.00509363
0.00498357
-0.00559966
0.0055556
0.00495293
-0.00602797
0.00605861
0.00484042
-0.00649474
0.00660725
0.00463907
-0.00700397
0.00720531
0.00434135
-0.00755907
0.00785679
0.00393768
-0.00816386
0.00856753
0.0034197
-0.00882377
0.00934174
0.00277623
-0.0095426
0.0101861
0.00199666
-0.0103266
0.0111062
0.00106816
-0.0111811
0.0121096
-0.0121129
0.0132032
-2.21056e-05
0.000392888
-0.00295122
0.000914196
-0.00306676
0.00141309
-0.00319309
0.00188659
-0.00333111
0.00233189
-0.0034819
0.00274609
-0.00364661
0.00312623
-0.00382638
0.00346919
-0.00402285
0.00377127
-0.00423682
0.00402946
-0.00447072
0.00423918
-0.00472554
0.00439646
-0.00500366
0.00449675
-0.00530688
0.00453448
-0.0056374
0.0045047
-0.00599819
0.00440124
-0.00639127
0.0042171
-0.00681983
0.00394511
-0.00728707
0.00357784
-0.00779659
0.00310608
-0.00835201
0.002521
-0.00895752
0.00181197
-0.00961755
0.000967941
-0.0103371
-0.0111216
-2.33314e-05
0.000386454
-0.00344265
0.000858425
-0.00353873
0.00130899
-0.00364365
0.00173609
-0.00375821
0.0021375
-0.00388331
0.00251076
-0.00401987
0.00285346
-0.00416908
0.00316268
-0.00433207
0.00343543
-0.00450958
0.0036681
-0.00470339
0.00385727
-0.00491471
0.00399913
-0.00514552
0.00408925
-0.005397
0.00412322
-0.00567137
0.00409542
-0.0059704
0.00400065
-0.0062965
0.00383287
-0.00665205
0.00358547
-0.00703968
0.00325124
-0.00746236
0.00282215
-0.00792292
0.00228979
-0.00842516
0.00164513
-0.00897289
0.000877543
-0.00956952
-0.0102205
-2.36072e-05
0.000362261
-0.00388929
0.000790951
-0.00396742
0.00120004
-0.00405274
0.00158771
-0.00414587
0.00195201
-0.00424761
0.00229086
-0.00435873
0.00260154
-0.00447976
0.00288176
-0.00461229
0.00312889
-0.00475671
0.00333993
-0.00491443
0.00351146
-0.00508624
0.00363967
-0.00527373
0.00372095
-0.00547829
0.0037509
-0.00570131
0.0037251
-0.0059446
0.00363854
-0.00620994
0.00348543
-0.00649894
0.00325994
-0.00681419
0.00295528
-0.0071577
0.00256502
-0.00753266
0.00208075
-0.00794089
0.00149424
-0.00838638
0.000796466
-0.00887175
-0.0094008
-2.31944e-05
0.000336385
-0.00429531
0.000726002
-0.00435704
0.00109764
-0.00442438
0.00144977
-0.004498
0.00178058
-0.00457842
0.00208788
-0.00466602
0.0023703
-0.00476217
0.00262463
-0.00486662
0.00284886
-0.00498095
0.00303999
-0.00510556
0.00319541
-0.00524166
0.00331152
-0.00538983
0.0033851
-0.00555187
0.00341195
-0.00572816
0.00338807
-0.00592072
0.00330885
-0.00613072
0.00316928
-0.00635937
0.00296375
-0.00660867
0.00268686
-0.00688081
0.00233159
-0.0071774
0.00189114
-0.00750043
0.00135747
-0.00785272
0.000722782
-0.00823706
-0.00865566
-2.23621e-05
0.000310217
-0.00466443
0.000664339
-0.00471116
0.00100213
-0.00476218
0.0013221
-0.00481797
0.00162258
-0.0048789
0.00190215
-0.0049456
0.00215821
-0.00501823
0.00238935
-0.00509776
0.00259277
-0.00518437
0.00276647
-0.00527926
0.00290743
-0.00538263
0.00301287
-0.00549527
0.00307917
-0.00561817
0.00310353
-0.00575252
0.00308155
-0.00589873
0.00300902
-0.00605819
0.00288194
-0.00623229
0.0026951
-0.00642183
0.00244291
-0.00662861
0.00211955
-0.00685404
0.0017188
-0.00709969
0.00123387
-0.00736779
0.000656336
-0.00765952
-0.0079781
-2.12254e-05
0.000284998
-0.00500001
0.00060689
-0.00503305
0.000913939
-0.00506923
0.00120465
-0.00510868
0.00147788
-0.00515214
0.00173164
-0.00519935
0.00196446
-0.00525105
0.00217434
-0.00530763
0.00235948
-0.00536951
0.00251707
-0.00543686
0.00264493
-0.00551048
0.00274063
-0.00559097
0.00280099
-0.00567852
0.00282259
-0.00577413
0.00280244
-0.00587858
0.00273654
-0.00599229
0.00262068
-0.00611643
0.00245046
-0.00625161
0.00222107
-0.00639923
0.00192712
-0.00656008
0.00156259
-0.00673516
0.00112128
-0.00692647
0.000596366
-0.00713461
-0.00736178
-1.99528e-05
0.000261163
-0.00530508
0.000553805
-0.00532569
0.000832904
-0.00534832
0.00109734
-0.00537312
0.00134551
-0.0054003
0.00157632
-0.00543016
0.00178797
-0.0054627
0.00197866
-0.00549833
0.0021466
-0.00553745
0.00228978
-0.00558004
0.00240601
-0.00562671
0.00249268
-0.00567764
0.00254738
-0.00573323
0.00256712
-0.00579387
0.0025485
-0.00585996
0.00248851
-0.0059323
0.00238296
-0.00601087
0.00222824
-0.00609689
0.00201955
-0.00619054
0.00175189
-0.00629242
0.00142045
-0.00640372
0.00101903
-0.00652505
0.000541811
-0.0066574
-0.00680138
-1.85939e-05
0.00023893
-0.00558243
0.00050497
-0.00559173
0.000758695
-0.00560205
0.000998974
-0.0056134
0.00122465
-0.00562598
0.00143434
-0.00563985
0.00162666
-0.00565502
0.00180001
-0.00567168
0.0019526
-0.00569004
0.00208283
-0.00571027
0.00218849
-0.00573237
0.00226717
-0.00575632
0.00231669
-0.00578274
0.00233463
-0.00581181
0.0023178
-0.00584313
0.00226299
-0.00587749
0.00216701
-0.0059149
0.00202606
-0.00595594
0.00183614
-0.00600062
0.00159284
-0.00604912
0.00129135
-0.00610224
0.000926477
-0.00616017
0.000492217
-0.00622314
-0.00629194
-1.72234e-05
0.000218312
-0.00583457
0.000460152
-0.00583357
0.000690786
-0.00583268
0.000909318
-0.00583193
0.00111431
-0.00583097
0.00130491
-0.00583045
0.00147973
-0.00582983
0.00163717
-0.00582913
0.00177605
-0.00582891
0.00189435
-0.00582857
0.00199009
-0.0058281
0.00206184
-0.00582807
0.00210701
-0.00582791
0.00212281
-0.00582761
0.00210742
-0.00582774
0.00205765
-0.00582772
0.00197029
-0.00582754
0.00184217
-0.00582781
0.00166946
-0.00582791
0.00144816
-0.00582781
0.00117407
-0.00582815
0.000842202
-0.00582831
0.000447351
-0.00582828
-0.00582871
-1.58722e-05
0.00109951
0.0122144
-0.0133166
2.72626e-06
0.00203844
0.0112739
-0.0122128
0.00282652
0.0104098
-0.0111978
0.00347607
0.00961508
-0.0102646
0.00399716
0.00888416
-0.00940524
0.00440033
0.00821043
-0.0086136
0.00469327
0.00758969
-0.00788263
0.00488487
0.00701609
-0.00720769
0.00498216
0.00648535
-0.00658264
0.00499198
0.00599374
-0.00600355
0.00492194
0.00553723
-0.00546719
0.00477889
0.00511283
-0.00496978
0.00457018
0.00471843
-0.00450972
0.00430285
0.00435116
-0.00408383
0.00398447
0.00400885
-0.00369047
0.00362161
0.00368978
-0.00332691
0.00322138
0.00339125
-0.00299102
0.00279092
0.00311102
-0.00268056
0.00233692
0.00284657
-0.00239257
0.00186663
0.00259412
-0.00212384
0.00138804
0.00234852
-0.00186993
0.000911279
0.00210036
-0.00162359
0.000448917
0.0018312
-0.00136884
0.00154357
-1.89736e-06
-0.00109275
0.00100126
0.0112122
9.14779e-07
0.00185482
0.0104203
0.00257175
0.00969282
0.00316279
0.00902405
0.0036382
0.00840875
0.0040064
0.00784223
0.00427616
0.00731993
0.00445442
0.00683783
0.00454791
0.00639185
0.00456335
0.00597831
0.00450694
0.00559363
0.00438417
0.0052356
0.00420148
0.00490112
0.00396475
0.00458789
0.00367963
0.00429396
0.0033527
0.00401671
0.00298932
0.00375463
0.00259584
0.00350449
0.0021784
0.003264
0.00174357
0.00302896
0.00129884
0.00279324
0.00085365
0.00254555
0.000419212
0.00226564
0.00196493
-2.15113e-06
0.000911573
0.0103011
-5.27133e-07
0.00168788
0.00964403
0.00233994
0.00904077
0.0028782
0.00848579
0.00331145
0.00797549
0.00364785
0.00750583
0.00389509
0.0070727
0.00406
0.00667293
0.00414879
0.00630306
0.00416712
0.00595997
0.00412003
0.00564072
0.00401322
0.00534241
0.00385154
0.0050628
0.00364018
0.00479925
0.00338407
0.00455007
0.00308815
0.00431264
0.00275786
0.00408491
0.00239847
0.00386388
0.00201565
0.00364683
0.00161527
0.00342934
0.00120443
0.00320407
0.000792009
0.00295797
0.000388501
0.00266915
0.00235577
-2.34023e-06
0.000830075
0.00947267
-1.60822e-06
0.0015356
0.0089385
0.00212871
0.00844766
0.00261831
0.00799619
0.00301246
0.00758134
0.00331939
0.0071989
0.00354529
0.00684681
0.00369669
0.00652152
0.00377913
0.00622063
0.00379811
0.00594099
0.00375841
0.00568042
0.00366439
0.00543644
0.0035206
0.00520658
0.00333113
0.00498873
0.00310053
0.00478067
0.0028333
0.00457987
0.00253391
0.0043843
0.00220688
0.00419091
0.00185691
0.00399679
0.00148983
0.00379642
0.00111202
0.00358188
0.000731655
0.00333834
0.000358661
0.00304214
0.00271692
-2.48013e-06
0.000755211
0.00871977
-2.31812e-06
0.0013967
0.00829701
0.00193616
0.0079082
0.00238132
0.00755103
0.00274011
0.00722256
0.0030192
0.00691981
0.00322547
0.00664054
0.00336413
0.00638287
0.00344056
0.00614419
0.00345954
0.00592201
0.00342545
0.00571451
0.00334214
0.00551975
0.00321381
0.00533491
0.00304389
0.00515865
0.00283645
0.00498811
0.00259488
0.00482144
0.00232332
0.00465586
0.00202538
0.00448886
0.00170628
0.00431589
0.00137028
0.00413242
0.00102348
0.00392868
0.000673538
0.00368828
0.000329816
0.00338586
0.00304939
-2.65772e-06
0.00068711
0.00803543
-2.76283e-06
0.0012706
0.00771352
0.00176059
0.0074182
0.00216548
0.00714615
0.002492
0.00689604
0.00274629
0.00666552
0.00293405
0.00645279
0.00306074
0.00625617
0.00313141
0.00607352
0.00314987
0.00590356
0.0031201
0.00574427
0.00304635
0.00559351
0.00293131
0.00544994
0.00277866
0.0053113
0.00259145
0.00517532
0.00237322
0.00503967
0.00212686
0.00490222
0.00185641
0.0047593
0.00156512
0.00460718
0.00125805
0.00443949
0.000940256
0.00424647
0.000618857
0.00400968
0.000302835
0.00370189
0.0033549
-2.67333e-06
0.000625265
0.00741315
-2.99292e-06
0.00115536
0.00718342
0.0016011
0.00697246
0.00196926
0.00677798
0.00226602
0.00659928
0.00249734
0.0064342
0.00266855
0.00628157
0.00278436
0.00614037
0.00284903
0.00600885
0.00286661
0.00588598
0.00284094
0.00576995
0.00277484
0.00565961
0.00267158
0.0055532
0.00253432
0.00544856
0.00236559
0.00534405
0.00216791
0.00523735
0.00194475
0.00512539
0.00169894
0.00500511
0.00143399
0.00487213
0.00115358
0.0047199
0.000862932
0.00453712
0.000568176
0.00430444
0.000277798
0.00399227
0.00363578
-3.07478e-06
0.000568718
0.00684755
-3.11323e-06
0.00105045
0.00670169
0.00145573
0.00656719
0.00179034
0.00644337
0.00206047
0.00632915
0.0022709
0.00622377
0.00242661
0.00612587
0.00253232
0.00603465
0.00259152
0.00594965
0.00260826
0.00586924
0.00258541
0.00579281
0.00252621
0.0057188
0.00243356
0.00564585
0.00230983
0.00557229
0.0021576
0.00549628
0.00197915
0.0054158
0.00177698
0.00532756
0.00155379
0.0052283
0.00131258
0.00511334
0.001057
0.00497548
0.000791138
0.00480298
0.000521293
0.00457428
0.000255186
0.00425837
0.00389311
-2.1486e-06
0.000517125
0.00633355
-3.12751e-06
0.00095533
0.00626348
0.00132355
0.00619897
0.00162779
0.00613913
0.00187326
0.00608368
0.00206473
0.00603231
0.00220662
0.00598397
0.00230287
0.0059384
0.00235719
0.00589534
0.00237264
0.00585379
0.00235234
0.0058131
0.00229933
0.00577182
0.0022158
0.00572939
0.00210398
0.0056841
0.0019665
0.00563377
0.00180513
0.00557717
0.00162193
0.00551076
0.00141969
0.00543055
0.00120077
0.00533225
0.000968035
0.00520822
0.000725749
0.00504526
0.000478795
0.00482124
0.000233925
0.00450324
0.00413087
-3.8384e-06
0.000470313
-3.12058e-06
0.00586636
0.0008686
0.0058652
0.00120338
0.00586418
0.00147988
0.00586263
0.00170306
0.0058605
0.00187707
0.00585829
0.00200608
0.00585496
0.0020939
0.00585059
0.00214346
0.00584578
0.00215777
0.00583947
0.00214002
0.00583085
0.00209207
0.00581977
0.00201644
0.00580502
0.00191575
0.00578479
0.00179193
0.00575759
0.00164569
0.00572341
0.00147949
0.00567696
0.00129607
0.00561397
0.00109746
0.00553085
0.000885218
0.00542047
0.000663678
0.0052668
0.000439599
0.00504532
0.000217193
0.00472565
3.73892e-06
0.00434433
-0.000453093
0.00154969
-0.00109849
-0.00091778
0.00184099
-0.00137631
-0.00139715
0.00211167
-0.0016323
-0.00187831
0.00236097
-0.00187981
-0.00235102
0.00260763
-0.00213491
-0.00280723
0.00286108
-0.00240487
-0.00323961
0.00312645
-0.00269408
-0.00364137
0.00340751
-0.00300574
-0.00400532
0.00370672
-0.00334277
-0.00432428
0.0040263
-0.00370733
-0.00459168
0.00436891
-0.00410151
-0.00479993
0.00473625
-0.004528
-0.00494205
0.00513045
-0.00498834
-0.00501074
0.0055544
-0.00548571
-0.00499929
0.00601022
-0.00602168
-0.00490022
0.00650095
-0.00660002
-0.00470686
0.00703073
-0.00722408
-0.00441228
0.00760335
-0.00789794
-0.00400762
0.00822312
-0.00862777
-0.00348524
0.00889589
-0.00941826
-0.00283461
0.00962585
-0.0102765
-0.00204569
0.0104196
-0.0112085
-0.00110615
0.0112827
-0.0122223
0.0122221
-0.0133247
-3.602e-06
-0.000424226
0.00197176
-0.000860841
0.00227761
-0.00130845
0.00255928
-0.00175549
0.002808
-0.00219244
0.00304459
-0.00261172
0.00328036
-0.0030067
0.00352144
-0.00337119
0.003772
-0.00369881
0.00403434
-0.00398416
0.00431165
-0.00422067
0.00460542
-0.00440273
0.0049183
-0.00452452
0.00525224
-0.00457966
0.00560954
-0.0045628
0.00599337
-0.00446784
0.00640599
-0.00428817
0.00685105
-0.00401709
0.00733227
-0.00364769
0.00785372
-0.00317122
0.00841942
-0.00257929
0.00903392
-0.00186162
0.0097019
-0.0010075
0.0104286
0.0112196
-4.964e-06
-0.000393992
0.00236342
-0.000799521
0.00268314
-0.00121416
0.00297392
-0.00162707
0.00322092
-0.00202928
0.0034468
-0.00241364
0.00366471
-0.0027742
0.00388199
-0.00310526
0.00410307
-0.00340156
0.00433064
-0.00365764
0.00456772
-0.0038686
0.00481639
-0.00402955
0.00507926
-0.00413537
0.00535806
-0.00418131
0.00565548
-0.00416174
0.0059738
-0.00407173
0.00631598
-0.00390566
0.00668499
-0.00365736
0.00708397
-0.00332
0.00751635
-0.00288588
0.00798531
-0.00234688
0.00849492
-0.0016942
0.00904922
-0.0009174
0.00965179
0.0103082
-6.03457e-06
-0.000364497
0.00272544
-0.000739382
0.00305803
-0.00112175
0.00335629
-0.00150138
0.00360055
-0.00187
0.00381541
-0.00222117
0.00401588
-0.00254904
0.00420987
-0.0028489
0.00440293
-0.00311625
0.00459798
-0.00334662
0.0047981
-0.00353558
0.00500534
-0.0036786
0.00522228
-0.00377171
0.00545117
-0.0038104
0.00569417
-0.0037904
0.0059538
-0.00370697
0.00623256
-0.00355464
0.00653266
-0.00332789
0.00685722
-0.00302018
0.00720865
-0.00262533
0.00759046
-0.00213512
0.0080047
-0.00154147
0.00845558
-0.000835517
0.00894584
0.00947942
-6.72932e-06
-0.000335982
0.00305876
-0.000681428
0.00340347
-0.00103315
0.00370801
-0.00138149
0.00394889
-0.00171872
0.00415265
-0.00203869
0.00433586
-0.00233717
0.00450834
-0.00260891
0.00467467
-0.00285036
0.00483943
-0.00305743
0.00500516
-0.00322677
0.00517468
-0.00335437
0.00534988
-0.00343686
0.00553367
-0.00347012
0.00572742
-0.00345031
0.005934
-0.00337311
0.00615535
-0.00323373
0.00639328
-0.0030268
0.00665029
-0.00274709
0.00692894
-0.00238775
0.00723111
-0.00194207
0.00755903
-0.00140215
0.00791566
-0.000760268
0.00830395
0.0087262
-7.04932e-06
-0.000309148
0.00336524
-0.000626892
0.00372122
-0.000949912
0.00403103
-0.00126897
0.00426795
-0.00157691
0.00446058
-0.00186869
0.00462764
-0.00213932
0.00477897
-0.00238561
0.00492096
-0.00260355
0.00505737
-0.0027903
0.00519192
-0.00294237
0.00532676
-0.00305675
0.00546426
-0.00312983
0.00560674
-0.00315892
0.00575651
-0.00313984
0.00591491
-0.00306858
0.00608409
-0.00294135
0.00626605
-0.0027531
0.00646203
-0.00249833
0.00667418
-0.00217136
0.00690414
-0.00176605
0.00715372
-0.00127566
0.00742527
-0.000691815
0.00772011
0.00804154
-7.15041e-06
-0.000284641
0.00364681
-0.000576448
0.00401302
-0.000872511
0.00432709
-0.00116406
0.0045595
-0.00144496
0.00474148
-0.00171007
0.00489275
-0.00195576
0.00502467
-0.00217862
0.00514381
-0.00237587
0.00525462
-0.00254413
0.00536017
-0.00268087
0.0054635
-0.0027836
0.00556699
-0.00284918
0.00567232
-0.00287436
0.00578169
-0.00285632
0.00589688
-0.00279124
0.00601901
-0.00267506
0.00614987
-0.00250348
0.00629045
-0.0022718
0.00644249
-0.00197468
0.00660701
-0.00160616
0.0067852
-0.00116007
0.00697918
-0.000629648
0.00718968
0.00741899
-7.09405e-06
-0.000261505
0.00390616
-0.000529858
0.00428138
-0.000801133
0.00459837
-0.00106759
0.00482596
-0.00132303
0.00499692
-0.00156373
0.00513345
-0.00178637
0.00524731
-0.00198799
0.00534543
-0.002166
0.00543262
-0.00231794
0.00551211
-0.00244137
0.00558693
-0.00253363
0.00565925
-0.0025924
0.00573109
-0.00261488
0.00580417
-0.00259784
0.00587984
-0.0025384
0.00595958
-0.00243246
0.00604393
-0.0022765
0.0061345
-0.00206578
0.00623178
-0.00179535
0.00633658
-0.00146043
0.00645027
-0.00105484
0.00657359
-0.000572799
0.00670765
0.00685309
-6.90748e-06
-0.000242614
0.00414494
-0.000488343
0.00452711
-0.000735777
0.0048458
-0.000977861
0.00506804
-0.00120952
0.00522858
-0.00142784
0.00535178
-0.00162961
0.00544908
-0.00181223
0.00552805
-0.00197331
0.0055937
-0.00211075
0.00564955
-0.00222222
0.00569839
-0.00230539
0.00574242
-0.00235815
0.00578385
-0.00237831
0.00582433
-0.00236275
0.00586428
-0.00230835
0.00590517
-0.00221198
0.00594756
-0.00206991
0.00599243
-0.00187819
0.00604006
-0.00163246
0.00609085
-0.00132793
0.00614574
-0.000959403
0.00620507
-0.000520909
0.00626915
0.00633882
-6.63512e-06
-0.000221874
0.00437055
-0.000448765
0.004754
-0.000675076
0.00507211
-0.000896359
0.00528932
-0.00110646
0.00543868
-0.00130333
0.00554864
-0.00148562
0.00563137
-0.00165084
0.00569327
-0.00179665
0.00573952
-0.00192108
0.00577398
-0.00202188
0.0057992
-0.00209751
0.00581805
-0.00214525
0.00583159
-0.00216275
0.00584183
-0.00214834
0.00584988
-0.00209883
0.00585566
-0.00201108
0.0058598
-0.00188194
0.00586329
-0.00170765
0.00586577
-0.00148424
0.00586743
-0.00120748
0.00586899
-0.000872382
0.00586997
-0.000473807
0.00587058
0.00587136
-6.34171e-06
7.26682e-05
0.00174234
8.51084e-05
0.00198751
9.23922e-05
0.00217432
9.75706e-05
0.00237338
0.000101288
0.00258892
0.000103783
0.00282302
0.000105221
0.00307758
0.000105731
0.00335453
0.000105426
0.0036562
0.000104417
0.00398467
0.000102818
0.00434223
0.000100745
0.00473214
9.83177e-05
0.00515665
9.56471e-05
0.00561981
9.28357e-05
0.00612407
8.997e-05
0.00667408
8.71175e-05
0.00727369
8.43256e-05
0.00792692
8.1622e-05
0.00863962
7.90194e-05
0.00941601
7.6519e-05
0.0102627
7.41168e-05
0.0111853
7.18106e-05
0.0121915
0.0132879
6.96011e-05
5.36001e-05
0.00168874
5.79059e-05
0.00198321
6.25221e-05
0.00216971
6.73021e-05
0.0023686
7.18297e-05
0.00258439
7.59456e-05
0.0028189
7.95282e-05
0.003074
8.2493e-05
0.00335156
8.47954e-05
0.0036539
8.64263e-05
0.00398304
8.74035e-05
0.00434125
8.77676e-05
0.00473178
8.75762e-05
0.00515684
8.69002e-05
0.00562049
8.58178e-05
0.00612515
8.441e-05
0.00667549
8.27549e-05
0.00727534
8.09234e-05
0.00792875
7.89758e-05
0.00864157
7.69606e-05
0.00941802
7.49145e-05
0.0102647
7.28642e-05
0.0111874
7.08317e-05
0.0121935
0.0132899
6.88469e-05
5.5552e-05
0.0016332
6.58308e-05
0.00197293
6.87331e-05
0.0021668
7.06353e-05
0.0023667
7.24159e-05
0.00258261
7.41661e-05
0.00281715
7.58353e-05
0.00307233
7.73598e-05
0.00335004
7.86807e-05
0.00365258
7.97492e-05
0.00398197
8.05277e-05
0.00434047
8.0993e-05
0.00473131
8.11355e-05
0.0051567
8.09596e-05
0.00562066
8.04816e-05
0.00612563
7.97274e-05
0.00667624
7.87298e-05
0.00727634
7.75254e-05
0.00792996
7.6151e-05
0.00864294
7.46423e-05
0.00941953
7.30314e-05
0.0102664
7.13472e-05
0.0111891
6.9614e-05
0.0121953
0.0132916
6.78506e-05
3.83019e-05
0.0015949
5.87817e-05
0.00195245
6.45433e-05
0.00216104
6.69235e-05
0.00236432
6.84309e-05
0.0025811
6.96811e-05
0.0028159
7.08401e-05
0.00307117
7.19426e-05
0.00334894
7.29728e-05
0.00365155
7.38983e-05
0.00398104
7.46809e-05
0.00433969
7.52865e-05
0.0047307
7.5686e-05
0.0051563
7.58603e-05
0.00562049
7.57994e-05
0.00612569
7.55039e-05
0.00667654
7.49828e-05
0.00727686
7.42524e-05
0.00793069
7.33334e-05
0.00864386
7.22489e-05
0.00942061
7.10229e-05
0.0102676
6.96786e-05
0.0111904
6.82366e-05
0.0121967
0.0132931
6.67149e-05
2.52208e-05
0.00156968
4.89043e-05
0.00192877
5.73958e-05
0.00215255
6.09575e-05
0.00236076
6.29019e-05
0.00257916
6.42919e-05
0.00281451
6.54878e-05
0.00306998
6.66055e-05
0.00334782
6.76669e-05
0.00365049
6.86598e-05
0.00398005
6.95577e-05
0.00433879
7.03319e-05
0.00472993
7.09537e-05
0.00515568
7.13998e-05
0.00562004
7.16523e-05
0.00612544
7.17011e-05
0.00667649
7.15432e-05
0.00727702
7.11827e-05
0.00793105
7.06292e-05
0.00864441
6.98968e-05
0.00942135
6.90024e-05
0.0102685
6.79649e-05
0.0111914
6.68046e-05
0.0121979
0.0132944
6.55435e-05
2.09591e-05
0.00154873
4.28343e-05
0.00190689
5.2836e-05
0.00214255
5.74415e-05
0.00235615
5.98409e-05
0.00257676
6.13456e-05
0.00281301
6.24882e-05
0.00306883
6.34828e-05
0.00334682
6.44059e-05
0.00364956
6.52776e-05
0.00397918
6.60899e-05
0.00433798
6.68255e-05
0.0047292
6.74616e-05
0.00515504
6.79764e-05
0.00561953
6.83499e-05
0.00612506
6.85664e-05
0.00667627
6.86148e-05
0.00727697
6.84893e-05
0.00793117
6.81894e-05
0.00864471
6.7719e-05
0.00942182
6.70864e-05
0.0102691
6.63032e-05
0.0111922
6.53842e-05
0.0121988
0.0132954
6.43431e-05
1.97688e-05
0.00152896
3.92097e-05
0.00188745
4.96789e-05
0.00213208
5.49885e-05
0.00235084
5.7818e-05
0.00257393
5.94864e-05
0.00281134
6.0617e-05
0.0030677
6.15035e-05
0.00334594
6.22771e-05
0.00364879
6.29929e-05
0.00397846
6.36651e-05
0.00433731
6.42901e-05
0.00472857
6.48538e-05
0.00515448
6.53392e-05
0.00561904
6.57278e-05
0.00612468
6.60029e-05
0.006676
6.61499e-05
0.00727682
6.61577e-05
0.00793117
6.60189e-05
0.00864485
6.57301e-05
0.0094221
6.52916e-05
0.0102695
6.47075e-05
0.0111928
6.39855e-05
0.0121995
0.0132963
6.31298e-05
1.84335e-05
0.00151053
3.62898e-05
0.0018696
4.68055e-05
0.00212156
5.25534e-05
0.0023451
5.57688e-05
0.00257071
5.7667e-05
0.00280944
5.8889e-05
0.00306648
5.97722e-05
0.00334505
6.0487e-05
0.00364807
6.11178e-05
0.00397783
6.1699e-05
0.00433672
6.22413e-05
0.00472803
6.27399e-05
0.00515398
6.31844e-05
0.0056186
6.35603e-05
0.0061243
6.38528e-05
0.00667571
6.40475e-05
0.00727663
6.41319e-05
0.00793108
6.40956e-05
0.00864489
6.3931e-05
0.00942227
6.36337e-05
0.0102698
6.32019e-05
0.0111932
6.26361e-05
0.0122001
0.013297
6.19316e-05
1.69744e-05
0.00149356
3.38358e-05
0.00185274
4.4294e-05
0.0021111
5.0314e-05
0.00233908
5.3836e-05
0.00256719
5.59627e-05
0.00280732
5.73161e-05
0.00306513
5.82506e-05
0.00334412
5.89606e-05
0.00364736
5.95527e-05
0.00397724
6.00785e-05
0.0043362
6.05617e-05
0.00472755
6.10067e-05
0.00515353
6.14101e-05
0.00561819
6.1762e-05
0.00612395
6.20511e-05
0.00667542
6.22646e-05
0.00727641
6.23905e-05
0.00793095
6.24177e-05
0.00864486
6.23369e-05
0.00942235
6.21407e-05
0.01027
6.18241e-05
0.0111936
6.13849e-05
0.0122005
0.0132976
6.08248e-05
1.57304e-05
0.00147783
3.18006e-05
0.00183667
4.21757e-05
0.00210073
4.83731e-05
0.00233288
5.21276e-05
0.00256343
5.44502e-05
0.002805
5.59341e-05
0.00306364
5.69353e-05
0.00334312
5.76618e-05
0.00364664
5.82357e-05
0.00397667
5.87228e-05
0.00433571
5.91581e-05
0.00472711
5.95548e-05
0.00515313
5.99159e-05
0.00561783
6.02364e-05
0.00612363
6.05084e-05
0.00667514
6.07215e-05
0.0072762
6.0865e-05
0.00793081
6.09283e-05
0.0086448
6.09014e-05
0.00942238
6.07755e-05
0.0102702
6.05435e-05
0.0111938
6.02015e-05
0.0122009
0.013298
5.97511e-05
1.47331e-05
0.00146309
3.00682e-05
0.00182133
4.03308e-05
0.00209046
4.66455e-05
0.00232657
5.05792e-05
0.0025595
5.30683e-05
0.00280251
5.46755e-05
0.00306203
5.57514e-05
0.00334204
5.65096e-05
0.00364588
5.70829e-05
0.00397609
5.75478e-05
0.00433525
5.79485e-05
0.00472671
5.83061e-05
0.00515278
5.86295e-05
0.00561751
5.89183e-05
0.00612334