/*--------------------------------*- C++ -*----------------------------------*\
| =========                 |                                                 |
| \\      /  F ield         | OpenFOAM: The Open Source CFD Toolbox           |
|  \\    /   O peration     | Version:  2.3.0                                 |
|   \\  /    A nd           | Web:      www.OpenFOAM.org                      |
|    \\/     M anipulation  |                                                 |
\*---------------------------------------------------------------------------*/
FoamFile
{
    version     2.0;
    format      ascii;
    class       volVectorField;
    location    "7000";
    object      U;
}
// * * * * * * * * * * * * * * * * * * * * * * * * * * * * * * * * * * * * * //

dimensions      [0 1 -1 0 0 0 0];

internalField   nonuniform List<vector> 
14412
(
(20.0789 0.106822 0)
(20.0792 0.110235 5.23738e-23)
(20.0796 0.113979 -5.30978e-23)
(20.0801 0.117935 -2.25773e-22)
(20.0806 0.122168 2.27546e-22)
(20.0812 0.126751 0)
(20.0819 0.131777 0)
(20.0827 0.137358 0)
(20.0837 0.143619 0)
(20.085 0.150695 0)
(20.0865 0.158724 0)
(20.0882 0.167837 0)
(20.0901 0.178156 0)
(20.0922 0.189783 0)
(20.0944 0.202797 0)
(20.0963 0.21725 0)
(20.0978 0.233153 0)
(20.0985 0.250477 -7.54338e-21)
(20.0978 0.269148 1.7572e-20)
(20.0949 0.289034 -1.00898e-20)
(20.0887 0.309791 0)
(20.0773 0.330898 0)
(20.0573 0.349192 -6.30914e-21)
(20.025 0.385121 6.76093e-21)
(20.0752 0.106985 0)
(20.0751 0.110062 2.69944e-22)
(20.0749 0.113434 -2.71939e-22)
(20.0746 0.116952 -5.81035e-22)
(20.0743 0.120621 5.81986e-22)
(20.0739 0.124451 6.06069e-22)
(20.0734 0.128453 -1.21394e-21)
(20.0726 0.132647 6.0825e-22)
(20.0717 0.13706 -5.87919e-22)
(20.0704 0.141729 1.1642e-21)
(20.0688 0.146702 -5.7726e-22)
(20.0667 0.152031 0)
(20.0641 0.157769 0)
(20.0609 0.163964 -7.97582e-22)
(20.057 0.170648 -2.4291e-22)
(20.0523 0.177832 1.06377e-21)
(20.0466 0.185493 0)
(20.0399 0.19356 0)
(20.032 0.201906 4.08459e-21)
(20.0227 0.210323 -4.11439e-21)
(20.0122 0.218503 3.75337e-21)
(20.0003 0.225996 -3.7478e-21)
(19.9872 0.232024 -1.59303e-21)
(19.9742 0.235615 1.58796e-21)
(20.072 0.106589 0)
(20.0715 0.109417 0)
(20.071 0.112452 0)
(20.0703 0.115611 -1.33009e-21)
(20.0696 0.118905 1.32782e-21)
(20.0688 0.12235 1.61073e-21)
(20.0679 0.125957 -1.60698e-21)
(20.0668 0.129734 0)
(20.0656 0.133686 2.28388e-21)
(20.0642 0.137812 -2.28741e-21)
(20.0625 0.142105 0)
(20.0606 0.146552 0)
(20.0582 0.151132 -3.99286e-21)
(20.0554 0.155811 8.65698e-21)
(20.0521 0.160539 -4.67612e-21)
(20.0481 0.165247 0)
(20.0434 0.169844 0)
(20.0379 0.174213 0)
(20.0316 0.178208 0)
(20.0243 0.181652 0)
(20.0161 0.184346 0)
(20.0071 0.186074 3.46854e-21)
(19.9973 0.186616 -1.54833e-21)
(19.987 0.185822 -1.92714e-21)
(20.0692 0.105929 0)
(20.0684 0.10844 7.98738e-22)
(20.0676 0.111077 -7.99068e-22)
(20.0667 0.113796 0)
(20.0657 0.116595 -2.00658e-21)
(20.0645 0.119479 1.99865e-21)
(20.0632 0.122452 0)
(20.0616 0.125517 2.55744e-21)
(20.0599 0.128673 -2.55619e-21)
(20.058 0.131917 0)
(20.0558 0.135242 0)
(20.0532 0.138634 3.76999e-21)
(20.0504 0.142073 -3.79972e-21)
(20.0471 0.14553 -4.73861e-21)
(20.0434 0.14896 1.01447e-20)
(20.0393 0.152308 -2.38668e-21)
(20.0347 0.155499 -3.07398e-21)
(20.0296 0.158443 3.91525e-21)
(20.0239 0.161033 4.7547e-22)
(20.0178 0.16315 -4.49968e-21)
(20.0113 0.164662 0)
(20.0044 0.165437 3.15942e-21)
(19.9973 0.165353 -4.92738e-21)
(19.9901 0.164317 1.76106e-21)
(20.0667 0.105087 0)
(20.0659 0.1073 0)
(20.0649 0.109583 0)
(20.0639 0.11193 0)
(20.0627 0.114332 0)
(20.0614 0.116791 -1.33141e-21)
(20.06 0.119307 -1.11908e-22)
(20.0584 0.121878 1.43615e-21)
(20.0567 0.124498 0)
(20.0547 0.127159 -3.71926e-21)
(20.0525 0.129848 -3.48711e-22)
(20.0501 0.132546 -3.91564e-22)
(20.0474 0.135231 -4.39966e-22)
(20.0443 0.137875 7.81578e-21)
(20.0409 0.140439 -2.80644e-21)
(20.0372 0.142876 -3.43846e-21)
(20.0331 0.145125 3.49174e-21)
(20.0285 0.147118 4.27907e-21)
(20.0236 0.148776 -4.34738e-21)
(20.0183 0.150014 0)
(20.0128 0.150744 -2.92072e-21)
(20.007 0.150887 2.95712e-21)
(20.001 0.150376 -8.7349e-22)
(19.9951 0.149169 8.82418e-22)
(20.0646 0.104125 0)
(20.0637 0.106067 0)
(20.0627 0.108043 0)
(20.0615 0.110062 0)
(20.0603 0.112119 0)
(20.059 0.11421 0)
(20.0575 0.116336 0)
(20.0559 0.118495 0)
(20.0541 0.120683 0)
(20.0521 0.122889 0)
(20.05 0.1251 0)
(20.0476 0.127297 0)
(20.0449 0.129458 0)
(20.042 0.131558 0)
(20.0388 0.133565 3.2028e-21)
(20.0353 0.135441 -3.25413e-21)
(20.0315 0.137132 -3.91401e-21)
(20.0274 0.138584 3.98257e-21)
(20.023 0.139734 0)
(20.0184 0.140518 0)
(20.0135 0.140872 0)
(20.0085 0.140736 1.57538e-21)
(20.0034 0.140067 -1.59496e-21)
(19.9984 0.138839 0)
(20.0628 0.103137 0)
(20.0619 0.104832 0)
(20.0608 0.106548 0)
(20.0597 0.108293 -7.27108e-22)
(20.0585 0.110069 -8.17997e-22)
(20.0571 0.111867 1.53493e-21)
(20.0557 0.113685 0)
(20.0541 0.115525 0)
(20.0523 0.117382 0)
(20.0504 0.119245 2.15938e-21)
(20.0483 0.121105 -2.17506e-21)
(20.046 0.122942 0)
(20.0436 0.12473 0)
(20.0408 0.126444 0)
(20.0378 0.128063 0)
(20.0346 0.129556 0)
(20.0311 0.130874 0)
(20.0273 0.131971 0)
(20.0233 0.132797 0)
(20.0191 0.133298 0)
(20.0147 0.133423 0)
(20.0102 0.133128 0)
(20.0057 0.132375 0)
(20.0012 0.131149 0)
(20.0613 0.102162 0)
(20.0603 0.103634 0)
(20.0593 0.10513 -7.42475e-22)
(20.0582 0.106647 7.37953e-22)
(20.057 0.108194 8.23353e-22)
(20.0557 0.109759 -8.20124e-22)
(20.0543 0.111329 0)
(20.0527 0.112916 0)
(20.051 0.114515 0)
(20.0491 0.116114 0)
(20.0471 0.117706 0)
(20.045 0.119278 0)
(20.0426 0.120798 2.83996e-21)
(20.0401 0.122236 2.07077e-22)
(20.0372 0.123577 -6.49659e-21)
(20.0342 0.124803 3.41751e-21)
(20.0309 0.125865 0)
(20.0274 0.126719 0)
(20.0237 0.12733 0)
(20.0198 0.12765 2.58955e-21)
(20.0158 0.127635 -2.63243e-21)
(20.0117 0.127247 0)
(20.0076 0.126447 -8.14289e-22)
(20.0035 0.125229 8.24001e-22)
(20.06 0.101216 1.79793e-22)
(20.0591 0.102493 -1.79477e-22)
(20.0581 0.10381 0)
(20.057 0.10514 8.23362e-22)
(20.0558 0.106498 -8.18629e-22)
(20.0545 0.107886 -9.09443e-22)
(20.0532 0.109253 1.86781e-21)
(20.0517 0.110638 5.65473e-23)
(20.05 0.112034 -2.10234e-21)
(20.0482 0.113428 -6.74536e-23)
(20.0463 0.114806 -7.45641e-23)
(20.0442 0.116176 -8.28926e-23)
(20.042 0.117496 1.35071e-21)
(20.0396 0.118739 1.55749e-21)
(20.0369 0.119875 -1.5811e-21)
(20.034 0.120926 0)
(20.031 0.121804 1.98923e-21)
(20.0277 0.12247 -2.02322e-21)
(20.0242 0.122919 -2.34236e-21)
(20.0206 0.123113 2.38101e-21)
(20.0168 0.123015 1.3696e-21)
(20.013 0.122592 -1.38919e-21)
(20.0092 0.121763 -3.94406e-22)
(20.0053 0.120537 3.98748e-22)
(20.0588 0.100277 0)
(20.0579 0.101415 -4.04417e-22)
(20.057 0.10261 -1.69436e-23)
(20.056 0.103791 4.17514e-22)
(20.0548 0.104974 0)
(20.0536 0.106232 0)
(20.0523 0.107419 9.86549e-22)
(20.0509 0.108647 5.18157e-23)
(20.0493 0.109884 -1.04162e-21)
(20.0476 0.11113 0)
(20.0457 0.112317 0)
(20.0437 0.11352 0)
(20.0415 0.114682 0)
(20.0394 0.115822 0)
(20.0369 0.116765 -1.63993e-21)
(20.034 0.117706 1.62177e-21)
(20.031 0.118472 0)
(20.0279 0.118977 2.15293e-21)
(20.0246 0.1193 -2.21345e-21)
(20.0212 0.119394 1.26965e-21)
(20.0177 0.119219 7.4754e-23)
(20.014 0.118825 -2.03979e-21)
(20.0104 0.117993 6.9648e-22)
(20.0067 0.116736 -1.43512e-36)
(19.9408 0.305332 1.24796e-20)
(19.8792 0.29543 -1.17271e-20)
(19.8457 0.26326 0)
(19.8285 0.238789 0)
(19.822 0.216943 -4.43636e-20)
(19.8226 0.196475 8.55642e-20)
(19.8276 0.177273 -4.12324e-20)
(19.8352 0.159499 0)
(19.8444 0.143206 0)
(19.8542 0.128381 0)
(19.8641 0.114998 0)
(19.8738 0.10301 0)
(19.8832 0.0923533 0)
(19.8921 0.0829452 0)
(19.9004 0.0746869 0)
(19.9082 0.0674661 0)
(19.9155 0.0611618 0)
(19.9223 0.0556501 0)
(19.9288 0.05081 0)
(19.935 0.0465303 -2.17604e-20)
(19.9409 0.0427158 2.15859e-20)
(19.9467 0.0392861 9.82069e-21)
(19.9522 0.0362358 -9.68459e-21)
(19.9575 0.03306 0)
(19.9588 0.234981 2.56429e-21)
(19.9434 0.228411 -2.58313e-21)
(19.9319 0.216809 -1.36459e-20)
(19.9231 0.202903 1.36637e-20)
(19.9168 0.188077 -3.04822e-20)
(19.9124 0.173177 3.02516e-20)
(19.9098 0.158749 0)
(19.9086 0.145141 0)
(19.9086 0.132542 3.01493e-20)
(19.9096 0.121032 -4.31641e-22)
(19.9113 0.110611 -2.89631e-20)
(19.9137 0.101233 0)
(19.9165 0.0928168 0)
(19.9198 0.0852662 -2.54019e-20)
(19.9234 0.0784768 4.97169e-20)
(19.9272 0.0723468 -2.43646e-20)
(19.9312 0.0667834 2.27376e-20)
(19.9353 0.0617065 -4.46564e-20)
(19.9395 0.0570513 2.19335e-20)
(19.9438 0.0527671 2.04445e-20)
(19.9481 0.0488169 -2.04078e-20)
(19.9524 0.0451704 -9.46182e-21)
(19.9567 0.0418419 9.39041e-21)
(19.9609 0.0384755 0)
(19.9764 0.183508 -2.3097e-21)
(19.966 0.179385 -2.66539e-21)
(19.9566 0.173571 4.97307e-21)
(19.9485 0.166553 0)
(19.9419 0.15873 0)
(19.9368 0.150437 0)
(19.933 0.141939 0)
(19.9305 0.133441 0)
(19.929 0.125097 0)
(19.9286 0.117015 -2.29422e-20)
(19.929 0.109269 4.53415e-20)
(19.93 0.101902 -2.24329e-20)
(19.9316 0.0949396 0)
(19.9337 0.0883892 0)
(19.9361 0.0822495 -2.11034e-20)
(19.9387 0.0765117 2.10686e-20)
(19.9416 0.0711629 0)
(19.9446 0.0661865 -1.98825e-20)
(19.9477 0.0615637 1.99267e-20)
(19.951 0.057273 1.90203e-20)
(19.9542 0.0532925 -1.90506e-20)
(19.9576 0.0495979 0)
(19.9609 0.0461963 0)
(19.9643 0.0427983 0)
(19.9831 0.162262 2.08482e-21)
(19.9762 0.15912 -6.52713e-21)
(19.9698 0.15493 4.42495e-21)
(19.964 0.149865 0)
(19.959 0.144126 -1.01067e-20)
(19.9549 0.137912 -3.302e-22)
(19.9515 0.131409 1.01718e-20)
(19.949 0.124772 -1.04664e-20)
(19.9472 0.11813 -1.05649e-20)
(19.946 0.111584 4.13819e-20)
(19.9455 0.10521 -2.05178e-20)
(19.9455 0.0990614 -2.02912e-20)
(19.946 0.0931728 2.01309e-20)
(19.9468 0.0875656 0)
(19.948 0.0822496 0)
(19.9495 0.0772256 -1.91083e-20)
(19.9512 0.0724884 1.91163e-20)
(19.9532 0.0680282 0)
(19.9553 0.0638322 1.82392e-20)
(19.9575 0.0598855 -1.83101e-20)
(19.9599 0.0561742 0)
(19.9625 0.0526836 -8.62963e-21)
(19.9651 0.0494266 8.62486e-21)
(19.9677 0.0461563 0)
(19.9893 0.147248 1.00986e-21)
(19.9837 0.144591 -1.00161e-21)
(19.9783 0.141217 4.41811e-21)
(19.9735 0.137213 -4.36353e-21)
(19.9691 0.132695 0)
(19.9654 0.127787 -9.45925e-21)
(19.9623 0.122612 9.30999e-21)
(19.9598 0.117281 9.55685e-21)
(19.9579 0.11189 -9.41041e-21)
(19.9565 0.106516 -9.48212e-21)
(19.9557 0.101221 2.8167e-20)
(19.9553 0.0960529 2.61826e-23)
(19.9553 0.0910454 -3.04207e-23)
(19.9557 0.0862221 -7.93525e-23)
(19.9563 0.0815976 -1.81181e-20)
(19.9573 0.0771796 0)
(19.9584 0.0729707 8.79878e-21)
(19.9598 0.0689691 -1.09644e-22)
(19.9613 0.0651697 -8.73408e-21)
(19.963 0.0615642 0)
(19.9648 0.0581457 0)
(19.9668 0.0549063 0)
(19.9688 0.051865 0)
(19.9709 0.0487953 0)
(19.9934 0.137045 0)
(19.9886 0.134679 -2.03878e-21)
(19.9841 0.131757 2.01369e-21)
(19.9799 0.128341 0)
(19.9762 0.12451 0)
(19.9729 0.120356 0)
(19.9701 0.11597 9.0026e-21)
(19.9678 0.111438 -8.84718e-21)
(19.9659 0.106835 -8.99389e-21)
(19.9646 0.102222 8.85173e-21)
(19.9636 0.0976524 0)
(19.963 0.093166 0)
(19.9628 0.0887954 0)
(19.9628 0.0845634 0)
(19.9631 0.0804848 0)
(19.9637 0.0765684 0)
(19.9644 0.0728186 0)
(19.9654 0.069236 0)
(19.9665 0.0658161 0)
(19.9677 0.0625515 0)
(19.9691 0.0594379 0)
(19.9706 0.0564709 0)
(19.9721 0.0536659 0)
(19.9738 0.050797 0)
(19.9968 0.129448 0)
(19.9925 0.127271 0)
(19.9885 0.124637 0)
(19.9847 0.121596 0)
(19.9814 0.118209 0)
(19.9784 0.11455 0)
(19.9758 0.110696 0)
(19.9737 0.106715 0)
(19.9719 0.102667 0)
(19.9706 0.0986007 0)
(19.9696 0.09456 0)
(19.9689 0.0905818 0)
(19.9685 0.0866969 0)
(19.9684 0.0829255 -8.21508e-21)
(19.9685 0.0792801 8.15542e-21)
(19.9688 0.0757705 0)
(19.9693 0.0724015 0)
(19.9699 0.0691749 0)
(19.9707 0.0660851 7.89237e-21)
(19.9717 0.0631241 -4.00079e-21)
(19.9727 0.0602921 -3.94465e-21)
(19.9739 0.057588 0)
(19.9751 0.055028 0)
(19.9764 0.0524449 0)
(19.9994 0.123598 9.16312e-22)
(19.9956 0.121553 -9.06671e-22)
(19.9919 0.119119 0)
(19.9885 0.116336 -3.98984e-21)
(19.9854 0.11325 3.92465e-21)
(19.9827 0.109933 0)
(19.9803 0.106456 0)
(19.9782 0.102874 0)
(19.9766 0.0992307 8.21177e-21)
(19.9753 0.0955651 -1.62454e-20)
(19.9743 0.0919162 -6.77269e-23)
(19.9736 0.0883202 7.99811e-21)
(19.9731 0.0848092 0)
(19.9728 0.0813966 0)
(19.9728 0.0780937 0)
(19.9729 0.0749121 0)
(19.9732 0.0718561 0)
(19.9737 0.0689294 0)
(19.9743 0.06612 -3.80999e-21)
(19.9751 0.0634223 3.82497e-21)
(19.9759 0.0608411 3.78246e-21)
(19.9768 0.0583757 -3.80553e-21)
(19.9777 0.0560394 0)
(19.9788 0.0536912 0)
(20.0016 0.11895 4.41173e-22)
(19.998 0.117002 -4.36855e-22)
(19.9946 0.114722 -1.87562e-21)
(19.9915 0.11213 1.84904e-21)
(19.9886 0.109247 3.88859e-21)
(19.986 0.10618 -3.82538e-21)
(19.9838 0.102981 -3.94878e-21)
(19.9818 0.0997063 3.88236e-21)
(19.9803 0.0963674 0)
(19.979 0.0930101 -3.9297e-21)
(19.9781 0.0896565 3.87133e-21)
(19.9773 0.0863558 3.87288e-21)
(19.9768 0.0831442 1.30503e-23)
(19.9765 0.0800131 5.26861e-24)
(19.9763 0.0769846 -1.25202e-24)
(19.9764 0.07407 -7.50035e-21)
(19.9766 0.0712714 1.20613e-23)
(19.9769 0.0685955 7.42561e-21)
(19.9774 0.0660135 -3.71161e-21)
(19.9779 0.0635442 -3.68417e-21)
(19.9786 0.0611853 3.70542e-21)
(19.9793 0.0589307 0)
(19.9801 0.0567954 -9.17968e-22)
(19.981 0.0546117 9.32312e-22)
(20.0032 0.115191 1.45622e-36)
(19.9998 0.113321 8.91613e-22)
(19.9966 0.111171 -2.70535e-21)
(19.9937 0.108749 -6.25149e-23)
(19.991 0.105997 1.83388e-21)
(19.9885 0.103138 -3.84919e-21)
(19.9864 0.100143 3.79814e-21)
(19.9846 0.0971488 0)
(19.9832 0.0940339 3.85111e-21)
(19.982 0.0909371 -3.74212e-21)
(19.9811 0.0878065 0)
(19.9803 0.0847239 0)
(19.9798 0.0817535 0)
(19.9795 0.0788101 0)
(19.9793 0.0760001 0)
(19.9792 0.0732909 -3.68681e-21)
(19.9793 0.0706961 8.19041e-24)
(19.9796 0.0682186 3.64022e-21)
(19.98 0.0657941 0)
(19.9804 0.0635564 0)
(19.9809 0.0614001 1.81165e-21)
(19.9815 0.0593284 -1.30904e-23)
(19.9821 0.0573564 -1.85672e-21)
(19.9829 0.0552287 0)
(20.127 0.00346668 0)
(20.1201 0.0020663 -1.15686e-20)
(20.1093 0.000831123 1.19607e-20)
(20.0933 -0.000439636 2.55895e-20)
(20.0702 -0.00174893 -2.64947e-20)
(20.0377 -0.00315043 0)
(19.9928 -0.0047464 0)
(19.932 -0.00667239 0)
(19.8512 -0.00906345 0)
(19.7462 -0.0119951 0)
(19.6139 -0.0154712 0)
(19.4517 -0.019475 0)
(19.2575 -0.0239815 0)
(19.0293 -0.0289419 0)
(18.765 -0.034298 0)
(18.4618 -0.0400005 0)
(18.1154 -0.0460228 0)
(17.7193 -0.0523747 -2.51324e-20)
(17.2628 -0.0590843 6.00836e-20)
(16.7269 -0.0664728 -3.65773e-20)
(16.0769 -0.0745847 0)
(15.2397 -0.0875051 0)
(14.044 -0.0610464 -3.19522e-20)
(12.4136 -0.132306 4.56768e-20)
(20.1259 0.000856102 5.63428e-21)
(20.1198 -0.000622121 -5.87505e-21)
(20.1108 -0.00195508 0)
(20.0978 -0.00329809 0)
(20.0795 -0.00465374 -2.93684e-20)
(20.0543 -0.00606587 3.03501e-20)
(20.0201 -0.00761835 -3.38506e-20)
(19.9742 -0.00943052 3.51905e-20)
(19.9133 -0.0116327 -3.97748e-20)
(19.8336 -0.0143234 4.15751e-20)
(19.7315 -0.0175453 0)
(19.6038 -0.0213119 0)
(19.4474 -0.0256194 5.66921e-20)
(19.2591 -0.0304429 -6.01479e-20)
(19.0355 -0.035733 0)
(18.7726 -0.0414264 -7.53126e-20)
(18.4648 -0.0474554 8.18426e-20)
(18.1046 -0.0537764 0)
(17.6799 -0.0603221 1.0401e-19)
(17.1712 -0.06738 -5.90362e-20)
(16.542 -0.0741677 -6.88979e-20)
(15.7183 -0.088946 4.15248e-20)
(14.55 -0.0755455 -5.30244e-20)
(13.0631 -0.0896456 0)
(20.1246 -0.00168378 0)
(20.1192 -0.00340634 0)
(20.1115 -0.00511429 0)
(20.1007 -0.00693005 -2.86213e-20)
(20.0858 -0.00886479 2.941e-20)
(20.0656 -0.0109449 3.31368e-20)
(20.0385 -0.0132054 -3.4235e-20)
(20.0023 -0.015688 0)
(19.9544 -0.0184365 4.28221e-20)
(19.8915 -0.0214805 -4.46648e-20)
(19.81 -0.0248224 0)
(19.7062 -0.0284497 0)
(19.5766 -0.03235 -6.15068e-20)
(19.4173 -0.0365125 1.32344e-19)
(19.224 -0.0409209 -7.15813e-20)
(18.9918 -0.0455531 0)
(18.7142 -0.0503812 0)
(18.3827 -0.0554113 0)
(17.9843 -0.0606249 0)
(17.4985 -0.0665356 0)
(16.8873 -0.0719731 0)
(16.0759 -0.0841419 4.29563e-20)
(14.928 -0.0799137 -2.65308e-20)
(13.5172 -0.0650321 -3.47345e-20)
(20.123 -0.00394035 0)
(20.118 -0.00577211 0)
(20.1111 -0.00766354 -1.34937e-20)
(20.1015 -0.00968758 -4.38426e-22)
(20.0885 -0.0118487 1.45779e-20)
(20.0712 -0.014162 0)
(20.0483 -0.0166448 0)
(20.018 -0.0193167 0)
(19.9781 -0.0222009 3.87185e-20)
(19.926 -0.0253171 -8.18383e-20)
(19.8583 -0.0286679 4.33583e-20)
(19.7714 -0.0322389 0)
(19.6614 -0.0360118 -5.19482e-20)
(19.5238 -0.0399732 5.48179e-20)
(19.3539 -0.0441114 0)
(19.1459 -0.0484152 -3.33346e-20)
(18.8926 -0.0528688 7.23991e-20)
(18.5845 -0.0574961 -3.96645e-20)
(18.2077 -0.0622671 4.50509e-20)
(17.7403 -0.0677833 -5.01257e-20)
(17.1432 -0.0730781 0)
(16.3406 -0.0828237 3.46588e-20)
(15.2044 -0.0826437 -2.08037e-20)
(13.8341 -0.054714 -2.67634e-20)
(20.1213 -0.00580177 0)
(20.1166 -0.00763832 -6.48623e-21)
(20.1103 -0.00956845 2.01325e-20)
(20.1017 -0.0116286 -1.37889e-20)
(20.0903 -0.0138274 0)
(20.0753 -0.0161813 -1.55651e-20)
(20.0557 -0.0187059 -4.17101e-22)
(20.03 -0.0214162 1.69267e-20)
(19.9965 -0.0243304 -3.69203e-20)
(19.9528 -0.0274677 3.83487e-20)
(19.8959 -0.0308356 0)
(19.8224 -0.0344213 0)
(19.728 -0.0381978 0)
(19.6082 -0.0421349 0)
(19.4576 -0.0462027 2.84489e-20)
(19.2699 -0.0503766 -6.11581e-20)
(19.0372 -0.0546328 3.30766e-20)
(18.7491 -0.0589934 3.70585e-20)
(18.3908 -0.0634104 6.28389e-22)
(17.9396 -0.0684511 -6.81113e-20)
(17.3547 -0.073613 2.57e-20)
(16.5594 -0.0815933 0)
(15.4306 -0.0827368 0)
(14.0839 -0.0495105 0)
(20.1196 -0.00735023 0)
(20.1153 -0.00915316 0)
(20.1094 -0.0110803 0)
(20.1018 -0.0131448 0)
(20.0917 -0.0153581 0)
(20.0787 -0.0177404 0)
(20.0617 -0.020307 0)
(20.0398 -0.0230655 0)
(20.0112 -0.0260252 0)
(19.9741 -0.0292034 0)
(19.9256 -0.0326135 0)
(19.8625 -0.0362494 0)
(19.7806 -0.0400856 0)
(19.6753 -0.0440865 0)
(19.5408 -0.0482044 2.80911e-20)
(19.3704 -0.0523875 -2.97476e-20)
(19.1555 -0.0565869 -3.33033e-20)
(18.885 -0.0608043 3.57092e-20)
(18.5434 -0.0649662 0)
(18.1069 -0.0695215 0)
(17.5337 -0.0743604 0)
(16.7459 -0.0810077 1.45305e-20)
(15.6232 -0.0821106 -1.70723e-20)
(14.2916 -0.0466764 0)
(20.118 -0.0085937 0)
(20.1139 -0.0103668 0)
(20.1086 -0.0122728 0)
(20.1016 -0.0143074 -7.07294e-21)
(20.0926 -0.0164981 7.18207e-21)
(20.081 -0.0188746 -1.52801e-20)
(20.0661 -0.0214647 1.56282e-20)
(20.0468 -0.0242723 0)
(20.022 -0.0272836 0)
(19.9897 -0.0305052 0)
(19.9476 -0.03397 0)
(19.8925 -0.0377063 0)
(19.8205 -0.0417107 0)
(19.7268 -0.0459378 0)
(19.6056 -0.0502943 2.72089e-20)
(19.4498 -0.0546638 9.21455e-22)
(19.2504 -0.0589739 -3.14228e-20)
(18.9957 -0.0632491 -1.77964e-20)
(18.6695 -0.0674105 1.91323e-20)
(18.2469 -0.0717456 0)
(17.6851 -0.0764132 -1.23585e-20)
(16.9047 -0.082153 1.38936e-20)
(15.7869 -0.0823172 8.32195e-21)
(14.4653 -0.044359 -9.90727e-21)
(20.1164 -0.00965572 0)
(20.1125 -0.0113406 0)
(20.1076 -0.0131667 0)
(20.1012 -0.0151264 7.04458e-21)
(20.093 -0.017246 1.24946e-22)
(20.0826 -0.0195604 -2.23989e-20)
(20.0691 -0.0221273 1.5328e-20)
(20.0521 -0.0249735 0)
(20.0301 -0.0280672 0)
(20.0016 -0.0313788 0)
(19.9642 -0.0349223 0)
(19.9153 -0.0387229 -2.06541e-20)
(19.8511 -0.0428284 4.36511e-20)
(19.7669 -0.0473629 -2.31294e-20)
(19.6566 -0.0523014 -2.59446e-20)
(19.5132 -0.0572875 4.14772e-20)
(19.3268 -0.0621082 -3.05801e-20)
(19.0852 -0.0668424 1.6556e-20)
(18.7721 -0.0713321 0)
(18.3619 -0.075566 2.1488e-20)
(17.8105 -0.0796927 -2.34909e-20)
(17.0385 -0.0844186 1.39307e-20)
(15.9269 -0.0837873 -1.60054e-20)
(14.6128 -0.0456985 0)
(20.115 -0.0105515 0)
(20.1114 -0.012137 0)
(20.1067 -0.0138603 0)
(20.1008 -0.0157097 0)
(20.0933 -0.0177172 0)
(20.0837 -0.019905 0)
(20.0713 -0.0224416 0)
(20.0556 -0.0253725 7.96033e-21)
(20.0358 -0.0285148 1.79123e-22)
(20.0105 -0.0317945 1.92164e-22)
(19.9774 -0.0353471 2.11993e-22)
(19.9335 -0.0393604 -9.6301e-21)
(19.8751 -0.0437198 0)
(19.7975 -0.0484505 0)
(19.6959 -0.0539146 -1.23329e-20)
(19.5639 -0.0594999 1.29313e-20)
(19.3904 -0.0644148 1.47916e-20)
(19.1621 -0.069658 -1.56388e-20)
(18.8629 -0.0751464 1.82789e-20)
(18.4661 -0.0799932 -1.96123e-20)
(17.9254 -0.0851109 -1.17746e-20)
(17.1575 -0.0902684 1.30259e-20)
(16.0477 -0.0876327 0)
(14.7376 -0.0423385 0)
(20.1132 -0.0114515 0)
(20.1099 -0.0128157 0)
(20.1058 -0.0143453 0)
(20.1005 -0.016052 7.05189e-21)
(20.0936 -0.0179246 8.82118e-23)
(20.0849 -0.019809 -7.23452e-21)
(20.0734 -0.0220743 0)
(20.0598 -0.0250095 0)
(20.0416 -0.0285807 7.87758e-21)
(20.0178 -0.0321943 -1.64841e-20)
(19.9865 -0.0358829 -2.21861e-22)
(19.9468 -0.0394996 -1.79402e-22)
(19.8957 -0.0433108 -1.2166e-22)
(19.8262 -0.0479663 1.03408e-20)
(19.7292 -0.0553461 0)
(19.6051 -0.0624749 1.2955e-20)
(19.4378 -0.0686081 -1.36889e-20)
(19.2145 -0.0747507 0)
(18.9211 -0.0822744 0)
(18.5336 -0.0874677 -1.06224e-20)
(18.0009 -0.0892364 2.34552e-20)
(17.2511 -0.0940903 -2.00417e-20)
(16.1619 -0.0945962 7.7872e-21)
(14.8632 -0.0626811 0)
(12.4681 0.136915 4.51067e-20)
(14.1202 0.0638114 -3.15418e-20)
(15.322 0.0903337 0)
(16.1624 0.0775259 0)
(16.8145 0.0695937 -3.45283e-20)
(17.3516 0.0623712 5.63287e-20)
(17.8085 0.0558182 -2.33765e-20)
(18.2039 0.0496175 0)
(18.5487 0.0437451 0)
(18.8493 0.0381974 0)
(19.1099 0.0330077 0)
(19.3334 0.0282324 0)
(19.5221 0.0239353 0)
(19.6781 0.020168 0)
(19.8037 0.0169582 0)
(19.9018 0.0143328 0)
(19.9759 0.0122826 0)
(20.0305 0.0107201 0)
(20.0699 0.00950486 0)
(20.0975 0.00851108 -2.44927e-20)
(20.1163 0.00764459 2.36553e-20)
(20.1285 0.00687703 1.09205e-20)
(20.1358 0.0062163 -1.05602e-20)
(20.1395 0.00512668 0)
(13.1109 0.0961966 0)
(14.6275 0.0800612 -5.26018e-20)
(15.8032 0.0936042 4.12248e-20)
(16.6298 0.0788839 -6.81225e-20)
(17.2605 0.0722318 -5.80764e-20)
(17.7695 0.0652523 1.02653e-19)
(18.1935 0.058761 0)
(18.552 0.0524801 8.00056e-20)
(18.8571 0.0464887 -7.36464e-20)
(19.1163 0.0408404 0)
(19.3353 0.0356116 -5.80773e-20)
(19.5183 0.0308731 5.4745e-20)
(19.6689 0.0266796 0)
(19.7903 0.0230606 0)
(19.8859 0.0200252 3.9349e-20)
(19.9593 0.0175653 -3.76269e-20)
(20.0144 0.0156321 3.29948e-20)
(20.0551 0.0141192 -3.17368e-20)
(20.0846 0.0128955 2.82239e-20)
(20.1056 0.01185 -2.73105e-20)
(20.1201 0.0109028 0)
(20.1297 0.0100271 0)
(20.1357 0.00923089 -5.35241e-21)
(20.1389 0.00803076 5.0961e-21)
(13.5621 0.0730807 -3.45341e-20)
(15.0065 0.0860946 -2.62179e-20)
(16.1626 0.090379 4.25894e-20)
(16.9763 0.0782476 0)
(17.5882 0.0729378 0)
(18.0736 0.0670601 0)
(18.4703 0.0618328 0)
(18.7992 0.0567528 0)
(19.0731 0.0518568 0)
(19.3009 0.0471525 -6.92401e-20)
(19.4891 0.04268 1.27755e-19)
(19.6427 0.0384721 -5.92408e-20)
(19.7663 0.0345547 0)
(19.8639 0.0309495 0)
(19.9394 0.0276803 -4.22305e-20)
(19.9968 0.0247671 4.04721e-20)
(20.0396 0.0222068 0)
(20.0712 0.0199684 -3.19945e-20)
(20.0943 0.0180092 3.09673e-20)
(20.1108 0.0162885 2.73029e-20)
(20.1224 0.0147656 -2.65683e-20)
(20.1303 0.0134198 0)
(20.1353 0.0122562 0)
(20.1381 0.0109041 0)
(13.8779 0.0642286 -2.65767e-20)
(15.2838 0.090524 -2.04654e-20)
(16.4286 0.0906658 3.4262e-20)
(17.233 0.0809291 0)
(17.83 0.0756838 -4.89298e-20)
(18.2959 0.0700793 4.39998e-20)
(18.6702 0.0651483 -3.8367e-20)
(18.9748 0.060308 6.98898e-20)
(19.2238 0.0556172 -3.21096e-20)
(19.4268 0.0510748 0)
(19.5912 0.0467172 5.21526e-20)
(19.723 0.0425739 -4.94187e-20)
(19.8271 0.0386719 0)
(19.9083 0.0350381 4.08821e-20)
(19.9705 0.0317011 -7.70649e-20)
(20.0177 0.0286789 3.64132e-20)
(20.0531 0.0259661 0)
(20.0794 0.0235407 0)
(20.0988 0.0213758 0)
(20.1129 0.0194458 1.35902e-20)
(20.123 0.0177211 -4.43547e-22)
(20.1299 0.0161835 -1.2542e-20)
(20.1344 0.014846 0)
(20.1371 0.0135169 0)
(14.1277 0.0607881 0)
(15.5112 0.092427 0)
(16.6484 0.0911177 0)
(17.4447 0.083074 2.49999e-20)
(18.0285 0.0778285 -6.5993e-20)
(18.4774 0.0725104 8.71252e-22)
(18.8323 0.0676924 3.56184e-20)
(19.1162 0.0628524 3.14328e-20)
(19.3441 0.0581021 -5.80068e-20)
(19.5264 0.0534675 2.69259e-20)
(19.6713 0.0490093 0)
(19.7854 0.0447713 0)
(19.8742 0.0407919 0)
(19.9424 0.0371078 0)
(19.9944 0.03375 3.59717e-20)
(20.0338 0.0307296 -3.46221e-20)
(20.0634 0.0280308 1.58863e-20)
(20.0856 0.0256243 -3.89844e-22)
(20.1021 0.0234782 -1.4608e-20)
(20.1143 0.0215614 0)
(20.123 0.0198406 -1.28911e-20)
(20.1292 0.0182902 1.8802e-20)
(20.1333 0.0169072 -6.04552e-21)
(20.1359 0.0155348 0)
(14.3349 0.0592869 0)
(15.704 0.0937301 -1.67573e-20)
(16.8349 0.0926034 1.42725e-20)
(17.6231 0.085835 0)
(18.1944 0.0805969 0)
(18.6277 0.0753132 0)
(18.9652 0.0702876 3.35927e-20)
(19.2309 0.065188 -3.1342e-20)
(19.4406 0.0601735 -2.77712e-20)
(19.6055 0.0553039 2.62274e-20)
(19.7345 0.0506526 0)
(19.8343 0.0462716 0)
(19.9109 0.0422082 0)
(19.9692 0.0384969 0)
(20.0134 0.0351553 0)
(20.0467 0.0321772 0)
(20.0719 0.029532 0)
(20.0908 0.0271811 0)
(20.1049 0.025087 0)
(20.1154 0.0232153 0)
(20.123 0.0215309 0)
(20.1285 0.0200053 0)
(20.1322 0.0186304 0)
(20.1347 0.0173133 0)
(14.5112 0.0601842 -9.78205e-21)
(15.8708 0.096326 8.20492e-21)
(16.9954 0.0958667 1.33674e-20)
(17.7741 0.0897155 -1.19005e-20)
(18.3322 0.084264 0)
(18.7504 0.0787593 1.77351e-20)
(19.0721 0.0732152 -1.65055e-20)
(19.3218 0.0675108 -2.88174e-20)
(19.5161 0.0619408 8.46894e-22)
(19.6667 0.0566151 2.4958e-20)
(19.7825 0.0516542 0)
(19.871 0.0471157 0)
(19.9382 0.0429963 0)
(19.989 0.0392874 0)
(20.0274 0.0359915 0)
(20.0563 0.0330928 0)
(20.0781 0.0305448 0)
(20.0946 0.0282941 1.48395e-20)
(20.1069 0.0262946 -1.45073e-20)
(20.1161 0.0245074 6.81532e-21)
(20.1229 0.0228946 -6.7108e-21)
(20.1278 0.0214247 0)
(20.1312 0.0200914 0)
(20.1335 0.0188233 0)
(14.6537 0.0592129 0)
(16.0058 0.100209 -1.57242e-20)
(17.1247 0.102173 1.36961e-20)
(17.8955 0.0970924 -2.19024e-20)
(18.4436 0.0910035 2.00522e-20)
(18.85 0.0837716 0)
(19.1581 0.0764266 1.47421e-20)
(19.3943 0.0694644 -2.72675e-20)
(19.5756 0.0630244 3.72432e-20)
(19.7141 0.0572372 -2.33651e-20)
(19.8195 0.0520723 -2.12101e-20)
(19.8993 0.0473915 4.01567e-20)
(19.9592 0.0431595 -1.90624e-20)
(20.0042 0.0394194 0)
(20.0381 0.0362095 0)
(20.0636 0.0334673 0)
(20.0828 0.0310889 0)
(20.0974 0.0289987 1.46938e-20)
(20.1084 0.0271444 -2.14674e-20)
(20.1166 0.0254838 1.30299e-22)
(20.1227 0.0239743 6.73799e-21)
(20.1271 0.0225809 0)
(20.1303 0.0213083 0)
(20.1324 0.0200958 0)
(14.8032 0.067214 0)
(16.1487 0.109107 0)
(17.2574 0.110832 1.19256e-20)
(18.0147 0.103694 -1.07924e-20)
(18.5439 0.0950087 -1.69715e-20)
(18.9321 0.0865197 1.58286e-20)
(19.2275 0.0784002 -1.34676e-20)
(19.4522 0.0703831 1.27412e-20)
(19.623 0.0633446 1.14345e-20)
(19.7525 0.0570712 -1.09049e-20)
(19.8494 0.0515005 0)
(19.9212 0.0468051 0)
(19.9748 0.0427528 -9.04044e-21)
(20.0153 0.0392081 1.08586e-22)
(20.0461 0.0361991 1.05608e-22)
(20.0692 0.0336447 1.08857e-22)
(20.0866 0.0314363 7.67811e-21)
(20.0997 0.0294931 0)
(20.1096 0.0277728 0)
(20.117 0.0262386 0)
(20.1224 0.0248467 0)
(20.1264 0.0235346 0)
(20.1294 0.0223208 0)
(20.1314 0.0211858 0)
(14.8698 0.0531847 0)
(16.2015 0.118482 8.23056e-21)
(17.3062 0.12565 -2.02285e-20)
(18.0603 0.120698 2.19849e-20)
(18.5952 0.110687 -9.44322e-21)
(18.9953 0.0947975 0)
(19.2849 0.080181 0)
(19.5008 0.0701206 -1.13522e-20)
(19.6633 0.061893 1.07992e-20)
(19.7822 0.0556403 0)
(19.871 0.0510554 9.66474e-21)
(19.9391 0.0466263 -2.38777e-22)
(19.99 0.0421688 -1.74004e-22)
(20.0278 0.0382109 -2.89098e-23)
(20.0549 0.0354094 -1.6063e-20)
(20.075 0.0332756 7.82968e-21)
(20.0902 0.0314096 0)
(20.1017 0.0297344 0)
(20.1104 0.0282454 -7.09838e-21)
(20.117 0.026899 1.09641e-22)
(20.1221 0.0255991 6.6915e-21)
(20.1257 0.0243155 0)
(20.1284 0.0231648 0)
(20.1303 0.0221404 0)
(19.6384 0.22448 0)
(20.1189 0.106601 0)
(20.1542 0.131174 0)
(20.1654 0.142481 0)
(20.1673 0.14978 0)
(20.1644 0.154192 0)
(20.1586 0.157013 0)
(20.1512 0.158411 0)
(20.1431 0.158511 0)
(20.1348 0.15747 0)
(20.1268 0.155459 0)
(20.1194 0.152655 0)
(20.1127 0.149235 0)
(20.1068 0.145374 0)
(20.1018 0.141234 0)
(20.0976 0.136958 0)
(20.0941 0.13266 0)
(20.0913 0.128425 0)
(20.089 0.124308 0)
(20.0872 0.120336 0)
(20.0857 0.116518 0)
(20.0844 0.112851 0)
(20.0834 0.109312 0)
(20.0825 0.106011 0)
(18.8406 -0.179037 0)
(19.982 0.147027 0)
(20.0529 0.0981264 0)
(20.0828 0.0975989 0)
(20.1012 0.104166 0)
(20.1129 0.11116 0)
(20.12 0.117031 0)
(20.1237 0.121916 0)
(20.1247 0.125832 0)
(20.1239 0.128748 0)
(20.1217 0.130664 0)
(20.1186 0.131625 0)
(20.115 0.131705 0)
(20.1111 0.131005 0)
(20.1072 0.129639 0)
(20.1035 0.127728 0)
(20.1001 0.125393 0)
(20.0971 0.122747 0)
(20.0944 0.11989 0)
(20.0921 0.116902 0)
(20.0901 0.113845 0)
(20.0884 0.110768 0)
(20.087 0.107691 0)
(20.0857 0.104771 0)
(18.1316 -0.115571 0)
(19.9177 0.166736 0)
(20.0105 0.0968785 0)
(20.0448 0.10265 0)
(20.0677 0.107008 0)
(20.084 0.110187 0)
(20.0957 0.112688 0)
(20.1039 0.115051 0)
(20.1093 0.117189 0)
(20.1125 0.118986 0)
(20.1138 0.120369 0)
(20.1138 0.121293 0)
(20.1127 0.121734 0)
(20.1109 0.12169 0)
(20.1085 0.121177 0)
(20.1059 0.120229 0)
(20.1033 0.11889 0)
(20.1006 0.117215 0)
(20.0981 0.115259 0)
(20.0958 0.113078 0)
(20.0937 0.110723 0)
(20.0918 0.108239 0)
(20.0901 0.10565 0)
(20.0886 0.103107 0)
(17.6568 0.0413498 0)
(19.7727 0.0999656 0)
(19.9866 0.0846099 0)
(20.0392 0.0986058 0)
(20.0645 0.101941 0)
(20.0805 0.103784 0)
(20.0918 0.105438 0)
(20.1 0.107132 0)
(20.1056 0.10875 0)
(20.1093 0.11023 0)
(20.1114 0.11152 0)
(20.1122 0.112566 0)
(20.112 0.113322 0)
(20.111 0.113749 0)
(20.1094 0.113827 0)
(20.1074 0.113549 0)
(20.1052 0.112923 0)
(20.103 0.11197 0)
(20.1007 0.110717 0)
(20.0985 0.1092 0)
(20.0964 0.107452 0)
(20.0945 0.105512 0)
(20.0927 0.103392 0)
(20.091 0.101299 0)
(17.3484 0.0983437 0)
(19.5328 0.0426797 0)
(19.9218 0.0790607 0)
(20.0175 0.0907225 0)
(20.0539 0.0934951 0)
(20.0732 0.0955242 0)
(20.0857 0.0973908 0)
(20.0945 0.0991339 0)
(20.1008 0.100773 0)
(20.1052 0.102319 0)
(20.108 0.103745 0)
(20.1096 0.105007 0)
(20.1102 0.106059 0)
(20.11 0.106861 0)
(20.1091 0.107384 0)
(20.1078 0.107605 0)
(20.1062 0.107515 0)
(20.1043 0.107117 0)
(20.1024 0.106419 0)
(20.1004 0.105443 0)
(20.0985 0.10421 0)
(20.0966 0.102749 0)
(20.0948 0.101063 0)
(20.0932 0.0993954 0)
(17.1011 0.0725839 0)
(19.2935 0.028886 0)
(19.8305 0.0778325 0)
(19.9801 0.0846506 0)
(20.0353 0.0884148 0)
(20.0616 0.0910345 0)
(20.0771 0.0929736 0)
(20.0873 0.0945449 0)
(20.0947 0.0959661 0)
(20.0999 0.0973094 0)
(20.1036 0.0985763 0)