/*--------------------------------*- C++ -*----------------------------------*\
| =========                 |                                                 |
| \\      /  F ield         | OpenFOAM: The Open Source CFD Toolbox           |
|  \\    /   O peration     | Version:  2.3.0                                 |
|   \\  /    A nd           | Web:      www.OpenFOAM.org                      |
|    \\/     M anipulation  |                                                 |
\*---------------------------------------------------------------------------*/
FoamFile
{
    version     2.0;
    format      ascii;
    class       volScalarField;
    location    "10000";
    object      nuTilda;
}
// * * * * * * * * * * * * * * * * * * * * * * * * * * * * * * * * * * * * * //

dimensions      [0 2 -1 0 0 0 0];

internalField   nonuniform List<scalar> 
14036
(
0.0544174
0.0512629
0.0481809
0.0451992
0.0423333
0.0395988
0.0370165
0.0346074
0.0323882
0.0303815
0.0286081
0.0270428
0.0255338
0.0240452
0.0225937
0.0211891
0.0198323
0.0185189
0.0172419
0.01599
0.0147469
0.0134924
0.0122332
0.0112081
0.0581517
0.0555224
0.0529746
0.0505172
0.0481539
0.0458884
0.0437252
0.041668
0.0397205
0.0378883
0.0361761
0.0345885
0.0331242
0.0317839
0.0305736
0.029501
0.0285735
0.027798
0.0271822
0.0267295
0.0264438
0.0263255
0.0263742
0.026588
0.0614967
0.0592965
0.0571771
0.0551395
0.0531845
0.0513148
0.0495323
0.0478397
0.0462391
0.0447345
0.0433292
0.0420264
0.0408313
0.0397472
0.0387795
0.0379333
0.0372143
0.0366264
0.0361749
0.0358618
0.0356875
0.0356503
0.0357461
0.0359674
0.0644782
0.0626327
0.0608594
0.0591556
0.0575226
0.0559609
0.0544724
0.0530588
0.0517221
0.0504648
0.0492901
0.0482014
0.0472024
0.0462978
0.0454914
0.0447882
0.0441928
0.0437094
0.0433408
0.0430907
0.0429592
0.0429457
0.0430479
0.0432604
0.0671235
0.0655736
0.0640793
0.0626414
0.0612608
0.0599386
0.0586764
0.0574754
0.0563373
0.0552636
0.0542582
0.0533242
0.0524653
0.0516854
0.0509896
0.050382
0.0498668
0.049449
0.0491319
0.0489184
0.0488104
0.0488083
0.0489108
0.0491148
0.0694769
0.0681635
0.0668934
0.0656667
0.0644849
0.0633497
0.0622627
0.0612252
0.0602385
0.0593045
0.0584258
0.0576063
0.05685
0.0561609
0.0555439
0.0550039
0.0545449
0.0541715
0.0538883
0.0536985
0.0536041
0.0536073
0.0537076
0.0539029
0.0715604
0.0704424
0.069354
0.0682965
0.067272
0.0662833
0.0653327
0.0644223
0.0635534
0.0627274
0.0619467
0.0612147
0.0605356
0.0599142
0.0593558
0.0588653
0.0584474
0.0581068
0.057848
0.0576743
0.057589
0.0575942
0.0576909
0.0578785
0.0734102
0.0724492
0.071509
0.0705883
0.0696888
0.068816
0.0679727
0.0671617
0.0663853
0.0656448
0.0649417
0.0642789
0.0636599
0.0630902
0.0625764
0.0621238
0.0617368
0.0614212
0.061181
0.0610197
0.0609405
0.0609463
0.0610389
0.0612194
0.0750488
0.0742174
0.0733988
0.0725912
0.0717922
0.0710117
0.0702527
0.0695196
0.068816
0.0681437
0.0675044
0.0668984
0.0663283
0.0657985
0.0653191
0.064897
0.0645332
0.0642373
0.0640122
0.0638613
0.063788
0.0637937
0.0638806
0.064055
0.0765077
0.0757747
0.0750479
0.0743394
0.0736229
0.0729198
0.0722242
0.0715496
0.0709015
0.0702819
0.0696942
0.0691406
0.0686131
0.068113
0.0676575
0.067268
0.0669204
0.0666445
0.0664335
0.0662924
0.0662267
0.066236
0.066312
0.0664835
0.0122093
0.0144921
0.0159926
0.017439
0.0190064
0.02074
0.0226401
0.0246932
0.0268831
0.0291969
0.0316228
0.0341514
0.0367751
0.0394879
0.0422832
0.0451551
0.0480972
0.0511029
0.0541649
0.0572754
0.0604266
0.0636095
0.0668153
0.0700524
0.0269479
0.0274679
0.0281725
0.0290653
0.0301438
0.0314009
0.0328255
0.0344057
0.0361283
0.03798
0.0399477
0.0420204
0.0441882
0.0464423
0.0487744
0.0511772
0.0536443
0.0561696
0.0587474
0.0613716
0.0640362
0.0667353
0.0694632
0.0722287
0.0363025
0.0367622
0.0373653
0.0381143
0.0390088
0.0400448
0.0412159
0.042515
0.0439334
0.0454615
0.04709
0.0488105
0.0506153
0.0524968
0.054448
0.0564629
0.0585359
0.0606618
0.0628357
0.0650532
0.0673097
0.0696011
0.0719242
0.0742844
0.0435768
0.0440028
0.0445497
0.0452183
0.0460078
0.046914
0.0479322
0.0490564
0.0502792
0.0515932
0.052991
0.0544651
0.0560093
0.0576172
0.059283
0.0610018
0.0627687
0.0645801
0.0664318
0.0683203
0.0702428
0.072196
0.0741773
0.076196
0.049416
0.049818
0.0503272
0.0509428
0.0516627
0.0524831
0.0533986
0.0544035
0.0554911
0.0566545
0.0578874
0.0591828
0.060535
0.0619387
0.0633887
0.0648806
0.0664103
0.0679746
0.0695709
0.0711963
0.0728484
0.0745248
0.0762229
0.0779493
0.0541908
0.0545734
0.0550542
0.0556306
0.0563003
0.0570588
0.0579004
0.0588191
0.0598082
0.0608612
0.0619718
0.063134
0.064342
0.0655909
0.066876
0.068193
0.0695379
0.0709082
0.0723018
0.0737167
0.0751509
0.0766027
0.0780705
0.0795565
0.058155
0.0585215
0.0589791
0.0595252
0.0601564
0.0608679
0.0616535
0.0625068
0.0634211
0.06439
0.065407
0.0664667
0.0675637
0.068693
0.06985
0.0710297
0.0722285
0.0734448
0.0746767
0.0759225
0.0771802
0.0784487
0.0797268
0.0810134
0.0614859
0.0618381
0.0622764
0.062798
0.0633989
0.0640734
0.064815
0.0656169
0.0664726
0.0673754
0.0683187
0.0692975
0.0703071
0.0713429
0.0723993
0.0734693
0.0745501
0.0756422
0.0767442
0.0778538
0.0789676
0.0800857
0.0812068
0.0823328
0.064314
0.064651
0.0650746
0.0655741
0.066151
0.0667969
0.0675021
0.0682624
0.0690712
0.0699215
0.0708043
0.0717174
0.0726579
0.0736203
0.0745981
0.0755764
0.0765598
0.0775509
0.0785485
0.0795489
0.0805419
0.0815369
0.0825278
0.0835227
0.0667452
0.0670561
0.067469
0.0679446
0.0685064
0.0691325
0.0698028
0.0705304
0.0713014
0.0721092
0.0729361
0.0737968
0.074684
0.0755879
0.0765053
0.0773977
0.0783011
0.0792138
0.0801316
0.0810498
0.0819278
0.0828235
0.0837056
0.0846043
0.070986
0.0651704
0.0598784
0.0550287
0.0505504
0.0463862
0.0424909
0.0388289
0.0353749
0.0321105
0.0290231
0.0261065
0.0233591
0.0207828
0.0183782
0.0161402
0.0140663
0.0121628
0.0104602
0.00904586
0.00787321
0.00668382
0.00537592
0.00383365
0.0725656
0.0675268
0.0629331
0.0587196
0.0548262
0.0512033
0.0478096
0.0446128
0.0415879
0.0387153
0.0359794
0.0333705
0.0308933
0.0285692
0.0264263
0.0244582
0.0225994
0.0207738
0.0189267
0.017028
0.0150548
0.0129636
0.010697
0.00818325
0.0742961
0.0699643
0.066017
0.0624034
0.0590745
0.0559888
0.0531117
0.0504134
0.0478713
0.0454731
0.0431956
0.0410038
0.0388648
0.0367547
0.034656
0.0325555
0.0304305
0.0282544
0.0259961
0.0236204
0.0210921
0.0183728
0.0154239
0.0122061
0.0761157
0.0724138
0.069054
0.0659883
0.0631801
0.060598
0.058215
0.0559961
0.0538763
0.0518006
0.0497384
0.0476697
0.0455798
0.0434525
0.0412739
0.0390283
0.0366964
0.034258
0.0316851
0.0289488
0.0260125
0.0228422
0.0194004
0.0156549
0.0779646
0.0748268
0.0719846
0.0694043
0.0670598
0.0649247
0.0629359
0.0610107
0.0590979
0.057166
0.0551951
0.0531715
0.0510825
0.0489158
0.0466583
0.0442932
0.0418032
0.039165
0.0363533
0.033337
0.030084
0.0265582
0.0227241
0.0185473
0.0798054
0.0771581
0.0747651
0.0726053
0.0706558
0.0688421
0.0670776
0.0653123
0.0635148
0.0616644
0.0597448
0.0577437
0.0556482
0.0534469
0.0511248
0.0486659
0.0460505
0.0432549
0.0402521
0.0370115
0.0334992
0.0296798
0.0255145
0.0209691
0.0816122
0.079378
0.0773675
0.0755615
0.0738919
0.072269
0.0706406
0.0689758
0.0672548
0.0654599
0.0635766
0.0615905
0.0594893
0.0572596
0.0548864
0.052352
0.0496353
0.0467118
0.0435526
0.0401259
0.0363967
0.0323264
0.0278763
0.0230094
0.0833484
0.0814625
0.0797747
0.0782268
0.0767319
0.0752336
0.0736994
0.0721077
0.0704429
0.0686916
0.0668368
0.0648627
0.0627564
0.0605044
0.0580906
0.0554943
0.0526944
0.0496649
0.0463756
0.0427921
0.0388768
0.0345898
0.0298911
0.0247404
0.0849735
0.0833969
0.0819601
0.0805793
0.079203
0.0777945
0.0763326
0.0748006
0.0731816
0.0714655
0.0696362
0.0676713
0.0655602
0.0632899
0.0608437
0.0581962
0.0553266
0.0522093
0.0488117
0.0450949
0.0410181
0.0365426
0.031628
0.0262289
0.0865022
0.0851702
0.0839009
0.0826335
0.0813463
0.0800054
0.0785991
0.0771229
0.0755469
0.0738574
0.0720574
0.0700985
0.0679807
0.0656936
0.0632257
0.0605354
0.0576056
0.0544153
0.0509291
0.0470977
0.0428797
0.0382385
0.0331411
0.027532
0.00204186
0.000959861
0.00110611
0.00140728
0.00169133
0.00197384
0.00227022
0.00260331
0.0030072
0.00352657
0.00416935
0.00491598
0.00576427
0.00671783
0.00778294
0.00896769
0.0102793
0.0117259
0.0133166
0.015061
0.0169686
0.0190483
0.0213081
0.0237635
0.00533486
0.00259322
0.00152796
0.00170314
0.00200431
0.00232489
0.00268484
0.00310963
0.00362266
0.00424342
0.00496693
0.0057769
0.00667421
0.00766299
0.00874852
0.00993671
0.0112329
0.012644
0.0141775
0.0158413
0.0176433
0.0195912
0.0216949
0.02397
0.00864812
0.00485639
0.0022992
0.00200484
0.00232396
0.00270839
0.00315465
0.00367826
0.00428828
0.00499566
0.00578667
0.0066513
0.0075911
0.00860945
0.00971023
0.0108971
0.0121747
0.0135484
0.0150242
0.0166083
0.0183073
0.0201281
0.022079
0.0241659
0.0115388
0.00706389
0.00334209
0.00234204
0.00265187
0.00311314
0.0036494
0.00426355
0.00495654
0.0057369
0.00658502
0.00749629
0.00847185
0.00951413
0.0106253
0.0118077
0.0130652
0.0144019
0.0158223
0.0173314
0.0189345
0.0206373
0.0224471
0.0243732
0.0139659
0.00897095
0.00444538
0.00272506
0.00298801
0.00352787
0.00414828
0.0048413
0.00560687
0.00644773
0.00734509
0.0082967
0.00930285
0.0103642
0.011482
0.0126584
0.0138956
0.0151968
0.0165652
0.0180048
0.0195198
0.0211146
0.0227941
0.0245602
0.0159861
0.0105608
0.00546708
0.0031383
0.00332721
0.00394022
0.00463483
0.00539538
0.00622704
0.00711976
0.00806023
0.00904672
0.0100786
0.0111556
0.0122779
0.0134472
0.0146647
0.0159324
0.0172528
0.0186286
0.0200629
0.0215593
0.0231214
0.0247562
0.0176737
0.0118775
0.00635393
0.00355484
0.00366338
0.00434101
0.00510112
0.00592237
0.00681117
0.00774912
0.00872763
0.00974455
0.0107983
0.011888
0.0130135
0.0141749
0.0153736
0.0166102
0.0178865
0.0192042
0.0205652
0.0219717
0.0234259
0.024928
0.0190917
0.01297
0.00710444
0.00395506
0.0039905
0.00472459
0.0055429
0.00641949
0.00735681
0.00833492
0.00934714
0.0103907
0.0114631
0.0125633
0.0136906
0.0148447
0.0160257
0.0172337
0.0184694
0.0197338
0.0210278
0.0223522
0.0237067
0.0250895
0.0203049
0.0138942
0.00773664
0.00432438
0.00430354
0.00508741
0.00595805
0.00688506
0.00786433
0.00887752
0.00991891
0.0109855
0.012075
0.0131851
0.0143138
0.0154611
0.0166265
0.0178077
0.0190051
0.0202201
0.0214525
0.0227013
0.0239664
0.0252531
0.0213907
0.0147778
0.00835264
0.00470025
0.00460621
0.00543088
0.00633812
0.00730613
0.00832302
0.00937
0.010441
0.0115452
0.0126638
0.0137802
0.0149054
0.0160535
0.0172052
0.0183458
0.0194968
0.0206648
0.0218413
0.0230173
0.0241934
0.0253815
0.000462144
0.00156458
0.0032524
0.00521694
0.00717069
0.00910207
0.0110099
0.0128965
0.0147638
0.0166144
0.01845
0.020271
0.0220786
0.0238921
0.0257722
0.0277711
0.029889
0.0320767
0.0346096
0.0374684
0.0405665
0.0438447
0.0472607
0.0507702
0.000348431
0.000939079
0.00218418
0.00384134
0.00551721
0.00715107
0.00877907
0.0104265
0.0121092
0.0138268
0.0155768
0.0173554
0.01916
0.020994
0.022873
0.0248258
0.0268757
0.0290375
0.0314206
0.0340579
0.0368778
0.0401027
0.0436236
0.0473687
0.000198558
0.00059649
0.00141501
0.00255502
0.00403669
0.00588376
0.00775678
0.0095481
0.0112696
0.0129463
0.0145986
0.016243
0.0178951
0.0195705
0.0212871
0.0230688
0.024946
0.0269547
0.0291501
0.031581
0.0342529
0.0372388
0.0404819
0.0441845
0.000212552
0.000496371
0.00116192
0.00208577
0.00329454
0.00482384
0.0066899
0.00863228
0.0105367
0.0123851
0.0141713
0.015893
0.0175546
0.0191694
0.0207603
0.0223601
0.0240123
0.0257702
0.0276943
0.0298483
0.0322816
0.0350342
0.0380959
0.0414929
0.000185529
0.000433239
0.0010066
0.00180912
0.00285518
0.00417422
0.00580204
0.0077453
0.0097722
0.0117697
0.0137148
0.0155972
0.0174045
0.0191262
0.0207608
0.022323
0.0238479
0.0253925
0.0270332
0.0288589
0.0309576
0.0333971
0.036208
0.0393923
0.00018056
0.000396728
0.000913172
0.00163639
0.00257757
0.00376308
0.00522614
0.00700426
0.0090401
0.011132
0.0132022
0.0152274
0.0171917
0.019075
0.0208571
0.0225243
0.0240805
0.0255562
0.0270158
0.0285568
0.0302982
0.0323559
0.0348165
0.0377179
0.000171155
0.000368172
0.00084312
0.00150714
0.00237298
0.0034622
0.00480431
0.00643486
0.00838148
0.0105136
0.0126774
0.0148181
0.016914
0.0189457
0.0208885
0.022716
0.024406
0.0259535
0.0273848
0.0287711
0.0302303
0.0319114
0.0339608
0.0364829
0.000166073
0.000347889
0.000792273
0.00141161
0.00222073
0.00323746
0.00448912
0.00600867
0.00783307
0.00993917
0.0121578
0.0143891
0.0165949
0.0187534
0.020841
0.0228281
0.0246826
0.0263764
0.0278993
0.0292774
0.0305921
0.0319857
0.0336398
0.0357319
0.000161133
0.000331383
0.000751086
0.00133493
0.00209948
0.00305936
0.0042399
0.00567194
0.00739131
0.00942236
0.0116574
0.0139557
0.0162528
0.0185194
0.0207321
0.0228628
0.0248769
0.026737
0.0284107
0.029886
0.0311947
0.0324366
0.0337856
0.0354662
0.000157954
0.000319252
0.000717996
0.00127306
0.00200147
0.00291539
0.0040384
0.00539968
0.00703341
0.00897465
0.0111884
0.0135278
0.0158983
0.0182571
0.0205784
0.0228354
0.0249944
0.0270158
0.0288568
0.0304825
0.0318837
0.0331062
0.03428
0.0356311
0.00015605
0.000311552
0.000690597
0.00122177
0.00192034
0.00279617
0.00387166
0.00517433
0.00673689
0.0085957
0.0107594
0.0131141
0.0155406
0.0179775
0.0203931
0.0227607
0.025049
0.0272182
0.029223
0.0310163
0.032563
0.0338634
0.0349902
0.0361281
0.000155344
0.000307822
0.000668142
0.00117927
0.00185279
0.00269677
0.00373241
0.00498606
0.00648884
0.00827654
0.0103764
0.0127231
0.0151879
0.0176896
0.020187
0.022652
0.0250545
0.0273571
0.029514
0.0314738
0.0331868
0.0346221
0.0358008
0.0368453
0.000155361
0.00030643
0.000649817
0.00114424
0.00179637
0.0026135
0.00361557
0.00482769
0.00627981
0.00800653
0.0100419
0.0123621
0.014848
0.017402
0.0199702
0.0225209
0.0250247
0.0274465
0.0297419
0.0318587
0.0337402
0.0353369
0.0366309
0.0376819
0.000155786
0.000306148
0.000634919
0.00111575
0.00174932
0.00254381
0.00351747
0.00469445
0.00610357
0.00777826
0.00975461
0.0120364
0.0145287
0.0171227
0.0197521
0.0223785
0.0249725
0.0275005
0.029921
0.0321822
0.0342254
0.0359906
0.0374344
0.038566
0.000156407
0.000306232
0.000622522
0.00109191
0.00170985
0.00248541
0.00343523
0.00458255
0.00595514
0.00758553
0.00950991
0.0117483
0.0142353
0.0168589
0.0195408
0.022235
0.0249097
0.0275334
0.0300662
0.0324591
0.034653
0.0365833
0.0381911
0.0394487
0.000157228
0.000306416
0.000612177
0.00107195
0.00167675
0.00243628
0.00336604
0.00448831
0.00583003
0.00742274
0.00930232
0.0114974
0.0139704
0.016615
0.0193423
0.0220977
0.0248464
0.0275568
0.0301919
0.0327046
0.0350376
0.0371248
0.0388983
0.0403068
0.00015812
0.000306623
0.000603412
0.00105498
0.00164865
0.00239463
0.00330733
0.00440838
0.00572389
0.00728458
0.00912563
0.0112802
0.0137339
0.0163922
0.0191591
0.0219711
0.0247886
0.0275797
0.0303087
0.0329316
0.035393
0.037627
0.0395602
0.0411179
0.000159059
0.000306788
0.000595905
0.00104038
0.00162439
0.0023588
0.0032569
0.00433977
0.0056328
0.00716591
0.00897373
0.0110916
0.0135226
0.016189
0.0189904
0.0218553
0.024738
0.0276052
0.0304225
0.0331479
0.0357287
0.0381001
0.0401875
0.041911
0.000160039
0.000306884
0.000589308
0.00102755
0.00160311
0.00232729
0.00321269
0.00427964
0.00555319
0.00706239
0.00884118
0.010926
0.0133322
0.0160012
0.0188326
0.0217467
0.0246918
0.0276316
0.0305327
0.0333545
0.0360465
0.0385457
0.0407761
0.0426483
0.000160963
0.000306953
0.000583469
0.00101611
0.00158407
0.00229913
0.00317313
0.00422599
0.00548209
0.00697008
0.00872304
0.0107778
0.0131584
0.015825
0.0186813
0.0216409
0.0246455
0.0276552
0.0306359
0.033549
0.0363456
0.0389643
0.0413292
0.0433488
0.000161883
0.000306966
0.000578184
0.00100572
0.00156674
0.00227361
0.00313726
0.00417732
0.0054176
0.00688623
0.0086158
0.010643
0.0129973
0.0156567
0.0185325
0.0215334
0.024594
0.0276705
0.0307275
0.0337273
0.0366225
0.0393535
0.0418448
0.0440037
0.000162796
0.000306948
0.000573338
0.000996187
0.00155085
0.00225008
0.00310427
0.00413247
0.00535827
0.00680914
0.00851718
0.0105187
0.0128469
0.0154944
0.0183837
0.0214207
0.0245335
0.0276733
0.030803
0.0338851
0.0368738
0.0397109
0.0423226
0.0446179
0.000163635
0.000306952
0.00056889
0.000987372
0.00153612
0.00222832
0.00307369
0.00409095
0.00530318
0.00673757
0.00842558
0.0104031
0.0127055
0.0153375
0.0182345
0.021302
0.0244623
0.0276615
0.0308598
0.0340196
0.0370963
0.0400332
0.0427574
0.045176
0.000164434
0.000306968
0.000564772
0.000979221
0.0015225
0.00220816
0.00304535
0.00405243
0.00525209
0.00667109
0.00834039
0.0102955
0.0125728
0.0151865
0.0180857
0.0211781
0.0243811
0.0276355
0.0308984
0.0341316
0.0372918
0.0403237
0.0431572
0.0457047
0.00016522
0.000306988
0.000560965
0.000971664
0.00150986
0.00218947
0.00301908
0.0040167
0.00520469
0.00660936
0.00826123
0.0101953
0.0124488
0.0150425
0.0179393
0.0210513
0.0242922
0.0275976
0.0309213
0.0342241
0.0374633
0.0405856
0.0435229
0.0461887
0.000165979
0.000307024
0.000557445
0.000964656
0.00149814
0.00217215
0.00299473
0.00398361
0.0051608
0.00655219
0.00818792
0.0101025
0.0123334
0.0149065
0.0177972
0.0209241
0.0241985
0.0275511
0.030932
0.0343006
0.0376148
0.0408229
0.0438586
0.0466373
0.000166715
0.000307074
0.000554193
0.000958152
0.00148726
0.00215607
0.00297218
0.00395298
0.00512019
0.00649935
0.00812017
0.0100167
0.0122265
0.0147792
0.0176612
0.020799
0.0241029
0.0274992
0.0309341
0.0343654
0.0377511
0.041041
0.0441712
0.0470611
0.000167439
0.00030714
0.000551216
0.000952157
0.00147718
0.00214117
0.00295127
0.0039246
0.0050826
0.00645051
0.00805757
0.00993748
0.0121276
0.0146606
0.0175323
0.0206778
0.0240078
0.0274447
0.030931
0.0344223
0.0378767
0.0412452
0.0444661
0.0474594
0.000168154
0.000307222
0.000548532
0.000946695
0.00146794
0.00212734
0.00293182
0.00389823
0.00504772
0.00640522
0.0079996
0.00986417
0.0120362
0.0145503
0.0174105
0.0205612
0.0239145
0.0273896
0.0309252
0.0344746
0.0379956
0.0414411
0.0447526
0.0478582
0.000168858
0.000307305
0.000546083
0.00094169
0.00145954
0.00211447
0.0029137
0.00387366
0.00501523
0.00636307
0.00794573
0.00979612
0.0119514
0.0144474
0.0172955
0.0204493
0.0238235
0.0273346
0.0309176
0.0345233
0.038109
0.0416285
0.0450258
0.0482333
0.000169541
0.000307386
0.000543821
0.000936997
0.00145167
0.0021024
0.00289671
0.00385064
0.00498483
0.00632365
0.00789537
0.00973256
0.0118721
0.0143511
0.0171865
0.0203414
0.023734
0.0272792
0.0309078
0.034568
0.0382157
0.0418049
0.0452783
0.0485582
0.000170213
0.000307466
0.000541748
0.000932591
0.00144427
0.00209106
0.00288074
0.003829
0.00495623
0.00628657
0.00784802
0.00967285
0.0117977
0.0142603
0.0170826
0.0202368
0.0236458
0.0272229
0.0308957
0.0346091
0.0383179
0.0419766
0.0455307
0.0489137
0.000170874
0.000307551
0.000539864
0.000928476
0.00143732
0.00208037
0.00286566
0.00380855
0.00492921
0.00625151
0.00780325
0.00961638
0.0117272
0.0141742
0.0169831
0.0201348
0.0235578
0.0271648
0.03088
0.0346453
0.038414
0.0421404
0.0457715
0.0492406
0.000171518
0.000307641
0.000538153
0.0009246
0.00143075
0.00207025
0.0028514
0.00378919
0.0049036
0.00621828
0.00776078
0.00956278
0.0116603
0.0140921
0.0168873
0.0200348
0.0234694
0.0271039
0.0308597
0.0346754
0.0385025
0.0422952
0.0460013
0.0495551
0.000172149
0.00030775
0.000536625
0.000920954
0.00142455
0.00206069
0.0028379
0.00377085
0.00487931
0.00618675
0.00772043
0.00951176
0.0115965
0.0140137
0.016795
0.0199366
0.0233802
0.0270396
0.0308337
0.034698
0.0385817
0.0424384
0.0462169
0.0498537
0.000172767
0.000307882
0.000535288
0.000917548
0.00141873
0.00205166
0.0028251
0.00375344
0.00485626
0.00615679
0.00768205
0.00946316
0.0115357
0.0139387
0.016706
0.0198403
0.0232904
0.0269721
0.0308021
0.0347127
0.0386507
0.0425689
0.0464167
0.0501328
0.000173371
0.000308035
0.000534119
0.000914346
0.00141323
0.00204315
0.00281306
0.00373703
0.00483445
0.00612839
0.0076456
0.00941699
0.0114779
0.0138672
0.0166205
0.0197462
0.0232005
0.0269018
0.0307653
0.0347199
0.03871
0.0426871
0.0465998
0.0503843
0.000173968
0.000308212
0.000533124
0.000911353
0.00140806
0.00203513
0.0028017
0.00372154
0.00481385
0.00610152
0.00761111
0.00937324
0.011423
0.0137992
0.0165386
0.019655
0.0231115
0.02683
0.0307245
0.0347212
0.0387618
0.0427964
0.0467737
0.0506314
0.000174556
0.000308414
0.000532288
0.000908553
0.0014032
0.00202759
0.00279099
0.00370694
0.00479442
0.00607617
0.00757854
0.00933189
0.011371
0.0137347
0.0164607
0.019567
0.0230239
0.0267574
0.0306809
0.034718
0.0388077
0.0428991
0.0469415
0.0508764
0.000175134
0.000308638
0.0005316
0.000905937
0.00139864
0.0020205
0.00278093
0.00369321
0.00477616
0.00605232
0.00754786
0.0092929
0.011322
0.0136737
0.0163866
0.0194825
0.0229385
0.0266848
0.0306351
0.0347106
0.0388477
0.042994
0.0470988
0.0511041
0.000175704
0.000308879
0.00053104
0.000903487
0.00139435
0.00201383
0.00277148
0.00368032
0.004759
0.0060299
0.00751901
0.00925623
0.0112758
0.0136162
0.0163166
0.019402
0.0228557
0.0266131
0.0305881
0.0346999
0.0388825
0.0430815
0.0472457
0.0513176
0.000176266
0.000309137
0.0005306
0.000901199
0.00139033
0.00200757
0.00276261
0.00366821
0.00474289
0.00600887
0.00749195
0.00922181
0.0112325
0.0135622
0.0162506
0.0193255
0.0227762
0.0265429
0.0305408
0.0346872
0.0389134
0.0431634
0.0473849
0.0515201
0.00017682
0.000309405
0.000530259
0.000899061
0.00138656
0.00200169
0.00275427
0.00365684
0.00472777
0.00598914
0.00746656
0.00918952
0.0111918
0.0135115
0.0161886
0.0192533
0.0227002
0.026475
0.0304941
0.0346736
0.0389423
0.0432423
0.047521
0.0517223
0.000177369
0.00030968
0.00053001
0.000897062
0.00138301
0.00199616
0.00274643
0.00364615
0.00471357
0.0059706
0.00744271
0.00915921
0.0111536
0.013464
0.0161304
0.0191851
0.0226279
0.0264096
0.0304486
0.0346598
0.0389697
0.0433183
0.0476522
0.0519154
0.000177908
0.000309959
0.000529833
0.000895193
0.00137968
0.00199096
0.00273905
0.00363609
0.00470019
0.00595315
0.00742028
0.00913072
0.0111178
0.0134193
0.0160757
0.0191209
0.0225593
0.026347
0.0304048
0.0346465
0.0389963
0.0433923
0.0477797
0.0521023
0.000178434
0.000310234
0.000529709
0.000893444
0.00137655
0.00198607
0.0027321
0.00362661
0.00468758
0.00593669
0.00739913
0.00910384
0.011084
0.0133773
0.0160242
0.0190601
0.022494
0.0262871
0.0303627
0.0346339
0.039023
0.0434656
0.0479057
0.0522856
0.000178952
0.000310504
0.000529634
0.000891805
0.00137361
0.00198146
0.00272555
0.00361766
0.00467567
0.00592114
0.00737913
0.00907844
0.0110521
0.0133375
0.0159753
0.0190025
0.0224316
0.0262295
0.0303221
0.0346223
0.0390502
0.0435398
0.0480344
0.052479
0.00017946
0.000310769
0.000529608
0.000890277
0.00137084
0.00197712
0.00271938
0.00360921
0.00466441
0.00590643
0.00736019
0.00905436
0.0110218
0.0132997
0.0159289
0.0189474
0.0223716
0.0261734
0.0302821
0.0346104
0.0390766
0.0436127
0.048161
0.0526666
0.000179955
0.000311027
0.000529618
0.000888853
0.00136826
0.00197304
0.00271356
0.00360124
0.00465376
0.00589249
0.00734222
0.00903149
0.0109929
0.0132637
0.0158846
0.0188946
0.0223136
0.0261185
0.030242
0.0345972
0.0391006
0.0436819
0.0482819
0.0528448
0.00018045
0.000311277
0.000529674
0.000887521
0.00136582
0.00196919
0.00270806
0.00359369
0.00464368
0.00587926
0.00732514
0.00900972
0.0109655
0.0132294
0.0158423
0.018844
0.0222574
0.0260645
0.0302017
0.0345825
0.0391218
0.0437468
0.0483963
0.053013
0.000180918
0.000311524
0.00052976
0.00088629
0.00136355
0.00196556
0.00270284
0.00358654
0.00463411
0.00586669
0.00730889
0.00898896
0.0109393
0.0131966
0.0158018
0.0187954
0.0222029
0.0260115
0.0301614
0.0345668
0.039141
0.0438093
0.0485086
0.05318
0.000181356
0.000311748
0.0005298
0.00088511
0.00136138
0.00196213
0.00269793
0.00357975
0.00462499
0.00585472
0.00729339
0.00896916
0.0109142
0.0131652
0.0157629
0.0187485
0.0221501
0.0259593
0.0301208
0.0345498
0.0391585
0.04387
0.0486204
0.0533543
0.00018178
0.000311969
0.000529863
0.000883998
0.00135934
0.00195889
0.00269327
0.00357332
0.00461632
0.0058433
0.0072786
0.00895026
0.0108903
0.0131351
0.0157256
0.0187033
0.0220987
0.0259078
0.0300795
0.0345308
0.0391725
0.0439256
0.0487233
0.0535036
0.000182187
0.000312164
0.000529891
0.000882935
0.00135738
0.00195583
0.00268883
0.00356721
0.00460809
0.00583243
0.0072645
0.00893216
0.0108674
0.0131064
0.0156898
0.0186598
0.0220486
0.025857
0.0300378
0.0345098
0.0391833
0.0439774
0.0488239
0.0536624
0.000182618
0.00031234
0.000529978
0.000881953
0.00135557
0.0019529
0.00268465
0.00356137
0.00460031
0.00582214
0.00725109
0.00891493
0.0108454
0.0130787
0.0156555
0.018618
0.0220004
0.0258071
0.029996
0.0344874
0.039191
0.0440245
0.0489185
0.0538158
0.000183012
0.000312536
0.000530111
0.000881055
0.00135387
0.00195015
0.00268065
0.00355587
0.00459282
0.00581227
0.00723825
0.00889844
0.0108245
0.0130523
0.0156225
0.0185777
0.0219536
0.0257585
0.0299542
0.0344638
0.0391962
0.0440662
0.0490016
0.053933
0.000183382
0.000312694
0.000530165
0.000880169
0.00135221
0.00194755
0.00267687
0.00355062
0.00458571
0.00580279
0.00722591
0.00888259
0.0108043
0.0130269
0.0155908
0.018539
0.0219083
0.025711
0.029913
0.0344399
0.0392007
0.044109
0.0490935
0.054102
0.000183761
0.000312843
0.000530272
0.00087932
0.00135064
0.001945
0.00267323
0.00354553
0.00457893
0.00579383
0.0072142
0.00886748
0.010785
0.0130025
0.0155603
0.0185014
0.0218644
0.0256641
0.0298716
0.0344146
0.039202
0.0441449
0.0491652
0.0541893
0.00018407
0.000312981
0.000530312
0.000878512
0.00134914
0.00194256
0.00266967
0.00354065
0.0045723
0.00578515
0.00720288
0.00885289
0.0107665
0.0129791
0.015531
0.0184654
0.0218218
0.0256183
0.0298301
0.0343885
0.0392021
0.0441811
0.0492474
0.0543358
0.000184386
0.000313089
0.000530338
0.000877728
0.00134767
0.00194026
0.00266633
0.00353598
0.00456599
0.00577673
0.00719194
0.00883884
0.0107486
0.0129566
0.0155028
0.0184307
0.0217805
0.0255736
0.0297891
0.0343614
0.0392
0.0442135
0.0493212
0.054455
0.000184714
0.000313194
0.00053042
0.00087696
0.00134625
0.00193796
0.00266302
0.00353141
0.00455984
0.00576869
0.00718148
0.00882537
0.0107314
0.0129348
0.0154756
0.0183972
0.0217408
0.02553
0.0297486
0.0343341
0.0391965
0.0442433
0.049391
0.0545656
0.000184972
0.000313285
0.000530426
0.000876206
0.00134487
0.0019358
0.00265991
0.00352708
0.00455395
0.00576086
0.0071713
0.00881228
0.0107148
0.0129139
0.0154495
0.0183649
0.0217022
0.0254877
0.0297089
0.0343067
0.0391925
0.0442728
0.0494645
0.0546973
0.000185232
0.000313367
0.000530406
0.000875472
0.00134352
0.00193367
0.00265686
0.00352283
0.0045482
0.0057532
0.00716133
0.00879952
0.0106986
0.0128935
0.015424
0.0183335
0.0216648
0.0254461
0.0296696
0.034279
0.0391871
0.0442994
0.0495322
0.0548188
0.000185481
0.000313434
0.000530397
0.000874756
0.00134226
0.00193163
0.00265386
0.00351868
0.00454259
0.00574581
0.00715175
0.00878721
0.0106828
0.0128736
0.0153991
0.0183028
0.0216282
0.0254054
0.0296301
0.0342501
0.0391789
0.0443205
0.0495866
0.0548975
0.000185686
0.000313474
0.000530275
0.00087405
0.00134098
0.00192967
0.00265102
0.00351471
0.0045372
0.0057386
0.00714235
0.00877519
0.0106675
0.0128544
0.015375
0.018273
0.0215923
0.0253652
0.0295908
0.0342206
0.0391697
0.0443415
0.0496464
0.0550076
0.000185929
0.000313503
0.000530242
0.000873412
0.00133983
0.00192776
0.00264827
0.00351085
0.004532
0.00573172
0.0071333
0.00876343
0.0106526
0.0128355
0.0153515
0.018244
0.0215573
0.0253254
0.0295515
0.0341902
0.0391587
0.04436
0.0497032
0.0551107
0.000186136
0.000313552
0.00053023
0.00087284
0.00133874
0.00192597
0.00264557
0.00350709
0.0045269
0.00572501
0.00712452
0.00875211
0.0106382
0.0128173
0.0153286
0.0182156
0.0215231
0.0252865
0.029512
0.0341587
0.0391452
0.0443741
0.0497529
0.0552008
0.000186324
0.000313563
0.000530128
0.000872273
0.00133769
0.00192431
0.00264308
0.00350357
0.00452205
0.00571846
0.00711597
0.0087411
0.0106242
0.0127997
0.0153065
0.0181883
0.0214899
0.0252486
0.0294733
0.034127
0.0391303
0.0443857
0.0497985
0.055286
0.000186529
0.000313572
0.000530094
0.000871766
0.00133674
0.00192272
0.00264074
0.00350017
0.00451743
0.00571228
0.00710785
0.00873058
0.0106107
0.0127825
0.0152852
0.0181617
0.0214578
0.0252116
0.0294356
0.0340959
0.0391154
0.044397
0.0498443
0.0553736
0.000186669
0.000313569
0.000529987
0.000871314
0.0013359
0.0019213
0.00263855
0.00349706
0.00451302
0.00570637
0.00710003
0.00872041
0.0105977
0.0127661
0.0152644
0.0181361
0.0214267
0.0251758
0.0293985
0.0340651
0.0391005
0.0444074
0.0498891
0.0554599
0.000186824
0.000313562
0.000529893
0.000870973
0.0013352
0.00192013
0.00263667
0.00349426
0.00450903
0.00570079
0.00709258
0.00871068
0.0105851
0.0127501
0.0152444
0.0181112
0.0213965
0.0251411
0.0293625
0.0340346
0.0390851
0.0444167
0.049931
0.055541
0.000186999
0.00031355
0.000529874
0.000870723
0.00133468
0.00191911
0.00263507
0.00349177
0.00450548
0.00569581
0.00708577
0.00870162
0.0105733
0.0127348
0.015225
0.018087
0.0213672
0.025107
0.0293272
0.0340046
0.0390698
0.0444255
0.0499714
0.0556177
0.00018711
0.000313533
0.000529794
0.000870569
0.00133431
0.00191836
0.00263377
0.00348973
0.00450237
0.0056914
0.00707963
0.00869326
0.0105622
0.0127204
0.0152065
0.0180637
0.0213385
0.0250736
0.029292
0.0339749
0.0390546
0.0444346
0.0500137
0.0556998
0.000187232
0.000313517
0.00052971
0.000870526
0.00133412
0.00191789
0.00263286
0.00348815
0.00449988
0.00568765
0.00707424
0.00868577
0.010552
0.012707
0.0151891
0.0180415
0.0213107
0.0250407
0.0292569
0.0339442
0.0390384
0.0444434
0.0500568
0.0557873
0.00018735
0.000313476
0.000529654
0.00087057
0.00133414
0.00191771
0.0026323
0.00348707
0.00449802
0.00568476
0.00706993
0.00867954
0.0105433
0.012695
0.0151731
0.0180205
0.0212842
0.0250085
0.0292216
0.033912
0.039019
0.0444474
0.0500932
0.0558601
0.000187433
0.000313425
0.000529523
0.000870698
0.00133427
0.0019178
0.00263217
0.00348654
0.00449685
0.00568264
0.00706659
0.00867458
0.0105361
0.0126849
0.0151592
0.0180019
0.0212597
0.0249783
0.0291872
0.0338792
0.0389968
0.0444464
0.0501234
0.0559288
0.000187563
0.000313364
0.000529485
0.000870931
0.00133458
0.00191809
0.00263237
0.00348648
0.00449637
0.0056815
0.00706441
0.00867093
0.0105305
0.0126768
0.0151477
0.0179861
0.0212385
0.0249512
0.029156
0.0338485
0.0389749
0.0444434
0.0501505
0.0560022
0.000187652
0.000313286
0.000529393
0.000871215
0.00133506
0.00191862
0.00263282
0.0034868
0.0044964
0.00568109
0.00706325