/*--------------------------------*- C++ -*----------------------------------*\
| =========                 |                                                 |
| \\      /  F ield         | OpenFOAM: The Open Source CFD Toolbox           |
|  \\    /   O peration     | Version:  2.3.0                                 |
|   \\  /    A nd           | Web:      www.OpenFOAM.org                      |
|    \\/     M anipulation  |                                                 |
\*---------------------------------------------------------------------------*/
FoamFile
{
    version     2.0;
    format      ascii;
    class       volScalarField;
    location    "10000";
    object      p;
}
// * * * * * * * * * * * * * * * * * * * * * * * * * * * * * * * * * * * * * //

dimensions      [0 2 -2 0 0 0 0];

internalField   nonuniform List<scalar> 
14036
(
-0.0125039
-0.748611
-1.49013
-2.18539
-2.81433
-3.34951
-3.77935
-4.09108
-4.25835
-4.26035
-4.05006
-3.56954
-2.73492
-1.44827
0.400152
2.95122
6.37188
10.7348
16.2774
23.8247
33.9792
43.7092
48.6119
62.1664
9.58642
10.072
10.5819
11.2308
12.0224
12.9817
14.1476
15.5626
17.3063
19.455
22.1078
25.3766
29.382
34.2747
40.1924
47.2746
55.6434
65.4201
76.6946
89.5826
104.111
120.138
137.624
156.346
17.9634
19.1029
20.3154
21.74
23.3694
25.2279
27.3375
29.7147
32.3882
35.3916
38.7551
42.5196
46.7328
51.4441
56.7043
62.5573
69.0405
76.1781
83.9779
92.4127
101.405
110.866
120.704
130.769
25.0479
26.6235
28.2678
30.1257
32.187
34.4748
37.015
39.8353
42.9664
46.4472
50.3065
54.5857
59.3135
64.5204
70.2324
76.4562
83.2014
90.4385
98.1359
106.221
114.592
123.118
131.629
139.946
30.8055
32.7901
34.7111
36.7953
39.0555
41.5142
44.1906
47.103
50.2718
53.714
57.4542
61.5144
65.9124
70.6706
75.8022
81.3145
87.2039
93.4497
100.025
106.87
113.914
121.061
128.193
135.196
36.2097
38.0532
40.0296
42.1717
44.4871
46.9878
49.692
52.6166
55.7729
59.1812
62.8627
66.829
71.0956
75.67
80.5635
85.7735
91.2892
97.0924
103.147
109.404
115.802
122.26
128.679
134.972
40.5928
42.394
44.3895
46.5221
48.819
51.2733
53.9171
56.7595
59.813
63.0869
66.6003
70.3699
74.4112
78.7102
83.288
88.1485
93.2867
98.6606
104.25
110.012
115.897
121.835
127.736
133.534
44.2965
46.0407
48.0467
50.1452
52.3819
54.7497
57.3288
60.0996
63.0818
66.2645
69.6527
73.258
77.1426
81.2442
85.5669
90.1342
94.9664
100
105.232
110.629
116.139
121.719
127.24
132.661
47.5809
49.0853
50.9421
52.9529
55.1282
57.3899
59.8473
62.4662
65.3232
68.3917
71.655
75.0658
78.761
82.7627
86.9415
91.2744
95.8342
100.647
105.602
110.704
115.891
121.227
126.487
131.585
50.5133
51.4354
52.6855
54.4049
56.9142
59.0398
61.1343
63.2778
65.6973
68.3594
71.2511
74.2528
77.9725
81.533
85.4825
89.7684
94.8858
99.7219
104.463
109.38
114.325
119.543
124.676
129.43
120.121
151.651
171.021
185.142
196.293
205.369
212.68
218.467
222.933
226.233
228.513
229.905
230.5
230.387
229.654
228.384
226.659
224.559
222.16
219.532
216.718
213.741
210.839
208.489
173.596
186.893
197.498
206.076
212.954
218.295
222.254
224.988
226.665
227.447
227.491
226.943
225.934
224.578
222.971
221.185
219.273
217.263
215.175
213.015
210.77
208.423
206.164
204.642
140.799
150.544
159.721
168.128
175.672
182.326
188.099
193.019
197.134
200.504
203.189
205.25
206.745
207.73
208.258
208.377
208.133
207.567
206.722
205.631
204.32
202.804
201.248
199.897
147.927
155.518
162.643
169.198
175.111
180.351
184.915
188.816
192.087
194.771
196.919
198.581
199.81
200.654
201.16
201.37
201.317
201.031
200.54
199.86
199
197.961
196.874
195.977
142.002
148.592
154.883
160.78
166.216
171.146
175.553
179.435
182.805
185.688
188.113
190.112
191.724
192.979
193.914
194.556
194.935
195.075
195
194.732
194.284
193.658
192.985
192.808
141.078
146.972
152.589
157.865
162.748
167.2
171.209
174.769
177.892
180.594
182.901
184.839
186.44
187.733
188.747
189.506
190.034
190.352
190.48
190.44
190.238
189.882
189.458
189.11
139.184
144.627
149.815
154.705
159.243
163.406
167.173
170.547
173.53
176.14
178.397
180.321
181.943
183.291
184.389
185.251
185.9
186.352
186.628
186.758
186.742
186.59
186.358
186.127
137.981
143.045
147.866
152.44
156.684
160.601
164.156
167.363
170.206
172.718
174.901
176.775
178.375
179.742
180.883
181.788
182.487
183.001
183.356
183.603
183.714
183.695
183.614
183.623
136.718
141.623
146.21
150.562
154.522
158.245
161.662
164.756
167.487
169.925
172.039
173.851
175.43
176.838
178.016
178.906
179.603
180.146
180.565
180.945
181.145
181.174
181.177
181.468
134.667
139.74
144.467
148.757
152.677
156.385
159.746
162.736
165.353
167.651
169.66
171.374
172.922
174.34
175.456
176.426
177.173
177.792
178.328
178.856
178.969
178.721
178.943
179.521
-23.7316
-24.3364
-24.9264
-25.485
-26.0037
-26.4726
-26.882
-27.2244
-27.4938
-27.6872
-27.8042
-27.8455
-27.8123
-27.7049
-27.5224
-27.2525
-26.8721
-26.3486
-25.6475
-24.7408
-23.5965
-22.1567
-20.0026
-15.2418
-22.7109
-23.3815
-23.989
-24.5312
-25.0173
-25.448
-25.8241
-26.147
-26.4171
-26.6321
-26.7862
-26.87
-26.8697
-26.7679
-26.5402
-26.157
-25.574
-24.7225
-23.4994
-21.7709
-19.3445
-15.964
-11.4347
-5.84932
-21.6643
-22.3846
-23.0653
-23.6972
-24.2851
-24.8252
-25.31
-25.7303
-26.0769
-26.3393
-26.5042
-26.5555
-26.4715
-26.2278
-25.7932
-25.1289
-24.1864
-22.9008
-21.176
-18.8956
-15.926
-12.1675
-7.629
-2.56079
-20.6543
-21.2808
-21.9254
-22.5466
-23.117
-23.6288
-24.0746
-24.4456
-24.7332
-24.9266
-25.0135
-24.9789
-24.8012
-24.454
-23.9058
-23.1133
-22.0257
-20.5794
-18.7039
-16.3169
-13.3557
-9.79952
-5.72049
-1.33503
-19.5164
-20.0939
-20.7206
-21.3196
-21.8615
-22.3406
-22.7489
-23.0786
-23.3233
-23.4743
-23.5157
-23.4275
-23.1878
-22.7706
-22.1419
-21.265
-20.0919
-18.5718
-16.6409
-14.2484
-11.3565
-7.97338
-4.17597
-0.135393
-18.3665
-18.9104
-19.5032
-20.0574
-20.5548
-20.9907
-21.3565
-21.6416
-21.8363
-21.945
-21.9525
-21.8321
-21.5564
-21.1018
-20.4378
-19.5277
-18.3214
-16.7811
-14.8608
-12.5136
-9.71541
-6.4687
-2.83668
1.0109
-17.3345
-17.7617
-18.3036
-18.8114
-19.2659
-19.6655
-19.9963
-20.2436
-20.3811
-20.4485
-20.4354
-20.3026
-20.003
-19.5204
-18.8305
-17.9058
-16.6773
-15.1258
-13.2088
-10.9095
-8.19767
-5.05755
-1.55729
2.14137
-16.3706
-16.6207
-17.1221
-17.5872
-18.0002
-18.3764
-18.6862
-18.9193
-18.9794
-18.9906
-18.9752
-18.8759
-18.59
-18.1066
-17.4092
-16.5255
-15.282
-13.7447
-11.8491
-9.6181
-7.03224
-4.02275
-0.59284
3.01923
-15.3651
-15.5426
-16.0453
-16.4724
-16.8164
-17.1654
-17.4724
-17.7898
-17.6973
-17.5016
-17.3757
-17.3557
-17.1164
-16.616
-15.7935
-14.9594
-13.6418
-12.0297
-9.98916
-7.72077
-5.25596
-2.31907
1.1757
4.71898
-14.2971
-14.7275
-15.5401
-16.2003
-16.6844
-17.1524
-17.798
-19.013
-18.6622
-18.2936
-17.9771
-18.4441
-18.737
-18.8411
-18.3789
-18.0714
-17.0919
-15.8596
-13.6382
-11.175
-9.05517
-6.48637
-2.35382
2.59056
-5.10776
-0.19562
2.99675
5.90229
8.67411
11.2767
13.7125
15.997
18.1537
20.2099
22.1965
24.1454
26.0815
28.0223
29.979
31.9579
33.9618
35.9907
38.044
40.1212
42.2225
44.3347
46.4579
48.7805
0.380433
3.95732
5.83313
7.5436
9.39452
11.3747
13.4411
15.5524
17.6786
19.7986
21.8974
23.9671
26.0047
28.0112
29.99
31.9471
33.8884
35.8206
37.7493
39.6815
41.6221
43.558
45.5006
47.6112
2.51389
6.80466
9.18044
10.7977
12.3971
14.0699
15.8119
17.603
19.4276
21.2711
23.1229
24.9742
26.819
28.6536
30.477
32.2891
34.0911
35.8847
37.6725
39.4598
41.2501
43.0328
44.8312
46.788
3.08299
7.2653
10.0311
11.8131
13.5017
15.2071
16.9369
18.6774
20.4202
22.16
23.8937
25.6195
27.3361
29.044
30.744
32.4372
34.1248
35.8093
37.4917
39.1753
40.8616
42.5386
44.2303
46.062
3.92802
7.79147
10.6694
12.5326
14.2537
15.9723
17.7022
19.4288
21.1449
22.8465
24.5314
26.1989
27.8483
29.4813
31.0998
32.7055
34.3007
35.888
37.4698
39.0497
40.6284
42.1945
43.7673
45.4714
4.86759
8.5281
11.4576
13.4238
15.1819
16.9077
18.623
20.3196
21.9948
23.6473
25.2764
26.8828
28.4663
30.0279
31.5701
33.0954
34.6055
36.1024
37.5893
39.0688
40.5404
41.9954
43.4505
45.0177
5.83712
9.34817
12.2817
14.3375
16.1283
17.8568
19.5519
21.2127
22.8424
24.443
26.0167
27.5637
29.0828
30.577
32.0508
33.5033
34.9357
36.3518
37.7561
39.1483
40.5252
41.8827
43.2288
44.6689
6.59229
10.0122
13.0141
15.2012
17.0264
18.7422
20.4043
22.0237
23.6054
25.1569
26.6841
28.1833
29.6451
31.0807
32.5003
33.8915
35.2567
36.6056
37.9437
39.265
40.558
41.8321
43.0894
44.4263
7.97705
11.0724
14.0494
16.2804
17.9824
19.5987
21.1934
22.7587
24.2848
25.7921
27.2917
28.764
30.168
31.5507
32.9423
34.2782
35.5792
36.8649
38.1494
39.4109
40.6125
41.8086
42.9666
44.2368
6.31387
9.79791
14.3853
17.266
18.8441
20.3575
21.8979
23.427
24.885
26.3571
27.849
29.3033
30.5946
31.9235
33.3468
34.5927
35.8109
37.0789
38.364
39.6063
40.6977
41.872
42.9712
44.2868
-168.132
-159.224
-150.06
-142.23
-133.217
-123.019
-112.419
-101.91
-91.6876
-81.8206
-72.4259
-63.6303
-55.53
-48.1731
-41.5976
-35.8101
-30.7926
-26.4809
-22.7946
-19.6388
-16.8972
-14.4694
-12.2592
-10.1979
-99.5911
-99.5854
-98.7699
-97.4275
-96.0573
-95.0076
-94.1487
-92.9796
-91.135
-88.5223
-85.1562
-81.0735
-76.3333
-71.0242
-65.2899
-59.3071
-53.2769
-47.4006
-41.8332
-36.6879
-32.011
-27.7992
-24.016
-20.6228
-109.355
-109.244
-109.314
-109.346
-109.147
-108.459
-107.185
-105.409
-103.268
-100.767
-97.7907
-94.2352
-90.1115
-85.4542
-80.3063
-74.7356
-68.8417
-62.7674
-56.6706
-50.7194
-45.0488
-39.7453
-34.8634
-30.2685
-101.372
-101.328
-101.211
-101.038
-100.808
-100.505
-100.099
-99.5493
-98.7925
-97.7747
-96.5214
-94.9795
-92.9942
-90.4291
-87.2033
-83.28
-78.6872
-73.5081
-67.8848
-62.0092
-56.0796
-50.278
-44.757
-39.5678
-101.537
-101.52
-101.52
-101.501
-101.445
-101.333
-101.142
-100.832
-100.356
-99.6638
-98.7066
-97.4602
-95.909
-93.9827
-91.5968
-88.669
-85.1356
-80.9628
-76.174
-70.865
-65.1952
-59.3643
-53.5677
-48.0729
-99.5285
-99.5113
-99.4849
-99.4389
-99.3689
-99.2687
-99.1279
-98.9322
-98.6609
-98.2853
-97.7719
-97.0766
-96.146
-94.9312
-93.3619
-91.3454
-88.7969
-85.6345
-81.8173
-77.3451
-72.295
-66.8203
-61.0776
-55.5382
-98.7868
-98.7751
-98.7656
-98.7448
-98.7083
-98.6501
-98.5622
-98.4329
-98.2475
-97.9854
-97.6212
-97.1259
-96.4605
-95.5791
-94.4297
-92.9432
-91.0339
-88.6146
-85.6034
-81.9451
-77.6291
-72.7349
-67.3313
-62.1199
-97.8612
-97.8509
-97.8387
-97.8166
-97.7821
-97.7321
-97.6613
-97.5627
-97.427
-97.2415
-96.9889
-96.6476
-96.1892
-95.5758
-94.7602
-93.6867
-92.278
-90.4477
-88.1035
-85.1623
-81.5614
-77.3175
-72.3834
-67.7111
-97.2064
-97.1982
-97.1887
-97.1718
-97.1452
-97.1065
-97.0517
-96.9754
-96.8704
-96.7276
-96.5347
-96.2748
-95.9276
-95.4654
-94.851
-94.0391
-92.9712
-91.5678
-89.7404
-87.3919
-84.4269
-80.8156
-76.3924
-72.337
-96.5952
-96.5897
-96.5807
-96.565
-96.5412
-96.5073
-96.4606
-96.3972
-96.3115
-96.1969
-96.0445
-95.8422
-95.5741
-95.2193
-94.7489
-94.1251
-93.3009
-92.2137
-90.7817
-88.9115
-86.4961
-83.472
-79.6014
-76.2104
-96.0881
-96.0842
-96.0759
-96.0614
-96.0399
-96.0099
-95.969
-95.9143
-95.8415
-95.7452
-95.6187
-95.4529
-95.2355
-94.9504
-94.5756
-94.0814
-93.4294
-92.5694
-91.4339
-89.939
-87.9819
-85.4832
-82.1738
-79.4304
-95.6392
-95.6365
-95.6286
-95.6149
-95.5948
-95.5671
-95.5301
-95.4814
-95.4176
-95.3341
-95.2259
-95.0859
-94.9044
-94.6691
-94.3628
-93.9619
-93.4346
-92.7409
-91.8276
-90.6222
-89.033
-86.9797
-84.1942
-81.8894
-95.2516
-95.2497
-95.2425
-95.2296
-95.2109
-95.1853
-95.1513
-95.107
-95.0495
-94.9752
-94.8798
-94.7579
-94.6022
-94.4025
-94.1453
-93.8118
-93.3769
-92.8075
-92.0603
-91.0776
-89.7814
-88.0971
-85.7935
-83.9308
-94.9177
-94.9157
-94.9085
-94.8961
-94.8783
-94.8541
-94.8224
-94.7815
-94.7291
-94.662
-94.5765
-94.4683
-94.3317
-94.1586
-93.9383
-93.6558
-93.2908
-92.8158
-92.196
-91.3849
-90.3162
-88.9225
-87.0091
-85.3935
-94.6284
-94.6264
-94.6193
-94.6074
-94.5906
-94.5679
-94.5385
-94.5009
-94.453
-94.3922
-94.3152
-94.2185
-94.0972
-93.9453
-93.754
-93.5113
-93.2008
-92.8001
-92.2801
-91.6041
-90.7179
-89.5646
-88.002
-86.7716
-94.3738
-94.3723
-94.3657
-94.3548
-94.3394
-94.3187
-94.2919
-94.2576
-94.2142
-94.1594
-94.0904
-94.004
-93.8966
-93.763
-93.5961
-93.3863
-93.1201
-92.7794
-92.3399
-91.7714
-91.0299
-90.0625
-88.7619
-87.8399
-94.1506
-94.1489
-94.1426
-94.1324
-94.1181
-94.0993
-94.075
-94.0442
-94.0054
-93.9567
-93.8955
-93.8189
-93.7239
-93.6064
-93.4608
-93.2794
-93.051
-92.7607
-92.3883
-91.9083
-91.2841
-90.455
-89.2957
-88.7337
-93.9444
-93.9431
-93.9375
-93.9285
-93.9159
-93.8991
-93.8776
-93.8504
-93.8162
-93.7733
-93.7196
-93.6524
-93.5691
-93.4664
-93.3395
-93.182
-92.9843
-92.7335
-92.4115
-91.9928
-91.4457
-90.7332
-89.7279
-87.5455
-93.7527
-93.7515
-93.7464
-93.7383
-93.7269
-93.712
-93.693
-93.669
-93.6389
-93.6014
-93.5544
-93.4959
-93.4232
-93.3336
-93.2231
-93.0863
-92.9153
-92.6987
-92.4208
-92.0593
-91.5847
-90.9573
-90.1389
-88.9955
-93.5659
-93.5646
-93.5598
-93.5524
-93.5421
-93.5288
-93.5119
-93.4908
-93.4644
-93.4316
-93.3907
-93.3395
-93.2759
-93.1974
-93.1007
-92.9811
-92.8314
-92.6417
-92.398
-92.0798
-91.6587
-91.092
-90.3208
-89.1385
-93.3756
-93.3749
-93.3708
-93.3644
-93.3554
-93.3436
-93.3287
-93.31
-93.2867
-93.2577
-93.2216
-93.1765
-93.1205
-93.0513
-92.9658
-92.8598
-92.7271
-92.5587
-92.3415
-92.0569
-91.6785
-91.1671
-90.4591
-89.2829
-93.1848
-93.184
-93.1801
-93.174
-93.1656
-93.1547
-93.141
-93.1239
-93.1027
-93.0765
-93.0438
-93.0031
-92.9525
-92.8898
-92.8124
-92.7163
-92.5958
-92.4423
-92.2435
-91.9813
-91.6296
-91.1481
-90.4796
-89.2813
-92.9868
-92.986
-92.9824
-92.9767
-92.9688
-92.9587
-92.9459
-92.93
-92.9103
-92.886
-92.8558
-92.8183
-92.7716
-92.7138
-92.6423
-92.5535
-92.4419
-92.2998
-92.1158
-91.8736
-91.5503
-91.1077
-90.4908
-89.4534
-92.7827
-92.7821
-92.7786
-92.7732
-92.7657
-92.7561
-92.744
-92.7289
-92.7102
-92.6872
-92.6587
-92.6233
-92.5793
-92.5248
-92.4575
-92.374
-92.2693
-92.1362
-91.9645
-91.7393
-91.4413
-91.0431
-90.5221
-89.6185
-92.5734
-92.5727
-92.5694
-92.5643
-92.5571
-92.5478
-92.5361
-92.5215
-92.5036
-92.4815
-92.4541
-92.4202
-92.3782
-92.3262
-92.262
-92.1826
-92.0834
-91.958
-91.7969
-91.5875
-91.3127
-90.9469
-90.4583
-89.706
-92.3602
-92.3595
-92.3563
-92.3512
-92.3442
-92.3351
-92.3237
-92.3095
-92.2921
-92.2706
-92.2441
-92.2113
-92.1708
-92.1207
-92.059
-91.9828
-91.8881
-91.7688
-91.6167
-91.4199
-91.1632
-90.8208
-90.3518
-89.6794
-92.1435
-92.1428
-92.1396
-92.1346
-92.1277
-92.1189
-92.1077
-92.0939
-92.077
-92.0561
-92.0304
-91.9987
-91.9594
-91.911
-91.8515
-91.7781
-91.6872
-91.5731
-91.4282
-91.2414
-90.9986
-90.6781
-90.2313
-89.4177
-91.9232
-91.9227
-91.9197
-91.915
-91.9084
-91.8999
-91.8892
-91.8759
-91.8596
-91.8394
-91.8147
-91.7842
-91.7465
-91.7001
-91.6429
-91.5728
-91.4862
-91.3783
-91.2423
-91.0688
-90.8452
-90.5511
-90.1596
-89.6268
-91.7019
-91.7013
-91.6984
-91.6938
-91.6875
-91.6793
-91.669
-91.6562
-91.6406
-91.6213
-91.5976
-91.5685
-91.5326
-91.4884
-91.4341
-91.3677
-91.286
-91.1851
-91.059
-90.9004
-90.6999
-90.4451
-90.1234
-89.7483
-91.4784
-91.4778
-91.475
-91.4706
-91.4645
-91.4567
-91.4468
-91.4347
-91.4197
-91.4014
-91.379
-91.3514
-91.3174
-91.2755
-91.2242
-91.1612
-91.084
-90.9884
-90.869
-90.7176
-90.5247
-90.2835
-89.9701
-89.1882
-91.2527
-91.2521
-91.2493
-91.2451
-91.2393
-91.2318
-91.2224
-91.2109
-91.1968
-91.1795
-91.1584
-91.1325
-91.1006
-91.0614
-91.0133
-90.9546
-90.8827
-90.7943
-90.6849
-90.5485
-90.3768
-90.1532
-89.8636
-89.7146
-91.0233
-91.0228
-91.0202
-91.0163
-91.0108
-91.0037
-90.9949
-90.984
-90.9707
-90.9545
-90.9347
-90.9104
-90.8806
-90.8439
-90.7989
-90.7439
-90.6765
-90.5935
-90.4904
-90.3606
-90.1952
-89.9828
-89.7159
-89.2712
-90.7907
-90.7902
-90.7877
-90.784
-90.7788
-90.7721
-90.7638
-90.7536
-90.7411
-90.7259
-90.7073
-90.6847
-90.6569
-90.6227
-90.5808
-90.5296
-90.467
-90.39
-90.2947
-90.1753
-90.025
-89.835
-89.5962
-89.2186
-90.554
-90.5535
-90.5512
-90.5476
-90.5426
-90.5363
-90.5284
-90.5188
-90.507
-90.4927
-90.4753
-90.454
-90.428
-90.3961
-90.357
-90.3092
-90.2508
-90.179
-90.0901
-89.9789
-89.8392
-89.6601
-89.4231
-89.0484
-90.3126
-90.3122
-90.31
-90.3066
-90.3019
-90.2959
-90.2884
-90.2793
-90.2681
-90.2546
-90.2381
-90.2181
-90.1936
-90.1636
-90.1268
-90.0818
-90.0269
-89.9595
-89.876
-89.7719
-89.6413
-89.4738
-89.2506
-88.9711
-90.0667
-90.0663
-90.0642
-90.0609
-90.0564
-90.0507
-90.0435
-90.0348
-90.0241
-90.0112
-89.9955
-89.9764
-89.953
-89.9245
-89.8894
-89.8465
-89.7939
-89.7291
-89.6483
-89.5459
-89.4152
-89.2519
-89.0395
-88.5042
-89.8163
-89.8159
-89.8138
-89.8107
-89.8064
-89.8008
-89.7939
-89.7855
-89.7753
-89.7629
-89.7478
-89.7295
-89.7072
-89.6798
-89.6463
-89.6053
-89.5551
-89.4932
-89.4162
-89.3192
-89.195
-89.0346
-88.8403
-88.6673
-89.5613
-89.561
-89.559
-89.556
-89.5518
-89.5465
-89.5398
-89.5317
-89.5218
-89.5098
-89.4953
-89.4777
-89.4561
-89.4299
-89.3977
-89.3583
-89.3102
-89.2509
-89.1774
-89.0853
-88.9684
-88.8166
-88.6172
-88.4029
-89.3023
-89.302
-89.3001
-89.2972
-89.2931
-89.2879
-89.2815
-89.2736
-89.264
-89.2524
-89.2383
-89.2212
-89.2004
-89.175
-89.144
-89.106
-89.0596
-89.0026
-88.9318
-88.8431
-88.7302
-88.5846
-88.3964
-88.1463
-89.0395
-89.0392
-89.0373
-89.0345
-89.0305
-89.0255
-89.0192
-89.0115
-89.0022
-88.9909
-88.9772
-88.9606
-88.9404
-88.9158
-88.8857
-88.849
-88.8041
-88.749
-88.6808
-88.5954
-88.4872
-88.3492
-88.174
-87.9305
-88.7729
-88.7726
-88.7708
-88.7681
-88.7643
-88.7594
-88.7533
-88.7458
-88.7367
-88.7257
-88.7124
-88.6962
-88.6766
-88.6526
-88.6234
-88.5877
-88.5441
-88.4906
-88.4244
-88.3415
-88.2366
-88.1025
-87.928
-87.6545
-88.5035
-88.5032
-88.5014
-88.4987
-88.495
-88.4902
-88.4842
-88.4769
-88.468
-88.4573
-88.4443
-88.4286
-88.4095
-88.3862
-88.3578
-88.3231
-88.2808
-88.2291
-88.1652
-88.0857
-87.9857
-87.8587
-87.6947
-87.4634
-88.2308
-88.2305
-88.2287
-88.2261
-88.2224
-88.2178
-88.2119
-88.2049
-88.1963
-88.1858
-88.1732
-88.158
-88.1394
-88.1168
-88.0892
-88.0555
-88.0145
-87.9643
-87.9026
-87.8257
-87.729
-87.6067
-87.4536
-87.2378
-87.9547
-87.9544
-87.9528
-87.9503
-87.9468
-87.9423
-87.9367
-87.9299
-87.9216
-87.9115
-87.8993
-87.8845
-87.8665
-87.8446
-87.8179
-87.7853
-87.7455
-87.6969
-87.6372
-87.5631
-87.4704
-87.3549
-87.2128
-87.0003
-87.6763
-87.676
-87.6744
-87.672
-87.6686
-87.6643
-87.6589
-87.6523
-87.6443
-87.6345
-87.6228
-87.6085
-87.5912
-87.57
-87.5442
-87.5126
-87.4741
-87.4269
-87.3687
-87.2964
-87.2053
-87.0896
-86.9412
-86.7224
-87.3951
-87.3949
-87.3933
-87.3909
-87.3876
-87.3834
-87.3782
-87.3719
-87.3642
-87.3549
-87.3436
-87.3299
-87.3133
-87.293
-87.2683
-87.238
-87.2009
-87.1556
-87.0997
-87.0303
-86.9432
-86.8318
-86.6861
-86.4863
-87.1107
-87.1105
-87.109
-87.1068
-87.1036
-87.0996
-87.0947
-87.0886
-87.0813
-87.0724
-87.0617
-87.0487
-87.0329
-87.0136
-86.9901
-86.9613
-86.9261
-86.883
-86.8301
-86.7644
-86.6823
-86.5793
-86.4552
-86.3003
-86.8237
-86.8234
-86.8219
-86.8197
-86.8167
-86.8128
-86.808
-86.8023
-86.7953
-86.7869
-86.7767
-86.7644
-86.7494
-86.7312
-86.709
-86.6818
-86.6486
-86.608
-86.5583
-86.4969
-86.4212
-86.3292
-86.2222
-86.0695
-86.5327
-86.5323
-86.5309
-86.5287
-86.5258
-86.5221
-86.5176
-86.5122
-86.5056
-86.4977
-86.4881
-86.4765
-86.4624
-86.4452
-86.4242
-86.3984
-86.3669
-86.3283
-86.2807
-86.2215
-86.1474
-86.0546
-85.9386
-85.7577
-86.2367
-86.2367
-86.2354
-86.2335
-86.2309
-86.2275
-86.2233
-86.2182
-86.2121
-86.2047
-86.1957
-86.1848
-86.1716
-86.1554
-86.1357
-86.1114
-86.0817
-86.0451
-85.9999
-85.9434
-85.8722
-85.7807
-85.6571
-85.4694
-85.9381
-85.9379
-85.9367
-85.9349
-85.9323
-85.9292
-85.9252
-85.9205
-85.9147
-85.9078
-85.8994
-85.8892
-85.8768
-85.8616
-85.8431
-85.8203
-85.7924
-85.7581
-85.7158
-85.6633
-85.5981
-85.5156
-85.4096
-85.289
-85.635
-85.6349
-85.6337
-85.632
-85.6296
-85.6266
-85.6229
-85.6185
-85.6131
-85.6066
-85.5987
-85.5892
-85.5776
-85.5634
-85.546
-85.5246
-85.4982
-85.4658
-85.4254
-85.3747
-85.3104
-85.2292
-85.131
-84.9557
-85.328
-85.3278
-85.3267
-85.325
-85.3227
-85.3199
-85.3164
-85.3122
-85.3071
-85.301
-85.2936
-85.2847
-85.2738
-85.2605
-85.2443
-85.2243
-85.1997
-85.1694
-85.132
-85.0856
-85.0274
-84.9538
-84.8592
-84.7532
-85.0167
-85.0163
-85.015
-85.0133
-85.0111
-85.0083
-85.005
-85.001
-84.9962
-84.9905
-84.9836
-84.9752
-84.965
-84.9525
-84.9372
-84.9183
-84.8951
-84.8665
-84.8309
-84.7867
-84.7317
-84.664
-84.5803
-84.4642
-84.6981
-84.6982
-84.6973
-84.6959
-84.6939
-84.6915
-84.6884
-84.6848
-84.6803
-84.675
-84.6685
-84.6607
-84.6511
-84.6394
-84.625
-84.6071
-84.5847
-84.5568
-84.5217
-84.4767
-84.4182
-84.3422
-84.2367
-83.9644
-84.3777
-84.3773
-84.3762
-84.3747
-84.3727
-84.3702
-84.3673
-84.3639
-84.3597
-84.3548
-84.3488
-84.3415
-84.3326
-84.3216
-84.308
-84.2913
-84.2704
-84.2445
-84.2121
-84.1711
-84.119
-84.0526
-83.9699
-83.9136
-84.0485
-84.0486
-84.0478
-84.0466
-84.045
-84.043
-84.0405
-84.0374
-84.0337
-84.0292
-84.0237
-84.0171
-84.0089
-83.9988
-83.9863
-83.9706
-83.9511
-83.9268
-83.8961
-83.8571
-83.8077
-83.7481
-83.6755
-83.4209
-83.7177
-83.7177
-83.7169
-83.7157
-83.7141
-83.7121
-83.7097
-83.7068
-83.7032
-83.699
-83.6939
-83.6877
-83.6802
-83.6708
-83.6591
-83.6447
-83.6267
-83.6043
-83.5763
-83.5413
-83.497
-83.4383
-83.3658
-83.3911
-83.3817
-83.3813
-83.3803
-83.379
-83.3774
-83.3754
-83.3731
-83.3704
-83.3672
-83.3634
-83.3587
-83.353
-83.3459
-83.3372
-83.3263
-83.3127
-83.2957
-83.2744
-83.2475
-83.213
-83.1687
-83.1141
-83.0484
-82.8881
-83.0369
-83.037
-83.0365
-83.0357
-83.0345
-83.033
-83.0311
-83.0288
-83.026
-83.0225
-83.0182
-83.013
-83.0065
-82.9984
-82.9882
-82.9753
-82.9592
-82.9388
-82.9127
-82.8792
-82.836
-82.7805
-82.6961
-82.4969
-82.6918
-82.6917
-82.691
-82.6901
-82.6887
-82.6871
-82.6852
-82.6829
-82.6801
-82.6768
-82.6729
-82.668
-82.6619
-82.6544
-82.6448
-82.6329
-82.6177
-82.5984
-82.5738
-82.542
-82.4999
-82.4407
-82.3556
-82.2972
-82.3404
-82.34
-82.3391
-82.3381
-82.3368
-82.3352
-82.3334
-82.3313
-82.3289
-82.3259
-82.3223
-82.3179
-82.3123
-82.3053
-82.2965
-82.2854
-82.2714
-82.2535
-82.2308
-82.2019
-82.1647
-82.1153
-82.0502
-82.0408
-81.9807
-81.9808
-81.9804
-81.9797
-81.9788
-81.9777
-81.9762
-81.9745
-81.9723
-81.9697
-81.9665
-81.9624
-81.9574
-81.951
-81.9429
-81.9325
-81.9193
-81.9024
-81.8806
-81.852
-81.8146
-81.7673
-81.7009
-81.4832
-81.6203
-81.6201
-81.6196
-81.6188
-81.6178
-81.6166
-81.6151
-81.6134
-81.6114
-81.6089
-81.6059
-81.6021
-81.5975
-81.5916
-81.5841
-81.5746
-81.5624
-81.5469
-81.527
-81.5015
-81.4682
-81.4244
-81.3689
-81.3235
-81.2545
-81.2541
-81.2532
-81.2522
-81.2511
-81.2499
-81.2485
-81.2468
-81.245
-81.2428
-81.2401
-81.2367
-81.2324
-81.2269
-81.2199
-81.211
-81.1997
-81.1851
-81.1665
-81.1423
-81.1107
-81.0682
-81.017
-80.9864
-80.8796
-80.8799
-80.8796
-80.8791
-80.8784
-80.8775
-80.8764
-80.8751
-80.8735
-80.8715
-80.8691
-80.866
-80.8621
-80.8571
-80.8506
-80.8422
-80.8313
-80.8174
-80.7994
-80.776
-80.7453
-80.7046
-80.655
-80.5968
-80.5048
-80.5045
-80.5039
-80.5032
-80.5023
-80.5014
-80.5003
-80.4991
-80.4976
-80.4958
-80.4936
-80.4907
-80.487
-80.4822
-80.4759
-80.4679
-80.4574
-80.4439
-80.4262
-80.4029
-80.3717
-80.3294
-80.2738
-80.1982
-80.1213
-80.1215
-80.1213
-80.121
-80.1205
-80.1199
-80.1192
-80.1182
-80.117
-80.1155
-80.1135
-80.1108
-80.1074
-80.1029
-80.097
-80.0893
-80.0792
-80.066
-80.0487
-80.0259
-79.9954
-79.9548
-79.9004
-79.8194
-79.7387
-79.7386
-79.7382
-79.7376
-79.737
-79.7362
-79.7353
-79.7343
-79.733
-79.7315
-79.7295
-79.727
-79.7238
-79.7196
-79.7139
-79.7066
-79.6968
-79.6841
-79.6674
-79.6454
-79.6161
-79.5767
-79.526
-79.4656
-79.3504
-79.35
-79.3494
-79.3488
-79.348
-79.3473
-79.3465
-79.3456
-79.3445
-79.3431
-79.3414
-79.3391
-79.3361
-79.3321
-79.3267
-79.3197
-79.3104
-79.2982
-79.2822
-79.261
-79.2326
-79.1951
-79.1483
-79.0907
-78.955
-78.9551
-78.955
-78.9548
-78.9545
-78.954
-78.9535
-78.9529
-78.952
-78.9509
-78.9494
-78.9474
-78.9446
-78.941
-78.936
-78.9293
-78.9204
-78.9085
-78.8928
-78.8718
-78.8434
-78.8054
-78.7549
-78.6772
-78.561
-78.5609
-78.5604
-78.5599
-78.5593
-78.5587
-78.5581
-78.5573
-78.5564
-78.5553
-78.5539
-78.552
-78.5495
-78.5461
-78.5415
-78.5353
-78.5269
-78.5157
-78.5008
-78.4807
-78.4533
-78.4153
-78.3616
-78.2904
-78.1604
-78.1601
-78.1597
-78.1593
-78.1588
-78.1583
-78.1579
-78.1573
-78.1567
-78.1559
-78.1547
-78.1532
-78.1509
-78.1478
-78.1436
-78.1379
-78.1302
-78.1199
-78.1063
-78.0879
-78.0632
-78.0303
-77.9882
-77.9423
-77.7546
-77.7548
-77.7547
-77.7546
-77.7545
-77.7544
-77.7542
-77.7539
-77.7535
-77.7529
-77.752
-77.7507
-77.7488
-77.7461
-77.7422
-77.7369
-77.7298
-77.7201
-77.7072
-77.6896
-77.6657
-77.634
-77.5978
-77.5428
-77.3494
-77.3492
-77.349
-77.3488
-77.3485
-77.3483
-77.3481
-77.3478
-77.3475
-77.347
-77.3461
-77.3449
-77.3432
-77.3407
-77.3373
-77.3324
-77.3258
-77.3169
-77.3049
-77.2884
-77.2655
-77.234
-77.1936
-77.1364
-76.94
-76.9396
-76.9391
-76.9387
-76.9384
-76.9381
-76.9379
-76.9378
-76.9376
-76.9373
-76.9367
-76.9358
-76.9343
-76.9321
-76.9289
-76.9244
-76.9183
-76.9099
-76.8986
-76.8835
-76.8631
-76.8354
-76.7966
-76.7621
-76.5233
-76.5236
-76.5235
-76.5235
-76.5236
-76.5238
-76.5239
-76.524
-76.5241
-76.5241
-76.5238
-76.5232
-76.522
-76.5202
-76.5173
-76.5131
-76.5072
-76.499
-76.4876
-76.4716
-76.4487
-76.415
-76.3601
-76.2107
-76.1076
-76.1074
-76.1073
-76.1072
-76.1072
-76.1073
-76.1074
-76.1077
-76.1079
-76.108
-76.108
-76.1076
-76.1067
-76.1052
-76.1028
-76.0991
-76.0939
-76.0867
-76.0768
-76.0634
-76.0448
-76.0176
-75.9833
-76.0344
-75.6878
-75.6874
-75.687
-75.6868
-75.6868
-75.6868
-75.6871
-75.6875
-75.6878
-75.6882
-75.6885
-75.6885
-75.688
-75.6869
-75.6849
-75.6818
-75.6771
-75.6703
-75.6608
-75.6475
-75.6289
-75.6062
-75.5837
-75.5016
-75.2617
-75.2618
-75.2617
-75.2616
-75.2618
-75.2621
-75.2626
-75.2632
-75.2639
-75.2646
-75.2652
-75.2657
-75.2657
-75.2653
-75.2639
-75.2614
-75.2574
-75.2512
-75.2423
-75.2293
-75.2108
-75.1858
-75.1489
-75.0149
-74.8328
-74.8325
-74.8324
-74.8324
-74.8327
-74.8332
-74.834
-74.8349
-74.836
-74.8372
-74.8383
-74.8393
-74.84
-74.8401
-74.8395
-74.8379
-74.8348
-74.83
-74.8227
-74.8122
-74.7968
-74.7728
-74.7414
-74.7858
-74.3971
-74.3973
-74.3975
-74.398
-74.3987
-74.3996
-74.4008
-74.4022
-74.4038
-74.4054
-74.4071
-74.4088
-74.4102
-74.4112
-74.4115
-74.4108
-74.4088
-74.405
-74.3989
-74.3896
-74.376
-74.356
-74.3314
-74.3497
-73.9618
-73.9617
-73.9617
-73.962
-73.9625
-73.9634
-73.9646
-73.9661
-73.9678
-73.9698
-73.9719
-73.9741
-73.9761
-73.9779
-73.9791
-73.9795
-73.9787
-73.9761
-73.9709
-73.9619
-73.9474
-73.9271
-73.8922
-73.6823
-73.5197
-73.5193
-73.5191
-73.5193
-73.5199
-73.5209
-73.5224
-73.5242
-73.5264
-73.5289
-73.5316
-73.5345
-73.5373
-73.54
-73.5424
-73.5442
-73.545
-73.5445
-73.5422
-73.5373
-73.5288
-73.5128
-73.4858
-73.5814
-73.0683
-73.0685
-73.0689
-73.0696
-73.0708
-73.0723
-73.0743
-73.0767
-73.0794
-73.0825
-73.0858
-73.0895
-73.0933
-73.097
-73.1006
-73.1037
-73.1061
-73.1073
-73.1067
-73.1033
-73.0953
-73.0813
-73.0526
-72.896
-72.6162
-72.6162
-72.6164
-72.617
-72.6181
-72.6196
-72.6217
-72.6242
-72.6272
-72.6306
-72.6345
-72.6388
-72.6434
-72.6481
-72.6528
-72.6575
-72.6618
-72.6657
-72.6689
-72.6712
-72.6724
-72.6712
-72.6769
-72.8214
-72.1568
-72.1564
-72.1565
-72.157
-72.1582
-72.1598
-72.1621
-72.1649
-72.1683
-72.1723
-72.1767
-72.1816
-72.1868
-72.1923
-72.198
-72.2037
-72.2092
-72.2141
-72.2181
-72.2204
-72.2193
-72.2119
-72.199
-72.1777
-71.6877
-71.6877
-71.6881
-71.689
-71.6906
-71.6927
-71.6954
-71.6987
-71.7025
-71.707
-71.712
-71.7176
-71.7237
-71.73
-71.7367
-71.7433
-71.75
-71.7563
-71.7619
-71.7661
-71.7679
-71.7666
-71.7611
-71.7301
-71.2139
-71.2138
-71.2143
-71.2154
-71.2171
-71.2194
-71.2224
-71.226
-71.2303
-71.2353
-71.2409
-71.247
-71.2536
-71.2608
-71.2682
-71.2759
-71.2835
-71.2908
-71.2975
-71.3028
-71.3055
-71.3029
-71.2884
-71.241
-70.7341
-70.7338
-70.734
-70.735
-70.7367
-70.7391
-70.7423
-70.7462
-70.7509
-70.7563
-70.7625
-70.7693
-70.7767
-70.7847
-70.793
-70.8016
-70.8105
-70.8191
-70.8274
-70.8349
-70.8408
-70.8417
-70.8293
-70.8595
-70.2441
-70.2443
-70.2449
-70.2462
-70.2483
-70.2511
-70.2546
-70.259
-70.2641
-70.2701
-70.2768
-70.2843
-70.2925
-70.3014
-70.3107
-70.3204
-70.3302
-70.3398
-70.3489
-70.3566
-70.3614
-70.3603
-70.348
-70.3266
-69.7492
-69.7489
-69.7493
-69.7506
-69.7526
-69.7556
-69.7594
-69.7642
-69.7698
-69.7763
-69.7838
-69.792
-69.8011
-69.8108
-69.8213
-69.8322
-69.8434
-69.8548
-69.8657
-69.8756
-69.8833
-69.8875
-69.8778
-69.7823
-69.2421
-69.2424
-69.2434
-69.2451
-69.2478
-69.2513
-69.2557
-69.261
-69.2673
-69.2745
-69.2827
-69.2918
-69.3018
-69.3127
-69.3245
-69.3369
-69.3498
-69.3631
-69.3766
-69.39
-69.4024
-69.4125
-69.4235
-69.4976
-68.7325
-68.7324
-68.7332
-68.7348
-68.7373
-68.7409
-68.7453
-68.7509
-68.7574
-68.765
-68.7737
-68.7836
-68.7945
-68.8065
-68.8194
-68.8332
-68.8478
-68.8629
-68.8784
-68.8937
-68.9079
-68.9195
-68.9296
-68.9236
-68.2122
-68.2118
-68.2124
-68.2139
-68.2166
-68.2203
-68.2251
-68.231
-68.2381
-68.2464
-68.2558
-68.2665
-68.2783
-68.2913
-68.3054
-68.3207
-68.3369
-68.354
-68.3719
-68.3902
-68.4085
-68.4269
-68.4472
-68.4774
-67.6776
-67.678
-67.6794
-67.6817
-67.6851
-67.6895
-67.695
-67.7017
-67.7094
-67.7185
-67.7287
-67.7403
-67.7531
-67.7673
-67.7826
-67.7991
-67.8168
-67.8353
-67.8544
-67.8734
-67.8909
-67.9062
-67.9208
-67.8814
-67.1407
-67.1407
-67.1419
-67.1441
-67.1475
-67.152
-67.1576
-67.1645
-67.1726
-67.1821
-67.1929
-67.2052
-67.2189
-67.234
-67.2506
-67.2685
-67.2877
-67.3081
-67.3296
-67.3521
-67.3751
-67.3977
-67.421
-67.4662
-66.5933
-66.5931
-66.5941
-66.5963
-66.5997
-66.6044
-66.6102
-66.6175
-66.6261
-66.6362
-66.6477
-66.6607
-66.6752
-66.6912
-66.7089
-66.728
-66.7485
-66.7704
-66.7932
-66.8162
-66.8379
-66.8557
-66.8691
-66.8486
-66.0329
-66.0331
-66.0343
-66.0369
-66.0407
-66.0458
-66.0522
-66.06
-66.0693
-66.08
-66.0923
-66.1063
-66.1218
-66.1391
-66.158
-66.1785
-66.2007
-66.2245
-66.2497
-66.2764
-66.304
-66.331
-66.3553
-66.3961
-65.4613
-65.4616
-65.4634
-65.4664
-65.4708
-65.4765
-65.4837
-65.4923
-65.5024
-65.514
-65.5271
-65.542
-65.5586
-65.5769
-65.597
-65.6188
-65.6424
-65.6677
-65.6946
-65.7227
-65.7508
-65.7779
-65.8052