/*--------------------------------*- C++ -*----------------------------------*\
| =========                 |                                                 |
| \\      /  F ield         | OpenFOAM: The Open Source CFD Toolbox           |
|  \\    /   O peration     | Version:  2.3.0                                 |
|   \\  /    A nd           | Web:      www.OpenFOAM.org                      |
|    \\/     M anipulation  |                                                 |
\*---------------------------------------------------------------------------*/
FoamFile
{
    version     2.0;
    format      ascii;
    class       volScalarField;
    location    "4000";
    object      nuTilda;
}
// * * * * * * * * * * * * * * * * * * * * * * * * * * * * * * * * * * * * * //

dimensions      [0 2 -1 0 0 0 0];

internalField   nonuniform List<scalar> 
38375
(
0.0431973
0.041583
0.0400077
0.0384773
0.0369953
0.0355598
0.0341558
0.0327785
0.0314323
0.0301221
0.028851
0.0276192
0.0264236
0.0252601
0.0241275
0.023025
0.021955
0.0209186
0.0199166
0.0189485
0.0180138
0.0171103
0.0162367
0.0153903
0.0145687
0.013769
0.0129879
0.0122228
0.0114709
0.0107293
0.00999629
0.0092708
0.00855411
0.00784721
0.00715767
0.00649199
0.00586215
0.00528461
0.00477215
0.00433384
0.00397405
0.00371144
0.00365071
0.0453036
0.0438578
0.0424441
0.0410596
0.0397035
0.0383753
0.0370729
0.0357959
0.0345468
0.0333276
0.0321418
0.0309936
0.0298844
0.0288064
0.02775
0.026712
0.0256943
0.024699
0.0237286
0.0227847
0.0218693
0.0209823
0.0201249
0.0192971
0.0184996
0.0177325
0.0169962
0.0162899
0.0156153
0.0149715
0.0143579
0.0137767
0.0132274
0.0127111
0.0122276
0.0117812
0.0113732
0.0110099
0.0106965
0.0104495
0.010309
0.0103542
0.0106602
0.0472309
0.0459495
0.0446896
0.0434507
0.0422324
0.0410343
0.0398566
0.0386985
0.0375612
0.0364446
0.0353498
0.0342769
0.0332261
0.0321962
0.0311858
0.0301932
0.0292198
0.0282657
0.0273313
0.0264186
0.0255286
0.024662
0.0238212
0.0230051
0.0222166
0.0214559
0.0207251
0.0200259
0.0193601
0.0187303
0.0181402
0.0175919
0.0170901
0.0166404
0.0162483
0.0159187
0.01566
0.0154804
0.0153894
0.0153965
0.015511
0.0157404
0.0160847
0.0489932
0.0478532
0.0467303
0.0456226
0.0445302
0.043453
0.0423915
0.0413451
0.0403143
0.0392992
0.0383002
0.0373175
0.0363505
0.0353999
0.0344644
0.033545
0.032641
0.0317531
0.0308819
0.0300281
0.0291937
0.0283798
0.0275868
0.0268172
0.0260719
0.0253533
0.0246631
0.0240036
0.0233775
0.0227871
0.0222361
0.0217291
0.0212708
0.0208649
0.0205183
0.0202371
0.0200274
0.019897
0.019852
0.0198989
0.020042
0.0202845
0.0206259
0.0505888
0.0495756
0.0485726
0.0475801
0.0465982
0.0456271
0.0446672
0.0437183
0.0427811
0.0418559
0.0409423
0.0400412
0.039152
0.0382753
0.037411
0.0365595
0.035721
0.0348952
0.0340829
0.0332851
0.0325028
0.0317371
0.0309898
0.0302622
0.0295573
0.0288765
0.0282218
0.0275962
0.0270025
0.0264436
0.0259227
0.0254454
0.0250147
0.0246359
0.0243158
0.0240583
0.023871
0.0237604
0.0237312
0.0237886
0.0239373
0.0241784
0.024512
0.052035
0.0511303
0.0502312
0.0493385
0.0484522
0.0475727
0.0467008
0.0458362
0.0449795
0.044131
0.0432913
0.04246
0.0416369
0.0408242
0.0400217
0.0392287
0.0384459
0.0376737
0.0369128
0.0361638
0.0354275
0.0347039
0.0339948
0.0333041
0.0326329
0.0319828
0.0313566
0.0307578
0.0301893
0.0296551
0.0291574
0.028701
0.0282904
0.0279299
0.0276264
0.0273842
0.0272102
0.0271097
0.0270881
0.0271494
0.0272979
0.0275355
0.0278625
0.0533458
0.0525325
0.0517224
0.0509164
0.0501133
0.0493121
0.048516
0.0477241
0.0469365
0.0461532
0.0453758
0.0446051
0.0438388
0.0430787
0.0423273
0.0415842
0.0408491
0.0401219
0.0394036
0.0386957
0.0379993
0.0373138
0.0366385
0.0359773
0.035335
0.034711
0.0341086
0.0335308
0.0329811
0.0324654
0.0319863
0.0315473
0.0311512
0.0308046
0.0305121
0.0302808
0.0301156
0.0300221
0.0300046
0.0300674
0.0302149
0.0304489
0.0307703
0.0545302
0.0537958
0.0530625
0.0523308
0.0516034
0.0508663
0.0501365
0.0494065
0.0486798
0.0479525
0.0472256
0.0465078
0.0457923
0.0450739
0.0443643
0.0436624
0.0429681
0.0422799
0.0415964
0.0409213
0.0402586
0.0396082
0.0389662
0.0383276
0.0377087
0.0371098
0.036527
0.0359697
0.0354304
0.0349282
0.0344633
0.0340387
0.0336569
0.0333199
0.0330344
0.0328111
0.0326528
0.0325646
0.0325502
0.0326156
0.0327598
0.0329899
0.0333057
0.0556012
0.0549309
0.0542648
0.0535927
0.0529498
0.052254
0.0515833
0.0509014
0.0502298
0.0495591
0.0488624
0.0481855
0.0475238
0.0468411
0.0461652
0.0454937
0.0448315
0.0441777
0.0435283
0.0428751
0.0422365
0.0416145
0.0410218
0.0403978
0.0397917
0.0392215
0.0386433
0.0381246
0.0375856
0.0370921
0.0366364
0.0362214
0.0358534
0.0355323
0.0352447
0.0350295
0.0348746
0.034795
0.0347787
0.0348521
0.0349879
0.0352186
0.0355188
0.00440216
0.005761
0.00676679
0.00781183
0.00892759
0.0101034
0.0113263
0.0125873
0.0138777
0.0151915
0.016526
0.017878
0.019247
0.0206307
0.0220294
0.0234399
0.0248644
0.0263
0.0277486
0.0292088
0.0306808
0.0321646
0.0336596
0.0351663
0.0366843
0.0382133
0.039753
0.0413036
0.0428642
0.0444348
0.0460148
0.0476039
0.0492017
0.0508074
0.0524207
0.054041
0.0556674
0.0572994
0.058936
0.0605764
0.0622195
0.0638647
0.0655106
0.0111534
0.0117999
0.0125573
0.0134174
0.014372
0.0154058
0.0165073
0.0176635
0.0188636
0.0200994
0.0213644
0.0226524
0.0239587
0.0252794
0.0266139
0.0279599
0.0293144
0.030679
0.0320508
0.0334301
0.0348162
0.0362085
0.0376072
0.0390117
0.0404223
0.0418384
0.0432597
0.0446864
0.0461183
0.0475549
0.0489963
0.0504423
0.0518928
0.0533471
0.0548053
0.0562672
0.0577322
0.0592002
0.0606707
0.062143
0.0636168
0.0650915
0.0665646
0.0165391
0.0171018
0.0177726
0.0185435
0.0194042
0.0203443
0.0213524
0.0224177
0.0235314
0.0246848
0.0258684
0.0270784
0.0283092
0.0295568
0.0308169
0.0320882
0.0333681
0.0346546
0.0359467
0.0372433
0.0385437
0.0398475
0.0411538
0.0424625
0.0437732
0.0450856
0.0463996
0.047715
0.0490316
0.0503494
0.0516684
0.0529885
0.0543095
0.0556313
0.0569541
0.0582778
0.0596019
0.0609267
0.0622521
0.0635773
0.0649025
0.0662272
0.0675503
0.0210623
0.0215959
0.0222261
0.022949
0.0237552
0.0246361
0.025583
0.0265858
0.0276355
0.0287251
0.0298468
0.0309936
0.0321612
0.0333453
0.0345421
0.0357474
0.0369608
0.0381787
0.0394
0.0406236
0.0418485
0.0430739
0.044299
0.0455237
0.0467473
0.0479696
0.0491903
0.0504091
0.0516258
0.0528407
0.0540536
0.0552645
0.0564734
0.0576805
0.058886
0.06009
0.0612921
0.0624924
0.0636913
0.0648883
0.0660837
0.0672775
0.06847
0.0249362
0.0254515
0.0260576
0.0267484
0.0275186
0.0283596
0.0292629
0.0302198
0.0312224
0.0322629
0.0333341
0.0344307
0.0355464
0.0366772
0.0378194
0.0389696
0.0401252
0.0412841
0.0424442
0.0436047
0.0447644
0.0459222
0.0470775
0.04823
0.049379
0.0505238
0.0516641
0.0528
0.0539309
0.0550571
0.0561786
0.0572953
0.0584077
0.059516
0.0606205
0.0617211
0.0628176
0.0639101
0.0649988
0.0660839
0.0671657
0.0682443
0.0693211
0.0282777
0.0287801
0.029368
0.030037
0.0307806
0.0315915
0.0324623
0.0333843
0.0343503
0.035352
0.0363836
0.0374382
0.0385113
0.0395978
0.0406951
0.0417987
0.0429056
0.0440137
0.0451212
0.0462276
0.0473316
0.0484321
0.0495283
0.0506194
0.0517047
0.0527833
0.0538548
0.0549197
0.0559773
0.0570271
0.0580696
0.0591054
0.060135
0.0611586
0.0621764
0.0631877
0.064193
0.0651919
0.0661849
0.0671722
0.0681544
0.069132
0.0701066
0.0311787
0.0316718
0.0322461
0.032897
0.0336196
0.034408
0.0352526
0.0361472
0.0370838
0.0380549
0.0390526
0.0400732
0.0411105
0.0421606
0.0432196
0.0442841
0.0453494
0.0464134
0.0474756
0.0485356
0.0495927
0.0506449
0.0516912
0.0527304
0.0537612
0.0547829
0.0557954
0.0568
0.0577945
0.0587778
0.0597519
0.0607182
0.0616772
0.0626284
0.0635716
0.0645059
0.0654321
0.0663498
0.0672591
0.0681612
0.0690564
0.0699454
0.0708303
0.033711
0.0341974
0.0347625
0.0353951
0.0361012
0.0368717
0.0376949
0.0385664
0.03948
0.0404259
0.0413945
0.0423848
0.0433932
0.044413
0.0454409
0.0464715
0.0475002
0.0485247
0.0495472
0.0505683
0.0515876
0.0525979
0.0536028
0.0545985
0.0555815
0.0565534
0.0575155
0.0584718
0.0594095
0.0603332
0.0612483
0.0621556
0.0630545
0.0639445
0.0648231
0.0656896
0.0665488
0.067395
0.0682308
0.0690583
0.0698777
0.070689
0.0714938
0.0359306
0.0364103
0.0369718
0.0375766
0.0382709
0.0390313
0.0398311
0.0406843
0.0415793
0.0425056
0.0434432
0.0444091
0.0453928
0.0463879
0.0473907
0.0483916
0.0493867
0.0503732
0.0513651
0.0523542
0.0533485
0.054317
0.0552947
0.0562506
0.0571896
0.0581204
0.0590404
0.0599673
0.0608399
0.0617105
0.0625769
0.0634356
0.0642837
0.0651242
0.0659461
0.0667503
0.0675569
0.0683364
0.069108
0.0698715
0.0706253
0.0713705
0.072105
0.0868617
0.0825492
0.078375
0.0743395
0.0704424
0.0666817
0.0630568
0.0595658
0.0562054
0.0529728
0.0498662
0.0468817
0.044017
0.0412682
0.0386331
0.0361084
0.0336904
0.0313761
0.0291641
0.0270491
0.0250294
0.0231023
0.0212652
0.0195149
0.01785
0.0162662
0.0147625
0.0133375
0.0119887
0.0107136
0.00951158
0.00838052
0.00732046
0.00633021
0.00540903
0.0045575
0.00377579
0.00306542
0.00242715
0.00186897
0.00143839
0.00103323
0.000603773
0.0884798
0.084487
0.0806078
0.0768415
0.0731886
0.0696481
0.0662187
0.0628989
0.0596862
0.0565792
0.0535755
0.0506732
0.0478706
0.0451647
0.0425532
0.0400341
0.0376052
0.0352656
0.0330115
0.0308421
0.0287549
0.0267482
0.0248197
0.0229694
0.0211941
0.0194931
0.0178657
0.01631
0.0148251
0.0134109
0.0120664
0.0107923
0.00958805
0.00845487
0.00739355
0.00640609
0.00549626
0.00467226
0.00397019
0.00329907
0.00263003
0.00191847
0.00109788
0.0900808
0.0863821
0.0827766
0.0792633
0.0758418
0.0725112
0.0692711
0.0661194
0.0630547
0.0600756
0.0571803
0.0543679
0.0516368
0.0489852
0.0464111
0.0439135
0.0414911
0.0391421
0.0368658
0.0346603
0.0325258
0.0304594
0.028461
0.0265308
0.0246671
0.0228693
0.0211375
0.0194709
0.0178703
0.0163356
0.0148677
0.0134672
0.0121366
0.0108782
0.00969526
0.00859684
0.00760193
0.00668099
0.00577063
0.00484132
0.00385796
0.00275287
0.00151555
0.0916528
0.0882218
0.0848681
0.0815884
0.0783818
0.0752471
0.0721846
0.0691918
0.0662684
0.063413
0.060624
0.0579014
0.0552441
0.0526504
0.0501199
0.0476507
0.0452427
0.0428953
0.0406074
0.038379
0.0362091
0.0340971
0.0320443
0.0300498
0.0281133
0.0262356
0.0244174
0.0226592
0.0209617
0.0193266
0.0177558
0.0162511
0.0148174
0.0134582
0.0121845
0.0110147
0.00987627
0.00873656
0.00756907
0.00634389
0.00501772
0.0035103
0.0018794
0.0931764
0.0899932
0.0868718
0.0838084
0.0808005
0.0778482
0.0749504
0.0721065
0.069316
0.0665777
0.0638911
0.0612558
0.058671
0.0561366
0.0536509
0.0512134
0.0488254
0.046486
0.0441946
0.0419516
0.0397565
0.0376095
0.0355127
0.0334659
0.0314697
0.0295261
0.0276371
0.0258024
0.0240252
0.0223087
0.0206543
0.0190675
0.0175546
0.0161298
0.0147706
0.0134317
0.0120853
0.0107087
0.00927504
0.00775132
0.0060849
0.00419431
0.00220124
0.0946286
0.0916852
0.0887815
0.0859173
0.0830929
0.0803081
0.0775631
0.0748574
0.0721906
0.0695625
0.0669727
0.0644209
0.0619066
0.0594295
0.0569895
0.0545863
0.0522205
0.0498925
0.047603
0.0453521
0.0431395
0.0409666
0.0388342
0.0367437
0.0346982
0.0327005
0.0307517
0.0288552
0.0270139
0.0252313
0.023512
0.0218643
0.0202928
0.0187633
0.0172473
0.0157204
0.0141623
0.0125506
0.0108575
0.00904583
0.00705685
0.00481154
0.00248841
0.096038
0.0933015
0.0905934
0.0879117
0.0852558
0.0826248
0.0800204
0.0774424
0.0748903
0.0723646
0.0698653
0.0673924
0.0649449
0.0625236
0.0601287
0.0577599
0.0554173
0.0531031
0.0508186
0.0485656
0.0463427
0.0441507
0.0419899
0.0398631
0.0377752
0.0357301
0.0337331
0.0317866
0.029894
0.0280595
0.0262913
0.0245821
0.0229046
0.0212361
0.019556
0.0178451
0.0160834
0.0142472
0.0123081
0.010226
0.00793716
0.00536479
0.00274421
0.0973722
0.0948318
0.0923047
0.0897904
0.0872894
0.0847974
0.0823222
0.0798624
0.077416
0.0749844
0.0725683
0.0701698
0.067786
0.065416
0.0630659
0.0607333
0.0584154
0.056113
0.0538347
0.0515824
0.0493559
0.047154
0.0449728
0.0428143
0.0406877
0.0386004
0.0365609
0.0345751
0.032644
0.0307651
0.0289303
0.0271254
0.0253276
0.0235198
0.021683
0.0197977
0.0178435
0.0157972
0.013627
0.011298
0.00874071
0.00586609
0.00296647
0.0986598
0.0962771
0.0939154
0.091552
0.089198
0.0868258
0.0844689
0.0821211
0.0797707
0.0774264
0.075083
0.0727555
0.070437
0.0681091
0.0658019
0.0635068
0.06122
0.0589245
0.0566497
0.0543982
0.0521709
0.0499712
0.0477831
0.045596
0.0434323
0.0413019
0.0392208
0.0372013
0.0352358
0.0332982
0.0313754
0.0294667
0.0275483
0.0256114
0.0236315
0.0215812
0.0194448
0.0172037
0.0148166
0.0122603
0.00950468
0.00640936
0.00326242
0.00046676
0.000526889
0.000704464
0.000873422
0.00104563
0.00123503
0.00145718
0.00172702
0.00203607
0.00237694
0.00274695
0.00314419
0.00356843
0.0040193
0.00449699
0.005002
0.00553456
0.00609534
0.00668488
0.00730387
0.00795263
0.00863181
0.00934215
0.0100844
0.0108591
0.0116673
0.0125091
0.0133862
0.0142986
0.0152476
0.0162339
0.0172584
0.0183219
0.019425
0.0205687
0.0217544
0.0229822
0.0242536
0.0255695
0.0269316
0.0283418
0.0298015
0.0313105
0.000627052
0.000678982
0.000869545
0.00106916
0.00129107
0.0015476
0.00184491
0.00218479
0.00256206
0.00296704
0.00339814
0.00385436
0.00433498
0.00484012
0.00536929
0.005923
0.00650105
0.00710392
0.00773165
0.00838479
0.00906337
0.00976796
0.0104989
0.0112567
0.0120419
0.012855
0.0136967
0.0145675
0.0154681
0.0163991
0.0173612
0.0183551
0.0193814
0.0204408
0.021534
0.0226621
0.0238259
0.025026
0.0262637
0.0275401
0.028856
0.0302106
0.0316037
0.000786465
0.000828356
0.0010486
0.00129622
0.00158142
0.00190807
0.00227401
0.00267845
0.00311691
0.0035808
0.00406851
0.00457908
0.00511213
0.005667
0.00624348
0.00684154
0.0074609
0.00810168
0.00876366
0.00944691
0.010152
0.0108787
0.0116273
0.012398
0.0131916
0.0140081
0.0148476
0.0157112
0.016599
0.0175114
0.018449
0.0194124
0.0204021
0.0214186
0.0224627
0.023535
0.0246364
0.0257673
0.0269284
0.0281204
0.029343
0.0305953
0.0318762
0.000935248
0.000977448
0.00124096
0.00154571
0.00189511
0.00228543
0.00271152
0.0031759
0.00366925
0.00418604
0.00472478
0.00528431
0.00586419
0.00646377
0.00708231
0.00771969
0.00837527
0.00904924
0.00974118
0.0104507
0.0111782
0.0119235
0.0126867
0.0134678
0.0142672
0.015085
0.0159213
0.0167767
0.0176513
0.0185454
0.0194594
0.0203939
0.0213491
0.0223257
0.0233238
0.0243441
0.0253872
0.0264534
0.0275429
0.0286559
0.0297919
0.0309497
0.0321289
0.00107388
0.00112995
0.00144443
0.00180734
0.00221596
0.00266264
0.00314348
0.00366123
0.00420411
0.00476871
0.00535339
0.00595711
0.00657912
0.00721836
0.00787411
0.00854624
0.00923388
0.00993671
0.0106544
0.0113867
0.0121332
0.012894
0.0136692
0.0144585
0.0152622
0.0160801
0.0169124
0.0177592
0.0186212
0.0194978
0.0203896
0.0212969
0.0222201
0.0231594
0.0241151
0.0250874
0.0260768
0.0270833
0.0281067
0.0291471
0.0302037
0.031276
0.0323636
0.00120543
0.00128629
0.00165375
0.0020715
0.00253327
0.00303032
0.00356165
0.0041265
0.00471415
0.00532196
0.00594804
0.00659127
0.00725074
0.00792562
0.00861475
0.00931771
0.0100336
0.0107618
0.0115019
0.0122537
0.0130168
0.013791
0.014576
0.0153719
0.0161785
0.0169959
0.0178238
0.0186624
0.0195118
0.020372
0.0212431
0.0221253
0.0230189
0.0239239
0.0248405
0.0257686
0.0267082
0.0276596
0.0286226
0.0295968
0.0305816
0.0315769
0.0325829
0.00133188
0.00144429
0.00186355
0.00233132
0.00283991
0.00338178
0.00396013
0.00456728
0.00519521
0.00584187
0.00650539
0.00718432
0.00787768
0.00858429
0.0093032
0.0100335
0.0107745
0.0115253
0.0122852
0.0130542
0.0138317
0.0146173
0.015411
0.0162124
0.017021
0.017837
0.0186605
0.0194912
0.020329
0.0211736
0.022025
0.0228839
0.0237501
0.0246236
0.0255043
0.0263916
0.0272856
0.0281865
0.0290943
0.0300082
0.0309283
0.0318546
0.0327881
0.00145362
0.00160568
0.00207075
0.00258202
0.00313242
0.00371583
0.00433615
0.00498132
0.00564574
0.00632735
0.00702452
0.00773603
0.00846088
0.00919719
0.00994275
0.0106974
0.0114607
0.0122317
0.0130092
0.0137935
0.0145837
0.0153797
0.016181
0.0169867
0.0177961
0.0186103
0.0194298
0.0202536
0.0210801
0.0219087
0.0227408
0.0235778
0.0244197
0.0252648
0.0261125
0.0269615
0.0278129
0.0286678
0.0295254
0.030385
0.0312466
0.0321109
0.0329808
0.00157989
0.001742
0.00225793
0.00281802
0.00340945
0.00403081
0.00468634
0.0053656
0.00606569
0.0067823
0.00751281
0.00826437
0.00902789
0.00978981
0.0105526
0.0113277
0.0121091
0.0128956
0.0136882
0.0144849
0.0152862
0.0160921
0.0169004
0.0177072
0.0185125
0.0193236
0.0201428
0.0209637
0.0217745
0.0225814
0.023394
0.0242118
0.025035
0.0258555
0.0266731
0.0274827
0.0282928
0.0291071
0.0299195
0.0307296
0.0315378
0.0323435
0.0331528
0.000124512
0.000472363
0.00106868
0.0017421
0.00241005
0.00307165
0.00372286
0.00436799
0.00501478
0.00566822
0.00633227
0.00701025
0.00770372
0.00841175
0.00913316
0.00986827
0.0106172
0.0113814
0.0121624
0.0129625
0.0137847
0.0146323
0.0155083
0.0164162
0.017359
0.0183392
0.0193594
0.0204203
0.0215228
0.0226661
0.0238491
0.0250721
0.0263361
0.0276421
0.0289907
0.0303806
0.0318077
0.0332666
0.0347545
0.0362749
0.0378386
0.0394662
0.0411574
6.93281e-05
0.00026144
0.00056843
0.000996037
0.00154172
0.00221246
0.00291165
0.00361555
0.00432568
0.00503683
0.00574122
0.00643476
0.00711787
0.00779497
0.00847083
0.00914967
0.00983457
0.0105284
0.0112339
0.0119547
0.0126942
0.0134563
0.0142449
0.0150645
0.0159194
0.0168141
0.0177522
0.018737
0.0197711
0.0208556
0.0219912
0.0231778
0.024415
0.0257027
0.0270404
0.0284271
0.0298592
0.0313326
0.0328427
0.0343882
0.0359729
0.0376065
0.0392945
4.24683e-05
0.000198194
0.000387802
0.000680214
0.00105884
0.00152939
0.00209281
0.00274885
0.0035012
0.00431802
0.0051228
0.00591014
0.00667943
0.00743269
0.00817073
0.0088935
0.009604
0.0103046
0.0109985
0.0116895
0.0123818
0.01308
0.0137898
0.0145174
0.0152692
0.0160521
0.0168728
0.0177378
0.0186534
0.0196241
0.0206536
0.0217446
0.0228981
0.0241148
0.0253945
0.0267351
0.0281344
0.029588
0.0310911
0.0326398
0.0342337
0.0358751
0.0375671
4.19707e-05
0.000175087
0.000347696
0.000593354
0.00090564
0.00129047
0.0017531
0.00229627
0.00292408
0.00364072
0.00444972
0.00529187
0.00613126
0.00695896
0.00777212
0.00857035
0.00935329
0.0101206
0.010872
0.0116082
0.0123302
0.0130404
0.0137422
0.0144403
0.015141
0.0158514
0.0165799
0.0173359
0.0181287
0.0189675
0.019861
0.0208168
0.0218404
0.0229366
0.0241073
0.0253534
0.0266734
0.0280643
0.0295216
0.0310406
0.0326172
0.0342502
0.0359411
3.93276e-05
0.000172535
0.000312655
0.000529859
0.000804888
0.00114081
0.00154296
0.00201594
0.00256232
0.00318557
0.00388928
0.00467783
0.00554715
0.00643223
0.00730979
0.00817408
0.00902351
0.00985781
0.0106761
0.0114778
0.012262
0.0130282
0.0137761
0.0145069
0.0152232
0.0159286
0.0166292
0.0173327
0.0180488
0.0187882
0.0195627
0.0203845
0.021265
0.0222143
0.0232409
0.0243503
0.025546
0.0268282
0.0281949
0.0296416
0.0311642
0.0327583
0.0344209
3.86293e-05
0.000165606
0.00029454
0.000491261
0.000740846
0.00104436
0.00140599
0.00183099
0.00232201
0.00288238
0.00351609
0.00422787
0.00502168
0.00589968
0.00681447
0.00773
0.0086358
0.00952897
0.0104078
0.0112718
0.0121193
0.012949
0.0137591
0.0145486
0.0153169
0.0160641
0.0167917
0.0175036
0.0182054
0.0189053
0.0196138
0.0203434
0.0211083
0.0219231
0.022802
0.0237578
0.0248006
0.0259372
0.0271713
0.0285028
0.0299292
0.0314473
0.0330588
3.78031e-05
0.000163028
0.0002832
0.000461383
0.000692143
0.000972305
0.00130483
0.00169419
0.00214484
0.0026592
0.00324077
0.00389363
0.00462216
0.00543105
0.0063236
0.00726534
0.00821494
0.00915784
0.0100895
0.0110084
0.0119129
0.0128016
0.0136723
0.0145234
0.0153528
0.0161587
0.0169401
0.0176966
0.0184299
0.0191433
0.0198432
0.0205384
0.0212408
0.0219652
0.0227278
0.0235461
0.0244369
0.0254144
0.0264904
0.0276722
0.0289633
0.0303638
0.0318702
3.7411e-05
0.000160591
0.000275737
0.000439103
0.000655041
0.000917115
0.00122731
0.00158956
0.00200864
0.00248709
0.00302798
0.00363515
0.00431289
0.00506536
0.00589771
0.00681308
0.00778118
0.00876133
0.00973743
0.010704
0.0116587
0.0126001
0.0135261
0.0144345
0.0153231
0.0161893
0.0170309
0.0178457
0.0186322
0.0193904
0.0201217
0.0208304
0.0215234
0.0222115
0.0229087
0.0236321
0.0244011
0.0252352
0.0261533
0.0271716
0.0283019
0.0295518
0.0309224
3.70435e-05
0.00015905
0.000270565
0.000421313
0.000625134
0.000872648
0.00116519
0.00150616
0.00189974
0.00234946
0.00285785
0.00342849
0.00406497
0.00477174
0.00555367
0.00641534
0.00735951
0.00835539
0.00936485
0.0103716
0.0113703
0.0123584
0.0133335
0.0142937
0.0152367
0.0161596
0.0170598
0.0179345
0.0187805
0.0195957
0.0203788
0.0211298
0.0218511
0.022548
0.0232298
0.0239092
0.0246035
0.0253328
0.0261193
0.0269856
0.0279517
0.0290346
0.0302457
3.6754e-05
0.00015773
0.000266452
0.000407502
0.000600841
0.000836302
0.00111434
0.00143783
0.00181052
0.00223647
0.00271812
0.00325862
0.00386123
0.00453024
0.00527031
0.00608604
0.00698253
0.00795987
0.00898433
0.0100221
0.0110584
0.0120872
0.013106
0.0141125
0.0151046
0.0160795
0.017034
0.0179653
0.0188701
0.0197448
0.0205866
0.021393
0.022163
0.0228979
0.0236011
0.0242804
0.0249479
0.02562
0.0263174
0.0270644
0.027886
0.0288062
0.0298429
3.6561e-05
0.000156809
0.000263416
0.00039715
0.000580785
0.000805986
0.00107192
0.00138101
0.00173649
0.00214215
0.00260125
0.00311628
0.00369055
0.004328
0.00503279
0.00580955
0.00666339
0.00759857
0.00861156
0.00966572
0.0107312
0.0117954
0.0128529
0.013901
0.0149371
0.0159587
0.0169628
0.0179465
0.0189063
0.0198386
0.0207393
0.0216048
0.0224323
0.0232197
0.0239669
0.0246765
0.025355
0.0260132
0.0266672
0.0273384
0.0280516
0.0288339
0.0297081
3.64274e-05
0.000156178
0.000261199
0.000389557
0.000563957
0.000780302
0.00103593
0.00133262
0.00167339
0.00206202
0.00250198
0.0029954
0.00354545
0.00415579
0.00483055
0.00557416
0.00639112
0.00728619
0.00826407
0.00931381
0.0103974
0.0114902
0.0125818
0.0136668
0.0147423
0.0158062
0.0168554
0.017887
0.0188976
0.0198834
0.0208404
0.0217641
0.0226507
0.0234963
0.0242984
0.025056
0.0257706
0.0264477
0.0270974
0.0277356
0.0283831
0.0290658
0.02981
3.63453e-05
0.000155747
0.000259505
0.000383854
0.000549648
0.000758157
0.00100483
0.00129093
0.00161927
0.00199317
0.00241647
0.00289135
0.00342065
0.00400749
0.00465625
0.00537114
0.00615609
0.00701596
0.00795652
0.00898036
0.010066
0.0111787
0.0122985
0.0134163
0.0145275
0.0156295
0.0167196
0.0177948
0.0188519
0.0198872
0.0208967
0.0218756
0.0228196
0.0237243
0.0245851
0.0253988
0.0261638
0.0268809
0.0275549
0.0281953
0.0288174
0.029442
0.0300957
3.62776e-05
0.000155471
0.000258132
0.000379232
0.000537417
0.000738956
0.000977782
0.00125474
0.00157231
0.00193367
0.00234217
0.00280082
0.00331204
0.00387871
0.00450466
0.00519426
0.00595139
0.00678081
0.00768795
0.00867725
0.00974695
0.0108675
0.0120086
0.0131545
0.0142979
0.0154347
0.0165619
0.0176769
0.0187766
0.0198574
0.0209153
0.0219459
0.0229443
0.023906
0.0248256
0.0256982
0.0265203
0.0272895
0.028006
0.028674
0.0293024
0.029906
0.0305054
3.61988e-05
0.000155148
0.000256943
0.00037545
0.000526893
0.00072202
0.000953943
0.00122292
0.00153103
0.00188128
0.00227698
0.00272133
0.00321661
0.00376559
0.00437169
0.00503915
0.00577183
0.00657437
0.00745162
0.00840873
0.00944967
0.0105638
0.0117175
0.0128862
0.0140578
0.0152262
0.0163875
0.0175391
0.0186778
0.0198004
0.0209032
0.0219816
0.0230313
0.0240469
0.0250232
0.0259546
0.0268359
0.0276627
0.0284322
0.0291443
0.0298021
0.0304135
0.0309924
3.61236e-05
0.000154841
0.00025592
0.000372204
0.000517855
0.00070711
0.000932816
0.00119459
0.00149426
0.00183466
0.00221909
0.00265078
0.00313192
0.00366512
0.00425368
0.00490166
0.00561278
0.00639146
0.00724238
0.00817068
0.00918143
0.0102754
0.0114306
0.0126155
0.0138111
0.0150078
0.0162005
0.0173855
0.0185605
0.0197218
0.020866
0.021989
0.0230864
0.0241529
0.0251832
0.0261714
0.0271116
0.027998
0.0288261
0.0295926
0.0302959
0.0309372
0.0315198
3.6105e-05
0.000154673
0.000255078
0.000369527
0.000510254
0.000693835
0.000913841
0.00116918
0.00146147
0.00179322
0.00216751
0.00258776
0.00305625
0.00357542
0.00414835
0.00477894
0.00547091
0.00622829
0.0070558
0.00795849
0.0089412
0.0100083
0.0111532
0.0123461
0.0135609
0.0147827
0.0160041
0.0172203
0.0184286
0.0196259
0.0208086
0.0219731
0.0231149
0.0242292
0.0253106
0.0263531
0.0273506
0.0282968
0.0291859
0.0300128
0.0307735
0.0314648
0.0320715
3.60878e-05
0.000154572
0.000254398
0.000367244
0.000503931
0.000682018
0.000896712
0.00114615
0.00143168
0.00175568
0.00212094
0.00253077
0.00298791
0.0034945
0.00405357
0.00466864
0.00534318
0.00608137
0.00688801
0.00776762
0.00872495
0.00976542
0.0108905
0.0120821
0.0133099
0.014553
0.0157999
0.0170452
0.0182848
0.0195155
0.0207343
0.0219376
0.0231211
0.02428
0.0254095
0.0265036
0.0275562
0.0285608
0.0295107
0.0303999
0.0312223
0.0319716
0.0326329
3.60554e-05
0.000154423
0.000253713
0.00036523
0.000498583
0.00067124
0.000881008
0.00112511
0.00140442
0.00172122
0.00207824
0.0024787
0.00292555
0.00342076
0.00396722
0.00456814
0.00522715
0.00594808
0.00673581
0.00759443
0.00852881
0.00954457
0.0106457
0.0118267
0.0130604
0.0143201
0.0155899
0.0168617
0.0181305
0.0193926
0.0206451
0.0218847
0.0231072
0.0243082
0.0254828
0.0266256
0.0277304
0.0287903
0.0297985
0.0307479
0.0316304
0.0324367
0.0331539
3.60486e-05
0.000154343
0.000253171
0.000363541
0.000494011
0.000661524
0.000866655
0.00110576
0.00137945
0.00168964
0.00203916
0.00243111
0.00286846
0.00335312
0.003888
0.00447614
0.00512087
0.00582632
0.00659659
0.00743614
0.00834959
0.00934253
0.01042
0.011583
0.0128147
0.0140857
0.0153749
0.0166707
0.0179668
0.0192583
0.0205425
0.0218161
0.0230751
0.0243154
0.0255323
0.0267208
0.0278743
0.0289863
0.0300494
0.0310558
0.0319962
0.0328599
0.0336347
3.6034e-05
0.0001543
0.000252739
0.000362065
0.000490056
0.000652685
0.000853377
0.00108777
0.00135621
0.00166048
0.00200311
0.00238709
0.00281574
0.00329081
0.00381493
0.00439112
0.00502285
0.00571392
0.00646822
0.00729035
0.0081849
0.00915688
0.0102118
0.0113533
0.0125753
0.0138514
0.0151559
0.0164731
0.0177942
0.0191134
0.0204272
0.0217325
0.0230258
0.0243031
0.0255597
0.0267906
0.0279897
0.0291503
0.0302651
0.0313255
0.0323218
0.033243
0.0340768
3.60545e-05
0.000154234
0.000252294
0.000360682
0.000486449
0.000644428
0.000840972
0.00107106
0.00133461
0.00163324
0.00196942
0.00234614
0.00276662
0.00323275
0.00374683
0.0043121
0.00493175
0.00560936
0.00634904
0.00715512
0.00803211
0.00898482
0.0100187
0.0111383
0.0123444
0.0136193
0.0149345
0.0162698
0.0176134
0.0189581
0.0203
0.0216352
0.0229606
0.0242724
0.0255661
0.0268366
0.0280783
0.0292846
0.0304478
0.0315596
0.0326101
0.0335881
0.0344817
3.60308e-05
0.000154099
0.000251826
0.000359399
0.000483208
0.000636894
0.000829464
0.00105539
0.0013142
0.0016076
0.0019379
0.0023078
0.00272047
0.00317815
0.0036831
0.00423818
0.00484651
0.00551174
0.00623788
0.00702887
0.00788929
0.00882418
0.00983834
0.0109369
0.012124
0.013391
0.0147115
0.0160612
0.0174248
0.0187933
0.0201612
0.0215248
0.0228805
0.0242245
0.0255528
0.0268607
0.0281422
0.0293914
0.0306005
0.0317612
0.0328641
0.0338981
0.0348514
3.6041e-05
0.000154045
0.000251454
0.000358274
0.000480303
0.000630043
0.000818701
0.00104061
0.00129505
0.00158355
0.00190817
0.00227159
0.00267695
0.00312685
0.00362325
0.00416877
0.00476651
0.00542016
0.00613355
0.00691051
0.0077555
0.00867351
0.00966924
0.0107481
0.0119149
0.0131684
0.0144889
0.0158488
0.0172298
0.0186199
0.020012
0.0214021
0.0227862
0.0241607
0.0255216
0.0268645
0.0281837
0.0294734
0.0307261
0.0319337
0.0330872
0.0341763
0.035191
3.60411e-05
0.000154004
0.000251121
0.000357197
0.00047758
0.000623822
0.000808639
0.00102671
0.00127705
0.00156082
0.00188014
0.00223753
0.00263592
0.00307827
0.00356647
0.00410299
0.00469101
0.00533384
0.00603511
0.00679891
0.00762945
0.00853156
0.00951017
0.0105702
0.0117171
0.0129536
0.0142679
0.0156341
0.017029
0.0184383
0.0198531
0.021268
0.0226788
0.0240822
0.0254738
0.0268498
0.0282049
0.0295328
0.0308271
0.0320797
0.0332819
0.0344245
0.0354977
3.60476e-05
0.00015396
0.000250807
0.000356233
0.000475206
0.000618217
0.000799092
0.00101349
0.00125983
0.00153912
0.00185346
0.00220515
0.00259702
0.00303225
0.00351274
0.00404076
0.00461938
0.00525186
0.00594177
0.00669306
0.00751003
0.00839736
0.00935972
0.010402
0.0115298
0.0127473
0.014051
0.0154182
0.0168238
0.0182497
0.0196851
0.0211232
0.0225594
0.0239901
0.0254112
0.0268186
0.0282073
0.0295719
0.0309056
0.0322009
0.0334498
0.0346429
0.0357699
3.60546e-05
0.000153923
0.000250518
0.000355357
0.000473031
0.000613103
0.000790165
0.00100104
0.00124358
0.00151864
0.00182808
0.00217423
0.00256
0.00298857
0.00346167
0.00398164
0.00455131
0.00517396
0.00585308
0.00659266
0.00739683
0.00827002
0.00921683
0.0102424
0.0113518
0.0125506
0.0138396
0.0152033
0.0166156
0.0180555
0.0195094
0.0209693
0.0224294
0.0238859
0.025335
0.0267722
0.0281931
0.0295924
0.0309638
0.0322999
0.0335928
0.0348336
0.0360112
3.60646e-05
0.000153902
0.000250277
0.000354576
0.000471051
0.000608498
0.000781718
0.000989039
0.00122794
0.00149893
0.00180377
0.00214483
0.00252491
0.00294697
0.00341286
0.00392507
0.00448628
0.00509952
0.0057685
0.00649705
0.00728896
0.00814858
0.00908082
0.0100903
0.0111826
0.0123632
0.0136352
0.0149908
0.016406
0.0178568
0.0193272
0.020807
0.0222898
0.0237709
0.0252463
0.0267119
0.0281634
0.0295957
0.0310029
0.032378
0.0337133
0.0350002
0.0362292
3.60723e-05
0.000153878
0.000250057
0.000353853
0.000469225
0.000604278
0.000773726
0.000977684
0.00121302
0.00148014
0.00178065
0.00211673
0.0024912
0.00290701
0.00336607
0.0038708
0.00442408
0.00502862
0.0056878
0.00640562
0.00718588
0.00803276
0.00895092
0.00994539
0.0110214
0.0121843
0.0134384
0.0147819
0.016196
0.0176545
0.0191391
0.0206372
0.0221411
0.0236455
0.025146
0.0266388
0.0281197
0.0295835
0.0310249
0.0324372
0.033813
0.0351442
0.0364213
3.60845e-05
0.000153845
0.000249842
0.000353191
0.000467565
0.000600461
0.000766197
0.000966818
0.00119874
0.00146203
0.00175831
0.00208976
0.00245892
0.00286872
0.00332138
0.00381897
0.00436446
0.00496057
0.00561038
0.00631796
0.00708714
0.00792189
0.00882693
0.00980705
0.0108672
0.0120129
0.0132494
0.0145783
0.0159868
0.0174498
0.018946
0.0204606
0.0219843
0.0235107
0.0250352
0.026554
0.0280629
0.029557
0.0310311
0.0324789
0.0338931
0.0352659
0.0365877