/*--------------------------------*- C++ -*----------------------------------*\
| =========                 |                                                 |
| \\      /  F ield         | OpenFOAM: The Open Source CFD Toolbox           |
|  \\    /   O peration     | Version:  2.3.0                                 |
|   \\  /    A nd           | Web:      www.OpenFOAM.org                      |
|    \\/     M anipulation  |                                                 |
\*---------------------------------------------------------------------------*/
FoamFile
{
    version     2.0;
    format      ascii;
    class       surfaceScalarField;
    location    "4000";
    object      phi;
}
// * * * * * * * * * * * * * * * * * * * * * * * * * * * * * * * * * * * * * //

dimensions      [0 3 -1 0 0 0 0];

internalField   nonuniform List<scalar> 
76410
(
-0.00671663
-0.00494853
0.00543772
0.00622744
-0.00716583
-0.00472148
0.00517067
-0.00757429
-0.00450711
0.00491557
-0.0079432
-0.00429869
0.00466761
-0.00827404
-0.00409963
0.00443047
-0.00857015
-0.00390887
0.00420498
-0.00882939
-0.0037243
0.00398354
-0.0090585
-0.00354617
0.00377528
-0.00925479
-0.00337509
0.00357138
-0.00942194
-0.00321017
0.00337732
-0.00955707
-0.00305402
0.00318915
-0.00966355
-0.00290024
0.00300672
-0.00974197
-0.00275481
0.00283324
-0.00979582
-0.00260967
0.00266351
-0.00982166
-0.00247465
0.00250049
-0.00982311
-0.00234116
0.00234261
-0.00980022
-0.00221406
0.00219117
-0.00974985
-0.00208997
0.00203961
-0.00967858
-0.00197038
0.00189911
-0.00958335
-0.00185359
0.00175836
-0.0094643
-0.00174274
0.00162369
-0.00932659
-0.00163104
0.00149333
-0.00916261
-0.00152847
0.00136448
-0.00898413
-0.00142158
0.00124311
-0.00878553
-0.00132177
0.00112317
-0.00856967
-0.00122378
0.00100792
-0.00833773
-0.00112827
0.000896338
-0.00809336
-0.00103376
0.000789385
-0.00783929
-0.000939648
0.000685576
-0.00757708
-0.000851177
0.000588966
-0.0073119
-0.000758992
0.000493814
-0.00704784
-0.000668657
0.000404598
-0.00678819
-0.000581318
0.000321663
-0.00653866
-0.00049
0.000240467
-0.00630743
-0.000398141
0.000166915
-0.00610018
-0.000307026
9.97729e-05
-0.00592742
-0.000210432
3.76697e-05
-0.00579179
-0.000116447
-1.91835e-05
-0.00570757
-1.74152e-05
-6.68024e-05
-0.00568161
8.18162e-05
-0.000107772
-0.00572305
0.000183545
-0.000142108
-0.00583067
0.000274985
-0.000167375
0.000365342
-0.00606762
-0.000128382
-0.00606144
-0.00450893
0.00562185
-0.00646018
-0.00432274
-0.00682517
-0.00414212
-0.00715382
-0.00397005
-0.007452
-0.00380145
-0.00771985
-0.00364101
-0.00795545
-0.0034887
-0.0081645
-0.00333712
-0.00834716
-0.00319244
-0.00850093
-0.0030564
-0.00863492
-0.00292003
-0.00874463
-0.00279053
-0.00883374
-0.0026657
-0.00889795
-0.00254546
-0.00894451
-0.00242809
-0.00897223
-0.00231343
-0.00898332
-0.00220298
-0.00897835
-0.00209494
-0.00895452
-0.00199421
-0.00891915
-0.00188895
-0.00886959
-0.0017923
-0.00880816
-0.00169247
-0.0087371
-0.00159953
-0.00865246
-0.00150622
-0.00856128
-0.00141295
-0.00846108
-0.00132399
-0.00835634
-0.00123301
-0.00824369
-0.00114641
-0.0081263
-0.00105703
-0.00800586
-0.000971617
-0.00788039
-0.000884471
-0.00775061
-0.000798427
-0.00762214
-0.000709792
-0.00748745
-0.000624688
-0.00734743
-0.000538165
-0.0072021
-0.000452358
-0.00704583
-0.000366698
-0.00687959
-0.000282685
-0.00669591
-0.000201093
-0.00649305
-0.000121046
-0.00625902
-5.04918e-05
-0.00599942
1.53862e-05
6.44329e-05
-0.00569851
-0.00546995
-0.00412054
0.00508157
-0.00582444
-0.00396825
-0.00614831
-0.00381825
-0.00644174
-0.00367662
-0.00670413
-0.00353906
-0.00694213
-0.00340302
-0.00715389
-0.00327694
-0.00733879
-0.00315222
-0.00749915
-0.00303208
-0.00764028
-0.00291527
-0.00775753
-0.00280278
-0.00785375
-0.00269431
-0.00793069
-0.00258876
-0.00799239
-0.00248376
-0.00803419
-0.00238628
-0.00806012
-0.00228751
-0.00807038
-0.00219272
-0.00806555
-0.00209978
-0.00804936
-0.0020104
-0.00801889
-0.00191943
-0.00797783
-0.00183336
-0.00792307
-0.00174723
-0.00786041
-0.00166219
-0.00778633
-0.0015803
-0.00770174
-0.00149754
-0.00761147
-0.00141426
-0.00750943
-0.00133506
-0.00740427
-0.00125157
-0.00728943
-0.00117186
-0.00716971
-0.00109134
-0.00704351
-0.00101067
-0.00691353
-0.00092841
-0.00677538
-0.000847943
-0.00663461
-0.000765459
-0.00648905
-0.000683727
-0.0063364
-0.000605009
-0.0061779
-0.000525198
-0.00601333
-0.000447248
-0.00584044
-0.000373988
-0.00565802
-0.000303462
-0.00546654
-0.000241977
-0.00526352
-0.000187635
-0.000144518
-0.00505457
-0.00493442
-0.00377672
0.0045906
-0.00525329
-0.00364939
-0.00553865
-0.00353289
-0.00580269
-0.00341257
-0.00603782
-0.00330393
-0.00624816
-0.00319268
-0.00643698
-0.00308812
-0.00660177
-0.00298743
-0.00674587
-0.00288798
-0.00686894
-0.0027922
-0.00697429
-0.00269743
-0.00706087
-0.00260774
-0.00713233
-0.0025173
-0.00718252
-0.00243357
-0.00722036
-0.00234844
-0.00724587
-0.002262
-0.00725481
-0.00218378
-0.00725074
-0.00210385
-0.00723405
-0.00202708
-0.00720507
-0.00194841
-0.00716582
-0.00187261
-0.00711837
-0.00179469
-0.00705786
-0.0017227
-0.0069914
-0.00164676
-0.0069158
-0.00157314
-0.00683134
-0.00149871
-0.00674152
-0.00142488
-0.00664331
-0.00134978
-0.00653834
-0.00127683
-0.00642679
-0.0012029
-0.00631167
-0.00112578
-0.00618931
-0.00105077
-0.00605928
-0.00097797
-0.00592555
-0.000899194
-0.00578362
-0.000825655
-0.00563768
-0.000750953
-0.00548574
-0.000677137
-0.00532785
-0.000605141
-0.0051649
-0.000536932
-0.00499474
-0.000473622
-0.00482171
-0.000415007
-0.0046463
-0.000363047
-0.000320662
-0.00447015
-0.004454
-0.00346546
0.00414274
-0.00473649
-0.0033669
-0.00499532
-0.00327405
-0.00522757
-0.00318033
-0.00543881
-0.00309269
-0.00562751
-0.00300398
-0.00579311
-0.00292252
-0.005942
-0.00283854
-0.00607161
-0.00275837
-0.00618374
-0.00268007
-0.00627611
-0.00260506
-0.00635318
-0.00253066
-0.00641257
-0.00245791
-0.00646122
-0.00238492
-0.00649465
-0.00231502
-0.00651135
-0.0022453
-0.00651823
-0.0021769
-0.00651402
-0.00210806
-0.0064991
-0.002042
-0.00647364
-0.00197387
-0.00643795
-0.0019083
-0.00638906
-0.00184358
-0.00633383
-0.00177793
-0.0062708
-0.00170978
-0.00620183
-0.00164212
-0.00612228
-0.00157825
-0.00603729
-0.00150987
-0.00594367
-0.00144341
-0.00584644
-0.00137406
-0.00574275
-0.00130659
-0.00563224
-0.00123629
-0.00551849
-0.00116452
-0.00539994
-0.00109652
-0.00527478
-0.00102435
-0.00514677
-0.000953669
-0.0050134
-0.000884326
-0.00487641
-0.000814123
-0.00473497
-0.000746578
-0.00458862
-0.00068328
-0.00444032
-0.000621925
-0.00428914
-0.000566187
-0.00413519
-0.000517
-0.000473722
-0.00398213
-0.00402117
-0.00318873
0.00374444
-0.00427354
-0.00311454
-0.00450505
-0.00304254
-0.00471404
-0.00297134
-0.00490273
-0.00290399
-0.00507189
-0.00283483
-0.0052234
-0.00277101
-0.005356
-0.00270594
-0.00547035
-0.00264402
-0.00556811
-0.00258232
-0.00565429
-0.00251887
-0.00572158
-0.00246338
-0.00577833
-0.00240115
-0.00581958
-0.00234367
-0.00584906
-0.00228554
-0.00586586
-0.00222849
-0.00587151
-0.00217124
-0.00586643
-0.00211314
-0.00585079
-0.00205764
-0.0058249
-0.00199975
-0.00579059
-0.00194261
-0.00574806
-0.00188611
-0.00569904
-0.00182695
-0.00564086
-0.00176797
-0.00557369
-0.00170929
-0.0055007
-0.00165125
-0.00542363
-0.00158693
-0.00533809
-0.00152895
-0.00524887
-0.00146328
-0.00515331
-0.00140215
-0.00505414
-0.00133546
-0.00494676
-0.00127189
-0.00483812
-0.00120516
-0.00472564
-0.00113683
-0.004606
-0.00107331
-0.00448609
-0.00100423
-0.00436041
-0.000939804
-0.00423289
-0.000874095
-0.00410115
-0.000815017
-0.00396634
-0.000756737
-0.00383089
-0.000701643
-0.00369391
-0.000653979
-0.000609829
-0.0035578
-0.00363204
-0.00294189
0.00338521
-0.00385845
-0.00288813
-0.00406667
-0.00283432
-0.00425548
-0.00278253
-0.0044251
-0.00273437
-0.00457561
-0.00268432
-0.0047114
-0.00263521
-0.00482884
-0.0025885
-0.00493503
-0.00253783
-0.00502368
-0.00249367
-0.0050968
-0.00244575
-0.00516091
-0.00239927
-0.00521019
-0.00235188
-0.00524765
-0.0023062
-0.00527237
-0.00226083
-0.00528771
-0.00221315
-0.00529234
-0.00216662
-0.00528646
-0.00211902
-0.00527337
-0.00207074
-0.00525038
-0.00202274
-0.00521922
-0.00197376
-0.00517996
-0.00192538
-0.00513261
-0.00187431
-0.00507904
-0.00182153
-0.00501856
-0.00176976
-0.00495381
-0.001716
-0.00487873
-0.00166201
-0.00480464
-0.00160303
-0.00472052
-0.00154741
-0.00463297
-0.00148969
-0.00454058
-0.00142786
-0.00444519
-0.00136728
-0.00434571
-0.00130464
-0.00423945
-0.0012431
-0.0041344
-0.00117836
-0.00402392
-0.00111472
-0.00391031
-0.00105341
-0.00379325
-0.000991161
-0.00367495
-0.000933314
-0.00355645
-0.000875239
-0.0034323
-0.000825796
-0.00330986
-0.000776412
-0.000734286
-0.00318541
-0.00328305
-0.00271634
0.00305749
-0.00348914
-0.00268204
-0.003673
-0.00265046
-0.00384117
-0.00261436
-0.00399442
-0.00258113
-0.00413067
-0.00254806
-0.00425229
-0.00251359
-0.0043602
-0.00248059
-0.00445264
-0.00244538
-0.00453435
-0.00241197
-0.00460085
-0.00237925
-0.00465809
-0.00234202
-0.00470036
-0.00230961
-0.00473456
-0.00227201
-0.00475766
-0.00223772
-0.00477167
-0.00219914
-0.00477546
-0.00216283
-0.00477043
-0.00212405
-0.00475856
-0.00208261
-0.00473683
-0.00204447
-0.00470729
-0.0020033
-0.00467322
-0.00195945
-0.00463247
-0.00191505
-0.0045804
-0.0018736
-0.00452662
-0.00182354
-0.00446745
-0.00177517
-0.00440212
-0.00172735
-0.00432874
-0.00167642
-0.0042527
-0.00162344
-0.00417369
-0.00156871
-0.00408972
-0.00151183
-0.00400258
-0.00145442
-0.00390937
-0.00139785
-0.00381691
-0.00133556
-0.00371739
-0.00127788
-0.0036168
-0.00121531
-0.00351551
-0.00115469
-0.00341006
-0.00109662
-0.00330407
-0.0010393
-0.00319278
-0.000986533
-0.00308149
-0.000937084
-0.00296957
-0.000888335
-0.000845934
-0.00285792
-0.00296599
-0.00251732
0.00276697
-0.00314959
-0.00249844
-0.00331961
-0.00248044
-0.00347226
-0.00246171
-0.00361027
-0.00244312
-0.0037306
-0.00242773
-0.00384035
-0.00240383
-0.0039378
-0.00238314
-0.00402278
-0.0023604
-0.00409529
-0.00233946
-0.0041577
-0.00231684
-0.00420575
-0.00229397
-0.00424878
-0.00226658
-0.00427908
-0.00224171
-0.004301
-0.0022158
-0.00431273
-0.00218741
-0.00431571
-0.00215984
-0.00431193
-0.00212783
-0.0042996
-0.00209494
-0.00428065
-0.00206342
-0.00425554
-0.00202841
-0.00422299
-0.001992
-0.00418192
-0.00195613
-0.00413794
-0.00191758
-0.00408704
-0.00187444
-0.00403336
-0.00182886
-0.00397222
-0.00178848
-0.00390813
-0.0017405
-0.00383936
-0.00169222
-0.00376651
-0.00164155
-0.00368944
-0.0015889
-0.00360949
-0.00153437
-0.00352801
-0.00147933
-0.00343952
-0.00142405
-0.00335075
-0.00136665
-0.00325847
-0.00130759
-0.00316399
-0.00124917
-0.00306878
-0.00119182
-0.00297204
-0.00113605
-0.00287347
-0.0010851
-0.00277331
-0.00103724
-0.00266941
-0.000992236
-0.00256868
-0.000946662
-0.0055753
0.000423453
-0.000915781
-0.00524088
0.000411822
-0.000746242
-0.00497678
0.000384525
-0.000648625
-0.00475153
0.000352819
-0.000578065
-0.0045535
0.000318612
-0.00051664
-0.00437158
0.000280479
-0.000462401
-0.00420275
0.00024297
-0.000411796
-0.00404079
0.000201765
-0.000363727
-0.00388658
0.000161884
-0.000316093
-0.00373713
0.000120085
-0.000269538
-0.00359221
7.98552e-05
-0.000224774
-0.00344891
3.67889e-05
-0.000180091
-0.00330979
-4.94673e-06
-0.000134173
-0.0031729
-4.85647e-05
-8.83273e-05
-0.00303913
-9.11447e-05
-4.26251e-05
-0.00290841
-0.000135212
4.4982e-06
-0.00277994
-0.000181193
5.27215e-05
-0.00265593
-0.000225985
0.000101972
-0.00253503
-0.000273654
0.000152757
-0.00241848
-0.00032203
0.00020548
-0.00230536
-0.00037223
0.000259112
-0.00219669
-0.000424409
0.000315741
-0.00209307
-0.000477916
0.000374289
-0.00199496
-0.00053312
0.000435011
-0.00190299
-0.000590717
0.000498753
-0.00181774
-0.000651018
0.000565762
-0.00173934
-0.000713363
0.000634963
-0.00166905
-0.000778137
0.000707852
-0.00160722
-0.000846566
0.000784736
-0.00155455
-0.000917167
0.000864498
-0.00151197
-0.000991816
0.000949236
-0.00148106
-0.00106842
0.00103751
-0.00146218
-0.00114947
0.00113059
-0.00145594
-0.00123457
0.00122833
-0.00146376
-0.00132299
0.00133081
-0.00148693
-0.00141532
0.00143849
-0.00152608
-0.00151298
0.00155214
-0.00158285
-0.00161419
0.00167095
-0.00165725
-0.00172153
0.00179594
-0.00175286
-0.00183264
0.00192825
-0.00186825
-0.00195051
0.0020659
-0.00200709
-0.002073
0.00221185
-0.00220238
0.00236361
-0.00216833
-0.00537337
9.8314e-05
-0.00507897
0.000117425
-0.00481363
0.00011918
-0.00457487
0.000114064
-0.00435545
9.91916e-05
-0.00415475
7.97802e-05
-0.00396732
5.55415e-05
-0.00379312
2.7556e-05
-0.00362902
-2.21032e-06
-0.00347258
-3.63556e-05
-0.00332337
-6.93598e-05
-0.00318041
-0.000106169
-0.00304205
-0.000143308
-0.00291022
-0.000180387
-0.00278227
-0.000219098
-0.00265756
-0.000259921
-0.00253865
-0.00030011
-0.00242184
-0.000342795
-0.00230977
-0.000385723
-0.00220163
-0.000430172
-0.00209772
-0.000476141
-0.00199997
-0.000522159
-0.00190632
-0.000571558
-0.00181825
-0.000621189
-0.00173614
-0.000672833
-0.0016606
-0.000726554
-0.00159149
-0.000782476
-0.00153027
-0.000839352
-0.0014774
-0.000899437
-0.00143316
-0.00096141
-0.00139937
-0.0010256
-0.00137512
-0.00109268
-0.0013618
-0.00116279
-0.00136079
-0.00123558
-0.00137258
-0.0013112
-0.00139749
-0.00139041
-0.00143703
-0.00147345
-0.00149238
-0.00155883
-0.00156438
-0.00164954
-0.00165344
-0.00174358
-0.00176173
-0.00184222
-0.00188984
-0.00194489
-0.00205219
-0.00204003
-0.00484447
-0.000111784
-0.00463268
-9.43657e-05
-0.00443018
-8.33174e-05
-0.00423555
-8.05688e-05
-0.0040496
-8.67615e-05
-0.00387191
-9.79033e-05
-0.00370236
-0.000114015
-0.00354063
-0.000134172
-0.00338561
-0.000157228
-0.00323743
-0.000184531
-0.00309337
-0.000213421
-0.00295685
-0.00024269
-0.00282427
-0.000275892
-0.002696
-0.000308655
-0.00257125
-0.000343845
-0.0024522
-0.00037897
-0.00233716
-0.000415148
-0.00222611
-0.000453853
-0.00211984
-0.00049199
-0.00201783
-0.000532177
-0.00192192
-0.000572056
-0.00182924
-0.000614839
-0.00174325
-0.000657545
-0.00166274
-0.000701702
-0.00158746
-0.000748113
-0.00151932
-0.000794696
-0.00145872
-0.000843069
-0.0014042
-0.000893878
-0.0013583
-0.000945339
-0.00132095
-0.000998759
-0.00129216
-0.00105439
-0.00127325
-0.00111159
-0.00126425
-0.00117178
-0.00126657
-0.00123326
-0.00128027
-0.00129751
-0.00130625
-0.00136443
-0.00134539
-0.00143431
-0.00139862
-0.0015056
-0.00146682
-0.00158134
-0.00155049
-0.0016599
-0.00165156
-0.00174115
-0.00176983
-0.00182662
-0.00191501
-0.00190701
-0.0042932
-0.000288738
-0.00411942
-0.000268143
-0.00394927
-0.000253472
-0.00378282
-0.000247023
-0.00362307
-0.000246511
-0.00346874
-0.000252231
-0.00331941
-0.000263346
-0.00317501
-0.000278564
-0.00303623
-0.000296016
-0.00290228
-0.000318475
-0.00277363
-0.000342077
-0.00264771
-0.000368603
-0.00252853
-0.000395079
-0.00241276
-0.000424418
-0.00230127
-0.00045534
-0.00219314
-0.000487099
-0.00208882
-0.000519465
-0.00199007
-0.000552611
-0.00189507
-0.000586982
-0.00180481
-0.000622437
-0.00171873
-0.000658142
-0.00163777
-0.000695795
-0.00156168
-0.000733633
-0.00149066
-0.00077273
-0.00142661
-0.000812161
-0.00136767
-0.000853633
-0.00131502
-0.000895715
-0.00126985
-0.000939051
-0.00123126
-0.000983929
-0.00120103
-0.00102899
-0.00117858
-0.00107684
-0.0011651
-0.00112508
-0.00116101
-0.00117586
-0.00116644
-0.00122784
-0.0011827
-0.00128124
-0.00120982
-0.00133731
-0.00124982
-0.00139432
-0.00130109
-0.00145433
-0.00136613
-0.0015163
-0.00144582
-0.00158021
-0.00154006
-0.00164692
-0.00164952
-0.00171716
-0.00178893
-0.0017756
-0.00382989
-0.000440973
-0.00368047
-0.000417564
-0.00353193
-0.000402016
-0.00338743
-0.000391515
-0.00324569
-0.000388251
-0.00310884
-0.000389086
-0.00297621
-0.000395978
-0.00284727
-0.000407502
-0.00272202
-0.000421269
-0.00260196
-0.00043853
-0.0024854
-0.000458641
-0.00237369
-0.000480317
-0.00226424
-0.000504528
-0.00215846
-0.000530193
-0.00205781
-0.000555987
-0.00196098
-0.000583931
-0.00186816
-0.000612286
-0.00177846
-0.000642308
-0.00169308
-0.000672369
-0.00161295
-0.00070256
-0.00153577
-0.000735321
-0.00146357
-0.000767996
-0.00139647
-0.000800736
-0.00133479
-0.000834412
-0.00127743
-0.000869524
-0.00122698
-0.000904079
-0.00118157
-0.000941124
-0.00114371
-0.000976914
-0.00111173
-0.00101591
-0.00108693
-0.00105379
-0.00107033
-0.00109343
-0.0010611
-0.00113431
-0.0010605
-0.00117647
-0.00106962
-0.00121872
-0.00108715
-0.00126371
-0.00111621
-0.00130825
-0.00115435
-0.00135617
-0.0012048
-0.00140388
-0.00126706
-0.00145404
-0.00134162
-0.00150565
-0.0014294
-0.00155914
-0.00153158
-0.00161498
-0.001672
-0.0016485
-0.00342183
-0.000576939
-0.00328674
-0.000552654
-0.00315577
-0.000532987
-0.00302674
-0.000520552
-0.00290113
-0.000513857
-0.00277789
-0.000512331
-0.00265841
-0.000515457
-0.00254388
-0.000522027
-0.00243178
-0.000533368
-0.00232293
-0.000547383
-0.00221814
-0.000563429
-0.00211712
-0.000581343
-0.00201904
-0.000602599
-0.00192539
-0.000623847
-0.00183444
-0.000646936
-0.0017476
-0.000670769
-0.00166343
-0.000696462
-0.00158394
-0.000721793
-0.00150754
-0.000748768
-0.00143518
-0.000774924
-0.00136716
-0.00080334
-0.00130425
-0.000830908
-0.00124455
-0.000860427
-0.00119005
-0.000888914
-0.00114161
-0.000917971
-0.00109733
-0.000948354
-0.00105909
-0.000979363
-0.00102628
-0.00100973
-0.00100021
-0.00104197
-0.000980557
-0.00107344
-0.0009678
-0.00110619
-0.000962949
-0.00113916
-0.000965741
-0.00117368
-0.000976045
-0.00120841
-0.000996334
-0.00124342
-0.00102397
-0.00128061
-0.00106262
-0.00131753
-0.0011111
-0.0013554
-0.00117048
-0.00139466
-0.00124096
-0.00143516
-0.0013231
-0.001477
-0.00141873
-0.00151935
-0.00156431
-0.00152643
-0.00306335
-0.000699
-0.00294348
-0.000672522
-0.00282414
-0.000652319
-0.00270866
-0.000636034
-0.00259514
-0.00062738
-0.00248542
-0.000622047
-0.00237799
-0.000622894
-0.00227387
-0.000626138
-0.00217318
-0.000634058
-0.00207581
-0.000644754
-0.00198094
-0.000658301
-0.00188926
-0.000673027
-0.00180193
-0.000689926
-0.00171617
-0.000709608
-0.00163471
-0.000728394
-0.00155645
-0.00074903
-0.0014816
-0.000771315
-0.00140948
-0.000793909
-0.00134268
-0.000815574
-0.00127783
-0.00083977
-0.00121744
-0.000863732
-0.00116053
-0.000887819
-0.00110879
-0.000912164
-0.00106096
-0.000936748
-0.00101817
-0.000960753
-0.000979833
-0.000986696
-0.000947588
-0.00101161
-0.000919473
-0.00103784
-0.0008983
-0.00106315
-0.000883134
-0.00108861
-0.00087415
-0.00111518
-0.000872219
-0.00114109
-0.000877143
-0.00116875
-0.000889342
-0.00119622
-0.000909284
-0.00122348
-0.000938242
-0.00125165
-0.000975377
-0.00128039
-0.00102177
-0.00130901
-0.001078
-0.00133843
-0.00114451
-0.00136865
-0.00122126
-0.00140024
-0.00130968
-0.00143093
-0.00146401
-0.00140997
-0.00274758
-0.000809342
-0.0026387
-0.000781394
-0.00253156
-0.000759459
-0.00242616
-0.000741435
-0.00232513
-0.000728415
-0.00222511
-0.000722068
-0.00212843
-0.000719571
-0.00203436
-0.000720207
-0.00194329
-0.000725126
-0.00185487
-0.00073318
-0.00177047
-0.000742693
-0.00168753
-0.000755976
-0.00160836
-0.000769091
-0.00153206
-0.000785906
-0.00145856
-0.000801901
-0.00138731
-0.000820277
-0.00131999
-0.000838639
-0.00125675
-0.000857149
-0.00119528
-0.000877043
-0.0011381
-0.000896942
-0.00108376
-0.000918073
-0.00103343
-0.00093815
-0.000987809
-0.000957788
-0.000945856
-0.000978701
-0.000907833
-0.000998776
-0.000875376
-0.00101915
-0.000847639
-0.00103935
-0.00082397
-0.00106151
-0.000806422
-0.0010807
-0.000794357
-0.00110067
-0.000788876
-0.00112066
-0.000788507
-0.00114146
-0.000794897
-0.00116236
-0.000807954
-0.00118316
-0.000828667
-0.00120277
-0.000856749
-0.00122357
-0.000892794
-0.00124435
-0.000937069
-0.00126473
-0.000990144
-0.00128536
-0.00105232
-0.00130648
-0.00112459
-0.00132797
-0.00120589
-0.00134963
-0.00137146
-0.00129845
-0.00247107
-0.00090695
-0.00237111
-0.000881356
-0.00227223
-0.000858338
-0.00217759
-0.000836074
-0.0020852
-0.00082081
-0.00199595
-0.000811316
-0.00190804
-0.000807484
-0.00182274
-0.0008055
-0.00174014
-0.000807724
-0.00165997
-0.000813355
-0.00158402
-0.00081864
-0.00150938
-0.000830623
-0.00143677
-0.000841692
-0.00136787
-0.000854814
-0.00130081
-0.000868961
-0.00123856
-0.00088252
-0.00117741
-0.000899793
-0.00111961
-0.000914952
-0.00106576
-0.00093089
-0.00101265
-0.000950048
-0.000965704
-0.000965022
-0.00092099
-0.000982864
-0.000879128
-0.000999649
-0.000842545
-0.00101528
-0.000810236
-0.00103109
-0.000782917
-0.00104647
-0.000757847
-0.00106442
-0.000737774
-0.00108158
-0.000723708
-0.00109476
-0.000714673
-0.00110971
-0.000710928
-0.0011244
-0.0007123
-0.00114009
-0.000719642
-0.00115502
-0.000733727
-0.00116907
-0.000753797
-0.0011827
-0.000781562
-0.0011958
-0.000816239
-0.00120967
-0.000858545
-0.00122243
-0.000908362
-0.00123554
-0.000966286
-0.00124855
-0.00103327
-0.00126099
-0.00110866
-0.00127424
-0.00119309
-0.00128702
0.00107958
0.000359083
-0.000365208
-0.00107345
0.00108959
0.000383038
-0.000393048
0.00110298
0.000404163
-0.000417558
0.00111921
0.000422742
-0.000438971
0.00113708
0.000439379
-0.000457244
0.00115686
0.000453288
-0.000473068
0.00117702
0.000465445
-0.000485606
0.00119726
0.000475569
-0.000495809
0.00121685
0.000484253
-0.000503842
0.00123587
0.000491277
-0.000510295
0.00125343
0.000496481
-0.000514046
0.00126938
0.00050067
-0.000516623
0.00128325
0.000503314
-0.000517182
0.00129502
0.000505215
-0.000516986
0.00130388
0.000505837
-0.000514699
0.00130993
0.00050564
-0.00051169
0.00131278
0.000504754
-0.000507602
0.00131308
0.000502435
-0.000502734
0.00130953
0.00050016
-0.000496607
0.00130297
0.000496986
-0.000490425
0.00129255
0.000493419
-0.000482999
0.00127901
0.000489105
-0.000475566
0.00126169
0.000484591
-0.000467276
0.00124105
0.000479442
-0.000458799
0.00121636
0.00047452
-0.00044983
0.0011887
0.000468911
-0.000441246
0.00115765
0.000462845
-0.000431803
0.00112249
0.00045723
-0.000422067
0.00108417
0.000451106
-0.000412786
0.00104242
0.000444827
-0.000403072
0.000997657
0.000438523
-0.000393764
0.00094983
0.000432132
-0.000384305
0.000898859
0.000425626
-0.000374655
0.000845051
0.00041922
-0.000365412
0.000788091
0.000413127
-0.000356168
0.000727969
0.00040694
-0.000346817
0.000664469
0.000401361
-0.000337862
0.000595677
0.000397609
-0.000328818
0.000518699
0.000397275
-0.000320296
0.000422956
0.000407504
-0.000311762
0.0002835
0.000447016
-0.00030756
2.67032e-05
0.00057847
-0.000321674
0.000999963
-0.00057905
-0.000394209
0.000977976
0.000349975
-0.000968867
0.000990577
0.000370437
0.0010054
0.000389342
0.00102246
0.00040568
0.00104131
0.00042053
0.00106056
0.000434033
0.00108069
0.000445323
0.00110037
0.000455886
0.00111973
0.000464888
0.00113828
0.000472732
0.00115552
0.000479238
0.00117139
0.000484805
0.00118513
0.000489572
0.00119703
0.000493312
0.00120645
0.000496418
0.00121347
0.000498617
0.00121817
0.000500055
0.00121943
0.000501182
0.00121837
0.000501213
0.00121392
0.000501441
0.00120654
0.000500801
0.00119545
0.00050019
0.00118132
0.00049872
0.00116371
0.000497058
0.00114289
0.00049534
0.00111859
0.000493203
0.00109052
0.000490915
0.00105905
0.000488703
0.00102426
0.000485896
0.000985464
0.000483623
0.000943301
0.000480687
0.000897313
0.00047812
0.000847549
0.00047539
0.000793652
0.000473118
0.000734859
0.00047192
0.000670509
0.00047129
0.000597835
0.000474036
0.000513908
0.000481536
0.000409422
0.00050176
0.000267362
0.000549564
5.4597e-05
0.000659781
-0.000292009
0.000925075
0.00149585
-0.000787897
0.000884656
0.000338793
-0.000873473
0.000898649
0.000356444
0.000914835
0.000373156
0.000932171
0.000388344
0.00095062
0.000402081
0.000969897
0.000414755
0.000989175
0.000426046
0.0010086
0.000436456
0.00102737
0.000446118
0.00104538
0.000454725
0.00106189
0.00046273
0.00107718
0.000469519
0.00109093
0.000475823
0.00110279
0.000481451
0.00111249
0.000486717
0.00112003
0.000491079
0.00112491
0.00049517
0.00112726
0.000498832
0.00112641
0.000502059
0.0011234
0.000504449
0.00111748
0.000506726
0.00110831
0.000509362
0.00109643
0.000510597
0.00108096
0.000512532
0.00106227
0.000514027
0.00104014
0.000515334
0.00101459
0.000516466
0.000985596
0.000517696
0.000952968
0.000518524
0.000916823
0.000519768
0.000876284
0.000521225
0.0008316
0.000522804
0.000782168
0.000524822
0.000726538
0.000528748
0.00066489
0.000533568
0.00059419
0.00054199
0.000512083
0.000556142
0.000411141
0.000582479
0.000281516
0.000631385
0.000106593
0.000724486
-0.000143607
0.000909981
-0.000502335
0.0012838
0.00192098
-0.00092746
0.00079893
0.000326347
-0.000786484
0.000813252
0.000342122
0.000829273
0.000357136
0.000846853
0.000370763
0.000864626
0.000384309
0.0008834
0.000395981
0.000901715
0.00040773
0.000919789
0.000418382
0.000937585
0.000428322
0.000954379
0.000437932
0.000970166
0.000446943
0.000984615
0.00045507
0.000997392
0.000463047
0.00100864
0.000470199
0.00101799
0.000477376
0.00102489
0.000484171
0.00102982
0.000490243
0.00103254
0.000496114
0.00103283
0.000501765
0.00103015
0.000507136
0.00102451
0.000512367
0.0010167
0.000517167
0.0010057
0.0005216
0.000991919
0.000526309
0.000974824
0.000531122
0.000954779
0.00053538
0.000931535
0.000539709
0.000904506
0.000544725
0.000873581
0.000549449
0.000839352
0.000553997
0.000800048
0.000560529
0.000756409
0.000566443
0.000706638
0.000574592
0.000650802
0.000584584
0.000586327
0.000598043
0.000511212
0.000617105
0.000420794
0.00064656
0.000309639
0.000693634
0.000167303
0.000773722
-2.17025e-05
0.000913491
-0.000278353
0.00116663
-0.000614343
0.00161979
0.00229289
-0.000986254
0.000720056
0.000313005
-0.000706714
0.000734606
0.000327572
0.00075052
0.000341222
0.000767197
0.000354086
0.000784781
0.000366725
0.000801874
0.000378888
0.000819455
0.000390149
0.000836476
0.000401361
0.000852627
0.000412171
0.000868228
0.00042233
0.000882984
0.000432187
0.000896293
0.000441761
0.000908233
0.000451107
0.00091846
0.000459972
0.000926835
0.000469001
0.000933846
0.00047716
0.000938506
0.000485583
0.000940917
0.000493703
0.000941038
0.000501644
0.000938864
0.000509309
0.000933967
0.000517264
0.000927013
0.000524121
0.000916755
0.000531858
0.000903938
0.000539126
0.00088813
0.00054693
0.000869639
0.000553871
0.000847147
0.000562202
0.000821827
0.000570045
0.000793009
0.000578267
0.00075936
0.000587645
0.000721997
0.000597893
0.00067872
0.00060972
0.00063001
0.000623303
0.000573783
0.000640812
0.000508483
0.000663343
0.000430946
0.000694642
0.000337718
0.000739788
0.000221918
0.000809435
7.65674e-05
0.000919072
-0.000112888
0.00110295
-0.000359698
0.00141344
-0.000668382
0.00192848
0.00262178
-0.000997272
0.000647723
0.000299078
-0.000633797
0.00066293
0.000312366
0.000678236
0.000325916
0.000694094
0.000338228
0.000710385
0.000350434
0.000726822
0.000362452
0.00074267
0.000374301
0.000758394
0.000385636
0.000773669
0.000396896
0.000788215
0.000407784
0.000801438
0.000418964
0.000813769
0.00042943
0.000824646
0.00044023
0.000834189
0.000450428
0.000842139
0.000461052
0.000848
0.000471299
0.000852192
0.000481391
0.00085461
0.000491285
0.000854595
0.00050166
0.000852411
0.000511492
0.000847938
0.000521738
0.000840921
0.000531138
0.000831311
0.000541469
0.000819411
0.000551026
0.000804882
0.000561458
0.000786578
0.000572175
0.000766177
0.000582604
0.000741765
0.000594457
0.00071391
0.000606122
0.000682064
0.000619492
0.000645904
0.000634053
0.00060487
0.000650753
0.000556612
0.00067156
0.0005018
0.000695624
0.000437118
0.000728025
0.000360056
0.000771705
0.000266662
0.000833182
0.00015157
0.000924526
7.03744e-06
0.0010636
-0.000175064
0.00128505
-0.000406092
0.00164447
-0.00068379
0.00220618
0.00291939
-0.000981406
0.000583217
0.000285514
-0.000569652
0.00059705
0.000298532
0.000611932
0.000311034
0.000627187
0.000322973
0.000642548
0.000335073
0.000657657
0.000347343
0.000672593
0.000359365
0.000686819
0.000371411
0.000700787
0.000382928
0.000713836
0.000394735
0.000726072
0.000406728
0.000736989
0.000418513
0.000747073
0.000430146
0.000755426
0.000442075
0.000762543
0.000453935
0.000768174
0.000465668
0.000772301
0.000477263
0.000774004
0.000489581
0.0007743
0.000501364
0.000771992
0.0005138
0.000767664
0.000526067
0.000760984
0.000537817
0.000752074
0.000550379
0.000740358
0.000562743
0.000726347
0.000575469
0.000709627
0.000588895
0.000689539
0.000602691
0.000666808
0.000617188
0.000639807
0.000633122
0.000609491
0.000649808
0.000574688
0.000668857
0.000534801
0.00069064
0.000489451
0.00071691
0.000435888
0.000749187
0.000373531
0.000790381
0.000299567
0.000845669
0.00020909
0.00092366
9.70489e-05
0.00103657
-4.25775e-05
0.00120323
-0.000215449
0.00145792
-0.000430132
0.00185915
-0.000684047
0.00246009
0.00318383
-0.000948489
0.000523961
0.000272105
-0.000510552
0.000537815
0.000284678
0.000551808
0.000297041
0.000566029
0.000308752
0.000580252
0.00032085
0.000594259
0.000333336
0.000607779
0.000345846
0.000621407
0.000357782
0.000633995
0.000370339
0.000645885
0.000382845
0.000656822
0.00039579
0.000666957
0.000408378
0.000675927
0.000421175
0.000683848
0.000434154
0.00069045
0.000447333
0.000695189
0.000460929
0.000698439
0.000474013
0.000700412
0.000487609
0.000700392
0.000501384
0.000698522
0.000515671
0.000694199
0.00053039
0.00068768
0.000544336
0.000679387
0.000558672
0.000668361
0.000573768
0.000654774
0.000589057
0.000638974
0.000604694
0.000620069
0.000621596
0.000598015
0.000639242
0.000573091
0.000658047
0.000543579
0.000679319
0.000510272
0.000702164
0.000472478
0.000728433
0.000428852
0.000760536
0.0003777
0.000800339
0.000317449
0.000850633
0.000247112
0.000916006
0.000161768
0.001009
5.33657e-05
0.00114497
-8.13431e-05
0.00133794
-0.000239623
0.0016162
-0.000434797
0.00205433
-0.000664653
0.00268995
0.00341713
-0.00089795
0.000470896
0.000258379
-0.00045717
0.000484067
0.000271507
0.000497114
0.000283994
0.000510629
0.000295237
0.000523877
0.000307602
0.00053684
0.000320373
0.000549107
0.000333578
0.000560938
0.000345951
0.000572638
0.00035864
0.000583613
0.00037187
0.000593489
0.000385914
0.000602414
0.000399453
0.000610519
0.00041307
0.000617591
0.000427082
0.000623245
0.000441679
0.0006274
0.000456774
0.000630403
0.00047101
0.000632188
0.000485823
0.000632282
0.00050129
0.000629914
0.000518038
0.00062627
0.000534034
0.00062002
0.000550586