/*--------------------------------*- C++ -*----------------------------------*\
| =========                 |                                                 |
| \\      /  F ield         | OpenFOAM: The Open Source CFD Toolbox           |
|  \\    /   O peration     | Version:  2.3.0                                 |
|   \\  /    A nd           | Web:      www.OpenFOAM.org                      |
|    \\/     M anipulation  |                                                 |
\*---------------------------------------------------------------------------*/
FoamFile
{
    version     2.0;
    format      ascii;
    class       volVectorField;
    location    "4000";
    object      U;
}
// * * * * * * * * * * * * * * * * * * * * * * * * * * * * * * * * * * * * * //

dimensions      [0 1 -1 0 0 0 0];

internalField   nonuniform List<vector> 
38375
(
(19.9813 13.7878 6.4133e-22)
(19.8434 13.994 -7.97014e-21)
(19.7 14.2023 1.05742e-20)
(19.5509 14.4103 -1.07272e-20)
(19.3953 14.6176 -1.67072e-20)
(19.2325 14.8237 2.58404e-20)
(19.0618 15.0281 1.64161e-21)
(18.8827 15.2303 -4.84687e-20)
(18.6945 15.4295 -7.08228e-21)
(18.4966 15.6248 3.30076e-20)
(18.2883 15.8154 -2.84542e-20)
(18.0686 16.0001 -1.77709e-19)
(17.8368 16.1777 1.40696e-19)
(17.592 16.3469 -1.88984e-19)
(17.3332 16.5061 3.99415e-19)
(17.0594 16.6537 -2.04713e-19)
(16.7696 16.788 2.70289e-19)
(16.4627 16.9069 -2.6309e-19)
(16.1375 17.0087 2.32259e-20)
(15.7929 17.0914 2.53576e-20)
(15.4277 17.153 2.76772e-20)
(15.0403 17.192 3.88646e-21)
(14.6295 17.2071 0)
(14.1935 17.1975 2.44791e-20)
(13.7306 17.1628 4.79747e-19)
(13.2388 17.1044 -5.19104e-19)
(12.7153 17.0231 -5.80301e-19)
(12.1578 16.9224 -1.08039e-20)
(11.5628 16.8071 2.7655e-19)
(10.9255 16.6821 3.38511e-19)
(10.2411 16.5555 -7.79814e-21)
(9.50299 16.437 -1.13626e-20)
(8.70324 16.3366 4.32331e-19)
(7.83144 16.2622 7.82159e-22)
(6.88038 16.2319 -4.82392e-19)
(5.8377 16.2543 0)
(4.6977 16.3466 2.63826e-21)
(3.45504 16.5168 0)
(2.08913 16.7505 -4.35191e-19)
(0.578375 17.0412 4.50931e-19)
(-1.0516 17.513 2.18107e-20)
(-2.72855 18.3494 0)
(-4.49757 19.0403 -1.69883e-19)
(19.7879 13.7056 -2.86515e-20)
(19.6576 13.8972 1.66861e-20)
(19.5249 14.087 -2.59037e-21)
(19.388 14.2773 2.53361e-20)
(19.246 14.468 -3.60953e-20)
(19.0986 14.659 -1.03196e-20)
(18.9455 14.8506 -1.64913e-21)
(18.7861 15.0425 -6.7636e-21)
(18.6202 15.2348 -1.36309e-20)
(18.4474 15.4273 2.24556e-20)
(18.2673 15.6201 1.91542e-21)
(18.0793 15.813 4.13343e-21)
(17.883 16.0058 4.02887e-21)
(17.6776 16.1986 0)
(17.4625 16.3912 -6.64583e-21)
(17.2367 16.5837 -3.49417e-21)
(16.9996 16.776 -3.91674e-21)
(16.7502 16.9683 1.16788e-20)
(16.4878 17.1606 -5.9486e-21)
(16.2112 17.3532 4.13641e-21)
(15.9196 17.546 -4.53172e-21)
(15.6118 17.7394 1.44606e-20)
(15.287 17.9335 -4.24136e-21)
(14.9439 18.1283 -9.19267e-21)
(14.5815 18.3241 3.17352e-21)
(14.1986 18.5208 0)
(13.7938 18.7183 -1.87673e-20)
(13.3657 18.9158 1.14962e-20)
(12.9126 19.113 0)
(12.4323 19.3083 -8.15538e-21)
(11.9226 19.4993 1.6609e-20)
(11.381 19.684 -1.82243e-20)
(10.8037 19.8576 -5.25287e-21)
(10.1875 20.0135 -1.9675e-21)
(9.52853 20.144 1.02372e-21)
(8.82325 20.2393 3.88786e-19)
(8.0681 20.2868 -4.31523e-19)
(7.26081 20.2727 2.03197e-20)
(6.39842 20.174 0)
(5.49085 19.9631 -5.29332e-19)
(4.57757 19.6032 5.11524e-19)
(3.69587 19.0669 0)
(2.85238 18.3214 8.69832e-19)
(19.6076 13.6241 1.20755e-20)
(19.4846 13.793 1.95036e-20)
(19.3561 13.9617 -1.13242e-20)
(19.2232 14.1324 3.077e-20)
(19.0857 14.3042 7.01491e-20)
(18.9432 14.4767 9.3657e-21)
(18.7953 14.6501 -1.3457e-19)
(18.6418 14.8243 6.66474e-20)
(18.4821 14.9993 -5.55999e-20)
(18.316 15.1752 9.21882e-20)
(18.1431 15.3519 -5.07944e-20)
(17.9631 15.5297 -4.09992e-21)
(17.7755 15.7084 -3.99337e-21)
(17.5799 15.8881 -6.52683e-20)
(17.3757 16.0687 3.37895e-21)
(17.1623 16.2503 5.6442e-20)
(16.9389 16.4327 3.86759e-21)
(16.7047 16.6158 -3.93775e-21)
(16.459 16.7996 -8.22403e-21)
(16.2005 16.9839 0)
(15.9281 17.1684 0)
(15.6408 17.3528 0)
(15.3371 17.5369 8.90282e-20)
(15.0154 17.7201 6.58319e-21)
(14.674 17.9019 -1.93139e-19)
(14.3112 18.0814 2.26125e-19)
(13.9252 18.2578 7.09835e-21)
(13.5138 18.4297 -2.82458e-19)
(13.0752 18.5956 1.55661e-19)
(12.6071 18.7535 2.46557e-20)
(12.1079 18.9005 -9.64253e-21)
(11.5752 19.0333 2.80182e-19)
(11.008 19.1474 3.70674e-20)
(10.4059 19.2368 4.48763e-20)
(9.76922 19.2946 -8.13126e-19)
(9.09994 19.3122 4.71961e-19)
(8.40254 19.2789 -4.29268e-20)
(7.68456 19.183 -6.84235e-20)
(6.95685 19.0108 -4.1353e-19)
(6.23554 18.7488 3.56012e-19)
(5.54398 18.3867 0)
(4.90751 17.9204 -6.25804e-19)
(4.35002 17.3551 6.229e-19)
(19.4571 13.5319 4.5662e-20)
(19.3365 13.6831 -1.11108e-19)
(19.2129 13.8344 -1.96642e-20)
(19.086 13.9875 4.60667e-20)
(18.9552 14.1414 0)
(18.8202 14.2962 2.69727e-20)
(18.6806 14.4518 -7.45314e-20)
(18.536 14.6082 9.33334e-20)
(18.3859 14.7652 1.38806e-20)
(18.23 14.923 -8.69934e-20)
(18.0677 15.0815 -1.65163e-21)
(17.8988 15.2409 1.12877e-19)
(17.723 15.4011 1.49976e-20)
(17.5396 15.5622 -9.55297e-20)
(17.3484 15.7241 1.0624e-19)
(17.1486 15.8867 0)
(16.9397 16.05 0)
(16.7209 16.2138 1.06354e-19)
(16.4915 16.3781 -1.58256e-21)
(16.2508 16.5425 -1.33382e-19)
(15.9977 16.7067 -1.49008e-19)
(15.7315 16.8703 3.12014e-19)
(15.451 17.0328 -1.87897e-19)
(15.1554 17.1934 1.88138e-19)
(14.8434 17.3514 3.6242e-21)
(14.5137 17.5053 -1.95384e-19)
(14.165 17.654 1.70421e-20)
(13.7961 17.7956 -2.5901e-19)
(13.4054 17.9279 -2.4276e-20)
(12.9919 18.0484 3.02703e-19)
(12.5542 18.154 0)
(12.0912 18.2407 0)
(11.6025 18.3042 2.1694e-19)
(11.0881 18.3394 -5.37861e-19)
(10.5488 18.3401 2.89623e-19)
(9.98706 18.3001 0)
(9.40636 18.2124 4.13038e-20)
(8.81302 18.0698 -3.55103e-19)
(8.21551 17.866 4.67273e-19)
(7.62525 17.5961 6.12031e-20)
(7.05704 17.2584 -5.53751e-19)
(6.52702 16.8559 7.16038e-19)
(6.05161 16.3966 0)
(19.3198 13.4365 -2.95015e-20)
(19.2043 13.5729 2.93208e-20)
(19.0865 13.7099 0)
(18.9653 13.8473 0)
(18.8405 13.9854 1.66461e-20)
(18.7118 14.1241 -2.69942e-20)
(18.5788 14.2639 0)
(18.4415 14.4043 0)
(18.2989 14.5453 -1.38655e-20)
(18.1507 14.687 8.22037e-20)
(17.9967 14.8293 -8.2483e-20)
(17.8363 14.9723 -1.00325e-19)
(17.6691 15.1159 -8.56271e-20)
(17.4946 15.2601 1.58124e-19)
(17.3128 15.405 0)
(17.1229 15.5502 -1.52703e-19)
(16.9243 15.6957 1.54145e-19)
(16.7163 15.8414 2.07594e-19)
(16.4982 15.9869 -1.50085e-19)
(16.2693 16.132 2.10575e-19)
(16.0287 16.2762 -1.88405e-19)
(15.7755 16.4191 -2.84157e-20)
(15.5086 16.5602 -6.09513e-21)
(15.2274 16.6989 2.74115e-19)
(14.9309 16.834 -2.47204e-19)
(14.6179 16.9644 1.26229e-19)
(14.2871 17.0888 -1.62177e-19)
(13.9378 17.2056 -1.87556e-19)
(13.5689 17.3127 3.59386e-19)
(13.1797 17.4077 -1.29688e-20)
(12.7696 17.4879 -2.10597e-19)
(12.3382 17.5496 3.24551e-20)
(11.8856 17.5893 2.74821e-19)
(11.4124 17.6027 -3.26743e-19)
(10.9208 17.5845 -3.90335e-19)
(10.4133 17.5302 3.5521e-19)
(9.89387 17.434 0)
(9.36838 17.2909 -5.53197e-20)
(8.84421 17.0969 0)
(8.33055 16.8494 0)
(7.83835 16.5482 2.51206e-21)
(7.37849 16.1964 -1.64894e-19)
(6.96176 15.8003 0)
(19.1989 13.3507 0)
(19.0891 13.4695 -3.52851e-20)
(18.9771 13.5923 -4.51228e-22)
(18.862 13.7154 1.63356e-20)
(18.7436 13.8393 -7.01782e-20)
(18.6213 13.9637 5.29353e-20)
(18.4947 14.0895 7.46828e-20)
(18.3646 14.2161 -5.4145e-20)
(18.2296 14.3432 0)
(18.0895 14.4709 -1.77614e-20)
(17.9436 14.5993 1.81089e-20)
(17.7919 14.7284 7.86341e-20)
(17.6339 14.8578 -8.21301e-20)
(17.4685 14.9876 6.72319e-20)
(17.2958 15.1181 -1.53196e-19)
(17.1157 15.2489 9.04219e-20)
(16.9275 15.3796 -2.56984e-20)
(16.7304 15.5102 -2.28002e-20)
(16.5239 15.6405 0)
(16.3073 15.7701 4.34357e-21)
(16.0799 15.8985 -1.50205e-19)
(15.8408 16.025 5.60666e-20)
(15.5888 16.1492 1.94408e-19)
(15.323 16.2706 -1.76974e-19)
(15.0435 16.3884 3.26581e-20)
(14.7497 16.5008 1.59183e-19)
(14.4395 16.6067 -4.66941e-20)
(14.1124 16.7048 -1.97436e-19)
(13.7678 16.7931 4.18096e-19)
(13.405 16.8694 -2.54317e-19)
(13.0242 16.9312 0)
(12.6249 16.9752 2.51237e-19)
(12.2072 16.9982 -2.55721e-19)
(11.7721 16.9967 8.21072e-20)
(11.3217 16.9667 -3.3485e-19)
(10.8586 16.9041 -2.88473e-20)
(10.3866 16.8044 4.25995e-19)
(9.91043 16.6638 0)
(9.43652 16.4793 0)
(8.97187 16.2492 0)
(8.52487 15.9738 2.45427e-19)
(8.10442 15.6561 -2.41593e-19)
(7.7192 15.3014 0)
(19.0954 13.2658 3.95897e-20)
(18.9895 13.3714 -3.9978e-20)
(18.8825 13.4819 -2.14922e-20)
(18.7735 13.5927 -2.3998e-21)
(18.6613 13.7042 2.43954e-21)
(18.5453 13.8159 -6.4968e-20)
(18.4237 13.9295 8.42757e-20)
(18.2999 14.0443 -1.07257e-19)
(18.1718 14.1595 8.67139e-20)
(18.0389 14.2754 -9.01281e-20)
(17.9001 14.392 -2.0218e-21)
(17.7556 14.5098 1.38526e-19)
(17.6061 14.6276 -7.15934e-20)
(17.4493 14.7451 1.23246e-19)
(17.2842 14.8636 -2.3841e-20)
(17.1124 14.9826 0)
(16.9328 15.1014 -1.14367e-19)
(16.745 15.2198 -3.67814e-21)
(16.548 15.3376 1.17596e-19)
(16.3412 15.4549 3.51497e-21)
(16.1246 15.571 -1.0361e-19)
(15.8975 15.6848 1.04158e-19)
(15.6583 15.7953 3.87528e-21)
(15.4044 15.903 0)
(15.1363 16.0085 1.3316e-19)
(14.8573 16.1083 -2.24702e-19)
(14.5629 16.2002 4.65308e-20)
(14.2519 16.2848 2.16683e-19)
(13.9259 16.3595 -4.57098e-19)
(13.5816 16.4232 4.53276e-20)
(13.222 16.4731 5.39716e-19)
(12.8456 16.5058 -2.85182e-19)
(12.4534 16.5185 -2.48476e-19)
(12.0458 16.5078 6.58886e-19)
(11.6242 16.4714 -3.7082e-19)
(11.1924 16.4057 -1.06706e-19)
(10.7543 16.3067 -2.35695e-19)
(10.3137 16.171 2.40422e-19)
(9.87616 15.996 -1.36456e-19)
(9.447 15.7799 1.471e-19)
(9.03267 15.5229 -1.64713e-19)
(8.63976 15.2286 -1.90751e-20)
(8.27666 14.9027 3.45096e-19)
(19.0018 13.1851 2.17617e-20)
(18.9019 13.2792 0)
(18.8002 13.3796 2.1528e-20)
(18.6977 13.4796 6.77165e-20)
(18.5908 13.5807 -2.11691e-20)
(18.4831 13.6805 -9.3326e-20)
(18.3647 13.7832 2.22459e-20)
(18.2463 13.8884 2.34576e-20)
(18.1239 13.9934 7.54071e-20)
(17.9976 14.0991 -9.80303e-20)
(17.8659 14.2053 0)
(17.7266 14.3137 1.98865e-21)
(17.5844 14.4231 -2.5269e-20)
(17.4372 14.5306 -5.43423e-20)
(17.2786 14.6384 -2.90878e-20)
(17.1143 14.7477 1.1818e-19)
(16.9422 14.8569 -2.13198e-19)
(16.7622 14.9657 1.24182e-19)
(16.5733 15.0738 0)
(16.3749 15.1809 -3.30504e-20)
(16.1666 15.2877 1.85279e-19)
(15.9497 15.3929 -1.50567e-19)
(15.7234 15.4923 -3.89103e-20)
(15.484 15.5859 0)
(15.2233 15.6816 -1.87361e-19)
(14.9562 15.7739 1.88753e-19)
(14.6779 15.8553 0)
(14.378 15.9304 0)
(14.0705 15.9937 0)
(13.741 16.0469 2.69877e-19)
(13.3988 16.0886 -4.23007e-19)
(13.0406 16.1141 1.4986e-19)
(12.6689 16.1204 -8.14784e-20)
(12.2832 16.1033 0)
(11.884 16.0614 2.03336e-19)
(11.4749 15.994 5.63016e-21)
(11.0617 15.8965 0)
(10.6472 15.7664 -2.58839e-19)
(10.2382 15.5999 3.96894e-19)
(9.83748 15.3955 -1.44207e-19)
(9.44862 15.1515 -1.54629e-19)
(9.07505 14.8726 -1.70148e-19)
(8.7248 14.5671 1.70676e-19)
(18.9123 13.1103 2.45399e-20)
(18.8257 13.1954 -2.54464e-20)
(18.7288 13.2872 -2.39166e-20)
(18.6314 13.377 0)
(18.5247 13.4696 -5.09818e-20)
(18.4307 13.5587 5.12176e-20)
(18.3168 13.6496 2.52516e-20)
(18.2062 13.7469 2.53089e-20)
(18.0891 13.8424 -7.90437e-20)
(17.9666 13.9403 1.07606e-19)
(17.8466 14.0372 -1.09477e-19)
(17.7153 14.1347 -2.7929e-20)
(17.5775 14.2381 5.50391e-20)
(17.4405 14.34 -2.99274e-20)
(17.2866 14.4381 5.71783e-20)
(17.1309 14.5386 -6.31705e-20)
(16.9686 14.6381 6.40859e-20)
(16.7981 14.7382 6.83429e-20)
(16.6166 14.8386 2.38091e-21)
(16.4262 14.9375 -7.24449e-20)
(16.2235 15.0361 -1.16692e-19)
(16.0116 15.1371 -3.26428e-21)
(15.7876 15.2348 8.32885e-20)
(15.5655 15.3158 0)
(15.3102 15.3964 -9.7999e-20)
(15.052 15.4846 1.48118e-19)
(14.7997 15.5555 0)
(14.4981 15.6282 0)
(14.2055 15.6859 -1.27091e-19)
(13.883 15.7283 -6.42046e-21)
(13.5582 15.7609 -7.11728e-21)
(13.22 15.7788 3.22471e-19)
(12.8676 15.7823 -1.67606e-19)
(12.4962 15.7647 0)
(12.1122 15.7178 -1.0158e-19)
(11.7175 15.6491 1.16926e-19)
(11.3208 15.5521 -4.7364e-19)
(10.9165 15.4315 2.47522e-19)
(10.5233 15.2741 0)
(10.1396 15.0845 -1.50738e-19)
(9.77259 14.8505 -3.37457e-21)
(9.41334 14.58 0)
(9.07147 14.2818 0)
(-6.17107 18.0537 -4.31331e-19)
(-5.38649 16.5419 4.71841e-19)
(-4.61512 15.1725 4.86667e-19)
(-3.8613 14.091 -4.64664e-19)
(-3.13982 13.1956 0)
(-2.45821 12.4383 8.7029e-20)
(-1.81833 11.7874 7.28901e-20)
(-1.21822 11.2234 0)
(-0.65738 10.7291 6.98196e-20)
(-0.134457 10.2908 -1.06541e-18)
(0.354048 9.90022 1.02189e-18)
(0.810557 9.54887 -1.27394e-19)
(1.23849 9.23003 1.04575e-18)
(1.63987 8.93816 -2.01388e-18)
(2.01726 8.67007 -8.03478e-19)
(2.37214 8.42196 1.88636e-18)
(2.70789 8.19113 0)
(3.0262 7.97531 1.56982e-18)
(3.32982 7.77286 -3.25313e-18)
(3.62008 7.58165 1.68352e-18)
(3.89843 7.40038 1.55087e-18)
(4.16611 7.22757 -1.51709e-18)
(4.4241 7.06211 0)
(4.67341 6.90312 1.82956e-19)
(4.91481 6.74976 0)
(5.14897 6.60121 0)
(5.37652 6.45697 -1.5927e-18)
(5.59804 6.31654 2.80255e-18)
(5.81391 6.17941 -1.57104e-18)
(6.0246 6.04525 -3.49119e-19)
(6.23041 5.9137 -1.38059e-18)
(6.43171 5.78452 1.20857e-18)
(6.62878 5.65755 -6.87763e-19)
(6.82188 5.53252 1.71845e-18)
(7.01128 5.4093 -1.37447e-18)
(7.19723 5.28782 1.3721e-18)
(7.37991 5.16787 -6.84998e-19)
(7.55955 5.04938 3.38873e-19)
(7.73634 4.93227 0)
(7.91047 4.81631 6.68793e-19)
(8.08209 4.70141 -3.27398e-19)
(8.25132 4.58692 0)
(8.41851 4.46986 6.19682e-19)
(2.11506 17.3706 -3.7245e-19)
(1.65549 16.3561 -9.21353e-19)
(1.43483 15.4118 -3.3177e-20)
(1.36686 14.5458 2.46753e-19)
(1.40481 13.7602 3.37559e-19)
(1.5151 13.0516 -7.24982e-20)
(1.67573 12.4152 2.80301e-19)
(1.8704 11.844 2.80382e-19)
(2.0868 11.3307 -7.20766e-19)
(2.31658 10.8682 1.88487e-19)
(2.55443 10.4504 0)
(2.7958 10.0711 2.76012e-21)
(3.03713 9.72543 -9.57241e-19)
(3.27615 9.40886 9.20671e-19)
(3.51236 9.1173 -1.08492e-19)
(3.74485 8.84735 -1.05363e-19)
(3.97275 8.59578 -8.41387e-19)
(4.1963 8.36035 -7.1681e-19)
(4.41494 8.13879 -9.8798e-20)
(4.62881 7.92941 1.45343e-18)
(4.83791 7.73068 0)
(5.04235 7.54135 0)
(5.24232 7.36033 -1.45619e-18)
(5.43792 7.18669 1.25411e-18)
(5.62939 7.01971 -1.74029e-19)
(5.81686 6.85862 -1.72107e-19)
(6.00048 6.70285 1.70567e-19)
(6.18047 6.55195 1.69367e-19)
(6.35701 6.40541 -1.36176e-18)
(6.53022 6.26286 1.36108e-18)
(6.7003 6.12393 -1.67576e-19)
(6.86741 5.9884 -5.05558e-19)
(7.03172 5.85598 8.44028e-19)
(7.19336 5.72638 -6.74407e-19)
(7.35252 5.59943 0)
(7.50939 5.47496 -3.39496e-19)
(7.66406 5.35273 6.78328e-19)
(7.81671 5.23266 -1.01056e-18)
(7.96753 5.1146 0)
(8.11665 4.99839 -2.98659e-21)
(8.26421 4.88393 4.93756e-19)
(8.4102 4.77173 -1.61723e-19)
(8.55485 4.66446 -3.20885e-19)
(3.89495 16.712 0)
(3.55723 16.0243 0)
(3.32464 15.3263 0)
(3.18477 14.6425 1.15067e-19)
(3.12237 13.9875 -2.22622e-19)
(3.12319 13.3696 -1.7873e-19)
(3.17415 12.7925 0)
(3.26418 12.257 1.20643e-19)
(3.38433 11.762 -1.08379e-19)
(3.52684 11.3048 -1.19993e-19)
(3.68446 10.8832 0)
(3.85293 10.4937 -7.76822e-19)
(4.02847 10.1332 8.59985e-19)
(4.20845 9.79895 -8.48899e-19)
(4.39051 9.48818 9.26706e-19)
(4.57343 9.19825 2.03207e-19)
(4.7558 8.92703 7.8731e-19)
(4.93677 8.6725 -7.64884e-19)
(5.11578 8.43285 8.47262e-19)
(5.29247 8.20657 2.51403e-21)
(5.46658 7.99224 -1.44026e-18)
(5.63801 7.78873 7.0664e-19)
(5.80661 7.59477 6.9677e-19)
(5.97241 7.40952 -6.8589e-19)
(6.13539 7.23209 3.44883e-21)
(6.29556 7.06171 3.25552e-21)
(6.45303 6.89775 -3.33497e-19)
(6.60787 6.73965 -3.31196e-19)
(6.76017 6.58681 0)
(6.91002 6.43883 3.28379e-19)
(7.05748 6.29531 1.65129e-19)
(7.20268 6.15591 0)
(7.34571 6.02029 -9.82265e-19)
(7.48672 5.88815 1.14967e-18)
(7.62585 5.75927 0)
(7.76317 5.63336 -3.31029e-19)
(7.89875 5.51019 3.31146e-19)
(8.03273 5.38972 4.93728e-19)
(8.1653 5.27175 1.64196e-19)
(8.29652 5.15606 -2.8696e-19)
(8.42652 5.04249 2.81187e-19)
(8.55517 4.9312 0)
(8.68216 4.82294 3.12654e-19)
(5.64273 15.8925 9.54825e-20)
(5.30558 15.3559 -1.01032e-19)
(5.04039 14.8022 1.05774e-19)
(4.84449 14.2461 1.09152e-19)
(4.71114 13.6997 -5.77045e-20)
(4.63266 13.1713 3.42501e-19)
(4.601 12.6661 -5.68112e-20)
(4.60813 12.1875 -1.17877e-19)
(4.64683 11.7369 1.13072e-19)
(4.71095 11.3141 0)
(4.79486 10.9185 5.55776e-19)
(4.89408 10.5488 -3.24116e-19)
(5.00516 10.2033 0)
(5.12529 9.88005 0)
(5.25211 9.57727 0)
(5.38342 9.29319 -8.93478e-19)
(5.51818 9.02609 7.70701e-19)
(5.6549 8.77445 -6.63415e-19)
(5.79278 8.53689 1.65955e-18)
(5.93119 8.31204 -7.21762e-19)
(6.06962 8.09875 0)
(6.20765 7.89583 -6.96685e-19)
(6.34488 7.70231 6.83995e-19)
(6.4811 7.51736 0)
(6.61605 7.34018 -4.98647e-19)
(6.74964 7.17013 8.24128e-19)
(6.88179 7.00662 -4.88552e-19)
(7.01246 6.84902 6.50196e-19)
(7.14157 6.69686 1.60071e-19)
(7.26912 6.54967 -1.61507e-19)
(7.39504 6.40716 0)
(7.51941 6.26899 -4.8105e-19)
(7.64235 6.13483 8.02312e-19)
(7.76393 6.00435 -1.61301e-19)
(7.88423 5.87727 -3.21255e-19)
(8.00322 5.75331 4.70347e-22)
(8.1209 5.6323 4.83247e-19)
(8.2374 5.5142 -6.45104e-19)
(8.35291 5.39877 4.01105e-19)
(8.46755 5.28578 -8.02559e-20)
(8.58139 5.17503 -3.19472e-19)
(8.69437 5.0663 0)
(8.80622 4.95927 6.08341e-19)
(6.59544 15.3682 1.97609e-19)
(6.28272 14.9079 -1.85514e-19)
(6.02512 14.4292 -1.0401e-19)
(5.82177 13.9436 -1.08819e-19)
(5.67029 13.4604 1.06882e-19)
(5.56568 12.987 -8.38082e-20)
(5.5024 12.5289 -1.40112e-19)
(5.47477 12.0896 1.09645e-19)
(5.47724 11.6713 2.25031e-19)
(5.50462 11.2749 -2.1615e-19)
(5.55225 10.9007 4.31479e-19)
(5.61657 10.5481 -5.26352e-19)
(5.69409 10.2164 0)
(5.7822 9.9042 0)
(5.87856 9.61018 0)
(5.98122 9.3331 -7.78331e-19)
(6.08861 9.0716 1.70449e-18)
(6.19944 8.82449 -8.33144e-19)
(6.31265 8.5907 5.44391e-19)
(6.42772 8.36907 -1.4222e-18)
(6.54401 8.15849 8.69719e-19)
(6.66084 7.95784 0)
(6.7777 7.76635 0)
(6.89426 7.58324 -1.65083e-19)
(7.01018 7.40792 4.93271e-19)
(7.12529 7.23977 -6.48179e-19)
(7.23955 7.07827 -1.59715e-19)
(7.35296 6.92274 1.60443e-19)
(7.46523 6.77263 -3.17121e-19)
(7.57616 6.62762 -1.57007e-19)
(7.68578 6.4875 1.56644e-19)
(7.79423 6.35196 -3.14676e-19)
(7.90166 6.22055 4.71226e-19)
(8.0081 6.09291 -1.57016e-19)
(8.11352 5.96874 -4.74218e-19)
(8.21779 5.84778 3.16431e-19)
(8.32088 5.72999 1.56921e-19)
(8.42296 5.61521 1.59806e-19)
(8.52431 5.5033 -3.18178e-19)
(8.62516 5.39391 0)
(8.72557 5.2867 3.12871e-19)
(8.8255 5.18132 0)
(8.92475 5.07474 -3.02576e-19)
(7.37534 14.9157 -9.97123e-20)
(7.07554 14.5046 9.40267e-20)
(6.82111 14.0756 1.04583e-19)
(6.61244 13.6384 4.17855e-21)
(6.44845 13.2007 -7.81846e-20)
(6.3259 12.7685 8.43995e-22)
(6.24079 12.347 -2.6954e-20)
(6.1887 11.9398 1.10496e-19)
(6.16519 11.5491 1.76873e-21)
(6.16563 11.1763 1.06832e-19)
(6.18618 10.8223 -2.11864e-19)
(6.22366 10.4871 0)
(6.27542 10.1702 2.03186e-19)
(6.33869 9.87057 -6.01571e-19)
(6.41139 9.5872 9.78649e-19)
(6.49128 9.31923 -3.81999e-19)
(6.57682 9.06561 -5.65148e-19)
(6.6665 8.82535 3.66145e-19)
(6.75951 8.59783 0)
(6.8557 8.38185 -7.06e-19)
(6.95404 8.17611 1.38066e-18)
(7.05354 7.97974 -6.77984e-19)
(7.15359 7.79218 6.68646e-19)
(7.25371 7.61279 -6.55456e-19)
(7.35364 7.44112 1.63193e-19)
(7.45333 7.27672 1.59568e-19)
(7.55281 7.11897 1.59692e-19)
(7.65208 6.967 -1.56768e-19)
(7.75033 6.82018 7.83787e-19)
(7.84716 6.67863 -7.78278e-19)
(7.94298 6.54224 3.09228e-19)
(8.03812 6.41055 1.55832e-19)
(8.13271 6.28295 -1.38881e-21)
(8.22656 6.15907 1.55865e-19)
(8.31954 6.03858 -1.56072e-19)
(8.41133 5.92147 1.55659e-19)
(8.50196 5.8076 -3.12748e-19)
(8.59169 5.69698 0)
(8.68098 5.58938 -1.55617e-19)
(8.7701 5.4844 1.55319e-19)
(8.85909 5.38174 -3.113e-19)
(8.94796 5.2815 0)
(9.03628 5.17928 1.48829e-19)
(7.95031 14.5494 0)
(7.66348 14.1717 1.99001e-19)
(7.41563 13.7764 4.35224e-21)
(7.20597 13.3728 0)
(7.03681 12.9678 0)
(6.90543 12.5658 0)
(6.80777 12.1719 -5.42319e-20)
(6.74137 11.7895 -1.60478e-19)
(6.70194 11.4206 2.14948e-19)
(6.68524 11.0668 -3.17538e-19)
(6.68733 10.7298 3.11095e-19)
(6.70705 10.4097 0)
(6.74146 10.1059 -2.02408e-19)
(6.78793 9.81771 1.98497e-19)
(6.84418 9.54413 -5.8295e-19)
(6.90797 9.28479 1.88779e-19)
(6.97794 9.0387 1.87472e-19)
(7.05199 8.80527 -1.78775e-19)
(7.13014 8.58437 -5.34616e-19)
(7.21315 8.37425 6.97738e-19)
(7.29853 8.17312 -5.13917e-19)
(7.3851 7.98108 1.67421e-19)
(7.47235 7.7976 -4.96066e-19)
(7.55966 7.62219 1.63081e-19)
(7.64701 7.45465 4.81265e-19)
(7.7347 7.29459 -1.47352e-21)
(7.823 7.14131 0)
(7.9117 6.99296 1.56644e-19)
(7.99841 6.84947 -3.0984e-19)
(8.08339 6.71192 3.08011e-19)
(8.16797 6.57986 -4.61183e-19)
(8.2526 6.45243 4.60079e-19)
(8.33712 6.32886 -3.06149e-19)
(8.42081 6.20886 -1.53719e-19)
(8.50357 6.0923 -1.53261e-19)
(8.58485 5.97932 1.53613e-19)
(8.66485 5.86972 -3.07133e-19)
(8.74407 5.76357 1.54147e-19)
(8.82314 5.66058 1.54673e-19)
(8.90232 5.56022 -1.54464e-19)
(8.98133 5.46223 -1.52919e-19)
(9.05992 5.36703 0)
(9.13684 5.26916 -1.47354e-19)
(8.40996 14.2406 1.83992e-19)
(8.13661 13.8874 0)
(7.89623 13.5161 -1.974e-19)
(7.68365 13.1367 0)
(7.51102 12.7574 0)
(7.37389 12.3789 0)
(7.26673 12.0063 -2.08826e-19)
(7.19008 11.6442 1.04187e-19)
(7.13933 11.2933 2.08092e-19)
(7.10991 10.9556 1.04278e-19)
(7.09717 10.633 6.46769e-22)
(7.10387 10.3265 -2.23875e-21)
(7.12574 10.034 1.96437e-19)
(7.15983 9.75563 1.95014e-19)
(7.2039 9.49072 1.92852e-19)
(7.25522 9.23949 1.18503e-21)
(7.31404 9.00055 -1.83282e-19)
(7.37548 8.77334 -4.10396e-23)
(7.44218 8.55925 1.74111e-19)
(7.51706 8.35453 -5.1722e-19)
(7.59227 8.15687 1.69725e-19)
(7.66907 7.96938 -1.67166e-19)
(7.74596 7.7897 1.6444e-19)
(7.82256 7.61812 0)
(7.89953 7.4551 -1.59815e-19)
(7.97764 7.29985 1.56888e-19)
(8.05767 7.15182 -3.11033e-19)
(8.13835 7.0058 -1.53756e-19)
(8.21422 6.86562 0)
(8.28898 6.73287 -3.04764e-19)
(8.36511 6.6055 6.06858e-19)
(8.44198 6.48228 -1.50718e-19)
(8.51878 6.36247 1.51705e-19)
(8.59382 6.24608 -1.05885e-21)
(8.66782 6.13345 -1.51333e-19)
(8.73994 6.02518 1.51634e-19)
(8.81076 5.91966 1.52396e-19)
(8.88131 5.81811 0)
(8.95207 5.71966 1.51788e-19)
(9.02314 5.6236 1.902e-20)
(9.09392 5.52961 5.73709e-20)
(9.1635 5.4378 -7.51094e-20)
(9.22994 5.34085 0)
(8.7606 13.9874 -1.79617e-19)
(8.49568 13.6526 0)
(8.25988 13.305 9.72928e-20)
(8.04635 12.9355 1.47853e-19)
(7.87919 12.5767 -4.96885e-20)
(7.74508 12.2172 0)
(7.63438 11.858 1.54085e-19)
(7.55503 11.512 5.15797e-20)
(7.49955 11.1757 3.1241e-19)
(7.46422 10.853 -3.06035e-19)
(7.4414 10.5403 -2.03044e-19)
(7.44295 10.2457 -2.02088e-19)
(7.45811 9.96171 0)
(7.48462 9.69077 -1.95075e-19)
(7.52082 9.4335 3.78897e-19)
(7.56266 9.19063 -5.59509e-19)
(7.61453 8.95957 1.81979e-19)
(7.66256 8.73577 3.59452e-19)
(7.71953 8.52766 0)
(7.79131 8.32812 5.167e-19)
(7.85482 8.13127 -5.00982e-19)
(7.92252 7.95163 4.99723e-19)
(7.9879 7.77239 0)
(8.05514 7.60537 0)
(8.12187 7.44752 1.61384e-19)
(8.19018 7.29671 0)
(8.26494 7.15528 0)
(8.33983 7.007 4.49128e-19)
(8.40524 6.87296 -1.5007e-19)
(8.47305 6.74607 3.01999e-19)
(8.54333 6.62301 -3.03491e-19)
(8.61374 6.50333 -4.2536e-22)
(8.68277 6.38665 1.51769e-19)
(8.74809 6.27297 -1.52348e-19)
(8.81351 6.16463 -5.68137e-22)
(8.87805 6.06262 3.00343e-19)
(8.94263 5.95972 -1.46472e-19)
(9.00627 5.86385 7.51219e-20)
(9.06941 5.76954 -7.72027e-20)
(9.13299 5.67749 0)
(9.19609 5.58739 0)
(9.25762 5.4983 3.77863e-19)
(9.31814 5.40097 -6.76621e-20)
(-1.23692 -3.0028 0)
(-1.09023 -3.0368 3.32084e-19)
(-0.945735 -3.06968 -6.83452e-19)
(-0.803381 -3.10105 0)
(-0.66336 -3.13101 -3.59574e-19)
(-0.525722 -3.15952 5.49196e-19)
(-0.390557 -3.18657 1.84738e-19)
(-0.257893 -3.21216 0)
(-0.127756 -3.23627 -1.93607e-19)
(-0.000167795 -3.2589 -5.90543e-19)
(0.12484 -3.28006 3.57381e-21)
(0.247287 -3.29979 -2.01639e-19)
(0.36716 -3.31811 2.09477e-19)
(0.484467 -3.33506 5.32831e-19)
(0.599195 -3.35066 -5.86887e-22)
(0.711368 -3.36498 -2.27637e-19)
(0.821034 -3.37808 2.33008e-19)
(0.928201 -3.39001 1.2192e-19)
(1.03287 -3.40086 0)
(1.13514 -3.41067 -1.3015e-19)
(1.235 -3.41952 -1.4086e-19)
(1.33249 -3.42749 4.36384e-19)
(1.42764 -3.43466 3.08544e-19)
(1.52047 -3.44109 -5.75068e-19)
(1.61097 -3.44692 4.36029e-19)
(1.69922 -3.45222 -3.74152e-19)
(1.78517 -3.45712 -9.85132e-20)
(1.86874 -3.46172 5.45839e-19)
(1.94993 -3.46616 1.06506e-18)
(2.02873 -3.47057 -9.11121e-19)
(2.10505 -3.47517 1.14307e-18)
(2.17882 -3.48002 -1.10978e-18)
(2.24989 -3.48531 0)
(2.31818 -3.49107 0)
(2.38364 -3.49726 1.58411e-18)
(2.44643 -3.50365 -1.95145e-18)
(2.50737 -3.50953 -2.56483e-18)
(2.56957 -3.51368 2.84361e-18)
(2.64344 -3.51521 3.3916e-18)
(2.7654 -3.52 -7.95973e-18)
(3.07474 -3.57866 5.07108e-18)
(4.11492 -4.00779 6.25649e-18)
(8.35576 -6.34207 -6.0589e-18)
(-1.17151 -3.03839 6.61411e-19)
(-1.03683 -3.07077 -5.00086e-19)
(-0.90401 -3.10222 0)
(-0.772929 -3.13252 -3.48539e-19)
(-0.643704 -3.16177 5.34583e-19)
(-0.516352 -3.18997 0)
(-0.390873 -3.21713 0)
(-0.267283 -3.24325 0)
(-0.145572 -3.26831 1.88598e-19)
(-0.0257672 -3.2923 3.82737e-19)
(0.0921517 -3.31523 1.94197e-19)
(0.208183 -3.33711 -2.00192e-19)
(0.322311 -3.35793 -4.05055e-19)
(0.43457 -3.37771 -1.03563e-19)
(0.544958 -3.39648 1.07064e-19)
(0.653481 -3.41424 -2.18466e-19)
(0.760161 -3.43102 3.38731e-19)
(0.865007 -3.44687 -3.51092e-19)
(0.968058 -3.46181 -3.65535e-19)
(1.06935 -3.4759 3.81852e-19)
(1.16893 -3.48913 1.33927e-19)
(1.26683 -3.50156 0)
(1.36312 -3.51322 0)
(1.4578 -3.52411 1.54895e-19)
(1.55093 -3.53421 -5.29668e-22)
(1.64253 -3.54356 -3.56409e-19)
(1.73265 -3.55216 -4.78678e-19)
(1.82129 -3.55996 3.10312e-19)
(1.90853 -3.56694 4.47584e-19)
(1.99446 -3.57308 -4.88595e-19)
(2.07922 -3.57825 0)
(2.1631 -3.58238 -1.46947e-19)
(2.24662 -3.58522 0)
(2.33081 -3.58653 0)
(2.41788 -3.586 2.04236e-19)
(2.51233 -3.58346 2.32601e-19)
(2.62389 -3.57968 -2.37015e-18)
(2.77457 -3.57835 4.82479e-18)
(3.01578 -3.59365 -2.00901e-20)
(3.47074 -3.67634 -6.66028e-18)
(4.44535 -4.00546 3.90988e-18)
(6.7346 -5.15188 -3.88548e-18)
(12.2147 -8.50814 6.85458e-18)
(-1.10811 -3.06636 1.64884e-19)
(-0.982334 -3.09788 1.64182e-19)
(-0.858275 -3.12891 -5.06205e-19)
(-0.735666 -3.15904 3.44526e-19)
(-0.614519 -3.1884 -3.4994e-19)
(-0.49484 -3.21695 -1.7827e-19)
(-0.37661 -3.24472 -1.79889e-19)
(-0.259767 -3.27169 1.83602e-19)
(-0.144315 -3.29785 3.69951e-19)
(-0.0302343 -3.32316 -1.87885e-19)
(0.0825066 -3.34762 -1.02134e-21)
(0.193888 -3.37121 -1.40223e-21)
(0.303897 -3.39391 0)
(0.412598 -3.41571 0)
(0.520003 -3.43663 -4.1504e-19)
(0.6261 -3.45664 4.27335e-19)
(0.730888 -3.47576 -2.20683e-19)
(0.834411 -3.494 0)
(0.936684 -3.51139 4.73684e-19)
(1.03773 -3.52796 -3.701e-19)
(1.13765 -3.54375 1.57343e-21)
(1.23656 -3.55877 0)
(1.33453 -3.57302 -1.43832e-19)
(1.43165 -3.58648 -1.82906e-21)
(1.52808 -3.5991 1.59848e-19)
(1.62395 -3.61084 -1.71178e-19)
(1.71947 -3.62165 9.13697e-20)
(1.81488 -3.6314 0)
(1.91052 -3.63997 4.27485e-19)
(2.00694 -3.64718 -5.81353e-19)
(2.10495 -3.6528 3.78721e-19)
(2.20584 -3.65657 -6.94283e-19)
(2.31169 -3.6582 1.531e-19)
(2.4262 -3.65752 -6.73794e-19)
(2.55588 -3.65476 7.50238e-19)
(2.71282 -3.65138 -4.16735e-19)
(2.91939 -3.65191 -5.13362e-22)
(3.2191 -3.66913 2.08069e-18)
(3.69958 -3.73697 -3.2864e-19)
(4.54061 -3.9468 -5.77854e-18)
(6.11043 -4.54295 3.12458e-18)
(9.19963 -6.13557 -1.96448e-19)
(14.5903 -9.58773 1.68114e-19)
(-1.04539 -3.08794 2.04749e-22)
(-0.928234 -3.11692 -1.63131e-19)
(-0.812439 -3.14631 -3.0258e-22)
(-0.69774 -3.17515 3.39331e-19)
(-0.584098 -3.20353 1.72088e-19)
(-0.471478 -3.23135 1.7407e-19)
(-0.359873 -3.25861 3.54042e-19)
(-0.249198 -3.28532 -5.36544e-19)
(-0.139414 -3.31143 1.81559e-19)
(-0.0304845 -3.33692 0)
(0.0776221 -3.36174 1.8607e-19)
(0.184911 -3.38588 -1.89869e-19)
(0.291419 -3.40932 1.94003e-19)
(0.397171 -3.43203 -9.94836e-20)
(0.502215 -3.45398 2.02653e-19)
(0.606587 -3.47517 -1.04566e-19)
(0.710289 -3.49556 0)
(0.813327 -3.51512 0)
(0.915747 -3.53385 -3.47061e-19)
(1.01755 -3.55178 3.6218e-19)
(1.11882 -3.56894 -5.04236e-19)
(1.21977 -3.58538 1.32399e-19)
(1.32054 -3.60108 2.77825e-19)
(1.42135 -3.616 -7.94654e-22)
(1.52246 -3.63007 1.55453e-19)
(1.62422 -3.6432 -4.97801e-19)
(1.727 -3.65527 3.5575e-19)
(1.83139 -3.66612 1.91316e-19)
(1.93819 -3.67559 2.06015e-19)
(2.04858 -3.68348 5.53909e-19)
(2.16437 -3.68953 -4.82922e-19)
(2.28826 -3.69345 1.30653e-19)
(2.42434 -3.69511 -1.42796e-19)
(2.57944 -3.6948 -6.26642e-19)
(2.76488 -3.69385 3.33668e-21)
(2.9994 -3.6961 1.7053e-18)
(3.31607 -3.71094 2.01788e-19)
(3.77488 -3.76037 -9.37807e-19)
(4.48617 -3.89583 2.6363e-19)
(5.65213 -4.23677 2.99752e-19)
(7.64215 -5.05174 0)
(11.1118 -6.90051 0)
(16.1851 -10.2339 -1.00737e-18)
(-0.983655 -3.10172 -4.53664e-22)
(-0.873768 -3.12855 -3.22815e-19)
(-0.76568 -3.15656 1.64698e-19)
(-0.658179 -3.18397 0)
(-0.551236 -3.21113 8.60637e-22)
(-0.444832 -3.23791 1.71683e-19)
(-0.338962 -3.2643 -5.21696e-19)
(-0.23361 -3.29031 -8.81941e-20)
(-0.128668 -3.31596 -2.67286e-19)
(-0.0240358 -3.34116 1.80759e-19)
(0.0802798 -3.36584 0)
(0.184274 -3.39 0)
(0.288035 -3.41363 -9.50276e-20)
(0.391636 -3.43666 9.66877e-20)
(0.495105 -3.45905 -1.00039e-19)
(0.598479 -3.48077 2.05268e-19)
(0.701794 -3.50178 -2.1137e-19)
(0.805164 -3.522 2.18669e-19)
(0.908593 -3.54133 -5.36526e-22)
(1.01205 -3.55974 -1.17183e-19)
(1.11561 -3.57732 2.46454e-19)
(1.21946 -3.59414 0)
(1.3239 -3.61023 -1.35896e-19)
(1.42934 -3.62554 2.8717e-19)
(1.53617 -3.64 -3.0468e-19)
(1.64491 -3.65347 0)
(1.75626 -3.66582 1.72751e-19)
(1.87112 -3.67687 3.97915e-22)
(1.99078 -3.68648 -3.95195e-19)
(2.11712 -3.69456 0)
(2.25309 -3.70103 5.73951e-19)
(2.40293 -3.70577 -9.95997e-19)
(2.57276 -3.70894 2.25991e-21)
(2.77213 -3.71149 5.88603e-19)
(3.01603 -3.71613 4.77215e-19)
(3.32894 -3.72909 -1.57069e-18)
(3.75192 -3.76412 7.71938e-19)
(4.35545 -3.85084 2.11114e-19)
(5.25928 -4.05307 0)
(6.66882 -4.50581 1.01008e-18)
(8.93757 -5.48573 -1.36744e-18)
(12.5592 -7.47332 0)
(17.3144 -10.6549 2.22163e-19)
(-0.923392 -3.10842 1.56758e-19)
(-0.820526 -3.13452 -5.56822e-22)
(-0.718977 -3.16112 -1.6285e-19)
(-0.617882 -3.18697 -1.6491e-19)
(-0.516877 -3.21282 4.83166e-22)
(-0.415884 -3.2384 0)
(-0.31504 -3.26365 1.70643e-19)
(-0.214359 -3.28867 -8.68382e-20)
(-0.113671 -3.31355 8.74698e-20)
(-0.01272 -3.33819 8.90921e-20)
(0.088426 -3.36239 -1.49692e-22)
(0.189715 -3.38616 0)
(0.291243 -3.40958 9.33807e-20)
(0.393219 -3.43257 -9.6162e-20)
(0.495673 -3.45497 -2.00287e-22)
(0.598518 -3.47676 1.0098e-19)
(0.701926 -3.49801 -1.03909e-19)
(0.806189 -3.51862 0)