# Forces     
# CofR       : (0.000000e+00 0.000000e+00 0.000000e+00)
# Time       forces(pressure viscous porous) moment(pressure viscous porous)
5.000000e+00	((-1.549700e+02 -2.425744e+02 -1.757348e-18) (5.358543e-01 -1.327587e-02 -3.146589e-20) (0.000000e+00 0.000000e+00 0.000000e+00)) ((1.212872e+01 -7.748498e+00 -3.351633e+02) (6.637936e-04 2.679271e-02 -4.019669e-02) (0.000000e+00 0.000000e+00 0.000000e+00))
1.000000e+01	((-9.103626e+01 -1.312634e+02 -1.680251e-18) (5.058960e-01 -2.220599e-02 -2.709166e-20) (0.000000e+00 0.000000e+00 0.000000e+00)) ((6.563171e+00 -4.551813e+00 -1.948143e+02) (1.110299e-03 2.529480e-02 -5.176358e-02) (0.000000e+00 0.000000e+00 0.000000e+00))
1.500000e+01	((-2.964533e+01 -3.272667e+01 -7.956084e-19) (4.922828e-01 -2.080159e-02 -8.617344e-21) (0.000000e+00 0.000000e+00 0.000000e+00)) ((1.636333e+00 -1.482267e+00 -6.158931e+01) (1.040080e-03 2.461414e-02 -4.862269e-02) (0.000000e+00 0.000000e+00 0.000000e+00))
2.000000e+01	((-3.543311e+00 6.759270e+00 -2.224495e-19) (4.798296e-01 -1.806788e-02 1.279457e-21) (0.000000e+00 0.000000e+00 0.000000e+00)) ((-3.379635e-01 -1.771656e-01 -5.390191e+00) (9.033940e-04 2.399148e-02 -4.417139e-02) (0.000000e+00 0.000000e+00 0.000000e+00))
2.500000e+01	((2.854379e+00 1.693276e+01 -2.313025e-20) (4.665295e-01 -1.643524e-02 3.755250e-21) (0.000000e+00 0.000000e+00 0.000000e+00)) ((-8.466379e-01 1.427190e-01 8.475903e+00) (8.217622e-04 2.332647e-02 -4.130607e-02) (0.000000e+00 0.000000e+00 0.000000e+00))
3.000000e+01	((2.478818e+00 1.818328e+01 9.313458e-22) (4.532595e-01 -1.571219e-02 3.152675e-21) (0.000000e+00 0.000000e+00 0.000000e+00)) ((-9.091638e-01 1.239409e-01 8.003248e+00) (7.856094e-04 2.266298e-02 -3.964076e-02) (0.000000e+00 0.000000e+00 0.000000e+00))
3.500000e+01	((1.491209e+00 1.803440e+01 -1.175491e-20) (4.395507e-01 -1.524452e-02 2.511880e-21) (0.000000e+00 0.000000e+00 0.000000e+00)) ((-9.017199e-01 7.456043e-02 6.125347e+00) (7.622258e-04 2.197754e-02 -3.838514e-02) (0.000000e+00 0.000000e+00 0.000000e+00))
4.000000e+01	((1.026265e+00 1.762988e+01 -2.020166e-20) (4.273835e-01 -1.490960e-02 2.084997e-21) (0.000000e+00 0.000000e+00 0.000000e+00)) ((-8.814939e-01 5.131325e-02 5.179497e+00) (7.454798e-04 2.136918e-02 -3.737037e-02) (0.000000e+00 0.000000e+00 0.000000e+00))
4.500000e+01	((9.512331e-01 1.750986e+01 -2.076117e-20) (4.148185e-01 -1.447193e-02 2.010242e-21) (0.000000e+00 0.000000e+00 0.000000e+00)) ((-8.754931e-01 4.756165e-02 5.016747e+00) (7.235965e-04 2.074092e-02 -3.629164e-02) (0.000000e+00 0.000000e+00 0.000000e+00))
5.000000e+01	((9.853544e-01 1.777926e+01 -1.542417e-20) (4.033342e-01 -1.408233e-02 1.909764e-21) (0.000000e+00 0.000000e+00 0.000000e+00)) ((-8.889631e-01 4.926772e-02 5.130442e+00) (7.041164e-04 2.016671e-02 -3.529568e-02) (0.000000e+00 0.000000e+00 0.000000e+00))
5.500000e+01	((9.705262e-01 1.813403e+01 -1.180563e-20) (3.921912e-01 -1.365918e-02 1.835566e-21) (0.000000e+00 0.000000e+00 0.000000e+00)) ((-9.067014e-01 4.852631e-02 5.168193e+00) (6.829592e-04 1.960956e-02 -3.431416e-02) (0.000000e+00 0.000000e+00 0.000000e+00))
6.000000e+01	((9.592443e-01 1.842249e+01 -1.034372e-20) (3.815691e-01 -1.324208e-02 1.752071e-21) (0.000000e+00 0.000000e+00 0.000000e+00)) ((-9.211246e-01 4.796221e-02 5.200342e+00) (6.621038e-04 1.907845e-02 -3.337523e-02) (0.000000e+00 0.000000e+00 0.000000e+00))
6.500000e+01	((9.645899e-01 1.870065e+01 -8.686398e-21) (3.714830e-01 -1.281894e-02 1.693457e-21) (0.000000e+00 0.000000e+00 0.000000e+00)) ((-9.350323e-01 4.822950e-02 5.261739e+00) (6.409471e-04 1.857415e-02 -3.247807e-02) (0.000000e+00 0.000000e+00 0.000000e+00))
7.000000e+01	((9.640301e-01 1.901177e+01 -7.509018e-21) (3.618875e-01 -1.239312e-02 1.644323e-21) (0.000000e+00 0.000000e+00 0.000000e+00)) ((-9.505885e-01 4.820151e-02 5.318162e+00) (6.196560e-04 1.809437e-02 -3.162111e-02) (0.000000e+00 0.000000e+00 0.000000e+00))
7.500000e+01	((9.604220e-01 1.934143e+01 -7.292673e-21) (3.528019e-01 -1.195777e-02 1.624707e-21) (0.000000e+00 0.000000e+00 0.000000e+00)) ((-9.670716e-01 4.802110e-02 5.372298e+00) (5.978887e-04 1.764009e-02 -3.080467e-02) (0.000000e+00 0.000000e+00 0.000000e+00))
8.000000e+01	((9.569479e-01 1.968764e+01 -7.074311e-21) (3.442244e-01 -1.151052e-02 1.586148e-21) (0.000000e+00 0.000000e+00 0.000000e+00)) ((-9.843822e-01 4.784739e-02 5.429743e+00) (5.755261e-04 1.721122e-02 -3.002871e-02) (0.000000e+00 0.000000e+00 0.000000e+00))
8.500000e+01	((9.517225e-01 2.004768e+01 -6.918988e-21) (3.362191e-01 -1.105476e-02 1.547483e-21) (0.000000e+00 0.000000e+00 0.000000e+00)) ((-1.002384e+00 4.758612e-02 5.486460e+00) (5.527378e-04 1.681096e-02 -2.929904e-02) (0.000000e+00 0.000000e+00 0.000000e+00))
9.000000e+01	((9.435424e-01 2.042132e+01 -6.801865e-21) (3.291706e-01 -1.060220e-02 1.497680e-21) (0.000000e+00 0.000000e+00 0.000000e+00)) ((-1.021066e+00 4.717712e-02 5.540153e+00) (5.301102e-04 1.645853e-02 -2.864975e-02) (0.000000e+00 0.000000e+00 0.000000e+00))
9.500000e+01	((9.327684e-01 2.079974e+01 -6.787604e-21) (3.231307e-01 -1.017471e-02 1.449147e-21) (0.000000e+00 0.000000e+00 0.000000e+00)) ((-1.039987e+00 4.663842e-02 5.589871e+00) (5.087356e-04 1.615653e-02 -2.808859e-02) (0.000000e+00 0.000000e+00 0.000000e+00))
1.000000e+02	((9.190015e-01 2.117763e+01 -6.635008e-21) (3.177453e-01 -9.747660e-03 1.393070e-21) (0.000000e+00 0.000000e+00 0.000000e+00)) ((-1.058882e+00 4.595007e-02 5.633882e+00) (4.873830e-04 1.588726e-02 -2.758385e-02) (0.000000e+00 0.000000e+00 0.000000e+00))
1.050000e+02	((9.024689e-01 2.154811e+01 -6.509450e-21) (3.128205e-01 -9.310966e-03 1.341951e-21) (0.000000e+00 0.000000e+00 0.000000e+00)) ((-1.077406e+00 4.512344e-02 5.671342e+00) (4.655483e-04 1.564102e-02 -2.711804e-02) (0.000000e+00 0.000000e+00 0.000000e+00))
1.100000e+02	((8.832448e-01 2.190473e+01 -6.413855e-21) (3.083838e-01 -8.867626e-03 1.289930e-21) (0.000000e+00 0.000000e+00 0.000000e+00)) ((-1.095236e+00 4.416224e-02 5.701199e+00) (4.433813e-04 1.541919e-02 -2.669385e-02) (0.000000e+00 0.000000e+00 0.000000e+00))
1.150000e+02	((8.616044e-01 2.224065e+01 -6.365915e-21) (3.044929e-01 -8.426281e-03 1.245521e-21) (0.000000e+00 0.000000e+00 0.000000e+00)) ((-1.112033e+00 4.308022e-02 5.722706e+00) (4.213140e-04 1.522465e-02 -2.631641e-02) (0.000000e+00 0.000000e+00 0.000000e+00))
1.200000e+02	((8.379288e-01 2.254816e+01 -6.305775e-21) (3.010477e-01 -7.986024e-03 1.198997e-21) (0.000000e+00 0.000000e+00 0.000000e+00)) ((-1.127408e+00 4.189644e-02 5.735150e+00) (3.993012e-04 1.505239e-02 -2.597786e-02) (0.000000e+00 0.000000e+00 0.000000e+00))
1.250000e+02	((8.124451e-01 2.283311e+01 -6.394477e-21) (2.979221e-01 -7.545592e-03 1.151809e-21) (0.000000e+00 0.000000e+00 0.000000e+00)) ((-1.141656e+00 4.062226e-02 5.740041e+00) (3.772796e-04 1.489611e-02 -2.566717e-02) (0.000000e+00 0.000000e+00 0.000000e+00))
1.300000e+02	((7.856375e-01 2.308705e+01 -6.405676e-21) (2.950383e-01 -7.109625e-03 1.097134e-21) (0.000000e+00 0.000000e+00 0.000000e+00)) ((-1.154353e+00 3.928188e-02 5.736723e+00) (3.554812e-04 1.475191e-02 -2.537895e-02) (0.000000e+00 0.000000e+00 0.000000e+00))
1.350000e+02	((7.576507e-01 2.330754e+01 -6.855027e-21) (2.923863e-01 -6.685462e-03 1.050963e-21) (0.000000e+00 0.000000e+00 0.000000e+00)) ((-1.165377e+00 3.788254e-02 5.725015e+00) (3.342731e-04 1.461932e-02 -2.511114e-02) (0.000000e+00 0.000000e+00 0.000000e+00))
1.400000e+02	((7.291099e-01 2.349429e+01 -7.417550e-21) (2.899598e-01 -6.275548e-03 9.964364e-22) (0.000000e+00 0.000000e+00 0.000000e+00)) ((-1.174715e+00 3.645550e-02 5.706037e+00) (3.137774e-04 1.449799e-02 -2.486331e-02) (0.000000e+00 0.000000e+00 0.000000e+00))
1.450000e+02	((7.003218e-01 2.364893e+01 -8.081268e-21) (2.876856e-01 -5.890031e-03 9.554268e-22) (0.000000e+00 0.000000e+00 0.000000e+00)) ((-1.182447e+00 3.501609e-02 5.680665e+00) (2.945016e-04 1.438428e-02 -2.463078e-02) (0.000000e+00 0.000000e+00 0.000000e+00))
1.500000e+02	((6.715729e-01 2.376930e+01 -8.896458e-21) (2.855026e-01 -5.534745e-03 9.033216e-22) (0.000000e+00 0.000000e+00 0.000000e+00)) ((-1.188465e+00 3.357864e-02 5.649036e+00) (2.767372e-04 1.427513e-02 -2.440884e-02) (0.000000e+00 0.000000e+00 0.000000e+00))
1.550000e+02	((6.427065e-01 2.386071e+01 -1.000429e-20) (2.833914e-01 -5.213507e-03 8.572931e-22) (0.000000e+00 0.000000e+00 0.000000e+00)) ((-1.193035e+00 3.213533e-02 5.611835e+00) (2.606753e-04 1.416957e-02 -2.419459e-02) (0.000000e+00 0.000000e+00 0.000000e+00))
1.600000e+02	((6.159298e-01 2.392711e+01 -1.087610e-20) (2.813498e-01 -4.924757e-03 7.942549e-22) (0.000000e+00 0.000000e+00 0.000000e+00)) ((-1.196355e+00 3.079649e-02 5.573931e+00) (2.462378e-04 1.406749e-02 -2.398791e-02) (0.000000e+00 0.000000e+00 0.000000e+00))
1.650000e+02	((5.897343e-01 2.396596e+01 -1.190682e-20) (2.793679e-01 -4.667329e-03 7.586369e-22) (0.000000e+00 0.000000e+00 0.000000e+00)) ((-1.198298e+00 2.948672e-02 5.532027e+00) (2.333665e-04 1.396839e-02 -2.378806e-02) (0.000000e+00 0.000000e+00 0.000000e+00))
1.700000e+02	((5.642348e-01 2.397981e+01 -1.306444e-20) (2.774351e-01 -4.437068e-03 7.135073e-22) (0.000000e+00 0.000000e+00 0.000000e+00)) ((-1.198991e+00 2.821174e-02 5.486809e+00) (2.218534e-04 1.387175e-02 -2.359469e-02) (0.000000e+00 0.000000e+00 0.000000e+00))
1.750000e+02	((5.400061e-01 2.397447e+01 -1.433162e-20) (2.755485e-01 -4.235556e-03 6.752263e-22) (0.000000e+00 0.000000e+00 0.000000e+00)) ((-1.198723e+00 2.700030e-02 5.440426e+00) (2.117778e-04 1.377742e-02 -2.340661e-02) (0.000000e+00 0.000000e+00 0.000000e+00))
1.800000e+02	((5.172508e-01 2.395156e+01 -1.547959e-20) (2.737113e-01 -4.057155e-03 6.202471e-22) (0.000000e+00 0.000000e+00 0.000000e+00)) ((-1.197578e+00 2.586254e-02 5.393560e+00) (2.028578e-04 1.368556e-02 -2.322434e-02) (0.000000e+00 0.000000e+00 0.000000e+00))
1.850000e+02	((4.957374e-01 2.391125e+01 -1.651063e-20) (2.719185e-01 -3.902794e-03 5.915453e-22) (0.000000e+00 0.000000e+00 0.000000e+00)) ((-1.195563e+00 2.478687e-02 5.345806e+00) (1.951397e-04 1.359592e-02 -2.304705e-02) (0.000000e+00 0.000000e+00 0.000000e+00))
1.900000e+02	((4.768846e-01 2.386806e+01 -1.771683e-20) (2.701668e-01 -3.766816e-03 5.607169e-22) (0.000000e+00 0.000000e+00 0.000000e+00)) ((-1.193403e+00 2.384423e-02 5.302503e+00) (1.883408e-04 1.350834e-02 -2.287527e-02) (0.000000e+00 0.000000e+00 0.000000e+00))
1.950000e+02	((4.596507e-01 2.381652e+01 -1.878317e-20) (2.684604e-01 -3.650874e-03 5.272207e-22) (0.000000e+00 0.000000e+00 0.000000e+00)) ((-1.190826e+00 2.298254e-02 5.260693e+00) (1.825437e-04 1.342302e-02 -2.270809e-02) (0.000000e+00 0.000000e+00 0.000000e+00))
2.000000e+02	((4.430854e-01 2.374846e+01 -1.982357e-20) (2.668001e-01 -3.549398e-03 4.809526e-22) (0.000000e+00 0.000000e+00 0.000000e+00)) ((-1.187423e+00 2.215427e-02 5.217083e+00) (1.774699e-04 1.334000e-02 -2.254623e-02) (0.000000e+00 0.000000e+00 0.000000e+00))
2.050000e+02	((4.288636e-01 2.368985e+01 -2.088151e-20) (2.651924e-01 -3.462094e-03 4.751887e-22) (0.000000e+00 0.000000e+00 0.000000e+00)) ((-1.184492e+00 2.144318e-02 5.179610e+00) (1.731047e-04 1.325962e-02 -2.238945e-02) (0.000000e+00 0.000000e+00 0.000000e+00))
2.100000e+02	((4.153348e-01 2.361766e+01 -2.169046e-20) (2.636406e-01 -3.382721e-03 4.474812e-22) (0.000000e+00 0.000000e+00 0.000000e+00)) ((-1.180883e+00 2.076674e-02 5.140928e+00) (1.691361e-04 1.318203e-02 -2.223882e-02) (0.000000e+00 0.000000e+00 0.000000e+00))
2.150000e+02	((4.032592e-01 2.354589e+01 -2.253260e-20) (2.621507e-01 -3.313416e-03 4.268067e-22) (0.000000e+00 0.000000e+00 0.000000e+00)) ((-1.177295e+00 2.016296e-02 5.105045e+00) (1.656708e-04 1.310754e-02 -2.209359e-02) (0.000000e+00 0.000000e+00 0.000000e+00))
2.200000e+02	((3.922140e-01 2.347322e+01 -2.327711e-20) (2.607258e-01 -3.248136e-03 3.962012e-22) (0.000000e+00 0.000000e+00 0.000000e+00)) ((-1.173661e+00 1.961070e-02 5.070926e+00) (1.624068e-04 1.303629e-02 -2.195482e-02) (0.000000e+00 0.000000e+00 0.000000e+00))
2.250000e+02	((3.819425e-01 2.339783e+01 -2.390336e-20) (2.593694e-01 -3.188409e-03 3.793323e-22) (0.000000e+00 0.000000e+00 0.000000e+00)) ((-1.169891e+00 1.909713e-02 5.037754e+00) (1.594204e-04 1.296847e-02 -2.182205e-02) (0.000000e+00 0.000000e+00 0.000000e+00))
2.300000e+02	((3.728211e-01 2.332918e+01 -2.444656e-20) (2.580790e-01 -3.128444e-03 3.670181e-22) (0.000000e+00 0.000000e+00 0.000000e+00)) ((-1.166459e+00 1.864105e-02 5.007983e+00) (1.564222e-04 1.290395e-02 -2.169639e-02) (0.000000e+00 0.000000e+00 0.000000e+00))
2.350000e+02	((3.642168e-01 2.325664e+01 -2.498200e-20) (2.568474e-01 -3.075848e-03 3.590800e-22) (0.000000e+00 0.000000e+00 0.000000e+00)) ((-1.162832e+00 1.821084e-02 4.978463e+00) (1.537924e-04 1.284237e-02 -2.157586e-02) (0.000000e+00 0.000000e+00 0.000000e+00))
2.400000e+02	((3.563054e-01 2.318101e+01 -2.528321e-20) (2.556929e-01 -3.027481e-03 3.471411e-22) (0.000000e+00 0.000000e+00 0.000000e+00)) ((-1.159050e+00 1.781527e-02 4.949668e+00) (1.513741e-04 1.278465e-02 -2.146106e-02) (0.000000e+00 0.000000e+00 0.000000e+00))
2.450000e+02	((3.489891e-01 2.311360e+01 -2.558979e-20) (2.545990e-01 -2.976745e-03 3.341126e-22) (0.000000e+00 0.000000e+00 0.000000e+00)) ((-1.155680e+00 1.744946e-02 4.923509e+00) (1.488372e-04 1.272995e-02 -2.135308e-02) (0.000000e+00 0.000000e+00 0.000000e+00))
2.500000e+02	((3.420148e-01 2.304166e+01 -2.583146e-20) (2.535955e-01 -2.924358e-03 3.238372e-22) (0.000000e+00 0.000000e+00 0.000000e+00)) ((-1.152083e+00 1.710074e-02 4.897152e+00) (1.462179e-04 1.267977e-02 -2.125202e-02) (0.000000e+00 0.000000e+00 0.000000e+00))
2.550000e+02	((3.355048e-01 2.297218e+01 -2.607587e-20) (2.526580e-01 -2.872903e-03 3.154703e-22) (0.000000e+00 0.000000e+00 0.000000e+00)) ((-1.148609e+00 1.677524e-02 4.872119e+00) (1.436451e-04 1.263290e-02 -2.115663e-02) (0.000000e+00 0.000000e+00 0.000000e+00))
2.600000e+02	((3.293815e-01 2.290589e+01 -2.619148e-20) (2.517675e-01 -2.821899e-03 3.010146e-22) (0.000000e+00 0.000000e+00 0.000000e+00)) ((-1.145294e+00 1.646907e-02 4.848402e+00) (1.410949e-04 1.258837e-02 -2.106654e-02) (0.000000e+00 0.000000e+00 0.000000e+00))
2.650000e+02	((3.234188e-01 2.283654e+01 -2.633653e-20) (2.509575e-01 -2.768949e-03 2.916938e-22) (0.000000e+00 0.000000e+00 0.000000e+00)) ((-1.141827e+00 1.617094e-02 4.824420e+00) (1.384475e-04 1.254788e-02 -2.098259e-02) (0.000000e+00 0.000000e+00 0.000000e+00))
2.700000e+02	((3.176613e-01 2.276972e+01 -2.645362e-20) (2.502062e-01 -2.716505e-03 2.820505e-22) (0.000000e+00 0.000000e+00 0.000000e+00)) ((-1.138486e+00 1.588307e-02 4.801289e+00) (1.358252e-04 1.251031e-02 -2.090359e-02) (0.000000e+00 0.000000e+00 0.000000e+00))
2.750000e+02	((3.122268e-01 2.270867e+01 -2.649119e-20) (2.494938e-01 -2.664590e-03 2.680410e-22) (0.000000e+00 0.000000e+00 0.000000e+00)) ((-1.135434e+00 1.561134e-02 4.779830e+00) (1.332295e-04 1.247469e-02 -2.082904e-02) (0.000000e+00 0.000000e+00 0.000000e+00))
2.800000e+02	((3.072955e-01 2.265091e+01 -2.651388e-20) (2.488505e-01 -2.610855e-03 2.576491e-22) (0.000000e+00 0.000000e+00 0.000000e+00)) ((-1.132546e+00 1.536477e-02 4.759921e+00) (1.305428e-04 1.244253e-02 -2.075970e-02) (0.000000e+00 0.000000e+00 0.000000e+00))
2.850000e+02	((3.023440e-01 2.259402e+01 -2.657921e-20) (2.482576e-01 -2.557713e-03 2.494899e-22) (0.000000e+00 0.000000e+00 0.000000e+00)) ((-1.129701e+00 1.511720e-02 4.740134e+00) (1.278856e-04 1.241288e-02 -2.069450e-02) (0.000000e+00 0.000000e+00 0.000000e+00))
2.900000e+02	((2.975434e-01 2.254257e+01 -2.656289e-20) (2.476943e-01 -2.505479e-03 2.360737e-22) (0.000000e+00 0.000000e+00 0.000000e+00)) ((-1.127128e+00 1.487717e-02 4.721635e+00) (1.252740e-04 1.238472e-02 -2.063287e-02) (0.000000e+00 0.000000e+00 0.000000e+00))
2.950000e+02	((2.930408e-01 2.249413e+01 -2.654053e-20) (2.471893e-01 -2.451868e-03 2.260013e-22) (0.000000e+00 0.000000e+00 0.000000e+00)) ((-1.124706e+00 1.465204e-02 4.704252e+00) (1.225934e-04 1.235947e-02 -2.057557e-02) (0.000000e+00 0.000000e+00 0.000000e+00))
3.000000e+02	((2.885830e-01 2.244924e+01 -2.655816e-20) (2.467259e-01 -2.399248e-03 2.182765e-22) (0.000000e+00 0.000000e+00 0.000000e+00)) ((-1.122462e+00 1.442915e-02 4.687606e+00) (1.199624e-04 1.233630e-02 -2.052161e-02) (0.000000e+00 0.000000e+00 0.000000e+00))
3.050000e+02	((2.843435e-01 2.241117e+01 -2.651001e-20) (2.462830e-01 -2.348029e-03 2.063096e-22) (0.000000e+00 0.000000e+00 0.000000e+00)) ((-1.120559e+00 1.421718e-02 4.672632e+00) (1.174015e-04 1.231415e-02 -2.047041e-02) (0.000000e+00 0.000000e+00 0.000000e+00))
3.100000e+02	((2.804621e-01 2.237718e+01 -2.646076e-20) (2.458891e-01 -2.295915e-03 1.980082e-22) (0.000000e+00 0.000000e+00 0.000000e+00)) ((-1.118859e+00 1.402310e-02 4.659081e+00) (1.147958e-04 1.229446e-02 -2.042279e-02) (0.000000e+00 0.000000e+00 0.000000e+00))
3.150000e+02	((2.764787e-01 2.234628e+01 -2.644473e-20) (2.455285e-01 -2.245281e-03 1.915237e-22) (0.000000e+00 0.000000e+00 0.000000e+00)) ((-1.117314e+00 1.382394e-02 4.645909e+00) (1.122641e-04 1.227642e-02 -2.037780e-02) (0.000000e+00 0.000000e+00 0.000000e+00))
3.200000e+02	((2.726393e-01 2.232173e+01 -2.636680e-20) (2.451804e-01 -2.196552e-03 1.808510e-22) (0.000000e+00 0.000000e+00 0.000000e+00)) ((-1.116086e+00 1.363196e-02 4.634180e+00) (1.098276e-04 1.225902e-02 -2.033495e-02) (0.000000e+00 0.000000e+00 0.000000e+00))
3.250000e+02	((2.689439e-01 2.230088e+01 -2.631525e-20) (2.448739e-01 -2.147440e-03 1.745636e-22) (0.000000e+00 0.000000e+00 0.000000e+00)) ((-1.115044e+00 1.344720e-02 4.623406e+00) (1.073720e-04 1.224370e-02 -2.029510e-02) (0.000000e+00 0.000000e+00 0.000000e+00))
3.300000e+02	((2.654580e-01 2.228550e+01 -2.627902e-20) (2.445936e-01 -2.100296e-03 1.696176e-22) (0.000000e+00 0.000000e+00 0.000000e+00)) ((-1.114275e+00 1.327290e-02 4.614033e+00) (1.050148e-04 1.222968e-02 -2.025733e-02) (0.000000e+00 0.000000e+00 0.000000e+00))
3.350000e+02	((2.618145e-01 2.227472e+01 -2.623576e-20) (2.443190e-01 -2.055537e-03 1.622645e-22) (0.000000e+00 0.000000e+00 0.000000e+00)) ((-1.113736e+00 1.309072e-02 4.605216e+00) (1.027768e-04 1.221595e-02 -2.022122e-02) (0.000000e+00 0.000000e+00 0.000000e+00))
3.400000e+02	((2.585593e-01 2.226832e+01 -2.615810e-20) (2.440799e-01 -2.010849e-03 1.563855e-22) (0.000000e+00 0.000000e+00 0.000000e+00)) ((-1.113416e+00 1.292797e-02 4.597934e+00) (1.005424e-04 1.220399e-02 -2.018767e-02) (0.000000e+00 0.000000e+00 0.000000e+00))
3.450000e+02	((2.552566e-01 2.226666e+01 -2.616306e-20) (2.438610e-01 -1.968617e-03 1.539352e-22) (0.000000e+00 0.000000e+00 0.000000e+00)) ((-1.113333e+00 1.276283e-02 4.591439e+00) (9.843084e-05 1.219305e-02 -2.015583e-02) (0.000000e+00 0.000000e+00 0.000000e+00))
3.500000e+02	((2.517824e-01 2.226994e+01 -2.613625e-20) (2.436423e-01 -1.929196e-03 1.473512e-22) (0.000000e+00 0.000000e+00 0.000000e+00)) ((-1.113497e+00 1.258912e-02 4.585536e+00) (9.645979e-05 1.218212e-02 -2.012531e-02) (0.000000e+00 0.000000e+00 0.000000e+00))
3.550000e+02	((2.487069e-01 2.227657e+01 -2.611524e-20) (2.434539e-01 -1.890258e-03 1.433760e-22) (0.000000e+00 0.000000e+00 0.000000e+00)) ((-1.113828e+00 1.243534e-02 4.580998e+00) (9.451290e-05 1.217269e-02 -2.009700e-02) (0.000000e+00 0.000000e+00 0.000000e+00))
3.600000e+02	((2.455123e-01 2.228756e+01 -2.610800e-20) (2.432802e-01 -1.854089e-03 1.389629e-22) (0.000000e+00 0.000000e+00 0.000000e+00)) ((-1.114378e+00 1.227562e-02 4.577044e+00) (9.270444e-05 1.216401e-02 -2.007006e-02) (0.000000e+00 0.000000e+00 0.000000e+00))
3.650000e+02	((2.422264e-01 2.230319e+01 -2.608423e-20) (2.431016e-01 -1.821077e-03 1.309511e-22) (0.000000e+00 0.000000e+00 0.000000e+00)) ((-1.115159e+00 1.211132e-02 4.573773e+00) (9.105386e-05 1.215508e-02 -2.004413e-02) (0.000000e+00 0.000000e+00 0.000000e+00))
3.700000e+02	((2.390869e-01 2.232161e+01 -2.608584e-20) (2.429480e-01 -1.788905e-03 1.258317e-22) (0.000000e+00 0.000000e+00 0.000000e+00)) ((-1.116080e+00 1.195434e-02 4.571294e+00) (8.944523e-05 1.214740e-02 -2.002015e-02) (0.000000e+00 0.000000e+00 0.000000e+00))
3.750000e+02	((2.359210e-01 2.234351e+01 -2.610575e-20) (2.428056e-01 -1.759856e-03 1.206216e-22) (0.000000e+00 0.000000e+00 0.000000e+00)) ((-1.117176e+00 1.179605e-02 4.569408e+00) (8.799281e-05 1.214028e-02 -1.999736e-02) (0.000000e+00 0.000000e+00 0.000000e+00))
3.800000e+02	((2.326649e-01 2.236929e+01 -2.611303e-20) (2.426556e-01 -1.734324e-03 1.118363e-22) (0.000000e+00 0.000000e+00 0.000000e+00)) ((-1.118465e+00 1.163324e-02 4.568070e+00) (8.671621e-05 1.213278e-02 -1.997545e-02) (0.000000e+00 0.000000e+00 0.000000e+00))
3.850000e+02	((2.295085e-01 2.239697e+01 -2.606788e-20) (2.425272e-01 -1.710081e-03 1.020591e-22) (0.000000e+00 0.000000e+00 0.000000e+00)) ((-1.119848e+00 1.147543e-02 4.567268e+00) (8.550407e-05 1.212636e-02 -1.995538e-02) (0.000000e+00 0.000000e+00 0.000000e+00))
3.900000e+02	((2.262479e-01 2.242879e+01 -2.611154e-20) (2.424076e-01 -1.689222e-03 9.508713e-23) (0.000000e+00 0.000000e+00 0.000000e+00)) ((-1.121439e+00 1.131240e-02 4.567037e+00) (8.446111e-05 1.212038e-02 -1.993643e-02) (0.000000e+00 0.000000e+00 0.000000e+00))
3.950000e+02	((2.229733e-01 2.246257e+01 -2.616967e-20) (2.422779e-01 -1.672168e-03 8.570381e-23) (0.000000e+00 0.000000e+00 0.000000e+00)) ((-1.123128e+00 1.114866e-02 4.567141e+00) (8.360841e-05 1.211389e-02 -1.991823e-02) (0.000000e+00 0.000000e+00 0.000000e+00))
4.000000e+02	((2.197005e-01 2.249936e+01 -2.618811e-20) (2.421655e-01 -1.656590e-03 7.525341e-23) (0.000000e+00 0.000000e+00 0.000000e+00)) ((-1.124968e+00 1.098502e-02 4.567806e+00) (8.282951e-05 1.210827e-02 -1.990168e-02) (0.000000e+00 0.000000e+00 0.000000e+00))
4.050000e+02	((2.165333e-01 2.253684e+01 -2.624084e-20) (2.420598e-01 -1.644538e-03 6.544036e-23) (0.000000e+00 0.000000e+00 0.000000e+00)) ((-1.126842e+00 1.082666e-02 4.568795e+00) (8.222688e-05 1.210299e-02 -1.988613e-02) (0.000000e+00 0.000000e+00 0.000000e+00))
4.100000e+02	((2.132531e-01 2.257695e+01 -2.629285e-20) (2.419420e-01 -1.636301e-03 5.209985e-23) (0.000000e+00 0.000000e+00 0.000000e+00)) ((-1.128848e+00 1.066265e-02 4.570059e+00) (8.181503e-05 1.209710e-02 -1.987115e-02) (0.000000e+00 0.000000e+00 0.000000e+00))
4.150000e+02	((2.100565e-01 2.261902e+01 -2.636394e-20) (2.418367e-01 -1.629628e-03 4.098962e-23) (0.000000e+00 0.000000e+00 0.000000e+00)) ((-1.130951e+00 1.050282e-02 4.571841e+00) (8.148140e-05 1.209183e-02 -1.985758e-02) (0.000000e+00 0.000000e+00 0.000000e+00))
4.200000e+02	((2.068987e-01 2.266254e+01 -2.645353e-20) (2.417364e-01 -1.626170e-03 3.010458e-23) (0.000000e+00 0.000000e+00 0.000000e+00)) ((-1.133127e+00 1.034494e-02 4.573965e+00) (8.130850e-05 1.208682e-02 -1.984481e-02) (0.000000e+00 0.000000e+00 0.000000e+00))
4.250000e+02	((2.038280e-01 2.270719e+01 -2.647731e-20) (2.416194e-01 -1.627870e-03 1.614195e-23) (0.000000e+00 0.000000e+00 0.000000e+00)) ((-1.135360e+00 1.019140e-02 4.576459e+00) (8.139348e-05 1.208097e-02 -1.983205e-02) (0.000000e+00 0.000000e+00 0.000000e+00))
4.300000e+02	((2.005231e-01 2.275463e+01 -2.657828e-20) (2.415025e-01 -1.630498e-03 4.008564e-24) (0.000000e+00 0.000000e+00 0.000000e+00)) ((-1.137731e+00 1.002615e-02 4.579029e+00) (8.152488e-05 1.207513e-02 -1.982035e-02) (0.000000e+00 0.000000e+00 0.000000e+00))
4.350000e+02	((1.972887e-01 2.280271e+01 -2.667212e-20) (2.413871e-01 -1.636451e-03 -8.104041e-24) (0.000000e+00 0.000000e+00 0.000000e+00)) ((-1.140136e+00 9.864433e-03 4.581851e+00) (8.182255e-05 1.206935e-02 -1.980910e-02) (0.000000e+00 0.000000e+00 0.000000e+00))
4.400000e+02	((1.943749e-01 2.284997e+01 -2.679178e-20) (2.412932e-01 -1.642539e-03 -1.609403e-23) (0.000000e+00 0.000000e+00 0.000000e+00)) ((-1.142499e+00 9.718745e-03 4.585123e+00) (8.212695e-05 1.206466e-02 -1.979924e-02) (0.000000e+00 0.000000e+00 0.000000e+00))
4.450000e+02	((1.914039e-01 2.289888e+01 -2.690336e-20) (2.411773e-01 -1.651767e-03 -2.685270e-23) (0.000000e+00 0.000000e+00 0.000000e+00)) ((-1.144944e+00 9.570193e-03 4.588589e+00) (8.258833e-05 1.205886e-02 -1.978930e-02) (0.000000e+00 0.000000e+00 0.000000e+00))
4.500000e+02	((1.883406e-01 2.294945e+01 -2.701892e-20) (2.410526e-01 -1.663418e-03 -3.572965e-23) (0.000000e+00 0.000000e+00 0.000000e+00)) ((-1.147472e+00 9.417031e-03 4.592191e+00) (8.317090e-05 1.205263e-02 -1.977942e-02) (0.000000e+00 0.000000e+00 0.000000e+00))
4.550000e+02	((1.853898e-01 2.300007e+01 -2.714913e-20) (2.409273e-01 -1.677414e-03 -4.393361e-23) (0.000000e+00 0.000000e+00 0.000000e+00)) ((-1.150004e+00 9.269492e-03 4.596015e+00) (8.387072e-05 1.204637e-02 -1.976953e-02) (0.000000e+00 0.000000e+00 0.000000e+00))
4.600000e+02	((1.825765e-01 2.305045e+01 -2.725225e-20) (2.407915e-01 -1.693857e-03 -5.169458e-23) (0.000000e+00 0.000000e+00 0.000000e+00)) ((-1.152522e+00 9.128824e-03 4.600049e+00) (8.469287e-05 1.203958e-02 -1.975927e-02) (0.000000e+00 0.000000e+00 0.000000e+00))
4.650000e+02	((1.798171e-01 2.310283e+01 -2.741284e-20) (2.406581e-01 -1.709656e-03 -5.741067e-23) (0.000000e+00 0.000000e+00 0.000000e+00)) ((-1.155142e+00 8.990857e-03 4.604556e+00) (8.548282e-05 1.203290e-02 -1.974929e-02) (0.000000e+00 0.000000e+00 0.000000e+00))
4.700000e+02	((1.772834e-01 2.315245e+01 -2.756780e-20) (2.405193e-01 -1.726315e-03 -6.238555e-23) (0.000000e+00 0.000000e+00 0.000000e+00)) ((-1.157623e+00 8.864169e-03 4.608975e+00) (8.631575e-05 1.202596e-02 -1.973896e-02) (0.000000e+00 0.000000e+00 0.000000e+00))
4.750000e+02	((1.748237e-01 2.320323e+01 -2.772667e-20) (2.403713e-01 -1.743776e-03 -6.729241e-23) (0.000000e+00 0.000000e+00 0.000000e+00)) ((-1.160161e+00 8.741183e-03 4.613746e+00) (8.718879e-05 1.201856e-02 -1.972804e-02) (0.000000e+00 0.000000e+00 0.000000e+00))
4.800000e+02	((1.725226e-01 2.325458e+01 -2.791382e-20) (2.402232e-01 -1.760478e-03 -7.140014e-23) (0.000000e+00 0.000000e+00 0.000000e+00)) ((-1.162729e+00 8.626130e-03 4.618920e+00) (8.802390e-05 1.201116e-02 -1.971696e-02) (0.000000e+00 0.000000e+00 0.000000e+00))
4.850000e+02	((1.707159e-01 2.330287e+01 -2.803195e-20) (2.400705e-01 -1.779868e-03 -7.626608e-23) (0.000000e+00 0.000000e+00 0.000000e+00)) ((-1.165144e+00 8.535794e-03 4.624455e+00) (8.899340e-05 1.200353e-02 -1.970486e-02) (0.000000e+00 0.000000e+00 0.000000e+00))
4.900000e+02	((1.682832e-01 2.335385e+01 -2.817697e-20) (2.398832e-01 -1.801087e-03 -8.190699e-23) (0.000000e+00 0.000000e+00 0.000000e+00)) ((-1.167693e+00 8.414161e-03 4.629315e+00) (9.005436e-05 1.199416e-02 -1.969141e-02) (0.000000e+00 0.000000e+00 0.000000e+00))
4.950000e+02	((1.659009e-01 2.340551e+01 -2.846346e-20) (2.397234e-01 -1.816536e-03 -8.523702e-23) (0.000000e+00 0.000000e+00 0.000000e+00)) ((-1.170275e+00 8.295044e-03 4.634393e+00) (9.082678e-05 1.198617e-02 -1.967934e-02) (0.000000e+00 0.000000e+00 0.000000e+00))
5.000000e+02	((1.639814e-01 2.345307e+01 -2.847921e-20) (2.395249e-01 -1.841242e-03 -9.253014e-23) (0.000000e+00 0.000000e+00 0.000000e+00)) ((-1.172654e+00 8.199070e-03 4.639584e+00) (9.206209e-05 1.197624e-02 -1.966436e-02) (0.000000e+00 0.000000e+00 0.000000e+00))
5.050000e+02	((1.617981e-01 2.350090e+01 -2.871677e-20) (2.393342e-01 -1.862675e-03 -9.565792e-23) (0.000000e+00 0.000000e+00 0.000000e+00)) ((-1.175045e+00 8.089906e-03 4.644328e+00) (9.313376e-05 1.196671e-02 -1.965003e-02) (0.000000e+00 0.000000e+00 0.000000e+00))
5.100000e+02	((1.595514e-01 2.354758e+01 -2.885766e-20) (2.391434e-01 -1.883511e-03 -1.027547e-22) (0.000000e+00 0.000000e+00 0.000000e+00)) ((-1.177379e+00 7.977568e-03 4.648742e+00) (9.417557e-05 1.195717e-02 -1.963572e-02) (0.000000e+00 0.000000e+00 0.000000e+00))
5.150000e+02	((1.573073e-01 2.359254e+01 -2.908740e-20) (2.389517e-01 -1.904282e-03 -1.065687e-22) (0.000000e+00 0.000000e+00 0.000000e+00)) ((-1.179627e+00 7.865367e-03 4.652842e+00) (9.521410e-05 1.194759e-02 -1.962140e-02) (0.000000e+00 0.000000e+00 0.000000e+00))
5.200000e+02	((1.550229e-01 2.363543e+01 -2.929973e-20) (2.387619e-01 -1.924529e-03 -1.123234e-22) (0.000000e+00 0.000000e+00 0.000000e+00)) ((-1.181772e+00 7.751145e-03 4.656484e+00) (9.622645e-05 1.193809e-02 -1.960730e-02) (0.000000e+00 0.000000e+00 0.000000e+00))
5.250000e+02	((1.526806e-01 2.367641e+01 -2.958387e-20) (2.385736e-01 -1.944357e-03 -1.156094e-22) (0.000000e+00 0.000000e+00 0.000000e+00)) ((-1.183821e+00 7.634032e-03 4.659666e+00) (9.721787e-05 1.192868e-02 -1.959350e-02) (0.000000e+00 0.000000e+00 0.000000e+00))
5.300000e+02	((1.503121e-01 2.371548e+01 -2.982713e-20) (2.383804e-01 -1.965499e-03 -1.203748e-22) (0.000000e+00 0.000000e+00 0.000000e+00)) ((-1.185774e+00 7.515606e-03 4.662445e+00) (9.827494e-05 1.191902e-02 -1.957959e-02) (0.000000e+00 0.000000e+00 0.000000e+00))
5.350000e+02	((1.479671e-01 2.375245e+01 -3.002519e-20) (2.381821e-01 -1.988292e-03 -1.264522e-22) (0.000000e+00 0.000000e+00 0.000000e+00)) ((-1.187622e+00 7.398357e-03 4.664880e+00) (9.941460e-05 1.190911e-02 -1.956556e-02) (0.000000e+00 0.000000e+00 0.000000e+00))
5.400000e+02	((1.456612e-01 2.378739e+01 -3.024375e-20) (2.379816e-01 -2.012156e-03 -1.310976e-22) (0.000000e+00 0.000000e+00 0.000000e+00)) ((-1.189369e+00 7.283062e-03 4.667014e+00) (1.006078e-04 1.189908e-02 -1.955162e-02) (0.000000e+00 0.000000e+00 0.000000e+00))
5.450000e+02	((1.434136e-01 2.382067e+01 -3.046641e-20) (2.377800e-01 -2.036826e-03 -1.352560e-22) (0.000000e+00 0.000000e+00 0.000000e+00)) ((-1.191034e+00 7.170678e-03 4.668951e+00) (1.018413e-04 1.188900e-02 -1.953788e-02) (0.000000e+00 0.000000e+00 0.000000e+00))
5.500000e+02	((1.412390e-01 2.385238e+01 -3.068840e-20) (2.375782e-01 -2.062176e-03 -1.390319e-22) (0.000000e+00 0.000000e+00 0.000000e+00)) ((-1.192619e+00 7.061952e-03 4.670735e+00) (1.031088e-04 1.187891e-02 -1.952438e-02) (0.000000e+00 0.000000e+00 0.000000e+00))
5.550000e+02	((1.391481e-01 2.388267e+01 -3.090927e-20) (2.373765e-01 -2.088081e-03 -1.424347e-22) (0.000000e+00 0.000000e+00 0.000000e+00)) ((-1.194134e+00 6.957406e-03 4.672412e+00) (1.044040e-04 1.186883e-02 -1.951112e-02) (0.000000e+00 0.000000e+00 0.000000e+00))