# Forces     
# CofR       : (0.000000e+00 0.000000e+00 0.000000e+00)
# Time       forces(pressure viscous porous) moment(pressure viscous porous)
5.000000e+00	((-5.133490e-01 -2.940977e+01 -1.843856e-20) (4.768152e-01 -1.246088e-02 2.928641e-21) (0.000000e+00 0.000000e+00 0.000000e+00)) ((1.470488e+00 -2.566745e-02 -8.318849e+00) (6.230442e-04 2.384076e-02 -1.035477e-03) (0.000000e+00 0.000000e+00 0.000000e+00))
1.000000e+01	((9.724839e-02 5.571362e+00 -5.852222e-21) (4.230901e-01 -1.904884e-02 -1.364819e-21) (0.000000e+00 0.000000e+00 0.000000e+00)) ((-2.785681e-01 4.862420e-03 1.554334e+00) (9.524422e-04 2.115450e-02 -3.060748e-03) (0.000000e+00 0.000000e+00 0.000000e+00))
1.500000e+01	((-3.005276e-02 -1.721725e+00 8.062583e-24) (3.605731e-01 -8.277360e-03 7.247954e-22) (0.000000e+00 0.000000e+00 0.000000e+00)) ((8.608623e-02 -1.502638e-03 -8.588813e-01) (4.138680e-04 1.802865e-02 -5.329613e-04) (0.000000e+00 0.000000e+00 0.000000e+00))
2.000000e+01	((4.531558e-02 2.596128e+00 -2.130000e-20) (3.136616e-01 -4.690386e-03 7.047107e-22) (0.000000e+00 0.000000e+00 0.000000e+00)) ((-1.298064e-01 2.265779e-03 1.215046e-01) (2.345193e-04 1.568308e-02 1.412945e-04) (0.000000e+00 0.000000e+00 0.000000e+00))
2.500000e+01	((2.975543e-02 1.704687e+00 -7.892691e-21) (2.897251e-01 -4.441016e-03 -2.042124e-22) (0.000000e+00 0.000000e+00 0.000000e+00)) ((-8.523435e-02 1.487772e-03 3.610176e-01) (2.220508e-04 1.448625e-02 1.782347e-04) (0.000000e+00 0.000000e+00 0.000000e+00))
3.000000e+01	((1.286525e-02 7.370482e-01 -5.705581e-21) (2.756676e-01 -4.671984e-03 2.718139e-22) (0.000000e+00 0.000000e+00 0.000000e+00)) ((-3.685241e-02 6.432627e-04 -1.851486e-01) (2.335992e-04 1.378338e-02 1.884009e-05) (0.000000e+00 0.000000e+00 0.000000e+00))
3.500000e+01	((2.818628e-02 1.614790e+00 -1.222706e-20) (2.666969e-01 -4.606153e-03 3.668261e-22) (0.000000e+00 0.000000e+00 0.000000e+00)) ((-8.073948e-02 1.409314e-03 9.718256e-02) (2.303076e-04 1.333485e-02 -2.737642e-05) (0.000000e+00 0.000000e+00 0.000000e+00))
4.000000e+01	((2.410212e-02 1.380808e+00 -7.341016e-21) (2.604724e-01 -4.487233e-03 8.732070e-23) (0.000000e+00 0.000000e+00 0.000000e+00)) ((-6.904040e-02 1.205106e-03 3.443270e-02) (2.243616e-04 1.302362e-02 -1.978383e-05) (0.000000e+00 0.000000e+00 0.000000e+00))
4.500000e+01	((2.647942e-02 1.517003e+00 -6.900235e-21) (2.559645e-01 -4.399048e-03 1.463544e-23) (0.000000e+00 0.000000e+00 0.000000e+00)) ((-7.585016e-02 1.323971e-03 3.416052e-02) (2.199524e-04 1.279823e-02 -2.633304e-05) (0.000000e+00 0.000000e+00 0.000000e+00))
5.000000e+01	((2.865062e-02 1.641391e+00 -8.806722e-21) (2.527957e-01 -4.323978e-03 1.394094e-22) (0.000000e+00 0.000000e+00 0.000000e+00)) ((-8.206956e-02 1.432531e-03 5.003018e-02) (2.161989e-04 1.263978e-02 -2.520845e-05) (0.000000e+00 0.000000e+00 0.000000e+00))
5.500000e+01	((2.902764e-02 1.662990e+00 -5.848737e-21) (2.504802e-01 -4.278399e-03 -7.849131e-23) (0.000000e+00 0.000000e+00 0.000000e+00)) ((-8.314951e-02 1.451382e-03 4.082648e-02) (2.139200e-04 1.252401e-02 -2.783246e-05) (0.000000e+00 0.000000e+00 0.000000e+00))
6.000000e+01	((3.004932e-02 1.721522e+00 -7.040316e-21) (2.487799e-01 -4.244132e-03 -1.727125e-23) (0.000000e+00 0.000000e+00 0.000000e+00)) ((-8.607612e-02 1.502466e-03 4.389599e-02) (2.122066e-04 1.243899e-02 -2.774340e-05) (0.000000e+00 0.000000e+00 0.000000e+00))
6.500000e+01	((3.099269e-02 1.775568e+00 -5.729108e-21) (2.474542e-01 -4.215996e-03 -1.216474e-22) (0.000000e+00 0.000000e+00 0.000000e+00)) ((-8.877838e-02 1.549635e-03 3.798569e-02) (2.107998e-04 1.237271e-02 -3.005039e-05) (0.000000e+00 0.000000e+00 0.000000e+00))
7.000000e+01	((3.144142e-02 1.801275e+00 -5.814692e-21) (2.465839e-01 -4.193413e-03 -1.285638e-22) (0.000000e+00 0.000000e+00 0.000000e+00)) ((-9.006376e-02 1.572071e-03 3.584276e-02) (2.096706e-04 1.232920e-02 -3.128978e-05) (0.000000e+00 0.000000e+00 0.000000e+00))
7.500000e+01	((3.217641e-02 1.843383e+00 -5.034572e-21) (2.459045e-01 -4.176169e-03 -1.912292e-22) (0.000000e+00 0.000000e+00 0.000000e+00)) ((-9.216913e-02 1.608821e-03 2.866177e-02) (2.088085e-04 1.229523e-02 -3.325218e-05) (0.000000e+00 0.000000e+00 0.000000e+00))
8.000000e+01	((3.239296e-02 1.855788e+00 -4.852571e-21) (2.453835e-01 -4.161432e-03 -2.093934e-22) (0.000000e+00 0.000000e+00 0.000000e+00)) ((-9.278942e-02 1.619648e-03 2.512365e-02) (2.080716e-04 1.226918e-02 -3.415271e-05) (0.000000e+00 0.000000e+00 0.000000e+00))
8.500000e+01	((3.298623e-02 1.889777e+00 -4.371749e-21) (2.449449e-01 -4.148961e-03 -2.512037e-22) (0.000000e+00 0.000000e+00 0.000000e+00)) ((-9.448885e-02 1.649312e-03 2.075759e-02) (2.074480e-04 1.224724e-02 -3.591520e-05) (0.000000e+00 0.000000e+00 0.000000e+00))
9.000000e+01	((3.312488e-02 1.897720e+00 -4.491818e-21) (2.445920e-01 -4.138035e-03 -2.417288e-22) (0.000000e+00 0.000000e+00 0.000000e+00)) ((-9.488600e-02 1.656244e-03 1.591932e-02) (2.069018e-04 1.222960e-02 -3.683224e-05) (0.000000e+00 0.000000e+00 0.000000e+00))
9.500000e+01	((3.352877e-02 1.920859e+00 -4.125700e-21) (2.442983e-01 -4.128382e-03 -2.795210e-22) (0.000000e+00 0.000000e+00 0.000000e+00)) ((-9.604293e-02 1.676438e-03 1.722108e-02) (2.064191e-04 1.221492e-02 -3.808373e-05) (0.000000e+00 0.000000e+00 0.000000e+00))
1.000000e+02	((3.368838e-02 1.930003e+00 -4.332953e-21) (2.440806e-01 -4.121546e-03 -2.547902e-22) (0.000000e+00 0.000000e+00 0.000000e+00)) ((-9.650014e-02 1.684419e-03 1.130773e-02) (2.060773e-04 1.220403e-02 -3.891400e-05) (0.000000e+00 0.000000e+00 0.000000e+00))
1.050000e+02	((3.395679e-02 1.945380e+00 -4.131276e-21) (2.439021e-01 -4.115647e-03 -2.807342e-22) (0.000000e+00 0.000000e+00 0.000000e+00)) ((-9.726900e-02 1.697840e-03 1.338223e-02) (2.057824e-04 1.219510e-02 -3.965523e-05) (0.000000e+00 0.000000e+00 0.000000e+00))
1.100000e+02	((3.405155e-02 1.950808e+00 -4.212147e-21) (2.437667e-01 -4.109763e-03 -2.696343e-22) (0.000000e+00 0.000000e+00 0.000000e+00)) ((-9.754042e-02 1.702577e-03 9.736642e-03) (2.054881e-04 1.218833e-02 -4.043270e-05) (0.000000e+00 0.000000e+00 0.000000e+00))
1.150000e+02	((3.430883e-02 1.965548e+00 -4.036310e-21) (2.436537e-01 -4.104909e-03 -2.842216e-22) (0.000000e+00 0.000000e+00 0.000000e+00)) ((-9.827739e-02 1.715441e-03 1.054255e-02) (2.052454e-04 1.218268e-02 -4.118861e-05) (0.000000e+00 0.000000e+00 0.000000e+00))
1.200000e+02	((3.439337e-02 1.970391e+00 -4.161215e-21) (2.435538e-01 -4.100784e-03 -2.795164e-22) (0.000000e+00 0.000000e+00 0.000000e+00)) ((-9.851956e-02 1.719668e-03 9.782250e-03) (2.050392e-04 1.217769e-02 -4.169831e-05) (0.000000e+00 0.000000e+00 0.000000e+00))
1.250000e+02	((3.457517e-02 1.980806e+00 -4.005404e-21) (2.434662e-01 -4.097211e-03 -2.880354e-22) (0.000000e+00 0.000000e+00 0.000000e+00)) ((-9.904032e-02 1.728758e-03 9.403494e-03) (2.048605e-04 1.217331e-02 -4.225565e-05) (0.000000e+00 0.000000e+00 0.000000e+00))
1.300000e+02	((3.469728e-02 1.987802e+00 -4.073074e-21) (2.433848e-01 -4.094046e-03 -2.888750e-22) (0.000000e+00 0.000000e+00 0.000000e+00)) ((-9.939011e-02 1.734864e-03 9.970474e-03) (2.047023e-04 1.216924e-02 -4.261089e-05) (0.000000e+00 0.000000e+00 0.000000e+00))
1.350000e+02	((3.481043e-02 1.994284e+00 -4.027011e-21) (2.433094e-01 -4.091304e-03 -2.904724e-22) (0.000000e+00 0.000000e+00 0.000000e+00)) ((-9.971422e-02 1.740521e-03 9.447598e-03) (2.045652e-04 1.216547e-02 -4.299481e-05) (0.000000e+00 0.000000e+00 0.000000e+00))
1.400000e+02	((3.493227e-02 2.001265e+00 -4.020730e-21) (2.431775e-01 -4.089704e-03 -2.955001e-22) (0.000000e+00 0.000000e+00 0.000000e+00)) ((-1.000632e-01 1.746614e-03 1.000881e-02) (2.044852e-04 1.215887e-02 -4.288821e-05) (0.000000e+00 0.000000e+00 0.000000e+00))
1.450000e+02	((3.501594e-02 2.006058e+00 -4.037844e-21) (2.431003e-01 -4.087558e-03 -2.943732e-22) (0.000000e+00 0.000000e+00 0.000000e+00)) ((-1.003029e-01 1.750797e-03 9.973118e-03) (2.043779e-04 1.215502e-02 -4.303013e-05) (0.000000e+00 0.000000e+00 0.000000e+00))
1.500000e+02	((3.510803e-02 2.011334e+00 -3.981386e-21) (2.430560e-01 -4.085506e-03 -3.001820e-22) (0.000000e+00 0.000000e+00 0.000000e+00)) ((-1.005667e-01 1.755402e-03 1.025758e-02) (2.042753e-04 1.215280e-02 -4.337651e-05) (0.000000e+00 0.000000e+00 0.000000e+00))
1.550000e+02	((3.518791e-02 2.015910e+00 -4.008444e-21) (2.429935e-01 -4.084145e-03 -2.996277e-22) (0.000000e+00 0.000000e+00 0.000000e+00)) ((-1.007955e-01 1.759396e-03 1.043911e-02) (2.042072e-04 1.214968e-02 -4.340022e-05) (0.000000e+00 0.000000e+00 0.000000e+00))
1.600000e+02	((3.525916e-02 2.019992e+00 -3.977542e-21) (2.429584e-01 -4.082483e-03 -3.026077e-22) (0.000000e+00 0.000000e+00 0.000000e+00)) ((-1.009996e-01 1.762958e-03 1.052393e-02) (2.041241e-04 1.214792e-02 -4.369912e-05) (0.000000e+00 0.000000e+00 0.000000e+00))
1.650000e+02	((3.532665e-02 2.023859e+00 -3.980676e-21) (2.429033e-01 -4.081508e-03 -3.038241e-22) (0.000000e+00 0.000000e+00 0.000000e+00)) ((-1.011929e-01 1.766333e-03 1.072438e-02) (2.040754e-04 1.214517e-02 -4.367426e-05) (0.000000e+00 0.000000e+00 0.000000e+00))
1.700000e+02	((3.538673e-02 2.027301e+00 -3.973977e-21) (2.428754e-01 -4.080080e-03 -3.050623e-22) (0.000000e+00 0.000000e+00 0.000000e+00)) ((-1.013650e-01 1.769336e-03 1.074195e-02) (2.040040e-04 1.214377e-02 -4.393940e-05) (0.000000e+00 0.000000e+00 0.000000e+00))
1.750000e+02	((3.544120e-02 2.030421e+00 -3.962406e-21) (2.428269e-01 -4.079350e-03 -3.068010e-22) (0.000000e+00 0.000000e+00 0.000000e+00)) ((-1.015211e-01 1.772060e-03 1.080208e-02) (2.039675e-04 1.214135e-02 -4.389053e-05) (0.000000e+00 0.000000e+00 0.000000e+00))
1.800000e+02	((3.549115e-02 2.033283e+00 -3.966437e-21) (2.428052e-01 -4.078114e-03 -3.074029e-22) (0.000000e+00 0.000000e+00 0.000000e+00)) ((-1.016641e-01 1.774557e-03 1.076146e-02) (2.039057e-04 1.214026e-02 -4.414427e-05) (0.000000e+00 0.000000e+00 0.000000e+00))
1.850000e+02	((3.553840e-02 2.035990e+00 -3.949978e-21) (2.427626e-01 -4.077505e-03 -3.090614e-22) (0.000000e+00 0.000000e+00 0.000000e+00)) ((-1.017995e-01 1.776920e-03 1.071254e-02) (2.038752e-04 1.213813e-02 -4.408696e-05) (0.000000e+00 0.000000e+00 0.000000e+00))
1.900000e+02	((3.557222e-02 2.037928e+00 -3.954282e-21) (2.427458e-01 -4.076438e-03 -3.093184e-22) (0.000000e+00 0.000000e+00 0.000000e+00)) ((-1.018964e-01 1.778611e-03 1.062521e-02) (2.038219e-04 1.213729e-02 -4.432819e-05) (0.000000e+00 0.000000e+00 0.000000e+00))
1.950000e+02	((3.561556e-02 2.040410e+00 -3.943236e-21) (2.427073e-01 -4.076002e-03 -3.106428e-22) (0.000000e+00 0.000000e+00 0.000000e+00)) ((-1.020205e-01 1.780778e-03 1.053569e-02) (2.038001e-04 1.213536e-02 -4.424079e-05) (0.000000e+00 0.000000e+00 0.000000e+00))
2.000000e+02	((3.564467e-02 2.042078e+00 -3.946870e-21) (2.426946e-01 -4.075059e-03 -3.108727e-22) (0.000000e+00 0.000000e+00 0.000000e+00)) ((-1.021039e-01 1.782234e-03 1.037797e-02) (2.037529e-04 1.213473e-02 -4.447028e-05) (0.000000e+00 0.000000e+00 0.000000e+00))
2.050000e+02	((3.567187e-02 2.043636e+00 -3.941504e-21) (2.426593e-01 -4.074737e-03 -3.114861e-22) (0.000000e+00 0.000000e+00 0.000000e+00)) ((-1.021818e-01 1.783593e-03 1.029966e-02) (2.037368e-04 1.213296e-02 -4.437416e-05) (0.000000e+00 0.000000e+00 0.000000e+00))
2.100000e+02	((3.570038e-02 2.045270e+00 -3.943543e-21) (2.426498e-01 -4.073847e-03 -3.117792e-22) (0.000000e+00 0.000000e+00 0.000000e+00)) ((-1.022635e-01 1.785019e-03 1.014145e-02) (2.036923e-04 1.213249e-02 -4.459709e-05) (0.000000e+00 0.000000e+00 0.000000e+00))
2.150000e+02	((3.572329e-02 2.046582e+00 -3.934597e-21) (2.426230e-01 -4.073643e-03 -3.124987e-22) (0.000000e+00 0.000000e+00 0.000000e+00)) ((-1.023291e-01 1.786164e-03 1.005273e-02) (2.036821e-04 1.213115e-02 -4.449647e-05) (0.000000e+00 0.000000e+00 0.000000e+00))
2.200000e+02	((3.574243e-02 2.047678e+00 -3.934962e-21) (2.426205e-01 -4.072942e-03 -3.127383e-22) (0.000000e+00 0.000000e+00 0.000000e+00)) ((-1.023839e-01 1.787121e-03 9.941740e-03) (2.036471e-04 1.213102e-02 -4.470081e-05) (0.000000e+00 0.000000e+00 0.000000e+00))
2.250000e+02	((3.575834e-02 2.048590e+00 -3.932001e-21) (2.425925e-01 -4.072788e-03 -3.129405e-22) (0.000000e+00 0.000000e+00 0.000000e+00)) ((-1.024295e-01 1.787917e-03 9.883439e-03) (2.036394e-04 1.212963e-02 -4.458355e-05) (0.000000e+00 0.000000e+00 0.000000e+00))
2.300000e+02	((3.577244e-02 2.049398e+00 -3.930297e-21) (2.425893e-01 -4.072185e-03 -3.134174e-22) (0.000000e+00 0.000000e+00 0.000000e+00)) ((-1.024699e-01 1.788622e-03 9.836874e-03) (2.036093e-04 1.212947e-02 -4.476002e-05) (0.000000e+00 0.000000e+00 0.000000e+00))
2.350000e+02	((3.578409e-02 2.050065e+00 -3.930720e-21) (2.425628e-01 -4.072132e-03 -3.132146e-22) (0.000000e+00 0.000000e+00 0.000000e+00)) ((-1.025033e-01 1.789204e-03 9.773170e-03) (2.036066e-04 1.212814e-02 -4.463191e-05) (0.000000e+00 0.000000e+00 0.000000e+00))
2.400000e+02	((3.579935e-02 2.050939e+00 -3.930174e-21) (2.425623e-01 -4.071552e-03 -3.138238e-22) (0.000000e+00 0.000000e+00 0.000000e+00)) ((-1.025470e-01 1.789967e-03 9.765173e-03) (2.035776e-04 1.212811e-02 -4.480573e-05) (0.000000e+00 0.000000e+00 0.000000e+00))
2.450000e+02	((3.580733e-02 2.051397e+00 -3.927755e-21) (2.425383e-01 -4.071573e-03 -3.136763e-22) (0.000000e+00 0.000000e+00 0.000000e+00)) ((-1.025698e-01 1.790366e-03 9.728905e-03) (2.035787e-04 1.212692e-02 -4.466782e-05) (0.000000e+00 0.000000e+00 0.000000e+00))
2.500000e+02	((3.581840e-02 2.052031e+00 -3.930730e-21) (2.425404e-01 -4.071068e-03 -3.140146e-22) (0.000000e+00 0.000000e+00 0.000000e+00)) ((-1.026015e-01 1.790920e-03 9.732106e-03) (2.035534e-04 1.212702e-02 -4.483700e-05) (0.000000e+00 0.000000e+00 0.000000e+00))
2.550000e+02	((3.582542e-02 2.052433e+00 -3.925754e-21) (2.425191e-01 -4.071168e-03 -3.141398e-22) (0.000000e+00 0.000000e+00 0.000000e+00)) ((-1.026217e-01 1.791271e-03 9.727676e-03) (2.035584e-04 1.212595e-02 -4.469087e-05) (0.000000e+00 0.000000e+00 0.000000e+00))
2.600000e+02	((3.583452e-02 2.052955e+00 -3.928642e-21) (2.425233e-01 -4.070695e-03 -3.143068e-22) (0.000000e+00 0.000000e+00 0.000000e+00)) ((-1.026477e-01 1.791726e-03 9.736093e-03) (2.035347e-04 1.212616e-02 -4.485899e-05) (0.000000e+00 0.000000e+00 0.000000e+00))
2.650000e+02	((3.583989e-02 2.053262e+00 -3.926363e-21) (2.425040e-01 -4.070848e-03 -3.143701e-22) (0.000000e+00 0.000000e+00 0.000000e+00)) ((-1.026631e-01 1.791995e-03 9.733810e-03) (2.035424e-04 1.212520e-02 -4.470788e-05) (0.000000e+00 0.000000e+00 0.000000e+00))
2.700000e+02	((3.584737e-02 2.053691e+00 -3.924792e-21) (2.425099e-01 -4.070406e-03 -3.147575e-22) (0.000000e+00 0.000000e+00 0.000000e+00)) ((-1.026845e-01 1.792368e-03 9.753360e-03) (2.035203e-04 1.212550e-02 -4.487506e-05) (0.000000e+00 0.000000e+00 0.000000e+00))
2.750000e+02	((3.585204e-02 2.053958e+00 -3.926668e-21) (2.424923e-01 -4.070601e-03 -3.145020e-22) (0.000000e+00 0.000000e+00 0.000000e+00)) ((-1.026979e-01 1.792602e-03 9.747156e-03) (2.035300e-04 1.212462e-02 -4.472278e-05) (0.000000e+00 0.000000e+00 0.000000e+00))
2.800000e+02	((3.585731e-02 2.054260e+00 -3.924069e-21) (2.424997e-01 -4.070190e-03 -3.150259e-22) (0.000000e+00 0.000000e+00 0.000000e+00)) ((-1.027130e-01 1.792865e-03 9.761536e-03) (2.035095e-04 1.212498e-02 -4.488668e-05) (0.000000e+00 0.000000e+00 0.000000e+00))
2.850000e+02	((3.586234e-02 2.054548e+00 -3.924809e-21) (2.424833e-01 -4.070393e-03 -3.147456e-22) (0.000000e+00 0.000000e+00 0.000000e+00)) ((-1.027274e-01 1.793117e-03 9.760101e-03) (2.035196e-04 1.212417e-02 -4.473695e-05) (0.000000e+00 0.000000e+00 0.000000e+00))
2.900000e+02	((3.586556e-02 2.054733e+00 -3.923888e-21) (2.424918e-01 -4.070021e-03 -3.151834e-22) (0.000000e+00 0.000000e+00 0.000000e+00)) ((-1.027366e-01 1.793278e-03 9.757201e-03) (2.035010e-04 1.212459e-02 -4.489760e-05) (0.000000e+00 0.000000e+00 0.000000e+00))
2.950000e+02	((3.586981e-02 2.054976e+00 -3.923276e-21) (2.424764e-01 -4.070240e-03 -3.149726e-22) (0.000000e+00 0.000000e+00 0.000000e+00)) ((-1.027488e-01 1.793491e-03 9.765764e-03) (2.035120e-04 1.212382e-02 -4.474635e-05) (0.000000e+00 0.000000e+00 0.000000e+00))
3.000000e+02	((3.587263e-02 2.055138e+00 -3.924188e-21) (2.424856e-01 -4.069875e-03 -3.152448e-22) (0.000000e+00 0.000000e+00 0.000000e+00)) ((-1.027569e-01 1.793632e-03 9.749029e-03) (2.034937e-04 1.212428e-02 -4.491007e-05) (0.000000e+00 0.000000e+00 0.000000e+00))
3.050000e+02	((3.587536e-02 2.055294e+00 -3.922561e-21) (2.424709e-01 -4.070108e-03 -3.151292e-22) (0.000000e+00 0.000000e+00 0.000000e+00)) ((-1.027647e-01 1.793768e-03 9.753716e-03) (2.035054e-04 1.212354e-02 -4.475516e-05) (0.000000e+00 0.000000e+00 0.000000e+00))
3.100000e+02	((3.587834e-02 2.055465e+00 -3.923125e-21) (2.424807e-01 -4.069760e-03 -3.153803e-22) (0.000000e+00 0.000000e+00 0.000000e+00)) ((-1.027732e-01 1.793917e-03 9.742704e-03) (2.034880e-04 1.212403e-02 -4.491908e-05) (0.000000e+00 0.000000e+00 0.000000e+00))
3.150000e+02	((3.587990e-02 2.055554e+00 -3.922790e-21) (2.424665e-01 -4.070005e-03 -3.151719e-22) (0.000000e+00 0.000000e+00 0.000000e+00)) ((-1.027777e-01 1.793995e-03 9.733432e-03) (2.035002e-04 1.212332e-02 -4.476451e-05) (0.000000e+00 0.000000e+00 0.000000e+00))
3.200000e+02	((3.588225e-02 2.055689e+00 -3.921984e-21) (2.424767e-01 -4.069663e-03 -3.155164e-22) (0.000000e+00 0.000000e+00 0.000000e+00)) ((-1.027844e-01 1.794112e-03 9.730896e-03) (2.034831e-04 1.212384e-02 -4.492572e-05) (0.000000e+00 0.000000e+00 0.000000e+00))
3.250000e+02	((3.588387e-02 2.055782e+00 -3.922573e-21) (2.424628e-01 -4.069921e-03 -3.152238e-22) (0.000000e+00 0.000000e+00 0.000000e+00)) ((-1.027891e-01 1.794194e-03 9.720613e-03) (2.034960e-04 1.212314e-02 -4.477162e-05) (0.000000e+00 0.000000e+00 0.000000e+00))
3.300000e+02	((3.588502e-02 2.055848e+00 -3.921863e-21) (2.424734e-01 -4.069587e-03 -3.155594e-22) (0.000000e+00 0.000000e+00 0.000000e+00)) ((-1.027924e-01 1.794251e-03 9.712779e-03) (2.034793e-04 1.212367e-02 -4.493187e-05) (0.000000e+00 0.000000e+00 0.000000e+00))
3.350000e+02	((3.588675e-02 2.055947e+00 -3.921954e-21) (2.424599e-01 -4.069847e-03 -3.153004e-22) (0.000000e+00 0.000000e+00 0.000000e+00)) ((-1.027973e-01 1.794337e-03 9.711052e-03) (2.034923e-04 1.212299e-02 -4.477676e-05) (0.000000e+00 0.000000e+00 0.000000e+00))
3.400000e+02	((3.588772e-02 2.056002e+00 -3.922018e-21) (2.424707e-01 -4.069524e-03 -3.155779e-22) (0.000000e+00 0.000000e+00 0.000000e+00)) ((-1.028001e-01 1.794386e-03 9.701358e-03) (2.034762e-04 1.212354e-02 -4.493708e-05) (0.000000e+00 0.000000e+00 0.000000e+00))
3.450000e+02	((3.588852e-02 2.056048e+00 -3.921389e-21) (2.424575e-01 -4.069793e-03 -3.153569e-22) (0.000000e+00 0.000000e+00 0.000000e+00)) ((-1.028024e-01 1.794426e-03 9.699532e-03) (2.034897e-04 1.212287e-02 -4.478026e-05) (0.000000e+00 0.000000e+00 0.000000e+00))
3.500000e+02	((3.588968e-02 2.056114e+00 -3.921965e-21) (2.424685e-01 -4.069473e-03 -3.156038e-22) (0.000000e+00 0.000000e+00 0.000000e+00)) ((-1.028057e-01 1.794484e-03 9.696203e-03) (2.034736e-04 1.212343e-02 -4.494025e-05) (0.000000e+00 0.000000e+00 0.000000e+00))
3.550000e+02	((3.589036e-02 2.056153e+00 -3.921482e-21) (2.424555e-01 -4.069748e-03 -3.153750e-22) (0.000000e+00 0.000000e+00 0.000000e+00)) ((-1.028077e-01 1.794518e-03 9.692905e-03) (2.034874e-04 1.212277e-02 -4.478375e-05) (0.000000e+00 0.000000e+00 0.000000e+00))
3.600000e+02	((3.589087e-02 2.056183e+00 -3.921361e-21) (2.424668e-01 -4.069435e-03 -3.156537e-22) (0.000000e+00 0.000000e+00 0.000000e+00)) ((-1.028091e-01 1.794543e-03 9.691034e-03) (2.034717e-04 1.212334e-02 -4.494208e-05) (0.000000e+00 0.000000e+00 0.000000e+00))
3.650000e+02	((3.589173e-02 2.056232e+00 -3.921734e-21) (2.424539e-01 -4.069713e-03 -3.153784e-22) (0.000000e+00 0.000000e+00 0.000000e+00)) ((-1.028116e-01 1.794587e-03 9.691831e-03) (2.034856e-04 1.212269e-02 -4.478561e-05) (0.000000e+00 0.000000e+00 0.000000e+00))
3.700000e+02	((3.589214e-02 2.056255e+00 -3.921334e-21) (2.424653e-01 -4.069404e-03 -3.156739e-22) (0.000000e+00 0.000000e+00 0.000000e+00)) ((-1.028128e-01 1.794607e-03 9.688734e-03) (2.034702e-04 1.212327e-02 -4.494421e-05) (0.000000e+00 0.000000e+00 0.000000e+00))
3.750000e+02	((3.589255e-02 2.056279e+00 -3.921302e-21) (2.424526e-01 -4.069686e-03 -3.154131e-22) (0.000000e+00 0.000000e+00 0.000000e+00)) ((-1.028139e-01 1.794627e-03 9.690301e-03) (2.034843e-04 1.212263e-02 -4.478661e-05) (0.000000e+00 0.000000e+00 0.000000e+00))
3.800000e+02	((3.589319e-02 2.056315e+00 -3.921592e-21) (2.424642e-01 -4.069381e-03 -3.156778e-22) (0.000000e+00 0.000000e+00 0.000000e+00)) ((-1.028158e-01 1.794659e-03 9.689980e-03) (2.034690e-04 1.212321e-02 -4.494539e-05) (0.000000e+00 0.000000e+00 0.000000e+00))
3.850000e+02	((3.589338e-02 2.056327e+00 -3.921103e-21) (2.424516e-01 -4.069666e-03 -3.154354e-22) (0.000000e+00 0.000000e+00 0.000000e+00)) ((-1.028163e-01 1.794669e-03 9.689671e-03) (2.034833e-04 1.212258e-02 -4.478787e-05) (0.000000e+00 0.000000e+00 0.000000e+00))
3.900000e+02	((3.589377e-02 2.056349e+00 -3.921424e-21) (2.424633e-01 -4.069361e-03 -3.156961e-22) (0.000000e+00 0.000000e+00 0.000000e+00)) ((-1.028174e-01 1.794689e-03 9.690048e-03) (2.034681e-04 1.212317e-02 -4.494609e-05) (0.000000e+00 0.000000e+00 0.000000e+00))
3.950000e+02	((3.589422e-02 2.056375e+00 -3.921240e-21) (2.424508e-01 -4.069650e-03 -3.154459e-22) (0.000000e+00 0.000000e+00 0.000000e+00)) ((-1.028187e-01 1.794711e-03 9.691189e-03) (2.034825e-04 1.212254e-02 -4.478881e-05) (0.000000e+00 0.000000e+00 0.000000e+00))
4.000000e+02	((3.589429e-02 2.056379e+00 -3.921103e-21) (2.424627e-01 -4.069349e-03 -3.157177e-22) (0.000000e+00 0.000000e+00 0.000000e+00)) ((-1.028189e-01 1.794715e-03 9.689322e-03) (2.034674e-04 1.212313e-02 -4.494684e-05) (0.000000e+00 0.000000e+00 0.000000e+00))
4.050000e+02	((3.589467e-02 2.056400e+00 -3.921328e-21) (2.424503e-01 -4.069636e-03 -3.154507e-22) (0.000000e+00 0.000000e+00 0.000000e+00)) ((-1.028200e-01 1.794733e-03 9.691706e-03) (2.034818e-04 1.212251e-02 -4.478938e-05) (0.000000e+00 0.000000e+00 0.000000e+00))
4.100000e+02	((3.589493e-02 2.056416e+00 -3.921131e-21) (2.424621e-01 -4.069337e-03 -3.157291e-22) (0.000000e+00 0.000000e+00 0.000000e+00)) ((-1.028208e-01 1.794747e-03 9.689825e-03) (2.034669e-04 1.212311e-02 -4.494770e-05) (0.000000e+00 0.000000e+00 0.000000e+00))
4.150000e+02	((3.589496e-02 2.056417e+00 -3.921103e-21) (2.424497e-01 -4.069627e-03 -3.154620e-22) (0.000000e+00 0.000000e+00 0.000000e+00)) ((-1.028209e-01 1.794748e-03 9.690389e-03) (2.034814e-04 1.212248e-02 -4.478973e-05) (0.000000e+00 0.000000e+00 0.000000e+00))
4.200000e+02	((3.589526e-02 2.056435e+00 -3.921305e-21) (2.424619e-01 -4.069328e-03 -3.157295e-22) (0.000000e+00 0.000000e+00 0.000000e+00)) ((-1.028217e-01 1.794763e-03 9.689958e-03) (2.034664e-04 1.212309e-02 -4.494837e-05) (0.000000e+00 0.000000e+00 0.000000e+00))
4.250000e+02	((3.589541e-02 2.056443e+00 -3.920971e-21) (2.424494e-01 -4.069620e-03 -3.154759e-22) (0.000000e+00 0.000000e+00 0.000000e+00)) ((-1.028221e-01 1.794771e-03 9.690030e-03) (2.034810e-04 1.212247e-02 -4.479040e-05) (0.000000e+00 0.000000e+00 0.000000e+00))
4.300000e+02	((3.589543e-02 2.056444e+00 -3.921234e-21) (2.424616e-01 -4.069322e-03 -3.157316e-22) (0.000000e+00 0.000000e+00 0.000000e+00)) ((-1.028222e-01 1.794771e-03 9.688613e-03) (2.034661e-04 1.212308e-02 -4.494872e-05) (0.000000e+00 0.000000e+00 0.000000e+00))
4.350000e+02	((3.589567e-02 2.056458e+00 -3.921069e-21) (2.424491e-01 -4.069613e-03 -3.154804e-22) (0.000000e+00 0.000000e+00 0.000000e+00)) ((-1.028229e-01 1.794784e-03 9.689951e-03) (2.034807e-04 1.212245e-02 -4.479084e-05) (0.000000e+00 0.000000e+00 0.000000e+00))
4.400000e+02	((3.589572e-02 2.056461e+00 -3.921094e-21) (2.424613e-01 -4.069315e-03 -3.157399e-22) (0.000000e+00 0.000000e+00 0.000000e+00)) ((-1.028230e-01 1.794786e-03 9.687764e-03) (2.034658e-04 1.212307e-02 -4.494902e-05) (0.000000e+00 0.000000e+00 0.000000e+00))
4.450000e+02	((3.589573e-02 2.056461e+00 -3.921111e-21) (2.424489e-01 -4.069610e-03 -3.154774e-22) (0.000000e+00 0.000000e+00 0.000000e+00)) ((-1.028231e-01 1.794786e-03 9.688844e-03) (2.034805e-04 1.212244e-02 -4.479109e-05) (0.000000e+00 0.000000e+00 0.000000e+00))
4.500000e+02	((3.589590e-02 2.056471e+00 -3.921071e-21) (2.424611e-01 -4.069310e-03 -3.157489e-22) (0.000000e+00 0.000000e+00 0.000000e+00)) ((-1.028235e-01 1.794795e-03 9.687556e-03) (2.034655e-04 1.212306e-02 -4.494943e-05) (0.000000e+00 0.000000e+00 0.000000e+00))
4.550000e+02	((3.589593e-02 2.056472e+00 -3.920980e-21) (2.424487e-01 -4.069606e-03 -3.154822e-22) (0.000000e+00 0.000000e+00 0.000000e+00)) ((-1.028236e-01 1.794796e-03 9.688109e-03) (2.034803e-04 1.212243e-02 -4.479138e-05) (0.000000e+00 0.000000e+00 0.000000e+00))
4.600000e+02	((3.589594e-02 2.056473e+00 -3.921165e-21) (2.424609e-01 -4.069307e-03 -3.157456e-22) (0.000000e+00 0.000000e+00 0.000000e+00)) ((-1.028237e-01 1.794797e-03 9.686920e-03) (2.034653e-04 1.212305e-02 -4.494959e-05) (0.000000e+00 0.000000e+00 0.000000e+00))
4.650000e+02	((3.589607e-02 2.056481e+00 -3.920921e-21) (2.424485e-01 -4.069603e-03 -3.154904e-22) (0.000000e+00 0.000000e+00 0.000000e+00)) ((-1.028240e-01 1.794804e-03 9.687780e-03) (2.034801e-04 1.212243e-02 -4.479165e-05) (0.000000e+00 0.000000e+00 0.000000e+00))
4.700000e+02	((3.589607e-02 2.056481e+00 -3.921114e-21) (2.424608e-01 -4.069304e-03 -3.157450e-22) (0.000000e+00 0.000000e+00 0.000000e+00)) ((-1.028240e-01 1.794804e-03 9.686420e-03) (2.034652e-04 1.212304e-02 -4.494977e-05) (0.000000e+00 0.000000e+00 0.000000e+00))
4.750000e+02	((3.589611e-02 2.056483e+00 -3.921024e-21) (2.424484e-01 -4.069600e-03 -3.154883e-22) (0.000000e+00 0.000000e+00 0.000000e+00)) ((-1.028241e-01 1.794805e-03 9.687463e-03) (2.034800e-04 1.212242e-02 -4.479177e-05) (0.000000e+00 0.000000e+00 0.000000e+00))
4.800000e+02	((3.589619e-02 2.056488e+00 -3.921008e-21) (2.424607e-01 -4.069302e-03 -3.157533e-22) (0.000000e+00 0.000000e+00 0.000000e+00)) ((-1.028244e-01 1.794810e-03 9.686220e-03) (2.034651e-04 1.212304e-02 -4.494995e-05) (0.000000e+00 0.000000e+00 0.000000e+00))
4.850000e+02	((3.589619e-02 2.056487e+00 -3.921040e-21) (2.424483e-01 -4.069598e-03 -3.154847e-22) (0.000000e+00 0.000000e+00 0.000000e+00)) ((-1.028244e-01 1.794809e-03 9.687200e-03) (2.034799e-04 1.212242e-02 -4.479187e-05) (0.000000e+00 0.000000e+00 0.000000e+00))
4.900000e+02	((3.589623e-02 2.056490e+00 -3.921073e-21) (2.424606e-01 -4.069300e-03 -3.157540e-22) (0.000000e+00 0.000000e+00 0.000000e+00)) ((-1.028245e-01 1.794811e-03 9.686110e-03) (2.034650e-04 1.212303e-02 -4.495004e-05) (0.000000e+00 0.000000e+00 0.000000e+00))
4.950000e+02	((3.589629e-02 2.056493e+00 -3.920926e-21) (2.424482e-01 -4.069596e-03 -3.154913e-22) (0.000000e+00 0.000000e+00 0.000000e+00)) ((-1.028246e-01 1.794814e-03 9.687190e-03) (2.034798e-04 1.212241e-02 -4.479199e-05) (0.000000e+00 0.000000e+00 0.000000e+00))
5.000000e+02	((3.589628e-02 2.056492e+00 -3.921146e-21) (2.424605e-01 -4.069298e-03 -3.157485e-22) (0.000000e+00 0.000000e+00 0.000000e+00)) ((-1.028246e-01 1.794814e-03 9.685984e-03) (2.034649e-04 1.212303e-02 -4.495011e-05) (0.000000e+00 0.000000e+00 0.000000e+00))
5.050000e+02	((3.589632e-02 2.056495e+00 -3.920947e-21) (2.424482e-01 -4.069595e-03 -3.154941e-22) (0.000000e+00 0.000000e+00 0.000000e+00)) ((-1.028248e-01 1.794816e-03 9.687192e-03) (2.034797e-04 1.212241e-02 -4.479206e-05) (0.000000e+00 0.000000e+00 0.000000e+00))
5.100000e+02	((3.589635e-02 2.056497e+00 -3.921055e-21) (2.424605e-01 -4.069297e-03 -3.157525e-22) (0.000000e+00 0.000000e+00 0.000000e+00)) ((-1.028248e-01 1.794818e-03 9.686082e-03) (2.034648e-04 1.212302e-02 -4.495019e-05) (0.000000e+00 0.000000e+00 0.000000e+00))
5.150000e+02	((3.589635e-02 2.056497e+00 -3.921028e-21) (2.424481e-01 -4.069594e-03 -3.154898e-22) (0.000000e+00 0.000000e+00 0.000000e+00)) ((-1.028248e-01 1.794818e-03 9.687113e-03) (2.034797e-04 1.212241e-02 -4.479211e-05) (0.000000e+00 0.000000e+00 0.000000e+00))
5.200000e+02	((3.589638e-02 2.056499e+00 -3.921020e-21) (2.424604e-01 -4.069296e-03 -3.157575e-22) (0.000000e+00 0.000000e+00 0.000000e+00)) ((-1.028249e-01 1.794819e-03 9.686079e-03) (2.034648e-04 1.212302e-02 -4.495024e-05) (0.000000e+00 0.000000e+00 0.000000e+00))
5.250000e+02	((3.589641e-02 2.056500e+00 -3.920976e-21) (2.424481e-01 -4.069593e-03 -3.154909e-22) (0.000000e+00 0.000000e+00 0.000000e+00)) ((-1.028250e-01 1.794820e-03 9.687216e-03) (2.034796e-04 1.212240e-02 -4.479216e-05) (0.000000e+00 0.000000e+00 0.000000e+00))
5.300000e+02	((3.589641e-02 2.056500e+00 -3.921104e-21) (2.424604e-01 -4.069295e-03 -3.157541e-22) (0.000000e+00 0.000000e+00 0.000000e+00)) ((-1.028250e-01 1.794820e-03 9.686004e-03) (2.034648e-04 1.212302e-02 -4.495028e-05) (0.000000e+00 0.000000e+00 0.000000e+00))
5.350000e+02	((3.589643e-02 2.056502e+00 -3.920925e-21) (2.424480e-01 -4.069592e-03 -3.154955e-22) (0.000000e+00 0.000000e+00 0.000000e+00)) ((-1.028251e-01 1.794822e-03 9.687186e-03) (2.034796e-04 1.212240e-02 -4.479221e-05) (0.000000e+00 0.000000e+00 0.000000e+00))
5.400000e+02	((3.589644e-02 2.056502e+00 -3.921082e-21) (2.424604e-01 -4.069294e-03 -3.157537e-22) (0.000000e+00 0.000000e+00 0.000000e+00)) ((-1.028251e-01 1.794822e-03 9.686070e-03) (2.034647e-04 1.212302e-02 -4.495033e-05) (0.000000e+00 0.000000e+00 0.000000e+00))
5.450000e+02	((3.589645e-02 2.056503e+00 -3.920976e-21) (2.424480e-01 -4.069591e-03 -3.154945e-22) (0.000000e+00 0.000000e+00 0.000000e+00)) ((-1.028251e-01 1.794823e-03 9.687106e-03) (2.034796e-04 1.212240e-02 -4.479224e-05) (0.000000e+00 0.000000e+00 0.000000e+00))
5.500000e+02	((3.589646e-02 2.056503e+00 -3.921023e-21) (2.424603e-01 -4.069294e-03 -3.157573e-22) (0.000000e+00 0.000000e+00 0.000000e+00)) ((-1.028252e-01 1.794823e-03 9.686014e-03) (2.034647e-04 1.212302e-02 -4.495036e-05) (0.000000e+00 0.000000e+00 0.000000e+00))
5.550000e+02	((3.589648e-02 2.056504e+00 -3.920995e-21) (2.424480e-01 -4.069591e-03 -3.154923e-22) (0.000000e+00 0.000000e+00 0.000000e+00)) ((-1.028252e-01 1.794824e-03 9.687143e-03) (2.034795e-04 1.212240e-02 -4.479228e-05) (0.000000e+00 0.000000e+00 0.000000e+00))