/*--------------------------------*- C++ -*----------------------------------*\
| =========                 |                                                 |
| \\      /  F ield         | OpenFOAM: The Open Source CFD Toolbox           |
|  \\    /   O peration     | Version:  2.3.0                                 |
|   \\  /    A nd           | Web:      www.OpenFOAM.org                      |
|    \\/     M anipulation  |                                                 |
\*---------------------------------------------------------------------------*/
FoamFile
{
    version     2.0;
    format      ascii;
    class       volScalarField;
    location    "1000";
    object      p;
}
// * * * * * * * * * * * * * * * * * * * * * * * * * * * * * * * * * * * * * //

dimensions      [0 2 -2 0 0 0 0];

internalField   nonuniform List<scalar> 
14036
(
1.87438
2.53066
2.16516
1.59841
0.992257
0.410184
-0.114941
-0.555166
-0.870893
-1.04026
-1.01414
-0.761441
-0.202888
0.725407
2.12409
4.07411
6.72968
10.1236
14.4407
20.2724
28.1861
36.1251
40.7168
51.9942
10.7869
11.3382
11.7663
12.2179
12.714
13.2896
13.9813
14.8268
15.8976
17.2549
18.9895
21.1863
23.949
27.3873
31.6286
36.7796
42.9575
50.2573
58.7681
68.5793
79.7426
92.183
105.91
120.707
17.6023
18.5435
19.4365
20.4582
21.5944
22.8745
24.3261
25.9657
27.8261
29.9339
32.3234
35.0197
38.0703
41.5038
45.3702
49.6942
54.5138
59.839
65.6808
72.0095
78.7651
85.8671
93.2294
100.714
23.1971
24.4925
25.6894
27.0222
28.4753
30.0734
31.8418
33.8045
35.9934
38.4396
41.1738
44.2274
47.6313
51.405
55.5778
60.1497
65.136
70.5077
76.2438
82.2817
88.5393
94.9077
101.239
107.382
27.7919
29.3477
30.7235
32.2077
33.8028
35.5288
37.4047
39.4457
41.6731
44.1003
46.7535
49.6478
52.8034
56.2351
59.9578
63.9728
68.2817
72.8639
77.6988
82.7354
87.9153
93.1578
98.3604
103.429
32.1325
33.4649
34.8528
36.3591
37.9839
39.7368
41.6323
43.6833
45.9016
48.3032
50.9102
53.7305
56.7826
60.0696
63.6033
67.3779
71.3877
75.6165
80.0355
84.6014
89.2649
93.9579
98.5972
103.109
35.5128
36.7677
38.1881
39.6819
41.2904
43.0095
44.8657
46.862
49.01
51.3161
53.7988
56.4709
59.3536
62.4334
65.7249
69.226
72.9389
76.827
80.8751
85.0448
89.2969
93.5757
97.804
101.926
38.3443
39.5065
40.9675
42.4337
43.9908
45.6502
47.4725
49.4254
51.5319
53.779
56.1732
58.7212
61.4911
64.4331
67.5377
70.8106
74.2857
77.9097
81.6785
85.5558
89.5046
93.4995
97.4311
101.259
40.9843
41.8212
43.2114
44.6176
46.0906
47.6768
49.4399
51.2997
53.33
55.5146
57.8341
60.2315
62.8521
65.7377
68.772
71.86
75.1016
78.5554
82.1124
85.7548
89.4306
93.2251
96.9621
100.535
43.3191
43.6106
44.6833
45.8131
47.531
48.9519
50.5002
52.0512
53.802
55.7265
57.8079
59.8221
62.4106
64.9773
67.9579
70.9967
74.704
78.1041
81.515
85.0432
88.5174
92.2198
95.8797
99.1746
97.1157
120.097
133.778
143.774
151.932
158.553
163.764
167.749
170.666
172.64
173.785
174.208
173.985
173.191
171.898
170.177
168.094
165.719
163.114
160.336
157.421
154.392
151.419
148.928
134.341
144.886
153.218
159.844
165.003
168.82
171.447
173.022
173.699
173.616
172.917
171.727
170.165
168.328
166.3
164.145
161.906
159.609
157.27
154.892
152.466
149.977
147.565
145.813
108.133
115.321
122.066
128.201
133.651
138.385
142.412
145.749
148.438
150.523
152.057
153.089
153.67
153.844
153.657
153.149
152.358
151.318
150.063
148.623
147.016
145.26
143.479
141.884
113.234
118.765
123.925
128.626
132.809
136.441
139.522
142.06
144.085
145.631
146.742
147.462
147.837
147.907
147.714
147.291
146.67
145.876
144.928
143.842
142.624
141.274
139.878
138.619
108.315
113.017
117.481
121.626
125.403
128.769
131.714
134.233
136.341
138.056
139.404
140.414
141.119
141.544
141.721
141.673
141.425
140.998
140.411
139.682
138.819
137.824
136.793
136.174
107.448
111.607
115.539
119.197
122.537
125.528
128.161
130.431
132.348
133.927
135.191
136.162
136.869
137.336
137.588
137.645
137.53
137.26
136.848
136.313
135.658
134.892
134.089
133.358
105.911
109.714
113.31
116.667
119.739
122.508
124.955
127.085
128.9
130.415
131.65
132.622
133.358
133.881
134.21
134.363
134.358
134.209
133.925
133.531
133.026
132.424
131.778
131.158
104.995
108.502
111.817
114.939
117.787
120.372
122.66
124.67
126.383
127.831
129.018
129.962
130.697
131.248
131.62
131.819
131.868
131.779
131.56
131.26
130.85
130.347
129.809
129.342
104.139
107.513
110.644
113.611
116.245
118.686
120.88
122.818
124.444
125.837
126.978
127.889
128.633
129.225
129.626
129.821
129.891
129.847
129.681
129.488
129.13
128.649
128.168
127.903
102.886
106.228
109.426
112.357
115.037
117.498
119.642
121.522
123.045
124.309
125.365
126.234
127
127.569
127.87
128.141
128.335
128.438
128.387
128.332
127.805
127.056
126.782
126.831
-104.123
-104.51
-104.87
-105.21
-105.528
-105.82
-106.076
-106.288
-106.444
-106.535
-106.555
-106.5
-106.365
-106.148
-105.84
-105.436
-104.914
-104.244
-103.396
-102.347
-101.064
-99.496
-97.22
-92.3274
-103.752
-104.229
-104.577
-104.881
-105.152
-105.393
-105.609
-105.8
-105.965
-106.098
-106.189
-106.225
-106.186
-106.051
-105.788
-105.361
-104.717
-103.791
-102.485
-100.68
-98.1963
-94.7851
-90.2532
-84.6807
-103.316
-103.986
-104.449
-104.878
-105.284
-105.662
-106.01
-106.322
-106.589
-106.798
-106.931
-106.967
-106.881
-106.646
-106.228
-105.583
-104.655
-103.381
-101.665
-99.4005
-96.462
-92.7566
-88.2952
-83.3105
-103.166
-103.565
-104.03
-104.466
-104.86
-105.213
-105.524
-105.79
-106.003
-106.154
-106.226
-106.2
-106.049
-105.742
-105.245
-104.512
-103.489
-102.112
-100.312
-98.0116
-95.151
-91.7117
-87.7581
-83.4825
-102.65
-103.035
-103.513
-103.951
-104.335
-104.671
-104.958
-105.192
-105.367
-105.477
-105.501
-105.42
-105.206
-104.831
-104.258
-103.45
-102.355
-100.924
-99.0931
-96.8124
-94.0455
-90.7981
-87.1341
-83.1974
-102.053
-102.488
-102.954
-103.372
-103.737
-104.052
-104.31
-104.503
-104.624
-104.681
-104.656
-104.523
-104.251
-103.817
-103.19
-102.332
-101.192
-99.7322
-97.9056
-95.6668
-92.9906
-89.8739
-86.364
-82.6014
-101.591
-101.942
-102.39
-102.79
-103.14
-103.444
-103.682
-103.842
-103.896
-103.899
-103.834
-103.661
-103.331
-102.83
-102.137
-101.226
-100.025
-98.5157
-96.6574
-94.4344
-91.815
-88.7772
-85.3736
-81.7352
-101.222
-101.38
-101.82
-102.2
-102.528
-102.836
-103.072
-103.224
-103.184
-103.117
-103.033
-102.866
-102.512
-101.968
-101.219
-100.298
-99.0259
-97.4737
-95.5804
-93.3736
-90.8319
-87.8816
-84.5107
-80.9241
-100.72
-100.887
-101.38
-101.739
-101.998
-102.308
-102.573
-102.843
-102.605
-102.304
-102.091
-101.984
-101.638
-101.021
-100.085
-99.1581
-97.7448
-96.0386
-93.913
-91.5815
-89.0754
-86.1202
-82.6309
-79.0949
-100.35
-100.895
-101.908
-102.597
-103.006
-103.465
-104.146
-105.479
-104.797
-104.195
-103.701
-104.052
-104.168
-104.05
-103.373
-102.888
-101.716
-100.267
-97.8349
-95.1935
-92.9138
-90.2197
-85.9891
-80.9758
-82.1153
-77.1952
-74.0295
-71.1536
-68.4016
-65.8096
-63.369
-61.0638
-58.8666
-56.7491
-54.6762
-52.6183
-50.5517
-48.4613
-46.3372
-44.1745
-41.9719
-39.7302
-37.4518
-35.1382
-32.7911
-30.4282
-28.0433
-25.4161
-78.4224
-74.773
-72.8141
-71.0098
-69.0506
-66.9489
-64.7472
-62.4915
-60.2108
-57.9282
-55.657
-53.4062
-51.1766
-48.9683
-46.7772
-44.5983
-42.4259
-40.2546
-38.0792
-35.8931
-33.6922
-31.4939
-29.279
-26.8645
-78.2607
-73.8618
-71.2397
-69.3294
-67.4414
-65.4835
-63.4605
-61.3938
-59.2974
-57.1863
-55.0694
-52.9559
-50.8496
-48.7547
-46.6706
-44.5974
-42.5333
-40.4765
-38.4242
-36.3704
-34.3118
-32.2622
-30.1903
-27.9361
-79.1071
-74.8184
-71.7221
-69.4889
-67.362
-65.2403
-63.1155
-61.0008
-58.9011
-56.8197
-54.7572
-52.7141
-50.6896
-48.6823
-46.6894
-44.7093
-42.7392
-40.776
-38.8176
-36.8599
-34.9013
-32.9562
-30.9909
-28.8536
-79.16
-75.1715
-71.9239
-69.5038
-67.2387
-65.0117
-62.8089
-60.6423
-58.5146
-56.4263
-54.3761
-52.362
-50.3819
-48.4321
-46.5079
-44.6064
-42.7233
-40.8547
-38.997
-37.145
-35.2985
-33.4709
-31.6345
-29.6437
-78.7438
-74.9299
-71.6037
-69.0198
-66.6524
-64.362
-62.128
-59.9545
-57.8384
-55.7765
-53.7652
-51.8001
-49.878
-47.9952
-46.1461
-44.326
-42.5311
-40.7579
-39.0014
-37.2578
-35.5277
-33.8222
-32.1165
-30.2724
-78.013
-74.3241
-70.9777
-68.2815
-65.8521
-63.5327
-61.2984
-59.1455
-57.0645
-55.048
-53.0886
-51.182
-49.3262
-47.5149
-45.7395
-43.9989
-42.2897
-40.606
-38.9414
-37.2953
-35.6716
-34.0766
-32.4962
-30.8069
-77.2891
-73.6533
-70.2308
-67.4199
-64.9641
-62.6548
-60.4511
-58.3394
-56.3095
-54.3468
-52.4392
-50.5868
-48.7979
-47.0557
-45.344
-43.6753
-42.0449
-40.4397
-38.8521
-37.288
-35.7616
-34.2645
-32.7879
-31.2181
-75.7608
-72.3991
-69.0379
-66.2791
-63.956
-61.7452
-59.6129
-57.5631
-55.602
-53.696
-51.8253
-50.009
-48.2939
-46.6211
-44.9481
-43.3473
-41.796
-40.2663
-38.7425
-37.2482
-35.8272
-34.4226
-33.0598
-31.5738
-77.0921
-73.092
-68.2704
-65.1299
-62.9881
-60.8885
-58.8213
-56.8191
-54.9547
-53.1007
-51.2464
-49.4559
-47.8869
-46.2899
-44.5822
-43.0928
-41.6428
-40.1427
-38.6279
-37.1599
-35.8743
-34.5082
-33.2359
-31.7363
-144.104
-134.847
-125.141
-117.161
-108.568
-99.1654
-89.6872
-80.541
-71.7769
-63.4207
-55.5436
-48.2332
-41.5363
-35.4756
-30.0692
-25.3172
-21.1959
-17.649
-14.6092
-12.006
-9.75956
-7.79711
-6.01152
-4.31582
-80.4902
-80.4931
-79.7174
-78.4244
-77.1076
-76.0039
-74.8777
-73.3493
-71.2453
-68.573
-65.3682
-61.6787
-57.549
-53.0516
-48.288
-43.393
-38.5102
-33.7865
-29.3278
-25.2157
-21.4863
-18.1402
-15.161
-12.5537
-86.8548
-86.7888
-86.9115
-86.9592
-86.7174
-85.9878
-84.7125
-82.9882
-80.924
-78.5052
-75.6505
-72.34
-68.6085
-64.5081
-60.0829
-55.3992
-50.535
-45.6011
-40.7085
-35.9752
-31.4952
-27.33
-23.5138
-19.9858
-79.0566
-79.0331
-78.9722
-78.8667
-78.7053
-78.461
-78.0924
-77.5505
-76.7722
-75.7412
-74.4787
-72.9189
-70.9534
-68.511
-65.5574
-62.0972
-58.1734
-53.8677
-49.293
-44.5948
-39.915
-35.3828
-31.1007
-27.1469
-78.2849
-78.2815
-78.3202
-78.3462
-78.338
-78.275
-78.1294
-77.8617
-77.4154
-76.7424
-75.8015
-74.582
-73.0682
-71.2111
-68.9616
-66.284
-63.1565
-59.5849
-55.6084
-51.3132
-46.8224
-42.284
-37.8312
-33.7027
-75.8589
-75.8545
-75.8645
-75.8644
-75.8466
-75.8028
-75.7183
-75.5761
-75.3491
-75.0057
-74.5068
-73.8154
-72.8876
-71.6872
-70.1586
-68.246
-65.9056
-63.1063
-59.8499
-56.1648
-52.1272
-47.8593
-43.4668
-39.3548
-74.5805
-74.5826
-74.6029
-74.6199
-74.6265
-74.6159
-74.577
-74.4979
-74.3599
-74.1413
-73.8098
-73.3354
-72.6826
-71.8157
-70.6917
-69.2613
-67.4683
-65.2696
-62.6328
-59.5519
-56.0496
-52.2123
-48.0786
-44.321
-73.2448
-73.2503
-73.2647
-73.276
-73.2798
-73.2723
-73.246
-73.1936
-73.1019
-72.9583
-72.7406
-72.4239
-71.9786
-71.374
-70.5697
-69.5234
-68.1781
-66.4808
-64.3834
-61.8556
-58.886
-55.5255
-51.7355
-48.4805
-72.2267
-72.234
-72.2478
-72.2588
-72.2638
-72.2597
-72.2409
-72.2019
-72.1333
-72.0254
-71.8633
-71.6289
-71.2964
-70.8423
-70.235
-69.4393
-68.4089
-67.0896
-65.4286
-63.377
-60.8959
-58.0066
-54.5768
-51.8489
-71.3386
-71.3465
-71.3576
-71.3652
-71.367
-71.3604
-71.3415
-71.306
-71.2472
-71.1583
-71.0277
-70.8435
-70.5859
-70.234
-69.763
-69.1442
-68.3413
-67.3077
-65.9895
-64.3349
-62.2903
-59.8467
-56.8264
-54.609
-70.6252
-70.6328
-70.6421
-70.6469
-70.6457
-70.6362
-70.6149
-70.5789
-70.5226
-70.4409
-70.3252
-70.1671
-69.9517
-69.6622
-69.2789
-68.7792
-68.1341
-67.3074
-66.2511
-64.9147
-63.2428
-61.2101
-58.6233
-56.8809
-70.0537
-70.0603
-70.0672
-70.0689
-70.064
-70.0506
-70.0254
-69.9861
-69.9282
-69.8482
-69.739
-69.594
-69.403
-69.1532
-68.8278
-68.4095
-67.8756
-67.1978
-66.3383
-65.2504
-63.8829
-62.2027
-60.0357
-58.5584
-69.619
-69.6246
-69.6295
-69.6287
-69.621
-69.6041
-69.5753
-69.5326
-69.4719
-69.3903
-69.2825
-69.1435
-68.9653
-68.7391
-68.4513
-68.088
-67.6318
-67.0611
-66.3475
-65.4518
-64.3279
-62.9432
-61.1567
-59.9527
-69.3188
-69.3231
-69.3258
-69.3222
-69.3111
-69.2907
-69.2581
-69.2111
-69.1467
-69.0625
-68.9538
-68.817
-68.6456
-68.4332
-68.1696
-67.8443
-67.4437
-66.9508
-66.345
-65.5957
-64.6613
-63.5085
-62.0328
-60.9541
-69.1377
-69.1408
-69.1419
-69.1363
-69.1227
-69.0994
-69.0636
-69.0138
-68.9466
-68.86
-68.7504
-68.6147
-68.4472
-68.2438
-67.9973
-67.699
-67.3387
-66.9039
-66.3787
-65.7421
-64.9591
-64.0004
-62.8013
-61.9726
-69.0714
-69.0736
-69.0732
-69.0658
-69.0498
-69.024
-68.9858
-68.9333
-68.8638
-68.7758
-68.6658
-68.5314
-68.368
-68.1721
-67.938
-67.6602
-67.3311
-66.9409
-66.4778
-65.9275
-65.2626
-64.454
-63.4575
-62.8267
-69.1021
-69.1035
-69.1022
-69.0941
-69.0773
-69.0504
-69.0112
-68.9584
-68.8888
-68.801
-68.6923
-68.5604
-68.4014
-68.2124
-67.9894
-67.7286
-67.4244
-67.0702
-66.6566
-66.173
-65.6007
-64.9008
-64.0141
-63.6458
-69.2358
-69.2364
-69.2341
-69.2251
-69.2073
-69.1795
-69.1397
-69.0862
-69.0167
-68.9298
-68.8228
-68.694
-68.5401
-68.3582
-68.1449
-67.8982
-67.6144
-67.2876
-66.9107
-66.4739
-65.9656
-65.3675
-64.6155
-63.1717
-69.4598
-69.4596
-69.4564
-69.4469
-69.4288
-69.4005
-69.3605
-69.3075
-69.2391
-69.1537
-69.0493
-68.9243
-68.7754
-68.6006
-68.3971
-68.1633
-67.8969
-67.5944
-67.2502
-66.8568
-66.4063
-65.8853
-65.2853
-64.56
-69.7753
-69.774
-69.7695
-69.759
-69.74
-69.7111
-69.6708
-69.6177
-69.5499
-69.4663
-69.3643
-69.2429
-69.0992
-68.9312
-68.736
-68.5133
-68.2615
-67.9781
-67.6586
-67.2971
-66.8857
-66.41
-65.8436
-65.0855
-70.164
-70.162
-70.1567
-70.146
-70.1273
-70.0987
-70.0589
-70.0071
-69.941
-69.8594
-69.7604
-69.6429
-69.5041
-69.3424
-69.1552
-68.9421
-68.7022
-68.4343
-68.1348
-67.7979
-67.4175
-66.981
-66.4564
-65.7084
-70.6381
-70.6352
-70.6288
-70.6171
-70.5976
-70.5687
-70.5289
-70.4771
-70.4118
-70.3318
-70.2349
-70.1205
-69.9859
-69.8294
-69.6484
-69.443
-69.2127
-68.9563
-68.6708
-68.3511
-67.9896
-67.5733
-67.0779
-66.3266
-71.1832
-71.1794
-71.172
-71.1598
-71.1402
-71.1112
-71.0714
-71.0205
-70.9563
-70.8778
-70.7833
-70.6719
-70.5409
-70.3892
-70.2141
-70.0153
-69.7927
-69.546
-69.2728
-68.9683
-68.6266
-68.2349
-67.7687
-67.1126
-71.8039
-71.7992
-71.7906
-71.7773
-71.7569
-71.7274
-71.6876
-71.6365
-71.5729
-71.4959
-71.4033
-71.2947
-71.1675
-71.0203
-70.8504
-70.6577
-70.4424
-70.2045
-69.9421
-69.6517
-69.3282
-68.9653
-68.5576
-67.9847
-72.482
-72.4768
-72.4675
-72.4543
-72.4343
-72.4056
-72.3667
-72.3174
-72.2557
-72.1811
-72.0914
-71.9864
-71.8631
-71.7209
-71.5567
-71.3704
-71.1621
-70.9329
-70.6812
-70.4042
-70.0986
-69.7578
-69.372
-68.8828
-73.2337
-73.2278
-73.2176
-73.2038
-73.1835
-73.155
-73.1167
-73.0681
-73.0077
-72.9352
-72.8483
-72.7467
-72.6278
-72.4907
-72.3322
-72.1526
-71.9518
-71.731
-71.4895
-71.225
-70.9343
-70.6103
-70.2361
-69.7858
-74.0468
-74.0403
-74.0293
-74.0153
-73.9953
-73.9673
-73.9298
-73.8828
-73.8246
-73.7546
-73.6709
-73.5734
-73.4591
-73.3276
-73.1758
-73.0034
-72.8108
-72.5995
-72.3692
-72.1182
-71.8445
-71.5438
-71.197
-70.7055
-74.9262
-74.9191
-74.9071
-74.8924
-74.8722
-74.8445
-74.8076
-74.7616
-74.705
-74.6377
-74.5573
-74.4641
-74.3552
-74.23
-74.0852
-73.9213
-73.7383
-73.538
-73.3211
-73.087
-72.835
-72.562
-72.2601
-71.9398
-75.8563
-75.849
-75.8363
-75.822
-75.8025
-75.7758
-75.7405
-75.6969
-75.6431
-75.5791
-75.503
-75.4147
-75.3116
-75.1933
-75.0567
-74.902
-74.7293
-74.5413
-74.3388
-74.1227
-73.8942
-73.6546
-73.4067
-73.1845
-76.8476
-76.8401
-76.8267
-76.812
-76.7925
-76.7666
-76.7324
-76.6902
-76.6387
-76.5779
-76.5057
-76.4223
-76.3252
-76.2139
-76.0854
-75.94
-75.7779
-75.6014
-75.412
-75.2099
-74.9959
-74.7733
-74.5396
-74.0916
-77.887
-77.8798
-77.8659
-77.8513
-77.8325
-77.8074
-77.7746
-77.7346
-77.6858
-77.6284
-77.5604
-77.4822
-77.391
-77.287
-77.167
-77.0314
-76.8802
-76.7166
-76.5422
-76.3586
-76.1677
-75.9674
-75.759
-75.6881
-78.9769
-78.9702
-78.9558
-78.9409
-78.9222
-78.8977
-78.866
-78.8275
-78.781
-78.7267
-78.6627
-78.5894
-78.5044
-78.4074
-78.2955
-78.1693
-78.0286
-77.8764
-77.7143
-77.5437
-77.3649
-77.1774
-76.9784
-76.7088
-80.1007
-80.0947
-80.0805
-80.0664
-80.0488
-80.0258
-79.996
-79.9603
-79.917
-79.8665
-79.807
-79.739
-79.66
-79.5702
-79.4668
-79.3499
-79.2198
-79.0795
-78.9309
-78.7757
-78.6164
-78.4534
-78.2857
-78.0662
-81.2691
-81.2636
-81.2496
-81.2356
-81.2184
-81.1965
-81.1682
-81.1342
-81.0934
-81.0462
-80.9906
-80.9275
-80.8544
-80.7713
-80.6755
-80.5677
-80.4476
-80.3183
-80.1819
-80.0405
-79.8966
-79.7501
-79.5917
-79.3724
-82.4708
-82.4657
-82.4519
-82.4384
-82.4222
-82.4013
-82.3744
-82.3427
-82.3045
-82.2605
-82.2088
-82.1503
-82.0825
-82.0058
-81.9174
-81.8179
-81.7071
-81.588
-81.4629
-81.3342
-81.2045
-81.0741
-80.9379
-80.7962
-83.7078
-83.7029
-83.6891
-83.6757
-83.6597
-83.6395
-83.6137
-83.5833
-83.5471
-83.5059
-83.4576
-83.4032
-83.3404
-83.2695
-83.1877
-83.0958
-82.9934
-82.8833
-82.7676
-82.6479
-82.5261
-82.4059
-82.2867
-82.0027
-84.9662
-84.9615
-84.9482
-84.9355
-84.9204
-84.9014
-84.8771
-84.8489
-84.8152
-84.7769
-84.7321
-84.6819
-84.6237
-84.5584
-84.4832
-84.3986
-84.3043
-84.2033
-84.0977
-83.9897
-83.8815
-83.7747
-83.6811
-83.651
-86.253
-86.2484
-86.2353
-86.2227
-86.2081
-86.1897
-86.1665
-86.1395
-86.1076
-86.0717
-86.0298
-85.9831
-85.9292
-85.8689
-85.7994
-85.7217
-85.6349
-85.5422
-85.4457
-85.3481
-85.2519
-85.1581
-85.0659
-85.0049
-87.5579
-87.5533
-87.5405
-87.5284
-87.5144
-87.4968
-87.4745
-87.4491
-87.4191
-87.3853
-87.3462
-87.3028
-87.2527
-87.197
-87.1329
-87.0612
-86.9813
-86.896
-86.8075
-86.7183
-86.6311
-86.5464
-86.4635
-86.3639
-88.8819
-88.8771
-88.8645
-88.8524
-88.8385
-88.8213
-88.7998
-88.7752
-88.7465
-88.7146
-88.6778
-88.6372
-88.5907
-88.5391
-88.4798
-88.4137
-88.34
-88.2614
-88.18
-88.0985
-88.0194
-87.944
-87.8703
-87.7697
-90.2119
-90.2073
-90.1951
-90.1838
-90.1706
-90.1544
-90.1341
-90.1112
-90.0844
-90.0546
-90.0203
-89.9827
-89.9395
-89.8918
-89.837
-89.776
-89.7079
-89.6353
-89.5602
-89.4852
-89.4127
-89.3434
-89.2724
-89.1441
-91.5556
-91.551
-91.5391
-91.5279
-91.5151
-91.4995
-91.4799
-91.458
-91.4325
-91.4045
-91.3722
-91.3371
-91.2969
-91.2527
-91.202
-91.1456
-91.0827
-91.0157
-90.9466
-90.8781
-90.8129
-90.7517
-90.6901
-90.5903
-92.9046
-92.9
-92.8884
-92.8776
-92.8654
-92.8503
-92.8316
-92.8109
-92.7867
-92.7603
-92.7301
-92.6973
-92.6599
-92.6188
-92.5719
-92.5198
-92.4616
-92.3997
-92.336
-92.273
-92.2134
-92.1578
-92.1043
-92.0094
-94.2592
-94.2547
-94.2433
-94.2327
-94.2207
-94.2061
-94.188
-94.168
-94.1449
-94.12
-94.0914
-94.0608
-94.0258
-93.9877
-93.9442
-93.8961
-93.8423
-93.7852
-93.7264
-93.6688
-93.6149
-93.5666
-93.5219
-93.4259
-95.6125
-95.6081
-95.5971
-95.5869
-95.5754
-95.5615
-95.5442
-95.5254
-95.5035
-95.4801
-95.4534
-95.4248
-95.3922
-95.357
-95.3167
-95.2722
-95.2226
-95.1698
-95.1154
-95.062
-95.0121
-94.9659
-94.9183
-94.8126
-96.9667
-96.9623
-96.9516
-96.9416
-96.9304
-96.9168
-96.9002
-96.8821
-96.8613
-96.8392
-96.814
-96.7874
-96.7571
-96.7245
-96.6873
-96.6464
-96.6008
-96.5524
-96.5026
-96.454
-96.4092
-96.3675
-96.3213
-96.2211
-98.3162
-98.3119
-98.3015
-98.2919
-98.2811
-98.2681
-98.2522
-98.235
-98.2153
-98.1945
-98.1709
-98.1461
-98.118
-98.088
-98.0539
-98.0167
-97.9752
-97.9313
-97.8866
-97.8437
-97.8052
-97.772
-97.744
-97.6836
-99.6612
-99.6569
-99.6468
-99.6373
-99.6267
-99.6141
-99.5987
-99.5823
-99.5635
-99.5438
-99.5216
-99.4986
-99.4727
-99.4452
-99.4141
-99.3804
-99.3431
-99.304
-99.2646
-99.2279
-99.1973
-99.1758
-99.1673
-99.1222
-100.996
-100.992
-100.982
-100.973
-100.963
-100.951
-100.936
-100.92
-100.903
-100.884
-100.864
-100.842
-100.819
-100.794
-100.765
-100.735
-100.701
-100.667
-100.632
-100.599
-100.573
-100.554
-100.54
-100.472
-102.321
-102.317
-102.307
-102.299
-102.289
-102.277
-102.263
-102.249
-102.232
-102.215
-102.195
-102.176
-102.154
-102.131
-102.106
-102.079
-102.049
-102.018
-101.988
-101.96
-101.939
-101.924
-101.907
-101.824
-103.634
-103.63
-103.621
-103.612
-103.603
-103.592
-103.578
-103.565
-103.549
-103.533
-103.515
-103.497
-103.477
-103.456
-103.433
-103.409
-103.383
-103.356
-103.33
-103.308
-103.293
-103.287
-103.285
-103.255
-104.934
-104.93
-104.921
-104.913
-104.904
-104.893
-104.88
-104.867
-104.852
-104.837
-104.82
-104.804
-104.785
-104.766
-104.746
-104.724
-104.701
-104.677
-104.655
-104.636
-104.623
-104.618
-104.62
-104.535
-106.219
-106.215
-106.206
-106.198
-106.189
-106.179
-106.167
-106.154
-106.14
-106.126
-106.11
-106.095
-106.078
-106.061
-106.042
-106.023
-106.003
-105.983
-105.964
-105.95
-105.944
-105.947
-105.956
-105.937
-107.487
-107.483
-107.475
-107.467
-107.458
-107.448
-107.436
-107.424
-107.41
-107.397
-107.382
-107.368
-107.353
-107.337
-107.32
-107.304
-107.285
-107.268
-107.252
-107.24
-107.237
-107.245
-107.262
-107.229
-108.735
-108.731
-108.723
-108.716
-108.708
-108.698
-108.687
-108.675
-108.662
-108.65
-108.636
-108.623
-108.609
-108.595
-108.58
-108.565
-108.549
-108.533
-108.518
-108.506
-108.5
-108.501
-108.496
-108.302
-109.965
-109.961
-109.953
-109.946
-109.938
-109.929
-109.918
-109.907
-109.895
-109.883
-109.871
-109.859
-109.846
-109.833
-109.82
-109.807
-109.793
-109.779
-109.767
-109.759
-109.758
-109.765
-109.772
-109.719
-111.173
-111.169
-111.162
-111.155
-111.147
-111.138
-111.128
-111.118
-111.107
-111.096
-111.084
-111.073
-111.062
-111.051
-111.039
-111.028
-111.016
-111.005
-110.996
-110.991
-110.993
-111.007
-111.026
-110.824
-112.36
-112.357
-112.35
-112.343
-112.336
-112.327
-112.317
-112.308
-112.297
-112.287
-112.276
-112.267
-112.256
-112.247
-112.237
-112.228
-112.218
-112.21
-112.204
-112.203
-112.209
-112.224
-112.241
-112.3
-113.526
-113.522
-113.515
-113.508
-113.501
-113.493
-113.483
-113.474
-113.464
-113.455
-113.445
-113.437
-113.427
-113.42
-113.411
-113.404
-113.397
-113.392
-113.388
-113.389
-113.397
-113.415
-113.449
-113.39
-114.661
-114.658
-114.652
-114.646
-114.64
-114.632
-114.624
-114.616
-114.607
-114.599
-114.59
-114.583
-114.575
-114.569
-114.562
-114.557
-114.552
-114.549
-114.549
-114.552
-114.564
-114.588
-114.615
-114.554
-115.781
-115.778
-115.772
-115.766
-115.759
-115.751
-115.743
-115.735
-115.726
-115.719
-115.711
-115.705
-115.698
-115.693
-115.688
-115.685
-115.683
-115.682
-115.684
-115.691
-115.705
-115.725
-115.744
-115.764
-116.872
-116.868
-116.862
-116.856
-116.849
-116.842
-116.834
-116.827
-116.819
-116.813
-116.806
-116.801
-116.795
-116.792
-116.789
-116.787
-116.787
-116.789
-116.793
-116.803
-116.821
-116.849
-116.878
-116.907
-117.933
-117.931
-117.925
-117.919
-117.913
-117.907
-117.9
-117.893
-117.886
-117.881
-117.875
-117.871
-117.866
-117.864
-117.863
-117.863
-117.864
-117.868
-117.874
-117.884
-117.901
-117.928
-117.951
-117.791
-118.97
-118.967
-118.962
-118.957
-118.951
-118.946
-118.939
-118.933
-118.927
-118.922
-118.917
-118.914
-118.911
-118.91
-118.91
-118.912
-118.915
-118.921
-118.929
-118.943
-118.964
-118.992
-119.027
-119.047
-119.988
-119.985
-119.979
-119.973
-119.967
-119.961
-119.955
-119.949
-119.943
-119.938
-119.934
-119.931
-119.929
-119.929
-119.93
-119.933
-119.938
-119.946
-119.956
-119.972
-119.994
-120.024
-120.064
-120.111
-120.968
-120.966
-120.961
-120.956
-120.951
-120.946
-120.94
-120.935
-120.93
-120.926
-120.922
-120.921
-120.919
-120.921
-120.923
-120.927
-120.933
-120.942
-120.955
-120.972
-120.995
-121.027
-121.071
-121.098
-121.928
-121.925
-121.92
-121.915
-121.91
-121.905
-121.899
-121.894
-121.889
-121.886
-121.883
-121.882
-121.882
-121.884
-121.887
-121.893
-121.9
-121.911
-121.924
-121.942
-121.967
-121.998
-122.036
-122.047
-122.851
-122.849
-122.845
-122.841
-122.837
-122.832
-122.828
-122.824
-122.82
-122.818
-122.816
-122.816
-122.817
-122.82
-122.824
-122.831
-122.84
-122.851
-122.866
-122.886
-122.912
-122.945
-122.983
-122.98
-123.759
-123.757
-123.752
-123.748
-123.743
-123.739
-123.734
-123.73
-123.726
-123.724
-123.722
-123.723
-123.724
-123.728
-123.733
-123.741
-123.751
-123.764
-123.781
-123.802
-123.83
-123.865
-123.904
-123.916
-124.633
-124.63
-124.626
-124.621
-124.617
-124.613
-124.608
-124.605
-124.602
-124.601
-124.6
-124.601
-124.603
-124.608
-124.614
-124.624
-124.635
-124.649
-124.668
-124.691
-124.72
-124.756
-124.8
-124.814
-125.476
-125.474
-125.47
-125.466
-125.462
-125.459
-125.455
-125.452
-125.45
-125.449
-125.449
-125.452
-125.455
-125.461
-125.468
-125.478
-125.491
-125.507
-125.526
-125.55
-125.58
-125.617
-125.656
-125.649
-126.293
-126.291
-126.287
-126.284
-126.28
-126.277
-126.274
-126.272
-126.27
-126.271
-126.271
-126.275
-126.279
-126.286
-126.294
-126.306
-126.32
-126.337
-126.358
-126.384
-126.416
-126.453
-126.491
-126.491
-127.088
-127.086
-127.081
-127.078
-127.074
-127.071
-127.068
-127.066
-127.064
-127.065
-127.066
-127.07
-127.075
-127.083
-127.092
-127.105
-127.121
-127.14
-127.164
-127.192
-127.227
-127.27
-127.319
-127.343
-127.846
-127.845
-127.841
-127.838
-127.835
-127.833
-127.83
-127.829
-127.829
-127.83
-127.832
-127.837
-127.843
-127.852
-127.863
-127.877
-127.894
-127.916
-127.941
-127.971
-128.008
-128.053
-128.107
-128.121
-128.583
-128.581
-128.577
-128.574
-128.571
-128.569
-128.567
-128.566
-128.566
-128.568
-128.571
-128.576
-128.583
-128.594
-128.606
-128.622
-128.64
-128.664
-128.691
-128.724
-128.764
-128.812
-128.868
-128.889
-129.286
-129.284
-129.281
-129.278
-129.275
-129.273
-129.272
-129.272
-129.273
-129.276
-129.28
-129.287
-129.295
-129.306
-129.32
-129.338
-129.358
-129.383
-129.413
-129.45
-129.494
-129.547
-129.608
-129.654
-129.962
-129.961
-129.958
-129.955
-129.953
-129.951
-129.95
-129.951
-129.952
-129.956
-129.961
-129.969
-129.978
-129.991
-130.006
-130.025
-130.048
-130.075
-130.107
-130.145
-130.189
-130.24
-130.285
-130.203
-130.609
-130.607
-130.604
-130.602
-130.6
-130.599
-130.598
-130.599
-130.602
-130.606
-130.612
-130.621
-130.632
-130.647
-130.664
-130.685
-130.71
-130.74
-130.775
-130.818
-130.869
-130.929
-130.995
-131.114
-131.226
-131.224
-131.221
-131.219
-131.217
-131.216
-131.216
-131.218
-131.221
-131.227
-131.234
-131.244
-131.257
-131.273
-131.292
-131.315
-131.342
-131.375
-131.413
-131.458
-131.513
-131.58
-131.668
-131.688
-131.807
-131.806
-131.803
-131.802
-131.801
-131.802
-131.803
-131.806
-131.81
-131.817
-131.825
-131.837
-131.851
-131.869
-131.89
-131.916
-131.946
-131.981
-132.022
-132.07
-132.127
-132.197
-132.276
-132.264
-132.367
-132.366
-132.363
-132.362
-132.361
-132.361
-132.362
-132.365
-132.37
-132.378
-132.388
-132.401
-132.416
-132.436
-132.459
-132.487
-132.519
-132.557
-132.602
-132.654
-132.716
-132.788
-132.869
-133.025
-132.887
-132.886
-132.884
-132.884
-132.884
-132.885
-132.887
-132.892
-132.898
-132.907
-132.918
-132.933
-132.95
-132.972
-132.997
-133.027
-133.062
-133.103
-133.15
-133.204
-133.268
-133.342
-133.427
-133.545
-133.383
-133.382
-133.38
-133.379
-133.379
-133.381
-133.383
-133.388
-133.395
-133.405
-133.417
-133.434
-133.453
-133.476
-133.504
-133.537
-133.574
-133.618
-133.668
-133.725
-133.79
-133.865
-133.942
-133.842
-133.841
-133.84
-133.838
-133.837
-133.838
-133.84
-133.844
-133.851
-133.859
-133.87
-133.884
-133.902
-133.923
-133.949
-133.979
-134.015
-134.056
-134.104
-134.159
-134.222
-134.296
-134.379
-134.476
-134.757
-134.269
-134.269
-134.267
-134.267
-134.268
-134.271
-134.276
-134.283
-134.292
-134.304
-134.32
-134.339
-134.362
-134.391
-134.423
-134.462
-134.506
-134.557
-134.616
-134.684
-134.76
-134.847
-134.942
-134.957
-134.664
-134.663
-134.662
-134.662
-134.664
-134.667
-134.672
-134.68
-134.691
-134.705
-134.721
-134.743
-134.768
-134.798
-134.833
-134.875
-134.923
-134.979
-135.044
-135.12
-135.21
-135.316
-135.46
-135.842
-135.026
-135.025
-135.023
-135.024
-135.025
-135.029
-135.035
-135.044
-135.055
-135.07
-135.089
-135.112
-135.139
-135.171
-135.209
-135.253
-135.304
-135.363
-135.431
-135.509
-135.598
-135.699
-135.822
-136.01
-135.344
-135.344
-135.343
-135.345
-135.348
-135.354
-135.361
-135.372
-135.385
-135.402
-135.422
-135.447
-135.476
-135.51
-135.55
-135.597
-135.651
-135.713
-135.784
-135.866
-135.961
-136.071
-136.204
-136.38
-135.646
-135.645
-135.645
-135.646
-135.649
-135.654
-135.661
-135.672
-135.685
-135.702
-135.723
-135.749
-135.779
-135.815
-135.857
-135.906
-135.962
-136.027
-136.102
-136.187
-136.284
-136.395
-136.519
-136.667
-135.906
-135.905
-135.904
-135.906
-135.909
-135.914
-135.922
-135.933
-135.948
-135.966
-135.988
-136.015
-136.047
-136.085
-136.129
-136.18
-136.239
-136.307
-136.385
-136.474
-136.577
-136.694
-136.825
-137.065
-136.128
-136.128
-136.128
-136.129
-136.133
-136.139
-136.148
-136.159
-136.174
-136.194
-136.217
-136.246
-136.279
-136.319
-136.365
-136.419
-136.48
-136.551
-136.631
-136.723
-136.827
-136.943
-137.075
-137.255
-136.312
-136.312
-136.312
-136.314
-136.318
-136.325
-136.335
-136.348
-136.364
-136.385
-136.41
-136.441
-136.476
-136.518
-136.566
-136.622
-136.687
-136.761
-136.845
-136.941
-137.05
-137.175
-137.311
-137.394
-136.463
-136.463
-136.464
-136.466
-136.471
-136.479
-136.489
-136.503
-136.52
-136.542
-136.568
-136.599
-136.637
-136.681
-136.731
-136.79
-136.858
-136.935
-137.024
-137.125
-137.24
-137.371
-137.524
-137.751
-136.579
-136.578
-136.579
-136.582
-136.587
-136.595
-136.605
-136.62
-136.638
-136.661
-136.688
-136.722
-136.761
-136.807
-136.86
-136.922
-136.993
-137.074
-137.166
-137.27
-137.389
-137.522
-137.671
-137.788
-136.657
-136.656
-136.656
-136.659
-136.664
-136.672
-136.684
-136.699
-136.718
-136.743
-136.772
-136.807
-136.849
-136.897
-136.953
-137.018
-137.092
-137.176
-137.273
-137.382
-137.507
-137.649
-137.811
-137.97
-136.684
-136.685
-136.687
-136.692
-136.699
-136.709
-136.722
-136.74
-136.761
-136.788
-136.819
-136.857
-136.9
-136.951
-137.01
-137.078
-137.155
-137.244
-137.344
-137.456
-137.583
-137.726
-137.885
-137.976
-136.696
-136.696
-136.698
-136.702
-136.708
-136.718
-136.732
-136.749
-136.771
-136.799
-136.831
-136.87
-136.916
-136.97
-137.031
-137.102
-137.184
-137.276
-137.381
-137.501
-137.636
-137.79
-137.964
-138.158
-136.662
-136.662
-136.663
-136.667
-136.675
-136.685
-136.7
-136.718
-136.742
-136.771
-136.805
-136.846
-136.894
-136.951
-137.015
-137.09
-137.175
-137.272
-137.382
-137.505
-137.643
-137.796
-137.964
-138.089
-136.587
-136.587
-136.589
-136.594
-136.601
-136.613
-136.628
-136.648
-136.673
-136.704
-136.74
-136.784
-136.835
-136.895
-136.963
-137.042
-137.131
-137.234
-137.35
-137.481