/*--------------------------------*- C++ -*----------------------------------*\
| =========                 |                                                 |
| \\      /  F ield         | OpenFOAM: The Open Source CFD Toolbox           |
|  \\    /   O peration     | Version:  2.3.0                                 |
|   \\  /    A nd           | Web:      www.OpenFOAM.org                      |
|    \\/     M anipulation  |                                                 |
\*---------------------------------------------------------------------------*/
FoamFile
{
    version     2.0;
    format      ascii;
    class       volScalarField;
    location    "10000";
    object      nut;
}
// * * * * * * * * * * * * * * * * * * * * * * * * * * * * * * * * * * * * * //

dimensions      [0 2 -1 0 0 0 0];

internalField   nonuniform List<scalar> 
123539
(
0.0181718
0.0173296
0.0165155
0.0157307
0.0149747
0.0142463
0.013546
0.0128727
0.0122255
0.0116047
0.0110092
0.0104391
0.0098931
0.00937068
0.00887055
0.00839204
0.00793402
0.00749607
0.00707567
0.00667231
0.00628511
0.00591315
0.00555516
0.0052101
0.00487617
0.00455307
0.00424015
0.00393531
0.0036389
0.00335047
0.00306979
0.00279678
0.00253416
0.00228163
0.00204252
0.00182071
0.00161824
0.00144113
0.00129505
0.00118722
0.00112005
0.0010969
0.00112692
0.019136
0.0183737
0.0176312
0.0169114
0.0162145
0.0155403
0.014888
0.0142563
0.0136455
0.0130543
0.0124833
0.0119318
0.0113989
0.010885
0.0103894
0.00991193
0.00945182
0.00900769
0.00858025
0.00816861
0.00777178
0.00738975
0.00702179
0.0066678
0.00632709
0.00600047
0.00568696
0.00538788
0.00510257
0.00483068
0.00457352
0.00433121
0.00410438
0.00389405
0.00370251
0.00353349
0.00339236
0.00328293
0.00320906
0.00317257
0.0031772
0.00322713
0.00333864
0.0200618
0.0193667
0.0186857
0.018024
0.0173822
0.0167594
0.0161543
0.0155664
0.0149952
0.0144395
0.0138996
0.0133749
0.0128655
0.0123713
0.0118924
0.0114276
0.0109775
0.0105426
0.0101213
0.00971412
0.00932084
0.00894119
0.00857494
0.00822204
0.00788194
0.00755624
0.0072443
0.00694732
0.00666533
0.00640187
0.00615712
0.00593376
0.00573098
0.00554975
0.00538847
0.00524731
0.00512789
0.0050365
0.00498847
0.00501534
0.00510187
0.00524043
0.00542865
0.0209707
0.0203239
0.0196941
0.0190813
0.0184857
0.0179067
0.0173436
0.0167954
0.0162605
0.0157388
0.0152296
0.014733
0.0142489
0.0137768
0.0133167
0.0128687
0.0124336
0.0120103
0.0115997
0.0112018
0.0108161
0.0104431
0.0100831
0.009736
0.00940199
0.00908076
0.00877294
0.00847745
0.00819644
0.00792945
0.00767957
0.00745001
0.00725094
0.00708767
0.00695941
0.00686362
0.00680142
0.00677723
0.00679388
0.00685549
0.00696269
0.00711385
0.0073081
0.0218458
0.0212543
0.0206762
0.0201106
0.0195574
0.0190165
0.018488
0.0179709
0.0174654
0.0169707
0.0164869
0.0160138
0.0155515
0.0150992
0.0146572
0.0142259
0.0138045
0.0133931
0.0129931
0.012604
0.0122264
0.0118607
0.0115078
0.0111673
0.0108407
0.010529
0.0102316
0.00995099
0.00968761
0.00944276
0.00921799
0.00901715
0.00884167
0.00869603
0.00858049
0.00849782
0.00844997
0.00843824
0.00846606
0.00853422
0.00864381
0.00879585
0.00898722
0.0226704
0.0221317
0.0216028
0.0210826
0.0205717
0.0200698
0.0195768
0.0190932
0.0186182
0.0181521
0.0176945
0.0172462
0.0168064
0.0163755
0.0159534
0.0155391
0.0151333
0.0147365
0.0143491
0.0139718
0.0136054
0.0132506
0.0129074
0.0125762
0.0122585
0.0119547
0.0116663
0.0113943
0.0111388
0.0109025
0.010687
0.010494
0.0103261
0.0101851
0.0100742
0.00999473
0.00994898
0.00993995
0.00996791
0.0100363
0.0101452
0.0102949
0.010486
0.0234363
0.0229461
0.0224623
0.0219843
0.0215125
0.0210468
0.0205872
0.0201344
0.0196888
0.0192495
0.0188167
0.0183908
0.0179732
0.0175627
0.0171586
0.0167621
0.0163723
0.0159896
0.0156142
0.0152469
0.0148893
0.0145436
0.0142083
0.0138848
0.0135732
0.0132753
0.0129918
0.0127243
0.0124736
0.0122419
0.0120294
0.0118389
0.0116729
0.0115331
0.0114221
0.0113425
0.0112966
0.0112853
0.0113126
0.0113786
0.0114854
0.0116337
0.0118233
0.0241393
0.0236945
0.0232529
0.0228123
0.0223762
0.0219434
0.0215135
0.0210887
0.0206684
0.0202548
0.0198445
0.0194374
0.0190387
0.0186468
0.0182591
0.0178769
0.0175038
0.0171343
0.0167702
0.0164129
0.0160602
0.0157209
0.0153939
0.015076
0.0147684
0.0144742
0.0141931
0.0139289
0.0136811
0.0134509
0.0132417
0.0130506
0.0128866
0.0127442
0.0126331
0.0125516
0.0125037
0.0124911
0.0125152
0.0125797
0.0126828
0.0128289
0.0130181
0.0247848
0.0243818
0.0239805
0.0235679
0.0231621
0.022762
0.0223577
0.0219599
0.0215584
0.021166
0.0207811
0.0203859
0.0200022
0.0196261
0.0192561
0.0188799
0.0185236
0.0181687
0.0178111
0.0174747
0.0171187
0.0167819
0.0164609
0.0161524
0.0158443
0.015558
0.0152735
0.015011
0.0147676
0.014533
0.0143357
0.0141341
0.0139806
0.0138304
0.0137202
0.0136363
0.0135864
0.0135733
0.0135917
0.0136581
0.0137548
0.0138974
0.014087
0.00130821
0.00177826
0.00216527
0.0025794
0.00302521
0.00349869
0.00399564
0.00451235
0.00504698
0.00559528
0.00615992
0.00673656
0.00732659
0.00792989
0.00854541
0.00917336
0.00981444
0.0104687
0.0111357
0.0118161
0.01251
0.0132176
0.0139393
0.0146754
0.0154259
0.0161914
0.0169721
0.0177683
0.0185801
0.0194077
0.0202513
0.0211112
0.0219876
0.0228808
0.0237907
0.0247177
0.0256617
0.026623
0.0276016
0.0285973
0.0296099
0.0306391
0.0316854
0.00357232
0.00387837
0.00422332
0.00460751
0.0050286
0.00548006
0.00596155
0.00646849
0.00699524
0.00754332
0.00810591
0.00868466
0.00927639
0.00988137
0.0104978
0.0111256
0.0117641
0.0124134
0.0130731
0.0137432
0.0144237
0.0151147
0.0158162
0.0165285
0.0172516
0.0179858
0.018731
0.0194876
0.0202558
0.0210359
0.0218282
0.0226327
0.02345
0.02428
0.0251231
0.0259793
0.0268489
0.027732
0.0286286
0.0295389
0.0304628
0.0314002
0.0323507
0.00566424
0.00594447
0.00626868
0.00663268
0.00703488
0.00747048
0.00793484
0.00842719
0.00894365
0.00947858
0.010033
0.0106026
0.0111852
0.0117808
0.0123876
0.0130045
0.013631
0.0142666
0.0149107
0.0155633
0.0162239
0.0168926
0.0175694
0.0182542
0.0189471
0.0196481
0.0203575
0.0210753
0.0218018
0.022537
0.0232812
0.0240347
0.0247976
0.02557
0.0263521
0.0271443
0.0279465
0.0287591
0.0295821
0.0304156
0.0312599
0.0321148
0.0329795
0.00754114
0.00781566
0.00813171
0.00848711
0.00887787
0.00930366
0.00975877
0.0102402
0.0107463
0.0112728
0.0118164
0.0123762
0.0129497
0.0135349
0.0141306
0.0147357
0.0153491
0.0159701
0.0165983
0.0172329
0.0178741
0.0185212
0.0191745
0.0198335
0.0204983
0.0211689
0.0218453
0.0225277
0.0232162
0.0239108
0.0246117
0.0253192
0.0260332
0.0267538
0.0274814
0.0282161
0.0289581
0.0297076
0.0304647
0.0312296
0.0320024
0.0327835
0.0335718
0.00921923
0.00949121
0.00980309
0.0101539
0.0105402
0.010959
0.0114081
0.0118834
0.0123817
0.0129015
0.0134376
0.0139896
0.0145544
0.0151305
0.0157163
0.0163103
0.0169116
0.0175192
0.0181325
0.0187509
0.0193739
0.0200015
0.0206333
0.0212691
0.0219087
0.0225519
0.0231987
0.0238495
0.024504
0.0251625
0.025825
0.0264914
0.0271619
0.0278365
0.0285155
0.0291992
0.0298876
0.0305809
0.0312792
0.0319827
0.0326916
0.033406
0.0341248
0.0107164
0.0109878
0.0112983
0.0116461
0.0120297
0.0124457
0.0128899
0.013361
0.0138549
0.0143684
0.0148995
0.0154448
0.0160029
0.0165714
0.0171486
0.017733
0.0183235
0.0189191
0.0195189
0.0201226
0.0207298
0.02134
0.021953
0.0225682
0.0231853
0.0238042
0.0244249
0.0250476
0.0256724
0.0262991
0.0269277
0.0275579
0.0281897
0.0288235
0.0294595
0.030098
0.0307388
0.0313823
0.0320284
0.0326772
0.0333287
0.0339826
0.034637
0.0120539
0.0123245
0.0126347
0.0129821
0.0133638
0.0137771
0.0142197
0.0146867
0.0151773
0.0156869
0.0162134
0.016754
0.0173066
0.017869
0.0184389
0.0190149
0.0195958
0.0201805
0.0207683
0.021359
0.0219523
0.0225476
0.0231444
0.0237415
0.0243384
0.0249356
0.0255333
0.0261315
0.0267303
0.0273295
0.0279283
0.0285262
0.0291236
0.0297212
0.0303194
0.0309181
0.0315168
0.0321162
0.0327159
0.0333162
0.033917
0.0345182
0.03512
0.0132484
0.01352
0.0138294
0.0141764
0.0145585
0.0149712
0.0154102
0.0158764
0.0163633
0.0168698
0.017393
0.0179302
0.0184788
0.0190362
0.0196001
0.0201679
0.0207409
0.0213154
0.0218919
0.0224714
0.0230529
0.0236359
0.0242192
0.0247995
0.0253777
0.0259559
0.0265335
0.0271103
0.0276869
0.0282632
0.0288352
0.0294037
0.0299703
0.0305363
0.0311013
0.0316655
0.0322261
0.0327868
0.0333455
0.0339027
0.0344588
0.0350133
0.035568
0.0143158
0.0145906
0.0148984
0.0152463
0.0156303
0.0160434
0.0164757
0.0169442
0.0174274
0.0179312
0.0184524
0.0189868
0.0195329
0.0200869
0.0206453
0.0212034
0.0217726
0.0223343
0.0229003
0.0234718
0.0240432
0.0246168
0.0251896
0.0257513
0.0263115
0.0268747
0.0274345
0.0279931
0.0285515
0.0291111
0.0296553
0.0301964
0.0307363
0.0312755
0.0318115
0.0323473
0.0328697
0.0333997
0.0339205
0.03444
0.0349571
0.035468
0.0359759
0.0325902
0.0311031
0.0296536
0.028242
0.0268693
0.0255357
0.0242417
0.0229873
0.0217722
0.0205961
0.0194594
0.0183611
0.0173003
0.0162772
0.0152909
0.0143407
0.013426
0.012546
0.0117006
0.0108887
0.0101092
0.00936166
0.00864573
0.00796021
0.00730513
0.00667958
0.00608263
0.00551398
0.00497318
0.00445982
0.00397377
0.00351442
0.00308166
0.00267547
0.00229595
0.00194335
0.0016181
0.00132102
0.00105277
0.000816535
0.000631307
0.000450345
0.000230653
0.0333238
0.0319519
0.03061
0.0292986
0.0280182
0.0267692
0.0255508
0.0243643
0.0232089
0.0220851
0.0209922
0.0199293
0.0188974
0.017896
0.0169244
0.0159822
0.0150685
0.0141837
0.0133275
0.0124988
0.0116972
0.0109227
0.010175
0.00945338
0.00875811
0.00808844
0.00744416
0.00682538
0.00623186
0.00566422
0.00512181
0.00460512
0.0041147
0.00365053
0.00321392
0.00280565
0.00242713
0.00208189
0.00178562
0.00149611
0.00120022
0.000878548
0.000490907
0.0340476
0.0327801
0.0315377
0.0303193
0.0291254
0.0279561
0.0268108
0.0256905
0.0245943
0.0235226
0.0224753
0.021452
0.0204527
0.0194777
0.0185263
0.0175981
0.0166932
0.0158116
0.0149523
0.0141162
0.0133023
0.0125108
0.0117415
0.0109943
0.0102691
0.00956608
0.0088851
0.00822686
0.00759187
0.00698018
0.006392
0.00582917
0.00529151
0.00478088
0.00429884
0.00384901
0.00344211
0.0030485
0.0026521
0.00224068
0.00179945
0.00130189
0.000728315
0.0347545
0.033583
0.0324318
0.0312989
0.0301855
0.0290902
0.0280135
0.0269556
0.0259161
0.0248947
0.0238921
0.0229076
0.0219416
0.0209942
0.0200644
0.0191532
0.0182603
0.0173855
0.0165286
0.0156906
0.0148706
0.0140684
0.0132844
0.0125187
0.0117718
0.0110435
0.0103346
0.00964573
0.00897808
0.00833186
0.00770912
0.0071108
0.00653835
0.00599495
0.00548735
0.00500083
0.00451653
0.00402378
0.003511
0.00296675
0.00237364
0.00170141
0.000952246
0.0354385
0.0343546
0.0332872
0.0322339
0.0311947
0.0301686
0.0291553
0.0281559
0.0271694
0.0261953
0.0252354
0.024288
0.0233546
0.022434
0.021527
0.020634
0.0197548
0.0188893
0.018038
0.0172008
0.0163786
0.0155707
0.0147772
0.0139992
0.0132367
0.0124896
0.0117591
0.0110468
0.0103538
0.0096817
0.0090326
0.00840873
0.00781406
0.00724366
0.00668229
0.00611895
0.00554404
0.00494766
0.00432001
0.00364659
0.00290844
0.0020754
0.00116656
0.0360897
0.0350896
0.0341008
0.0331212
0.0321504
0.031188
0.0302339
0.0292879
0.0283501
0.027421
0.0265006
0.0255889
0.024686
0.0237921
0.0229079
0.0220332
0.021168
0.0203129
0.0194683
0.0186348
0.0178129
0.0170022
0.0162038
0.0154185
0.0146455
0.0138846
0.0131383
0.0124074
0.0116946
0.0110026
0.0103346
0.00969084
0.00906108
0.00843564
0.00780596
0.00716315
0.00649835
0.00580391
0.00506724
0.00427297
0.00340172
0.00242282
0.00137178
0.036708
0.0357868
0.0348703
0.0339583
0.0330507
0.0321478
0.0312475
0.0303508
0.0294584
0.0285699
0.0276867
0.0268079
0.0259343
0.0250659
0.0242035
0.0233462
0.0224951
0.021651
0.0208137
0.0199851
0.0191648
0.0183545
0.0175545
0.0167653
0.0159859
0.0152168
0.0144584
0.0137134
0.0129844
0.012274
0.011581
0.0109013
0.0102243
0.00954047
0.00884326
0.00812457
0.00737615
0.00658937
0.00575179
0.00484773
0.00385481
0.00274498
0.00156656
0.0373027
0.0364469
0.0355957
0.0347454
0.0338959
0.0330476
0.0321971
0.0313455
0.030494
0.0296434
0.0287943
0.027946
0.0270992
0.0262552
0.0254128
0.0245726
0.023736
0.0229023
0.0220729
0.0212487
0.0204311
0.0196219
0.0188225
0.0180327
0.017252
0.0164783
0.0157117
0.014955
0.0142065
0.0134645
0.0127332
0.0120147
0.0112939
0.0105555
0.00979444
0.00900491
0.00817844
0.00730646
0.00637635
0.00537191
0.00427036
0.00304354
0.00175069
0.0378607
0.0370659
0.0362762
0.0354832
0.0346842
0.0338885
0.0330847
0.0322719
0.0314599
0.0306426
0.0298251
0.0290042
0.0281821
0.0273599
0.0265374
0.0257141
0.024891
0.0240684
0.0232467
0.0224268
0.0216113
0.0208027
0.0200041
0.0192152
0.0184372
0.0176641
0.0168882
0.0161155
0.0153451
0.0145579
0.0137738
0.0130224
0.0122755
0.0114871
0.0106648
0.00980893
0.00891082
0.00795941
0.00694279
0.00584608
0.00465051
0.00332965
0.00194282
9.4742e-05
0.000182506
0.000265602
0.000362909
0.000481109
0.000625849
0.000789578
0.000969128
0.00116393
0.00137376
0.00159864
0.00183869
0.00209407
0.00236493
0.00265148
0.00295403
0.00327285
0.00360825
0.00396058
0.00433011
0.0047172
0.00512217
0.00554532
0.00598687
0.0064471
0.00692624
0.00742447
0.00794185
0.00847844
0.00903418
0.00960891
0.0102023
0.010814
0.0114432
0.0120892
0.0127508
0.0134267
0.014115
0.0148135
0.0155196
0.0162298
0.0169399
0.0176447
0.000217981
0.00026563
0.000374823
0.000509693
0.000667209
0.000846239
0.00104547
0.00126042
0.00149043
0.00173523
0.00199447
0.00226812
0.00255608
0.0028583
0.00317482
0.00350565
0.00385093
0.00421076
0.00458526
0.00497451
0.00537871
0.00579791
0.0062323
0.00668194
0.00714686
0.00762719
0.00812289
0.00863391
0.00916011
0.00970132
0.0102573
0.0108275
0.0114115
0.0120086
0.0126179
0.0132383
0.0138685
0.0145068
0.0151511
0.0157991
0.0164478
0.0170937
0.017732
0.00033205
0.000360885
0.000504488
0.000677025
0.000870527
0.00108448
0.00131813
0.00156714
0.00183077
0.00210856
0.0024001
0.00270506
0.0030232
0.0033543
0.00369819
0.00405471
0.00442381
0.00480544
0.00519949
0.00560595
0.00602475
0.00645585
0.00689919
0.00735474
0.00782238
0.00830202
0.00879351
0.00929666
0.00981122
0.0103369
0.0108732
0.0114198
0.0119759
0.012541
0.013114
0.0136941
0.0142798
0.0148697
0.0154621
0.0160547
0.0166452
0.0172306
0.017808
0.000443544
0.000465915
0.00064456
0.000851233
0.00107741
0.00132561
0.00159141
0.00187204
0.00216669
0.00247472
0.00279562
0.0031289
0.00347415
0.00383096
0.00419904
0.00457812
0.00496792
0.00536827
0.00577895
0.00619968
0.00663036
0.00707078
0.00752077
0.00798006
0.00844849
0.00892579
0.00941172
0.00990597
0.0104082
0.010918
0.0114349
0.0119583
0.0124877
0.0130223
0.0135613
0.0141036
0.0146481
0.0151935
0.0157383
0.0162805
0.0168182
0.017349
0.0178701
0.000556316
0.000576994
0.000788216
0.00102592
0.00128285
0.00156212
0.00185747
0.0021671
0.00249009
0.0028256
0.00317298
0.00353165
0.00390104
0.00428067
0.00467009
0.00506886
0.00547659
0.00589295
0.00631763
0.00675028
0.00719057
0.00763819
0.00809285
0.00855422
0.00902199
0.00949581
0.00997533
0.0104601
0.0109498
0.0114439
0.011942
0.0124434
0.0129475
0.0134536
0.0139609
0.0144685
0.0149754
0.0154803
0.0159819
0.0164788
0.0169692
0.0174512
0.0179223
0.000670868
0.000690201
0.000930277
0.00119639
0.00148216
0.00178944
0.00211198
0.00244807
0.0027967
0.00315704
0.0035283
0.00390973
0.00430071
0.00470056
0.00510877
0.00552477
0.0059481
0.00637827
0.00681486
0.00725738
0.00770544
0.00815857
0.00861644
0.00907863
0.00954473
0.0100143
0.0104869
0.010962
0.0114392
0.011918
0.012398
0.0128785
0.013359
0.0138387
0.014317
0.0147928
0.0152655
0.0157337
0.0161966
0.0166529
0.0171012
0.0175402
0.0179683
0.000784994
0.000802316
0.00106789
0.0013597
0.00167242
0.00200504
0.00235229
0.00271244
0.00308437
0.00346724
0.00386005
0.00426192
0.00467216
0.00509003
0.00551488
0.00594611
0.00638312
0.0068254
0.00727231
0.00772319
0.0081775
0.00863476
0.00909465
0.0095568
0.0100206
0.0104853
0.0109505
0.0114157
0.0118805
0.0123444
0.0128071
0.013268
0.0137266
0.0141821
0.0146338
0.0150809
0.0155225
0.0159578
0.016386
0.0168059
0.0172168
0.0176174
0.0180068
0.000896644
0.00091366
0.00120122
0.00151553
0.00185266
0.00220797
0.00257753
0.00295941
0.00335256
0.00375593
0.00416827
0.00458861
0.00501623
0.00545034
0.00589021
0.00633527
0.00678492
0.0072386
0.00769486
0.00815265
0.00861157
0.0090712
0.0095323
0.00999423
0.0104551
0.0109141
0.0113711
0.0118258
0.012278
0.0127272
0.0131733
0.013616
0.0140545
0.014488
0.0149157
0.0153368
0.0157505
0.0161561
0.0165531
0.0169407
0.017318
0.0176844
0.01804
0.00101209
0.00100508
0.00130764
0.00164654
0.00200928
0.00238992
0.00278342
0.00318629
0.0036008
0.00402476
0.00445534
0.00489288
0.00533699
0.00578616
0.00623991
0.00669868
0.00716123
0.0076287
0.00809305
0.008555
0.00901556
0.00947338
0.009937
0.0104004
0.0108564
0.0113072
0.0117542
0.0121974
0.0126359
0.0130698
0.0135
0.0139265
0.014347
0.0147606
0.0151672
0.0155647
0.0159531
0.016332
0.016701
0.0170597
0.0174071
0.0177419
0.0180712
8.13157e-07
6.33383e-05
0.000248376
0.000456867
0.00070321
0.000941029
0.00117455
0.00141025
0.0016497
0.00189253
0.00213827
0.00238693
0.00263772
0.00289197
0.00315196
0.00341838
0.00369221
0.00397518
0.00426798
0.00457094
0.00488518
0.00521189
0.0055519
0.00590677
0.00627768
0.00666586
0.0070729
0.00750078
0.00795084
0.00842431
0.00892303
0.00944821
0.0100012
0.0105835
0.0111959
0.0118389
0.012513
0.0132194
0.0139583
0.0147295
0.0155347
0.0163737
0.0172457
1.74433e-07
9.03024e-06
8.603e-05
0.000213777
0.000361775
0.000535967
0.000740667
0.000978936
0.00124945
0.00152681
0.00180821
0.00209424
0.00238249
0.00267141
0.00296113
0.0032512
0.00354135
0.0038321
0.00412498
0.00442088
0.00472176
0.00502934
0.00534485
0.00567002
0.0060071
0.00635762
0.0067239
0.0071086
0.00751378
0.00794144
0.00839442
0.00887465
0.00938435
0.0099257
0.0104998
0.0111083
0.0117518
0.0124319
0.0131487
0.0139021
0.0146937
0.015523
0.0163909
6.90657e-08
7.58484e-06
6.80927e-05
0.000168095
0.00028446
0.000416762
0.000571108
0.000751936
0.00096133
0.00120007
0.00146962
0.00177303
0.00209113
0.00241126
0.00273227
0.00305258
0.00337165
0.0036899
0.00400782
0.00432546
0.0046431
0.00496183
0.00528234
0.00560582
0.00593426
0.00626906
0.00661253
0.00696759
0.00733681
0.00772308
0.00812981
0.00856042
0.00901815
0.00950628
0.0100277
0.0105849
0.0111798
0.0118146
0.0124903
0.0132074
0.0139675
0.0147707
0.0156186
8.48085e-08
5.97075e-06
5.24184e-05
0.00014106
0.000244376
0.000358988
0.000490215
0.000642581
0.000819599
0.00102311
0.00125466
0.00151582
0.00180756
0.00213183
0.00247391
0.00282007
0.0031663
0.00351186
0.00385664
0.00420051
0.00454292
0.00488465
0.0052257
0.00556629
0.00590745
0.00624961
0.00659419
0.00694331
0.00729902
0.00766374
0.00804118
0.00843488
0.00884893
0.00928778
0.00975556
0.0102565
0.0107939
0.0113719
0.011993
0.012659
0.0133722
0.0141342
0.0149481
6.81774e-08
5.97601e-06
5.00731e-05
0.000126838
0.000220858
0.000325507
0.00044385
0.000579751
0.000736565
0.000916886
0.00112233
0.00135468
0.00161502
0.00190514
0.00222725
0.00258047
0.00294569
0.00331369
0.00368205
0.00404989
0.00441619
0.00478165
0.00514587
0.00550855
0.00587036
0.00623081
0.00659047
0.00695048
0.00731161
0.00767546
0.0080445
0.00842172
0.00881079
0.00921602
0.00964234
0.0100946
0.0105779
0.0110978
0.0116588
0.0122652
0.0129206
0.0136288
0.0143955
6.73206e-08
5.59537e-06
4.62641e-05
0.000117806
0.000204313
0.000301827
0.000411381
0.000536375
0.000679883
0.000844209
0.00103153
0.0012435
0.0014814
0.00174723
0.00204242
0.00236896
0.00272823
0.00310789
0.00349458
0.00388286
0.00427049
0.00465768
0.00504382
0.00542859
0.00581207
0.00619366
0.00657332
0.00695143
0.00732819
0.00770377
0.00807987
0.00845798
0.00884071
0.00923147
0.00963433
0.0100541
0.0104963
0.010967
0.0114729
0.0120198
0.0126135
0.0132599
0.0139642
6.37794e-08
5.58946e-06
4.56351e-05
0.000113585
0.000192971
0.000284703
0.000387909
0.000505124
0.000638962
0.000791777
0.000965708
0.00116238
0.00138337
0.00163033
0.00190465
0.00220839
0.00254353
0.0029116
0.00330507
0.00370816
0.00411375
0.00452002
0.0049259
0.00533085
0.00573483
0.0061371
0.00653731
0.00693565
0.00733155
0.00772476
0.00811582
0.00850556
0.00889503
0.00928657
0.00968284
0.0100876
0.0105055
0.0109427
0.0114058
0.011902
0.0124386
0.0130237
0.0136669
6.30255e-08
5.53161e-06
4.4843e-05
0.000110581
0.00018532
0.000271974
0.000370211
0.000481388
0.000607804
0.000751695
0.000915221
0.00110019
0.00130808
0.00154034
0.00179828
0.00208404
0.00239962
0.00274684
0.00312729
0.00353415
0.00395244
0.00437446
0.00479762
0.00522065
0.00564312
0.00606464
0.00648452
0.0069027
0.00731829
0.00773083
0.00814022
0.00854656
0.00895016
0.00935198
0.00975373
0.0101575
0.0105669
0.0109864
0.0114224
0.0118818
0.0123723
0.0129027
0.0134813
6.20831e-08
5.58649e-06
4.48301e-05
0.000109118
0.000180622
0.000262491
0.000356381
0.000462664
0.000583384
0.000720454
0.000875875
0.0010515
0.00124891
0.00146923
0.00171424
0.00198547
0.00228496
0.00261477
0.00297615
0.00337137
0.00379291
0.00422584
0.00466333
0.00510222
0.00554138
0.00598042
0.00641839
0.00685517
0.00728985
0.00772145
0.00814997
0.00857476
0.0089957
0.00941303
0.0098272
0.0102394
0.0106516
0.0110672
0.0114906
0.0119279
0.0123865
0.0128743
0.0133999
6.1969e-08
5.65107e-06
4.48549e-05
0.000108147
0.000177483
0.000255145
0.000345275
0.000447708
0.000563883
0.000695525
0.000844384
0.00101243
0.00120126
0.001412
0.00164643
0.00190563
0.00219169
0.00250659
0.00285212
0.0032305
0.00364291
0.00407943
0.00452705
0.00497933
0.00543342
0.00588798
0.00634244
0.00679637
0.00724878
0.00769871
0.00814573
0.00858921
0.00902852
0.0094635
0.00989382
0.0103196
0.0107422
0.0111632
0.0115858
0.0120144
0.0124547
0.012914
0.0134004
6.21448e-08
5.71391e-06
4.50923e-05
0.000107675
0.000175277
0.000249576
0.00033654
0.000435792
0.000548231
0.000675356
0.000818891
0.000980568
0.00116232
0.00136529
0.00159067
0.00183989
0.00211478
0.0024172
0.00274933
0.00311308
0.00351032
0.00394066
0.00439277
0.00485525
0.00532186
0.00579041
0.00626001
0.00672938
0.00719805
0.00766498
0.00812963
0.00859119
0.00904871
0.00950183
0.00994972
0.0103919
0.010829
0.0112618
0.0116914
0.0121213
0.0125554
0.0129997
0.0134614
6.26706e-08
5.83575e-06
4.55679e-05
0.000107525
0.000173803
0.000245547
0.000329582
0.00042594
0.000535102
0.000658526
0.000797816
0.000954477
0.00113025
0.00132646
0.00154416
0.00178497
0.00205052
0.00234241
0.00266299
0.00301414
0.0033975
0.00381546
0.00426475
0.00473253
0.00520904
0.00568998
0.00617314
0.00665665
0.0071402
0.00762287
0.00810398
0.00858257
0.00905774
0.00952871
0.00999436
0.0104542
0.0109079
0.0113554
0.0117975
0.0122358
0.0126729
0.0131137
0.0135666
6.32003e-08
5.92075e-06
4.5924e-05
0.000107573
0.000172877
0.000242615
0.000323841
0.000417714
0.000524189
0.000644532
0.000780182
0.000932582
0.00110323
0.00129372
0.00150524
0.00173893
0.00199644
0.00227951
0.00258997
0.00292996
0.0033015
0.00370676
0.00414669
0.00461435
0.0050976
0.00558847
0.00608336
0.00657991
0.00707719
0.00757451
0.00807096
0.00856551
0.00905729
0.00954548
0.0100287
0.0105062
0.0109773
0.0114414
0.0118987
0.0123497
0.012796
0.0132409
0.0136885
6.40442e-08
6.00776e-06
4.62575e-05
0.000107558
0.000172059
0.000240293
0.000319185
0.000410987
0.000515223
0.000632922
0.000765466
0.00091408
0.0010804
0.00126631
0.00147245
0.00170008
0.00195076
0.00222608
0.00252798
0.00285833
0.00321932
0.00361313
0.00404158
0.00450383
0.00498951
0.00548783
0.00599266
0.00650087
0.00701092
0.00752172
0.00803235
0.00854191
0.00904928
0.00955382
0.0100538
0.0105487
0.0110373
0.0115186
0.0119924
0.0124585
0.0129177
0.0133717
0.0138232
6.49937e-08
6.12163e-06
4.66217e-05
0.000107665
0.000171552
0.000238523
0.000315212
0.000405099
0.00050736
0.000622856
0.000752701
0.000898241
0.00106112
0.00124277
0.00144414
0.0016665
0.00191129
0.00218
0.00247464
0.00279686
0.00314856
0.00353206
0.00394993
0.00440298
0.00488663
0.00538945
0.00590241
0.00642094
0.0069426
0.00746593
0.00798976
0.0085132
0.00903536
0.0095552
0.0100713
0.0105827
0.0110884
0.011587
0.0120778
0.0125602
0.0130342
0.0135002
0.0139602
6.60678e-08
6.19958e-06
4.68816e-05
0.000107678
0.000170998
0.000237006
0.00031197
0.000400251
0.000500831
0.000614383
0.000741923
0.000884797
0.00104453
0.00122256
0.00141988
0.00163773
0.00187739
0.00214041
0.00242851
0.00274354
0.00308726
0.00346191
0.00386994
0.00431317
0.00479118
0.00529485
0.00581378
0.00634113
0.00687328
0.00740813
0.00794436
0.00848096
0.00901679
0.00955098
0.0100823
0.0106095
0.0111316
0.011647
0.0121547
0.0126538
0.0131435
0.0136238
0.0140953
6.73372e-08
6.31883e-06
4.72591e-05
0.000107874
0.000170752
0.000235867
0.000309174
0.000395913
0.000494993
0.000606876
0.000732543
0.000873171
0.00103028
0.00120522
0.00139908
0.00161298
0.00184819
0.00210617
0.00238855
0.00269718
0.00303378
0.00340089
0.00380017
0.00423413
0.00470415
0.00520546
0.00572784
0.0062624
0.0068038
0.00734929
0.00789712
0.00844594
0.00899478
0.00954251
0.0100882
0.0106304
0.011168
0.0116997
0.0122241
0.01274
0.0132463
0.0137429
0.0142315
6.83961e-08
6.43447e-06
4.76545e-05
0.000107992
0.000170411
0.000234847
0.000306892
0.000392316
0.000490063
0.00060046
0.000724329
0.000862938
0.00101765
0.00118982
0.00138062
0.00159096
0.00182232
0.00207591
0.00235344
0.00265658
0.00298713
0.00334706
0.00373872
0.00416435
0.00462573
0.00512235
0.00564569
0.00618543
0.006735
0.00728995
0.00784855
0.008409
0.00897019
0.0095308
0.0100901
0.0106468
0.0111992
0.0117466
0.0122872
0.0128197
0.0133428
0.0138555
0.0143574
6.98194e-08
6.51316e-06
4.79135e-05
0.000108175
0.000170243
0.000234045
0.000304856
0.000388932
0.000485501
0.000594604
0.000717052
0.000853875
0.00100658
0.00117639
0.00136447
0.00157172
0.00179965
0.00204932
0.00232231
0.00262065
0.00294567
0.00329936
0.00368438
0.00410255
0.00455586
0.00504616
0.00556771
0.00611087
0.00666701
0.00723054
0.00779919
0.00837065
0.00894342
0.00951642
0.0100886
0.0106589
0.0112259
0.0117884
0.0123447
0.0128932
0.0134327
0.0139616
0.0144788
7.12487e-08
6.63579e-06
4.82422e-05
0.000108355
0.000170129
0.000233381
0.000303229
0.000386133
0.000481681
0.000589602
0.00071054
0.000845798
0.000996605
0.00116421
0.0013499
0.00155457
0.00177927
0.00202555
0.00229476
0.00258853
0.0029086
0.00325705
0.00363587
0.00404724
0.00449356
0.00497653
0.00549444
0.00603892
0.00660004
0.00717148
0.00774943
0.00833099
0.00891493
0.00949976
0.0100841
0.0106676
0.0112486
0.0118253
0.0123965
0.0129608
0.0135161
0.014061
0.0145934
7.24597e-08
6.75138e-06
4.85871e-05
0.000108401
0.000169808
0.000232599
0.000301582
0.000383463
0.000478059
0.000584902
0.000704712
0.000838579
0.000987672
0.00115337
0.00133691
0.00153901
0.00176096
0.00200414
0.00226992
0.00255981
0.00287558
0.00321914
0.00359232
0.00399767
0.00443728
0.00491307
0.00542598
0.00596996
0.00653468
0.00711296
0.00769918
0.0082903
0.00888479
0.00948087
0.0100773
0.010673
0.0112671
0.0118577
0.0124434
0.0130227
0.0135936
0.0141542
0.0147022
7.38547e-08
6.81266e-06
4.87341e-05
0.000108501
0.000169639
0.000232013
0.000300285
0.000381194
0.00047481
0.00058069
0.000699444
0.000831989
0.000979514
0.00114333
0.00132492
0.00152492
0.00174442
0.00198481
0.00224741
0.0025337
0.00284549
0.00318442
0.0035527
0.00395257
0.00438594
0.00485521
0.00536234
0.00590379
0.00647094
0.00705456
0.00764826
0.00824836
0.00885287
0.00945973
0.0100677
0.0106754
0.011282
0.011886
0.0124859
0.0130795
0.0136656
0.0142422
0.0148077
7.52263e-08
6.90563e-06
4.88713e-05
0.000108493
0.000169442
0.000231465
0.000299073
0.000379103
0.000471893
0.000576851
0.000694469
0.000825871
0.000972094
0.00113432
0.00131404
0.00151191
0.0017291
0.0019669
0.00222664
0.00250976
0.00281794
0.00315284
0.00351659
0.00391132
0.00433912
0.0048026
0.00530336
0.00584099
0.00640846
0.00699639
0.00759668
0.00820538
0.0088191
0.00943643
0.0100556
0.0106749
0.0112937
0.0119105
0.0125235
0.0131314
0.0137321
0.0143238
0.0149038
7.66949e-08
6.99084e-06
4.89623e-05
0.000108456
0.000169274
0.000230933
0.000297922
0.000377092
0.000469081
0.000573139
0.000689872
0.000820163
0.000964973
0.00112575
0.00130377
0.00149995
0.0017152
0.00195054
0.00220749
0.00248765
0.00279234
0.00312359
0.00348317
0.00387322
0.00429612
0.00475402
0.00524879
0.00578136
0.00634791
0.00693855
0.00754466
0.00816099
0.00878382
0.00941079
0.0100405
0.0106711
0.0113017
0.0119307
0.0125567
0.0131782
0.0137932
0.0143994
0.0149944
7.8179e-08
7.07618e-06
4.91405e-05
0.000108442
0.000168975
0.000230281
0.00029669
0.000375075
0.000466327
0.000569727
0.00068565
0.000814899
0.000958646
0.00111804
0.00129451
0.00148882
0.00170201
0.0019351
0.00218955
0.00246693
0.00276851
0.00309624
0.00345207
0.00383794
0.004256
0.00470836
0.00519769
0.00572542
0.0062892
0.00688119
0.00749206
0.00811527
0.00874649
0.00938279
0.0100224
0.010664
0.0113059
0.0119469
0.0125855
0.0132201
0.0138488
0.0144695
0.0150802
7.95426e-08
7.156e-06
4.92655e-05
0.000108354
0.000168665
0.000229777
0.000295794
0.00037339
0.000463959
0.000566594
0.000681557
0.0008098
0.000952522
0.00111065
0.00128553
0.00147815
0.00168942
0.00192052
0.00217269
0.00244752
0.00274628
0.00307083
0.00342301
0.0038047
0.00421826
0.00466582
0.00514982
0.00567241
0.00623257
0.0068244
0.0074388
0.00806814
0.00870717
0.00935239
0.0100019
0.0106537
0.0113066
0.0119591
0.0126097
0.0132571
0.0138992
0.0145339
0.0151595
8.09551e-08
7.23361e-06
4.94208e-05
0.000108382
0.000168501
0.000229331
0.000294883
0.000371771
0.000461682
0.00056355
0.000677713
0.000804986
0.000946566
0.00110344
0.00127685
0.00146808
0.00167769
0.00190666
0.00215668
0.002429
0.00272501
0.00304652
0.0033954
0.00377329
0.0041828
0.0046258
0.0051045
0.00562167
0.00617755
0.00676826
0.00738512
0.00801959
0.00866575
0.00931948
0.00997824
0.0106401
0.0113036
0.0119673
0.0126295
0.0132891
0.013944
0.0145925
0.0152329
8.23992e-08
7.31108e-06
4.95572e-05
0.000108402
0.00016834
0.000228915
0.000294022
0.000370219
0.00045946
0.000560561
0.000673942
0.000800475
0.000940921
0.00109663
0.00126887
0.00145849
0.00166628
0.00189355
0.00214149
0.00241144
0.00270492
0.00302357
0.00336927
0.00374366
0.00414899
0.0045876
0.00506158
0.00557335
0.00612453
0.00671299
0.0073309
0.00796974
0.00862224
0.00928382
0.00995161
0.0106231
0.0112967
0.011971
0.0126447
0.013316
0.0139831
0.0146439
0.0152956
8.37419e-08
7.38534e-06
4.96851e-05