/*--------------------------------*- C++ -*----------------------------------*\
| =========                 |                                                 |
| \\      /  F ield         | OpenFOAM: The Open Source CFD Toolbox           |
|  \\    /   O peration     | Version:  2.3.0                                 |
|   \\  /    A nd           | Web:      www.OpenFOAM.org                      |
|    \\/     M anipulation  |                                                 |
\*---------------------------------------------------------------------------*/
FoamFile
{
    version     2.0;
    format      ascii;
    class       volScalarField;
    location    "10000";
    object      nuTilda;
}
// * * * * * * * * * * * * * * * * * * * * * * * * * * * * * * * * * * * * * //

dimensions      [0 2 -1 0 0 0 0];

internalField   nonuniform List<scalar> 
123539
(
0.0181718
0.0173296
0.0165155
0.0157307
0.0149747
0.0142463
0.013546
0.0128727
0.0122255
0.0116047
0.0110092
0.0104391
0.00989312
0.00937069
0.00887057
0.00839206
0.00793405
0.00749609
0.0070757
0.00667234
0.00628514
0.00591319
0.00555521
0.00521015
0.00487623
0.00455313
0.00424023
0.00393539
0.00363901
0.00335059
0.00306993
0.00279696
0.00253437
0.00228189
0.00204286
0.00182113
0.00161877
0.00144179
0.00129587
0.0011882
0.00112115
0.00109804
0.001128
0.019136
0.0183738
0.0176312
0.0169114
0.0162145
0.0155403
0.0148881
0.0142563
0.0136455
0.0130543
0.0124833
0.0119318
0.0113989
0.010885
0.0103894
0.00991194
0.00945183
0.0090077
0.00858027
0.00816864
0.0077718
0.00738977
0.00702182
0.00666783
0.00632713
0.00600051
0.005687
0.00538793
0.00510262
0.00483074
0.00457358
0.00433128
0.00410446
0.00389414
0.00370261
0.0035336
0.00339248
0.00328306
0.0032092
0.00317271
0.00317734
0.00322726
0.00333877
0.0200618
0.0193667
0.0186857
0.018024
0.0173822
0.0167595
0.0161543
0.0155665
0.0149952
0.0144395
0.0138996
0.0133749
0.0128655
0.0123713
0.0118924
0.0114276
0.0109775
0.0105426
0.0101213
0.00971413
0.00932086
0.00894121
0.00857496
0.00822206
0.00788196
0.00755626
0.00724432
0.00694735
0.00666537
0.0064019
0.00615716
0.0059338
0.00573102
0.0055498
0.00538852
0.00524736
0.00512794
0.00503655
0.00498852
0.00501539
0.00510192
0.00524048
0.0054287
0.0209707
0.0203239
0.0196941
0.0190813
0.0184857
0.0179067
0.0173436
0.0167954
0.0162605
0.0157388
0.0152296
0.014733
0.0142489
0.0137768
0.0133167
0.0128687
0.0124336
0.0120103
0.0115997
0.0112018
0.0108161
0.0104431
0.0100832
0.00973602
0.00940201
0.00908078
0.00877296
0.00847747
0.00819646
0.00792947
0.0076796
0.00745003
0.00725096
0.00708769
0.00695943
0.00686365
0.00680145
0.00677726
0.00679391
0.00685551
0.00696272
0.00711388
0.00730813
0.0218458
0.0212543
0.0206762
0.0201106
0.0195574
0.0190165
0.018488
0.0179709
0.0174655
0.0169707
0.0164869
0.0160138
0.0155516
0.0150992
0.0146572
0.0142259
0.0138045
0.0133931
0.0129931
0.012604
0.0122264
0.0118607
0.0115078
0.0111673
0.0108408
0.010529
0.0102316
0.009951
0.00968763
0.00944278
0.00921801
0.00901717
0.00884168
0.00869605
0.00858051
0.00849784
0.00844999
0.00843826
0.00846608
0.00853424
0.00864383
0.00879587
0.00898724
0.0226704
0.0221317
0.0216028
0.0210827
0.0205717
0.0200698
0.0195768
0.0190932
0.0186182
0.0181521
0.0176945
0.0172463
0.0168064
0.0163755
0.0159534
0.0155391
0.0151333
0.0147366
0.0143492
0.0139718
0.0136054
0.0132506
0.0129074
0.0125762
0.0122585
0.0119547
0.0116663
0.0113943
0.0111388
0.0109025
0.010687
0.010494
0.0103262
0.0101851
0.0100742
0.00999475
0.00994899
0.00993997
0.00996792
0.0100363
0.0101452
0.0102949
0.010486
0.0234363
0.0229461
0.0224623
0.0219843
0.0215125
0.0210468
0.0205872
0.0201344
0.0196888
0.0192495
0.0188167
0.0183908
0.0179732
0.0175627
0.0171586
0.0167621
0.0163723
0.0159896
0.0156142
0.0152469
0.0148893
0.0145436
0.0142084
0.0138848
0.0135732
0.0132753
0.0129918
0.0127243
0.0124736
0.0122419
0.0120294
0.0118389
0.0116729
0.0115331
0.0114221
0.0113425
0.0112966
0.0112853
0.0113126
0.0113786
0.0114854
0.0116337
0.0118233
0.0241393
0.0236945
0.0232529
0.0228123
0.0223762
0.0219434
0.0215135
0.0210887
0.0206684
0.0202549
0.0198445
0.0194374
0.0190387
0.0186468
0.0182591
0.0178769
0.0175038
0.0171343
0.0167702
0.0164129
0.0160602
0.0157209
0.0153939
0.015076
0.0147684
0.0144742
0.0141931
0.0139289
0.0136811
0.0134509
0.0132418
0.0130506
0.0128866
0.0127442
0.0126331
0.0125516
0.0125037
0.0124911
0.0125152
0.0125797
0.0126828
0.0128289
0.0130181
0.0247848
0.0243818
0.0239805
0.023568
0.0231621
0.022762
0.0223577
0.0219599
0.0215584
0.021166
0.0207811
0.0203859
0.0200022
0.0196261
0.0192561
0.0188799
0.0185236
0.0181687
0.0178111
0.0174747
0.0171187
0.0167819
0.0164609
0.0161524
0.0158443
0.015558
0.0152735
0.015011
0.0147676
0.014533
0.0143357
0.0141341
0.0139806
0.0138304
0.0137202
0.0136363
0.0135864
0.0135733
0.0135917
0.0136581
0.0137548
0.0138975
0.014087
0.00130901
0.0017787
0.00216556
0.00257961
0.00302536
0.0034988
0.00399573
0.00451242
0.00504704
0.00559533
0.00615996
0.0067366
0.00732662
0.00792991
0.00854543
0.00917337
0.00981446
0.0104687
0.0111358
0.0118161
0.0125101
0.0132176
0.0139393
0.0146754
0.0154259
0.0161914
0.0169721
0.0177683
0.0185801
0.0194077
0.0202513
0.0211112
0.0219876
0.0228808
0.0237907
0.0247177
0.0256617
0.026623
0.0276016
0.0285973
0.02961
0.0306391
0.0316854
0.00357242
0.00387846
0.00422339
0.00460757
0.00502865
0.00548011
0.00596159
0.00646853
0.00699526
0.00754335
0.00810593
0.00868468
0.0092764
0.00988139
0.0104978
0.0111256
0.0117641
0.0124134
0.0130731
0.0137432
0.0144237
0.0151147
0.0158162
0.0165285
0.0172516
0.0179858
0.018731
0.0194876
0.0202558
0.0210359
0.0218282
0.0226327
0.02345
0.02428
0.0251231
0.0259793
0.0268489
0.027732
0.0286286
0.0295389
0.0304628
0.0314002
0.0323507
0.00566428
0.00594451
0.00626872
0.00663271
0.00703491
0.00747051
0.00793486
0.00842721
0.00894367
0.00947859
0.010033
0.0106026
0.0111852
0.0117808
0.0123876
0.0130045
0.013631
0.0142666
0.0149107
0.0155633
0.0162239
0.0168926
0.0175694
0.0182542
0.0189471
0.0196481
0.0203575
0.0210753
0.0218018
0.022537
0.0232812
0.0240347
0.0247976
0.02557
0.0263521
0.0271443
0.0279465
0.0287591
0.0295821
0.0304156
0.0312599
0.0321148
0.0329795
0.00754116
0.00781568
0.00813173
0.00848713
0.00887789
0.00930368
0.00975879
0.0102402
0.0107463
0.0112728
0.0118164
0.0123762
0.0129497
0.0135349
0.0141306
0.0147357
0.0153491
0.0159701
0.0165983
0.0172329
0.0178741
0.0185212
0.0191745
0.0198335
0.0204983
0.0211689
0.0218453
0.0225277
0.0232162
0.0239108
0.0246117
0.0253192
0.0260332
0.0267538
0.0274814
0.0282161
0.0289582
0.0297076
0.0304647
0.0312296
0.0320024
0.0327835
0.0335718
0.00921925
0.00949122
0.00980311
0.0101539
0.0105402
0.010959
0.0114081
0.0118834
0.0123817
0.0129015
0.0134376
0.0139896
0.0145544
0.0151306
0.0157163
0.0163103
0.0169116
0.0175192
0.0181325
0.0187509
0.0193739
0.0200015
0.0206333
0.0212691
0.0219087
0.0225519
0.0231987
0.0238495
0.024504
0.0251625
0.025825
0.0264914
0.0271619
0.0278365
0.0285155
0.0291992
0.0298876
0.0305809
0.0312792
0.0319827
0.0326916
0.033406
0.0341248
0.0107164
0.0109878
0.0112984
0.0116461
0.0120297
0.0124457
0.0128899
0.013361
0.0138549
0.0143684
0.0148995
0.0154448
0.0160029
0.0165714
0.0171486
0.017733
0.0183235
0.0189191
0.019519
0.0201226
0.0207298
0.02134
0.021953
0.0225682
0.0231853
0.0238042
0.0244249
0.0250476
0.0256724
0.0262991
0.0269277
0.0275579
0.0281897
0.0288235
0.0294595
0.030098
0.0307388
0.0313823
0.0320284
0.0326772
0.0333287
0.0339826
0.034637
0.0120539
0.0123245
0.0126347
0.0129821
0.0133638
0.0137772
0.0142197
0.0146867
0.0151773
0.0156869
0.0162134
0.016754
0.0173066
0.017869
0.0184389
0.0190149
0.0195958
0.0201805
0.0207683
0.021359
0.0219523
0.0225476
0.0231444
0.0237415
0.0243384
0.0249356
0.0255333
0.0261315
0.0267303
0.0273295
0.0279283
0.0285262
0.0291236
0.0297212
0.0303194
0.0309181
0.0315169
0.0321162
0.0327159
0.0333162
0.033917
0.0345182
0.03512
0.0132484
0.01352
0.0138294
0.0141764
0.0145585
0.0149712
0.0154102
0.0158764
0.0163633
0.0168698
0.017393
0.0179302
0.0184788
0.0190362
0.0196001
0.0201679
0.0207409
0.0213154
0.0218919
0.0224714
0.0230529
0.0236359
0.0242192
0.0247995
0.0253777
0.0259559
0.0265335
0.0271103
0.0276869
0.0282632
0.0288353
0.0294037
0.0299703
0.0305363
0.0311013
0.0316655
0.0322261
0.0327868
0.0333455
0.0339027
0.0344588
0.0350133
0.035568
0.0143158
0.0145906
0.0148984
0.0152463
0.0156303
0.0160434
0.0164757
0.0169442
0.0174274
0.0179312
0.0184524
0.0189868
0.0195329
0.0200869
0.0206453
0.0212034
0.0217726
0.0223343
0.0229003
0.0234718
0.0240432
0.0246168
0.0251896
0.0257513
0.0263115
0.0268747
0.0274345
0.0279931
0.0285515
0.0291111
0.0296553
0.0301964
0.0307363
0.0312755
0.0318115
0.0323473
0.0328697
0.0333997
0.0339205
0.03444
0.0349571
0.035468
0.0359759
0.0325902
0.0311031
0.0296536
0.0282421
0.0268693
0.0255357
0.0242417
0.0229873
0.0217722
0.0205961
0.0194594
0.0183611
0.0173003
0.0162772
0.0152909
0.0143407
0.013426
0.012546
0.0117007
0.0108887
0.0101092
0.00936167
0.00864574
0.00796023
0.00730515
0.00667961
0.00608266
0.00551403
0.00497323
0.00445989
0.00397386
0.00351453
0.0030818
0.00267567
0.00229621
0.00194372
0.00161863
0.0013218
0.00105401
0.000818589
0.000634713
0.000456861
0.000250794
0.0333238
0.0319519
0.03061
0.0292986
0.0280182
0.0267692
0.0255509
0.0243643
0.0232089
0.0220851
0.0209922
0.0199293
0.0188974
0.0178961
0.0169244
0.0159822
0.0150685
0.0141837
0.0133275
0.0124988
0.0116972
0.0109227
0.010175
0.0094534
0.00875813
0.00808847
0.00744418
0.00682541
0.00623189
0.00566426
0.00512186
0.00460519
0.00411478
0.00365064
0.00321405
0.00280583
0.00242736
0.00208221
0.00178605
0.00149673
0.00120117
0.000880325
0.000496441
0.0340476
0.0327801
0.0315377
0.0303193
0.0291254
0.0279561
0.0268108
0.0256905
0.0245943
0.0235226
0.0224753
0.021452
0.0204527
0.0194777
0.0185263
0.0175981
0.0166932
0.0158116
0.0149523
0.0141162
0.0133024
0.0125108
0.0117415
0.0109943
0.0102691
0.00956609
0.00888512
0.00822688
0.00759189
0.00698021
0.00639204
0.00582921
0.00529156
0.00478094
0.00429892
0.00384911
0.00344223
0.00304864
0.0026523
0.00224096
0.00179987
0.0013027
0.000730888
0.0347545
0.033583
0.0324318
0.0312989
0.0301855
0.0290902
0.0280135
0.0269556
0.0259161
0.0248948
0.0238921
0.0229076
0.0219416
0.0209942
0.0200644
0.0191532
0.0182603
0.0173855
0.0165286
0.0156906
0.0148706
0.0140684
0.0132844
0.0125187
0.0117718
0.0110435
0.0103346
0.00964575
0.0089781
0.00833188
0.00770914
0.00711083
0.00653838
0.00599499
0.0054874
0.00500089
0.0045166
0.00402386
0.00351111
0.00296691
0.00237389
0.00170188
0.000953761
0.0354385
0.0343546
0.0332872
0.0322339
0.0311947
0.0301686
0.0291553
0.0281559
0.0271694
0.0261953
0.0252354
0.024288
0.0233546
0.022434
0.021527
0.020634
0.0197548
0.0188893
0.018038
0.0172008
0.0163786
0.0155707
0.0147772
0.0139992
0.0132367
0.0124896
0.0117591
0.0110469
0.0103538
0.00968171
0.00903261
0.00840875
0.00781408
0.00724368
0.00668232
0.00611898
0.00554409
0.00494772
0.00432008
0.00364669
0.0029086
0.00207572
0.00116757
0.0360897
0.0350896
0.0341009
0.0331212
0.0321504
0.031188
0.0302339
0.0292879
0.0283501
0.027421
0.0265006
0.0255889
0.024686
0.0237921
0.0229079
0.0220332
0.021168
0.0203129
0.0194683
0.0186348
0.0178129
0.0170022
0.0162038
0.0154185
0.0146455
0.0138846
0.0131383
0.0124074
0.0116946
0.0110026
0.0103347
0.00969086
0.0090611
0.00843566
0.00780599
0.00716318
0.00649839
0.00580395
0.00506729
0.00427304
0.00340183
0.00242306
0.00137251
0.036708
0.0357868
0.0348703
0.0339583
0.0330507
0.0321478
0.0312475
0.0303509
0.0294585
0.0285699
0.0276867
0.0268079
0.0259343
0.0250659
0.0242035
0.0233462
0.0224951
0.021651
0.0208137
0.0199851
0.0191648
0.0183545
0.0175545
0.0167653
0.0159859
0.0152168
0.0144585
0.0137134
0.0129844
0.012274
0.011581
0.0109013
0.0102243
0.00954049
0.00884328
0.00812459
0.00737617
0.0065894
0.00575183
0.00484779
0.0038549
0.00274516
0.00156713
0.0373027
0.0364469
0.0355957
0.0347454
0.0338959
0.0330476
0.0321971
0.0313455
0.030494
0.0296434
0.0287943
0.027946
0.0270992
0.0262552
0.0254128
0.0245727
0.023736
0.0229023
0.0220729
0.0212487
0.0204311
0.0196219
0.0188225
0.0180327
0.017252
0.0164783
0.0157117
0.014955
0.0142065
0.0134645
0.0127332
0.0120147
0.0112939
0.0105555
0.00979446
0.00900493
0.00817846
0.00730649
0.00637639
0.00537196
0.00427044
0.00304369
0.00175114
0.0378607
0.0370659
0.0362762
0.0354832
0.0346842
0.0338885
0.0330847
0.0322719
0.0314599
0.0306426
0.0298251
0.0290042
0.0281821
0.0273599
0.0265374
0.0257141
0.024891
0.0240684
0.0232467
0.0224268
0.0216113
0.0208027
0.0200041
0.0192152
0.0184372
0.0176641
0.0168882
0.0161155
0.0153451
0.0145579
0.0137738
0.0130224
0.0122755
0.0114871
0.0106648
0.00980894
0.00891084
0.00795943
0.00694282
0.00584612
0.00465057
0.00332978
0.00194318
0.000141185
0.000209782
0.000281952
0.00037259
0.000486861
0.000629314
0.000791773
0.00097059
0.00116494
0.00137449
0.00159918
0.0018391
0.00209438
0.00236518
0.00265167
0.00295418
0.00327298
0.00360836
0.00396067
0.00433019
0.00471726
0.00512222
0.00554536
0.00598691
0.00644713
0.00692627
0.0074245
0.00794187
0.00847845
0.0090342
0.00960893
0.0102023
0.010814
0.0114432
0.0120892
0.0127509
0.0134267
0.014115
0.0148135
0.0155196
0.0162298
0.0169399
0.0176447
0.000239793
0.000281977
0.00038396
0.000514846
0.000670267
0.000848153
0.00104673
0.00126128
0.00149105
0.00173569
0.00199482
0.00226839
0.0025563
0.00285847
0.00317496
0.00350576
0.00385102
0.00421084
0.00458533
0.00497457
0.00537875
0.00579795
0.00623234
0.00668197
0.00714689
0.00762722
0.00812291
0.00863393
0.00916013
0.00970134
0.0102573
0.0108275
0.0114115
0.0120086
0.0126179
0.0132383
0.0138685
0.0145068
0.0151511
0.0157991
0.0164478
0.0170937
0.017732
0.000343367
0.000370663
0.000509743
0.000679996
0.000872337
0.00108565
0.00131892
0.0015677
0.00183118
0.00210887
0.00240034
0.00270525
0.00302335
0.00335442
0.00369829
0.00405479
0.00442388
0.0048055
0.00519954
0.00560599
0.00602478
0.00645588
0.00689922
0.00735476
0.0078224
0.00830204
0.00879353
0.00929667
0.00981123
0.0103369
0.0108732
0.0114198
0.0119759
0.012541
0.0131141
0.0136941
0.0142798
0.0148697
0.0154621
0.0160547
0.0166452
0.0172306
0.017808
0.000450249
0.000472027
0.000647831
0.000853124
0.00107859
0.0013264
0.00159195
0.00187244
0.00216698
0.00247495
0.0027958
0.00312904
0.00347426
0.00383106
0.00419912
0.00457819
0.00496797
0.00536832
0.005779
0.00619971
0.00663039
0.00707081
0.00752079
0.00798009
0.00844851
0.00892581
0.00941174
0.00990598
0.0104082
0.010918
0.0114349
0.0119583
0.0124877
0.0130223
0.0135613
0.0141036
0.0146481
0.0151936
0.0157383
0.0162805
0.0168182
0.017349
0.0178701
0.000560671
0.000581052
0.000790418
0.00102722
0.00128369
0.00156269
0.00185787
0.00216739
0.00249031
0.00282577
0.00317311
0.00353176
0.00390113
0.00428075
0.00467016
0.00506891
0.00547664
0.00589299
0.00631767
0.00675031
0.0071906
0.00763822
0.00809287
0.00855423
0.009022
0.00949583
0.00997534
0.0104602
0.0109498
0.0114439
0.011942
0.0124434
0.0129475
0.0134536
0.0139609
0.0144685
0.0149754
0.0154803
0.0159819
0.0164788
0.0169692
0.0174512
0.0179223
0.000673892
0.000693062
0.000931863
0.00119735
0.00148279
0.00178988
0.00211228
0.0024483
0.00279687
0.00315718
0.00352841
0.00390982
0.00430079
0.00470062
0.00510883
0.00552482
0.00594814
0.0063783
0.00681489
0.00725741
0.00770546
0.00815859
0.00861646
0.00907864
0.00954474
0.0100143
0.0104869
0.010962
0.0114392
0.011918
0.012398
0.0128785
0.013359
0.0138387
0.014317
0.0147928
0.0152655
0.0157338
0.0161966
0.0166529
0.0171012
0.0175402
0.0179683
0.000787214
0.000804443
0.0010691
0.00136045
0.00167291
0.00200539
0.00235254
0.00271263
0.00308452
0.00346736
0.00386014
0.004262
0.00467222
0.00509008
0.00551492
0.00594615
0.00638316
0.00682543
0.00727234
0.00772321
0.00817752
0.00863478
0.00909467
0.00955682
0.0100206
0.0104853
0.0109505
0.0114157
0.0118805
0.0123444
0.0128071
0.013268
0.0137266
0.0141821
0.0146338
0.0150809
0.0155225
0.0159578
0.016386
0.0168059
0.0172168
0.0176174
0.0180068
0.000898351
0.000915304
0.00120217
0.00151613
0.00185306
0.00220826
0.00257774
0.00295957
0.00335268
0.00375602
0.00416835
0.00458868
0.00501628
0.00545038
0.00589025
0.00633531
0.00678495
0.00723862
0.00769488
0.00815267
0.00861158
0.00907122
0.00953231
0.00999425
0.0104551
0.0109141
0.0113711
0.0118258
0.012278
0.0127273
0.0131733
0.013616
0.0140546
0.014488
0.0149157
0.0153368
0.0157505
0.0161561
0.0165531
0.0169407
0.017318
0.0176844
0.01804
0.00101343
0.00100644
0.00130845
0.00164704
0.00200962
0.00239016
0.0027836
0.00318642
0.00360091
0.00402485
0.00445541
0.00489294
0.00533704
0.0057862
0.00623995
0.00669871
0.00716126
0.00762872
0.00809307
0.00855502
0.00901557
0.0094734
0.00993701
0.0104004
0.0108564
0.0113072
0.0117542
0.0121974
0.0126359
0.0130698
0.0135
0.0139265
0.014347
0.0147606
0.0151672
0.0155648
0.0159531
0.016332
0.016701
0.0170597
0.0174071
0.0177419
0.0180712
3.27512e-05
0.000117378
0.000266485
0.000463209
0.000705968
0.000942579
0.00117555
0.00141094
0.00165021
0.00189292
0.00213857
0.00238718
0.00263792
0.00289213
0.0031521
0.0034185
0.00369231
0.00397527
0.00426805
0.00457101
0.00488524
0.00521194
0.00555195
0.00590681
0.00627771
0.00666589
0.00707293
0.0075008
0.00795086
0.00842433
0.00892305
0.00944823
0.0100012
0.0105836
0.0111959
0.0118389
0.012513
0.0132194
0.0139583
0.0147295
0.0155348
0.0163737
0.0172457
2.21931e-05
6.18055e-05
0.000134652
0.00023617
0.00037151
0.000540647
0.000743157
0.00098037
0.00125033
0.0015274
0.00180863
0.00209456
0.00238273
0.0026716
0.00296129
0.00325133
0.00354146
0.00383219
0.00412506
0.00442095
0.00472182
0.0050294
0.0053449
0.00567006
0.00600714
0.00635765
0.00672393
0.00710863
0.00751381
0.00794146
0.00839444
0.00887467
0.00938436
0.00992571
0.0104998
0.0111084
0.0117518
0.0124319
0.0131487
0.0139021
0.0146937
0.015523
0.0163909
1.75872e-05
5.88728e-05
0.000121055
0.000197983
0.000299125
0.00042429
0.000575248
0.000754353
0.000962816
0.00120102
0.00147026
0.00177347
0.00209145
0.0024115
0.00273246
0.00305272
0.00337177
0.00369
0.0040079
0.00432554
0.00464316
0.00496189
0.00528239
0.00560587
0.0059343
0.00626909
0.00661256
0.00696762
0.00733683
0.0077231
0.00812983
0.00856044
0.00901816
0.0095063
0.0100277
0.010585
0.0111798
0.0118146
0.0124903
0.0132074
0.0139675
0.0147707
0.0156186
1.85166e-05
5.51322e-05
0.000108712
0.000176474
0.000262927
0.000368858
0.000495766
0.000645872
0.000821637
0.00102442
0.00125554
0.00151642
0.00180799
0.00213213
0.00247414
0.00282025
0.00316644
0.00351197
0.00385674
0.00420058
0.00454298
0.00488471
0.00522575
0.00556634
0.00590749
0.00624964
0.00659422
0.00694334
0.00729905
0.00766376
0.00804121
0.0084349
0.00884894
0.0092878
0.00975557
0.0102565
0.0107939
0.0113719
0.011993
0.012659
0.0133722
0.0141342
0.0149481
1.75302e-05
5.51455e-05
0.000106796
0.000165468
0.000242285
0.000337219
0.000450547
0.000583772
0.000739083
0.000918518
0.00112342
0.00135543
0.00161555
0.00190552
0.00222753
0.00258067
0.00294584
0.00331381
0.00368215
0.00404997
0.00441626
0.00478171
0.00514592
0.0055086
0.0058704
0.00623085
0.00659051
0.00695051
0.00731164
0.00767549
0.00804452
0.00842174
0.0088108
0.00921603
0.00964236
0.0100946
0.0105779
0.0110978
0.0116588
0.0122652
0.0129206
0.0136288
0.0143955
1.74747e-05
5.41687e-05
0.000103627
0.000158572
0.000228074
0.000315134
0.000419092
0.000541048
0.000682829
0.000846132
0.00103282
0.00124439
0.00148203
0.00174768
0.00204276
0.00236921
0.00272842
0.00310804
0.00349469
0.00388295
0.00427057
0.00465775
0.00504387
0.00542863
0.00581211
0.00619369
0.00657335
0.00695146
0.00732821
0.00770379
0.00807989
0.008458
0.00884072
0.00923148
0.00963435
0.0100541
0.0104963
0.010967
0.0114729
0.0120198
0.0126135
0.0132599
0.0139642
1.72395e-05
5.41532e-05
0.000103097
0.00015537
0.000218496
0.000299347
0.000396496
0.000510367
0.00064229
0.00079396
0.000967181
0.0011634
0.00138409
0.00163085
0.00190503
0.00220867
0.00254374
0.00291177
0.0033052
0.00370826
0.00411383
0.00452008
0.00492595
0.0053309
0.00573487
0.00613713
0.00653734
0.00693568
0.00733157
0.00772478
0.00811584
0.00850558
0.00889505
0.00928659
0.00968286
0.0100876
0.0105056
0.0109427
0.0114058
0.0119021
0.0124386
0.0130237
0.0136669
1.71882e-05
5.40007e-05
0.000102425
0.000153099
0.000212114
0.000287728
0.000379553
0.000487134
0.000611472
0.000754114
0.00091686
0.00110133
0.00130888
0.00154092
0.0017987
0.00208435
0.00239986
0.00274702
0.00312743
0.00353426
0.00395253
0.00437453
0.00479768
0.0052207
0.00564316
0.00606468
0.00648455
0.00690273
0.00731831
0.00773086
0.00814024
0.00854657
0.00895018
0.009352
0.00975374
0.0101575
0.0105669
0.0109864
0.0114224
0.0118818
0.0123723
0.0129027
0.0134813
1.71234e-05
5.41453e-05
0.000102414
0.000151995
0.000208226
0.000279142
0.00036638
0.000468857
0.000587356
0.000723083
0.000877662
0.00105275
0.00124979
0.00146987
0.00171471
0.00198582
0.00228522
0.00261498
0.00297631
0.00337149
0.003793
0.00422591
0.0046634
0.00510227
0.00554142
0.00598046
0.00641842
0.0068552
0.00728988
0.00772147
0.00814999
0.00857478
0.00899571
0.00941305
0.00982722
0.0102394
0.0106516
0.0110672
0.0114906
0.011928
0.0123865
0.0128743
0.0133999
1.71155e-05
5.43143e-05
0.000102435
0.000151263
0.000205643
0.000272536
0.000355848
0.000454297
0.000568126
0.000698343
0.000846306
0.00101377
0.00120222
0.00141269
0.00164694
0.00190601
0.00219198
0.00250681
0.00285229
0.00323064
0.00364302
0.00407951
0.00452712
0.00497938
0.00543346
0.00588802
0.00634247
0.0067964
0.00724881
0.00769874
0.00814575
0.00858923
0.00902854
0.00946351
0.00989383
0.0103196
0.0107422
0.0111633
0.0115859
0.0120144
0.0124547
0.012914
0.0134004
1.71277e-05
5.44775e-05
0.000102637
0.000150907
0.000203834
0.000267556
0.000347597
0.000442722
0.000552711
0.000678341
0.000820934
0.000981997
0.00116334
0.00136603
0.00159122
0.0018403
0.00211509
0.00241744
0.00274951
0.00311322
0.00351043
0.00394075
0.00439284
0.00485531
0.0053219
0.00579045
0.00626005
0.00672941
0.00719807
0.007665
0.00812965
0.0085912
0.00904873
0.00950185
0.00994973
0.010392
0.010829
0.0112618
0.0116914
0.0121213
0.0125554
0.0129998
0.0134614
1.71639e-05
5.47905e-05
0.00010304
0.000150794
0.000202628
0.000263967
0.000341046
0.000433171
0.000539796
0.000661663
0.000799966
0.000955984
0.00113133
0.00132724
0.00154473
0.0017854
0.00205084
0.00234266
0.00266318
0.0030143
0.00339761
0.00381555
0.00426482
0.00473259
0.00520909
0.00569002
0.00617318
0.00665668
0.00714023
0.00762289
0.008104
0.00858259
0.00905775
0.00952872
0.00999437
0.0104542
0.010908
0.0113555
0.0117976
0.0122358
0.012673
0.0131137
0.0135666
1.72002e-05
5.50063e-05
0.000103341
0.000150829
0.000201872
0.000261364
0.000335656
0.000425211
0.000529073
0.000647803
0.00078243
0.00093416
0.00110436
0.00129454
0.00150585
0.00173939
0.00199679
0.00227977
0.00259018
0.00293012
0.00330163
0.00370686
0.00414678
0.00461442
0.00509765
0.00558852
0.0060834
0.00657994
0.00707721
0.00757453
0.00807098
0.00856553
0.0090573
0.0095455
0.0100287
0.0105062
0.0109773
0.0114414
0.0118987
0.0123497
0.012796
0.0132409
0.0136885
1.72575e-05
5.5225e-05
0.000103622
0.000150819
0.000201205
0.000259308
0.000331297
0.000418711
0.000520271
0.000636312
0.0007678
0.000915723
0.00108157
0.00126717
0.00147308
0.00170056
0.00195112
0.00222635
0.0025282
0.0028585
0.00321945
0.00361324
0.00404166
0.0045039
0.00498957
0.00548788
0.0059927
0.0065009
0.00701095
0.00752174
0.00803237
0.00854192
0.0090493
0.00955384
0.0100538
0.0105487
0.0110373
0.0115187
0.0119924
0.0124586
0.0129178
0.0133717
0.0138232
1.73212e-05
5.55082e-05
0.000103928
0.000150899
0.000200792
0.000257744
0.000327585
0.000413032
0.000512559
0.000626354
0.000755113
0.000899942
0.00106234
0.00124366
0.0014448
0.00166699
0.00191167
0.00218029
0.00247487
0.00279703
0.0031487
0.00353217
0.00395002
0.00440305
0.00488669
0.0053895
0.00590245
0.00642098
0.00694263
0.00746595
0.00798978
0.00851322
0.00903538
0.00955522
0.0100714
0.0105827
0.0110884
0.011587
0.0120778
0.0125602
0.0130342
0.0135002
0.0139602
1.73926e-05
5.57e-05
0.000104146
0.000150909
0.00020034
0.000256406
0.00032456
0.000408361
0.00050616
0.000617975
0.000744405
0.000886549
0.00104579
0.00122348
0.00142056
0.00163824
0.00187778
0.00214071
0.00242874
0.00274372
0.00308741
0.00346203
0.00387003
0.00431325
0.00479124
0.0052949
0.00581382
0.00634117
0.00687331
0.00740816
0.00794438
0.00848098
0.0090168
0.00955099
0.0100823
0.0106095
0.0111316
0.011647
0.0121547
0.0126538
0.0131435
0.0136238
0.0140953
1.74758e-05
5.59904e-05
0.000104462
0.000151057
0.00020014
0.000255402
0.000321957
0.000404186
0.000500442
0.000610555
0.000735088
0.000874969
0.00103157
0.00120617
0.00139979
0.00161351
0.00184859
0.00210648
0.00238879
0.00269737
0.00303393
0.003401
0.00380027
0.00423421
0.00470421
0.00520551
0.00572788
0.00626244
0.00680383
0.00734932
0.00789714
0.00844596
0.0089948
0.00954253
0.0100882
0.0106304
0.011168
0.0116998
0.0122241
0.01274
0.0132463
0.0137429
0.0142315
1.75443e-05
5.62686e-05
0.000104793
0.000151146
0.000199863
0.000254504
0.000319835
0.000400728
0.000495617
0.000604216
0.000726931
0.000864779
0.00101897
0.0011908
0.00138134
0.00159151
0.00182273
0.00207623
0.00235369
0.00265678
0.00298729
0.00334719
0.00373882
0.00416443
0.00462579
0.0051224
0.00564573
0.00618546
0.00673503
0.00728998
0.00784857
0.00840902
0.0089702
0.00953082
0.0100901
0.0106468
0.0111992
0.0117466
0.0122872
0.0128197
0.0133428
0.0138555
0.0143574
1.76351e-05
5.6456e-05
0.000105008
0.000151284
0.000199726
0.000253798
0.000317943
0.000397477
0.000491155
0.000598432
0.000719706
0.000855755
0.00100794
0.00117738
0.00136521
0.00157228
0.00180007
0.00204965
0.00232257
0.00262085
0.00294583
0.00329949
0.00368448
0.00410263
0.00455593
0.00504622
0.00556775
0.00611091
0.00666704
0.00723056
0.00779922
0.00837067
0.00894344
0.00951644
0.0100886
0.0106589
0.011226
0.0117884
0.0123447
0.0128932
0.0134327
0.0139616
0.0144788
1.77249e-05
5.67452e-05
0.000105282
0.000151419
0.000199633
0.000253215
0.000316434
0.000394791
0.000487421
0.000593493
0.000713242
0.000847714
0.000997989
0.00116523
0.00135066
0.00155514
0.00177971
0.00202588
0.00229502
0.00258874
0.00290877
0.00325718
0.00363598
0.00404732
0.00449363
0.00497658
0.00549448
0.00603895
0.00660008
0.00717151
0.00774946
0.00833101
0.00891495
0.00949978
0.0100841
0.0106676
0.0112486
0.0118253
0.0123965
0.0129608
0.0135161
0.014061
0.0145934
1.78e-05
5.70145e-05
0.000105568
0.000151454
0.000199373
0.000252528
0.000314907
0.000392231
0.000483881
0.000588854
0.000707458
0.000840527
0.00098908
0.00115441
0.00133769
0.00153959
0.00176141
0.00200448
0.00227019
0.00256002
0.00287575
0.00321927
0.00359242
0.00399775
0.00443735
0.00491313
0.00542603
0.00597
0.00653472
0.00711299
0.0076992
0.00829032
0.00888481
0.00948088
0.0100773
0.010673
0.0112671
0.0118577
0.0124435
0.0130227
0.0135936
0.0141542
0.0147022
1.78853e-05
5.71561e-05
0.00010569
0.00015153
0.000199235
0.000252014
0.000313706
0.000390057
0.000480708
0.000584698
0.000702231
0.000833969
0.000980946
0.00114438
0.00132571
0.00152552
0.00174488
0.00198516
0.00224768
0.00253391
0.00284566
0.00318455
0.00355281
0.00395265
0.00438601
0.00485526
0.00536238
0.00590383
0.00647097
0.00705459
0.00764828
0.00824838
0.00885289
0.00945974
0.0100677
0.0106755
0.011282
0.011886
0.0124859
0.0130795
0.0136656
0.0142422
0.0148077
1.79681e-05
5.73693e-05
0.000105804
0.000151523
0.000199076
0.000251534
0.000312584
0.000388055
0.00047786
0.000580911
0.000697296
0.00082788
0.000973548
0.00113539
0.00131484
0.00151251
0.00172956
0.00196725
0.00222692
0.00250998
0.00281812
0.00315298
0.0035167
0.00391141
0.00433919
0.00480266
0.00530341
0.00584103
0.0064085
0.00699642
0.0075967
0.0082054
0.00881912
0.00943645
0.0100556
0.010675
0.0112937
0.0119105
0.0125235
0.0131314
0.0137321
0.0143238
0.0149038
1.80554e-05
5.7563e-05
0.000105879
0.000151495
0.000198939
0.000251067
0.00031152
0.00038613
0.000475116
0.00057725
0.000692736
0.000822199
0.000966448
0.00112683
0.00130458
0.00150056
0.00171567
0.0019509
0.00220777
0.00248788
0.00279252
0.00312373
0.00348329
0.00387332
0.0042962
0.00475408
0.00524884
0.0057814
0.00634795
0.00693858
0.00754469
0.00816101
0.00878384
0.00941081
0.0100405
0.0106711
0.0113017
0.0119307
0.0125567
0.0131782
0.0137932
0.0143994
0.0149944
1.81424e-05
5.77555e-05
0.000106027
0.000151485
0.000198696
0.000250496
0.000310381
0.0003842
0.000472429
0.000573887
0.000688548
0.000816961
0.000960141
0.00111914
0.00129533
0.00148944
0.00170248
0.00193547
0.00218984
0.00246716
0.00276869
0.00309638
0.00345219
0.00383804
0.00425608
0.00470842
0.00519774
0.00572546
0.00628924
0.00688122
0.00749208
0.00811529
0.00874651
0.0093828
0.0100224
0.010664
0.011306
0.0119469
0.0125855
0.0132201
0.0138488
0.0144695
0.0150802
1.82213e-05
5.79342e-05
0.00010613
0.000151418
0.000198445
0.000250054
0.000309553
0.00038259
0.00047012
0.000570798
0.000684489
0.000811888
0.000954035
0.00111177
0.00128636
0.00147878
0.00168991
0.00192089
0.00217298
0.00244775
0.00274646
0.00307098
0.00342313
0.0038048
0.00421834
0.00466589
0.00514987
0.00567245
0.00623261
0.00682443
0.00743882
0.00806816
0.00870719
0.0093524
0.0100019
0.0106537
0.0113066
0.0119591
0.0126098
0.0132571
0.0138992
0.014534
0.0151595
1.83019e-05
5.81068e-05
0.000106258
0.00015144
0.000198312
0.000249665
0.000308712
0.000381043
0.0004679
0.000567798
0.000680678
0.000807098
0.000948098
0.00110457
0.0012777
0.00146872
0.00167818
0.00190704
0.00215697
0.00242923
0.00272519
0.00304667
0.00339552
0.00377339
0.00418288
0.00462586
0.00510456
0.00562171
0.00617758
0.00676829
0.00738514
0.00801961
0.00866577
0.00931949
0.00997825
0.0106401
0.0113036
0.0119673
0.0126295
0.0132891
0.013944
0.0145925
0.0152329
1.83832e-05
5.82778e-05
0.000106371
0.000151455
0.000198181
0.0002493
0.000307918
0.000379561
0.000465735
0.000564852
0.00067694
0.000802611
0.000942472
0.00109777
0.00126972
0.00145914
0.00166677
0.00189393
0.00214179
0.00241168
0.00270511
0.00302372
0.00336939
0.00374376
0.00414908
0.00458767
0.00506163
0.00557339
0.00612456
0.00671302
0.00733093
0.00796976
0.00862226
0.00928384
0.00995163
0.0106231
0.0112967
0.011971
0.0126447
0.013316
0.0139831
0.0146439
0.0152956
1.84579e-05
5.84406e-05
0.000106476
0.000151471
0.000198046
0.00024894