/*--------------------------------*- C++ -*----------------------------------*\
| =========                 |                                                 |
| \\      /  F ield         | OpenFOAM: The Open Source CFD Toolbox           |
|  \\    /   O peration     | Version:  2.3.0                                 |
|   \\  /    A nd           | Web:      www.OpenFOAM.org                      |
|    \\/     M anipulation  |                                                 |
\*---------------------------------------------------------------------------*/
FoamFile
{
    version     2.0;
    format      ascii;
    class       surfaceScalarField;
    location    "10000";
    object      phi;
}
// * * * * * * * * * * * * * * * * * * * * * * * * * * * * * * * * * * * * * //

dimensions      [0 3 -1 0 0 0 0];

internalField   nonuniform List<scalar> 
246138
(
-0.0025939
-0.00158814
0.00174344
0.0024386
-0.00273182
-0.00150729
0.00164521
-0.0028557
-0.00142799
0.00155186
-0.00296249
-0.00135281
0.0014596
-0.00305233
-0.00128158
0.00137143
-0.00312961
-0.0012113
0.00128859
-0.00319153
-0.00114343
0.00120535
-0.00323818
-0.00108066
0.0011273
-0.00327236
-0.00101742
0.0010516
-0.0032915
-0.000959078
0.000978227
-0.0032984
-0.000900329
0.000907223
-0.00329196
-0.000845049
0.000838614
-0.00327359
-0.000791884
0.000773515
-0.00324248
-0.00074079
0.000709676
-0.00320119
-0.00069062
0.000649324
-0.00314895
-0.000643585
0.000591347
-0.00308742
-0.000596423
0.000534895
-0.00301513
-0.000553312
0.000481027
-0.0029346
-0.000511067
0.000430531
-0.00284663
-0.000469769
0.000381804
-0.002752
-0.000430354
0.000335725
-0.00265177
-0.000391955
0.000291718
-0.00254666
-0.000356126
0.000251019
-0.00243745
-0.000321214
0.000212005
-0.00232622
-0.000287906
0.000176672
-0.00221454
-0.000254888
0.000143205
-0.00210247
-0.000224528
0.000112461
-0.00199296
-0.000193884
8.43754e-05
-0.00188682
-0.000164965
5.88243e-05
-0.00178565
-0.000136648
3.54746e-05
-0.00169112
-0.000109158
1.46341e-05
-0.00160564
-8.16265e-05
-3.85286e-06
-0.00153095
-5.44907e-05
-2.02056e-05
-0.00146942
-2.68267e-05
-3.47022e-05
-0.0014235
1.70297e-06
-4.76249e-05
-0.00139548
3.14932e-05
-5.95115e-05
-0.00138768
6.29044e-05
-7.07029e-05
-0.00140309
9.62659e-05
-8.0855e-05
-0.00144478
0.000131864
-9.01774e-05
-0.0015183
0.000170701
-9.7177e-05
-0.00162534
0.000209405
-0.00010237
-0.00176822
0.000245277
-0.00010239
0.000278778
-0.00198355
-6.34493e-05
-0.00235807
-0.00144747
0.0022174
-0.00248677
-0.0013786
-0.0026005
-0.00131426
-0.002701
-0.00125231
-0.00279142
-0.00119117
-0.00286903
-0.00113369
-0.00293414
-0.00107832
-0.00299114
-0.00102367
-0.00303612
-0.000972439
-0.00307333
-0.000921861
-0.0031004
-0.000873261
-0.00311763
-0.000827818
-0.00312779
-0.000781731
-0.0031299
-0.000738681
-0.00312545
-0.000695063
-0.00311359
-0.000655444
-0.00309371
-0.000616308
-0.00307037
-0.000576654
-0.00304183
-0.000539604
-0.00300762
-0.000503984
-0.00296919
-0.000468776
-0.00292714
-0.000434004
-0.00288278
-0.000400493
-0.0028359
-0.000368089
-0.0027879
-0.000335913
-0.00273881
-0.000303974
-0.00269051
-0.000272831
-0.00264267
-0.000241718
-0.00259604
-0.000211593
-0.00255243
-0.000180267
-0.00251202
-0.000149565
-0.00247552
-0.000118127
-0.00244319
-8.68185e-05
-0.00241515
-5.4866e-05
-0.00239115
-2.22948e-05
-0.00237028
1.06252e-05
-0.00235147
4.40854e-05
-0.00233282
7.76228e-05
-0.00231123
0.000110272
-0.00228115
0.000140617
-0.00223896
0.000167215
-0.00218136
0.000187682
0.000199643
-0.00210223
-0.00213815
-0.00132038
0.00201106
-0.00225226
-0.0012645
-0.00235543
-0.00121108
-0.00244789
-0.00115984
-0.00252986
-0.0011092
-0.00260157
-0.00106197
-0.00266468
-0.00101522
-0.00271936
-0.000968983
-0.00276452
-0.000927283
-0.00280175
-0.000884631
-0.00283131
-0.000843704
-0.0028547
-0.000804426
-0.00287093
-0.000765501
-0.00288147
-0.000728137
-0.00288429
-0.000692245
-0.00288311
-0.000656618
-0.00287815
-0.000621274
-0.00286647
-0.000588332
-0.00285156
-0.000554512
-0.00283365
-0.000521901
-0.00281205
-0.000490368
-0.00278716
-0.000458893
-0.00276018
-0.00042748
-0.00273054
-0.000397728
-0.00270016
-0.00036629
-0.0026678
-0.000336338
-0.00263443
-0.000306198
-0.00259968
-0.000276462
-0.00256543
-0.000245845
-0.00253018
-0.000215517
-0.00249488
-0.000184868
-0.00245872
-0.000154285
-0.00242249
-0.000123047
-0.00238523
-9.21321e-05
-0.0023467
-6.08245e-05
-0.00230629
-2.97854e-05
-0.00226296
7.57266e-07
-0.00221548
3.01464e-05
-0.00216278
5.75682e-05
-0.00210442
8.22635e-05
-0.00204036
0.000103151
-0.00197218
0.000119505
0.000130713
-0.00190325
-0.00193488
-0.00120727
0.00182178
-0.00203726
-0.00116212
-0.00213083
-0.00111752
-0.00221436
-0.00107631
-0.00228809
-0.00103547
-0.00235366
-0.000996405
-0.00241125
-0.000957629
-0.00245971
-0.000920519
-0.00250331
-0.000883682
-0.00253821
-0.000849738
-0.00256724
-0.000814669
-0.00259058
-0.000781086
-0.00260718
-0.000748901
-0.0026185
-0.000716819
-0.00262474
-0.000686007
-0.00262724
-0.000654112
-0.00262396
-0.000624563
-0.00261729
-0.000595002
-0.00260636
-0.000565434
-0.00259141
-0.000536852
-0.00257362
-0.000508159
-0.00255316
-0.000479354
-0.00253021
-0.000450431
-0.0025049
-0.000423037
-0.00247669
-0.000394498
-0.00244731
-0.000365722
-0.00241541
-0.0003381
-0.00238315
-0.00030872
-0.00234867
-0.000280321
-0.00231325
-0.000250944
-0.00227585
-0.00022227
-0.00223784
-0.000192288
-0.00219792
-0.000162968
-0.00215689
-0.000133163
-0.00211393
-0.000103789
-0.00206878
-7.49335e-05
-0.00202153
-4.64906e-05
-0.00197182
-1.95615e-05
-0.00191989
5.63859e-06
-0.00186611
2.84756e-05
-0.00181138
4.84294e-05
-0.00175678
6.48988e-05
7.81653e-05
-0.00170423
-0.00175024
-0.00110652
0.00164949
-0.00184251
-0.00106986
-0.00192502
-0.001035
-0.0019995
-0.00100184
-0.00206607
-0.000968891
-0.00212631
-0.000936167
-0.00217758
-0.000906362
-0.00222285
-0.000875244
-0.00226094
-0.0008456
-0.00229333
-0.000817349
-0.00231888
-0.000789117
-0.00234032
-0.000759642
-0.00235528
-0.000733946
-0.00236637
-0.000705725
-0.00237372
-0.000678655
-0.0023752
-0.000652636
-0.00237217
-0.000627592
-0.002367
-0.000600172
-0.00235764
-0.000574796
-0.00234528
-0.000549208
-0.00233004
-0.000523393
-0.00231205
-0.00049735
-0.0022905
-0.000471979
-0.00226732
-0.000446213
-0.00224179
-0.000420034
-0.00221328
-0.000394231
-0.00218418
-0.0003672
-0.0021531
-0.0003398
-0.00212009
-0.000313328
-0.00208532
-0.000285719
-0.00204984
-0.000257743
-0.00201218
-0.000229953
-0.00197371
-0.000201433
-0.00193324
-0.000173636
-0.00189187
-0.000145161
-0.0018491
-0.000117702
-0.00180494
-9.0649e-05
-0.00175975
-6.47516e-05
-0.00171358
-4.05326e-05
-0.00166687
-1.82317e-05
-0.00162013
1.68776e-06
-0.00157411
1.88767e-05
3.30424e-05
-0.00152899
-0.00158104
-0.00101584
0.00149035
-0.00166365
-0.000987247
-0.00173695
-0.000961695
-0.00180405
-0.000934737
-0.00186364
-0.000909301
-0.00191584
-0.000883973
-0.00196355
-0.000858648
-0.00200283
-0.000835961
-0.00203792
-0.000810507
-0.00206758
-0.000787692
-0.00209192
-0.000764777
-0.00210983
-0.000741729
-0.00212522
-0.000718557
-0.00213563
-0.000695321
-0.00214002
-0.000674259
-0.00214218
-0.000650484
-0.00214101
-0.000628757
-0.00213555
-0.000605636
-0.00212706
-0.000583286
-0.00211566
-0.000560609
-0.00210145
-0.000537598
-0.00208459
-0.000514214
-0.00206506
-0.000491505
-0.00204386
-0.000467419
-0.00202019
-0.000443701
-0.00199503
-0.000419392
-0.00196768
-0.000394553
-0.00193758
-0.0003699
-0.00190697
-0.000343938
-0.00187517
-0.000317513
-0.00184162
-0.000291291
-0.00180693
-0.00026465
-0.00177069
-0.000237664
-0.0017338
-0.000210534
-0.00169557
-0.000183385
-0.00165638
-0.000156894
-0.00161664
-0.000130388
-0.00157574
-0.000105652
-0.00153472
-8.15518e-05
-0.00149332
-5.96364e-05
-0.00145216
-3.94723e-05
-0.00141143
-2.1848e-05
-6.82651e-06
-0.00137156
-0.00143029
-0.00093474
0.00134919
-0.00150226
-0.000915275
-0.00156968
-0.000894275
-0.00162972
-0.000874689
-0.00168402
-0.000855008
-0.00173119
-0.000836797
-0.00177273
-0.000817112
-0.00181017
-0.000798525
-0.00183959
-0.000781085
-0.00186648
-0.000760797
-0.00188827
-0.00074299
-0.00190635
-0.000723649
-0.00191963
-0.000705276
-0.00192811
-0.000686844
-0.00193421
-0.000668158
-0.00193457
-0.000650124
-0.00193406
-0.000629263
-0.00192925
-0.000610448
-0.00192149
-0.000591051
-0.00191089
-0.000571202
-0.00189855
-0.000549943
-0.00188272
-0.000530045
-0.00186625
-0.000507971
-0.00184622
-0.00048745
-0.00182459
-0.000465335
-0.00180065
-0.000443331
-0.00177533
-0.000419874
-0.00174865
-0.00039658
-0.00172073
-0.000371858
-0.00169037
-0.000347872
-0.00165964
-0.000322015
-0.00162785
-0.000296444
-0.00159508
-0.000270431
-0.00156082
-0.000244797
-0.00152626
-0.000217948
-0.0014909
-0.000192252
-0.00145431
-0.000166976
-0.00141801
-0.000141952
-0.00138084
-0.000118721
-0.00134367
-9.68103e-05
-0.00130675
-7.63951e-05
-0.00127017
-5.8419e-05
-4.2723e-05
-0.00123428
-0.00128969
-0.000862854
0.0012178
-0.0013558
-0.000849159
-0.00141616
-0.000833913
-0.00146941
-0.000821445
-0.00151721
-0.000807205
-0.00156097
-0.000793037
-0.00159787
-0.000780214
-0.00163084
-0.000765553
-0.00165999
-0.000751933
-0.00168279
-0.000737996
-0.00170329
-0.000722496
-0.00171761
-0.000709329
-0.00172994
-0.000692944
-0.00173772
-0.000679062
-0.00174319
-0.000662693
-0.00174519
-0.000648123
-0.00174302
-0.00063143
-0.00173885
-0.000614622
-0.00173171
-0.000598191
-0.00172292
-0.000579989
-0.00171016
-0.0005627
-0.00169717
-0.000543041
-0.0016809
-0.00052424
-0.00166397
-0.00050438
-0.00164353
-0.000485774
-0.00162254
-0.000464324
-0.00159937
-0.000443042
-0.00157483
-0.000421123
-0.00154894
-0.00039774
-0.00152203
-0.000374783
-0.00149352
-0.00035053
-0.00146469
-0.000325272
-0.00143448
-0.000300639
-0.00140374
-0.000275537
-0.00137188
-0.000249811
-0.0013399
-0.000224237
-0.00130739
-0.000199483
-0.00127443
-0.000174911
-0.00124101
-0.000152142
-0.00120724
-0.000130577
-0.00117403
-0.000109605
-0.00114106
-9.13898e-05
-7.52216e-05
-0.00110856
-0.00116873
-0.00079821
0.00110408
-0.00122929
-0.000788593
-0.00128152
-0.000781681
-0.00132972
-0.000773252
-0.0013741
-0.000762818
-0.0014119
-0.000755238
-0.00144558
-0.000746533
-0.00147559
-0.000735542
-0.00150074
-0.000726789
-0.00152363
-0.000715104
-0.00154053
-0.0007056
-0.00155477
-0.000695083
-0.00156613
-0.000681591
-0.00157467
-0.000670522
-0.0015786
-0.000658759
-0.00158086
-0.00064586
-0.0015796
-0.000632688
-0.00157521
-0.00061902
-0.00156939
-0.00060401
-0.00156058
-0.000588796
-0.00155008
-0.000573198
-0.00153663
-0.000556488
-0.00152249
-0.000538386
-0.00150702
-0.000519845
-0.00148921
-0.000503584
-0.00146924
-0.000484299
-0.00144915
-0.000463129
-0.00142703
-0.000443247
-0.00140249
-0.000422277
-0.0013778
-0.000399473
-0.00135217
-0.000376159
-0.00132494
-0.000352506
-0.00129804
-0.000327533
-0.00126916
-0.000304423
-0.00124045
-0.000278518
-0.00121101
-0.000253678
-0.00118182
-0.000228669
-0.00115219
-0.000204541
-0.00112167
-0.000182664
-0.00109073
-0.000161519
-0.00106039
-0.000139942
-0.00103047
-0.000121313
-0.00100114
-0.000104546
-0.00187793
0.000301719
-0.000407338
-0.00181231
0.00029513
-0.000360749
-0.00176538
0.000286566
-0.000333498
-0.00172702
0.000276023
-0.000314386
-0.00169378
0.000263436
-0.000296674
-0.0016639
0.000251936
-0.00028182
-0.00163493
0.000239909
-0.00026888
-0.00160641
0.00022693
-0.000255441
-0.00157897
0.000215874
-0.000243323
-0.00154959
0.000202796
-0.000232172
-0.00152065
0.000192027
-0.000220971
-0.00149047
0.000179554
-0.000209726
-0.00145941
0.000168513
-0.000199579
-0.00142774
0.000156879
-0.000188546
-0.00139548
0.000145531
-0.000177791
-0.00136241
0.000134079
-0.000167154
-0.00132875
0.000122667
-0.000156321
-0.00129488
0.000111108
-0.000144985
-0.0012607
9.93812e-05
-0.000133556
-0.00122637
8.74353e-05
-0.000121764
-0.00119209
7.52668e-05
-0.000109551
-0.00115792
6.27412e-05
-9.6906e-05
-0.00112405
4.98909e-05
-8.37584e-05
-0.00109066
3.66135e-05
-7.00108e-05
-0.00105788
2.28815e-05
-5.56625e-05
-0.00102591
8.64365e-06
-4.06104e-05
-0.000994948
-6.14862e-06
-2.48137e-05
-0.000965194
-2.15433e-05
-8.2101e-06
-0.000936872
-3.75888e-05
9.26635e-06
-0.000910213
-5.43354e-05
2.76763e-05
-0.000885455
-7.18315e-05
4.70733e-05
-0.000862818
-9.0164e-05
6.75276e-05
-0.000842598
-0.000109337
8.91172e-05
-0.000825012
-0.000129476
0.00011189
-0.000810391
-0.000150567
0.000135946
-0.000799018
-0.000172692
0.000161319
-0.000791177
-0.000195974
0.000188133
-0.000787235
-0.0002204
0.000216458
-0.000787476
-0.000246098
0.00024634
-0.000792294
-0.000273039
0.000277857
-0.00080204
-0.000301383
0.000311129
-0.000817101
-0.000331136
0.000346197
-0.00036235
0.000383218
-0.00083797
-0.00200674
0.000206227
-0.00192237
0.000210763
-0.00184704
0.000211239
-0.00177954
0.000208525
-0.00172006
0.000203954
-0.00166507
0.000196947
-0.00161484
0.000189675
-0.00156919
0.000181283
-0.00152493
0.00017161
-0.00148439
0.000162256
-0.00144436
0.000151999
-0.00140622
0.000141416
-0.00136898
0.000131264
-0.00133269
0.000120591
-0.001297
0.000109842
-0.00126192
9.90024e-05
-0.00122729
8.80318e-05
-0.00119309
7.69135e-05
-0.00115934
6.56295e-05
-0.00112607
5.41688e-05
-0.00109331
4.24991e-05
-0.00106115
3.05866e-05
-0.00102966
1.83986e-05
-0.000998949
5.90363e-06
-0.000969135
-6.93261e-06
-0.000940344
-2.01465e-05
-0.000912728
-3.37647e-05
-0.000886431
-4.7841e-05
-0.000861614
-6.24054e-05
-0.000838457
-7.74924e-05
-0.000817109
-9.31796e-05
-0.000797822
-0.000109451
-0.000780735
-0.000126425
-0.000766139
-0.000144071
-0.000754196
-0.00016251
-0.00074517
-0.000181718
-0.000739312
-0.000201832
-0.000736896
-0.000222816
-0.000738261
-0.000244733
-0.000743583
-0.000267717
-0.000753217
-0.000291748
-0.000767512
-0.000316841
-0.000342998
-0.000786864
-0.00183715
0.000140122
-0.00177407
0.000147685
-0.0017147
0.000151867
-0.00165875
0.000152583
-0.00160673
0.000151932
-0.00155812
0.000148331
-0.00151148
0.000143035
-0.00146728
0.00013709
-0.00142568
0.00013001
-0.00138488
0.000121455
-0.00134602
0.000113135
-0.00130858
0.000103983
-0.00127181
9.44922e-05
-0.00123595
8.47313e-05
-0.00120091
7.48034e-05
-0.00116655
6.46348e-05
-0.00113285
5.43309e-05
-0.00109981
4.38784e-05
-0.00106744
3.32618e-05
-0.00103578
2.2504e-05
-0.00100484
1.15648e-05
-0.000974703
4.45812e-07
-0.000945422
-1.08818e-05
-0.000917083
-2.24362e-05
-0.000889765
-3.42502e-05
-0.000863592
-4.63198e-05
-0.000838642
-5.87141e-05
-0.000815066
-7.14174e-05
-0.000792982
-8.4489e-05
-0.000772528
-9.79469e-05
-0.000753854
-0.000111853
-0.000737104
-0.000126202
-0.000722468
-0.00014106
-0.0007101
-0.000156439
-0.00070024
-0.00017237
-0.000692999
-0.000188959
-0.000688674
-0.000206157
-0.000687474
-0.000224016
-0.000689546
-0.000242661
-0.000695257
-0.000262006
-0.000704792
-0.000282212
-0.000718404
-0.00030323
-0.000325114
-0.000736287
-0.00165284
8.87349e-05
-0.00160236
9.71983e-05
-0.00155328
0.000102785
-0.00150636
0.000105667
-0.00146056
0.000106131
-0.00141698
0.000104749
-0.0013753
0.000101357
-0.00133496
9.67538e-05
-0.00129611
9.11567e-05
-0.00125883
8.4177e-05
-0.00122252
7.68278e-05
-0.00118727
6.87328e-05
-0.00115305
6.02709e-05
-0.00111972
5.14037e-05
-0.00108719
4.22727e-05
-0.00105547
3.29107e-05
-0.00102451
2.33695e-05
-0.0009943
1.36712e-05
-0.000964877
3.83823e-06
-0.000936245
-6.12807e-06
-0.000908446
-1.62334e-05
-0.000881511
-2.64896e-05
-0.000855486
-3.69062e-05
-0.000830434
-4.74884e-05
-0.000806433
-5.82512e-05
-0.00078356
-6.91933e-05
-0.000761904
-8.03704e-05
-0.000741569
-9.17518e-05
-0.000722654
-0.000103404
-0.000705247
-0.000115354
-0.000689522
-0.000127578
-0.000675548
-0.000140176
-0.000663526
-0.000153082
-0.0006536
-0.000166365
-0.000645863
-0.000180108
-0.000640544
-0.000194277
-0.00063782
-0.000208881
-0.000637867
-0.00022397
-0.000640892
-0.000239636
-0.000647117
-0.000255781
-0.000656734
-0.000272595
-0.000669993
-0.000289971
-0.000307833
-0.000687274
-0.00148493
4.46783e-05
-0.00144158
5.38515e-05
-0.00139907
6.02713e-05
-0.00135786
6.44541e-05
-0.00131793
6.62031e-05
-0.0012791
6.59212e-05
-0.00124179
6.40426e-05
-0.0012057
6.06704e-05
-0.00117047
5.59248e-05
-0.00113669
5.03945e-05
-0.00110368
4.38155e-05
-0.00107169
3.67432e-05
-0.00104051
2.90973e-05
-0.00101016
2.10536e-05
-0.00098058
1.26884e-05
-0.000951757
4.08722e-06
-0.000923697
-4.69043e-06
-0.000896415
-1.36114e-05
-0.00086993
-2.26462e-05
-0.000844263
-3.17954e-05
-0.000819438
-4.10581e-05
-0.000795475
-5.04523e-05
-0.000772424
-5.99575e-05
-0.000750308
-6.96047e-05
-0.000729221
-7.93377e-05
-0.000709233
-8.91817e-05
-0.000690449
-9.91544e-05
-0.000672902
-0.000109299
-0.000656685
-0.000119621
-0.000641929
-0.00013011
-0.000628679
-0.000140828
-0.000617117
-0.000151737
-0.000607316
-0.000162884
-0.000599413
-0.000174268
-0.000593549
-0.000185972
-0.000589836
-0.00019799
-0.000588488
-0.000210229
-0.000589588
-0.000222869
-0.00059342
-0.000235805
-0.000600034
-0.000249166
-0.00060969
-0.00026294
-0.000622461
-0.0002772
-0.000291748
-0.000638547
-0.0013324
5.51151e-06
-0.00129393
1.53877e-05
-0.00125642
2.27554e-05
-0.0012197
2.7737e-05
-0.00118405
3.05555e-05
-0.00114953
3.1395e-05
-0.0011159
3.04169e-05
-0.00108333
2.81037e-05
-0.00105181
2.43979e-05
-0.00102109
1.96807e-05
-0.000991344
1.40664e-05
-0.000962357
7.75564e-06
-0.000934138
8.78729e-07
-0.000906661
-6.42379e-06
-0.000879908
-1.40647e-05
-0.000853896
-2.19242e-05
-0.000828655
-2.99318e-05
-0.000804189
-3.80773e-05
-0.000780532
-4.63034e-05
-0.000757693
-5.46335e-05
-0.000735689
-6.30622e-05
-0.000714509
-7.16323e-05
-0.000694174
-8.02931e-05
-0.000674773
-8.90053e-05
-0.000656364
-9.77473e-05
-0.000639038
-0.000106508
-0.000622817
-0.000115375
-0.000607776
-0.00012434
-0.000593996
-0.000133401
-0.000581518
-0.000142587
-0.000570499
-0.000151848
-0.000560997
-0.000161239
-0.000553159
-0.000170721
-0.000547017
-0.00018041
-0.000542715
-0.000190273
-0.0005404
-0.000200306
-0.00054018
-0.000210449
-0.000542202
-0.000220847
-0.000546631
-0.000231376
-0.000553586
-0.00024221
-0.0005632
-0.000253326
-0.000575641
-0.000264759
-0.000276652
-0.000590736
-0.00119895
-2.98156e-05
-0.00116428
-1.92866e-05
-0.00113049
-1.10269e-05
-0.00109755
-5.20566e-06
-0.00106543
-1.56816e-06
-0.00103413
1.01562e-07
-0.00100391
1.94657e-07
-0.000974493
-1.31496e-06
-0.000945968
-4.12697e-06
-0.00091825
-8.03707e-06
-0.000891287
-1.28971e-05
-0.000865031
-1.85007e-05
-0.000839462
-2.46902e-05
-0.000814585
-3.13001e-05
-0.000790391
-3.82594e-05
-0.000766937
-4.53778e-05
-0.000744261
-5.26079e-05
-0.000722337
-6.00011e-05
-0.000701226
-6.74146e-05
-0.000680921
-7.49386e-05
-0.000661401
-8.25818e-05
-0.00064264
-9.03937e-05
-0.000624682
-9.82508e-05
-0.000607603
-0.000106085
-0.000591513
-0.000113837
-0.000576447
-0.000121574
-0.000562434
-0.000129388
-0.00054954
-0.000137235
-0.000537759
-0.000145182
-0.000527215
-0.000153131
-0.00051801
-0.000161053
-0.000510292
-0.000168956
-0.000504028
-0.000176986
-0.000499343
-0.000185094
-0.000496275
-0.000193342
-0.000495064
-0.000201517
-0.000495739
-0.000209774
-0.000498507
-0.000218078
-0.000503385
-0.000226499
-0.000510552
-0.000235044
-0.000520164
-0.000243714
-0.000532361
-0.000252562
-0.000261641
-0.000547373
-0.00107655
-6.1827e-05
-0.00104515
-5.06913e-05
-0.0010147
-4.14708e-05
-0.000984974
-3.49358e-05
-0.000955948
-3.05941e-05
-0.000927699
-2.81473e-05
-0.000900458
-2.70457e-05
-0.000873939
-2.78342e-05
-0.000848201
-2.98649e-05
-0.000823182
-3.30562e-05
-0.000798794
-3.72857e-05
-0.000775047
-4.22471e-05
-0.000751912
-4.78255e-05
-0.000729459
-5.37525e-05
-0.000707643
-6.00756e-05
-0.000686594
-6.64267e-05
-0.00066628
-7.29217e-05
-0.000646667
-7.96146e-05
-0.000627907
-8.61747e-05
-0.00060988
-9.29651e-05
-0.000592629
-9.98331e-05
-0.000575997
-0.000107025
-0.000560063
-0.000114185
-0.000545068
-0.00012108
-0.000531025
-0.00012788
-0.000517937
-0.000134662
-0.000505839
-0.000141485
-0.00049474
-0.000148334
-0.000484666
-0.000155256
-0.00047573
-0.000162067
-0.000468133
-0.00016865
-0.000461831
-0.000175258
-0.000456932
-0.000181886
-0.000453413
-0.000188613
-0.000451383
-0.000195372
-0.000451036
-0.000201864
-0.000452522
-0.000208287
-0.000455743
-0.000214857
-0.00046094
-0.000221302
-0.00046817
-0.000227813
-0.000477583
-0.000234301
-0.00048933
-0.000240815
-0.000247516
-0.000503454
-0.00097207
-9.09009e-05
-0.000943128
-7.9633e-05
-0.000915361
-6.92378e-05
-0.000888244
-6.20537e-05
-0.000861673
-5.71648e-05
-0.000836103
-5.37175e-05
-0.000811844
-5.1304e-05
-0.000787702
-5.1977e-05
-0.000764335
-5.3231e-05
-0.00074149
-5.59017e-05
-0.000719288
-5.94875e-05
-0.000697709
-6.38264e-05
-0.000676623
-6.89112e-05
-0.000656211
-7.41648e-05
-0.000636469
-7.98179e-05
-0.000617553
-8.53423e-05
-0.000599389
-9.10855e-05
-0.000581723
-9.72812e-05
-0.000564912
-0.000102985
-0.000548801
-0.000109077
-0.000533478
-0.000115155
-0.000518567
-0.000121937
-0.000504352
-0.0001284
-0.000491242
-0.00013419
-0.000478921
-0.000140201
-0.000467541
-0.000146042
-0.000457028
-0.000151998
-0.000447413
-0.000157949
-0.000438646
-0.000164023
-0.000431136
-0.000169576
-0.000424934
-0.000174853
-0.000419853
-0.000180339
-0.000415965
-0.000185773
-0.000413399
-0.00019118
-0.000411928
-0.000196842
-0.00041248
-0.000201312
-0.000414532
-0.000206236
-0.000418102
-0.000211287
-0.000423474
-0.00021593
-0.000430463
-0.000220824
-0.000439429
-0.000225335
-0.000450492
-0.000229752
-0.000234727
-0.000463282
0.000413445
-3.39705e-05
4.38124e-05
-0.000423287
0.000407168
-1.5676e-05
2.19535e-05
0.000403169
1.83933e-06
2.15961e-06
0.00040163
1.75317e-05
-1.59926e-05
0.000402474
3.20117e-05
-3.28556e-05
0.00040501
4.54508e-05
-4.79874e-05
0.000408547
5.78835e-05
-6.14208e-05
0.000413364
6.87709e-05
-7.35871e-05
0.000419172
7.91061e-05
-8.49146e-05
0.000425644
8.80405e-05
-9.45121e-05
0.000432191
9.65716e-05
-0.000103119
0.000438221
0.000104455
-0.000110485
0.000444799
0.000110769
-0.000117347
0.000451052
0.000116873
-0.000123125
0.000456451
0.000122498
-0.000127897
0.000461471
0.000127036
-0.000132056
0.000465284
0.000131534
-0.000135347
0.000468403
0.000135024
-0.000138144
0.000470378
0.000137907
-0.000139882
0.000471396
0.000140879
-0.000141897
0.000470686
0.000143329
-0.00014262
0.000469174
0.000144936
-0.000143424
0.000465753
0.000146754
-0.000143333
0.000461378
0.000147814
-0.000143439
0.000455466
0.000148458
-0.000142546
0.000447868
0.000149438
-0.000141841
0.000438827
0.000149748
-0.000140706
0.000428131
0.000150031
-0.000139335
0.000415795
0.000150088
-0.000137752
0.000402313
0.000149491
-0.000136009
0.000386995
0.000149359
-0.000134041
0.000370219
0.000148773
-0.000131996
0.000351924
0.000148124
-0.000129829
0.000332011
0.000147455
-0.000127543
0.000310567
0.000146601
-0.000125157
0.000287343
0.00014594
-0.000122716
0.000262161
0.000145352
-0.000120169
0.000234269
0.000145423
-0.000117532
0.00020229
0.000146936
-0.000114956
0.000162473
0.000152334
-0.000112517
0.000105826
0.000168053
-0.000111406
7.50001e-06
0.000213979
-0.000115652
0.00035583
-0.000216647
-0.000131683
0.000375964
-2.57808e-05
-0.000384154
0.00037027
-9.98156e-06
0.000367581
4.52782e-06
0.000366621
1.84918e-05
0.00036763
3.10031e-05
0.000370027
4.30533e-05
0.000373782
5.41286e-05
0.000378325
6.42282e-05
0.000383683
7.3748e-05
0.000389296
8.24273e-05
0.000395244
9.06239e-05
0.000401635
9.80634e-05
0.000407617
0.000104787
0.000413323
0.000111167
0.000419242
0.000116579
0.000423881
0.000122397
0.000428429
0.000126986
0.000432069
0.000131385
0.000434334
0.000135642
0.000436124
0.000139089
0.000436643
0.00014281
0.000436159
0.000145421
0.000434538
0.000148374
0.000431373
0.000150979
0.00042657
0.000153261
0.000420761
0.000155247
0.000413218
0.000157291
0.000404465
0.000158784
0.000394205
0.000160348
0.000381942
0.000161754
0.000367956
0.000163345
0.000352613
0.000164116
0.000334887
0.00016585
0.00031535
0.000166992
0.000293317
0.000168635
0.000268424
0.000170832
0.000239342
0.000174434
0.00020485
0.000179916
0.000161613
0.000190173
0.000103445
0.000210502
1.86652e-05
0.000252833
-0.000113467
0.000346111
0.000545055
-0.000302692
0.000340712
-1.94319e-05
-0.000347061
0.000336628
-5.89727e-06
0.000334462
6.6938e-06
0.000333943
1.90109e-05
0.000335092
2.98539e-05
0.000337308
4.08369e-05
0.000340985
5.04516e-05
0.000345244
5.99694e-05
0.000350163
6.88286e-05
0.000355547
7.70433e-05
0.00036151
8.4661e-05
0.000367211
9.23625e-05
0.000373125
9.88733e-05
0.000378755
0.000105537
0.000383608
0.000111726
0.000388541
0.000117463
0.000392749
0.000122779
0.000396097
0.000128036
0.000398826
0.000132913
0.000400804
0.000137111
0.000401954
0.00014166
0.000401433
0.000145942
0.000400224
0.000149583
0.000397874
0.000153329
0.000394297
0.000156839
0.000389016
0.000160528
0.000382668
0.000163639
0.000374509
0.000166943
0.000365035
0.000169821
0.000353499
0.000173291
0.000340791
0.000176052
0.000325291
0.000179616
0.000308101
0.000183041
0.000287818
0.000187275
0.000264194
0.000192258
0.000236653
0.000198374
0.00020346
0.000207626
0.000162629
0.000220747
0.000109829
0.000242973
3.93639e-05
0.000280967
-5.81081e-05
0.000350305
-0.000193953
0.000481957
0.000706821
-0.00035572
0.000308141
-1.41005e-05
-0.000313472
0.000304941
-2.69774e-06
0.000302958
8.67745e-06
0.000303193
1.87754e-05
0.000304168
2.88796e-05
0.00030659
3.84142e-05
0.000309633
4.74091e-05
0.000313699
5.59027e-05
0.000318304
6.42242e-05
0.000322933
7.24143e-05
0.000328055
7.95384e-05
0.000333184
8.72338e-05
0.000338494
9.35635e-05
0.000343172
0.000100858
0.00034808
0.000106818
0.000352416
0.000113128
0.000356398
0.000118796
0.000359571
0.000124864
0.000362504
0.00012998
0.00036407
0.000135544
0.000365187
0.000140544
0.000365432
0.000145697
0.000364343
0.000150672
0.000362167
0.000155505
0.000358768
0.000160238
0.000354449
0.000164846
0.000348347
0.000169742
0.000341031
0.000174259
0.000331718
0.000179134
0.000320949
0.00018406
0.00030813
0.000188871
0.000293034
0.000194712
0.000275268
0.000200807
0.000254673
0.00020787
0.000230128
0.000216803
0.000200674
0.000227827
0.00016535
0.000242951
0.000120372
0.000265725
6.36382e-05
0.000299706
-1.07505e-05
0.000355355
-0.000109138
0.000448693
-0.000234798
0.000607616
0.000846054
-0.000374031
0.000278085
-9.85437e-06
-0.000282332
0.000275527
-1.39672e-07
0.000274444
9.76071e-06
0.000274346
1.88737e-05
0.000275644
2.75818e-05
0.00027756
3.64976e-05
0.000280511
4.44579e-05
0.000284023
5.23913e-05
0.000287608
6.06396e-05
0.000292406
6.76155e-05
0.000296657
7.52876e-05
0.000301512
8.2379e-05
0.000305847
8.92283e-05
0.000310527
9.61787e-05
0.000314765
0.00010258
0.000318774
0.000109119
0.000322106
0.000115465
0.000325323
0.000121647
0.000327298
0.000128005
0.000328983
0.000133859
0.000329934
0.000139593
0.000329716
0.000145915
0.00032891
0.000151477
0.000327411
0.000157003
0.000324425
0.000163224
0.000319792
0.000169479
0.000314436
0.000175097
0.000307177
0.000181518
0.000298576
0.000187736
0.000288044
0.000194592
0.000275126
0.000201789
0.00026053
0.000209307
0.000242836
0.000218501
0.00022209
0.000228616
0.000197568
0.000241325
0.000167736
0.000257659
0.000130861
0.000279826
8.60334e-05
0.000310553
2.87818e-05
0.000356958
-4.42121e-05
0.000428349
-0.000136725
0.000541205
-0.000250089
0.000720981
0.000967338
-0.000371373
0.000250872
-6.36742e-06
-0.000254359
0.000248714
2.01797e-06
0.000248017
1.04576e-05
0.000248035
1.88555e-05
0.000248953
2.66643e-05
0.000251206
3.42443e-05
0.000253386
4.22777e-05
0.000256323
4.9455e-05
0.000260158
5.68045e-05
0.000263505
6.42678e-05
0.000267859
7.09336e-05
0.000271784
7.84538e-05
0.000275806
8.52063e-05
0.00027982
9.21654e-05
0.000283714
9.86852e-05
0.000287058
0.000105774
0.000290058
0.000112465
0.000292632
0.000119073
0.000295006
0.000125631
0.000296414
0.000132451
0.000296779
0.000139229
0.000297058
0.000145635
0.000296126
0.000152409
0.000294225
0.000158905
0.000291225
0.000166224
0.000287675
0.000173029
0.000282017
0.000180755
0.000275173
0.000188361
0.000266581
0.000196329
0.000256422
0.000204751
0.000244447
0.000213764
0.000229902
0.000223852
0.000212942
0.000235461
0.00019265
0.000248908
0.000168466
0.000265509
0.000138809
0.000287316
0.000103124
0.00031551
5.88664e-05
0.00035481
3.65453e-06
0.00041217
-6.51658e-05
0.00049717
-0.000150955
0.000626995
-0.00025168
0.000821706
0.00107373
-0.000358077
0.000226261
-3.88049e-06
-0.000228748
0.000224268
4.01055e-06
0.00022353
1.11964e-05
0.000223859
1.85263e-05
0.000224919
2.56037e-05
0.000226539
3.2625e-05
0.000228863
3.9953e-05
0.000231525
4.67935e-05
0.000234328
5.40016e-05
0.000237849
6.07467e-05
0.000241031
6.7752e-05
0.000245036
7.44488e-05
0.00024845
8.17915e-05
0.000252148
8.84678e-05
0.000255064
9.57689e-05
0.000258082
0.000102757
0.000261119
0.000109428
0.000263068
0.000117124
0.00026484
0.00012386
0.00026598
0.00013131
0.000266772
0.000138437
0.000266479
0.000145928
0.000265716
0.000153172
0.000263708
0.000160913
0.00026138
0.000168552
0.000257197
0.000177213
0.000252345
0.000185607
0.000245986
0.00019472
0.000238261
0.000204054
0.000228189
0.000214824
0.000215922
0.00022603
0.000202208
0.000237566
0.000186044
0.000251625
0.000166586
0.000268366
0.00014338
0.000288715
0.000115471
0.000315225
8.09212e-05
0.000350061
3.88971e-05
0.000396834
-1.24989e-05
0.000463566
-7.67065e-05
0.000561377
-0.000154884
0.000705172
-0.000245925
0.000912748
0.00116825
-0.000340441
0.000203636
-1.41212e-06
-0.000206105
0.000202555
5.09141e-06
0.000201947
1.18051e-05
0.000202277
1.81959e-05
0.000203111
2.47701e-05
0.000204402
3.13338e-05
0.000206534
3.78206e-05
0.000208637
4.46908e-05
0.000211404
5.12348e-05
0.000214471
5.7679e-05
0.000217499
6.47241e-05
0.000220354
7.15936e-05
0.000223872
7.82743e-05
0.000226663
8.56761e-05
0.000229641
9.27913e-05
0.000232394
0.000100004
0.000234507
0.000107315
0.000236894
0.000114737
0.000238454
0.0001223
0.00023941
0.000130354
0.00023967
0.000138177
0.000239531
0.000146067
0.000238599
0.000154104
0.000236822
0.00016269
0.000234134
0.000171239
0.000230711
0.000180636
0.00022596
0.000190358
0.000220148
0.000200532
0.000212386
0.000211817
0.000203368
0.000223842
0.000191635
0.000237763
0.000177875
0.000251325
0.000163085
0.000266416
0.000144828
0.000286623
0.000122562
0.000310982
9.57449e-05
0.000342041
6.35427e-05