/*--------------------------------*- C++ -*----------------------------------*\
| =========                 |                                                 |
| \\      /  F ield         | OpenFOAM: The Open Source CFD Toolbox           |
|  \\    /   O peration     | Version:  2.3.0                                 |
|   \\  /    A nd           | Web:      www.OpenFOAM.org                      |
|    \\/     M anipulation  |                                                 |
\*---------------------------------------------------------------------------*/
FoamFile
{
    version     2.0;
    format      ascii;
    class       volVectorField;
    location    "10000";
    object      U;
}
// * * * * * * * * * * * * * * * * * * * * * * * * * * * * * * * * * * * * * //

dimensions      [0 1 -1 0 0 0 0];

internalField   nonuniform List<vector> 
123539
(
(15.7647 21.0189 0)
(15.4795 21.1767 0)
(15.1901 21.3085 0)
(14.8903 21.4261 0)
(14.5793 21.5258 9.49287e-21)
(14.256 21.6056 -3.34364e-20)
(13.9203 21.6635 2.40974e-20)
(13.5716 21.6973 0)
(13.2092 21.7045 0)
(12.8331 21.6832 0)
(12.4428 21.6309 5.14494e-20)
(12.0386 21.5459 -5.22648e-20)
(11.6198 21.4262 0)
(11.1869 21.2704 0)
(10.7396 21.0767 0)
(10.2784 20.8449 8.71356e-20)
(9.8037 20.5738 -8.94918e-20)
(9.3168 20.2648 -1.0471e-19)
(8.81687 19.9166 -6.34307e-21)
(8.30536 19.5312 1.18619e-19)
(7.78348 19.1105 1.36317e-19)
(7.25255 18.657 -2.90518e-19)
(6.71336 18.1737 -6.61943e-21)
(6.16781 17.6655 3.4616e-19)
(5.61591 17.1342 6.73094e-21)
(5.05979 16.5872 -2.03148e-19)
(4.50204 16.0334 0)
(3.94119 15.474 0)
(3.37877 14.9228 2.72768e-19)
(2.81309 14.3905 -2.92066e-19)
(2.24053 13.8906 3.24419e-19)
(1.65035 13.4319 -3.49404e-19)
(1.03109 13.0424 0)
(0.359727 12.7356 0)
(-0.393879 12.5364 0)
(-1.26574 12.4688 0)
(-2.2918 12.5426 0)
(-3.52227 12.7818 0)
(-5.02261 13.1577 -8.56798e-20)
(-6.8579 13.6403 8.57454e-20)
(-9.04112 14.3571 6.9199e-20)
(-11.514 15.6484 -6.58026e-20)
(-14.1383 16.8852 0)
(15.6 21.0517 1.87736e-21)
(15.3471 21.2169 1.31736e-21)
(15.0924 21.3712 -3.23692e-21)
(14.8315 21.5194 0)
(14.5635 21.6606 -2.9138e-21)
(14.2876 21.7942 4.66647e-21)
(14.0036 21.9195 -1.74436e-21)
(13.7111 22.0359 -1.2435e-21)
(13.4097 22.1428 1.25242e-21)
(13.099 22.2397 0)
(12.7789 22.326 0)
(12.449 22.4013 0)
(12.1088 22.4651 -1.30779e-20)
(11.7579 22.5172 1.32552e-20)
(11.396 22.5573 1.80314e-20)
(11.0229 22.5856 -1.8341e-20)
(10.6378 22.6021 -2.32371e-20)
(10.2404 22.6066 4.97048e-20)
(9.83011 22.6006 -5.52999e-20)
(9.40644 22.5847 2.94724e-20)
(8.96863 22.5598 -3.45e-20)
(8.51608 22.5276 3.55368e-20)
(8.04734 22.4897 0)
(7.56084 22.4492 0)
(7.05436 22.408 0)
(6.52628 22.3705 0)
(5.97299 22.3385 5.1196e-20)
(5.39117 22.3186 -2.36902e-22)
(4.77655 22.3134 -5.51608e-20)
(4.12376 22.3257 5.39491e-20)
(3.42778 22.3609 -5.6169e-20)
(2.68284 22.4195 -2.39238e-20)
(1.88325 22.5006 4.78349e-21)
(1.02333 22.6001 6.94596e-21)
(0.101677 22.7069 1.87541e-20)
(-0.88446 22.8026 -4.38443e-21)
(-1.94149 22.8739 0)
(-3.06311 22.8932 0)
(-4.22507 22.8147 0)
(-5.37843 22.5762 0)
(-6.43279 22.1324 -5.09163e-20)
(-7.2799 21.4529 5.03744e-20)
(-7.84506 20.49 0)
(15.4387 21.0062 0)
(15.1979 21.1624 -6.94191e-21)
(14.9593 21.3157 4.1596e-22)
(14.7161 21.4657 6.64695e-21)
(14.4668 21.6127 0)
(14.2106 21.7564 0)
(13.9469 21.8966 0)
(13.6757 22.0332 9.32153e-21)
(13.3965 22.166 -8.03422e-22)
(13.1088 22.2951 -8.60788e-21)
(12.8123 22.4201 0)
(12.5065 22.5413 0)
(12.1912 22.6586 0)
(11.8661 22.7721 0)
(11.5305 22.882 0)
(11.1839 22.9882 0)
(10.8256 23.0912 0)
(10.4554 23.1909 0)
(10.0722 23.2876 0)
(9.67517 23.3817 0)
(9.26337 23.4737 0)
(8.8359 23.5639 0)
(8.39165 23.6525 0)
(7.92896 23.7401 0)
(7.44628 23.8265 0)
(6.94262 23.9119 0)
(6.4153 23.9954 0)
(5.862 24.0764 0)
(5.27979 24.1527 0)
(4.66709 24.2222 0)
(4.02095 24.2805 0)
(3.33896 24.3227 0)
(2.61867 24.3413 0)
(1.85866 24.328 0)
(1.05922 24.2708 0)
(0.224011 24.1565 0)
(-0.637895 23.9665 0)
(-1.50608 23.6743 7.48538e-20)
(-2.35165 23.2596 -7.54913e-20)
(-3.13638 22.7054 0)
(-3.8177 22.0078 0)
(-4.35924 21.1809 0)
(-4.74858 20.2693 0)
(15.2779 20.9188 0)
(15.0607 21.065 0)
(14.8398 21.2082 -1.01855e-20)
(14.6145 21.3501 1.02446e-20)
(14.3839 21.4906 0)
(14.1474 21.6293 0)
(13.9044 21.7663 1.90789e-20)
(13.6548 21.9014 -1.91373e-20)
(13.398 22.0346 0)
(13.1336 22.1658 0)
(12.8611 22.295 -1.83468e-20)
(12.5801 22.4219 1.84649e-20)
(12.29 22.5466 0)
(11.9902 22.6691 1.86198e-20)
(11.68 22.7895 -1.88371e-20)
(11.3591 22.9077 0)
(11.0271 23.0236 0)
(10.6828 23.137 0)
(10.3256 23.2478 0)
(9.9545 23.3554 4.55581e-20)
(9.56822 23.4597 -4.66179e-20)
(9.16577 23.5601 0)
(8.74635 23.6561 0)
(8.30824 23.7472 -3.05344e-20)
(7.85029 23.8323 3.14365e-20)
(7.37168 23.9103 0)
(6.87064 23.9793 -4.15152e-20)
(6.34564 24.0374 8.95858e-20)
(5.79635 24.0814 -4.82583e-20)
(5.22158 24.1077 0)
(4.62085 24.1115 6.91089e-20)
(3.99409 24.0873 8.11375e-21)
(3.34384 24.0276 -8.22386e-20)
(2.67205 23.9247 0)
(1.98432 23.7688 -1.23391e-19)
(1.28681 23.5492 1.26675e-19)
(0.58986 23.2562 8.24212e-20)
(-0.0923306 22.8819 -8.35954e-20)
(-0.744515 22.4207 0)
(-1.34811 21.8745 0)
(-1.88484 21.2525 -6.52636e-20)
(-2.33893 20.5734 6.46704e-20)
(-2.69961 19.861 0)
(15.1402 20.8133 0)
(14.9371 20.946 0)
(14.7308 21.0765 0)
(14.5202 21.2064 0)
(14.3047 21.3355 0)
(14.0839 21.4634 0)
(13.8569 21.59 0)
(13.6233 21.7156 0)
(13.3831 21.84 -2.62456e-20)
(13.1357 21.963 2.63326e-20)
(12.8806 22.0846 0)
(12.6175 22.2044 0)
(12.3456 22.3222 0)
(12.0643 22.438 2.79747e-20)
(11.773 22.5517 -5.69637e-20)
(11.4713 22.6633 5.8661e-20)
(11.1586 22.7728 -3.0047e-20)
(10.8343 22.8797 3.20283e-20)
(10.4981 22.9835 9.52552e-22)
(10.149 23.0838 -6.96668e-20)
(9.78617 23.1797 7.37299e-20)
(9.40884 23.2703 -3.84312e-20)
(9.01599 23.3543 -4.30208e-20)
(8.60576 23.4307 4.41876e-20)
(8.1774 23.4985 0)
(7.73038 23.5558 5.52126e-20)
(7.26357 23.601 3.75389e-21)
(6.7772 23.6312 -6.25376e-20)
(6.27036 23.6437 7.42089e-20)
(5.74234 23.635 -1.59308e-19)
(5.19357 23.6009 8.53154e-20)
(4.62532 23.5362 0)
(4.03907 23.4362 1.16313e-19)
(3.43809 23.2945 -1.19713e-19)
(2.8265 23.1054 0)
(2.21133 22.8626 0)
(1.60129 22.5605 0)
(1.0073 22.1963 1.03257e-19)
(0.441623 21.7685 -1.04666e-19)
(-0.0839836 21.2804 6.27199e-20)
(-0.556892 20.7393 -9.68401e-20)
(-0.966436 20.1563 3.38236e-20)
(-1.30761 19.5455 0)
(15.0177 20.7017 0)
(14.829 20.8197 0)
(14.6365 20.9378 7.93767e-21)
(14.4394 21.0554 -7.96752e-21)
(14.2379 21.1727 1.59846e-20)
(14.032 21.289 4.22494e-23)
(13.8201 21.4039 5.8733e-23)
(13.6014 21.518 -1.61431e-20)
(13.3764 21.6315 3.27271e-20)
(13.1448 21.7439 -3.28109e-20)
(12.9059 21.8552 0)
(12.6592 21.965 0)
(12.4045 22.0732 3.48223e-20)
(12.1414 22.179 -3.51323e-20)
(11.8681 22.2818 3.67658e-20)
(11.5838 22.3824 -7.52904e-20)
(11.2886 22.4809 7.80273e-20)
(10.9824 22.5766 -4.01245e-20)
(10.6645 22.6691 0)
(10.3345 22.7578 -4.54285e-20)
(9.99179 22.8419 4.64151e-20)
(9.63591 22.9205 -5.10255e-20)
(9.26633 22.9917 5.22915e-20)
(8.88064 23.0537 0)
(8.47782 23.1056 0)
(8.05727 23.1463 0)
(7.61925 23.1736 0)
(7.16328 23.1852 8.09199e-20)
(6.68869 23.1788 -1.72128e-19)
(6.1965 23.1513 -6.0853e-21)
(5.68778 23.099 4.67308e-20)
(5.16293 23.0177 5.53679e-20)
(4.62405 22.9031 0)
(4.07417 22.7506 0)
(3.5176 22.5558 8.07887e-20)
(2.96024 22.3147 -8.27368e-20)
(2.40924 22.0236 -9.87272e-20)
(1.87335 21.6803 1.0051e-19)
(1.36055 21.2852 0)
(0.881313 20.8405 0)
(0.444614 20.3526 0)
(0.0594211 19.8291 0)
(-0.268371 19.2794 0)
(14.9106 20.5906 4.50237e-21)
(14.7351 20.6938 -4.49445e-21)
(14.5549 20.8007 0)
(14.3701 20.9065 0)
(14.1809 21.0127 0)
(13.9886 21.1183 0)
(13.7909 21.2221 1.86216e-20)
(13.5854 21.3252 -1.86266e-20)
(13.3732 21.4279 -1.90012e-20)
(13.1547 21.5299 -2.15511e-22)
(12.9299 21.6308 3.893e-20)
(12.6973 21.7307 -1.969e-20)
(12.4567 21.8299 -4.07656e-20)
(12.2098 21.9268 4.11358e-20)
(11.9534 22.0197 0)
(11.6849 22.1094 0)
(11.405 22.1974 4.63476e-20)
(11.1154 22.2819 -4.7073e-20)
(10.8132 22.3631 0)
(10.4992 22.441 5.30886e-20)
(10.1734 22.5142 1.76706e-21)
(9.83373 22.583 2.00169e-21)
(9.48433 22.6454 2.33826e-21)
(9.12189 22.697 -6.45974e-20)
(8.74276 22.7375 -7.21591e-20)
(8.3458 22.7665 7.41503e-20)
(7.93231 22.7821 -4.19767e-20)
(7.50194 22.7815 -2.30364e-21)
(7.05489 22.7626 4.68196e-20)
(6.59162 22.7239 -5.38994e-20)
(6.11343 22.6623 -3.42681e-21)
(5.62216 22.5733 1.25176e-19)
(5.11835 22.4539 -6.63519e-20)
(4.60653 22.2991 0)
(4.08731 22.1064 0)
(3.56936 21.8734 -9.33353e-20)
(3.0582 21.5962 9.53374e-20)
(2.56068 21.2734 5.56489e-20)
(2.08478 20.9039 3.93492e-21)
(1.63576 20.4907 -6.104e-20)
(1.22222 20.0394 0)
(0.854213 19.5565 -1.85738e-20)
(0.535594 19.0487 1.85229e-20)
(14.8174 20.4831 0)
(14.6534 20.5728 0)
(14.4845 20.6694 1.00665e-20)
(14.3116 20.7649 3.73088e-23)
(14.1325 20.8608 5.64847e-23)
(13.9524 20.9574 -1.01737e-20)
(13.7693 21.0514 0)
(13.5763 21.144 0)
(13.3757 21.237 0)
(13.1679 21.3295 -2.14786e-20)
(12.9545 21.4213 4.34449e-20)
(12.7352 21.5114 -2.19997e-20)
(12.5042 21.6023 2.27993e-20)
(12.2697 21.6933 -2.2988e-20)
(12.0298 21.7785 0)
(11.7773 21.8585 0)
(11.5084 21.9376 0)
(11.234 22.0139 0)
(10.9461 22.0844 -2.82312e-20)
(10.6444 22.1528 5.84008e-20)
(10.3363 22.2147 -3.02518e-20)
(10.0061 22.2738 0)
(9.66979 22.3314 3.48321e-20)
(9.32612 22.3775 -7.27819e-20)
(8.9694 22.4096 3.80456e-20)
(8.59203 22.4303 -4.24373e-20)
(8.19941 22.4391 4.35968e-20)
(7.79016 22.4318 0)
(7.36532 22.4048 -5.32164e-20)
(6.92459 22.3575 5.46861e-20)
(6.469 22.2907 6.25656e-20)
(6.00635 22.1975 3.70548e-21)
(5.52756 22.0777 -1.43903e-19)
(5.04939 21.9236 -4.71311e-21)
(4.55773 21.7339 8.26785e-20)
(4.06661 21.5098 -4.7786e-20)
(3.58209 21.2463 1.00566e-19)
(3.11425 20.9414 3.3842e-21)
(2.66992 20.5923 -5.69348e-20)
(2.24659 20.2015 0)
(1.84811 19.776 0)
(1.49223 19.3232 -1.83307e-20)
(1.18107 18.8469 1.82924e-20)
(14.7278 20.3787 0)
(14.5746 20.4593 5.601e-21)
(14.4184 20.546 -5.57471e-21)
(14.2638 20.6335 0)
(14.098 20.7195 0)
(13.9253 20.8088 -1.0679e-20)
(13.7538 20.8949 1.07423e-20)
(13.5703 20.9775 0)
(13.3862 21.0616 2.29492e-20)
(13.1958 21.1452 -2.29327e-20)
(12.9923 21.2293 2.30571e-20)
(12.7868 21.3114 -2.33151e-20)
(12.5633 21.3923 0)
(12.3431 21.4793 0)
(12.1189 21.5616 0)
(11.8892 21.6326 -2.6185e-20)
(11.6311 21.702 2.67637e-20)
(11.3707 21.7763 -2.76373e-20)
(11.1008 21.8377 -7.96647e-22)
(10.7967 21.8999 2.99823e-20)
(10.5105 21.953 0)
(10.1895 21.9949 0)
(9.86613 22.048 -3.66155e-20)
(9.53693 22.0948 3.65691e-20)
(9.1996 22.1232 0)
(8.83405 22.1354 0)
(8.46451 22.1381 0)
(8.0846 22.1278 5.05055e-20)
(7.67834 22.1008 -1.03921e-19)
(7.25606 22.0446 5.5842e-20)
(6.79974 21.9782 0)
(6.36783 21.8776 7.03486e-20)
(5.89191 21.7637 -3.38371e-20)
(5.43986 21.6115 -7.96699e-20)
(4.96561 21.4207 4.3224e-20)
(4.50425 21.2002 0)
(4.04724 20.9495 5.26019e-20)
(3.58843 20.669 -5.16533e-20)
(3.14938 20.3372 0)
(2.73501 19.965 0)
(2.34945 19.5507 1.73959e-20)
(2.00707 19.1198 -8.15679e-21)
(1.68909 18.6725 -8.77585e-21)
(-16.1104 15.9329 4.5883e-20)
(-14.8351 14.9062 1.108e-19)
(-13.611 13.8501 -1.4343e-19)
(-12.4751 13.0854 0)
(-11.4239 12.4784 0)
(-10.4557 11.9887 0)
(-9.56509 11.582 -4.49043e-19)
(-8.74577 11.2413 8.62876e-19)
(-7.99024 10.9524 -4.15019e-19)
(-7.29605 10.6998 -8.41789e-19)
(-6.6514 10.4807 7.93728e-19)
(-6.05521 10.2843 0)
(-5.50024 10.108 0)
(-4.98157 9.94732 7.38488e-19)
(-4.49595 9.79972 -7.0447e-19)
(-4.03961 9.6626 -6.91933e-19)
(-3.60869 9.53443 6.64328e-19)
(-3.2004 9.41389 0)
(-2.81271 9.29965 0)
(-2.44323 9.19085 -6.18488e-19)
(-2.08995 9.08676 6.00594e-19)
(-1.75136 8.98662 0)
(-1.42586 8.88997 0)
(-1.11217 8.79627 -5.70688e-19)
(-0.809228 8.7051 1.12285e-18)
(-0.515986 8.61612 -5.53803e-19)
(-0.231579 8.52901 -5.49651e-19)
(0.0446846 8.44349 5.43284e-19)
(0.313382 8.35933 0)
(0.575067 8.27634 0)
(0.830303 8.19438 0)
(1.07961 8.11328 5.31641e-19)
(1.3234 8.03285 5.89154e-22)
(1.56211 7.95297 -5.28416e-19)
(1.79604 7.87349 0)
(2.02544 7.7943 0)
(2.25064 7.71526 0)
(2.47179 7.63623 0)
(2.68913 7.55712 0)
(2.90271 7.47788 0)
(3.11261 7.39852 0)
(3.31912 7.31855 -6.18695e-20)
(3.52354 7.2306 5.9374e-20)
(-8.03618 19.2497 4.43413e-20)
(-7.99206 18.0199 5.36306e-20)
(-7.77753 16.9407 -9.44408e-20)
(-7.4618 15.9939 0)
(-7.08209 15.167 0)
(-6.67047 14.4454 0)
(-6.24041 13.817 4.38888e-19)
(-5.80552 13.2689 -4.18673e-19)
(-5.37603 12.7881 -4.23384e-19)
(-4.95315 12.3673 4.03448e-19)
(-4.54388 11.9942 -4.00535e-19)
(-4.14708 11.6638 3.82225e-19)
(-3.76483 11.3681 7.51807e-19)
(-3.39643 11.102 -7.19545e-19)
(-3.04216 10.861 0)
(-2.70116 10.6412 -6.82124e-19)
(-2.37287 10.4395 -4.66576e-21)
(-2.05644 10.2531 1.2805e-18)
(-1.75117 10.0799 -6.21275e-19)
(-1.45628 9.91807 6.08532e-19)
(-1.17108 9.76596 -1.18586e-18)
(-0.894826 9.62234 5.79256e-19)
(-0.626957 9.48608 -5.69894e-19)
(-0.366831 9.35628 1.1187e-18)
(-0.113936 9.23214 -1.10144e-18)
(0.132206 9.11296 5.4266e-19)
(0.372007 8.9982 5.37125e-19)
(0.605924 8.88738 7.08909e-22)
(0.834404 8.78007 5.78301e-22)
(1.05784 8.67589 -1.04629e-18)
(1.27659 8.57453 -3.64673e-22)
(1.49097 8.47561 5.18724e-19)
(1.70129 8.37892 0)
(1.90779 8.28415 -5.17192e-19)
(2.11073 8.19111 -5.93285e-23)
(2.31028 8.09957 2.58138e-19)
(2.50665 8.00931 2.57748e-19)
(2.69997 7.92016 -2.56974e-19)
(2.89037 7.83195 7.56161e-23)
(3.07796 7.74455 1.26922e-19)
(3.26276 7.65781 1.25376e-19)
(3.44449 7.57152 0)
(3.62256 7.48522 0)
(-5.00025 19.34 0)
(-5.13588 18.4325 0)
(-5.15955 17.5704 0)
(-5.0894 16.7661 0)
(-4.94427 16.0261 -1.92299e-19)
(-4.74431 15.3518 1.85651e-19)
(-4.50531 14.7413 0)
(-4.23724 14.19 0)
(-3.95069 13.6927 0)
(-3.65505 13.2439 0)
(-3.353 12.8388 0)
(-3.05049 12.4718 0)
(-2.75061 12.138 0)
(-2.45443 11.8335 0)
(-2.16367 11.5546 0)
(-1.87936 11.2978 0)
(-1.60189 11.0605 0)
(-1.33153 10.8402 0)
(-1.06841 10.6349 0)
(-0.812389 10.4428 0)
(-0.563341 10.2625 0)
(-0.320909 10.0925 0)
(-0.0848295 9.93172 0)
(0.145202 9.77924 0)
(0.369526 9.6341 0)
(0.588405 9.49554 0)
(0.802147 9.36293 0)
(1.01101 9.23563 0)
(1.21536 9.11316 0)
(1.41547 8.99507 0)
(1.61162 8.88091 0)
(1.80406 8.77029 0)
(1.99298 8.66288 0)
(2.17862 8.55838 0)
(2.36117 8.45651 0)
(2.54083 8.35697 0)
(2.7177 8.25949 0)
(2.89189 8.16389 -2.49334e-19)
(3.06354 8.06997 2.48476e-19)
(3.23277 7.97751 -1.2354e-19)
(3.39967 7.88615 1.22364e-19)
(3.56408 7.79545 0)
(3.72579 7.70895 0)
(-2.96802 19.1356 4.05246e-20)
(-3.1478 18.4079 -3.98781e-20)
(-3.24379 17.6911 8.90196e-20)
(-3.26416 17.0004 -8.68688e-20)
(-3.22133 16.345 0)
(-3.12488 15.7305 -1.88333e-19)
(-2.98754 15.1602 3.7024e-19)
(-2.81883 14.6335 1.92875e-19)
(-2.62596 14.1482 -3.60256e-19)
(-2.4164 13.7031 -3.63847e-19)
(-2.19583 13.2949 -7.10156e-21)
(-1.96782 12.9198 3.42508e-19)
(-1.73584 12.5751 -3.40091e-19)
(-1.5026 12.2574 3.27001e-19)
(-1.26997 11.964 0)
(-1.03927 11.6921 0)
(-0.811631 11.4396 0)
(-0.587714 11.2043 0)
(-0.367931 10.9845 0)
(-0.152585 10.7785 0)
(0.0583653 10.5851 0)
(0.264912 10.4028 5.44597e-19)
(0.467185 10.2306 2.39352e-21)
(0.665245 10.0674 -1.04609e-18)
(0.859194 9.91232 -1.8332e-21)
(1.04913 9.7645 5.0681e-19)
(1.23519 9.62329 0)
(1.4176 9.48813 0)
(1.59659 9.35847 0)
(1.7724 9.23379 2.45076e-19)
(1.94516 9.11358 -2.43568e-19)
(2.11503 8.99743 0)
(2.28212 8.88502 0)
(2.44662 8.77603 0)
(2.60873 8.67014 -2.42932e-19)
(2.76854 8.56698 2.42865e-19)
(2.92606 8.46631 0)
(3.08136 8.36798 2.43065e-19)
(3.23457 8.27182 -2.42428e-19)
(3.38585 8.17762 0)
(3.53526 8.085 -5.98995e-20)
(3.68265 7.99387 5.91708e-20)
(3.82763 7.91237 0)
(-1.57702 18.9182 0)
(-1.77737 18.283 0)
(-1.91008 17.6511 0)
(-1.97919 17.0337 0)
(-1.99248 16.4393 0)
(-1.95774 15.8739 0)
(-1.88263 15.3413 1.84324e-19)
(-1.7754 14.8427 -3.60943e-19)
(-1.64271 14.3781 1.7645e-19)
(-1.48946 13.9469 -3.56031e-19)
(-1.32208 13.5473 3.42451e-19)
(-1.14354 13.1772 0)
(-0.957746 12.8339 0)
(-0.767255 12.5154 0)
(-0.574315 12.2192 0)
(-0.380656 11.9433 0)
(-0.187645 11.6858 0)
(0.00376771 11.4451 2.93482e-19)
(0.192887 11.2196 -2.84119e-19)
(0.379409 11.0081 0)
(0.563138 10.8092 2.72882e-19)
(0.7441 10.6218 -5.32575e-19)
(0.922229 10.4446 2.60449e-19)
(1.09738 10.2765 0)
(1.26933 10.1166 -2.52763e-19)
(1.43801 9.96439 2.48264e-19)
(1.60352 9.81912 0)
(1.76611 9.68029 -2.4347e-19)
(1.92599 9.54733 2.4078e-19)
(2.08331 9.4196 2.39774e-19)
(2.23808 9.2966 4.75878e-22)
(2.39027 9.17795 -2.37405e-19)
(2.54002 9.0634 -2.37395e-19)
(2.68754 8.95265 -3.33038e-22)
(2.83308 8.84525 -2.96911e-22)
(2.97657 8.74078 4.74661e-19)
(3.11788 8.6391 -2.37396e-19)
(3.25712 8.5401 -1.1881e-19)
(3.39442 8.44365 1.18571e-19)
(3.52998 8.34946 1.18265e-19)
(3.66385 8.25709 -1.17449e-19)
(3.79576 8.16632 0)
(3.92405 8.08689 0)
(-0.536977 18.7129 2.0586e-20)
(-0.746358 18.1362 -2.02605e-20)
(-0.89794 17.5597 0)
(-0.994022 16.993 0)
(-1.03933 16.4426 0)
(-1.04058 15.9141 0)
(-1.00494 15.412 0)
(-0.936999 14.9381 -1.80725e-19)
(-0.843251 14.4932 -4.21976e-21)
(-0.728755 14.0772 1.72079e-19)
(-0.597529 13.6889 -1.7251e-19)
(-0.453938 13.3269 3.34873e-19)
(-0.30104 12.9891 -1.62568e-19)
(-0.141862 12.6739 0)
(0.0215286 12.3793 3.1363e-19)
(0.18694 12.1037 3.16707e-21)
(0.352755 11.8456 2.75303e-21)
(0.518182 11.6038 -2.87487e-19)
(0.682357 11.3769 0)
(0.845167 11.164 0)
(1.00655 10.9639 2.69365e-19)
(1.16661 10.7753 -2.62132e-19)
(1.325 10.5967 0)
(1.48106 10.427 0)
(1.63439 10.2655 0)
(1.78486 10.1118 2.45558e-19)
(1.93275 9.96544 7.57057e-22)
(2.07839 9.82576 -2.38995e-19)
(2.22208 9.69209 2.37469e-19)
(2.36376 9.56367 -4.70912e-19)
(2.50306 9.44 -4.87886e-22)
(2.63987 9.32093 2.33078e-19)
(2.77452 9.20628 0)
(2.9074 9.09571 0)
(3.0388 8.98855 -2.32692e-19)
(3.16814 8.88429 1.16118e-19)
(3.29519 8.7831 1.16365e-19)
(3.42028 8.68491 0)
(3.54362 8.58952 -1.1643e-19)
(3.66554 8.49663 1.16041e-19)
(3.78623 8.40583 0)
(3.9063 8.31661 0)
(4.0261 8.23214 0)
(0.269908 18.5235 2.0469e-20)
(0.0558679 17.9873 2.21841e-20)
(-0.107349 17.4498 1.87803e-21)
(-0.219792 16.9198 -4.25378e-20)
(-0.286194 16.4023 -8.95074e-20)
(-0.311344 15.9022 8.69994e-20)
(-0.302233 15.4246 1.79259e-19)
(-0.262335 14.9718 -3.51303e-19)
(-0.196106 14.5444 1.71773e-19)
(-0.108766 14.1425 1.72947e-19)
(-0.00382468 13.7656 -3.3631e-19)
(0.114716 13.4123 1.63427e-19)
(0.243584 13.0811 1.62312e-19)
(0.379612 12.7707 -1.56292e-19)
(0.520968 12.4795 0)
(0.664499 12.2061 1.50356e-19)
(0.808675 11.9497 -4.38202e-19)
(0.953508 11.709 -2.32419e-21)
(1.09769 11.4831 -2.01022e-21)
(1.24182 11.2714 -1.76504e-21)
(1.38575 11.0726 5.29887e-19)
(1.52982 10.8852 -2.58618e-19)
(1.67302 10.7071 -2.54844e-19)
(1.81383 10.5372 2.49036e-19)
(1.95187 10.3758 0)
(2.08731 10.2224 -2.42166e-19)
(2.22084 10.0766 4.77052e-19)
(2.35294 9.93777 6.758e-22)
(2.48392 9.80483 -4.67086e-19)
(2.61298 9.67675 2.31447e-19)
(2.73922 9.55347 0)
(2.86286 9.43522 0)
(2.98491 9.32177 1.14441e-19)
(3.10574 9.2126 -1.14077e-19)
(3.2257 9.10658 0)
(3.34281 9.00317 1.14254e-19)
(3.45727 8.90354 -2.28505e-19)
(3.57005 8.80716 -1.19587e-22)
(3.6812 8.71388 1.14212e-19)
(3.79116 8.62336 0)
(3.8998 8.53575 0)
(4.00818 8.45181 0)
(4.11677 8.37042 0)
(0.920096 18.3522 2.00857e-20)
(0.705149 17.8458 -1.98485e-20)
(0.530989 17.3368 0)
(0.405954 16.835 0)
(0.32508 16.3426 -8.75579e-20)
(0.282915 15.8631 8.51838e-20)
(0.269163 15.4067 8.75847e-20)
(0.290525 14.9714 -8.48378e-20)
(0.336985 14.5592 0)
(0.404738 14.1702 -1.69057e-19)
(0.49087 13.8035 -2.89518e-21)
(0.591106 13.4585 1.59967e-19)
(0.702184 13.1337 0)
(0.820113 12.8283 1.55181e-19)
(0.944253 12.5405 1.76636e-21)
(1.06882 12.2702 -2.94066e-19)
(1.19474 12.0166 2.8698e-19)
(1.32431 11.7786 -2.80063e-19)
(1.45205 11.555 1.36236e-19)
(1.58114 11.3456 0)
(1.71058 11.1496 -1.31056e-19)
(1.84244 10.9649 1.276e-19)
(1.97377 10.7873 -1.25793e-19)
(2.10183 10.618 -5.15959e-22)
(2.22719 10.4579 1.20917e-19)
(2.35041 10.3061 0)
(2.47277 10.162 0)
(2.59442 10.025 1.16462e-19)
(2.71552 9.89324 3.37138e-22)
(2.83368 9.76543 -2.28453e-19)
(2.94856 9.64347 1.13377e-19)
(3.06128 9.52717 0)
(3.17335 9.41581 1.12643e-19)
(3.28459 9.30872 2.1331e-22)
(3.39535 9.20398 -1.12206e-19)
(3.50052 9.10121 1.12432e-19)
(3.60384 9.00459 1.23163e-22)
(3.70652 8.91044 -1.12421e-19)
(3.8075 8.81979 -5.62577e-20)
(3.90735 8.73149 1.12326e-19)
(4.0044 8.64601 -5.59502e-20)
(4.10093 8.56515 0)
(4.19867 8.48755 0)
(1.4246 18.199 -9.68028e-21)
(1.21095 17.7174 -1.07277e-20)
(1.03575 17.2239 2.03959e-20)
(0.912468 16.7446 0)
(0.828652 16.273 8.53867e-20)
(0.778812 15.8043 -1.70409e-19)
(0.74099 15.3769 8.27524e-20)
(0.755669 14.9528 0)
(0.78401 14.5558 0)
(0.837214 14.1763 0)
(0.910443 13.8171 0)
(0.996793 13.4801 1.62707e-19)
(1.09466 13.1607 -1.56225e-19)
(1.19729 12.8584 -1.55689e-19)
(1.30867 12.5723 3.04019e-19)
(1.4164 12.3092 -1.44588e-19)
(1.53208 12.0598 0)
(1.65122 11.8275 0)
(1.76196 11.6039 0)
(1.87905 11.3954 0)
(1.99661 11.2034 -1.32972e-19)
(2.12287 11.0238 2.50196e-19)
(2.24661 10.8459 -1.20721e-19)
(2.36377 10.6787 0)
(2.47845 10.5222 0)
(2.591 10.3718 0)
(2.70297 10.2298 0)
(2.81493 10.0942 0)
(2.92735 9.96241 0)
(3.03591 9.83464 1.14218e-19)
(3.14114 9.71773 -1.14522e-19)
(3.24367 9.60348 0)
(3.34596 9.49374 0)
(3.44733 9.38791 1.13893e-19)
(3.55045 9.28359 -1.10848e-19)
(3.64346 9.1806 1.13708e-19)
(3.73895 9.09214 -1.13328e-19)
(3.83366 8.9985 0)
(3.92516 8.91183 -5.5755e-20)
(4.01456 8.82408 1.11688e-19)
(4.09972 8.73799 -5.6183e-20)
(4.18516 8.65631 0)
(4.27553 8.56204 0)
(-2.12284 -2.94162 0)
(-1.92825 -2.97952 0)
(-1.73503 -3.01512 0)
(-1.54344 -3.04887 6.49639e-20)
(-1.35367 -3.081 0)
(-1.16582 -3.11148 -6.81831e-20)
(-0.980035 -3.1403 6.93344e-20)
(-0.79639 -3.16745 -7.02528e-20)
(-0.614998 -3.19289 -7.00091e-20)
(-0.435945 -3.21657 0)
(-0.259384 -3.23846 0)
(-0.0853596 -3.25855 5.84835e-22)
(0.0861268 -3.27686 4.14708e-20)
(0.254932 -3.29335 -4.88344e-21)
(0.421024 -3.30802 0)
(0.584396 -3.32091 4.09188e-20)
(0.74499 -3.33202 -2.11185e-20)
(0.90282 -3.34139 8.62632e-20)
(1.05783 -3.34907 -2.27021e-20)
(1.21005 -3.35511 0)
(1.35948 -3.35944 -2.4606e-20)
(1.50617 -3.36225 -2.5822e-20)
(1.65006 -3.36353 2.72057e-20)
(1.79121 -3.36335 2.87896e-20)
(1.92958 -3.3618 0)
(2.06517 -3.359 6.44504e-20)
(2.19806 -3.35496 3.50469e-20)
(2.32818 -3.34983 7.53929e-20)
(2.45554 -3.34368 -8.18513e-20)
(2.58013 -3.33666 -1.10637e-19)
(2.70187 -3.32888 2.44146e-19)
(2.82074 -3.32034 -1.88351e-19)
(2.93667 -3.31108 1.19942e-19)
(3.04961 -3.30102 3.30785e-20)
(3.15956 -3.28987 3.82654e-20)
(3.26684 -3.27696 7.81933e-22)
(3.37265 -3.26088 -5.05471e-20)
(3.48101 -3.23897 -4.41817e-19)
(3.60494 -3.20735 5.62193e-19)
(3.78771 -3.16267 4.2393e-20)
(4.18554 -3.11935 -1.03059e-19)
(5.37241 -3.2559 -2.09145e-18)
(10.0197 -4.4228 2.33062e-18)
(-2.0677 -2.96585 0)
(-1.88862 -2.99956 0)
(-1.71087 -3.03255 6.34734e-20)
(-1.53447 -3.0645 -6.51956e-20)
(-1.35942 -3.09544 -6.58478e-20)
(-1.18574 -3.12535 -6.70366e-20)
(-1.0134 -3.15416 -6.78427e-20)
(-0.842515 -3.18184 3.42294e-20)
(-0.673066 -3.20839 3.44978e-20)
(-0.505124 -3.23378 0)
(-0.338707 -3.25798 0)
(-0.173819 -3.28093 3.61928e-20)
(-0.0105742 -3.30263 0)
(0.151038 -3.3231 0)
(0.311026 -3.34229 -3.84456e-20)
(0.469314 -3.36021 -3.91466e-20)
(0.625991 -3.37684 0)
(0.780968 -3.3922 -4.18926e-20)
(0.934289 -3.4063 4.34177e-20)
(1.08604 -3.41911 0)
(1.23622 -3.43059 -2.35151e-20)
(1.38485 -3.44074 7.35691e-20)
(1.53197 -3.44957 -5.16337e-20)
(1.67763 -3.45697 3.19376e-22)
(1.82185 -3.46299 -3.26855e-20)
(1.96472 -3.46755 -3.05907e-20)
(2.10627 -3.47058 -2.86153e-20)
(2.24664 -3.47203 -5.31703e-20)
(2.38595 -3.47178 -1.95986e-20)
(2.52441 -3.46974 0)
(2.66242 -3.4656 -1.35107e-19)
(2.80052 -3.45897 -2.44772e-20)
(2.93962 -3.44935 1.09315e-19)
(3.08143 -3.43578 1.21131e-19)
(3.22913 -3.41713 -1.69114e-19)
(3.389 -3.39168 -3.41389e-19)
(3.57413 -3.35759 3.4401e-19)
(3.81235 -3.3132 0)
(4.16498 -3.26144 4.42889e-19)
(4.77381 -3.22588 5.39077e-20)
(5.98373 -3.31184 -5.43184e-19)
(8.66255 -3.89228 -5.7682e-19)
(15.0361 -5.93311 1.77434e-18)
(-2.0112 -2.97895 2.35586e-22)
(-1.84395 -3.01147 1.22551e-19)
(-1.67775 -3.04381 6.25363e-20)
(-1.51236 -3.07533 -6.42029e-20)
(-1.34782 -3.10613 -3.22881e-20)
(-1.1841 -3.1362 6.48014e-20)
(-1.02116 -3.1655 3.26743e-20)
(-0.859077 -3.19397 -1.66929e-20)
(-0.697814 -3.22159 3.37709e-20)
(-0.53741 -3.24831 -1.70957e-20)
(-0.377858 -3.27411 3.90828e-20)
(-0.219176 -3.29891 -3.86743e-20)
(-0.061348 -3.3227 -5.5845e-22)
(0.0955679 -3.34543 9.09244e-21)
(0.251593 -3.36709 5.56823e-20)
(0.406761 -3.38764 9.54683e-21)
(0.561031 -3.40705 0)
(0.714457 -3.42534 -5.97148e-22)
(0.86711 -3.44248 -6.26949e-20)
(1.01904 -3.45846 -2.17876e-20)
(1.17038 -3.47325 1.09812e-20)
(1.32121 -3.48675 -7.10815e-20)
(1.47172 -3.49891 6.22227e-20)
(1.62202 -3.5096 4.06157e-22)
(1.77227 -3.51867 2.4045e-20)
(1.92269 -3.52599 -2.59888e-20)
(2.07356 -3.53137 0)
(2.22522 -3.5346 3.33929e-20)
(2.37833 -3.53541 3.59175e-20)
(2.53371 -3.5334 0)
(2.69274 -3.52799 4.23598e-20)
(2.85738 -3.51846 -1.38402e-19)
(3.03093 -3.50371 1.51651e-19)
(3.21854 -3.48233 5.54883e-20)
(3.42919 -3.45273 0)
(3.67849 -3.41323 -6.72731e-20)
(3.99423 -3.36336 -2.58933e-19)
(4.4283 -3.30658 4.15177e-21)
(5.08256 -3.25805 3.7395e-19)
(6.1599 -3.26972 -5.33487e-20)
(8.06882 -3.49718 0)
(11.6727 -4.35425 -6.16762e-20)
(18.0834 -6.57986 0)
(-1.95587 -2.98397 5.85187e-20)
(-1.80016 -3.01382 -6.01871e-20)
(-1.64496 -3.04445 -3.07918e-20)
(-1.49004 -3.07439 9.35848e-20)
(-1.33561 -3.10379 8.5881e-23)
(-1.18143 -3.13271 9.59942e-20)
(-1.02753 -3.16106 1.61729e-20)
(-0.873865 -3.18878 1.64448e-20)
(-0.720439 -3.21586 0)
(-0.567255 -3.24225 3.34813e-20)
(-0.414215 -3.26796 4.48693e-21)
(-0.261301 -3.29291 -3.86944e-20)
(-0.108479 -3.31702 2.17776e-21)
(0.0442286 -3.34026 -3.78949e-20)
(0.196932 -3.36258 -8.75988e-21)
(0.349582 -3.38392 3.73914e-20)
(0.502246 -3.40424 -3.84221e-20)
(0.654957 -3.4235 4.91251e-20)
(0.807811 -3.44168 4.06074e-20)
(0.960873 -3.45874 -3.19626e-20)
(1.11443 -3.47467 3.30666e-20)
(1.2687 -3.48937 3.44244e-20)
(1.42395 -3.5027 -3.61137e-20)
(1.58053 -3.51442 2.46635e-22)
(1.73878 -3.52428 -3.35378e-21)
(1.89915 -3.53197 3.28696e-21)
(2.06212 -3.53713 0)
(2.2285 -3.5394 3.24123e-20)
(2.3994 -3.53834 0)
(2.57656 -3.53341 0)
(2.76246 -3.5239 -8.01232e-20)
(2.96109 -3.50892 1.51864e-22)
(3.17844 -3.48726 9.38224e-20)
(3.42366 -3.45734 -2.54364e-19)
(3.71093 -3.41788 5.60486e-20)
(4.06355 -3.36854 1.33041e-21)
(4.52155 -3.31162 1.32594e-19)
(5.15502 -3.25691 -7.14007e-20)
(6.089 -3.23234 8.36417e-20)
(7.54787 -3.31186 8.80655e-20)
(9.93581 -3.67434 0)
(13.9659 -4.71581 8.93956e-20)
(20.0457 -6.93465 0)
(-1.90175 -2.98059 -1.16071e-19)
(-1.75637 -3.00895 0)
(-1.61098 -3.03809 -6.07141e-20)
(-1.4654 -3.06627 6.14664e-20)
(-1.31988 -3.09397 -6.2156e-20)
(-1.17415 -3.12139 -3.1405e-20)
(-1.028 -3.14841 -1.58598e-20)
(-0.881605 -3.17491 9.9697e-23)
(-0.734819 -3.20093 1.62513e-20)
(-0.587663 -3.2264 -3.25799e-20)
(-0.440095 -3.25136 -6.20254e-20)
(-0.291853 -3.27574 6.26423e-20)
(-0.143007 -3.29938 -1.86587e-21)
(0.00654977 -3.32225 1.93526e-21)
(0.156804 -3.34429 -3.54122e-20)
(0.307895 -3.36541 -3.62763e-20)
(0.459848 -3.38552 3.72879e-20)
(0.612759 -3.40453 0)
(0.76665 -3.42238 0)
(0.92171 -3.43904 4.12241e-20)
(1.07815 -3.45449 2.17675e-20)
(1.23638 -3.46871 0)
(1.39697 -3.48155 -2.36193e-20)
(1.56048 -3.49272 1.76377e-22)
(1.72754 -3.50182 1.62596e-21)
(1.89892 -3.50838 2.39862e-20)
(2.07547 -3.51182 1.82774e-21)
(2.25824 -3.51155 -3.09469e-20)
(2.44898 -3.507 0)
(2.65006 -3.4975 -3.53391e-20)
(2.86502 -3.48248 7.58917e-20)
(3.09955 -3.46141 0)
(3.36235 -3.43352 0)
(3.66592 -3.39733 0)
(4.0288 -3.35211 -1.52044e-19)
(4.48067 -3.29922 2.20648e-19)
(5.06997 -3.24428 -1.77766e-19)
(5.8773 -3.20299 6.63361e-20)
(7.03706 -3.21345 7.2582e-20)
(8.77354 -3.36241 -2.81953e-21)
(11.4622 -3.8371 -2.23687e-19)
(15.6437 -4.99225 5.303e-19)
(21.3507 -7.15505 -2.93896e-19)
(-1.85164 -2.97367 -2.91973e-20)
(-1.71383 -2.99951 6.25979e-23)
(-1.57672 -3.02695 2.976e-20)
(-1.43926 -3.05317 7.19494e-23)
(-1.30174 -3.07887 4.59478e-20)
(-1.16349 -3.10456 4.62107e-20)
(-1.02423 -3.12997 3.11802e-20)
(-0.884235 -3.15493 3.14816e-20)
(-0.743101 -3.1796 -5.54676e-20)
(-0.601343 -3.20364 -8.0149e-21)
(-0.458481 -3.22746 3.23699e-20)
(-0.314287 -3.25086 -3.2558e-20)
(-0.168661 -3.27359 3.3292e-20)
(-0.0216586 -3.29557 6.39415e-20)
(0.126804 -3.31677 -3.05883e-20)
(0.276911 -3.33714 -2.6875e-20)
(0.428815 -3.35653 -4.59744e-20)
(0.582601 -3.37477 -9.45104e-21)
(0.738369 -3.39171 -1.96481e-20)
(0.896111 -3.40722 -1.01268e-20)
(1.05603 -3.42131 -4.19721e-20)
(1.21869 -3.43409 -5.48036e-21)
(1.38478 -3.44551 2.86099e-20)
(1.55532 -3.4553 -4.81267e-20)
(1.73139 -3.46307 -2.37825e-20)
(1.91422 -3.46819 -2.67438e-20)
(2.10488 -3.46971 2.65053e-20)
(2.30486 -3.46689 0)
(2.51626 -3.45895 -3.18485e-20)
(2.74205 -3.44484 1.70041e-20)
(2.98609 -3.42391 -1.7873e-20)
(3.25431 -3.39678 3.85659e-20)
(3.55926 -3.36451 0)
(3.91685 -3.32536 0)
(4.3491 -3.27867 0)
(4.88978 -3.22756 -1.01799e-19)
(5.59255 -3.18066 5.53841e-20)
(6.54294 -3.15863 -5.77802e-20)
(7.87821 -3.20702 -5.74265e-20)
(9.81502 -3.41938 1.35115e-19)
(12.6881 -3.98136 -2.75686e-19)
(16.8993 -5.20515 3.26286e-19)
(22.2613 -7.29807 4.15286e-20)
(-1.80198 -2.96381 0)
(-1.67238 -2.9878 0)
(-1.54249 -3.01308 2.93968e-20)
(-1.41217 -3.03711 -1.48456e-20)
(-1.28194 -3.06049 -4.50237e-20)
(-1.15069 -3.08417 0)
(-1.01732 -3.10788 -3.04836e-20)
(-0.883254 -3.13097 -3.07419e-20)
(-0.746929 -3.15431 -9.7751e-23)
(-0.609768 -3.17666 3.53967e-20)
(-0.471328 -3.19905 -3.98096e-21)
(-0.330656 -3.22136 3.23107e-20)
(-0.187801 -3.24302 -6.55791e-20)
(-0.0428419 -3.26384 -3.12863e-20)
(0.104107 -3.28385 3.62349e-20)
(0.253505 -3.30315 3.05647e-20)
(0.40553 -3.32149 3.58973e-20)
(0.560347 -3.33872 0)
(0.718224 -3.35458 3.34274e-20)
(0.87914 -3.36872 -3.47089e-20)
(1.04302 -3.38104 -5.14183e-21)
(1.21016 -3.3917 5.36197e-21)
(1.38159 -3.40092 0)
(1.55855 -3.40865 2.04396e-20)
(1.74267 -3.41462 2.91172e-20)
(1.93587 -3.41816 -2.43764e-21)
(2.1402 -3.41806 -2.63576e-20)
(2.35663 -3.41323 0)
(2.58828 -3.40302 3.04351e-20)
(2.83944 -3.38595 1.61081e-20)
(3.11315 -3.35989 -1.71992e-20)
(3.41038 -3.32552 -3.63351e-20)