/*--------------------------------*- C++ -*----------------------------------*\
| =========                 |                                                 |
| \\      /  F ield         | OpenFOAM: The Open Source CFD Toolbox           |
|  \\    /   O peration     | Version:  2.3.0                                 |
|   \\  /    A nd           | Web:      www.OpenFOAM.org                      |
|    \\/     M anipulation  |                                                 |
\*---------------------------------------------------------------------------*/
FoamFile
{
    version     2.0;
    format      ascii;
    class       volScalarField;
    location    "4000";
    object      nut;
}
// * * * * * * * * * * * * * * * * * * * * * * * * * * * * * * * * * * * * * //

dimensions      [0 2 -1 0 0 0 0];

internalField   nonuniform List<scalar> 
38250
(
0.0733196
0.0717522
0.0701787
0.0685982
0.0670119
0.0654209
0.063826
0.0622281
0.0606277
0.0590258
0.0574226
0.0558192
0.0542159
0.0526133
0.0510122
0.0494128
0.0478158
0.0462216
0.0446309
0.0430438
0.0414608
0.0398822
0.0383085
0.0367398
0.0351769
0.0336202
0.0320695
0.0305261
0.0289904
0.0274632
0.0259461
0.024441
0.0229498
0.0214756
0.0200238
0.0186006
0.017216
0.0158819
0.0146154
0.0134282
0.0123031
0.0110852
0.00894874
0.0743246
0.0729343
0.0715373
0.0701345
0.0687271
0.0673155
0.0659002
0.0644818
0.0630605
0.0616369
0.0602108
0.058783
0.0573534
0.0559225
0.0544906
0.053058
0.0516248
0.0501918
0.0487595
0.0473279
0.0458973
0.0444687
0.0430426
0.0416193
0.0401999
0.0387856
0.0373771
0.0359758
0.0345843
0.0332048
0.0318409
0.0304966
0.0291771
0.0278902
0.0266446
0.0254514
0.0243254
0.0232846
0.0223494
0.0215427
0.0208897
0.0204097
0.0201143
0.0752668
0.0740243
0.0727782
0.0715275
0.0702724
0.0690133
0.0677505
0.066484
0.0652139
0.0639404
0.0626636
0.0613835
0.0600999
0.0588132
0.0575237
0.0562314
0.0549364
0.0536395
0.0523407
0.0510406
0.0497397
0.048439
0.0471391
0.0458404
0.0445448
0.0432533
0.0419676
0.0406897
0.039422
0.0381686
0.0369331
0.0357203
0.0345364
0.0333894
0.0322884
0.0312434
0.0302674
0.0293751
0.0285803
0.0278993
0.0273463
0.0269316
0.026662
0.0761377
0.0750249
0.0739096
0.0727897
0.0716655
0.0705367
0.0694035
0.0682659
0.0671236
0.0659767
0.0648255
0.0636695
0.0625085
0.0613426
0.0601721
0.0589967
0.0578168
0.0566329
0.0554451
0.0542538
0.0530598
0.0518641
0.050668
0.0494715
0.0482766
0.0470851
0.0458985
0.0447191
0.0435493
0.0423935
0.0412559
0.0401411
0.0390562
0.038008
0.0370046
0.036056
0.0351734
0.0343688
0.0336534
0.0330394
0.0325372
0.032155
0.0318973
0.0769379
0.0759399
0.0749386
0.0739321
0.0729203
0.071903
0.0708802
0.069852
0.0688181
0.0677784
0.0667328
0.065681
0.0646228
0.0635582
0.0624871
0.0614094
0.0603253
0.0592352
0.0581394
0.0570383
0.0559322
0.0548227
0.0537108
0.0525975
0.0514849
0.0503742
0.0492673
0.0481663
0.0470741
0.0459949
0.0449327
0.0438926
0.0428809
0.0419041
0.0409703
0.0400885
0.0392684
0.0385207
0.0378552
0.0372817
0.0368095
0.0364458
0.036195
0.0776717
0.0767751
0.0758729
0.0749647
0.0740499
0.073128
0.0721995
0.0712644
0.0703225
0.0693735
0.068417
0.067453
0.066481
0.0655014
0.0645138
0.0635179
0.0625138
0.061502
0.0604827
0.0594563
0.0584231
0.0573842
0.056341
0.0552957
0.0542497
0.0532047
0.0521625
0.051125
0.0500952
0.0490763
0.0480729
0.0470908
0.046135
0.0452122
0.0443302
0.0434975
0.0427221
0.0420139
0.0413822
0.0408358
0.0403834
0.0400318
0.0397848
0.0783456
0.077536
0.0767199
0.0758969
0.0750664
0.0742265
0.0733781
0.0725222
0.0716588
0.0707869
0.0699061
0.0690162
0.0681173
0.0672093
0.0662916
0.0653649
0.0644285
0.0634815
0.062526
0.0615624
0.0605905
0.0596101
0.0586232
0.0576328
0.0566408
0.0556492
0.0546601
0.0536758
0.0526976
0.0517271
0.0507698
0.049833
0.0489223
0.0480419
0.0471998
0.0464042
0.0456628
0.0449842
0.0443772
0.04385
0.0434113
0.0430672
0.0428232
0.078963
0.0782294
0.0774866
0.0767374
0.0759814
0.075212
0.0744316
0.0736426
0.0728462
0.072041
0.0712247
0.0703971
0.0695605
0.0687132
0.0678537
0.0669855
0.0661086
0.0652146
0.0643119
0.0634019
0.0624832
0.0615523
0.0606113
0.0596657
0.0587175
0.0577689
0.0568228
0.0558825
0.0549494
0.0540204
0.053098
0.0521964
0.0513229
0.0504769
0.0496669
0.0489004
0.0481861
0.0475304
0.0469442
0.0464293
0.0460008
0.0456614
0.0454202
0.0795407
0.0788657
0.0781812
0.0774909
0.0768037
0.0760974
0.0753747
0.0746396
0.073898
0.0731494
0.0723901
0.0716129
0.0708285
0.0700336
0.0692247
0.0683976
0.0675802
0.0667317
0.0658722
0.0650045
0.0641322
0.0632481
0.0623436
0.0614348
0.0605215
0.059605
0.0586901
0.0577803
0.0568855
0.0560013
0.0551064
0.0542277
0.0533834
0.0525681
0.0517854
0.0510447
0.0503549
0.049717
0.0491524
0.0486426
0.0482284
0.0478905
0.0476555
0.00835684
0.00980986
0.0110162
0.0120798
0.0131124
0.0141639
0.0152493
0.0163728
0.0175299
0.0187177
0.0199319
0.0211677
0.0224246
0.0236978
0.0249867
0.0262893
0.0276037
0.0289303
0.0302667
0.0316129
0.0329681
0.0343321
0.0357045
0.0370842
0.0384715
0.0398659
0.041267
0.0426747
0.0440882
0.0455075
0.0469322
0.0483618
0.0497961
0.0512347
0.052677
0.0541227
0.0555714
0.0570226
0.058476
0.0599312
0.0613882
0.062847
0.0643072
0.0200021
0.0200617
0.0202874
0.0206682
0.0211903
0.0218356
0.0225867
0.0234262
0.0243382
0.0253093
0.0263276
0.0273854
0.0284743
0.0295897
0.0307265
0.0318807
0.0330504
0.0342327
0.0354261
0.036629
0.0378402
0.0390589
0.0402847
0.0415162
0.0427534
0.0439955
0.0452425
0.0464937
0.047749
0.049008
0.0502706
0.0515362
0.0528051
0.0540767
0.0553509
0.0566274
0.0579062
0.0591867
0.0604689
0.061753
0.063039
0.0643285
0.0656262
0.0265323
0.0265409
0.0266865
0.0269651
0.0273672
0.0278824
0.0284966
0.0291962
0.0299692
0.0308041
0.03169
0.0326182
0.0335823
0.034575
0.035592
0.0366281
0.0376807
0.0387472
0.0398243
0.040911
0.0420047
0.0431056
0.0442116
0.0453225
0.0464369
0.0475546
0.0486753
0.0497985
0.050924
0.0520514
0.0531802
0.0543108
0.0554428
0.0565761
0.0577106
0.058846
0.0599825
0.0611197
0.0622578
0.0633968
0.0645365
0.0656774
0.0668193
0.0317622
0.0317479
0.0318548
0.0320792
0.0324146
0.032852
0.0333814
0.0339914
0.0346721
0.035413
0.0362045
0.037039
0.0379089
0.0388088
0.0397329
0.0406771
0.0416378
0.042611
0.0435953
0.0445877
0.0455869
0.0465913
0.0475999
0.0486115
0.0496251
0.0506409
0.0516577
0.0526754
0.0536935
0.0547116
0.0557299
0.056748
0.057766
0.0587838
0.059801
0.0608179
0.0618344
0.0628503
0.0638659
0.0648811
0.0658958
0.0669098
0.0679205
0.0360556
0.0360274
0.0361107
0.0363016
0.0365944
0.0369816
0.0374549
0.0380048
0.0386211
0.0392952
0.0400186
0.0407834
0.0415835
0.0424128
0.0432656
0.0441379
0.0450256
0.0459253
0.046835
0.047752
0.0486741
0.0496003
0.0505293
0.0514597
0.0523914
0.0533232
0.0542546
0.055185
0.0561142
0.0570419
0.0579678
0.0588923
0.0598152
0.0607362
0.0616552
0.0625721
0.063487
0.0643999
0.0653109
0.0662206
0.0671288
0.0680354
0.0689411
0.0396429
0.0396058
0.0396727
0.0398405
0.0401042
0.040457
0.040891
0.0413969
0.0419661
0.0425908
0.0432626
0.0439751
0.0447216
0.0454963
0.0462932
0.0471086
0.0479379
0.0487788
0.0496283
0.0504838
0.0513434
0.0522055
0.0530691
0.0539334
0.0547974
0.0556601
0.0565208
0.0573791
0.0582342
0.0590862
0.0599356
0.060782
0.0616251
0.0624648
0.0633008
0.0641332
0.0649618
0.0657867
0.0666087
0.0674281
0.068245
0.0690588
0.0698711
0.0426799
0.0426353
0.0426902
0.0428413
0.0430837
0.0434121
0.0438166
0.0442888
0.0448221
0.0454087
0.0460412
0.0467128
0.0474179
0.0481496
0.0489019
0.0496703
0.050453
0.0512465
0.0520468
0.0528517
0.0536593
0.0544685
0.0552787
0.0560883
0.0568965
0.057702
0.0585039
0.0593013
0.0600941
0.0608833
0.0616689
0.06245
0.0632258
0.0639968
0.0647628
0.0655236
0.0662782
0.0670276
0.0677736
0.0685162
0.0692543
0.0699869
0.0707151
0.0452776
0.0452249
0.0452723
0.0454096
0.0456351
0.0459476
0.0463297
0.0467716
0.0472777
0.0478348
0.0484358
0.0490748
0.0497485
0.0504457
0.0511597
0.0518893
0.0526358
0.0533895
0.0541494
0.0549109
0.055675
0.0564409
0.0572072
0.0579717
0.0587338
0.0594909
0.0602431
0.0609888
0.0617291
0.062466
0.0631991
0.0639247
0.064643
0.0653569
0.0660626
0.066763
0.067453
0.0681372
0.0688192
0.0694968
0.0701677
0.0708289
0.071483
0.0475193
0.0474521
0.0475024
0.0476237
0.0478358
0.0481457
0.0485055
0.0489126
0.0494029
0.0499316
0.0505081
0.0511216
0.0517727
0.052435
0.0531158
0.0538131
0.0545378
0.0552502
0.0559797
0.0566994
0.0574315
0.0581605
0.0588909
0.0596155
0.0603408
0.0610537
0.0617655
0.0624653
0.0631641
0.0638596
0.0645495
0.0652243
0.0658944
0.0665652
0.0672146
0.0678671
0.0684957
0.0691274
0.0697595
0.0703833
0.0709979
0.0715956
0.0721822
0.0163151
0.015367
0.01446
0.0135935
0.0127666
0.0119785
0.0112281
0.0105148
0.00983811
0.00919758
0.00859347
0.00802675
0.00749962
0.0070161
0.00658344
0.0062073
0.00587715
0.00558149
0.00531255
0.00506522
0.00483591
0.0046217
0.00441999
0.00422843
0.00404481
0.003867
0.00369302
0.00352095
0.00334903
0.00317562
0.00299912
0.00281808
0.00263117
0.00243708
0.00223466
0.00202287
0.00180084
0.0015679
0.00132393
0.0010696
0.000807274
0.000540965
0.0002751
0.0162367
0.0153564
0.0145142
0.0137069
0.0129335
0.012193
0.0114847
0.010808
0.0101622
0.00954725
0.00896297
0.00841003
0.00788973
0.00740474
0.00695993
0.00656203
0.00621084
0.00589695
0.00561255
0.00535186
0.00511075
0.00488598
0.00467489
0.00447514
0.00428457
0.0041011
0.00392277
0.00374759
0.00357367
0.00339918
0.00322226
0.0030412
0.0028543
0.00265993
0.00245659
0.0022429
0.00201762
0.00177988
0.0015293
0.00126619
0.0009908
0.0006992
0.000409978
0.0161634
0.015353
0.014573
0.0138225
0.0131002
0.0124054
0.0117375
0.0110958
0.01048
0.00988976
0.00932513
0.00878641
0.00827443
0.00779095
0.0073391
0.00692416
0.006552
0.00621876
0.00591678
0.00564027
0.00538495
0.00514743
0.00492486
0.00471483
0.00451519
0.00432388
0.00413892
0.00395837
0.00378024
0.00360258
0.00342336
0.00324062
0.00305234
0.0028566
0.00265145
0.00243509
0.00220587
0.00196248
0.00170408
0.00143023
0.0011384
0.000818512
0.000518316
0.0161011
0.0153518
0.0146287
0.01393
0.0132546
0.0126018
0.011971
0.0113618
0.0107738
0.0102069
0.00966112
0.00913656
0.00863388
0.00815429
0.00769986
0.00727446
0.00688409
0.00653207
0.00621241
0.00591929
0.00564856
0.00539689
0.00516146
0.00493979
0.00472968
0.00452908
0.00433598
0.00414847
0.00396453
0.00378211
0.00359913
0.0034134
0.00322263
0.0030246
0.00281701
0.0025976
0.00236432
0.00211535
0.00184938
0.00156477
0.00125609
0.000909032
0.000608411
0.0160438
0.0153512
0.0146798
0.0140282
0.0133953
0.0127807
0.0121839
0.0116045
0.0110422
0.010497
0.00996891
0.00945808
0.00896508
0.00849072
0.00803658
0.00760546
0.00720209
0.00683273
0.00649607
0.00618656
0.00590012
0.00563366
0.00538451
0.00515029
0.00492879
0.00471791
0.00451569
0.00432016
0.00412931
0.00394108
0.00375329
0.00356357
0.00336952
0.0031686
0.00295814
0.00273557
0.00249835
0.00224424
0.00197128
0.0016766
0.00135192
0.000980442
0.000686407
0.0159908
0.0153508
0.0147266
0.0141177
0.0135235
0.0129436
0.0123777
0.0118254
0.0112867
0.0107615
0.0102499
0.0097522
0.00926873
0.00880032
0.00834811
0.00791428
0.0075024
0.00711844
0.0067661
0.00644112
0.00613938
0.00585809
0.00559492
0.00534765
0.00511418
0.00489241
0.00468043
0.00447619
0.00427776
0.00408297
0.00388964
0.00369529
0.00349739
0.00329312
0.00307958
0.00285382
0.00261289
0.00235406
0.00207478
0.00177082
0.00143121
0.00103831
0.000755964
0.0159436
0.0153508
0.0147695
0.0141995
0.0136404
0.0130921
0.0125543
0.0120269
0.0115098
0.0110029
0.0105066
0.010021
0.00954669
0.00908441
0.00863505
0.0082003
0.007783
0.00738796
0.00702135
0.00668201
0.00636586
0.00607026
0.00579324
0.00553284
0.00528714
0.0050542
0.00483209
0.00461881
0.00441239
0.00421065
0.00401134
0.00381198
0.00360987
0.00340201
0.00318526
0.00295637
0.002712
0.00244913
0.00216425
0.0018519
0.00149877
0.00108749
0.000819124
0.0159003
0.0153515
0.0148097
0.0142756
0.013749
0.0132292
0.0127171
0.012213
0.0117163
0.0112266
0.0107442
0.0102693
0.00980285
0.00934642
0.0089006
0.00846633
0.00804565
0.00764251
0.00726273
0.00690953
0.00657957
0.00627027
0.00597973
0.00570628
0.00544829
0.00520387
0.00497117
0.00474844
0.00453373
0.0043247
0.00411907
0.00391432
0.00370768
0.00349602
0.00327599
0.00304386
0.00279591
0.00252862
0.00223891
0.0019196
0.00155324
0.00112595
0.000877845
0.0158732
0.0153568
0.0148505
0.0143504
0.0138574
0.0133632
0.0128734
0.0123938
0.0119217
0.0114496
0.0109839
0.0105193
0.0100558
0.00960265
0.00916207
0.00873296
0.00831436
0.00790881
0.00752249
0.007156
0.00681025
0.00648563
0.00618122
0.00589453
0.00562443
0.0053697
0.00512619
0.00489195
0.00466748
0.00445069
0.00423828
0.00402745
0.00381522
0.00359872
0.00337497
0.00314148
0.00289412
0.00262628
0.00232563
0.00199272
0.00162215
0.00117588
0.000930154
0.00026136
0.00041146
0.000607944
0.000813574
0.00103325
0.00127005
0.00152674
0.00180617
0.00211116
0.00244421
0.00280618
0.00319554
0.00361023
0.00404932
0.00451214
0.00499866
0.00550873
0.00604231
0.00659935
0.00717982
0.00778384
0.00841134
0.00906202
0.00973587
0.0104326
0.0111516
0.0118925
0.0126544
0.0134365
0.0142374
0.0150559
0.0158902
0.0167383
0.017598
0.0184668
0.0193422
0.0202212
0.021101
0.0219788
0.0228518
0.0237177
0.0245755
0.0254281
0.000389159
0.000568937
0.000795337
0.00104076
0.00130568
0.00159181
0.00190087
0.0022342
0.0025926
0.00297617
0.00338423
0.00381607
0.00427102
0.00474895
0.00524897
0.00577023
0.00631186
0.00687334
0.00745434
0.00805449
0.00867352
0.0093112
0.00996724
0.0106411
0.0113324
0.0120406
0.0127651
0.0135049
0.0142592
0.0150268
0.0158066
0.0165968
0.0173961
0.0182025
0.019014
0.0198286
0.0206442
0.0214584
0.0222693
0.0230748
0.0238738
0.024666
0.0254519
0.000513553
0.000724233
0.000986781
0.00127641
0.00159052
0.0019291
0.00229229
0.00267964
0.00309018
0.00352257
0.00397578
0.00444908
0.0049422
0.00545473
0.00598623
0.00653607
0.00710347
0.00768782
0.00828826
0.00890415
0.00953497
0.0101802
0.0108391
0.0115112
0.0121959
0.0128925
0.0136002
0.0143183
0.0150458
0.0157815
0.0165244
0.0172731
0.0180262
0.0187824
0.0195399
0.0202973
0.0210529
0.021805
0.0225524
0.0232939
0.024029
0.0247581
0.0254818
0.000631323
0.000874582
0.0011759
0.00151078
0.00187394
0.00226344
0.0026777
0.00311482
0.00357273
0.00404975
0.00454468
0.00505661
0.00558503
0.0061295
0.00668945
0.00726439
0.00785355
0.00845632
0.00907186
0.00969958
0.0103385
0.010988
0.0116473
0.0123158
0.0129925
0.0136768
0.0143678
0.0150647
0.0157665
0.0164722
0.0171808
0.0178911
0.0186021
0.0193124
0.020021
0.0207265
0.0214279
0.0221241
0.0228143
0.023498
0.0241751
0.024846
0.0255106
0.000742148
0.00101925
0.00136004
0.00173933
0.00214941
0.00258643
0.00304732
0.00352926
0.00402975
0.00454696
0.00507946
0.00562632
0.00618681
0.00676019
0.00734589
0.00794327
0.00855165
0.00917031
0.00979844
0.0104353
0.01108
0.0117318
0.0123897
0.0130531
0.013721
0.0143926
0.015067
0.0157434
0.016421
0.0170987
0.0177756
0.0184508
0.0191233
0.0197922
0.0204566
0.0211157
0.0217687
0.0224149
0.0230541
0.0236861
0.024311
0.0249291
0.0255405
0.000846572
0.00115775
0.00153743
0.00195915
0.00241298
0.00289346
0.00339644
0.00391863
0.00445721
0.00501037
0.00557657
0.00615474
0.00674391
0.00734322
0.00795197
0.00856941
0.0091948
0.00982733
0.0104662
0.0111105
0.0117595
0.0124121
0.0130677
0.0137253
0.0143839
0.0150429
0.0157014
0.0163584
0.0170132
0.0176649
0.0183127
0.0189559
0.0195936
0.0202254
0.0208503
0.0214679
0.0220778
0.0226798
0.0232736
0.0238594
0.0244374
0.0250081
0.0255717
0.000944577
0.00128983
0.00170697
0.00216838
0.0026623
0.0031822
0.00372308
0.00428132
0.00485408
0.00543947
0.00603579
0.00664195
0.00725672
0.00787911
0.00850834
0.00914361
0.00978395
0.0104285
0.0110764
0.0117268
0.012379
0.0130319
0.0136845
0.0143357
0.0149851
0.0156319
0.0162753
0.0169142
0.0175479
0.0181755
0.0187967
0.019411
0.0200177
0.0206161
0.0212058
0.0217866
0.0223582
0.0229208
0.0234743
0.0240191
0.0245555
0.0250842
0.0256059
0.00103999
0.00141617
0.00186719
0.00236508
0.00289623
0.00345193
0.00402648
0.00461671
0.00522033
0.00583532
0.00645964
0.00709148
0.00772906
0.00837164
0.00901883
0.00966984
0.0103233
0.0109778
0.0116331
0.0122888
0.0129442
0.0135967
0.0142448
0.0148888
0.015529
0.016165
0.0167947
0.0174169
0.01803
0.0186349
0.0192319
0.0198211
0.0204001
0.0209685
0.0215269
0.0220749
0.0226125
0.0231403
0.0236582
0.0241665
0.0246663
0.0251583
0.0256433
0.00111233
0.00152576
0.0020187
0.00255676
0.00311661
0.00369829
0.0043002
0.00492518
0.00556522
0.0062149
0.00686811
0.00752259
0.00817473
0.00883172
0.00949388
0.0101596
0.0108235
0.0114828
0.0121433
0.0128062
0.0134667
0.0141148
0.014753
0.0153881
0.0160208
0.0166506
0.0172686
0.0178732
0.0184621
0.0190454
0.0196224
0.0201925
0.0207452
0.0212864
0.0218174
0.0223358
0.0228427
0.02334
0.0238265
0.0243022
0.0247695
0.0252292
0.0256806
0.000778404
0.00261618
0.00442625
0.00620147
0.00795125
0.0096822
0.0113982
0.013102
0.0147955
0.0164804
0.0181596
0.0198339
0.0215053
0.023175
0.0248443
0.0265141
0.0281857
0.02986
0.0315367
0.0332171
0.0349012
0.0365889
0.0382806
0.0399763
0.0416757
0.0433786
0.0450849
0.046794
0.0485055
0.0502191
0.0519341
0.0536495
0.055365
0.05708
0.0587936
0.060505
0.0622131
0.0639173
0.0656167
0.0673099
0.0689956
0.0706728
0.0723438
6.47327e-06
0.00103885
0.00239932
0.00387189
0.00542731
0.00703564
0.00867797
0.010344
0.0120257
0.0137185
0.0154197
0.0171274
0.0188403
0.020558
0.0222804
0.0240066
0.0257376
0.0274729
0.0292122
0.0309559
0.032704
0.0344559
0.0362121
0.0379722
0.0397355
0.0415022
0.0432716
0.0450431
0.0468165
0.0485911
0.0503663
0.0521411
0.0539153
0.0556879
0.057458
0.0592248
0.0609873
0.0627448
0.0644961
0.06624
0.0679754
0.0697008
0.0714213
0.000266452
0.000860576
0.00190466
0.00310589
0.00442361
0.00582834
0.00730031
0.00882565
0.0103944
0.0119985
0.013632
0.0152904
0.0169697
0.0186676
0.020381
0.0221083
0.0238481
0.025599
0.0273594
0.029129
0.0309069
0.0326918
0.0344835
0.036281
0.038084
0.0398914
0.0417025
0.0435167
0.0453332
0.0471515
0.0489707
0.0507898
0.052608
0.0544242
0.0562378
0.0580477
0.059853
0.0616527
0.0634456
0.0652307
0.0670065
0.0687724
0.0705326
0.000322367
0.000790266
0.00167807
0.00271413
0.00386713
0.00511559
0.0064434
0.00783897
0.00929276
0.0107971
0.0123456
0.0139325
0.0155535
0.0172044
0.0188819
0.0205827
0.0223048
0.0240454
0.0258027
0.0275753
0.029361
0.0311585
0.0329666
0.0347844
0.0366104
0.0384434
0.0402825
0.0421265
0.0439743
0.0458254
0.0476782
0.0495318
0.0513852
0.0532374
0.0550873
0.0569337
0.0587756
0.0606119
0.0624414
0.064263
0.0660757
0.0678787
0.0696763
0.000333766
0.00071125
0.00149768
0.00242478
0.00346525
0.00460162
0.00582116
0.00711386
0.00847158
0.00988748
0.0113558
0.0128714
0.0144293
0.0160258
0.0176571
0.0193199
0.0210112
0.0227279
0.0244681
0.0262293
0.0280092
0.0298059
0.0316178
0.0334431
0.0352803
0.037128
0.0389843
0.0408483
0.0427184
0.0445936
0.0464722
0.0483531
0.0502352
0.0521169
0.0539972
0.0558748
0.0577483
0.0596167
0.0614789
0.0633334
0.0651795
0.0670168
0.0688497
0.000326967
0.000640812
0.00135442
0.00220207
0.00315859
0.00420918
0.00534315
0.00655218
0.00782899
0.0091681
0.0105644
0.012013
0.0135098
0.0150513
0.0166335
0.0182536
0.019908
0.0215937
0.0233086
0.0250499
0.0268151
0.0286022
0.0304087
0.0322328
0.0340729
0.0359265
0.0377922
0.0396686
0.0415536
0.0434458
0.0453438
0.0472458
0.0491505
0.0510564
0.0529622
0.0548661
0.0567671
0.0586638
0.0605547
0.0624389
0.0643151
0.0661829
0.0680456
0.000321302
0.000586617
0.00124399
0.00202844
0.00291819
0.00389944
0.004963
0.00610161
0.00730935
0.00858141
0.00991339
0.0113008
0.0127406
0.0142289
0.0157625
0.0173385
0.0189537
0.0206052
0.0222907
0.0240071
0.0257522
0.0275236
0.0293186
0.0311352
0.0329714
0.0348248
0.0366938
0.0385762
0.0404699
0.0423736
0.0442853
0.0462034
0.0481257
0.0500512
0.0519779
0.0539043
0.0558289
0.05775
0.0596666
0.0615771
0.0634804
0.0653753
0.0672641
0.000316365
0.000543708
0.00115525
0.00188759
0.00272217
0.00364586
0.00465017
0.00572893
0.00687715
0.00809056
0.00936515
0.0106974
0.0120846
0.0135231
0.0150102
0.0165431
0.0181189
0.019735
0.0213889
0.0230779
0.0247995
0.026551
0.0283301
0.0301346
0.0319621
0.0338106
0.0356778
0.0375614
0.0394593
0.0413697
0.0432908
0.0452201
0.0471561
0.0490971
0.0510411
0.0529861
0.0549308
0.0568732
0.0588123
0.0607461
0.0626733
0.0645927
0.0665042
0.000312239
0.00050841
0.00108149
0.00176996
0.00255804
0.00343279
0.00438654
0.00541382
0.00651022
0.00767174
0.00889517
0.0101778
0.0115167
0.012909
0.014352
0.0158436
0.017381
0.0189616
0.0205833
0.0222432
0.0239393
0.0256687
0.0274292
0.0292184
0.031034
0.0328739
0.0347355
0.0366164
0.0385146
0.0404279
0.0423541
0.0442913
0.0462375
0.0481903
0.0501478
0.0521085
0.05407
0.0560309
0.0579895
0.0599439
0.0618927
0.0638344
0.0657698
0.000308724
0.000479081
0.00101926
0.00167021
0.00241846
0.00325107
0.00416102
0.00514318
0.00619356
0.00730912
0.00848697
0.00972446
0.0110192
0.0123685
0.0137704
0.0152226
0.0167229
0.018269
0.0198584
0.0214891
0.0231585
0.0248644
0.0266045
0.0283764
0.0301775
0.0320059
0.0338587
0.0357339
0.0376293
0.0395423
0.0414707
0.0434126
0.0453653
0.047327
0.0492955
0.0512686
0.0532444
0.055221
0.0571965
0.0591691
0.061137
0.0630988
0.0650551
0.000305653
0.000454207
0.000966015
0.00158439
0.0022981
0.00309388
0.00396514
0.00490732
0.00591709
0.00699139
0.00812792
0.00932433
0.0105785
0.0118882
0.0132515
0.0146667
0.0161316
0.017644
0.0192022
0.0208036
0.0224461
0.0241279
0.0258465
0.0275993
0.0293842
0.031199
0.033041
0.0349082
0.0367981
0.038708
0.0406362
0.0425798
0.0445367
0.0465045
0.048481
0.0504641
0.0524517
0.0544416
0.0564317
0.0584199
0.0604045
0.0623833
0.0643562
0.000302791
0.000432787
0.000919858
0.00150978
0.00219277
0.00295585
0.00379282
0.00469952
0.00567274
0.00670995
0.007809
0.00896786
0.0101848
0.0114578
0.0127852
0.0141655
0.0155966
0.017077
0.0186044
0.0201772
0.0217932
0.0234505
0.0251466
0.0268796
0.0286471
0.0304469
0.0322766
0.0341337
0.036016
0.0379209
0.0398464
0.0417896
0.0437481
0.0457198
0.0477021
0.0496929
0.05169
0.0536908
0.055693
0.0576949
0.0596939
0.0616878
0.0636762
0.000300247
0.000414229
0.000879528
0.00144434
0.00209963
0.00283363
0.00364001
0.00451471
0.00545492
0.00645852
0.00752331
0.00864777
0.00983035
0.0110693
0.0123631
0.0137106
0.0151098
0.0165593
0.0180574
0.0196021
0.021192
0.0228246
0.0244985
0.0262111
0.0279603
0.0297441
0.0315601
0.0334058
0.0352788
0.0371771
0.0390979
0.0410385
0.0429969
0.0449704
0.0469565
0.0489529
0.0509573
0.0529669
0.0549796
0.056993
0.0590044
0.0610114
0.0630125
0.000297946
0.000397986
0.000843958
0.00138638
0.0020167
0.00272448
0.00350316
0.00434897
0.00525926
0.00623204
0.00726559
0.00835828
0.00950897
0.0107161
0.0119787
0.0132952
0.0146643
0.0160844
0.0175541
0.0190719
0.0206361
0.0222446
0.023896
0.0255881
0.0273186
0.0290856
0.0308869
0.0327201
0.0345828
0.0364727
0.0383872
0.040324
0.0422803
0.0442539
0.0462421
0.0482423
0.050252
0.0522687
0.0542901
0.0563131
0.0583354
0.060354
0.0623671
0.000295879
0.000384112
0.000812322
0.00133449
0.00194208
0.00262612
0.00337964
0.00419906
0.00508195
0.00602645
0.00703117
0.00809475
0.00921597
0.0103936
0.0116267
0.0129142
0.0142545
0.0156466
0.0170894
0.018581
0.0201201
0.0217051
0.0233342
0.0250057
0.0267174
0.0284671
0.0302532
0.0320729
0.0339241
0.0358047
0.037712
0.0396432
0.0415962
0.0435682
0.0455569
0.0475592
0.0495728
0.0515951
0.0536231
0.0556544
0.0576862
0.0597154
0.0617401
0.0002944
0.000374895
0.000783887
0.00128756
0.00187452
0.00253688
0.00326748
0.00406277
0.00492046
0.00583905
0.00681722
0.00785366
0.00894733
0.0100974
0.011303
0.0125629
0.0138762
0.0152417
0.0166584
0.018125
0.01964
0.0212018
0.022809
0.02446
0.0261526
0.0278851
0.0296552
0.0314611
0.0333002
0.0351705
0.0370691
0.0389939
0.0409421
0.0429113
0.0448989
0.046902
0.0489181
0.0509442
0.0529779
0.0550163
0.0570562
0.0590949
0.0611301
0.000293827
0.00037195
0.000758307
0.00124502
0.00181293
0.00245544
0.00316493
0.00393804
0.00477256
0.00566709
0.00662056
0.00763179
0.00869981
0.00982414
0.0110037
0.0122378
0.0135253
0.0148655
0.0162575
0.0176999
0.0191913
0.0207308
0.0223167
0.0239474
0.0256211
0.0273359
0.0290901
0.0308815
0.032708
0.0345671
0.0364564
0.0383737
0.0403161
0.0422815
0.0442669
0.0462695
0.0482865
0.0503155
0.0523536
0.0543976
0.0564447
0.0584919
0.0605372
0.000294056
0.000372699
0.000735272
0.00120618
0.00175685
0.00238075
0.00307076
0.00382334
0.00463645
0.00550871
0.00643919
0.00742671
0.00847085
0.00957089
0.0107261
0.0119357
0.013199
0.014515
0.0158832
0.0173022
0.0187711
0.0202888
0.0218538
0.0234645
0.0251195
0.0268168
0.028555
0.0303317
0.032145
0.0339923
0.0358717
0.0377806
0.0397166
0.0416769
0.0436591
0.04566
0.0476772
0.049708
0.0517491
0.0537978
0.0558514
0.0579071
0.0599632
0.000294735
0.000374459
0.000714507
0.00117083
0.0017056
0.0023121
0.00298392
0.00371745
0.00451057
0.00536214
0.00627106
0.00723669
0.00825841
0.00933552
0.0104676
0.0116541
0.0128942
0.0141873
0.0155327
0.0169294
0.0183766
0.019873
0.0214176
0.0230089
0.0246452
0.0263253
0.0280473
0.0298092
0.0316087
0.0334442
0.0353129
0.037213
0.0391416
0.0410962
0.0430741
0.0450726
0.0470889
0.0491203
0.0511636
0.0532163
0.0552753
0.0573388
0.0594065
0.000295443
0.000375938
0.000695697
0.00113839
0.00165829
0.00224857
0.00290362
0.00361939
0.00439387
0.00522602
0.00611482
0.00705981
0.00806025
0.00911589
0.0102262
0.0113908
0.0126088
0.0138801
0.0152036
0.0165789
0.0180051
0.0194811
0.0210058
0.0225778
0.0241961
0.0258589
0.0275648
0.0293116
0.0310977
0.0329207
0.0347785
0.036669
0.0385898
0.0405378
0.0425107
0.0445059
0.0465205
0.0485515
0.0505961
0.0526514
0.0547145
0.0567828
0.0588527
0.000295945
0.00037698
0.000678475
0.00110852
0.00161459
0.00218971
0.00282905
0.00352817
0.00428525
0.0050992
0.0059692
0.00689465
0.0078752
0.00891045
0.0100001
0.0111436
0.0123409
0.0135912
0.0148939
0.0162487
0.0176545
0.0191107
0.020616
0.0221695
0.0237699
0.0254157
0.0271055
0.0288375
0.0306098
0.0324202
0.0342669
0.0361474
0.0380596
0.0400005
0.041968
0.0439591
0.0459709
0.0480008
0.0500457
0.0521024
0.0541682
0.056239
0.0583114
0.000296286
0.000377593
0.000662617
0.00108078
0.00157384
0.00213475
0.0027593
0.00344293
0.00418365
0.00498048
0.00583273
0.00673986
0.00770168
0.0087176
0.00978756
0.0109114
0.0120887
0.0133189
0.0146018
0.0159366
0.0173228
0.0187598
0.0202465
0.0217819
0.0233649
0.0249939
0.0266679
0.0283849
0.0301432
0.031941
0.0337761
0.0356465
0.0375497
0.0394832
0.0414445
0.0434308
0.0454393
0.0474673
0.0495116
0.0515692
0.0536365
0.0557091
0.0577811
0.000296449
0.000377853
0.00064791
0.00105494
0.00153585
0.00208342
0.0026941
0.00336304
0.00408832
0.00486908
0.00570456
0.00659447
0.00753839
0.00853602
0.00958752
0.0106925
0.0118507
0.0130618
0.0143255
0.0156414
0.0170088
0.0184271
0.0198955
0.0214133
0.0229791
0.0245918
0.0262499
0.0279522
0.0296968
0.0314817
0.0333051
0.0351651
0.037059
0.0389844
0.0409391
0.0429202
0.0449249
0.0469505
0.0489937
0.0510519
0.053122
0.0552014
0.0572928
0.000296526
0.000377828
0.000634419
0.00103087
0.0015004
0.0020355
0.00263285
0.00328802
0.00399889
0.00476446
0.00558408
0.00645759
0.00738452
0.00836482
0.00939859
0.0104856
0.0116255
0.0128183
0.0140638
0.0153613
0.0167106
0.0181109
0.0195618
0.0210622
0.0226112
0.0242077
0.0258506
0.0275381
0.0292689
0.031041
0.0328527
0.0347018
0.0365862
0.0385034
0.0404511
0.0424265
0.044427
0.0464496
0.0484914
0.0505502
0.0526229
0.0547078
0.0568063
0.00029655
0.000377692
0.000622834
0.00100845
0.00146726
0.00199075
0.00257545
0.00321752
0.0039147
0.00466584
0.00547051
0.00632838
0.00723924
0.0082031
0.00921992
0.0102897
0.0114122
0.0125875
0.0138152
0.0150951
0.0164268
0.0178098
0.0192436
0.0207272
0.0222599
0.0238407
0.0254682
0.0271414
0.0288585
0.0306177
0.0324175
0.0342559
0.0361305
0.0380391
0.0399795
0.0419489
0.0439446
0.0459639
0.0480042
0.050063
0.0521377
0.0542264
0.0563292
0.000296609
0.000377851
0.000615008
0.000987808
0.0014363
0.00194868
0.00252136
0.00315104
0.00383518
0.00457273
0.00536307
0.00620608
0.00710172
0.0080498
0.00905051
0.0101039
0.0112097
0.0123682
0.0135789
0.0148419
0.0161566
0.0175228
0.0189399
0.0204072
0.021924
0.0234892
0.0251019
0.0267607
0.0284642
0.0302108
0.0319988
0.0338261
0.0356909
0.0375908
0.0395235
0.0414866
0.0434771
0.0454929
0.0475311
0.0495892
0.0516648
0.0537555
0.0558609
0.000296835
0.000378811
0.000611754
0.000968912
0.00140723
0.001909
0.00247025
0.00308819
0.00375999
0.00448448
0.00526121
0.00609021
0.00697128
0.00790439
0.00888963
0.00992721
0.0110172
0.0121595
0.0133539
0.0146003
0.0158988
0.0172487
0.0186496
0.0201011
0.0216024
0.0231526
0.0247505
0.0263952
0.0280852
0.0298192
0.0315953
0.0334118
0.0352665
0.0371574
0.0390824
0.0410387
0.043024
0.0450358
0.0470712
0.0491278
0.051203
0.053294
0.0553985
0.000297218
0.00038058
0.000611487
0.000951635
0.00137986
0.0018715
0.00242182
0.00302856
0.0036886
0.00440069
0.00516459
0.00598016
0.0068474
0.00776618
0.00873675
0.00975922
0.0108338
0.0119604
0.0131391
0.0143699
0.0156524
0.0169865
0.0183719
0.019808
0.0212941
0.0228294
0.0244129
0.0260438
0.0277207
0.029442
0.0312063
0.0330117
0.0348563
0.0367384
0.0386552
0.0406047
0.0425843
0.0445915
0.0466236
0.0486781
0.0507519
0.0528418
0.0549446
0.000297575
0.000382799
0.000612048
0.000935657
0.00135407
0.00183598
0.0023759
0.00297192
0.00362071
0.00432111
0.00507279
0.00587554
0.00672929
0.00763435
0.00859086
0.00959899
0.0106587
0.0117703
0.012934
0.0141494
0.0154168
0.0167357
0.0181058
0.0195268
0.0209981
0.0225189
0.0240885
0.0257057
0.0273693
0.0290783
0.0308309
0.0326253
0.0344598
0.0363326
0.0382414
0.0401838
0.0421574
0.0441596
0.0461879
0.0482395
0.0503113
0.0523998
0.0545017
0.000297964
0.000385111
0.000612832
0.00092087
0.00132978
0.00180236
0.0023325
0.00291817
0.00355625
0.00424539
0.00498531
0.00577573
0.00661681
0.00750876
0.00845169
0.00944586
0.0104915
0.0115887
0.0127378
0.0139385
0.015191
0.016495
0.0178504
0.0192568
0.0207136
0.0222203
0.0237761
0.0253798
0.0270307
0.0287272
0.0304682
0.0322517
0.0340762
0.0359398
0.0378402
0.0397752
0.0417424
0.0437394
0.0457635
0.0478118
0.0498814
0.0519689
0.0540717
0.000298423
0.000387253
0.000613469
0.000906995
0.00130685
0.00177062
0.00229139
0.00286698
0.00349479
0.00417326