/*--------------------------------*- C++ -*----------------------------------*\
| =========                 |                                                 |
| \\      /  F ield         | OpenFOAM: The Open Source CFD Toolbox           |
|  \\    /   O peration     | Version:  2.3.0                                 |
|   \\  /    A nd           | Web:      www.OpenFOAM.org                      |
|    \\/     M anipulation  |                                                 |
\*---------------------------------------------------------------------------*/
FoamFile
{
    version     2.0;
    format      ascii;
    class       volScalarField;
    location    "4000";
    object      p;
}
// * * * * * * * * * * * * * * * * * * * * * * * * * * * * * * * * * * * * * //

dimensions      [0 2 -2 0 0 0 0];

internalField   nonuniform List<scalar> 
38250
(
-0.000100832
1.21525
2.59766
4.01303
5.44027
6.88367
8.34793
9.83278
11.3404
12.8704
14.4245
16.0036
17.6063
19.236
20.8901
22.57
24.2724
25.9969
27.7404
29.4986
31.2643
33.0322
34.7939
36.5406
38.2552
39.9208
41.5279
43.0417
44.4404
45.6814
46.7199
47.4815
47.8706
47.7988
47.128
45.6612
43.1956
39.404
33.9206
26.2597
16.0675
1.24376
-25.7772
-0.501175
0.551326
1.80464
3.0871
4.385
5.7022
7.04247
8.40345
9.78846
11.1951
12.6265
14.0822
15.5634
17.0717
18.6076
20.1737
21.7716
23.4031
25.0695
26.774
28.5181
30.3017
32.1246
33.9853
35.8791
37.797
39.7289
41.6568
43.5547
45.3879
47.1099
48.6671
49.9913
50.9755
51.4782
51.3226
50.2914
48.1125
44.4436
38.8787
30.8504
19.3533
2.62839
-1.10149
-0.22889
0.840595
1.93044
3.02628
4.12904
5.24239
6.36261
7.49128
8.62572
9.76601
10.9105
12.0586
13.2084
14.358
15.5051
16.647
17.7805
18.9014
20.0044
21.0847
22.1339
23.1449
24.1079
25.0077
25.8322
26.5596
27.1706
27.6339
27.9125
27.9642
27.73
27.1384
26.1044
24.5372
22.3326
19.3605
15.49
10.5923
4.5288
-2.77683
-11.359
-21.0112
-1.66576
-0.947049
-0.0279779
0.915379
1.86498
2.82051
3.78417
4.75495
5.7321
6.71483
7.70144
8.6917
9.68502
10.6799
11.6748
12.6688
13.6595
14.644
15.6196
16.5822
17.5266
18.4442
19.3291
20.1719
20.9563
21.6704
22.2912
22.7999
23.1668
23.3572
23.3342
23.0487
22.4474
21.4696
20.0387
18.0731
15.4853
12.1878
8.11092
3.18318
-2.60016
-9.20933
-16.4868
-2.31059
-1.66322
-0.855554
-0.0321086
0.792038
1.61915
2.44966
3.28513
4.12291
4.96273
5.80179
6.63922
7.47368
8.30303
9.1252
9.93829
10.7395
11.5261
12.293
13.0365
13.7506
14.4274
15.0606
15.6401
16.1525
16.5846
16.9178
17.1319
17.2017
17.0991
16.7909
16.2382
15.3941
14.2093
12.6303
10.601
8.06704
4.97249
1.29325
-2.9932
-7.85501
-13.2247
-18.9664
-2.8813
-2.32468
-1.60903
-0.888024
-0.168864
0.554652
1.27735
2.00815
2.74024
3.47295
4.20424
4.93333
5.6592
6.37888
7.08854
7.78782
8.47332
9.14507
9.79716
10.4268
11.0223
11.5802
12.0937
12.5534
12.9485
13.2639
13.4828
13.5832
13.5413
13.3367
12.9381
12.3192
11.4359
10.2455
8.70897
6.78682
4.43841
1.62385
-1.67027
-5.44024
-9.65525
-14.2464
-19.1126
-3.33343
-2.93403
-2.30418
-1.66158
-1.02865
-0.39242
0.234361
0.881829
1.53183
2.18121
2.82552
3.46505
4.10206
4.73537
5.35423
5.96136
6.55045
7.11601
7.6642
8.2036
8.70214
9.15389
9.56187
9.91945
10.2163
10.4436
10.5793
10.6002
10.4785
10.1976
9.72681
9.05368
8.14687
6.95731
5.45566
3.62195
1.41456
-1.19113
-4.21454
-7.62988
-11.3862
-15.4386
-19.6926
-3.57529
-3.42749
-2.922
-2.35862
-1.79483
-1.22259
-0.697874
-0.131992
0.447129
1.03725
1.62209
2.18807
2.74993
3.32257
3.87568
4.41547
4.96156
5.4506
5.89075
6.36723
6.81639
7.19717
7.51984
7.79406
8.00885
8.17157
8.26177
8.25426
8.11251
7.82917
7.33991
6.64505
5.78077
4.6516
3.23227
1.48438
-0.538407
-2.95465
-5.70269
-8.915
-12.3537
-16.0713
-19.8855
-3.94578
-3.78852
-3.41712
-2.99117
-2.61576
-1.93933
-1.53181
-1.09466
-0.647788
-0.154624
0.368858
0.874015
1.34568
1.84551
2.34882
2.7884
3.17761
3.81794
4.1456
4.53732
4.97188
5.3562
5.64688
5.85173
5.97745
6.06042
6.09669
6.06437
5.90302
5.60406
5.12721
4.64147
4.02438
2.98929
1.61838
0.00984521
-1.81523
-3.82148
-6.37518
-9.23163
-12.5817
-15.7459
-19.2268
-93.0782
-116.379
-120.273
-122.725
-124.511
-124.511
-123.363
-121.665
-119.724
-117.597
-115.373
-113.128
-110.826
-108.523
-106.204
-103.873
-101.549
-99.2132
-96.8859
-94.5733
-92.273
-89.9972
-87.7485
-85.5359
-83.3606
-81.2296
-79.1456
-77.1082
-75.1225
-73.1869
-71.3024
-69.4675
-67.6815
-65.9414
-64.2476
-62.5975
-60.9897
-59.4217
-57.8921
-56.4
-54.9428
-53.526
-52.118
-20.5621
-44.4155
-62.2156
-75.0481
-84.4848
-91.2924
-95.9464
-98.925
-100.591
-101.234
-101.101
-100.399
-99.2672
-97.8194
-96.1654
-94.3634
-92.484
-90.5563
-88.6096
-86.6769
-84.7619
-82.8841
-81.0385
-79.237
-77.4737
-75.7541
-74.0732
-72.4295
-70.8215
-69.2469
-67.705
-66.1929
-64.7105
-63.256
-61.8302
-60.4313
-59.0593
-57.7139
-56.395
-55.1032
-53.8374
-52.5963
-51.3051
-31.1547
-40.9561
-49.5264
-56.7521
-62.7118
-67.5398
-71.3371
-74.2422
-76.4016
-77.9254
-78.9332
-79.5187
-79.7606
-79.7245
-79.4608
-79.0169
-78.4243
-77.707
-76.8949
-75.9987
-75.0393
-74.0261
-72.9666
-71.8757
-70.7565
-69.6196
-68.4661
-67.3051
-66.1386
-64.9705
-63.8063
-62.6454
-61.4919
-60.3466
-59.2115
-58.0873
-56.9748
-55.8745
-54.7867
-53.7129
-52.6517
-51.5915
-50.4128
-24.1931
-31.9085
-39.2154
-45.8431
-51.6699
-56.6484
-60.8001
-64.1773
-66.8597
-68.9254
-70.4632
-71.5492
-72.2509
-72.6332
-72.7449
-72.6411
-72.3545
-71.9213
-71.3715
-70.7212
-69.9969
-69.214
-68.3795
-67.5089
-66.612
-65.6926
-64.7574
-63.8133
-62.8612
-61.9057
-60.9482
-59.9918
-59.0369
-58.0853
-57.1386
-56.1978
-55.263
-54.3345
-53.4127
-52.4988
-51.5921
-50.6825
-49.7031
-24.8974
-30.8086
-36.4814
-41.7404
-46.4754
-50.6315
-54.1999
-57.195
-59.6665
-61.6593
-63.2198
-64.414
-65.2841
-65.8803
-66.2411
-66.4092
-66.4026
-66.2627
-66.0037
-65.6458
-65.2047
-64.6979
-64.1305
-63.5155
-62.8633
-62.1768
-61.4656
-60.7347
-59.9853
-59.2242
-58.4525
-57.6737
-56.8899
-56.1034
-55.3161
-54.5298
-53.7446
-52.9608
-52.18
-51.4029
-50.6317
-49.8642
-49.174
-24.1329
-29.1395
-33.9966
-38.5679
-42.7546
-46.5053
-49.7945
-52.6172
-54.9986
-56.9725
-58.569
-59.8308
-60.803
-61.5168
-62.0137
-62.3189
-62.4627
-62.4697
-62.3577
-62.1458
-61.8485
-61.4798
-61.0522
-60.5726
-60.0541
-59.4999
-58.9215
-58.3202
-57.7013
-57.0669
-56.4203
-55.7656
-55.1029
-54.437
-53.7684
-53.1
-52.4322
-51.7619
-51.0917
-50.4226
-49.7576
-49.0965
-48.5637
-24.0877
-28.437
-32.702
-36.7411
-40.4748
-43.8652
-46.8648
-49.4624
-51.6803
-53.5353
-55.079
-56.3255
-57.3235
-58.0807
-58.6476
-59.0312
-59.2704
-59.3708
-59.3642
-59.2555
-59.0695
-58.8054
-58.4858
-58.1145
-57.7019
-57.2541
-56.7861
-56.291
-55.7785
-55.2445
-54.6992
-54.1453
-53.5754
-53.0082
-52.4356
-51.8667
-51.2946
-50.7106
-50.1261
-49.5452
-48.971
-48.4011
-48.0029
-23.8706
-27.7895
-31.6375
-35.3147
-38.7124
-41.8049
-44.5938
-47.0461
-49.1489
-50.9449
-52.4594
-53.6761
-54.6878
-55.4766
-56.0947
-56.5059
-56.8042
-56.9642
-57.0374
-56.9884
-56.8792
-56.6784
-56.4318
-56.1294
-55.7907
-55.4192
-55.0378
-54.6204
-54.186
-53.7233
-53.2556
-52.7741
-52.266
-51.7903
-51.3029
-50.8177
-50.3064
-49.7772
-49.2651
-48.762
-48.2678
-47.7665
-47.4403
-23.5243
-26.9881
-30.5172
-33.967
-37.056
-39.9239
-42.5758
-44.8071
-47.3727
-49.2788
-50.7547
-51.8492
-52.889
-53.7066
-54.3412
-54.7017
-55.0561
-55.2278
-55.3609
-55.3074
-55.2282
-55.0263
-54.8074
-54.5235
-54.242
-53.9177
-53.6076
-53.2332
-52.8463
-52.4153
-51.9902
-51.5442
-51.0738
-50.7087
-50.2651
-49.831
-49.3859
-48.9251
-48.5163
-48.1058
-47.6873
-47.2268
-46.8959
-47.4805
-47.1312
-46.8156
-46.4837
-46.1436
-45.794
-45.4342
-45.063
-44.6789
-44.2804
-43.8652
-43.4318
-42.9784
-42.5035
-42.0068
-41.488
-40.9482
-40.3892
-39.8145
-39.2275
-38.633
-38.0357
-37.4418
-36.8568
-36.2861
-35.7358
-35.2106
-34.7151
-34.2531
-33.8269
-33.4388
-33.0901
-32.7801
-32.5073
-32.2696
-32.0624
-31.8803
-31.7174
-31.5647
-31.4152
-31.2754
-31.1526
-30.7829
-46.7965
-46.4555
-46.1566
-45.8474
-45.534
-45.2167
-44.8957
-44.5714
-44.2441
-43.9147
-43.5832
-43.2504
-42.9166
-42.582
-42.2464
-41.9095
-41.5709
-41.2296
-40.885
-40.5359
-40.1815
-39.8202
-39.4509
-39.0726
-38.6845
-38.2857
-37.8758
-37.4546
-37.0222
-36.5786
-36.1242
-35.6594
-35.1847
-34.7009
-34.2088
-33.71
-33.2069
-32.7044
-32.2099
-31.7348
-31.2901
-30.9113
-30.6497
-46.1725
-45.8587
-45.5792
-45.2895
-44.996
-44.6992
-44.3992
-44.0966
-43.7914
-43.4841
-43.1748
-42.8638
-42.5518
-42.2383
-41.9232
-41.6062
-41.2866
-40.9636
-40.6369
-40.3054
-39.9683
-39.6243
-39.2728
-38.9124
-38.5421
-38.161
-37.7685
-37.3641
-36.9477
-36.519
-36.0786
-35.627
-35.1651
-34.6941
-34.2156
-33.733
-33.2502
-32.7729
-32.3103
-31.8749
-31.4653
-31.0499
-30.739
-45.6309
-45.325
-45.0555
-44.7764
-44.4927
-44.2047
-43.9118
-43.6141
-43.3116
-43.0037
-42.6903
-42.371
-42.0464
-41.7161
-41.38
-41.0384
-40.6909
-40.3373
-39.9775
-39.6118
-39.2406
-38.8635
-38.4806
-38.0917
-37.6967
-37.2949
-36.8865
-36.4714
-36.0496
-35.6219
-35.1886
-34.7506
-34.3093
-33.8664
-33.4239
-32.9848
-32.5526
-32.1321
-31.73
-31.3559
-31.0115
-30.6411
-30.3923
-45.1414
-44.8537
-44.5975
-44.3312
-44.06
-43.7847
-43.5041
-43.2187
-42.9286
-42.6331
-42.3314
-42.0233
-41.709
-41.3887
-41.0622
-40.7298
-40.3904
-40.0439
-39.6898
-39.3284
-38.9596
-38.5838
-38.2012
-37.8116
-37.4146
-37.0097
-36.5967
-36.1752
-35.7459
-35.3095
-34.8671
-34.4202
-33.971
-33.5218
-33.0761
-32.6383
-32.2129
-31.8051
-31.4205
-31.0643
-30.7405
-30.3844
-30.1577
-44.7168
-44.4426
-44.2004
-43.9481
-43.6912
-43.4306
-43.1642
-42.8929
-42.6178
-42.338
-42.0517
-41.7583
-41.4576
-41.1506
-40.8374
-40.5185
-40.1929
-39.8597
-39.5177
-39.1671
-38.8073
-38.4397
-38.065
-37.6834
-37.2949
-36.8986
-36.4934
-36.0781
-35.6534
-35.2197
-34.7783
-34.3317
-33.8817
-33.4301
-32.9825
-32.5469
-32.1322
-31.7452
-31.3854
-31.047
-30.7303
-30.3648
-30.1141
-44.3481
-44.0825
-43.8524
-43.6121
-43.3675
-43.1206
-42.8667
-42.6054
-42.3423
-42.0758
-41.8022
-41.5199
-41.2282
-40.9279
-40.6219
-40.3103
-39.9925
-39.6669
-39.3317
-38.9855
-38.6282
-38.2607
-37.8853
-37.5035
-37.1167
-36.7235
-36.3208
-35.9085
-35.4851
-35.05
-34.6034
-34.1529
-33.7014
-33.2476
-32.7923
-32.349
-31.9362
-31.5758
-31.2857
-31.0239
-30.7517
-30.4227
-30.1624
-44.0135
-43.7663
-43.5493
-43.3198
-43.0853
-42.8538
-42.6146
-42.3595
-42.1065
-41.8553
-41.5979
-41.3293
-41.0482
-40.7513
-40.4509
-40.147
-39.8392
-39.5273
-39.2072
-38.873
-38.5244
-38.1603
-37.788
-37.4123
-37.0394
-36.6681
-36.2904
-35.8958
-35.4957
-35.0883
-34.6559
-34.2162
-33.7784
-33.3312
-32.8616
-32.4009
-31.9893
-31.6511
-31.4163
-31.2353
-30.9565
-30.6159
-30.1865
-43.697
-43.4785
-43.2705
-43.0458
-42.8115
-42.5973
-42.3776
-42.1147
-41.8598
-41.6188
-41.3709
-41.1215
-40.8607
-40.5603
-40.2555
-39.9435
-39.6262
-39.3086
-38.9897
-38.6554
-38.3119
-37.9285
-37.5219
-37.0987
-36.6733
-36.2623
-35.8594
-35.46
-35.0037
-34.5675
-34.079
-33.5947
-33.1562
-32.746
-32.2356
-31.6504
-31.0661
-30.5973
-30.6845
-31.0036
-30.7247
-30.9329
-30.4816
-29.805
-28.899
-27.866
-26.981
-26.1742
-25.4387
-24.7636
-24.1395
-23.5592
-23.0162
-22.5039
-22.0174
-21.5539
-21.1093
-20.682
-20.2694
-19.8706
-19.484
-19.1091
-18.7454
-18.3911
-18.0467
-17.7118
-17.3853
-17.0674
-16.7581
-16.4565
-16.1629
-15.8765
-15.5978
-15.3259
-15.0606
-14.8023
-14.5499
-14.3036
-14.0628
-13.8271
-13.5963
-13.3695
-13.1471
-12.9282
-12.7083
-12.47
-30.1512
-29.6476
-28.9809
-28.3336
-27.6636
-27.0058
-26.3674
-25.7536
-25.1668
-24.607
-24.0727
-23.5615
-23.0734
-22.6042
-22.154
-21.7195
-21.2998
-20.8936
-20.4996
-20.117
-19.7441
-19.3802
-19.0247
-18.6767
-18.3359
-18.0014
-17.6727
-17.3502
-17.032
-16.7199
-16.4119
-16.109
-15.811
-15.517
-15.2283
-14.9441
-14.6646
-14.3905
-14.1212
-13.8584
-13.6037
-13.3548
-13.1001
-30.1263
-29.5294
-28.8917
-28.2878
-27.6749
-27.074
-26.4846
-25.911
-25.3551
-24.8184
-24.301
-23.8026
-23.3228
-22.8608
-22.4157
-21.9857
-21.5709
-21.1693
-20.7805
-20.4036
-20.0376
-19.6813
-19.3344
-18.9964
-18.6661
-18.3432
-18.0274
-17.718
-17.4139
-17.1158
-16.8223
-16.5341
-16.2496
-15.9697
-15.6937
-15.421
-15.1519
-14.8865
-14.6244
-14.3663
-14.1137
-13.8632
-13.5901
-29.8706
-29.3171
-28.724
-28.1409
-27.5525
-26.976
-26.4102
-25.859
-25.3241
-24.8064
-24.3056
-23.8226
-23.3564
-22.907
-22.4732
-22.0542
-21.6499
-21.2583
-20.8798
-20.5124
-20.1564
-19.81
-19.4731
-19.1449
-18.8251
-18.513
-18.2086
-17.9108
-17.6193
-17.3341
-17.0545
-16.7804
-16.5114
-16.2475
-15.9881
-15.7328
-15.4816
-15.2345
-14.9911
-14.7514
-14.5167
-14.2836
-14.0319
-29.6892
-29.1803
-28.6347
-28.0849
-27.5279
-26.9763
-26.4322
-25.8994
-25.3806
-24.8765
-24.3887
-23.9171
-23.4617
-23.0223
-22.5982
-22.1887
-21.793
-21.4102
-21.04
-20.6807
-20.3326
-19.9943
-19.665
-19.3441
-19.0326
-18.7284
-18.4328
-18.1437
-17.8603
-17.5833
-17.3126
-17.0474
-16.7887
-16.5342
-16.2852
-16.0399
-15.7994
-15.5632
-15.3313
-15.1037
-14.8819
-14.6628
-14.4254
-29.6275
-29.1119
-28.5737
-28.0364
-27.4967
-26.9619
-26.4344
-25.9166
-25.4108
-24.9178
-24.4398
-23.9768
-23.5296
-23.0989
-22.6832
-22.282
-21.894
-21.5188
-21.1559
-20.8053
-20.4639
-20.1326
-19.8098
-19.497
-19.1938
-18.8987
-18.6124
-18.332
-18.0567
-17.7891
-17.5281
-17.2739
-17.0259
-16.7823
-16.5431
-16.3082
-16.0782
-15.853
-15.6322
-15.416
-15.2058
-14.999
-14.7723
-29.6281
-29.0689
-28.51
-27.9704
-27.4422
-26.9209
-26.4067
-25.8976
-25.3959
-24.9074
-24.4373
-23.9829
-23.5462
-23.1255
-22.7195
-22.3271
-21.9476
-21.5795
-21.2235
-20.882
-20.5482
-20.2236
-19.9089
-19.6037
-19.3075
-19.0216
-18.7467
-18.4761
-18.207
-17.9484
-17.6979
-17.4562
-17.2198
-16.987
-16.7569
-16.5334
-16.3145
-16.1006
-15.891
-15.6867
-15.489
-15.2956
-15.0716
-29.5084
-28.9312
-28.386
-27.8858
-27.376
-26.8664
-26.3671
-25.8737
-25.3848
-24.9156
-24.4565
-24.0116
-23.5807
-23.1684
-22.7734
-22.391
-22.0128
-21.6453
-21.301
-20.9801
-20.6507
-20.3208
-20.0019
-19.6995
-19.4139
-19.151
-18.8926
-18.6157
-18.3353
-18.0888
-17.8533
-17.6209
-17.3954
-17.1688
-16.9436
-16.7275
-16.5164
-16.3142
-16.1129
-15.918
-15.7313
-15.5544
-15.3435
-29.6355
-28.9164
-28.291
-27.7829
-27.3146
-26.844
-26.3894
-25.8866
-25.3513
-24.8188
-24.3556
-23.8922
-23.4887
-23.1071
-22.7267
-22.3407
-21.9531
-21.6104
-21.3041
-20.9907
-20.5946
-20.2393
-19.9699
-19.7138
-19.4682
-19.2239
-18.9205
-18.593
-18.3272
-18.1786
-17.9333
-17.7169
-17.5046
-17.286
-17.0597
-16.8657
-16.6808
-16.5069
-16.3047
-16.1349
-15.9767
-15.8336
-15.6578
302.935
273.968
246.699
223.329
202.588
183.592
166.381
150.903
137.089
124.776
113.829
104.12
95.4982
87.829
80.9887
74.8585
69.34
64.3416
59.7895
55.6129
51.7569
48.1727
44.8179
41.6651
38.6816
35.8461
33.1393
30.5488
28.0593
25.6635
23.3508
21.118
18.955
16.8604
14.8288
12.8569
10.9415
9.07853
7.26669
5.50011
3.76708
2.10851
0.889894
135.315
133.348
131.301
127.542
122.832
117.671
112.31
106.882
101.469
96.1364
90.93
85.8834
81.0216
76.3532
71.8931
67.6344
63.5771
59.722
56.052
52.5601
49.2397
46.0755
43.0545
40.1698
37.4069
34.7591
32.2136
29.7652
27.4034
25.122
22.9165
20.7796
18.7075
16.695
14.7386
12.8359
10.9823
9.17681
7.41708
5.69826
4.00479
2.38446
1.25915
92.6075
95.2694
97.0761
97.79
97.738
96.998
95.6244
93.6962
91.3059
88.5406
85.4829
82.2063
78.7743
75.2433
71.6647
68.0771
64.5103
60.9975
57.554
54.1917
50.9287
47.7635
44.7044
41.7502
38.8987
36.1508
33.4986
30.9421
28.475
26.0908
23.7896
21.5614
19.4067
17.3183
15.2935
13.33
11.4214
9.56837
7.76547
6.00941
4.28461
2.6297
1.47536
98.9693
99.0381
97.7065
96.1515
94.4699
92.6127
90.5572
88.3137
85.8989
83.3301
80.6261
77.809
74.8986
71.9186
68.8879
65.8267
62.7538
59.6854
56.6358
53.617
50.6424
47.7161
44.8496
42.0451
39.3074
36.6399
34.0422
31.516
29.0605
26.6734
24.3563
22.1043
19.918
17.7941
15.7298
13.7249
11.7742
9.87879
8.03489
6.23887
4.47586
2.78003
1.55962
87.0771
86.6874
85.6225
84.5033
83.2496
81.8557
80.3296
78.6786
76.9053
75.0128
73.0061
70.8916
68.6769
66.372
63.9901
61.5395
59.0375
56.4922
53.9186
51.3292
48.7348
46.1451
43.5699
41.0177
38.4946
36.0086
33.5619
31.1607
28.8065
26.5015
24.2487
22.0461
19.896
17.7981
15.7506
13.755
11.8089
9.91157
8.06369
6.26048
4.49037
2.785
1.51532
72.5215
72.4608
72.219
71.8941
71.4087
70.7704
69.9825
69.0474
67.9654
66.7422
65.3827
63.8934
62.281
60.5556
58.7259
56.8018
54.7959
52.7161
50.5765
48.387
46.1583
43.9021
41.6274
39.3441
37.0589
34.7837
32.5192
30.277
28.0592
25.8696
23.715
21.5943
19.5129
17.4708
15.4701
13.5108
11.594
9.71972
7.88827
6.09826
4.33906
2.63748
1.32293
63.523
63.5202
63.4163
63.2059
62.8826
62.4503
61.9059
61.2462
60.4698
59.5775
58.5709
57.4504
56.2206
54.8855
53.4495
51.9187
50.3005
48.6002
46.8274
44.9898
43.0945
41.1526
39.1699
37.1566
35.1198
33.0694
31.0087
28.9482
26.8931
24.8465
22.8172
20.807
18.8201
16.8587
14.928
13.0278
11.1598
9.32778
7.53002
5.76784
4.0325
2.34148
0.967715
56.3945
56.373
56.257
56.046
55.759
55.3965
54.9544
54.4297
53.8204
53.1241
52.3388
51.4628
50.4974
49.4413
48.2967
47.0652
45.7509
44.3559
42.8863
41.3467
39.7419
38.0797
36.3653
34.6066
32.8092
30.981
29.129
27.2583
25.3769
23.4888
21.601
19.718
17.8447
15.9843
14.1416
12.319
10.5194
8.74504
6.9981
5.27867
3.58141
1.91674
0.49842
49.4572
49.468
49.4069
49.2701
49.074
48.8168
48.4951
48.1069
47.6496
47.1199
46.5159
45.8362
45.0794
44.2439
43.3293
42.3367
41.2667
40.1203
38.9015
37.612
36.256
34.8377
33.3609
31.8321
30.2559
28.6377
26.9849
25.3009
23.5936
21.8672
20.1287
18.3814
16.6322
14.8843
13.1424
11.4101
9.69156
7.98867
6.30507
4.64227
2.99447
1.37329
-0.0390002
43.1201
43.1745
43.1665
43.0978
42.9795
42.8105
42.5876
42.3084
41.9699
41.5706
41.1082
40.5807
39.986
39.3225
38.589
37.7856
36.912
35.9682
34.9551
33.8748
32.7287
31.5199
30.2514
28.9266
27.5496
26.1248
24.657
23.1507
21.6119
20.0447
18.4546
16.8462
15.225
13.596
11.9622
10.3291
8.70006
7.07931
5.46913
3.87404
2.29146
0.733867
-0.629175
37.564
37.6283
37.6364
37.5983
37.5206
37.4021
37.2397
37.0307
36.7739
36.4664
36.1064
35.6912
35.219
34.6872
34.0946
33.4402
32.7232
31.9426
31.0986
30.1916
29.2221
28.1919
27.103
25.9569
24.7565
23.5062
22.2082
20.8666
19.4865
18.0708
16.6253
15.1543
13.6611
12.1516
10.6301
9.1
7.56607
6.03267
4.50223
2.97778
1.45874
-0.041901
-1.36605
32.4333
32.5194
32.5496
32.5417
32.4992
32.4215
32.3071
32.1546
31.9613
31.7254
31.4449
31.1177
30.7417
30.3144
29.8341
29.2997
28.7093
28.0623
27.3575
26.5947
25.7739
24.8958
23.9608
22.9705
21.9261
20.8305
19.6861
18.495
17.262
15.9887
14.6806
13.3409
11.9734
10.5826
9.17275
7.74745
6.31141
4.86853
3.42289
1.97729
0.532948
-0.896364
-2.1279
27.7164
27.8099
27.8504
27.8624
27.8461
27.8009
27.7253
27.6171
27.4747
27.2966
27.08
26.8234
26.5248
26.1818
25.7925
25.3559
24.8697
24.3326
23.7436
23.1015
22.4064
21.6576
20.8552
19.9999
19.0923
18.1339
17.127
16.0723
14.9734
13.8325
12.653
11.4376
10.1902
8.91459
7.61431
6.2928
4.95493
3.60336
2.2427
0.876072
-0.497886
-1.87284
-3.09534
23.3106
23.4154
23.469
23.5006
23.5078
23.4901
23.4464
23.3747
23.2739
23.1421
22.9778
22.7784
22.5428
22.2685
21.9543
21.5981
21.198
20.7523
20.2601
19.7202
19.1314
18.4929
17.805
17.0671
16.2791
15.4419
14.5573
13.6257
12.6486
11.629
10.5688
9.47002
8.3364
7.1706
5.97643
4.75623
3.5147
2.25419
0.979264
-0.307597
-1.60744
-2.9178
-4.11235
19.2084
19.3194
19.3808
19.4258
19.4501
19.4534
19.4349
19.3925
19.325
19.231
19.109
18.9568
18.773
18.5556
18.3031
18.0138
17.6855
17.3167
16.9065
16.4529
15.9548
15.4113
14.8217
14.1858
13.503
12.7729
11.9969
11.1753
10.309
9.39975
8.44934
7.45911
6.43215
5.37022
4.27738
3.15512
2.00738
0.836929
-0.352585
-1.5586
-2.78086
-4.0188
-5.17298
15.3278
15.4509
15.5237
15.5824
15.6236
15.6461
15.6496
15.6326
15.5934
15.5314
15.4453
15.3331
15.1928
15.0233
14.8231
14.5899
14.3224
14.0189
13.6781
13.2983
12.8781
12.4165
11.9124
11.3651
10.7745
10.139
9.45991
8.73683
7.97033
7.16159
6.31171
5.42167
4.49403
3.52989
2.53289
1.50417
0.447168
-0.635493
-1.74118
-2.86637
-4.01151
-5.17699
-6.28981
11.6832
11.8133
11.8913
11.9594
12.012
12.0493
12.0705
12.074
12.0587
12.0235
11.9673
11.8882
11.7847
11.6558
11.4996
11.3145
11.0985
10.8505
10.5694
10.2533
9.90015
9.50956
9.08005
8.61063
8.10059
7.54893
6.95571
6.32117
5.64466
4.92716
4.1689
3.37142
2.53564
1.66315
0.75636
-0.18351
-1.15365
-2.15164
-3.17485
-4.22029
-5.28671
-6.37306
-7.42171
8.20606
8.35021
8.43722
8.51562
8.58086
8.63222
8.66963
8.69175
8.697
8.68499
8.65457
8.60385
8.53211
8.43792
8.31967
8.17555
8.00412
7.80402
7.5743
7.31272
7.01804
6.68939
6.32505
5.92407
5.48546
5.00798
4.49181
3.93628
3.3408
2.70584
2.03141
1.31868
0.568056
-0.219183
-1.04141
-1.8973
-2.78492
-3.70177
-4.64564
-5.61455
-6.60661
-7.62114
-8.60611
4.91236
5.0627
5.15316
5.24011
5.31576
5.37938
5.4302
5.46814
5.49157
5.49983
5.49134
5.46545
5.42108
5.35649
5.27071
5.1624
5.0297
4.87122
4.68601
4.47227
4.22868
3.9541
3.64697
3.30626
2.93074
2.51958
2.07212
1.58752
1.06507
0.505151
-0.0928512
-0.727874
-1.39987
-2.10807
-2.85148
-3.62846
-4.43772
-5.27701
-6.14474
-7.03791
-7.95355
-8.88972
-9.79934
1.79872
1.94573
2.03622
2.12796
2.21006
2.28199
2.34334
2.39342
2.43114
2.4559
2.46614
2.46148
2.44019
2.40131
2.34366
2.26605
2.16665
2.04452
1.89826
1.72655
1.52779
1.30083
1.04428
0.756861
0.43756
0.0853131
-0.300727
-0.721495
-1.17779
-1.66969
-2.19791
-2.76173
-3.36131
-3.99627
-4.66621
-5.3693
-6.10495
-6.87136
-7.66748
-8.4907
-9.33829
-10.2111
-11.1228
-1.20038
-1.0514
-0.956137
-0.85754
-0.767676
-0.68657
-0.614906
-0.553433
-0.502521
-0.463051
-0.43605
-0.422626
-0.423334
-0.439735
-0.472606
-0.523397
-0.593037
-0.683377
-0.79539
-0.930151
-1.08931
-1.27394
-1.48576
-1.72559
-1.99457
-2.29421
-2.6251
-2.98821
-3.38462
-3.81487
-4.27918
-4.77793
-5.31084
-5.8781
-6.47928
-7.11345
-7.78005
-8.47775
-9.20608
-9.96399
-10.7498
-11.5637
-12.4299
-4.05485
-3.91079
-3.81585
-3.71454
-3.6204
-3.53275
-3.45326
-3.38203
-3.3199
-3.26757
-3.22601
-3.19614
-3.17874
-3.17538
-3.18671
-3.2134
-3.25704
-3.31922
-3.40055
-3.50281
-3.62685
-3.77382
-3.94543
-4.14268
-4.36677
-4.61907
-4.9002
-5.21147
-5.5537
-5.92769
-6.33373
-6.77255
-7.24406
-7.74869
-8.28592
-8.85547
-9.457
-10.0892
-10.7518
-11.4442
-12.1645
-12.9106
-13.686
-6.82793
-6.68205
-6.58145
-6.47384
-6.37265
-6.27723
-6.1887
-6.10766
-6.03477
-5.97013
-5.91517
-5.87018
-5.83646
-5.81518
-5.80648
-5.81166
-5.83236
-5.86928
-5.92343
-5.99618
-6.08883
-6.2023
-6.33803
-6.49701
-6.68075
-6.8902
-7.12653
-7.39061
-7.68352
-8.00631
-8.35928
-8.74292
-9.15783
-9.60447
-10.0824
-10.5914
-11.1313
-11.7009
-12.2992
-12.9244
-13.5727
-14.2394
-14.8552
-9.50267
-9.35419
-9.24887
-9.13528
-9.02745
-8.92436
-8.82742
-8.73708
-8.65367
-8.57777
-8.51022
-8.45159
-8.40326
-8.36557
-8.3391
-8.32505
-8.32482
-8.3392
-8.36869
-8.41499
-8.47928
-8.56271
-8.66612
-8.79083
-8.93806
-9.10891
-9.30451
-9.52575
-9.77368
-10.0496
-10.3539
-10.6871
-11.0499
-11.4428
-11.8657
-12.3186
-12.8013
-13.3132
-13.8533
-14.4203
-15.0113
-15.6304
-16.256
-12.0795
-11.9281
-11.819
-11.7002
-11.5868
-11.4772
-11.3728
-11.2742
-11.1815
-11.0956
-11.0168
-10.9461
-10.8845
-10.8323
-10.79
-10.7587
-10.7397
-10.7334
-10.741
-10.7638
-10.8026
-10.8585
-10.9326
-11.0263
-11.1405
-11.2763
-11.4349
-11.6172
-11.8242
-12.0573
-12.3167
-12.6036
-12.9185
-13.2617
-13.6336
-14.0343
-14.464
-14.9222
-15.408
-15.9206
-16.4586
-17.0245
-17.5604
-14.5331
-14.386
-14.2786
-14.1597
-14.0446
-13.9321
-13.8236
-13.7196
-13.6203
-13.5265
-13.4389
-13.3581
-13.2847
-13.2197
-13.1636
-13.117
-13.0811
-13.0564
-13.0445
-13.0459
-13.0617
-13.093
-13.1408
-13.2062
-13.2902
-13.3941
-13.519
-13.6656
-13.8352
-14.029
-14.2473
-14.4914
-14.7619
-15.0593
-15.3839
-15.7362
-16.1165
-16.5244
-16.9593
-17.4207
-17.9083
-18.4267
-18.9229
-16.9468
-16.7944
-16.6803
-16.5548
-16.4343
-16.3161
-16.2014
-16.0907
-15.9842
-15.8826
-15.7865
-15.6958
-15.6117
-15.535
-15.4662
-15.4056
-15.3542
-15.313
-15.2831
-15.2651
-15.2599
-15.2688
-15.2927
-15.3324
-15.3889
-15.4636
-15.5578
-15.672
-15.8072
-15.9646
-16.1452
-16.3498
-16.5793
-16.8341
-17.1149
-17.4223
-17.7564
-18.1174
-18.5053
-18.9199
-19.3622
-19.8419
-20.329
-19.2492
-19.1037
-18.9915
-18.8658
-18.7439
-18.6228
-18.5041
-18.3883
-18.2757
-18.1676
-18.0634
-17.9641
-17.8701
-17.7826
-17.702
-17.6288
-17.5635
-17.5073
-17.461
-17.4253
-17.4011
-17.3893
-17.3912
-17.4072
-17.4387
-17.4869
-17.5526
-17.6369
-17.7406
-17.8648
-18.0105
-18.1787
-18.3702
-18.5855
-18.8254
-19.0905
-19.3815
-19.6984
-20.0415
-20.4109
-20.8075
-21.241
-21.697
-21.5032
-21.3569
-21.2418
-21.1131
-20.9877
-20.8626
-20.7398
-20.6189
-20.5007
-20.3859
-20.2744
-20.1669
-20.0643
-19.9669
-19.8754
-19.7903
-19.7126
-19.6427
-19.5811
-19.5292
-19.4876
-19.4571
-19.4387
-19.4334
-19.4419
-19.4655
-19.5051
-19.5617
-19.6365
-19.7299
-19.8433
-19.9778
-20.134
-20.3125
-20.5142
-20.7398
-20.99
-21.2651
-21.5654
-21.8906
-22.2415
-22.626
-23.0402
-23.7156
-23.5614
-23.4411
-23.3076
-23.1769
-23.0466
-22.9178
-22.7908
-22.6663
-22.5445
-22.4255
-22.3104
-22.1993
-22.0927
-21.991
-21.8949
-21.8052
-21.7224
-21.6471
-21.5801
-21.5223
-21.4745
-21.4377
-21.4126
-21.3999
-21.4009
-21.4165
-21.4478
-21.4956
-21.5607
-21.644
-21.747
-21.8704
-22.0145
-22.1806
-22.3693
-22.5811
-22.8167
-23.0762
-23.3595
-23.6671
-24.0062
-24.3772
-25.83
-25.6795
-25.562
-25.4287
-25.2964
-25.1634
-25.031
-24.8998
-24.7703
-24.6429
-24.518
-24.3957
-24.2766
-24.1616
-24.0508
-23.9446
-23.844
-23.7493
-23.6611
-23.5805
-23.5081
-23.4444
-23.3903
-23.3468
-23.3146
-23.2949
-23.2883
-23.2957
-23.3185
-23.3574
-23.413
-23.4867
-23.5794
-23.6916
-23.8243
-23.9784
-24.1543
-24.3524
-24.5734
-24.8168
-25.0826
-25.3766
-25.699
-27.8973
-27.7474
-27.629
-27.4932
-27.3584
-27.2225
-27.0868
-26.9517
-26.8175
-26.6852
-26.5546
-26.4258
-26.3
-26.1773
-26.0579
-25.9425
-25.8319
-25.7263
-25.6265
-25.533
-25.4467
-25.3684
-25.2986
-25.238
-25.1877
-25.1486
-25.1215
-25.1071
-25.1067
-25.1208
-25.1506
-25.1972
-25.2614
-25.3437
-25.4451
-25.5666
-25.7087
-25.872
-26.0571
-26.264
-26.4927
-26.7499
-27.0428
-29.9077
-29.7597
-29.6412
-29.5048
-29.3683
-29.2296
-29.0905
-28.9516
-28.8133
-28.6761
-28.54
-28.4054
-28.2728
-28.1429
-28.0157
-27.8917
-27.7717
-27.656
-27.5453
-27.44
-27.3411
-27.249
-27.1644
-27.0881
-27.021
-26.9637
-26.9175
-26.8829
-26.8608
-26.8521
-26.8578
-26.8789
-26.9162
-26.9705
-27.0427
-27.1337
-27.2441
-27.3746
-27.526
-27.6986
-27.893
-28.1159
-28.3809
-31.8702
-31.7241
-31.6051
-31.4673
-31.3286
-31.1871
-31.0451
-30.9024
-30.7599
-30.618
-30.4769
-30.3368
-30.1979
-30.0611
-29.9264
-29.7945
-29.666
-29.5407
-29.4198
-29.3035
-29.1926
-29.0877
-28.9896
-28.8986
-28.8157
-28.7417
-28.6776
-28.624
-28.5819
-28.5519
-28.535
-28.5323
-28.5444
-28.5723
-28.6172
-28.6794
-28.7598
-28.8594
-28.9786
-29.1183
-29.2791
-29.468
-29.7123
-33.8029
-33.6517
-33.5295
-33.3888
-33.2464
-33.1014
-32.9552
-32.8086
-32.6615
-32.5146
-32.3684
-32.2226
-32.078
-31.9349
-31.793
-31.6534
-31.5166
-31.3825
-31.252
-31.1255
-31.0035
-30.8866
-30.7757
-30.6712
-30.5736
-30.4839
-30.4032
-30.3318
-30.2709
-30.2208
-30.1829
-30.1579
-30.1465
-30.1497
-30.1685
-30.2034
-30.2554
-30.3255
-30.4141
-30.5218
-30.6489
-30.8025
-31.0214
-35.6585
-35.5133
-35.3941
-35.2535
-35.1107
-34.9643
-34.8158
-34.6665
-34.5161
-34.3654
-34.2147
-34.0641
-33.9142
-33.7648
-33.6168
-33.4701
-33.3255
-33.1834
-33.044
-32.9078
-32.7755
-32.6475
-32.5245
-32.4071
-32.2959
-32.1917
-32.0952
-32.0072
-31.9286
-31.8598
-31.8021
-31.7562
-31.7227
-31.7025
-31.6968
-31.7061
-31.7312
-31.7729
-31.8321
-31.9086
-32.0023
-32.1218
-32.3133
-37.499
-37.3502
-37.2268
-37.0831
-36.9369
-36.7873
-36.6358
-36.483
-36.329
-36.1744
-36.0194
-35.8642
-35.709
-35.5541
-35.4
-35.2467
-35.0949
-34.9451
-34.7973
-34.652
-34.5099
-34.3715
-34.2375
-34.108
-33.984
-33.8662
-33.755
-33.6514
-33.5561
-33.4697
-33.3934
-33.3277
-33.2732
-33.2311
-33.2023
-33.1874
-33.1872
-33.2025
-33.2342
-33.2827
-33.3468
-33.4341
-33.6447
-39.2715
-39.126
-39.0057
-38.8627
-38.7163
-38.5657
-38.4125
-38.2571
-38.1003
-37.9425
-37.7837
-37.6242
-37.464
-37.3041
-37.1443
-36.985
-36.8265
-36.6693
-36.5137
-36.36
-36.2087
-36.0607
-35.916
-35.7752
-35.6392
-35.5086
-35.3837
-35.2654
-35.1544
-35.0514
-34.9576
-34.8732
-34.7991
-34.7363
-34.6856
-34.6476
-34.6232
-34.6132
-34.6177
-34.6371
-34.6703
-34.7183
-34.8106
-41.0185
-40.8735
-40.7518
-40.6072
-40.4587
-40.3062
-40.1507
-39.993
-39.8333
-39.6722
-39.5097
-39.3461
-39.1816
-39.0166
-38.8517
-38.6866
-38.5218
-38.3578
-38.1946
-38.033
-37.8733
-37.7159
-37.5614
-37.41
-37.2626
-37.1198
-36.982
-36.8499
-36.7242
-36.6057
-36.4951
-36.3933
-36.3007
-36.2184
-36.147
-36.0872
-36.0402
-36.0062
-35.986
-35.9797
-35.9873
-36.0119
-36.0811
-42.7484
-42.5986
-42.4727
-42.324
-42.1719
-42.0161
-41.8571
-41.6957
-41.5323
-41.3672
-41.2007
-41.0328
-40.8638
-40.6942
-40.524
-40.3533
-40.1825
-40.0119
-39.8419
-39.6728
-39.5049
-39.3387
-39.1747
-39.0135
-38.8553
-38.701
-38.551
-38.4059
-38.2665
-38.1332
-38.0069
-37.8884
-37.7784
-37.6777
-37.5867
-37.5065
-37.4381
-37.3819
-37.3387
-37.309
-37.2937
-37.2987
-37.363
-44.4068
-44.2608
-44.1385
-43.9918
-43.8399
-43.6834
-43.5229
-43.3595
-43.1938
-43.0258
-42.856
-42.6845
-42.5115
-42.3376
-42.1624
-41.9864
-41.8098
-41.633
-41.4563
-41.2801
-41.1047
-40.9303
-40.7576
-40.5868
-40.4186
-40.2532
-40.0919
-39.9345
-39.7819
-39.6347
-39.4936
-39.3594
-39.2328
-39.1145
-39.0051
-38.9057
-38.8169
-38.7394
-38.6739
-38.6213
-38.5821
-38.5637
-38.6086
-46.0426
-45.8973
-45.7742
-45.6261
-45.4732
-45.3153
-45.1534
-44.9882
-44.8203
-44.6497
-44.4769
-44.3021
-44.1255
-43.9474
-43.7679
-43.587
-43.4052
-43.2226
-43.0395
-42.8565
-42.674
-42.4918
-42.3105
-42.1309
-41.9531
-41.7777
-41.6053
-41.4362
-41.2712
-41.1109
-40.9559
-40.8068
-40.6646
-40.5294
-40.4026
-40.2847
-40.1764
-40.0785
-39.9916
-39.9164
-39.8537
-39.8092
-39.8258
-47.6668
-47.5168
-47.3899
-47.2391
-47.083
-46.9218
-46.757
-46.5886
-46.4173
-46.2436
-46.0674
-45.8891
-45.7085
-45.5263
-45.3423
-45.1567
-44.9697
-44.7816
-44.5926
-44.4031
-44.2137
-44.0242
-43.835
-43.647
-43.46
-43.275
-43.0921
-42.912
-42.7354
-42.5625
-42.3943
-42.2311
-42.0739
-41.923
-41.7796
-41.644
-41.5171
-41.3996
-41.2921
-41.1949
-41.1083
-41.0387
-41.0276