/*--------------------------------*- C++ -*----------------------------------*\
| =========                 |                                                 |
| \\      /  F ield         | OpenFOAM: The Open Source CFD Toolbox           |
|  \\    /   O peration     | Version:  2.3.0                                 |
|   \\  /    A nd           | Web:      www.OpenFOAM.org                      |
|    \\/     M anipulation  |                                                 |
\*---------------------------------------------------------------------------*/
FoamFile
{
    version     2.0;
    format      ascii;
    class       surfaceScalarField;
    location    "4000";
    object      phi;
}
// * * * * * * * * * * * * * * * * * * * * * * * * * * * * * * * * * * * * * //

dimensions      [0 3 -1 0 0 0 0];

internalField   nonuniform List<scalar> 
76160
(
0.00100851
-0.00545029
0.00592141
-0.00147964
0.000577239
-0.00523787
0.00566914
0.000184419
-0.00503387
0.00542669
-0.000171237
-0.00483807
0.00519372
-0.000491701
-0.00464966
0.00497012
-0.000777682
-0.00446914
0.00475512
-0.00103134
-0.00429536
0.00454902
-0.00125367
-0.00412881
0.00435114
-0.00144615
-0.00396844
0.00416092
-0.00160994
-0.00381453
0.00397832
-0.00174623
-0.00366659
0.00380289
-0.00185614
-0.0035244
0.00363431
-0.00194114
-0.00338759
0.00347259
-0.00200183
-0.00325629
0.00331698
-0.00203922
-0.00312991
0.0031673
-0.00205454
-0.00300838
0.00302369
-0.00204885
-0.00289136
0.00288567
-0.00202247
-0.00277892
0.00275254
-0.00197628
-0.0026708
0.00262462
-0.00191122
-0.00256665
0.00250159
-0.001828
-0.00246615
0.00238293
-0.00172675
-0.00236973
0.00226848
-0.00160812
-0.00227668
0.00215805
-0.00147277
-0.00218681
0.00205147
-0.00132079
-0.00210037
0.00194839
-0.0011524
-0.00201692
0.00184853
-0.000967837
-0.00193632
0.00175175
-0.00076696
-0.00185859
0.00165771
-0.000549807
-0.00178341
0.00156625
-0.000315904
-0.00171094
0.00147704
-6.48641e-05
-0.00164096
0.00138992
0.000203937
-0.00157354
0.00130474
0.0004914
-0.00150847
0.00122101
0.000798596
-0.00144607
0.00113887
0.00112676
-0.0013862
0.00105804
0.00147868
-0.00132979
0.000977874
0.00185659
-0.00127667
0.00089876
0.00226422
-0.00122739
0.00081976
0.00270628
-0.00118377
0.000741715
0.00318975
-0.00114612
0.000662649
0.0037267
-0.0011194
0.000582442
0.00434424
-0.0011082
0.000490671
-0.00112828
0.00515572
0.000316804
0.000942963
-0.00502217
-0.00137108
0.000550921
-0.00484583
0.000194049
-0.004677
-0.000129895
-0.00451412
-0.000421528
-0.00435802
-0.000682915
-0.00420776
-0.00091481
-0.00406347
-0.0011187
-0.00392493
-0.00129557
-0.00379156
-0.00144672
-0.00366338
-0.00157312
-0.0035402
-0.00167586
-0.00342165
-0.00175571
-0.00330774
-0.00181405
-0.00319796
-0.00185139
-0.00309256
-0.0018689
-0.00299087
-0.00186706
-0.0028932
-0.00184703
-0.00279895
-0.00180954
-0.0027083
-0.00175495
-0.00262123
-0.0016841
-0.00253701
-0.00159768
-0.00245615
-0.00149627
-0.00237809
-0.00138002
-0.00230306
-0.0012496
-0.00223079
-0.00110536
-0.00216116
-0.000947537
-0.00209414
-0.00077641
-0.00202971
-0.000591831
-0.00196799
-0.000394084
-0.00190869
-0.000182846
-0.0018522
4.1834e-05
-0.00179822
0.000280758
-0.00174739
0.00053458
-0.00169989
0.000804166
-0.00165579
0.00108992
-0.00161555
0.0013935
-0.00158025
0.00171667
-0.00155056
0.00205953
-0.00152663
0.00242461
-0.00151119
0.00280929
-0.00150408
0.00320887
-0.00150779
-0.00152373
0.00360431
0.000877376
-0.00463317
-0.00126638
0.000521428
-0.00448988
0.000196479
-0.00435205
-9.80278e-05
-0.00421961
-0.000364044
-0.00409201
-0.000602224
-0.00396958
-0.000814107
-0.00385159
-0.00100077
-0.00373826
-0.00116293
-0.0036294
-0.00130188
-0.00352444
-0.0014185
-0.00342358
-0.00151373
-0.00332642
-0.00158836
-0.00323311
-0.00164316
-0.00314316
-0.00167925
-0.00305647
-0.00169708
-0.00297304
-0.00169755
-0.00289273
-0.00168122
-0.00281529
-0.00164887
-0.00274065
-0.00160113
-0.00266897
-0.00153839
-0.00259974
-0.00146139
-0.00253315
-0.00137047
-0.002469
-0.00126641
-0.00240713
-0.00114926
-0.00234794
-0.00101963
-0.00229079
-0.000877683
-0.00223609
-0.0007238
-0.0021836
-0.000558367
-0.00213342
-0.000381272
-0.00208579
-0.000193057
-0.00204042
6.58044e-06
-0.00199786
0.000217195
-0.00195801
0.000438566
-0.00192126
0.000670803
-0.00188802
0.000913643
-0.00185839
0.00116679
-0.0018334
0.00142929
-0.00181306
0.00170056
-0.0017979
0.00197885
-0.00178948
0.00226181
-0.00178704
0.0025458
-0.00179177
-0.00180242
0.00282449
0.000813477
-0.00427996
-0.00116668
0.000489776
-0.00416618
0.000194084
-0.00405636
-7.45052e-05
-0.00395103
-0.000317077
-0.00384944
-0.000534888
-0.00375177
-0.000728916
-0.00365756
-0.000899926
-0.00356725
-0.00104906
-0.00348027
-0.00117725
-0.00339625
-0.00128514
-0.00331569
-0.00137357
-0.00323799
-0.00144379
-0.0031629
-0.00149615
-0.0030908
-0.00153117
-0.00302144
-0.00155009
-0.00295412
-0.00155307
-0.00288974
-0.00154115
-0.00282721
-0.00151457
-0.00276723
-0.00147408
-0.00270946
-0.00142029
-0.00265354
-0.00135376
-0.00259967
-0.00127471
-0.00254805
-0.0011835
-0.00249834
-0.00108094
-0.0024505
-0.000967256
-0.00240448
-0.000842655
-0.00236069
-0.000707578
-0.00231867
-0.00056222
-0.00227878
-0.000406946
-0.00224106
-0.000241895
-0.00220547
-6.74326e-05
-0.00217232
0.000116509
-0.00214195
0.000309412
-0.00211417
0.000510912
-0.00208952
0.000721131
-0.00206861
0.000939133
-0.0020514
0.00116485
-0.00203877
0.00139727
-0.00203032
0.0016349
-0.00202711
0.00187659
-0.00202873
0.0021205
-0.00203569
-0.00204693
0.00236501
0.000751824
-0.00395911
-0.00107268
0.000456887
-0.00387124
0.000187935
-0.00378741
-5.69903e-05
-0.0037061
-0.000278275
-0.00362815
-0.000477249
-0.00355279
-0.000654489
-0.00348032
-0.000811379
-0.00341036
-0.000948385
-0.00334326
-0.00106633
-0.00327831
-0.00116603
-0.00321599
-0.00124831
-0.00315571
-0.00131362
-0.00309759
-0.00136285
-0.00304157
-0.00139689
-0.0029874
-0.00141565
-0.00293536
-0.00142051
-0.00288488
-0.00141148
-0.00283624
-0.00138936
-0.00278935
-0.00135473
-0.0027441
-0.001308
-0.00270027
-0.00124924
-0.00265844
-0.00117956
-0.00261773
-0.00109928
-0.00257861
-0.00100851
-0.00254127
-0.00090747
-0.00250552
-0.000796963
-0.0024712
-0.000676986
-0.00243865
-0.000547909
-0.00240785
-0.000410125
-0.00237884
-0.000263762
-0.00235183
-0.00010912
-0.00232696
5.32254e-05
-0.00230429
0.00022341
-0.00228435
0.000401154
-0.00226727
0.000585726
-0.00225318
0.000776888
-0.00224257
0.000974035
-0.00223592
0.00117656
-0.00223285
0.00138363
-0.00223419
0.00159468
-0.00223978
0.00180836
-0.00224936
-0.00226218
0.0020236
0.000692783
-0.00366681
-0.000985084
0.000424913
-0.00360337
0.000179496
-0.00354199
-4.35807e-05
-0.00348302
-0.000245685
-0.00342605
-0.000427533
-0.00337094
-0.00058984
-0.00331801
-0.000733318
-0.00326688
-0.000859026
-0.00321755
-0.000967275
-0.00317006
-0.00105936
-0.0031239
-0.00113554
-0.00307954
-0.0011964
-0.00303673
-0.00124287
-0.00299509
-0.00127508
-0.0029552
-0.00129397
-0.00291646
-0.00129998
-0.00287888
-0.00129351
-0.0028427
-0.00127516
-0.0028077
-0.0012453
-0.00277395
-0.00120435
-0.00274122
-0.00115308
-0.0027097
-0.00109154
-0.00267928
-0.00102013
-0.00265002
-0.000939428
-0.00262197
-0.000849847
-0.0025951
-0.000751407
-0.00256964
-0.000644596
-0.00254546
-0.000529631
-0.00252282
-0.00040689
-0.00250158
-0.000276522
-0.0024822
-0.000138892
-0.00246459
5.92889e-06
-0.00244912
0.000157365
-0.00243579
0.000315235
-0.00242513
0.000479395
-0.00241734
0.000649111
-0.00241228
0.00082407
-0.00241088
0.00100399
-0.00241277
0.00118806
-0.00241826
0.00137572
-0.00242743
0.00156622
-0.00243987
-0.0024556
0.00175964
0.000637801
-0.00340108
-0.00090353
0.000393513
-0.00335908
0.000170129
-0.00331861
-3.34967e-05
-0.0032794
-0.000217941
-0.0032416
-0.000383695
-0.00320519
-0.000532095
-0.00316961
-0.000663681
-0.0031353
-0.000778886
-0.00310235
-0.000878617
-0.00307033
-0.000963359
-0.00303916
-0.00103374
-0.00300916
-0.00109026
-0.0029802
-0.00113341
-0.00295195
-0.00116404
-0.00292457
-0.0011826
-0.00289791
-0.00118922
-0.00287226
-0.00118456
-0.00284735
-0.00116924
-0.00282303
-0.00114341
-0.00279978
-0.0011076
-0.00277703
-0.00106207
-0.00275523
-0.00100745
-0.00273391
-0.000943953
-0.00271351
-0.000871948
-0.00269398
-0.000791876
-0.00267517
-0.000703947
-0.00265756
-0.000608358
-0.00264105
-0.000505516
-0.00262566
-0.000395541
-0.00261156
-0.000278995
-0.00259875
-0.000155739
-0.00258785
-2.6198e-05
-0.00257866
0.000109363
-0.00257135
0.000250722
-0.00256649
0.000397221
-0.00256384
0.000549339
-0.0025644
0.000705873
-0.00256741
0.00086682
-0.00257371
0.00103179
-0.00258322
0.00120004
-0.00259569
0.00137146
-0.00261129
-0.0026298
0.00154567
0.000585854
-0.00315876
-0.000828176
0.000363389
-0.00313662
0.000159635
-0.00311485
-2.58762e-05
-0.00309389
-0.000193952
-0.00307353
-0.000345521
-0.00305362
-0.000481098
-0.00303403
-0.000601368
-0.00301503
-0.000706935
-0.00299678
-0.000798502
-0.00297876
-0.000876337
-0.00296132
-0.000941128
-0.00294437
-0.000993556
-0.00292778
-0.00103381
-0.00291169
-0.00106257
-0.00289581
-0.00108028
-0.0028802
-0.00108722
-0.00286532
-0.00108396
-0.00285061
-0.00107093
-0.00283606
-0.00104876
-0.00282195
-0.00101701
-0.00280878
-0.000976826
-0.00279542
-0.000928101
-0.00278263
-0.000871273
-0.00277034
-0.000806943
-0.00275831
-0.000735122
-0.00274699
-0.000656172
-0.00273651
-0.000570494
-0.00272673
-0.000478267
-0.00271789
-0.000379499
-0.00271033
-0.000274665
-0.00270358
-0.000164205
-0.00269831
-4.7792e-05
-0.00269507
7.41187e-05
-0.00269326
0.000201003
-0.00269338
0.000332842
-0.00269568
0.000469135
-0.00270069
0.000610153
-0.00270843
0.000754993
-0.00271855
0.000903056
-0.00273129
0.00105477
-0.0027474
0.00120977
-0.0027663
-0.0027872
0.00136717
0.000537001
-0.000756815
-0.00293894
0.000334659
-0.00293428
0.000149419
-0.00292961
-1.98574e-05
-0.00292461
-0.000173676
-0.00291971
-0.000311815
-0.00291548
-0.000435475
-0.00291037
-0.000545419
-0.00290508
-0.000642094
-0.0029001
-0.000725898
-0.00289496
-0.00079731
-0.00288991
-0.000857133
-0.00288454
-0.000905583
-0.00287933
-0.000943022
-0.00287425
-0.000969744
-0.00286909
-0.000986646
-0.0028633
-0.000994185
-0.00285778
-0.000991782
-0.00285302
-0.000980615
-0.00284722
-0.000960849
-0.00284172
-0.000933284
-0.00283634
-0.000897277
-0.00283142
-0.000853625
-0.00282628
-0.000802773
-0.0028212
-0.000744994
-0.00281609
-0.000680265
-0.00281172
-0.000609138
-0.00280764
-0.00053183
-0.00280404
-0.000448862
-0.00280086
-0.000360036
-0.00279915
-0.000265697
-0.00279792
-0.000166044
-0.00279796
-6.0987e-05
-0.00280013
4.9109e-05
-0.00280335
0.00016335
-0.00280762
0.000282079
-0.00281441
0.000405079
-0.00282369
0.000532135
-0.00283549
0.000662483
-0.0028489
0.000796356
-0.00286516
0.000933048
-0.00288409
0.00107298
-0.00290623
0.00121658
-0.0029308
0.00542512
-0.001234
0.000964606
0.0056351
-0.0013963
0.00118631
0.00580374
-0.00153207
0.00136344
0.00594722
-0.00165013
0.00150665
0.00607519
-0.00175434
0.00162637
0.0061907
-0.00184694
0.00173143
0.00629804
-0.00193207
0.00182473
0.00639896
-0.00201268
0.00191176
0.00649471
-0.00208913
0.00199338
0.00658595
-0.00216357
0.00207233
0.00667284
-0.00223688
0.00214999
0.0067561
-0.00231062
0.00222736
0.00683441
-0.00238464
0.00230633
0.00690744
-0.00245971
0.00238668
0.0069742
-0.0025363
0.00246954
0.00703333
-0.00261455
0.00255542
0.00708425
-0.00269522
0.00264431
0.00712579
-0.00277829
0.00273675
0.00715589
-0.00286336
0.00283326
0.00717411
-0.00295176
0.00293354
0.00717874
-0.00304262
0.00303798
0.00716922
-0.00313705
0.00314658
0.00714401
-0.00323448
0.00325969
0.00710216
-0.00333518
0.00337703
0.00704251
-0.00343981
0.00349946
0.00696427
-0.00354796
0.00362621
0.0068664
-0.00366025
0.00375812
0.00674777
-0.00377647
0.00389509
0.00660745
-0.00389703
0.00403735
0.00644462
-0.00402194
0.00418477
0.00625821
-0.00415178
0.0043382
0.00604719
-0.00428618
0.0044972
0.00581075
-0.00442585
0.00466228
0.00554813
-0.00457095
0.00483357
0.00525757
-0.00472087
0.00501143
0.00493858
-0.00487707
0.00519606
0.00459005
-0.005039
0.00538753
0.00421055
-0.00520677
0.00558628
0.00379942
-0.00538141
0.00579253
0.00335495
-0.00556214
0.00600661
0.00287645
-0.00575012
0.00622861
0.00236188
-0.00594486
0.00645943
-0.00614727
0.00669841
0.00181074
0.00394749
-0.00157718
0.00421797
-0.00166678
0.00444061
-0.00175472
0.00463258
-0.0018421
0.00480267
-0.00192442
0.00496051
-0.00200479
0.0051093
-0.00208086
0.00525049
-0.00215386
0.00538676
-0.0022254
0.00551759
-0.0022944
0.00564281
-0.0023621
0.00576143
-0.00242923
0.00587313
-0.00249634
0.00597657
-0.00256315
0.00607104
-0.00263077
0.00615544
-0.00269895
0.00622899
-0.00276878
0.00629072
-0.00284002
0.00633978
-0.00291242
0.00637528
-0.00298726
0.00639661
-0.00306395
0.00640281
-0.00314325
0.0063933
-0.00322497
0.00636725
-0.00330913
0.00632394
-0.0033965
0.00626254
-0.00348656
0.00618244
-0.00358015
0.00608281
-0.00367684
0.00596285
-0.00377708
0.005822
-0.00388109
0.00565929
-0.00398906
0.00547389
-0.00410079
0.00526492
-0.00421687
0.00503113
-0.00433716
0.00477241
-0.00446214
0.00448712
-0.00459179
0.00417435
-0.00472622
0.00383357
-0.004866
0.00346286
-0.0050107
0.00306212
-0.00516139
0.00262944
-0.00531744
0.00216421
-0.00547963
-0.00564819
0.00166513
0.00309061
-0.0018433
0.00333606
-0.00191222
0.00356431
-0.00198298
0.0037758
-0.00205359
0.00397491
-0.00212353
0.00416132
-0.00219119
0.00433709
-0.00225664
0.004503
-0.00231978
0.00465895
-0.00238135
0.00480559
-0.00244104
0.00494335
-0.00249986
0.00507136
-0.00255724
0.00518959
-0.00261458
0.00529807
-0.00267164
0.00539614
-0.00272883
0.00548359
-0.0027864
0.00555959
-0.00284478
0.0056233
-0.00290373
0.00567552
-0.00296464
0.00571438
-0.00302611
0.00574013
-0.00308971
0.00575174
-0.00315486
0.00574864
-0.00322187
0.00573058
-0.00329107
0.00569633
-0.00336225
0.00564611
-0.00343635
0.00557823
-0.00351226
0.00549272
-0.00359133
0.00538877
-0.00367312
0.00526558
-0.0037579
0.0051221
-0.00384559
0.00495778
-0.00393647
0.00477186
-0.00403095
0.00456353
-0.00412883
0.00433193
-0.00423054
0.00407596
-0.00433582
0.00379499
-0.00444526
0.00348798
-0.00455898
0.00315406
-0.00467678
0.00279198
-0.00479931
0.00240081
-0.00492627
0.00197938
-0.0050582
-0.00519507
0.00152626
0.00260242
-0.0020807
0.00282727
-0.00213708
0.00303966
-0.00219536
0.00324027
-0.0022542
0.00342922
-0.00231249
0.00360773
-0.00236969
0.00377671
-0.00242562
0.00393639
-0.00247945
0.00408726
-0.00253222
0.00422942
-0.00258319
0.00436233
-0.00263278
0.00448669
-0.00268159
0.00460194
-0.00272984
0.00470759
-0.00277728
0.00480362
-0.00282486
0.00488979
-0.00287258
0.00496528
-0.00292027
0.00502996
-0.0029684
0.00508296
-0.00301764
0.00512424
-0.00306739
0.00515295
-0.00311842
0.00516885
-0.00317075
0.00517123
-0.00322425
0.00515945
-0.00327929
0.00513337
-0.00333617
0.00509189
-0.00339487
0.00503485
-0.00345522
0.00496142
-0.0035179
0.0048708
-0.0035825
0.00476253
-0.00364964
0.00463573
-0.00371878
0.00449015
-0.00379089
0.0043244
-0.0038652
0.00413835
-0.00394278
0.0039306
-0.00402279
0.00370097
-0.00410619
0.00344836
-0.00419265
0.00317174
-0.00428237
0.00287046
-0.0043755
0.00254322
-0.00447207
0.00218965
-0.0045727
0.00180826
-0.00467681
-0.00478502
0.00139821
0.00223551
-0.00229261
0.00243888
-0.00234044
0.00263306
-0.00238954
0.00281838
-0.00243952
0.0029948
-0.00248891
0.00316257
-0.00253746
0.00332214
-0.00258519
0.00347349
-0.0026308
0.00361615
-0.00267489
0.00375103
-0.00271807
0.00387778
-0.00275952
0.00399606
-0.00279987
0.00410582
-0.0028396
0.00420694
-0.0028784
0.00429864
-0.00291656
0.00438106
-0.00295499
0.00445349
-0.0029927
0.00451605
-0.00303096
0.00456782
-0.00306941
0.0046089
-0.00310846
0.00463843
-0.00314796
0.00465598
-0.00318829
0.00466138
-0.00322966
0.00465404
-0.00327195
0.00463328
-0.00331542
0.00459852
-0.00336011
0.00454958
-0.00340628
0.00448539
-0.00345372
0.00440579
-0.00350289
0.00430999
-0.00355384
0.00419752
-0.00360632
0.00406748
-0.00366085
0.00391967
-0.00371739
0.00375287
-0.00377598
0.00356652
-0.00383644
0.00336005
-0.00389972
0.00313248
-0.00396508
0.00288306
-0.00403295
0.00261104
-0.00410348
0.00231575
-0.00417678
0.00199574
-0.00425269
0.00165073
-0.0043318
-0.00441365
0.00127936
0.00195068
-0.00248365
0.0021349
-0.00252467
0.00231198
-0.00256662
0.00248154
-0.00260907
0.00264413
-0.0026515
0.00279914
-0.00269247
0.00294638
-0.00273244
0.0030868
-0.00277121
0.00321997
-0.00280806
0.00334534
-0.00284344
0.00346355
-0.00287773
0.00357402
-0.00291034
0.0036767
-0.00294228
0.00377119
-0.00297289
0.00385744
-0.00300281
0.00393467
-0.00303223
0.00400352
-0.00306155
0.00406276
-0.0030902
0.00411243
-0.00311908
0.00415198
-0.00314802
0.00418121
-0.00317718
0.00419941
-0.00320649
0.0042067
-0.00323695
0.00420199
-0.00326723
0.0041853
-0.00329873
0.00415604
-0.00333084
0.00411376
-0.003364
0.00405767
-0.00339762
0.00398755
-0.00343278
0.00390258
-0.00346887
0.00380243
-0.00350617
0.00368626
-0.00354468
0.00355351
-0.00358465
0.00340361
-0.00362608
0.00323631
-0.00366914
0.00305028
-0.00371368
0.0028451
-0.0037599
0.00262017
-0.00380802
0.00237433
-0.00385764
0.00210715
-0.0039096
0.00181777
-0.00396331
0.0015053
-0.00401932
-0.00407724
0.00116889
0.00171827
-0.00265625
0.00188509
-0.00269148
0.0020463
-0.00272783
0.00220125
-0.00276403
0.00234966
-0.00279991
0.00249195
-0.00283476
0.00262768
-0.00286816
0.00275688
-0.00290041
0.00287947
-0.00293065
0.00299553
-0.0029595
0.00310461
-0.00298681
0.003207
-0.00301274
0.00330207
-0.00303734
0.00338978
-0.00306061
0.00346988
-0.00308291
0.00354219
-0.00310454
0.00360608
-0.00312545
0.00366164
-0.00314576
0.00370846
-0.00316589
0.00374594
-0.0031855
0.00377433
-0.00320557
0.00379277
-0.00322494
0.00380061
-0.00324478
0.00379834
-0.00326496
0.00378469
-0.00328509
0.00375969
-0.00330585
0.00372249
-0.0033268
0.00367332
-0.00334845
0.00361091
-0.00337037
0.00353513
-0.00339308
0.00344534
-0.00341639
0.00334138
-0.00344072
0.00322231
-0.00346557
0.00308759
-0.00349137
0.00293674
-0.00351828
0.00276915
-0.00354609
0.00258405
-0.00357481
0.00238061
-0.00360458
0.00215864
-0.00363567
0.00191709
-0.00366804
0.00165516
-0.00370138
0.00137188
-0.00373605
-0.00377245
0.00106709
0.00152372
-0.00281281
0.00167514
-0.0028429
0.00182161
-0.0028743
0.00196242
-0.00290485
0.00209814
-0.00293563
0.00222803
-0.00296465
0.00235243
-0.00299256
0.00247081
-0.00301879
0.00258333
-0.00304317
0.00269002
-0.00306618
0.00279046
-0.00308725
0.00288465
-0.00310694
0.00297231
-0.00312501
0.00305306
-0.00314135
0.00312712
-0.00315696
0.00319388
-0.0031713
0.00325322
-0.00318478
0.00330496
-0.00319751
0.00334856
-0.00320949
0.00338411
-0.00322106
0.00341087
-0.00323232
0.00342874
-0.00324282
0.00343727
-0.00325331
0.00343606
-0.00326375
0.00342496
-0.00327399
0.00340335
-0.00328423
0.00337074
-0.00329419
0.00332698
-0.00330469
0.00327144
-0.00331483
0.00320373
-0.00332537
0.00312326
-0.00333592
0.00302969
-0.00334715
0.00292259
-0.00335847
0.00280154
-0.00337031
0.00266536
-0.00338211
0.00251404
-0.00339477
0.00234678
-0.00340755
0.00216321
-0.00342101
0.00196228
-0.00343474
0.00174338
-0.00344914
0.00150615
-0.00346415
0.00124965
-0.00347955
-0.00349612
0.000973324
0.00135734
-0.00295357
0.00149501
-0.00298056
0.00162791
-0.00300721
0.00175636
-0.0030333
0.00188
-0.00305927
0.00199823
-0.00308288
0.00211138
-0.00310571
0.00222059
-0.00312801
0.00232385
-0.00314643
0.0024212
-0.00316353
0.00251331
-0.00317936
0.00259995
-0.00319357
0.00268024
-0.0032053
0.00275457
-0.00321569
0.00282246
-0.00322485
0.00288411
-0.00323295
0.00293884
-0.00323951
0.00298663
-0.0032453
0.00302726
-0.00325012
0.00306052
-0.00325431
0.00308545
-0.00325726
0.0031024
-0.00325977
0.00311099
-0.00326189
0.00311075
-0.00326351
0.00310148
-0.00326472
0.00308251
-0.00326527
0.00305396
-0.00326563
0.00301489
-0.00326562
0.00296523
-0.00326517
0.00290428
-0.00326443
0.00283223
-0.00326387
0.00274815
-0.00326307
0.00265174
-0.00326205
0.0025419
-0.00326047
0.00241928
-0.00325949
0.00228262
-0.0032581
0.00213164
-0.00325657
0.00196525
-0.00325462
0.00178344
-0.00325294
0.00158532
-0.00325102
0.00137028
-0.00324911
0.00113781
-0.00324708
0.000886855
-0.00324517
-0.00015184
0.00622457
-0.00677874
0.000706011
0.000360315
0.00600235
-0.0065145
0.000832651
0.0057885
-0.00626084
0.00126631
0.00558289
-0.00601655
0.00166288
0.0053848
-0.00578137
0.00202258
0.00519459
-0.00555428
0.00234877
0.00501043
-0.00533662
0.00264135
0.0048335
-0.00512608
0.00290135
0.00466313
-0.00492314
0.00313032
0.00449831
-0.00472728
0.00332915
0.00433956
-0.00453839
0.00349887
0.00418582
-0.00435554
0.00363991
0.00403725
-0.00417829
0.00375367
0.00389334
-0.0040071
0.00384087
0.00375333
-0.00384053
0.00390187
0.00361781
-0.00367881
0.00393754
0.0034857
-0.00352137
0.00394886
0.00335749
-0.00336881
0.00393714
0.00323142
-0.00321968
0.00390245
0.00310933
-0.00307464
0.00384597
0.0029895
-0.00293301
0.00376901
0.00287216
-0.0027952
0.00367248
0.00275747
-0.00266093
0.00355752
0.00264502
-0.00253006
0.00342543
0.00253464
-0.00240255
0.00327776
0.0024265
-0.00227883
0.00311584
0.00232004
-0.00215812
0.00294103
0.00221603
-0.00204122
0.00275471
0.00211371
-0.00192739
0.00255861
0.002013
-0.0018169
0.00235426
0.00191428
-0.00170993
0.00214379
0.00181695
-0.00160649
0.0019279
0.00172105
-0.00150516
0.00170881
0.00162675
-0.00140766
0.00148821
0.00153308
-0.00131249
0.00126818
0.00143957
-0.00121954
0.00105004
0.00134656
-0.00112841
0.000836413
0.00125248
-0.00103886
0.000629172
0.00115589
-0.000948649
0.000431744
0.00105438
-0.00085695
0.00024726
0.000943898
-0.000759414
7.44082e-05
0.000820176
-0.000647321
0.000719269
-0.000142268
-0.000502582
-0.000144169
0.00572258
0.000646158
0.000319863
0.00553831
0.000747263
0.0053611
0.00113966
0.00519049
0.00149848
0.00502598
0.00182493
0.00486814
0.00211964
0.00471572
0.00238434
0.0045688
0.00262007
0.0044274
0.00282761
0.00429077
0.00300825
0.00415891
0.00316234
0.00403174
0.00329113
0.00390846
0.00339569
0.00378877
0.00347598
0.00367303
0.00353329
0.00356051
0.00356828
0.0034507
0.00358179
0.00334398
0.00357356
0.00323965
0.00354551
0.00313739
0.0034979
0.00303711
0.00343162
0.00293844
0.00334724
0.00284186
0.00324614
0.00274611
0.00312902
0.00265176
0.00299728
0.00255824
0.00285131
0.00246601
0.0026933
0.00237404
0.002524
0.00228301
0.00234479
0.00219222
0.0021569
0.00210217
0.0019622
0.00201165
0.00176158
0.00192167
0.00155778
0.00183055
0.00135158
0.00173928
0.00114448
0.00164666
0.000939008
0.00155203
0.000737316
0.00145417
0.000541652
0.00135155
0.000355551
0.00124047
0.000181466
0.00111798
1.58833e-05
0.00098576
0.000918859
-0.0001837
-0.000136362
0.00526817
0.000590768
0.000283967
0.00511799
0.000671341
0.00497373
0.00102679
0.00483504
0.00135145
0.00470131
0.00164716
0.00457244
0.00191429
0.00444858
0.00215406
0.00432904
0.00236744
0.00421403
0.00255559
0.00410261
0.00271936
0.00399514
0.0028594
0.00389169
0.00297693
0.00379094
0.00307204
0.00369366
0.00314575
0.00359932
0.00319883
0.00350743
0.00323149
0.00341804
0.00324503
0.00333044
0.00323998
0.00324469
0.00321633
0.00316105
0.00317515
0.00307829
0.00311721
0.00299638
0.00304321
0.00291586
0.00295333
0.002836
0.00284884
0.00275626
0.00273066
0.00267642
0.00259954
0.00259713
0.00245651
0.00251707
0.00230278
0.00243674
0.00213906
0.00235594
0.00196737
0.00227386
0.00178848
0.00219054
0.0016039
0.00210626
0.00141483
0.00201962
0.00122345
0.00193066
0.00103105
0.00183906
0.000839591
0.00174349
0.000651053
0.0016427
0.000468572
0.00153403
0.000294696
0.00141435
0.000131986
0.00128069
-2.55214e-05
0.00114327
0.00110769
-0.000214346
-0.00012819
0.00485574
0.000540623
0.000252585
0.00473721
0.000603419
0.0046229
0.000925737
0.00451273
0.0012199
0.00440715
0.00148733
0.00430501
0.00172963
0.00420628
0.00194666
0.004112
0.00214016
0.00402053
0.00231071
0.00393207
0.0024592
0.00384665
0.00258628
0.00376461
0.00269269
0.00368452
0.0027791
0.00360725
0.00284631
0.00353211
0.00289511
0.00345862
0.00292575
0.00338741
0.00293893
0.00331726
0.0029349
0.00324872
0.0029149
0.00318105
0.00287911
0.00311409
0.00282754
0.00304795
0.00276142
0.00298198
0.00268165
0.00291577
0.00258839
0.00284952
0.00248209
0.00278272
0.00236425
0.00271498
0.00223508
0.00264626
0.00209576
0.00257606
0.0019473
0.00250441
0.00179093
0.00243022
0.00162706
0.00235442
0.00145789
0.00227543
0.00128452
0.00219298
0.00110774
0.00210745
0.000930235
0.00201656
0.000753161
0.00192057
0.000578954
0.00181691
0.000409874
0.00170311
0.000248749
0.00157547
9.77869e-05
0.00143165
-5.0198e-05
0.00129125
0.00128238
-0.000224897
-0.000120234
0.00448237
0.000493609
0.000224815
0.00439216
0.000543002
0.00430471
0.000834885
0.00422084
0.00110169
0.00414034
0.0013447
0.00406201
0.00156358
0.0039874
0.00176075
0.00391483
0.00193606
0.00384522
0.00209077
0.00377736
0.002225
0.00371242
0.00234047
0.00364914
0.002437
0.00358799
0.0025159
0.00352835
0.00257725
0.00347077
0.00262176
0.00341411
0.00264996
0.0033592
0.00266268
0.00330454
0.00265996
0.00325143
0.00264265
0.00319837
0.002611
0.00314573
0.0025656
0.00309335
0.00250705
0.00304053
0.00243559
0.00298723
0.00235201
0.0029331
0.00225657
0.00287817
0.00215028
0.00282127
0.00203336
0.00276318
0.00190737
0.00270204
0.00177272
0.00263906
0.00162995
0.002573
0.00148086
0.0025035
0.00132624
0.00243006
0.00116702
0.0023522
0.00100521
0.00226926
0.000841828
0.00217995
0.000678836
0.00208356
0.000518036
0.00197771
0.000362168
0.00185898
0.000213556
0.00172408
7.38675e-05
0.00157134
-6.37258e-05
0.00142884
0.00144337
-0.000224713
-0.000112511
0.00414359
0.000451286
0.000200919
0.00407873
0.000489095
0.00401654
0.000753696
0.00395624
0.00099566
0.00389837
0.00121567
0.003842
0.00141461
0.00378846
0.00159322
0.00373622
0.00175244
0.003686
0.00189224
0.00363756
0.00201449
0.00359017
0.00211897
0.00354466
0.00220681
0.00350014
0.00227852
0.00345664
0.00233426
0.00341503
0.00237495
0.00337341
0.0024013
0.00333285
0.002413
0.00329284
0.00241115
0.00325328
0.00239631
0.00321322
0.00236816
0.00317389
0.00232755
0.00313396
0.00227547
0.00309262
0.00221152
0.00305118
0.00213626
0.00300837
0.00205072
0.0029637
0.00195489
0.00291711
0.00184978
0.00286829
0.00173553
0.0028163
0.00161315
0.00276145
0.00148351
0.00270264
0.00134748
0.00263954
0.00120623
0.00257131
0.0010607
0.00249773
0.000912295
0.00241766
0.000762652
0.00232959
0.000612783
0.00223343
0.000465332
0.00212516
0.000321633
0.00200268
0.000184809
0.00186091
5.57405e-05
0.00170041
-7.16307e-05
0.00155621
0.00159165
-0.000219923
-0.000104941
0.00383605
0.000412486
0.000179071
0.00379472
0.00044085
0.00375476
0.000680962
0.00371613
0.000900481
0.00367886
0.00109973
0.00364275
0.00128045
0.00360774
0.00144223
0.00357444
0.00158639
0.00354184
0.0017141
0.00350985
0.00182473
0.00347954
0.00191983
0.00344955
0.00199945
0.00342052
0.00206435
0.00339174
0.00211549
0.00336389
0.00215235
0.00333655
0.00217626
0.00330894
0.00218772
0.00328139
0.0021863
0.00325469
0.00217277
0.00322675
0.00214805
0.00319861
0.00211225
0.00316976
0.00206527
0.0031396
0.00200798
0.00310847
0.00194086
0.00307549
0.00186356
0.003041
0.00177706
0.00300361
0.0016819
0.00296345
0.00157864
0.00291956
0.00146746
0.00287264
0.00134977
0.00282032
0.00122621
0.0027631
0.00109722
0.0027003
0.000964441
0.00263051
0.000828866
0.00255324
0.000691508
0.00246695
0.00055524
0.0023697
0.000420207
0.00226019
0.000288644
0.00213424
0.000162513
0.00198704
4.38333e-05
0.00181908
-7.49631e-05
0.001675
0.00172859
-0.000211904
-9.76116e-05
0.00355732
0.000376335
0.000159879
0.00353723
0.000397422
0.00351721
0.000615244
0.00349831
0.000814582
0.00347952
0.000995573
0.00346176
0.00115922
0.00344409
0.00130643
0.00342722
0.00143766
0.00341061
0.0015527
0.0033948
0.00165348
0.00337876
0.00173951
0.00336352
0.00181193
0.0033481
0.00187099
0.00333268
0.00191721
0.00331767
0.00195135
0.00330241
0.00197335
0.00328693
0.00198319
0.00327155
0.00198267
0.0032552
0.00197096
0.00323846
0.00194868
0.00322088
0.00191617
0.00320227
0.00187399
0.00318178
0.00182246
0.00316
0.00176164
0.00313631
0.00169225
0.00311039
0.00161426
0.0030816
0.00152834
0.00304937
0.00143441
0.00301348
0.00133384
0.00297321
0.00122694
0.00292723
0.00111405
0.00287599
0.000996564
0.00281779
0.000875224
0.00275185
0.000751141
0.00267732
0.000626346
0.00259174
0.000501462
0.00249458
0.000378796
0.00238286
0.00025891
0.00225412
0.000142544
0.0021034
3.22004e-05
0.00192942
-7.93074e-05
0.0017865
0.00185396
-0.000204678
-9.07146e-05
0.000343781
0.00330426
0.000143558
0.00330295
0.000358893
0.00330188
0.000556528
0.00330067
0.000737239
0.00329881
0.000901708
0.00329729
0.00105
0.0032958
0.00118358
0.00329365
0.00130216
0.00329202
0.00140729
0.00328967
0.00149855
0.0032875
0.00157698
0.0032851
0.00164265
0.00328243
0.00169607
0.00327925
0.00173822
0.00327552
0.00176921
0.00327142
0.00178936
0.00326678
0.00179933
0.00326158
0.00179853
0.00325601
0.00178836
0.00324863
0.00176843
0.00324081
0.00173955
0.00323114
0.00170159
0.00321974
0.00165505
0.00320655
0.00160074
0.00319062
0.00153869
0.00317244
0.00146857
0.00315172
0.00139083
0.00312711
0.00130628
0.00309803
0.00121511
0.00306438
0.00111785
0.00302449
0.00101596
0.00297788
0.000909512
0.00292424
0.000797855
0.00286351
0.000684222
0.00279095
0.000569851
0.00270612
0.000456693
0.00260774
0.000347056
0.0024925
0.000238519
0.00236266
0.000129134
0.00221279
3.2038e-05
0.00202652
-7.62524e-05
0.00189479
-0.000193966
0.00197166
-0.000356317
0.0009022
-0.000688145
-0.00058736
0.00105717
-0.000826123
-0.000823001
0.00115142
-0.000915777
-0.0010582
0.00122297
-0.000987765
-0.0012903
0.00128514
-0.00105304
-0.00151803
0.00134349
-0.00111576
-0.00174024
0.00139985
-0.00117765
-0.0019566
0.00145621
-0.00123985
-0.00216607
0.00151235
-0.00130288
-0.00236828
0.00156947
-0.00136726
-0.00256277
0.00162818
-0.00143368
-0.00274892
0.0016884
-0.00150225
-0.0029262
0.00175016
-0.00157288
-0.00309456
0.00181474
-0.00164638
-0.00325281
0.00188081
-0.00172256
-0.00340105
0.00194997
-0.00180172
-0.00353839
0.00202161
-0.00188427
-0.00366448
0.002096
-0.00196991
-0.0037784
0.00217331
-0.0020594
-0.00387966
0.00225368
-0.00215241
-0.00396762
0.00233776
-0.0022498
-0.00404185
0.00242523
-0.00235101
-0.00410113
0.00251602