/*--------------------------------*- C++ -*----------------------------------*\
| =========                 |                                                 |
| \\      /  F ield         | OpenFOAM: The Open Source CFD Toolbox           |
|  \\    /   O peration     | Version:  2.3.0                                 |
|   \\  /    A nd           | Web:      www.OpenFOAM.org                      |
|    \\/     M anipulation  |                                                 |
\*---------------------------------------------------------------------------*/
FoamFile
{
    version     2.0;
    format      ascii;
    class       volVectorField;
    location    "4000";
    object      U;
}
// * * * * * * * * * * * * * * * * * * * * * * * * * * * * * * * * * * * * * //

dimensions      [0 1 -1 0 0 0 0];

internalField   nonuniform List<vector> 
38250
(
(18.3802 1.1875 -1.88062e-21)
(18.3125 1.15507 -3.43964e-21)
(18.2411 1.12623 0)
(18.1684 1.09502 -8.83533e-21)
(18.0943 1.0615 2.53504e-20)
(18.0189 1.02559 2.10136e-20)
(17.9422 0.98716 -4.016e-21)
(17.864 0.946046 -1.18269e-20)
(17.7842 0.902104 0)
(17.7028 0.855181 1.52175e-20)
(17.6196 0.805137 -1.72461e-20)
(17.5344 0.751762 1.19987e-20)
(17.4471 0.694878 0)
(17.3576 0.634273 -1.81513e-20)
(17.2658 0.569636 0)
(17.1714 0.500678 8.35729e-20)
(17.0743 0.426993 -9.47967e-20)
(16.9742 0.348132 -1.37973e-19)
(16.871 0.263539 9.72647e-20)
(16.7644 0.172552 -3.33097e-20)
(16.654 0.0743838 -2.02743e-20)
(16.5395 -0.0318556 0)
(16.4204 -0.147283 0)
(16.2963 -0.273146 -2.01133e-20)
(16.1667 -0.41105 0)
(16.0311 -0.562775 -1.18394e-20)
(15.8888 -0.730261 4.78431e-21)
(15.7393 -0.916241 0)
(15.5821 -1.1235 1.52464e-20)
(15.4169 -1.35565 -2.45218e-20)
(15.2436 -1.61675 -1.18496e-19)
(15.0623 -1.91173 1.54196e-19)
(14.874 -2.24616 -1.22579e-19)
(14.6801 -2.62619 2.1881e-20)
(14.4833 -3.05985 -2.27915e-20)
(14.2881 -3.55616 -2.40054e-20)
(14.1014 -4.12477 0)
(13.9339 -4.77748 0)
(13.8044 -5.52597 -1.06055e-20)
(13.7458 -6.38367 9.09017e-21)
(13.8244 -7.37207 4.52885e-20)
(14.1877 -8.50094 4.21667e-20)
(15.2314 -9.84052 3.17411e-19)
(18.4163 1.10957 -1.20873e-21)
(18.3568 1.07965 0)
(18.2958 1.05043 1.4522e-21)
(18.2342 1.01868 8.93111e-21)
(18.1718 0.984644 -6.5648e-21)
(18.1088 0.948334 0)
(18.0451 0.909629 0)
(17.9807 0.868386 7.63967e-21)
(17.9156 0.82446 0)
(17.8496 0.777673 1.43097e-20)
(17.7826 0.727898 -1.07264e-20)
(17.7148 0.674939 -5.67349e-20)
(17.6458 0.618622 4.34174e-20)
(17.5758 0.558767 1.80559e-20)
(17.5047 0.495115 -8.16273e-21)
(17.4325 0.427449 1.06411e-20)
(17.3592 0.355471 -9.56831e-21)
(17.2848 0.278863 1.24417e-20)
(17.2095 0.197218 1.34326e-20)
(17.1331 0.110136 1.44957e-20)
(17.056 0.0170942 4.88048e-20)
(16.9782 -0.0824965 -6.28761e-20)
(16.8999 -0.189375 0)
(16.8215 -0.304327 1.9696e-20)
(16.7433 -0.42832 -1.73763e-20)
(16.6659 -0.562479 1.15104e-20)
(16.5899 -0.708088 3.26172e-20)
(16.5162 -0.866582 1.08504e-19)
(16.446 -1.03969 -1.27505e-19)
(16.3809 -1.22931 -6.39878e-20)
(16.323 -1.43754 9.74691e-20)
(16.2751 -1.66677 -7.4934e-20)
(16.2406 -1.91966 1.01595e-19)
(16.2244 -2.19915 1.09445e-20)
(16.2324 -2.50816 2.07592e-20)
(16.2721 -2.84928 4.75167e-21)
(16.3534 -3.22444 1.12762e-20)
(16.4887 -3.63457 0)
(16.6934 -4.07849 9.04507e-21)
(16.9868 -4.5514 -1.74451e-20)
(17.3928 -5.04211 -5.46953e-21)
(17.9394 -5.52362 0)
(18.6379 -5.93388 4.27205e-21)
(18.4486 1.0464 -1.008e-21)
(18.3971 1.01561 -1.02063e-21)
(18.3442 0.985962 -1.68177e-21)
(18.2908 0.953923 -2.24832e-21)
(18.2369 0.919732 -6.03788e-21)
(18.1826 0.883386 5.66301e-21)
(18.1279 0.844797 -2.46365e-21)
(18.0729 0.803802 -1.4802e-20)
(18.0175 0.760275 7.12219e-21)
(17.9616 0.714014 2.87274e-20)
(17.9053 0.664874 2.30388e-21)
(17.8484 0.612664 -4.37393e-20)
(17.791 0.557208 9.23326e-21)
(17.733 0.498284 0)
(17.6745 0.435652 1.45597e-20)
(17.6155 0.369054 -6.97221e-21)
(17.556 0.298191 9.53462e-21)
(17.4961 0.222733 0)
(17.4358 0.142304 0)
(17.3753 0.0564771 9.368e-21)
(17.3148 -0.0351991 2.28982e-20)
(17.2546 -0.13325 -3.74115e-20)
(17.1948 -0.238318 -2.1413e-21)
(17.1359 -0.351032 5.25075e-20)
(17.0784 -0.472205 -4.0763e-20)
(17.0228 -0.602627 7.35838e-20)
(16.97 -0.743267 -8.50324e-20)
(16.9207 -0.895053 1.36071e-19)
(16.8764 -1.05906 -8.77428e-20)
(16.8387 -1.23642 2.91482e-20)
(16.8094 -1.42816 -6.14915e-20)
(16.7911 -1.6354 9.30818e-21)
(16.7868 -1.85884 1.45586e-20)
(16.8004 -2.09888 -1.99728e-20)
(16.8366 -2.35534 -1.48984e-20)
(16.9007 -2.62727 -1.87009e-21)
(16.9993 -2.91223 7.32471e-21)
(17.1396 -3.20584 -1.55037e-21)
(17.3293 -3.50158 0)
(17.5763 -3.7888 1.09486e-20)
(17.8876 -4.05245 1.17312e-21)
(18.2676 -4.27151 5.63426e-20)
(18.7133 -4.41833 -5.98474e-20)
(18.4805 0.992798 -2.05066e-21)
(18.436 0.962327 0)
(18.3903 0.933065 0)
(18.3442 0.90165 1.12006e-21)
(18.2979 0.868305 3.26602e-21)
(18.2514 0.833006 -1.63496e-21)
(18.2047 0.795702 -2.23723e-21)
(18.158 0.756249 2.21261e-21)
(18.1111 0.714501 0)
(18.0642 0.670284 5.877e-21)
(18.0171 0.623432 0)
(17.97 0.573793 0)
(17.9227 0.521195 0)
(17.8752 0.465458 -1.75378e-20)
(17.8277 0.406374 1.57922e-20)
(17.7803 0.343721 3.32157e-20)
(17.7329 0.277262 -5.47053e-20)
(17.6858 0.206698 6.56469e-20)
(17.6391 0.131727 -6.3644e-20)
(17.5929 0.0520196 1.62352e-20)
(17.5476 -0.0327985 -1.00654e-20)
(17.5035 -0.123101 -1.07712e-20)
(17.461 -0.219352 -9.30193e-21)
(17.4206 -0.322072 9.90986e-21)
(17.3829 -0.43179 0)
(17.3485 -0.549148 -6.55099e-20)
(17.3183 -0.674718 6.86898e-20)
(17.2933 -0.809159 -5.69058e-20)
(17.2746 -0.953078 7.62045e-20)
(17.264 -1.107 -2.26463e-20)
(17.2631 -1.27145 8.90962e-21)
(17.274 -1.44672 -2.33333e-20)
(17.2995 -1.63282 0)
(17.3423 -1.82942 1.37008e-20)
(17.4059 -2.03563 0)
(17.494 -2.2497 -1.15627e-20)
(17.6106 -2.46877 -7.06489e-21)
(17.7597 -2.6886 1.67566e-23)
(17.9448 -2.90352 0)
(18.1685 -3.10561 -2.10946e-21)
(18.4314 -3.28517 9.49508e-21)
(18.7309 -3.43059 1.67237e-20)
(19.0594 -3.52967 -2.94354e-20)
(18.5111 0.948194 2.05382e-21)
(18.4726 0.918006 0)
(18.4329 0.889231 1.10118e-21)
(18.393 0.858711 2.35198e-22)
(18.3528 0.826514 -3.83426e-22)
(18.3125 0.792565 -2.22696e-21)
(18.2721 0.756818 0)
(18.2318 0.719163 2.69842e-21)
(18.1916 0.679416 0)
(18.1514 0.637418 -5.87418e-21)
(18.1113 0.592994 -6.26784e-21)
(18.0713 0.546004 9.10769e-21)
(18.0313 0.496279 0)
(17.9914 0.443635 3.98869e-21)
(17.9516 0.38791 -8.69301e-21)
(17.912 0.328906 4.4064e-21)
(17.8727 0.266391 2.24051e-20)
(17.8339 0.200134 -2.91786e-20)
(17.7957 0.129853 2.59623e-20)
(17.7584 0.0552382 -4.04126e-20)
(17.722 -0.0240131 2.82419e-20)
(17.6871 -0.10814 0)
(17.6539 -0.197502 9.36396e-21)
(17.6232 -0.292482 -9.97349e-21)
(17.5954 -0.393457 8.31461e-21)
(17.5712 -0.50093 0)
(17.5515 -0.615299 1.18411e-20)
(17.5372 -0.73702 -3.10988e-20)
(17.5292 -0.866401 2.22406e-20)
(17.5292 -1.00369 -1.01532e-20)
(17.5386 -1.14909 0)
(17.5593 -1.30256 1.40788e-20)
(17.5932 -1.46377 -9.97688e-21)
(17.6427 -1.63201 -4.27782e-21)
(17.7105 -1.80594 8.35469e-21)
(17.7991 -1.98362 -6.94574e-21)
(17.9114 -2.16231 -2.97109e-21)
(18.0496 -2.33806 5.32286e-21)
(18.2158 -2.50597 -3.36473e-21)
(18.4106 -2.65993 5.35655e-21)
(18.6336 -2.79292 -2.2684e-20)
(18.8815 -2.89745 1.90718e-20)
(19.1483 -2.96651 7.54808e-21)
(18.5412 0.90877 -3.26048e-21)
(18.5072 0.880026 0)
(18.4723 0.852436 7.68081e-22)
(18.4374 0.823228 1.38573e-21)
(18.4023 0.792519 3.02086e-22)
(18.3672 0.760149 -2.41965e-22)
(18.3319 0.726131 2.39464e-22)
(18.2969 0.690462 -3.92194e-21)
(18.262 0.65289 -3.74471e-22)
(18.2273 0.613266 2.99399e-21)
(18.1929 0.571417 4.60926e-21)
(18.1585 0.527222 -9.55607e-21)
(18.1244 0.480509 0)
(18.0905 0.431088 2.7583e-21)
(18.0569 0.378815 -3.09434e-21)
(18.0235 0.323553 -4.42942e-21)
(17.9906 0.265067 0)
(17.9584 0.203149 -4.12395e-21)
(17.927 0.137619 -5.95765e-21)
(17.8967 0.0681232 1.56891e-20)
(17.8675 -0.00565952 -1.13926e-20)
(17.8398 -0.0838709 0)
(17.8139 -0.166721 0)
(17.7905 -0.25445 0)
(17.7702 -0.34738 -8.36942e-21)
(17.7538 -0.44586 0)
(17.7419 -0.550246 -7.30408e-21)
(17.7354 -0.660809 9.61064e-21)
(17.7352 -0.777734 7.75305e-21)
(17.7426 -0.901131 1.89682e-20)
(17.759 -1.03091 -1.69388e-20)
(17.786 -1.16689 0)
(17.8254 -1.30877 5.89725e-21)
(17.8786 -1.4556 -8.7967e-21)
(17.948 -1.60589 -1.01024e-20)
(18.0356 -1.75779 2.78695e-21)
(18.1432 -1.90894 6.15081e-21)
(18.2722 -2.05593 1.38901e-21)
(18.4234 -2.19455 0)
(18.5971 -2.31984 0)
(18.7922 -2.42651 -2.93125e-20)
(19.006 -2.50941 1.4497e-20)
(19.2334 -2.56413 1.64622e-20)
(18.5693 0.875305 3.29575e-21)
(18.5392 0.847416 0)
(18.5083 0.821365 -2.0996e-21)
(18.4775 0.793693 -1.20404e-21)
(18.4466 0.764656 -9.39122e-22)
(18.4159 0.733958 0)
(18.3848 0.701596 0)
(18.3539 0.667875 0)
(18.3232 0.632423 4.90902e-22)
(18.2929 0.595084 -1.41714e-21)
(18.2628 0.555662 3.17571e-21)
(18.2329 0.514078 -1.07193e-21)
(18.2034 0.470208 -2.73372e-21)
(18.1741 0.423767 1.6682e-21)
(18.1451 0.374625 3.10656e-21)
(18.1164 0.322792 6.32109e-21)
(18.0884 0.267955 -6.36404e-21)
(18.061 0.209812 7.34976e-21)
(18.0343 0.148458 -4.50373e-21)
(18.0091 0.0835761 -3.80921e-21)
(17.9852 0.0145916 0)
(17.9626 -0.0586131 4.42023e-21)
(17.9417 -0.136034 1.08049e-20)
(17.9231 -0.217812 3.70875e-22)
(17.9075 -0.304152 -6.42795e-21)
(17.8958 -0.395287 0)
(17.8886 -0.491554 7.32199e-21)
(17.8868 -0.593095 -6.63377e-21)
(17.891 -0.70001 -9.11933e-22)
(17.9025 -0.812503 0)
(17.9223 -0.930232 1.36451e-20)
(17.9524 -1.05268 3.07008e-21)
(17.994 -1.17985 -3.17362e-21)
(18.0481 -1.31095 0)
(18.1164 -1.44411 2.11358e-21)
(18.2009 -1.57746 2.08674e-21)
(18.3031 -1.70936 -1.99209e-21)
(18.4235 -1.83661 -2.9679e-21)
(18.5622 -1.95587 5.25788e-21)
(18.7192 -2.06227 0)
(18.8939 -2.15219 8.87418e-21)
(19.0842 -2.22146 0)
(19.2854 -2.26741 3.18937e-22)
(18.594 0.845533 0)
(18.5679 0.819394 0)
(18.5408 0.794945 1.68796e-21)
(18.5136 0.768874 -1.29382e-21)
(18.486 0.741696 6.21414e-22)
(18.4594 0.712831 0)
(18.4316 0.68188 5.90881e-22)
(18.4041 0.649932 -8.15676e-23)
(18.3768 0.616419 -4.7561e-22)
(18.3499 0.581269 -2.07782e-22)
(18.3233 0.544114 0)
(18.2969 0.504841 0)
(18.2709 0.463626 -1.70371e-21)
(18.2454 0.419967 -2.3389e-21)
(18.22 0.373528 3.62909e-21)
(18.1949 0.324759 1.80428e-21)
(18.1703 0.273504 -5.31128e-21)
(18.147 0.218667 -2.18644e-22)
(18.1238 0.160699 0)
(18.1024 0.100001 -3.13463e-21)
(18.0828 0.0354087 7.06209e-21)
(18.0643 -0.0333536 -1.03338e-21)
(18.0472 -0.106222 0)
(18.0322 -0.183064 -3.84593e-21)
(18.0199 -0.264035 4.13125e-21)
(18.0114 -0.349242 -9.62054e-21)
(18.0074 -0.438976 0)
(18.0084 -0.533252 4.45683e-21)
(18.0152 -0.631844 0)
(18.029 -0.735203 5.03462e-21)
(18.0503 -0.84385 -1.09886e-20)
(18.0816 -0.955196 -3.94985e-21)
(18.1248 -1.07092 -3.53889e-21)
(18.1783 -1.19005 2.83085e-21)
(18.2442 -1.311 3.28739e-21)
(18.3252 -1.42968 1.39706e-21)
(18.4224 -1.54819 -6.62341e-22)
(18.5358 -1.66032 -6.91739e-22)
(18.6639 -1.76709 -4.05498e-21)
(18.808 -1.85931 0)
(18.9677 -1.93879 1.02859e-20)
(19.1418 -1.99818 -1.71708e-21)
(19.3251 -2.0391 -1.95438e-20)
(18.6136 0.824558 2.71453e-21)
(18.5924 0.796956 0)
(18.5695 0.77274 -2.6234e-21)
(18.5462 0.747684 2.38707e-21)
(18.5211 0.722761 0)
(18.4982 0.696271 0)
(18.4733 0.666252 -9.38155e-22)
(18.449 0.635753 5.78151e-22)
(18.425 0.603777 5.05018e-23)
(18.4012 0.57064 4.58846e-24)
(18.3775 0.535887 0)
(18.3542 0.498556 0)
(18.3309 0.459676 8.2012e-22)
(18.309 0.4188 -3.17694e-21)
(18.2866 0.374716 6.20722e-23)
(18.2647 0.327624 -1.83707e-21)
(18.2424 0.280608 -4.82581e-21)
(18.2224 0.229455 5.84679e-21)
(18.2013 0.173672 4.5313e-21)
(18.1827 0.116075 -1.18243e-20)
(18.1665 0.055207 5.12821e-21)
(18.151 -0.00916965 -3.00003e-21)
(18.1369 -0.0781578 -6.27022e-21)
(18.1247 -0.150843 7.15684e-21)
(18.115 -0.227653 0)
(18.109 -0.308433 3.83579e-22)
(18.1076 -0.393622 -7.40974e-21)
(18.1106 -0.483004 -6.4113e-22)
(18.1186 -0.57577 -3.64763e-21)
(18.1339 -0.670001 6.58044e-21)
(18.1546 -0.772178 4.16991e-21)
(18.1838 -0.873964 4.72617e-21)
(18.2271 -0.983181 3.51133e-21)
(18.2789 -1.0926 -1.3501e-21)
(18.3403 -1.20655 -4.27544e-22)
(18.4171 -1.31054 -7.1293e-22)
(18.5091 -1.42285 -3.81601e-21)
(18.6151 -1.52027 8.90617e-22)
(18.7325 -1.62198 1.08319e-21)
(18.8643 -1.69877 -3.13829e-21)
(19.0139 -1.7734 -9.97427e-21)
(19.1748 -1.82346 -2.69991e-20)
(19.348 -1.8631 3.03813e-20)
(18.3258 -10.0925 -2.86278e-19)
(20.5907 -9.27827 0)
(22.0736 -8.29124 -2.35342e-20)
(23.053 -7.41521 -5.69907e-20)
(23.6644 -6.62466 -5.10262e-20)
(24.007 -5.89934 0)
(24.167 -5.23952 0)
(24.2064 -4.64494 8.06338e-20)
(24.1678 -4.10855 -6.95412e-19)
(24.0798 -3.62493 6.57353e-19)
(23.9625 -3.18933 -6.44226e-19)
(23.8297 -2.79641 5.82924e-19)
(23.6894 -2.44267 6.06184e-19)
(23.548 -2.12358 -5.5182e-19)
(23.4085 -1.83579 0)
(23.2731 -1.57605 -2.91371e-20)
(23.1427 -1.34124 -3.34084e-20)
(23.0174 -1.12896 -2.63584e-20)
(22.8976 -0.936573 -8.8233e-19)
(22.7829 -0.761901 1.60806e-18)
(22.6727 -0.602997 -1.58445e-18)
(22.5668 -0.458138 8.40919e-19)
(22.4647 -0.325841 -6.56865e-19)
(22.366 -0.204583 7.36649e-19)
(22.2703 -0.093227 0)
(22.1774 0.00927514 3.83787e-20)
(22.0871 0.103828 3.72689e-20)
(21.999 0.191185 5.5567e-19)
(21.9131 0.272072 -1.16807e-18)
(21.8292 0.347035 1.07059e-18)
(21.7472 0.416566 -4.91952e-19)
(21.6671 0.481123 5.34398e-19)
(21.5887 0.54105 -7.92948e-20)
(21.5119 0.596632 -4.68513e-19)
(21.4368 0.648201 3.21753e-19)
(21.3632 0.695972 -2.57846e-19)
(21.2912 0.740172 0)
(21.2207 0.780982 2.43345e-19)
(21.1516 0.818552 -1.2233e-19)
(21.0839 0.853047 2.34916e-19)
(21.0175 0.884551 -1.20921e-19)
(20.952 0.913276 2.27715e-19)
(20.887 0.939494 0)
(19.4508 -6.14785 1.15282e-20)
(20.1789 -6.11747 0)
(20.7711 -5.87518 1.94915e-20)
(21.2478 -5.5128 0)
(21.6257 -5.09208 0)
(21.9169 -4.65031 0)
(22.1348 -4.21123 6.0317e-19)
(22.2931 -3.78964 -6.24826e-19)
(22.4035 -3.39337 0)
(22.4757 -3.02617 6.93604e-20)
(22.5179 -2.68913 0)
(22.5363 -2.38144 3.48017e-20)
(22.5359 -2.10136 -3.31341e-20)
(22.5207 -1.84664 -2.70748e-20)
(22.494 -1.615 0)
(22.4581 -1.404 2.85704e-20)
(22.4151 -1.2115 0)
(22.3664 -1.03541 4.19277e-19)
(22.3133 -0.873901 -3.79197e-19)
(22.2567 -0.725399 3.60657e-19)
(22.1974 -0.588434 -3.08614e-19)
(22.1362 -0.461845 3.29336e-19)
(22.0735 -0.344541 -3.7124e-19)
(22.0097 -0.235613 3.11078e-19)
(21.9454 -0.134259 -3.44808e-19)
(21.8807 -0.0398183 -3.83072e-20)
(21.816 0.0482664 -3.22619e-19)
(21.7515 0.130513 5.9974e-19)
(21.6872 0.207339 -2.78703e-19)
(21.6235 0.279131 -2.63126e-19)
(21.5603 0.346214 5.30723e-19)
(21.4977 0.408906 -3.94243e-19)
(21.4358 0.467449 6.57007e-20)
(21.3747 0.522129 1.86295e-19)
(21.3143 0.573157 -4.40366e-19)
(21.2546 0.620724 4.9588e-19)
(21.1958 0.665024 -5.63854e-21)
(21.1378 0.706226 -5.59423e-21)
(21.0805 0.744475 -4.7888e-19)
(21.024 0.779881 2.38925e-19)
(20.9683 0.812519 -2.3984e-21)
(20.9134 0.842752 -4.58712e-19)
(20.8607 0.866873 0)
(19.211 -4.46798 -1.10455e-20)
(19.7154 -4.41636 -1.52016e-19)
(20.1848 -4.28098 1.68255e-19)
(20.5994 -4.08608 -2.08104e-20)
(20.9535 -3.85222 -2.07286e-19)
(21.247 -3.59525 6.32876e-19)
(21.4843 -3.32757 -4.18969e-19)
(21.6714 -3.05852 0)
(21.8149 -2.79448 0)
(21.9214 -2.53962 -3.06824e-20)
(21.9969 -2.29663 0)
(22.047 -2.0669 0)
(22.0762 -1.85095 3.99797e-19)
(22.0884 -1.64876 -3.38126e-19)
(22.0869 -1.45994 0)
(22.0744 -1.28386 3.62702e-19)
(22.053 -1.1198 -2.93856e-21)
(22.0246 -0.966979 -7.22797e-19)
(21.9906 -0.82459 3.76321e-19)
(21.9522 -0.691868 0)
(21.9104 -0.568064 -2.71092e-19)
(21.8659 -0.45254 2.63971e-19)
(21.8194 -0.34463 3.54913e-20)
(21.7714 -0.243802 0)
(21.7223 -0.149491 3.13516e-19)
(21.6724 -0.0612507 -2.75285e-19)
(21.6221 0.021347 2.97648e-19)
(21.5714 0.0986762 2.73677e-20)
(21.5205 0.171096 -2.60209e-19)
(21.4695 0.238951 6.54764e-20)
(21.4186 0.302535 -2.48273e-19)
(21.3677 0.362126 3.13347e-19)
(21.3171 0.417972 0)
(21.2667 0.470326 -5.94447e-20)
(21.2166 0.519373 -6.13928e-20)
(21.1668 0.565325 2.36447e-19)
(21.1174 0.608315 -4.73944e-19)
(21.0684 0.648536 2.37476e-19)
(21.0198 0.686097 -5.75153e-20)
(20.9716 0.721142 5.72923e-20)
(20.9239 0.753804 4.05741e-23)
(20.8766 0.784547 1.13407e-19)
(20.8309 0.809416 0)
(19.4045 -3.57259 0)
(19.7506 -3.55557 1.3054e-20)
(20.0817 -3.48246 -1.81631e-20)
(20.3858 -3.3629 2.06281e-20)
(20.6564 -3.20786 1.9344e-20)
(20.891 -3.02792 1.60439e-19)
(21.0896 -2.83233 -3.85654e-19)
(21.2543 -2.62878 1.60426e-19)
(21.388 -2.42311 1.70256e-19)
(21.4941 -2.21969 -1.87023e-19)
(21.5763 -2.02163 0)
(21.6379 -1.83095 -3.73314e-19)
(21.6819 -1.64892 3.62576e-19)
(21.711 -1.47622 -2.32972e-20)
(21.7275 -1.31311 -3.88118e-19)
(21.7336 -1.15954 3.7813e-19)
(21.7308 -1.01525 3.27106e-19)
(21.7208 -0.879858 -2.78304e-19)
(21.7046 -0.752928 0)
(21.6835 -0.633943 3.62043e-20)
(21.6582 -0.52244 -7.31201e-20)
(21.6296 -0.417923 3.17647e-19)
(21.5981 -0.319919 -3.92976e-20)
(21.5645 -0.227995 -2.7301e-19)
(21.529 -0.141732 0)
(21.4921 -0.0607692 2.57954e-19)
(21.454 0.0152548 -3.20525e-19)
(21.4149 0.0866435 2.47112e-19)
(21.3751 0.153712 -2.48657e-19)
(21.3347 0.216764 0)
(21.2938 0.276041 0)
(21.2526 0.331808 2.94641e-19)
(21.2112 0.384274 -2.38051e-19)
(21.1697 0.433636 1.17229e-19)
(21.1282 0.480074 -5.72632e-20)
(21.0867 0.52374 0)
(21.0453 0.56477 -1.71095e-19)
(21.004 0.603327 1.15659e-19)
(20.9629 0.639505 5.76962e-20)
(20.9219 0.673442 2.25462e-19)
(20.881 0.705262 -1.68884e-19)
(20.8401 0.735184 5.7024e-20)
(20.799 0.761733 1.63175e-19)
(19.4259 -2.99552 -4.69361e-20)
(19.7055 -2.98271 4.58321e-20)
(19.9771 -2.92982 -1.28555e-19)
(20.232 -2.84195 9.39398e-20)
(20.4644 -2.72567 -1.37782e-19)
(20.6709 -2.58798 1.70833e-19)
(20.8504 -2.43538 -1.463e-19)
(21.0032 -2.27362 2.25949e-19)
(21.1309 -2.10752 2.25353e-20)
(21.2356 -1.94072 4.10992e-20)
(21.3196 -1.77609 0)
(21.3856 -1.61571 0)
(21.4355 -1.46092 -4.01071e-20)
(21.4718 -1.31264 -3.94254e-20)
(21.4961 -1.17136 4.18627e-20)
(21.5104 -1.03726 -1.59285e-19)
(21.5161 -0.910322 1.67357e-22)
(21.5146 -0.790442 4.47034e-22)
(21.5071 -0.67737 4.34826e-19)
(21.4945 -0.570803 -3.20585e-19)
(21.4777 -0.470436 3.5753e-20)
(21.4575 -0.375948 -6.77184e-20)
(21.4344 -0.286993 -3.21582e-20)
(21.409 -0.20325 0)
(21.3816 -0.124421 0)
(21.3526 -0.0502043 2.47217e-19)
(21.3222 0.0196608 -4.2773e-19)
(21.2907 0.0854336 -2.78921e-20)
(21.2583 0.147384 2.3908e-19)
(21.2251 0.205758 -2.87905e-20)
(21.1912 0.260816 0)
(21.1569 0.312752 -5.87187e-20)
(21.1223 0.361757 1.1365e-19)
(21.0875 0.407975 -1.72432e-19)
(21.0525 0.451566 5.75198e-20)
(21.0174 0.492656 0)
(20.9822 0.531393 5.69932e-20)
(20.9471 0.56791 1.11321e-19)
(20.912 0.602289 -1.66806e-21)
(20.8768 0.634623 -1.13182e-19)
(20.8417 0.665037 -5.57356e-20)
(20.8066 0.693387 -5.5164e-20)
(20.7711 0.720435 5.43442e-20)
(19.468 -2.58747 0)
(19.7039 -2.57815 6.40615e-20)
(19.9341 -2.53752 7.7455e-21)
(20.1521 -2.46864 -2.6212e-20)
(20.3533 -2.37597 -3.52746e-20)
(20.5346 -2.2646 -3.49546e-20)
(20.6944 -2.13934 -3.65011e-20)
(20.833 -2.00475 -1.99071e-19)
(20.951 -1.8649 1.54496e-19)
(21.0497 -1.72297 -4.13805e-20)
(21.1309 -1.58149 1.60975e-19)
(21.1964 -1.44242 -3.16181e-19)
(21.2477 -1.30718 1.95805e-19)
(21.2867 -1.1767 -1.5242e-19)
(21.3148 -1.05155 1.50902e-19)
(21.3337 -0.932026 -3.82968e-20)
(21.3446 -0.818305 0)
(21.3487 -0.710381 0)
(21.3471 -0.608167 3.38746e-20)
(21.3407 -0.511486 0)
(21.3303 -0.420155 -1.00022e-19)
(21.3165 -0.333927 2.93234e-19)
(21.2998 -0.252538 3.16417e-20)
(21.2806 -0.175737 -1.02777e-21)
(21.2595 -0.103278 -2.44913e-19)
(21.2366 -0.0349407 1.2094e-19)
(21.2123 0.029465 -5.92886e-20)
(21.1866 0.0901831 -1.16205e-19)
(21.1599 0.147478 1.44337e-19)
(21.1323 0.201589 2.9043e-20)
(21.1039 0.252715 2.78154e-20)
(21.0751 0.301078 0)
(21.0459 0.346795 -1.10871e-19)
(21.0164 0.389955 1.94688e-19)
(20.9866 0.430725 -2.21305e-19)
(20.9567 0.469223 1.11066e-19)
(20.9265 0.505607 0)
(20.8964 0.539977 0)
(20.8662 0.572398 5.47059e-20)
(20.8359 0.602989 -1.65364e-19)
(20.8055 0.63193 0)
(20.7752 0.658943 -5.37842e-20)
(20.744 0.686448 6.09357e-22)
(19.4911 -2.28717 0)
(19.6987 -2.27932 4.99752e-20)
(19.9017 -2.24572 -4.98808e-20)
(20.095 -2.1881 0)
(20.2749 -2.11005 6.64644e-20)
(20.4382 -2.01559 3.97706e-20)
(20.5835 -1.90831 -3.20323e-20)
(20.7112 -1.79203 1.49016e-19)
(20.8211 -1.67056 -1.45351e-19)
(20.9146 -1.5464 -1.15583e-19)
(20.9926 -1.42172 -4.04604e-20)
(21.0567 -1.29838 1.48109e-19)
(21.108 -1.17788 0)
(21.1478 -1.06099 1.89689e-21)
(21.1775 -0.948287 3.53066e-20)
(21.199 -0.840164 0)
(21.2128 -0.736962 -1.39453e-19)
(21.2204 -0.638681 -1.08195e-22)
(21.2226 -0.54537 9.95448e-20)
(21.2204 -0.456882 0)
(21.2141 -0.373165 -1.3426e-21)
(21.2046 -0.293904 0)
(21.1921 -0.218945 -3.02733e-20)
(21.1773 -0.14804 2.97292e-20)
(21.1605 -0.0810237 0)
(21.142 -0.0177952 1.16581e-19)
(21.1219 0.041797 5.67487e-20)
(21.1005 0.098069 -1.42367e-19)
(21.0779 0.15123 -2.85897e-20)
(21.0544 0.201535 -2.7443e-20)
(21.0302 0.249172 -2.8025e-20)
(21.0055 0.294343 8.20604e-20)
(20.9806 0.337035 -1.09682e-19)
(20.9552 0.377327 1.35601e-19)
(20.9296 0.415446 -1.08963e-19)
(20.9037 0.451493 2.67624e-20)
(20.8777 0.485579 -1.07508e-19)
(20.8517 0.517775 1.08675e-19)
(20.8254 0.548177 8.13975e-20)
(20.799 0.576993 -6.28302e-22)
(20.7725 0.604406 -7.25325e-22)
(20.7463 0.630042 5.32465e-20)
(20.7196 0.6562 -5.106e-20)
(19.5081 -2.05726 -4.994e-21)
(19.6966 -2.04935 1.91484e-20)
(19.8799 -2.02053 0)
(20.0547 -1.97012 0)
(20.2189 -1.90194 3.31915e-20)
(20.3678 -1.81976 -9.25917e-20)
(20.5012 -1.72494 -3.25367e-20)
(20.6208 -1.62175 0)
(20.7233 -1.5145 0)
(20.812 -1.40318 -3.63822e-20)
(20.8865 -1.29063 3.65477e-20)
(20.949 -1.17918 0)
(20.9989 -1.0701 1.42718e-19)
(21.0385 -0.963623 -1.03465e-19)
(21.0688 -0.860477 -6.94966e-20)
(21.0918 -0.761397 3.35485e-20)
(21.1071 -0.666602 -1.34394e-19)
(21.1173 -0.576167 1.31617e-19)
(21.122 -0.490082 0)
(21.1229 -0.408374 1.2682e-19)
(21.1194 -0.331038 -1.56383e-19)
(21.1129 -0.257532 -1.2195e-19)
(21.1035 -0.187897 1.80337e-19)
(21.0918 -0.121884 -2.99748e-20)
(21.0783 -0.0593668 0)
(21.0632 -0.000563315 0)
(21.0462 0.0548912 -8.09457e-22)
(21.028 0.107286 2.82268e-20)
(21.0085 0.15685 -2.71609e-20)
(20.9883 0.203872 7.14794e-22)
(20.9673 0.248508 -1.34385e-19)
(20.9459 0.290878 2.42137e-19)
(20.9246 0.330782 -2.74173e-20)
(20.9023 0.368518 2.53647e-20)
(20.8801 0.404287 -2.73265e-20)
(20.8575 0.438098 -1.0711e-19)
(20.8349 0.46981 2.57738e-20)
(20.8122 0.499824 -5.34307e-20)
(20.789 0.528299 4.32433e-22)
(20.7656 0.555469 0)
(20.7422 0.581584 -7.98015e-20)
(20.7194 0.606112 -2.64179e-20)
(20.6961 0.631639 7.60965e-20)
(19.513 -1.87955 -1.58033e-20)
(19.6914 -1.86815 0)
(19.8583 -1.84403 -5.17516e-20)
(20.0197 -1.7973 2.18068e-20)
(20.1728 -1.73663 2.44875e-20)
(20.3085 -1.66439 1.49781e-19)
(20.4325 -1.57683 3.60875e-20)
(20.5492 -1.48368 -3.08218e-20)
(20.6484 -1.38797 -6.5874e-20)
(20.7355 -1.28409 -2.30888e-21)
(20.806 -1.18066 6.7487e-20)
(20.8672 -1.07918 0)
(20.9147 -0.979295 0)
(20.9543 -0.880882 6.86127e-20)
(20.984 -0.78522 -3.31099e-20)
(21.0082 -0.693918 3.30572e-20)
(21.0233 -0.605511 -6.51027e-20)
(21.0364 -0.522013 6.46248e-20)
(21.0419 -0.441619 -6.36124e-20)
(21.0456 -0.366071 -6.2616e-20)
(21.0427 -0.293987 6.11874e-20)
(21.0385 -0.225307 0)
(21.0307 -0.160206 -2.96473e-20)
(21.0213 -0.098279 0)
(21.0102 -0.039241 0)
(20.9979 0.0152978 0)
(20.9827 0.0674137 -2.83741e-20)
(20.9671 0.116162 0)
(20.9496 0.162922 2.7667e-20)
(20.9318 0.207114 -2.62504e-20)
(20.913 0.249193 1.33397e-19)
(20.8946 0.288931 -8.04769e-20)
(20.8761 0.326383 2.7321e-20)
(20.8559 0.362484 2.66597e-20)
(20.837 0.396034 -2.96854e-22)
(20.817 0.4275 2.66755e-20)
(20.7973 0.456398 2.64319e-20)
(20.7773 0.484765 -5.41388e-20)
(20.7565 0.511885 3.92051e-22)
(20.7357 0.537726 5.25227e-20)
(20.7149 0.562745 2.59276e-20)
(20.6949 0.585953 -1.05326e-19)
(20.6732 0.610482 2.06023e-22)
(20.4224 -2.65837 5.15975e-19)
(20.4053 -2.68614 0)
(20.3865 -2.71715 0)
(20.3669 -2.74694 0)
(20.3459 -2.77631 0)
(20.3234 -2.80511 0)
(20.2989 -2.83327 1.33146e-19)
(20.272 -2.86075 -5.32829e-19)
(20.2421 -2.88748 0)
(20.2086 -2.91337 0)
(20.1706 -2.93834 0)
(20.1272 -2.96228 0)
(20.0773 -2.98509 0)
(20.0195 -3.00662 5.26984e-19)
(19.9526 -3.02674 -6.01625e-19)
(19.8751 -3.04524 -4.63036e-19)
(19.7858 -3.06199 5.39101e-19)
(19.6834 -3.07677 0)
(19.5664 -3.08941 7.00114e-20)
(19.4338 -3.0997 0)
(19.2842 -3.10746 -7.02135e-20)
(19.1166 -3.11242 0)
(18.9301 -3.1144 0)
(18.7239 -3.11324 -3.80726e-20)
(18.4973 -3.10865 0)
(18.2498 -3.10049 0)
(17.9809 -3.08856 6.11403e-19)
(17.69 -3.07268 -6.83414e-19)
(17.3767 -3.05264 -4.49843e-20)
(17.0404 -3.02823 -3.87189e-19)
(16.6801 -2.99921 3.6368e-19)
(16.2949 -2.96522 0)
(15.8829 -2.92606 4.33997e-19)
(15.442 -2.881 -4.98732e-19)
(14.9689 -2.82944 2.34985e-19)
(14.4588 -2.77033 -1.92728e-19)
(13.9047 -2.70208 -7.28063e-20)
(13.2957 -2.62224 1.29088e-19)
(12.6144 -2.52723 0)
(11.8289 -2.41007 4.62138e-19)
(10.8772 -2.25559 -1.20864e-18)
(9.65654 -2.01006 8.01754e-19)
(8.35896 -1.68803 -2.16871e-18)
(20.3916 -2.63542 -1.97187e-21)
(20.3753 -2.6605 -1.41267e-19)
(20.3576 -2.68826 1.40552e-19)
(20.3391 -2.71496 -3.4987e-20)
(20.3195 -2.74125 1.73464e-19)
(20.2988 -2.76707 0)
(20.2765 -2.79237 1.38297e-19)
(20.2523 -2.81712 -1.3512e-19)
(20.2259 -2.84128 2.73755e-19)
(20.1967 -2.86478 0)
(20.1642 -2.88757 2.03553e-19)
(20.1276 -2.90957 -5.45839e-19)
(20.0861 -2.9307 8.21001e-19)
(20.0387 -2.95085 -5.53382e-19)
(19.9843 -2.96989 5.53091e-19)
(19.9216 -2.98768 -6.31746e-19)
(19.8495 -3.00405 7.03831e-20)
(19.7665 -3.01883 -5.68522e-19)
(19.6715 -3.0318 5.80225e-19)
(19.563 -3.04279 0)
(19.4396 -3.05157 7.30041e-20)
(19.3 -3.05788 -6.02731e-19)
(19.1428 -3.06149 6.59103e-19)
(18.9667 -3.06217 0)
(18.7705 -3.05962 0)
(18.553 -3.05359 3.31052e-19)
(18.3132 -3.04379 -3.45066e-19)
(18.0498 -3.02996 -3.08693e-19)
(17.7617 -3.01178 3.70815e-19)
(17.4477 -2.98886 -3.3567e-19)
(17.1062 -2.96088 -4.51661e-20)
(16.7357 -2.92732 4.26561e-19)
(16.334 -2.88769 2.22875e-19)
(15.8981 -2.84124 -4.49609e-19)
(15.4244 -2.78703 2.27839e-19)
(14.9076 -2.72383 3.46738e-20)
(14.3398 -2.64992 -1.54705e-19)
(13.7094 -2.56277 4.25308e-20)
(12.9973 -2.45849 -4.92149e-20)
(12.1703 -2.33008 -5.74197e-20)
(11.1749 -2.16596 7.03372e-20)
(9.99832 -1.94264 9.22996e-20)
(9.32116 -1.68782 -1.73195e-18)
(20.3644 -2.61462 -1.34413e-21)
(20.3491 -2.63701 -7.30172e-20)
(20.3324 -2.66179 -2.18939e-19)
(20.3151 -2.6857 -1.7909e-19)
(20.2968 -2.70928 -1.07873e-19)
(20.2775 -2.73248 0)
(20.257 -2.75529 -1.40101e-19)
(20.2349 -2.77767 0)
(20.2109 -2.7996 2.78399e-19)
(20.1848 -2.82102 -2.79896e-19)
(20.1559 -2.8419 7.00573e-20)
(20.1237 -2.86218 0)
(20.0876 -2.8818 0)
(20.0468 -2.90064 -2.81425e-19)
(20.0003 -2.91859 6.4084e-19)
(19.9471 -2.93553 -2.88447e-19)
(19.886 -2.95129 -1.44881e-19)
(19.8157 -2.9657 7.28487e-20)
(19.7352 -2.97857 0)
(19.643 -2.98968 7.47692e-20)
(19.5376 -2.99882 0)
(19.4177 -3.00572 7.72924e-20)
(19.2816 -3.01011 3.5602e-19)
(19.1278 -3.01172 -2.86993e-19)
(18.9546 -3.01024 3.32268e-19)
(18.7607 -3.00535 -3.87263e-19)
(18.5442 -2.99671 -3.08049e-19)
(18.3037 -2.98398 -4.17327e-20)
(18.0374 -2.96678 7.58163e-19)
(17.7437 -2.94466 -3.97029e-19)
(17.4204 -2.91718 4.6172e-19)
(17.0656 -2.88374 -4.36286e-19)
(16.6763 -2.84371 5.65241e-20)
(16.2495 -2.79629 1.81677e-19)
(15.7807 -2.74042 -3.27144e-19)
(15.2641 -2.6748 7.0503e-20)
(14.6911 -2.59764 0)
(14.049 -2.5064 -4.25053e-20)
(13.317 -2.39708 2.41202e-19)
(12.4616 -2.26217 -5.88682e-20)
(11.4432 -2.08912 -6.78392e-20)
(10.3271 -1.87525 -8.54648e-20)
(10.038 -1.66879 -1.86354e-19)
(20.3405 -2.5951 0)
(20.326 -2.61517 2.21502e-19)
(20.3102 -2.63738 -9.32022e-20)
(20.2938 -2.6588 1.66864e-19)
(20.2766 -2.67996 0)
(20.2585 -2.70083 -1.44397e-19)
(20.2393 -2.72137 1.44863e-19)
(20.2187 -2.74156 -1.42786e-19)
(20.1966 -2.76139 2.85416e-19)
(20.1725 -2.78081 -7.20287e-20)
(20.1461 -2.79978 2.83636e-19)
(20.1169 -2.81827 -3.57197e-19)
(20.0845 -2.83622 -2.8507e-19)
(20.048 -2.85356 2.88944e-19)
(20.0068 -2.87019 -7.2195e-20)
(19.9599 -2.88599 2.91312e-19)
(19.9063 -2.90082 -5.16639e-19)
(19.8449 -2.91453 2.24904e-19)
(19.7745 -2.92694 3.01203e-19)
(19.6939 -2.93786 -8.01857e-20)
(19.6015 -2.94707 -3.1293e-19)
(19.496 -2.95431 -7.99431e-20)
(19.3756 -2.9593 1.59292e-19)
(19.2386 -2.96174 -3.72971e-19)
(19.0834 -2.96129 0)
(18.9079 -2.9576 8.68413e-20)
(18.7102 -2.95028 -3.99022e-19)
(18.4883 -2.93895 4.21414e-21)
(18.2402 -2.92314 3.82324e-19)
(17.9635 -2.90239 4.9125e-20)
(17.6559 -2.87615 2.04584e-19)
(17.3147 -2.84378 -2.72885e-21)
(16.9366 -2.80454 -2.29627e-19)
(16.518 -2.75755 -1.18587e-19)
(16.0539 -2.70171 3.22138e-19)
(15.5378 -2.63556 -7.05468e-20)
(14.9604 -2.55721 -7.50123e-20)
(14.3076 -2.46391 0)
(13.5574 -2.35149 0)
(12.6765 -2.2123 -2.16159e-19)
(11.6397 -2.03275 2.59874e-19)
(10.5783 -1.82303 -6.26506e-19)
(10.55 -1.65775 6.61149e-19)
(20.3194 -2.57724 7.2609e-20)
(20.3057 -2.59518 -2.29109e-19)
(20.2909 -2.6151 0)
(20.2755 -2.63437 5.63438e-20)
(20.2594 -2.65345 1.87596e-20)
(20.2424 -2.67231 1.49043e-19)
(20.2245 -2.69091 1.46804e-19)
(20.2054 -2.70927 -7.39839e-20)
(20.1849 -2.72735 0)
(20.1628 -2.74509 7.19222e-20)
(20.1387 -2.76246 -2.18397e-19)
(20.1122 -2.77945 -1.44516e-19)
(20.0829 -2.79604 2.22444e-21)
(20.0503 -2.81214 2.29792e-21)
(20.0136 -2.8277 3.71756e-19)
(19.9721 -2.84259 7.45544e-20)
(19.9248 -2.85669 7.5368e-20)
(19.8708 -2.86984 -3.04486e-19)
(19.8089 -2.8819 2.79138e-21)
(19.7378 -2.8927 3.15567e-19)
(19.6562 -2.90202 -7.95806e-20)
(19.5626 -2.90963 3.22756e-19)
(19.4553 -2.91525 -5.77887e-19)
(19.3325 -2.91854 4.23046e-19)
(19.1923 -2.91913 -3.42864e-19)
(19.0326 -2.91665 3.1083e-19)
(18.8511 -2.91066 0)
(18.6455 -2.90076 0)
(18.4132 -2.88643 0)
(18.1517 -2.86717 1.98291e-19)
(17.8581 -2.84238 -4.15587e-19)
(17.5291 -2.8114 1.64225e-19)
(17.1612 -2.77341 5.59036e-20)
(16.7501 -2.72747 -6.06031e-20)
(16.2901 -2.67241 0)
(15.7745 -2.60671 -6.88301e-20)
(15.1931 -2.52832 7.45498e-20)
(14.5309 -2.43432 2.02298e-20)
(13.7641 -2.32013 6.80072e-20)
(12.8601 -2.17805 -3.11446e-19)
(11.8074 -1.99438 2.47815e-19)
(10.7913 -1.78753 0)
(10.943 -1.65548 5.8914e-19)
(20.301 -2.56113 1.49935e-19)