/*--------------------------------*- C++ -*----------------------------------*\
| =========                 |                                                 |
| \\      /  F ield         | OpenFOAM: The Open Source CFD Toolbox           |
|  \\    /   O peration     | Version:  2.3.0                                 |
|   \\  /    A nd           | Web:      www.OpenFOAM.org                      |
|    \\/     M anipulation  |                                                 |
\*---------------------------------------------------------------------------*/
FoamFile
{
    version     2.0;
    format      ascii;
    class       volVectorField;
    location    "7000";
    object      U;
}
// * * * * * * * * * * * * * * * * * * * * * * * * * * * * * * * * * * * * * //

dimensions      [0 1 -1 0 0 0 0];

internalField   nonuniform List<vector> 
14036
(
(22.0168 9.17145 3.33414e-20)
(21.8735 9.55221 4.42211e-20)
(21.7239 9.93999 0)
(21.5639 10.3409 3.34388e-20)
(21.3933 10.756 -3.98428e-20)
(21.2115 11.1859 -4.69498e-20)
(21.0165 11.6291 5.66803e-20)
(20.8039 12.0818 -5.72899e-20)
(20.5666 12.5385 0)
(20.2954 12.9915 0)
(19.9794 13.4329 -9.06951e-21)
(19.6059 13.855 1.09922e-20)
(19.1618 14.2522 -1.35111e-20)
(18.6337 14.6208 -7.0324e-21)
(18.0092 14.9588 -1.38824e-20)
(17.2765 15.2655 7.82963e-20)
(16.4249 15.5417 8.25171e-20)
(15.4456 15.7896 -1.71323e-19)
(14.3304 16.0095 3.50497e-19)
(13.0685 16.1892 -3.90217e-19)
(11.6528 16.3088 0)
(10.1076 16.4017 -4.44597e-19)
(8.49073 16.5629 4.81594e-19)
(6.80306 16.6055 -9.75781e-19)
(21.6631 9.04075 0)
(21.5031 9.36289 -7.11877e-20)
(21.3325 9.68353 -8.00767e-20)
(21.1482 10.0076 4.88119e-20)
(20.9473 10.3351 1.64641e-19)
(20.7284 10.6667 -3.45989e-20)
(20.4896 11.003 -1.75344e-19)
(20.2293 11.3444 2.14523e-19)
(19.9457 11.6908 -2.21652e-19)
(19.6364 12.0408 2.69645e-19)
(19.2989 12.3922 8.90914e-21)
(18.9304 12.7409 -1.07816e-20)
(18.5282 13.0818 -2.30391e-20)
(18.0895 13.4078 5.6976e-19)
(17.6123 13.7102 -5.09274e-19)
(17.0952 13.979 0)
(16.5381 14.203 4.61845e-20)
(15.9424 14.3695 -1.6051e-20)
(15.3109 14.465 2.38547e-20)
(14.6487 14.4748 4.62336e-20)
(13.9658 14.383 0)
(13.2781 14.1759 0)
(12.597 13.8428 0)
(11.9195 13.3781 0)
(21.3621 8.88956 0)
(21.1951 9.16368 8.04676e-20)
(21.0173 9.43256 0)
(20.8275 9.70116 -5.92052e-20)
(20.6239 9.96819 0)
(20.4051 10.233 3.54553e-19)
(20.1693 10.4947 -5.51306e-21)
(19.9147 10.7522 -8.51983e-19)
(19.6393 11.0043 -1.54079e-19)
(19.3411 11.2493 1.02514e-18)
(19.018 11.4851 5.1878e-20)
(18.6682 11.7093 -1.20554e-18)
(18.29 11.9187 6.95871e-19)
(17.8824 12.1097 0)
(17.4447 12.2779 -4.59814e-20)
(16.9778 12.4182 5.02563e-19)
(16.4832 12.5253 -6.41826e-19)
(15.9646 12.5934 1.15864e-19)
(15.4268 12.6164 7.83278e-19)
(14.877 12.5887 -1.46135e-18)
(14.3253 12.5056 -1.96122e-20)
(13.7841 12.364 -7.67469e-20)
(13.2678 12.1621 9.1877e-19)
(12.7927 11.8997 -5.37447e-19)
(21.1106 8.73344 -9.68801e-20)
(20.9458 8.96431 2.39641e-20)
(20.7697 9.18809 2.067e-19)
(20.5827 9.4104 -4.57073e-20)
(20.384 9.62966 -2.21158e-19)
(20.1727 9.84532 1.21148e-19)
(19.9478 10.0564 -2.73211e-19)
(19.7082 10.2621 5.68618e-19)
(19.4531 10.4609 7.82178e-21)
(19.1814 10.6515 -2.30758e-19)
(18.8922 10.8319 0)
(18.5847 10.9998 -5.11587e-19)
(18.2583 11.1526 4.18049e-19)
(17.9129 11.287 6.27317e-20)
(17.5485 11.3996 6.84959e-20)
(17.1663 11.4866 0)
(16.7678 11.5437 7.32695e-20)
(16.3558 11.567 -9.02788e-19)
(15.9342 11.5524 6.50931e-19)
(15.5082 11.4965 8.26286e-19)
(15.0841 11.3968 1.34892e-20)
(14.6695 11.2525 -1.97903e-18)
(14.2727 11.0644 1.57345e-18)
(13.9023 10.8359 -5.48624e-19)
(20.9074 8.58142 -1.32785e-20)
(20.7454 8.77192 6.87716e-21)
(20.5747 8.95833 -2.54914e-19)
(20.395 9.14286 3.14815e-19)
(20.2056 9.32387 -3.61579e-19)
(20.0058 9.50061 2.97832e-19)
(19.7945 9.67217 0)
(19.5708 9.83762 3.47155e-19)
(19.3339 9.9959 -3.59588e-19)
(19.0828 10.1458 -9.02431e-20)
(18.8171 10.2857 5.39329e-19)
(18.5362 10.4137 -3.80895e-19)
(18.2398 10.5279 0)
(17.9281 10.6259 -6.08892e-19)
(17.6016 10.7047 4.09978e-19)
(17.2612 10.7617 0)
(16.9089 10.7939 0)
(16.5471 10.7982 9.44787e-19)
(16.1792 10.7719 -7.70886e-19)
(15.8097 10.7127 1.0906e-19)
(15.4437 10.6192 4.79145e-19)
(15.0868 10.4909 -4.83386e-19)
(14.7454 10.3291 -1.32909e-19)
(14.4255 10.1363 -5.77041e-19)
(20.7366 8.4235 1.29117e-19)
(20.5815 8.58769 -1.4015e-19)
(20.4197 8.74615 3.63545e-19)
(20.25 8.90129 -2.26943e-19)
(20.072 9.05272 7.49443e-20)
(19.885 9.2 -1.67231e-19)
(19.6885 9.34235 3.65643e-19)
(19.4817 9.47889 -2.6823e-19)
(19.2638 9.60871 9.54225e-20)
(19.0341 9.73076 0)
(18.7923 9.84359 -2.2754e-19)
(18.5379 9.94558 -5.06697e-19)
(18.2707 10.035 5.79918e-19)
(17.991 10.1099 0)
(17.6992 10.1679 -5.59863e-19)
(17.3962 10.2065 6.43936e-19)
(17.0835 10.2236 -6.49833e-19)
(16.763 10.2166 6.5693e-19)
(16.4378 10.1836 -5.35853e-19)
(16.1112 10.1227 3.25776e-19)
(15.7874 10.0331 0)
(15.4708 9.9143 0)
(15.1662 9.76747 1.36433e-19)
(14.8783 9.59468 0)
(20.5916 8.28511 1.48227e-19)
(20.4472 8.421 8.01604e-20)
(20.296 8.55511 -7.64231e-20)
(20.1372 8.68613 8.00721e-20)
(19.9706 8.81399 1.79899e-19)
(19.7957 8.93832 -1.86592e-19)
(19.6127 9.05836 9.99882e-20)
(19.4205 9.17315 -9.85468e-20)
(19.2185 9.2819 -4.44075e-19)
(19.0062 9.3837 3.29105e-19)
(18.7829 9.47737 -2.58332e-19)
(18.5485 9.56136 5.07232e-19)
(18.3029 9.63397 5.05674e-19)
(18.0461 9.6938 -5.81757e-19)
(17.779 9.73891 -8.14222e-20)
(17.5023 9.76684 -8.73193e-20)
(17.217 9.77532 -9.18761e-20)
(16.9245 9.76267 0)
(16.6279 9.72724 1.06611e-19)
(16.3301 9.66747 0)
(16.0344 9.58234 -1.22817e-19)
(15.7445 9.47164 -5.35053e-19)
(15.4642 9.33638 4.02552e-19)
(15.1978 9.17824 -1.45382e-19)
(20.4743 8.1567 1.48137e-21)
(20.3384 8.26967 -8.0735e-20)
(20.1966 8.38394 0)
(20.048 8.4957 -1.8558e-19)
(19.8926 8.60493 1.85092e-19)
(19.7289 8.71132 3.9891e-19)
(19.5579 8.81418 -3.02536e-19)
(19.3783 8.9125 -2.22623e-19)
(19.1899 9.00551 3.40277e-19)
(18.9919 9.09236 -4.80557e-21)
(18.784 9.17211 -1.25731e-19)
(18.5662 9.2433 1.38281e-19)
(18.3384 9.30382 0)
(18.0995 9.35288 3.97706e-19)
(17.8516 9.38925 1.55235e-20)
(17.5961 9.41025 -2.58824e-19)
(17.3331 9.41317 0)
(17.0624 9.39691 4.18729e-19)
(16.7874 9.36051 -5.34856e-19)
(16.5111 9.30223 0)
(16.2364 9.22101 1.23914e-19)
(15.9664 9.11623 0)
(15.7035 8.98948 6.92025e-22)
(15.4528 8.8424 1.46828e-19)
(20.3762 8.03816 0)
(20.2498 8.13167 -1.83942e-19)
(20.1174 8.22999 2.80948e-19)
(19.978 8.32678 -2.8646e-19)
(19.834 8.42167 -2.03827e-19)
(19.6801 8.51363 1.01973e-19)
(19.5198 8.60263 -1.09474e-19)
(19.3511 8.68768 -3.4576e-19)
(19.1741 8.76839 3.59324e-19)
(18.9879 8.84387 3.71697e-21)
(18.7922 8.91347 2.7138e-19)
(18.5874 8.97608 -4.13002e-19)
(18.3759 9.02733 -1.48264e-19)
(18.1497 9.06835 2.46925e-19)
(17.9146 9.09932 -2.46479e-19)
(17.6747 9.11677 -4.59604e-19)
(17.432 9.11602 3.76018e-19)
(17.1779 9.09705 5.23424e-19)
(16.9188 9.06029 -7.67138e-19)
(16.6591 9.00344 4.55382e-19)
(16.4006 8.92565 1.22813e-19)
(16.1464 8.82485 2.67655e-19)
(15.8955 8.70467 1.27415e-20)
(15.656 8.56742 -2.8425e-19)
(20.2904 7.9282 0)
(20.1798 8.00781 9.56946e-20)
(20.063 8.0912 0)
(19.9325 8.17518 9.87879e-20)
(19.798 8.26025 0)
(19.6509 8.34064 2.21944e-19)
(19.5033 8.41828 -1.11073e-19)
(19.3481 8.49106 1.17312e-19)
(19.1851 8.56007 0)
(19.0124 8.62487 -3.89054e-19)
(18.8307 8.6852 5.30821e-19)
(18.6365 8.74427 1.23293e-20)
(18.4435 8.78695 -4.42335e-19)
(18.2305 8.81655 3.1616e-19)
(18.0039 8.84365 0)
(17.7704 8.86373 4.59782e-19)
(17.543 8.86245 -1.74995e-19)
(17.2979 8.84024 -3.04061e-19)
(17.0493 8.80399 0)
(16.8024 8.74803 0)
(16.5562 8.67392 1.26148e-19)
(16.3171 8.57282 -2.50353e-19)
(16.0717 8.4581 4.12514e-19)
(15.8388 8.33095 -2.75839e-19)
(5.08776 15.7529 1.0021e-18)
(4.91225 14.343 4.31672e-20)
(5.0712 13.0995 0)
(5.35074 12.0126 -8.97567e-20)
(5.6866 11.0448 0)
(6.06527 10.1756 -8.959e-20)
(6.47592 9.39059 -1.76643e-19)
(6.90759 8.67968 -3.14547e-19)
(7.35038 8.03491 0)
(7.79627 7.45005 -1.01604e-18)
(8.23809 6.91934 8.01046e-19)
(8.67025 6.43734 -1.40315e-18)
(9.08877 5.99956 8.08921e-19)
(9.49116 5.60187 2.72132e-19)
(9.87614 5.24013 1.08589e-18)
(10.2436 4.91023 -1.07456e-18)
(10.5945 4.60825 0)
(10.9302 4.33018 0)
(11.2524 4.07235 -1.50904e-18)
(11.5628 3.83133 -4.48556e-19)
(11.8633 3.6045 4.59252e-19)
(12.1554 3.39091 -4.42893e-19)
(12.4402 3.18614 0)
(12.7165 2.96317 0)
(11.2571 12.7997 4.25291e-20)
(10.7349 12.1358 -8.80484e-20)
(10.3596 11.4527 9.56444e-20)
(10.1076 10.7799 4.58765e-19)
(9.95329 10.1307 -4.65407e-19)
(9.87675 9.51197 0)
(9.8634 8.92794 0)
(9.90189 8.38094 1.25407e-19)
(9.98265 7.87161 -5.13315e-19)
(10.0976 7.39924 2.56461e-19)
(10.2397 6.96214 -1.02335e-18)
(10.4034 6.5579 2.29338e-18)
(10.584 6.18355 -1.01346e-18)
(10.7775 5.83593 -4.94071e-19)
(10.9808 5.51174 4.7825e-19)
(11.1914 5.20792 4.74448e-19)
(11.407 4.92167 0)
(11.626 4.6507 9.35859e-19)
(11.8469 4.39318 4.77191e-19)
(12.0686 4.14764 1.81225e-18)
(12.2902 3.9134 0)
(12.5112 3.69096 0)
(12.731 3.47876 1.60402e-18)
(12.9466 3.25644 -7.52787e-19)
(12.3714 11.5777 1.04355e-18)
(12.0118 11.1974 4.60709e-20)
(11.715 10.7716 -8.14289e-19)
(11.4811 10.3181 0)
(11.3068 9.85111 0)
(11.1875 9.38105 0)
(11.1176 8.91577 0)
(11.0918 8.46106 4.12437e-19)
(11.1041 8.02096 -6.33693e-19)
(11.1492 7.59814 2.13796e-19)
(11.2216 7.19418 2.1338e-19)
(11.3166 6.80991 4.39056e-19)
(11.4302 6.44527 -4.38408e-19)
(11.5584 6.09999 -6.54768e-19)
(11.6981 5.77325 -8.10541e-21)
(11.8467 5.46416 -2.07023e-20)
(12.0019 5.17162 -4.32168e-19)
(12.1623 4.89454 -1.05312e-20)
(12.3265 4.63171 -1.07397e-18)
(12.4936 4.38192 -6.52272e-19)
(12.663 4.14415 1.02941e-18)
(12.8341 3.91786 -2.03221e-19)
(13.0062 3.70003 7.5996e-19)
(13.1761 3.47583 -7.2147e-19)
(13.5626 10.5706 0)
(13.2549 10.2702 1.56985e-19)
(12.9828 9.9393 8.39609e-20)
(12.75 9.58653 -1.73124e-19)
(12.5576 9.21968 0)
(12.4048 8.84581 0)
(12.2896 8.4707 1.90674e-19)
(12.2094 8.09902 -7.3087e-21)
(12.161 7.73445 0)
(12.141 7.37967 7.88091e-21)
(12.1461 7.03647 -2.09495e-19)
(12.173 6.70603 0)
(12.219 6.38885 0)
(12.2813 6.08503 0)
(12.3575 5.79431 6.79352e-21)
(12.4455 5.51624 -7.10045e-21)
(12.5436 5.25021 1.35834e-20)
(12.6501 4.9956 -2.06068e-19)
(12.7638 4.75167 6.2052e-19)
(12.8837 4.51771 -1.2629e-20)
(13.0089 4.29308 -7.94695e-19)
(13.1386 4.07762 -7.70538e-19)
(13.2726 3.86932 -7.64709e-19)
(13.411 3.65427 -7.24488e-19)
(14.1297 9.91494 1.19038e-18)
(13.8586 9.66586 -5.38369e-19)
(13.6148 9.39176 -4.9971e-19)
(13.4013 9.09826 1.6865e-19)
(13.2196 8.79086 3.51074e-19)
(13.0697 8.4748 -1.3451e-19)
(12.9505 8.1548 -2.38204e-19)
(12.8605 7.83473 -1.9524e-19)
(12.7973 7.51787 3.84694e-19)
(12.7586 7.20674 6.10879e-21)
(12.7417 6.90316 2.00981e-19)
(12.7441 6.60847 -3.91827e-19)
(12.7636 6.32347 -3.96303e-19)
(12.7979 6.04848 7.90919e-19)
(12.8449 5.78363 -7.91269e-19)
(12.9029 5.52881 7.85095e-19)
(12.9701 5.28382 1.13643e-20)
(13.0454 5.04842 -3.8865e-19)
(13.1278 4.82209 0)
(13.2164 4.60437 -6.06294e-21)
(13.3103 4.39481 6.00415e-21)
(13.409 4.19367 3.89007e-19)
(13.5118 4.00051 7.29718e-19)
(13.6163 3.80361 7.05552e-19)
(14.6095 9.39785 0)
(14.3606 9.17809 -4.85025e-19)
(14.1342 8.93776 4.93594e-19)
(13.9327 8.68105 1.73679e-19)
(13.7577 8.41208 -3.5423e-19)
(13.6095 8.13487 3.62611e-19)
(13.4874 7.85328 0)
(13.3901 7.57059 0)
(13.316 7.28959 -1.91428e-19)
(13.2632 7.01259 -1.87679e-19)
(13.2296 6.74128 1.9351e-19)
(13.2135 6.4769 0)
(13.2128 6.22029 1.88995e-19)
(13.2258 5.97179 0)
(13.2506 5.73152 -3.77654e-19)
(13.2856 5.49957 -3.86527e-19)
(13.3294 5.276 9.02524e-21)
(13.381 5.06061 3.84103e-19)
(13.4395 4.85301 -9.44795e-20)
(13.5043 4.65264 -2.77806e-19)
(13.5744 4.45916 3.68373e-19)
(13.6491 4.27262 7.33777e-19)
(13.7277 4.09184 -7.26025e-19)
(13.8078 3.90949 -1.01446e-18)
(14.9477 8.99845 1.52369e-19)
(14.7147 8.79862 -1.58829e-19)
(14.5016 8.58137 0)
(14.3108 8.34981 1.73602e-19)
(14.1436 8.10726 8.95315e-20)
(14.0001 7.85701 -9.2703e-20)
(13.8797 7.60238 0)
(13.7814 7.34629 9.27363e-20)
(13.7035 7.09129 1.84905e-19)
(13.6445 6.83938 -2.75538e-19)
(13.6027 6.59225 7.21819e-22)
(13.5766 6.35113 1.84686e-19)
(13.5647 6.11678 -4.1169e-21)
(13.5655 5.88936 -3.68579e-19)
(13.577 5.66896 3.75746e-19)
(13.5973 5.45603 5.52704e-19)
(13.6255 5.25083 5.55179e-19)
(13.6611 5.05308 0)
(13.7033 4.86232 -9.17677e-20)
(13.7515 4.67782 8.27006e-19)
(13.8041 4.4995 -3.71025e-19)
(13.861 4.32776 -8.95345e-19)
(13.9225 4.16172 5.26243e-19)
(13.9874 3.99822 3.44931e-19)
(15.2172 8.67466 -1.53842e-19)
(14.9959 8.48873 6.42753e-19)
(14.7925 8.28816 -4.88212e-19)
(14.6102 8.07506 -1.71964e-19)
(14.4494 7.85173 1.6858e-19)
(14.3105 7.62122 4.46607e-20)
(14.1926 7.38665 1.33389e-19)
(14.0945 7.15058 0)
(14.0147 6.91535 -1.83628e-19)
(13.952 6.68278 -1.80389e-19)
(13.9048 6.45453 1.82347e-19)
(13.8719 6.23204 1.807e-19)
(13.8526 6.01587 -3.6546e-19)
(13.8454 5.80567 1.889e-19)
(13.8474 5.60154 -1.80728e-19)
(13.857 5.40486 -3.648e-19)
(13.8739 5.21589 -3.6354e-19)
(13.8981 5.03377 -3.56142e-19)
(13.9288 4.85798 0)
(13.9649 4.68744 -3.56219e-19)
(14.0041 4.52279 -4.425e-19)
(14.0468 4.3649 6.13928e-19)
(14.0949 4.21275 -1.7558e-19)
(14.1467 4.06125 1.62094e-21)
(15.4335 8.40884 -1.50263e-19)
(15.2197 8.23411 -1.85006e-21)
(15.0225 8.04559 1.63288e-19)
(14.8477 7.84701 -8.12732e-20)
(14.6934 7.63745 -1.69396e-19)
(14.5593 7.42114 -2.79698e-19)
(14.4437 7.20231 1.93184e-20)
(14.3468 6.98143 -1.75912e-19)
(14.2662 6.76175 2.66513e-19)
(14.2015 6.54404 1.81156e-19)
(14.1506 6.33074 -8.87863e-20)
(14.1131 6.12334 5.33591e-19)
(14.0892 5.922 -1.7731e-19)
(14.0771 5.7257 1.83671e-19)
(14.0722 5.53436 1.02861e-21)
(14.0739 5.35236 -3.53023e-19)
(14.0831 5.17783 1.75605e-19)
(14.0996 5.00909 6.13877e-19)
(14.1223 4.84606 1.31032e-19)
(14.1497 4.68685 -4.34992e-20)
(14.1781 4.53453 4.52564e-21)
(14.209 4.38911 -1.74405e-19)
(14.2478 4.24962 -2.36123e-21)
(14.2895 4.10633 1.72947e-19)
(15.6293 8.1754 -1.67456e-21)
(15.4124 8.01692 -3.6849e-21)
(15.2125 7.84016 0)
(15.0438 7.65665 8.37425e-20)
(14.8949 7.45579 8.34669e-20)
(14.763 7.24785 1.72357e-19)
(14.6478 7.04416 -1.756e-19)
(14.553 6.8338 1.32368e-19)
(14.4726 6.62805 -1.32584e-19)
(14.4079 6.4211 0)
(14.3543 6.22085 0)
(14.3135 6.02518 -3.58113e-19)
(14.287 5.83516 -1.76212e-19)
(14.2731 5.65023 5.11944e-19)
(14.262 5.46936 0)
(14.2566 5.30382 4.42103e-19)
(14.2606 5.1413 -8.86801e-20)
(14.2711 4.9825 -7.01222e-19)
(14.2872 4.8295 0)
(14.308 4.67776 0)
(14.3285 4.53889 3.75419e-19)
(14.3517 4.40472 -4.22116e-20)
(14.3851 4.27674 -3.4467e-19)
(14.4192 4.13319 -3.29978e-19)
(-3.91142 -2.52026 0)
(-3.89554 -2.52616 1.17081e-19)
(-3.81613 -2.53236 -6.57435e-20)
(-3.68065 -2.5379 -2.07205e-19)
(-3.49646 -2.54218 -1.46724e-19)
(-3.27073 -2.54474 0)
(-3.01012 -2.54514 8.05981e-20)
(-2.72062 -2.54299 0)
(-2.40755 -2.53791 8.70947e-20)
(-2.0754 -2.52952 1.04223e-19)
(-1.72777 -2.51737 -2.03578e-19)
(-1.36732 -2.50089 0)
(-0.99584 -2.47924 2.25592e-19)
(-0.61388 -2.45119 -1.85436e-19)
(-0.220416 -2.41459 2.83207e-20)
(0.187581 -2.3667 -9.84914e-20)
(0.616835 -2.30392 1.36814e-19)
(1.08095 -2.22185 1.10118e-19)
(1.6058 -2.11536 -4.24181e-20)
(2.23824 -1.97945 -3.27249e-19)
(3.06184 -1.81205 -1.28696e-21)
(4.24363 -1.61503 3.85204e-19)
(6.13648 -1.4116 -7.31961e-19)
(9.543 -1.43895 8.56489e-19)
(-3.91784 -2.51619 2.00697e-19)
(-3.89192 -2.51525 -1.16571e-19)
(-3.81175 -2.51133 0)
(-3.68315 -2.50529 2.62717e-19)
(-3.51145 -2.49704 1.06151e-19)
(-3.30157 -2.48637 -3.7157e-20)
(-3.0578 -2.47304 -7.60213e-20)
(-2.78371 -2.45665 7.83135e-20)
(-2.48211 -2.43662 8.11937e-20)
(-2.15499 -2.4121 -8.42307e-20)
(-1.80331 -2.38195 -2.19467e-19)
(-1.42663 -2.34468 4.09004e-19)
(-1.02297 -2.29848 -1.88775e-19)
(-0.58814 -2.24112 4.84024e-20)
(-0.115101 -2.17007 0)
(0.405685 -2.0824 7.61963e-20)
(0.989338 -1.97513 -1.38374e-20)
(1.66053 -1.84547 -1.51758e-20)
(2.45814 -1.69245 -2.76869e-20)
(3.44251 -1.51977 9.98956e-20)
(4.70831 -1.3414 -1.09296e-19)
(6.3997 -1.19469 0)
(8.72274 -1.1597 1.3224e-20)
(11.9034 -1.38694 0)
(-3.90123 -2.48363 0)
(-3.86217 -2.47235 -5.03354e-20)
(-3.77384 -2.45732 2.63667e-20)
(-3.64085 -2.4392 -9.4208e-20)
(-3.46733 -2.41764 0)
(-3.25675 -2.39224 6.56552e-20)
(-3.0119 -2.36254 7.05723e-20)
(-2.73472 -2.32794 0)
(-2.42633 -2.28767 -7.50931e-20)
(-2.08684 -2.24069 -2.19013e-21)
(-1.71532 -2.18579 1.96945e-19)
(-1.30936 -2.12157 -1.21411e-19)
(-0.864808 -2.04653 8.29678e-20)
(-0.375394 -1.95912 4.11642e-20)
(0.16834 -1.85779 -1.705e-19)
(0.780289 -1.74111 4.33258e-20)
(1.48007 -1.60842 4.12296e-20)
(2.29543 -1.46054 -2.22729e-20)
(3.26623 -1.30152 -1.98685e-20)
(4.44684 -1.14236 1.89115e-20)
(5.91097 -1.00585 -1.7294e-20)
(7.75093 -0.934762 -1.44282e-20)
(10.0625 -1.00135 0)
(12.8851 -1.30685 -7.72051e-21)
(-3.86469 -2.43312 9.46268e-20)
(-3.81238 -2.40551 3.74151e-21)
(-3.71595 -2.37814 -2.40904e-19)
(-3.57838 -2.34683 -2.70352e-20)
(-3.40267 -2.31099 -2.98389e-20)
(-3.19103 -2.27032 -1.4366e-21)
(-2.9449 -2.22453 3.24e-20)
(-2.66487 -2.1732 8.45229e-22)
(-2.35059 -2.11574 -6.85163e-20)
(-2.00072 -2.05124 -6.82718e-20)
(-1.61291 -1.97864 0)
(-1.18342 -1.89687 0)
(-0.706616 -1.80484 0)
(-0.174586 -1.70172 0)
(0.423505 -1.58689 0)
(1.10284 -1.46023 3.6511e-20)
(1.8838 -1.32295 -6.80527e-20)
(2.79347 -1.17851 4.29356e-20)
(3.86788 -1.03437 3.3824e-20)
(5.15346 -0.904635 -1.79634e-20)
(6.70665 -0.814062 1.63395e-20)
(8.59017 -0.801929 1.34849e-20)
(10.8572 -0.925654 0)
(13.5143 -1.25369 1.89181e-21)
(-3.81108 -2.36263 -8.32255e-20)
(-3.74571 -2.32569 9.07071e-20)
(-3.64053 -2.28841 5.35454e-20)
(-3.49732 -2.24646 5.2422e-20)
(-3.31794 -2.19943 8.33731e-22)
(-3.10371 -2.14717 0)
(-2.85515 -2.08948 5.56391e-20)
(-2.57189 -2.02624 0)
(-2.25234 -1.9571 -1.47752e-21)
(-1.89378 -1.88123 6.37027e-20)
(-1.4928 -1.79752 -6.30645e-20)
(-1.04497 -1.70499 0)
(-0.54409 -1.60306 0)
(0.0185695 -1.49149 3.2914e-20)
(0.654547 -1.37053 -3.40177e-20)
(1.37927 -1.2413 0)
(2.21282 -1.10636 4.00017e-21)
(3.18118 -0.970793 -6.92479e-20)
(4.31752 -0.843494 -3.28627e-20)
(5.66156 -0.739695 0)
(7.25974 -0.683213 0)
(9.1594 -0.709307 -3.01572e-20)
(11.3967 -0.864945 3.2692e-20)
(13.9705 -1.20215 -1.30841e-21)
(-3.7443 -2.28115 3.81247e-20)
(-3.6677 -2.23932 -4.63312e-20)
(-3.5548 -2.1951 4.68775e-20)
(-3.40666 -2.14553 4.53469e-20)
(-3.22424 -2.09064 7.61976e-22)
(-3.00806 -2.03027 0)
(-2.75807 -1.96428 -5.3805e-20)
(-2.47319 -1.89273 5.38134e-20)
(-2.15097 -1.8159 3.64112e-22)
(-1.78703 -1.73328 -5.41116e-20)
(-1.37689 -1.64338 -5.75355e-20)
(-0.915624 -1.54493 0)
(-0.397081 -1.43762 2.90156e-20)
(0.187626 -1.3218 0)
(0.85044 -1.1984 2.98884e-20)
(1.60666 -1.06931 -1.63775e-20)
(2.47582 -0.938168 1.32041e-20)
(3.48296 -0.811241 5.8297e-20)
(4.65887 -0.698074 -1.33403e-20)
(6.04 -0.613691 9.8903e-21)
(7.66601 -0.580559 3.58837e-20)
(9.57603 -0.630687 -2.44096e-20)
(11.7976 -0.805351 7.39537e-21)
(14.3227 -1.14816 -6.12936e-21)
(-3.66982 -2.20004 3.83534e-20)
(-3.58359 -2.15272 -7.83838e-20)
(-3.46408 -2.1038 0)
(-3.31197 -2.04916 -2.73931e-21)
(-3.12739 -1.98921 -1.13964e-20)
(-2.90987 -1.92371 5.6454e-20)
(-2.659 -1.85221 2.21625e-20)
(-2.37368 -1.77477 2.43601e-20)
(-2.05138 -1.69263 0)
(-1.68529 -1.6064 5.31186e-20)
(-1.26912 -1.51398 0)
(-0.797649 -1.41301 0)
(-0.265438 -1.30294 -5.52053e-20)
(0.33599 -1.18494 2.73566e-20)
(1.01861 -1.06059 -4.20155e-20)
(1.7978 -0.932183 1.42124e-20)
(2.69186 -0.804117 -2.35816e-21)
(3.72592 -0.684004 -2.74561e-20)
(4.92924 -0.581877 2.58318e-20)
(6.33624 -0.512322 -2.32763e-20)
(7.98312 -0.495759 1.47108e-20)
(9.90286 -0.561924 -4.08153e-20)
(12.1159 -0.749248 -4.02239e-21)
(14.6103 -1.09656 -2.39516e-21)
(-3.59004 -2.12351 -3.43428e-20)
(-3.49619 -2.06995 3.81116e-20)
(-3.37159 -2.01781 -9.77488e-21)
(-3.21691 -1.95969 7.66638e-21)
(-3.03153 -1.89662 3.96253e-20)
(-2.81349 -1.82831 -4.39158e-20)
(-2.56193 -1.75367 -4.51629e-20)
(-2.27618 -1.67183 -2.11012e-20)
(-1.95673 -1.58513 -2.29351e-20)
(-1.5928 -1.49681 0)
(-1.17435 -1.40489 0)
(-0.694863 -1.30432 4.76356e-20)
(-0.151814 -1.19335 5.12541e-20)
(0.462376 -1.07419 -8.05995e-22)
(1.15924 -0.949553 -2.60429e-20)
(1.95621 -0.821491 6.11188e-21)
(2.86708 -0.694646 -3.215e-20)
(3.91829 -0.579158 0)
(5.13855 -0.485185 0)
(6.56321 -0.427554 0)
(8.22622 -0.423026 -1.34205e-20)
(10.1529 -0.497969 6.46084e-21)
(12.3583 -0.691728 1.82801e-20)
(14.8311 -1.04275 0)
(-3.5077 -2.04411 -1.40755e-20)
(-3.40808 -1.99149 1.69764e-20)
(-3.27892 -1.93799 0)
(-3.12226 -1.87787 -1.40487e-21)
(-2.93669 -1.81287 -3.91083e-20)
(-2.71856 -1.7436 2.92184e-20)
(-2.46559 -1.66837 -1.03159e-20)
(-2.17542 -1.58401 4.26453e-20)
(-1.85993 -1.49311 -2.22138e-20)
(-1.50044 -1.40178 0)
(-1.08246 -1.31307 2.17929e-20)
(-0.594047 -1.21645 -6.93862e-20)
(-0.0384807 -1.10636 4.82369e-20)
(0.590152 -0.987124 0)
(1.30197 -0.863198 0)
(2.11972 -0.73686 0)
(3.04684 -0.60937 0)
(4.1153 -0.49791 0)
(5.34985 -0.410409 8.10608e-21)
(6.79152 -0.365614 -8.62409e-21)
(8.47834 -0.372518 -2.17971e-21)
(10.4229 -0.451583 -5.27641e-21)
(12.6224 -0.64869 -3.53371e-21)
(15.0708 -1.00772 -2.72715e-20)
(-3.42985 -1.97231 1.55132e-20)
(-3.32769 -1.9188 -1.4818e-20)
(-3.19905 -1.86298 -4.43003e-21)
(-3.04735 -1.80106 -6.47402e-20)
(-2.86752 -1.73241 4.70073e-21)
(-2.65443 -1.66196 -4.39506e-20)
(-2.40987 -1.58704 -3.65533e-20)
(-2.12228 -1.4978 0)
(-1.81771 -1.40814 4.26578e-20)
(-1.4728 -1.3053 1.30661e-20)
(-1.06248 -1.21943 8.63836e-21)
(-0.569747 -1.12971 -6.52023e-20)
(-0.01522 -1.02073 -4.84283e-20)
(0.606722 -0.901287 -4.02095e-20)
(1.30812 -0.771138 3.81767e-20)
(2.13784 -0.645089 -3.43198e-20)
(3.05705 -0.510786 -4.53137e-20)
(4.11039 -0.399146 0)
(5.3398 -0.307201 0)
(6.78099 -0.274502 0)
(8.47875 -0.294763 6.06441e-22)
(10.4122 -0.359645 -1.26014e-21)
(12.5894 -0.52482 -1.84254e-20)
(15.052 -0.88732 3.57415e-20)
(15.8467 -2.61377 -4.17117e-21)
(19.4936 -3.77636 6.661e-21)
(20.8604 -4.20651 -3.47355e-19)
(21.534 -4.36488 3.24673e-19)
(21.9931 -4.4534 -1.449e-20)
(22.3172 -4.50414 0)
(22.5453 -4.52739 0)
(22.6997 -4.52973 -5.4139e-20)
(22.7951 -4.51554 0)
(22.8429 -4.48818 8.71565e-19)
(22.8532 -4.45055 -8.97968e-19)
(22.8353 -4.40509 5.57806e-20)
(22.7962 -4.35378 -8.83668e-19)
(22.7414 -4.29814 1.85159e-18)
(22.6748 -4.23923 -9.10616e-19)
(22.5991 -4.17775 7.44431e-19)
(22.5166 -4.11428 -1.8348e-18)
(22.4287 -4.04913 -3.11676e-19)
(22.3366 -3.98258 2.03857e-18)
(22.2412 -3.9148 -1.01302e-18)
(22.1432 -3.84601 1.08875e-18)
(22.0432 -3.77583 -1.05584e-18)
(21.9418 -3.70344 0)
(21.8372 -3.64198 -7.2978e-22)
(15.7611 -2.14547 5.43607e-20)
(19.4841 -3.27462 -4.92812e-20)
(21.3691 -3.88854 2.28615e-19)
(22.053 -4.06312 -2.28965e-19)
(22.4446 -4.14699 -6.53904e-19)
(22.7018 -4.19812 5.88397e-19)
(22.8649 -4.22572 -7.37435e-19)
(22.9582 -4.23493 -3.24261e-20)
(22.999 -4.22951 7.45588e-19)
(23.0008 -4.21257 -8.22427e-19)
(22.9747 -4.18674 -8.44336e-20)
(22.929 -4.15406 7.93077e-19)
(22.8694 -4.11614 5.80577e-20)
(22.7999 -4.07415 5.92301e-20)
(22.7233 -4.02893 0)
(22.6415 -3.98108 1.13038e-18)
(22.5559 -3.93107 -1.09497e-18)
(22.4673 -3.87921 2.55829e-19)
(22.3765 -3.82573 1.30328e-19)
(22.2838 -3.77083 -2.65793e-19)
(22.1895 -3.71474 -2.70987e-19)
(22.0942 -3.65703 0)
(21.9979 -3.59793 0)
(21.8987 -3.54649 0)
(16.1141 -1.95429 1.21013e-19)
(19.4414 -2.91762 -1.30194e-19)
(21.6033 -3.6354 -3.27238e-19)
(22.3582 -3.85726 7.46479e-19)
(22.6918 -3.93053 -3.54768e-19)
(22.8935 -3.97208 -4.20672e-19)
(23.0091 -3.99397 -7.12233e-20)
(23.0629 -4.00126 8.50367e-19)
(23.0728 -3.99724 -4.13772e-19)
(23.0519 -3.98465 8.77848e-19)
(23.0101 -3.96546 -8.7461e-19)
(22.9538 -3.94109 -5.90776e-20)
(22.8875 -3.91263 -1.1864e-19)
(22.8143 -3.88078 9.40447e-19)
(22.7363 -3.8461 -1.85095e-18)
(22.6548 -3.80901 9.78089e-19)
(22.5709 -3.76983 0)
(22.4852 -3.72878 -1.30978e-19)
(22.3981 -3.68604 -5.48223e-19)
(22.3099 -3.64181 8.07642e-19)
(22.2207 -3.59624 2.80262e-19)
(22.1309 -3.54889 0)
(22.0404 -3.50006 5.92572e-19)
(21.947 -3.45623 -5.75121e-19)
(16.4952 -1.84318 -6.25036e-20)
(19.5354 -2.68462 -1.82517e-19)
(21.7574 -3.42151 2.27052e-19)
(22.5914 -3.6917 2.61946e-20)
(22.876 -3.75914 4.30954e-19)
(23.0266 -3.79326 -4.49477e-19)
(23.1007 -3.81057 0)
(23.1227 -3.81598 -5.41798e-20)
(23.1095 -3.8125 -4.18192e-19)
(23.0731 -3.80243 4.4671e-19)
(23.0212 -3.78728 0)
(22.959 -3.76811 5.95683e-20)
(22.8898 -3.74565 6.07518e-20)
(22.8159 -3.72041 0)
(22.7387 -3.69277 5.22332e-19)
(22.6593 -3.66307 -5.02082e-19)
(22.5782 -3.63151 0)
(22.496 -3.59827 5.48536e-19)
(22.413 -3.5635 -1.12119e-19)
(22.3293 -3.52735 -5.46184e-19)
(22.245 -3.48993 0)
(22.1603 -3.45086 2.90304e-19)
(22.0751 -3.41062 6.07122e-19)
(21.9868 -3.37587 -2.83471e-19)
(16.8133 -1.76125 4.35874e-21)
(19.6764 -2.52852 -1.18717e-19)
(21.8664 -3.24612 1.72313e-19)
(22.7568 -3.54898 3.23594e-21)
(23.0051 -3.61397 0)
(23.1142 -3.64264 -3.00121e-21)
(23.1561 -3.65687 0)
(23.1544 -3.66137 0)
(23.1248 -3.65867 -5.50508e-19)
(23.0775 -3.65064 4.63577e-19)
(23.0187 -3.63851 -5.07568e-19)
(22.9527 -3.62305 5.45261e-19)
(22.8818 -3.60485 0)
(22.8079 -3.58429 -5.28205e-19)
(22.732 -3.5617 2.46625e-19)
(22.6549 -3.53732 1.33511e-19)
(22.5769 -3.51136 0)
(22.4984 -3.48394 4.24141e-19)
(22.4196 -3.4552 -6.8916e-19)
(22.3405 -3.42531 -5.84334e-19)
(22.2611 -3.39436 5.73562e-19)
(22.1817 -3.36201 -4.49431e-19)
(22.1019 -3.32863 0)
(22.0195 -3.29954 0)
(17.0776 -1.68994 0)
(19.8212 -2.41022 0)
(21.951 -3.09949 1.33772e-19)
(22.8666 -3.42056 -4.46626e-19)
(23.087 -3.48659 2.05111e-19)
(23.1634 -3.51206 -3.27742e-21)
(23.1812 -3.52493 -5.52564e-19)
(23.1629 -3.52948 -1.03047e-19)
(23.1223 -3.52791 -3.83795e-20)
(23.068 -3.52177 4.83564e-19)
(23.0052 -3.51208 0)
(22.9372 -3.4995 -5.96519e-19)
(22.8661 -3.48454 5.09454e-19)
(22.793 -3.46751 -5.45525e-19)
(22.7189 -3.4487 1.21204e-18)
(22.6443 -3.42834 -8.08177e-19)
(22.5695 -3.4066 1.39812e-19)
(22.4946 -3.38363 1.41138e-19)
(22.4198 -3.35957 -4.44232e-19)
(22.3452 -3.33461 1.17694e-18)
(22.2706 -3.30885 -2.84061e-19)
(22.1962 -3.282 -1.47801e-19)
(22.1217 -3.25449 -1.56644e-19)
(22.0448 -3.23158 4.79777e-19)
(17.3058 -1.62758 0)
(19.9621 -2.31591 -1.28816e-19)
(22.0265 -2.97772 1.85868e-19)
(22.941 -3.30628 0)
(23.1376 -3.37469 2.40999e-19)
(23.1881 -3.39885 -1.68144e-19)
(23.1881 -3.41165 3.16173e-19)
(23.1581 -3.41693 -1.79703e-19)
(23.1102 -3.41661 0)
(23.0516 -3.41211 0)
(22.9866 -3.40436 -6.11986e-19)
(22.9179 -3.39403 5.88185e-19)
(22.8472 -3.38154 -6.85342e-20)
(22.7755 -3.36713 7.01317e-19)
(22.7033 -3.35113 -5.43412e-19)
(22.6311 -3.33381 7.16762e-19)
(22.5593 -3.31527 -5.59487e-19)
(22.4878 -3.29565 0)
(22.4167 -3.27516 1.53395e-19)
(22.3459 -3.25409 -1.45488e-19)
(22.2757 -3.23248 -1.54575e-19)
(22.2058 -3.21008 0)
(22.136 -3.18709 1.61964e-19)
(22.0645 -3.16732 -1.65616e-19)
(17.4866 -1.56673 -1.81408e-20)
(20.0795 -2.23007 0)
(22.0861 -2.86758 1.86676e-19)
(22.9874 -3.20061 -1.43622e-19)
(23.1661 -3.27538 6.11705e-20)
(23.1975 -3.30088 6.33914e-20)
(23.1847 -3.31468 -6.49964e-20)
(23.1467 -3.321 0)
(23.0941 -3.32182 -2.74138e-19)
(23.0328 -3.3185 5.38436e-19)
(22.9664 -3.31211 -1.97522e-19)
(22.8974 -3.30348 -6.83547e-20)
(22.8275 -3.29287 -7.18425e-20)
(22.7572 -3.28029 -4.29683e-19)
(22.6867 -3.26629 2.7993e-19)
(22.6169 -3.25131 2.96031e-19)
(22.5479 -3.23517 -2.87062e-19)
(22.4795 -3.21801 0)
(22.4115 -3.20028 3.04584e-19)
(22.3442 -3.1824 5.0575e-21)
(22.278 -3.16418 -3.12277e-19)
(22.2122 -3.14523 0)
(22.1471 -3.12585 0)
(22.0808 -3.10932 1.72463e-19)
(17.6929 -1.53262 4.75768e-20)
(20.2274 -2.17659 0)
(22.1533 -2.78448 0)
(23.0182 -3.11477 1.8451e-19)
(23.1782 -3.19307 -2.95324e-19)
(23.1964 -3.21854 2.7113e-21)
(23.1751 -3.2325 -2.37212e-21)
(23.1317 -3.23933 0)
(23.0764 -3.24068 0)
(23.0136 -3.23771 0)
(22.9462 -3.23213 0)
(22.8772 -3.22516 0)
(22.809 -3.21625 4.35805e-19)
(22.7403 -3.20464 -5.80039e-19)
(22.6707 -3.1921 5.87124e-19)
(22.6033 -3.17932 -4.41077e-19)
(22.5371 -3.16502 -1.50176e-19)
(22.4708 -3.14943 1.53701e-19)
(22.4049 -3.13367 -3.12172e-19)
(22.3401 -3.11856 1.58963e-19)
(22.2777 -3.10319 3.2538e-19)
(22.2152 -3.08692 0)
(22.154 -3.0706 -1.73145e-19)
(22.0918 -3.05897 1.72849e-19)
(17.6913 -1.41386 0)
(20.2283 -2.03632 6.87287e-20)
(22.1482 -2.6533 0)
(23.0046 -3.0101 0)
(23.178 -3.12032 2.65738e-19)
(23.1908 -3.14863 -1.92487e-19)
(23.1631 -3.16217 6.65669e-20)
(23.1161 -3.16929 4.2272e-19)
(23.0601 -3.171 -2.6983e-19)
(22.9957 -3.16754 1.42697e-19)
(22.9264 -3.16238 1.49224e-19)
(22.8559 -3.15716 -1.3432e-19)
(22.7903 -3.14974 4.3941e-19)
(22.7233 -3.13764 -5.94619e-19)
(22.652 -3.1258 5.99855e-19)
(22.5881 -3.11585 5.56458e-21)
(22.5238 -3.10213 0)
(22.4605 -3.08731 1.01942e-21)
(22.3968 -3.07328 1.62326e-19)
(22.3344 -3.06084 1.64954e-19)
(22.2784 -3.04811 -7.6606e-23)
(22.2176 -3.03323 0)
(22.1646 -3.02127 1.78758e-19)
(22.1022 -3.01373 -3.80579e-19)
(0.260827 1.96442 1.36518e-19)
(1.66325 2.23937 0)
(3.583 3.02668 5.92554e-18)
(5.57913 4.06218 -8.36432e-18)
(7.52733 5.10801 3.34189e-18)
(9.36057 6.17875 3.2518e-20)
(11.1084 7.24945 0)
(12.7731 8.28323 0)
(14.3371 9.2407 -1.18316e-18)
(15.7766 10.0899 1.21592e-19)
(17.0699 10.8065 1.07635e-19)
(18.1996 11.3727 1.95762e-19)
(19.1557 11.7776 6.37772e-19)
(19.938 12.019 0)
(20.5551 12.1026 -1.32413e-19)
(21.025 12.043 -1.14065e-19)
(21.3727 11.8619 0)
(21.6267 11.586 0)
(21.8151 11.2429 1.27428e-20)
(21.9621 10.8587 1.07776e-19)
(22.0853 10.4546 5.95768e-20)
(22.1958 10.0451 -1.02834e-19)
(22.2991 9.63877 4.99955e-20)
(22.3939 9.22734 -1.94838e-19)
(-10.5144 2.21589 -3.69653e-19)
(-9.50778 2.14433 -1.30921e-17)
(-8.00477 2.12121 3.60519e-19)
(-6.30975 2.29406 5.61058e-18)
(-4.35039 2.61556 -3.95936e-18)
(-2.01969 3.04291 -1.83488e-19)
(0.540368 3.59983 2.77712e-20)
(3.23878 4.28262 3.52344e-20)
(5.98713 5.07919 1.84967e-18)
(8.68265 5.96734 0)
(11.2429 6.90668 0)
(13.6005 7.84502 -1.28062e-19)
(15.7022 8.72668 -9.55626e-19)
(17.5105 9.50047 6.62351e-20)
(19.0047 10.1246 1.14815e-20)
(20.1837 10.5713 7.83781e-19)
(21.0671 10.8306 -1.52748e-19)
(21.6925 10.9099 0)
(22.1101 10.8321 7.7221e-20)
(22.3751 10.6301 3.13119e-19)
(22.5392 10.3404 5.8533e-20)
(22.6442 9.9962 0)
(22.719 9.624 5.28265e-20)