/*--------------------------------*- C++ -*----------------------------------*\
| =========                 |                                                 |
| \\      /  F ield         | OpenFOAM: The Open Source CFD Toolbox           |
|  \\    /   O peration     | Version:  2.3.0                                 |
|   \\  /    A nd           | Web:      www.OpenFOAM.org                      |
|    \\/     M anipulation  |                                                 |
\*---------------------------------------------------------------------------*/
FoamFile
{
    version     2.0;
    format      ascii;
    class       volScalarField;
    location    "10000";
    object      nut;
}
// * * * * * * * * * * * * * * * * * * * * * * * * * * * * * * * * * * * * * //

dimensions      [0 2 -1 0 0 0 0];

internalField   nonuniform List<scalar> 
121858
(
0.0363473
0.0350765
0.0338239
0.0325908
0.0313781
0.0301861
0.0290152
0.0278655
0.026737
0.02563
0.0245442
0.0234805
0.0224381
0.0214179
0.0204199
0.0194443
0.0184908
0.0175613
0.0166553
0.0157746
0.0149194
0.0140924
0.0132959
0.0125338
0.0118093
0.0111249
0.0104827
0.00987831
0.00929612
0.00872508
0.00816384
0.00761598
0.00708278
0.00656476
0.00606117
0.00557008
0.00508901
0.00461513
0.00414422
0.00367537
0.0032114
0.00276781
0.00244364
0.0372734
0.0361331
0.0350089
0.0339015
0.0328107
0.0317369
0.0306806
0.0296417
0.0286202
0.0276156
0.0266284
0.0256586
0.0247063
0.0237716
0.0228544
0.0219546
0.0210724
0.0202082
0.0193624
0.0185355
0.0177262
0.0169358
0.0161647
0.0154146
0.0146855
0.0139776
0.0132931
0.0126318
0.0119933
0.0113779
0.0107854
0.01022
0.00968323
0.00917868
0.00871087
0.00828357
0.00790203
0.00757304
0.00730143
0.00709369
0.00695915
0.0069014
0.0069275
0.0381372
0.0371119
0.0361
0.0351013
0.0341162
0.0331447
0.0321867
0.0312424
0.0303124
0.0293959
0.028493
0.0276036
0.0267282
0.0258662
0.0250179
0.0241835
0.0233634
0.0225576
0.0217665
0.0209901
0.0202289
0.0194832
0.0187529
0.0180397
0.017344
0.0166661
0.0160085
0.0153709
0.0147545
0.0141625
0.0135945
0.0130547
0.0125451
0.0120697
0.0116322
0.0112367
0.0108873
0.0105908
0.0103504
0.0101711
0.0100584
0.0100122
0.0100361
0.038941
0.0380171
0.0371031
0.0361995
0.0353063
0.0344229
0.0335496
0.0326876
0.0318363
0.030995
0.0301642
0.0293442
0.0285344
0.0277346
0.0269453
0.0261668
0.0253993
0.024643
0.0238981
0.023165
0.0224445
0.0217367
0.0210422
0.0203611
0.0196957
0.0190467
0.0184148
0.0178003
0.017207
0.0166358
0.0160885
0.0155685
0.015078
0.0146206
0.0142009
0.0138214
0.0134873
0.0132033
0.0129734
0.0128007
0.0126897
0.012642
0.0126579
0.0396873
0.0388518
0.0380235
0.0372029
0.0363892
0.0355825
0.0347831
0.0339917
0.033208
0.0324317
0.031663
0.0309019
0.0301484
0.0294021
0.0286633
0.0279322
0.0272093
0.026495
0.0257892
0.0250932
0.0244065
0.0237304
0.0230654
0.022412
0.0217719
0.0211462
0.0205356
0.0199411
0.0193658
0.0188106
0.0182789
0.0177733
0.0172962
0.0168509
0.0164416
0.0160713
0.0157455
0.0154675
0.0152419
0.015071
0.0149589
0.0149068
0.0149147
0.0403768
0.039619
0.0388661
0.038118
0.0373741
0.0366344
0.0358988
0.0351681
0.0344426
0.0337226
0.0330071
0.0322962
0.031591
0.0308906
0.0301949
0.0295042
0.0288193
0.0281406
0.0274683
0.026803
0.0261453
0.0254962
0.0248557
0.0242249
0.0236053
0.0229986
0.022406
0.0218287
0.0212675
0.0207247
0.0202042
0.0197087
0.0192409
0.0188039
0.018401
0.0180364
0.0177148
0.0174391
0.0172145
0.0170435
0.0169285
0.016871
0.0168722
0.0410112
0.0403223
0.0396355
0.0389513
0.0382685
0.0375879
0.0369076
0.0362296
0.0355539
0.0348815
0.0342124
0.0335454
0.0328813
0.0322197
0.0315613
0.0309059
0.0302536
0.0296049
0.0289599
0.0283203
0.027688
0.0270618
0.0264421
0.0258302
0.0252276
0.0246355
0.0240581
0.0234952
0.022946
0.022413
0.0219004
0.0214126
0.0209512
0.0205201
0.0201218
0.0197605
0.0194395
0.0191648
0.0189398
0.0187671
0.0186486
0.0185868
0.0185822
0.0415938
0.040966
0.0403358
0.0397093
0.0390791
0.0384522
0.037819
0.0371875
0.0365535
0.0359216
0.035293
0.0346654
0.034036
0.0334077
0.0327813
0.0321562
0.031532
0.0309098
0.0302878
0.0296686
0.0290567
0.0284512
0.0278497
0.0272544
0.026668
0.0260845
0.0255183
0.0249702
0.0244328
0.0239071
0.0234003
0.0229163
0.0224603
0.0220338
0.0216381
0.0212806
0.0209569
0.0206818
0.0204558
0.0202818
0.0201601
0.0200959
0.0200862
0.042137
0.0415583
0.0409715
0.0404028
0.0398104
0.0392385
0.0386404
0.038054
0.0374544
0.0368513
0.0362562
0.0356668
0.0350676
0.0344655
0.0338662
0.0332684
0.0326656
0.0320697
0.031471
0.0308648
0.0302656
0.029676
0.0290951
0.028507
0.0279497
0.0273696
0.0268037
0.0262699
0.0257492
0.0252332
0.0247325
0.0242446
0.0237919
0.0233715
0.0229725
0.0226293
0.0222964
0.0220214
0.0217904
0.0216192
0.0214915
0.0214292
0.021413
0.00278068
0.00354044
0.00403878
0.00453961
0.0050742
0.00564271
0.00623667
0.00685145
0.00748505
0.00813225
0.00879147
0.00946304
0.0101449
0.010837
0.0115394
0.012252
0.0129739
0.0137053
0.0144476
0.0151989
0.0159604
0.0167323
0.0175152
0.018308
0.0191118
0.0199266
0.0207533
0.0215913
0.0224411
0.0233028
0.0241768
0.0250629
0.0259619
0.0268734
0.0277981
0.028736
0.0296872
0.0306519
0.0316302
0.032622
0.0336272
0.0346454
0.035677
0.00704061
0.00723724
0.00751128
0.0078578
0.00826566
0.0087245
0.00922834
0.00976844
0.0103367
0.0109296
0.0115434
0.0121732
0.0128179
0.0134752
0.0141431
0.0148221
0.0155101
0.0162069
0.016912
0.017625
0.018347
0.0190764
0.0198138
0.0205594
0.0213137
0.022076
0.0228466
0.0236259
0.024414
0.0252108
0.0260168
0.0268324
0.0276572
0.0284921
0.0293371
0.0301922
0.0310579
0.0319342
0.0328214
0.0337194
0.0346285
0.0355484
0.0364791
0.0101274
0.0102861
0.0105134
0.010804
0.0111522
0.0115535
0.0119994
0.0124831
0.0130004
0.0135448
0.0141132
0.0147
0.0153047
0.0159229
0.0165539
0.017195
0.017846
0.0185054
0.0191723
0.0198475
0.0205289
0.0212164
0.0219108
0.0226117
0.0233189
0.024032
0.0247513
0.0254769
0.026209
0.0269478
0.027693
0.0284449
0.0292039
0.0299704
0.0307444
0.0315261
0.032316
0.0331142
0.0339208
0.0347359
0.0355597
0.0363922
0.0372327
0.0127357
0.0128752
0.013077
0.0133379
0.0136535
0.0140192
0.0144281
0.0148757
0.0153571
0.0158677
0.0164013
0.0169564
0.0175283
0.0181151
0.0187139
0.0193244
0.0199437
0.0205707
0.021205
0.0218454
0.0224913
0.0231426
0.0237991
0.0244602
0.0251261
0.0257963
0.0264708
0.0271495
0.0278328
0.0285198
0.0292112
0.0299074
0.0306086
0.0313152
0.0320272
0.0327446
0.0334678
0.0341971
0.0349326
0.0356744
0.0364226
0.0371773
0.0379381
0.0149819
0.0151085
0.015294
0.0155355
0.0158296
0.0161711
0.0165552
0.0169782
0.0174342
0.0179183
0.0184269
0.0189562
0.0195028
0.020064
0.0206381
0.0212221
0.0218144
0.022414
0.0230202
0.0236316
0.0242471
0.0248673
0.0254906
0.0261178
0.0267483
0.0273817
0.0280175
0.0286556
0.0292956
0.0299378
0.0305824
0.0312302
0.0318811
0.0325353
0.033193
0.0338541
0.0345189
0.0351877
0.0358607
0.0365378
0.0372192
0.0379048
0.0385929
0.0169314
0.0170483
0.0172218
0.0174489
0.0177275
0.0180522
0.0184192
0.0188235
0.0192606
0.0197252
0.0202147
0.0207242
0.0212509
0.0217926
0.0223452
0.0229075
0.0234777
0.0240549
0.0246375
0.0252235
0.0258138
0.0264065
0.0270022
0.0276009
0.0282016
0.0288037
0.0294064
0.0300087
0.0306113
0.0312141
0.0318179
0.0324233
0.0330306
0.0336398
0.0342504
0.0348624
0.035476
0.0360917
0.0367099
0.0373304
0.037953
0.0385775
0.039202
0.0186347
0.0187439
0.018908
0.0191243
0.0193905
0.0197034
0.0200575
0.0204481
0.0208699
0.02132
0.0217939
0.0222885
0.0228004
0.0233252
0.0238601
0.0244043
0.0249566
0.0255151
0.0260772
0.0266421
0.0272093
0.0277792
0.0283519
0.0289271
0.0295037
0.0300791
0.0306524
0.0312234
0.0317924
0.0323603
0.0329288
0.0334981
0.0340684
0.034639
0.0352086
0.035777
0.0363454
0.0369149
0.0374854
0.0380565
0.0386271
0.0391972
0.0397683
0.0201324
0.0202346
0.020391
0.0205975
0.0208542
0.021158
0.0215026
0.0218821
0.022291
0.0227285
0.0231917
0.0236759
0.0241759
0.0246859
0.0252048
0.0257342
0.0262733
0.0268158
0.0273601
0.0279056
0.0284525
0.0290027
0.0295571
0.0301145
0.0306719
0.0312234
0.0317701
0.0323127
0.0328501
0.0333885
0.0339275
0.0344663
0.0350054
0.0355432
0.0360758
0.0366044
0.0371334
0.0376634
0.0381928
0.0387207
0.0392453
0.0397669
0.0402885
0.0214545
0.0215494
0.021699
0.0218959
0.0221446
0.0224416
0.0227779
0.0231467
0.023543
0.0239726
0.0244296
0.0249062
0.0253953
0.0258877
0.0263924
0.0269115
0.0274425
0.0279677
0.0284958
0.0290233
0.0295514
0.0300873
0.0306308
0.0311754
0.0317167
0.0322413
0.0327654
0.0332811
0.0337892
0.034306
0.0348199
0.0353343
0.0358486
0.0363581
0.0368544
0.0373471
0.0378442
0.0383422
0.0388366
0.0393268
0.0398092
0.040287
0.0407647
0.0171381
0.0164421
0.0157563
0.0150814
0.0144183
0.0137679
0.0131308
0.0125075
0.0118985
0.0113042
0.010725
0.010161
0.00961244
0.00907955
0.00856241
0.00806102
0.00757549
0.00710577
0.00665178
0.00621344
0.00579067
0.00538337
0.00499133
0.00461436
0.00425236
0.00390509
0.00357239
0.00325406
0.00294995
0.00265988
0.00238379
0.00212156
0.00187313
0.0016386
0.00141798
0.00121142
0.00101899
0.000840726
0.000676401
0.00052497
0.000383133
0.000256708
0.000120242
0.0171192
0.0164772
0.0158433
0.0152184
0.0146031
0.0139979
0.0134033
0.0128198
0.0122478
0.0116874
0.0111389
0.0106027
0.0100787
0.00956719
0.00906825
0.00858193
0.00810833
0.00764746
0.00719933
0.00676398
0.00634141
0.00593156
0.00553444
0.00515003
0.00477834
0.00441929
0.00407294
0.00373925
0.00341828
0.00311003
0.00281462
0.00253213
0.00226272
0.00200653
0.0017637
0.00153442
0.0013187
0.00111623
0.000925877
0.00074533
0.000576184
0.000426251
0.000258654
0.0171081
0.0165156
0.0159307
0.015353
0.0147828
0.0142204
0.0136661
0.0131201
0.0125829
0.0120545
0.0115351
0.0110251
0.0105244
0.0100333
0.00955175
0.00907997
0.00861806
0.00816607
0.00772409
0.00729221
0.00687049
0.00645904
0.00605794
0.0056673
0.00528717
0.00491771
0.00455904
0.0042113
0.00387468
0.00354935
0.00323548
0.00293333
0.00264315
0.00236513
0.00209952
0.00184628
0.00160504
0.00137447
0.00115091
0.000926816
0.0007397
0.000559386
0.00035204
0.0170968
0.0165519
0.0160119
0.0154772
0.0149478
0.0144241
0.0139061
0.0133941
0.0128883
0.0123889
0.011896
0.0114097
0.0109303
0.0104579
0.00999246
0.00953425
0.00908334
0.00863985
0.00820389
0.00777566
0.00735532
0.00694295
0.00653875
0.0061429
0.0057556
0.00537708
0.00500751
0.00464718
0.00429638
0.00395537
0.00362446
0.00330399
0.00299422
0.00269547
0.00240789
0.00213125
0.00186471
0.00160622
0.00135279
0.00110815
0.000888259
0.000666936
0.000420447
0.0170875
0.0165857
0.0160866
0.0155906
0.015098
0.014609
0.0141237
0.0136422
0.0131647
0.0126912
0.0122221
0.0117573
0.0112971
0.0108416
0.0103908
0.00994501
0.00950422
0.00906863
0.00863841
0.00821375
0.00779487
0.00738197
0.00697529
0.00657502
0.00618148
0.00579492
0.00541563
0.00504395
0.00468029
0.00432499
0.00397847
0.00364111
0.00331329
0.00299523
0.00268694
0.00238792
0.00209661
0.00180972
0.00152184
0.00126253
0.00101656
0.000754808
0.000473395
0.0170804
0.0166173
0.016155
0.015694
0.0152344
0.0147766
0.0143207
0.0138667
0.0134145
0.0129644
0.0125163
0.0120707
0.0116277
0.0111875
0.0107501
0.0103157
0.00988423
0.00945597
0.00903105
0.00860973
0.00819227
0.00777904
0.00737029
0.00696626
0.00656726
0.00617358
0.00578557
0.00540367
0.00502831
0.00465998
0.00429917
0.00394639
0.003602
0.00326612
0.00293858
0.00261853
0.00230385
0.00199049
0.00167317
0.00139531
0.00112545
0.000826976
0.000516191
0.0170763
0.0166473
0.0162179
0.0157881
0.0153581
0.0149283
0.0144988
0.0140697
0.0136406
0.0132112
0.0127819
0.0123531
0.0119254
0.011499
0.0110739
0.0106499
0.0102272
0.00980586
0.00938605
0.00896787
0.00855163
0.00813807
0.00772759
0.00732047
0.00691687
0.00651704
0.00612138
0.00573032
0.00534428
0.0049638
0.00458971
0.0042227
0.00386323
0.0035113
0.00316621
0.00282667
0.00249053
0.00215451
0.00181995
0.00151603
0.00121972
0.000886791
0.000551954
0.017073
0.0166755
0.0162758
0.0158737
0.0154699
0.0150649
0.0146592
0.0142532
0.0138455
0.0134352
0.0130222
0.0126072
0.0121925
0.0117784
0.0113649
0.0109508
0.0105366
0.0101222
0.00970768
0.00929311
0.00887765
0.00846307
0.00805091
0.00764145
0.00723454
0.0068299
0.0064279
0.00602904
0.00563358
0.00524137
0.00485409
0.00447305
0.00409949
0.00373434
0.00337471
0.00301728
0.00266076
0.00230359
0.00195332
0.00162559
0.0013025
0.00093776
0.000583691
0.0170705
0.0167021
0.0163291
0.0159516
0.01557
0.0151869
0.0148017
0.0144182
0.0140321
0.0136402
0.0132429
0.0128366
0.012431
0.0120264
0.0116255
0.0112211
0.010815
0.0104086
0.00999904
0.00959156
0.00917697
0.00875872
0.00834359
0.00793195
0.00752427
0.00711724
0.00671093
0.006306
0.00590494
0.00550133
0.00509901
0.00470159
0.0043103
0.00393657
0.00357347
0.00320152
0.00282376
0.00244401
0.00207625
0.001726
0.00137441
0.000976226
0.000606372
8.594e-05
0.000188575
0.000265622
0.000341909
0.000422763
0.000515566
0.000626785
0.000760023
0.000908354
0.00107026
0.00124516
0.00143302
0.0016339
0.00184809
0.00207587
0.0023176
0.00257368
0.00284442
0.00313026
0.00343157
0.00374882
0.00408235
0.00443263
0.00480016
0.00518533
0.00558863
0.00601052
0.00645143
0.00691178
0.00739191
0.00789219
0.00841288
0.0089541
0.0095159
0.0100982
0.0107008
0.0113232
0.0119645
0.0126236
0.0132992
0.013989
0.0146901
0.0153969
0.000180901
0.000254901
0.000338339
0.000431871
0.000538891
0.000663318
0.000806385
0.000969564
0.00114739
0.00133825
0.00154172
0.00175768
0.00198617
0.00222722
0.00248103
0.0027477
0.00302747
0.0033205
0.00362704
0.00394727
0.00428148
0.00462988
0.00499283
0.00537058
0.00576345
0.00617174
0.00659574
0.00703572
0.00749192
0.00796455
0.00845374
0.00895962
0.00948213
0.0100212
0.0105766
0.011148
0.0117348
0.0123362
0.012951
0.0135779
0.014215
0.0148604
0.0155131
0.000252852
0.000318129
0.000416822
0.000534559
0.000671131
0.000826407
0.000999117
0.001191
0.00139694
0.00161549
0.00184624
0.00208901
0.00234363
0.00261005
0.00288822
0.00317818
0.00347992
0.00379349
0.00411896
0.00445639
0.00480587
0.00516754
0.00554152
0.005928
0.00632711
0.00673902
0.00716384
0.00760166
0.0080526
0.0085167
0.00899393
0.0094843
0.00998759
0.0105036
0.011032
0.0115723
0.0121239
0.012686
0.0132576
0.0138373
0.0144235
0.0150146
0.0156088
0.000310063
0.000380486
0.000500034
0.000644423
0.000809653
0.000993053
0.00119307
0.00141185
0.00164396
0.00188827
0.00214433
0.0024118
0.00269041
0.00297995
0.00328021
0.00359114
0.00391258
0.00424443
0.00458655
0.00493898
0.00530164
0.00567459
0.00605776
0.00645123
0.00685502
0.0072691
0.00769351
0.00812816
0.00857301
0.00902803
0.00949302
0.00996787
0.0104523
0.010946
0.0114485
0.0119593
0.0124778
0.0130031
0.0135344
0.0140702
0.0146091
0.015149
0.0156867
0.000359507
0.000443414
0.000586302
0.00075691
0.000948514
0.00115744
0.0013829
0.00162641
0.0018827
0.00215077
0.00243005
0.00272013
0.00302055
0.00333103
0.00365127
0.003981
0.00431999
0.00466797
0.00502476
0.00539021
0.00576424
0.00614669
0.00653746
0.00693643
0.00734357
0.0077587
0.00818171
0.00861245
0.00905076
0.00949645
0.00994929
0.010409
0.0108753
0.0113477
0.0118258
0.0123091
0.0127968
0.0132881
0.0137823
0.014278
0.0147738
0.0152682
0.0157598
0.000404764
0.00050667
0.000673211
0.000868409
0.00108391
0.001316
0.00156535
0.00183159
0.00211017
0.00240006
0.00270061
0.00301126
0.00333152
0.00366095
0.00399918
0.00434581
0.00470042
0.00506272
0.0054324
0.00580925
0.00619309
0.00658364
0.00698067
0.00738398
0.00779339
0.00820867
0.00862955
0.00905584
0.00948731
0.0099237
0.0103646
0.0108098
0.0112587
0.0117112
0.0121665
0.0126241
0.0130834
0.0135435
0.0140038
0.0144631
0.0149201
0.0153734
0.0158209
0.000448143
0.000570417
0.000759679
0.000977172
0.00121394
0.00146691
0.00173869
0.00202575
0.00232476
0.0026346
0.00295458
0.00328405
0.0036224
0.00396911
0.00432363
0.00468547
0.00505416
0.00542928
0.0058105
0.00619742
0.00658978
0.0069872
0.00738938
0.00779598
0.00820672
0.00862125
0.0090393
0.00946069
0.00988521
0.0103124
0.0107417
0.0111728
0.0116056
0.0120395
0.0124737
0.0129074
0.0133404
0.0137721
0.0142017
0.0146283
0.0150508
0.0154682
0.0158797
0.000488518
0.000629799
0.00083942
0.00107722
0.00133423
0.00160798
0.00190106
0.00220769
0.00252565
0.00285424
0.00319255
0.00353977
0.00389514
0.00425804
0.00462779
0.00500367
0.00538518
0.00577187
0.00616335
0.00655921
0.00695892
0.00736186
0.00776784
0.00817652
0.00858738
0.0089999
0.0094138
0.00982974
0.0102477
0.010666
0.0110832
0.0115007
0.0119192
0.0123364
0.0127506
0.0131617
0.0135705
0.0139765
0.0143789
0.0147764
0.0151681
0.0155542
0.0159359
0.000532951
0.000702514
0.000938211
0.00119901
0.00147608
0.00176622
0.00207149
0.00239091
0.00272807
0.0030765
0.0034332
0.00379715
0.00416832
0.00454618
0.00492955
0.00531689
0.00570872
0.00610468
0.00650406
0.00690696
0.00731185
0.00771716
0.00812446
0.00853316
0.00894138
0.00934878
0.0097549
0.0101658
0.0105794
0.0109886
0.01139
0.0117947
0.0122044
0.012607
0.0130005
0.0133883
0.0137756
0.0141587
0.0145381
0.0149098
0.0152731
0.0156291
0.0159751
6.58623e-05
0.000454986
0.00100525
0.00156719
0.00211887
0.00266956
0.00321939
0.00376715
0.00431406
0.00486052
0.00540998
0.00596439
0.00652479
0.00709257
0.00766702
0.00825044
0.00884483
0.00945305
0.0100753
0.0107152
0.0114149
0.0121805
0.0129997
0.0138618
0.0147612
0.015694
0.0166577
0.0176511
0.0186702
0.0197152
0.0207864
0.0218816
0.0230006
0.0241434
0.0253104
0.0264998
0.0277126
0.0289482
0.0302062
0.0314867
0.032789
0.0341123
0.035456
2.09063e-05
0.000356202
0.000820138
0.00136865
0.00188432
0.0023671
0.00283518
0.00330059
0.00376966
0.00424648
0.00473306
0.00523144
0.00574333
0.00626893
0.00680904
0.00736446
0.00793509
0.00852242
0.00912748
0.00975621
0.0104218
0.0111297
0.0118745
0.0126548
0.0135037
0.0144153
0.0153763
0.0163773
0.0174134
0.0184813
0.0195781
0.0207014
0.02185
0.0230239
0.0242218
0.0254427
0.026687
0.0279541
0.0292432
0.0305544
0.0318865
0.0332395
0.0346114
7.39169e-06
0.000263452
0.000637862
0.00111242
0.00168549
0.00225564
0.00278717
0.00328333
0.00375338
0.00420608
0.00464927
0.00509043
0.00553616
0.00599206
0.00646316
0.00695285
0.00746398
0.00799877
0.00855975
0.00915117
0.00977662
0.0104398
0.0111419
0.0118843
0.012672
0.0135031
0.0143863
0.0153438
0.0163601
0.0174229
0.0185246
0.0196596
0.0208246
0.0220172
0.0232358
0.0244787
0.0257457
0.0270353
0.0283473
0.029681
0.0310363
0.0324117
0.0338058
9.2229e-06
0.000255398
0.000610628
0.0010515
0.0015869
0.00217783
0.00275791
0.00330676
0.0038231
0.00430933
0.00476966
0.00520907
0.0056339
0.00605174
0.00647041
0.00689781
0.00734101
0.00780666
0.00830074
0.00882831
0.00939355
0.0100001
0.0106505
0.0113458
0.0120866
0.0128716
0.0137019
0.0145801
0.0155152
0.0165295
0.0176062
0.0187316
0.019897
0.0210966
0.0223258
0.0235831
0.0248658
0.0261725
0.0275023
0.0288548
0.0302294
0.0316252
0.0330433
9.0492e-06
0.000248804
0.000593833
0.001018
0.00152901
0.00211843
0.00273209
0.0033268
0.00388956
0.00441898
0.0049169
0.00538549
0.00582805
0.00624926
0.00665529
0.00705363
0.00745298
0.00786286
0.00829251
0.00875069
0.00924518
0.00978227
0.0103666
0.0110008
0.0116859
0.012421
0.0132049
0.0140358
0.0149146
0.015846
0.0168497
0.0179315
0.0190743
0.0202642
0.0214926
0.0227545
0.024046
0.0253642
0.0267073
0.0280742
0.0294644
0.0308771
0.0323137
1.01974e-05
0.000248807
0.000590333
0.00100627
0.00150419
0.00208309
0.00271219
0.00334204
0.00394685
0.00451887
0.00505692
0.00556203
0.00603586
0.00648083
0.00690057
0.00730015
0.00768644
0.00806814
0.00845531
0.00885879
0.00928927
0.00975677
0.0102695
0.0108337
0.0114526
0.0121272
0.012857
0.0136397
0.0144728
0.0153552
0.0162899
0.0172876
0.0183736
0.0195309
0.0207421
0.0219972
0.0232883
0.0246112
0.0259622
0.0273391
0.0287405
0.0301658
0.0316154
1.06415e-05
0.000248178
0.000587003
0.000997477
0.00148678
0.00205489
0.00268896
0.00334535
0.00398829
0.00460108
0.00517925
0.00572273
0.00623194
0.0067082
0.00715357
0.0075712
0.00796568
0.00834338
0.00871281
0.00908435
0.00946934
0.00987995
0.0103276
0.010822
0.0113704
0.0119776
0.0126448
0.0133711
0.0141544
0.0149908
0.0158786
0.0168188
0.0178213
0.0189127
0.0200841
0.0213163
0.022596
0.023915
0.0252673
0.026649
0.0280574
0.0294918
0.0309508
1.10721e-05
0.000248423
0.000585903
0.000992907
0.00147635
0.00203623
0.0026676
0.00334062
0.00401438
0.00466465
0.00528178
0.00586334
0.00640881
0.00691895
0.00739479
0.00783818
0.00825218
0.00864112
0.0090113
0.00937124
0.00973126
0.0101034
0.0105004
0.0109347
0.0114173
0.0119561
0.0125563
0.0132201
0.0139462
0.0147319
0.0155741
0.0164693
0.0174183
0.0184308
0.0195322
0.0207201
0.021974
0.0232788
0.0246245
0.0260048
0.0274157
0.028854
0.030317
1.1203e-05
0.000248369
0.00058444
0.000988926
0.00146781
0.00202079
0.00264658
0.00332731
0.00402504
0.00470883
0.00536286
0.00598164
0.0065632
0.00710789
0.0076161
0.00808895
0.00852822
0.00893683
0.00931937
0.00968225
0.0100341
0.0103856
0.010749
0.0111376
0.0115645
0.012041
0.0125761
0.013175
0.0138397
0.0145694
0.0153609
0.0162108
0.0171162
0.0180767
0.0191026
0.0202203
0.0214287
0.0227056
0.0240355
0.0254079
0.0268153
0.0282532
0.0297178
1.12235e-05
0.000248549
0.000583254
0.000985294
0.00146028
0.00200764
0.00262689
0.00330893
0.00402328
0.00473521
0.00542323
0.00607729
0.00669423
0.00727319
0.00781433
0.00831801
0.00878543
0.00921837
0.00962012
0.00999546
0.0103511
0.0106959
0.011041
0.0113991
0.0117838
0.0122084
0.0126847
0.0132215
0.0138242
0.0144946
0.0152316
0.0160325
0.016893
0.0178101
0.0187847
0.0198275
0.0209681
0.0222008
0.0235035
0.0248591
0.0262569
0.0276905
0.0291536
1.10091e-05
0.000247964
0.000581305
0.00098096
0.00145235
0.00199473
0.00260747
0.00328676
0.00401104
0.00474552
0.00546343
0.00615085
0.00680194
0.00741454
0.00798818
0.00852321
0.00902004
0.00947982
0.00990475
0.0102984
0.0106658
0.0110143
0.0113532
0.011694
0.01205
0.0124348
0.0128619
0.013343
0.0138867
0.014498
0.0151787
0.0159272
0.01674
0.0176136
0.0185451
0.0195362
0.0206011
0.0217705
0.0230314
0.0243603
0.0257421
0.0271657
0.0286231
1.06475e-05
0.000247366
0.000579239
0.000976353
0.00144415
0.00198152
0.00258821
0.00326261
0.00399073
0.00474171
0.00548575
0.00620382
0.00688711
0.00753211
0.00813789
0.00870402
0.00923058
0.00971827
0.0101687
0.0105841
0.0109686
0.0113278
0.0116696
0.0120039
0.0123427
0.0126996
0.0130885
0.0135226
0.0140133
0.0145687
0.0151932
0.0158879
0.016651
0.0174789
0.0183682
0.0193161
0.0203267
0.0214202
0.0226233
0.0239146
0.0252718
0.0266799
0.0281285
1.02243e-05
0.000246371
0.000576539
0.000971196
0.00143528
0.00196803
0.00256892
0.00323692
0.00396406
0.00472637
0.00549188
0.00623743
0.00695085
0.00762717
0.00826405
0.00886054
0.00941671
0.0099328
0.0104097
0.0108491
0.011254
0.0116288
0.0119799
0.0123159
0.0126473
0.0129866
0.0133477
0.0137444
0.0141899
0.0146945
0.0152659
0.0159074
0.0166195
0.0174003
0.0182458
0.0191526
0.0201195
0.0211545
0.0222848
0.0235246
0.0248481
0.0262351
0.0276728
9.72252e-06
0.000245091
0.000573567
0.000965405
0.00142591
0.00195398
0.00254892
0.00321001
0.00393362
0.00470178
0.00548384
0.00625343
0.00699507
0.007701
0.00836738
0.00899355
0.00957881
0.0101232
0.0106271
0.0110916
0.0115189
0.0119126
0.0122777
0.0126213
0.0129528
0.0132834
0.013626
0.0139947
0.0144032
0.014864
0.0153866
0.0159775
0.0166397
0.0173723
0.018173
0.019038
0.0199647
0.0209539
0.0220186
0.0231929
0.0244719
0.02583
0.0272498
9.19877e-06
0.000243925
0.00057033
0.000959201
0.00141598
0.00193928
0.00252819
0.00318268
0.00390088
0.00467038
0.00546406
0.00625425
0.00702137
0.00775455
0.0084496
0.00910443
0.00971801
0.0102901
0.0108209
0.011311
0.0117621
0.0121766
0.0125589
0.0129147
0.013252
0.0135808
0.013913
0.0142621
0.014642
0.0150662
0.015546
0.0160903
0.0167041
0.0173893
0.0181448
0.0189675
0.0198542
0.0208028
0.0218178
0.0229219
0.0241448
0.0254645
0.0268556
8.6856e-06
0.000242374
0.000566476
0.000952365
0.0014053
0.00192368
0.00250666
0.00315442
0.00386615
0.00463351
0.00543468
0.00624138
0.0070307
0.00778977
0.00851209
0.00919424
0.0098352
0.0104345
0.0109918
0.0115076
0.0119829
0.0124196
0.0128212
0.0131923
0.0135397
0.0138723
0.0142008
0.0145377
0.0148966
0.0152915
0.0157349
0.0162374
0.0168064
0.0174458
0.0181563
0.0189364
0.0197827
0.0206925
0.0216658
0.0227129
0.0238691
0.0251408
0.0264993
8.11243e-06
0.000240321
0.000562136
0.000944839
0.00139371
0.001907
0.00248409
0.00312511
0.00382971
0.00459267
0.00539736
0.00621648
0.0070253
0.00780813
0.00855576
0.00926405
0.00993158
0.0105571
0.0111405
0.0116817
0.0121815
0.0126411
0.0130634
0.013452
0.0138129
0.0141535
0.0144835
0.0148144
0.0151592
0.0155317
0.0159451
0.0164113
0.0169396
0.0175359
0.0182031
0.0189407
0.0197467
0.0206181
0.0215528
0.0225546
0.0236452
0.024861
0.026182
7.57872e-06
0.000238111
0.000557504
0.000936963
0.00138152
0.00188987
0.00246089
0.00309509
0.0037921
0.00454912
0.00535383
0.00618163
0.00700684
0.0078107
0.00858212
0.00931553
0.0100084
0.0106593
0.011268
0.0118344
0.0123584
0.0128414
0.0132851
0.0136929
0.0140694
0.0144213
0.0147571
0.0150872
0.0154237
0.0157801
0.0161697
0.0166052
0.0170975
0.0176541
0.01828
0.0189764
0.0197425
0.0205754
0.0214728
0.0224353
0.0234735
0.0246243
0.0258973
7.0734e-06
0.000235864
0.000552662
0.000928669
0.00136895
0.00187214
0.00243728
0.00306441
0.00375387
0.00450374
0.00530566
0.00613879
0.00697695
0.00779943
0.0085926
0.00934953
0.0100668
0.0107425
0.0113757
0.0119664
0.0125146
0.0130208
0.0134865
0.0139143
0.0143082
0.0146739
0.0150187
0.0153521
0.0156854
0.0160312
0.0164027
0.0168131
0.0172742
0.0177952
0.0183825
0.0190394
0.0197663
0.0205615
0.0214225
0.0223482
0.0233436
0.0244322
0.0256512
6.61433e-06
0.000233498
0.000547619
0.000920139
0.00135604
0.00185396
0.00241317
0.00303343
0.0037151
0.00445749
0.00525464
0.00608962
0.00693773
0.00777584
0.00858883
0.0093679
0.0101083
0.0108076
0.0114645
0.012079
0.0126508
0.0131801
0.0136679
0.0141164
0.0145288
0.01491
0.0152665
0.0156066
0.0159407
0.0162807
0.0166393
0.0170298
0.0174645
0.017954
0.0185061
0.0191259
0.0198151
0.0205732
0.0213985
0.0222893
0.0232472
0.0242858
0.0254472
6.18398e-06
0.000231021
0.000542348
0.000911204
0.00134252
0.00183529
0.0023887
0.00300203
0.00367609
0.0044103
0.005201
0.00603522
0.00689006
0.00774157
0.0085726
0.00937192
0.010134
0.0108557
0.0115358
0.0121733
0.0127681
0.01332
0.0138299
0.0142994
0.0147311
0.0151292
0.0154992
0.0158487
0.0161871
0.0165253
0.0168756
0.0172509
0.0176641
0.0181263
0.0186468
0.0192321
0.0198855
0.0206079
0.0213984
0.0222554
0.0231795
0.0241792
0.0252853
5.77815e-06
0.000228358
0.000536954
0.00090194
0.00132881
0.00181644
0.00236367
0.00297023
0.0036365
0.00436263
0.00514596
0.00597726
0.00683571
0.00769776
0.0085444
0.0093625
0.010145
0.0108884
0.0115906
0.0122504
0.0128674
0.0134416
0.0139734
0.0144639
0.0149153
0.0153311
0.0157162
0.0160772
0.0164226
0.0167625
0.0171084
0.017473
0.0178689
0.0183081
0.0188007
0.0193545
0.0199745
0.0206628
0.0214196
0.022244
0.0231366
0.0241026
0.025163
5.42679e-06
0.000225723
0.000531312
0.00089244
0.00131489
0.00179704
0.00233818
0.00293775
0.00359639
0.00431417
0.00508989
0.00591634
0.00677585
0.00764591
0.00850599
0.00934088
0.0101428
0.0109066
0.01163
0.0123113
0.01295
0.013546
0.0140992
0.0146105
0.0150819
0.015516
0.0159173
0.0162914
0.016646
0.0169904
0.0173354
0.017693
0.0180758
0.018496
0.0189644
0.01949
0.020079
0.0207352
0.0214597
0.0222528
0.023115
0.0240502
0.0250741
5.10963e-06
0.000222839
0.00052549
0.000882764
0.00130044
0.00177722
0.00231216
0.00290513
0.00355604
0.00426563
0.00503316
0.00585335
0.00671196
0.00758754
0.00845843
0.00930876
0.0101285
0.0109117
0.0116551
0.0123571
0.0130169
0.0136338
0.014208
0.0147401
0.0152314
0.0156843
0.0161024
0.0164909
0.0168566
0.0172077
0.0175547
0.0179087
0.0182821
0.018687
0.0191349
0.0196355
0.0201964
0.0208223
0.021516
0.0222787
0.0231106
0.0240142
0.0249961
4.81412e-06
0.000219921
0.000519799
0.000873189
0.00128617
0.00175756
0.00228643
0.00287254
0.00351597
0.00421721
0.0049762
0.00578933
0.00664478
0.00752341
0.00840336
0.00926721
0.0101031
0.0109044
0.0116669
0.0123888
0.0130688
0.0137062
0.014301
0.0148534
0.0153646
0.0158363
0.0162718
0.0166756
0.0170536
0.0174137
0.017765
0.0181184
0.0184856
0.0188787
0.0193095
0.0197884
0.0203238
0.0209218
0.0215864
0.0223193
0.023121
0.0239924
0.0249359
4.57531e-06
0.000217185
0.000514071
0.000863497
0.00127199
0.00173793
0.00226054
0.00283978
0.00347572
0.00416872
0.00491936
0.00572446
0.00657539
0.00745496
0.0083417
0.00921689
0.0100678
0.0108857
0.0116665
0.0124074
0.0131069
0.0137643
0.014379
0.0149514
0.0154821
0.0159727
0.0164259
0.0168456
0.0172372
0.0176075
0.0179653
0.0183205
0.0186845
0.0190691
0.019486
0.0199462
0.020459
0.0210314
0.0216683
0.0223724
0.0231443
0.0239843
0.0248925
4.35591e-06
0.000214179
0.000507955
0.000853615
0.00125742
0.00171805
0.0022347
0.00280726
0.00343557
0.00412049
0.00486229
0.00565893
0.0065042
0.00738272
0.00827414
0.00915932
0.0100232
0.010857
0.0116549
0.012414
0.0131323
0.0138087
0.0144429
0.0150347
0.0155847
0.016094
0.0165651
0.0170012
0.017407
0.017789
0.0181549
0.0185142
0.0188775
0.0192563
0.0196624
0.0201069
0.0205996
0.0211487
0.0217598
0.0224362
0.0231794
0.0239893
0.0248656
4.13703e-06
0.00021107
0.000501992
0.000843732
0.00124282
0.00169827
0.00220898
0.00277473
0.00339554
0.00407242
0.00480538
0.00559372
0.00643225
0.0073081
0.00820227
0.00909518
0.00997076
0.0108189
0.0116333
0.0124095
0.0131456
0.0138405
0.0144935
0.0151043
0.015673
0.016201
0.0166899
0.0171427
0.0175635
0.0179581
0.0183335
0.0186986
0.0190635
0.0194391
0.019837
0.0202685
0.0207439
0.0212719
0.021859
0.0225095
0.0232254
0.0240073
0.0248557
3.95598e-06
0.000208213
0.000496205
0.000834097
0.00122854
0.00167857
0.00218335
0.00274233
0.00335589
0.00402459
0.00474908
0.0055288
0.00635984
0.00723165
0.00812689
0.00902559
0.00991121
0.0107727
0.011602
0.0123944
0.0131477
0.0138605
0.0145317
0.0151608
0.0157482
0.0162944
0.0168011
0.0172707
0.0177068
0.0181147
0.0185008
0.0188733
0.0192416
0.0196161
0.0200084
0.0204295
0.0208901
0.0213994
0.0219646
0.0225909
0.0232813
0.0240373
0.0248609
3.77697e-06
0.000205097
0.000490193
0.000824259
0.00121417
0.00165892
0.00215753
0.00270994
0.00331634
0.00397721
0.00469308
0.00546397
0.00628711
0.00715395
0.0080483
0.00895118
0.00984563
0.0107188
0.0115619
0.0123698
0.0131396
0.0138694