/*--------------------------------*- C++ -*----------------------------------*\
| =========                 |                                                 |
| \\      /  F ield         | OpenFOAM: The Open Source CFD Toolbox           |
|  \\    /   O peration     | Version:  2.3.0                                 |
|   \\  /    A nd           | Web:      www.OpenFOAM.org                      |
|    \\/     M anipulation  |                                                 |
\*---------------------------------------------------------------------------*/
FoamFile
{
    version     2.0;
    format      ascii;
    class       volVectorField;
    location    "10000";
    object      U;
}
// * * * * * * * * * * * * * * * * * * * * * * * * * * * * * * * * * * * * * //

dimensions      [0 1 -1 0 0 0 0];

internalField   nonuniform List<vector> 
121858
(
(24.4155 19.0592 1.43904e-21)
(24.3019 19.4358 -3.90318e-21)
(24.1821 19.8092 1.31198e-20)
(24.0523 20.1891 0)
(23.9124 20.5752 -1.40551e-20)
(23.7615 20.9678 1.73404e-20)
(23.5991 21.3671 5.67204e-21)
(23.4246 21.7731 6.92736e-21)
(23.2372 22.1861 0)
(23.0365 22.6062 0)
(22.8211 23.0336 -1.07685e-20)
(22.5905 23.4682 3.4049e-20)
(22.3435 23.9105 -4.96714e-20)
(22.0794 24.3603 1.36135e-20)
(21.7965 24.818 -1.63064e-20)
(21.494 25.2839 -2.86682e-20)
(21.1705 25.7578 -6.27599e-20)
(20.8241 26.24 1.11412e-19)
(20.4531 26.7304 2.21907e-20)
(20.0559 27.2285 -1.30961e-19)
(19.6306 27.7341 -2.57323e-20)
(19.1748 28.2455 1.15311e-19)
(18.6858 28.7608 4.13875e-21)
(18.1607 29.2764 -8.74161e-20)
(17.5959 29.7879 -1.78289e-20)
(16.9869 30.2892 -1.67746e-20)
(16.329 30.7727 -1.83267e-20)
(15.6165 31.2283 6.14129e-20)
(14.8416 31.6447 -6.36609e-20)
(13.9942 32.0103 -8.26709e-20)
(13.0627 32.3088 -2.05749e-21)
(12.0319 32.5247 9.53836e-21)
(10.8852 32.6409 6.6687e-20)
(9.60055 32.6416 2.27774e-20)
(8.1534 32.5054 2.43874e-20)
(6.51567 32.2132 -2.5828e-20)
(4.65337 31.7556 0)
(2.53675 31.1083 0)
(0.138887 30.2275 0)
(-2.5466 29.0494 -1.8024e-19)
(-5.53288 27.69 1.96022e-19)
(-8.84319 26.4581 3.60912e-20)
(-12.1445 24.8808 0)
(24.014 18.9953 4.94208e-21)
(23.8911 19.3267 -5.05406e-21)
(23.7623 19.6579 0)
(23.6241 19.9941 0)
(23.4763 20.3349 0)
(23.3186 20.6802 3.32531e-23)
(23.1503 21.0302 -3.79291e-21)
(22.9709 21.3849 -8.80047e-21)
(22.7797 21.7442 0)
(22.5764 22.1086 0)
(22.36 22.4776 2.85823e-21)
(22.1297 22.8514 1.32184e-20)
(21.8846 23.2297 -1.97235e-20)
(21.6236 23.6126 1.98064e-20)
(21.346 24 -7.72113e-21)
(21.0504 24.3917 4.99405e-20)
(20.7356 24.7875 -4.95733e-20)
(20.3997 25.1872 5.87489e-20)
(20.0411 25.5895 -3.07705e-20)
(19.6573 25.9948 0)
(19.2467 26.4028 0)
(18.8064 26.813 6.98884e-21)
(18.3334 27.2242 4.22316e-20)
(17.8242 27.6347 -3.55208e-20)
(17.2756 28.0443 -2.97919e-20)
(16.6837 28.4512 9.79659e-20)
(16.0439 28.8518 -7.67013e-20)
(15.3525 29.2435 1.03897e-22)
(14.6043 29.6217 2.7474e-20)
(13.7954 29.9808 -3.88195e-20)
(12.922 30.3124 2.81725e-20)
(11.9806 30.605 0)
(10.9698 30.8479 -1.31827e-20)
(9.89003 31.0244 -5.93241e-22)
(8.74417 31.1154 2.13924e-21)
(7.53901 31.0987 -5.1939e-23)
(6.28602 30.9471 0)
(5.00175 30.6313 4.86204e-21)
(3.70973 30.115 -3.76017e-20)
(2.45029 29.3611 3.88658e-20)
(1.27901 28.3418 -1.93241e-19)
(0.233658 27.0359 1.79275e-19)
(-0.690023 25.393 3.019e-20)
(23.6644 18.9096 -1.0648e-20)
(23.5379 19.2061 1.74843e-20)
(23.4045 19.501 -3.89657e-21)
(23.2623 19.7989 5.43836e-21)
(23.1111 20.1 -2.10621e-21)
(22.9505 20.4041 5.32988e-22)
(22.78 20.7115 1.699e-22)
(22.5991 21.0219 -2.51908e-21)
(22.4072 21.3354 0)
(22.2036 21.652 1.06291e-21)
(21.9879 21.9717 2.7631e-21)
(21.7592 22.2943 -7.63188e-21)
(21.5164 22.6195 0)
(21.259 22.9476 0)
(20.986 23.2784 0)
(20.6963 23.6115 -1.13493e-20)
(20.389 23.9466 1.62327e-20)
(20.0629 24.2834 0)
(19.7164 24.6207 0)
(19.3481 24.9585 1.92187e-21)
(18.9562 25.2951 2.0627e-21)
(18.5386 25.6298 6.91149e-21)
(18.093 25.9612 0)
(17.6167 26.2867 -5.46888e-21)
(17.107 26.6047 -1.22776e-20)
(16.5609 26.9127 1.24497e-20)
(15.975 27.206 1.19601e-20)
(15.3461 27.4827 -1.04356e-20)
(14.6706 27.7366 -9.80681e-22)
(13.9455 27.9621 0)
(13.1674 28.153 3.06598e-21)
(12.3343 28.2998 -4.7547e-21)
(11.4446 28.3935 1.24807e-21)
(10.4987 28.4227 0)
(9.4985 28.3749 -1.46162e-21)
(8.44959 28.2383 -6.36848e-21)
(7.3606 27.9987 6.65269e-21)
(6.2469 27.641 -3.47643e-20)
(5.12671 27.1563 -2.3403e-20)
(4.02929 26.5351 4.26758e-20)
(2.99273 25.7773 -5.35401e-20)
(2.05889 24.8902 4.77175e-20)
(1.28443 23.8848 1.80942e-19)
(23.3576 18.8201 -7.92316e-21)
(23.2304 19.0824 1.54164e-21)
(23.0966 19.3448 0)
(22.9544 19.6095 0)
(22.804 19.8766 -1.41159e-21)
(22.6451 20.1463 1.4063e-21)
(22.4772 20.4184 -6.38272e-21)
(22.2996 20.6924 2.34043e-21)
(22.112 20.9689 5.40519e-21)
(21.914 21.2478 -1.05815e-21)
(21.7047 21.5288 -4.52548e-22)
(21.4837 21.8115 -1.91499e-21)
(21.2499 22.0961 1.91824e-21)
(21.0026 22.3824 1.11748e-21)
(20.7408 22.6702 -1.12399e-21)
(20.4636 22.9592 0)
(20.1703 23.2491 0)
(19.8595 23.5397 -1.3581e-21)
(19.5305 23.8304 -8.74295e-24)
(19.1818 24.1203 -3.47508e-21)
(18.8122 24.4085 -3.04277e-21)
(18.4198 24.6938 -2.0531e-22)
(18.0033 24.9752 1.8052e-21)
(17.5606 25.251 -2.3797e-21)
(17.0895 25.5184 1.03354e-21)
(16.5879 25.7748 -3.17529e-21)
(16.0537 26.0177 -1.84463e-21)
(15.4846 26.2445 4.29447e-21)
(14.8784 26.4488 -1.13688e-20)
(14.2338 26.6273 7.34234e-21)
(13.5493 26.7739 1.64304e-21)
(12.8247 26.8813 -5.83901e-21)
(12.0606 26.9425 -1.11233e-20)
(11.2588 26.9479 0)
(10.4235 26.8876 1.60904e-20)
(9.56055 26.7531 -1.81245e-20)
(8.67905 26.5333 -2.39246e-20)
(7.79181 26.2179 3.93396e-20)
(6.91464 25.8009 -8.71863e-20)
(6.0668 25.2775 -3.09544e-20)
(5.27242 24.648 1.07387e-19)
(4.55486 23.9215 -1.13508e-19)
(3.93876 23.1151 -1.35682e-19)
(23.0902 18.7243 1.16176e-20)
(22.9639 18.9585 1.12911e-20)
(22.8319 19.1928 0)
(22.6922 19.4287 0)
(22.5449 19.6668 0)
(22.3897 19.9069 0)
(22.2264 20.1491 6.36265e-21)
(22.054 20.3927 0)
(21.8723 20.6383 -1.98746e-21)
(21.6809 20.8857 4.79386e-21)
(21.4793 21.135 0)
(21.2669 21.3855 -5.83241e-21)
(21.0427 21.6371 5.84271e-21)
(20.806 21.8898 -3.65869e-21)
(20.5558 22.1431 0)
(20.2911 22.3971 3.58561e-21)
(20.0112 22.6512 0)
(19.7152 22.9053 5.00428e-21)
(19.4022 23.1587 -3.72765e-21)
(19.071 23.4107 5.20541e-21)
(18.7207 23.6609 7.1228e-21)
(18.3497 23.9074 -5.83901e-21)
(17.9569 24.1495 -1.67598e-21)
(17.5406 24.3855 -7.39339e-21)
(17.0993 24.613 2.36122e-20)
(16.631 24.8293 -8.55339e-21)
(16.1343 25.0323 0)
(15.6073 25.2182 7.7085e-21)
(15.0479 25.3822 -3.95135e-21)
(14.4548 25.5212 -8.66908e-21)
(13.8277 25.6295 8.97175e-21)
(13.1668 25.7013 0)
(12.473 25.7309 7.45151e-21)
(11.7488 25.7104 2.19082e-20)
(10.998 25.6327 -8.22204e-21)
(10.2264 25.4904 2.26769e-20)
(9.44281 25.2764 4.0686e-20)
(8.65803 24.9844 4.67484e-20)
(7.88669 24.6101 4.22912e-21)
(7.14403 24.153 1.96542e-20)
(6.44882 23.614 2.55197e-20)
(5.81845 23.0014 -1.37369e-19)
(5.26902 22.3296 2.31708e-19)
(22.8525 18.6272 -1.17047e-20)
(22.731 18.8379 -1.12721e-20)
(22.6034 19.0478 0)
(22.4678 19.2587 -2.84606e-21)
(22.3253 19.4717 2.83638e-21)
(22.175 19.6868 0)
(22.0178 19.904 0)
(21.8518 20.1224 -1.38974e-20)
(21.6774 20.3425 -7.9434e-21)
(21.4935 20.5638 -4.04656e-21)
(21.3002 20.7874 -4.73087e-21)
(21.0972 21.0123 -4.55196e-21)
(20.8833 21.2378 9.82063e-21)
(20.6579 21.4638 3.65742e-21)
(20.4199 21.6902 0)
(20.1682 21.9169 1.71513e-21)
(19.902 22.1433 9.11311e-21)
(19.6205 22.3692 -2.21861e-20)
(19.3233 22.5941 -2.09632e-21)
(19.0089 22.8174 1.18075e-20)
(18.6767 23.0385 6.16314e-21)
(18.3257 23.2559 -1.11982e-20)
(17.9544 23.4691 1.1459e-20)
(17.5619 23.6767 -1.30107e-20)
(17.147 23.8764 7.88009e-21)
(16.7085 24.0656 0)
(16.2445 24.2423 9.62473e-21)
(15.7555 24.4028 -8.6084e-21)
(15.2385 24.543 -1.22954e-20)
(14.6916 24.659 -1.09862e-21)
(14.115 24.7466 1.28889e-20)
(13.5097 24.8008 1.6902e-20)
(12.8773 24.8162 2.32092e-21)
(12.2198 24.7862 1.27285e-21)
(11.5406 24.7049 0)
(10.8447 24.5661 3.71362e-21)
(10.1403 24.364 -4.39842e-20)
(9.43544 24.0954 -1.6459e-20)
(8.74394 23.7573 3.99398e-21)
(8.07876 23.349 -4.21381e-20)
(7.4539 22.8725 -4.75878e-20)
(6.88166 22.3336 -1.15721e-19)
(6.37448 21.7435 1.14886e-19)
(22.6441 18.5371 -2.26077e-20)
(22.5287 18.7243 7.09911e-21)
(22.4067 18.912 0)
(22.2757 19.1006 -1.44686e-20)
(22.1386 19.292 0)
(21.9932 19.4853 0)
(21.8427 19.6818 0)
(21.6834 19.8789 1.13636e-20)
(21.5167 20.0782 5.56231e-21)
(21.3403 20.2778 5.45369e-21)
(21.1549 20.4797 0)
(20.9607 20.6835 -1.2456e-20)
(20.7568 20.8881 6.82147e-22)
(20.542 21.0933 0)
(20.3156 21.2981 0)
(20.0758 21.5027 1.35618e-20)
(19.8223 21.7071 -5.40408e-21)
(19.5541 21.911 -7.04113e-21)
(19.2713 22.1141 -1.58815e-21)
(18.9718 22.3147 1.64517e-21)
(18.6551 22.5125 -6.17251e-21)
(18.3208 22.7068 -8.29682e-21)
(17.9676 22.8966 8.0916e-21)
(17.5941 23.0815 -2.63352e-20)
(17.2004 23.2597 1.82486e-20)
(16.786 23.428 5.52498e-22)
(16.3454 23.5835 -8.95284e-21)
(15.8844 23.7267 1.20409e-20)
(15.4012 23.8498 0)
(14.8901 23.949 7.55687e-21)
(14.3508 24.0222 -7.80535e-21)
(13.786 24.0644 -2.15254e-20)
(13.1966 24.0712 4.89669e-21)
(12.5878 24.0365 -2.1547e-20)
(11.9604 23.954 0)
(11.3178 23.8199 -4.29741e-20)
(10.6691 23.6291 1.31614e-20)
(10.0173 23.3774 0)
(9.37798 23.0668 4.20503e-20)
(8.7636 22.6959 -4.74472e-20)
(8.18691 22.266 9.94724e-20)
(7.65528 21.7799 2.24072e-19)
(7.17677 21.2471 -5.51656e-20)
(22.4652 18.4442 1.54893e-20)
(22.3536 18.6152 8.30963e-21)
(22.2385 18.786 0)
(22.1118 18.9543 1.82069e-20)
(21.9811 19.1281 -3.77909e-21)
(21.8395 19.3009 7.81284e-21)
(21.6962 19.4813 0)
(21.5423 19.6596 1.12678e-20)
(21.3834 19.8428 -7.15935e-21)
(21.2151 20.0243 1.81819e-20)
(21.0362 20.2073 -2.16108e-23)
(20.8495 20.3932 6.52205e-21)
(20.6545 20.5816 -7.08715e-21)
(20.4499 20.7698 0)
(20.2346 20.9574 0)
(20.0053 21.1442 1.05561e-21)
(19.7635 21.3312 -6.86816e-21)
(19.5063 21.5172 7.0373e-21)
(19.2369 21.7038 -9.22084e-21)
(18.9519 21.8871 9.37642e-21)
(18.6491 22.0671 1.77488e-20)
(18.3298 22.2432 -6.17457e-22)
(17.9915 22.414 0)
(17.6343 22.5805 9.35252e-21)
(17.2556 22.7415 -1.11431e-20)
(16.867 22.896 1.14452e-20)
(16.445 23.0312 -3.41097e-22)
(16.0021 23.1612 -2.61233e-20)
(15.5463 23.275 0)
(15.067 23.363 -8.56273e-21)
(14.5589 23.4247 -6.20945e-22)
(14.027 23.4588 1.49889e-20)
(13.4688 23.4609 -2.49562e-21)
(12.8974 23.4267 -2.99955e-21)
(12.3139 23.3457 -3.21286e-20)
(11.7082 23.2157 -2.78447e-20)
(11.108 23.0374 1.5799e-20)
(10.4945 22.797 -5.73533e-20)
(9.89118 22.5076 1.62625e-21)
(9.31111 22.1661 -9.48148e-20)
(8.77422 21.7731 -1.00947e-21)
(8.27456 21.3271 -5.35523e-20)
(7.8176 20.8354 -2.37042e-19)
(22.2973 18.3379 1.90075e-20)
(22.1917 18.5082 -8.28675e-21)
(22.089 18.6703 -9.43764e-21)
(21.9666 18.8164 2.14058e-21)
(21.8461 18.981 -2.14349e-21)
(21.7067 19.1299 8.009e-22)
(21.573 19.3009 9.02738e-21)
(21.4234 19.4599 -5.80845e-21)
(21.2727 19.6331 6.63251e-21)
(21.1159 19.8035 -7.71214e-21)
(20.946 19.9708 0)
(20.7638 20.1385 -8.42758e-21)
(20.5747 20.3153 -8.00604e-21)
(20.3808 20.4916 8.05781e-21)
(20.1807 20.6662 0)
(19.9609 20.8371 9.4025e-21)
(19.731 21.0127 1.19626e-22)
(19.4816 21.1821 6.71778e-22)
(19.2222 21.3559 8.55051e-21)
(18.9531 21.5286 -1.83004e-20)
(18.6678 21.6966 3.83373e-22)
(18.3694 21.8621 0)
(18.0447 22.016 6.89538e-22)
(17.7033 22.1692 -4.88659e-22)
(17.3185 22.3061 -7.50405e-22)
(16.9523 22.4608 2.72739e-20)
(16.5524 22.5717 -4.738e-22)
(16.1282 22.6871 0)
(15.6928 22.7992 2.47543e-20)
(15.2312 22.8786 -8.33357e-21)
(14.7397 22.927 -5.05404e-21)
(14.2472 22.9555 5.29187e-21)
(13.7213 22.956 0)
(13.1743 22.9313 -2.56459e-20)
(12.6322 22.851 5.82735e-20)
(12.0341 22.7171 5.45635e-20)
(11.4685 22.5525 4.31736e-20)
(10.8814 22.3141 3.9132e-20)
(10.3126 22.0444 -6.50444e-20)
(9.74395 21.7263 1.13214e-19)
(9.22054 21.3549 5.12816e-20)
(8.73077 20.9378 -3.10044e-22)
(8.29029 20.4756 5.99583e-20)
(-14.0528 21.4029 1.67534e-20)
(-12.1113 19.3243 6.04638e-19)
(-10.2778 17.7002 -6.10467e-19)
(-8.68957 16.4773 8.36781e-19)
(-7.29703 15.5153 -8.06687e-19)
(-6.05988 14.7341 0)
(-4.95726 14.0838 9.93658e-19)
(-3.96839 13.5377 -8.89847e-19)
(-3.07591 13.0799 -9.10028e-19)
(-2.26785 12.6877 -7.79961e-20)
(-1.53115 12.3515 -7.71696e-20)
(-0.854071 12.0614 8.22825e-19)
(-0.230339 11.8076 5.1271e-20)
(0.346018 11.5838 5.30427e-20)
(0.880939 11.3838 5.08315e-20)
(1.37828 11.2042 0)
(1.84199 11.0397 2.33136e-21)
(2.276 10.8872 8.22229e-19)
(2.6835 10.7469 -6.69152e-19)
(3.06672 10.6145 0)
(3.42861 10.4894 -7.1824e-19)
(3.77149 10.3702 6.23815e-19)
(4.09711 10.2568 0)
(4.40696 10.1475 6.02934e-19)
(4.70284 10.0418 -6.65453e-19)
(4.9861 9.93925 6.57894e-19)
(5.25798 9.83972 -5.76836e-19)
(5.51929 9.74255 -2.16567e-19)
(5.77105 9.64765 -5.6596e-19)
(6.01407 9.55414 5.63243e-19)
(6.24907 9.4622 0)
(6.47651 9.37148 -5.57515e-19)
(6.69701 9.28207 5.56743e-19)
(6.91103 9.19343 1.38224e-19)
(7.11896 9.10571 -6.90731e-19)
(7.32118 9.01867 6.91181e-19)
(7.518 8.93208 -2.76717e-19)
(7.70967 8.84585 6.81022e-19)
(7.89637 8.75996 -5.412e-19)
(8.07826 8.67449 5.33541e-19)
(8.25552 8.58917 -2.61778e-19)
(8.42852 8.50409 -2.57902e-19)
(8.60041 8.41455 -2.4702e-19)
(-1.47074 23.4899 -4.94406e-20)
(-1.81736 21.6998 1.81841e-20)
(-1.86125 20.1815 3.8423e-19)
(-1.7103 18.8989 -3.7788e-19)
(-1.43957 17.811 9.19607e-19)
(-1.09552 16.8836 -8.98479e-19)
(-0.707233 16.0892 -5.3527e-20)
(-0.297041 15.4054 0)
(0.120384 14.8131 -5.15632e-20)
(0.537258 14.2957 -8.09456e-19)
(0.947447 13.8415 8.29168e-19)
(1.34666 13.4391 -8.09221e-19)
(1.73334 13.081 1.51382e-18)
(2.10607 12.76 -7.54265e-19)
(2.46411 12.4704 -7.31468e-19)
(2.80842 12.208 7.49782e-19)
(3.13848 11.9678 4.25827e-20)
(3.45505 11.7468 5.83024e-19)
(3.75874 11.5424 -6.47317e-19)
(4.05027 11.3522 0)
(4.33076 11.1745 7.68253e-20)
(4.60041 11.0069 0)
(4.85997 10.8487 -5.89499e-19)
(5.11033 10.6988 6.52025e-19)
(5.35206 10.556 6.41301e-19)
(5.58553 10.4194 -7.72831e-22)
(5.81133 10.2884 -5.56892e-19)
(6.02999 10.1625 6.90845e-20)
(6.242 10.0413 -6.77304e-20)
(6.44769 9.92396 1.34861e-19)
(6.64756 9.81019 -5.41786e-19)
(6.84198 9.6998 5.4129e-19)
(7.03117 9.59223 5.39536e-19)
(7.2155 9.48739 -6.75198e-19)
(7.39527 9.38493 2.69145e-19)
(7.57066 9.28447 0)
(7.74187 9.18587 0)
(7.90907 9.08891 -8.03032e-19)
(8.07244 8.99334 6.65703e-19)
(8.2321 8.89913 0)
(8.38816 8.80608 -2.60259e-19)
(8.54071 8.71416 2.56071e-19)
(8.68988 8.62223 -2.4362e-19)
(0.722722 22.7982 -1.77228e-19)
(0.396333 21.6923 3.49464e-20)
(0.25995 20.6168 3.08971e-19)
(0.269014 19.6035 -6.7787e-19)
(0.386095 18.6686 -2.09453e-20)
(0.582342 17.8192 2.95665e-19)
(0.831848 17.0519 0)
(1.11601 16.3615 0)
(1.4224 15.7426 4.8375e-20)
(1.73986 15.187 -7.73858e-19)
(2.06193 14.6881 7.49945e-19)
(2.38255 14.2383 -7.06456e-19)
(2.69952 13.8325 6.40239e-19)
(3.00942 13.4644 8.39286e-20)
(3.31128 13.1298 5.79185e-19)
(3.6037 12.8239 -7.62166e-19)
(3.88662 12.5431 -6.3039e-19)
(4.15965 12.2842 6.12779e-19)
(4.42292 12.0443 7.46963e-20)
(4.67705 11.8218 0)
(4.92179 11.6138 0)
(5.15768 11.4185 5.67148e-19)
(5.38531 11.235 -6.81772e-20)
(5.60516 11.0621 -1.0969e-18)
(5.81755 10.8983 1.01568e-18)
(6.02292 10.7426 -5.35431e-19)
(6.22183 10.5943 -5.30802e-19)
(6.41467 10.4527 5.26506e-19)
(6.60196 10.3173 6.60187e-20)
(6.78403 10.1873 -1.31407e-19)
(6.96106 10.0621 -5.19861e-19)
(7.13338 9.94128 5.19446e-19)
(7.30134 9.82446 -3.89828e-19)
(7.46519 9.7114 5.19588e-19)
(7.62523 9.60142 -1.34333e-21)
(7.78157 9.49424 0)
(7.93439 9.38964 -5.19755e-19)
(8.08374 9.28741 6.49882e-19)
(8.22979 9.18723 -1.29874e-19)
(8.37266 9.08896 -2.56793e-19)
(8.51249 8.99244 2.54436e-19)
(8.64947 8.89737 -2.50254e-19)
(8.78283 8.80593 4.85523e-19)
(3.44251 22.2541 5.22286e-19)
(3.0728 21.3671 -4.6987e-20)
(2.82385 20.4833 -2.22514e-19)
(2.68233 19.6272 -3.34119e-19)
(2.63197 18.8146 3.30655e-19)
(2.65625 18.0544 8.57322e-20)
(2.73824 17.3501 4.34906e-20)
(2.86523 16.7024 3.60648e-19)
(3.02615 16.1093 -3.50997e-19)
(3.21112 15.5679 4.40012e-20)
(3.41195 15.0731 -4.79881e-19)
(3.62379 14.6218 -4.59079e-21)
(3.84184 14.2093 3.75794e-19)
(4.0629 13.8316 -8.24283e-20)
(4.28414 13.4848 8.04879e-19)
(4.50431 13.1659 -5.46547e-19)
(4.72134 12.8715 -6.14805e-19)
(4.9344 12.5987 5.9782e-19)
(5.143 12.3455 -7.36306e-20)
(5.34683 12.1096 0)
(5.54554 11.8888 -6.97036e-20)
(5.73916 11.6818 5.52555e-19)
(5.92768 11.4872 -1.01683e-18)
(6.11103 11.3037 1.06832e-18)
(6.28957 11.1302 -9.87845e-19)
(6.46338 10.9658 5.20831e-19)
(6.6328 10.8094 5.16147e-19)
(6.79798 10.6605 -1.02347e-18)
(6.95926 10.5185 9.53868e-19)
(7.11653 10.3823 -4.43466e-19)
(7.27008 10.2516 -6.27952e-20)
(7.4201 10.1259 0)
(7.56683 10.0048 -1.26583e-19)
(7.71048 9.88794 -1.25503e-19)
(7.85126 9.77456 -3.79202e-19)
(7.98908 9.66434 3.78709e-19)
(8.12399 9.55707 0)
(8.25603 9.45255 -1.25932e-19)
(8.38538 9.35054 0)
(8.51206 9.25079 2.50999e-19)
(8.63614 9.15309 -3.73999e-19)
(8.75755 9.05721 2.46056e-19)
(8.87419 8.96788 2.39186e-19)
(4.81144 21.6149 -1.21957e-19)
(4.44946 20.8741 -3.47076e-20)
(4.18152 20.1258 3.66325e-20)
(4.00108 19.3884 2.39452e-19)
(3.8984 18.6759 -3.13648e-19)
(3.86187 17.9972 -3.78032e-19)
(3.88023 17.3578 2.03422e-19)
(3.94354 16.7607 2.58357e-19)
(4.04134 16.2058 -3.34103e-19)
(4.16496 15.692 4.23592e-19)
(4.3083 15.2178 -2.45676e-19)
(4.46591 14.7806 3.30882e-19)
(4.63332 14.3777 -4.01322e-19)
(4.80758 14.0058 0)
(4.98571 13.6624 1.5619e-19)
(5.16508 13.3441 -6.08098e-19)
(5.34392 13.0488 2.22633e-19)
(5.52152 12.7743 0)
(5.6971 12.5188 0)
(5.87012 12.28 -6.94977e-20)
(6.03981 12.0561 6.91145e-20)
(6.20613 11.8457 6.69639e-20)
(6.36844 11.6474 6.58709e-20)
(6.52706 11.4606 0)
(6.6821 11.284 0)
(6.83368 11.1167 -6.32899e-20)
(6.98191 10.9579 0)
(7.12679 10.8068 2.49981e-19)
(7.26843 10.6626 -1.23979e-19)
(7.40694 10.5246 1.85094e-19)
(7.54236 10.3923 -4.30768e-19)
(7.67488 10.2654 5.52963e-19)
(7.80474 10.1434 -1.23384e-19)
(7.93214 10.0258 1.23507e-19)
(8.05729 9.91184 -3.69011e-19)
(8.17983 9.80114 3.69555e-19)
(8.29966 9.69352 -3.7007e-19)
(8.41695 9.58895 2.47082e-19)
(8.53197 9.48713 0)
(8.64462 9.38767 -2.45877e-19)
(8.75499 9.29042 -5.60399e-22)
(8.86288 9.19492 2.41703e-19)
(8.9649 9.10741 0)
(5.94053 21.1158 6.4981e-20)
(5.58331 20.463 1.37772e-19)
(5.30271 19.7998 7.72005e-20)
(5.09537 19.1403 -1.49114e-19)
(4.956 18.4963 0)
(4.87607 17.8767 -8.05498e-20)
(4.84795 17.2874 1.64009e-19)
(4.86316 16.7305 8.29728e-20)
(4.9121 16.2075 3.34139e-19)
(4.98746 15.719 -4.89816e-19)
(5.08434 15.265 0)
(5.19744 14.8433 0)
(5.32332 14.4526 9.16547e-22)
(5.45927 14.0901 0)
(5.60056 13.7528 -2.29385e-19)
(5.74532 13.4389 2.97237e-19)
(5.89142 13.1468 -1.47098e-19)
(6.03856 12.8749 6.94504e-20)
(6.18571 12.6213 2.79651e-19)
(6.33211 12.3835 6.90866e-20)
(6.47713 12.1601 -6.70774e-20)
(6.6195 11.9495 -6.59889e-22)
(6.75905 11.751 -6.54478e-20)
(6.89638 11.5641 6.38278e-20)
(7.03116 11.3874 0)
(7.1637 11.2203 -1.87382e-19)
(7.29364 11.0617 2.47222e-19)
(7.42088 10.9108 6.10726e-20)
(7.54576 10.7671 -3.04824e-19)
(7.66815 10.6297 1.81887e-19)
(7.78796 10.498 0)
(7.90528 10.3717 -4.51002e-22)
(8.02071 10.2508 -1.20818e-19)
(8.13445 10.1343 -2.40838e-19)
(8.24645 10.0215 6.03019e-19)
(8.35576 9.91162 -1.21079e-19)
(8.46238 9.80508 7.58057e-22)
(8.56679 9.7019 -7.31679e-22)
(8.66946 9.60162 -1.21264e-19)
(8.76982 9.50376 4.82576e-19)
(8.8682 9.40856 -3.60392e-19)
(8.96472 9.3151 -1.36104e-22)
(9.05605 9.23004 2.33381e-19)
(6.76054 20.6799 7.63787e-22)
(6.41043 20.0888 -1.39553e-19)
(6.12631 19.4857 3.58456e-19)
(5.90603 18.8828 8.13426e-20)
(5.74627 18.2902 -7.40131e-20)
(5.64175 17.717 -8.09644e-20)
(5.58676 17.1686 -1.64443e-19)
(5.5734 16.6461 7.83699e-20)
(5.59036 16.1502 -8.01609e-20)
(5.63336 15.6846 8.05039e-20)
(5.69814 15.2494 3.20056e-19)
(5.78088 14.8439 -3.11247e-19)
(5.87863 14.4669 7.76728e-20)
(5.98807 14.1151 -3.81061e-19)
(6.10292 13.7857 2.96828e-19)
(6.22209 13.4782 0)
(6.34346 13.1914 -7.2065e-20)
(6.46777 12.925 2.11271e-19)
(6.59375 12.676 -2.74831e-19)
(6.72104 12.442 0)
(6.8471 12.2207 1.32728e-19)
(6.97105 12.0119 -5.52635e-22)
(7.09284 11.8154 0)
(7.21379 11.6303 -6.33904e-20)
(7.33272 11.4551 -2.49301e-19)
(7.45019 11.2898 2.4575e-19)
(7.56501 11.1328 -2.43643e-19)
(7.67803 10.9843 1.80519e-19)
(7.78934 10.8428 0)
(7.89875 10.7071 3.97493e-22)
(8.0058 10.5771 0)
(8.11062 10.453 -5.93498e-20)
(8.21447 10.3345 -1.7749e-19)
(8.31713 10.2202 1.77334e-19)
(8.41841 10.1093 0)
(8.51621 10.0009 -1.77796e-19)
(8.61139 9.89649 1.1895e-19)
(8.7048 9.79571 -1.1909e-19)
(8.79708 9.69772 -1.19101e-19)
(8.88643 9.60208 2.36915e-19)
(8.97395 9.51004 1.25473e-23)
(9.05985 9.42023 -1.17501e-19)
(9.14532 9.33209 -1.16246e-19)
(7.41439 20.3119 1.9246e-19)
(7.07029 19.7652 -2.64413e-19)
(6.78444 19.2064 -1.4058e-19)
(6.55587 18.6448 -1.48391e-19)
(6.38236 18.0908 7.19547e-20)
(6.25969 17.5547 0)
(6.18749 17.0389 7.768e-20)
(6.15554 16.5454 -1.57929e-19)
(6.1477 16.0703 1.54771e-19)
(6.16543 15.6239 -1.57038e-19)
(6.20687 15.2055 -7.95464e-20)
(6.26631 14.8148 1.51543e-19)
(6.34307 14.4501 0)
(6.43349 14.1097 7.44695e-20)
(6.52627 13.7872 -1.46491e-19)
(6.62443 13.4857 -1.19925e-21)
(6.72438 13.2033 2.80999e-19)
(6.83062 12.9455 8.86729e-22)
(6.94089 12.7023 -6.66695e-20)
(7.05473 12.4735 -1.98736e-19)
(7.16523 12.2547 -3.2678e-19)
(7.2736 12.0481 -6.51948e-20)
(7.38073 11.8538 2.51822e-19)
(7.48891 11.6706 0)
(7.59359 11.4963 6.09967e-20)
(7.69876 11.3348 0)
(7.80001 11.1802 2.39907e-19)
(7.90205 11.0361 5.94989e-20)
(8.0026 10.8981 -2.35656e-19)
(8.10206 10.7645 5.87534e-20)
(8.19862 10.6369 0)
(8.29284 10.5155 0)
(8.38751 10.3999 1.02095e-22)
(8.48112 10.2882 -1.73999e-19)
(8.57437 10.1801 1.16162e-19)
(8.66172 10.0734 3.40908e-22)
(8.74709 9.97174 -1.16506e-19)
(8.83139 9.8738 -5.85835e-20)
(8.91518 9.77816 2.33502e-19)
(8.99402 9.68428 -2.33288e-19)
(9.07235 9.59629 -5.80118e-20)
(9.14991 9.50949 1.15676e-19)
(9.22942 9.42244 -1.11891e-19)
(7.8977 19.9847 -6.33668e-20)
(7.558 19.4692 -2.1462e-21)
(7.274 18.9482 2.09925e-19)
(7.05312 18.4215 -7.24586e-20)
(6.87581 17.8967 -7.69636e-20)
(6.7309 17.391 -4.77165e-21)
(6.64308 16.899 1.47846e-19)
(6.60009 16.4369 7.81357e-20)
(6.58234 15.977 2.36e-19)
(6.59039 15.5496 -7.66653e-20)
(6.6192 15.1452 6.47485e-22)
(6.65841 14.7675 7.11959e-20)
(6.71995 14.4151 1.45044e-19)
(6.79654 14.0907 -1.45728e-19)
(6.87403 13.7699 -7.11979e-20)
(6.95932 13.4741 0)
(7.04178 13.1942 0)
(7.13417 12.9565 0)
(7.23637 12.7165 7.7273e-22)
(7.34132 12.4955 -1.3439e-19)
(7.43843 12.2756 1.31394e-19)
(7.53652 12.07 -6.38667e-20)
(7.63422 11.8774 -6.18998e-20)
(7.7347 11.6953 0)
(7.82544 11.5216 -6.83047e-22)
(7.9204 11.3708 -6.05341e-20)
(8.00935 11.2171 0)
(8.1042 11.0817 -6.15641e-20)
(8.19604 10.9455 -5.85354e-20)
(8.28829 10.8113 -1.13755e-19)
(8.37429 10.6866 1.16014e-19)
(8.45963 10.5662 0)
(8.54816 10.4541 -5.60319e-20)
(8.6337 10.3466 1.14259e-19)
(8.71978 10.2434 -1.17955e-19)
(8.79527 10.1353 1.77268e-19)
(8.87249 10.0356 -5.86692e-20)
(8.94931 9.93968 -1.15893e-19)
(9.02677 9.84632 5.60903e-20)
(9.0947 9.75347 5.78773e-20)
(9.16503 9.67405 1.72682e-19)
(9.235 9.59011 -1.13602e-19)
(9.30541 9.5085 0)
(20.4399 -1.70026 3.61434e-20)
(20.1359 -1.70235 -2.83623e-20)
(19.8329 -1.7055 -5.7788e-20)
(19.5315 -1.70854 4.94247e-20)
(19.2317 -1.71153 -4.07862e-20)
(18.9336 -1.71445 4.05395e-20)
(18.6371 -1.7173 -4.02584e-20)
(18.342 -1.72008 -6.30927e-20)
(18.0482 -1.72278 8.46842e-20)
(17.7557 -1.7254 0)
(17.4642 -1.72795 0)
(17.1736 -1.7304 2.01257e-19)
(16.8836 -1.73276 -2.05027e-19)
(16.5941 -1.73502 2.30428e-20)
(16.3049 -1.73719 -2.36527e-20)
(16.0157 -1.73927 0)
(15.7262 -1.74124 2.18267e-19)
(15.4362 -1.74311 -1.99921e-19)
(15.1455 -1.74487 -2.21494e-19)
(14.8536 -1.74651 2.44296e-19)
(14.5602 -1.74801 -2.91275e-20)
(14.2649 -1.74936 0)
(13.9674 -1.75053 -1.5868e-20)
(13.667 -1.75151 0)
(13.3633 -1.75227 0)
(13.0557 -1.7528 0)
(12.7433 -1.75309 -1.08586e-20)
(12.4254 -1.75307 1.13076e-20)
(12.101 -1.75274 0)
(11.7688 -1.75206 0)
(11.4276 -1.75093 0)
(11.0755 -1.74927 -2.58695e-19)
(10.7104 -1.74692 5.54495e-19)
(10.3298 -1.74366 -6.36982e-19)
(9.93009 -1.73912 3.58665e-19)
(9.50687 -1.7327 -1.21014e-20)
(9.05403 -1.72338 1.39032e-20)
(8.5631 -1.70927 -3.4458e-20)
(8.02245 -1.68639 2.05361e-20)
(7.4199 -1.64549 -1.73964e-19)
(6.77829 -1.5555 2.51367e-19)
(6.44738 -1.38052 6.97436e-19)
(9.43492 -0.888596 -1.48491e-18)
(20.3962 -1.68672 7.42618e-20)
(20.1187 -1.68986 -2.95356e-20)
(19.8417 -1.693 -9.9601e-21)
(19.5658 -1.69593 0)
(19.291 -1.69876 -4.06934e-20)
(19.0173 -1.7015 4.09917e-20)
(18.7446 -1.70412 0)
(18.4727 -1.70661 -1.06776e-22)
(18.2016 -1.709 0)
(17.9309 -1.71128 0)
(17.6606 -1.71343 0)
(17.3904 -1.71542 0)
(17.1201 -1.71723 -1.79211e-19)
(16.8494 -1.71885 1.59553e-19)
(16.5781 -1.72026 2.3854e-20)
(16.3059 -1.72149 2.423e-20)
(16.0324 -1.7225 -1.26527e-20)
(15.7575 -1.7233 0)
(15.4806 -1.72387 -1.34233e-20)
(15.2015 -1.72421 0)
(14.9197 -1.72428 -2.17493e-19)
(14.6347 -1.72407 2.43386e-19)
(14.3461 -1.72355 0)
(14.0532 -1.72269 -2.88957e-19)
(13.7555 -1.72145 2.70007e-19)
(13.452 -1.71979 0)
(13.1421 -1.71765 2.09472e-20)
(12.8247 -1.71497 -1.12618e-20)
(12.4986 -1.71164 -2.42634e-20)
(12.1624 -1.70757 0)
(11.8146 -1.70258 0)
(11.4532 -1.69645 3.17283e-20)
(11.0758 -1.68887 0)
(10.6794 -1.6794 -1.55836e-19)
(10.2603 -1.66735 1.96893e-19)
(9.81407 -1.6517 1.738e-19)
(9.33539 -1.63066 -1.13407e-19)
(8.81967 -1.60067 -3.31431e-20)
(8.27036 -1.55347 -9.73471e-20)
(7.73179 -1.4721 9.5037e-20)
(7.43256 -1.32403 -2.96755e-19)
(8.34982 -1.14397 2.88959e-19)
(13.9522 -0.927332 -3.06706e-20)
(20.3557 -1.67789 -1.88566e-20)
(20.0992 -1.67869 1.99558e-20)
(19.8427 -1.68022 1.01971e-20)
(19.5867 -1.68191 1.03024e-20)
(19.3311 -1.68354 1.16029e-22)
(19.076 -1.68502 0)
(18.8212 -1.68631 0)
(18.5666 -1.68739 -2.1165e-20)
(18.3119 -1.68832 0)
(18.0569 -1.68913 -8.6877e-20)
(17.8016 -1.68983 1.10057e-19)
(17.5458 -1.69037 -8.95259e-20)
(17.2892 -1.69071 9.1035e-20)
(17.0316 -1.69083 0)
(16.7727 -1.69071 0)
(16.5121 -1.69038 -2.43743e-20)
(16.2497 -1.68983 0)
(15.985 -1.68905 0)
(15.7178 -1.68803 1.3488e-20)
(15.4475 -1.68676 1.42522e-20)
(15.1738 -1.68522 -1.18541e-19)
(14.8963 -1.68335 1.24135e-19)
(14.6143 -1.68113 1.31071e-19)
(14.3273 -1.67848 -1.21152e-19)
(14.0345 -1.67533 1.82285e-20)
(13.7352 -1.67161 1.56976e-19)
(13.4284 -1.66724 -1.6772e-19)
(13.113 -1.66208 -2.2758e-20)
(12.7879 -1.65603 -4.06136e-22)
(12.4516 -1.64888 2.67186e-20)
(12.1024 -1.64043 0)
(11.7381 -1.63033 7.94381e-20)
(11.3565 -1.61817 -1.40179e-19)
(10.9543 -1.60331 -1.96768e-20)
(10.5283 -1.58484 -2.16656e-20)
(10.0746 -1.56122 -4.30369e-22)
(9.59096 -1.52961 0)
(9.08169 -1.48433 -6.53573e-20)
(8.57652 -1.4134 1.15604e-19)
(8.19508 -1.29268 -9.32697e-20)
(8.36984 -1.09266 5.70858e-20)
(10.4058 -0.853948 -2.51712e-19)
(16.8806 -0.799012 6.14024e-19)
(20.3208 -1.6668 -5.98249e-20)
(20.082 -1.66653 1.54002e-20)
(19.8434 -1.66683 5.20886e-21)
(19.6048 -1.66733 0)
(19.3662 -1.66789 -4.23528e-20)
(19.1276 -1.66837 0)
(18.8889 -1.66861 0)
(18.6498 -1.66853 0)
(18.4099 -1.66824 0)
(18.1692 -1.66786 2.22164e-20)
(17.9275 -1.66742 -2.23319e-20)
(17.6847 -1.6669 -1.14266e-19)
(17.4406 -1.66618 9.29035e-20)
(17.195 -1.66515 2.38268e-20)
(16.9473 -1.66382 1.22079e-20)
(16.6974 -1.66221 -1.12772e-19)
(16.4449 -1.66036 2.06483e-19)
(16.1894 -1.65823 -1.06705e-19)
(15.9306 -1.65581 1.11054e-19)
(15.6681 -1.65309 -1.29781e-19)
(15.4013 -1.65007 0)
(15.1299 -1.64672 0)
(14.8532 -1.64296 0)
(14.5708 -1.6387 0)
(14.2817 -1.63385 -1.689e-19)
(13.9853 -1.62832 1.39513e-19)
(13.6805 -1.622 0)
(13.3662 -1.61474 2.28011e-20)
(13.0411 -1.60639 -2.85714e-22)
(12.7038 -1.59673 1.61734e-19)
(12.3525 -1.58553 -2.34238e-19)
(11.985 -1.57244 -9.68057e-20)
(11.5991 -1.55689 1.05874e-19)
(11.1918 -1.53802 1.94835e-20)
(10.7601 -1.51457 -4.41015e-20)
(10.3018 -1.4844 -2.47834e-20)
(9.8188 -1.44356 1.1254e-19)
(9.32707 -1.38412 6.47498e-20)
(8.88677 -1.29079 -7.12435e-20)
(8.69281 -1.13671 8.56986e-20)
(9.31621 -0.906661 -1.07033e-19)
(12.1867 -0.646815 2.20823e-19)
(18.9015 -0.678915 1.86481e-19)
(20.29 -1.65634 -4.14312e-20)
(20.0684 -1.65498 1.57205e-20)
(19.8463 -1.65432 2.66258e-20)
(19.6238 -1.65394 -2.1479e-20)
(19.4008 -1.65381 -8.2834e-23)
(19.1775 -1.65373 2.16852e-20)
(18.9537 -1.65336 0)
(18.729 -1.65244 0)
(18.5028 -1.65112 0)
(18.2751 -1.64969 -4.49626e-20)
(18.0455 -1.6483 0)
(17.8143 -1.64701 2.3098e-20)
(17.5814 -1.64562 0)
(17.3465 -1.64383 -2.40411e-20)
(17.1091 -1.64151 9.89862e-20)
(16.8686 -1.63881 -8.87945e-20)
(16.6249 -1.63582 -1.31268e-20)
(16.3776 -1.63253 -1.08518e-19)
(16.1264 -1.62888 -2.82914e-22)
(15.8707 -1.62482 1.1708e-19)
(15.61 -1.62042 0)
(15.344 -1.61572 -1.44882e-19)
(15.072 -1.61066 1.35228e-19)
(14.7935 -1.60506 1.43309e-19)
(14.5078 -1.59878 -2.84759e-19)
(14.2139 -1.59172 1.81635e-19)
(13.9109 -1.58376 1.94857e-19)
(13.5976 -1.57474 -3.01681e-19)
(13.2727 -1.56444 2.46456e-20)
(12.9346 -1.55264 2.66899e-20)
(12.5813 -1.53913 2.36151e-19)
(12.2108 -1.52367 -9.65858e-20)
(11.8211 -1.50561 3.53641e-20)
(11.4098 -1.4837 0)
(10.9745 -1.45608 1.31371e-19)
(10.5147 -1.41988 -1.96709e-19)
(10.0369 -1.37013 3.99879e-22)
(9.56943 -1.29723 -6.42247e-20)
(9.2015 -1.18329 3.73921e-20)
(9.19159 -1.00165 4.46924e-20)
(10.197 -0.752402 5.13566e-20)
(13.6552 -0.502168 0)
(20.3679 -0.589826 8.04271e-20)
(20.2627 -1.64564 4.21852e-20)
(20.0571 -1.64379 5.34853e-21)
(19.8501 -1.64247 -4.86457e-20)
(19.6419 -1.64141 1.08241e-20)
(19.4328 -1.64077 -1.10147e-20)
(19.2229 -1.64045 -4.41382e-20)
(19.0126 -1.63993 6.6517e-20)
(18.8011 -1.63841 -4.46218e-20)
(18.5872 -1.63606 0)
(18.3709 -1.63349 9.1209e-20)
(18.1518 -1.63102 -9.24147e-20)
(17.9305 -1.62901 9.39232e-20)
(17.7069 -1.62729 -4.77982e-20)
(17.4816 -1.62524 0)
(17.2533 -1.62216 -1.12771e-19)
(17.021 -1.61849 2.18831e-19)
(16.7849 -1.61454 -7.95013e-20)
(16.5444 -1.61028 0)
(16.2997 -1.60567 -1.14162e-19)
(16.0499 -1.60036 1.18593e-19)
(15.7943 -1.59456 1.08736e-19)
(15.5326 -1.58851 -1.13772e-19)
(15.2642 -1.58228 1.20046e-19)
(14.9891 -1.57565 -2.89482e-19)
(14.7061 -1.56821 1.33986e-19)
(14.4143 -1.55993 0)
(14.1126 -1.55068 -4.36151e-20)