/*--------------------------------*- C++ -*----------------------------------*\
| =========                 |                                                 |
| \\      /  F ield         | OpenFOAM: The Open Source CFD Toolbox           |
|  \\    /   O peration     | Version:  2.3.0                                 |
|   \\  /    A nd           | Web:      www.OpenFOAM.org                      |
|    \\/     M anipulation  |                                                 |
\*---------------------------------------------------------------------------*/
FoamFile
{
    version     2.0;
    format      ascii;
    class       volScalarField;
    location    "5000";
    object      nut;
}
// * * * * * * * * * * * * * * * * * * * * * * * * * * * * * * * * * * * * * //

dimensions      [0 2 -1 0 0 0 0];

internalField   nonuniform List<scalar> 
38075
(
0.0504095
0.048702
0.0470225
0.0453669
0.0437352
0.0421277
0.0405452
0.0389894
0.0374614
0.0359626
0.0344948
0.0330608
0.0316625
0.0303043
0.0289902
0.0277211
0.0264981
0.0253201
0.0241726
0.0230442
0.0219352
0.0208484
0.0197884
0.0187575
0.0177587
0.0167916
0.0158568
0.0149539
0.0140823
0.0132396
0.0124243
0.0116346
0.0108669
0.0101187
0.00938766
0.00867095
0.00796763
0.00727672
0.00660357
0.00595258
0.00533763
0.00479335
0.00448023
0.0523155
0.0508191
0.0493419
0.0478828
0.0464421
0.0450201
0.0436173
0.0422346
0.0408721
0.0395303
0.0382105
0.0369128
0.0356374
0.0343863
0.033159
0.031957
0.0307798
0.0296279
0.0284997
0.0273939
0.02631
0.0252478
0.0242096
0.0231972
0.0222102
0.0212517
0.0203225
0.0194247
0.0185602
0.017732
0.0169422
0.0161925
0.0154876
0.0148335
0.0142367
0.0137054
0.0132485
0.0128776
0.0126
0.0124311
0.0123835
0.012469
0.0126982
0.054051
0.0527317
0.0514257
0.0501328
0.0488541
0.0475892
0.0463395
0.0451046
0.0438851
0.0426815
0.0414938
0.0403224
0.039168
0.0380309
0.0369112
0.0358097
0.0347263
0.0336619
0.0326172
0.0315914
0.0305851
0.0295991
0.028635
0.027694
0.0267762
0.0258838
0.0250204
0.0241857
0.023384
0.0226173
0.0218896
0.0212055
0.0205694
0.0199876
0.0194654
0.0190117
0.0186337
0.0183407
0.0181406
0.0180424
0.0180527
0.0181787
0.0184196
0.055626
0.0544587
0.0532985
0.0521474
0.0510061
0.0498755
0.0487555
0.0476464
0.0465488
0.0454625
0.044388
0.043325
0.0422743
0.041237
0.0402128
0.0392022
0.0382053
0.0372228
0.0362552
0.0353044
0.0343697
0.0334525
0.0325545
0.0316761
0.0308192
0.0299859
0.0291774
0.0283972
0.0276469
0.0269312
0.0262523
0.0256156
0.0250259
0.0244893
0.0240117
0.0236007
0.0232624
0.0230058
0.0228373
0.0227635
0.0227914
0.0229223
0.0231582
0.0570584
0.0560181
0.0549818
0.0539516
0.0529279
0.0519114
0.0509021
0.0499
0.0489056
0.047919
0.0469401
0.0459691
0.0450068
0.0440536
0.0431105
0.0421771
0.0412541
0.0403412
0.0394402
0.0385522
0.037678
0.0368182
0.0359748
0.0351487
0.0343418
0.0335558
0.0327932
0.0320564
0.0313476
0.0306704
0.03003
0.0294297
0.0288744
0.02837
0.0279228
0.0275389
0.0272267
0.026991
0.0268401
0.0267791
0.0268134
0.0269454
0.0271759
0.0583566
0.0574247
0.0564946
0.0555677
0.0546446
0.0537255
0.0528105
0.0519
0.0509936
0.0500915
0.049194
0.048301
0.0474127
0.0465301
0.0456551
0.0447869
0.0439262
0.0430726
0.0422276
0.0413922
0.0405674
0.0397552
0.0389572
0.038174
0.037408
0.0366611
0.0359352
0.0352333
0.0345582
0.0339131
0.0333026
0.0327304
0.0322007
0.0317199
0.0312946
0.0309311
0.0306358
0.0304147
0.030274
0.0302196
0.0302558
0.0303861
0.0306102
0.0595342
0.0586938
0.0578537
0.0570158
0.0561791
0.0553436
0.054509
0.053676
0.0528452
0.0520149
0.0511871
0.0503615
0.049536
0.0487125
0.0478934
0.0470806
0.0462727
0.0454702
0.0446724
0.0438812
0.0430978
0.042325
0.0415638
0.0408159
0.0400831
0.0393681
0.0386726
0.0379993
0.0373511
0.0367318
0.0361463
0.0355968
0.0350873
0.0346241
0.0342154
0.033867
0.0335844
0.0333733
0.0332399
0.033189
0.0332259
0.0333521
0.0335706
0.0605941
0.0598383
0.0590751
0.0583138
0.0575509
0.0567883
0.0560223
0.0552541
0.05449
0.0537209
0.0529497
0.0521849
0.0514158
0.0506403
0.049868
0.0490992
0.0483368
0.0475784
0.0468222
0.0460681
0.0453199
0.0445788
0.043849
0.0431304
0.0424243
0.0417338
0.0410648
0.0404164
0.0397892
0.0391892
0.0386244
0.0380972
0.0376064
0.0371532
0.0367587
0.0364198
0.0361473
0.0359448
0.0358173
0.0357697
0.035805
0.0359268
0.0361394
0.061554
0.0608767
0.0601742
0.0594803
0.058775
0.0580741
0.05737
0.0566515
0.0559492
0.0552373
0.0545032
0.0537917
0.0530793
0.0523452
0.0516141
0.0508757
0.050147
0.0494271
0.0487092
0.0479878
0.0472724
0.0465549
0.0458509
0.0451583
0.0444776
0.0438014
0.0431537
0.0425281
0.0419251
0.0413344
0.0407858
0.0402777
0.0398223
0.0393611
0.0389845
0.038647
0.0383864
0.0381911
0.0380673
0.0380254
0.0380608
0.0381748
0.0383817
0.00527601
0.0068001
0.00784072
0.00889742
0.0100234
0.0112128
0.0124522
0.0137293
0.0150356
0.0163646
0.0177128
0.0190777
0.0204569
0.0218497
0.023255
0.0246723
0.0261007
0.0275397
0.0289893
0.0304492
0.0319192
0.0333989
0.0348884
0.0363876
0.037896
0.0394135
0.04094
0.0424751
0.0440189
0.0455707
0.0471301
0.0486971
0.0502711
0.0518514
0.0534374
0.0550288
0.0566247
0.0582246
0.0598276
0.0614332
0.0630406
0.0646494
0.0662577
0.0130821
0.0136231
0.0142987
0.0150981
0.0160046
0.0170011
0.0180722
0.0192044
0.0203853
0.0216047
0.022855
0.0241298
0.0254243
0.0267351
0.0280592
0.0293942
0.0307387
0.032091
0.0334505
0.0348165
0.0361882
0.0375653
0.0389475
0.0403346
0.0417262
0.0431222
0.0445224
0.0459268
0.0473351
0.0487473
0.0501629
0.0515821
0.0530047
0.0544305
0.0558586
0.0572891
0.0587217
0.0601561
0.0615918
0.0630285
0.0644663
0.0659055
0.0673442
0.0187749
0.0192477
0.0198379
0.0205389
0.0213387
0.0222252
0.0231867
0.0242116
0.0252889
0.026409
0.027564
0.0287472
0.029953
0.0311767
0.0324144
0.033663
0.0349203
0.0361848
0.0374548
0.0387292
0.0400067
0.0412869
0.0425694
0.0438535
0.0451388
0.0464254
0.0477131
0.0490014
0.0502902
0.0515797
0.0528699
0.0541603
0.0554511
0.0567423
0.0580336
0.0593247
0.0606156
0.0619063
0.0631965
0.064486
0.0657746
0.0670621
0.068344
0.0234983
0.0239417
0.0244906
0.0251387
0.0258778
0.0266982
0.0275901
0.0285433
0.029548
0.0305953
0.0316784
0.0327898
0.0339236
0.0350751
0.0362406
0.0374163
0.0385996
0.0397884
0.040981
0.0421759
0.0433719
0.0445685
0.0457649
0.0469599
0.0481537
0.0493462
0.0505368
0.0517251
0.0529113
0.0540955
0.0552776
0.0564576
0.0576355
0.058811
0.0599844
0.0611554
0.062324
0.0634903
0.0646543
0.0658157
0.0669745
0.0681301
0.0692793
0.0275031
0.0279288
0.0284516
0.0290656
0.0297653
0.030541
0.0313842
0.0322857
0.0332369
0.0342295
0.0352564
0.0363109
0.0373867
0.0384796
0.0395853
0.0407003
0.0418213
0.0429461
0.0440729
0.0452004
0.0463273
0.0474526
0.0485754
0.0496949
0.050811
0.051923
0.0530306
0.0541338
0.0552324
0.0563266
0.0574165
0.0585021
0.0595834
0.0606601
0.0617322
0.0627997
0.0638628
0.0649217
0.0659763
0.0670268
0.0680733
0.0691159
0.0701563
0.0309288
0.0313413
0.0318454
0.0324363
0.0331076
0.0338509
0.0346577
0.0355205
0.036431
0.0373807
0.0383635
0.0393728
0.0404026
0.0414477
0.0425043
0.0435685
0.0446373
0.0457086
0.0467805
0.0478514
0.0489199
0.0499848
0.0510456
0.0521013
0.0531512
0.0541947
0.055232
0.0562627
0.0572868
0.0583044
0.0593158
0.0603207
0.0613197
0.0623119
0.063297
0.0642751
0.0652471
0.0662133
0.0671737
0.0681278
0.0690763
0.0700199
0.070964
0.0338818
0.0342837
0.0347746
0.0353485
0.0359982
0.0367162
0.0374948
0.0383273
0.0392057
0.0401211
0.0410683
0.0420416
0.0430342
0.0440402
0.0450556
0.0460772
0.0471025
0.048129
0.0491543
0.0501773
0.0511966
0.0522109
0.0532193
0.0542206
0.0552141
0.0561992
0.0571763
0.0581454
0.059106
0.060058
0.0610023
0.0619393
0.0628685
0.0637879
0.0646972
0.0655979
0.0664916
0.0673784
0.0682571
0.0691271
0.0699895
0.070845
0.0716963
0.0364433
0.0368371
0.0373178
0.0378791
0.0385129
0.0392093
0.0399646
0.0407728
0.0416261
0.0425121
0.0434303
0.0443753
0.0453383
0.0463111
0.0472908
0.0482763
0.0492659
0.0502537
0.0512386
0.0522217
0.0531997
0.0541713
0.0551349
0.0560903
0.057035
0.0579697
0.0588954
0.0598125
0.0607186
0.0616137
0.0625009
0.0633811
0.064252
0.0651071
0.0659494
0.0667831
0.0676102
0.0684293
0.0692377
0.0700323
0.0708204
0.0715991
0.0723747
0.038678
0.0390651
0.039539
0.0400933
0.0407172
0.0413888
0.0421247
0.0429121
0.0437442
0.0445978
0.045498
0.0464244
0.0473616
0.0483004
0.049248
0.0502035
0.0511667
0.052116
0.0530661
0.0540194
0.0549609
0.0558986
0.0568221
0.0577394
0.0586394
0.0595308
0.060413
0.0612873
0.062144
0.0629903
0.0638329
0.0646669
0.0654888
0.0662816
0.0670654
0.0678443
0.0686178
0.0693797
0.070127
0.0708495
0.0715779
0.0722855
0.0730042
0.0866597
0.0827669
0.0789664
0.0752591
0.071647
0.0681326
0.064717
0.0614011
0.0581849
0.0550692
0.0520532
0.0491362
0.0463179
0.0435968
0.0409719
0.0384414
0.0360046
0.0336595
0.031404
0.0292365
0.0271551
0.0251583
0.0232444
0.0214117
0.0196582
0.0179833
0.0163847
0.0148606
0.0134116
0.0120345
0.0107303
0.00949632
0.00833384
0.00724257
0.00622211
0.00527332
0.00439811
0.00359865
0.00287717
0.0022431
0.00175274
0.00127481
0.000738229
0.0885288
0.0849343
0.0814148
0.0779691
0.0745986
0.071305
0.0680899
0.0649535
0.0618964
0.0589186
0.0560196
0.0532008
0.0504607
0.047799
0.0452144
0.0427078
0.0402769
0.0379213
0.0356401
0.0334316
0.0312952
0.0292305
0.0272363
0.0253121
0.0234565
0.0216684
0.0199485
0.0182969
0.0167115
0.0151944
0.0137448
0.0123642
0.0110531
0.00981321
0.00864634
0.0075562
0.00654671
0.00562918
0.00484509
0.00407492
0.00328745
0.00243431
0.00142789
0.0903719
0.0870522
0.0837924
0.0805899
0.0774459
0.0743619
0.0713387
0.0683762
0.0654748
0.0626353
0.0598576
0.0571424
0.0544894
0.0518978
0.049368
0.0468995
0.044492
0.0421456
0.0398594
0.0376326
0.0354656
0.0333575
0.0313088
0.0293189
0.0273865
0.0255138
0.0237007
0.021947
0.0202548
0.0186239
0.0170574
0.0155555
0.0141234
0.0127637
0.0114822
0.0102886
0.00921318
0.00817367
0.00712676
0.00604231
0.00488083
0.00357838
0.00208225
0.0921707
0.0891076
0.0860874
0.0831099
0.0801762
0.0772872
0.0744431
0.0716436
0.0688905
0.066183
0.0635225
0.0609089
0.0583429
0.0558243
0.0533526
0.0509289
0.0485532
0.046225
0.0439446
0.0417127
0.0395292
0.0373939
0.0353073
0.0332697
0.0312818
0.0293446
0.0274588
0.025627
0.0238503
0.0221315
0.0204723
0.018879
0.0173553
0.0159111
0.0145646
0.0132787
0.0120037
0.0107087
0.00936514
0.00794239
0.00639706
0.00465782
0.00270556
0.0939247
0.0910913
0.0882905
0.0855199
0.0827798
0.0800705
0.077392
0.0747452
0.0721305
0.0695478
0.0669977
0.0644812
0.0619998
0.0595524
0.0571398
0.0547636
0.052423
0.0501186
0.047851
0.0456221
0.0434315
0.0412798
0.0391679
0.0370969
0.035068
0.0330817
0.0311418
0.0292499
0.0274084
0.0256213
0.0238945
0.022234
0.0206514
0.0191372
0.0176524
0.0161677
0.0146576
0.0130975
0.0114596
0.00971067
0.00780217
0.00566241
0.00329473
0.0956061
0.0929908
0.0903927
0.0878116
0.0852486
0.0827046
0.08018
0.0776749
0.0751882
0.0727214
0.0702748
0.06785
0.0654481
0.0630694
0.0607152
0.0583851
0.0560806
0.0538027
0.0515521
0.0493309
0.04714
0.0449798
0.0428521
0.0407584
0.0386998
0.0366782
0.0346979
0.0327605
0.0308706
0.0290345
0.0272591
0.0255433
0.0238673
0.0222089
0.020545
0.0188543
0.0171145
0.0153013
0.0133856
0.0113314
0.00908822
0.00658615
0.00384351
0.0972265
0.0948047
0.0923891
0.0899797
0.0875786
0.0851869
0.0828043
0.0804286
0.0780607
0.0757016
0.0733501
0.0710091
0.0686817
0.0663688
0.0640698
0.0617853
0.0595176
0.0572669
0.055035
0.0528241
0.0506359
0.0484732
0.0463367
0.0442288
0.0421502
0.0401039
0.0380928
0.0361229
0.0341978
0.0323183
0.0304774
0.0286612
0.0268549
0.0250406
0.0232014
0.0213163
0.0193633
0.0173162
0.0151421
0.0128041
0.0102548
0.00742528
0.00434669
0.0987796
0.0965278
0.0942753
0.0920224
0.0897683
0.0875151
0.0852625
0.0830071
0.080748
0.0784918
0.0762257
0.0739596
0.0716998
0.0694493
0.0672041
0.0649625
0.0627304
0.0605082
0.0582958
0.0560956
0.0539125
0.051749
0.0496078
0.0474927
0.0454038
0.0433395
0.0413039
0.0393018
0.037331
0.0353836
0.0334513
0.0315224
0.0295819
0.0276186
0.0256166
0.0235547
0.021409
0.0191503
0.0167402
0.0141382
0.0113029
0.00817423
0.00480355
0.100255
0.0981522
0.0960465
0.093938
0.0918156
0.0896874
0.0875555
0.0854172
0.0832469
0.0810989
0.0789103
0.0767072
0.0745033
0.0723135
0.0701242
0.0679171
0.0657197
0.0635277
0.0613363
0.0591472
0.0569668
0.0548058
0.0526584
0.0505391
0.0484457
0.0463678
0.0442942
0.0422438
0.0402122
0.0381878
0.0361589
0.0341227
0.0320527
0.0299496
0.0277999
0.0255791
0.02326
0.0208166
0.0182018
0.0153504
0.0122325
0.00879304
0.0051098
0.000471708
0.000525177
0.000709825
0.000882308
0.00105081
0.00122586
0.00142023
0.00164864
0.00192026
0.00222709
0.00256406
0.00292892
0.00332046
0.0037379
0.00418158
0.00465121
0.00514773
0.00567117
0.00622226
0.00680146
0.0074094
0.00804671
0.00871402
0.00941172
0.0101405
0.0109011
0.0116942
0.0125209
0.0133821
0.0142781
0.0152101
0.0161788
0.0171852
0.0182299
0.0193139
0.0204381
0.0216031
0.0228099
0.0240596
0.025353
0.0266911
0.0280755
0.0295108
0.000696314
0.000684135
0.000872923
0.00106486
0.00126719
0.00149267
0.00175121
0.00204856
0.00238751
0.00275778
0.00315444
0.00357591
0.00402145
0.00449051
0.00498303
0.00549922
0.00603896
0.00660258
0.00719038
0.00780252
0.00843927
0.00910086
0.00978796
0.0105009
0.0112401
0.0120061
0.0127997
0.0136212
0.0144714
0.0153509
0.0162604
0.0172007
0.0181724
0.0191761
0.0202124
0.0212823
0.0223864
0.0235254
0.0247004
0.025912
0.0271612
0.0284485
0.0297741
0.000945458
0.000834183
0.00103846
0.00126403
0.00151543
0.00180159
0.00212539
0.00248603
0.00288555
0.00331256
0.00376339
0.00423695
0.00473215
0.00524884
0.00578651
0.00634503
0.00692447
0.00752431
0.00814485
0.00878624
0.00944856
0.0101317
0.010836
0.0115617
0.0123091
0.0130788
0.0138709
0.0146862
0.0155248
0.0163874
0.0172743
0.0181861
0.0191235
0.020087
0.021077
0.022094
0.0231388
0.0242122
0.0253146
0.0264465
0.0276086
0.0288009
0.0300233
0.00119547
0.000976397
0.00120708
0.00147673
0.00178328
0.00212941
0.00251231
0.00292983
0.00338325
0.00386095
0.00436056
0.00488074
0.00542076
0.0059798
0.00655773
0.00715387
0.00776808
0.00839995
0.00904928
0.00971599
0.0103998
0.0111009
0.0118195
0.0125555
0.0133093
0.0140806
0.0148704
0.0156784
0.0165051
0.0173509
0.0182161
0.0191008
0.020006
0.0209315
0.0218781
0.022846
0.0238358
0.024848
0.0258831
0.026941
0.0280221
0.0291261
0.0302528
0.00143856
0.0011149
0.00137996
0.00169845
0.00205971
0.00246057
0.00289567
0.00336494
0.00386614
0.0043894
0.00493265
0.00549494
0.006075
0.00667232
0.00728585
0.00791543
0.00856022
0.00921997
0.00989405
0.0105826
0.0112851
0.0120015
0.0127319
0.0134762
0.0142346
0.0150067
0.015793
0.0165936
0.0174085
0.0182381
0.0190827
0.0199423
0.0208173
0.0217079
0.0226143
0.023537
0.0244761
0.025432
0.026405
0.027395
0.0284017
0.0294251
0.0304646
0.00167152
0.0012516
0.00155539
0.00192306
0.00233489
0.0027843
0.00326594
0.00378305
0.0043271
0.00489133
0.00547399
0.00607394
0.00669015
0.00732144
0.00796706
0.00862601
0.00929792
0.00998215
0.0106781
0.0113854
0.012104
0.0128336
0.0135739
0.0143249
0.0150867
0.0158588
0.0166413
0.0174344
0.0182382
0.0190527
0.0198777
0.0207139
0.0215611
0.0224194
0.0232889
0.0241699
0.0250627
0.0259671
0.0268833
0.027811
0.0287501
0.0297005
0.0306622
0.00189068
0.00138821
0.00173232
0.00214634
0.00260346
0.00309592
0.00362
0.0041793
0.00476194
0.00536348
0.00598189
0.00661587
0.00726426
0.00792586
0.0086
0.00928533
0.00998139
0.0106874
0.0114028
0.0121269
0.0128595
0.0136003
0.0143491
0.0151055
0.0158697
0.0166412
0.0174198
0.0182056
0.0189988
0.0197993
0.0206068
0.0214213
0.0222429
0.0230712
0.0239066
0.0247492
0.0255991
0.0264566
0.027321
0.0281924
0.0290704
0.0299553
0.0308478
0.00210796
0.00152013
0.00189875
0.00235568
0.00285522
0.00338802
0.00395328
0.00455112
0.00516939
0.00580436
0.00645477
0.00711971
0.00779757
0.00848664
0.00918683
0.00989678
0.0106149
0.0113405
0.012073
0.0128114
0.0135561
0.0143066
0.0150625
0.0158235
0.0165895
0.0173603
0.0181346
0.0189134
0.0196976
0.0204855
0.0212763
0.0220713
0.0228691
0.023669
0.0244717
0.0252787
0.0260897
0.0269047
0.0277225
0.0285425
0.0293652
0.0301905
0.0310215
0.00221434
0.00165712
0.00209989
0.00260129
0.00313362
0.00369891
0.00429461
0.00491695
0.00555682
0.00621628
0.00690141
0.00759858
0.00829837
0.00901505
0.00974708
0.0104811
0.0112179
0.0119591
0.0127048
0.0134521
0.0142045
0.0149637
0.0157244
0.0164878
0.0172565
0.0180268
0.0187919
0.019565
0.0203471
0.0211216
0.0218945
0.0226748
0.0234496
0.0242181
0.0249876
0.0257609
0.0265379
0.0273161
0.028092
0.028865
0.0296371
0.030406
0.031174
0.00016453
0.000685367
0.00148779
0.00231228
0.00312193
0.00391743
0.00470374
0.00549016
0.00628019
0.00707365
0.0078723
0.00867765
0.00949262
0.0103215
0.0111668
0.0120332
0.0129245
0.0138437
0.0147936
0.0157775
0.0167963
0.0178503
0.0189375
0.0200565
0.0212036
0.0223757
0.0235734
0.0247969
0.0260431
0.027321
0.0286726
0.0300967
0.0315794
0.0331094
0.0346817
0.0362937
0.0379428
0.0396251
0.0413385
0.0430814
0.0448527
0.0466533
0.0484915
9.75853e-05
0.000425429
0.00096407
0.00167103
0.00248142
0.00326602
0.00403414
0.00478121
0.00550759
0.00622263
0.00693443
0.00765036
0.00837462
0.00911157
0.00986502
0.0106392
0.0114383
0.0122665
0.0131287
0.014028
0.014968
0.0159507
0.016977
0.0180468
0.0191574
0.0203068
0.0214921
0.0227111
0.0239613
0.0252474
0.0265845
0.0279774
0.0294178
0.030897
0.0324416
0.0340576
0.0357284
0.0374451
0.0392027
0.0409976
0.042826
0.0446863
0.0465771
7.0963e-06
0.000255247
0.000613989
0.00109404
0.00170114
0.0024303
0.00328359
0.00417333
0.00502567
0.00583883
0.00661814
0.00736823
0.00809675
0.00881053
0.00951654
0.0102216
0.0109332
0.0116588
0.012406
0.0131824
0.0139954
0.0148507
0.0157537
0.0167078
0.017715
0.0187752
0.0198875
0.0210497
0.0222595
0.0235174
0.0248264
0.0261896
0.0276047
0.0290686
0.0305863
0.0321566
0.0337712
0.0354555
0.0372103
0.0390202
0.0408769
0.0427756
0.0447155
9.96858e-06
0.000224887
0.000530762
0.000927315
0.00142583
0.00202798
0.00273788
0.00356027
0.00446308
0.00535795
0.00622527
0.00706315
0.00787294
0.00865614
0.00941406
0.0101494
0.0108668
0.011572
0.0122719
0.0129753
0.0136919
0.0144316
0.0152045
0.01602
0.0168858
0.0178084
0.0187921
0.0198391
0.0209497
0.022124
0.0233626
0.0246658
0.0260322
0.0274599
0.0289471
0.0304906
0.0320853
0.0337349
0.0354356
0.037197
0.039038
0.0409407
0.0428901
6.43376e-06
0.000200148
0.00046883
0.000817615
0.00125566
0.00178364
0.00240426
0.00312143
0.0039396
0.00485522
0.00578803
0.00669996
0.00758434
0.0084413
0.00927092
0.0100738
0.0108507
0.0116024
0.0123317
0.0130424
0.0137405
0.0144342
0.0151336
0.0158499
0.0165956
0.0173823
0.0182214
0.0191218
0.0200909
0.0211336
0.0222533
0.0234517
0.0247284
0.026082
0.0275098
0.0290069
0.0305686
0.032191
0.0338683
0.0356007
0.0373897
0.0392416
0.0411709
6.39223e-06
0.000191126
0.000435187
0.000754356
0.00115235
0.00163209
0.00219505
0.00284524
0.00358717
0.00442568
0.0053559
0.00631118
0.00725337
0.0081725
0.0090664
0.00993485
0.0107773
0.0115928
0.0123813
0.0131428
0.0138785
0.0145914
0.0152871
0.0159734
0.0166605
0.0173608
0.0180883
0.0188576
0.0196821
0.0205746
0.0215449
0.0226007
0.0237467
0.0249843
0.0263128
0.0277289
0.029227
0.0308007
0.0324434
0.0341495
0.0359133
0.0377312
0.0395873
5.87132e-06
0.000187251
0.000407943
0.000705508
0.00107459
0.00151992
0.0020416
0.0026432
0.00332873
0.00410274
0.0049707
0.00592416
0.00690342
0.0078731
0.00882233
0.00974842
0.0106502
0.0115263
0.0123757
0.0131972
0.0139898
0.014753
0.0154875
0.0161965
0.0168852
0.0175616
0.0182368
0.0189248
0.0196414
0.0204037
0.021228
0.0221297
0.0231208
0.02421
0.0254024
0.0266987
0.0280957
0.0295881
0.0311682
0.0328278
0.0345582
0.0363514
0.0381995
5.68775e-06
0.000183374
0.000388325
0.000669641
0.00101685
0.00143573
0.00192594
0.0024905
0.0031332
0.00385854
0.00467144
0.00557632
0.00655713
0.00755902
0.00855284
0.00952846
0.0104823
0.0114128
0.0123187
0.0131979
0.0140488
0.0148694
0.0156584
0.0164154
0.0171413
0.0178392
0.0185151
0.0191783
0.0198412
0.0205203
0.0212338
0.0220015
0.0228424
0.0237732
0.0248072
0.0259531
0.0272144
0.0285893
0.0300725
0.0316557
0.0333294
0.0350849
0.0369191
5.46475e-06
0.000180286
0.000372037
0.000640509
0.000970663
0.00136783
0.00183314
0.0023684
0.00297708
0.00366347
0.00443218
0.00528773
0.00623387
0.00724368
0.00826873
0.00928542
0.0102848
0.0112638
0.0122204
0.0131525
0.0140581
0.0149349
0.0157805
0.016593
0.0173707
0.0181132
0.0188225
0.0195023
0.0201603
0.0208078
0.0214601
0.0221362
0.0228577
0.0236467
0.0245242
0.0255077
0.0266099
0.0278372
0.02919
0.0306637
0.0322508
0.0339422
0.0357332
5.30635e-06
0.000177276
0.000358609
0.000616469
0.000932558
0.00131189
0.00175679
0.00226808
0.00284885
0.00350343
0.00423562
0.00505036
0.00595315
0.00694198
0.00797999
0.00902751
0.0100659
0.0110876
0.0120896
0.0130695
0.0140254
0.0149546
0.0158546
0.0167223
0.0175552
0.0183513
0.019109
0.0198291
0.020514
0.0211701
0.021807
0.0224393
0.0230862
0.0237701
0.0245158
0.0253475
0.0262868
0.0273501
0.0285473
0.0298815
0.0313503
0.0329509
0.0346935
5.16149e-06
0.000174515
0.000347122
0.000595986
0.000900138
0.00126434
0.00169195
0.00218311
0.00274065
0.00336847
0.00407034
0.00485102
0.00571536
0.00666759
0.0076975
0.00876235
0.00983168
0.0108908
0.0119335
0.0129568
0.0139583
0.0149356
0.0158862
0.0168063
0.0176934
0.0185443
0.019356
0.0201267
0.0208558
0.0215452
0.0221997
0.0228281
0.0234445
0.0240673
0.0247202
0.0254297
0.0262229
0.0271249
0.0281559
0.0293295
0.0306522
0.0321266
0.0337558
5.04259e-06
0.00017197
0.000337323
0.000578375
0.000872335
0.00122349
0.00163605
0.00210992
0.0026475
0.00325238
0.0039283
0.00467972
0.0055112
0.00642803
0.0074315
0.00849797
0.00958845
0.0106787
0.0117574
0.0128199
0.0138631
0.0148845
0.0158815
0.0168508
0.0177891
0.018693
0.0195589
0.0203835
0.0211643
0.0219002
0.0225922
0.0232444
0.0238646
0.0244664
0.0250685
0.025695
0.0263742
0.0271354
0.0280074
0.029014
0.0301724
0.0314927
0.0329739
4.93662e-06
0.000169648
0.00032893
0.000563017
0.000848101
0.00118815
0.00158714
0.00204581
0.00256606
0.00315101
0.00380438
0.00453025
0.00533327
0.00621849
0.0071898
0.00824231
0.00934199
0.0104557
0.0115657
0.0126634
0.0137447
0.0148064
0.0158461
0.0168609
0.0178473
0.0188013
0.0197195
0.0205976
0.0214323
0.0222205
0.0229605
0.0236526
0.0243004
0.0249117
0.0254993
0.0260823
0.0266855
0.0273388
0.0280744
0.0289239
0.0299146
0.0310672
0.0323943
4.84757e-06
0.00016766
0.000321932
0.000549382
0.000826577
0.00115679
0.00154377
0.00198896
0.0024939
0.00306144
0.003695
0.00439843
0.00517641
0.00603349
0.00697449
0.00800197
0.00909815
0.0102267
0.0113622
0.0124911
0.013607
0.014706
0.0157851
0.0168417
0.0178725
0.0188738
0.0198413
0.0207711
0.021659
0.0225008
0.0232933
0.0240343
0.0247238
0.0253651
0.0259656
0.0265384
0.0271028
0.0276851
0.0283168
0.0290327
0.0298671
0.0308506
0.0320038
4.77935e-06
0.000166099
0.000316364
0.000537242
0.000807242
0.00112864
0.0015049
0.00193809
0.00242931
0.00298121
0.00359705
0.00428071
0.00503641
0.0058686
0.00678223
0.00778163
0.0088625
0.0099961
0.0111507
0.0123063
0.0134534
0.0145866
0.0157021
0.0167975
0.0178696
0.0189147
0.0199287
0.0209075
0.0218466
0.0227413
0.0235873
0.0243809
0.0251198
0.0258036
0.0264355
0.027023
0.0275796
0.0281258
0.028689
0.0293029
0.0300049
0.0308332
0.0318249
4.73039e-06
0.000164967
0.000312141
0.000526411
0.00078983
0.0011032
0.00146974
0.0018921
0.00237101
0.00290883
0.00350882
0.00417457
0.00491018
0.00571995
0.00660876
0.00758154
0.00863979
0.00976857
0.0109348
0.0121122
0.0132868
0.014451
0.0156004
0.0167319
0.0178424
0.0189284
0.0199858
0.0210108
0.0219986
0.0229443
0.0238429
0.02469
0.0254815
0.0262147
0.0268894
0.0275088
0.0280808
0.02862
0.0291478
0.0296938
0.0302942
0.0309907
0.0318295
4.69429e-06
0.000164138
0.000308946
0.000516681
0.000774031
0.0010801
0.00143785
0.00185034
0.00231802
0.00284307
0.00342866
0.00407839
0.00479589
0.00558535
0.00645174
0.00739979
0.0084335
0.00954865
0.0107182
0.0119116
0.0131099
0.0143024
0.0154831
0.0166481
0.0177943
0.0189181
0.0200163
0.0210846
0.0221184
0.0231128
0.0240623
0.0249619
0.0258067
0.0265924
0.0273164
0.0279786
0.0285825
0.0291366
0.0296568
0.0301666
0.030698
0.0312916
0.0319954
4.67318e-06
0.000163565
0.000306492
0.000507904
0.00075973
0.00105921
0.00140892
0.00181228
0.00226966
0.00278317
0.00335563
0.00399067
0.00469175
0.00546289
0.00630875
0.00723409
0.00824417
0.0093396
0.0105045
0.0117079
0.0129254
0.0141431
0.0153525
0.0165487
0.0177281
0.0188877
0.0200239
0.0211327
0.0222097
0.0232499
0.0242482
0.0251987
0.0260959
0.026935
0.0277115
0.0284227
0.0290689
0.0296539
0.0301879
0.0306882
0.0311812
0.0317032
0.0323005
4.656e-06
0.000163146
0.000304506
0.000499904
0.00074668
0.00104015
0.00138268
0.00177744
0.00222539
0.00272824
0.00328873
0.00391026
0.00459615
0.00535047
0.00617775
0.00708289
0.00807057
0.00914409
0.0102973
0.0115041
0.0127361
0.0139754
0.0152108
0.0164359
0.0176466
0.0188395
0.0200114
0.0211583
0.0222759
0.0233594
0.0244037
0.0254031
0.0263514
0.0272432
0.028073
0.0288364
0.0295311
0.0301575
0.0307209
0.0312328
0.0317135
0.0321934
0.032715
4.64307e-06
0.000162771
0.00030282
0.000492538
0.000734651
0.00102259
0.00135851
0.00174541
0.00218466
0.00267777
0.00322726
0.00383632
0.00450844
0.00524735
0.00605764
0.00694399
0.00791069
0.00896245
0.0100993
0.0113029
0.0125447
0.0138018
0.0150603
0.016312
0.0175518
0.0187762
0.0199816
0.0211644
0.0223203
0.0234447
0.0245325
0.025578
0.0265756
0.0275186
0.0284012
0.029218
0.0299646
0.0306388
0.0312423
0.0317815
0.0322708
0.0327341
0.0332065
4.63871e-06
0.000162519
0.000301368
0.000485809
0.000723575
0.00100645
0.00133623
0.00171589
0.00214718
0.00263127
0.00317064
0.00376829
0.00442762
0.00515256
0.00594715
0.00681597
0.00776338
0.00879444
0.00991218
0.0111072
0.0123533
0.0136244
0.0149029
0.016179
0.0174463
0.0187
0.019937
0.0211535
0.0223454
0.0235084
0.0246374
0.0257271
0.0267713
0.0277637
0.028698
0.0295678
0.0303676
0.0310934
0.0317435
0.0323209
0.0328341
0.0333002
0.0337448
4.63324e-06
0.000162268
0.000300041
0.000479593
0.00071335
0.000991513
0.00131567
0.00168861
0.00211249
0.0025883
0.0031183
0.00370544
0.00435309
0.00506491
0.00584492
0.0066976
0.00762742
0.00863929
0.00973751
0.0109192
0.0121642
0.0134452
0.0147411
0.0160393
0.0173316
0.0186131
0.0198798
0.0211279
0.0223538
0.0235532
0.0247214
0.0258529
0.0269415
0.0279812
0.0289653
0.029887
0.0307401
0.0315189
0.0322198
0.0328422
0.0333904
0.0338746
0.0343129
4.63021e-06
0.000162039
0.000298812
0.000473857
0.000703886
0.000977699
0.00129662
0.00166336
0.0020804
0.00254852
0.00306989
0.00364734
0.00428406
0.00498379
0.00575048
0.00658815
0.00750152
0.00849556
0.00957487
0.0107405
0.0119795
0.0132659
0.0145762
0.0158941
0.0172098
0.018517
0.0198116
0.0210898
0.0223482
0.023582
0.0247869
0.025958
0.027089
0.0281738
0.0292057
0.0301778
0.0310832
0.0319152
0.0326686
0.0333405
0.0339311
0.0344456
0.0348961
4.63043e-06
0.000161793
0.000297657
0.000468612
0.000695161
0.00096493
0.00127898
0.00163997
0.00205066
0.00251167
0.00302499
0.00359344
0.00422011
0.0049086
0.0056628
0.00648667
0.00738474
0.00836202
0.00942355
0.0105721
0.0118013
0.0130889
0.0144096
0.0157447
0.0170818
0.0184132
0.0197346
0.0210414
0.0223301
0.0235967
0.0248367
0.0260452
0.0272164
0.0283441
0.0294218
0.0304423
0.0313986
0.0322831
0.0330897
0.0338132
0.0344512
0.0350046
0.0354799
4.63599e-06
0.000161581
0.000296563
0.000463766
0.000687078
0.000953125
0.00126273
0.00161838
0.00202306
0.00247738
0.00298327
0.00354332
0.00416067
0.00483874
0.00558134
0.00639242
0.00727654
0.00823822
0.0092826
0.0104139
0.0116304
0.0129154
0.0142432
0.0155928
0.0169492
0.0183034
0.01965
0.020984
0.0223015
0.0235991
0.0248725
0.0261164
0.0273258
0.0284945
0.0296158
0.0306829
0.0316882
0.0326242
0.0334834
0.0342595
0.0349477
0.035546
0.0360552
4.6453e-06
0.000161388
0.000295533
0.000459345
0.000679587
0.0009422
0.00124769
0.00159845
0.00199741
0.00244545
0.00294441
0.0034967
0.0041053
0.00477372
0.00550552
0.00630477
0.00717572
0.00812304
0.0091516
0.010266
0.0114679
0.0127466
0.0140783
0.0154397
0.0168134
0.0181887
0.0195586
0.0209185
0.0222638
0.023591
0.0248958
0.0261736
0.0274194
0.0286272
0.0297903
0.0309018
0.0319545
0.0329401
0.0338509
0.0346794
0.0354191
0.0360655
0.0366162
4.65667e-06
0.000161232
0.000294606
0.000455353
0.00067263
0.000931975
0.00123361
0.00157978
0.00197341
0.00241566
0.00290809
0.00345312
0.00405366
0.004713
0.00543483
0.00622292
0.00708153
0.00801552
0.00902935
0.0101279
0.0113146
0.0125839
0.013916
0.015286
0.0166748
0.0180695
0.019462
0.0208462
0.0222182
0.0235737
0.0249088
0.026219
0.0274993
0.0287439
0.029947
0.0311012
0.0321989
0.0332325
0.0341935
0.0350738
0.0358652
0.0365613
0.0371566
4.67372e-06
0.000161083
0.000293754
0.000451727
0.000666138
0.00092239
0.00122038
0.0015623
0.00195093
0.00238776
0.0028741
0.00341235
0.00400529
0.00465625
0.00536868
0.00614641
0.00699364
0.00791495
0.00891495
0.00999858
0.0111701
0.0124279
0.0137572
0.0151331
0.0165345
0.017947
0.0193608
0.0207683
0.0221654
0.0235482
0.0249122
0.0262535
0.0275668
0.0288468
0.0300877
0.0312825
0.0324237
0.0335035
0.034513
0.0354438
0.0362868
0.0370332
0.0376735
4.69323e-06
0.000160957
0.000292997
0.000448509
0.000660068
0.000913389
0.00120799
0.00154585
0.00192978
0.00236151
0.00284216
0.00337403
0.00395994
0.00460296
0.00530666
0.0060747
0.00691125
0.00782076
0.00880773
0.00987721
0.0110339
0.012279
0.0136023
0.0149817
0.0163938
0.0178221
0.0192553
0.0206851
0.0221066
0.0235152
0.0249071
0.0262778
0.0276229
0.028937
0.0302142
0.0314479
0.0326307
0.0337548
0.0348114
0.0357915
0.0366858
0.0374848
0.0381811
4.70991e-06
0.000160846
0.000292299
0.00044563
0.000654401
0.000904904
0.00119627
0.00153039
0.00190988
0.00233678
0.0028121
0.00333803
0.00391727
0.00455289
0.00524829
0.00600726
0.00683375
0.00773212
0.00870698
0.009763
0.0109055
0.0121372
0.0134522
0.0148321
0.0162526
0.0176952
0.0191462
0.0205973
0.0220421
0.0234755
0.0248941
0.0262934
0.0276688
0.0290156
0.0303276
0.0315985
0.0328213
0.033988
0.03509
0.0361184
0.0370634
0.0379154
0.0386645
4.73039e-06
0.000160761
0.000291702
0.0004431
0.000649061
0.000896901
0.00118518
0.00151575
0.0018911
0.00231343
0.00278369
0.00330403
0.003877
0.00450564
0.00519332