/*--------------------------------*- C++ -*----------------------------------*\
| =========                 |                                                 |
| \\      /  F ield         | OpenFOAM: The Open Source CFD Toolbox           |
|  \\    /   O peration     | Version:  2.3.0                                 |
|   \\  /    A nd           | Web:      www.OpenFOAM.org                      |
|    \\/     M anipulation  |                                                 |
\*---------------------------------------------------------------------------*/
FoamFile
{
    version     2.0;
    format      ascii;
    class       volScalarField;
    location    "5000";
    object      p;
}
// * * * * * * * * * * * * * * * * * * * * * * * * * * * * * * * * * * * * * //

dimensions      [0 2 -2 0 0 0 0];

internalField   nonuniform List<scalar> 
38075
(
-0.000629744
-0.629773
-1.33179
-2.09551
-2.8965
-3.72734
-4.58967
-5.47787
-6.39733
-7.34549
-8.32036
-9.32231
-10.3533
-11.4148
-12.497
-13.605
-14.7364
-15.8762
-17.0239
-18.1706
-19.3107
-20.4384
-21.5355
-22.6015
-23.6179
-24.5745
-25.4511
-26.2421
-26.9292
-27.4686
-27.8832
-28.0438
-27.9629
-27.5656
-26.6667
-25.1627
-22.9579
-19.8574
-14.8226
-7.3043
-2.27055
-6.50877
1.667
6.3072
5.69403
5.41291
5.14193
4.89379
4.66682
4.45564
4.26398
4.09306
3.93936
3.8109
3.70134
3.61668
3.55081
3.51808
3.50441
3.51995
3.57814
3.66568
3.80329
4.00399
4.29012
4.69028
5.23286
5.95503
6.91902
8.17369
9.79131
11.8458
14.4362
17.6776
21.6793
26.5723
32.5247
39.7015
48.3152
58.5493
70.657
84.9528
101.674
120.633
141.694
164.863
11.072
10.9307
10.9324
10.9138
10.9121
10.9276
10.9624
11.0192
11.1007
11.2071
11.3491
11.5179
11.7358
11.9885
12.2995
12.6592
13.0791
13.5781
14.1546
14.8225
15.5889
16.474
17.4896
18.6458
19.9781
21.4982
23.2412
25.2476
27.5557
30.2128
33.2737
36.8216
40.9289
45.6861
51.1881
57.5367
64.8562
73.2375
82.7742
93.4858
105.385
118.607
133.049
15.6808
15.6885
15.8857
16.0812
16.3015
16.557
16.8429
17.168
17.5314
17.9362
18.3863
18.8841
19.4367
20.0444
20.7176
21.4661
22.289
23.2048
24.2192
25.3495
26.6075
28.0141
29.5922
31.3662
33.358
35.6157
38.1563
41.0304
44.2702
47.9425
52.0863
56.7577
62.0088
67.8974
74.483
81.8164
89.9155
98.8004
108.441
118.753
129.594
140.781
152.028
19.7028
19.8602
20.1941
20.5249
20.8881
21.2867
21.7196
22.1953
22.7067
23.2728
23.8796
24.5471
25.2723
26.0622
26.9161
27.8513
28.8669
29.9754
31.1916
32.5171
33.9676
35.5669
37.3188
39.2515
41.3806
43.7383
46.3565
49.2648
52.4919
56.0813
60.0828
64.5341
69.4805
74.963
81.0212
87.6938
94.9911
102.92
111.437
120.496
129.962
139.663
149.398
23.2846
23.5645
23.9894
24.4146
24.8772
25.3738
25.9195
26.5103
27.131
27.8251
28.5516
29.339
30.2022
31.1298
32.122
33.196
34.3546
35.6126
36.9834
38.4731
40.0972
41.8667
43.7906
45.9057
48.2245
50.7556
53.5493
56.6262
60.0092
63.7389
67.8523
72.3795
77.3535
82.7947
88.7225
95.1681
102.117
109.573
117.487
125.805
134.412
143.14
151.853
26.3711
26.8078
27.303
27.8015
28.3483
28.9111
29.5344
30.2058
30.8877
31.6638
32.4716
33.321
34.2831
35.3018
36.3635
37.5431
38.7914
40.1479
41.6039
43.171
44.8748
46.7378
48.7246
50.898
53.2688
55.8595
58.6792
61.763
65.1312
68.8244
72.8607
77.2917
82.1245
87.3975
93.0935
99.2736
105.882
112.954
120.409
128.198
136.235
144.311
152.348
29.0111
29.6914
30.2509
30.7693
31.3513
31.9125
32.5784
33.3332
34.0443
34.909
35.7541
36.5793
37.6468
38.7874
39.8593
41.0931
42.3761
43.817
45.368
47.0045
48.7563
50.7114
52.7335
54.9453
57.35
59.9591
62.7952
65.9271
69.3376
72.9835
76.9146
81.3435
86.1916
91.2711
96.6666
102.6
108.837
115.551
122.609
129.972
137.633
145.266
152.825
32.3337
32.5694
33.4421
33.3988
33.741
34.0831
34.6809
35.8479
36.125
37.1085
38.4121
38.5782
39.5823
41.346
42.234
43.3101
44.2981
45.5426
47.1132
48.8293
50.6314
52.6435
54.6395
56.8444
59.2158
61.7358
64.4403
67.5473
71.2026
75.0081
78.914
83.5444
89.048
94.3649
99.5029
105.36
111.049
117.073
123.228
129.777
137.074
144.611
152.075
78.9859
130.018
161.057
183.227
200.094
213.076
223.192
231.066
237.192
241.956
245.676
248.631
250.946
252.726
254.069
255.037
255.702
256.102
256.284
256.283
256.119
255.829
255.421
254.918
254.337
253.687
252.978
252.219
251.417
250.58
249.708
248.808
247.881
246.929
245.954
244.959
243.941
242.903
241.847
240.772
239.683
238.582
237.349
186.1
201.019
213.034
222.946
231.073
237.6
242.726
246.71
249.774
252.104
253.847
255.111
255.981
256.527
256.811
256.88
256.777
256.534
256.175
255.722
255.191
254.596
253.945
253.247
252.509
251.734
250.929
250.094
249.234
248.352
247.448
246.526
245.587
244.633
243.667
242.688
241.698
240.696
239.688
238.676
237.664
236.58
235.298
147.71
161.552
174.198
185.456
195.322
203.869
211.188
217.414
222.669
227.09
230.79
233.867
236.414
238.505
240.21
241.582
242.672
243.516
244.149
244.599
244.892
245.046
245.078
245.005
244.84
244.593
244.273
243.889
243.449
242.958
242.422
241.845
241.232
240.586
239.909
239.204
238.471
237.713
236.935
236.141
235.331
234.394
233.089
162.968
173.321
182.898
191.591
199.352
206.19
212.139
217.272
221.662
225.395
228.545
231.187
233.389
235.212
236.703
237.912
238.876
239.628
240.199
240.61
240.887
241.044
241.097
241.061
240.947
240.762
240.515
240.214
239.866
239.476
239.046
238.583
238.09
237.567
237.017
236.441
235.839
235.216
234.572
233.911
233.229
232.461
231.442
158.961
168.159
176.833
184.866
192.17
198.725
204.538
209.652
214.108
217.97
221.296
224.145
226.576
228.638
230.374
231.827
233.033
234.023
234.824
235.462
235.952
236.316
236.567
236.721
236.786
236.773
236.693
236.553
236.36
236.12
235.836
235.515
235.161
234.774
234.356
233.907
233.432
232.936
232.417
231.882
231.321
230.747
230.365
160.388
168.61
176.406
183.671
190.339
196.377
201.78
206.58
210.797
214.488
217.693
220.465
222.854
224.9
226.642
228.116
229.354
230.389
231.242
231.936
232.486
232.915
233.234
233.459
233.596
233.661
233.661
233.605
233.498
233.345
233.147
232.922
232.664
232.373
232.048
231.689
231.301
230.901
230.474
230.032
229.548
229.103
229.065
160.209
167.821
175.057
181.829
188.105
193.814
198.946
203.553
207.627
211.205
214.328
217.063
219.452
221.509
223.273
224.784
226.066
227.156
228.065
228.814
229.425
229.916
230.304
230.602
230.809
230.945
231.02
231.041
231.009
230.92
230.786
230.655
230.493
230.277
230.014
229.71
229.382
229.074
228.73
228.375
227.961
227.637
228.136
160.176
167.323
174.144
180.521
186.506
191.971
196.871
201.371
205.337
208.751
211.741
214.446
216.85
218.885
220.634
222.162
223.467
224.576
225.504
226.285
226.938
227.476
227.913
228.256
228.484
228.661
228.787
228.857
228.851
228.787
228.724
228.734
228.645
228.431
228.174
227.905
227.652
227.484
227.201
226.886
226.5
226.243
226.579
159.301
166.265
172.9
179.078
185.007
190.359
195.048
199.446
203.161
206.597
209.524
212.251
214.573
216.452
218.16
219.721
220.94
222.043
223.026
223.857
224.551
225.077
225.501
225.799
225.982
226.2
226.395
226.497
226.533
226.614
226.779
226.964
226.584
226.516
226.447
226.36
226.311
226.322
225.779
225.645
225.182
225.215
225.585
-81.3319
-81.2322
-81.1679
-81.0882
-80.9923
-80.8819
-80.7581
-80.6219
-80.4736
-80.3137
-80.142
-79.9602
-79.7676
-79.5656
-79.3543
-79.1365
-78.9115
-78.6802
-78.4435
-78.2038
-77.9622
-77.7194
-77.4781
-77.2386
-77.0044
-76.7753
-76.5534
-76.3407
-76.1388
-75.9485
-75.7717
-75.6088
-75.4617
-75.3303
-75.2132
-75.109
-75.0107
-74.9028
-74.7491
-74.4857
-73.9877
-72.895
-70.4264
-81.8186
-81.6109
-81.449
-81.2743
-81.0858
-80.8872
-80.6824
-80.4742
-80.2625
-80.0492
-79.8368
-79.6258
-79.4176
-79.2137
-79.0132
-78.818
-78.6275
-78.4442
-78.2669
-78.0947
-77.9278
-77.7672
-77.6112
-77.4592
-77.3104
-77.165
-77.0243
-76.886
-76.7496
-76.6154
-76.4816
-76.3473
-76.2078
-76.059
-75.8923
-75.6933
-75.4359
-75.0845
-74.5637
-73.6701
-71.9659
-68.9763
-64.9187
-82.3603
-82.1601
-82.0487
-81.9336
-81.8099
-81.6808
-81.5464
-81.4081
-81.2674
-81.1248
-80.979
-80.8313
-80.6812
-80.5285
-80.3745
-80.2192
-80.0623
-79.9042
-79.7453
-79.5857
-79.4251
-79.2642
-79.1021
-78.939
-78.7752
-78.6099
-78.4416
-78.2708
-78.0958
-77.914
-77.7228
-77.5178
-77.2927
-77.0357
-76.7291
-76.3466
-75.8459
-75.1462
-74.0992
-72.4227
-69.6533
-65.4061
-59.7996
-82.7711
-82.5993
-82.5135
-82.4247
-82.3259
-82.2197
-82.1066
-81.9867
-81.8634
-81.7392
-81.6127
-81.4821
-81.3471
-81.2099
-81.0697
-80.9281
-80.7857
-80.6414
-80.4972
-80.3531
-80.2074
-80.0592
-79.9081
-79.7539
-79.5951
-79.4296
-79.2559
-79.0718
-78.8744
-78.6594
-78.4207
-78.1501
-77.8348
-77.4583
-76.9944
-76.4019
-75.6131
-74.5176
-72.9266
-70.5385
-67.0098
-62.1842
-56.3708
-83.0382
-82.9138
-82.8818
-82.8261
-82.7565
-82.675
-82.5832
-82.4832
-82.38
-82.2752
-82.1678
-82.0609
-81.9457
-81.8255
-81.7016
-81.5733
-81.4395
-81.3022
-81.1633
-81.0221
-80.8784
-80.7323
-80.5815
-80.4247
-80.258
-80.0812
-79.8907
-79.6814
-79.449
-79.1892
-78.8906
-78.5409
-78.1232
-77.6143
-76.979
-76.164
-75.0862
-73.6121
-71.5432
-68.6112
-64.5722
-59.3841
-53.5764
-83.4463
-83.2427
-83.2056
-83.1605
-83.1062
-83.0438
-82.9712
-82.8789
-82.778
-82.688
-82.5928
-82.5061
-82.4044
-82.2964
-82.1823
-82.0613
-81.9336
-81.7962
-81.6558
-81.5135
-81.3653
-81.2145
-81.0576
-80.8939
-80.7165
-80.5256
-80.3173
-80.0826
-79.8145
-79.5101
-79.1529
-78.7289
-78.218
-77.5949
-76.812
-75.8092
-74.4903
-72.7198
-70.2923
-66.9474
-62.5286
-57.09
-51.2418
-83.7023
-83.48
-83.4553
-83.4224
-83.3831
-83.3397
-83.2905
-83.2073
-83.0997
-83.0189
-82.9144
-82.8574
-82.7655
-82.6632
-82.5618
-82.4568
-82.3381
-82.195
-82.0459
-81.8992
-81.7393
-81.5821
-81.4111
-81.24
-81.0496
-80.8388
-80.611
-80.3539
-80.0408
-79.6967
-79.2863
-78.7971
-78.1975
-77.4712
-76.5574
-75.3979
-73.8822
-71.8896
-69.1903
-65.414
-60.5237
-54.7262
-48.7752
-83.8479
-83.6162
-83.6727
-83.6552
-83.6305
-83.6025
-83.5735
-83.5031
-83.3308
-83.258
-83.0838
-83.0936
-83.0282
-82.9051
-82.7802
-82.6812
-82.5968
-82.4381
-82.2414
-82.0903
-81.9044
-81.7405
-81.5418
-81.3751
-81.1662
-80.9182
-80.6742
-80.4211
-80.0457
-79.688
-79.2523
-78.7275
-78.0418
-77.2327
-76.1854
-74.9262
-73.3023
-71.2866
-68.7878
-64.8663
-59.7477
-53.6559
-47.4045
-83.0485
-83.1001
-83.5122
-83.6581
-83.8664
-84.0482
-84.3122
-84.1311
-83.8513
-83.7244
-83.3817
-83.6101
-83.8433
-83.8561
-83.5948
-83.4645
-83.5214
-83.5017
-83.1927
-83.0344
-82.7767
-82.6083
-82.3315
-82.1704
-81.978
-81.629
-81.3133
-81.1483
-80.5243
-80.0161
-79.5385
-78.8927
-78.0759
-77.2815
-76.111
-74.7342
-72.8623
-70.6854
-67.6418
-61.1292
-53.5263
-46.7821
-41.1158
-62.0021
-55.2173
-48.7982
-43.1927
-38.0919
-33.4759
-29.264
-25.3922
-21.8063
-18.4542
-15.2981
-12.2974
-9.42965
-6.67296
-4.01088
-1.42971
1.08229
3.53222
5.92841
8.27709
10.5812
12.8473
15.0773
17.274
19.4397
21.5779
23.6894
25.7772
27.8402
29.8823
31.9029
33.9048
35.8861
37.8495
39.7956
41.7243
43.6355
45.5314
47.4131
49.2774
51.1162
52.9649
54.9676
-58.9206
-54.7326
-49.9522
-45.1701
-40.379
-35.7584
-31.3414
-27.1513
-23.1871
-19.4347
-15.883
-12.515
-9.31464
-6.26628
-3.35307
-0.563356
2.11513
4.69175
7.17774
9.57902
11.9067
14.1644
16.3602
18.4985
20.5844
22.6227
24.6169
26.57
28.4879
30.3736
32.2273
34.0535
35.8548
37.6322
39.3887
41.127
42.8465
44.5499
46.2412
47.9169
49.5662
51.2186
53.0106
-53.7641
-49.5119
-45.1207
-40.8986
-36.6955
-32.6167
-28.6657
-24.8661
-21.2221
-17.7377
-14.4089
-11.2293
-8.19061
-5.28315
-2.49774
0.176754
2.75016
5.22629
7.61858
9.93192
12.1741
14.349
16.4643
18.5238
20.5337
22.4959
24.4161
26.2963
28.1399
29.9487
31.7254
33.4715
35.1918
36.8832
38.5512
40.1959
41.8198
43.4229
45.0094
46.5776
48.1178
49.6613
51.3342
-50.8381
-46.7103
-42.5947
-38.6106
-34.6563
-30.8245
-27.1144
-23.5407
-20.1058
-16.8097
-13.6496
-10.6184
-7.71155
-4.9192
-2.23654
0.344876
2.83326
5.23357
7.5534
9.80033
11.979
14.0957
16.1554
18.1597
20.1147
22.0222
23.8879
25.714
27.5014
29.254
30.9758
32.6641
34.3237
35.955
37.5621
39.1451
40.7059
42.2472
43.7677
45.2699
46.7459
48.2193
49.7882
-48.3917
-44.5022
-40.7064
-36.9429
-33.1837
-29.5142
-25.9428
-22.4889
-19.1585
-15.9542
-12.8742
-9.91462
-7.07246
-4.3421
-1.71632
0.811433
3.24612
5.59677
7.86649
10.0647
12.1937
14.2584
16.2644
18.2137
20.1138
21.9625
23.7655
25.5277
27.2509
28.9365
30.5865
32.2024
33.7872
35.3419
36.8689
38.3747
39.857
41.3187
42.7584
44.1785
45.5729
46.9607
48.4338
-46.1552
-42.3739
-38.7708
-35.1659
-31.5735
-28.0537
-24.6165
-21.2811
-18.0536
-14.9399
-11.9419
-9.05764
-6.28192
-3.61503
-1.05086
1.41502
3.79356
6.08741
8.30255
10.4468
12.5248
14.5373
16.4889
18.3856
20.2315
22.022
23.765
25.4714
27.1356
28.7554
30.3402
31.8891
33.4012
34.8805
36.3327
37.7653
39.1755
40.5581
41.9144
43.2503
44.5617
45.8577
47.2396
-43.8825
-40.3543
-36.9547
-33.5065
-30.0693
-26.6865
-23.3725
-20.1454
-17.011
-13.9807
-11.0654
-8.2558
-5.54505
-2.94537
-0.448621
1.95521
4.27945
6.52145
8.68761
10.7858
12.8225
14.7894
16.6909
18.5439
20.3512
22.0833
23.7699
25.4361
27.0492
28.6048
30.1327
31.6219
33.0679
34.4794
35.8694
37.2428
38.5923
39.9047
41.184
42.4437
43.6837
44.8973
46.2143
-42.5586
-39.0233
-35.6065
-32.1983
-28.836
-25.5454
-22.3176
-19.1766
-16.1145
-13.1409
-10.2929
-7.54215
-4.87257
-2.32526
0.122491
2.47987
4.76902
6.97027
9.09492
11.1595
13.1752
15.0959
16.9456
18.7685
20.5538
22.1861
23.8205
25.4894
27.0543
28.5369
30.0327
31.469
32.84
34.1679
35.4923
36.8118
38.11
39.3441
40.5377
41.7192
42.8968
44.0203
45.3041
-38.953
-37.1413
-34.1166
-30.9215
-27.7275
-24.5861
-21.4408
-18.3785
-15.3355
-12.3415
-9.62178
-6.93257
-4.20666
-1.77427
0.555192
2.82741
5.11232
7.24496
9.32105
11.3838
13.425
15.2372
17.0283
18.8742
20.6902
22.0602
23.7793
25.6211
26.9903
28.3128
29.8638
31.1731
32.4117
33.6945
35.0467
36.4058
37.7236
38.8648
39.9682
41.1197
42.3471
43.3801
44.6681
-128.727
-128.633
-128.78
-127.677
-124.707
-120.317
-115.045
-109.254
-103.097
-96.8142
-90.5221
-84.389
-78.5322
-72.8622
-67.5178
-62.4855
-57.7572
-53.376
-49.32
-45.5834
-42.159
-39.0144
-36.1381
-33.5056
-31.0852
-28.8571
-26.7909
-24.8705
-23.0774
-21.3968
-19.8194
-18.3336
-16.9278
-15.5925
-14.3194
-13.1021
-11.9354
-10.8159
-9.73907
-8.6992
-7.68097
-6.65799
-5.66897
-100.647
-100.419
-99.7811
-98.8528
-97.8246
-96.9067
-96.1774
-95.6502
-95.2649
-94.8663
-94.1953
-93.1141
-91.6045
-89.6362
-87.2711
-84.537
-81.4618
-78.1297
-74.5923
-70.9061
-67.1287
-63.3517
-59.5996
-55.9324
-52.3799
-48.9694
-45.7124
-42.6143
-39.6821
-36.9019
-34.2773
-31.8022
-29.4675
-27.2642
-25.183
-23.2138
-21.3502
-19.5831
-17.9052
-16.31
-14.7934
-13.3549
-12.1771
-107.398
-107.302
-107.332
-107.392
-107.444
-107.412
-107.197
-106.714
-105.936
-104.908
-103.679
-102.326
-100.856
-99.222
-97.3565
-95.2231
-92.838
-90.1777
-87.2789
-84.1645
-80.8196
-77.3459
-73.7326
-70.067
-66.3656
-62.6976
-59.0813
-55.5534
-52.1429
-48.8569
-45.7081
-42.6976
-39.8353
-37.1105
-34.5231
-32.0642
-29.7316
-27.5175
-25.4162
-23.419
-21.5183
-19.7021
-18.0396
-103.887
-103.839
-103.725
-103.578
-103.411
-103.227
-103.028
-102.802
-102.534
-102.21
-101.811
-101.307
-100.662
-99.8741
-98.9762
-97.9365
-96.7026
-95.2125
-93.4573
-91.4193
-89.0778
-86.4687
-83.5729
-80.4667
-77.1472
-73.7066
-70.1607
-66.5778
-62.9939
-59.4631
-55.9994
-52.6314
-49.3856
-46.2621
-43.2736
-40.4182
-37.6971
-35.1046
-32.6397
-30.2964
-28.0747
-25.9775
-24.191
-104.407
-104.397
-104.386
-104.366
-104.333
-104.285
-104.214
-104.114
-103.973
-103.779
-103.518
-103.178
-102.747
-102.207
-101.54
-100.738
-99.8076
-98.7309
-97.4863
-96.0292
-94.3487
-92.4349
-90.2547
-87.8228
-85.132
-82.1967
-79.0671
-75.7619
-72.3368
-68.8444
-65.3137
-61.7966
-58.3341
-54.9437
-51.653
-48.4746
-45.4197
-42.4891
-39.689
-37.0104
-34.4554
-32.0071
-29.8172
-103.725
-103.71
-103.68
-103.637
-103.584
-103.519
-103.443
-103.353
-103.246
-103.116
-102.957
-102.76
-102.515
-102.213
-101.838
-101.377
-100.808
-100.114
-99.2966
-98.326
-97.1745
-95.8265
-94.2523
-92.4344
-90.3825
-88.0595
-85.4963
-82.6815
-79.661
-76.4664
-73.1337
-69.7103
-66.2458
-62.7751
-59.3404
-55.9694
-52.6852
-49.5018
-46.4306
-43.4699
-40.6254
-37.8684
-35.4157
-103.619
-103.609
-103.594
-103.571
-103.542
-103.505
-103.458
-103.401
-103.329
-103.24
-103.13
-102.991
-102.818
-102.602
-102.336
-102.009
-101.608
-101.12
-100.531
-99.8234
-98.9863
-97.9966
-96.8298
-95.4662
-93.8935
-92.0846
-90.0329
-87.7412
-85.1994
-82.4311
-79.4461
-76.2956
-73.0112
-69.6345
-66.212
-62.786
-59.3915
-56.0556
-52.8021
-49.6425
-46.6008
-43.6597
-41.1311
-103.373
-103.363
-103.345
-103.321
-103.291
-103.256
-103.213
-103.162
-103.103
-103.031
-102.946
-102.843
-102.718
-102.564
-102.377
-102.15
-101.873
-101.534
-101.12
-100.617
-100.013
-99.2949
-98.4366
-97.4167
-96.2193
-94.8275
-93.213
-91.3723
-89.2838
-86.9684
-84.3984
-81.6171
-78.6284
-75.481
-72.2136
-68.8626
-65.4758
-62.0886
-58.7397
-55.4516
-52.2574
-49.1568
-46.5575
-103.225
-103.215
-103.201
-103.181
-103.157
-103.128
-103.093
-103.053
-103.005
-102.948
-102.881
-102.8
-102.701
-102.583
-102.44
-102.266
-102.055
-101.8
-101.491
-101.117
-100.663
-100.119
-99.4669
-98.6925
-97.7757
-96.6951
-95.426
-93.9629
-92.2724
-90.3584
-88.1944
-85.8079
-83.1832
-80.346
-77.327
-74.1582
-70.8859
-67.5479
-64.1878
-60.8429
-57.5469
-54.322
-51.5941
-103.068
-103.058
-103.044
-103.025
-103.002
-102.975
-102.944
-102.908
-102.866
-102.817
-102.76
-102.692
-102.613
-102.518
-102.405
-102.268
-102.105
-101.909
-101.671
-101.385
-101.039
-100.625
-100.125
-99.5276
-98.8155
-97.9699
-96.9711
-95.802
-94.4377
-92.8712
-91.0707
-89.0466
-86.7834
-84.2874
-81.575
-78.6695
-75.5956
-72.3964
-69.1032
-65.7613
-62.3814
-58.9608
-54.6754
-102.933
-102.924
-102.911
-102.893
-102.872
-102.847
-102.819
-102.787
-102.75
-102.707
-102.657
-102.6
-102.532
-102.453
-102.359
-102.248
-102.115
-101.956
-101.766
-101.54
-101.267
-100.939
-100.545
-100.073
-99.5126
-98.8444
-98.0483
-97.11
-96.0069
-94.7274
-93.2439
-91.545
-89.6192
-87.4553
-85.0622
-82.4501
-79.6274
-76.6359
-73.4966
-70.2591
-66.9376
-63.6641
-59.3323
-102.803
-102.794
-102.781
-102.764
-102.744
-102.721
-102.694
-102.664
-102.63
-102.591
-102.547
-102.496
-102.437
-102.369
-102.289
-102.195
-102.084
-101.953
-101.798
-101.613
-101.391
-101.127
-100.812
-100.433
-99.9798
-99.4426
-98.8031
-98.0451
-97.1493
-96.0978
-94.8701
-93.4465
-91.8189
-89.9671
-87.8831
-85.5685
-83.0311
-80.2891
-77.3661
-74.3039
-71.1289
-68.0236
-64.2336
-102.681
-102.672
-102.659
-102.643
-102.624
-102.601
-102.576
-102.548
-102.516
-102.48
-102.44
-102.394
-102.342
-102.281
-102.211
-102.13
-102.034
-101.923
-101.791
-101.636
-101.452
-101.235
-100.975
-100.665
-100.295
-99.8539
-99.3309
-98.7111
-97.9739
-97.1049
-96.088
-94.9004
-93.5265
-91.9454
-90.1443
-88.1187
-85.8692
-83.3925
-80.7058
-77.8398
-74.8157
-71.7467
-68.1995
-102.564
-102.554
-102.542
-102.526
-102.507
-102.485
-102.461
-102.434
-102.404
-102.37
-102.333
-102.29
-102.242
-102.187
-102.124
-102.052
-101.968
-101.871
-101.758
-101.626
-101.47
-101.285
-101.067
-100.809
-100.502
-100.136
-99.7019
-99.185
-98.5762
-97.8561
-97.0059
-96.0082
-94.8447
-93.4991
-91.9504
-90.189
-88.2009
-85.9867
-83.55
-80.9026
-78.0678
-75.0391
-72.6583
-102.448
-102.439
-102.427
-102.412
-102.394
-102.373
-102.35
-102.324
-102.295
-102.263
-102.227
-102.187
-102.143
-102.092
-102.035
-101.97
-101.895
-101.809
-101.709
-101.592
-101.457
-101.299
-101.113
-100.892
-100.631
-100.322
-99.9577
-99.5262
-99.0147
-98.4082
-97.6933
-96.8524
-95.866
-94.7186
-93.3911
-91.8616
-90.1236
-88.1614
-85.9751
-83.5562
-80.9371
-77.9782
-76.1454
-102.339
-102.33
-102.318
-102.303
-102.285
-102.265
-102.242
-102.217
-102.189
-102.158
-102.124
-102.086
-102.044
-101.997
-101.943
-101.883
-101.814
-101.736
-101.647
-101.544
-101.425
-101.286
-101.123
-100.933
-100.71
-100.446
-100.134
-99.7645
-99.3286
-98.8147
-98.2077
-97.4946
-96.6568
-95.6733
-94.5295
-93.2083
-91.6943
-89.9685
-88.0254
-85.8561
-83.507
-80.7779
-79.9987
-102.234
-102.225
-102.213
-102.198
-102.18
-102.16
-102.138
-102.113
-102.085
-102.055
-102.022
-101.986
-101.945
-101.901
-101.851
-101.796
-101.732
-101.661
-101.579
-101.485
-101.378
-101.254
-101.111
-100.944
-100.749
-100.52
-100.251
-99.935
-99.5608
-99.1198
-98.5995
-97.9872
-97.2688
-96.4265
-95.4434
-94.2974
-92.9729
-91.4568
-89.7378
-87.7927
-85.6669
-83.1083
-82.0274
-102.131
-102.122
-102.111
-102.096
-102.079
-102.059
-102.037
-102.012
-101.985
-101.956
-101.924
-101.888
-101.85
-101.807
-101.759
-101.706
-101.647
-101.58
-101.506
-101.42
-101.323
-101.212
-101.083
-100.934
-100.761
-100.559
-100.323
-100.046
-99.7222
-99.3417
-98.8922
-98.3634
-97.7439
-97.0142
-96.161
-95.1669
-94.0177
-92.6884
-91.1678
-89.4316
-87.5173
-85.1867
-84.3676
-102.034
-102.025
-102.013
-101.998
-101.981
-101.961
-101.939
-101.915
-101.889
-101.86
-101.828
-101.794
-101.756
-101.715
-101.67
-101.619
-101.563
-101.501
-101.43
-101.351
-101.261
-101.159
-101.042
-100.908
-100.755
-100.576
-100.367
-100.124
-99.8383
-99.504
-99.113
-98.6535
-98.1124
-97.4798
-96.7405
-95.8725
-94.8675
-93.7003
-92.3618
-90.8223
-89.1141
-87.0332
-86.6702
-101.939
-101.93
-101.919
-101.904
-101.887
-101.868
-101.846
-101.822
-101.796
-101.767
-101.736
-101.703
-101.666
-101.626
-101.582
-101.534
-101.48
-101.421
-101.355
-101.281
-101.198
-101.104
-100.997
-100.874
-100.734
-100.572
-100.385
-100.168
-99.9159
-99.6211
-99.2775
-98.8752
-98.4036
-97.8495
-97.2013
-96.444
-95.5644
-94.5424
-93.3639
-92.0039
-90.4961
-88.6579
-89.2537
-101.849
-101.841
-101.829
-101.814
-101.797
-101.778
-101.756
-101.732
-101.706
-101.678
-101.648
-101.615
-101.579
-101.54
-101.497
-101.451
-101.399
-101.343
-101.28
-101.209
-101.131
-101.043
-100.944
-100.833
-100.705
-100.558
-100.39
-100.195
-99.9702
-99.7081
-99.4012
-99.0434
-98.6272
-98.1411
-97.5719
-96.9055
-96.1285
-95.2231
-94.1782
-92.9554
-91.5589
-89.7581
-89.5512
-101.762
-101.754
-101.743
-101.728
-101.711
-101.692
-101.67
-101.647
-101.621
-101.593
-101.563
-101.531
-101.495
-101.457
-101.416
-101.37
-101.321
-101.267
-101.207
-101.141
-101.067
-100.984
-100.891
-100.787
-100.669
-100.535
-100.381
-100.205
-100.002
-99.7663
-99.494
-99.1778
-98.8078
-98.3763
-97.8733
-97.286
-96.601
-95.8016
-94.8692
-93.7792
-92.5272
-90.9373
-90.7172
-101.681
-101.672
-101.661
-101.646
-101.629
-101.61
-101.589
-101.565
-101.54
-101.512
-101.482
-101.45
-101.416
-101.378
-101.338
-101.294
-101.246
-101.193
-101.136
-101.072
-101.002
-100.924
-100.837
-100.74
-100.631
-100.507
-100.367
-100.206
-100.021
-99.8084
-99.5634
-99.2787
-98.9478
-98.5641
-98.1154
-97.5928
-96.9847
-96.2768
-95.4585
-94.5024
-93.4091
-92.0705
-92.0369
-101.603
-101.594
-101.583
-101.568
-101.551
-101.532
-101.511
-101.487
-101.462
-101.435
-101.405
-101.374
-101.34
-101.303
-101.263
-101.22
-101.174
-101.123
-101.068
-101.007
-100.94
-100.866
-100.784
-100.693
-100.59
-100.475
-100.344
-100.196
-100.029
-99.8351
-99.6119
-99.3559
-99.0601
-98.7174
-98.3184
-97.8541
-97.3131
-96.6813
-95.9454
-95.0822
-94.0846
-92.8374
-92.3014
-101.53
-101.521
-101.509
-101.494
-101.477
-101.458
-101.437
-101.413
-101.388
-101.361
-101.332
-101.301
-101.267
-101.231
-101.192
-101.15
-101.105
-101.056
-101.003
-100.944
-100.88
-100.81
-100.731
-100.645
-100.549
-100.442
-100.321
-100.185
-100.03
-99.8538
-99.6524
-99.42
-99.151
-98.8399
-98.481
-98.0642
-97.579
-97.0144
-96.3589
-95.5888
-94.6935
-93.6125
-93.4453
-101.458
-101.449
-101.437
-101.423
-101.406
-101.386
-101.365
-101.342
-101.318
-101.291
-101.262
-101.231
-101.198
-101.163
-101.125
-101.084
-101.04
-100.992
-100.94
-100.884
-100.822
-100.755
-100.681
-100.599
-100.508
-100.408
-100.295
-100.169
-100.025
-99.8625
-99.6777
-99.466
-99.2232
-98.943
-98.6183
-98.2421
-97.8062
-97.2994
-96.7111
-96.0206
-95.2205
-94.272
-94.109
-101.388
-101.38
-101.368
-101.354
-101.337
-101.318
-101.297
-101.274
-101.25
-101.223
-101.195
-101.165
-101.132
-101.097
-101.06
-101.02
-100.977
-100.931
-100.881
-100.826
-100.767
-100.702
-100.632
-100.554
-100.469
-100.374
-100.268
-100.149
-100.017
-99.8671
-99.6966
-99.502
-99.2803
-99.026
-98.7319
-98.392
-97.9989
-97.5391
-97.0036
-96.3714
-95.624
-94.6772
-93.783
-101.323
-101.315
-101.303
-101.289
-101.272
-101.253
-101.232
-101.21
-101.185
-101.159
-101.131
-101.101
-101.069
-101.035
-100.998
-100.959
-100.917
-100.872
-100.824
-100.771
-100.714
-100.652
-100.584
-100.51
-100.429
-100.339
-100.24
-100.13
-100.007
-99.8671
-99.7096
-99.5311
-99.3269
-99.093
-98.8262
-98.5167
-98.158
-97.7422
-97.2592
-96.6945
-96.0409
-95.2301
-94.4398
-101.261
-101.252
-101.24
-101.226
-101.209
-101.19
-101.17
-101.147
-101.123
-101.097
-101.07
-101.04
-101.009
-100.975
-100.939
-100.901
-100.86
-100.816
-100.769
-100.718
-100.663
-100.604
-100.539
-100.468
-100.391
-100.307
-100.213
-100.108
-99.9918
-99.8627
-99.7173
-99.552
-99.3652
-99.1509
-98.9046
-98.6223
-98.2971
-97.9193
-97.4803
-96.9711
-96.4058
-95.7624
-94.385
-101.201
-101.192
-101.18
-101.166
-101.149
-101.13
-101.11
-101.087
-101.064
-101.038
-101.011
-100.981
-100.95
-100.917
-100.882
-100.845
-100.805
-100.762
-100.717
-100.668
-100.615
-100.557
-100.495
-100.428
-100.353
-100.272
-100.184
-100.087
-99.9783
-99.8566
-99.7203
-99.567
-99.393
-99.1949
-98.9696
-98.7113
-98.4136
-98.07
-97.6745
-97.2141
-96.6843
-96.111
-96.0292
-101.141
-101.132
-101.12
-101.106
-101.09
-101.071
-101.051
-101.029
-101.005
-100.98
-100.953
-100.924
-100.894
-100.862
-100.827
-100.791
-100.752
-100.71
-100.665
-100.618
-100.566
-100.511
-100.451
-100.386
-100.316
-100.239
-100.155
-100.061
-99.9591
-99.8453
-99.7186
-99.576
-99.4146
-99.2323
-99.024
-98.7846
-98.5099
-98.1914
-97.8209
-97.3863
-96.8648
-96.2323
-95.9721
-101.084
-101.075
-101.064
-101.049
-101.033
-101.014
-100.994
-100.972
-100.949
-100.924
-100.897
-100.869
-100.839
-100.807
-100.773
-100.738
-100.7
-100.659
-100.616
-100.57
-100.52
-100.467
-100.409
-100.346
-100.279
-100.206
-100.126
-100.039
-99.9416
-99.834
-99.7143
-99.5804
-99.4304
-99.2602
-99.0657
-98.8438
-98.588
-98.2926
-97.9493
-97.5477
-97.0793
-96.5172
-95.2518
-101.028
-101.019
-101.007
-100.993
-100.976
-100.958
-100.938
-100.916
-100.893
-100.869
-100.842
-100.814
-100.785
-100.754
-100.72
-100.685
-100.648
-100.609
-100.567
-100.522
-100.474
-100.422
-100.367
-100.307
-100.243
-100.172
-100.095
-100.011
-99.92
-99.8191
-99.7062
-99.5803
-99.4393
-99.2796
-99.099
-98.8929
-98.657
-98.3848
-98.0674
-97.7028
-97.2854
-96.8015
-95.7922
-100.971
-100.962
-100.951
-100.937
-100.921
-100.902
-100.883
-100.861
-100.838
-100.814
-100.788
-100.761
-100.731
-100.701
-100.668
-100.634
-100.598
-100.559
-100.518
-100.475
-100.428
-100.378
-100.325
-100.267
-100.205
-100.138
-100.065
-99.985
-99.8971
-99.8008
-99.6949
-99.5767
-99.4433
-99.2939
-99.1247
-98.9318
-98.7104
-98.4541
-98.1587
-97.8164
-97.4143
-96.9303
-95.9301
-100.917
-100.907
-100.896
-100.882
-100.866
-100.848
-100.828
-100.807
-100.784
-100.76
-100.734
-100.707
-100.678
-100.648
-100.616
-100.583
-100.547
-100.51
-100.47
-100.428
-100.383
-100.334
-100.283
-100.227
-100.167
-100.102
-100.032
-99.9565
-99.8738
-99.7827
-99.6814
-99.569
-99.4442
-99.3042
-99.1456
-98.9643
-98.7581
-98.5216
-98.2456
-97.9272
-97.5594
-97.1173
-96.5043
-100.86
-100.852
-100.84
-100.826
-100.81
-100.792
-100.773
-100.752
-100.729
-100.705
-100.68
-100.653
-100.625
-100.596
-100.565
-100.532
-100.497
-100.46
-100.422
-100.38
-100.337
-100.29
-100.24
-100.186
-100.129
-100.067
-99.9998
-99.9268
-99.8469
-99.7596
-99.6641
-99.5582
-99.4402
-99.3071
-99.1574
-98.9887
-98.7952
-98.5723
-98.3167
-98.021
-97.6878
-97.3066
-96.4172
-100.805
-100.796
-100.784
-100.771
-100.755
-100.737
-100.717
-100.697
-100.674
-100.651
-100.626
-100.6
-100.572
-100.543
-100.512
-100.48
-100.446
-100.41
-100.373
-100.333
-100.29
-100.245
-100.197
-100.145
-100.09
-100.03
-99.9652
-99.8955
-99.8198
-99.7372
-99.646
-99.5453
-99.4329
-99.308
-99.1675
-99.008
-98.8281
-98.6216
-98.3839
-98.11
-97.7942
-97.4488
-97.231
-100.748
-100.739
-100.727
-100.714
-100.698
-100.681
-100.661
-100.641
-100.619
-100.596
-100.571
-100.545
-100.518
-100.489
-100.459
-100.428
-100.395
-100.36
-100.323
-100.284
-100.243
-100.199
-100.152
-100.102
-100.048
-99.9908
-99.9288
-99.8618
-99.7894
-99.7104
-99.6234
-99.5275
-99.4222
-99.3044
-99.172
-99.0225
-98.8521
-98.658
-98.436
-98.1803
-97.8779
-97.5141
-97.083
-100.691
-100.682
-100.671
-100.657
-100.641
-100.624
-100.605
-100.584
-100.563
-100.54
-100.515
-100.49
-100.463
-100.435
-100.405
-100.374
-100.342
-100.308
-100.272
-100.234
-100.194
-100.152
-100.106
-100.058
-100.007
-99.9516
-99.8924
-99.8283
-99.7585
-99.6824
-99.6
-99.5098
-99.4088
-99.2965
-99.1714
-99.0307
-98.8718
-98.6911
-98.483
-98.2434
-97.9703
-97.6663
-97.1282
-100.633
-100.624
-100.613
-100.599
-100.584
-100.566
-100.547
-100.527
-100.505
-100.483
-100.459
-100.433
-100.407
-100.379
-100.35
-100.32
-100.288
-100.255
-100.22
-100.183
-100.144
-100.103
-100.059
-100.012
-99.9623
-99.9089
-99.8516
-99.7903
-99.7241
-99.6523
-99.5732
-99.4862
-99.391
-99.2855
-99.1678
-99.0355
-98.8861
-98.7171
-98.5254
-98.3076
-98.0651
-97.7952
-97.3265
-100.574
-100.565
-100.554
-100.54
-100.524
-100.507
-100.488
-100.468
-100.447
-100.424
-100.4
-100.376
-100.349
-100.322
-100.294
-100.264
-100.233
-100.2
-100.166
-100.13
-100.092
-100.052
-100.01
-99.9647
-99.9169
-99.8657
-99.8107
-99.7514
-99.6872
-99.6177
-99.5427
-99.4607
-99.3702
-99.2698
-99.1577
-99.0328
-98.8925
-98.7323
-98.5499
-98.3422
-98.1029
-97.816
-97.2841
-100.513
-100.504
-100.492
-100.479
-100.463
-100.446
-100.428
-100.408
-100.386
-100.364
-100.341
-100.316
-100.29
-100.263
-100.235
-100.206
-100.176
-100.144
-100.11
-100.075
-100.038
-99.9992
-99.9581
-99.9144
-99.8679
-99.8183
-99.7655
-99.7088
-99.648
-99.5824
-99.5103
-99.4315
-99.3455
-99.2506
-99.145
-99.027
-98.894
-98.7447
-98.5756
-98.384
-98.1678
-97.9114
-97.7569
-100.45
-100.441
-100.43
-100.416
-100.401
-100.384
-100.365
-100.345
-100.324
-100.302
-100.279
-100.255
-100.229
-100.203
-100.175
-100.146
-100.116
-100.085
-100.052
-100.018
-99.982
-99.9442
-99.9042
-99.862
-99.8173
-99.7695
-99.7185
-99.664
-99.6051
-99.5413
-99.4726
-99.3978
-99.3153
-99.2243