/*--------------------------------*- C++ -*----------------------------------*\
| =========                 |                                                 |
| \\      /  F ield         | OpenFOAM: The Open Source CFD Toolbox           |
|  \\    /   O peration     | Version:  2.3.0                                 |
|   \\  /    A nd           | Web:      www.OpenFOAM.org                      |
|    \\/     M anipulation  |                                                 |
\*---------------------------------------------------------------------------*/
FoamFile
{
    version     2.0;
    format      ascii;
    class       volVectorField;
    location    "5000";
    object      U;
}
// * * * * * * * * * * * * * * * * * * * * * * * * * * * * * * * * * * * * * //

dimensions      [0 1 -1 0 0 0 0];

internalField   nonuniform List<vector> 
38075
(
(20.6328 11.8835 6.79246e-22)
(20.5275 12.0806 -7.52164e-22)
(20.4185 12.2836 -5.45537e-21)
(20.3052 12.4893 8.10774e-21)
(20.1878 12.6974 7.43091e-21)
(20.0658 12.9077 1.96228e-20)
(19.9389 13.1201 1.39478e-20)
(19.8065 13.3345 -2.35132e-20)
(19.6684 13.5511 -3.2342e-20)
(19.5241 13.77 3.23654e-20)
(19.3734 13.9912 0)
(19.2159 14.2145 -1.45292e-21)
(19.0512 14.44 -9.45196e-20)
(18.8786 14.6676 2.18531e-19)
(18.6977 14.8968 -1.15307e-19)
(18.5078 15.1274 1.17247e-20)
(18.3081 15.3589 1.43846e-20)
(18.0977 15.5904 1.76846e-21)
(17.8757 15.821 -7.63032e-21)
(17.6408 16.0497 8.34336e-21)
(17.3914 16.2747 0)
(17.1259 16.4943 1.00189e-20)
(16.842 16.7065 2.40309e-19)
(16.5373 16.9086 -2.37508e-19)
(16.2088 17.0983 2.672e-19)
(15.8529 17.2731 -5.97323e-19)
(15.4653 17.4304 3.18882e-19)
(15.041 17.5683 0)
(14.5741 17.6861 9.95643e-21)
(14.0577 17.7831 0)
(13.484 17.8597 -9.83411e-22)
(12.844 17.9194 0)
(12.1261 17.9648 0)
(11.3181 18.0014 1.65338e-20)
(10.4063 18.0356 2.05922e-21)
(9.37488 18.0721 2.24777e-19)
(8.20986 18.1198 -2.49049e-19)
(6.89743 18.1795 0)
(5.4241 18.2393 -1.22961e-19)
(3.78209 18.2805 8.0659e-20)
(2.0157 18.3931 3.1313e-20)
(0.209272 18.7525 0)
(-1.63588 18.9402 0)
(20.4375 11.7982 0)
(20.3337 11.9746 1.00817e-20)
(20.2278 12.1582 -2.67467e-21)
(20.118 12.3416 0)
(20.0048 12.5267 0)
(19.8877 12.7133 2.16236e-20)
(19.7662 12.9016 -5.73061e-21)
(19.64 13.0916 -1.04734e-21)
(19.5086 13.2833 -1.96283e-20)
(19.3718 13.4769 4.55792e-21)
(19.2289 13.6725 -1.76068e-20)
(19.0798 13.8702 1.44786e-20)
(18.924 14.0701 0)
(18.7611 14.2723 4.7157e-21)
(18.5904 14.4768 0)
(18.4112 14.6839 1.68182e-20)
(18.223 14.8937 -2.11224e-20)
(18.0248 15.1061 9.61754e-22)
(17.8155 15.3215 0)
(17.5943 15.5399 -1.96898e-20)
(17.3599 15.7617 2.32785e-20)
(17.1109 15.9869 3.48968e-21)
(16.8458 16.2155 2.62881e-21)
(16.5631 16.4474 4.19423e-21)
(16.2612 16.6828 4.6692e-21)
(15.9382 16.9209 3.85139e-20)
(15.5921 17.1609 -3.9101e-20)
(15.221 17.4017 0)
(14.8229 17.6416 0)
(14.3955 17.878 4.64355e-21)
(13.9366 18.1075 9.1999e-22)
(13.4437 18.3252 1.70121e-19)
(12.9145 18.5254 -1.84012e-19)
(12.3467 18.7005 2.64035e-19)
(11.7385 18.8402 -2.84842e-19)
(11.0883 18.9327 0)
(10.3956 18.9633 5.41323e-19)
(9.66171 18.9149 -5.58128e-19)
(8.88904 18.7659 -4.14367e-19)
(8.08651 18.4916 9.64671e-19)
(7.27211 18.0725 -1.11482e-18)
(6.45083 17.4952 6.15925e-19)
(5.59671 16.7462 4.38193e-20)
(20.2636 11.7198 1.2901e-20)
(20.1612 11.8727 -2.33441e-20)
(20.0554 12.0344 -2.62007e-20)
(19.9463 12.197 2.6149e-20)
(19.8338 12.3613 8.20879e-21)
(19.7177 12.5269 5.19983e-20)
(19.5975 12.6938 -4.70899e-20)
(19.4728 12.8621 0)
(19.343 13.0317 5.23e-20)
(19.2079 13.2027 -1.00782e-19)
(19.067 13.3752 5.26262e-20)
(18.92 13.5493 4.55746e-21)
(18.7664 13.725 4.61902e-20)
(18.6059 13.9026 -6.02473e-20)
(18.4381 14.0818 9.8397e-21)
(18.2623 14.2629 5.58701e-20)
(18.0782 14.4458 1.00961e-20)
(17.8849 14.6304 -1.39695e-19)
(17.6816 14.8165 -3.04702e-21)
(17.4674 15.0042 7.82748e-20)
(17.2413 15.1932 -3.17513e-21)
(17.002 15.3832 -3.42577e-21)
(16.748 15.5734 -9.49262e-20)
(16.4777 15.7636 1.01451e-19)
(16.1894 15.953 -1.3829e-20)
(15.881 16.1407 5.1199e-21)
(15.5504 16.3253 -5.80624e-21)
(15.1954 16.5056 1.70252e-19)
(14.8136 16.6796 -1.76462e-19)
(14.4027 16.8452 1.115e-20)
(13.9604 16.9996 2.47276e-19)
(13.4843 17.1393 5.96721e-21)
(12.9726 17.2601 -2.53037e-19)
(12.4241 17.357 8.86706e-21)
(11.8385 17.4241 0)
(11.2171 17.4541 0)
(10.5628 17.4389 0)
(9.88106 17.3693 0)
(9.18131 17.2357 0)
(8.47781 17.0286 -2.56747e-20)
(7.79012 16.7401 3.14606e-20)
(7.1422 16.3613 0)
(6.56117 15.8857 -4.01093e-20)
(20.1164 11.6294 -3.78937e-20)
(20.0139 11.7696 -2.99748e-20)
(19.9101 11.914 7.66167e-20)
(19.8039 12.0589 5.0022e-22)
(19.695 12.2052 -3.579e-20)
(19.5828 12.3526 0)
(19.467 12.501 1.14949e-20)
(19.3472 12.6506 1.16734e-20)
(19.2229 12.8013 -1.18772e-20)
(19.0937 12.953 7.62448e-20)
(18.9591 13.1058 -1.71497e-19)
(18.8187 13.2598 7.40498e-20)
(18.672 13.415 9.19324e-21)
(18.5187 13.5714 -9.5173e-20)
(18.3584 13.7291 1.84696e-19)
(18.1906 13.888 -8.71146e-20)
(18.0148 14.0482 2.3273e-21)
(17.8302 14.2096 5.59348e-21)
(17.6362 14.3721 -1.12129e-19)
(17.4322 14.5354 1.16038e-19)
(17.2175 14.6996 -1.27398e-19)
(16.991 14.8642 2.76295e-19)
(16.752 15.0286 -3.08761e-19)
(16.4992 15.1922 1.65587e-19)
(16.2315 15.3544 1.96981e-19)
(15.9475 15.514 -1.7866e-19)
(15.6458 15.6697 2.26863e-19)
(15.325 15.8199 -2.45459e-19)
(14.9835 15.9629 3.20928e-20)
(14.62 16.0958 -1.53658e-20)
(14.2329 16.2162 -1.72851e-20)
(13.8211 16.3204 1.95205e-20)
(13.384 16.4044 -1.10632e-20)
(12.9212 16.4636 -2.19039e-19)
(12.4333 16.4924 2.22725e-19)
(11.9218 16.4846 -3.95279e-20)
(11.3897 16.434 -4.42644e-20)
(10.8416 16.3335 0)
(10.2845 16.177 0)
(9.72813 15.9592 0)
(9.18456 15.677 2.49093e-19)
(8.66735 15.331 -2.45552e-19)
(8.19315 14.9253 0)
(19.9831 11.5459 -2.40091e-20)
(19.8847 11.6706 3.48671e-20)
(19.7844 11.7994 1.34506e-20)
(19.6816 11.9287 0)
(19.5763 12.0592 2.56387e-21)
(19.4681 12.1907 0)
(19.3565 12.3232 -2.57218e-20)
(19.2411 12.4567 -1.16923e-20)
(19.1215 12.5913 -2.7391e-20)
(18.9975 12.7268 -1.37191e-21)
(18.8685 12.8633 -1.4868e-21)
(18.7341 13.0007 8.49209e-20)
(18.5937 13.1388 0)
(18.4467 13.2778 0)
(18.2928 13.4179 1.28544e-19)
(18.1319 13.5589 -1.36653e-19)
(17.9633 13.7006 1.32437e-19)
(17.7864 13.8431 -2.88568e-19)
(17.6005 13.986 -4.25439e-21)
(17.4048 14.1291 4.14186e-21)
(17.1988 14.2724 1.57175e-19)
(16.9815 14.4155 2.2596e-20)
(16.7524 14.5578 -1.32388e-20)
(16.5105 14.6986 -1.17897e-20)
(16.2547 14.8373 0)
(15.984 14.9728 2.6279e-21)
(15.697 15.1038 0)
(15.3928 15.2288 1.49304e-19)
(15.0701 15.3463 -1.71802e-19)
(14.7278 15.4537 0)
(14.3648 15.5484 -2.56077e-20)
(13.9805 15.6275 0)
(13.5744 15.6876 0)
(13.1472 15.7248 -3.03133e-19)
(12.7 15.7346 2.76548e-19)
(12.2349 15.7122 8.12921e-20)
(11.7553 15.6521 -2.90378e-21)
(11.266 15.5498 4.14997e-19)
(10.7733 15.4004 -4.23714e-19)
(10.2853 15.2009 -6.20074e-20)
(9.81189 14.9496 -6.7488e-20)
(9.36408 14.6482 3.67615e-20)
(8.95332 14.3012 0)
(19.8677 11.4641 -1.50684e-20)
(19.7727 11.5767 0)
(19.6764 11.6917 2.15355e-21)
(19.5776 11.8073 2.98633e-20)
(19.4765 11.9243 -1.04091e-19)
(19.3728 12.0422 6.01738e-20)
(19.266 12.161 1.42413e-20)
(19.1554 12.2806 0)
(19.0408 12.4015 -1.4733e-20)
(18.9222 12.5233 1.74926e-20)
(18.7989 12.6461 -8.558e-20)
(18.6709 12.7699 -2.69139e-20)
(18.5374 12.894 1.41261e-19)
(18.3972 13.0188 -7.18657e-20)
(18.25 13.1445 0)
(18.0963 13.2711 1.05048e-20)
(17.9353 13.3982 -1.0949e-20)
(17.7667 13.5257 9.90303e-20)
(17.5895 13.6533 5.07388e-21)
(17.403 13.7808 -1.04467e-19)
(17.2066 13.908 -1.16489e-19)
(16.9993 14.0346 9.25032e-20)
(16.7809 14.1602 2.84069e-20)
(16.5509 14.2841 0)
(16.3082 14.4053 -1.34889e-19)
(16.0522 14.523 -5.32743e-21)
(15.7816 14.6361 1.4922e-19)
(15.4955 14.7429 0)
(15.1933 14.8421 -2.36248e-20)
(14.8744 14.9316 -2.29692e-19)
(14.5378 15.0087 3.98629e-20)
(14.1829 15.0704 2.6072e-19)
(13.8091 15.114 -2.70235e-19)
(13.4169 15.1362 3.14932e-19)
(13.0081 15.1334 3.7905e-20)
(12.5852 15.1012 -4.19064e-20)
(12.1513 15.0357 9.50955e-20)
(11.7105 14.9327 0)
(11.2679 14.7889 -5.82902e-20)
(10.8298 14.6017 -1.89518e-21)
(10.4039 14.3706 3.47574e-19)
(9.99883 14.0978 -2.05184e-19)
(9.62319 13.7873 -2.29937e-19)
(19.7648 11.3855 1.46863e-20)
(19.675 11.4889 0)
(19.5838 11.5916 -1.57193e-20)
(19.4888 11.6953 0)
(19.3918 11.8005 0)
(19.2923 11.9068 3.5074e-20)
(19.1904 12.0139 -3.48539e-20)
(19.0847 12.1215 7.24384e-20)
(18.9744 12.2307 1.72031e-21)
(18.861 12.3409 -8.1254e-20)
(18.7426 12.452 -5.92026e-20)
(18.6197 12.5649 9.65402e-20)
(18.4934 12.6779 7.1018e-20)
(18.3601 12.7905 -8.18173e-20)
(18.2188 12.9044 9.85985e-20)
(18.0713 13.0193 -1.89163e-19)
(17.9167 13.1348 1.0251e-19)
(17.7552 13.2505 -1.10534e-19)
(17.5856 13.366 8.81643e-20)
(17.4074 13.4812 0)
(17.2196 13.5958 1.34492e-20)
(17.021 13.7092 0)
(16.8111 13.8217 -3.18246e-20)
(16.5903 13.9325 0)
(16.3579 14.0404 0)
(16.1128 14.1447 -3.89433e-20)
(15.8542 14.2443 -1.7256e-19)
(15.5816 14.3373 1.53487e-19)
(15.2938 14.4227 2.3627e-20)
(14.9906 14.4991 -2.21229e-19)
(14.6724 14.5642 2.2727e-19)
(14.3394 14.6146 2.30049e-19)
(13.9896 14.6471 -2.6776e-19)
(13.6222 14.6596 1.18965e-19)
(13.2395 14.6495 -1.59841e-19)
(12.8455 14.6126 0)
(12.4419 14.5457 -9.83223e-20)
(12.0341 14.4453 0)
(11.6259 14.3082 5.767e-20)
(11.2228 14.1324 1.26253e-19)
(10.8307 13.9168 1.40182e-19)
(10.4548 13.6647 -6.853e-20)
(10.104 13.3799 7.72856e-20)
(19.674 11.3172 0)
(19.5897 11.4078 -9.59041e-21)
(19.5047 11.4989 -9.77829e-21)
(19.413 11.5921 0)
(19.3201 11.6874 -3.82937e-20)
(19.2243 11.7837 4.79764e-20)
(19.1273 11.8813 3.93723e-20)
(19.0275 11.9783 -3.91438e-20)
(18.9202 12.0775 -1.03823e-20)
(18.8119 12.1781 -9.82227e-21)
(18.6988 12.2783 9.58898e-20)
(18.5782 12.3821 -9.52038e-20)
(18.4581 12.4872 1.05926e-20)
(18.3334 12.5898 0)
(18.1973 12.6933 -1.13125e-20)
(18.0558 12.7984 -1.25944e-20)
(17.9065 12.9043 1.30408e-20)
(17.7506 13.0108 0)
(17.5875 13.1169 -1.42219e-20)
(17.4165 13.2226 -1.49439e-20)
(17.2369 13.3275 1.57374e-20)
(17.0474 13.4305 0)
(16.8448 13.5324 1.66641e-20)
(16.6323 13.6331 0)
(16.4087 13.7306 0)
(16.1735 13.8245 2.02599e-20)
(15.9253 13.9141 0)
(15.6644 13.9973 2.21656e-19)
(15.3889 14.0719 -2.03229e-19)
(15.0983 14.1371 -1.17414e-21)
(14.7933 14.1933 -1.54763e-19)
(14.4776 14.2363 -4.0992e-20)
(14.1483 14.2613 2.87226e-19)
(13.8032 14.2658 -1.5156e-19)
(13.4408 14.2505 -1.74433e-19)
(13.0705 14.2103 -1.09086e-20)
(12.6892 14.1425 1.92634e-19)
(12.3058 14.0447 0)
(11.9225 13.9137 -2.99219e-19)
(11.5451 13.7483 1.82056e-19)
(11.1789 13.545 -6.73419e-20)
(10.8235 13.309 4.144e-21)
(10.4903 13.0432 -1.48605e-19)
(19.588 11.2433 1.93608e-20)
(19.5092 11.3318 -3.02741e-20)
(19.4328 11.4137 3.06357e-20)
(19.3465 11.4969 0)
(19.2612 11.5845 0)
(19.171 11.6718 -5.26157e-20)
(19.0781 11.7625 4.06542e-20)
(18.9862 11.8497 0)
(18.8812 11.9389 1.05343e-20)
(18.7765 12.0341 0)
(18.6715 12.1237 3.46465e-20)
(18.5521 12.2171 -4.64967e-20)
(18.4344 12.3177 -4.74571e-20)
(18.3207 12.4134 4.66917e-20)
(18.1882 12.5071 0)
(18.055 12.6039 -4.00104e-20)
(17.9132 12.7005 9.51899e-20)
(17.7648 12.799 -5.55068e-20)
(17.6078 12.8978 1.43931e-20)
(17.4428 12.9958 7.79601e-20)
(17.2686 13.0939 -7.99445e-20)
(17.0906 13.1885 0)
(16.8949 13.2812 0)
(16.6897 13.3745 0)
(16.4733 13.4641 0)
(16.2488 13.548 0)
(16.0101 13.6294 0)
(15.7605 13.7062 -1.02887e-19)
(15.4935 13.7745 1.3119e-19)
(15.213 13.83 2.84922e-20)
(14.9139 13.8772 -1.61285e-19)
(14.6056 13.9147 1.66159e-19)
(14.2802 13.9398 0)
(13.9551 13.9397 0)
(13.604 13.9209 0)
(13.2555 13.8789 0)
(12.893 13.8084 2.54158e-19)
(12.5355 13.7099 -2.10189e-19)
(12.1797 13.5792 5.79448e-20)
(11.8293 13.4216 0)
(11.4917 13.2239 6.68913e-20)
(11.1458 13.0065 -7.44302e-20)
(10.8206 12.7583 1.46144e-19)
(-3.29464 17.5694 -3.21778e-19)
(-2.56825 15.8869 2.66272e-19)
(-1.82961 14.4544 -7.84433e-20)
(-1.12096 13.322 7.98686e-20)
(-0.452954 12.3909 0)
(0.171613 11.6045 0)
(0.751936 10.932 -4.08582e-20)
(1.29002 10.3502 2.93273e-20)
(1.78939 9.84298 -6.63858e-20)
(2.25322 9.39657 0)
(2.68553 9.00065 0)
(3.0913 8.6478 0)
(3.47342 8.33047 5.71371e-20)
(3.83424 8.04336 -5.50145e-20)
(4.17554 7.78147 0)
(4.499 7.54109 -1.57997e-18)
(4.80606 7.31875 1.63114e-18)
(5.09814 7.11182 1.53455e-18)
(5.37665 6.9182 -1.58828e-18)
(5.64284 6.73589 0)
(5.89791 6.56357 8.84159e-20)
(6.14281 6.39963 8.64341e-20)
(6.37859 6.24311 0)
(6.6061 6.09316 0)
(6.82603 5.94876 8.44708e-20)
(7.03908 5.80926 -1.37817e-18)
(7.24587 5.67411 1.28392e-18)
(7.4469 5.54275 -1.62304e-19)
(7.64265 5.41484 1.60789e-19)
(7.83348 5.28985 -1.59581e-19)
(8.01972 5.16753 -1.55113e-19)
(8.20171 5.04761 -1.54534e-19)
(8.37968 4.92983 0)
(8.55383 4.81399 -1.23279e-18)
(8.72433 4.69994 6.19582e-19)
(8.89137 4.58751 1.55185e-19)
(9.05511 4.4767 6.11888e-19)
(9.21578 4.36743 -6.07631e-19)
(9.37356 4.25966 -2.98792e-19)
(9.52871 4.15334 0)
(9.68146 4.04844 3.08798e-21)
(9.83179 3.94467 0)
(9.97984 3.8424 2.74053e-19)
(4.75973 15.8432 -4.9218e-20)
(4.21729 14.8831 2.45433e-19)
(3.92539 13.9964 -2.16817e-19)
(3.8002 13.1902 -2.96687e-20)
(3.78693 12.4637 0)
(3.84948 11.8125 0)
(3.96635 11.2281 5.86566e-19)
(4.12138 10.7035 -5.69015e-19)
(4.30214 10.2317 1.96252e-21)
(4.49952 9.80548 0)
(4.70695 9.41875 5.58106e-20)
(4.91967 9.06616 -5.41901e-20)
(5.1345 8.74314 -9.30544e-19)
(5.34916 8.44597 9.48357e-19)
(5.56202 8.17125 -1.63567e-18)
(5.77196 7.91621 1.67847e-18)
(5.97832 7.67833 0)
(6.18059 7.45544 -9.05962e-20)
(6.37864 7.24579 0)
(6.57236 7.04779 1.32264e-18)
(6.76173 6.86007 -8.92393e-20)
(6.94681 6.68145 -1.43311e-18)
(7.12777 6.51097 1.23795e-18)
(7.30475 6.34774 -1.22004e-18)
(7.47788 6.19098 1.27646e-18)
(7.64734 6.04007 -3.9586e-21)
(7.81328 5.8944 -1.25012e-18)
(7.9759 5.75351 0)
(8.13535 5.61693 -1.07453e-18)
(8.29176 5.48425 2.59457e-18)
(8.44527 5.35515 -1.0665e-18)
(8.59601 5.22928 1.52401e-19)
(8.7441 5.10642 -1.20952e-18)
(8.88962 4.98628 1.81686e-18)
(9.0326 4.86862 1.47502e-19)
(9.17313 4.75332 -7.56514e-19)
(9.31137 4.64027 -1.49471e-19)
(9.44744 4.52939 3.01044e-19)
(9.5815 4.42057 4.46937e-19)
(9.71371 4.3137 -1.47054e-19)
(9.84416 4.2087 4.37303e-19)
(9.97275 4.10613 1.42094e-19)
(10.1007 4.01512 -1.43001e-19)
(6.08194 15.3194 4.50528e-20)
(5.72824 14.6905 0)
(5.48416 14.0403 4.82588e-20)
(5.33418 13.3969 0)
(5.26101 12.7774 1.04997e-19)
(5.24983 12.191 -1.02795e-19)
(5.28788 11.6419 -5.68827e-20)
(5.36383 11.1316 -3.76597e-19)
(5.46828 10.6595 4.72395e-19)
(5.59351 10.2238 -7.87617e-19)
(5.73367 9.82164 1.53142e-18)
(5.88431 9.4505 -7.44374e-19)
(6.0419 9.10739 8.84884e-19)
(6.20376 8.7896 -7.16725e-19)
(6.36778 8.49441 9.26606e-20)
(6.53247 8.21955 -9.38608e-20)
(6.69675 7.9628 7.12342e-19)
(6.85987 7.72228 -6.04116e-19)
(7.02126 7.49628 0)
(7.18052 7.28324 1.6715e-19)
(7.33735 7.08182 0)
(7.4917 6.89084 7.9192e-20)
(7.64348 6.70928 1.2586e-18)
(7.79267 6.53614 -2.55497e-18)
(7.9393 6.37064 1.02654e-21)
(8.08345 6.21203 2.34205e-18)
(8.2252 6.05968 -1.19818e-18)
(8.36459 5.91297 -1.11383e-18)
(8.50168 5.77137 -1.47143e-19)
(8.6366 5.63445 1.02953e-18)
(8.7694 5.50177 -1.45676e-19)
(8.90011 5.37293 -4.39932e-19)
(9.02878 5.24764 1.17182e-18)
(9.15544 5.12556 -1.17221e-18)
(9.28007 5.00647 2.93857e-19)
(9.4027 4.89022 -4.39787e-19)
(9.52345 4.77665 2.96125e-19)
(9.64249 4.66565 1.47431e-19)
(9.75991 4.557 -4.36259e-19)
(9.87581 4.45047 1.44648e-19)
(9.99023 4.34574 -1.24294e-19)
(10.103 4.24296 -1.75924e-20)
(10.2148 4.15174 -2.69696e-19)
(7.77743 14.4691 0)
(7.42907 13.9758 4.87959e-20)
(7.15107 13.4617 -1.89216e-19)
(6.9408 12.9428 2.32317e-20)
(6.79214 12.431 2.50048e-20)
(6.69757 11.9349 2.10032e-19)
(6.64923 11.46 -2.05269e-19)
(6.6393 11.0097 -5.1969e-20)
(6.66072 10.5854 0)
(6.70732 10.1873 -5.10454e-20)
(6.77406 9.81478 5.50812e-19)
(6.85649 9.46657 -2.93322e-19)
(6.95094 9.14117 -9.64883e-20)
(7.05452 8.83685 -9.43082e-20)
(7.16499 8.55198 -9.20812e-20)
(7.28029 8.28487 -6.27145e-19)
(7.39902 8.034 6.09224e-19)
(7.52002 7.79785 6.81178e-19)
(7.64238 7.57515 -1.32994e-18)
(7.7654 7.36459 6.48832e-19)
(7.88852 7.16511 7.88912e-20)
(8.01143 6.97568 -7.88765e-20)
(8.13379 6.79538 -6.14085e-19)
(8.25532 6.62332 -7.48743e-20)
(8.3759 6.45882 3.71083e-22)
(8.49547 6.30118 7.49821e-20)
(8.61388 6.1498 5.85772e-19)
(8.73104 6.00411 -6.53682e-19)
(8.84691 5.8636 5.06243e-19)
(8.96152 5.72787 5.74352e-19)
(9.07478 5.59648 1.43207e-19)
(9.1867 5.4691 -7.16904e-19)
(9.29723 5.34532 -1.42099e-19)
(9.40622 5.22486 0)
(9.51365 5.10757 1.44018e-19)
(9.61954 4.99333 -4.30334e-19)
(9.72403 4.88198 2.88513e-19)
(9.82732 4.77332 1.44988e-21)
(9.92949 4.66707 8.75193e-22)
(10.0306 4.56302 1.42143e-19)
(10.1309 4.46085 1.41232e-19)
(10.2308 4.36046 -1.38127e-19)
(10.3316 4.26514 -1.34201e-19)
(8.58786 13.9151 8.30192e-20)
(8.27322 13.4978 2.21417e-19)
(8.01177 13.0596 -1.80508e-19)
(7.803 12.6116 -9.43722e-20)
(7.64455 12.1633 0)
(7.53157 11.7226 0)
(7.45873 11.295 -2.0102e-19)
(7.42047 10.8842 2.94739e-19)
(7.41148 10.4926 3.98513e-19)
(7.42678 10.1215 -3.87395e-19)
(7.46216 9.77091 -9.78598e-20)
(7.51383 9.44051 -9.61325e-20)
(7.57847 9.12947 -9.20709e-20)
(7.65342 8.83677 0)
(7.73639 8.56128 -8.819e-20)
(7.82551 8.30185 -8.71788e-19)
(7.91919 8.05727 8.28485e-20)
(8.01632 7.82636 6.63916e-19)
(8.11592 7.60807 0)
(8.21725 7.40132 -8.05642e-20)
(8.31971 7.20521 -7.89629e-20)
(8.42283 7.01883 -6.90745e-19)
(8.52623 6.84131 7.56953e-20)
(8.62962 6.6719 7.43757e-19)
(8.73275 6.50993 5.87063e-19)
(8.83544 6.35476 -6.52402e-19)
(8.93751 6.2058 0)
(9.03887 6.06255 0)
(9.13939 5.92452 7.13074e-20)
(9.239 5.7913 0)
(9.33765 5.66252 0)
(9.43534 5.53781 5.60684e-19)
(9.53189 5.4167 -2.80824e-19)
(9.62703 5.29901 -7.0006e-19)
(9.72071 5.18467 7.01652e-19)
(9.81306 5.07359 1.3982e-19)
(9.90431 4.9656 -1.39651e-19)
(9.99474 4.86033 5.62684e-19)
(10.0842 4.75757 -1.40186e-19)
(10.1729 4.6572 2.09702e-19)
(10.2609 4.55933 6.8696e-20)
(10.3487 4.46424 2.74176e-19)
(10.4363 4.36963 1.35176e-19)
(9.28417 13.4443 -8.23612e-20)
(8.98634 13.0746 -8.67352e-20)
(8.73193 12.6858 9.04697e-20)
(8.52174 12.2862 9.34651e-20)
(8.35454 11.8834 9.46458e-20)
(8.22686 11.484 -9.59004e-20)
(8.13483 11.0933 9.64637e-20)
(8.07463 10.715 -1.43548e-21)
(8.04184 10.3515 -9.59341e-20)
(8.03231 10.0045 -2.909e-19)
(8.04277 9.67483 4.68824e-19)
(8.07007 9.36223 -3.73778e-19)
(8.11102 9.06621 3.64498e-19)
(8.1628 8.78626 -8.87377e-20)
(8.22336 8.52178 8.82553e-20)
(8.29098 8.27186 1.71413e-19)
(8.3641 8.03555 0)
(8.4416 7.81193 0)
(8.52245 7.60012 -7.97649e-20)
(8.60589 7.39927 0)
(8.69124 7.20851 -5.41741e-19)
(8.77797 7.02708 6.07265e-19)
(8.86578 6.8542 -7.4092e-20)
(8.95425 6.68913 5.13793e-19)
(9.04297 6.53121 -6.51548e-19)
(9.13169 6.37993 1.43206e-19)
(9.22032 6.23478 0)
(9.30863 6.0952 6.98574e-20)
(9.39639 5.96075 6.2754e-19)
(9.48352 5.83115 -5.5549e-19)
(9.57006 5.70606 0)
(9.65603 5.58491 0)
(9.74092 5.46724 -4.14275e-19)
(9.82428 5.3531 1.38974e-19)
(9.9062 5.24257 1.37596e-19)
(9.987 5.1355 -1.24775e-21)
(10.0671 5.03163 0)
(10.1468 4.93038 -2.76799e-19)
(10.2255 4.83155 1.38107e-19)
(10.3034 4.73526 -2.75223e-19)
(10.3806 4.6417 -9.98832e-22)
(10.4581 4.55102 -1.36117e-19)
(10.5356 4.45377 -1.32996e-19)
(9.78463 13.0665 8.16069e-20)
(9.50111 12.7295 0)
(9.25586 12.3746 -8.82816e-20)
(9.04936 12.0089 1.02302e-19)
(8.8809 11.6383 -5.95382e-20)
(8.74744 11.2688 -4.79465e-20)
(8.64593 10.9057 -9.93273e-20)
(8.57398 10.5521 1.86264e-19)
(8.52721 10.2102 1.88916e-19)
(8.50241 9.88283 9.4235e-20)
(8.49736 9.5705 1.8725e-19)
(8.50949 9.27276 -3.61845e-19)
(8.53511 8.98929 1.21786e-21)
(8.57117 8.72046 1.18638e-21)
(8.61626 8.46604 -8.55519e-20)
(8.66905 8.22494 -1.1114e-21)
(8.72769 7.99632 0)
(8.79114 7.77971 -3.2424e-19)
(8.85845 7.57439 3.96282e-19)
(8.92878 7.37949 0)
(9.0016 7.19431 -7.67691e-20)
(9.07629 7.01812 1.49918e-19)
(9.15253 6.85011 7.41461e-20)
(9.22979 6.68951 -5.81014e-19)
(9.30744 6.53578 6.44592e-19)
(9.38544 6.38868 -7.11298e-20)
(9.46367 6.24754 0)
(9.54177 6.11179 -6.97512e-20)
(9.61941 5.98115 -6.90336e-22)
(9.6966 5.85549 3.42099e-19)
(9.77361 5.73445 -2.72959e-19)
(9.85051 5.61701 -2.72099e-19)
(9.92566 5.50279 -6.74618e-20)
(9.99893 5.39252 2.82079e-22)
(10.0709 5.28631 5.44009e-19)
(10.1422 5.18372 -4.09212e-19)
(10.2134 5.08435 -1.36196e-19)
(10.2845 4.98715 1.37086e-19)
(10.3539 4.89229 1.36457e-19)
(10.4225 4.80029 1.36535e-19)
(10.4901 4.71145 -9.03224e-22)
(10.5584 4.62638 1.33898e-19)
(10.6253 4.535 1.29265e-19)
(10.1847 12.7513 1.77523e-21)
(9.91213 12.4381 -1.64746e-19)
(9.67436 12.108 6.45631e-20)
(9.47166 11.7675 -1.55374e-19)
(9.30426 11.4206 -9.072e-20)
(9.16734 11.0741 9.19303e-20)
(9.0593 10.733 -1.85693e-19)
(8.97965 10.3991 -9.32809e-20)
(8.92219 10.0735 -9.98868e-22)
(8.88679 9.76337 -1.83633e-19)
(8.87129 9.46574 8.83329e-20)
(8.87317 9.17989 -4.46092e-19)
(8.88707 8.90647 8.7502e-19)
(8.91044 8.64775 -2.55962e-19)
(8.94387 8.40284 9.77275e-22)
(8.98581 8.16956 -8.32855e-20)
(9.03292 7.9475 0)
(9.08543 7.73771 0)
(9.14228 7.53883 0)
(9.20229 7.34957 -7.61997e-20)
(9.26532 7.17005 3.01379e-19)
(9.33043 6.99885 -7.39627e-19)
(9.39769 6.83571 2.90828e-19)
(9.4662 6.67916 -7.12961e-20)
(9.53488 6.52958 7.03302e-20)
(9.60441 6.38665 -6.94857e-20)
(9.67453 6.24945 -2.7661e-19)
(9.74442 6.11734 2.74058e-19)
(9.81391 5.99063 -1.35975e-19)
(9.88317 5.86912 -3.38249e-19)
(9.95268 5.75213 3.11564e-23)
(10.0224 5.63785 2.68628e-19)
(10.0885 5.52676 2.68671e-19)
(10.1533 5.42109 -2.68235e-19)
(10.2174 5.31982 -2.68043e-19)
(10.2812 5.22184 2.68558e-19)
(10.3452 5.12684 1.34334e-19)
(10.4094 5.03314 -2.69168e-19)
(10.4699 4.94181 1.34705e-19)
(10.5311 4.85419 0)
(10.5899 4.76914 -2.09517e-19)
(10.6507 4.68725 -1.25154e-19)
(10.7066 4.59563 1.25319e-19)
(10.52 12.4831 0)
(10.253 12.1876 4.04946e-20)
(10.0194 11.8765 4.1376e-20)
(9.81875 11.5565 9.68403e-20)
(9.65231 11.2256 -1.07088e-20)
(9.51036 10.8993 0)
(9.39682 10.5755 0)
(9.31281 10.2601 1.7435e-19)
(9.24619 9.94654 -1.76406e-19)
(9.20285 9.65664 2.72098e-19)
(9.18192 9.36706 -1.75807e-19)
(9.17818 9.08837 8.72755e-20)
(9.18263 8.82336 1.69944e-19)
(9.19611 8.57635 -1.68518e-19)
(9.22235 8.34023 8.17989e-22)
(9.25704 8.11238 0)
(9.29452 7.89476 0)
(9.33903 7.69324 7.93008e-20)
(9.38756 7.50031 0)
(9.43872 7.31487 7.71865e-20)
(9.4944 7.14176 0)
(9.55209 6.97384 7.38535e-20)
(9.61366 6.81623 0)
(9.67603 6.66234 7.13668e-20)
(9.73723 6.51713 -7.10115e-20)
(9.80046 6.37811 7.02225e-20)
(9.86418 6.24467 6.90123e-20)
(9.92685 6.11579 -2.05298e-19)
(9.98898 5.99369 3.42396e-19)
(10.0502 5.8758 2.0469e-19)
(10.1126 5.76138 -2.01728e-19)
(10.1771 5.6492 -2.59329e-19)
(10.2348 5.54198 2.65384e-19)
(10.2923 5.44364 0)
(10.3485 5.34733 6.83164e-20)
(10.4045 5.25269 -1.3585e-19)
(10.4613 5.16094 1.99712e-19)
(10.5203 5.06983 6.41664e-20)
(10.5724 4.98198 -4.64988e-22)
(10.6293 4.90048 6.58943e-20)
(10.6784 4.81828 1.31691e-19)
(10.7363 4.7416 6.55941e-20)
(10.7841 4.64707 6.24984e-20)
(-2.45595 -2.55271 0)
(-2.28622 -2.59588 3.39157e-19)
(-2.1169 -2.63891 3.52313e-19)
(-1.94839 -2.68073 -3.59655e-19)
(-1.78115 -2.72128 9.17104e-19)
(-1.61547 -2.76047 -7.45838e-19)
(-1.4515 -2.79828 1.8962e-19)
(-1.2894 -2.83467 1.88921e-19)
(-1.12929 -2.86959 1.94311e-19)
(-0.971259 -2.90301 -3.97691e-19)
(-0.815359 -2.93494 -2.94972e-21)
(-0.661677 -2.96535 2.00316e-19)
(-0.510275 -2.99424 -2.03175e-19)
(-0.361187 -3.02159 0)
(-0.21443 -3.04742 3.24795e-19)
(-0.0699998 -3.07174 -3.34036e-19)
(0.0720571 -3.09454 1.11969e-19)
(0.211778 -3.11584 0)
(0.349163 -3.13564 0)
(0.484218 -3.15398 -1.27436e-19)
(0.616954 -3.17089 1.33488e-19)
(0.747357 -3.1864 1.3976e-19)
(0.875395 -3.20056 2.93599e-19)
(1.00108 -3.21343 -7.69294e-20)
(1.1244 -3.2251 -3.30511e-19)
(1.24535 -3.23564 -8.61256e-20)
(1.36392 -3.24516 0)
(1.48013 -3.25377 4.06034e-19)
(1.59391 -3.26164 -3.3308e-19)
(1.70532 -3.26883 4.7958e-19)
(1.81429 -3.27555 -6.565e-19)
(1.92086 -3.28185 0)
(2.025 -3.28787 0)
(2.12674 -3.29359 -2.71508e-19)
(2.2264 -3.29888 1.63991e-18)
(2.32462 -3.30337 -1.76171e-18)
(2.42324 -3.30621 1.36009e-19)
(2.5274 -3.30609 0)
(2.65183 -3.30272 0)
(2.84237 -3.3028 0)
(3.2524 -3.35292 2.75051e-19)
(4.41212 -3.71499 -3.52199e-19)
(8.50069 -5.59208 0)
(-2.39021 -2.57946 5.69289e-22)
(-2.23366 -2.61987 1.70029e-19)
(-2.07787 -2.6605 -5.23281e-19)
(-1.92259 -2.70019 0)
(-1.76815 -2.73893 -1.2669e-22)
(-1.61479 -2.77673 1.83101e-19)
(-1.46265 -2.81357 -1.85851e-19)
(-1.3118 -2.84945 0)
(-1.16231 -2.88438 -1.89786e-19)
(-1.0142 -2.91833 -1.91497e-19)
(-0.867503 -2.9513 1.94002e-19)
(-0.722302 -2.98328 3.92497e-19)
(-0.578626 -3.01425 0)
(-0.436452 -3.04424 1.02394e-19)
(-0.295785 -3.07325 7.2699e-22)
(-0.156609 -3.10129 2.12771e-19)
(-0.0188928 -3.12836 -1.09523e-19)
(0.117412 -3.15445 1.231e-21)
(0.252355 -3.17952 2.60844e-22)
(0.385988 -3.20354 1.21612e-19)
(0.518338 -3.22648 -1.2801e-19)
(0.649408 -3.24831 -2.667e-19)
(0.779233 -3.26896 -1.40922e-19)
(0.907827 -3.28842 -2.95912e-19)
(1.03527 -3.30667 1.56338e-19)
(1.16158 -3.32368 0)
(1.28678 -3.33939 -3.55538e-19)
(1.41096 -3.35378 3.82689e-19)
(1.53425 -3.36674 -4.12522e-19)
(1.65687 -3.37825 4.48458e-19)
(1.77914 -3.38813 -4.88406e-19)
(1.90164 -3.3962 5.36528e-19)
(2.02537 -3.40214 7.39492e-19)
(2.15207 -3.40559 -6.58146e-19)
(2.28506 -3.40608 5.46879e-19)
(2.43075 -3.40331 -8.22968e-19)
(2.60184 -3.39794 1.17021e-19)
(2.82504 -3.39343 1.83598e-18)
(3.15689 -3.40301 -2.4091e-18)
(3.72274 -3.47125 -3.43648e-19)
(4.81093 -3.7446 3.00918e-18)
(7.10559 -4.66515 4.80758e-20)
(12.1738 -7.29987 -3.44065e-18)
(-2.32445 -2.59689 -1.64035e-19)
(-2.17805 -2.63664 5.04401e-19)
(-2.03219 -2.67664 1.71642e-19)
(-1.88644 -2.71572 3.49939e-19)
(-1.74116 -2.75398 -5.32078e-19)
(-1.59653 -2.79145 -1.78855e-19)
(-1.4527 -2.82818 1.80149e-19)
(-1.30973 -2.86419 1.82685e-19)
(-1.1676 -2.89951 -1.8671e-19)
(-1.02628 -2.93412 3.72226e-19)
(-0.885812 -2.96796 -2.83797e-19)
(-0.746278 -3.00101 9.60048e-20)
(-0.607704 -3.03325 0)
(-0.470059 -3.06471 -9.85817e-20)
(-0.33334 -3.09539 -2.02159e-19)
(-0.197483 -3.12532 1.04148e-19)
(-0.0624293 -3.15451 0)
(0.0718737 -3.18295 -1.09361e-19)
(0.205588 -3.21063 -1.14044e-19)
(0.338829 -3.2375 -4.80809e-22)
(0.471649 -3.26349 1.22359e-19)
(0.604163 -3.28852 1.27945e-19)
(0.736498 -3.31251 -1.07996e-21)
(0.868847 -3.33537 4.2823e-19)
(1.00135 -3.35699 0)
(1.13417 -3.37722 0)
(1.26755 -3.39591 0)
(1.40191 -3.41291 9.20373e-20)
(1.53779 -3.428 0)
(1.67596 -3.44091 0)
(1.81766 -3.45135 -4.59923e-19)
(1.96465 -3.45894 5.01974e-19)
(2.12001 -3.46331 1.42668e-21)
(2.28865 -3.46413 1.49399e-19)
(2.47883 -3.4615 9.90525e-19)
(2.70492 -3.45661 -7.32017e-19)
(2.99178 -3.45362 6.02081e-19)
(3.38496 -3.46399 -6.76786e-19)
(3.97066 -3.51692 -2.49575e-19)
(4.91404 -3.6873 2.88984e-19)
(6.52913 -4.16267 2.48991e-18)
(9.4308 -5.38896 -3.05157e-18)
(14.3049 -8.07012 0)
(-2.26102 -2.60635 3.2052e-19)
(-2.12374 -2.64448 3.27359e-22)
(-1.98682 -2.68274 -1.68462e-19)
(-1.84982 -2.72011 -1.71297e-19)
(-1.71296 -2.75677 1.73405e-19)
(-1.57643 -2.79272 -1.0571e-21)
(-1.44028 -2.82803 0)
(-1.30457 -2.86281 0)
(-1.16924 -2.89714 1.80114e-19)
(-1.03418 -2.93098 -9.12557e-20)
(-0.899367 -2.96427 -2.60408e-22)
(-0.764798 -2.99694 -9.36849e-20)
(-0.630579 -3.02897 9.53742e-20)
(-0.496681 -3.06038 0)
(-0.363058 -3.09118 0)
(-0.229708 -3.12138 1.02049e-19)
(-0.0964971 -3.15104 1.04304e-19)
(0.0366907 -3.18017 -1.07711e-19)
(0.170054 -3.20879 0)
(0.3038 -3.23682 1.14997e-19)
(0.438107 -3.2642 1.20134e-19)
(0.573223 -3.29083 -1.25087e-19)
(0.709414 -3.31657 1.31862e-19)
(0.846971 -3.34127 -1.37931e-19)
(0.986165 -3.36474 -1.46954e-19)
(1.12746 -3.38677 0)
(1.27144 -3.40713 0)
(1.41882 -3.42554 8.81619e-20)
(1.57076 -3.4417 -9.50402e-20)
(1.72881 -3.45525 -2.02674e-19)
(1.89523 -3.46579 4.35584e-19)
(2.07337 -3.47297 -3.54233e-19)
(2.26833 -3.4766 -1.27375e-19)
(2.48829 -3.47686 0)
(2.74571 -3.47489 2.99752e-19)
(3.06072 -3.47415 -6.60287e-19)
(3.46726 -3.48288 -1.79348e-19)
(4.02347 -3.52005 1.9712e-19)
(4.82991 -3.62802 2.22277e-19)
(6.05901 -3.90012 -9.62261e-19)
(8.00451 -4.53432 1.08671e-18)
(11.1432 -5.92643 2.70422e-19)
(15.6936 -8.51366 6.94252e-19)
(-2.19837 -2.61225 -1.58022e-19)
(-2.06947 -2.64728 0)
(-1.94053 -2.68302 -1.66287e-19)
(-1.81126 -2.71818 0)
(-1.68176 -2.75288 0)
(-1.55213 -2.78703 1.72084e-19)
(-1.42249 -2.82063 8.69727e-20)
(-1.29295 -2.85378 -8.78461e-20)
(-1.16338 -2.88667 -8.85487e-20)
(-1.0335 -2.91934 8.95969e-20)
(-0.903269 -2.95165 -2.30223e-22)
(-0.772585 -2.98351 1.84131e-19)
(-0.641606 -3.01478 9.37067e-20)
(-0.51034 -3.04551 -9.54649e-20)
(-0.37875 -3.07571 -9.71408e-20)
(-0.246822 -3.10533 -4.97142e-20)
(-0.114422 -3.13446 -8.52224e-23)
(0.0185635 -3.16317 5.3035e-20)
(0.152396 -3.19152 0)
(0.287377 -3.21946 0)
(0.423845 -3.24694 0)
(0.562205 -3.27386 -3.06843e-19)
(0.702851 -3.30005 3.21851e-19)
(0.846244 -3.3253 -2.70788e-19)
(0.992857 -3.3494 1.41807e-19)
(1.14344 -3.37212 0)
(1.29889 -3.39316 1.60062e-19)
(1.46042 -3.41219 0)
(1.62967 -3.42892 -9.13185e-20)
(1.80899 -3.44297 1.94149e-19)
(2.00165 -3.45395 0)
(2.21238 -3.46173 -3.33692e-19)
(2.44816 -3.46652 2.40522e-19)
(2.71932 -3.46925 -5.14632e-19)
(3.04175 -3.47225 6.99752e-19)
(3.44028 -3.48102 0)
(3.95452 -3.5073 1.65082e-19)
(4.64929 -3.57586 -2.20109e-21)
(5.62781 -3.73752 1.96646e-19)
(7.05576 -4.09432 2.13327e-19)
(9.19717 -4.8437 0)
(12.4031 -6.32371 -8.50415e-19)
(16.6691 -8.80557 3.02359e-19)
(-2.13637 -2.61216 0)
(-2.01502 -2.64455 0)
(-1.89363 -2.67813 -3.0569e-22)
(-1.77142 -2.71114 -3.3265e-19)
(-1.64857 -2.74389 1.67961e-19)
(-1.52506 -2.77622 -8.4757e-20)
(-1.40106 -2.80796 8.55951e-20)
(-1.27688 -2.83918 -8.63149e-20)
(-1.15239 -2.87032 -8.70897e-20)
(-1.02704 -2.90151 1.75804e-19)
(-0.900724 -2.93254 -1.7804e-19)
(-0.773178 -2.96335 -8.99457e-20)
(-0.644731 -2.99353 -9.14277e-20)
(-0.51543 -3.02326 -4.7155e-20)
(-0.385132 -3.05251 1.43428e-19)
(-0.253789 -3.08121 2.44365e-19)
(-0.121415 -3.10932 -5.02767e-20)
(0.0120429 -3.13696 5.22601e-20)
(0.14693 -3.16434 -9.25591e-23)
(0.283712 -3.19145 -5.5468e-20)
(0.422809 -3.21822 -1.15483e-19)
(0.564795 -3.24465 -6.247e-22)
(0.710202 -3.27052 -1.25257e-19)
(0.859733 -3.29563 1.31412e-19)
(1.01406 -3.31968 -1.3889e-19)