/*--------------------------------*- C++ -*----------------------------------*\
| =========                 |                                                 |
| \\      /  F ield         | OpenFOAM: The Open Source CFD Toolbox           |
|  \\    /   O peration     | Version:  2.3.0                                 |
|   \\  /    A nd           | Web:      www.OpenFOAM.org                      |
|    \\/     M anipulation  |                                                 |
\*---------------------------------------------------------------------------*/
FoamFile
{
    version     2.0;
    format      ascii;
    class       volScalarField;
    location    "8000";
    object      p;
}
// * * * * * * * * * * * * * * * * * * * * * * * * * * * * * * * * * * * * * //

dimensions      [0 2 -2 0 0 0 0];

internalField   nonuniform List<scalar> 
15443
(
-0.000258542
-1.32159
-2.35493
-3.4062
-4.41107
-5.37193
-6.26239
-7.05041
-7.70665
-8.17429
-8.41417
-8.36717
-7.96409
-7.1661
-5.88611
-4.01201
-1.35497
2.13441
6.51547
12.3697
19.9731
25.7112
24.8557
33.3381
10.6373
10.7691
11.3517
12.0093
12.8488
13.9059
15.2465
16.9435
19.0915
21.7908
25.1531
29.2918
34.3242
40.3643
47.5239
55.895
65.5778
76.6308
89.0864
102.978
118.234
134.538
151.681
169.612
19.7927
20.7779
22.1671
23.6547
25.3339
27.2221
29.3491
31.737
34.417
37.4199
40.785
44.5563
48.7844
53.5187
58.8188
64.7241
71.2902
78.5373
86.4756
95.0883
104.303
114.034
124.228
134.788
27.8425
29.3294
31.249
33.3016
35.5776
38.1013
40.9147
44.0512
47.5421
51.4265
55.7372
60.5064
65.7545
71.5035
77.7652
84.543
91.8242
99.5824
107.771
116.31
125.094
133.995
142.865
151.528
34.6947
36.4022
38.5671
40.8388
43.3
45.9656
48.8569
51.9978
55.4038
59.106
63.119
67.4734
72.1884
77.2865
82.7731
88.6607
94.9356
101.585
108.568
115.835
123.31
130.893
138.478
145.945
40.6784
42.3708
44.6369
47.0039
49.5594
52.3163
55.2898
58.5021
61.9626
65.6967
69.7189
74.0464
78.6864
83.6554
88.9497
94.5727
100.509
106.742
113.227
119.92
126.753
133.646
140.514
147.262
45.9132
47.3602
49.6092
51.9679
54.4921
57.2008
60.1026
63.2219
66.5668
70.1474
73.9855
78.0939
82.4821
87.1565
92.1265
97.3849
102.917
108.709
114.726
120.927
127.25
133.63
139.991
146.254
49.7967
51.3838
53.6416
56.0006
58.4821
61.1371
63.9573
66.9826
70.2332
73.6929
77.3979
81.3433
85.5466
89.9959
94.7206
99.7088
104.934
110.386
116.045
121.881
127.823
133.825
139.817
145.712
53.5476
55.0694
57.155
59.4111
61.7563
64.3067
67.0267
69.975
73.0968
76.3656
79.9283
83.7216
87.766
92.0321
96.5731
101.338
106.321
111.522
116.927
122.471
128.084
133.794
139.544
145.24
57.1324
58.7263
60.4503
62.4821
64.5348
66.8354
69.3377
72.269
75.2988
78.1801
81.4522
85.0567
88.9893
93.1508
97.6011
102.189
106.955
112.054
117.555
123.088
128.47
133.902
139.488
145.166
92.6929
131.239
156.82
176.71
192.883
205.922
216.331
224.554
231.06
236.247
240.311
243.363
245.501
246.813
247.38
247.288
246.622
245.467
243.9
242.001
239.835
237.444
234.741
231.73
186.118
198.83
209.235
217.846
224.878
230.496
234.868
238.163
240.544
242.141
243.06
243.411
243.298
242.814
242.039
241.036
239.85
238.511
237.033
235.422
233.662
231.748
229.9
228.308
145.475
156.041
166.191
175.674
184.351
192.165
199.092
205.152
210.383
214.834
218.554
221.602
224.029
225.889
227.23
228.101
228.547
228.611
228.336
227.76
226.905
225.785
224.609
223.746
159.861
167.833
175.381
182.401
188.817
194.594
199.716
204.2
208.07
211.364
214.124
216.395
218.224
219.655
220.727
221.478
221.941
222.145
222.11
221.857
221.391
220.703
219.955
219.528
153.249
160.372
167.233
173.73
179.787
185.353
190.404
194.932
198.943
202.458
205.501
208.101
210.29
212.099
213.557
214.695
215.54
216.12
216.456
216.568
216.465
216.145
215.769
215.727
153.832
160.206
166.328
172.124
177.536
182.524
187.068
191.162
194.812
198.035
200.851
203.284
205.365
207.116
208.566
209.742
210.67
211.37
211.861
212.158
212.27
212.199
212.12
212.408
152.367
158.308
164.011
169.413
174.47
179.145
183.422
187.296
190.77
193.859
196.584
198.961
201.023
202.783
204.265
205.499
206.51
207.312
207.922
208.35
208.604
208.684
208.734
209.039
151.459
157.066
162.448
167.53
172.304
176.715
180.762
184.432
187.73
190.672
193.295
195.59
197.608
199.322
200.783
202.017
203.062
203.916
204.595
205.099
205.453
205.665
205.808
206.265
150.67
156.072
161.252
166.059
170.613
174.767
178.612
182.089
185.223
188.043
190.619
192.837
194.803
196.429
197.84
199.056
200.145
201.048
201.768
202.3
202.713
203.013
203.231
203.243
150.541
156.034
161.029
165.405
169.768
173.507
177.085
180.29
183.216
185.915
188.407
190.22
192.272
193.804
195.194
196.461
197.707
198.655
199.395
199.974
200.495
200.867
201.191
201.017
-68.4034
-68.4938
-68.5203
-68.4861
-68.3961
-68.2541
-68.0655
-67.8383
-67.5815
-67.2995
-66.9965
-66.6769
-66.3446
-66.0017
-65.6472
-65.2754
-64.8727
-64.4079
-63.8344
-63.1038
-62.1668
-60.9169
-58.9331
-54.6502
-69.134
-69.1502
-69.1358
-69.0733
-68.9689
-68.832
-68.6692
-68.4844
-68.2801
-68.0581
-67.8157
-67.5475
-67.244
-66.8889
-66.4601
-65.9291
-65.2648
-64.4211
-63.3066
-61.7575
-59.5211
-56.221
-51.5214
-45.5027
-69.5945
-69.7907
-69.9207
-69.9996
-70.0352
-70.0289
-69.9791
-69.8834
-69.7369
-69.5334
-69.2644
-68.918
-68.4799
-67.9303
-67.242
-66.3734
-65.2655
-63.8389
-61.9823
-59.5332
-56.2749
-51.9884
-46.5781
-40.3146
-69.995
-70.0707
-70.228
-70.3389
-70.3911
-70.3891
-70.3321
-70.2147
-70.0295
-69.7677
-69.4185
-68.9657
-68.3898
-67.6658
-66.7616
-65.6313
-64.2127
-62.4225
-60.1495
-57.2559
-53.6094
-49.1382
-43.8932
-38.1631
-70.1696
-70.1214
-70.286
-70.3978
-70.4416
-70.4242
-70.3467
-70.1981
-69.9698
-69.6497
-69.2261
-68.6825
-67.9967
-67.14
-66.0795
-64.7632
-63.1332
-61.1052
-58.5914
-55.4914
-51.7142
-47.2372
-42.162
-36.7639
-69.7656
-70.0105
-70.1451
-70.2267
-70.2445
-70.1973
-70.0938
-69.9163
-69.6534
-69.287
-68.8054
-68.1956
-67.4352
-66.4858
-65.3183
-63.8861
-62.1314
-59.9752
-57.325
-54.1073
-50.2773
-45.8235
-40.8528
-35.6276
-69.7825
-69.7896
-69.8869
-69.9415
-69.9236
-69.8335
-69.7082
-69.5069
-69.2225
-68.8209
-68.2907
-67.6274
-66.8099
-65.7947
-64.5521
-63.043
-61.2227
-59.0011
-56.2954
-53.0419
-49.2174
-44.7806
-39.916
-34.8382
-69.2064
-69.4079
-69.5107
-69.5664
-69.5319
-69.3709
-69.2313
-69.0056
-68.7251
-68.3137
-67.7355
-67.0207
-66.1882
-65.1207
-63.8062
-62.2228
-60.3948
-58.1995
-55.4853
-52.1763
-48.3121
-43.6942
-38.7935
-33.829
-68.4853
-68.8445
-69.0842
-69.2155
-69.1738
-68.8096
-68.6876
-68.4755
-68.239
-67.82
-67.1464
-66.3374
-65.5323
-64.4014
-62.984
-61.3047
-59.59
-57.5457
-54.8995
-51.5345
-48.1513
-43.4827
-38.7412
-34.0327
-65.3483
-67.1138
-68.0925
-68.9651
-68.8702
-67.95
-67.7609
-67.8763
-68.1809
-68.2263
-67.4557
-66.4926
-65.9714
-64.668
-62.5164
-60.3142
-59.2929
-59.3306
-56.6102
-50.6795
-43.8618
-36.309
-32.0472
-29.7471
-45.3464
-40.2194
-36.0634
-32.1781
-28.4583
-24.9485
-21.6444
-18.5258
-15.5637
-12.7217
-9.96201
-7.25332
-4.57382
-1.90697
0.759237
3.431
6.11398
8.81069
11.5236
14.2557
17.0097
19.7627
22.5331
25.6106
-38.846
-35.3782
-32.9236
-30.3322
-27.5475
-24.6524
-21.7056
-18.754
-15.8303
-12.9543
-10.1366
-7.38182
-4.686
-2.04331
0.55524
3.11848
5.65794
8.18235
10.7006
13.2234
15.7584
18.2869
20.8369
23.6383
-34.1826
-29.9301
-27.5199
-25.3467
-23.1047
-20.7816
-18.4015
-15.9879
-13.5583
-11.126
-8.70082
-6.28952
-3.89623
-1.52116
0.837069
3.18071
5.51337
7.83822
10.1605
12.4866
14.8211
17.1521
19.5101
22.0588
-32.5429
-28.0418
-25.5281
-23.4398
-21.3178
-19.1475
-16.9469
-14.7301
-12.5075
-10.2842
-8.06555
-5.85237
-3.64725
-1.44884
0.743737
2.93177
5.11676
7.30126
9.48831
11.6811
13.8809
16.0798
18.2981
20.6431
-31.4661
-27.0292
-24.4324
-22.4098
-20.3566
-18.2617
-16.1374
-13.9995
-11.8593
-9.72231
-7.59413
-5.47674
-3.37206
-1.27952
0.801494
2.87341
4.93789
6.99762
9.05437
11.1123
13.1752
15.2423
17.3202
19.4702
-30.5237
-26.1543
-23.4145
-21.3911
-19.3662
-17.3221
-15.2576
-13.1865
-11.1174
-9.05529
-7.00641
-4.97283
-2.95599
-0.956555
1.02549
2.99389
4.94873
6.89304
8.82713
10.7532
12.6778
14.6048
16.5351
18.4673
-29.8657
-25.5221
-22.6231
-20.5475
-18.5143
-16.4926
-14.4661
-12.4436
-10.4292
-8.42778
-6.445
-4.48213
-2.54065
-0.62233
1.27499
3.15447
5.01634
6.86052
8.68575
10.4926
12.2891
14.0778
15.8614
17.6292
-28.9478
-24.6474
-21.7637
-19.7668
-17.7967
-15.8238
-13.8379
-11.8533
-9.8766
-7.91784
-5.98421
-4.07369
-2.18907
-0.335617
1.49367
3.30302
5.09037
6.85246
8.58603
10.2851
11.9708
13.642
15.3025
16.9938
-29.0793
-24.4885
-21.3569
-19.2958
-17.2757
-15.2941
-13.3122
-11.3381
-9.37386
-7.43423
-5.53516
-3.65782
-1.81132
-0.0186629
1.75188
3.51038
5.24329
6.93836
8.5848
10.1616
11.7482
13.3138
14.8615
16.499
-24.927
-20.6296
-19.2677
-18.3124
-16.6815
-14.8481
-12.9223
-10.9791
-9.02472
-7.10647
-5.27849
-3.4311
-1.62282
0.0837949
1.81856
3.55343
5.24356
6.85418
8.43036
9.89694
11.4371
12.9535
14.4396
16.1157
-111.63
-110.147
-109.214
-107.753
-104.743
-100.399
-95.1446
-89.2548
-82.9589
-76.3647
-69.7095
-63.1816
-56.8701
-50.8289
-45.1207
-39.8031
-34.9112
-30.4665
-26.4703
-22.9029
-19.7179
-16.8523
-14.268
-11.9988
-75.2344
-75.2369
-74.9362
-74.4167
-73.7514
-73.0728
-72.5035
-72.0784
-71.8139
-71.5768
-71.0552
-69.9543
-68.1665
-65.6885
-62.547
-58.8089
-54.5865
-50.0042
-45.2371
-40.4446
-35.7811
-31.3633
-27.235
-23.7777
-82.9626
-82.8949
-82.9395
-82.9926
-83.0364
-83.0307
-82.896
-82.5281
-81.8288
-80.7913
-79.4713
-77.9471
-76.249
-74.2769
-71.8916
-69.0392
-65.7103
-61.9022
-57.6608
-53.0713
-48.2703
-43.4078
-38.6105
-34.1839
-78.7462
-78.7328
-78.6795
-78.6053
-78.5172
-78.4187
-78.3089
-78.1791
-78.0101
-77.774
-77.4363
-76.9469
-76.2345
-75.2966
-74.1469
-72.6671
-70.7287
-68.2514
-65.1979
-61.5743
-57.444
-52.9163
-48.183
-43.1744
-79.2478
-79.2487
-79.2556
-79.255
-79.245
-79.2206
-79.1755
-79.1018
-78.9897
-78.8228
-78.5772
-78.2282
-77.7457
-77.0905
-76.221
-75.1219
-73.7562
-72.0279
-69.844
-67.1397
-63.8713
-60.0404
-55.836
-50.4597
-78.4031
-78.4019
-78.3942
-78.379
-78.3567
-78.3262
-78.2861
-78.234
-78.1657
-78.0745
-77.9499
-77.7755
-77.5297
-77.186
-76.7087
-76.0494
-75.1643
-74.0113
-72.5059
-70.5638
-68.1053
-65.0472
-61.5737
-56.0416
-78.2442
-78.2451
-78.2441
-78.2381
-78.227
-78.2092
-78.1829
-78.1458
-78.0948
-78.0252
-77.9308
-77.8026
-77.6267
-77.3853
-77.0564
-76.6096
-76.0038
-75.1927
-74.1225
-72.7147
-70.884
-68.5103
-65.7591
-60.5945
-77.9677
-77.9675
-77.9647
-77.9574
-77.9455
-77.9285
-77.9051
-77.8742
-77.8338
-77.7813
-77.7127
-77.6221
-77.5013
-77.3378
-77.1149
-76.8116
-76.3984
-75.8349
-75.0736
-74.0558
-72.7052
-70.897
-68.7566
-64.2477
-77.8279
-77.8281
-77.8264
-77.8208
-77.8111
-77.7968
-77.7771
-77.7507
-77.7163
-77.672
-77.6148
-77.5407
-77.4445
-77.3182
-77.1499
-76.9241
-76.6205
-76.2103
-75.6536
-74.9016
-73.8971
-72.5336
-70.8828
-67.0904
-77.7146
-77.7144
-77.7124
-77.7069
-77.6976
-77.6841
-77.6659
-77.642
-77.6114
-77.5727
-77.5238
-77.4619
-77.3829
-77.2814
-77.1494
-76.975
-76.7432
-76.433
-76.0147
-75.4475
-74.6874
-73.6582
-72.3855
-69.4518
-77.6542
-77.6537
-77.6515
-77.6463
-77.6375
-77.6251
-77.6083
-77.5865
-77.5587
-77.5237
-77.4801
-77.4255
-77.3568
-77.2703
-77.1603
-77.0183
-76.8328
-76.588
-76.2618
-75.8231
-75.2363
-74.4452
-73.4439
-71.2426
-77.6257
-77.6251
-77.6229
-77.618
-77.6099
-77.5983
-77.5828
-77.5627
-77.5373
-77.5056
-77.4663
-77.4177
-77.3574
-77.282
-77.1877
-77.0684
-76.915
-76.7162
-76.4552
-76.1085
-75.6479
-75.0302
-74.2315
-72.5383
-77.6316
-77.6305
-77.6281
-77.6234
-77.6157
-77.6049
-77.5906
-77.5723
-77.5491
-77.5205
-77.4851
-77.4418
-77.3884
-77.3222
-77.2402
-77.138
-77.0092
-76.8446
-76.6318
-76.3531
-75.9871
-75.4997
-74.8609
-73.5621
-77.6609
-77.6597
-77.6573
-77.6531
-77.6462
-77.6365
-77.6236
-77.6072
-77.5866
-77.5612
-77.53
-77.4918
-77.4452
-77.3879
-77.3173
-77.2302
-77.122
-76.9861
-76.8134
-76.591
-76.3045
-75.9296
-75.4458
-74.4516
-77.7123
-77.7109
-77.7085
-77.7046
-77.6984
-77.6897
-77.6782
-77.6637
-77.6455
-77.6233
-77.5962
-77.5633
-77.5234
-77.4748
-77.415
-77.3419
-77.2522
-77.1414
-77.0031
-76.8283
-76.6073
-76.3271
-75.986
-75.2445
-77.7784
-77.7768
-77.7744
-77.771
-77.7655
-77.7578
-77.7477
-77.7351
-77.7194
-77.7003
-77.6772
-77.6494
-77.6158
-77.575
-77.5254
-77.4651
-77.3919
-77.3026
-77.193
-77.0573
-76.8891
-76.6772
-76.4049
-75.8675
-77.8541
-77.8527
-77.8506
-77.8476
-77.8429
-77.8362
-77.8276
-77.8167
-77.8033
-77.7871
-77.7675
-77.744
-77.7159
-77.682
-77.6409
-77.5909
-77.5304
-77.457
-77.3672
-77.2555
-77.1147
-76.9293
-76.671
-76.089
-77.9379
-77.9365
-77.9345
-77.9318
-77.9277
-77.9218
-77.9142
-77.9048
-77.8933
-77.8794
-77.8627
-77.8429
-77.8193
-77.7909
-77.7566
-77.715
-77.6646
-77.6036
-77.529
-77.4359
-77.3177
-77.161
-76.9352
-76.3536
-78.0253
-78.0238
-78.0218
-78.0193
-78.0156
-78.0105
-78.0038
-77.9956
-77.9857
-77.9737
-77.9595
-77.9426
-77.9225
-77.8985
-77.8697
-77.8346
-77.792
-77.7403
-77.6768
-77.5977
-77.4976
-77.3654
-77.1773
-76.7832
-78.1129
-78.1117
-78.1098
-78.1077
-78.1045
-78.1
-78.0942
-78.087
-78.0783
-78.0679
-78.0556
-78.041
-78.0238
-78.0032
-77.9785
-77.9482
-77.9112
-77.8659
-77.8099
-77.7388
-77.6467
-77.5269
-77.3582
-76.8604
-78.2011
-78.1998
-78.198
-78.1961
-78.1932
-78.1891
-78.1839
-78.1775
-78.1698
-78.1607
-78.1499
-78.1372
-78.1221
-78.1043
-78.0828
-78.0566
-78.0245
-77.985
-77.9362
-77.8746
-77.7951
-77.6887
-77.5455
-77.3811
-78.2869
-78.2856
-78.284
-78.2822
-78.2797
-78.276
-78.2713
-78.2656
-78.2587
-78.2506
-78.241
-78.2298
-78.2166
-78.2009
-78.1821
-78.1592
-78.1309
-78.0959
-78.0524
-77.9973
-77.9258
-77.8279
-77.6861
-77.474
-78.3705
-78.3693
-78.3676
-78.366
-78.3636
-78.3602
-78.3559
-78.3507
-78.3445
-78.3372
-78.3286
-78.3186
-78.3068
-78.2929
-78.2764
-78.2562
-78.2314
-78.2006
-78.1623
-78.114
-78.0521
-77.9699
-77.8488
-77.5821
-78.45
-78.4489
-78.4474
-78.446
-78.4438
-78.4408
-78.4368
-78.4321
-78.4264
-78.4197
-78.4119
-78.4028
-78.3922
-78.3798
-78.3651
-78.3473
-78.3254
-78.2985
-78.2651
-78.2234
-78.1707
-78.1012
-78.0035
-77.8343
-78.5266
-78.5255
-78.524
-78.5226
-78.5207
-78.5178
-78.5141
-78.5096
-78.5042
-78.4979
-78.4906
-78.4822
-78.4724
-78.4611
-78.4476
-78.4316
-78.4121
-78.3881
-78.3587
-78.3225
-78.2779
-78.2223
-78.1513
-78.0276
-78.5993
-78.5982
-78.5968
-78.5954
-78.5935
-78.5908
-78.5872
-78.5829
-78.5778
-78.5717
-78.5647
-78.5567
-78.5473
-78.5365
-78.5239
-78.5088
-78.4905
-78.4681
-78.4406
-78.4064
-78.3636
-78.3119
-78.2412
-77.9697
-78.668
-78.6671
-78.6657
-78.6644
-78.6626
-78.66
-78.6565
-78.6523
-78.6473
-78.6414
-78.6345
-78.6265
-78.6173
-78.6067
-78.5942
-78.5795
-78.5618
-78.5403
-78.514
-78.4819
-78.4421
-78.3904
-78.3208
-78.3335
-78.7343
-78.7333
-78.732
-78.7307
-78.7289
-78.7262
-78.7227
-78.7185
-78.7134
-78.7074
-78.7004
-78.6924
-78.683
-78.6722
-78.6595
-78.6446
-78.6266
-78.6047
-78.5776
-78.5436
-78.4996
-78.4426
-78.3632
-78.1829
-78.7978
-78.7969
-78.7955
-78.7941
-78.7923
-78.7896
-78.7861
-78.7818
-78.7766
-78.7705
-78.7633
-78.755
-78.7454
-78.7343
-78.7212
-78.7059
-78.6876
-78.6656
-78.6388
-78.6063
-78.5661
-78.5175
-78.4712
-78.5245
-78.8587
-78.8579
-78.8565
-78.8552
-78.8534
-78.8508
-78.8472
-78.8428
-78.8376
-78.8313
-78.8239
-78.8153
-78.8053
-78.7936
-78.78
-78.7639
-78.7446
-78.7213
-78.6928
-78.6573
-78.612
-78.5517
-78.4686
-78.3729
-78.919
-78.9182
-78.9168
-78.9154
-78.9136
-78.9108
-78.9072
-78.9027
-78.8972
-78.8907
-78.8831
-78.8742
-78.8638
-78.8517
-78.8375
-78.8208
-78.8009
-78.777
-78.7477
-78.712
-78.6674
-78.6102
-78.5339
-78.4557
-78.9786
-78.9776
-78.9762
-78.9748
-78.9728
-78.97
-78.9663
-78.9616
-78.9561
-78.9494
-78.9415
-78.9324
-78.9217
-78.9092
-78.8946
-78.8774
-78.8569
-78.8324
-78.8026
-78.7663
-78.7214
-78.6644
-78.5906
-78.5149
-79.0368
-79.036
-79.0347
-79.0333
-79.0314
-79.0286
-79.0249
-79.0202
-79.0145
-79.0078
-78.9998
-78.9904
-78.9795
-78.9668
-78.9519
-78.9344
-78.9137
-78.889
-78.8593
-78.8235
-78.7801
-78.7267
-78.6596
-78.5924
-79.0962
-79.0954
-79.0939
-79.0924
-79.0905
-79.0876
-79.0838
-79.0791
-79.0733
-79.0665
-79.0584
-79.0489
-79.0378
-79.0249
-79.0098
-78.9921
-78.9712
-78.9464
-78.9168
-78.8813
-78.8385
-78.7861
-78.7198
-78.6478
-79.1556
-79.1547
-79.1532
-79.1518
-79.1498
-79.1469
-79.1431
-79.1383
-79.1325
-79.1256
-79.1174
-79.1079
-79.0967
-79.0837
-79.0685
-79.0508
-79.0299
-79.0052
-78.9759
-78.941
-78.8994
-78.8491
-78.7875
-78.7164
-79.2156
-79.2147
-79.2132
-79.2117
-79.2097
-79.2069
-79.203
-79.1982
-79.1924
-79.1855
-79.1773
-79.1677
-79.1565
-79.1435
-79.1283
-79.1105
-79.0897
-79.0653
-79.0364
-79.0021
-78.9617
-78.9138
-78.857
-78.7904
-79.2763
-79.2755
-79.274
-79.2724
-79.2704
-79.2676
-79.2637
-79.2589
-79.2531
-79.2462
-79.238
-79.2284
-79.2172
-79.2042
-79.189
-79.1713
-79.1507
-79.1264
-79.0977
-79.0639
-79.0243
-78.9778
-78.9241
-78.8595
-79.338
-79.3372
-79.3356
-79.3341
-79.3321
-79.3292
-79.3254
-79.3206
-79.3148
-79.3079
-79.2997
-79.2901
-79.279
-79.266
-79.2509
-79.2333
-79.2128
-79.1886
-79.1602
-79.1265
-79.0869
-79.0402
-78.982
-78.8762
-79.4006
-79.3998
-79.3982
-79.3966
-79.3946
-79.3918
-79.3879
-79.3832
-79.3774
-79.3705
-79.3624
-79.3529
-79.3418
-79.329
-79.314
-79.2966
-79.2763
-79.2526
-79.2247
-79.1919
-79.1537
-79.1092
-79.0565
-78.9867
-79.4641
-79.4632
-79.4616
-79.4601
-79.458
-79.4552
-79.4514
-79.4467
-79.441
-79.4341
-79.4261
-79.4167
-79.4057
-79.393
-79.3782
-79.361
-79.341
-79.3176
-79.2903
-79.2583
-79.2213
-79.1802
-79.1367
-79.0491
-79.5285
-79.5277
-79.526
-79.5245
-79.5224
-79.5196
-79.5159
-79.5112
-79.5055
-79.4987
-79.4908
-79.4815
-79.4706
-79.4581
-79.4434
-79.4264
-79.4066
-79.3836
-79.3565
-79.3248
-79.2878
-79.2451
-79.196
-79.1243
-79.5939
-79.5931
-79.5914
-79.5899
-79.5878
-79.5851
-79.5813
-79.5766
-79.571
-79.5643
-79.5564
-79.5472
-79.5365
-79.5241
-79.5096
-79.4929
-79.4734
-79.4507
-79.4242
-79.3932
-79.3573
-79.3159
-79.268
-79.2091
-79.6605
-79.6596
-79.6579
-79.6563
-79.6542
-79.6514
-79.6476
-79.643
-79.6374
-79.6308
-79.623
-79.6139
-79.6033
-79.591
-79.5768
-79.5603
-79.5411
-79.5187
-79.4927
-79.4623
-79.4269
-79.3858
-79.3374
-79.2751
-79.7271
-79.7263
-79.7246
-79.723
-79.721
-79.7183
-79.7146
-79.71
-79.7045
-79.698
-79.6903
-79.6813
-79.6709
-79.6588
-79.6447
-79.6285
-79.6096
-79.5876
-79.5621
-79.5325
-79.4983
-79.4592
-79.416
-79.3949
-79.7952
-79.7944
-79.7926
-79.791
-79.789
-79.7862
-79.7826
-79.778
-79.7726
-79.7661
-79.7584
-79.7496
-79.7392
-79.7273
-79.7134
-79.6973
-79.6787
-79.6569
-79.6315
-79.6017
-79.5668
-79.5272
-79.479
-79.3539
-79.8638
-79.863
-79.8612
-79.8596
-79.8575
-79.8548
-79.8511
-79.8466
-79.8412
-79.8348
-79.8272
-79.8185
-79.8083
-79.7965
-79.7828
-79.767
-79.7487
-79.7274
-79.7028
-79.6743
-79.6418
-79.6043
-79.56
-79.5426
-79.9325
-79.9317
-79.93
-79.9284
-79.9265
-79.9238
-79.9202
-79.9158
-79.9104
-79.9041
-79.8966
-79.888
-79.8779
-79.8663
-79.8528
-79.8371
-79.819
-79.7979
-79.7735
-79.7451
-79.7121
-79.6707
-79.6152
-79.6121
-80.0027
-80.0019
-80.0001
-79.9985
-79.9964
-79.9937
-79.9901
-79.9857
-79.9804
-79.9741
-79.9667
-79.9581
-79.9481
-79.9366
-79.9233
-79.9078
-79.8899
-79.8691
-79.845
-79.8171
-79.785
-79.7499
-79.7141
-79.6216
-80.0731
-80.0723
-80.0705
-80.0688
-80.0667
-80.064
-80.0604
-80.056
-80.0507
-80.0445
-80.0372
-80.0287
-80.0188
-80.0074
-79.9942
-79.9789
-79.9611
-79.9405
-79.9165
-79.8886
-79.8564
-79.8197
-79.7816
-79.7402
-80.1433
-80.1426
-80.1408
-80.1392
-80.1372
-80.1346
-80.1311
-80.1267
-80.1215
-80.1153
-80.1081
-80.0997
-80.09
-80.0787
-80.0656
-80.0504
-80.0328
-80.0123
-79.9884
-79.9605
-79.9279
-79.8894
-79.8436
-79.79
-80.2148
-80.2141
-80.2122
-80.2106
-80.2086
-80.2059
-80.2024
-80.198
-80.1928
-80.1867
-80.1796
-80.1712
-80.1616
-80.1504
-80.1375
-80.1224
-80.105
-80.0848
-80.0613
-80.0339
-80.0021
-79.9652
-79.9228
-79.8771
-80.2865
-80.2858
-80.2839
-80.2822
-80.2801
-80.2774
-80.2739
-80.2695
-80.2644
-80.2584
-80.2513
-80.2431
-80.2335
-80.2225
-80.2097
-80.1949
-80.1777
-80.1577
-80.1345
-80.1074
-80.0756
-80.0388
-79.998
-79.9337
-80.3576
-80.357
-80.3552
-80.3535
-80.3515
-80.3489
-80.3455
-80.3413
-80.3362
-80.3303
-80.3233
-80.3152
-80.3058
-80.2949
-80.2823
-80.2677
-80.2508
-80.2313
-80.2087
-80.1824
-80.1521
-80.1177
-80.079
-80.03
-80.4299
-80.4294
-80.4275
-80.4259
-80.4238
-80.4212
-80.4178
-80.4135
-80.4085
-80.4026
-80.3956
-80.3876
-80.3782
-80.3675
-80.355
-80.3406
-80.3239
-80.3047
-80.2825
-80.2569
-80.2276
-80.1934
-80.1511
-80.0897
-80.5032
-80.5025
-80.5003
-80.4985
-80.4963
-80.4936
-80.49
-80.4858
-80.4807
-80.4748
-80.4679
-80.4599
-80.4507
-80.44
-80.4276
-80.4134
-80.397
-80.3781
-80.3564
-80.3318
-80.3042
-80.2723
-80.2346
-80.229
-80.5732
-80.5728
-80.571
-80.5695
-80.5676
-80.5651
-80.5618
-80.5577
-80.5528
-80.547
-80.5402
-80.5323
-80.5231
-80.5124
-80.5001
-80.4858
-80.4693
-80.4503
-80.4284
-80.4033
-80.3747
-80.3412
-80.3025
-80.2844
-80.6476
-80.6471
-80.645
-80.6433
-80.6412
-80.6384
-80.635
-80.6307
-80.6257
-80.6198
-80.6129
-80.6049
-80.5957
-80.585
-80.5725
-80.5581
-80.5414
-80.5221
-80.4997
-80.4738
-80.4439
-80.4115
-80.3789
-80.2711
-80.7207
-80.72
-80.7178
-80.7159
-80.7137
-80.7109
-80.7074
-80.7031
-80.6981
-80.6922
-80.6854
-80.6774
-80.6682
-80.6574
-80.645
-80.6305
-80.6137
-80.5942
-80.5715
-80.5452
-80.5145
-80.4795
-80.4386
-80.3691
-80.7915
-80.7912
-80.7892
-80.7876
-80.7856
-80.783
-80.7797
-80.7756
-80.7706
-80.7648
-80.7581
-80.7501
-80.7409
-80.7302
-80.7177
-80.7032
-80.6863
-80.6667
-80.6439
-80.6176
-80.5873
-80.5523
-80.5109
-80.4627
-80.8659
-80.8655
-80.8633
-80.8615
-80.8593
-80.8565
-80.853
-80.8487
-80.8437
-80.8378
-80.831
-80.8231
-80.8138
-80.8031
-80.7906
-80.7761
-80.7592
-80.7395
-80.7166
-80.6901
-80.6593
-80.6236
-80.5824
-80.5284
-80.9388
-80.9382
-80.936
-80.9341
-80.9319
-80.9291
-80.9256
-80.9214
-80.9165
-80.9107
-80.9039
-80.896
-80.8868
-80.8761
-80.8637
-80.8492
-80.8324
-80.8128
-80.7901
-80.764
-80.7341
-80.6999
-80.6608
-80.6151
-81.0109
-81.0106
-81.0085
-81.0067
-81.0046
-81.0019
-80.9985
-80.9943
-80.9894
-80.9837
-80.9769
-80.9691
-80.9599
-80.9493
-80.9369
-80.9224
-80.9055
-80.8858
-80.8631
-80.8368
-80.8069
-80.7734
-80.7371
-80.7118
-81.085
-81.0845
-81.0821
-81.0801
-81.0778
-81.0749
-81.0714
-81.0672
-81.0623
-81.0565
-81.0499
-81.0421
-81.033
-81.0224
-81.0101
-80.9956
-80.9787
-80.9589
-80.9357
-80.9085
-80.8763
-80.8389
-80.7936
-80.697
-81.1552
-81.155
-81.153
-81.1513
-81.1493
-81.1468
-81.1435
-81.1395
-81.1348
-81.1293
-81.1227
-81.1151
-81.1062
-81.0958
-81.0836
-81.0693
-81.0525
-81.0329
-81.01
-80.9832
-80.9519
-80.9155
-80.8745
-80.8538
-81.2298
-81.2293
-81.2271
-81.2252
-81.223
-81.2202
-81.2167
-81.2126
-81.2078
-81.2023
-81.1958
-81.1882
-81.1794
-81.1692
-81.1571
-81.143
-81.1265
-81.1071
-81.0844
-81.0577
-81.0265
-80.991
-80.9528
-80.8769
-81.3024
-81.3018
-81.2993
-81.2973
-81.295
-81.2922
-81.2887
-81.2847
-81.28
-81.2746
-81.2682
-81.2609
-81.2523
-81.2423
-81.2306
-81.2168
-81.2007
-81.1818
-81.1596
-81.1336
-81.1032
-81.0684
-81.0294
-80.9865
-81.3719
-81.3717
-81.3696
-81.3678
-81.3658
-81.3632
-81.3599
-81.3561
-81.3516
-81.3463
-81.3402
-81.3331
-81.3248
-81.3151
-81.3037
-81.2904
-81.2747
-81.2563
-81.2347
-81.2093
-81.1794
-81.1442
-81.102
-81.0452
-81.4436
-81.4432
-81.4408
-81.4388
-81.4366
-81.4339
-81.4306
-81.4268
-81.4224
-81.4173
-81.4114
-81.4045
-81.3965
-81.3872
-81.3763
-81.3635
-81.3485
-81.3308
-81.3102
-81.2861
-81.2582
-81.226
-81.1892
-81.1621
-81.511
-81.5108
-81.5087
-81.507
-81.505
-81.5025
-81.4995
-81.496
-81.4918
-81.487
-81.4814
-81.4749
-81.4672
-81.4583
-81.4479
-81.4357
-81.4213
-81.4043
-81.3843
-81.3608
-81.3332
-81.3005
-81.2633
-81.2229
-81.5799
-81.5796
-81.5774
-81.5756
-81.5735
-81.571
-81.568
-81.5644
-81.5604
-81.5557
-81.5503
-81.544
-81.5368
-81.5283
-81.5184
-81.5068
-81.4931
-81.477
-81.4581
-81.4358
-81.4097
-81.3792
-81.3447
-81.2999
-81.6464
-81.6459
-81.6435
-81.6416
-81.6395
-81.637
-81.634
-81.6306
-81.6267
-81.6223
-81.6172
-81.6113
-81.6045
-81.5965
-81.5872
-81.5763
-81.5635
-81.5483
-81.5306
-81.51
-81.4859
-81.4582
-81.426
-81.4008
-81.7083
-81.7082
-81.706
-81.7043
-81.7025
-81.7003
-81.6976
-81.6944
-81.6909
-81.6867
-81.682
-81.6765
-81.6701
-81.6627
-81.654
-81.6438
-81.6317
-81.6176
-81.601
-81.5815
-81.5589
-81.5326
-81.5021
-81.4758
-81.7701
-81.77
-81.7677
-81.7661
-81.7642
-81.762
-81.7593
-81.7562
-81.7528
-81.7489
-81.7444
-81.7393
-81.7334
-81.7265
-81.7184
-81.7089
-81.6977
-81.6844
-81.6689
-81.6506
-81.6293
-81.6045
-81.5769
-81.5535
-81.829
-81.8285
-81.8261
-81.8243
-81.8224
-81.8202
-81.8177
-81.8148
-81.8116
-81.808
-81.8038
-81.7991
-81.7937
-81.7874
-81.78
-81.7712
-81.7609
-81.7487
-81.7343
-81.7172
-81.6973
-81.6743
-81.6486
-81.6244
-81.8824
-81.8823
-81.8802
-81.8785
-81.8768
-81.8748
-81.8725
-81.8698
-81.8669
-81.8636
-81.8599
-81.8556
-81.8507
-81.845
-81.8383
-81.8304
-81.8209
-81.8097
-81.7964
-81.7807
-81.7622
-81.7407
-81.7161
-81.6936
-81.9335
-81.9332
-81.931
-81.9293
-81.9276
-81.9256
-81.9234
-81.921
-81.9183
-81.9154
-81.9121
-81.9083
-81.904
-81.899
-81.893
-81.886
-81.8776
-81.8675
-81.8554
-81.8408
-81.8235
-81.8031
-81.7794
-81.7584
-81.9781
-81.978
-81.9761
-81.9747
-81.9733
-81.9717
-81.9699
-81.9678
-81.9655
-81.963
-81.9602
-81.9569
-81.9532
-81.9489
-81.9438
-81.9377
-81.9304
-81.9215
-81.9106
-81.8974
-81.8812
-81.8612
-81.8369
-81.8109
-82.0222
-82.0218
-82.0196
-82.018
-82.0165
-82.0147
-82.0128
-82.0108
-82.0086
-82.0064
-82.0039
-82.0011
-81.998
-81.9944
-81.9902
-81.9851
-81.979
-81.9715
-81.9624
-81.9512
-81.9374
-81.9206
-81.901
-81.8803
-82.0584
-82.0579
-82.0557
-82.0541
-82.0526
-82.051
-82.0493
-82.0476
-82.0459
-82.0441
-82.0421
-82.0399
-82.0375
-82.0347
-82.0315
-82.0276
-82.0228
-82.017
-82.0098
-82.0009
-81.9899
-81.9766
-81.9603
-81.9425
-82.0872
-82.0871
-82.0852
-82.0838
-82.0827
-82.0814
-82.0801
-82.0788
-82.0775
-82.0761
-82.0747
-82.0732
-82.0715
-82.0695
-82.0672
-82.0645
-82.061
-82.0569
-82.0517
-82.0453
-82.0376
-82.0283
-82.017
-82.0195
-82.1122
-82.1121
-82.1102
-82.1089
-82.1077
-82.1066
-82.1054
-82.1042
-82.1032
-82.1022
-82.1012
-82.1003
-82.0992
-82.0981
-82.0967
-82.0951
-82.093
-82.0903
-82.0868
-82.0826
-82.0773
-82.0712
-82.0656
-82.068
-82.1309
-82.1305
-82.1284
-82.1269
-82.1257
-82.1246
-82.1235
-82.1227
-82.122
-82.1214
-82.1209
-82.1206
-82.1202
-82.1199
-82.1195
-82.1189
-82.1179
-82.1165
-82.1145
-82.1117
-82.1083
-82.1042
-82.0996
-82.1232
-82.1396
-82.1393
-82.1377
-82.1367
-82.1358
-82.1351
-82.1344
-82.1339
-82.1336
-82.1335
-82.1336
-82.1338
-82.1343
-82.1348
-82.1353
-82.1356
-82.1358
-82.1354
-82.1342
-82.1318
-82.1271
-82.1184
-82.1023
-82.0814
-82.1458
-82.1451
-82.1429
-82.1415
-82.1403
-82.1393
-82.1385
-82.1381
-82.138
-82.1382
-82.1387
-82.1396
-82.1408
-82.1422
-82.1438
-82.1455
-82.1471
-82.1484
-82.1492
-82.149
-82.1473
-82.1433
-82.1362
-82.1336
-82.1384
-82.1378
-82.1356
-82.1343
-82.1333
-82.1326
-82.1323
-82.1323
-82.1328
-82.1337
-82.135
-82.1368
-82.139
-82.1416
-82.1445
-82.1478
-82.1511
-82.1544
-82.1574
-82.1595
-82.1604
-82.1588
-82.1534
-82.1524
-82.1175
-82.1179
-82.1167
-82.1162
-82.1159
-82.116
-82.1164
-82.1172
-82.1184
-82.1201
-82.1224
-82.1252
-82.1286
-82.1325
-82.137
-82.142
-82.1474
-82.1531
-82.159
-82.1646
-82.1697
-82.1738
-82.1771
-82.1858
-82.0943
-82.094
-82.0924
-82.0916
-82.0914
-82.0915
-82.0922
-82.0934
-82.0951
-82.0975
-82.1006
-82.1044
-82.1089
-82.1143
-82.1204
-82.1274
-82.1352
-82.1436
-82.1525
-82.1619
-82.1714
-82.1809
-82.1903
-82.2093
-82.0573
-82.0573
-82.0561
-82.0557
-82.0557
-82.0562
-82.0573
-82.059
-82.0614
-82.0645
-82.0685
-82.0734
-82.0792
-82.0861
-82.094
-82.103
-82.1132
-82.1244
-82.1367
-82.1499
-82.1641
-82.1791
-82.1918
-82.19
-82.011
-82.0109
-82.0094
-82.0091
-82.0092
-82.01
-82.0114
-82.0136
-82.0166
-82.0205
-82.0253
-82.0313
-82.0385
-82.0469
-82.0567
-82.0679
-82.0806
-82.0949
-82.1106
-82.128
-82.1469
-82.1672
-82.1905
-82.2448
-81.95
-81.9501
-81.9492
-81.9491
-81.9497
-81.9509
-81.9529
-81.9557
-81.9595
-81.9642
-81.9702
-81.9774
-81.9859
-81.996
-82.0078
-82.0213
-82.0366
-82.0539
-82.0731
-82.0942
-82.117
-82.142
-82.1677
-82.1447
-81.879
-81.8787
-81.8778
-81.8779
-81.8787
-81.8802
-81.8825
-81.8858
-81.8901
-81.8957
-81.9026
-81.9109
-81.9209
-81.9327
-81.9464
-81.9622
-81.9803
-82.0009
-82.024
-82.0501
-82.0794
-82.1123
-82.1527
-82.236
-81.7953
-81.7946
-81.7934
-81.7934
-81.7942
-81.7958
-81.7983
-81.802
-81.8069
-81.8132
-81.8211
-81.8306
-81.8421
-81.8556
-81.8714
-81.8896
-81.9104
-81.934
-81.9605
-81.9899
-82.022
-82.0567
-82.0955
-82.1134
-81.6928
-81.6924
-81.6912
-81.6914
-81.6925
-81.6946
-81.6978
-81.7022
-81.7081
-81.7154
-81.7246
-81.7356
-81.7487
-81.7642
-81.7822
-81.8029
-81.8267
-81.8537
-81.884
-81.9178
-81.955
-81.9957
-82.0396
-82.0717
-81.5695
-81.5702
-81.5702
-81.5713
-81.5735
-81.5766
-81.5808
-81.5863
-81.5933
-81.602
-81.6125
-81.6251
-81.6401
-81.6576
-81.678
-81.7015
-81.7284
-81.7589
-81.7932
-81.8315
-81.874
-81.9204
-81.9709
-82.0144
-81.4386
-81.4386
-81.4383
-81.4393
-81.4415
-81.4448
-81.4494
-81.4556
-81.4635
-81.4732
-81.485
-81.4991
-81.5159
-81.5355
-81.5583
-81.5847
-81.6149
-81.6492
-81.6878
-81.731
-81.7788
-81.8312
-81.8885
-81.9323
-81.2867
-81.2869
-81.2869
-81.2884
-81.2912
-81.2952
-81.3006
-81.3076
-81.3164
-81.3273
-81.3405
-81.3563
-81.3749
-81.3968
-81.4223
-81.4517
-81.4854
-81.5237
-81.5671
-81.6157
-81.6697
-81.7291
-81.7939
-81.8487
-81.1208
-81.1206
-81.1204
-81.1217
-81.1245
-81.1287
-81.1345
-81.1422
-81.1519
-81.1639
-81.1784
-81.1959
-81.2166
-81.2408
-81.269
-81.3016
-81.3391
-81.3818
-81.4302
-81.4848
-81.5461
-81.6146
-81.692
-81.7767
-80.9301
-80.9299
-80.9306
-80.9326
-80.9363
-80.9414
-80.9483
-80.9571
-80.9681
-80.9815
-80.9976
-81.0169
-81.0397
-81.0664
-81.0975
-81.1335
-81.1747
-81.2218
-81.2751
-81.335
-81.4019
-81.4765
-81.5614
-81.6248
-80.7272
-80.7266
-80.7269
-80.7289
-80.7325
-80.7377
-80.7449
-80.7542
-80.7659
-80.7803
-80.7979
-80.8189
-80.8438
-80.8731
-80.9072
-80.9466
-80.9919
-81.0436
-81.1023
-81.1684
-81.2422
-81.3244
-81.4163
-81.4968
-80.5002
-80.4992
-80.499