/*--------------------------------*- C++ -*----------------------------------*\
| =========                 |                                                 |
| \\      /  F ield         | OpenFOAM: The Open Source CFD Toolbox           |
|  \\    /   O peration     | Version:  2.3.0                                 |
|   \\  /    A nd           | Web:      www.OpenFOAM.org                      |
|    \\/     M anipulation  |                                                 |
\*---------------------------------------------------------------------------*/
FoamFile
{
    version     2.0;
    format      ascii;
    class       volScalarField;
    location    "1000";
    object      nut;
}
// * * * * * * * * * * * * * * * * * * * * * * * * * * * * * * * * * * * * * //

dimensions      [0 2 -1 0 0 0 0];

internalField   nonuniform List<scalar> 
38388
(
0.0436515
0.0419285
0.0402528
0.0386296
0.0370567
0.0355324
0.0340555
0.0326241
0.031237
0.0298911
0.0285847
0.0273153
0.0260826
0.024886
0.0237251
0.0225993
0.0215088
0.0204535
0.0194317
0.0184427
0.0174857
0.0165597
0.0156639
0.0147952
0.013954
0.013137
0.0123422
0.0115674
0.0108095
0.0100673
0.00933742
0.00861982
0.00791463
0.00722639
0.00656113
0.00592823
0.00534338
0.00481628
0.00436032
0.00397828
0.00367672
0.0034743
0.00345731
0.0457456
0.044186
0.042667
0.0411907
0.0397549
0.0383583
0.0370005
0.0356819
0.0344011
0.0331577
0.0319484
0.0307707
0.0296223
0.0285029
0.0274115
0.0263474
0.0253102
0.0242999
0.0233158
0.0223583
0.0214269
0.0205213
0.0196422
0.0187896
0.0179653
0.0171693
0.0164052
0.0156723
0.0149749
0.0143145
0.0136916
0.0131086
0.0125641
0.0120576
0.0115891
0.0111599
0.0107708
0.0104262
0.0101318
0.00990712
0.00977527
0.00978898
0.0100714
0.0477255
0.0463265
0.0449616
0.0436306
0.0423294
0.0410554
0.0398076
0.0385867
0.0373939
0.0362299
0.0350939
0.0339858
0.0329052
0.0318507
0.0308213
0.0298165
0.0288354
0.0278773
0.0269413
0.0260276
0.0251352
0.0242642
0.0234147
0.0225867
0.0217799
0.0209964
0.0202365
0.0195032
0.0187986
0.0181271
0.0174969
0.0169158
0.0163935
0.0159354
0.0155428
0.0152172
0.0149666
0.0147958
0.0147159
0.0147358
0.014863
0.0151043
0.0154623
0.0495515
0.0483029
0.0470825
0.0458888
0.0447177
0.043565
0.0424293
0.0413112
0.040212
0.0391337
0.0380779
0.0370448
0.0360347
0.0350479
0.0340835
0.03314
0.0322166
0.031312
0.0304269
0.02956
0.0287135
0.027886
0.0270793
0.0262946
0.0255334
0.0247968
0.0240888
0.0234099
0.022764
0.0221557
0.0215891
0.0210692
0.0206011
0.0201907
0.0198429
0.0195634
0.0193586
0.0192355
0.0191989
0.0192567
0.0194115
0.0196668
0.0200205
0.0512037
0.050093
0.049004
0.0479358
0.0468843
0.0458458
0.044817
0.0437968
0.042787
0.04179
0.0408078
0.0398425
0.0388964
0.0379709
0.0370659
0.0361811
0.0353152
0.0344672
0.0336361
0.032822
0.0320251
0.0312462
0.0304858
0.0297463
0.0290283
0.028335
0.0276671
0.0270288
0.0264217
0.0258498
0.0253183
0.0248318
0.0243939
0.0240108
0.0236886
0.0234325
0.023248
0.0231424
0.0231204
0.0231864
0.0233454
0.023598
0.0239436
0.0526746
0.0516897
0.0507189
0.0497626
0.0488182
0.0478828
0.0469534
0.0460266
0.0451021
0.0441824
0.0432688
0.0423643
0.0414723
0.0405959
0.0397375
0.0388988
0.0380791
0.0372774
0.0364918
0.0357224
0.0349682
0.0342306
0.0335097
0.0328081
0.0321268
0.0314675
0.0308335
0.0302267
0.0296497
0.0291054
0.0285995
0.0281353
0.0277183
0.0273542
0.0270491
0.026807
0.0266347
0.0265377
0.0265214
0.0265909
0.0267492
0.0269978
0.0273368
0.0539737
0.053099
0.0522316
0.0513726
0.0505216
0.0496764
0.0488348
0.0479932
0.0471494
0.0463052
0.0454604
0.0446166
0.0437759
0.0429422
0.0421214
0.0413169
0.0405316
0.0397652
0.0390161
0.0382814
0.0375618
0.0368576
0.0361695
0.0354983
0.0348467
0.0342156
0.0336082
0.0330276
0.0324762
0.0319554
0.0314694
0.0310235
0.0306225
0.0302728
0.0299795
0.0297485
0.0295845
0.0294934
0.0294807
0.0295501
0.029707
0.0299521
0.0302856
0.0551132
0.0543353
0.0535557
0.05278
0.0520093
0.0512417
0.0504734
0.0497056
0.0489319
0.0481573
0.0473792
0.0465969
0.0458104
0.045023
0.044238
0.0434635
0.0427046
0.0419648
0.0412436
0.0405379
0.039846
0.0391682
0.0385059
0.0378604
0.0372319
0.0366223
0.0360358
0.0354765
0.0349479
0.0344486
0.0339803
0.0335498
0.0331625
0.0328231
0.0325395
0.0323172
0.0321607
0.0320761
0.0320652
0.0321337
0.0322877
0.0325298
0.0328596
0.0561211
0.0554238
0.0547128
0.0540041
0.053298
0.0526017
0.0518921
0.0511928
0.05047
0.0497514
0.0490321
0.0483064
0.0475725
0.0468336
0.0460857
0.0453416
0.044607
0.043888
0.0431897
0.0425101
0.0418434
0.0411876
0.0405453
0.0399213
0.0393149
0.0387241
0.0381521
0.0376072
0.0370953
0.036622
0.0361704
0.0357549
0.0353818
0.035053
0.0347756
0.0345652
0.034412
0.034339
0.0343332
0.0343986
0.034549
0.0347882
0.0351169
0.0041106
0.00540588
0.00639201
0.00742638
0.0085286
0.00969058
0.0108996
0.012145
0.0134198
0.0147196
0.0160414
0.0173816
0.0187394
0.0201135
0.0215028
0.0229095
0.0243298
0.0257652
0.0272138
0.028677
0.0301538
0.0316445
0.0331484
0.0346657
0.0361959
0.0377385
0.0392935
0.0408605
0.0424394
0.0440295
0.0456301
0.0472407
0.048861
0.0504903
0.0521278
0.0537725
0.0554238
0.0570807
0.0587428
0.0604087
0.0620779
0.0637491
0.0654178
0.0105778
0.0112416
0.0120107
0.0128786
0.0138374
0.0148718
0.0159719
0.0171254
0.0183236
0.0195562
0.0208183
0.0221056
0.0234124
0.0247349
0.0260724
0.0274211
0.028781
0.03015
0.0315294
0.0329168
0.0343123
0.0357159
0.0371267
0.038545
0.0399698
0.0414014
0.0428394
0.0442835
0.0457337
0.0471895
0.0486505
0.0501171
0.0515885
0.0530645
0.0545448
0.0560287
0.0575162
0.0590066
0.0604991
0.0619937
0.0634899
0.0649878
0.0664849
0.0159304
0.0165053
0.0171872
0.0179679
0.0188368
0.0197829
0.0207969
0.0218674
0.0229855
0.0241429
0.025332
0.0265472
0.0277834
0.029037
0.0303043
0.0315834
0.0328711
0.0341667
0.0354692
0.036777
0.0380898
0.0394059
0.0407261
0.0420486
0.0433739
0.0447019
0.0460319
0.0473637
0.0486973
0.0500324
0.0513691
0.0527075
0.0540473
0.0553882
0.0567302
0.0580731
0.0594168
0.060761
0.062105
0.0634488
0.0647921
0.0661341
0.0674695
0.0204697
0.0210156
0.0216592
0.0223917
0.0232081
0.0240988
0.0250542
0.0260658
0.0271237
0.0282211
0.0293507
0.0305064
0.0316831
0.032876
0.0340822
0.0352984
0.0365218
0.0377509
0.0389841
0.0402207
0.0414581
0.0426965
0.0439351
0.0451734
0.0464108
0.047647
0.0488817
0.0501147
0.0513463
0.0525762
0.0538045
0.0550312
0.0562564
0.0574798
0.0587018
0.0599221
0.0611409
0.0623576
0.0635723
0.0647845
0.065994
0.0671998
0.0683982
0.0243799
0.0249077
0.025526
0.0262297
0.0270119
0.0278644
0.0287789
0.0297471
0.0307608
0.0318118
0.0328942
0.0340019
0.0351289
0.0362713
0.0374248
0.0385872
0.0397544
0.0409256
0.0420988
0.0432721
0.0444446
0.0456153
0.0467831
0.0479473
0.049108
0.0502644
0.0514166
0.0525642
0.0537074
0.0548463
0.0559809
0.0571112
0.0582374
0.0593595
0.0604779
0.0615921
0.0627023
0.0638086
0.0649108
0.0660087
0.0671021
0.0681907
0.0692741
0.0277639
0.0282793
0.028881
0.0295641
0.0303215
0.031147
0.0320307
0.0329662
0.0339457
0.034961
0.0360057
0.0370733
0.0381597
0.0392598
0.0403695
0.0414855
0.0426056
0.0437269
0.0448481
0.0459674
0.0470843
0.0481966
0.0493033
0.0504039
0.0514982
0.052586
0.0536672
0.0547415
0.0558086
0.0568692
0.0579231
0.0589705
0.0600116
0.0610466
0.0620755
0.0630983
0.0641149
0.0651256
0.06613
0.0671283
0.0681207
0.069107
0.0700871
0.0307061
0.0312123
0.0318022
0.0324699
0.0332091
0.0340127
0.0348733
0.0357831
0.0367358
0.0377225
0.0387368
0.0397721
0.0408237
0.041888
0.042961
0.0440385
0.0451176
0.0461965
0.0472732
0.0483471
0.049416
0.0504784
0.0515324
0.052578
0.0536155
0.0546441
0.0556646
0.0566757
0.0576776
0.0586706
0.0596553
0.0606317
0.0615996
0.0625594
0.0635116
0.0644556
0.0653912
0.0663189
0.0672387
0.0681502
0.0690545
0.0699515
0.0708385
0.0332748
0.0337734
0.0343544
0.0350116
0.0357364
0.0365217
0.0373616
0.0382527
0.039184
0.0401476
0.0411364
0.0421445
0.043167
0.0442011
0.0452434
0.0462879
0.0473321
0.0483741
0.0494131
0.0504482
0.0514783
0.0524973
0.0535043
0.0545017
0.0554917
0.0564687
0.0574386
0.0583939
0.0593402
0.0602741
0.0611998
0.0621156
0.0630205
0.063916
0.0648026
0.0656783
0.0665432
0.0673992
0.0682458
0.0690809
0.0699079
0.0707281
0.071535
0.0355279
0.0360174
0.0365926
0.037244
0.0379596
0.0387282
0.0395441
0.0404217
0.0413339
0.0422797
0.0432466
0.0442295
0.0452269
0.0462375
0.0472566
0.0482696
0.0492843
0.0502926
0.0512995
0.0523027
0.0533029
0.0542794
0.0552434
0.0562006
0.0571564
0.0580818
0.0590178
0.0599144
0.0608198
0.0616969
0.062577
0.0634399
0.0642896
0.0651313
0.0659627
0.066777
0.0675808
0.0683769
0.0691617
0.0699268
0.0706863
0.0714417
0.0721916
0.0865505
0.0823787
0.0783192
0.0743712
0.0705377
0.0668214
0.0632231
0.059743
0.0563827
0.0531417
0.0500192
0.0470138
0.0441245
0.0413496
0.0386866
0.0361331
0.0336882
0.0313488
0.029111
0.0269736
0.0249342
0.0229905
0.0211386
0.0193762
0.0177016
0.016111
0.014604
0.0131772
0.0118291
0.0105575
0.00936109
0.00823686
0.0071853
0.00620509
0.00529528
0.00445529
0.00368553
0.00298764
0.00236191
0.00181514
0.00139401
0.00100002
0.000583498
0.0881253
0.0842728
0.0805079
0.0768304
0.0732433
0.0697482
0.066347
0.0630403
0.0598296
0.0567147
0.0536954
0.0507718
0.0479432
0.0452084
0.0425667
0.0400167
0.0375576
0.0351869
0.0329043
0.0307071
0.0285955
0.0265664
0.0246187
0.0227511
0.0209612
0.0192502
0.0176144
0.0160537
0.0145673
0.013155
0.0118144
0.0105468
0.00935207
0.00822996
0.00718134
0.00620842
0.00531398
0.00450648
0.00381915
0.00316704
0.00252111
0.00183589
0.00104967
0.0896937
0.0861319
0.0826389
0.0792142
0.0758586
0.0725747
0.0693638
0.0662266
0.0631642
0.0601773
0.0572664
0.0544321
0.051674
0.0489916
0.0463841
0.0438527
0.0413956
0.0390128
0.0367022
0.0344651
0.0322997
0.0302054
0.0281816
0.0262277
0.0243434
0.0225286
0.0207824
0.0191054
0.017498
0.0159593
0.0144909
0.0130936
0.0117688
0.0105191
0.00934825
0.0082628
0.00727943
0.00638172
0.00550067
0.00460692
0.00366411
0.0026045
0.00142701
0.0912228
0.087929
0.0846874
0.0814958
0.0783556
0.0752681
0.0722352
0.0692579
0.0663371
0.0634739
0.060669
0.0579239
0.0552382
0.0526119
0.0500465
0.0475406
0.0450949
0.0427092
0.0403843
0.0381193
0.0359138
0.0337689
0.0316846
0.0296602
0.0276973
0.0257955
0.023956
0.0221795
0.0204665
0.0188195
0.0172401
0.0157305
0.0142955
0.0129399
0.0116727
0.0105168
0.00940402
0.00829806
0.00717319
0.00599853
0.00472965
0.00328507
0.00174211
0.0926837
0.0896461
0.0866378
0.0836616
0.0807197
0.0778143
0.0749469
0.0721186
0.0693316
0.0665859
0.0638834
0.0612249
0.058611
0.0560428
0.0535212
0.0510461
0.0486182
0.046238
0.0439059
0.0416224
0.0393886
0.0372051
0.0350724
0.0329914
0.0309628
0.0289886
0.0270698
0.0252083
0.0234066
0.021667
0.0199935
0.0183908
0.0168654
0.0154292
0.0140857
0.0127754
0.011466
0.0101345
0.00875559
0.00729487
0.00569944
0.00388713
0.00201217
0.094105
0.0912802
0.088481
0.0857014
0.0829422
0.0802044
0.0774897
0.0748001
0.0721373
0.0695024
0.0668969
0.0643216
0.061778
0.0592674
0.0567905
0.0543491
0.0519441
0.0495748
0.0472421
0.0449477
0.0426936
0.0404813
0.0383114
0.0361846
0.0341031
0.0320686
0.0300836
0.0281513
0.0262752
0.0244589
0.0227074
0.0210286
0.0194354
0.0179133
0.0164197
0.0149263
0.0134118
0.0118534
0.0102228
0.00848343
0.00657553
0.00442061
0.00224636
0.0954289
0.0928105
0.0902059
0.0876079
0.0850165
0.082433
0.0798589
0.0772969
0.074749
0.072218
0.0697035
0.0672078
0.0647319
0.0622768
0.0598445
0.0574377
0.0550593
0.0527067
0.0503789
0.0480783
0.0458097
0.0435758
0.0413787
0.0392187
0.0370947
0.0350108
0.0329712
0.03098
0.029043
0.0271643
0.0253504
0.0236105
0.0219264
0.020269
0.0186127
0.0169377
0.0152228
0.013444
0.0115709
0.00956472
0.00736234
0.00489262
0.00245177
0.0966322
0.0942275
0.0918066
0.0893756
0.0869407
0.0844985
0.082053
0.0796072
0.0771646
0.0747302
0.0723021
0.0698811
0.0674699
0.0650701
0.06268
0.0603046
0.0579547
0.0556274
0.0533126
0.0510079
0.0487273
0.0464755
0.0442612
0.0420796
0.0399248
0.0377989
0.0357158
0.0336751
0.0316887
0.0297618
0.0278959
0.0260694
0.0242619
0.0224622
0.0206479
0.0187996
0.0168952
0.014909
0.0128067
0.0105451
0.0080629
0.00530747
0.00264245
0.0978076
0.0955479
0.0932865
0.0910046
0.0887171
0.0864023
0.0840733
0.0817351
0.0793835
0.077041
0.0746947
0.0723425
0.0699944
0.06765
0.0653059
0.0629491
0.0606216
0.0583308
0.0560489
0.0537382
0.0514477
0.0491723
0.0469429
0.044757
0.0425928
0.0404216
0.0383108
0.0362212
0.0341943
0.0322208
0.0302869
0.028367
0.0264187
0.0244831
0.0225195
0.0205132
0.0184304
0.0162532
0.0139466
0.0114411
0.00866705
0.00560574
0.0027167
0.000456855
0.000519376
0.000699887
0.000873921
0.00105586
0.00126088
0.00150482
0.00179897
0.00212952
0.00249098
0.00288133
0.00329936
0.0037449
0.0042176
0.00471797
0.0052463
0.00580317
0.00638862
0.00700352
0.007648
0.00832263
0.00902781
0.00976389
0.010532
0.0113326
0.0121663
0.0130332
0.0139345
0.0148711
0.0158432
0.0168517
0.0178974
0.0189808
0.0201024
0.0212633
0.0224638
0.0237048
0.0249865
0.0263093
0.0276737
0.0290804
0.0305296
0.0320233
0.000613665
0.000675967
0.000873986
0.00108584
0.00132563
0.00160384
0.00192453
0.00228949
0.00268816
0.00311501
0.00356801
0.00404634
0.00454988
0.00507846
0.00563143
0.00620947
0.00681251
0.00744053
0.00809333
0.00877198
0.00947575
0.0102054
0.0109613
0.0117436
0.0125532
0.0133901
0.014255
0.0151482
0.0160706
0.0170224
0.0180041
0.0190165
0.0200601
0.0211354
0.0222429
0.0233831
0.0245567
0.025764
0.0270057
0.0282818
0.029593
0.03094
0.0323259
0.000766878
0.000833336
0.00106762
0.00133481
0.00164315
0.00199383
0.00238379
0.00281425
0.0032753
0.00376202
0.00427289
0.0048072
0.00536429
0.00594372
0.00654518
0.00716812
0.00781277
0.00847888
0.00916604
0.00987452
0.0106041
0.0113551
0.0121274
0.0129216
0.0137378
0.0145764
0.0154374
0.0163215
0.0172287
0.01816
0.0191151
0.0200945
0.021099
0.0221289
0.0231845
0.0242664
0.0253748
0.0265103
0.0276731
0.0288635
0.0300816
0.0313278
0.032602
0.000909222
0.000994482
0.00127861
0.00160786
0.00198319
0.00239873
0.0028503
0.00334078
0.003858
0.00439902
0.00496225
0.00554675
0.00615184
0.00677657
0.00742074
0.00808368
0.00876479
0.00946372
0.0101803
0.0109142
0.0116656
0.0124342
0.0132202
0.0140234
0.0148443
0.0156827
0.0165389
0.017413
0.0183055
0.0192162
0.0201457
0.0210942
0.0220619
0.0230494
0.0240568
0.0250844
0.0261326
0.0272015
0.0282914
0.0294022
0.0305338
0.0316856
0.032857
0.00104351
0.001162
0.00150229
0.00189301
0.00232885
0.00280171
0.00330959
0.00385338
0.00442126
0.00501121
0.00562153
0.00625124
0.00689914
0.00756438
0.0082462
0.00894395
0.00965697
0.0103845
0.0111265
0.0118825
0.0126522
0.0134356
0.0142326
0.0150429
0.0158667
0.016704
0.0175546
0.0184189
0.0192968
0.0201883
0.0210937
0.0220134
0.0229471
0.0238954
0.0248584
0.0258361
0.026829
0.0278369
0.0288599
0.0298979
0.0309504
0.0320166
0.0330965
0.00117292
0.00133464
0.00173153
0.00217896
0.00266837
0.00319192
0.00375231
0.00434383
0.0049577
0.00559177
0.00624424
0.00691431
0.00760041
0.00830177
0.00901719
0.00974563
0.0104864
0.0112393
0.0120033
0.0127783
0.0135641
0.0143601
0.0151663
0.0159822
0.0168079
0.0176431
0.0184881
0.0193425
0.0202066
0.0210803
0.0219634
0.0228563
0.0237587
0.0246709
0.0255932
0.0265255
0.0274677
0.0284199
0.0293819
0.0303535
0.0313344
0.0323246
0.0333262
0.00130018
0.0015118
0.001962
0.00245974
0.0029962
0.00356581
0.00417337
0.0048077
0.00546283
0.00613661
0.0068272
0.00753358
0.00825411
0.00898756
0.0097329
0.0104889
0.0112546
0.0120298
0.0128136
0.0136056
0.0144051
0.015212
0.0160262
0.0168467
0.0176733
0.0185059
0.0193447
0.0201899
0.0210413
0.0218985
0.0227614
0.0236294
0.0245024
0.0253812
0.0262658
0.0271565
0.0280527
0.0289543
0.0298607
0.0307721
0.0316881
0.0326086
0.0335336
0.00142603
0.00167963
0.0021773
0.00272101
0.00330119
0.00391493
0.00456585
0.00524055
0.00593425
0.00664474
0.00737074
0.00811126
0.00886454
0.00962812
0.0104014
0.0111825
0.0119707
0.0127659
0.0135672
0.0143741
0.0151862
0.016002
0.0168232
0.0176472
0.0184718
0.0192992
0.0201315
0.0209681
0.0218083
0.0226514
0.0234958
0.0243393
0.0251829
0.0260297
0.02688
0.027733
0.0285882
0.029444
0.0302998
0.0311561
0.0320133
0.0328708
0.0337291
0.00153462
0.00188452
0.00244026
0.0030255
0.0036456
0.00430131
0.00498851
0.00569428
0.00641762
0.00715894
0.00792008
0.00870045
0.00948679
0.010276
0.0110746
0.0118684
0.0126722
0.0134847
0.0142961
0.0151143
0.0159351
0.0167529
0.0175849
0.0184057
0.0192123
0.0200289
0.0208559
0.0216866
0.0225196
0.0233532
0.0241809
0.0249929
0.025801
0.0266187
0.027438
0.0282584
0.0290781
0.0298929
0.0307019
0.0315076
0.0323111
0.0331125
0.033911
4.75666e-05
0.000367056
0.000854873
0.00147274
0.00209324
0.00271628
0.00334032
0.00396321
0.00458502
0.00521393
0.00585388
0.00650752
0.0071775
0.00786586
0.00857222
0.00929589
0.0100379
0.0107988
0.0115809
0.0123861
0.0132167
0.014075
0.0149647
0.0158877
0.0168464
0.0178431
0.0188798
0.0199585
0.0210802
0.022245
0.0234542
0.0247072
0.0260047
0.0273464
0.028733
0.0301653
0.0316448
0.0331735
0.0347532
0.0363862
0.0380739
0.0398194
0.0416171
7.1264e-06
0.000170976
0.000405585
0.000740501
0.00119179
0.00176383
0.00240259
0.0030655
0.00374923
0.00444678
0.00514759
0.00584659
0.00654076
0.00722851
0.00791316
0.00859888
0.00928976
0.00998882
0.0106995
0.0114251
0.0121697
0.0129373
0.0137325
0.0145593
0.0154225
0.016326
0.0172741
0.0182703
0.0193168
0.0204161
0.0215697
0.0227782
0.0240414
0.0253591
0.0267306
0.0281557
0.0296345
0.0311675
0.0327557
0.0344002
0.0361027
0.0378652
0.0396863
2.85249e-06
0.000178313
0.000322563
0.000545095
0.000860944
0.00126659
0.00176259
0.00235093
0.00303506
0.00380181
0.00457792
0.0053483
0.00610982
0.00686202
0.00760451
0.00833721
0.0090597
0.00977347
0.0104806
0.0111842
0.0118878
0.0125961
0.0133143
0.0140486
0.014806
0.0155935
0.0164187
0.0172885
0.0182093
0.0191869
0.0202262
0.0213302
0.0225009
0.0237391
0.025045
0.0264175
0.0278556
0.0293586
0.0309259
0.0325573
0.0342529
0.0360137
0.0378397
4.26088e-06
0.000163776
0.000297426
0.000520328
0.00080698
0.00116213
0.00158892
0.00209345
0.00268177
0.00335972
0.00412299
0.00492338
0.00573248
0.00653905
0.00733819
0.00812794
0.00890692
0.00967378
0.0104278
0.0111687
0.0118969
0.0126138
0.0133218
0.0140249
0.0147288
0.0154407
0.0161694
0.0169241
0.017715
0.0185527
0.0194468
0.0204056
0.0214363
0.0225438
0.0237315
0.0250005
0.0263505
0.0277812
0.0292905
0.030877
0.0325394
0.0342765
0.0360872
3.9652e-06
0.000163412
0.000290401
0.000502149
0.000774548
0.00110869
0.00150485
0.00196724
0.00250113
0.00311185
0.00380448
0.00458159
0.00541432
0.00626434
0.007114
0.00795649
0.00878865
0.00960853
0.0104145
0.0112054
0.0119802
0.0127379
0.0134784
0.0142022
0.014911
0.0156082
0.0162995
0.0169925
0.017697
0.0184245
0.019188
0.0200006
0.0208752
0.0218232
0.0228543
0.0239751
0.0251899
0.0265008
0.0279077
0.0294093
0.0310031
0.0326869
0.0344588
4.54221e-06
0.000160285
0.000285879
0.000496896
0.000762968
0.00108535
0.00146419
0.00190295
0.00240606
0.0029783
0.00362501
0.00435134
0.00515837
0.00602189
0.0069078
0.00779672
0.00867956
0.00955148
0.0104099
0.0112529
0.0120789
0.0128862
0.0136731
0.0144388
0.0151829
0.0159051
0.0166073
0.0172929
0.0179676
0.01864
0.0193212
0.020025
0.0207668
0.0215628
0.0224292
0.02338
0.0244267
0.0255781
0.0268391
0.0282116
0.0296957
0.0312908
0.0330015
4.84045e-06
0.000158831
0.000283677
0.000492818
0.000754595
0.0010696
0.00143758
0.00186147
0.00234495
0.00289215
0.00350751
0.0041958
0.00496252
0.00580786
0.00670929
0.00763489
0.00856424
0.00948692
0.0103977
0.0112937
0.0121725
0.0130319
0.0138701
0.0146851
0.0154755
0.0162399
0.0169775
0.0176887
0.0183752
0.0190409
0.0196929
0.0203408
0.0209981
0.0216811
0.0224083
0.0231991
0.0240722
0.0250445
0.0261292
0.0273354
0.0286689
0.0301336
0.0317389
5.23162e-06
0.000157
0.000282272
0.000490462
0.000749397
0.0010589
0.00141905
0.00183219
0.00230157
0.00283103
0.0034241
0.00408552
0.00482038
0.00563305
0.00652243
0.00746563
0.00843198
0.00940146
0.0103636
0.0113129
0.0122453
0.0131584
0.0140502
0.014918
0.0157599
0.0165738
0.0173577
0.0181106
0.0188316
0.0195213
0.0201824
0.0208202
0.0214429
0.0220632
0.0226972
0.0233648
0.0240878
0.0248891
0.0257904
0.0268098
0.0279621
0.0292583
0.0307093
5.5247e-06
0.000154913
0.000280598
0.000487779
0.000744128
0.00104915
0.00140296
0.00180765
0.00226608
0.00278161
0.00335783
0.00399868
0.00470874
0.00549253
0.00635458
0.00729189
0.00827957
0.00928795
0.010298
0.0112991
0.0122855
0.0132531
0.0141996
0.0151224
0.0160188
0.0168862
0.0177221
0.0185246
0.0192918
0.020022
0.0207152
0.021373
0.0219992
0.0226012
0.0231901
0.0237822
0.0243977
0.0250606
0.025797
0.0266329
0.0275924
0.0286961
0.0299641
5.79497e-06
0.000152538
0.000278586
0.000484686
0.000738556
0.00103938
0.00138748
0.00178486
0.00223396
0.00273793
0.00330004
0.00392395
0.00461387
0.00537421
0.00620965
0.00712378
0.00811094
0.00914433
0.010195
0.0112451
0.0122841
0.0133065
0.0143084
0.015287
0.0162393
0.0171628
0.0180542
0.0189109
0.0197306
0.0205107
0.021249
0.021945
0.0225991
0.0232145
0.0237974
0.0243582
0.0249128
0.0254818
0.0260909
0.0267691
0.0275471
0.0284555
0.0295267
5.99604e-06
0.000149809
0.000276215
0.000480977
0.000732096
0.0010289
0.00137161
0.00176197
0.00220247
0.0026962
0.00324589
0.00385509
0.00452763
0.00526767
0.00607968
0.00696805
0.00793624
0.00897469
0.0100541
0.0111469
0.0122355
0.0133113
0.0143685
0.0154032
0.0164123
0.0173929
0.0183418
0.0192556
0.0201318
0.020967
0.0217583
0.0225033
0.0232006
0.02385
0.0244541
0.0250181
0.0255522
0.0260718
0.0265983
0.027159
0.0277862
0.0285171
0.0293957
6.1613e-06
0.000147031
0.00027343
0.000476528
0.000724916
0.0010174
0.00135451
0.00173822
0.00217061
0.00265448
0.00319261
0.0037883
0.00444522
0.00516696
0.005958
0.00682283
0.00776592
0.0087893
0.00987919
0.0110039
0.0121372
0.0132636
0.0143746
0.0154649
0.0165308
0.0175688
0.018576
0.0195487
0.0204837
0.0213774
0.0222263
0.0230272
0.023777
0.0244737
0.0251168
0.025708
0.0262525
0.0267601
0.0272461
0.0277333
0.0282513
0.0288383
0.0295445
6.24239e-06
0.000143934
0.000270195
0.000471472
0.000716806
0.00100493
0.00133654
0.0017134
0.00213757
0.00261175
0.00313863
0.00372147
0.00436349
0.00506815
0.00583981
0.00668292
0.00760142
0.00860038
0.00967991
0.0108204
0.011989
0.0131615
0.0143239
0.0154683
0.0165901
0.0176856
0.018751
0.0197831
0.020778
0.0217322
0.0226416
0.0235024
0.0243106
0.0250629
0.0257569
0.0263915
0.0269682
0.0274919
0.0279724
0.0284263
0.028878
0.0293621
0.0299271
6.27991e-06
0.000140928
0.000266769
0.000466006
0.000708148
0.000991714
0.00131751
0.00168721
0.00210316
0.00256767
0.00308341
0.00365377
0.00428129
0.0049697
0.0057231
0.00654545
0.00744091
0.00841424
0.00947015
0.0106057
0.011795
0.0130054
0.0142151
0.0154117
0.0165881
0.0177399
0.0188631
0.0199541
0.0210094
0.0220247
0.022996
0.0239191
0.0247894
0.0256027
0.0263553
0.0270441
0.0276678
0.0282277
0.0287291
0.0291823
0.0296057
0.0300276
0.0304904
6.26397e-06
0.000137812
0.000263132
0.000460222
0.000698956
0.000977731
0.00129752
0.00166015
0.00206789
0.00252274
0.00302734
0.00358493
0.00419825
0.00487072
0.00560607
0.00640834
0.0072818
0.00823068
0.00925995
0.0103734
0.0115636
0.0127995
0.0140497
0.0152946
0.0165236
0.0177301
0.01891
0.0200593
0.0211743
0.0222509
0.0232847
0.0242712
0.0252055
0.0260831
0.026899
0.0276489
0.0283297
0.0289398
0.0294808
0.0299581
0.0303839
0.030779
0.0311759
6.22508e-06
0.000134788
0.000259362
0.000454102
0.000689317
0.000963172
0.00127702
0.00163255
0.00203174
0.00247696
0.00297045
0.00351521
0.00411439
0.00477113
0.00548883
0.00627135
0.00712321
0.00804819
0.0090511
0.0101369
0.0113085
0.0125517
0.0138315
0.015119
0.0163972
0.0176565
0.0188916
0.020098
0.0212716
0.0224086
0.0235046
0.0245547
0.025554
0.0264973
0.0273795
0.028195
0.0289393
0.0296091
0.0302028
0.030722
0.0311732
0.0315699
0.031934
6.14375e-06
0.000131732
0.000255258
0.000447556
0.000679165
0.000948125
0.00125594
0.00160422
0.00199498
0.00243051
0.00291298
0.0034452
0.00403023
0.00467125
0.00537143
0.00613474
0.00696521
0.00786671
0.008844
0.00990196
0.0110453
0.0122745
0.0135683
0.0148894
0.0162115
0.0175209
0.0188088
0.0200706
0.0213016
0.0224978
0.023655
0.0247681
0.0258322
0.026842
0.0277916
0.0286752
0.0294872
0.0302228
0.0308781
0.0314518
0.0319457
0.0323668
0.0327274
6.06474e-06
0.000128852
0.000251202
0.000441089
0.000669114
0.00093311
0.00123479
0.00157594
0.00195824
0.00238398
0.00285548
0.00337531
0.00394639
0.00457172
0.00525467
0.00599895
0.00680823
0.00768666
0.0086387
0.00966932
0.010783
0.0119845
0.0132711
0.0146119
0.0159708
0.0173258
0.018664
0.0199791
0.0212658
0.0225197
0.0237368
0.0249119
0.02604
0.0271159
0.0281332
0.029086
0.0299679
0.030773
0.0314959
0.0321329
0.0326825
0.0331464
0.0335304
5.96206e-06
0.000126095
0.000247087
0.000434482
0.000658669
0.000917821
0.00121366
0.00154771
0.00192166
0.00233769
0.00279833
0.0033059
0.00386313
0.00447302
0.00513893
0.00586442
0.00665316
0.00750894
0.00843635
0.00944001
0.0105247
0.0116951
0.0129559
0.0142969
0.0156811
0.0170755
0.0184605
0.0198264
0.0211666
0.0224766
0.0237519
0.0249874
0.0261785
0.0273194
0.028404
0.0294259
0.0303787
0.0312554
0.0320496
0.0327559
0.0333703
0.0338914
0.034321
5.81957e-06
0.000123326
0.000242978
0.000427773
0.000648101
0.000902482
0.0011924
0.00151933
0.00188512
0.00229191
0.00274179
0.00323722
0.00378094
0.00437581
0.00502501
0.00573217
0.0065006
0.00733421
0.00823746
0.00921485
0.0102709
0.0114107
0.0126395
0.0139596
0.0153522
0.0167763
0.018203
0.0196163
0.0210079
0.0223719
0.0237033
0.0249976
0.0262499
0.0274544
0.0286051
0.0296956
0.0307191
0.0316682
0.0325357
0.0333149
0.0340002
0.0345878
0.0350771
5.65741e-06
0.000120412
0.000238572
0.000420712
0.000637291
0.000886996
0.00117115
0.00149125
0.00184913
0.00224671
0.00268621
0.0031699
0.00370044
0.00428047
0.00491335
0.00560253
0.0063511
0.00716308
0.00804287
0.00899458
0.0100227
0.0111324
0.0123291
0.0136176
0.0149966
0.0164363
0.017897
0.0193535
0.0207934
0.0222091
0.0235948
0.0249459
0.0262574
0.0275238
0.0287393
0.0298971
0.0309902
0.0320115
0.0329529
0.0338069
0.0345665
0.035226
0.0357822
5.49827e-06
0.000117578
0.000234089
0.000413705
0.000626599
0.000871469
0.00114985
0.00146335
0.00181348
0.00220219
0.00263149
0.00310371
0.00362142
0.00418723
0.00480439
0.00547602
0.00620547
0.00699679
0.00785359
0.00878028
0.00978143
0.010862
0.012027
0.0132817
0.0146309
0.0160668
0.0175496
0.0190432
0.0205279
0.0219925
0.0234304
0.0248363
0.026205
0.0275315
0.0288098
0.0300332
0.0311948
0.0322871
0.033302
0.034231
0.0350665
0.0358008
0.0364279
5.32313e-06
0.000114664
0.000229468
0.000406607
0.000615779
0.000855858
0.00112869
0.00143561
0.00177811
0.00215819
0.00257774
0.00303895
0.00354432
0.00409641
0.00469825
0.0053529
0.00606391
0.00683498
0.00766963
0.0085722
0.00954744
0.0105998
0.0117341
0.0129558
0.014271
0.0156823
0.0171707
0.0186923
0.0202163
0.0217269
0.0232146
0.0246729
0.0260969
0.0274814
0.0288204
0.0301075
0.0313358
0.0324977
0.033585
0.0345886
0.0355001
0.0363105
0.0370119
5.1387e-06
0.000111719
0.000224729
0.000399298
0.000604721
0.000840245
0.00110759
0.00140816
0.00174342
0.00211508
0.00252511
0.00297562
0.00346908
0.00400795
0.00459501
0.00523353
0.00592676
0.00667833
0.00749174
0.00837115
0.00932099
0.0103462
0.0114512
0.0126415
0.0139225
0.0152998
0.0167727
0.0183086
0.0198651
0.0214175
0.0229518
0.0244603
0.0259374
0.0273777
0.0287752
0.030124
0.0314171
0.0326467
0.0338048
0.0348822
0.0358694
0.0367563
0.037533
4.96618e-06
0.000108874
0.000219909
0.000391819
0.000593506
0.00082455
0.00108645
0.00138068
0.00170873
0.0020722
0.00247302
0.00291337
0.00339541
0.0039216
0.00449466
0.00511756
0.00579385
0.00652667
0.00731968
0.0081769
0.00910281
0.0101017
0.0111786
0.0123384
0.0135866
0.0149292
0.016371
0.0179026
0.0194809
0.0210691
0.0226468
0.024203
0.0257309
0.0272247
0.0286789
0.0300871
0.0314428
0.0327383
0.0339654
0.0351153
0.0361778
0.0371423
0.0379959
4.75844e-06
0.000105783
0.000214831
0.000383978
0.000581963
0.000808519
0.00106513
0.00135325
0.00167429
0.00202979
0.00242167
0.00285208
0.00332305
0.00383702
0.00439662
0.00500461
0.00566453
0.00637959
0.00715313
0.0079892
0.0088922
0.00986612
0.0109161
0.0120468
0.0132637
0.0145728
0.0159794
0.017487
0.0190721
0.0206881
0.0223046
0.0239053
0.0254815
0.0270269
0.0285353
0.0300008
0.0314169
0.032776
0.03407
0.0352904
0.0364276
0.0374713
0.0384136
4.56493e-06
0.00010274
0.000209608
0.000376011
0.000570379
0.000792487
0.00104384
0.00132582
0.00163998
0.00198774
0.00237098
0.00279166
0.00325195
0.00375416
0.00430081
0.00489473
0.00553901
0.00623703
0.00699206
0.00780795
0.0086889
0.00963905
0.0106634
0.0117664
0.0129535
0.0142305
0.0156028
0.0170764
0.0186492
0.0202814
0.0219301
0.0235717
0.0251937
0.0267881
0.0283484
0.0298688
0.0313429
0.0327632
0.0341219
0.0354104
0.0366191
0.0377371
0.0387514
4.3742e-06
9.96264e-05
0.000204153
0.000367814
0.000558452
0.000776041
0.0010222
0.00129829
0.00160574
0.00194594
0.00232074
0.00273196
0.00318186
0.00367271
0.0042069
0.0047873
0.00541671
0.00609845
0.00683582
0.00763257
0.00849261
0.00942017
0.0104201
0.0114969
0.0126558
0.0139023
0.0152418
0.0166808
0.0182246
0.0198568
0.0215291
0.0232069
0.0248714
0.0265123
0.0281222
0.0296951
0.0312247
0.0327039
0.0341249
0.0354791
0.0367572
0.0379494
0.0390473
4.18044e-06
9.64163e-05
0.000198656
0.00035954
0.000546448
0.000759494
0.0010004
0.00127057
0.00157143
0.00190418
0.00227075
0.00267297
0.00311272
0.00359248
0.00411468
0.00468184
0.00529696
0.0059631
0.00668369
0.00746222
0.00830246
0.00920883
0.0101856
0.0112374
0.0123694
0.0135868
0.0148955
0.0163015
0.0178111
0.0194248
0.0211089
0.0228158
0.0245187
0.0262032
0.0278605
0.0294838
0.0310664
0.032602
0.0340826
0.0355001
0.0368452
0.0381078
0.039276
3.98634e-06
9.31415e-05
0.000192842
0.000350817
0.000533985
0.000742547
0.000978336
0.00124264
0.0015369
0.00186235
0.00222084
0.00261429
0.00304431
0.00351324
0.00402384
0.00457842
0.0051797
0.00583098
0.00653551
0.00729659
0.00811803
0.00900406
0.00995886
0.010987
0.0120935
0.0132837
0.0145632
0.0159379
0.0174138
0.0189968
0.0206765
0.0224037
0.0241399
0.0258648
0.0275669
0.029238
0.0308718
0.0324613
0.0339991
0.0354772
0.0368868
0.0382187
0.0394652
3.79218e-06
8.9722e-05
0.00018688
0.000341927
0.000521391
0.000725476