/*--------------------------------*- C++ -*----------------------------------*\
| =========                 |                                                 |
| \\      /  F ield         | OpenFOAM: The Open Source CFD Toolbox           |
|  \\    /   O peration     | Version:  2.3.0                                 |
|   \\  /    A nd           | Web:      www.OpenFOAM.org                      |
|    \\/     M anipulation  |                                                 |
\*---------------------------------------------------------------------------*/
FoamFile
{
    version     2.0;
    format      ascii;
    class       volScalarField;
    location    "50";
    object      nuTilda;
}
// * * * * * * * * * * * * * * * * * * * * * * * * * * * * * * * * * * * * * //

dimensions      [0 2 -1 0 0 0 0];

internalField   nonuniform List<scalar> 
7826
(
0.0749849
0.0709568
0.0668329
0.0627956
0.0590132
0.0556183
0.0526981
0.050286
0.0483558
0.0468213
0.0455484
0.0443817
0.0431633
0.04175
0.0400352
0.082054
0.0800202
0.0780585
0.0762886
0.0748095
0.0736804
0.0729154
0.0724896
0.0723496
0.0724255
0.0726406
0.0729223
0.0732038
0.0734295
0.0735555
0.0881608
0.0875074
0.0869366
0.0864871
0.0861941
0.0860737
0.0861195
0.0863073
0.0866019
0.0869621
0.087345
0.0877101
0.08802
0.0882411
0.0883454
0.0930582
0.0932933
0.093558
0.0938538
0.0941904
0.0945719
0.0949938
0.0954437
0.0959042
0.0963553
0.0967761
0.0971454
0.0974429
0.097649
0.0977457
0.0968225
0.0975723
0.0982982
0.0989897
0.0996484
0.100277
0.100875
0.10144
0.101966
0.102446
0.102871
0.103232
0.103516
0.103714
0.103812
0.0996229
0.100625
0.101565
0.102433
0.10323
0.103957
0.10462
0.105219
0.105757
0.106233
0.106645
0.10699
0.107262
0.107454
0.107559
0.101654
0.102723
0.103714
0.104617
0.105433
0.106165
0.106817
0.107396
0.107906
0.108351
0.108733
0.109052
0.109306
0.109493
0.109605
0.103082
0.1041
0.105037
0.105886
0.106645
0.107319
0.107912
0.108432
0.108885
0.109278
0.109614
0.109897
0.110128
0.110305
0.110425
0.104057
0.10495
0.105771
0.106512
0.107172
0.107751
0.108257
0.108695
0.109074
0.109401
0.109682
0.109922
0.110125
0.11029
0.110415
0.10469
0.105425
0.106102
0.106713
0.107252
0.107721
0.108127
0.108475
0.108774
0.109031
0.109253
0.109449
0.109621
0.109771
0.1099
0.105074
0.105646
0.106177
0.106653
0.107069
0.107427
0.107733
0.107993
0.108215
0.108405
0.108572
0.108722
0.108863
0.108999
0.109129
0.105271
0.105709
0.106108
0.106458
0.106759
0.107014
0.107228
0.107408
0.107562
0.107694
0.10781
0.107918
0.108029
0.108148
0.108277
0.105374
0.105699
0.10598
0.106218
0.106417
0.106581
0.106714
0.106823
0.106924
0.107011
0.107081
0.10715
0.107232
0.107333
0.107457
0.105457
0.105678
0.105855
0.105995
0.106104
0.106194
0.106259
0.106303
0.106366
0.106426
0.106458
0.10649
0.106543
0.106623
0.106738
0.0400405
0.0417367
0.0430583
0.0441675
0.0452324
0.0464295
0.0479299
0.0498734
0.0523486
0.0553866
0.0589615
0.0630034
0.0674066
0.072036
0.0767384
0.0734869
0.0732262
0.072875
0.0724876
0.0721282
0.0718697
0.0717928
0.0719795
0.0725059
0.073432
0.0747926
0.0765886
0.0787816
0.0812954
0.0840201
0.0882938
0.0880892
0.0877779
0.0873964
0.0869845
0.0865849
0.0862445
0.0860133
0.0859393
0.0860675
0.0864338
0.0870601
0.0879497
0.0890839
0.0904249
0.0977123
0.0975523
0.0972941
0.0969624
0.0965818
0.0961775
0.0957764
0.0954065
0.095095
0.0948686
0.0947513
0.0947616
0.0949121
0.0952067
0.0956493
0.103798
0.103677
0.103468
0.103189
0.102856
0.102485
0.10209
0.101685
0.101286
0.100905
0.100555
0.100249
0.0999969
0.0998135
0.0997121
0.107567
0.107482
0.107322
0.107099
0.106824
0.106504
0.106148
0.105762
0.105352
0.104922
0.104478
0.104027
0.103576
0.103144
0.10277
0.109637
0.109592
0.109485
0.109325
0.109117
0.108866
0.108573
0.10824
0.107866
0.107451
0.106996
0.1065
0.105971
0.105423
0.104899
0.110482
0.11048
0.11043
0.110338
0.110206
0.110033
0.109818
0.109557
0.109249
0.108888
0.108471
0.107995
0.107462
0.106881
0.106276
0.110496
0.110537
0.110545
0.110521
0.110464
0.110371
0.110237
0.110057
0.109826
0.109539
0.109188
0.10877
0.108282
0.10773
0.10714
0.110004
0.110084
0.110143
0.11018
0.110191
0.110169
0.110109
0.110006
0.109854
0.109645
0.109373
0.109032
0.108615
0.108126
0.107589
0.10925
0.109363
0.109466
0.109552
0.109615
0.109649
0.10965
0.109612
0.109529
0.109396
0.109205
0.108947
0.108613
0.108198
0.107712
0.108411
0.108551
0.108686
0.108806
0.108903
0.108975
0.109019
0.109029
0.109003
0.108936
0.108822
0.108648
0.108399
0.108066
0.107651
0.107599
0.107758
0.107918
0.108058
0.108168
0.10826
0.108332
0.108373
0.108387
0.108376
0.108332
0.108238
0.108072
0.107822
0.107494
0.10688
0.107056
0.107239
0.107381
0.107476
0.107579
0.107674
0.107727
0.107761
0.107795
0.107814
0.107798
0.107707
0.107525
0.107284
0.020346
0.016185
0.0127825
0.0100294
0.00782006
0.0060654
0.00472071
0.00373947
0.00301176
0.0024817
0.00212816
0.00190029
0.0016512
0.00132264
0.00103312
0.0206985
0.0168218
0.0136167
0.0109808
0.00882143
0.00706435
0.00570224
0.00466571
0.00388485
0.00320167
0.00245563
0.00146528
0.000361873
0.000257901
0.000176105
0.0211136
0.0175419
0.0145357
0.0120177
0.00991586
0.00818301
0.0067649
0.00540629
0.00392406
0.00264192
0.00226558
0.00284039
0.00387848
0.00485929
0.0053631
0.0216466
0.0183145
0.0154881
0.0130813
0.0110205
0.00919534
0.00752022
0.00655659
0.00749675
0.010367
0.0141376
0.0178527
0.0209141
0.0230052
0.0240322
0.0222898
0.019137
0.016454
0.014124
0.0120696
0.0105511
0.0107781
0.0138484
0.0189967
0.0247266
0.0300614
0.0345586
0.0379951
0.0402799
0.0413652
0.0229762
0.0199966
0.0174352
0.0152661
0.0139361
0.0148394
0.0188992
0.025078
0.0317796
0.0380323
0.0434181
0.0477742
0.0510343
0.0531747
0.0541835
0.0238167
0.0209575
0.0186743
0.0174287
0.0184768
0.0226733
0.0290921
0.0361785
0.0429431
0.0489354
0.0539784
0.0580089
0.0610076
0.0629699
0.063894
0.024901
0.0224287
0.0211663
0.0221068
0.0259816
0.0321388
0.0392095
0.0461823
0.05255
0.0580928
0.0627233
0.0664125
0.0691538
0.0709472
0.0717925
0.0270143
0.0256906
0.0264188
0.0297563
0.0353062
0.0419866
0.0488437
0.0553186
0.0611342
0.0661664
0.0703642
0.0737084
0.0761946
0.0778219
0.0785892
0.0317893
0.0322078
0.0348667
0.039533
0.0454481
0.0518094
0.0580522
0.0638512
0.0690354
0.0735201
0.0772654
0.0802549
0.0824802
0.0839375
0.0846235
0.0396752
0.0416918
0.0453414
0.0502037
0.0557021
0.0613467
0.0667978
0.0718428
0.0763582
0.080276
0.0835592
0.0861868
0.0881458
0.0894274
0.0900268
0.0493764
0.0523645
0.0562043
0.0606667
0.065443
0.0702564
0.0748878
0.079185
0.083043
0.0864027
0.0892322
0.0915062
0.0932001
0.0943031
0.0948072
0.0591944
0.0625761
0.0662261
0.0701012
0.0741201
0.0781525
0.0820494
0.0856843
0.0889443
0.0917799
0.0941871
0.0961381
0.0975796
0.098501
0.0988959
0.0679431
0.0713546
0.0747102
0.0779586
0.0812731
0.0846562
0.0879805
0.0911332
0.0939101
0.096244
0.0982605
0.0999698
0.101181
0.10192
0.102183
0.00106842
0.0013469
0.00165152
0.00188967
0.00213383
0.002511
0.00305464
0.00377893
0.00474312
0.00606513
0.00780084
0.00998327
0.0126972
0.0160455
0.0201164
0.00017442
0.000301536
0.000605676
0.00167935
0.00259884
0.00328855
0.0039233
0.00468376
0.00571146
0.00705497
0.00878517
0.0109083
0.0134944
0.0166296
0.0203933
0.00527693
0.00458038
0.00347382
0.00244056
0.00205078
0.00271457
0.00410839
0.0055152
0.00678361
0.00815506
0.00984831
0.0119054
0.0143637
0.0172912
0.0207609
0.0238892
0.0225763
0.0201398
0.0167827
0.0129032
0.00919563
0.00668628
0.00627166
0.00751202
0.00916981
0.0109172
0.0129158
0.0152534
0.017989
0.0211778
0.0412187
0.0398349
0.0372369
0.0334821
0.0287079
0.0231207
0.0172994
0.0124016
0.00993826
0.0102467
0.0118943
0.0138947
0.0161385
0.0187033
0.0216446
0.054054
0.0527806
0.0503637
0.0468113
0.0421482
0.0364469
0.0299243
0.0231014
0.0170964
0.0136126
0.0133127
0.0148719
0.017004
0.0194228
0.0221458
0.0637798
0.0626213
0.0604121
0.0571479
0.0528264
0.0474639
0.0411378
0.0340681
0.0268013
0.0205209
0.0168813
0.0164623
0.0179627
0.0201581
0.0226768
0.0716902
0.070634
0.0686153
0.0656269
0.0616602
0.0567149
0.0508178
0.0440691
0.0367368
0.0294411
0.0233856
0.0200245
0.0196489
0.0210945
0.0233079
0.0784957
0.0775346
0.0756968
0.0729735
0.0693557
0.0648382
0.0594299
0.0531798
0.0462289
0.0389042
0.0318849
0.0263073
0.0232987
0.0229289
0.0242397
0.0845357
0.0836666
0.082006
0.0795459
0.0762773
0.0721938
0.0672984
0.0616165
0.0552274
0.0483145
0.0412514
0.034711
0.0296531
0.0268633
0.0263129
0.0899396
0.0891583
0.0876731
0.0854755
0.082556
0.0789074
0.0745293
0.0694377
0.0636816
0.0573735
0.0507259
0.0441138
0.0381247
0.0334788
0.0307438
0.0947102
0.0940077
0.0926938
0.0907571
0.0881811
0.0849523
0.0810671
0.0765393
0.0714099
0.065761
0.059724
0.0535012
0.0474053
0.0418909
0.0375056
0.0987628
0.0981192
0.0969747
0.0953012
0.0930615
0.0902158
0.0867547
0.0827083
0.07812
0.0730911
0.0677182
0.0620654
0.0562688
0.0505829
0.0453183
0.101938
0.101312
0.100349
0.0989742
0.0970887
0.0945575
0.0913838
0.0876633
0.083417
0.0789159
0.0742362
0.0692029
0.0638131
0.0582735
0.0525905
0.00149119
0.00454938
0.00795314
0.0116371
0.015595
0.019818
0.0243084
0.0290756
0.0341302
0.0394725
0.0450801
0.0508948
0.0568143
0.0626908
0.068348
2.19195e-05
0.000433275
0.00167413
0.00420102
0.00707267
0.010519
0.0145467
0.0191481
0.0243028
0.0299733
0.036099
0.0425878
0.0493088
0.0560891
0.062727
0
0.000217014
0.00102644
0.002727
0.00476287
0.00737467
0.0106147
0.0145204
0.0191114
0.024382
0.0302927
0.036763
0.0436648
0.0508234
0.0580464
0
0.000250492
0.0011463
0.00234429
0.0039442
0.00605224
0.00873948
0.0120725
0.0161061
0.0208735
0.0263754
0.0325679
0.0393525
0.046569
0.0539906
0.000104787
0.000467131
0.00113869
0.00212267
0.00348565
0.00529409
0.00762306
0.0105504
0.0141494
0.0184797
0.023575
0.0294289
0.035981
0.0431063
0.0506208
0.000331034
0.000661312
0.00107641
0.00193702
0.00314389
0.00475231
0.00683437
0.00946961
0.0127389
0.0167163
0.0214574
0.0269847
0.033272
0.040227
0.047678
0.000399249
0.000642198
0.00105715
0.00177926
0.00286679
0.00432623
0.00622367
0.00863702
0.0116493
0.0153414
0.0197824
0.0250156
0.0310425
0.0378049
0.0451772
0.000394123
0.00059634
0.00103378
0.0016484
0.00263984
0.00398066
0.0057313
0.00796734
0.0107715
0.0142279
0.0184137
0.0233869
0.0291706
0.0357359
0.0429907
0.000385103
0.000568341
0.000996576
0.00153841
0.00245235
0.00369585
0.00532541
0.00741457
0.010045
0.0133023
0.0172686
0.0220122
0.0275733
0.0339478
0.0410776
0.000378945
0.000553982
0.000960722
0.00145161
0.00229608
0.00345764
0.00498503
0.00694956
0.00943189
0.0125179
0.016293
0.0208327
0.0261905
0.0323815
0.0393671
0.000374351
0.000546352
0.000937618
0.00140136
0.00216622
0.00325568
0.0046952
0.00655235
0.00890632
0.0118429
0.0154494
0.0198069
0.0249783
0.030993
0.0378259
0.000370615
0.000542306
0.000925773
0.00137298
0.00205772
0.00308254
0.0044454
0.00620874
0.00845008
0.0112547
0.0147112
0.0189045
0.0239048
0.0297528
0.0364397
0.000367382
0.000539635
0.000918832
0.00135106
0.00196553
0.00293242
0.00422766
0.00590819
0.00804972
0.0107368
0.0140587
0.0181029
0.0229453
0.0286353
0.0351753
0.000364384
0.000537093
0.000912542
0.00133026
0.00188787
0.00280115
0.00403611
0.0056429
0.00769521
0.0102767
0.0134769
0.0173851
0.0220817
0.0276245
0.0340331
0.000361523
0.000534444
0.000906612
0.00131306
0.00183343
0.00268686
0.00386636
0.00540682
0.00737875
0.00986476
0.0129542
0.0167379
0.0213
0.0267067
0.0329925
0.000358861
0.000532186
0.000902491
0.00130256
0.00180252
0.00258815
0.00371515
0.00519529
0.00709434
0.00949347
0.0124817
0.0161509
0.0205885
0.0258658
0.0320209
0.00035643
0.000530558
0.000900482
0.00129709
0.00178279
0.00250248
0.00357986
0.00500475
0.0068373
0.00915696
0.0120523
0.0156158
0.0199369
0.0250905
0.031116
0.000354214
0.000529331
0.000899554
0.00129336
0.0017657
0.0024272
0.00345808
0.00483212
0.00660369
0.00885034
0.0116599
0.0151251
0.0193367
0.0243718
0.0302738
0.000352123
0.00052817
0.000898595
0.00128934
0.00174884
0.00236276
0.00334821
0.00467512
0.00639049
0.00856975
0.0112999
0.0146738
0.0187841
0.023714
0.0295332
0.00035012
0.000526843
0.000897206
0.001285
0.00173407
0.00231483
0.00324956
0.0045317
0.00619499
0.00831184
0.0109682
0.0142569
0.0182714
0.0230957
0.0287826
0.000348201
0.000525486
0.000895788
0.00128158
0.00172388
0.00228437
0.0031619
0.00440052
0.00601517
0.00807398
0.0106617
0.013871
0.0177971
0.0225308
0.0281618
0.000346397
0.000524191
0.000894793
0.0012797
0.00171793
0.00226426
0.00308387
0.00428015
0.00584917
0.00785385
0.0103775
0.0135126
0.017355
0.0219958
0.0274987
0.000344714
0.00052311
0.000894364
0.00127912
0.00171436
0.00224812
0.00301395
0.00416955
0.0056956
0.00764964
0.0101133
0.0131788
0.0169426
0.0214981
0.0269275
0.000343142
0.000522117
0.000894263
0.00127903
0.00171131
0.00223275
0.00295114
0.00406756
0.00555311
0.0074597
0.00986721
0.0128673
0.0165571
0.0210318
0.026372
0.000341645
0.000521211
0.000894142
0.00127881
0.00170792
0.00221773
0.00289682
0.00397365
0.00542075
0.00728272
0.00963744
0.0125759
0.0161951
0.0205886
0.0258253
0.000340192
0.00052028
0.000893795
0.0012782
0.00170431
0.00220439
0.00285441
0.00388764
0.00529758
0.00711746
0.00942242
0.0123025
0.0158541
0.0201709
0.0253325
0.000338788
0.000519351
0.000893242
0.00127742
0.00170123
0.00219429
0.00282467
0.00380957
0.005183
0.00696298
0.00922099
0.0120461
0.0155352
0.0197881
0.0249152
0.00033743
0.000518384
0.00089267
0.00127686
0.0016993
0.00218771
0.00280407
0.00373899
0.00507641
0.00681845
0.00903214
0.0118054
0.0152354
0.0194212
0.0244459
0.000336132
0.000517454
0.000892204
0.00127672
0.00169856
0.00218369
0.0027883
0.003675
0.00497728
0.00668319
0.00885499
0.0115794
0.0149537
0.0190791
0.0240579
0.000334908
0.00051663
0.00089193
0.00127704
0.00169873
0.00218109
0.00277461
0.00361685
0.00488514
0.00655664
0.00868888
0.0113672
0.0146893
0.0187587
0.0236807
0.000333779
0.000515833
0.000891767
0.00127758
0.00169924
0.00217884
0.00276158
0.00356414
0.00479951
0.00643829
0.00853314
0.0111682
0.0144414
0.0184571
0.0233188
0.000332713
0.000515063
0.000891626
0.00127815
0.00169972
0.00217651
0.0027491
0.00351768
0.00472024
0.00632785
0.00838748
0.0109819
0.0142087
0.0181723
0.0229707
0.000331714
0.000514266
0.000891421
0.00127854
0.00169992
0.00217397
0.00273759
0.0034789
0.00464736
0.00622504
0.00825141
0.0108073
0.0139897
0.0179014
0.0226355
0.000330792
0.000513505
0.000891104
0.0012787
0.00169987
0.00217155
0.00272792
0.00344887
0.00458107
0.00612974
0.00812467
0.0106443
0.0137855
0.017654
0.0223678
0.000329923
0.0005127
0.000890669
0.00127864
0.00169964
0.00216949
0.00272049
0.00342673
0.00452124
0.00604177
0.00800701
0.0104927
0.0135954
0.0174215
0.0220759
0.000329097
0.000511935
0.000890144
0.00127841
0.00169937
0.002168
0.0027152
0.00341039
0.00446765
0.00596098
0.00789827
0.0103522
0.013419
0.0172048
0.021813
0.000328322
0.000511232
0.000889617
0.00127813
0.00169918
0.00216709
0.00271157
0.00339781
0.00441986
0.00588724
0.00779831
0.0102226
0.0132554
0.017002
0.0215618
0.000327589
0.000510545
0.000889075
0.00127779
0.00169903
0.00216655
0.00270894
0.0033874
0.00437731
0.00582033
0.00770696
0.0101038
0.0131053
0.0168181
0.021356
0.00032688
0.000509966
0.000888557
0.00127745
0.00169889
0.0021662
0.00270684
0.00337826
0.00433962
0.00576008
0.00762408
0.00999541
0.0129678
0.0166466
0.0211333
0.000326221
0.000509383
0.000888099
0.00127706
0.00169866
0.0021658
0.00270482
0.00336986
0.00430642
0.00570621
0.00754938
0.00989716
0.0128423
0.0164906
0.0209551
0.000325613
0.000508869
0.000887626
0.00127661
0.00169829
0.0021652
0.0027027
0.00336199
0.00427742
0.00565848
0.00748265
0.00980895
0.0127302
0.016356
0.0208198
0.000325043
0.00050835
0.000887152
0.00127605
0.0016977
0.00216431
0.00270035
0.00335457
0.00425229
0.00561652
0.00742352
0.00973051
0.0126303
0.0162333
0.0206551
0.000324543
0.000507873
0.0008866
0.00127533
0.00169681
0.00216302
0.00269767
0.0033475
0.0042307
0.00557996
0.00737165
0.00966138
0.0125418
0.0161219
0.0205092
0.00032411
0.00050738
0.000886031
0.0012745
0.0016957
0.0021614
0.00269473
0.00334084
0.00421238
0.0055485
0.0073266
0.00960081
0.0124628
0.016019
0.0203678
0.000323762
0.000506829
0.000885362
0.00127348
0.00169425
0.00215937
0.00269147
0.00333449
0.00419686
0.00552168
0.00728788
0.00954836
0.0123945
0.0159345
0.0202898
0.000323471
0.000506353
0.000884666
0.00127239
0.00169268
0.00215713
0.00268807
0.00332852
0.00418386
0.00549912
0.00725501
0.00950342
0.0123353
0.0158578
0.0201725
0.000323264
0.000505903
0.000883865
0.0012711
0.0016908
0.00215452
0.00268435
0.00332271
0.0041728
0.0054802
0.00722729
0.00946516
0.0122841
0.0157897
0.0200819
0.00032309
0.000505515
0.000883033
0.00126974
0.00168878
0.00215171
0.00268049
0.00331715
0.00416341
0.00546455
0.00720417
0.00943282
0.01224
0.0157297
0.0200048
0.000322966
0.00050515
0.00088218
0.00126826
0.00168657
0.00214865
0.00267642
0.00331167
0.00415535
0.00545166
0.00718508
0.0094058
0.0122031
0.0156829
0.0199643
0.000322891
0.000504871
0.000881415
0.00126686
0.00168439
0.00214558
0.00267234
0.00330643
0.0041485
0.00544123
0.00716953
0.00938352
0.0121725
0.0156435
0.0199121
0.000322833
0.000504605
0.000880653
0.00126544
0.00168214
0.0021424
0.00266818
0.00330128
0.00414251
0.00543276
0.00715695
0.0093655
0.0121484
0.0156151
0.0198923
0.000322784
0.000504406
0.00088
0.00126412
0.00168
0.00213931
0.00266409
0.0032963
0.00413728
0.00542592
0.0071469
0.00935111
0.0121289
0.0155888
0.0198394
0.000322752
0.00050425
0.000879366
0.00126282
0.00167785
0.00213619
0.00265996
0.00329139
0.00413258
0.00542031
0.00713888
0.0093397
0.0121133
0.015569
0.0198278
0.000322741
0.000504106
0.000878793
0.00126161
0.0016758
0.00213316
0.00265594
0.00328664
0.00412834
0.00541573
0.00713255
0.0093309
0.012102
0.0155574
0.0198277
0.000322754
0.000503946
0.000878234
0.00126043
0.00167379
0.00213018
0.00265198
0.003282
0.00412445
0.00541193
0.00712763
0.00932438
0.0120942
0.0155501
0.0198183
0.000322799
0.000503831
0.000877739
0.00125936
0.00167193
0.00212738
0.0026482
0.00327756
0.00412098
0.00540886
0.00712392
0.00931982
0.0120892
0.0155456
0.0198105
0.000322887
0.000503705
0.000877264
0.00125834
0.00167017
0.0021247
0.00264457
0.0032733
0.00411781
0.00540633
0.00712124
0.0093169
0.0120865
0.0155436
0.019807
0.000322988
0.000503597
0.000876849
0.00125744
0.00166857
0.00212224
0.00264119
0.00326932
0.00411494
0.0054043
0.0071194
0.0093153
0.0120855
0.0155424
0.0198004
0.000323094
0.000503516
0.000876475
0.00125662
0.00166711
0.00211997
0.00263805
0.00326559
0.00411235
0.00540266
0.00711821
0.00931463
0.0120852
0.0155402
0.0197875
0.000323224
0.00050348
0.000876174
0.00125592
0.00166583
0.00211792
0.00263518
0.00326217
0.00411007
0.00540136
0.00711751
0.00931448
0.012085
0.0155379
0.0197849
0.00032334
0.000503466
0.000875933
0.00125531
0.00166469
0.0021161
0.0026326
0.00325909
0.00410805
0.00540036
0.0071172
0.00931479
0.0120858
0.0155415
0.0198116
0.000323459
0.000503508
0.000875764
0.00125481
0.00166371
0.0021145
0.00263031
0.00325632
0.00410635
0.00539965
0.00711724
0.00931572
0.0120884
0.0155491
0.0198295
0.000323581
0.000503579
0.000875665
0.00125441
0.00166289
0.00211312
0.00262831
0.00325392
0.00410499
0.00539927
0.0071177
0.0093173
0.0120919
0.0155551
0.0198272
0.000323712
0.00050365
0.000875613
0.00125412
0.00166222
0.00211195
0.00262659
0.00325185
0.00410399
0.00539929
0.00711868
0.0093197
0.0120968
0.0155646
0.0198526
0.000323849
0.000503724
0.000875605
0.0012539
0.00166169
0.00211101
0.00262519
0.00325018
0.00410342
0.00539981
0.00712035
0.00932311
0.0121031
0.0155756
0.0198669
0.000324025
0.000503831
0.000875626
0.00125376
0.00166129
0.00211026
0.00262404
0.00324887
0.00410339
0.00540098
0.00712289
0.00932773
0.0121111
0.0155883
0.0198824
0.000324249
0.000503937
0.000875689
0.00125371
0.00166104
0.00210973
0.00262323
0.00324802
0.00410396
0.00540295
0.00712646
0.00933358
0.01212
0.0155994
0.0198858
0.000324513
0.000504023
0.000875753
0.00125369
0.00166087
0.00210937
0.00262268
0.00324756
0.0041052
0.00540583
0.00713119
0.00934085
0.0121307
0.0156155
0.0199222
0.000324814
0.000504168
0.000875878
0.00125378
0.0016609
0.00210928
0.00262251
0.00324764
0.00410733
0.00540983
0.00713731
0.00934976
0.0121433
0.0156324
0.0199334
0.000325202
0.00050435
0.00087602
0.00125388
0.00166097
0.00210932
0.00262257
0.00324815
0.00411036
0.00541509
0.00714502
0.00936056
0.012158
0.0156517
0.019961
0.000325618
0.000504606
0.000876334
0.00125425
0.00166137
0.00210976
0.00262315
0.00324937
0.00411458
0.00542195
0.00715468
0.00937366
0.0121752
0.0156738
0.0199905
0.000326277
0.000504892
0.00087653
0.00125447
0.00166176
0.00211038
0.00262412
0.00325131
0.00412079
0.00543142
0.00716739
0.00939016
0.0121964
0.0157014
0.0200296
0.000326554
0.000505093
0.000876362
0.00125377
0.00166062
0.00210917
0.00262336
0.00325187
0.00412508
0.00543946
0.00717962
0.00940745
0.0122196
0.0157304
0.0200566
0.000330508
0.000509976
0.000887318
0.0012697
0.00167915
0.00212775
0.00264134
0.00327131
0.00415855
0.00547908
0.00722254
0.00945203
0.0122647
0.0157758
0.0201102
0.000297991
0.000445428
0.000785916
0.00115489
0.00157379
0.00203782
0.00255702
0.00318279
0.00405197
0.0053705
0.00712031
0.00936544
0.0122047
0.0157546
0.0201366
0.00147465
0.00448441
0.0078301
0.0114476
0.0153413
0.0195135
0.0239779
0.0287546
0.0338619
0.0393071
0.0450762
0.0511249
0.0573747
0.0637112
0.0699994
2.1676e-05
0.000430051
0.00166423
0.00416236
0.00701211
0.0104391
0.0144546
0.0190611
0.0242494
0.0299937
0.0362466
0.0429325
0.0499429
0.0571342
0.0643401
0
0.000231744
0.00108979
0.00277719
0.00482046
0.0074421
0.0106939
0.0146194
0.0192467
0.0245818
0.0306
0.037239
0.0443925
0.051909
0.0596023
1.64062e-05
7.66938e-05
0.0012228
0.0024127
0.00403447
0.00616795
0.00888477
0.0122549
0.0163389
0.0211794
0.0267897
0.0331431
0.0401629
0.0477161
0.0556175
0.000105046
0.000469057
0.00117911
0.0021804
0.00357135
0.00541226
0.00778053
0.0107569
0.0144194
0.0188348
0.0240473
0.0300653
0.0368482
0.0442938
0.0522355
0.000320707
0.000652187
0.00109265
0.00197687
0.003218
0.00486462
0.00699175
0.00968315
0.0130244
0.0170958
0.0219622
0.0276592
0.0341785
0.0414507
0.0493333
0.000414731
0.000622868
0.00100657
0.00180487
0.00292833
0.00443174
0.00637907
0.00885331
0.0119428
0.0157349
0.0203073
0.0257153
0.0319763
0.0390513
0.0468262
0.000412068
0.000573551
0.000964245
0.00166471
0.00269272
0.00407828
0.00588285
0.00818354
0.0110687
0.0146292
0.0189506
0.0241012
0.0301167
0.0369769
0.0445673
0.000402858
0.000551695
0.000942036
0.00155086
0.00249884
0.00378445
0.00547137
0.00762862
0.0103432
0.0137075
0.0178119
0.0227341
0.0285254
0.035192
0.0426882
0.000397318
0.00054436
0.000922072
0.00145702
0.00233787
0.00354007
0.00512475
0.00716024
0.0097294
0.0129247
0.0168395
0.021559
0.0271473
0.0336322
0.04099
0.000393067
0.000540497
0.000903542
0.00137845
0.00220236
0.00333336
0.00482852
0.0067588
0.00920196
0.0122498
0.0159978
0.0205364
0.0259403
0.0322527
0.0394665
0.000389022
0.000536538
0.000886352
0.00131324
0.0020865
0.00315572
0.00457264
0.00641037
0.00874313
0.011661
0.0152606
0.0196363
0.0248702
0.0310146
0.0380668
0.000385245
0.000533356
0.000875473
0.0012767
0.00198822
0.00300189
0.00435059
0.00610493
0.00833967
0.011142
0.0146086
0.0188372
0.0239159
0.0299108
0.0368573
0.000382005
0.000532147
0.000872893
0.00126434
0.0019055
0.00286758
0.00415546
0.00583461
0.00798166
0.0106803
0.0140273
0.0181223
0.0230592
0.0289138
0.0357277
0.000379248
0.00053223
0.000874362
0.00125849
0.001835
0.00274932
0.0039822
0.00559331
0.00766148
0.0102667
0.0135052
0.0174782
0.0222832
0.0279999
0.0346632
0.000376735
0.000532344
0.000875617
0.00125129
0.00177347
0.00264434
0.00382757
0.00537789
0.00737329
0.00989355
0.013033
0.0168935
0.0215749
0.0271606
0.0336956
0.000374279
0.000531782
0.000874895
0.00124139
0.00171977
0.00255057
0.00368886
0.00518412
0.00711237
0.00955482
0.0126034
0.0163602
0.0209276
0.0263966
0.0328403
0.000371853
0.000530659
0.000873029
0.00123236
0.00168255
0.00246736
0.00356369
0.00500846
0.00687478
0.0092457
0.0122106
0.0158717
0.0203336
0.0256935
0.0320268
0.000369548
0.000529665
0.000872239
0.00122869
0.00166627
0.00239476
0.0034503
0.0048482
0.00665719
0.00896223
0.0118499
0.0154223
0.019786
0.025041
0.0312631
0.000367457
0.000529189
0.000873429
0.00122988
0.00166034
0.00233146
0.00334734
0.00470169
0.0064581
0.00870134
0.0115174
0.0150072
0.0192783
0.0244323
0.0305447
0.000365574
0.000529155
0.000875866
0.00123295
0.0016562
0.00227545
0.00325367
0.0045675
0.0062754
0.00846047
0.0112097
0.0146223
0.0188059
0.0238633
0.0298738
0.000363821
0.000529195
0.000878326
0.00123549
0.00165058
0.00222505
0.00316808
0.00444418
0.0061069
0.00823735
0.010924
0.0142641
0.0183653
0.0233317
0.0292466
0.000362138
0.000529
0.000879998
0.00123646
0.00164307
0.0021803
0.00308965
0.00433045
0.00595087
0.00803
0.0106579
0.0139296
0.0179518
0.0228278
0.0286344
0.000360487
0.000528497
0.000880731
0.00123622
0.00163569
0.00214631
0.00301819
0.00422524
0.00580586
0.00783661
0.0104093
0.0136167
0.0175658
0.0223653
0.028125
0.000358883
0.000527814
0.000881073
0.00123619
0.00163165
0.00212768
0.00295414
0.00412787
0.00567098
0.00765661
0.0101768
0.0133236
0.0172033
0.0219238
0.0275694
0.000357357
0.000527225
0.000881709
0.00123757
0.0016319
0.00212002
0.00289727
0.00403781
0.00554543
0.00748885
0.00995885
0.0130483
0.0168619
0.0215074
0.0270762
0.00035593
0.00052682
0.000882971
0.00124043
0.00163499
0.00211672
0.00284647
0.00395449
0.00542842
0.00733198
0.00975424
0.0127892
0.0165399
0.021114
0.0266074
0.000354619
0.000526553
0.000884747
0.00124416
0.00163902
0.00211394
0.00280059
0.00387734
0.00531921
0.00718503
0.00956192
0.0125455
0.0162377
0.0207506
0.0262055
0.000353381
0.000526353
0.000886634
0.00124791
0.00164262
0.00211011
0.00275868
0.00380573
0.00521716
0.00704717
0.00938107
0.0123163
0.0159542
0.0204091
0.0257984
0.00035219
0.000526134
0.000888337
0.00125116
0.00164522
0.00210515
0.00272092
0.00373926
0.00512176
0.0069178
0.00921102
0.012101
0.0156882
0.0200889
0.0254216
0.000351034
0.000525813
0.000889616
0.00125364
0.00164678
0.00209984
0.00268953
0.00367775
0.00503251
0.00679656
0.00905183
0.0118986
0.0154373
0.0197816
0.0250359
0.000349916
0.000525357
0.000890506
0.00125554
0.00164801
0.00209604
0.00266816
0.0036217
0.00494935
0.00668318
0.0089029
0.0117085
0.0152018
0.019498
0.0247246
0.000348819
0.000524838
0.000891136
0.00125722
0.00164972
0.00209514
0.00265697
0.00357136
0.00487207
0.00657725
0.00876353
0.0115301
0.0149807
0.0192297
0.0243921
0.000347779
0.000524338
0.000891801
0.0012592
0.00165258
0.00209731
0.00265272
0.00352661
0.00480054
0.00647849
0.00863316
0.0113627
0.0147724
0.0189737
0.0240743
0.000346799
0.000523864
0.00089257
0.00126157
0.00165651
0.0021016
0.0026518
0.00348675
0.00473451
0.00638654
0.00851136
0.0112058
0.0145772
0.0187363
0.023803
0.000345869
0.000523491
0.000893529
0.00126437
0.00166122
0.00210695
0.00265198
0.00345115
0.00467378
0.00630112
0.00839766
0.0110587
0.0143928
0.0185058
0.0234945
0.000344991
0.000523176
0.0008946
0.00126734
0.00166616
0.0021124
0.00265209
0.00341915
0.00461798
0.00622195
0.00829169
0.010921
0.0142195
0.0182929
0.0232615
0.000344195
0.000522899
0.000895751
0.00127036
0.00167101
0.00211749
0.00265178
0.00339055
0.00456691
0.00614882
0.00819329
0.0107928
0.0140577
0.0180962
0.0230371
0.000343438
0.000522601
0.0008968
0.00127314
0.00167544
0.00212193
0.00265104
0.00336535
0.00452036
0.00608145
0.00810224
0.0106742
0.0139085
0.0179206
0.0228556
0.00034272
0.000522326
0.000897729
0.00127564
0.00167937
0.00212577
0.00265023
0.00334421
0.00447822
0.00601974
0.00801843
0.010565
0.0137713
0.0177561
0.0226457
0.000342047
0.000522011
0.000898483
0.00127776
0.00168277
0.00212912
0.00264979
0.00332796
0.00444046
0.00596347
0.00794165
0.0104647
0.0136448
0.017601
0.022448
0.000341406
0.000521677
0.000899057
0.00127954
0.00168571
0.00213222
0.00265022
0.00331712
0.00440709
0.00591246
0.00787152
0.0103725
0.0135263
0.0174494
0.0222367
0.000340784
0.000521368
0.000899474
0.00128101
0.00168831
0.00213527
0.00265179
0.00331126
0.00437795
0.00586639
0.00780755
0.0102876
0.0134163
0.0173125
0.0220938
0.000340203
0.000521041
0.00089979
0.00128226
0.00169068
0.00213841
0.00265451
0.00330927
0.00435271
0.005825
0.00774936
0.0102097
0.0133148
0.017186
0.0219346
0.000339657
0.000520721
0.000899995
0.00128333
0.00169288
0.00214165
0.0026581
0.00330983
0.00433099
0.00578795
0.00769662
0.0101385
0.0132218
0.0170677
0.0217826
0.000339133
0.00052041
0.000900169
0.0012843
0.00169499
0.00214501
0.00266227
0.00331189
0.00431235
0.0057549
0.0076489
0.0100735
0.0131357
0.0169546
0.0216279
0.000338643
0.000520135
0.000900252
0.00128511
0.00169692
0.00214828
0.00266659
0.00331457
0.00429623
0.00572544
0.0076058
0.0100141
0.0130561
0.016849
0.0214931
0.000338203
0.000519838
0.000900351
0.00128587
0.00169875
0.00215145
0.00267087
0.00331746
0.00428234
0.00569922
0.00756677
0.00995933
0.0129802
0.0167397
0.0213124
0.000337795
0.000519544
0.000900326
0.00128645
0.00170032
0.00215431
0.0026748
0.00332016
0.0042702
0.00567574
0.00753123
0.00990861
0.0129094
0.0166457
0.0212362
0.000337426
0.000519276
0.000900371
0.00128703
0.0017018
0.00215696
0.00267842
0.0033226
0.00425958
0.00565469
0.00749874
0.00986141
0.0128425
0.0165518
0.0210824
0.000337103
0.000518976
0.000900278
0.00128739
0.00170296
0.00215918
0.00268148
0.00332458
0.00425003
0.00563555
0.00746874
0.00981723
0.0127794
0.0164645
0.0209815
0.000336822
0.000518712
0.000900226
0.00128772
0.00170399
0.00216109
0.00268409
0.00332612
0.00424145
0.00561805
0.00744092
0.00977591
0.0127205
0.0163854
0.0208868
0.000336567
0.000518416
0.000900054
0.00128786
0.00170468
0.00216255
0.00268611
0.00332712
0.0042335
0.00560186
0.00741499
0.00973719
0.012665
0.0163073
0.0207623
0.000336368
0.00051816
0.000899935
0.00128797
0.00170525
0.00216371
0.00268765
0.00332764
0.0042261
0.00558682
0.00739072
0.00970068
0.0126121
0.0162318
0.020663
0.000336191
0.000517854
0.000899709
0.00128792
0.00170554
0.00216446
0.00268866
0.00332764
0.0042191
0.00557271
0.00736793
0.00966644
0.0125633
0.0161697
0.0206226
0.000336039
0.000517631
0.000899496
0.00128781
0.00170568
0.00216492
0.00268923
0.0033272