/*--------------------------------*- C++ -*----------------------------------*\
| =========                 |                                                 |
| \\      /  F ield         | OpenFOAM: The Open Source CFD Toolbox           |
|  \\    /   O peration     | Version:  2.3.0                                 |
|   \\  /    A nd           | Web:      www.OpenFOAM.org                      |
|    \\/     M anipulation  |                                                 |
\*---------------------------------------------------------------------------*/
FoamFile
{
    version     2.0;
    format      ascii;
    class       volVectorField;
    location    "50";
    object      U;
}
// * * * * * * * * * * * * * * * * * * * * * * * * * * * * * * * * * * * * * //

dimensions      [0 1 -1 0 0 0 0];

internalField   nonuniform List<vector> 
7826
(
(20.5679 0.34084 6.55899e-21)
(20.5856 0.389975 -4.55581e-21)
(20.6034 0.460106 2.94421e-21)
(20.6251 0.543877 4.34265e-20)
(20.6497 0.638453 -4.3712e-20)
(20.6725 0.739375 -1.54614e-21)
(20.6866 0.841792 0)
(20.6852 0.941425 0)
(20.6633 1.03524 0)
(20.6178 1.121 0)
(20.548 1.19744 0)
(20.4546 1.26397 -3.17592e-20)
(20.3392 1.3214 9.17648e-21)
(20.2027 1.36841 4.3865e-20)
(20.0486 1.4021 -2.41253e-20)
(20.5011 0.376701 -8.86968e-22)
(20.4951 0.417336 0)
(20.4768 0.45977 6.15421e-22)
(20.4497 0.50542 -9.18138e-22)
(20.4167 0.554443 -6.73227e-23)
(20.38 0.606245 3.5511e-22)
(20.3409 0.65937 -4.85241e-22)
(20.3 0.711721 0)
(20.2576 0.761093 1.52107e-20)
(20.2137 0.805482 -1.36863e-20)
(20.1686 0.843411 -2.84886e-20)
(20.1228 0.873863 -9.10937e-21)
(20.0768 0.896358 5.22821e-20)
(20.0314 0.910639 -1.88228e-20)
(19.9874 0.916378 -1.42435e-22)
(20.4544 0.40415 1.04573e-21)
(20.4438 0.443009 0)
(20.4245 0.479391 1.39779e-21)
(20.3988 0.514093 -1.43387e-21)
(20.3684 0.546433 -3.196e-20)
(20.3347 0.575845 6.46386e-20)
(20.2987 0.60199 -7.12787e-20)
(20.2611 0.62467 3.58607e-20)
(20.2226 0.643842 -4.44321e-20)
(20.1837 0.65953 -5.76052e-21)
(20.1448 0.671847 -5.49091e-21)
(20.1065 0.68093 4.62192e-20)
(20.0691 0.686981 -2.00805e-22)
(20.0329 0.690202 1.41562e-20)
(19.9983 0.690735 -1.33185e-20)
(20.4091 0.413589 0)
(20.3957 0.445367 1.73093e-20)
(20.374 0.473131 -1.9019e-20)
(20.3465 0.498107 -3.65773e-22)
(20.3154 0.52046 -1.70993e-22)
(20.2825 0.540235 0)
(20.249 0.557458 4.59031e-20)
(20.2154 0.572152 4.51574e-21)
(20.1824 0.584384 -4.47631e-20)
(20.1502 0.594234 2.60813e-20)
(20.1188 0.601825 -2.47432e-20)
(20.0884 0.607289 0)
(20.0591 0.610776 -6.94453e-24)
(20.0309 0.612428 -4.69473e-22)
(20.0039 0.61236 -2.47613e-22)
(20.3725 0.417805 2.86989e-21)
(20.3608 0.444931 -2.9751e-22)
(20.3425 0.468206 -1.63702e-21)
(20.3193 0.488274 -2.41563e-20)
(20.2928 0.505437 2.42274e-20)
(20.2643 0.519951 -8.61317e-22)
(20.2349 0.532065 8.78493e-22)
(20.2053 0.542005 0)
(20.1758 0.549988 3.00447e-20)
(20.1467 0.556197 -2.83721e-20)
(20.1182 0.560799 0)
(20.0903 0.563938 -3.29143e-20)
(20.0633 0.565746 3.22004e-20)
(20.037 0.566324 2.65883e-22)
(20.0117 0.56575 2.81189e-22)
(20.34 0.415986 1.75807e-20)
(20.33 0.439915 -1.19749e-20)
(20.3147 0.460545 1.64533e-21)
(20.2951 0.478228 0)
(20.2726 0.493258 8.59898e-22)
(20.2481 0.505895 8.82966e-22)
(20.2225 0.516389 -3.34533e-20)
(20.1963 0.524963 -1.97525e-21)
(20.17 0.531821 3.08325e-20)
(20.1437 0.537133 3.49739e-20)
(20.1177 0.541045 -3.35494e-20)
(20.092 0.543681 -5.68499e-22)
(20.0667 0.545145 -1.97873e-20)
(20.042 0.545519 9.51873e-21)
(20.0179 0.544867 1.05255e-20)
(20.3115 0.410405 1.61631e-20)
(20.3031 0.432049 -1.53836e-20)
(20.2905 0.45114 0)
(20.2744 0.467727 0)
(20.2555 0.482017 0)
(20.2347 0.494188 1.08856e-21)
(20.2125 0.504426 1.0377e-21)
(20.1894 0.512907 3.63142e-20)
(20.1658 0.519786 -3.54684e-20)
(20.1419 0.525199 -5.73887e-22)
(20.1179 0.529258 -2.05605e-20)
(20.0939 0.532058 2.02892e-20)
(20.0701 0.533681 -9.6255e-24)
(20.0465 0.534189 -6.76683e-22)
(20.0233 0.533635 -5.79705e-21)
(20.2864 0.401984 -2.25383e-21)
(20.2788 0.42151 -1.76618e-20)
(20.2681 0.439343 1.6113e-20)
(20.2546 0.455184 -3.77934e-20)
(20.2387 0.469154 3.57154e-20)
(20.2208 0.481326 -1.12932e-21)
(20.2015 0.491799 0)
(20.1811 0.500673 0)
(20.16 0.508038 4.05551e-20)
(20.1383 0.513976 -4.06879e-20)
(20.1163 0.518559 6.64481e-22)
(20.094 0.521846 7.02491e-22)
(20.0717 0.523891 1.25466e-20)
(20.0494 0.524735 4.88493e-22)
(20.0274 0.524418 -1.30481e-20)
(20.2644 0.39181 4.7054e-21)
(20.2572 0.409126 0)
(20.2478 0.425561 1.15598e-21)
(20.2362 0.440514 1.97063e-20)
(20.2225 0.454029 -4.80494e-22)
(20.2071 0.466089 7.9677e-22)
(20.1901 0.476706 -4.95046e-22)
(20.1721 0.485901 -2.08877e-20)
(20.1531 0.4937 6.76689e-22)
(20.1334 0.500126 0)
(20.1132 0.505209 0)
(20.0926 0.508978 -2.63664e-20)
(20.0718 0.511462 2.48179e-20)
(20.051 0.512681 0)
(20.0303 0.512659 0)
(20.2459 0.381192 -2.43241e-21)
(20.2386 0.396049 0)
(20.2299 0.410733 0)
(20.2196 0.424453 2.57502e-21)
(20.2076 0.437163 2.14438e-20)
(20.194 0.448778 -1.98684e-20)
(20.179 0.459227 1.36873e-21)
(20.1628 0.468456 -1.4429e-21)
(20.1457 0.476434 0)
(20.1278 0.483121 0)
(20.1093 0.4885 7.94699e-22)
(20.0903 0.492589 8.15595e-22)
(20.071 0.495399 0)
(20.0515 0.496934 0)
(20.0321 0.497201 0)
(20.2306 0.371111 0)
(20.2231 0.383536 0)
(20.2149 0.396136 0)
(20.2054 0.408294 2.07601e-20)
(20.1945 0.419861 -4.45451e-20)
(20.1822 0.430692 2.10515e-20)
(20.1687 0.440644 -2.38894e-20)
(20.154 0.449593 7.02442e-22)
(20.1385 0.457474 2.46216e-20)
(20.1221 0.46417 0)
(20.1051 0.4696 -1.44692e-20)
(20.0875 0.473785 1.19388e-20)
(20.0695 0.476749 1.46326e-20)
(20.0513 0.478469 -7.1178e-21)
(20.0331 0.478953 -7.6107e-21)
(20.2186 0.362554 -1.27366e-21)
(20.211 0.372578 0)
(20.2029 0.383011 0)
(20.1938 0.393459 2.44328e-20)
(20.1836 0.403696 -2.14123e-20)
(20.1722 0.413507 2.57261e-20)
(20.1598 0.42273 -2.41757e-20)
(20.1463 0.431145 -1.59174e-21)
(20.132 0.438704 1.32847e-20)
(20.117 0.445209 -2.87722e-20)
(20.1013 0.45047 1.38043e-20)
(20.0848 0.454528 -1.29357e-20)
(20.0679 0.457468 9.06788e-21)
(20.0507 0.459202 7.6719e-21)
(20.0334 0.45978 -2.01138e-21)
(20.2099 0.356014 4.23308e-23)
(20.2019 0.363913 -9.94743e-21)
(20.1938 0.372415 1.12522e-20)
(20.1846 0.381213 2.60695e-23)
(20.1749 0.390145 -1.51486e-21)
(20.1639 0.398804 -1.40424e-20)
(20.1524 0.40721 1.25077e-20)
(20.1397 0.414888 -1.16497e-20)
(20.1262 0.421974 1.16183e-20)
(20.1123 0.428131 1.73911e-21)
(20.0981 0.432991 1.46593e-20)
(20.0825 0.436681 -1.47365e-20)
(20.0665 0.439494 -3.8553e-21)
(20.0502 0.441095 -2.05976e-21)
(20.0337 0.441645 6.12796e-21)
(20.203 0.351779 -1.45983e-21)
(20.1949 0.358369 1.82424e-23)
(20.1869 0.365181 0)
(20.1771 0.372376 -2.98509e-21)
(20.168 0.380301 1.54068e-21)
(20.1569 0.387682 -1.13181e-20)
(20.1461 0.395343 1.29203e-20)
(20.134 0.402075 1.7301e-21)
(20.1212 0.408568 -5.01004e-24)
(20.108 0.414404 -1.45328e-20)
(20.0953 0.418791 1.46808e-20)
(20.0809 0.421898 0)
(20.0663 0.424616 4.01828e-21)
(20.0511 0.42575 -6.30855e-21)
(20.0351 0.426198 4.16759e-21)
(19.8587 1.37222 0)
(19.6955 1.32683 -1.92059e-22)
(19.5548 1.26808 -6.59685e-20)
(19.4387 1.20573 7.45841e-20)
(19.3485 1.13541 -6.73496e-22)
(19.2855 1.05578 1.42213e-21)
(19.2498 0.967272 2.33678e-19)
(19.2399 0.871079 -2.54444e-19)
(19.2521 0.76942 0)
(19.2807 0.665592 -1.50472e-21)
(19.3185 0.564028 0)
(19.3585 0.469738 0)
(19.3955 0.387172 2.88509e-19)
(19.4276 0.319134 -3.09412e-19)
(19.4564 0.260264 1.40724e-20)
(19.944 0.914879 0)
(19.9007 0.905711 1.54876e-22)
(19.8571 0.887269 -2.61661e-23)
(19.8136 0.860043 5.55246e-20)
(19.771 0.824384 -6.09004e-20)
(19.7302 0.780969 -5.20486e-22)
(19.6916 0.730989 1.19651e-21)
(19.6557 0.676139 0)
(19.6227 0.618602 1.51238e-21)
(19.593 0.560676 -3.74072e-21)
(19.567 0.504458 -3.5574e-21)
(19.5457 0.451405 -2.54079e-19)
(19.5303 0.402073 2.69772e-19)
(19.5223 0.356283 1.6632e-20)
(19.5234 0.309401 -3.10534e-20)
(19.9647 0.689118 0)
(19.9305 0.685245 5.37739e-22)
(19.8953 0.678482 -4.12677e-20)
(19.8595 0.668685 4.27803e-20)
(19.8237 0.655656 -5.26172e-20)
(19.7882 0.639212 -6.16439e-20)
(19.7536 0.619232 1.26907e-19)
(19.7204 0.595625 0)
(19.6892 0.568409 1.07103e-21)
(19.6605 0.537693 0)
(19.6349 0.503755 -1.95428e-19)
(19.6128 0.467099 1.03356e-19)
(19.5949 0.428465 5.99359e-21)
(19.5821 0.388828 1.20525e-19)
(19.5762 0.345997 -2.72925e-20)
(19.9777 0.610842 4.43247e-21)
(19.9513 0.607802 -5.19349e-21)
(19.9242 0.602892 -2.14184e-20)
(19.8966 0.595994 2.38516e-20)
(19.8687 0.586974 -5.29719e-20)
(19.8405 0.575691 5.59051e-20)
(19.8121 0.562029 -6.42661e-20)
(19.7837 0.545882 6.82359e-20)
(19.7554 0.527212 -1.56728e-19)
(19.7277 0.505999 1.63849e-19)
(19.701 0.482283 0)
(19.676 0.456137 0)
(19.6539 0.427654 -6.51452e-21)
(19.6361 0.39694 -6.73105e-21)
(19.6248 0.361642 1.33913e-20)
(19.987 0.564193 2.99373e-22)
(19.9622 0.561603 0)
(19.9371 0.557767 -2.35192e-20)
(19.9117 0.552626 -7.4057e-22)
(19.8861 0.546092 2.50489e-20)
(19.8605 0.538046 5.90792e-20)
(19.8348 0.528367 -1.23557e-19)
(19.8092 0.516907 -2.05904e-21)
(19.7838 0.503517 6.89757e-20)
(19.759 0.488016 0)
(19.7351 0.470232 0)
(19.7127 0.449984 0)
(19.6926 0.427113 8.854e-20)
(19.676 0.401518 -9.11208e-20)
(19.6646 0.371021 0)
(19.9943 0.543301 -3.37445e-22)
(19.9707 0.540792 2.34801e-20)
(19.947 0.537204 -2.31946e-20)
(19.9232 0.532507 2.6526e-20)
(19.8996 0.526646 -8.35052e-20)
(19.876 0.519539 1.16821e-19)
(19.8526 0.51109 -1.25361e-19)
(19.8295 0.501184 1.33516e-19)
(19.8067 0.489687 1.8837e-21)
(19.7845 0.476429 -7.48265e-20)
(19.7632 0.461228 -8.11149e-20)
(19.7432 0.443876 8.42891e-20)
(19.7251 0.424167 5.71498e-21)
(19.7099 0.401958 -3.50055e-20)
(19.6984 0.375814 2.83608e-20)
(20.0005 0.5321 5.83057e-21)
(19.9777 0.529574 1.56383e-21)
(19.955 0.525972 -1.65635e-21)
(19.9325 0.521286 -2.91303e-20)
(19.9102 0.51549 2.95632e-20)
(19.8881 0.508534 3.10409e-20)
(19.8665 0.500361 -3.16568e-20)
(19.8453 0.490891 0)
(19.8247 0.48002 2.26472e-21)
(19.8048 0.467612 7.55613e-20)
(19.7858 0.453513 -7.79206e-20)
(19.7682 0.437532 2.53758e-21)
(19.7525 0.419457 0)
(19.7393 0.399089 -2.23534e-20)
(19.7293 0.375452 1.61098e-20)
(20.0056 0.522998 0)
(19.9839 0.520475 -8.66417e-22)
(19.9624 0.516808 1.71514e-20)
(19.9411 0.512002 -1.45516e-20)
(19.9201 0.506056 -3.02164e-20)
(19.8995 0.498958 3.14464e-20)
(19.8794 0.490683 0)
(19.8599 0.481191 3.70267e-20)
(19.8411 0.470423 -3.55131e-20)
(19.8231 0.458288 0)
(19.8062 0.444682 2.40674e-21)
(19.7907 0.429469 -5.09188e-21)
(19.7769 0.412502 0)
(19.7653 0.393663 5.56443e-21)
(19.7567 0.372522 -5.54829e-21)
(20.0097 0.511433 0)
(19.9892 0.509012 -5.99555e-24)
(19.9689 0.505377 -1.83151e-20)
(19.9489 0.500542 1.44781e-20)
(19.9292 0.494523 -1.01799e-21)
(19.91 0.487338 -3.37059e-20)
(19.8913 0.478994 -8.25156e-22)
(19.8733 0.469482 3.0548e-20)
(19.8561 0.45878 0)
(19.8399 0.446842 3.81003e-20)
(19.8247 0.433615 -4.36056e-20)
(19.8109 0.419021 5.06073e-21)
(19.7987 0.402978 0)
(19.7884 0.385431 -1.08698e-20)
(19.7801 0.366062 2.19599e-20)
(20.0127 0.496216 -2.8699e-21)
(19.9935 0.493992 -2.99861e-23)
(19.9745 0.490518 6.70198e-24)
(19.9557 0.485797 1.67378e-20)
(19.9373 0.479857 -1.77386e-20)
(19.9194 0.472743 -3.50271e-20)
(19.9021 0.464492 6.86825e-20)
(19.8856 0.455112 -3.36454e-20)
(19.8698 0.444607 0)
(19.855 0.43298 -2.37191e-21)
(19.8413 0.420228 2.48197e-21)
(19.8289 0.406341 3.57059e-20)
(19.8181 0.391297 -4.39464e-20)
(19.8091 0.375113 -1.07979e-20)
(19.8019 0.357303 -2.80492e-21)
(20.0149 0.47819 -1.02679e-21)
(19.9968 0.476204 3.06084e-21)
(19.979 0.472975 4.59071e-24)
(19.9615 0.468458 1.07994e-21)
(19.9444 0.462702 1.10236e-21)
(19.9277 0.455793 0)
(19.9117 0.447781 4.56501e-21)
(19.8964 0.438678 0)
(19.882 0.428508 3.8312e-20)
(19.8685 0.417323 -3.60109e-20)
(19.856 0.405173 -3.99949e-20)
(19.8448 0.392105 4.29051e-20)
(19.8351 0.378151 5.21717e-21)
(19.8269 0.363384 0)
(19.8203 0.347223 -2.743e-21)
(20.0163 0.459143 -4.18171e-21)
(19.9992 0.457364 -2.21968e-21)
(19.9826 0.454421 5.39992e-21)
(19.9663 0.450124 0)
(19.9504 0.44456 0)
(19.9348 0.437909 -2.28894e-21)
(19.9199 0.430221 -1.88737e-20)
(19.9058 0.42147 2.11616e-20)
(19.8926 0.411703 0)
(19.8802 0.401045 0)
(19.8688 0.389589 0)
(19.8586 0.377432 2.54267e-21)
(19.8497 0.364637 -5.23203e-21)
(19.8423 0.351255 0)
(19.8362 0.336804 0)
(20.0176 0.440981 2.12717e-21)
(20.0011 0.439313 0)
(19.9857 0.436717 0)
(19.9706 0.43258 -9.15446e-21)
(19.9556 0.427114 9.09416e-21)
(19.9409 0.420702 2.34086e-21)
(19.9271 0.413363 1.91113e-20)
(19.9141 0.404989 -2.38606e-20)
(19.9019 0.395634 0)
(19.8903 0.385536 -1.75147e-20)
(19.8799 0.374816 -2.96964e-22)
(19.8703 0.363635 -2.87233e-21)
(19.8622 0.352049 2.34691e-20)
(19.8554 0.340119 8.07024e-21)
(19.85 0.327824 -5.54597e-21)
(20.0199 0.425256 2.19868e-21)
(20.0035 0.423516 -4.45229e-21)
(19.9893 0.421279 1.34026e-20)
(19.9748 0.416986 2.30516e-22)
(19.9604 0.411624 -6.93265e-21)
(19.9463 0.405534 0)
(19.9336 0.398497 -4.77255e-21)
(19.9214 0.390538 2.46614e-21)
(19.9101 0.381628 0)
(19.8992 0.372148 -2.56168e-20)
(19.8895 0.362104 2.03766e-20)
(19.8804 0.351884 -1.03983e-20)
(19.873 0.341456 -2.76848e-21)
(19.8667 0.330885 1.08438e-20)
(19.8618 0.319662 0)
(19.8131 -0.499073 0)
(19.8049 -0.505471 -1.28767e-19)
(19.7865 -0.506516 1.43334e-19)
(19.7507 -0.503628 0)
(19.6888 -0.496686 0)
(19.589 -0.48612 2.48047e-21)
(19.4358 -0.472568 3.91028e-19)
(19.2105 -0.456759 -6.63389e-19)
(18.895 -0.439484 -5.13367e-21)
(18.4692 -0.420605 -1.85359e-21)
(17.9082 -0.399731 6.52292e-19)
(17.1862 -0.377514 -3.72076e-19)
(16.2623 -0.352434 -1.08157e-19)
(15.0871 -0.29248 6.77906e-20)
(13.914 -0.273139 -7.55282e-22)
(19.8001 -0.528614 -9.11645e-21)
(19.7962 -0.540219 6.08611e-20)
(19.7863 -0.548257 -8.23114e-20)
(19.7658 -0.553384 4.9767e-21)
(19.7287 -0.555495 -1.50137e-19)
(19.6668 -0.554956 1.65027e-19)
(19.5683 -0.551446 1.49641e-19)
(19.4177 -0.544839 -1.53645e-20)
(19.1993 -0.534706 -1.61735e-19)
(18.8996 -0.520749 -1.23497e-21)
(18.5044 -0.505249 8.13778e-20)
(17.9643 -0.480768 -1.33837e-20)
(17.1439 -0.448694 -1.30174e-19)
(15.8694 -0.399079 1.17345e-21)
(14.2699 -0.299347 -4.30347e-20)
(19.7802 -0.556682 9.56264e-21)
(19.7767 -0.57408 8.81756e-20)
(19.7693 -0.590905 -8.04606e-20)
(19.7549 -0.606703 -5.07472e-21)
(19.7288 -0.621253 2.54342e-21)
(19.6853 -0.634652 1.57113e-19)
(19.617 -0.646206 -1.77581e-19)
(19.5154 -0.655983 -1.56398e-19)
(19.3647 -0.664649 2.45477e-20)
(19.1318 -0.67795 1.67915e-19)
(18.7699 -0.702532 0)
(18.2461 -0.719812 0)
(17.5793 -0.694879 0)
(16.8727 -0.571464 -4.02376e-23)
(16.3783 -0.306722 9.39645e-21)
(19.7544 -0.577778 -4.26742e-20)
(19.7479 -0.598104 5.25341e-20)
(19.7375 -0.619332 8.68615e-20)
(19.7212 -0.640219 -1.00502e-19)
(19.6956 -0.660603 1.99803e-19)
(19.6571 -0.680802 -9.30662e-21)
(19.5984 -0.701907 -4.3083e-19)
(19.5026 -0.728149 1.15196e-19)
(19.3438 -0.762386 1.84167e-19)
(19.1134 -0.795953 -7.68025e-20)
(18.8336 -0.808985 -1.91869e-21)
(18.5443 -0.777385 -3.35234e-22)
(18.2913 -0.682167 0)
(18.1204 -0.516141 1.46749e-22)
(18.0679 -0.294607 8.43755e-23)
(19.7263 -0.590921 -1.23067e-20)
(19.7166 -0.610924 4.76913e-22)
(19.703 -0.632626 1.34707e-20)
(19.6841 -0.654062 0)
(19.6572 -0.675607 3.89118e-21)
(19.6164 -0.699341 1.23543e-19)
(19.549 -0.728901 -6.44178e-21)
(19.4438 -0.763124 -2.00432e-19)
(19.3073 -0.790485 8.32204e-20)
(19.1621 -0.794667 0)
(19.0324 -0.763661 4.90241e-22)
(18.9344 -0.693435 2.42275e-22)
(18.8762 -0.587253 7.10107e-21)
(18.8579 -0.455062 -6.82916e-21)
(18.8725 -0.311118 -2.96575e-21)
(19.6995 -0.597406 -3.25797e-20)
(19.688 -0.615722 1.43105e-20)
(19.6726 -0.636247 4.85519e-22)
(19.652 -0.656919 4.00059e-21)
(19.6218 -0.679423 -1.28278e-19)
(19.5746 -0.705845 1.12245e-19)
(19.5066 -0.733546 0)
(19.426 -0.752635 1.30122e-21)
(19.3484 -0.752126 0)
(19.2867 -0.726017 0)
(19.2476 -0.674463 7.24649e-22)
(19.2317 -0.602047 -7.57436e-22)
(19.2358 -0.515341 -1.06572e-20)
(19.2546 -0.421387 9.57969e-21)
(19.2819 -0.326126 -2.3943e-22)
(19.6749 -0.597718 -1.34743e-20)
(19.6631 -0.615186 3.80355e-20)
(19.6468 -0.63451 -7.71078e-21)
(19.6239 -0.65463 -3.88043e-21)
(19.5909 -0.676404 0)
(19.5468 -0.697046 3.30142e-21)
(19.4983 -0.709246 0)
(19.4555 -0.705789 1.28036e-21)
(19.4259 -0.683558 3.3677e-20)
(19.4127 -0.643782 -1.93886e-21)
(19.4152 -0.590227 -2.74176e-20)
(19.4307 -0.527605 7.19124e-22)
(19.4552 -0.460279 -1.10597e-22)
(19.4846 -0.391747 -2.89097e-21)
(19.5153 -0.324242 -2.9617e-21)
(19.6532 -0.59577 -7.55846e-21)
(19.6413 -0.612021 6.35471e-20)
(19.6243 -0.629695 -6.45466e-20)
(19.6012 -0.647055 -3.93859e-21)
(19.5726 -0.661655 -5.22101e-20)
(19.5433 -0.668401 9.88131e-20)
(19.5199 -0.662571 -8.62008e-20)
(19.5071 -0.642494 7.4681e-20)
(19.5066 -0.609464 -6.93163e-22)
(19.5177 -0.566512 -2.92178e-20)
(19.5384 -0.517147 -9.27178e-22)
(19.5656 -0.464613 0)
(19.5963 -0.411423 -7.51539e-23)
(19.628 -0.359288 4.06633e-21)
(19.6585 -0.309061 -3.21067e-21)
(19.6343 -0.591101 -2.37848e-20)
(19.6227 -0.6058 4.76501e-20)
(19.6072 -0.619407 -3.09245e-20)
(19.5892 -0.629121 5.66764e-20)
(19.5723 -0.631541 -5.48232e-20)
(19.5606 -0.623702 0)
(19.5574 -0.604664 2.6105e-21)
(19.5636 -0.575584 -3.66778e-20)
(19.5789 -0.538856 -6.09209e-22)
(19.6014 -0.497252 3.18634e-20)
(19.6292 -0.453335 1.67741e-20)
(19.6598 -0.409203 -1.44191e-20)
(19.6913 -0.366307 8.46077e-22)
(19.7219 -0.325484 -8.37305e-22)
(19.7506 -0.287018 -3.49982e-21)
(19.6178 -0.581241 1.12844e-20)
(19.6091 -0.592459 0)
(19.5993 -0.598336 -3.60856e-21)
(19.5909 -0.597462 5.50258e-20)
(19.5871 -0.588061 -4.75519e-20)
(19.5898 -0.569683 0)
(19.5999 -0.543264 -2.40902e-21)
(19.617 -0.510659 0)
(19.64 -0.47406 1.03896e-21)
(19.6671 -0.435619 1.50597e-20)
(19.6968 -0.397146 -1.44728e-20)
(19.7272 -0.359969 -1.49949e-20)
(19.7571 -0.32494 6.42794e-21)
(19.7854 -0.292456 5.48024e-21)
(19.8115 -0.262527 1.83359e-21)
(19.6069 -0.562854 -3.56636e-21)
(19.604 -0.568 -3.50564e-21)
(19.6025 -0.564427 3.17276e-21)
(19.6042 -0.55389 0)
(19.6109 -0.536183 0)
(19.6232 -0.512025 0)
(19.6411 -0.482753 3.79538e-20)
(19.6638 -0.450023 -3.6094e-20)
(19.69 -0.415566 0)
(19.7183 -0.381019 -1.63011e-20)
(19.7473 -0.347677 1.19298e-20)
(19.7761 -0.316394 -5.76415e-21)
(19.8035 -0.28765 8.5928e-21)
(19.8291 -0.261613 1.91006e-21)
(19.8526 -0.238166 1.92962e-21)
(19.6048 -0.534086 1.01148e-20)
(19.6083 -0.531885 -9.62182e-21)
(19.6147 -0.520286 0)
(19.6243 -0.503144 0)
(19.6378 -0.48102 0)
(19.6556 -0.454866 -2.52415e-21)
(19.6776 -0.425786 2.39105e-21)
(19.7028 -0.394943 -2.27788e-21)
(19.7298 -0.363609 0)
(19.7575 -0.333139 0)
(19.785 -0.304539 4.04795e-21)
(19.8115 -0.278325 -3.97954e-21)
(19.8364 -0.254735 -2.0128e-21)
(19.8594 -0.233828 0)
(19.8804 -0.215437 -1.97622e-21)
(19.6118 -0.497136 0)
(19.6207 -0.487745 3.00451e-21)
(19.633 -0.471116 0)
(19.6473 -0.450535 2.12181e-20)
(19.6644 -0.427052 -1.77499e-20)
(19.6849 -0.401455 2.37221e-21)
(19.7087 -0.374434 -2.27002e-21)
(19.7348 -0.346566 2.18127e-21)
(19.7618 -0.318645 0)
(19.7881 -0.292076 0)
(19.8135 -0.26779 -2.01641e-21)
(19.8377 -0.245965 1.98875e-21)
(19.8603 -0.226635 4.02576e-21)
(19.8808 -0.209904 0)
(19.8995 -0.195459 0)
(19.6207 -0.455325 6.03192e-21)
(19.6338 -0.440786 -8.43518e-21)
(19.6506 -0.422277 0)
(19.6675 -0.401163 0)
(19.6859 -0.378672 -2.48927e-21)
(19.7069 -0.35518 0)
(19.7307 -0.331002 0)
(19.7568 -0.306195 1.99493e-20)
(19.7836 -0.281061 -3.65388e-20)
(19.8085 -0.258141 1.70942e-20)
(19.832 -0.237635 -8.42975e-21)
(19.8546 -0.219559 1.84138e-20)
(19.8753 -0.203453 -8.09861e-21)
(19.8948 -0.190413 0)
(19.9121 -0.179029 0)
(14.2213 -0.145009 8.68011e-20)
(15.6041 -0.172575 -2.69044e-19)
(16.8512 -0.156624 2.16678e-19)
(17.8029 -0.167249 0)
(18.5369 -0.173296 -3.54295e-19)
(19.103 -0.176088 -7.87662e-21)
(19.5323 -0.176674 2.83953e-19)
(19.8511 -0.175164 0)
(20.0785 -0.172282 4.78148e-19)
(20.2315 -0.169347 -4.30868e-19)
(20.3284 -0.167514 -5.19168e-24)
(20.3845 -0.167794 -2.04055e-19)
(20.4113 -0.170708 -1.6331e-20)
(20.417 -0.176172 2.49305e-19)
(20.4077 -0.182733 -6.05989e-20)
(14.777 -0.0615779 1.31064e-19)
(16.5373 -0.0515304 -6.5446e-20)
(17.7811 -0.0451737 -8.20284e-22)
(18.5745 -0.0471504 -8.60169e-22)
(19.1096 -0.0492816 8.22332e-22)
(19.5087 -0.0544674 -9.65541e-22)
(19.8136 -0.0600108 2.04191e-19)
(20.0367 -0.0671537 -1.83677e-19)
(20.1902 -0.0759497 -2.07598e-19)
(20.2899 -0.0861782 1.86764e-19)
(20.351 -0.0974258 -2.05502e-19)
(20.3851 -0.109824 1.96434e-19)
(20.4 -0.123244 -2.63543e-22)
(20.4009 -0.137627 9.66764e-20)
(20.3917 -0.152124 -8.80202e-20)
(16.5666 0.0161455 -9.44156e-21)
(17.2834 0.207151 -1.73068e-20)
(18.1002 0.254655 1.87327e-20)
(18.8161 0.217713 5.64917e-22)
(19.3544 0.155892 -2.119e-19)
(19.714 0.104534 -3.54705e-20)
(19.9442 0.0717729 2.11206e-19)
(20.0984 0.0456938 -2.35878e-19)
(20.2065 0.0199219 2.16668e-19)
(20.2805 -0.00630513 -2.24472e-19)
(20.3279 -0.0322479 2.13145e-19)
(20.3556 -0.0575997 0)
(20.3691 -0.0819208 -5.32475e-22)
(20.372 -0.105143 -1.1214e-19)
(20.367 -0.126577 1.09521e-19)
(18.1259 -0.0631747 3.67923e-21)
(18.2956 0.130239 1.89068e-20)
(18.5736 0.250944 -6.67482e-20)
(18.9206 0.293881 4.73915e-20)
(19.2873 0.273957 8.91323e-20)
(19.6229 0.216922 -1.03152e-19)
(19.885 0.151315 0)
(20.0575 0.0970977 0)
(20.1615 0.057637 2.96984e-19)
(20.2288 0.0253123 -2.73191e-19)
(20.2753 -0.00470177 2.68849e-19)
(20.3064 -0.0335126 -2.49327e-19)
(20.3255 -0.060913 7.24439e-21)
(20.335 -0.0867514 -1.09498e-19)
(20.3368 -0.110302 1.21676e-19)
(18.9076 -0.167468 1.75654e-20)
(18.9664 -0.0318164 2.85111e-21)
(19.0622 0.0830949 -1.9015e-20)
(19.2007 0.163783 -9.24105e-22)
(19.3787 0.202335 -1.00237e-21)
(19.5832 0.198557 0)
(19.7905 0.161565 0)
(19.9698 0.108936 2.24111e-21)
(20.0981 0.0597399 3.06854e-19)
(20.1772 0.0224567 -6.35418e-19)
(20.2268 -0.00664839 3.01461e-19)
(20.2608 -0.0328513 0)
(20.2842 -0.057834 0)
(20.2991 -0.0817957 0)
(20.307 -0.103831 0)
(19.3132 -0.232121 2.5374e-22)
(19.3499 -0.139911 0)
(19.3978 -0.0529686 2.42189e-20)
(19.4631 0.021895 -2.58353e-20)
(19.5502 0.0773362 0)
(19.66 0.107132 -8.06098e-20)
(19.7878 0.108637 9.49845e-20)
(19.9212 0.0853632 -1.20067e-19)
(20.0416 0.0481152 1.3249e-19)
(20.1318 0.0106904 -4.92004e-21)
(20.1897 -0.0191945 0)
(20.2265 -0.0431135 -1.59185e-19)
(20.2517 -0.0646407 1.45732e-19)
(20.2693 -0.0852908 -8.74852e-21)
(20.2808 -0.104383 8.27266e-21)
(19.5453 -0.258193 1.77938e-20)
(19.5753 -0.193117 -1.21116e-20)
(19.6083 -0.129858 7.75179e-22)
(19.6479 -0.0712074 -9.36232e-22)
(19.6979 -0.0210448 0)
(19.7611 0.0160959 -1.14023e-21)
(19.8379 0.036145 8.6757e-20)
(19.9253 0.0370356 -9.96178e-20)
(20.0157 0.0207476 3.70604e-21)
(20.0972 -0.00574266 4.28521e-21)
(20.1592 -0.0331589 0)
(20.2003 -0.0562222 4.84208e-21)
(20.2273 -0.075519 0)
(20.2461 -0.0931621 9.00381e-21)
(20.2594 -0.10903 -8.57399e-21)
(19.6869 -0.260594 0)
(19.7136 -0.21326 8.69232e-22)
(19.7405 -0.167089 -2.95699e-20)
(19.7699 -0.123191 3.05596e-20)
(19.8041 -0.0834016 -1.04098e-21)
(19.8454 -0.0502853 -1.14336e-21)
(19.8953 -0.0266839 8.10578e-20)
(19.9533 -0.0151078 -8.78643e-20)
(20.0169 -0.0166272 1.042e-19)
(20.0805 -0.0296045 5.85962e-21)
(20.1365 -0.0492023 -1.39027e-19)
(20.179 -0.0695112 0)
(20.2082 -0.0873752 -4.88994e-21)
(20.2281 -0.103024 0)
(20.2422 -0.116259 0)
(19.7768 -0.250569 3.49875e-21)
(19.8011 -0.215544 -8.69655e-22)
(19.8248 -0.181698 9.02577e-22)
(19.8492 -0.149409 0)
(19.876 -0.119518 3.44766e-20)
(19.9068 -0.0933736 2.06567e-21)
(19.9428 -0.0726656 -3.71784e-20)
(19.9843 -0.0591766 4.0999e-20)
(20.0302 -0.0542575 -4.79486e-20)
(20.0781 -0.05814 5.54385e-20)
(20.1239 -0.0692346 -6.20154e-20)
(20.163 -0.0841769 -4.36725e-21)
(20.1928 -0.0994416 8.39893e-20)
(20.2138 -0.113326 -7.6235e-20)
(20.2284 -0.124549 -1.91617e-20)
(19.8354 -0.234774 -8.39695e-21)
(19.8575 -0.208677 6.50246e-21)
(19.8789 -0.183907 0)
(19.9004 -0.160508 -3.21239e-20)
(19.9234 -0.138828 3.30104e-20)
(19.9488 -0.119561 0)
(19.9775 -0.103662 0)
(20.0098 -0.0922213 0)
(20.0452 -0.086205 4.82981e-20)
(20.0825 -0.0861184 -1.03156e-19)
(20.1193 -0.0915975 1.08295e-19)
(20.1529 -0.101192 -5.43653e-20)
(20.1809 -0.112698 2.7095e-23)
(20.2022 -0.124177 3.64573e-20)
(20.2175 -0.133526 -1.90271e-20)
(19.8741 -0.216957 -2.89379e-21)
(19.8942 -0.197539 1.65497e-20)
(19.9137 -0.179564 1.7636e-22)
(19.9333 -0.162919 -3.44554e-20)
(19.954 -0.147698 1.66454e-20)
(19.9764 -0.134267 -2.21387e-21)
(20.001 -0.123165 0)
(20.0282 -0.115024 0)
(20.0575 -0.110426 0)
(20.0881 -0.109702 -4.36296e-20)
(20.1187 -0.11275 2.64192e-21)
(20.1474 -0.118955 4.87488e-20)
(20.1726 -0.127142 -7.7028e-21)
(20.1931 -0.135964 3.76818e-20)
(20.2085 -0.143564 -4.42201e-20)
(19.8998 -0.199283 1.97463e-21)
(19.918 -0.184982 0)
(19.936 -0.172149 -1.81998e-20)
(19.9542 -0.160577 1.87393e-21)
(19.9734 -0.150223 1.45898e-20)
(19.9939 -0.141345 -1.533e-20)
(20.0162 -0.134295 5.44803e-20)
(20.0403 -0.129408 -7.6257e-20)
(20.066 -0.127014 7.83697e-20)
(20.0926 -0.127197 -4.30487e-20)
(20.1192 -0.129816 -2.92558e-21)
(20.1443 -0.134598 6.34877e-21)
(20.1671 -0.140831 -7.61036e-24)
(20.1862 -0.147557 -3.77423e-21)
(20.2014 -0.153197 -4.09636e-21)
(19.9168 -0.183239 0)
(19.9335 -0.172883 0)
(19.9504 -0.163913 8.10816e-21)
(19.9678 -0.15605 -2.68415e-20)
(19.986 -0.149171 1.88006e-20)
(20.0051 -0.143644 2.16644e-21)
(20.0257 -0.139703 0)
(20.0477 -0.137433 0)
(20.0712 -0.137107 2.41827e-21)
(20.0956 -0.138565 1.80343e-20)
(20.1198 -0.141581 -4.36575e-20)
(20.1424 -0.146154 1.74896e-20)
(20.1633 -0.151616 1.02091e-24)
(20.1814 -0.157266 0)
(20.1965 -0.162131 0)
(19.9279 -0.170146 2.14507e-21)
(19.9433 -0.162946 -8.46583e-21)
(19.9589 -0.156665 1.04673e-20)
(19.9752 -0.151197 2.04302e-21)
(19.9928 -0.146535 1.6243e-20)
(20.0103 -0.14315 -3.61269e-20)
(20.0311 -0.141545 1.96987e-20)
(20.0519 -0.141213 -1.8146e-20)
(20.0741 -0.142466 1.92681e-20)
(20.0966 -0.145037 0)
(20.1189 -0.148569 2.56689e-21)
(20.1391 -0.153248 2.73503e-21)
(20.16 -0.158543 5.86131e-21)
(20.176 -0.163661 3.15802e-21)
(20.1907 -0.167641 0)
(19.7992 0.0161483 -6.34743e-19)
(20.4952 -0.173613 9.206e-22)
(20.6403 -0.137848 -1.65134e-19)
(20.74 -0.0904591 1.34526e-19)
(20.815 -0.0388915 0)
(20.8689 0.0137481 -8.07315e-20)
(20.9013 0.0686995 7.45383e-20)
(20.911 0.123908 5.38862e-20)
(20.8979 0.175624 -4.73943e-20)
(20.8646 0.219249 5.73895e-21)
(20.8168 0.250593 1.79355e-21)
(20.7626 0.267021 0)
(20.7102 0.268851 6.00583e-21)
(20.6651 0.259239 -1.25675e-20)
(20.6274 0.250784 -2.11361e-21)
(17.1373 -0.634198 -6.94761e-19)
(19.6767 -0.153698 1.89764e-19)
(19.8817 -0.223058 3.17528e-21)
(20.0369 -0.213792 -7.685e-20)
(20.1769 -0.186215 1.1131e-19)
(20.3064 -0.15153 -4.22082e-20)
(20.4228 -0.112751 3.79466e-20)
(20.5221 -0.0709825 -3.77422e-20)
(20.6 -0.0274885 2.6038e-20)
(20.6534 0.0155965 -3.29015e-20)
(20.682 0.0560502 -2.15337e-21)
(20.6887 0.091087 1.49604e-20)
(20.6793 0.118632 -1.36205e-20)
(20.6601 0.137293 3.91894e-21)
(20.6356 0.153184 7.60636e-22)
(14.8774 -0.447308 0)
(19.4568 -0.0750686 -1.58033e-19)
(19.7312 -0.183178 9.15319e-20)
(19.854 -0.178755 -2.25325e-21)
(19.9813 -0.164501 -9.10018e-22)
(20.1064 -0.149079 3.36841e-20)
(20.2243 -0.130514 -5.65505e-20)
(20.3316 -0.107912 4.92028e-20)
(20.4248 -0.0816313 -2.13775e-20)
(20.5006 -0.0528633 7.41192e-22)
(20.557 -0.0229728 1.53451e-20)
(20.5939 0.00613884 -1.33125e-21)
(20.6134 0.0329361 2.98045e-21)
(20.6187 0.0559659 -1.72178e-21)
(20.6125 0.0781469 -6.46968e-21)
(12.8995 -0.310243 0)
(19.3974 -0.149549 -1.54581e-21)
(19.7756 -0.250107 -1.21062e-19)
(19.8632 -0.230895 1.62522e-19)
(19.9628 -0.220088 -1.50609e-21)
(20.0676 -0.209977 -8.88457e-20)
(20.1701 -0.196582 3.61344e-20)
(20.2663 -0.178644 0)
(20.3529 -0.156162 -1.33986e-21)
(20.427 -0.129635 4.62641e-21)
(20.4866 -0.100082 1.99903e-21)
(20.5308 -0.0692485 -8.32103e-21)
(20.5602 -0.0390377 1.29582e-20)
(20.5766 -0.011285 -1.2602e-20)
(20.5814 0.012207 4.75513e-21)
(12.9075 -0.216939 6.32187e-21)
(18.7365 -0.298533 1.53924e-19)
(19.5748 -0.318037 -8.33287e-22)
(19.7763 -0.28575 -3.76609e-22)
(19.8886 -0.275388 0)
(19.9891 -0.265531 -1.39717e-21)
(20.0869 -0.252716 3.12374e-20)
(20.1807 -0.235977 -2.61268e-20)
(20.2679 -0.215183 1.45883e-21)
(20.3459 -0.190374 -2.34658e-21)
(20.4122 -0.161966 -1.40255e-21)
(20.4654 -0.131037 -2.86604e-21)
(20.5051 -0.0990898 3.27812e-21)
(20.5318 -0.0675315 0)
(20.546 -0.0408248 0)
(13.8657 -0.198843 1.38469e-19)
(17.8533 -0.363672 -8.04375e-22)
(19.1847 -0.317914 -5.20587e-20)
(19.6064 -0.294458 3.78904e-20)
(19.7804 -0.286572 0)
(19.8954 -0.278296 -2.50707e-20)
(19.9957 -0.268057 2.11022e-20)
(20.0903 -0.255059 1.66649e-20)
(20.1795 -0.238767 2.93789e-22)
(20.2617 -0.218864 -1.19459e-20)
(20.3347 -0.195337 9.67368e-21)
(20.3966 -0.168663 -8.62021e-22)
(20.4463 -0.139718 -1.2425e-20)
(20.4833 -0.109121 7.88529e-21)
(20.5071 -0.0811515 -1.04316e-21)
(14.4604 -0.234805 7.00149e-20)
(17.3092 -0.33918 -4.14207e-20)
(18.8075 -0.299512 -3.11796e-20)
(19.4212 -0.290198 4.81265e-20)
(19.6807 -0.282452 6.76175e-23)
(19.8241 -0.274976 -1.40112e-20)
(19.9311 -0.267105 1.28969e-20)
(20.0259 -0.257734 -3.14673e-23)
(20.1144 -0.245851 -9.77381e-21)
(20.1968 -0.23083 8.13333e-21)
(20.2718 -0.212383 -5.97839e-21)
(20.3378 -0.190606 -3.65861e-21)
(20.3934 -0.165955 4.92845e-21)
(20.4376 -0.138678 -4.96073e-21)
(20.4691 -0.111935 1.81638e-21)
(14.6306 -0.255811 4.38529e-20)
(17.0236 -0.304745 2.65474e-22)
(18.5114 -0.293098 -3.14754e-22)
(19.2428 -0.289496 -4.80862e-22)
(19.5852 -0.280724 0)
(19.7651 -0.273414 -9.81177e-21)
(19.8844 -0.266744 1.58079e-20)
(19.9811 -0.259453 -6.72217e-21)
(20.0683 -0.250375 5.56613e-21)
(20.1492 -0.238696 -5.56052e-21)
(20.2238 -0.223933 2.98533e-22)
(20.2909 -0.205912 -1.00448e-21)
(20.3492 -0.184817 0)
(20.3977 -0.160727 0)
(20.435 -0.135793 -1.65476e-22)
(14.5545 -0.256663 0)
(16.842 -0.285156 0)
(18.282 -0.29094 8.47654e-23)
(19.0767 -0.288364 7.10161e-21)
(19.4869 -0.280208 5.59098e-23)
(19.705 -0.27346 -1.70775e-22)
(19.8409 -0.267499 -3.93589e-21)
(19.9428 -0.261389 3.17808e-21)
(20.0303 -0.254102 1.63839e-23)
(20.1102 -0.244716 -2.38973e-21)
(20.1842 -0.232626 1.85465e-21)
(20.2516 -0.21745 -3.164e-22)
(20.3114 -0.199144 -1.35152e-21)