/*--------------------------------*- C++ -*----------------------------------*\
| =========                 |                                                 |
| \\      /  F ield         | OpenFOAM: The Open Source CFD Toolbox           |
|  \\    /   O peration     | Version:  2.3.0                                 |
|   \\  /    A nd           | Web:      www.OpenFOAM.org                      |
|    \\/     M anipulation  |                                                 |
\*---------------------------------------------------------------------------*/
FoamFile
{
    version     2.0;
    format      ascii;
    class       volScalarField;
    location    "4000";
    object      nuTilda;
}
// * * * * * * * * * * * * * * * * * * * * * * * * * * * * * * * * * * * * * //

dimensions      [0 2 -1 0 0 0 0];

internalField   nonuniform List<scalar> 
14050
(
0.0582403
0.055007
0.0518434
0.0487629
0.045776
0.0428935
0.0401288
0.0374969
0.0350176
0.0327097
0.0305883
0.0286719
0.0269797
0.025502
0.0241196
0.0227523
0.021399
0.0200681
0.0187574
0.017455
0.0161335
0.0147563
0.0133155
0.0120658
0.06172
0.0590397
0.056432
0.0539041
0.0514607
0.0491066
0.0468466
0.044685
0.0426274
0.0406783
0.0388433
0.0371293
0.0355429
0.0340914
0.0327784
0.0316079
0.0305853
0.0297174
0.029013
0.0284763
0.0281115
0.0279204
0.0279015
0.0280523
0.0648572
0.0626178
0.0604501
0.0583555
0.0563367
0.0543966
0.0525387
0.0507662
0.0490826
0.0474921
0.0459984
0.0446058
0.0433199
0.0421454
0.0410885
0.0401541
0.0393494
0.0386787
0.0381461
0.0377557
0.0375079
0.0374016
0.0374331
0.037595
0.0676646
0.0657863
0.0639729
0.0622228
0.0605371
0.0589176
0.0573673
0.0558883
0.0544836
0.0531564
0.05191
0.0507483
0.0496755
0.0486962
0.0478151
0.0470375
0.0463676
0.0458113
0.0453717
0.0450519
0.0448536
0.044776
0.0448168
0.0449719
0.0701598
0.0685816
0.0670545
0.0655784
0.0641543
0.062784
0.0614693
0.0602127
0.0590169
0.0578846
0.0568186
0.0558228
0.0549014
0.0540582
0.0532982
0.0526257
0.0520458
0.051563
0.0511815
0.0509045
0.0507343
0.0506718
0.050716
0.0508642
0.0723842
0.0710452
0.0697473
0.0684893
0.0672718
0.0660961
0.0649638
0.0638777
0.0628405
0.061855
0.0609238
0.0600508
0.0592401
0.0584961
0.057823
0.0572257
0.0567088
0.0562774
0.0559352
0.0556866
0.0555344
0.0554801
0.0555243
0.0556657
0.0743558
0.0732132
0.0721008
0.071018
0.0699647
0.0689422
0.0679527
0.0669988
0.066084
0.0652109
0.0643827
0.0636028
0.0628755
0.0622056
0.0615979
0.061057
0.0605871
0.0601931
0.0598797
0.0596511
0.0595113
0.0594621
0.0595052
0.0596403
0.0761062
0.075122
0.0741598
0.0732186
0.0722976
0.0713976
0.0705213
0.0696708
0.0688514
0.0680665
0.0673189
0.0666116
0.0659483
0.0653348
0.0647774
0.0642803
0.0638473
0.0634828
0.0631915
0.0629779
0.0628469
0.0628011
0.0628424
0.0629721
0.077658
0.0768034
0.075963
0.075138
0.0743249
0.0735234
0.0727411
0.0719712
0.071226
0.0705106
0.0698276
0.0691787
0.0685668
0.0679952
0.0674772
0.0670145
0.0666128
0.066272
0.0660013
0.0657968
0.0656731
0.0656304
0.0656682
0.0657935
0.0790429
0.0782862
0.0775379
0.0768051
0.0760866
0.0753641
0.0746721
0.0739623
0.0732723
0.0726107
0.0719788
0.071377
0.0708155
0.0702713
0.0697852
0.0693439
0.0689751
0.0686503
0.0684089
0.0682039
0.068086
0.0680515
0.0680791
0.0682007
0.0130264
0.0153807
0.0168896
0.018321
0.0198759
0.0216026
0.0234992
0.0255509
0.0277403
0.0300522
0.0324755
0.0350001
0.0376181
0.0403237
0.0431101
0.0459711
0.0489007
0.0518927
0.0549397
0.0580344
0.0611684
0.0643329
0.0675183
0.0707265
0.0283546
0.0288193
0.0294729
0.0303198
0.0313572
0.0325771
0.0339684
0.0355184
0.0372125
0.039037
0.0409796
0.0430275
0.0451707
0.0474004
0.049708
0.0520868
0.0545299
0.0570321
0.0595873
0.0621895
0.064833
0.0675111
0.070217
0.0729516
0.0378745
0.0382801
0.0388308
0.0395308
0.0403783
0.0413694
0.0424981
0.0437564
0.0451358
0.0466265
0.0482195
0.0499054
0.0516764
0.0535251
0.0554446
0.0574289
0.0594724
0.0615708
0.0637189
0.0659123
0.0681466
0.0704169
0.0727183
0.0750523
0.045233
0.0456055
0.0460997
0.0467173
0.0474571
0.0483156
0.0492875
0.0503664
0.0515453
0.052817
0.0541738
0.0556083
0.057114
0.0586849
0.0603153
0.0620006
0.0637362
0.0655181
0.0673429
0.0692073
0.0711084
0.0730428
0.075008
0.0770066
0.0511113
0.0514604
0.0519174
0.0524817
0.0531516
0.0539231
0.0547906
0.0557481
0.0567895
0.057908
0.0590969
0.06035
0.0616616
0.0630263
0.0644392
0.0658965
0.0673945
0.0689297
0.0704993
0.0721009
0.0737326
0.0753924
0.0770797
0.0788019
0.0559009
0.0562319
0.0566614
0.0571876
0.0578077
0.0585169
0.0593096
0.0601797
0.061121
0.0621271
0.0631923
0.0643109
0.065477
0.066686
0.0679337
0.0692159
0.0705294
0.0718716
0.0732397
0.0746316
0.076046
0.0774813
0.0789377
0.0804243
0.0598658
0.0601823
0.0605905
0.0610879
0.0616709
0.0623333
0.0630693
0.063873
0.0647378
0.0656582
0.066629
0.0676444
0.0686991
0.0697882
0.0709075
0.0720531
0.0732217
0.0744111
0.075619
0.076843
0.0780812
0.0793327
0.0805975
0.0818823
0.0631893
0.0634932
0.0638844
0.0643601
0.0649148
0.0655405
0.066232
0.0669831
0.067787
0.0686397
0.0695361
0.0704707
0.0714382
0.0724333
0.0734511
0.0744882
0.0755417
0.076609
0.0776884
0.0787772
0.0798712
0.0809718
0.0820788
0.0832028
0.0660037
0.0662951
0.0666723
0.067132
0.0676667
0.0682609
0.0689168
0.0696251
0.0703777
0.0711753
0.0720128
0.0728834
0.073782
0.0747019
0.0756382
0.0765877
0.0775479
0.0785169
0.0794934
0.0804737
0.0814465
0.0824229
0.0833976
0.0843869
0.0684081
0.0686829
0.069046
0.0694894
0.0700134
0.0705727
0.0711977
0.0718737
0.072579
0.0733336
0.0741251
0.0749453
0.0757911
0.0766505
0.0775214
0.0784014
0.0792861
0.0801777
0.0810762
0.0819758
0.0828327
0.0837089
0.0845705
0.0854549
0.065907
0.0594669
0.0535874
0.0482497
0.0434105
0.039025
0.0350515
0.0314517
0.0281915
0.0252404
0.0225724
0.0201527
0.0179535
0.0159517
0.0141288
0.0124692
0.0109574
0.00958794
0.00838982
0.00745019
0.00661062
0.00570598
0.00466701
0.00339449
0.0665752
0.060752
0.0554272
0.0505694
0.0461401
0.0421056
0.0384358
0.0351052
0.032093
0.0293784
0.0269317
0.0247291
0.0227506
0.0209808
0.0194109
0.0180631
0.0168942
0.0157358
0.0145204
0.0132272
0.0118331
0.0103022
0.00858651
0.00661723
0.0673077
0.0620566
0.0572345
0.0528131
0.0487631
0.0450601
0.0416846
0.038622
0.0358647
0.0333894
0.0311782
0.0292179
0.027501
0.0260347
0.0247489
0.0234864
0.0221895
0.0208237
0.0193575
0.0177597
0.015999
0.0140429
0.0118535
0.00939187
0.0680584
0.0633305
0.0589643
0.0549373
0.0512305
0.047829
0.0447227
0.0419081
0.0393769
0.0371151
0.0351139
0.0333709
0.0318949
0.0305672
0.0292542
0.0278982
0.0264635
0.0249215
0.0232441
0.0214014
0.0193612
0.0170905
0.0145519
0.0117113
0.0688128
0.0645521
0.0605907
0.056915
0.0535142
0.050381
0.0475133
0.0449153
0.0425782
0.0404966
0.0386703
0.0371075
0.0357368
0.0343967
0.0330207
0.0315702
0.0300152
0.0283269
0.026477
0.024434
0.0221665
0.0196383
0.0168113
0.01365
0.0695494
0.0657036
0.0621
0.0587347
0.0556038
0.0527072
0.0500496
0.0476361
0.0454625
0.0435292
0.0418409
0.0404005
0.0390372
0.0376595
0.0362207
0.0346876
0.0330301
0.0312195
0.0292253
0.0270152
0.0245546
0.0218056
0.0187292
0.0152856
0.0702635
0.0667777
0.0634875
0.0603938
0.0574996
0.0548106
0.0523362
0.0500808
0.0480449
0.0462348
0.0446644
0.0432634
0.0418854
0.0404683
0.0389738
0.0373695
0.0356254
0.033711
0.0315943
0.0292407
0.0266131
0.0236721
0.020375
0.0166785
0.0709523
0.0677685
0.0647519
0.061896
0.0592084
0.0567006
0.0543869
0.0522683
0.0503484
0.0486373
0.0471519
0.0457575
0.0443589
0.0429058
0.0413629
0.0396989
0.0378817
0.0358786
0.0336564
0.0311779
0.0284039
0.0252927
0.0217991
0.0178765
0.0715357
0.0686595
0.0658955
0.0632479
0.0607388
0.0583899
0.0562191
0.0542222
0.0524035
0.0507751
0.0493327
0.0479334
0.0465149
0.0450333
0.0434498
0.0417353
0.0398584
0.03778
0.0354657
0.0328762
0.0299709
0.0267079
0.0230415
0.0189179
0.0720972
0.0694724
0.0669357
0.0644615
0.0621014
0.0598878
0.0578498
0.0559673
0.0542385
0.0526918
0.0512491
0.0498348
0.0483947
0.0468991
0.0452843
0.0435215
0.0415974
0.0394621
0.0370654
0.0343722
0.0313425
0.0279452
0.0241375
0.0198418
0.00186179
0.000955459
0.00109477
0.00139358
0.00168036
0.00196139
0.00224708
0.00255294
0.00290325
0.00333479
0.00389195
0.00456645
0.0053451
0.00622734
0.00721728
0.00832169
0.00954806
0.0109037
0.012396
0.0140343
0.0158283
0.0177884
0.0199256
0.0222591
0.00432472
0.00217661
0.00147596
0.00168456
0.00198008
0.00228346
0.00260891
0.0029786
0.0034173
0.00394926
0.00459712
0.00533855
0.00616696
0.00708394
0.00809393
0.00920234
0.0104145
0.0117363
0.0131747
0.0147373
0.0164325
0.0182696
0.020261
0.0224237
0.0066036
0.00367952
0.00200245
0.00196232
0.00227023
0.0026164
0.00300549
0.0034578
0.00398869
0.00460844
0.00532864
0.00612493
0.00699503
0.0079409
0.00896603
0.0100742
0.0112692
0.0125562
0.0139405
0.0154286
0.017028
0.018747
0.0205955
0.0225828
0.00851701
0.00507713
0.00261488
0.002234
0.00255402
0.00295796
0.00342227
0.00395841
0.00457143
0.00526526
0.00604334
0.00688524
0.00778987
0.00875913
0.00979504
0.0108997
0.0120763
0.0133285
0.0146613
0.0160799
0.0175903
0.0191995
0.0209148
0.0227423
0.0101037
0.00626175
0.00322524
0.00250479
0.00283602
0.00330507
0.00384508
0.00445693
0.0051391
0.00589784
0.00672424
0.00760486
0.00853874
0.00952677
0.01057
0.0116693
0.0128273
0.0140469
0.0153317
0.016686
0.0181148
0.019623
0.0212158
0.0228976
0.0114268
0.00724354
0.00378237
0.00277298
0.00311646
0.00365151
0.00426173
0.0049399
0.00568237
0.00649641
0.00736442
0.00827852
0.00923749
0.0102408
0.0112887
0.0123819
0.0135219
0.014711
0.0159516
0.0172471
0.0186009
0.0200165
0.0214967
0.0230419
0.0125392
0.00805857
0.0042698
0.00303393
0.00339195
0.0039899
0.00466361
0.00540013
0.00619678
0.00705698
0.00796145
0.00890467
0.00988506
0.010901
0.0119522
0.0130389
0.0141619
0.0153227
0.0165228
0.0177644
0.0190497
0.0203809
0.0217599
0.0231915
0.0134843
0.00873938
0.00469006
0.00328387
0.00365964
0.00431575
0.0050455
0.00583286
0.00667862
0.00757829
0.00851484
0.00948387
0.0104825
0.0115091
0.0125625
0.0136427
0.0147499
0.0158847
0.0170477
0.01824
0.0194628
0.0207172
0.0220041
0.0233246
0.0142985
0.0093142
0.00504501
0.00352076
0.0039187
0.00462429
0.00540182
0.00623404
0.00712529
0.00806048
0.00902597
0.0100173
0.0110317
0.0120675
0.0131236
0.0141984
0.0152903
0.0163999
0.0175279
0.0186748
0.0198407
0.0210248
0.0222269
0.0234471
0.0150461
0.00991036
0.00542473
0.00374356
0.00414237
0.00490955
0.00574637
0.0066291
0.0075588
0.00851956
0.00950327
0.0105131
0.0115467
0.0125978
0.0136631
0.0147281
0.015791
0.0168671
0.0179588
0.0190628
0.0201785
0.0212983
0.0224213
0.0235499
0.000534791
0.00182572
0.00375689
0.00593496
0.00810161
0.0102143
0.0122684
0.0142639
0.0162018
0.0180827
0.0199144
0.0217297
0.0235879
0.025533
0.0275619
0.0296279
0.0320114
0.0347388
0.0377268
0.0409081
0.044237
0.047683
0.0512238
0.0548461
0.000403291
0.00115474
0.00268944
0.00450621
0.00625663
0.00798191
0.00971767
0.0114817
0.013271
0.0150795
0.016902
0.0187393
0.0206031
0.0225149
0.0244912
0.0265468
0.0287881
0.0312676
0.0339035
0.0369522
0.0403408
0.0439553
0.0477194
0.0515871
0.00024599
0.000745366
0.00176933
0.00316912
0.00497257
0.00696399
0.0088595
0.01066
0.0123977
0.0140974
0.0157787
0.0174594
0.0191582
0.0208968
0.0227017
0.0246062
0.0266607
0.0289162
0.0313858
0.0341592
0.0371682
0.0406445
0.0444581
0.0484913
0.000262743
0.000625842
0.00147326
0.00262941
0.00413338
0.00601442
0.0080333
0.0100097
0.0119129
0.0137368
0.0154818
0.0171552
0.0187749
0.0203694
0.0219779
0.0236502
0.0254433
0.0274201
0.0296366
0.0321438
0.0349442
0.0381093
0.0416233
0.0455823
0.000238143
0.000551901
0.00129562
0.00231188
0.00362818
0.00527896
0.0072655
0.00934963
0.0113968
0.0133765
0.015277
0.0170865
0.0187969
0.0204124
0.0219559
0.0234725
0.0250287
0.0267075
0.0285986
0.0307802
0.0333035
0.0362032
0.0394685
0.0430823
0.00023554
0.000510615
0.00118981
0.00211745
0.00331611
0.00481761
0.00665707
0.00874628
0.010883
0.0129851
0.0150261
0.0169883
0.0188517
0.020598
0.0222203
0.0237327
0.02518
0.0266415
0.028225
0.0300479
0.0322138
0.0347894
0.0377891
0.041179
0.000228395
0.000478042
0.00110903
0.00197354
0.00308823
0.0044818
0.00618956
0.00821682
0.0103985
0.0125944
0.0147504
0.0168433
0.0188518
0.0207513
0.0225174
0.0241353
0.0256133
0.0269969
0.0283778
0.0298879
0.0316749
0.0338645
0.0365263
0.0396587
0.000225268
0.00045534
0.00105152
0.00186942
0.00292202
0.00423593
0.00584463
0.00777821
0.00995658
0.0122146
0.0144642
0.0166686
0.0188044
0.020846
0.0227638
0.0245287
0.0261219
0.0275499
0.028864
0.0301725
0.031635
0.0334273
0.0356906
0.0384893
0.000222109
0.000436959
0.00100532
0.00178682
0.00279113
0.00404292
0.00557374
0.00741832
0.00956013
0.0118527
0.0141774
0.0164776
0.0187243
0.020892
0.0229507
0.0248663
0.0266059
0.0281492
0.0295064
0.0307413
0.0319871
0.0334346
0.0352854
0.0376875
0.000219996
0.000422423
0.000968595
0.00172102
0.00268669
0.003889
0.00535755
0.00712736
0.00921292
0.0115141
0.0138947
0.0162765
0.018621
0.020901
0.023087
0.0251441
0.0270338
0.0287208
0.0301864
0.0314509
0.0326001
0.0338014
0.0352813
0.0372641
0.00021822
0.000410354
0.000938109
0.00166658
0.00260054
0.00376208
0.00517961
0.00688683
0.00891154
0.0112006
0.0136193
0.0160699
0.0185011
0.0208816
0.0231825
0.0253694
0.0274022
0.0292385
0.0308425
0.0322017
0.0333549
0.0344222
0.0356153
0.0372026
0.000216909
0.000400279
0.0009125
0.00162092
0.00252829
0.00365583
0.00503055
0.00668518
0.00865224
0.0109141
0.0133543
0.0158612
0.0183687
0.02084
0.023245
0.0255506
0.0277165
0.0296977
0.0314491
0.0329373
0.0341633
0.0351961
0.0362049
0.0374604
0.000215902
0.000391886
0.000890932
0.00158212
0.00246687
0.00356541
0.00490384
0.00651364
0.00842891
0.0106548
0.0131023
0.015653
0.0182278
0.0207811
0.023281
0.025695
0.0279841
0.0301022
0.0319998
0.033631
0.0349705
0.0360434
0.0369657
0.0379752
0.000215238
0.000384981
0.000873162
0.0015489
0.0024142
0.00348785
0.00479513
0.00636637
0.00823605
0.0104224
0.0128653
0.0154488
0.0180816
0.0207091
0.0232959
0.0258094
0.0282119
0.0304581
0.0324962
0.0342734
0.0357472
0.0369095
0.0378258
0.0386827
0.000214767
0.000379082
0.000857997
0.00152026
0.00236875
0.003421
0.00470124
0.00623918
0.00806869
0.0102158
0.0126454
0.0152512
0.0179336
0.0206283
0.0232949
0.0259002
0.0284076
0.0307727
0.0329437
0.0348641
0.0364805
0.0377616
0.0387312
0.039521
0.000214458
0.00037403
0.000844996
0.00149562
0.00232958
0.00336318
0.00462008
0.00612894
0.00792333
0.0100333
0.0124439
0.0150632
0.0177875
0.0205428
0.0232831
0.0259733
0.0285778
0.0310537
0.0333496
0.0354072
0.0371674
0.0385825
0.0396449
0.0404354
0.000214331
0.000369685
0.000833713
0.00147424
0.00229565
0.00331312
0.0045497
0.00603337
0.00779696
0.00987285
0.0122612
0.0148872
0.017646
0.0204563
0.023265
0.0260346
0.0287295
0.0313085
0.0337213
0.0359095
0.0378102
0.0393654
0.0405426
0.0413721
0.000214345
0.000365973
0.000824012
0.00145579
0.00226629
0.00326977
0.00448856
0.00595023
0.00768684
0.00973213
0.0120969
0.0147239
0.0175115
0.0203715
0.0232441
0.0260882
0.0288683
0.0315439
0.0340664
0.0363781
0.0384143
0.0401101
0.0414156
0.0423222
0.000214467
0.00036277
0.00081562
0.00143974
0.00224074
0.00323193
0.00443533
0.00587767
0.00759068
0.00960832
0.0119496
0.0145736
0.0173846
0.0202897
0.0232224
0.0261374
0.0289979
0.0317647
0.0343907
0.0368189
0.0389843
0.0408176
0.0422559
0.043261
0.000214659
0.000359983
0.000808232
0.00142562
0.00221823
0.00319871
0.00438842
0.0058138
0.00750583
0.00949891
0.0118172
0.014435
0.017265
0.0202111
0.0232004
0.0261831
0.0291205
0.0319739
0.0346977
0.0372362
0.0395244
0.0414905
0.043063
0.0441867
0.000214874
0.000357514
0.000801673
0.00141306
0.00219824
0.00316914
0.00434678
0.00575703
0.00743038
0.00940124
0.0116977
0.0143067
0.0171515
0.0201349
0.0231777
0.0262251
0.0292364
0.0321727
0.0349895
0.0376325
0.0400374
0.0421306
0.0438349
0.0450804
0.000215162
0.000355373
0.000795802
0.00140177
0.00218028
0.00314255
0.00430933
0.00570597
0.00736261
0.00931327
0.0115889
0.0141872
0.0170429
0.0200595
0.0231528
0.0262624
0.0293446
0.0323605
0.0352662
0.0380087
0.0405243
0.0427389
0.0445713
0.0459416
0.000215445
0.000353436
0.000790421
0.00139145
0.00216389
0.00311841
0.00427524
0.00565955
0.00730086
0.0092331
0.0114889
0.014075
0.0169379
0.0199839
0.0231242
0.0262932
0.029444
0.0325363
0.035527
0.0383643
0.0409853
0.0433157
0.0452714
0.0467641
0.000215695
0.000351716
0.000785512
0.00138201
0.00214885
0.00309615
0.0042439
0.00561683
0.00724413
0.00915931
0.0113963
0.0139689
0.0168356
0.019907
0.0230911
0.0263168
0.0295334
0.0326993
0.0357716
0.0386997
0.0414216
0.0438635
0.0459407
0.0475635
0.00021595
0.000350164
0.000780951
0.00137324
0.00213488
0.00307552
0.00421483
0.00557721
0.00719148
0.00909082
0.0113099
0.0138683
0.0167357
0.0198286
0.0230529
0.0263325
0.0296125
0.0328494
0.0360005
0.0390158
0.0418347
0.0443841
0.0465793
0.0483276
0.000216195
0.000348788
0.000776707
0.00136505
0.00212184
0.00305624
0.00418766
0.00554021
0.00714233
0.00902683
0.0112289
0.0137724
0.0166377
0.0197484
0.0230094
0.0263401
0.029681
0.0329866
0.0362137
0.0393132
0.0422254
0.0448783
0.0471868
0.0490555
0.0002164
0.000347527
0.000772713
0.00135738
0.00210958
0.0030381
0.00416213
0.00550543
0.00709612
0.0089667
0.0111525
0.013681
0.0165416
0.0196664
0.0229607
0.0263395
0.0297389
0.0331107
0.0364113
0.039592
0.0425942
0.0453466
0.0477644
0.0497508
0.000216581
0.000346389
0.00076894
0.00135013
0.00209804
0.00302102
0.00413804
0.00547265
0.0070526
0.00891001
0.0110803
0.0135936
0.0164476
0.0195832
0.0229071
0.0263308
0.0297862
0.033222
0.0365934
0.0398524
0.0429412
0.0457894
0.0483121
0.0504102
0.000216743
0.000345379
0.000765437
0.00134335
0.0020872
0.00300495
0.00411536
0.00544173
0.00701152
0.00885651
0.0110121
0.0135103
0.0163561
0.0194991
0.0228492
0.0263149
0.0298236
0.0333209
0.0367609
0.0400957
0.0432684
0.0462096
0.0488361
0.0510515
0.000216861
0.000344449
0.000762106
0.00133695
0.00207698
0.00298983
0.00409403
0.00541262
0.00697279
0.00880601
0.0109476
0.013431
0.0162673
0.0194151
0.0227881
0.0262927
0.0298522
0.0334088
0.0369152
0.0403234
0.0435777
0.0466099
0.0493386
0.05167
0.000216963
0.000343619
0.000759021
0.00133097
0.00206742
0.00297563
0.00407396
0.00538523
0.00693632
0.00875845
0.0108867
0.0133558
0.0161817
0.0193318
0.0227245
0.026265
0.0298727
0.0334863
0.0370566
0.0405356
0.0438681
0.0469868
0.0498092
0.0522323
0.000217036
0.000342842
0.000756093
0.00132534
0.00205843
0.00296233
0.00405517
0.00535956
0.00690212
0.00871378
0.0108295
0.0132846
0.0160996
0.01925
0.0226597
0.0262334
0.0298868
0.0335551
0.0371871
0.0407344
0.0441427
0.0473459
0.0502643
0.0528054
0.000217078
0.000342114
0.000753341
0.00132006
0.00204999
0.00294982
0.00403749
0.00533543
0.00687002
0.00867187
0.0107757
0.0132176
0.0160214
0.0191705
0.0225947
0.026199
0.0298959
0.0336169
0.0373086
0.040922
0.0444035
0.0476884
0.050698
0.0533391
0.000217085
0.000341415
0.000750715
0.00131504
0.00204199
0.00293799
0.00402083
0.00531271
0.0068398
0.00863245
0.0107252
0.0131544
0.015947
0.0190936
0.0225304
0.0261631
0.0299013
0.0336732
0.0374227
0.0411003
0.0446527
0.0480161
0.0511129
0.0538488
0.000217056
0.000340735
0.000748175
0.00131021
0.0020343
0.00292664
0.00400489
0.00529105
0.00681108
0.0085951
0.0106773
0.0130945
0.0158761
0.0190193
0.0224668
0.026126
0.029904
0.0337251
0.0375311
0.0412711
0.0448924
0.0483324
0.0515152
0.0543492
0.000216987
0.000340074
0.000745688
0.00130548
0.0020268
0.00291562
0.00398945
0.00527011
0.00678339
0.00855917
0.0106315
0.0130372
0.015808
0.0189468
0.0224035
0.0260876
0.0299038
0.0337731
0.0376341
0.0414352
0.0451237
0.0486381
0.0519043
0.0548335
0.000216872
0.000339444
0.000743227
0.00130083
0.0020194
0.00290473
0.00397419
0.0052495
0.00675624
0.00852403
0.0105867
0.0129814
0.0157413
0.0188749
0.0223394
0.0260468
0.0299001
0.0338165
0.0377318
0.0415928
0.0453468
0.048933
0.0522784
0.0552963
0.0002167
0.00033884
0.000740778
0.0012962
0.00201203
0.00289388
0.00395899
0.00522893
0.00672915
0.00848906
0.0105423
0.0129259
0.0156747
0.0188022
0.0222727
0.0260018
0.0298909
0.0338537
0.0378227
0.041743
0.0455615
0.0492178
0.0526394
0.0557378
0.000216475
0.000338223
0.000738359
0.00129163
0.00200472
0.00288307
0.0039438
0.00520836
0.006702
0.00845392
0.0104976
0.01287
0.0156072
0.0187271
0.0222014
0.0259501
0.0298735
0.0338819
0.0379043
0.0418838
0.0457666
0.0494923
0.0529884
0.0561651
0.000216196
0.000337604
0.00073598
0.00128714
0.00199751
0.00287237
0.00392872
0.00518785
0.00667483
0.00841868
0.0104526
0.0128136
0.0155385
0.0186491
0.0221243
0.0258895
0.029845
0.0338974
0.0379724
0.0420109
0.0459579
0.0497535
0.0533247
0.0565813
0.000215872
0.000336982
0.000733654
0.00128275
0.00199047
0.0028619
0.00391392
0.00516767
0.00664802
0.00838376
0.0104079
0.0127572
0.0154691
0.0185687
0.0220418
0.0258198
0.0298036
0.0338973
0.0380228
0.0421184
0.0461285
0.0499932
0.0536405
0.0569794
0.000215508
0.000336363
0.000731383
0.00127848
0.00198363
0.00285175
0.00389958
0.0051481
0.00662199
0.00834981
0.0103643
0.012702
0.0154008
0.0184884
0.0219567
0.0257436
0.0297517
0.0338825
0.0380547
0.0422036
0.0462722
0.0502006
0.0539182
0.0573427
0.000215105
0.000335738
0.000729169
0.00127435
0.00197702
0.00284198
0.00388581
0.00512934
0.00659706
0.00831732
0.0103226
0.0126492
0.0153353
0.0184107
0.0218728
0.0256656
0.0296942
0.0338582
0.0380728
0.0422703
0.0463912
0.050373
0.0541383
0.0575774
0.000214669
0.000335102
0.000726999
0.00127033
0.00197064
0.00283258
0.00387262
0.00511144
0.00657336
0.00828653
0.0102831
0.0125994
0.0152736
0.0183374
0.021793
0.0255907
0.0296379
0.0338332
0.0380887
0.042334
0.046509
0.0505526
0.0543951
0.0579608
0.0002142
0.000334454
0.000724863
0.0012664
0.00196443
0.00282346
0.00385989
0.00509425
0.00655072
0.00825724
0.0102458
0.0125524
0.0152156
0.0182685
0.021718
0.0255202
0.0295855
0.0338117
0.0381081
0.0424024
0.0466337
0.0507423
0.0546621
0.0583175
0.0002137
0.000333782
0.000722733
0.00126251
0.00195829
0.0028145
0.00384743
0.0050775
0.00652875
0.00822895
0.0102099
0.0125074
0.0151602
0.0182029
0.0216464
0.0254527
0.0295356
0.0337922
0.0381294
0.0424725
0.0467593
0.0509309
0.0549222
0.0586582
0.000213167
0.000333091
0.000720591
0.00125861
0.00195216
0.00280557
0.00383505
0.00506092
0.00650708
0.00820117
0.0101748
0.0124636
0.0151065
0.0181391
0.0215763
0.0253861
0.0294859
0.0337721
0.0381493
0.0425402
0.046881
0.0511117
0.0551656
0.0589608
0.000212606
0.000332369
0.000718416
0.00125466
0.00194596
0.00279656
0.00382258
0.00504426
0.00648537
0.00817341
0.0101398
0.0124201
0.0150532
0.0180757
0.0215064
0.0253186
0.0294339
0.0337488
0.0381652
0.0426031
0.046997
0.0512865
0.0554054
0.0592744
0.000211993
0.000331635
0.000716194
0.00125064
0.00193965
0.00278739
0.00380991
0.00502735
0.00646337
0.00814533
0.0101045
0.0123763
0.0149995
0.0180119
0.0214352
0.0252487
0.0293781
0.0337203
0.038175
0.0426593
0.0471062
0.0514547
0.0556404
0.0595891
0.000211346
0.000330835
0.000713913
0.00124654
0.00193321
0.00277802
0.00379698
0.00501009
0.00644093
0.00811672
0.0100686
0.0123317
0.014945
0.0179469
0.0213618
0.0251749
0.0293165
0.0336843
0.0381758
0.0427052
0.0472037
0.0516094
0.0558583
0.059876
0.000210655
0.000330057
0.00071162
0.00124238
0.00192666
0.00276849
0.0037838
0.0049925
0.00641805
0.00808754
0.0100319
0.0122862
0.0148893
0.0178802
0.0212859
0.0250967
0.0292483
0.0336395
0.0381657
0.0427385
0.0472863
0.0517464
0.0560537
0.0601323
0.000209924
0.000329202
0.000709266
0.00123813
0.00192
0.00275882
0.00377041
0.00497462
0.0063948
0.00805786
0.00999462
0.01224
0.0148326
0.0178121
0.0212076
0.0250143
0.0291735
0.0335856
0.0381445
0.0427584
0.0473539
0.0518661
0.0562292
0.0603663
0.000209189
0.000328381
0.000706933
0.00123389
0.00191333
0.00274908
0.00375692
0.00495659
0.00637133
0.00802786
0.0099569
0.0121932
0.0147752
0.0177428
0.0211273
0.0249285
0.0290928
0.0335234
0.0381126
0.0427662
0.0474074
0.0519707
0.0563891
0.0605855
0.000208404
0.000327538
0.00070456
0.00122963
0.00190662
0.00273935
0.0037434
0.00493854
0.00634776
0.00799781
0.00991905
0.0121461
0.0147175
0.0176732
0.0210459
0.02484
0.0290075
0.033454
0.0380714
0.0427626
0.0474487
0.0520624
0.0565368
0.0607956
0.00020762
0.000326679
0.000702259
0.00122545
0.00190002
0.00272966
0.00373003
0.00492058
0.00632436
0.00796786
0.00988142
0.0120993
0.0146599
0.0176035
0.0209643
0.0247499
0.0289186
0.0333789
0.0380222
0.0427492
0.0474785
0.0521414
0.0566716
0.0609955
0.000206794
0.000325855
0.000699912
0.00122128
0.00189346
0.00272015
0.00371679
0.00490287
0.00630125
0.00793832
0.00984418
0.0120531
0.0146031
0.0175347
0.0208831
0.0246598
0.0288276
0.0332994
0.0379664
0.0427271
0.0474977
0.0522079
0.0567904
0.061171
0.000205946
0.000324939
0.000697629
0.00121722
0.00188704
0.00271077
0.00370383
0.00488552
0.00627863
0.00790944
0.00980785
0.0120078
0.0145474
0.0174672
0.0208033
0.0245702
0.0287362
0.0332175
0.037906
0.0426985
0.0475087
0.0522647
0.0568984
0.0613355
0.000205131
0.000324137
0.000695462
0.00121326
0.00188081
0.00270167
0.00369121
0.00486862
0.00625667
0.00788126
0.00977238
0.0119638
0.0144933
0.0174015
0.0207255
0.0244826
0.0286454
0.0331347
0.037843
0.0426654
0.0475136
0.0523141
0.0569983
0.0614911
0.000204281
0.000323294
0.000693282
0.00120938
0.00187473
0.00269286
0.00367896
0.0048523
0.00623531
0.00785404
0.009738
0.0119211
0.014441
0.017338
0.0206501
0.0243971
0.0285563
0.0330522
0.0377784
0.0426292
0.0475138
0.0523574
0.0570916
0.0616442
0.000203407
0.000322452
0.000691231
0.00120569
0.0018689
0.0026843
0.00366715
0.00483643
0.00621467
0.00782763
0.00970491
0.0118799
0.0143904
0.0172766
0.0205773
0.0243143
0.0284694
0.0329708
0.0377141
0.0425914
0.0475111
0.0523962
0.0571783
0.0617859
0.000202557
0.000321588
0.000689179
0.00120206
0.00186322
0.00267605
0.00365569
0.00482117
0.00619476
0.00780215
0.00967288
0.0118403
0.0143416
0.0172176
0.0205071
0.0242345
0.0283849
0.0328913
0.0376501
0.0425532
0.0475063
0.0524317
0.0572599
0.0619198
0.000201699
0.000320771
0.000687236
0.0011986
0.00185774
0.00266808
0.00364462
0.0048064
0.0061755
0.00777766
0.00964204
0.0118019
0.0142946
0.0171606
0.0204394
0.024157
0.028303
0.0328134
0.0375868
0.0425144
0.0475
0.0524639
0.0573357
0.0620428
0.000200851
0.000319938
0.000685397
0.0011953
0.00185252
0.00266043
0.00363407
0.00479221
0.00615702
0.00775399
0.00961235
0.011765
0.0142493
0.0171055
0.020374
0.0240823
0.0282231
0.0327372
0.0375245
0.0424755
0.0474923
0.0524936
0.0574078
0.0621604
0.000199984
0.000319144
0.000683581
0.00119207
0.00184743
0.00265305
0.00362378
0.00477848
0.00613912
0.00773116
0.00958358
0.0117294
0.0142055
0.0170525
0.0203107
0.0240097
0.0281454
0.0326625
0.0374628
0.0424363
0.0474835
0.0525217
0.0574791
0.0622851
0.000199098
0.000318275
0.000681826
0.00118897
0.00184253
0.00264587
0.00361387
0.0047652
0.00612182
0.00770911
0.00955591
0.0116949
0.0141632
0.0170012
0.0202496
0.0239392
0.0280699
0.0325895
0.0374022
0.0423975
0.0474743
0.0525479
0.0575454
0.0623949
0.000198258
0.000317463
0.000680125
0.00118594
0.00183776
0.0026389
0.00360423
0.0047523
0.00610509
0.00768767
0.00952896
0.0116616
0.0141222
0.0169513
0.0201903
0.023871
0.027996
0.0325179
0.0373426
0.0423591
0.0474647
0.0525736
0.0576114
0.062506
0.000197369
0.000316659
0.000678422
0.00118298
0.00183309
0.00263212
0.0035948
0.00473974
0.00608867
0.0076668
0.00950271
0.011629
0.0140823
0.016903
0.0201325
0.0238041
0.0279239
0.0324474
0.0372832
0.0423205
0.0474546
0.0525979
0.0576752
0.0626137
0.000196478
0.000315777
0.000676781
0.00118008
0.00182851
0.00262541
0.00358556
0.00472736
0.00607262
0.00764629
0.00947702
0.0115972
0.0140433
0.0168556
0.020076
0.0237388
0.0278527
0.0323776
0.0372243
0.0422814
0.0474432
0.0526201
0.0577362
0.0627193
0.000195568
0.000314981
0.000675171
0.00117726
0.00182403
0.00261889
0.00357643
0.00471517
0.00605676
0.00762611
0.00945165
0.0115658
0.0140048
0.0168091
0.0200204
0.0236745
0.0277826
0.0323084
0.0371652
0.0422418
0.0474306
0.0526403
0.0577937
0.0628182
0.000194634
0.000314075
0.000673585
0.0011745
0.00181963
0.00261241
0.00356749
0.00470319
0.00604113
0.0076062
0.00942669
0.0115348
0.0139668
0.016763
0.0199654
0.0236108
0.0277131
0.0322394
0.0371059
0.0422017
0.0474174
0.0526595
0.0578489
0.0629122
0.00019373
0.000313279
0.000672111
0.00117183
0.00181537
0.00260612
0.00355872
0.00469139
0.00602579
0.00758647
0.00940187
0.0115041
0.0139291
0.0167171
0.0199107
0.0235472
0.0276431
0.0321697
0.0370458
0.0421605
0.0474032
0.0526786
0.0579044
0.0629997
0.000192775
0.000312433
0.000670621
0.00116923
0.00181122
0.00260004
0.00355017
0.00467996
0.0060107
0.00756718
0.00937742
0.0114736
0.0138917
0.0166716
0.0198559
0.0234832
0.0275723
0.0320981
0.0369826
0.0421159
0.0473862
0.0526971
0.0579688
0.0631315
0.000191809
0.000311579
0.000669253
0.00116679
0.00180729
0.00259415
0.00354196
0.00466881
0.00599608
0.00754832
0.00935365
0.0114438
0.0138549
0.0166266
0.0198016
0.0234192
0.0275006
0.0320244
0.0369158
0.0420655
0.0473607
0.052703
0.0580102
0.0632075
0.000190854
0.000310723
0.000667877
0.0011644
0.00180347
0.00258856
0.00353406
0.00465814
0.00598199
0.00753017
0.0093306
0.011415
0.0138191
0.0165828
0.0197486
0.0233565
0.0274295
0.0319502
0.0368469
0.0420112
0.0473291
0.0527
0.0580405
0.063278
0.000189893
0.000309882
0.000666594
0.00116214
0.00179983
0.00258317
0.00352647
0.0046479
0.0059685
0.00751282
0.00930858
0.0113873
0.0137848
0.0165406
0.0196974
0.0232958
0.0273608
0.0318779
0.0367792
0.0419573
0.0472966
0.0526943
0.0580628
0.0633208
0.000188942
0.000309063
0.000665402
0.00116004
0.00179642
0.00257805
0.00351932
0.00463811
0.00595562
0.00749613
0.0092874
0.0113608
0.0137518
0.0165001
0.0196483
0.0232376
0.0272945
0.0318084
0.0367144
0.0419062
0.0472679
0.0526948
0.0580991
0.063404
0.000187958
0.000308266
0.000664208
0.00115797
0.00179309
0.00257314
0.00351235
0.00462872
0.00594324
0.00748015
0.00926704
0.0113353
0.0137202
0.0164612
0.0196011
0.0231814
0.0272306
0.0317411
0.0366515
0.0418571
0.0472411
0.0526973
0.0581369
0.0634819
0.000186929
0.000307415
0.000663064
0.00115599
0.00178985
0.00256832
0.00350563
0.0046196
0.00593123
0.00746471
0.00924749
0.0113107
0.0136898
0.0164238
0.0195556
0.0231273
0.0271688
0.0316757
0.0365899
0.0418082
0.0472134