/*--------------------------------*- C++ -*----------------------------------*\
| =========                 |                                                 |
| \\      /  F ield         | OpenFOAM: The Open Source CFD Toolbox           |
|  \\    /   O peration     | Version:  2.3.0                                 |
|   \\  /    A nd           | Web:      www.OpenFOAM.org                      |
|    \\/     M anipulation  |                                                 |
\*---------------------------------------------------------------------------*/
FoamFile
{
    version     2.0;
    format      ascii;
    class       surfaceScalarField;
    location    "4000";
    object      phi;
}
// * * * * * * * * * * * * * * * * * * * * * * * * * * * * * * * * * * * * * //

dimensions      [0 3 -1 0 0 0 0];

internalField   nonuniform List<scalar> 
27910
(
-0.0100763
-0.0124842
0.0138634
0.00869731
-0.0112749
-0.0114179
0.0126164
-0.0123095
-0.0104409
0.0114755
-0.0131969
-0.00954458
0.010432
-0.0139553
-0.00872227
0.00948071
-0.0145978
-0.00796642
0.00860885
-0.0151351
-0.0072752
0.00781259
-0.0155782
-0.00663793
0.00708099
-0.0159318
-0.0060542
0.00640782
-0.0161958
-0.0055166
0.00578055
-0.0163722
-0.00501824
0.00519463
-0.016459
-0.00455913
0.00464596
-0.016456
-0.00413121
0.00412816
-0.0163612
-0.00373336
0.00363864
-0.0161794
-0.00336026
0.00317841
-0.0159162
-0.00301033
0.00274719
-0.0155757
-0.00268271
0.00234215
-0.0151736
-0.0023711
0.00196901
-0.0147144
-0.00208133
0.00162212
-0.0142143
-0.00180565
0.00130554
-0.013683
-0.001545
0.00101371
-0.0131283
-0.00130354
0.000748844
-0.0125798
-0.00108058
0.000532046
-0.000875653
-0.0121597
0.000455565
-0.00901409
-0.0112838
0.00781374
-0.0100436
-0.0103884
-0.0109221
-0.00956233
-0.0116603
-0.00880635
-0.0122712
-0.00811139
-0.012766
-0.00747162
-0.0131574
-0.00688385
-0.0134544
-0.00634091
-0.0136681
-0.00584055
-0.0138066
-0.00537807
-0.0138735
-0.00495128
-0.0138787
-0.00455393
-0.0138232
-0.00418672
-0.0137122
-0.00384442
-0.0135456
-0.00352683
-0.0133273
-0.00322861
-0.0130574
-0.00295261
-0.0127313
-0.0026972
-0.0123546
-0.00245799
-0.011921
-0.00223926
-0.011428
-0.00203802
-0.0108755
-0.00185609
-0.0102625
-0.00169356
-0.00155046
-0.00958767
-0.00805851
-0.010235
0.00700966
-0.00895804
-0.00948884
-0.00971279
-0.00880758
-0.0103438
-0.00817535
-0.0108579
-0.00759731
-0.011267
-0.00706249
-0.0115801
-0.00657077
-0.0118039
-0.00611706
-0.0119473
-0.00569723
-0.0120169
-0.0053084
-0.01202
-0.00494826
-0.0119601
-0.00461375
-0.0118443
-0.00430251
-0.0116766
-0.00401212
-0.0114626
-0.00374087
-0.0112021
-0.00348913
-0.0109035
-0.00325116
-0.0105688
-0.00303196
-0.0101998
-0.00282693
-0.00980153
-0.00263758
-0.00937628
-0.00246327
-0.00892618
-0.00230619
-0.00845726
-0.00216247
-0.00203789
-0.00796983
-0.00721072
-0.00931261
0.00628836
-0.00799334
-0.00870622
-0.00865292
-0.008148
-0.00919702
-0.00763125
-0.00963731
-0.00715702
-0.00998209
-0.0067177
-0.0102408
-0.0063121
-0.0104205
-0.00593736
-0.0105299
-0.00558779
-0.0105727
-0.0052656
-0.0105566
-0.0049644
-0.0104868
-0.00468348
-0.0103678
-0.00442156
-0.0102037
-0.00417625
-0.00999801
-0.00394653
-0.00975554
-0.00373159
-0.00947649
-0.00353022
-0.00916781
-0.00334064
-0.00883025
-0.00316449
-0.00846679
-0.00300104
-0.00808134
-0.00284871
-0.00767667
-0.00271087
-0.00725418
-0.00258496
-0.00247312
-0.00681896
-0.00645222
-0.00850121
0.00564081
-0.00714438
-0.00801405
-0.0077231
-0.00756928
-0.00819636
-0.00715799
-0.00858024
-0.00677314
-0.00887628
-0.00642166
-0.00909563
-0.00609275
-0.00924504
-0.00578796
-0.00932995
-0.00550287
-0.00935678
-0.00523877
-0.00933028
-0.0049909
-0.0092555
-0.00475827
-0.00913703
-0.00454003
-0.00897882
-0.00433445
-0.00878412
-0.00414123
-0.00855723
-0.00395849
-0.00830217
-0.00378527
-0.00801907
-0.00362374
-0.00771294
-0.00347063
-0.00738603
-0.00332795
-0.00703991
-0.00319483
-0.00667819
-0.00307259
-0.0063036
-0.00295955
-0.00285881
-0.00591791
-0.00578231
-0.00777682
0.00505791
-0.00639237
-0.00740399
-0.00690434
-0.00705732
-0.00732523
-0.0067371
-0.00765962
-0.00643875
-0.00792003
-0.00616125
-0.00810942
-0.00590336
-0.00823669
-0.00566069
-0.00830585
-0.00543372
-0.0083236
-0.00522101
-0.00829422
-0.00502028
-0.00822203
-0.00483046
-0.00811087
-0.00465119
-0.00796413
-0.0044812
-0.00778583
-0.00431953
-0.00757876
-0.00416556
-0.00734418
-0.00401985
-0.00708803
-0.00387989
-0.00680878
-0.00374988
-0.00651338
-0.00362335
-0.00619999
-0.00350822
-0.00587417
-0.00339841
-0.00553511
-0.00329861
-0.00320687
-0.00518705
-0.00518513
-0.00713233
0.00454065
-0.00573151
-0.0068576
-0.00618576
-0.00660306
-0.00655842
-0.00636444
-0.00685615
-0.00614102
-0.00708391
-0.00593349
-0.00725157
-0.0057357
-0.00736204
-0.00555022
-0.00742068
-0.00537508
-0.00743321
-0.00520848
-0.0074033
-0.00505019
-0.00733475
-0.004899
-0.00723138
-0.00475457
-0.00709667
-0.00461591
-0.00693411
-0.00448208
-0.00674531
-0.00435436
-0.00653282
-0.00423234
-0.00629824
-0.00411447
-0.00604739
-0.00400073
-0.00577804
-0.0038927
-0.00549576
-0.0037905
-0.00519963
-0.00369454
-0.00489364
-0.00360459
-0.00352215
-0.00457836
-0.00465629
-0.00655822
0.00408218
-0.00514344
-0.00637045
-0.00554921
-0.00619729
-0.00588406
-0.00602959
-0.00614884
-0.00587624
-0.00635299
-0.00572934
-0.00649997
-0.00558873
-0.00659719
-0.005453
-0.00664765
-0.00532462
-0.00665733
-0.00519879
-0.00662879
-0.00507873
-0.00656473
-0.00496306
-0.00647025
-0.00484905
-0.006347
-0.00473915
-0.00619807
-0.00463101
-0.00602609
-0.00452634
-0.00583426
-0.00442418
-0.00562326
-0.00432546
-0.0053937
-0.0042303
-0.00515047
-0.00413592
-0.0048929
-0.00404808
-0.00462544
-0.003962
-0.00434715
-0.00388287
-0.00380764
-0.00406166
-0.00418734
-0.00604099
0.00367011
-0.0046238
-0.005934
-0.00498962
-0.00583147
-0.00528631
-0.0057329
-0.00552277
-0.00563978
-0.00570567
-0.00554644
-0.00583814
-0.00545626
-0.00592469
-0.00536644
-0.00596924
-0.00528008
-0.00597637
-0.00519166
-0.00594986
-0.00510524
-0.00589129
-0.00502163
-0.00580325
-0.00493709
-0.00569094
-0.00485146
-0.0055556
-0.00476635
-0.00540021
-0.00468173
-0.00522591
-0.00459848
-0.00503461
-0.00451675
-0.00482755
-0.00443736
-0.00460534
-0.00435814
-0.00437347
-0.00427994
-0.00412863
-0.00420685
-0.00387682
-0.00413468
-0.0040673
-0.00361716
-0.00376735
0.00330274
-0.00557638
-0.00415992
-0.00554142
-0.00448687
-0.00550453
-0.00475609
-0.00546367
-0.00497248
-0.00542339
-0.00513369
-0.00538522
-0.00525394
-0.00533602
-0.00532958
-0.0052908
-0.00537055
-0.0052391
-0.00537588
-0.00518633
-0.00535116
-0.00512997
-0.00529862
-0.00507416
-0.00522015
-0.00501556
-0.00511388
-0.00495774
-0.00499132
-0.00488892
-0.00485109
-0.00482196
-0.00469429
-0.00475529
-0.00451863
-0.00469241
-0.00433023
-0.00462576
-0.00413003
-0.00455834
-0.00391805
-0.00449192
-0.0036969
-0.004428
-0.00346615
-0.00436543
-0.00323058
-0.00430287
-0.010889
-0.000773463
-0.000497235
-0.00989446
-0.000792556
-0.000201958
-0.00901518
-0.000846582
-3.26931e-05
-0.00820978
-0.000922079
0.00011668
-0.00746245
-0.00101413
0.000266797
-0.00676026
-0.00112653
0.000424334
-0.00610121
-0.00125515
0.000596098
-0.0054823
-0.00140177
0.000782863
-0.00490337
-0.00156896
0.000990029
-0.00436688
-0.00175431
0.00121782
-0.00387577
-0.00196081
0.0014697
-0.00343236
-0.00219131
0.0017479
-0.00304269
-0.00244348
0.00205382
-0.00270915
-0.00272351
0.00238996
-0.00243815
-0.0030309
0.0027599
-0.00223402
-0.00337021
0.00316608
-0.00210112
-0.00374392
0.00361101
-0.00204636
-0.00415513
0.00410038
-0.00207559
-0.00460916
0.00463839
-0.00219618
-0.00510918
0.00522978
-0.00241638
-0.0056614
0.0058816
-0.00274721
-0.0062691
0.00659993
-0.00320002
-0.00693915
0.00739196
-0.00767884
0.00826611
-0.00378729
-0.00887664
-0.0014845
-0.00817697
-0.00149222
-0.00750784
-0.00151571
-0.00687284
-0.00155708
-0.00626879
-0.00161819
-0.00570079
-0.00169452
-0.00516655
-0.00178938
-0.00466793
-0.0019004
-0.00420632
-0.00203058
-0.00378213
-0.00217849
-0.00339649
-0.00234645
-0.00305291
-0.00253488
-0.00275176
-0.00274463
-0.00249662
-0.00297866
-0.00229068
-0.00323683
-0.00213752
-0.00352337
-0.00204319
-0.00383824
-0.00201265
-0.00418568
-0.00205308
-0.00456872
-0.00217185
-0.00499042
-0.00237897
-0.00545428
-0.00268301
-0.00596506
-0.00309523
-0.00652694
-0.00714642
-0.00362765
-0.00747422
-0.0019801
-0.00697706
-0.00198939
-0.00648445
-0.00200832
-0.00600011
-0.00204142
-0.0055303
-0.00208799
-0.00507584
-0.00214899
-0.00464084
-0.00222438
-0.00422619
-0.00231505
-0.0038362
-0.00242057
-0.00347259
-0.0025421
-0.00313813
-0.00268092
-0.00283654
-0.00283647
-0.00257059
-0.00301058
-0.00234508
-0.00320417
-0.00216316
-0.00341875
-0.00203019
-0.00365634
-0.0019504
-0.00391803
-0.00192959
-0.00420648
-0.00197372
-0.0045246
-0.00209032
-0.00487382
-0.00228588
-0.00525872
-0.0025691
-0.00568184
-0.00295007
-0.00614596
-0.00665797
-0.00343852
-0.00637965
-0.0024194
-0.00594836
-0.00242068
-0.00552423
-0.00243245
-0.00511114
-0.00245452
-0.00471197
-0.00248715
-0.00432749
-0.00253347
-0.00396055
-0.00259133
-0.00361292
-0.00266267
-0.0032868
-0.00274669
-0.00298463
-0.00284427
-0.00270929
-0.00295626
-0.00246262
-0.00308314
-0.00224813
-0.00322507
-0.0020685
-0.0033838
-0.00192747
-0.00355979
-0.00182985
-0.00375397
-0.00177848
-0.0039694
-0.00177927
-0.00420569
-0.00183791
-0.00446595
-0.0019594
-0.00475233
-0.00215182
-0.0050663
-0.00242209
-0.00541157
-0.00277835
-0.0057897
-0.00620661
-0.00322971
-0.00553124
-0.00280608
-0.00515314
-0.00279877
-0.00478414
-0.00280146
-0.00442636
-0.00281229
-0.0040798
-0.00283372
-0.00374797
-0.0028653
-0.00343126
-0.00290804
-0.00313208
-0.00296185
-0.00285288
-0.00302589
-0.00259425
-0.0031029
-0.00235973
-0.00319078
-0.00215151
-0.00329135
-0.001972
-0.00340459
-0.00182435
-0.00353145
-0.00171178
-0.00367236
-0.00163732
-0.00382842
-0.00160659
-0.00400013
-0.00162206
-0.00419022
-0.00168899
-0.00439901
-0.0018136
-0.00462772
-0.00200174
-0.00487817
-0.00225957
-0.00515374
-0.00259478
-0.00545449
-0.0057862
-0.00301519
-0.00483904
-0.00315408
-0.00450047
-0.00313735
-0.00417118
-0.00313075
-0.0038532
-0.00313027
-0.00354704
-0.00313987
-0.00325398
-0.00315836
-0.00297572
-0.0031863
-0.00271476
-0.00322281
-0.00247026
-0.00327039
-0.00224708
-0.00332608
-0.00204631
-0.00339154
-0.00186925
-0.00346841
-0.00171823
-0.00355561
-0.00159664
-0.00365303
-0.00150781
-0.00376119
-0.00145305
-0.00388318
-0.00143687
-0.00401631
-0.00146391
-0.00416318
-0.00153767
-0.00432525
-0.00166326
-0.00450213
-0.00184586
-0.00469557
-0.00209155
-0.00490805
-0.00240634
-0.0051397
-0.00539462
-0.00279791
-0.00426479
-0.00346766
-0.00395841
-0.00344373
-0.00366339
-0.00342576
-0.00337842
-0.00341525
-0.00310533
-0.00341295
-0.0028438
-0.0034199
-0.0025975
-0.0034326
-0.0023653
-0.00345501
-0.00215183
-0.00348385
-0.0019567
-0.00352122
-0.00178096
-0.00356729
-0.00162815
-0.00362122
-0.00150041
-0.00368335
-0.0013989
-0.00375454
-0.00132615
-0.00383395
-0.00128666
-0.00392268
-0.00128216
-0.00402081
-0.00131584
-0.0041295
-0.00139334
-0.00424774
-0.00151715
-0.00437832
-0.00169301
-0.00451971
-0.00192665
-0.00467441
-0.00222271
-0.00484364
-0.0050293
-0.00258803
-0.00377599
-0.00375333
-0.00349949
-0.00372023
-0.00323359
-0.00369166
-0.00297687
-0.00367197
-0.00273048
-0.00365934
-0.00249756
-0.00365283
-0.00227668
-0.00365348
-0.00207105
-0.00366064
-0.00188075
-0.00367415
-0.00170801
-0.00369395
-0.00155454
-0.00372076
-0.00142186
-0.0037539
-0.00131115
-0.00379406
-0.00122569
-0.00384
-0.00116683
-0.0038928
-0.00113798
-0.00395153
-0.00114144
-0.00401735
-0.00118053
-0.00409041
-0.00125797
-0.0041703
-0.00137874
-0.00425756
-0.00154626
-0.00435219
-0.00176687
-0.0044538
-0.00204406
-0.00456644
-0.00468976
-0.00238361
-0.00335694
-0.00401354
-0.00310714
-0.00397004
-0.00286547
-0.00393333
-0.00263553
-0.00390191
-0.00241316
-0.00388171
-0.00220278
-0.0038632
-0.00200468
-0.00385158
-0.00182003
-0.00384529
-0.00165074
-0.00384345
-0.00149777
-0.00384692
-0.00136274
-0.00385578
-0.00124577
-0.00387088
-0.00115022
-0.00388961
-0.00107676
-0.00391346
-0.00102892
-0.00394064
-0.00100732
-0.00397313
-0.00101621
-0.00400846
-0.00105702
-0.00404961
-0.00113411
-0.00409321
-0.00125001
-0.00414166
-0.0014094
-0.00419279
-0.00161578
-0.00424743
-0.00187475
-0.00430747
-0.00437457
-0.00218994
-0.00299535
-0.00424877
-0.00276764
-0.00419774
-0.00254971
-0.00415126
-0.00234264
-0.00410899
-0.00214249
-0.00408185
-0.0019533
-0.00405239
-0.00177403
-0.00403086
-0.00160786
-0.00401146
-0.0014563
-0.00399501
-0.00132031
-0.00398291
-0.00119874
-0.00397735
-0.00109625
-0.00397337
-0.00101112
-0.00397473
-0.000948383
-0.0039762
-0.000908088
-0.00398094
-0.000893299
-0.00398792
-0.000905156
-0.0039966
-0.000947002
-0.00400776
-0.00102117
-0.00401904
-0.00113089
-0.00403193
-0.00128149
-0.0040422
-0.00147527
-0.00405365
-0.00171479
-0.00406795
-0.00200563
-0.00408373
0.0015303
0.000490808
-0.00055788
-0.00146323
0.00155944
0.000260117
-0.000289248
0.00156259
8.92666e-05
-9.24219e-05
0.00155105
-3.44593e-05
4.5998e-05
0.00153279
-0.000119336
0.000137602
0.00151399
-0.000173816
0.000192609
0.00149858
-0.000203362
0.000218775
0.0014889
-0.000213653
0.000223331
0.00148521
-0.000208347
0.000212041
0.00148692
-0.000191152
0.000189435
0.00149299
-0.000165177
0.000159111
0.00150052
-0.000131544
0.000124011
0.00150709
-9.30986e-05
8.65285e-05
0.00150916
-5.0091e-05
4.8027e-05
0.00150211
-3.23329e-06
1.02758e-05
0.00148073
4.74532e-05
-2.60687e-05
0.00143865
0.000103155
-6.10753e-05
0.00136782
0.000164947
-9.41237e-05
0.00125813
0.000236611
-0.000126912
0.00109471
0.000323727
-0.000160313
0.000856275
0.000435401
-0.000196965
0.000510616
0.000587213
-0.000241555
5.01563e-06
0.000805867
-0.000300266
0.0011455
-0.000767446
-0.000373036
0.0014139
0.000424084
-0.00134717
0.00144145
0.000232563
0.00144476
8.5957e-05
0.00143322
-2.29145e-05
0.00141407
-0.000100184
0.00139198
-0.000151728
0.00137059
-0.00018198
0.00135177
-0.000194831
0.0013366
-0.000193173
0.00132439
-0.000178942
0.00131384
-0.000154628
0.00130318
-0.000120885
0.00128914
-7.90594e-05
0.00126787
-2.88255e-05
0.00123487
2.97695e-05
0.00118468
9.76383e-05
0.00111085
0.000176987
0.0010053
0.000270494
0.000858504
0.00038341
0.000658805
0.000523425
0.00039306
0.000701146
4.85205e-05
0.000931752
-0.000382258
0.00123665
0.00162786
-0.00086462
0.0012961
0.000372557
-0.00124458
0.0013169
0.000211768
0.001317
8.58527e-05
0.00130335
-9.26175e-06
0.00128185
-7.86858e-05
0.00125685
-0.000126721
0.00123071
-0.000155846
0.0012051
-0.000169215
0.00118047
-0.000168552
0.00115676
-0.000155225
0.00113264
-0.000130507
0.00110655
-9.47972e-05
0.00107562
-4.81333e-05
0.00103713
9.6677e-06
0.000987241
7.96564e-05
0.000921529
0.00016335
0.000834801
0.000263715
0.000720402
0.000384892
0.000571316
0.000532497
0.000379395
0.000715346
0.000136916
0.000943624
-0.000160808
0.00122948
-0.000511205
0.00158704
0.00201916
-0.000902505
0.00117869
0.000332202
-0.00113833
0.00119343
0.000197027
0.00118988
8.94037e-05
0.00117408
6.53609e-06
0.00115088
-5.5486e-05
0.001123
-9.8846e-05
0.00109326
-0.000126106
0.00106272
-0.000138668
0.00103226
-0.000138095
0.00100169
-0.000124662
0.00096991
-9.87233e-05
0.00093611
-6.09978e-05
0.000898131
-1.01541e-05
0.000853559
5.42398e-05
0.00079951
0.000133705
0.000732078
0.000230782
0.000646862
0.000348931
0.000538416
0.000493338
0.00040108
0.000669832
0.000228427
0.000887999
1.58053e-05
0.00115625
-0.000242888
0.00148817
-0.000549268
0.00189342
0.00237196
-0.000902067
0.00106473
0.000301516
-0.00103405
0.0010748
0.00018696
0.00106896
9.52449e-05
0.00105239
2.30993e-05
0.00102854
-3.16278e-05
0.00100023
-7.0538e-05
0.000969697
-9.5576e-05
0.000937664
-0.000106635
0.000905027
-0.000105458
0.000871716
-9.13502e-05
0.000837622
-6.46303e-05
0.000801041
-2.44164e-05
0.000761093
2.97933e-05
0.000715752
9.95814e-05
0.000662234
0.000187222
0.00059758
0.000295436
0.000517614
0.000428896
0.0004185
0.000592452
0.000294096
0.000794235
0.000140698
0.0010414
-4.88045e-05
0.00134575
-0.000279245
0.00171861
-0.000554021
0.0021682
0.00269687
-0.000878929
0.000955458
0.00027284
-0.000926783
0.000963365
0.000179053
0.000957063
0.000101546
0.000940516
3.96467e-05
0.000917511
-8.62354e-06
0.000890442
-4.34685e-05
0.000860248
-6.53823e-05
0.00082901
-7.53972e-05
0.000796628
-7.30764e-05
0.000763561
-5.82835e-05
0.000729267
-3.03365e-05
0.000693108
1.17427e-05
0.000653968
6.89327e-05
0.000610113
0.000143436
0.000559572
0.000237764
0.000499076
0.000355931
0.00042558
0.000502393
0.000335087
0.000682945
0.000223633
0.000905689
8.49389e-05
0.00118009
-8.61494e-05
0.00151684
-0.000293337
0.00192579
-0.000543789
0.00241865
0.00299422
-0.000841145
0.00085665
0.000251224
-0.000835034
0.000861976
0.000173727
0.000854885
0.000108638
0.000839658
5.48736e-05
0.000818363
1.26711e-05
0.000792765
-1.78707e-05
0.000764958
-3.75751e-05
0.000735266
-4.57055e-05
0.000704675
-4.24849e-05
0.000673171
-2.67799e-05
0.000640577
2.25738e-06
0.000606195
4.61238e-05
0.000569106
0.000106022
0.000527699
0.000184843
0.000480293
0.000285169
0.00042466
0.000411564
0.000357203
0.000569851
0.000274932
0.000765215
0.000173715
0.00100691
4.83567e-05
0.00130545
-0.000106118
0.00167131
-0.000295851
0.00211553
-0.000524699
0.0026475
0.00326922
-0.000799693
0.000766446
0.000234492
-0.000749714
0.000770208
0.000169966
0.000763761
0.000115084
0.000749371
6.92637e-05
0.000729885
3.21565e-05
0.000706988
5.02685e-06
0.000681206
-1.17936e-05
0.000653779
-1.82782e-05
0.000625428
-1.41339e-05
0.00059628
2.36707e-06
0.00056612
3.24179e-05
0.000534261
7.79821e-05
0.000499912
0.000140371
0.000461374
0.000223381
0.000417711
0.000328831
0.000366888
0.000462387
0.000305111
0.000631628
0.00022987
0.000840456
0.000138919
0.00109786
2.52822e-05
0.00141909
-0.000116473
0.00181307
-0.000290692
0.00228975
-0.000500787
0.00285759
0.00351871
-0.000750279
0.000685211
0.000220035
-0.000670754
0.000688353
0.000166823
0.000682279
0.000121159
0.000668737
8.28056e-05
0.000651493
4.93998e-05
0.000630737
2.57831e-05
0.000607475
1.14687e-05
0.000582445
6.75144e-06
0.000556795
1.15158e-05
0.000530122
2.90407e-05
0.000503027
5.95127e-05
0.000473721
0.000107288
0.000443331
0.000170761
0.00040823
0.000258481
0.000367601
0.000369461
0.000322171
0.000507816
0.000266261
0.000687538
0.000196383
0.000910334
0.000114291
0.00117995
1.1096e-05
0.00152228
-0.00012117
0.00194533
-0.000283937
0.00245251
-0.000475299
0.00304896
0.00374826
-0.00070485
0.000611815
0.00021109
-0.00060287
0.000614838
0.0001638
0.000609532
0.000126465
0.000597143
9.51949e-05
0.000582086
6.44566e-05
0.000563898
4.39706e-05
0.000543407
3.19601e-05
0.000519983
3.01749e-05
0.000496408
3.50908e-05
0.000471373
5.40762e-05
0.000446883
8.4002e-05
0.000419186
0.000134985
0.000391503
0.000198443
0.000360398
0.000289585
0.000320322
0.000409537
0.000278142
0.000549997
0.000228953
0.000736727
0.000164626
0.000974661
9.01007e-05
0.00125447
-5.99314e-07
0.00161298
-0.000119674
0.00206441
-0.000276
0.00260884
-0.000457911
0.00323087
-0.000661671
0.00395202
-0.00111026
0.00175013
-0.00140731
-0.00164438
0.0023325
-0.00179838
-0.00224492
0.00270092
-0.00210038
-0.00283877
0.00297162
-0.00237776
-0.00341236
0.0032334
-0.00265981
-0.00395399
0.00349719
-0.00295556
-0.00445353
0.00377009
-0.00327056
-0.00490573
0.0040544
-0.0036022
-0.00530359
0.00435561
-0.00395775
-0.00564276
0.00467369
-0.00433452
-0.0059141
0.00501377
-0.00474243
-0.00611834
0.00537665
-0.0051724
-0.00624471
0.00576472
-0.00563835
-0.00629317
0.0061854
-0.00613695
-0.00625531
0.00663799
-0.00667584
-0.00612699
0.0071281
-0.00725643
-0.00589982
0.00765855
-0.00788572
-0.00557202
0.00823464
-0.00856245
-0.00513165
0.00885514
-0.00929551
-0.00456989
0.00953079
-0.0100925
-0.00387806
0.0102612
-0.010953
-0.00304921
0.0110582
-0.011887
-0.0020685
0.0119191
-0.0128998
0.0128562
-0.0139974
-0.00092727
-0.00127738
0.00216289
-0.00175008
0.0028052
-0.00229736
0.0032482
-0.00283966
0.00351392
-0.00335436
0.0037481
-0.00383262
0.00397545
-0.00427214
0.00420962
-0.0046663
0.00444856
-0.00500783
0.00469714
-0.00529834
0.0049642
-0.00552792
0.00524335
-0.005697
0.00554572
-0.0058003
0.00586803
-0.0058316
0.0062167
-0.00578847
0.00659485
-0.00566231
0.00700194
-0.00545055
0.00744679
-0.00514288
0.00792697
-0.00473683
0.0084491
-0.00422261
0.00901656
-0.00359077
0.00962932
-0.0028299
0.0102973
-0.00193516
0.0110243
0.0118124
-0.000891411
-0.00131511
0.0025755
-0.00175107
0.00324116
-0.00223974
0.00373687
-0.00273323
0.00400741
-0.00319666
0.00421152
-0.00362771
0.00440651
-0.00401599
0.00459789
-0.00436531
0.00479789
-0.00466858
0.00500041
-0.00492005
0.00521567
-0.00512253
0.00544582
-0.00526601
0.0056892
-0.00535343
0.00595545
-0.00537726
0.00624053
-0.0053314
0.00654899
-0.00521468
0.00688522
-0.00501721
0.00724932
-0.00473786
0.00764762
-0.00436428
0.00807552
-0.00389097
0.00854325
-0.00331485
0.00905321
-0.0026223
0.00960473
-0.00180154
0.0102036
0.0108604
-0.000849498
-0.00129549
0.00296892
-0.00170462
0.0036503
-0.00214725
0.0041795
-0.00259045
0.0044506
-0.00300617
0.00462724
-0.00339096
0.00479129
-0.00373952
0.00494645
-0.0040496
0.00510797
-0.00431682
0.00526763
-0.00454222
0.00544107
-0.00472003
0.00562364
-0.00484869
0.00581786
-0.00492241
0.00602917
-0.00494175
0.00625986
-0.00489872
0.00650597
-0.00478998
0.00677648
-0.00460913
0.00706848
-0.00434858
0.00738707
-0.00400899
0.00773593
-0.00358053
0.0081148
-0.00305116
0.00852384
-0.00241963
0.0089732
-0.00167621
0.00946016
0.00998928
-0.000805083
-0.00124315
0.00333313
-0.00162851
0.00403566
-0.00202956
0.00458055
-0.00243004
0.00485108
-0.00280446
0.00500167
-0.00314746
0.00513429
-0.00346081
0.00525981
-0.00373638
0.00538354
-0.00397689
0.00550814
-0.00417677
0.00564094
-0.00433412
0.005781
-0.00444989
0.00593363
-0.00451573
0.006095
-0.0045279
0.00627203
-0.00448942
0.00646749
-0.00438698
0.00667403
-0.00422404
0.00690554
-0.00399002
0.00715304
-0.00367894
0.00742485
-0.00328558
0.00772144
-0.00280776
0.00804602
-0.00223163
0.00839706
-0.00155173
0.00878026
0.00919556
-0.000758005
-0.00117932
0.0036713
-0.00153552
0.00439186
-0.00190208
0.00494711
-0.0022628
0.0052118
-0.00260096
0.00533982
-0.00291002
0.00544335
-0.00318807
0.00553786
-0.00343555
0.00563101
-0.00365144
0.00572403
-0.00382943
0.00581893
-0.00397237
0.00592394
-0.00407424
0.0060355
-0.00413339
0.00615415
-0.00414576
0.0062844
-0.00410727
0.006429
-0.0040167
0.00658346
-0.00386547
0.00675431
-0.00365175
0.00693933
-0.00337009
0.00714319
-0.00301383
0.00736518
-0.00257552
0.00760771
-0.00205143
0.00787298
-0.00143364
0.00816247
0.0084761
-0.000714179
-0.00110884
0.00398045
-0.00143664
0.00471967
-0.00177016
0.00528063
-0.00209346
0.0055351
-0.00239638
0.00564274
-0.00267514
0.0057221
-0.00292806
0.00579078
-0.00314942
0.00585238
-0.00334369
0.00591829
-0.00350544
0.00598069
-0.00363479
0.00605328
-0.00372345
0.00612415
-0.00377841
0.00620912
-0.0037892
0.00629519
-0.00375387
0.00639367
-0.00367067
0.00650027
-0.00353353
0.00661716
-0.00334072
0.00674652
-0.00308351
0.00688598
-0.00275855
0.00704022
-0.0023621
0.00721126
-0.00188562
0.00739651
-0.0013214
0.00759824
0.00782049
-0.000665795
-0.00103776
0.00426792
-0.00133823
0.00502015
-0.00164282
0.00558521
-0.00193523
0.00582751
-0.00220733
0.00591484
-0.00245662
0.00597139
-0.00268106
0.00601523
-0.00288328
0.0060546
-0.00305735
0.00609236
-0.00320327
0.00612661
-0.00331748
0.00616749
-0.00340202
0.00620869
-0.00344887
0.00625597
-0.00346022
0.00630653
-0.00342818
0.00636164
-0.00335032
0.0064224
-0.00322731
0.00649415
-0.00305051
0.00656971
-0.00281839
0.00665386
-0.00252477
0.0067466
-0.00216345
0.00684994
-0.0017286
0.00696166
-0.00121826
0.0070879
0.00722269
-0.000620453
-0.000964149
0.00452722
-0.00124352
0.00529952
-0.00151576
0.00585745
-0.00177735
0.00608911
-0.00202098
0.00615847
-0.0022468
0.00619721
-0.0024532
0.00622162
-0.00263535
0.00623676
-0.00279158
0.00624859
-0.0029266
0.00626163
-0.00302987
0.00627077
-0.0031063
0.00628512
-0.00314711
0.00629678
-0.00315507
0.0063145
-0.00312599
0.00633255
-0.00306027
0.00635668
-0.00294463
0.00637852
-0.00278394
0.00640902
-0.00257235
0.00644227
-0.00230558
0.00647983
-0.00197731
0.00652167
-0.00158414
0.00656849
-0.0011176
0.00662136
0.00668085
-0.000575761
-0.000902325
0.00476788
-0.00116178
0.00555898
-0.00140067
0.00609634
-0.0016302
0.00631863
-0.00185213
0.00638041
-0.00205505
0.00640013
-0.00224099
0.00640756
-0.00240549
0.00640125
-0.00254875
0.00639185
-0.00266883
0.00638171
-0.00276334
0.00636528
-0.00282954
0.00635132
-0.0028708
0.00633804
-0.0028772
0.0063209
-0.00285142
0.00630677
-0.00278888
0.00629414
-0.00268728
0.00627693
-0.00254089
0.00626264
-0.00234946
0.00625083
-0.0021054
0.00623577
-0.00180611
0.00622238
-0.00145068
0.00621306
-0.00102731
0.00619799
0.0061893
-0.000535755
0.00131724
-0.00086167
0.00242214
-0.000572855
0.0034927
-0.000321711
0.00456377
-5.73535e-05
0.00562008
0.000249228
0.00663418
0.000608022
0.0075823
0.0010209
0.00843411
0.00149034
0.00917305
0.00200825
0.00977907
0.00257239
0.010245
0.00317273
0.0105681
0.00380502
0.0107501
0.004464
0.0108021
0.00514262
0.0107443
0.00583835
0.0105995
0.00655258
0.0103877
0.00729279
0.0101357
0.00806459
0.00986236
0.00888224
0.00958263
0.00976044
0.00930234
0.0107123
0.00902805
0.0117498
0.00876129
0.0128831
0.0141242
0.00850046
-0.000135432
-0.000726246
7.522e-05
-0.000783511
0.000495961
-0.000742453
0.00107877
-0.000640164
0.00179666
-0.000468665
0.00263171
-0.000227026
0.00356179
9.08199e-05
0.00455966
0.000492465
0.00558209
0.00098582
0.00658514
0.00156934
0.00751883
0.00223904
0.00834232
0.00298153
0.00902124
0.00378508
0.0095335
0.00463036
0.00987192
0.00549994
0.0100436
0.00638091
0.010071
0.00726533
0.00998158
0.00815406
0.00980767
0.00905615
0.00958251
0.0099856
0.00932941
0.0109654
0.00906587
0.0120133
0.00879951
0.0131495
0.014382
0.00854171
-2.18311e-05
-0.000704411
-3.22133e-05
-0.000773129
5.45043e-06
-0.000780114
0.000114929
-0.000749644
0.000328294
-0.000682028
0.000672141
-0.000570874
0.00116785
-0.00040489
0.00182473
-0.000164417
0.00263677
0.000173786
0.00357718
0.000628934
0.00460213
0.00121409
0.00565257
0.00193109
0.00666737
0.00277027
0.00758248
0.00371525
0.00834576
0.00473666
0.00892211
0.00580456
0.00930023
0.00688721
0.00948966
0.00796462
0.00951972
0.00902609
0.00942765
0.0100777
0.00925458
0.0111384
0.00903369
0.0122342
0.00879077
0.0133924
0.0146405
0.00853226
-2.38976e-05
-0.000680514
-1.45593e-05
-0.000782469
2.32606e-05
-0.000817934
9.4596e-05
-0.000820981
0.000207534
-0.000794966
0.000373477
-0.000736818
0.00060848
-0.000639893
0.000934823
-0.000490761
0.00137937
-0.000270763
0.00196435
4.39531e-05
0.00270042
0.00047803
0.00357519
0.00105632
0.00455022
0.00179524
0.00556772
0.00269775
0.00655441
0.00374997
0.00743676
0.00492221
0.00815161
0.00617236
0.00866451
0.00745172
0.00896849
0.0087221
0.00908473
0.00996142
0.00905325
0.0111699
0.00892042
0.012367
0.00872689
0.013586
0.0148674
0.00850003
1.55996e-06
-0.000682074
9.41274e-06
-0.000790323
2.8783e-05
-0.000837304
6.40892e-05
-0.000856288
0.000121483
-0.000852359
0.000208669
-0.000824005
0.000334907
-0.00076613
0.000515111
-0.000670966
0.000768616
-0.000524267
0.00112012
-0.000307549
0.00159494
3.2044e-06
0.00221304
0.000438213
0.00297969
0.00102859
0.0038771
0.00180034
0.00485919
0.00276788
0.00585678
0.00392462
0.00678928
0.00523986
0.00757747
0.00666353
0.00816633
0.00813325
0.00853709
0.00959066
0.00870502
0.011002
0.00870958
0.0123625
0.00859991
0.0136956
0.0150417
0.00842563
-6.01662e-06
-0.000676058
-6.8574e-07
-0.000795654
1.60932e-05
-0.000854082
4.52905e-05
-0.000885486
8.98489e-05
-0.000896917
0.000153476
-0.000887632
0.000241963
-0.000854617
0.000362877
-0.000791881
0.000528472
-0.000689862
0.000754625
-0.000533703
0.00106105
-0.00030322
0.00147224
2.70265e-05
0.0020129
0.000487926
0.00269769
0.00111555
0.00352295
0.00194262
0.0044563
0.00299127
0.00543392
0.00426223
0.00637227
0.00572518
0.00718494
0.00732058
0.00780365
0.00897195
0.00819932
0.0106063
0.00838492
0.0121769
0.00840226
0.0136783
0.0151433
0.00830063
-1.88086e-08
-0.00067604
6.88004e-06
-0.000802553
2.07557e-05
-0.000867958
4.27555e-05
-0.000907486
7.49493e-05
-0.00092911
0.00012073
-0.000933413
0.00018343
-0.000917317
0.000268433
-0.000876885
0.000383557
-0.000804985
0.000539696
-0.000689844
0.000751728
-0.000515251
0.00103862
-0.000259866
0.00142232
0.000104225
0.0019268
0.00061107
0.00256979
0.00129963
0.00335305
0.00220801
0.00425106
0.00336422
0.00520601
0.00477024
0.0061324
0.00639419
0.00693785
0.0081665
0.00755022
0.00999396
0.0079369
0.0117902
0.00811281
0.0135024
0.0151326
0.00812355
-8.35397e-07
-0.000675204
5.05483e-06
-0.000808444
1.71803e-05
-0.000880083
3.59943e-05
-0.0009263
6.28712e-05
-0.000955987
9.97839e-05
-0.000970326
0.000149517
-0.000967049
0.000215576
-0.000942945
0.000302657
-0.000892066
0.000418789
-0.000805976
0.000574555
-0.000671017
0.000783696
-0.000469007
0.00106416
-0.000176242
0.00143766
0.00023757
0.00192689
0.000810404
0.00255008
0.00158482
0.00331191
0.00260239
0.00418802
0.00389412
0.00512125
0.00546096
0.00602394
0.0072638
0.00680175
0.00921615
0.00738038
0.0112116
0.00773201
0.0131507
0.0149866
0.00787796
6.32315e-07
-0.000675837
6.41829e-06
-0.00081423
1.72934e-05
-0.000890959
3.34142e-05
-0.000942421
5.59744e-05
-0.000978547
8.6191e-05
-0.00100054
0.000126497
-0.00100736
0.000179027
-0.000995475
0.000247805
-0.000960844
0.000337852
-0.000896024
0.000457303
-0.000790468
0.000616691
-0.000628396
0.000829705
-0.000389255
0.00111376
-4.64828e-05
0.00149016
0.000434003
0.00198114
0.00109383
0.00260339
0.00198014
0.00336024
0.00313727
0.00422595
0.00459526
0.00513981
0.00634994
0.00600964
0.00834632
0.00673966
0.0104815
0.00726121
0.0126292
0.0146907
0.00755711
5.92011e-07
-0.000676429
6.38741e-06
-0.000820025
1.62451e-05
-0.000900817
3.04615e-05
-0.000956637
4.99073e-05
-0.000997993
7.58788e-05
-0.00102651
0.000109633
-0.00104111
0.000153614
-0.00103946
0.000210018
-0.00101725
0.000283136
-0.000969142
0.000378435
-0.000885766
0.000504067
-0.000754029
0.000671056
-0.000556244
0.000893397
-0.000268825
0.00118842
0.000138978